 Molden2AIM, Version 4.0.0 (06/02/2016)           Time: Wed Jun 27 23:08:31 2018
GAUSSIAN             39 MOL ORBITALS    750 PRIMITIVES       10 NUCLEI
  C    1    (CENTRE  1)  -1.17285852  0.70645332  0.00000000  CHARGE =  6.0
  C    2    (CENTRE  2)   1.17285852 -0.70645332  0.00000000  CHARGE =  6.0
  C    3    (CENTRE  3)  -3.51538570 -0.25023186  0.00000000  CHARGE =  6.0
  C    4    (CENTRE  4)   3.51538570  0.25023186  0.00000000  CHARGE =  6.0
  F    5    (CENTRE  5)  -0.94714207  3.23278283  0.00000000  CHARGE =  9.0
  F    6    (CENTRE  6)   0.94714207 -3.23278283  0.00000000  CHARGE =  9.0
  F    7    (CENTRE  7)  -4.08270983 -2.66533776  0.00000000  CHARGE =  9.0
  F    8    (CENTRE  8)   4.08270983  2.66533776  0.00000000  CHARGE =  9.0
  F    9    (CENTRE  9)  -5.54354182  1.18547055  0.00000000  CHARGE =  9.0
  F   10    (CENTRE 10)   5.54354182 -1.18547055  0.00000000  CHARGE =  9.0
CENTRE ASSIGNMENTS    1  1  1  1  1  1  1  1  1  1  1  1  1  1  1  1  1  1  1  1
CENTRE ASSIGNMENTS    1  1  1  1  1  1  1  1  1  1  1  1  1  1  1  1  1  1  1  1
CENTRE ASSIGNMENTS    1  1  1  1  1  1  1  1  1  1  1  1  1  1  1  1  1  1  1  1
CENTRE ASSIGNMENTS    1  1  1  1  1  1  1  1  1  1  1  1  1  1  1  2  2  2  2  2
CENTRE ASSIGNMENTS    2  2  2  2  2  2  2  2  2  2  2  2  2  2  2  2  2  2  2  2
CENTRE ASSIGNMENTS    2  2  2  2  2  2  2  2  2  2  2  2  2  2  2  2  2  2  2  2
CENTRE ASSIGNMENTS    2  2  2  2  2  2  2  2  2  2  2  2  2  2  2  2  2  2  2  2
CENTRE ASSIGNMENTS    2  2  2  2  2  2  2  2  2  2  3  3  3  3  3  3  3  3  3  3
CENTRE ASSIGNMENTS    3  3  3  3  3  3  3  3  3  3  3  3  3  3  3  3  3  3  3  3
CENTRE ASSIGNMENTS    3  3  3  3  3  3  3  3  3  3  3  3  3  3  3  3  3  3  3  3
CENTRE ASSIGNMENTS    3  3  3  3  3  3  3  3  3  3  3  3  3  3  3  3  3  3  3  3
CENTRE ASSIGNMENTS    3  3  3  3  3  4  4  4  4  4  4  4  4  4  4  4  4  4  4  4
CENTRE ASSIGNMENTS    4  4  4  4  4  4  4  4  4  4  4  4  4  4  4  4  4  4  4  4
CENTRE ASSIGNMENTS    4  4  4  4  4  4  4  4  4  4  4  4  4  4  4  4  4  4  4  4
CENTRE ASSIGNMENTS    4  4  4  4  4  4  4  4  4  4  4  4  4  4  4  4  4  4  4  4
CENTRE ASSIGNMENTS    5  5  5  5  5  5  5  5  5  5  5  5  5  5  5  5  5  5  5  5
CENTRE ASSIGNMENTS    5  5  5  5  5  5  5  5  5  5  5  5  5  5  5  5  5  5  5  5
CENTRE ASSIGNMENTS    5  5  5  5  5  5  5  5  5  5  5  5  5  5  5  5  5  5  5  5
CENTRE ASSIGNMENTS    5  5  5  5  5  5  5  5  5  5  5  5  5  5  5  6  6  6  6  6
CENTRE ASSIGNMENTS    6  6  6  6  6  6  6  6  6  6  6  6  6  6  6  6  6  6  6  6
CENTRE ASSIGNMENTS    6  6  6  6  6  6  6  6  6  6  6  6  6  6  6  6  6  6  6  6
CENTRE ASSIGNMENTS    6  6  6  6  6  6  6  6  6  6  6  6  6  6  6  6  6  6  6  6
CENTRE ASSIGNMENTS    6  6  6  6  6  6  6  6  6  6  7  7  7  7  7  7  7  7  7  7
CENTRE ASSIGNMENTS    7  7  7  7  7  7  7  7  7  7  7  7  7  7  7  7  7  7  7  7
CENTRE ASSIGNMENTS    7  7  7  7  7  7  7  7  7  7  7  7  7  7  7  7  7  7  7  7
CENTRE ASSIGNMENTS    7  7  7  7  7  7  7  7  7  7  7  7  7  7  7  7  7  7  7  7
CENTRE ASSIGNMENTS    7  7  7  7  7  8  8  8  8  8  8  8  8  8  8  8  8  8  8  8
CENTRE ASSIGNMENTS    8  8  8  8  8  8  8  8  8  8  8  8  8  8  8  8  8  8  8  8
CENTRE ASSIGNMENTS    8  8  8  8  8  8  8  8  8  8  8  8  8  8  8  8  8  8  8  8
CENTRE ASSIGNMENTS    8  8  8  8  8  8  8  8  8  8  8  8  8  8  8  8  8  8  8  8
CENTRE ASSIGNMENTS    9  9  9  9  9  9  9  9  9  9  9  9  9  9  9  9  9  9  9  9
CENTRE ASSIGNMENTS    9  9  9  9  9  9  9  9  9  9  9  9  9  9  9  9  9  9  9  9
CENTRE ASSIGNMENTS    9  9  9  9  9  9  9  9  9  9  9  9  9  9  9  9  9  9  9  9
CENTRE ASSIGNMENTS    9  9  9  9  9  9  9  9  9  9  9  9  9  9  9 10 10 10 10 10
CENTRE ASSIGNMENTS   10 10 10 10 10 10 10 10 10 10 10 10 10 10 10 10 10 10 10 10
CENTRE ASSIGNMENTS   10 10 10 10 10 10 10 10 10 10 10 10 10 10 10 10 10 10 10 10
CENTRE ASSIGNMENTS   10 10 10 10 10 10 10 10 10 10 10 10 10 10 10 10 10 10 10 10
CENTRE ASSIGNMENTS   10 10 10 10 10 10 10 10 10 10
TYPE ASSIGNMENTS      1  1  1  1  1  1  1  1  1  1  1  1  1  1  1  1  1  1  1  2
TYPE ASSIGNMENTS      2  2  3  3  3  4  4  4  2  3  4  2  3  4  2  3  4  5  6  7
TYPE ASSIGNMENTS      8  9 10  5  6  7  8  9 10  5  6  7  8  9 10 11 12 13 17 14
TYPE ASSIGNMENTS     15 18 19 16 20 11 12 13 17 14 15 18 19 16 20  1  1  1  1  1
TYPE ASSIGNMENTS      1  1  1  1  1  1  1  1  1  1  1  1  1  1  2  2  2  3  3  3
TYPE ASSIGNMENTS      4  4  4  2  3  4  2  3  4  2  3  4  5  6  7  8  9 10  5  6
TYPE ASSIGNMENTS      7  8  9 10  5  6  7  8  9 10 11 12 13 17 14 15 18 19 16 20
TYPE ASSIGNMENTS     11 12 13 17 14 15 18 19 16 20  1  1  1  1  1  1  1  1  1  1
TYPE ASSIGNMENTS      1  1  1  1  1  1  1  1  1  2  2  2  3  3  3  4  4  4  2  3
TYPE ASSIGNMENTS      4  2  3  4  2  3  4  5  6  7  8  9 10  5  6  7  8  9 10  5
TYPE ASSIGNMENTS      6  7  8  9 10 11 12 13 17 14 15 18 19 16 20 11 12 13 17 14
TYPE ASSIGNMENTS     15 18 19 16 20  1  1  1  1  1  1  1  1  1  1  1  1  1  1  1
TYPE ASSIGNMENTS      1  1  1  1  2  2  2  3  3  3  4  4  4  2  3  4  2  3  4  2
TYPE ASSIGNMENTS      3  4  5  6  7  8  9 10  5  6  7  8  9 10  5  6  7  8  9 10
TYPE ASSIGNMENTS     11 12 13 17 14 15 18 19 16 20 11 12 13 17 14 15 18 19 16 20
TYPE ASSIGNMENTS      1  1  1  1  1  1  1  1  1  1  1  1  1  1  1  1  1  1  1  2
TYPE ASSIGNMENTS      2  2  3  3  3  4  4  4  2  3  4  2  3  4  2  3  4  5  6  7
TYPE ASSIGNMENTS      8  9 10  5  6  7  8  9 10  5  6  7  8  9 10 11 12 13 17 14
TYPE ASSIGNMENTS     15 18 19 16 20 11 12 13 17 14 15 18 19 16 20  1  1  1  1  1
TYPE ASSIGNMENTS      1  1  1  1  1  1  1  1  1  1  1  1  1  1  2  2  2  3  3  3
TYPE ASSIGNMENTS      4  4  4  2  3  4  2  3  4  2  3  4  5  6  7  8  9 10  5  6
TYPE ASSIGNMENTS      7  8  9 10  5  6  7  8  9 10 11 12 13 17 14 15 18 19 16 20
TYPE ASSIGNMENTS     11 12 13 17 14 15 18 19 16 20  1  1  1  1  1  1  1  1  1  1
TYPE ASSIGNMENTS      1  1  1  1  1  1  1  1  1  2  2  2  3  3  3  4  4  4  2  3
TYPE ASSIGNMENTS      4  2  3  4  2  3  4  5  6  7  8  9 10  5  6  7  8  9 10  5
TYPE ASSIGNMENTS      6  7  8  9 10 11 12 13 17 14 15 18 19 16 20 11 12 13 17 14
TYPE ASSIGNMENTS     15 18 19 16 20  1  1  1  1  1  1  1  1  1  1  1  1  1  1  1
TYPE ASSIGNMENTS      1  1  1  1  2  2  2  3  3  3  4  4  4  2  3  4  2  3  4  2
TYPE ASSIGNMENTS      3  4  5  6  7  8  9 10  5  6  7  8  9 10  5  6  7  8  9 10
TYPE ASSIGNMENTS     11 12 13 17 14 15 18 19 16 20 11 12 13 17 14 15 18 19 16 20
TYPE ASSIGNMENTS      1  1  1  1  1  1  1  1  1  1  1  1  1  1  1  1  1  1  1  2
TYPE ASSIGNMENTS      2  2  3  3  3  4  4  4  2  3  4  2  3  4  2  3  4  5  6  7
TYPE ASSIGNMENTS      8  9 10  5  6  7  8  9 10  5  6  7  8  9 10 11 12 13 17 14
TYPE ASSIGNMENTS     15 18 19 16 20 11 12 13 17 14 15 18 19 16 20  1  1  1  1  1
TYPE ASSIGNMENTS      1  1  1  1  1  1  1  1  1  1  1  1  1  1  2  2  2  3  3  3
TYPE ASSIGNMENTS      4  4  4  2  3  4  2  3  4  2  3  4  5  6  7  8  9 10  5  6
TYPE ASSIGNMENTS      7  8  9 10  5  6  7  8  9 10 11 12 13 17 14 15 18 19 16 20
TYPE ASSIGNMENTS     11 12 13 17 14 15 18 19 16 20
EXPONENTS  0.8236000D+04 0.1235000D+04 0.2808000D+03 0.7927000D+02 0.2559000D+02
EXPONENTS  0.8997000D+01 0.3319000D+01 0.3643000D+00 0.8236000D+04 0.1235000D+04
EXPONENTS  0.2808000D+03 0.7927000D+02 0.2559000D+02 0.8997000D+01 0.3319000D+01
EXPONENTS  0.3643000D+00 0.9059000D+00 0.1285000D+00 0.4402000D-01 0.1871000D+02
EXPONENTS  0.4133000D+01 0.1200000D+01 0.1871000D+02 0.4133000D+01 0.1200000D+01
EXPONENTS  0.1871000D+02 0.4133000D+01 0.1200000D+01 0.3827000D+00 0.3827000D+00
EXPONENTS  0.3827000D+00 0.1209000D+00 0.1209000D+00 0.1209000D+00 0.3569000D-01
EXPONENTS  0.3569000D-01 0.3569000D-01 0.1097000D+01 0.1097000D+01 0.1097000D+01
EXPONENTS  0.1097000D+01 0.1097000D+01 0.1097000D+01 0.3180000D+00 0.3180000D+00
EXPONENTS  0.3180000D+00 0.3180000D+00 0.3180000D+00 0.3180000D+00 0.1000000D+00
EXPONENTS  0.1000000D+00 0.1000000D+00 0.1000000D+00 0.1000000D+00 0.1000000D+00
EXPONENTS  0.7610000D+00 0.7610000D+00 0.7610000D+00 0.7610000D+00 0.7610000D+00
EXPONENTS  0.7610000D+00 0.7610000D+00 0.7610000D+00 0.7610000D+00 0.7610000D+00
EXPONENTS  0.2680000D+00 0.2680000D+00 0.2680000D+00 0.2680000D+00 0.2680000D+00
EXPONENTS  0.2680000D+00 0.2680000D+00 0.2680000D+00 0.2680000D+00 0.2680000D+00
EXPONENTS  0.8236000D+04 0.1235000D+04 0.2808000D+03 0.7927000D+02 0.2559000D+02
EXPONENTS  0.8997000D+01 0.3319000D+01 0.3643000D+00 0.8236000D+04 0.1235000D+04
EXPONENTS  0.2808000D+03 0.7927000D+02 0.2559000D+02 0.8997000D+01 0.3319000D+01
EXPONENTS  0.3643000D+00 0.9059000D+00 0.1285000D+00 0.4402000D-01 0.1871000D+02
EXPONENTS  0.4133000D+01 0.1200000D+01 0.1871000D+02 0.4133000D+01 0.1200000D+01
EXPONENTS  0.1871000D+02 0.4133000D+01 0.1200000D+01 0.3827000D+00 0.3827000D+00
EXPONENTS  0.3827000D+00 0.1209000D+00 0.1209000D+00 0.1209000D+00 0.3569000D-01
EXPONENTS  0.3569000D-01 0.3569000D-01 0.1097000D+01 0.1097000D+01 0.1097000D+01
EXPONENTS  0.1097000D+01 0.1097000D+01 0.1097000D+01 0.3180000D+00 0.3180000D+00
EXPONENTS  0.3180000D+00 0.3180000D+00 0.3180000D+00 0.3180000D+00 0.1000000D+00
EXPONENTS  0.1000000D+00 0.1000000D+00 0.1000000D+00 0.1000000D+00 0.1000000D+00
EXPONENTS  0.7610000D+00 0.7610000D+00 0.7610000D+00 0.7610000D+00 0.7610000D+00
EXPONENTS  0.7610000D+00 0.7610000D+00 0.7610000D+00 0.7610000D+00 0.7610000D+00
EXPONENTS  0.2680000D+00 0.2680000D+00 0.2680000D+00 0.2680000D+00 0.2680000D+00
EXPONENTS  0.2680000D+00 0.2680000D+00 0.2680000D+00 0.2680000D+00 0.2680000D+00
EXPONENTS  0.8236000D+04 0.1235000D+04 0.2808000D+03 0.7927000D+02 0.2559000D+02
EXPONENTS  0.8997000D+01 0.3319000D+01 0.3643000D+00 0.8236000D+04 0.1235000D+04
EXPONENTS  0.2808000D+03 0.7927000D+02 0.2559000D+02 0.8997000D+01 0.3319000D+01
EXPONENTS  0.3643000D+00 0.9059000D+00 0.1285000D+00 0.4402000D-01 0.1871000D+02
EXPONENTS  0.4133000D+01 0.1200000D+01 0.1871000D+02 0.4133000D+01 0.1200000D+01
EXPONENTS  0.1871000D+02 0.4133000D+01 0.1200000D+01 0.3827000D+00 0.3827000D+00
EXPONENTS  0.3827000D+00 0.1209000D+00 0.1209000D+00 0.1209000D+00 0.3569000D-01
EXPONENTS  0.3569000D-01 0.3569000D-01 0.1097000D+01 0.1097000D+01 0.1097000D+01
EXPONENTS  0.1097000D+01 0.1097000D+01 0.1097000D+01 0.3180000D+00 0.3180000D+00
EXPONENTS  0.3180000D+00 0.3180000D+00 0.3180000D+00 0.3180000D+00 0.1000000D+00
EXPONENTS  0.1000000D+00 0.1000000D+00 0.1000000D+00 0.1000000D+00 0.1000000D+00
EXPONENTS  0.7610000D+00 0.7610000D+00 0.7610000D+00 0.7610000D+00 0.7610000D+00
EXPONENTS  0.7610000D+00 0.7610000D+00 0.7610000D+00 0.7610000D+00 0.7610000D+00
EXPONENTS  0.2680000D+00 0.2680000D+00 0.2680000D+00 0.2680000D+00 0.2680000D+00
EXPONENTS  0.2680000D+00 0.2680000D+00 0.2680000D+00 0.2680000D+00 0.2680000D+00
EXPONENTS  0.8236000D+04 0.1235000D+04 0.2808000D+03 0.7927000D+02 0.2559000D+02
EXPONENTS  0.8997000D+01 0.3319000D+01 0.3643000D+00 0.8236000D+04 0.1235000D+04
EXPONENTS  0.2808000D+03 0.7927000D+02 0.2559000D+02 0.8997000D+01 0.3319000D+01
EXPONENTS  0.3643000D+00 0.9059000D+00 0.1285000D+00 0.4402000D-01 0.1871000D+02
EXPONENTS  0.4133000D+01 0.1200000D+01 0.1871000D+02 0.4133000D+01 0.1200000D+01
EXPONENTS  0.1871000D+02 0.4133000D+01 0.1200000D+01 0.3827000D+00 0.3827000D+00
EXPONENTS  0.3827000D+00 0.1209000D+00 0.1209000D+00 0.1209000D+00 0.3569000D-01
EXPONENTS  0.3569000D-01 0.3569000D-01 0.1097000D+01 0.1097000D+01 0.1097000D+01
EXPONENTS  0.1097000D+01 0.1097000D+01 0.1097000D+01 0.3180000D+00 0.3180000D+00
EXPONENTS  0.3180000D+00 0.3180000D+00 0.3180000D+00 0.3180000D+00 0.1000000D+00
EXPONENTS  0.1000000D+00 0.1000000D+00 0.1000000D+00 0.1000000D+00 0.1000000D+00
EXPONENTS  0.7610000D+00 0.7610000D+00 0.7610000D+00 0.7610000D+00 0.7610000D+00
EXPONENTS  0.7610000D+00 0.7610000D+00 0.7610000D+00 0.7610000D+00 0.7610000D+00
EXPONENTS  0.2680000D+00 0.2680000D+00 0.2680000D+00 0.2680000D+00 0.2680000D+00
EXPONENTS  0.2680000D+00 0.2680000D+00 0.2680000D+00 0.2680000D+00 0.2680000D+00
EXPONENTS  0.1950000D+05 0.2923000D+04 0.6645000D+03 0.1875000D+03 0.6062000D+02
EXPONENTS  0.2142000D+02 0.7950000D+01 0.8815000D+00 0.1950000D+05 0.2923000D+04
EXPONENTS  0.6645000D+03 0.1875000D+03 0.6062000D+02 0.2142000D+02 0.7950000D+01
EXPONENTS  0.8815000D+00 0.2257000D+01 0.3041000D+00 0.9158000D-01 0.4388000D+02
EXPONENTS  0.9926000D+01 0.2930000D+01 0.4388000D+02 0.9926000D+01 0.2930000D+01
EXPONENTS  0.4388000D+02 0.9926000D+01 0.2930000D+01 0.9132000D+00 0.9132000D+00
EXPONENTS  0.9132000D+00 0.2672000D+00 0.2672000D+00 0.2672000D+00 0.7361000D-01
EXPONENTS  0.7361000D-01 0.7361000D-01 0.3107000D+01 0.3107000D+01 0.3107000D+01
EXPONENTS  0.3107000D+01 0.3107000D+01 0.3107000D+01 0.8550000D+00 0.8550000D+00
EXPONENTS  0.8550000D+00 0.8550000D+00 0.8550000D+00 0.8550000D+00 0.2920000D+00
EXPONENTS  0.2920000D+00 0.2920000D+00 0.2920000D+00 0.2920000D+00 0.2920000D+00
EXPONENTS  0.1917000D+01 0.1917000D+01 0.1917000D+01 0.1917000D+01 0.1917000D+01
EXPONENTS  0.1917000D+01 0.1917000D+01 0.1917000D+01 0.1917000D+01 0.1917000D+01
EXPONENTS  0.7240000D+00 0.7240000D+00 0.7240000D+00 0.7240000D+00 0.7240000D+00
EXPONENTS  0.7240000D+00 0.7240000D+00 0.7240000D+00 0.7240000D+00 0.7240000D+00
EXPONENTS  0.1950000D+05 0.2923000D+04 0.6645000D+03 0.1875000D+03 0.6062000D+02
EXPONENTS  0.2142000D+02 0.7950000D+01 0.8815000D+00 0.1950000D+05 0.2923000D+04
EXPONENTS  0.6645000D+03 0.1875000D+03 0.6062000D+02 0.2142000D+02 0.7950000D+01
EXPONENTS  0.8815000D+00 0.2257000D+01 0.3041000D+00 0.9158000D-01 0.4388000D+02
EXPONENTS  0.9926000D+01 0.2930000D+01 0.4388000D+02 0.9926000D+01 0.2930000D+01
EXPONENTS  0.4388000D+02 0.9926000D+01 0.2930000D+01 0.9132000D+00 0.9132000D+00
EXPONENTS  0.9132000D+00 0.2672000D+00 0.2672000D+00 0.2672000D+00 0.7361000D-01
EXPONENTS  0.7361000D-01 0.7361000D-01 0.3107000D+01 0.3107000D+01 0.3107000D+01
EXPONENTS  0.3107000D+01 0.3107000D+01 0.3107000D+01 0.8550000D+00 0.8550000D+00
EXPONENTS  0.8550000D+00 0.8550000D+00 0.8550000D+00 0.8550000D+00 0.2920000D+00
EXPONENTS  0.2920000D+00 0.2920000D+00 0.2920000D+00 0.2920000D+00 0.2920000D+00
EXPONENTS  0.1917000D+01 0.1917000D+01 0.1917000D+01 0.1917000D+01 0.1917000D+01
EXPONENTS  0.1917000D+01 0.1917000D+01 0.1917000D+01 0.1917000D+01 0.1917000D+01
EXPONENTS  0.7240000D+00 0.7240000D+00 0.7240000D+00 0.7240000D+00 0.7240000D+00
EXPONENTS  0.7240000D+00 0.7240000D+00 0.7240000D+00 0.7240000D+00 0.7240000D+00
EXPONENTS  0.1950000D+05 0.2923000D+04 0.6645000D+03 0.1875000D+03 0.6062000D+02
EXPONENTS  0.2142000D+02 0.7950000D+01 0.8815000D+00 0.1950000D+05 0.2923000D+04
EXPONENTS  0.6645000D+03 0.1875000D+03 0.6062000D+02 0.2142000D+02 0.7950000D+01
EXPONENTS  0.8815000D+00 0.2257000D+01 0.3041000D+00 0.9158000D-01 0.4388000D+02
EXPONENTS  0.9926000D+01 0.2930000D+01 0.4388000D+02 0.9926000D+01 0.2930000D+01
EXPONENTS  0.4388000D+02 0.9926000D+01 0.2930000D+01 0.9132000D+00 0.9132000D+00
EXPONENTS  0.9132000D+00 0.2672000D+00 0.2672000D+00 0.2672000D+00 0.7361000D-01
EXPONENTS  0.7361000D-01 0.7361000D-01 0.3107000D+01 0.3107000D+01 0.3107000D+01
EXPONENTS  0.3107000D+01 0.3107000D+01 0.3107000D+01 0.8550000D+00 0.8550000D+00
EXPONENTS  0.8550000D+00 0.8550000D+00 0.8550000D+00 0.8550000D+00 0.2920000D+00
EXPONENTS  0.2920000D+00 0.2920000D+00 0.2920000D+00 0.2920000D+00 0.2920000D+00
EXPONENTS  0.1917000D+01 0.1917000D+01 0.1917000D+01 0.1917000D+01 0.1917000D+01
EXPONENTS  0.1917000D+01 0.1917000D+01 0.1917000D+01 0.1917000D+01 0.1917000D+01
EXPONENTS  0.7240000D+00 0.7240000D+00 0.7240000D+00 0.7240000D+00 0.7240000D+00
EXPONENTS  0.7240000D+00 0.7240000D+00 0.7240000D+00 0.7240000D+00 0.7240000D+00
EXPONENTS  0.1950000D+05 0.2923000D+04 0.6645000D+03 0.1875000D+03 0.6062000D+02
EXPONENTS  0.2142000D+02 0.7950000D+01 0.8815000D+00 0.1950000D+05 0.2923000D+04
EXPONENTS  0.6645000D+03 0.1875000D+03 0.6062000D+02 0.2142000D+02 0.7950000D+01
EXPONENTS  0.8815000D+00 0.2257000D+01 0.3041000D+00 0.9158000D-01 0.4388000D+02
EXPONENTS  0.9926000D+01 0.2930000D+01 0.4388000D+02 0.9926000D+01 0.2930000D+01
EXPONENTS  0.4388000D+02 0.9926000D+01 0.2930000D+01 0.9132000D+00 0.9132000D+00
EXPONENTS  0.9132000D+00 0.2672000D+00 0.2672000D+00 0.2672000D+00 0.7361000D-01
EXPONENTS  0.7361000D-01 0.7361000D-01 0.3107000D+01 0.3107000D+01 0.3107000D+01
EXPONENTS  0.3107000D+01 0.3107000D+01 0.3107000D+01 0.8550000D+00 0.8550000D+00
EXPONENTS  0.8550000D+00 0.8550000D+00 0.8550000D+00 0.8550000D+00 0.2920000D+00
EXPONENTS  0.2920000D+00 0.2920000D+00 0.2920000D+00 0.2920000D+00 0.2920000D+00
EXPONENTS  0.1917000D+01 0.1917000D+01 0.1917000D+01 0.1917000D+01 0.1917000D+01
EXPONENTS  0.1917000D+01 0.1917000D+01 0.1917000D+01 0.1917000D+01 0.1917000D+01
EXPONENTS  0.7240000D+00 0.7240000D+00 0.7240000D+00 0.7240000D+00 0.7240000D+00
EXPONENTS  0.7240000D+00 0.7240000D+00 0.7240000D+00 0.7240000D+00 0.7240000D+00
EXPONENTS  0.1950000D+05 0.2923000D+04 0.6645000D+03 0.1875000D+03 0.6062000D+02
EXPONENTS  0.2142000D+02 0.7950000D+01 0.8815000D+00 0.1950000D+05 0.2923000D+04
EXPONENTS  0.6645000D+03 0.1875000D+03 0.6062000D+02 0.2142000D+02 0.7950000D+01
EXPONENTS  0.8815000D+00 0.2257000D+01 0.3041000D+00 0.9158000D-01 0.4388000D+02
EXPONENTS  0.9926000D+01 0.2930000D+01 0.4388000D+02 0.9926000D+01 0.2930000D+01
EXPONENTS  0.4388000D+02 0.9926000D+01 0.2930000D+01 0.9132000D+00 0.9132000D+00
EXPONENTS  0.9132000D+00 0.2672000D+00 0.2672000D+00 0.2672000D+00 0.7361000D-01
EXPONENTS  0.7361000D-01 0.7361000D-01 0.3107000D+01 0.3107000D+01 0.3107000D+01
EXPONENTS  0.3107000D+01 0.3107000D+01 0.3107000D+01 0.8550000D+00 0.8550000D+00
EXPONENTS  0.8550000D+00 0.8550000D+00 0.8550000D+00 0.8550000D+00 0.2920000D+00
EXPONENTS  0.2920000D+00 0.2920000D+00 0.2920000D+00 0.2920000D+00 0.2920000D+00
EXPONENTS  0.1917000D+01 0.1917000D+01 0.1917000D+01 0.1917000D+01 0.1917000D+01
EXPONENTS  0.1917000D+01 0.1917000D+01 0.1917000D+01 0.1917000D+01 0.1917000D+01
EXPONENTS  0.7240000D+00 0.7240000D+00 0.7240000D+00 0.7240000D+00 0.7240000D+00
EXPONENTS  0.7240000D+00 0.7240000D+00 0.7240000D+00 0.7240000D+00 0.7240000D+00
EXPONENTS  0.1950000D+05 0.2923000D+04 0.6645000D+03 0.1875000D+03 0.6062000D+02
EXPONENTS  0.2142000D+02 0.7950000D+01 0.8815000D+00 0.1950000D+05 0.2923000D+04
EXPONENTS  0.6645000D+03 0.1875000D+03 0.6062000D+02 0.2142000D+02 0.7950000D+01
EXPONENTS  0.8815000D+00 0.2257000D+01 0.3041000D+00 0.9158000D-01 0.4388000D+02
EXPONENTS  0.9926000D+01 0.2930000D+01 0.4388000D+02 0.9926000D+01 0.2930000D+01
EXPONENTS  0.4388000D+02 0.9926000D+01 0.2930000D+01 0.9132000D+00 0.9132000D+00
EXPONENTS  0.9132000D+00 0.2672000D+00 0.2672000D+00 0.2672000D+00 0.7361000D-01
EXPONENTS  0.7361000D-01 0.7361000D-01 0.3107000D+01 0.3107000D+01 0.3107000D+01
EXPONENTS  0.3107000D+01 0.3107000D+01 0.3107000D+01 0.8550000D+00 0.8550000D+00
EXPONENTS  0.8550000D+00 0.8550000D+00 0.8550000D+00 0.8550000D+00 0.2920000D+00
EXPONENTS  0.2920000D+00 0.2920000D+00 0.2920000D+00 0.2920000D+00 0.2920000D+00
EXPONENTS  0.1917000D+01 0.1917000D+01 0.1917000D+01 0.1917000D+01 0.1917000D+01
EXPONENTS  0.1917000D+01 0.1917000D+01 0.1917000D+01 0.1917000D+01 0.1917000D+01
EXPONENTS  0.7240000D+00 0.7240000D+00 0.7240000D+00 0.7240000D+00 0.7240000D+00
EXPONENTS  0.7240000D+00 0.7240000D+00 0.7240000D+00 0.7240000D+00 0.7240000D+00
MO    1     MO 0.0        OCC NO =    2.0000000  ORB. ENERGY =  -26.376837
 -0.61281578D-04 -0.11424279D-03 -0.19309045D-03 -0.29027819D-03 -0.35664030D-03
 -0.30123974D-03 -0.11361655D-03  0.56229464D-06  0.46398167D-04  0.86872008D-04
  0.14790703D-03  0.22878968D-03  0.30130796D-03  0.31307827D-03  0.19894719D-03
 -0.13332978D-03 -0.13384313D-03  0.68107760D-03  0.10712013D-03  0.32344273D-04
  0.30324812D-04  0.21593073D-04  0.26813097D-04  0.25138983D-04  0.17900453D-04
  0.88676454D-17  0.83139812D-17  0.59200499D-17  0.18294737D-03  0.57131492D-04
 -0.72983641D-18  0.17968407D-03 -0.12442596D-03  0.29013893D-18  0.81452307D-05
  0.33824193D-05 -0.10320682D-17 -0.29142637D-04 -0.27465355D-05  0.31889172D-04
  0.36877747D-04 -0.34365551D-16  0.25432167D-15  0.15892985D-03 -0.85527567D-04
 -0.73402284D-04 -0.27343929D-03  0.94741373D-17 -0.61344580D-17 -0.21911567D-04
  0.37423480D-04 -0.15511913D-04  0.17498114D-04  0.78191649D-18  0.90977463D-19
  0.60655322D-05 -0.48410529D-04 -0.16213530D-16 -0.52644847D-04  0.11592365D-03
  0.23518276D-16  0.34448251D-04  0.29307937D-04  0.25122315D-16  0.16443034D-15
 -0.34509891D-04  0.21311829D-05  0.45227041D-17  0.69600428D-04  0.32059694D-05
 -0.68961600D-17  0.33929245D-04 -0.95995182D-05 -0.66719524D-17 -0.31317554D-16
  0.61281524D-04  0.11424269D-03  0.19309028D-03  0.29027794D-03  0.35663999D-03
  0.30123948D-03  0.11361645D-03 -0.56229415D-06 -0.46398127D-04 -0.86871933D-04
 -0.14790690D-03 -0.22878948D-03 -0.30130770D-03 -0.31307800D-03 -0.19894702D-03
  0.13332966D-03  0.13384303D-03 -0.68107744D-03 -0.10712007D-03  0.32344125D-04
  0.30324673D-04  0.21592974D-04  0.26813035D-04  0.25138924D-04  0.17900412D-04
  0.22104904D-17  0.20724752D-17  0.14757258D-17  0.18294751D-03  0.57131733D-04
 -0.12720524D-17  0.17968409D-03 -0.12442573D-03  0.61133228D-18  0.81452257D-05
  0.33824212D-05 -0.89648410D-19  0.29142687D-04  0.27464795D-05 -0.31889166D-04
 -0.36877828D-04  0.33213047D-17 -0.15640352D-17 -0.15892992D-03  0.85527682D-04
  0.73402236D-04  0.27343931D-03  0.60497706D-18 -0.16645098D-17  0.21911483D-04
 -0.37423393D-04  0.15511910D-04 -0.17498095D-04  0.73161476D-18  0.17821628D-18
  0.60655660D-05 -0.48410509D-04  0.71921239D-18 -0.52644849D-04  0.11592363D-03
 -0.11770954D-17  0.34448151D-04  0.29307894D-04 -0.98054179D-18  0.28438540D-17
 -0.34509848D-04  0.21311859D-05 -0.20119187D-18  0.69600281D-04  0.32059253D-05
  0.21506705D-18  0.33929262D-04 -0.95994832D-05  0.38850857D-18  0.63907770D-19
  0.13296748D-04  0.24788162D-04  0.41896360D-04  0.62983953D-04  0.77383063D-04
  0.65362367D-04  0.24652280D-04 -0.12200551D-06 -0.12306810D-04 -0.23042231D-04
 -0.39231369D-04 -0.60684963D-04 -0.79919962D-04 -0.83041959D-04 -0.52769437D-04
  0.35364850D-04 -0.26827601D-03  0.15294579D-04  0.18486855D-04  0.10475440D-04
  0.98213911D-05  0.69934155D-05  0.15557329D-03  0.14585984D-03  0.10386090D-03
 -0.42292882D-17 -0.39652265D-17 -0.28234775D-17 -0.47495141D-04 -0.36444785D-03
  0.16293927D-17 -0.11763260D-03  0.19866271D-03 -0.51317366D-18 -0.31171766D-06
 -0.55615103D-05  0.10058831D-18 -0.15353006D-03  0.40735147D-03 -0.25382141D-03
  0.32817268D-03 -0.20478942D-17  0.12886529D-17  0.10200249D-04  0.63434764D-04
 -0.73635013D-04 -0.54057071D-04  0.47575760D-17 -0.52286768D-18 -0.54505118D-05
 -0.82642668D-06  0.62769385D-05  0.22209240D-04  0.40874118D-19  0.19597088D-19
  0.97304682D-04 -0.20967554D-03  0.12413425D-18 -0.38534600D-03  0.27521770D-03
  0.35649546D-17  0.93431954D-04  0.35380891D-03 -0.39373574D-17 -0.43057694D-17
  0.53943966D-04 -0.25898428D-04  0.75647957D-19 -0.17595849D-03  0.57189106D-04
  0.21879718D-18  0.14126588D-04  0.20506179D-04 -0.44574105D-18  0.19408276D-17
 -0.13296710D-04 -0.24788091D-04 -0.41896240D-04 -0.62983772D-04 -0.77382841D-04
 -0.65362180D-04 -0.24652210D-04  0.12200516D-06  0.12306779D-04  0.23042173D-04
  0.39231271D-04  0.60684811D-04  0.79919761D-04  0.83041751D-04  0.52769305D-04
 -0.35364761D-04  0.26827580D-03 -0.15294405D-04 -0.18486919D-04  0.10475407D-04
  0.98213601D-05  0.69933935D-05  0.15557310D-03  0.14585967D-03  0.10386078D-03
  0.92734448D-18  0.86944440D-18  0.61909621D-18 -0.47495041D-04 -0.36444735D-03
 -0.13710937D-17 -0.11763262D-03  0.19866236D-03 -0.14258614D-17 -0.31171105D-06
 -0.55615079D-05  0.19902945D-19  0.15352987D-03 -0.40735105D-03  0.25382118D-03
 -0.32817240D-03 -0.68825968D-18 -0.23988377D-18 -0.10200362D-04 -0.63434569D-04
  0.73634931D-04  0.54057050D-04 -0.37449146D-18 -0.26893154D-18  0.54505113D-05
  0.82641546D-06 -0.62769268D-05 -0.22209210D-04  0.26220632D-18 -0.28037370D-19
  0.97304592D-04 -0.20967533D-03  0.50117460D-18 -0.38534561D-03  0.27521748D-03
 -0.57609410D-18  0.93431833D-04  0.35380850D-03 -0.92742972D-18  0.12804121D-17
  0.53943947D-04 -0.25898390D-04  0.34036535D-19 -0.17595843D-03  0.57188986D-04
  0.50154005D-18  0.14126594D-04  0.20506184D-04 -0.60364966D-18 -0.72666475D-19
  0.59617254D-04  0.11112914D-03  0.18839122D-03  0.28527983D-03  0.35674343D-03
  0.30712286D-03  0.11806924D-03 -0.51161335D-06 -0.88333641D-05 -0.16587493D-04
 -0.28245640D-04 -0.44246629D-04 -0.59295688D-04 -0.63780507D-04 -0.38293733D-04
  0.25183570D-04 -0.66632375D-05 -0.42415310D-04 -0.13097847D-03 -0.62449622D-04
 -0.61074366D-04 -0.40354416D-04  0.34591372D-05  0.33829606D-05  0.22352651D-05
  0.11978670D-16  0.11714877D-16  0.77405148D-17  0.53586751D-04 -0.19042470D-04
  0.16968356D-17 -0.72835727D-04 -0.52717233D-04  0.16788182D-17 -0.72342678D-05
 -0.10924532D-05  0.34063741D-18  0.98477185D-04 -0.26375930D-04 -0.72101255D-04
  0.15012460D-03 -0.14902856D-16 -0.31071742D-16 -0.46449855D-04  0.26329760D-04
  0.20120094D-04 -0.73401148D-04  0.10302523D-17 -0.10235000D-17 -0.32656397D-05
  0.17117502D-04 -0.13851862D-04  0.38100758D-04 -0.33607511D-18 -0.77007485D-18
 -0.12598997D-04 -0.74665108D-06 -0.37559159D-18 -0.10707119D-05 -0.51500628D-04
 -0.27591534D-17  0.38867703D-04  0.53740581D-04  0.38859282D-17  0.76597597D-17
 -0.27097498D-06 -0.12097373D-04 -0.43138802D-18  0.16922253D-04  0.47633215D-04
  0.37831466D-19 -0.16109328D-04 -0.11341095D-04  0.12563326D-17 -0.32603224D-18
 -0.59617272D-04 -0.11112918D-03 -0.18839128D-03 -0.28527992D-03 -0.35674354D-03
 -0.30712295D-03 -0.11806928D-03  0.51161350D-06  0.88333761D-05  0.16587516D-04
  0.28245679D-04  0.44246689D-04  0.59295769D-04  0.63780594D-04  0.38293785D-04
 -0.25183604D-04  0.66632477D-05  0.42415179D-04  0.13097810D-03 -0.62449583D-04
 -0.61074328D-04 -0.40354391D-04  0.34592046D-05  0.33830266D-05  0.22353087D-05
  0.26274076D-18  0.25695472D-18  0.16978085D-18  0.53586735D-04 -0.19042548D-04
  0.66279660D-18 -0.72835531D-04 -0.52717243D-04 -0.93430316D-18 -0.72342558D-05
 -0.10924768D-05  0.12033147D-18 -0.98477163D-04  0.26375913D-04  0.72101251D-04
 -0.15012462D-03  0.52619291D-17 -0.47163537D-17  0.46449842D-04 -0.26329753D-04
 -0.20120089D-04  0.73401166D-04 -0.12135207D-17  0.24602941D-18  0.32656415D-05
 -0.17117498D-04  0.13851856D-04 -0.38100649D-04 -0.66743667D-19 -0.68102224D-18
 -0.12598951D-04 -0.74665184D-06  0.43254033D-17 -0.10708617D-05 -0.51500556D-04
 -0.10783601D-16  0.38867713D-04  0.53740512D-04 -0.21926089D-17 -0.24204983D-17
 -0.27099599D-06 -0.12097357D-04 -0.11004555D-17  0.16922313D-04  0.47633161D-04
  0.23554408D-17 -0.16109325D-04 -0.11341090D-04  0.94592580D-18  0.36968989D-18
  0.42106977D+00  0.78489229D+00  0.13305854D+01  0.20148984D+01  0.25196376D+01
  0.21691732D+01  0.83390938D+00 -0.36134659D-02  0.32593100D-03  0.61204069D-03
  0.10421998D-02  0.16325997D-02  0.21878757D-02  0.23533553D-02  0.14129514D-02
 -0.92921632D-03  0.40747679D-01  0.72073895D-03  0.26335815D-06  0.16694684D-02
  0.16327036D-02  0.10787963D-02  0.67979272D-02  0.66482243D-02  0.43927629D-02
 -0.45655759D-17 -0.44650335D-17 -0.29502364D-17 -0.35939327D-03 -0.13784726D-02
 -0.10999770D-19  0.19140527D-03  0.17067545D-03  0.10109590D-17  0.50803354D-05
  0.34398452D-05  0.26519919D-19 -0.64971804D-04  0.36618096D-04  0.28353708D-04
 -0.85288908D-04 -0.27557590D-17 -0.10787410D-16  0.21964896D-03 -0.42136425D-03
  0.20171529D-03 -0.30185863D-03 -0.20513966D-18  0.11046610D-17  0.82136724D-05
  0.41553012D-04 -0.49766684D-04  0.92121746D-04  0.65282457D-18  0.20789779D-18
  0.10128295D-04 -0.15675477D-03  0.19323435D-17 -0.16544737D-03 -0.70907293D-04
 -0.54625716D-17  0.13506249D-03  0.54117160D-03 -0.33445885D-18 -0.78332670D-17
  0.19309330D-04 -0.11470939D-04 -0.70148842D-18 -0.29352246D-04  0.11403840D-03
  0.12538506D-17 -0.28575745D-04 -0.79625584D-04  0.85061465D-18  0.26931571D-17
 -0.42106931D+00 -0.78489143D+00 -0.13305839D+01 -0.20148962D+01 -0.25196348D+01
 -0.21691709D+01 -0.83390847D+00  0.36134619D-02 -0.32593065D-03 -0.61204003D-03
 -0.10421986D-02 -0.16325980D-02 -0.21878733D-02 -0.23533528D-02 -0.14129499D-02
  0.92921531D-03 -0.40747634D-01 -0.72073812D-03 -0.26322986D-06  0.16694665D-02
  0.16327018D-02  0.10787951D-02  0.67979198D-02  0.66482170D-02  0.43927581D-02
  0.91133545D-18  0.89126616D-18  0.58889724D-18 -0.35939287D-03 -0.13784710D-02
 -0.55338684D-18  0.19140528D-03  0.17067528D-03  0.14680521D-17  0.50803239D-05
  0.34398344D-05  0.11616628D-19  0.64971731D-04 -0.36618076D-04 -0.28353655D-04
  0.85288848D-04  0.85164677D-18 -0.37806033D-17 -0.21964872D-03  0.42136380D-03
 -0.20171508D-03  0.30185828D-03 -0.23914599D-18  0.20691237D-18 -0.82136710D-05
 -0.41552970D-04  0.49766641D-04 -0.92121770D-04 -0.47299838D-18 -0.66615698D-18
  0.10128349D-04 -0.15675460D-03  0.21292840D-19 -0.16544737D-03 -0.70907213D-04
  0.29835666D-17  0.13506232D-03  0.54117100D-03 -0.30474451D-17 -0.64239259D-17
  0.19309286D-04 -0.11470931D-04 -0.11258312D-18 -0.29352150D-04  0.11403828D-03
 -0.89096318D-18 -0.28575709D-04 -0.79625488D-04  0.12287125D-17  0.22976827D-17
 -0.25445432D-02 -0.47431388D-02 -0.80407864D-02 -0.12176120D-01 -0.15226281D-01
 -0.13108410D-01 -0.50393513D-02  0.21836334D-04  0.76432845D-05  0.14352735D-04
  0.24440232D-04  0.38285478D-04  0.51307045D-04  0.55187645D-04  0.33134589D-04
 -0.21790700D-04 -0.23956188D-03 -0.23212270D-03 -0.53552798D-04  0.41620722D-04
  0.40704157D-04  0.26894958D-04  0.94224650D-04  0.92149650D-04  0.60887170D-04
  0.86289610D-18  0.84389354D-18  0.55759614D-18 -0.10406316D-03 -0.41058140D-05
 -0.78613752D-18 -0.15812086D-03 -0.97637844D-04  0.33498091D-17 -0.90149190D-05
  0.96379052D-05  0.14299232D-19  0.29968500D-04 -0.67280088D-04  0.37311588D-04
  0.24340219D-05  0.59427555D-17 -0.46750490D-19 -0.55661215D-04  0.56755234D-04
 -0.10940197D-05  0.38218166D-04 -0.15865328D-17  0.53058505D-18 -0.34809861D-04
  0.44452346D-04 -0.96424852D-05 -0.67914533D-05  0.26287668D-17 -0.91234015D-18
 -0.94822189D-04 -0.89880696D-04  0.44044321D-17  0.90056240D-04  0.72717949D-05