 Molden2AIM, Version 4.0.0 (06/02/2016)           Time: Wed Jun 27 22:08:29 2018
GAUSSIAN             29 MOL ORBITALS    735 PRIMITIVES       13 NUCLEI
  H    1    (CENTRE  1)  -3.98848241 -2.69669776  0.00000189  CHARGE =  1.0
  H    2    (CENTRE  2)  -0.32923186 -5.29688532  0.00000189  CHARGE =  1.0
  H    3    (CENTRE  3)   3.91476609 -3.13589468  0.00000000  CHARGE =  1.0
  H    4    (CENTRE  4)   5.97909724  1.05950519  0.00000000  CHARGE =  1.0
  H    5    (CENTRE  5)   4.22199965  3.84270327  0.00000189  CHARGE =  1.0
  C    6    (CENTRE  6)  -0.12390745 -3.24799323  0.00000000  CHARGE =  6.0
  C    7    (CENTRE  7)   2.15792739 -2.07246075  0.00000000  CHARGE =  6.0
  C    8    (CENTRE  8)   2.09098196  0.64320608  0.00000000  CHARGE =  6.0
  C    9    (CENTRE  9)  -2.30014818  0.80897286 -0.00000567  CHARGE =  6.0
  O   10    (CENTRE 10)  -4.34581829  1.87016368  0.00000378  CHARGE =  8.0
  N   11    (CENTRE 11)  -0.00538761  1.98992885  0.00000000  CHARGE =  7.0
  N   12    (CENTRE 12)  -2.26852929 -1.86755964 -0.00000189  CHARGE =  7.0
  N   13    (CENTRE 13)   4.29626778  1.93958088  0.00000000  CHARGE =  7.0
CENTRE ASSIGNMENTS    1  1  1  1  1  1  1  1  1  1  1  1  1  1  1  1  1  1  1  1
CENTRE ASSIGNMENTS    1  1  1  1  1  1  1  2  2  2  2  2  2  2  2  2  2  2  2  2
CENTRE ASSIGNMENTS    2  2  2  2  2  2  2  2  2  2  2  2  2  2  3  3  3  3  3  3
CENTRE ASSIGNMENTS    3  3  3  3  3  3  3  3  3  3  3  3  3  3  3  3  3  3  3  3
CENTRE ASSIGNMENTS    3  4  4  4  4  4  4  4  4  4  4  4  4  4  4  4  4  4  4  4
CENTRE ASSIGNMENTS    4  4  4  4  4  4  4  4  5  5  5  5  5  5  5  5  5  5  5  5
CENTRE ASSIGNMENTS    5  5  5  5  5  5  5  5  5  5  5  5  5  5  5  6  6  6  6  6
CENTRE ASSIGNMENTS    6  6  6  6  6  6  6  6  6  6  6  6  6  6  6  6  6  6  6  6
CENTRE ASSIGNMENTS    6  6  6  6  6  6  6  6  6  6  6  6  6  6  6  6  6  6  6  6
CENTRE ASSIGNMENTS    6  6  6  6  6  6  6  6  6  6  6  6  6  6  6  6  6  6  6  6
CENTRE ASSIGNMENTS    6  6  6  6  6  6  6  6  6  6  7  7  7  7  7  7  7  7  7  7
CENTRE ASSIGNMENTS    7  7  7  7  7  7  7  7  7  7  7  7  7  7  7  7  7  7  7  7
CENTRE ASSIGNMENTS    7  7  7  7  7  7  7  7  7  7  7  7  7  7  7  7  7  7  7  7
CENTRE ASSIGNMENTS    7  7  7  7  7  7  7  7  7  7  7  7  7  7  7  7  7  7  7  7
CENTRE ASSIGNMENTS    7  7  7  7  7  8  8  8  8  8  8  8  8  8  8  8  8  8  8  8
CENTRE ASSIGNMENTS    8  8  8  8  8  8  8  8  8  8  8  8  8  8  8  8  8  8  8  8
CENTRE ASSIGNMENTS    8  8  8  8  8  8  8  8  8  8  8  8  8  8  8  8  8  8  8  8
CENTRE ASSIGNMENTS    8  8  8  8  8  8  8  8  8  8  8  8  8  8  8  8  8  8  8  8
CENTRE ASSIGNMENTS    9  9  9  9  9  9  9  9  9  9  9  9  9  9  9  9  9  9  9  9
CENTRE ASSIGNMENTS    9  9  9  9  9  9  9  9  9  9  9  9  9  9  9  9  9  9  9  9
CENTRE ASSIGNMENTS    9  9  9  9  9  9  9  9  9  9  9  9  9  9  9  9  9  9  9  9
CENTRE ASSIGNMENTS    9  9  9  9  9  9  9  9  9  9  9  9  9  9  9 10 10 10 10 10
CENTRE ASSIGNMENTS   10 10 10 10 10 10 10 10 10 10 10 10 10 10 10 10 10 10 10 10
CENTRE ASSIGNMENTS   10 10 10 10 10 10 10 10 10 10 10 10 10 10 10 10 10 10 10 10
CENTRE ASSIGNMENTS   10 10 10 10 10 10 10 10 10 10 10 10 10 10 10 10 10 10 10 10
CENTRE ASSIGNMENTS   10 10 10 10 10 10 10 10 10 10 11 11 11 11 11 11 11 11 11 11
CENTRE ASSIGNMENTS   11 11 11 11 11 11 11 11 11 11 11 11 11 11 11 11 11 11 11 11
CENTRE ASSIGNMENTS   11 11 11 11 11 11 11 11 11 11 11 11 11 11 11 11 11 11 11 11
CENTRE ASSIGNMENTS   11 11 11 11 11 11 11 11 11 11 11 11 11 11 11 11 11 11 11 11
CENTRE ASSIGNMENTS   11 11 11 11 11 12 12 12 12 12 12 12 12 12 12 12 12 12 12 12
CENTRE ASSIGNMENTS   12 12 12 12 12 12 12 12 12 12 12 12 12 12 12 12 12 12 12 12
CENTRE ASSIGNMENTS   12 12 12 12 12 12 12 12 12 12 12 12 12 12 12 12 12 12 12 12
CENTRE ASSIGNMENTS   12 12 12 12 12 12 12 12 12 12 12 12 12 12 12 12 12 12 12 12
CENTRE ASSIGNMENTS   13 13 13 13 13 13 13 13 13 13 13 13 13 13 13 13 13 13 13 13
CENTRE ASSIGNMENTS   13 13 13 13 13 13 13 13 13 13 13 13 13 13 13 13 13 13 13 13
CENTRE ASSIGNMENTS   13 13 13 13 13 13 13 13 13 13 13 13 13 13 13 13 13 13 13 13
CENTRE ASSIGNMENTS   13 13 13 13 13 13 13 13 13 13 13 13 13 13 13
TYPE ASSIGNMENTS      1  1  1  1  1  1  2  3  4  2  3  4  2  3  4  5  6  7  8  9
TYPE ASSIGNMENTS     10  5  6  7  8  9 10  1  1  1  1  1  1  2  3  4  2  3  4  2
TYPE ASSIGNMENTS      3  4  5  6  7  8  9 10  5  6  7  8  9 10  1  1  1  1  1  1
TYPE ASSIGNMENTS      2  3  4  2  3  4  2  3  4  5  6  7  8  9 10  5  6  7  8  9
TYPE ASSIGNMENTS     10  1  1  1  1  1  1  2  3  4  2  3  4  2  3  4  5  6  7  8
TYPE ASSIGNMENTS      9 10  5  6  7  8  9 10  1  1  1  1  1  1  2  3  4  2  3  4
TYPE ASSIGNMENTS      2  3  4  5  6  7  8  9 10  5  6  7  8  9 10  1  1  1  1  1
TYPE ASSIGNMENTS      1  1  1  1  1  1  1  1  1  1  1  1  1  1  2  2  2  3  3  3
TYPE ASSIGNMENTS      4  4  4  2  3  4  2  3  4  2  3  4  5  6  7  8  9 10  5  6
TYPE ASSIGNMENTS      7  8  9 10  5  6  7  8  9 10 11 12 13 17 14 15 18 19 16 20
TYPE ASSIGNMENTS     11 12 13 17 14 15 18 19 16 20  1  1  1  1  1  1  1  1  1  1
TYPE ASSIGNMENTS      1  1  1  1  1  1  1  1  1  2  2  2  3  3  3  4  4  4  2  3
TYPE ASSIGNMENTS      4  2  3  4  2  3  4  5  6  7  8  9 10  5  6  7  8  9 10  5
TYPE ASSIGNMENTS      6  7  8  9 10 11 12 13 17 14 15 18 19 16 20 11 12 13 17 14
TYPE ASSIGNMENTS     15 18 19 16 20  1  1  1  1  1  1  1  1  1  1  1  1  1  1  1
TYPE ASSIGNMENTS      1  1  1  1  2  2  2  3  3  3  4  4  4  2  3  4  2  3  4  2
TYPE ASSIGNMENTS      3  4  5  6  7  8  9 10  5  6  7  8  9 10  5  6  7  8  9 10
TYPE ASSIGNMENTS     11 12 13 17 14 15 18 19 16 20 11 12 13 17 14 15 18 19 16 20
TYPE ASSIGNMENTS      1  1  1  1  1  1  1  1  1  1  1  1  1  1  1  1  1  1  1  2
TYPE ASSIGNMENTS      2  2  3  3  3  4  4  4  2  3  4  2  3  4  2  3  4  5  6  7
TYPE ASSIGNMENTS      8  9 10  5  6  7  8  9 10  5  6  7  8  9 10 11 12 13 17 14
TYPE ASSIGNMENTS     15 18 19 16 20 11 12 13 17 14 15 18 19 16 20  1  1  1  1  1
TYPE ASSIGNMENTS      1  1  1  1  1  1  1  1  1  1  1  1  1  1  2  2  2  3  3  3
TYPE ASSIGNMENTS      4  4  4  2  3  4  2  3  4  2  3  4  5  6  7  8  9 10  5  6
TYPE ASSIGNMENTS      7  8  9 10  5  6  7  8  9 10 11 12 13 17 14 15 18 19 16 20
TYPE ASSIGNMENTS     11 12 13 17 14 15 18 19 16 20  1  1  1  1  1  1  1  1  1  1
TYPE ASSIGNMENTS      1  1  1  1  1  1  1  1  1  2  2  2  3  3  3  4  4  4  2  3
TYPE ASSIGNMENTS      4  2  3  4  2  3  4  5  6  7  8  9 10  5  6  7  8  9 10  5
TYPE ASSIGNMENTS      6  7  8  9 10 11 12 13 17 14 15 18 19 16 20 11 12 13 17 14
TYPE ASSIGNMENTS     15 18 19 16 20  1  1  1  1  1  1  1  1  1  1  1  1  1  1  1
TYPE ASSIGNMENTS      1  1  1  1  2  2  2  3  3  3  4  4  4  2  3  4  2  3  4  2
TYPE ASSIGNMENTS      3  4  5  6  7  8  9 10  5  6  7  8  9 10  5  6  7  8  9 10
TYPE ASSIGNMENTS     11 12 13 17 14 15 18 19 16 20 11 12 13 17 14 15 18 19 16 20
TYPE ASSIGNMENTS      1  1  1  1  1  1  1  1  1  1  1  1  1  1  1  1  1  1  1  2
TYPE ASSIGNMENTS      2  2  3  3  3  4  4  4  2  3  4  2  3  4  2  3  4  5  6  7
TYPE ASSIGNMENTS      8  9 10  5  6  7  8  9 10  5  6  7  8  9 10 11 12 13 17 14
TYPE ASSIGNMENTS     15 18 19 16 20 11 12 13 17 14 15 18 19 16 20
EXPONENTS  0.3387000D+02 0.5095000D+01 0.1159000D+01 0.3258000D+00 0.1027000D+00
EXPONENTS  0.2526000D-01 0.1407000D+01 0.1407000D+01 0.1407000D+01 0.3880000D+00
EXPONENTS  0.3880000D+00 0.3880000D+00 0.1020000D+00 0.1020000D+00 0.1020000D+00
EXPONENTS  0.1057000D+01 0.1057000D+01 0.1057000D+01 0.1057000D+01 0.1057000D+01
EXPONENTS  0.1057000D+01 0.2470000D+00 0.2470000D+00 0.2470000D+00 0.2470000D+00
EXPONENTS  0.2470000D+00 0.2470000D+00 0.3387000D+02 0.5095000D+01 0.1159000D+01
EXPONENTS  0.3258000D+00 0.1027000D+00 0.2526000D-01 0.1407000D+01 0.1407000D+01
EXPONENTS  0.1407000D+01 0.3880000D+00 0.3880000D+00 0.3880000D+00 0.1020000D+00
EXPONENTS  0.1020000D+00 0.1020000D+00 0.1057000D+01 0.1057000D+01 0.1057000D+01
EXPONENTS  0.1057000D+01 0.1057000D+01 0.1057000D+01 0.2470000D+00 0.2470000D+00
EXPONENTS  0.2470000D+00 0.2470000D+00 0.2470000D+00 0.2470000D+00 0.3387000D+02
EXPONENTS  0.5095000D+01 0.1159000D+01 0.3258000D+00 0.1027000D+00 0.2526000D-01
EXPONENTS  0.1407000D+01 0.1407000D+01 0.1407000D+01 0.3880000D+00 0.3880000D+00
EXPONENTS  0.3880000D+00 0.1020000D+00 0.1020000D+00 0.1020000D+00 0.1057000D+01
EXPONENTS  0.1057000D+01 0.1057000D+01 0.1057000D+01 0.1057000D+01 0.1057000D+01
EXPONENTS  0.2470000D+00 0.2470000D+00 0.2470000D+00 0.2470000D+00 0.2470000D+00
EXPONENTS  0.2470000D+00 0.3387000D+02 0.5095000D+01 0.1159000D+01 0.3258000D+00
EXPONENTS  0.1027000D+00 0.2526000D-01 0.1407000D+01 0.1407000D+01 0.1407000D+01
EXPONENTS  0.3880000D+00 0.3880000D+00 0.3880000D+00 0.1020000D+00 0.1020000D+00
EXPONENTS  0.1020000D+00 0.1057000D+01 0.1057000D+01 0.1057000D+01 0.1057000D+01
EXPONENTS  0.1057000D+01 0.1057000D+01 0.2470000D+00 0.2470000D+00 0.2470000D+00
EXPONENTS  0.2470000D+00 0.2470000D+00 0.2470000D+00 0.3387000D+02 0.5095000D+01
EXPONENTS  0.1159000D+01 0.3258000D+00 0.1027000D+00 0.2526000D-01 0.1407000D+01
EXPONENTS  0.1407000D+01 0.1407000D+01 0.3880000D+00 0.3880000D+00 0.3880000D+00
EXPONENTS  0.1020000D+00 0.1020000D+00 0.1020000D+00 0.1057000D+01 0.1057000D+01
EXPONENTS  0.1057000D+01 0.1057000D+01 0.1057000D+01 0.1057000D+01 0.2470000D+00
EXPONENTS  0.2470000D+00 0.2470000D+00 0.2470000D+00 0.2470000D+00 0.2470000D+00
EXPONENTS  0.8236000D+04 0.1235000D+04 0.2808000D+03 0.7927000D+02 0.2559000D+02
EXPONENTS  0.8997000D+01 0.3319000D+01 0.3643000D+00 0.8236000D+04 0.1235000D+04
EXPONENTS  0.2808000D+03 0.7927000D+02 0.2559000D+02 0.8997000D+01 0.3319000D+01
EXPONENTS  0.3643000D+00 0.9059000D+00 0.1285000D+00 0.4402000D-01 0.1871000D+02
EXPONENTS  0.4133000D+01 0.1200000D+01 0.1871000D+02 0.4133000D+01 0.1200000D+01
EXPONENTS  0.1871000D+02 0.4133000D+01 0.1200000D+01 0.3827000D+00 0.3827000D+00
EXPONENTS  0.3827000D+00 0.1209000D+00 0.1209000D+00 0.1209000D+00 0.3569000D-01
EXPONENTS  0.3569000D-01 0.3569000D-01 0.1097000D+01 0.1097000D+01 0.1097000D+01
EXPONENTS  0.1097000D+01 0.1097000D+01 0.1097000D+01 0.3180000D+00 0.3180000D+00
EXPONENTS  0.3180000D+00 0.3180000D+00 0.3180000D+00 0.3180000D+00 0.1000000D+00
EXPONENTS  0.1000000D+00 0.1000000D+00 0.1000000D+00 0.1000000D+00 0.1000000D+00
EXPONENTS  0.7610000D+00 0.7610000D+00 0.7610000D+00 0.7610000D+00 0.7610000D+00
EXPONENTS  0.7610000D+00 0.7610000D+00 0.7610000D+00 0.7610000D+00 0.7610000D+00
EXPONENTS  0.2680000D+00 0.2680000D+00 0.2680000D+00 0.2680000D+00 0.2680000D+00
EXPONENTS  0.2680000D+00 0.2680000D+00 0.2680000D+00 0.2680000D+00 0.2680000D+00
EXPONENTS  0.8236000D+04 0.1235000D+04 0.2808000D+03 0.7927000D+02 0.2559000D+02
EXPONENTS  0.8997000D+01 0.3319000D+01 0.3643000D+00 0.8236000D+04 0.1235000D+04
EXPONENTS  0.2808000D+03 0.7927000D+02 0.2559000D+02 0.8997000D+01 0.3319000D+01
EXPONENTS  0.3643000D+00 0.9059000D+00 0.1285000D+00 0.4402000D-01 0.1871000D+02
EXPONENTS  0.4133000D+01 0.1200000D+01 0.1871000D+02 0.4133000D+01 0.1200000D+01
EXPONENTS  0.1871000D+02 0.4133000D+01 0.1200000D+01 0.3827000D+00 0.3827000D+00
EXPONENTS  0.3827000D+00 0.1209000D+00 0.1209000D+00 0.1209000D+00 0.3569000D-01
EXPONENTS  0.3569000D-01 0.3569000D-01 0.1097000D+01 0.1097000D+01 0.1097000D+01
EXPONENTS  0.1097000D+01 0.1097000D+01 0.1097000D+01 0.3180000D+00 0.3180000D+00
EXPONENTS  0.3180000D+00 0.3180000D+00 0.3180000D+00 0.3180000D+00 0.1000000D+00
EXPONENTS  0.1000000D+00 0.1000000D+00 0.1000000D+00 0.1000000D+00 0.1000000D+00
EXPONENTS  0.7610000D+00 0.7610000D+00 0.7610000D+00 0.7610000D+00 0.7610000D+00
EXPONENTS  0.7610000D+00 0.7610000D+00 0.7610000D+00 0.7610000D+00 0.7610000D+00
EXPONENTS  0.2680000D+00 0.2680000D+00 0.2680000D+00 0.2680000D+00 0.2680000D+00
EXPONENTS  0.2680000D+00 0.2680000D+00 0.2680000D+00 0.2680000D+00 0.2680000D+00
EXPONENTS  0.8236000D+04 0.1235000D+04 0.2808000D+03 0.7927000D+02 0.2559000D+02
EXPONENTS  0.8997000D+01 0.3319000D+01 0.3643000D+00 0.8236000D+04 0.1235000D+04
EXPONENTS  0.2808000D+03 0.7927000D+02 0.2559000D+02 0.8997000D+01 0.3319000D+01
EXPONENTS  0.3643000D+00 0.9059000D+00 0.1285000D+00 0.4402000D-01 0.1871000D+02
EXPONENTS  0.4133000D+01 0.1200000D+01 0.1871000D+02 0.4133000D+01 0.1200000D+01
EXPONENTS  0.1871000D+02 0.4133000D+01 0.1200000D+01 0.3827000D+00 0.3827000D+00
EXPONENTS  0.3827000D+00 0.1209000D+00 0.1209000D+00 0.1209000D+00 0.3569000D-01
EXPONENTS  0.3569000D-01 0.3569000D-01 0.1097000D+01 0.1097000D+01 0.1097000D+01
EXPONENTS  0.1097000D+01 0.1097000D+01 0.1097000D+01 0.3180000D+00 0.3180000D+00
EXPONENTS  0.3180000D+00 0.3180000D+00 0.3180000D+00 0.3180000D+00 0.1000000D+00
EXPONENTS  0.1000000D+00 0.1000000D+00 0.1000000D+00 0.1000000D+00 0.1000000D+00
EXPONENTS  0.7610000D+00 0.7610000D+00 0.7610000D+00 0.7610000D+00 0.7610000D+00
EXPONENTS  0.7610000D+00 0.7610000D+00 0.7610000D+00 0.7610000D+00 0.7610000D+00
EXPONENTS  0.2680000D+00 0.2680000D+00 0.2680000D+00 0.2680000D+00 0.2680000D+00
EXPONENTS  0.2680000D+00 0.2680000D+00 0.2680000D+00 0.2680000D+00 0.2680000D+00
EXPONENTS  0.8236000D+04 0.1235000D+04 0.2808000D+03 0.7927000D+02 0.2559000D+02
EXPONENTS  0.8997000D+01 0.3319000D+01 0.3643000D+00 0.8236000D+04 0.1235000D+04
EXPONENTS  0.2808000D+03 0.7927000D+02 0.2559000D+02 0.8997000D+01 0.3319000D+01
EXPONENTS  0.3643000D+00 0.9059000D+00 0.1285000D+00 0.4402000D-01 0.1871000D+02
EXPONENTS  0.4133000D+01 0.1200000D+01 0.1871000D+02 0.4133000D+01 0.1200000D+01
EXPONENTS  0.1871000D+02 0.4133000D+01 0.1200000D+01 0.3827000D+00 0.3827000D+00
EXPONENTS  0.3827000D+00 0.1209000D+00 0.1209000D+00 0.1209000D+00 0.3569000D-01
EXPONENTS  0.3569000D-01 0.3569000D-01 0.1097000D+01 0.1097000D+01 0.1097000D+01
EXPONENTS  0.1097000D+01 0.1097000D+01 0.1097000D+01 0.3180000D+00 0.3180000D+00
EXPONENTS  0.3180000D+00 0.3180000D+00 0.3180000D+00 0.3180000D+00 0.1000000D+00
EXPONENTS  0.1000000D+00 0.1000000D+00 0.1000000D+00 0.1000000D+00 0.1000000D+00
EXPONENTS  0.7610000D+00 0.7610000D+00 0.7610000D+00 0.7610000D+00 0.7610000D+00
EXPONENTS  0.7610000D+00 0.7610000D+00 0.7610000D+00 0.7610000D+00 0.7610000D+00
EXPONENTS  0.2680000D+00 0.2680000D+00 0.2680000D+00 0.2680000D+00 0.2680000D+00
EXPONENTS  0.2680000D+00 0.2680000D+00 0.2680000D+00 0.2680000D+00 0.2680000D+00
EXPONENTS  0.1533000D+05 0.2299000D+04 0.5224000D+03 0.1473000D+03 0.4755000D+02
EXPONENTS  0.1676000D+02 0.6207000D+01 0.6882000D+00 0.1533000D+05 0.2299000D+04
EXPONENTS  0.5224000D+03 0.1473000D+03 0.4755000D+02 0.1676000D+02 0.6207000D+01
EXPONENTS  0.6882000D+00 0.1752000D+01 0.2384000D+00 0.7376000D-01 0.3446000D+02
EXPONENTS  0.7749000D+01 0.2280000D+01 0.3446000D+02 0.7749000D+01 0.2280000D+01
EXPONENTS  0.3446000D+02 0.7749000D+01 0.2280000D+01 0.7156000D+00 0.7156000D+00
EXPONENTS  0.7156000D+00 0.2140000D+00 0.2140000D+00 0.2140000D+00 0.5974000D-01
EXPONENTS  0.5974000D-01 0.5974000D-01 0.2314000D+01 0.2314000D+01 0.2314000D+01
EXPONENTS  0.2314000D+01 0.2314000D+01 0.2314000D+01 0.6450000D+00 0.6450000D+00
EXPONENTS  0.6450000D+00 0.6450000D+00 0.6450000D+00 0.6450000D+00 0.2140000D+00
EXPONENTS  0.2140000D+00 0.2140000D+00 0.2140000D+00 0.2140000D+00 0.2140000D+00
EXPONENTS  0.1428000D+01 0.1428000D+01 0.1428000D+01 0.1428000D+01 0.1428000D+01
EXPONENTS  0.1428000D+01 0.1428000D+01 0.1428000D+01 0.1428000D+01 0.1428000D+01
EXPONENTS  0.5000000D+00 0.5000000D+00 0.5000000D+00 0.5000000D+00 0.5000000D+00
EXPONENTS  0.5000000D+00 0.5000000D+00 0.5000000D+00 0.5000000D+00 0.5000000D+00
EXPONENTS  0.1142000D+05 0.1712000D+04 0.3893000D+03 0.1100000D+03 0.3557000D+02
EXPONENTS  0.1254000D+02 0.4644000D+01 0.5118000D+00 0.1142000D+05 0.1712000D+04
EXPONENTS  0.3893000D+03 0.1100000D+03 0.3557000D+02 0.1254000D+02 0.4644000D+01
EXPONENTS  0.5118000D+00 0.1293000D+01 0.1787000D+00 0.5760000D-01 0.2663000D+02
EXPONENTS  0.5948000D+01 0.1742000D+01 0.2663000D+02 0.5948000D+01 0.1742000D+01
EXPONENTS  0.2663000D+02 0.5948000D+01 0.1742000D+01 0.5550000D+00 0.5550000D+00
EXPONENTS  0.5550000D+00 0.1725000D+00 0.1725000D+00 0.1725000D+00 0.4910000D-01
EXPONENTS  0.4910000D-01 0.4910000D-01 0.1654000D+01 0.1654000D+01 0.1654000D+01
EXPONENTS  0.1654000D+01 0.1654000D+01 0.1654000D+01 0.4690000D+00 0.4690000D+00
EXPONENTS  0.4690000D+00 0.4690000D+00 0.4690000D+00 0.4690000D+00 0.1510000D+00
EXPONENTS  0.1510000D+00 0.1510000D+00 0.1510000D+00 0.1510000D+00 0.1510000D+00
EXPONENTS  0.1093000D+01 0.1093000D+01 0.1093000D+01 0.1093000D+01 0.1093000D+01
EXPONENTS  0.1093000D+01 0.1093000D+01 0.1093000D+01 0.1093000D+01 0.1093000D+01
EXPONENTS  0.3640000D+00 0.3640000D+00 0.3640000D+00 0.3640000D+00 0.3640000D+00
EXPONENTS  0.3640000D+00 0.3640000D+00 0.3640000D+00 0.3640000D+00 0.3640000D+00
EXPONENTS  0.1142000D+05 0.1712000D+04 0.3893000D+03 0.1100000D+03 0.3557000D+02
EXPONENTS  0.1254000D+02 0.4644000D+01 0.5118000D+00 0.1142000D+05 0.1712000D+04
EXPONENTS  0.3893000D+03 0.1100000D+03 0.3557000D+02 0.1254000D+02 0.4644000D+01
EXPONENTS  0.5118000D+00 0.1293000D+01 0.1787000D+00 0.5760000D-01 0.2663000D+02
EXPONENTS  0.5948000D+01 0.1742000D+01 0.2663000D+02 0.5948000D+01 0.1742000D+01
EXPONENTS  0.2663000D+02 0.5948000D+01 0.1742000D+01 0.5550000D+00 0.5550000D+00
EXPONENTS  0.5550000D+00 0.1725000D+00 0.1725000D+00 0.1725000D+00 0.4910000D-01
EXPONENTS  0.4910000D-01 0.4910000D-01 0.1654000D+01 0.1654000D+01 0.1654000D+01
EXPONENTS  0.1654000D+01 0.1654000D+01 0.1654000D+01 0.4690000D+00 0.4690000D+00
EXPONENTS  0.4690000D+00 0.4690000D+00 0.4690000D+00 0.4690000D+00 0.1510000D+00
EXPONENTS  0.1510000D+00 0.1510000D+00 0.1510000D+00 0.1510000D+00 0.1510000D+00
EXPONENTS  0.1093000D+01 0.1093000D+01 0.1093000D+01 0.1093000D+01 0.1093000D+01
EXPONENTS  0.1093000D+01 0.1093000D+01 0.1093000D+01 0.1093000D+01 0.1093000D+01
EXPONENTS  0.3640000D+00 0.3640000D+00 0.3640000D+00 0.3640000D+00 0.3640000D+00
EXPONENTS  0.3640000D+00 0.3640000D+00 0.3640000D+00 0.3640000D+00 0.3640000D+00
EXPONENTS  0.1142000D+05 0.1712000D+04 0.3893000D+03 0.1100000D+03 0.3557000D+02
EXPONENTS  0.1254000D+02 0.4644000D+01 0.5118000D+00 0.1142000D+05 0.1712000D+04
EXPONENTS  0.3893000D+03 0.1100000D+03 0.3557000D+02 0.1254000D+02 0.4644000D+01
EXPONENTS  0.5118000D+00 0.1293000D+01 0.1787000D+00 0.5760000D-01 0.2663000D+02
EXPONENTS  0.5948000D+01 0.1742000D+01 0.2663000D+02 0.5948000D+01 0.1742000D+01
EXPONENTS  0.2663000D+02 0.5948000D+01 0.1742000D+01 0.5550000D+00 0.5550000D+00
EXPONENTS  0.5550000D+00 0.1725000D+00 0.1725000D+00 0.1725000D+00 0.4910000D-01
EXPONENTS  0.4910000D-01 0.4910000D-01 0.1654000D+01 0.1654000D+01 0.1654000D+01
EXPONENTS  0.1654000D+01 0.1654000D+01 0.1654000D+01 0.4690000D+00 0.4690000D+00
EXPONENTS  0.4690000D+00 0.4690000D+00 0.4690000D+00 0.4690000D+00 0.1510000D+00
EXPONENTS  0.1510000D+00 0.1510000D+00 0.1510000D+00 0.1510000D+00 0.1510000D+00
EXPONENTS  0.1093000D+01 0.1093000D+01 0.1093000D+01 0.1093000D+01 0.1093000D+01
EXPONENTS  0.1093000D+01 0.1093000D+01 0.1093000D+01 0.1093000D+01 0.1093000D+01
EXPONENTS  0.3640000D+00 0.3640000D+00 0.3640000D+00 0.3640000D+00 0.3640000D+00
EXPONENTS  0.3640000D+00 0.3640000D+00 0.3640000D+00 0.3640000D+00 0.3640000D+00
MO    1     MO 0.0        OCC NO =    2.0000000  ORB. ENERGY =  -20.499747
 -0.18192669D-04 -0.32811227D-04 -0.48380135D-04 -0.19908901D-03 -0.19487529D-05
  0.14202497D-05  0.28909709D-05 -0.21916207D-04  0.16963604D-09 -0.34514853D-04
 -0.11394364D-03  0.12951493D-09 -0.45440380D-05  0.17623493D-05  0.14974985D-09
 -0.25271653D-04  0.96191395D-04 -0.70919742D-04 -0.72005970D-04 -0.36162367D-09
  0.80979258D-10  0.21106178D-04 -0.25499256D-04  0.43930778D-05 -0.11617516D-04
  0.83268542D-10  0.29129313D-10 -0.52301805D-05 -0.94328460D-05 -0.13908726D-04
 -0.23907550D-03  0.54882957D-03  0.84224671D-05 -0.14797599D-04  0.18025627D-04
 -0.36026081D-09 -0.25324815D-04 -0.79476609D-04  0.79807586D-09 -0.17564893D-04
  0.62961189D-04 -0.46909323D-09  0.14475921D-04 -0.41162927D-05 -0.10359629D-04
 -0.25056648D-04  0.47314012D-09  0.11450781D-09 -0.14737623D-05  0.65721960D-06
  0.81654272D-06  0.72438231D-05  0.14000203D-09  0.82517400D-10  0.60188587D-05
  0.10855260D-04  0.16006074D-04 -0.10801089D-03 -0.79093179D-03 -0.63076866D-05
  0.75575102D-05 -0.79638539D-05 -0.22178173D-10  0.13665805D-03 -0.54894802D-04
  0.11444530D-09  0.50623136D-04 -0.45430204D-04 -0.20107430D-09 -0.31974483D-04
  0.22853786D-05  0.29689104D-04  0.40994696D-04 -0.49204791D-10 -0.85585212D-10
 -0.92124040D-05  0.97874562D-06  0.82336584D-05  0.18151123D-04 -0.14096158D-11
 -0.46886929D-10 -0.25817712D-05 -0.46563306D-05 -0.68657568D-05 -0.20036011D-03
  0.19103454D-03  0.48919659D-05  0.21270394D-04 -0.28120054D-04 -0.11259089D-09
  0.11448688D-03 -0.48150777D-04 -0.25351159D-09 -0.33073752D-04 -0.17280588D-04
 -0.93168869D-10 -0.19884797D-04 -0.65712171D-05  0.26456014D-04  0.26234255D-04
  0.25647312D-09 -0.59520030D-10 -0.41747567D-05  0.41217345D-05  0.53022209D-07
  0.22578733D-04  0.13633593D-09  0.60311479D-10  0.13671103D-05  0.24656398D-05
  0.36355844D-05  0.30398151D-04  0.44568677D-04 -0.15647285D-05  0.15212161D-04
  0.83725379D-08  0.51647995D-10 -0.15630267D-04 -0.35602637D-04 -0.52879678D-09
  0.14314441D-05 -0.17358762D-04 -0.11803607D-09  0.14729688D-05  0.58731069D-05
 -0.73460757D-05 -0.15361370D-04 -0.39784734D-10  0.21087252D-09 -0.90254758D-05
  0.76788018D-05  0.13466740D-05  0.97410976D-05  0.56559479D-10  0.13761503D-09
 -0.27513233D-04 -0.51290923D-04 -0.86690695D-04 -0.13032451D-03 -0.16011872D-03
 -0.13524586D-03 -0.51009761D-04  0.25245015D-06  0.20856764D-04  0.39050444D-04
  0.66486721D-04  0.10284485D-03  0.13544305D-03  0.14073400D-03  0.89430141D-04
 -0.59934001D-04 -0.12676551D-03  0.76831513D-03 -0.11297089D-03  0.28936482D-05
  0.27129791D-05  0.19318028D-05 -0.67430170D-04 -0.63220070D-04 -0.45016456D-04
 -0.11630230D-09 -0.10904079D-09 -0.77643542D-10  0.29012246D-03  0.15276935D-03
  0.19905306D-09  0.44440610D-03  0.28462985D-03 -0.48057484D-09  0.15528963D-04
  0.23415056D-05 -0.50063845D-10 -0.16867055D-04  0.38431704D-04 -0.21564649D-04
 -0.24276578D-04 -0.12718011D-09  0.16643511D-09 -0.73729100D-04  0.12443489D-03
 -0.50705788D-04 -0.18539286D-03 -0.10785668D-09 -0.32957205D-09  0.94704258D-05
 -0.19059873D-04  0.95894469D-05 -0.61299186D-04 -0.58849333D-10 -0.40834741D-09
  0.49856127D-04 -0.65590425D-05 -0.54697270D-10 -0.16486502D-03  0.79262875D-04
  0.44920905D-10  0.15296638D-04 -0.59585747D-04  0.11917090D-09 -0.15812818D-09
  0.17302346D-04 -0.27058742D-04  0.77006482D-10 -0.54977336D-04  0.63107853D-04
  0.12243839D-09  0.30702969D-05  0.18068372D-04 -0.35345783D-09  0.60992105D-09
 -0.10950887D-04 -0.20414943D-04 -0.34504850D-04 -0.51872092D-04 -0.63730859D-04
 -0.53830899D-04 -0.20303034D-04  0.10048085D-06  0.76832304D-05  0.14385432D-04
  0.24492428D-04  0.37886062D-04  0.49894611D-04  0.51843697D-04  0.32944342D-04
 -0.22078532D-04  0.45322353D-05 -0.54309182D-03 -0.10161867D-03 -0.25362725D-04
 -0.23779167D-04 -0.16932183D-04  0.51324410D-05  0.48119897D-05  0.34264233D-05
 -0.15589526D-09 -0.14616172D-09 -0.10407585D-09  0.18155216D-03 -0.59930938D-04
  0.42545590D-11  0.17014282D-03  0.74453265D-04  0.94485842D-09  0.42140034D-05
  0.27168259D-05  0.10845830D-09 -0.74531857D-05 -0.27779754D-05  0.10231161D-04
 -0.37301786D-04  0.12667139D-09 -0.32012919D-09  0.52376654D-04 -0.50341316D-04
 -0.20353379D-05 -0.17987381D-03  0.12537215D-09  0.57048189D-09  0.39245844D-04
 -0.40370659D-04  0.11248155D-05 -0.17714368D-03  0.66203464D-10  0.65717789D-10
  0.76611814D-05 -0.10228931D-04 -0.55777166D-10  0.21103123D-04  0.21996043D-04
  0.18430727D-09 -0.44086667D-04  0.86907493D-05 -0.16975777D-10 -0.49127673D-09
 -0.75349728D-05 -0.22714336D-04 -0.43850642D-10  0.75381883D-05  0.66559532D-04
 -0.24608369D-10  0.15066730D-04  0.15834759D-05  0.15616029D-09  0.35609674D-09
 -0.16442036D-04 -0.30651694D-04 -0.51806762D-04 -0.77882533D-04 -0.95687691D-04
 -0.80823552D-04 -0.30483670D-04  0.15086538D-06  0.12044695D-04  0.22551469D-04
  0.38395806D-04  0.59392473D-04  0.78217798D-04  0.81273302D-04  0.51645535D-04
 -0.34611637D-04 -0.53152923D-04  0.53925413D-03  0.98531113D-04  0.40622217D-04
  0.38085911D-04  0.27119437D-04  0.54847483D-04  0.51423001D-04  0.36616240D-04
  0.18061056D-10  0.16933388D-10  0.12057581D-10 -0.10880492D-03 -0.34502848D-03
 -0.21605896D-10 -0.27258154D-04 -0.20181495D-03 -0.13590465D-08 -0.16181921D-04
 -0.10591406D-04 -0.20158656D-09  0.18105680D-04 -0.59584446D-05 -0.12147235D-04
  0.34559461D-04  0.35954050D-10 -0.13833927D-09  0.98192057D-04 -0.98368954D-04
  0.17689687D-06 -0.10349351D-03 -0.73707944D-10  0.25703825D-09 -0.33261728D-04
  0.78958097D-05  0.25365918D-04 -0.10886195D-03  0.13215218D-09  0.78451990D-10
 -0.25831897D-04 -0.25228015D-04 -0.79488172D-10  0.45120786D-04  0.48474565D-04
  0.36600918D-09  0.32374906D-04  0.27209479D-04 -0.12754466D-09  0.70131936D-10
  0.11280797D-04 -0.31296153D-04  0.13461523D-09 -0.10840907D-04  0.95859380D-04
 -0.30432321D-09 -0.23001483D-04 -0.19709217D-05 -0.99522478D-10  0.51750429D-09
  0.23511038D-03  0.43829920D-03  0.74080285D-03  0.11136693D-02  0.13682715D-02
  0.11557240D-02  0.43589657D-03 -0.21572764D-05 -0.18809414D-03 -0.35217157D-03
 -0.59960223D-03 -0.92749348D-03 -0.12214763D-02 -0.12691921D-02 -0.80651461D-03
  0.54050733D-03  0.18237195D-03 -0.44246810D-03  0.14857312D-03 -0.19661173D-03
 -0.18433600D-03 -0.13125821D-03  0.13717240D-03  0.12860784D-03  0.91576446D-04
  0.16209326D-08  0.15197274D-08  0.10821364D-08 -0.19691505D-02  0.96360630D-03
  0.58146169D-08  0.35604818D-03 -0.14746890D-03  0.40089631D-09 -0.48196081D-05
 -0.64658895D-05  0.14391199D-09  0.59419102D-03 -0.22134389D-03 -0.37284713D-03
 -0.12902170D-02 -0.11568079D-07  0.55198887D-08  0.19339930D-03 -0.10314307D-03
 -0.90256232D-04 -0.24489657D-03 -0.57823034D-08  0.27955735D-08 -0.64444139D-04
  0.36975498D-04  0.27468641D-04  0.15369542D-03  0.82895442D-09 -0.34221818D-09
 -0.92036292D-04  0.70715870D-04 -0.46665145D-09 -0.98095982D-04 -0.54413378D-04
  0.11318313D-08  0.37420486D-03 -0.15773423D-03  0.26812304D-09 -0.13245534D-08
  0.80286102D-05  0.24725728D-04 -0.47923307D-09 -0.57649976D-04 -0.68823868D-04
  0.11441273D-08  0.33564146D-04 -0.53533153D-05  0.29357189D-09 -0.11959225D-08
  0.49804267D+00  0.92828745D+00  0.15740679D+01  0.23824252D+01  0.29725710D+01
  0.25530420D+01  0.98016249D+00 -0.43843269D-02  0.40550153D-03  0.76052817D-03
  0.12965338D-02  0.20262300D-02  0.27094555D-02  0.28930668D-02  0.17687643D-02
 -0.11669233D-02  0.47472861D-01  0.82857421D-03  0.38926019D-03  0.84929958D-02
  0.82353491D-02  0.55555178D-02 -0.48566669D-02 -0.47093332D-02 -0.31768884D-02
 -0.51295636D-07 -0.49739512D-07 -0.33553981D-07 -0.19330314D-02  0.10903936D-02
  0.10002403D-07 -0.40904207D-03  0.16521246D-03 -0.22181186D-08  0.20747939D-04
 -0.10809656D-04 -0.19746542D-09  0.94496208D-03  0.17722897D-03 -0.11221910D-02
 -0.12335263D-02 -0.10126562D-07  0.61836854D-08 -0.52589577D-03  0.14212025D-03
  0.38377552D-03  0.10265130D-02  0.82963339D-08 -0.43598632D-08 -0.79165191D-04
  0.56112814D-05  0.73553909D-04  0.88361746D-04  0.27286189D-10  0.12782045D-10
 -0.74207172D-04 -0.13862584D-04 -0.14719003D-08 -0.79685702D-04  0.23949078D-03
  0.43702603D-08  0.30230722D-03 -0.19790303D-03  0.45440695D-10 -0.73160014D-08
 -0.43063048D-04 -0.34577754D-04 -0.81781729D-09 -0.22452157D-04  0.17462210D-03
  0.19270329D-08  0.15164130D-03 -0.70888833D-04  0.52641897D-09 -0.21137685D-08
 -0.39554399D-05 -0.73703798D-05 -0.12465160D-04 -0.18771840D-04 -0.23240756D-04
 -0.19776834D-04 -0.75254503D-05  0.35244894D-07  0.54089138D-05  0.10141764D-04
  0.17254158D-04  0.26793886D-04  0.35557045D-04  0.37472244D-04  0.23235182D-04
 -0.15456052D-04 -0.10474075D-03 -0.42150826D-05 -0.38008737D-03  0.25171143D-03
  0.24176582D-03  0.16954288D-03  0.42094993D-04  0.40431737D-04  0.28353525D-04
  0.80817675D-09  0.77624411D-09  0.54435595D-09 -0.54643063D-03 -0.25213264D-04
 -0.99315459D-09  0.52652268D-04 -0.54981009D-04 -0.15288287D-09  0.43318999D-04
  0.30066094D-04  0.98095596D-10  0.18974138D-04 -0.88299328D-05 -0.10144206D-04
 -0.55457508D-04 -0.12089020D-08  0.90738151D-09  0.15449412D-03 -0.55895456D-04
 -0.98598661D-04  0.31131430D-03  0.22987511D-08  0.29340391D-09  0.10622130D-03
 -0.46021632D-04 -0.60199668D-04  0.85466102D-04 -0.15547240D-09  0.25499110D-09
 -0.89875188D-04  0.31666932D-04  0.43678543D-09  0.79052005D-04 -0.11811075D-03
 -0.15709767D-08  0.19057356D-03  0.23109950D-04  0.26062038D-09 -0.26780177D-08
  0.82205385D-04  0.11233855D-04  0.13172452D-09 -0.16151738D-03 -0.73862803D-04
 -0.21765513D-09 -0.85098776D-04  0.40161239D-04 -0.17751843D-09 -0.27546567D-10
 -0.39880306D-05 -0.74311077D-05 -0.12567866D-04 -0.18926510D-04 -0.23432247D-04
 -0.19939785D-04 -0.75874559D-05  0.35535293D-07  0.51221315D-05  0.96040445D-05
  0.16339337D-04  0.25373266D-04  0.33671799D-04  0.35485454D-04  0.22003245D-04
 -0.14636567D-04 -0.85113049D-04  0.13051026D-03 -0.88111925D-04  0.67261005D-04
  0.64603391D-04  0.45304357D-04 -0.20736489D-03 -0.19917150D-03 -0.13967280D-03
  0.66849270D-09  0.64207924D-09  0.45027028D-09 -0.22899457D-03  0.42371384D-03
 -0.70078846D-09 -0.20785081D-04 -0.12018057D-03 -0.24518316D-10  0.27328883D-04
 -0.59466057D-04 -0.10032424D-10  0.49404350D-04 -0.43110466D-04 -0.62938833D-05
 -0.21838993D-03 -0.36569611D-09  0.13207716D-08 -0.13999702D-03  0.21729597D-03
 -0.77298949D-04  0.21767706D-03 -0.21811976D-09 -0.16286660D-08 -0.67363081D-04
  0.12510380D-03 -0.57740718D-04 -0.65342321D-04 -0.27702861D-09  0.12203305D-09
  0.26592141D-04  0.57641668D-04  0.50938035D-09 -0.13684481D-03 -0.16149882D-04
 -0.14663685D-09  0.57068386D-04 -0.15677512D-03 -0.13815042D-08  0.61920908D-09
 -0.95918877D-04  0.18637116D-04  0.21233273D-11  0.34028112D-03 -0.13209886D-03
  0.28722735D-09 -0.52524490D-04  0.76187507D-04 -0.29359733D-09 -0.23284095D-09
 -0.24528881D-04 -0.45705957D-04 -0.77300232D-04 -0.11640987D-03 -0.14412297D-03
 -0.12264214D-03 -0.46667597D-04  0.21856426D-06  0.18161430D-04  0.34052852D-04