 Molden2AIM, Version 4.0.0 (06/02/2016)           Time: Wed Jun 27 21:56:47 2018
GAUSSIAN             16 MOL ORBITALS    516 PRIMITIVES       12 NUCLEI
  C    1    (CENTRE  1)   0.00000000  2.03567912  0.24745019  CHARGE =  6.0
  C    2    (CENTRE  2)   0.00000000 -2.03567912  0.24745019  CHARGE =  6.0
  C    3    (CENTRE  3)  -2.03567912  0.00000000 -0.24745019  CHARGE =  6.0
  C    4    (CENTRE  4)   2.03567912  0.00000000 -0.24745019  CHARGE =  6.0
  H    5    (CENTRE  5)   0.00000000  3.72697833 -0.95355580  CHARGE =  1.0
  H    6    (CENTRE  6)   0.00000000  2.63501521  2.23552333  CHARGE =  1.0
  H    7    (CENTRE  7)   0.00000000 -3.72697833 -0.95355580  CHARGE =  1.0
  H    8    (CENTRE  8)   0.00000000 -2.63501521  2.23552333  CHARGE =  1.0
  H    9    (CENTRE  9)  -3.72697833  0.00000000  0.95355580  CHARGE =  1.0
  H   10    (CENTRE 10)  -2.63501521  0.00000000 -2.23552333  CHARGE =  1.0
  H   11    (CENTRE 11)   3.72697833  0.00000000  0.95355580  CHARGE =  1.0
  H   12    (CENTRE 12)   2.63501521  0.00000000 -2.23552333  CHARGE =  1.0
CENTRE ASSIGNMENTS    1  1  1  1  1  1  1  1  1  1  1  1  1  1  1  1  1  1  1  1
CENTRE ASSIGNMENTS    1  1  1  1  1  1  1  1  1  1  1  1  1  1  1  1  1  1  1  1
CENTRE ASSIGNMENTS    1  1  1  1  1  1  1  1  1  1  1  1  1  1  1  1  1  1  1  1
CENTRE ASSIGNMENTS    1  1  1  1  1  1  1  1  1  1  1  1  1  1  1  2  2  2  2  2
CENTRE ASSIGNMENTS    2  2  2  2  2  2  2  2  2  2  2  2  2  2  2  2  2  2  2  2
CENTRE ASSIGNMENTS    2  2  2  2  2  2  2  2  2  2  2  2  2  2  2  2  2  2  2  2
CENTRE ASSIGNMENTS    2  2  2  2  2  2  2  2  2  2  2  2  2  2  2  2  2  2  2  2
CENTRE ASSIGNMENTS    2  2  2  2  2  2  2  2  2  2  3  3  3  3  3  3  3  3  3  3
CENTRE ASSIGNMENTS    3  3  3  3  3  3  3  3  3  3  3  3  3  3  3  3  3  3  3  3
CENTRE ASSIGNMENTS    3  3  3  3  3  3  3  3  3  3  3  3  3  3  3  3  3  3  3  3
CENTRE ASSIGNMENTS    3  3  3  3  3  3  3  3  3  3  3  3  3  3  3  3  3  3  3  3
CENTRE ASSIGNMENTS    3  3  3  3  3  4  4  4  4  4  4  4  4  4  4  4  4  4  4  4
CENTRE ASSIGNMENTS    4  4  4  4  4  4  4  4  4  4  4  4  4  4  4  4  4  4  4  4
CENTRE ASSIGNMENTS    4  4  4  4  4  4  4  4  4  4  4  4  4  4  4  4  4  4  4  4
CENTRE ASSIGNMENTS    4  4  4  4  4  4  4  4  4  4  4  4  4  4  4  4  4  4  4  4
CENTRE ASSIGNMENTS    5  5  5  5  5  5  5  5  5  5  5  5  5  5  5  5  5  5  5  5
CENTRE ASSIGNMENTS    5  5  5  5  5  5  5  6  6  6  6  6  6  6  6  6  6  6  6  6
CENTRE ASSIGNMENTS    6  6  6  6  6  6  6  6  6  6  6  6  6  6  7  7  7  7  7  7
CENTRE ASSIGNMENTS    7  7  7  7  7  7  7  7  7  7  7  7  7  7  7  7  7  7  7  7
CENTRE ASSIGNMENTS    7  8  8  8  8  8  8  8  8  8  8  8  8  8  8  8  8  8  8  8
CENTRE ASSIGNMENTS    8  8  8  8  8  8  8  8  9  9  9  9  9  9  9  9  9  9  9  9
CENTRE ASSIGNMENTS    9  9  9  9  9  9  9  9  9  9  9  9  9  9  9 10 10 10 10 10
CENTRE ASSIGNMENTS   10 10 10 10 10 10 10 10 10 10 10 10 10 10 10 10 10 10 10 10
CENTRE ASSIGNMENTS   10 10 11 11 11 11 11 11 11 11 11 11 11 11 11 11 11 11 11 11
CENTRE ASSIGNMENTS   11 11 11 11 11 11 11 11 11 12 12 12 12 12 12 12 12 12 12 12
CENTRE ASSIGNMENTS   12 12 12 12 12 12 12 12 12 12 12 12 12 12 12 12
TYPE ASSIGNMENTS      1  1  1  1  1  1  1  1  1  1  1  1  1  1  1  1  1  1  1  2
TYPE ASSIGNMENTS      2  2  3  3  3  4  4  4  2  3  4  2  3  4  2  3  4  5  6  7
TYPE ASSIGNMENTS      8  9 10  5  6  7  8  9 10  5  6  7  8  9 10 11 12 13 17 14
TYPE ASSIGNMENTS     15 18 19 16 20 11 12 13 17 14 15 18 19 16 20  1  1  1  1  1
TYPE ASSIGNMENTS      1  1  1  1  1  1  1  1  1  1  1  1  1  1  2  2  2  3  3  3
TYPE ASSIGNMENTS      4  4  4  2  3  4  2  3  4  2  3  4  5  6  7  8  9 10  5  6
TYPE ASSIGNMENTS      7  8  9 10  5  6  7  8  9 10 11 12 13 17 14 15 18 19 16 20
TYPE ASSIGNMENTS     11 12 13 17 14 15 18 19 16 20  1  1  1  1  1  1  1  1  1  1
TYPE ASSIGNMENTS      1  1  1  1  1  1  1  1  1  2  2  2  3  3  3  4  4  4  2  3
TYPE ASSIGNMENTS      4  2  3  4  2  3  4  5  6  7  8  9 10  5  6  7  8  9 10  5
TYPE ASSIGNMENTS      6  7  8  9 10 11 12 13 17 14 15 18 19 16 20 11 12 13 17 14
TYPE ASSIGNMENTS     15 18 19 16 20  1  1  1  1  1  1  1  1  1  1  1  1  1  1  1
TYPE ASSIGNMENTS      1  1  1  1  2  2  2  3  3  3  4  4  4  2  3  4  2  3  4  2
TYPE ASSIGNMENTS      3  4  5  6  7  8  9 10  5  6  7  8  9 10  5  6  7  8  9 10
TYPE ASSIGNMENTS     11 12 13 17 14 15 18 19 16 20 11 12 13 17 14 15 18 19 16 20
TYPE ASSIGNMENTS      1  1  1  1  1  1  2  3  4  2  3  4  2  3  4  5  6  7  8  9
TYPE ASSIGNMENTS     10  5  6  7  8  9 10  1  1  1  1  1  1  2  3  4  2  3  4  2
TYPE ASSIGNMENTS      3  4  5  6  7  8  9 10  5  6  7  8  9 10  1  1  1  1  1  1
TYPE ASSIGNMENTS      2  3  4  2  3  4  2  3  4  5  6  7  8  9 10  5  6  7  8  9
TYPE ASSIGNMENTS     10  1  1  1  1  1  1  2  3  4  2  3  4  2  3  4  5  6  7  8
TYPE ASSIGNMENTS      9 10  5  6  7  8  9 10  1  1  1  1  1  1  2  3  4  2  3  4
TYPE ASSIGNMENTS      2  3  4  5  6  7  8  9 10  5  6  7  8  9 10  1  1  1  1  1
TYPE ASSIGNMENTS      1  2  3  4  2  3  4  2  3  4  5  6  7  8  9 10  5  6  7  8
TYPE ASSIGNMENTS      9 10  1  1  1  1  1  1  2  3  4  2  3  4  2  3  4  5  6  7
TYPE ASSIGNMENTS      8  9 10  5  6  7  8  9 10  1  1  1  1  1  1  2  3  4  2  3
TYPE ASSIGNMENTS      4  2  3  4  5  6  7  8  9 10  5  6  7  8  9 10
EXPONENTS  0.8236000D+04 0.1235000D+04 0.2808000D+03 0.7927000D+02 0.2559000D+02
EXPONENTS  0.8997000D+01 0.3319000D+01 0.3643000D+00 0.8236000D+04 0.1235000D+04
EXPONENTS  0.2808000D+03 0.7927000D+02 0.2559000D+02 0.8997000D+01 0.3319000D+01
EXPONENTS  0.3643000D+00 0.9059000D+00 0.1285000D+00 0.4402000D-01 0.1871000D+02
EXPONENTS  0.4133000D+01 0.1200000D+01 0.1871000D+02 0.4133000D+01 0.1200000D+01
EXPONENTS  0.1871000D+02 0.4133000D+01 0.1200000D+01 0.3827000D+00 0.3827000D+00
EXPONENTS  0.3827000D+00 0.1209000D+00 0.1209000D+00 0.1209000D+00 0.3569000D-01
EXPONENTS  0.3569000D-01 0.3569000D-01 0.1097000D+01 0.1097000D+01 0.1097000D+01
EXPONENTS  0.1097000D+01 0.1097000D+01 0.1097000D+01 0.3180000D+00 0.3180000D+00
EXPONENTS  0.3180000D+00 0.3180000D+00 0.3180000D+00 0.3180000D+00 0.1000000D+00
EXPONENTS  0.1000000D+00 0.1000000D+00 0.1000000D+00 0.1000000D+00 0.1000000D+00
EXPONENTS  0.7610000D+00 0.7610000D+00 0.7610000D+00 0.7610000D+00 0.7610000D+00
EXPONENTS  0.7610000D+00 0.7610000D+00 0.7610000D+00 0.7610000D+00 0.7610000D+00
EXPONENTS  0.2680000D+00 0.2680000D+00 0.2680000D+00 0.2680000D+00 0.2680000D+00
EXPONENTS  0.2680000D+00 0.2680000D+00 0.2680000D+00 0.2680000D+00 0.2680000D+00
EXPONENTS  0.8236000D+04 0.1235000D+04 0.2808000D+03 0.7927000D+02 0.2559000D+02
EXPONENTS  0.8997000D+01 0.3319000D+01 0.3643000D+00 0.8236000D+04 0.1235000D+04
EXPONENTS  0.2808000D+03 0.7927000D+02 0.2559000D+02 0.8997000D+01 0.3319000D+01
EXPONENTS  0.3643000D+00 0.9059000D+00 0.1285000D+00 0.4402000D-01 0.1871000D+02
EXPONENTS  0.4133000D+01 0.1200000D+01 0.1871000D+02 0.4133000D+01 0.1200000D+01
EXPONENTS  0.1871000D+02 0.4133000D+01 0.1200000D+01 0.3827000D+00 0.3827000D+00
EXPONENTS  0.3827000D+00 0.1209000D+00 0.1209000D+00 0.1209000D+00 0.3569000D-01
EXPONENTS  0.3569000D-01 0.3569000D-01 0.1097000D+01 0.1097000D+01 0.1097000D+01
EXPONENTS  0.1097000D+01 0.1097000D+01 0.1097000D+01 0.3180000D+00 0.3180000D+00
EXPONENTS  0.3180000D+00 0.3180000D+00 0.3180000D+00 0.3180000D+00 0.1000000D+00
EXPONENTS  0.1000000D+00 0.1000000D+00 0.1000000D+00 0.1000000D+00 0.1000000D+00
EXPONENTS  0.7610000D+00 0.7610000D+00 0.7610000D+00 0.7610000D+00 0.7610000D+00
EXPONENTS  0.7610000D+00 0.7610000D+00 0.7610000D+00 0.7610000D+00 0.7610000D+00
EXPONENTS  0.2680000D+00 0.2680000D+00 0.2680000D+00 0.2680000D+00 0.2680000D+00
EXPONENTS  0.2680000D+00 0.2680000D+00 0.2680000D+00 0.2680000D+00 0.2680000D+00
EXPONENTS  0.8236000D+04 0.1235000D+04 0.2808000D+03 0.7927000D+02 0.2559000D+02
EXPONENTS  0.8997000D+01 0.3319000D+01 0.3643000D+00 0.8236000D+04 0.1235000D+04
EXPONENTS  0.2808000D+03 0.7927000D+02 0.2559000D+02 0.8997000D+01 0.3319000D+01
EXPONENTS  0.3643000D+00 0.9059000D+00 0.1285000D+00 0.4402000D-01 0.1871000D+02
EXPONENTS  0.4133000D+01 0.1200000D+01 0.1871000D+02 0.4133000D+01 0.1200000D+01
EXPONENTS  0.1871000D+02 0.4133000D+01 0.1200000D+01 0.3827000D+00 0.3827000D+00
EXPONENTS  0.3827000D+00 0.1209000D+00 0.1209000D+00 0.1209000D+00 0.3569000D-01
EXPONENTS  0.3569000D-01 0.3569000D-01 0.1097000D+01 0.1097000D+01 0.1097000D+01
EXPONENTS  0.1097000D+01 0.1097000D+01 0.1097000D+01 0.3180000D+00 0.3180000D+00
EXPONENTS  0.3180000D+00 0.3180000D+00 0.3180000D+00 0.3180000D+00 0.1000000D+00
EXPONENTS  0.1000000D+00 0.1000000D+00 0.1000000D+00 0.1000000D+00 0.1000000D+00
EXPONENTS  0.7610000D+00 0.7610000D+00 0.7610000D+00 0.7610000D+00 0.7610000D+00
EXPONENTS  0.7610000D+00 0.7610000D+00 0.7610000D+00 0.7610000D+00 0.7610000D+00
EXPONENTS  0.2680000D+00 0.2680000D+00 0.2680000D+00 0.2680000D+00 0.2680000D+00
EXPONENTS  0.2680000D+00 0.2680000D+00 0.2680000D+00 0.2680000D+00 0.2680000D+00
EXPONENTS  0.8236000D+04 0.1235000D+04 0.2808000D+03 0.7927000D+02 0.2559000D+02
EXPONENTS  0.8997000D+01 0.3319000D+01 0.3643000D+00 0.8236000D+04 0.1235000D+04
EXPONENTS  0.2808000D+03 0.7927000D+02 0.2559000D+02 0.8997000D+01 0.3319000D+01
EXPONENTS  0.3643000D+00 0.9059000D+00 0.1285000D+00 0.4402000D-01 0.1871000D+02
EXPONENTS  0.4133000D+01 0.1200000D+01 0.1871000D+02 0.4133000D+01 0.1200000D+01
EXPONENTS  0.1871000D+02 0.4133000D+01 0.1200000D+01 0.3827000D+00 0.3827000D+00
EXPONENTS  0.3827000D+00 0.1209000D+00 0.1209000D+00 0.1209000D+00 0.3569000D-01
EXPONENTS  0.3569000D-01 0.3569000D-01 0.1097000D+01 0.1097000D+01 0.1097000D+01
EXPONENTS  0.1097000D+01 0.1097000D+01 0.1097000D+01 0.3180000D+00 0.3180000D+00
EXPONENTS  0.3180000D+00 0.3180000D+00 0.3180000D+00 0.3180000D+00 0.1000000D+00
EXPONENTS  0.1000000D+00 0.1000000D+00 0.1000000D+00 0.1000000D+00 0.1000000D+00
EXPONENTS  0.7610000D+00 0.7610000D+00 0.7610000D+00 0.7610000D+00 0.7610000D+00
EXPONENTS  0.7610000D+00 0.7610000D+00 0.7610000D+00 0.7610000D+00 0.7610000D+00
EXPONENTS  0.2680000D+00 0.2680000D+00 0.2680000D+00 0.2680000D+00 0.2680000D+00
EXPONENTS  0.2680000D+00 0.2680000D+00 0.2680000D+00 0.2680000D+00 0.2680000D+00
EXPONENTS  0.3387000D+02 0.5095000D+01 0.1159000D+01 0.3258000D+00 0.1027000D+00
EXPONENTS  0.2526000D-01 0.1407000D+01 0.1407000D+01 0.1407000D+01 0.3880000D+00
EXPONENTS  0.3880000D+00 0.3880000D+00 0.1020000D+00 0.1020000D+00 0.1020000D+00
EXPONENTS  0.1057000D+01 0.1057000D+01 0.1057000D+01 0.1057000D+01 0.1057000D+01
EXPONENTS  0.1057000D+01 0.2470000D+00 0.2470000D+00 0.2470000D+00 0.2470000D+00
EXPONENTS  0.2470000D+00 0.2470000D+00 0.3387000D+02 0.5095000D+01 0.1159000D+01
EXPONENTS  0.3258000D+00 0.1027000D+00 0.2526000D-01 0.1407000D+01 0.1407000D+01
EXPONENTS  0.1407000D+01 0.3880000D+00 0.3880000D+00 0.3880000D+00 0.1020000D+00
EXPONENTS  0.1020000D+00 0.1020000D+00 0.1057000D+01 0.1057000D+01 0.1057000D+01
EXPONENTS  0.1057000D+01 0.1057000D+01 0.1057000D+01 0.2470000D+00 0.2470000D+00
EXPONENTS  0.2470000D+00 0.2470000D+00 0.2470000D+00 0.2470000D+00 0.3387000D+02
EXPONENTS  0.5095000D+01 0.1159000D+01 0.3258000D+00 0.1027000D+00 0.2526000D-01
EXPONENTS  0.1407000D+01 0.1407000D+01 0.1407000D+01 0.3880000D+00 0.3880000D+00
EXPONENTS  0.3880000D+00 0.1020000D+00 0.1020000D+00 0.1020000D+00 0.1057000D+01
EXPONENTS  0.1057000D+01 0.1057000D+01 0.1057000D+01 0.1057000D+01 0.1057000D+01
EXPONENTS  0.2470000D+00 0.2470000D+00 0.2470000D+00 0.2470000D+00 0.2470000D+00
EXPONENTS  0.2470000D+00 0.3387000D+02 0.5095000D+01 0.1159000D+01 0.3258000D+00
EXPONENTS  0.1027000D+00 0.2526000D-01 0.1407000D+01 0.1407000D+01 0.1407000D+01
EXPONENTS  0.3880000D+00 0.3880000D+00 0.3880000D+00 0.1020000D+00 0.1020000D+00
EXPONENTS  0.1020000D+00 0.1057000D+01 0.1057000D+01 0.1057000D+01 0.1057000D+01
EXPONENTS  0.1057000D+01 0.1057000D+01 0.2470000D+00 0.2470000D+00 0.2470000D+00
EXPONENTS  0.2470000D+00 0.2470000D+00 0.2470000D+00 0.3387000D+02 0.5095000D+01
EXPONENTS  0.1159000D+01 0.3258000D+00 0.1027000D+00 0.2526000D-01 0.1407000D+01
EXPONENTS  0.1407000D+01 0.1407000D+01 0.3880000D+00 0.3880000D+00 0.3880000D+00
EXPONENTS  0.1020000D+00 0.1020000D+00 0.1020000D+00 0.1057000D+01 0.1057000D+01
EXPONENTS  0.1057000D+01 0.1057000D+01 0.1057000D+01 0.1057000D+01 0.2470000D+00
EXPONENTS  0.2470000D+00 0.2470000D+00 0.2470000D+00 0.2470000D+00 0.2470000D+00
EXPONENTS  0.3387000D+02 0.5095000D+01 0.1159000D+01 0.3258000D+00 0.1027000D+00
EXPONENTS  0.2526000D-01 0.1407000D+01 0.1407000D+01 0.1407000D+01 0.3880000D+00
EXPONENTS  0.3880000D+00 0.3880000D+00 0.1020000D+00 0.1020000D+00 0.1020000D+00
EXPONENTS  0.1057000D+01 0.1057000D+01 0.1057000D+01 0.1057000D+01 0.1057000D+01
EXPONENTS  0.1057000D+01 0.2470000D+00 0.2470000D+00 0.2470000D+00 0.2470000D+00
EXPONENTS  0.2470000D+00 0.2470000D+00 0.3387000D+02 0.5095000D+01 0.1159000D+01
EXPONENTS  0.3258000D+00 0.1027000D+00 0.2526000D-01 0.1407000D+01 0.1407000D+01
EXPONENTS  0.1407000D+01 0.3880000D+00 0.3880000D+00 0.3880000D+00 0.1020000D+00
EXPONENTS  0.1020000D+00 0.1020000D+00 0.1057000D+01 0.1057000D+01 0.1057000D+01
EXPONENTS  0.1057000D+01 0.1057000D+01 0.1057000D+01 0.2470000D+00 0.2470000D+00
EXPONENTS  0.2470000D+00 0.2470000D+00 0.2470000D+00 0.2470000D+00 0.3387000D+02
EXPONENTS  0.5095000D+01 0.1159000D+01 0.3258000D+00 0.1027000D+00 0.2526000D-01
EXPONENTS  0.1407000D+01 0.1407000D+01 0.1407000D+01 0.3880000D+00 0.3880000D+00
EXPONENTS  0.3880000D+00 0.1020000D+00 0.1020000D+00 0.1020000D+00 0.1057000D+01
EXPONENTS  0.1057000D+01 0.1057000D+01 0.1057000D+01 0.1057000D+01 0.1057000D+01
EXPONENTS  0.2470000D+00 0.2470000D+00 0.2470000D+00 0.2470000D+00 0.2470000D+00
EXPONENTS  0.2470000D+00
MO    1     MO 0.0        OCC NO =    2.0000000  ORB. ENERGY =  -11.217952
  0.16369552D+00  0.30516567D+00  0.51578374D+00  0.77539191D+00  0.95265855D+00
  0.80467244D+00  0.30349284D+00 -0.15020030D-02 -0.24818909D-03 -0.46468828D-03
 -0.79117156D-03 -0.12238221D-02 -0.16117307D-02 -0.16746914D-02 -0.10641912D-02
  0.71319620D-03  0.14033974D-01 -0.43275259D-03  0.18364283D-04 -0.71167840D-13
 -0.66724373D-13 -0.47511729D-13 -0.30746558D-03 -0.28826853D-03 -0.20526436D-03
 -0.10907281D-03 -0.10226269D-03 -0.72817128D-04  0.14124763D-12 -0.23808726D-03
 -0.48671239D-05  0.48150337D-12 -0.73553544D-04 -0.40472285D-04 -0.26475570D-13
 -0.18053600D-05 -0.22433487D-05 -0.36077116D-03  0.23879337D-03  0.12197779D-03
 -0.20401352D-13 -0.50213403D-13  0.16154391D-03  0.10802838D-03 -0.51546374D-04
 -0.56482003D-04 -0.75505755D-14  0.10810396D-12 -0.71803021D-03 -0.65342774D-05
  0.31184345D-04 -0.24650067D-04 -0.33163398D-13  0.32049051D-13 -0.41390137D-04
  0.56077487D-14 -0.80402316D-04  0.12121218D-03 -0.54941331D-14 -0.19326353D-03
  0.61266879D-04 -0.11329113D-13  0.43447048D-03 -0.42490343D-03  0.24417906D-13
 -0.11973736D-13 -0.62978165D-04 -0.12287438D-03  0.33176251D-14  0.10040972D-03
 -0.20701417D-04  0.32603583D-13  0.88524774D-04  0.38932456D-03 -0.77079634D-13
  0.16369552D+00  0.30516567D+00  0.51578374D+00  0.77539191D+00  0.95265855D+00
  0.80467244D+00  0.30349284D+00 -0.15020030D-02 -0.24818909D-03 -0.46468828D-03
 -0.79117156D-03 -0.12238221D-02 -0.16117307D-02 -0.16746914D-02 -0.10641912D-02
  0.71319620D-03  0.14033974D-01 -0.43275259D-03  0.18364285D-04 -0.69766962D-13
 -0.65410962D-13 -0.46576502D-13  0.30746558D-03  0.28826853D-03  0.20526436D-03
 -0.10907281D-03 -0.10226269D-03 -0.72817128D-04  0.13606491D-12  0.23808726D-03
 -0.48671243D-05  0.49234072D-12  0.73553541D-04 -0.40472286D-04 -0.24394932D-13
  0.18053601D-05 -0.22433487D-05 -0.36077116D-03  0.23879337D-03  0.12197779D-03
  0.19415494D-13 -0.48775124D-13 -0.16154391D-03  0.10802838D-03 -0.51546374D-04
 -0.56482003D-04  0.38570336D-14  0.10742605D-12  0.71803021D-03 -0.65342775D-05
  0.31184345D-04 -0.24650067D-04  0.33930670D-13  0.26988505D-13  0.41390138D-04
  0.50923635D-14  0.80402316D-04  0.12121218D-03 -0.37000503D-14  0.19326353D-03
  0.61266879D-04 -0.11577040D-13 -0.43447048D-03 -0.42490343D-03 -0.24380364D-13
 -0.11308492D-13  0.62978165D-04 -0.12287438D-03  0.23463939D-15 -0.10040972D-03
 -0.20701417D-04  0.33690837D-13 -0.88524774D-04  0.38932456D-03  0.77042992D-13
  0.16369552D+00  0.30516567D+00  0.51578374D+00  0.77539191D+00  0.95265855D+00
  0.80467244D+00  0.30349284D+00 -0.15020030D-02 -0.24818909D-03 -0.46468828D-03
 -0.79117156D-03 -0.12238221D-02 -0.16117307D-02 -0.16746914D-02 -0.10641912D-02
  0.71319620D-03  0.14033974D-01 -0.43275262D-03  0.18364299D-04  0.30746558D-03
  0.28826853D-03  0.20526436D-03  0.84567990D-13  0.79287866D-13  0.56457684D-13
  0.10907281D-03  0.10226269D-03  0.72817128D-04  0.23808726D-03 -0.96842113D-13
  0.48671243D-05  0.73553530D-04 -0.40578597D-12  0.40472283D-04  0.18053609D-05
  0.25082787D-13  0.22433489D-05  0.23879337D-03 -0.36077116D-03  0.12197779D-03
  0.46079642D-14  0.16154391D-03 -0.42255397D-13 -0.51546375D-04  0.10802838D-03
 -0.56482003D-04 -0.18274152D-13 -0.71803021D-03  0.72650611D-13  0.31184343D-04
 -0.65342774D-05 -0.24650066D-04 -0.20210669D-13 -0.41390138D-04  0.30586767D-13
  0.80402316D-04 -0.11025557D-13 -0.12121218D-03  0.19326353D-03  0.48676089D-14
  0.42490343D-03 -0.43447048D-03  0.28209063D-13 -0.61266879D-04 -0.41132965D-13
  0.62978165D-04  0.10621149D-13  0.12287438D-03 -0.10040972D-03 -0.14581993D-13
 -0.38932456D-03 -0.88524774D-04 -0.17281455D-13  0.20701417D-04  0.69500992D-13
  0.16369552D+00  0.30516567D+00  0.51578374D+00  0.77539191D+00  0.95265855D+00
  0.80467244D+00  0.30349284D+00 -0.15020030D-02 -0.24818909D-03 -0.46468828D-03
 -0.79117156D-03 -0.12238221D-02 -0.16117307D-02 -0.16746914D-02 -0.10641912D-02
  0.71319620D-03  0.14033974D-01 -0.43275262D-03  0.18364301D-04 -0.30746558D-03
 -0.28826853D-03 -0.20526436D-03  0.86131442D-13  0.80753702D-13  0.57501446D-13
  0.10907281D-03  0.10226269D-03  0.72817128D-04 -0.23808726D-03 -0.10037294D-12
  0.48671249D-05 -0.73553528D-04 -0.38919660D-12  0.40472284D-04 -0.18053610D-05
  0.27229701D-13  0.22433489D-05  0.23879337D-03 -0.36077116D-03  0.12197779D-03
 -0.63194412D-14 -0.16154391D-03 -0.42816546D-13 -0.51546374D-04  0.10802838D-03
 -0.56482003D-04  0.24080625D-13  0.71803021D-03  0.71728391D-13  0.31184344D-04
 -0.65342775D-05 -0.24650066D-04  0.18307238D-13  0.41390139D-04  0.25878577D-13
 -0.80402316D-04 -0.12104572D-13 -0.12121218D-03 -0.19326353D-03  0.59061865D-14
  0.42490343D-03  0.43447048D-03  0.30407530D-13 -0.61266880D-04  0.41391637D-13
 -0.62978165D-04  0.11225433D-13  0.12287438D-03  0.10040972D-03 -0.16269077D-13
 -0.38932456D-03  0.88524774D-04 -0.17407220D-13  0.20701417D-04 -0.66628697D-13
  0.45156607D-04  0.81441801D-04  0.12008589D-03  0.25969981D-03 -0.18076271D-03
 -0.14076948D-06  0.17190660D-13  0.14925444D-03 -0.20764422D-03 -0.68448835D-13
  0.52595494D-03  0.30616647D-03 -0.59866586D-14  0.72354252D-05 -0.20690977D-04
  0.11518192D-03 -0.35218065D-03  0.23699872D-03  0.20636863D-13 -0.18422617D-13
  0.23960966D-03  0.44924887D-04 -0.58925359D-04  0.14000472D-04  0.17623916D-14
  0.33139712D-15 -0.45126670D-05  0.31690371D-04  0.57154889D-04  0.84274851D-04
  0.72966998D-03  0.27447582D-03 -0.31313557D-05  0.17253418D-13  0.11910541D-03
  0.23105216D-03 -0.93969443D-13 -0.23015273D-03 -0.60429045D-04 -0.54315193D-13
  0.40898374D-05 -0.10682176D-04  0.12830775D-03  0.61121920D-04 -0.18942967D-03
  0.10430920D-12  0.38751735D-13 -0.35660615D-03  0.38946154D-04 -0.42061306D-04
  0.31151515D-05 -0.78702451D-14  0.19678528D-13 -0.12021331D-04  0.45156607D-04
  0.81441801D-04  0.12008589D-03  0.25969981D-03 -0.18076272D-03 -0.14076942D-06
  0.16910184D-13 -0.14925444D-03 -0.20764422D-03 -0.67856994D-13 -0.52595494D-03
  0.30616647D-03 -0.80021764D-14 -0.72354257D-05 -0.20690977D-04  0.11518192D-03
 -0.35218065D-03  0.23699872D-03 -0.21975959D-13 -0.18040033D-13 -0.23960966D-03
  0.44924887D-04 -0.58925359D-04  0.14000472D-04 -0.17649808D-14  0.16288202D-14
  0.45126671D-05  0.31690371D-04  0.57154889D-04  0.84274851D-04  0.72966998D-03
  0.27447582D-03 -0.31313557D-05  0.18089065D-13 -0.11910542D-03  0.23105216D-03
 -0.95709923D-13  0.23015273D-03 -0.60429046D-04 -0.52419132D-13 -0.40898374D-05
 -0.10682176D-04  0.12830775D-03  0.61121920D-04 -0.18942967D-03 -0.10388309D-12
  0.38555612D-13  0.35660615D-03  0.38946154D-04 -0.42061306D-04  0.31151515D-05
  0.67582796D-14  0.20090517D-13  0.12021331D-04  0.45156607D-04  0.81441801D-04
  0.12008589D-03  0.25969981D-03 -0.18076272D-03 -0.14076908D-06 -0.14925444D-03
 -0.24691993D-13  0.20764422D-03 -0.52595494D-03  0.68789904D-13 -0.30616647D-03
 -0.72354261D-05  0.15280717D-13  0.20690976D-04 -0.35218065D-03  0.11518192D-03
  0.23699872D-03  0.75656982D-14  0.23960966D-03 -0.15019256D-13 -0.58925359D-04
  0.44924887D-04  0.14000472D-04  0.43292723D-14 -0.45126671D-05 -0.74542008D-14
  0.31690371D-04  0.57154889D-04  0.84274851D-04  0.72966998D-03  0.27447581D-03
 -0.31313553D-05 -0.11910542D-03 -0.92738389D-14 -0.23105216D-03  0.23015273D-03
  0.48181042D-13  0.60429047D-04 -0.40898385D-05  0.58479372D-13  0.10682176D-04
  0.61121920D-04  0.12830775D-03 -0.18942967D-03  0.73475456D-13 -0.35660615D-03
  0.10256405D-13 -0.42061306D-04  0.38946154D-04  0.31151516D-05 -0.91521351D-14
 -0.12021331D-04  0.13608466D-13  0.45156607D-04  0.81441801D-04  0.12008589D-03
  0.25969981D-03 -0.18076272D-03 -0.14076903D-06  0.14925444D-03 -0.22909859D-13
  0.20764422D-03  0.52595494D-03  0.64732493D-13 -0.30616647D-03  0.72354266D-05
  0.16807527D-13  0.20690976D-04 -0.35218065D-03  0.11518192D-03  0.23699872D-03
 -0.46518150D-14 -0.23960966D-03 -0.14989944D-13 -0.58925359D-04  0.44924887D-04
  0.14000472D-04 -0.35864885D-14  0.45126672D-05 -0.66354914D-14  0.31690371D-04
  0.57154889D-04  0.84274851D-04  0.72966999D-03  0.27447582D-03 -0.31313553D-05
  0.11910542D-03 -0.72210343D-14 -0.23105216D-03 -0.23015274D-03  0.45719370D-13
  0.60429048D-04  0.40898384D-05  0.54557832D-13  0.10682177D-04  0.61121920D-04
  0.12830775D-03 -0.18942967D-03 -0.71656868D-13  0.35660615D-03  0.99312872D-14
 -0.42061306D-04  0.38946154D-04  0.31151516D-05  0.93970721D-14  0.12021331D-04
  0.13171717D-13
MO    2     MO 0.0        OCC NO =    2.0000000  ORB. ENERGY =  -11.217394
 -0.70587072D-13 -0.13159035D-12 -0.22241088D-12 -0.33435640D-12 -0.41079547D-12
 -0.34698244D-12 -0.13086901D-12  0.64767804D-15  0.53946547D-13  0.10100496D-12
  0.17196958D-12  0.26601080D-12  0.35032686D-12  0.36401205D-12  0.23131332D-12
 -0.15502081D-12 -0.46759060D-12  0.13791066D-10 -0.39062769D-11 -0.56671490D-03
 -0.53133124D-03 -0.37833949D-03  0.68515961D-13  0.64238069D-13  0.45741332D-13
  0.31185273D-13  0.29238176D-13  0.20819323D-13 -0.66126839D-03  0.16297502D-12
  0.11749782D-12 -0.54749539D-03 -0.44038890D-11 -0.10659991D-11 -0.12401627D-04
  0.19790262D-12  0.46296844D-13 -0.83386226D-13 -0.52407908D-13  0.13579413D-12
  0.66470116D-03  0.76076532D-04 -0.88408159D-13 -0.22395527D-12  0.18768473D-12
  0.36270538D-13 -0.38473510D-03 -0.36703341D-04 -0.78964955D-13 -0.81744771D-14
  0.46138831D-12 -0.45321383D-12  0.26375179D-04  0.31569333D-04  0.19224363D-12
  0.89509870D-04 -0.53498440D-13  0.83383884D-13  0.89593836D-04 -0.11092688D-12
 -0.12114408D-12 -0.35812345D-03  0.27142220D-12 -0.12900757D-12  0.24992537D-03
  0.74771740D-05  0.56901611D-14  0.49132428D-13  0.19549890D-03 -0.17689648D-12
 -0.14854786D-13 -0.21793042D-03  0.15982600D-12 -0.13254250D-12  0.79870826D-05
  0.20369903D-11  0.37974131D-11  0.64182971D-11  0.96488029D-11  0.11854669D-10
  0.10013163D-10  0.37765968D-11 -0.18690588D-13  0.45392783D-13  0.84989613D-13
  0.14470209D-12  0.22383213D-12  0.29477904D-12  0.30629430D-12  0.19463628D-12
 -0.13044071D-12 -0.25903659D-12  0.13500660D-10 -0.40588167D-11 -0.56671490D-03
 -0.53133124D-03 -0.37833949D-03 -0.73452487D-13 -0.68866375D-13 -0.49036962D-13
  0.27650047D-13  0.25923677D-13  0.18459202D-13 -0.66126839D-03 -0.13054870D-12
  0.12900394D-12 -0.54749539D-03  0.45038204D-11 -0.10127111D-11 -0.12401627D-04
 -0.20810566D-12  0.46284406D-13 -0.91933996D-13 -0.47208326D-13  0.13914232D-12
 -0.66470116D-03  0.76076532D-04  0.85853135D-13 -0.20290640D-12  0.17299283D-12
  0.29913566D-13  0.38473510D-03 -0.36703341D-04  0.36013649D-13 -0.39107140D-14
  0.46624765D-12 -0.46233694D-12 -0.26375179D-04  0.31569333D-04 -0.21854367D-12
  0.89509870D-04  0.52746216D-13  0.83983791D-13  0.89593836D-04  0.10955572D-12
 -0.12307019D-12 -0.35812345D-03 -0.26779437D-12 -0.12888118D-12 -0.24992537D-03
  0.74771740D-05 -0.71546434D-14  0.42487452D-13  0.19549890D-03  0.16523206D-12
 -0.19856413D-13 -0.21793042D-03 -0.14376813D-12 -0.10760594D-12 -0.79870826D-05
  0.23167284D+00  0.43189084D+00  0.72997160D+00  0.10973864D+01  0.13482660D+01
  0.11388262D+01  0.42952334D+00 -0.21257350D-02 -0.44158046D-03 -0.82677795D-03
 -0.14076602D-02 -0.21774363D-02 -0.28676070D-02 -0.29796273D-02 -0.18934194D-02
  0.12689257D-02  0.20122497D-01 -0.39972503D-02 -0.14018415D-03  0.42170605D-04
  0.39537623D-04  0.28153143D-04 -0.23441640D-14 -0.21978027D-14 -0.15649665D-14
  0.36627897D-05  0.34340981D-05  0.24452825D-05  0.94661300D-03 -0.40239581D-14
  0.14032758D-03  0.12394424D-03 -0.61966799D-14 -0.43932795D-03  0.21664607D-06
 -0.26785577D-14 -0.17246413D-05  0.50777332D-03 -0.50561123D-03 -0.21620891D-05
 -0.93511358D-15 -0.45398335D-04  0.29731226D-14 -0.30612277D-03  0.35339744D-03
 -0.47274665D-04 -0.42466887D-14  0.40156587D-03 -0.38520095D-14 -0.13517079D-04
 -0.17127303D-04  0.30644383D-04 -0.25956374D-14 -0.20266548D-04 -0.21949876D-14
 -0.81354679D-04  0.17825984D-14 -0.28215844D-03  0.68383791D-03 -0.49444085D-14
  0.69327711D-03 -0.43977387D-03 -0.40338652D-15  0.15319822D-03  0.41289300D-15
 -0.43735828D-04 -0.13227323D-15  0.12496749D-03 -0.29715345D-03  0.26841382D-14
 -0.43572097D-03  0.42836094D-03 -0.22873185D-14  0.60818494D-04 -0.45945593D-14
 -0.23167284D+00 -0.43189084D+00 -0.72997160D+00 -0.10973864D+01 -0.13482660D+01
 -0.11388262D+01 -0.42952334D+00  0.21257350D-02  0.44158046D-03  0.82677795D-03
  0.14076602D-02  0.21774363D-02  0.28676070D-02  0.29796273D-02  0.18934194D-02
 -0.12689257D-02 -0.20122497D-01  0.39972503D-02  0.14018416D-03  0.42170605D-04
  0.39537623D-04  0.28153143D-04 -0.16407556D-14 -0.15383126D-14 -0.10953702D-14
 -0.36627896D-05 -0.34340981D-05 -0.24452824D-05  0.94661300D-03 -0.68586966D-14
 -0.14032758D-03  0.12394425D-03 -0.57522853D-14  0.43932795D-03  0.21664567D-06
 -0.18051653D-14  0.17246413D-05 -0.50777332D-03  0.50561123D-03  0.21620889D-05
  0.18616349D-14 -0.45398335D-04  0.29842922D-14  0.30612277D-03 -0.35339744D-03
  0.47274665D-04  0.72697076D-14  0.40156587D-03 -0.49550499D-14  0.13517079D-04
  0.17127303D-04 -0.30644382D-04  0.26024387D-14 -0.20266547D-04 -0.25511631D-14
 -0.81354679D-04  0.16921366D-14  0.28215844D-03  0.68383791D-03 -0.54216559D-14
 -0.69327711D-03 -0.43977387D-03  0.34524602D-15 -0.15319822D-03 -0.10203328D-14
 -0.43735828D-04 -0.38745025D-15 -0.12496749D-03 -0.29715345D-03  0.24314722D-14
  0.43572097D-03  0.42836094D-03 -0.12691215D-14 -0.60818493D-04  0.50548365D-14
  0.25624607D-13  0.46215034D-13  0.68144040D-13 -0.16715134D-11  0.43629370D-12
 -0.79056827D-13  0.56192724D-04 -0.10248432D-13 -0.11212412D-12  0.13668540D-03
  0.68146226D-12 -0.24286885D-12  0.26167517D-04 -0.17018205D-12 -0.45524550D-12
  0.58054434D-13 -0.84914266D-13  0.26859832D-13 -0.42318530D-03 -0.78994337D-05
  0.13663150D-12  0.34474270D-13 -0.24593546D-13 -0.98807241D-14 -0.45567545D-04
 -0.67640442D-04  0.15014942D-13  0.25880283D-13  0.46676156D-13  0.68823965D-13
 -0.14601544D-11  0.30259908D-11 -0.67526620D-13 -0.63278914D-04 -0.86535642D-13
  0.64010363D-13  0.49468197D-03  0.31565755D-12  0.64091963D-12  0.39223093D-04
 -0.30978974D-12  0.67090493D-13  0.78654668D-13  0.59178337D-13 -0.13783301D-12
 -0.26013436D-03 -0.41064565D-03 -0.13018935D-12  0.23254795D-13  0.19686314D-13
 -0.42941109D-13 -0.50537543D-04 -0.56074961D-04 -0.31571967D-14  0.24578701D-13
  0.44328700D-13  0.65362642D-13 -0.14832310D-11  0.74697096D-12 -0.85641563D-13
  0.56192724D-04  0.18457175D-13 -0.10395066D-12  0.13668540D-03 -0.63259857D-12
 -0.22019808D-12  0.26167517D-04  0.21107583D-12 -0.44978008D-12  0.54750596D-13
 -0.79108879D-13  0.24358283D-13  0.42318530D-03 -0.78994337D-05 -0.12455779D-12
  0.37901018D-13 -0.26025121D-13 -0.11875897D-13  0.45567545D-04 -0.67640442D-04
 -0.19297262D-13  0.25775221D-13  0.46486672D-13  0.68544571D-13 -0.13831258D-11
  0.29997239D-11 -0.69714017D-13 -0.63278914D-04  0.90408369D-13  0.58816115D-13
  0.49468197D-03 -0.30734757D-12  0.63465940D-12  0.39223093D-04  0.31923466D-12
  0.90198765D-13  0.82349942D-13  0.55965786D-13 -0.13831573D-12  0.26013436D-03
 -0.41064565D-03  0.12643235D-12  0.27043605D-13  0.19821377D-13 -0.46864982D-13
  0.50537543D-04 -0.56074961D-04  0.41531001D-14  0.34544075D-04  0.62301662D-04
  0.91863764D-04  0.26093751D-02  0.99753935D-03  0.74500246D-06 -0.26259587D-03
  0.13222721D-14  0.11652016D-03  0.59107647D-03 -0.37049133D-14 -0.14866757D-03
  0.12696376D-03 -0.26704574D-14 -0.11403166D-03 -0.12782602D-03  0.15256960D-03
 -0.24743578D-04  0.25739960D-14  0.44078167D-03  0.18101598D-14 -0.33307628D-04
  0.36036157D-04 -0.27285289D-05 -0.13528261D-14  0.39860733D-04  0.18449265D-14
  0.32181020D-04  0.58039794D-04  0.85579643D-04  0.14858535D-02 -0.20245007D-03
 -0.46287570D-05 -0.12926572D-03 -0.18722580D-14 -0.31579918D-03 -0.85520796D-05
  0.46358008D-14  0.25983427D-03 -0.52047812D-04 -0.35164623D-14 -0.10170116D-04
 -0.39191686D-04  0.20457300D-03 -0.16538131D-03  0.26732039D-15 -0.38862106D-03
  0.22210803D-14 -0.19196054D-04  0.48240658D-04 -0.29044604D-04 -0.41468024D-15
  0.16818726D-04 -0.39556686D-15 -0.34544075D-04 -0.62301662D-04 -0.91863764D-04
 -0.26093751D-02 -0.99753935D-03 -0.74500230D-06 -0.26259587D-03  0.18375164D-14
 -0.11652016D-03  0.59107647D-03 -0.49921710D-14  0.14866757D-03  0.12696376D-03
 -0.27621507D-14  0.11403166D-03  0.12782602D-03 -0.15256960D-03  0.24743578D-04
 -0.21949507D-14  0.44078167D-03  0.16612445D-14  0.33307628D-04 -0.36036157D-04