 Molden2AIM, Version 4.0.0 (06/02/2016)           Time: Wed Jun 27 23:00:21 2018
GAUSSIAN             19 MOL ORBITALS    591 PRIMITIVES       13 NUCLEI
  C    1    (CENTRE  1)   0.00000000  0.00000000  0.00000000  CHARGE =  6.0
  C    2    (CENTRE  2)   0.00000000  1.44199142  2.39475165  CHARGE =  6.0
  C    3    (CENTRE  3)   0.00000000 -1.44199142  2.39475165  CHARGE =  6.0
  C    4    (CENTRE  4)   1.44199142  0.00000000 -2.39475165  CHARGE =  6.0
  C    5    (CENTRE  5)  -1.44199142  0.00000000 -2.39475165  CHARGE =  6.0
  H    6    (CENTRE  6)  -1.73652225  2.39408458  2.96539981  CHARGE =  1.0
  H    7    (CENTRE  7)   1.73652225  2.39408458  2.96539981  CHARGE =  1.0
  H    8    (CENTRE  8)  -1.73652225 -2.39408458  2.96539981  CHARGE =  1.0
  H    9    (CENTRE  9)   1.73652225 -2.39408458  2.96539981  CHARGE =  1.0
  H   10    (CENTRE 10)   2.39408458 -1.73652225 -2.96539981  CHARGE =  1.0
  H   11    (CENTRE 11)   2.39408458  1.73652225 -2.96539981  CHARGE =  1.0
  H   12    (CENTRE 12)  -2.39408458 -1.73652225 -2.96539981  CHARGE =  1.0
  H   13    (CENTRE 13)  -2.39408458  1.73652225 -2.96539981  CHARGE =  1.0
CENTRE ASSIGNMENTS    1  1  1  1  1  1  1  1  1  1  1  1  1  1  1  1  1  1  1  1
CENTRE ASSIGNMENTS    1  1  1  1  1  1  1  1  1  1  1  1  1  1  1  1  1  1  1  1
CENTRE ASSIGNMENTS    1  1  1  1  1  1  1  1  1  1  1  1  1  1  1  1  1  1  1  1
CENTRE ASSIGNMENTS    1  1  1  1  1  1  1  1  1  1  1  1  1  1  1  2  2  2  2  2
CENTRE ASSIGNMENTS    2  2  2  2  2  2  2  2  2  2  2  2  2  2  2  2  2  2  2  2
CENTRE ASSIGNMENTS    2  2  2  2  2  2  2  2  2  2  2  2  2  2  2  2  2  2  2  2
CENTRE ASSIGNMENTS    2  2  2  2  2  2  2  2  2  2  2  2  2  2  2  2  2  2  2  2
CENTRE ASSIGNMENTS    2  2  2  2  2  2  2  2  2  2  3  3  3  3  3  3  3  3  3  3
CENTRE ASSIGNMENTS    3  3  3  3  3  3  3  3  3  3  3  3  3  3  3  3  3  3  3  3
CENTRE ASSIGNMENTS    3  3  3  3  3  3  3  3  3  3  3  3  3  3  3  3  3  3  3  3
CENTRE ASSIGNMENTS    3  3  3  3  3  3  3  3  3  3  3  3  3  3  3  3  3  3  3  3
CENTRE ASSIGNMENTS    3  3  3  3  3  4  4  4  4  4  4  4  4  4  4  4  4  4  4  4
CENTRE ASSIGNMENTS    4  4  4  4  4  4  4  4  4  4  4  4  4  4  4  4  4  4  4  4
CENTRE ASSIGNMENTS    4  4  4  4  4  4  4  4  4  4  4  4  4  4  4  4  4  4  4  4
CENTRE ASSIGNMENTS    4  4  4  4  4  4  4  4  4  4  4  4  4  4  4  4  4  4  4  4
CENTRE ASSIGNMENTS    5  5  5  5  5  5  5  5  5  5  5  5  5  5  5  5  5  5  5  5
CENTRE ASSIGNMENTS    5  5  5  5  5  5  5  5  5  5  5  5  5  5  5  5  5  5  5  5
CENTRE ASSIGNMENTS    5  5  5  5  5  5  5  5  5  5  5  5  5  5  5  5  5  5  5  5
CENTRE ASSIGNMENTS    5  5  5  5  5  5  5  5  5  5  5  5  5  5  5  6  6  6  6  6
CENTRE ASSIGNMENTS    6  6  6  6  6  6  6  6  6  6  6  6  6  6  6  6  6  6  6  6
CENTRE ASSIGNMENTS    6  6  7  7  7  7  7  7  7  7  7  7  7  7  7  7  7  7  7  7
CENTRE ASSIGNMENTS    7  7  7  7  7  7  7  7  7  8  8  8  8  8  8  8  8  8  8  8
CENTRE ASSIGNMENTS    8  8  8  8  8  8  8  8  8  8  8  8  8  8  8  8  9  9  9  9
CENTRE ASSIGNMENTS    9  9  9  9  9  9  9  9  9  9  9  9  9  9  9  9  9  9  9  9
CENTRE ASSIGNMENTS    9  9  9 10 10 10 10 10 10 10 10 10 10 10 10 10 10 10 10 10
CENTRE ASSIGNMENTS   10 10 10 10 10 10 10 10 10 10 11 11 11 11 11 11 11 11 11 11
CENTRE ASSIGNMENTS   11 11 11 11 11 11 11 11 11 11 11 11 11 11 11 11 11 12 12 12
CENTRE ASSIGNMENTS   12 12 12 12 12 12 12 12 12 12 12 12 12 12 12 12 12 12 12 12
CENTRE ASSIGNMENTS   12 12 12 12 13 13 13 13 13 13 13 13 13 13 13 13 13 13 13 13
CENTRE ASSIGNMENTS   13 13 13 13 13 13 13 13 13 13 13
TYPE ASSIGNMENTS      1  1  1  1  1  1  1  1  1  1  1  1  1  1  1  1  1  1  1  2
TYPE ASSIGNMENTS      2  2  3  3  3  4  4  4  2  3  4  2  3  4  2  3  4  5  6  7
TYPE ASSIGNMENTS      8  9 10  5  6  7  8  9 10  5  6  7  8  9 10 11 12 13 17 14
TYPE ASSIGNMENTS     15 18 19 16 20 11 12 13 17 14 15 18 19 16 20  1  1  1  1  1
TYPE ASSIGNMENTS      1  1  1  1  1  1  1  1  1  1  1  1  1  1  2  2  2  3  3  3
TYPE ASSIGNMENTS      4  4  4  2  3  4  2  3  4  2  3  4  5  6  7  8  9 10  5  6
TYPE ASSIGNMENTS      7  8  9 10  5  6  7  8  9 10 11 12 13 17 14 15 18 19 16 20
TYPE ASSIGNMENTS     11 12 13 17 14 15 18 19 16 20  1  1  1  1  1  1  1  1  1  1
TYPE ASSIGNMENTS      1  1  1  1  1  1  1  1  1  2  2  2  3  3  3  4  4  4  2  3
TYPE ASSIGNMENTS      4  2  3  4  2  3  4  5  6  7  8  9 10  5  6  7  8  9 10  5
TYPE ASSIGNMENTS      6  7  8  9 10 11 12 13 17 14 15 18 19 16 20 11 12 13 17 14
TYPE ASSIGNMENTS     15 18 19 16 20  1  1  1  1  1  1  1  1  1  1  1  1  1  1  1
TYPE ASSIGNMENTS      1  1  1  1  2  2  2  3  3  3  4  4  4  2  3  4  2  3  4  2
TYPE ASSIGNMENTS      3  4  5  6  7  8  9 10  5  6  7  8  9 10  5  6  7  8  9 10
TYPE ASSIGNMENTS     11 12 13 17 14 15 18 19 16 20 11 12 13 17 14 15 18 19 16 20
TYPE ASSIGNMENTS      1  1  1  1  1  1  1  1  1  1  1  1  1  1  1  1  1  1  1  2
TYPE ASSIGNMENTS      2  2  3  3  3  4  4  4  2  3  4  2  3  4  2  3  4  5  6  7
TYPE ASSIGNMENTS      8  9 10  5  6  7  8  9 10  5  6  7  8  9 10 11 12 13 17 14
TYPE ASSIGNMENTS     15 18 19 16 20 11 12 13 17 14 15 18 19 16 20  1  1  1  1  1
TYPE ASSIGNMENTS      1  2  3  4  2  3  4  2  3  4  5  6  7  8  9 10  5  6  7  8
TYPE ASSIGNMENTS      9 10  1  1  1  1  1  1  2  3  4  2  3  4  2  3  4  5  6  7
TYPE ASSIGNMENTS      8  9 10  5  6  7  8  9 10  1  1  1  1  1  1  2  3  4  2  3
TYPE ASSIGNMENTS      4  2  3  4  5  6  7  8  9 10  5  6  7  8  9 10  1  1  1  1
TYPE ASSIGNMENTS      1  1  2  3  4  2  3  4  2  3  4  5  6  7  8  9 10  5  6  7
TYPE ASSIGNMENTS      8  9 10  1  1  1  1  1  1  2  3  4  2  3  4  2  3  4  5  6
TYPE ASSIGNMENTS      7  8  9 10  5  6  7  8  9 10  1  1  1  1  1  1  2  3  4  2
TYPE ASSIGNMENTS      3  4  2  3  4  5  6  7  8  9 10  5  6  7  8  9 10  1  1  1
TYPE ASSIGNMENTS      1  1  1  2  3  4  2  3  4  2  3  4  5  6  7  8  9 10  5  6
TYPE ASSIGNMENTS      7  8  9 10  1  1  1  1  1  1  2  3  4  2  3  4  2  3  4  5
TYPE ASSIGNMENTS      6  7  8  9 10  5  6  7  8  9 10
EXPONENTS  0.8236000D+04 0.1235000D+04 0.2808000D+03 0.7927000D+02 0.2559000D+02
EXPONENTS  0.8997000D+01 0.3319000D+01 0.3643000D+00 0.8236000D+04 0.1235000D+04
EXPONENTS  0.2808000D+03 0.7927000D+02 0.2559000D+02 0.8997000D+01 0.3319000D+01
EXPONENTS  0.3643000D+00 0.9059000D+00 0.1285000D+00 0.4402000D-01 0.1871000D+02
EXPONENTS  0.4133000D+01 0.1200000D+01 0.1871000D+02 0.4133000D+01 0.1200000D+01
EXPONENTS  0.1871000D+02 0.4133000D+01 0.1200000D+01 0.3827000D+00 0.3827000D+00
EXPONENTS  0.3827000D+00 0.1209000D+00 0.1209000D+00 0.1209000D+00 0.3569000D-01
EXPONENTS  0.3569000D-01 0.3569000D-01 0.1097000D+01 0.1097000D+01 0.1097000D+01
EXPONENTS  0.1097000D+01 0.1097000D+01 0.1097000D+01 0.3180000D+00 0.3180000D+00
EXPONENTS  0.3180000D+00 0.3180000D+00 0.3180000D+00 0.3180000D+00 0.1000000D+00
EXPONENTS  0.1000000D+00 0.1000000D+00 0.1000000D+00 0.1000000D+00 0.1000000D+00
EXPONENTS  0.7610000D+00 0.7610000D+00 0.7610000D+00 0.7610000D+00 0.7610000D+00
EXPONENTS  0.7610000D+00 0.7610000D+00 0.7610000D+00 0.7610000D+00 0.7610000D+00
EXPONENTS  0.2680000D+00 0.2680000D+00 0.2680000D+00 0.2680000D+00 0.2680000D+00
EXPONENTS  0.2680000D+00 0.2680000D+00 0.2680000D+00 0.2680000D+00 0.2680000D+00
EXPONENTS  0.8236000D+04 0.1235000D+04 0.2808000D+03 0.7927000D+02 0.2559000D+02
EXPONENTS  0.8997000D+01 0.3319000D+01 0.3643000D+00 0.8236000D+04 0.1235000D+04
EXPONENTS  0.2808000D+03 0.7927000D+02 0.2559000D+02 0.8997000D+01 0.3319000D+01
EXPONENTS  0.3643000D+00 0.9059000D+00 0.1285000D+00 0.4402000D-01 0.1871000D+02
EXPONENTS  0.4133000D+01 0.1200000D+01 0.1871000D+02 0.4133000D+01 0.1200000D+01
EXPONENTS  0.1871000D+02 0.4133000D+01 0.1200000D+01 0.3827000D+00 0.3827000D+00
EXPONENTS  0.3827000D+00 0.1209000D+00 0.1209000D+00 0.1209000D+00 0.3569000D-01
EXPONENTS  0.3569000D-01 0.3569000D-01 0.1097000D+01 0.1097000D+01 0.1097000D+01
EXPONENTS  0.1097000D+01 0.1097000D+01 0.1097000D+01 0.3180000D+00 0.3180000D+00
EXPONENTS  0.3180000D+00 0.3180000D+00 0.3180000D+00 0.3180000D+00 0.1000000D+00
EXPONENTS  0.1000000D+00 0.1000000D+00 0.1000000D+00 0.1000000D+00 0.1000000D+00
EXPONENTS  0.7610000D+00 0.7610000D+00 0.7610000D+00 0.7610000D+00 0.7610000D+00
EXPONENTS  0.7610000D+00 0.7610000D+00 0.7610000D+00 0.7610000D+00 0.7610000D+00
EXPONENTS  0.2680000D+00 0.2680000D+00 0.2680000D+00 0.2680000D+00 0.2680000D+00
EXPONENTS  0.2680000D+00 0.2680000D+00 0.2680000D+00 0.2680000D+00 0.2680000D+00
EXPONENTS  0.8236000D+04 0.1235000D+04 0.2808000D+03 0.7927000D+02 0.2559000D+02
EXPONENTS  0.8997000D+01 0.3319000D+01 0.3643000D+00 0.8236000D+04 0.1235000D+04
EXPONENTS  0.2808000D+03 0.7927000D+02 0.2559000D+02 0.8997000D+01 0.3319000D+01
EXPONENTS  0.3643000D+00 0.9059000D+00 0.1285000D+00 0.4402000D-01 0.1871000D+02
EXPONENTS  0.4133000D+01 0.1200000D+01 0.1871000D+02 0.4133000D+01 0.1200000D+01
EXPONENTS  0.1871000D+02 0.4133000D+01 0.1200000D+01 0.3827000D+00 0.3827000D+00
EXPONENTS  0.3827000D+00 0.1209000D+00 0.1209000D+00 0.1209000D+00 0.3569000D-01
EXPONENTS  0.3569000D-01 0.3569000D-01 0.1097000D+01 0.1097000D+01 0.1097000D+01
EXPONENTS  0.1097000D+01 0.1097000D+01 0.1097000D+01 0.3180000D+00 0.3180000D+00
EXPONENTS  0.3180000D+00 0.3180000D+00 0.3180000D+00 0.3180000D+00 0.1000000D+00
EXPONENTS  0.1000000D+00 0.1000000D+00 0.1000000D+00 0.1000000D+00 0.1000000D+00
EXPONENTS  0.7610000D+00 0.7610000D+00 0.7610000D+00 0.7610000D+00 0.7610000D+00
EXPONENTS  0.7610000D+00 0.7610000D+00 0.7610000D+00 0.7610000D+00 0.7610000D+00
EXPONENTS  0.2680000D+00 0.2680000D+00 0.2680000D+00 0.2680000D+00 0.2680000D+00
EXPONENTS  0.2680000D+00 0.2680000D+00 0.2680000D+00 0.2680000D+00 0.2680000D+00
EXPONENTS  0.8236000D+04 0.1235000D+04 0.2808000D+03 0.7927000D+02 0.2559000D+02
EXPONENTS  0.8997000D+01 0.3319000D+01 0.3643000D+00 0.8236000D+04 0.1235000D+04
EXPONENTS  0.2808000D+03 0.7927000D+02 0.2559000D+02 0.8997000D+01 0.3319000D+01
EXPONENTS  0.3643000D+00 0.9059000D+00 0.1285000D+00 0.4402000D-01 0.1871000D+02
EXPONENTS  0.4133000D+01 0.1200000D+01 0.1871000D+02 0.4133000D+01 0.1200000D+01
EXPONENTS  0.1871000D+02 0.4133000D+01 0.1200000D+01 0.3827000D+00 0.3827000D+00
EXPONENTS  0.3827000D+00 0.1209000D+00 0.1209000D+00 0.1209000D+00 0.3569000D-01
EXPONENTS  0.3569000D-01 0.3569000D-01 0.1097000D+01 0.1097000D+01 0.1097000D+01
EXPONENTS  0.1097000D+01 0.1097000D+01 0.1097000D+01 0.3180000D+00 0.3180000D+00
EXPONENTS  0.3180000D+00 0.3180000D+00 0.3180000D+00 0.3180000D+00 0.1000000D+00
EXPONENTS  0.1000000D+00 0.1000000D+00 0.1000000D+00 0.1000000D+00 0.1000000D+00
EXPONENTS  0.7610000D+00 0.7610000D+00 0.7610000D+00 0.7610000D+00 0.7610000D+00
EXPONENTS  0.7610000D+00 0.7610000D+00 0.7610000D+00 0.7610000D+00 0.7610000D+00
EXPONENTS  0.2680000D+00 0.2680000D+00 0.2680000D+00 0.2680000D+00 0.2680000D+00
EXPONENTS  0.2680000D+00 0.2680000D+00 0.2680000D+00 0.2680000D+00 0.2680000D+00
EXPONENTS  0.8236000D+04 0.1235000D+04 0.2808000D+03 0.7927000D+02 0.2559000D+02
EXPONENTS  0.8997000D+01 0.3319000D+01 0.3643000D+00 0.8236000D+04 0.1235000D+04
EXPONENTS  0.2808000D+03 0.7927000D+02 0.2559000D+02 0.8997000D+01 0.3319000D+01
EXPONENTS  0.3643000D+00 0.9059000D+00 0.1285000D+00 0.4402000D-01 0.1871000D+02
EXPONENTS  0.4133000D+01 0.1200000D+01 0.1871000D+02 0.4133000D+01 0.1200000D+01
EXPONENTS  0.1871000D+02 0.4133000D+01 0.1200000D+01 0.3827000D+00 0.3827000D+00
EXPONENTS  0.3827000D+00 0.1209000D+00 0.1209000D+00 0.1209000D+00 0.3569000D-01
EXPONENTS  0.3569000D-01 0.3569000D-01 0.1097000D+01 0.1097000D+01 0.1097000D+01
EXPONENTS  0.1097000D+01 0.1097000D+01 0.1097000D+01 0.3180000D+00 0.3180000D+00
EXPONENTS  0.3180000D+00 0.3180000D+00 0.3180000D+00 0.3180000D+00 0.1000000D+00
EXPONENTS  0.1000000D+00 0.1000000D+00 0.1000000D+00 0.1000000D+00 0.1000000D+00
EXPONENTS  0.7610000D+00 0.7610000D+00 0.7610000D+00 0.7610000D+00 0.7610000D+00
EXPONENTS  0.7610000D+00 0.7610000D+00 0.7610000D+00 0.7610000D+00 0.7610000D+00
EXPONENTS  0.2680000D+00 0.2680000D+00 0.2680000D+00 0.2680000D+00 0.2680000D+00
EXPONENTS  0.2680000D+00 0.2680000D+00 0.2680000D+00 0.2680000D+00 0.2680000D+00
EXPONENTS  0.3387000D+02 0.5095000D+01 0.1159000D+01 0.3258000D+00 0.1027000D+00
EXPONENTS  0.2526000D-01 0.1407000D+01 0.1407000D+01 0.1407000D+01 0.3880000D+00
EXPONENTS  0.3880000D+00 0.3880000D+00 0.1020000D+00 0.1020000D+00 0.1020000D+00
EXPONENTS  0.1057000D+01 0.1057000D+01 0.1057000D+01 0.1057000D+01 0.1057000D+01
EXPONENTS  0.1057000D+01 0.2470000D+00 0.2470000D+00 0.2470000D+00 0.2470000D+00
EXPONENTS  0.2470000D+00 0.2470000D+00 0.3387000D+02 0.5095000D+01 0.1159000D+01
EXPONENTS  0.3258000D+00 0.1027000D+00 0.2526000D-01 0.1407000D+01 0.1407000D+01
EXPONENTS  0.1407000D+01 0.3880000D+00 0.3880000D+00 0.3880000D+00 0.1020000D+00
EXPONENTS  0.1020000D+00 0.1020000D+00 0.1057000D+01 0.1057000D+01 0.1057000D+01
EXPONENTS  0.1057000D+01 0.1057000D+01 0.1057000D+01 0.2470000D+00 0.2470000D+00
EXPONENTS  0.2470000D+00 0.2470000D+00 0.2470000D+00 0.2470000D+00 0.3387000D+02
EXPONENTS  0.5095000D+01 0.1159000D+01 0.3258000D+00 0.1027000D+00 0.2526000D-01
EXPONENTS  0.1407000D+01 0.1407000D+01 0.1407000D+01 0.3880000D+00 0.3880000D+00
EXPONENTS  0.3880000D+00 0.1020000D+00 0.1020000D+00 0.1020000D+00 0.1057000D+01
EXPONENTS  0.1057000D+01 0.1057000D+01 0.1057000D+01 0.1057000D+01 0.1057000D+01
EXPONENTS  0.2470000D+00 0.2470000D+00 0.2470000D+00 0.2470000D+00 0.2470000D+00
EXPONENTS  0.2470000D+00 0.3387000D+02 0.5095000D+01 0.1159000D+01 0.3258000D+00
EXPONENTS  0.1027000D+00 0.2526000D-01 0.1407000D+01 0.1407000D+01 0.1407000D+01
EXPONENTS  0.3880000D+00 0.3880000D+00 0.3880000D+00 0.1020000D+00 0.1020000D+00
EXPONENTS  0.1020000D+00 0.1057000D+01 0.1057000D+01 0.1057000D+01 0.1057000D+01
EXPONENTS  0.1057000D+01 0.1057000D+01 0.2470000D+00 0.2470000D+00 0.2470000D+00
EXPONENTS  0.2470000D+00 0.2470000D+00 0.2470000D+00 0.3387000D+02 0.5095000D+01
EXPONENTS  0.1159000D+01 0.3258000D+00 0.1027000D+00 0.2526000D-01 0.1407000D+01
EXPONENTS  0.1407000D+01 0.1407000D+01 0.3880000D+00 0.3880000D+00 0.3880000D+00
EXPONENTS  0.1020000D+00 0.1020000D+00 0.1020000D+00 0.1057000D+01 0.1057000D+01
EXPONENTS  0.1057000D+01 0.1057000D+01 0.1057000D+01 0.1057000D+01 0.2470000D+00
EXPONENTS  0.2470000D+00 0.2470000D+00 0.2470000D+00 0.2470000D+00 0.2470000D+00
EXPONENTS  0.3387000D+02 0.5095000D+01 0.1159000D+01 0.3258000D+00 0.1027000D+00
EXPONENTS  0.2526000D-01 0.1407000D+01 0.1407000D+01 0.1407000D+01 0.3880000D+00
EXPONENTS  0.3880000D+00 0.3880000D+00 0.1020000D+00 0.1020000D+00 0.1020000D+00
EXPONENTS  0.1057000D+01 0.1057000D+01 0.1057000D+01 0.1057000D+01 0.1057000D+01
EXPONENTS  0.1057000D+01 0.2470000D+00 0.2470000D+00 0.2470000D+00 0.2470000D+00
EXPONENTS  0.2470000D+00 0.2470000D+00 0.3387000D+02 0.5095000D+01 0.1159000D+01
EXPONENTS  0.3258000D+00 0.1027000D+00 0.2526000D-01 0.1407000D+01 0.1407000D+01
EXPONENTS  0.1407000D+01 0.3880000D+00 0.3880000D+00 0.3880000D+00 0.1020000D+00
EXPONENTS  0.1020000D+00 0.1020000D+00 0.1057000D+01 0.1057000D+01 0.1057000D+01
EXPONENTS  0.1057000D+01 0.1057000D+01 0.1057000D+01 0.2470000D+00 0.2470000D+00
EXPONENTS  0.2470000D+00 0.2470000D+00 0.2470000D+00 0.2470000D+00 0.3387000D+02
EXPONENTS  0.5095000D+01 0.1159000D+01 0.3258000D+00 0.1027000D+00 0.2526000D-01
EXPONENTS  0.1407000D+01 0.1407000D+01 0.1407000D+01 0.3880000D+00 0.3880000D+00
EXPONENTS  0.3880000D+00 0.1020000D+00 0.1020000D+00 0.1020000D+00 0.1057000D+01
EXPONENTS  0.1057000D+01 0.1057000D+01 0.1057000D+01 0.1057000D+01 0.1057000D+01
EXPONENTS  0.2470000D+00 0.2470000D+00 0.2470000D+00 0.2470000D+00 0.2470000D+00
EXPONENTS  0.2470000D+00
MO    1     MO 0.0        OCC NO =    2.0000000  ORB. ENERGY =  -11.234573
  0.32620856D+00  0.60812692D+00  0.10278416D+01  0.15451826D+01  0.18984354D+01
  0.16035322D+01  0.60479334D+00 -0.29931560D-02 -0.52554520D-03 -0.98398643D-03
 -0.16753211D-02 -0.25914670D-02 -0.34128708D-02 -0.35461914D-02 -0.22534455D-02
  0.15102067D-02  0.28396452D-01 -0.22080187D-02  0.76077514D-05 -0.11266648D-13
 -0.10563199D-13 -0.75216267D-14  0.29027872D-15  0.27215475D-15  0.19379040D-15
 -0.98381668D-15 -0.92239067D-15 -0.65679711D-15  0.58313176D-13  0.10951232D-13
 -0.31666243D-13  0.23499371D-12 -0.14286512D-13  0.42809585D-12 -0.25886092D-13
 -0.30103923D-13  0.44051860D-13 -0.90955883D-03 -0.90955883D-03  0.18191177D-02
  0.79512474D-14 -0.34161073D-14 -0.46967803D-14  0.33756532D-03  0.33756532D-03
 -0.67513065D-03  0.20836780D-14 -0.13579992D-12  0.40140471D-13  0.24001320D-04
  0.24001320D-04 -0.48002639D-04  0.39148447D-13 -0.12192300D-12 -0.19259544D-13
 -0.57212865D-14 -0.87532741D-15  0.37810741D-14 -0.21233897D-13 -0.37474499D-14
 -0.72140370D-03  0.38397757D-13  0.63734322D-14  0.72140370D-03 -0.18221697D-13
  0.67548397D-14  0.56303711D-14  0.81681899D-14  0.53438203D-14 -0.23724873D-17
  0.32031450D-03 -0.25608339D-13 -0.16888741D-13 -0.32031450D-03  0.47534808D-14
  0.14238359D-01  0.26543539D-01  0.44863257D-01  0.67444171D-01  0.82862956D-01
  0.69991013D-01  0.26398035D-01 -0.13064535D-03 -0.94770266D-04 -0.17743984D-03
 -0.30210651D-03 -0.46731283D-03 -0.61543456D-03 -0.63947593D-03 -0.40635825D-03
  0.27233185D-03  0.15012363D-02  0.65796465D-03  0.58522966D-05  0.18156501D-13
  0.17022874D-13  0.12121300D-13 -0.33239037D-03 -0.31163710D-03 -0.22190418D-03
 -0.43904270D-03 -0.41163044D-03 -0.29310539D-03 -0.67439221D-13 -0.35268257D-03
 -0.95121353D-03 -0.96175169D-13 -0.27330001D-04 -0.10762418D-03  0.73788447D-14
 -0.23239417D-05 -0.29505617D-05 -0.17107696D-03  0.22002140D-05  0.16887675D-03
  0.74126067D-14 -0.10315949D-13  0.52357249D-03  0.18365100D-04  0.11830044D-04
 -0.30195144D-04 -0.61369656D-13 -0.34743193D-13 -0.23704189D-03  0.15391945D-04
 -0.15912259D-04  0.52031385D-06 -0.42000113D-14 -0.58587834D-14 -0.79152790D-05
 -0.23305187D-14 -0.35756141D-04  0.17381124D-03 -0.37000116D-14 -0.24269689D-03
 -0.37342147D-03  0.10691568D-13  0.34996531D-03 -0.14801225D-03 -0.91578257D-14
 -0.99155419D-14 -0.34426228D-04  0.10869368D-04  0.14648187D-13  0.40911826D-04
 -0.91991931D-04  0.15098438D-13  0.62366857D-04  0.59383828D-04  0.17402644D-13
  0.14238359D-01  0.26543539D-01  0.44863257D-01  0.67444171D-01  0.82862956D-01
  0.69991013D-01  0.26398035D-01 -0.13064535D-03 -0.94770266D-04 -0.17743984D-03
 -0.30210651D-03 -0.46731283D-03 -0.61543456D-03 -0.63947593D-03 -0.40635825D-03
  0.27233185D-03  0.15012363D-02  0.65796465D-03  0.58522960D-05  0.23628677D-14
  0.22153386D-14  0.15774531D-14  0.33239037D-03  0.31163710D-03  0.22190418D-03
 -0.43904270D-03 -0.41163044D-03 -0.29310539D-03 -0.55446316D-15  0.35268257D-03
 -0.95121353D-03  0.45330718D-13  0.27330001D-04 -0.10762418D-03 -0.38299937D-14
  0.23239416D-05 -0.29505616D-05 -0.17107696D-03  0.22002140D-05  0.16887675D-03
 -0.71023515D-14  0.47873210D-14 -0.52357249D-03  0.18365100D-04  0.11830044D-04
 -0.30195144D-04 -0.67941992D-14 -0.26219921D-13  0.23704189D-03  0.15391945D-04
 -0.15912259D-04  0.52031386D-06  0.64903359D-13 -0.37836038D-13  0.79152790D-05
  0.31101185D-14  0.35756141D-04  0.17381124D-03 -0.13742287D-13  0.24269689D-03
 -0.37342147D-03  0.44119318D-14 -0.34996531D-03 -0.14801225D-03  0.43054543D-14
 -0.71845166D-14  0.34426228D-04  0.10869368D-04  0.14929417D-13 -0.40911826D-04
 -0.91991931D-04  0.66241333D-14 -0.62366857D-04  0.59383828D-04 -0.25628488D-13
  0.14238359D-01  0.26543539D-01  0.44863257D-01  0.67444171D-01  0.82862956D-01
  0.69991013D-01  0.26398035D-01 -0.13064535D-03 -0.94770266D-04 -0.17743984D-03
 -0.30210651D-03 -0.46731283D-03 -0.61543456D-03 -0.63947593D-03 -0.40635825D-03
  0.27233185D-03  0.15012363D-02  0.65796465D-03  0.58522969D-05 -0.33239037D-03
 -0.31163710D-03 -0.22190418D-03 -0.64691120D-14 -0.60652037D-14 -0.43187864D-14
  0.43904270D-03  0.41163044D-03  0.29310539D-03 -0.35268257D-03  0.33160561D-13
  0.95121353D-03 -0.27330001D-04  0.16197804D-12  0.10762418D-03 -0.23239417D-05
 -0.51421562D-14  0.29505617D-05  0.22002140D-05 -0.17107696D-03  0.16887675D-03
  0.56218642D-14 -0.52357249D-03 -0.54024840D-14  0.11830044D-04  0.18365100D-04
 -0.30195144D-04  0.34427415D-13  0.23704189D-03  0.26056780D-14 -0.15912259D-04
  0.15391945D-04  0.52031384D-06  0.73145586D-13  0.79152790D-05 -0.51010007D-13
 -0.35756141D-04  0.21957781D-14 -0.17381124D-03 -0.24269689D-03 -0.91399331D-14
  0.14801225D-03  0.34996531D-03  0.25525987D-14  0.37342147D-03 -0.98940685D-14
 -0.34426228D-04  0.20384029D-14 -0.10869368D-04  0.40911826D-04 -0.30675993D-14
 -0.59383828D-04  0.62366857D-04 -0.30476094D-14  0.91991931D-04 -0.33802760D-14
  0.14238359D-01  0.26543539D-01  0.44863257D-01  0.67444171D-01  0.82862956D-01
  0.69991013D-01  0.26398035D-01 -0.13064535D-03 -0.94770266D-04 -0.17743984D-03
 -0.30210651D-03 -0.46731283D-03 -0.61543456D-03 -0.63947593D-03 -0.40635825D-03
  0.27233185D-03  0.15012363D-02  0.65796465D-03  0.58522962D-05  0.33239037D-03
  0.31163710D-03  0.22190418D-03  0.15891313D-13  0.14899116D-13  0.10609058D-13
  0.43904270D-03  0.41163044D-03  0.29310539D-03  0.35268257D-03 -0.67795325D-13
  0.95121353D-03  0.27330002D-04 -0.16655855D-12  0.10762418D-03  0.23239417D-05
  0.13683436D-13  0.29505616D-05  0.22002140D-05 -0.17107696D-03  0.16887675D-03
  0.48688034D-14  0.52357249D-03  0.49913717D-15  0.11830044D-04  0.18365100D-04
 -0.30195144D-04  0.66705059D-13 -0.23704189D-03  0.36883573D-13 -0.15912259D-04
  0.15391945D-04  0.52031388D-06  0.75360386D-13 -0.79152790D-05  0.48964205D-13
  0.35756141D-04 -0.45330113D-14 -0.17381124D-03  0.24269689D-03  0.44612228D-14
  0.14801225D-03 -0.34996531D-03  0.91378111D-14  0.37342147D-03 -0.77604770D-14
  0.34426228D-04 -0.88614901D-14 -0.10869368D-04 -0.40911826D-04  0.13917157D-13
 -0.59383828D-04 -0.62366857D-04  0.12667313D-13  0.91991931D-04  0.11930624D-13
  0.15331047D-04  0.27650174D-04  0.40770166D-04  0.15515451D-03 -0.11107281D-03
  0.10357522D-05  0.95417648D-04 -0.47260897D-04 -0.19340627D-04  0.17926098D-03
 -0.71071165D-04  0.15583776D-03  0.18613294D-04  0.28854605D-04  0.37327376D-04
  0.13747026D-03  0.93222713D-05 -0.14679253D-03 -0.80801264D-04  0.11825584D-03
 -0.16502142D-03  0.24008656D-04  0.64619572D-05 -0.30470613D-04 -0.28794555D-05
 -0.17414110D-04 -0.50305621D-04  0.15331047D-04  0.27650174D-04  0.40770166D-04
  0.15515451D-03 -0.11107281D-03  0.10357522D-05 -0.95417648D-04 -0.47260897D-04
 -0.19340627D-04 -0.17926098D-03 -0.71071165D-04  0.15583776D-03 -0.18613294D-04
  0.28854605D-04  0.37327376D-04  0.13747026D-03  0.93222713D-05 -0.14679253D-03
  0.80801264D-04 -0.11825584D-03 -0.16502142D-03  0.24008656D-04  0.64619572D-05
 -0.30470613D-04  0.28794555D-05  0.17414110D-04 -0.50305621D-04  0.15331047D-04
  0.27650174D-04  0.40770166D-04  0.15515451D-03 -0.11107281D-03  0.10357522D-05
  0.95417648D-04  0.47260897D-04 -0.19340627D-04  0.17926098D-03  0.71071165D-04
  0.15583776D-03  0.18613294D-04 -0.28854605D-04  0.37327376D-04  0.13747026D-03
  0.93222713D-05 -0.14679253D-03  0.80801264D-04  0.11825584D-03  0.16502142D-03
  0.24008656D-04  0.64619572D-05 -0.30470613D-04  0.28794555D-05 -0.17414110D-04
  0.50305621D-04  0.15331047D-04  0.27650174D-04  0.40770166D-04  0.15515451D-03
 -0.11107281D-03  0.10357522D-05 -0.95417648D-04  0.47260897D-04 -0.19340627D-04
 -0.17926098D-03  0.71071165D-04  0.15583776D-03 -0.18613294D-04 -0.28854605D-04
  0.37327376D-04  0.13747026D-03  0.93222713D-05 -0.14679253D-03 -0.80801264D-04
 -0.11825584D-03  0.16502142D-03  0.24008656D-04  0.64619572D-05 -0.30470613D-04
 -0.28794555D-05  0.17414110D-04  0.50305621D-04  0.15331047D-04  0.27650174D-04
  0.40770166D-04  0.15515452D-03 -0.11107281D-03  0.10357522D-05 -0.47260897D-04
  0.95417648D-04  0.19340627D-04 -0.71071165D-04  0.17926098D-03 -0.15583776D-03
  0.28854605D-04  0.18613294D-04 -0.37327376D-04  0.93222714D-05  0.13747026D-03
 -0.14679253D-03 -0.80801264D-04  0.16502142D-03 -0.11825584D-03  0.64619572D-05
  0.24008656D-04 -0.30470613D-04 -0.28794555D-05  0.50305621D-04  0.17414110D-04
  0.15331047D-04  0.27650174D-04  0.40770166D-04  0.15515451D-03 -0.11107281D-03
  0.10357522D-05 -0.47260897D-04 -0.95417648D-04  0.19340627D-04 -0.71071165D-04
 -0.17926098D-03 -0.15583776D-03  0.28854605D-04 -0.18613294D-04 -0.37327376D-04
  0.93222714D-05  0.13747026D-03 -0.14679253D-03  0.80801264D-04  0.16502142D-03
  0.11825584D-03  0.64619572D-05  0.24008656D-04 -0.30470613D-04  0.28794555D-05
  0.50305621D-04 -0.17414110D-04  0.15331047D-04  0.27650174D-04  0.40770166D-04
  0.15515451D-03 -0.11107281D-03  0.10357522D-05  0.47260897D-04  0.95417648D-04
  0.19340627D-04  0.71071165D-04  0.17926098D-03 -0.15583776D-03 -0.28854605D-04
  0.18613294D-04 -0.37327376D-04  0.93222714D-05  0.13747026D-03 -0.14679253D-03
  0.80801263D-04 -0.16502142D-03 -0.11825584D-03  0.64619572D-05  0.24008656D-04
 -0.30470613D-04  0.28794555D-05 -0.50305621D-04  0.17414110D-04  0.15331047D-04
  0.27650174D-04  0.40770166D-04  0.15515451D-03 -0.11107281D-03  0.10357522D-05
  0.47260897D-04 -0.95417648D-04  0.19340627D-04  0.71071165D-04 -0.17926098D-03
 -0.15583776D-03 -0.28854605D-04 -0.18613294D-04 -0.37327376D-04  0.93222714D-05
  0.13747026D-03 -0.14679253D-03 -0.80801264D-04 -0.16502142D-03  0.11825584D-03
  0.64619572D-05  0.24008656D-04 -0.30470613D-04 -0.28794555D-05 -0.50305621D-04
 -0.17414110D-04
MO    2     MO 0.0        OCC NO =    2.0000000  ORB. ENERGY =  -11.225968
 -0.48694158D-11 -0.90776982D-11 -0.15342909D-10 -0.23065418D-10 -0.28338531D-10
 -0.23936420D-10 -0.90279369D-11  0.44679763D-13 -0.24783410D-14 -0.46402363D-14
 -0.79003993D-14 -0.12220716D-13 -0.16094254D-13 -0.16722960D-13 -0.10626691D-13
  0.71217609D-14 -0.37204570D-12  0.42411019D-12  0.70522137D-12 -0.71377720D-13
 -0.66921150D-13 -0.47651845D-13  0.83077287D-13  0.77890237D-13  0.55462489D-13
 -0.40733908D-03 -0.38190628D-03 -0.27194002D-03  0.48232618D-12 -0.48713967D-12
 -0.29357961D-02  0.16208436D-11 -0.15956700D-11  0.65987499D-02 -0.33747973D-12
  0.34256230D-12  0.15121663D-03 -0.82730879D-04  0.82730879D-04 -0.37551366D-13
 -0.39459505D-13  0.36231353D-13  0.37469054D-13  0.27377936D-03 -0.27377936D-03
  0.15270448D-12  0.33499725D-13 -0.11864856D-11 -0.11477356D-11 -0.13422085D-03
  0.13422085D-03  0.19416662D-13 -0.25245996D-12 -0.50328136D-12 -0.37058360D-12
 -0.37537901D-13  0.34695957D-13 -0.48820989D-04 -0.18460496D-12  0.19007835D-12
  0.73231483D-04  0.29721867D-12 -0.29416622D-12  0.73231483D-04  0.65210251D-13
  0.70543815D-13 -0.64393378D-13  0.15390542D-03  0.51471279D-13 -0.55651412D-13
 -0.23085813D-03 -0.26310272D-12  0.24883155D-12 -0.23085813D-03  0.21077432D-13
 -0.16378673D+00 -0.30533570D+00 -0.51607113D+00 -0.77582395D+00 -0.95318936D+00
 -0.80512079D+00 -0.30366194D+00  0.15028399D-02  0.31489007D-03  0.58957356D-03
  0.10037994D-02  0.15527251D-02  0.20448843D-02  0.21247658D-02  0.13501933D-02
 -0.90486814D-03 -0.14393989D-01 -0.28876480D-02 -0.29273052D-03  0.26411626D-13
  0.24762579D-13  0.17632431D-13  0.96080521D-03  0.90081596D-03  0.64143463D-03
  0.39530373D-03  0.37062237D-03  0.26390521D-03 -0.26252185D-13  0.43238770D-03
 -0.16963956D-03  0.25506552D-12  0.81067730D-03  0.10747053D-02  0.26030229D-13
  0.17317814D-04  0.14003735D-04 -0.14240287D-03 -0.28764909D-03  0.43005196D-03
  0.66053667D-13  0.67940513D-14 -0.80402194D-03 -0.13778464D-03  0.10045059D-04
  0.12773959D-03 -0.25456604D-13 -0.17850823D-12  0.35577971D-03  0.42703958D-04
 -0.21079593D-04 -0.21624365D-04 -0.28704365D-12 -0.14383243D-12 -0.25778795D-04
  0.10630006D-13  0.11398611D-03  0.67324160D-04 -0.88829998D-13 -0.43891116D-03
 -0.31997754D-03  0.56939980D-13  0.96952824D-04  0.11800506D-03  0.32833891D-13
 -0.63847472D-13 -0.69114246D-04 -0.57922581D-04  0.12684058D-12  0.28774763D-03
  0.21116309D-03  0.64701833D-13 -0.80404891D-04 -0.37395351D-04  0.20610379D-12
 -0.16378673D+00 -0.30533570D+00 -0.51607113D+00 -0.77582395D+00 -0.95318936D+00
 -0.80512079D+00 -0.30366194D+00  0.15028399D-02  0.31489007D-03  0.58957356D-03
  0.10037994D-02  0.15527251D-02  0.20448843D-02  0.21247658D-02  0.13501933D-02
 -0.90486814D-03 -0.14393989D-01 -0.28876480D-02 -0.29273052D-03  0.91721299D-13
  0.85994548D-13  0.61233241D-13 -0.96080521D-03 -0.90081596D-03 -0.64143463D-03
  0.39530373D-03  0.37062237D-03  0.26390521D-03 -0.29542685D-12 -0.43238770D-03
 -0.16963956D-03 -0.27754211D-12 -0.81067731D-03  0.10747053D-02  0.39227829D-13
 -0.17317814D-04  0.14003734D-04 -0.14240287D-03 -0.28764909D-03  0.43005196D-03
 -0.95525276D-13 -0.19959556D-13  0.80402194D-03 -0.13778464D-03  0.10045059D-04
  0.12773959D-03  0.38309858D-12 -0.29443938D-12 -0.35577971D-03  0.42703959D-04
 -0.21079594D-04 -0.21624366D-04 -0.28886931D-15  0.74771063D-14  0.25778796D-04
 -0.15106182D-13 -0.11398611D-03  0.67324160D-04 -0.32353167D-13  0.43891116D-03
 -0.31997754D-03  0.77671714D-13 -0.96952824D-04  0.11800506D-03  0.13718302D-13
 -0.83513926D-13  0.69114246D-04 -0.57922581D-04  0.12078741D-12 -0.28774763D-03
  0.21116309D-03  0.12975437D-12  0.80404891D-04 -0.37395351D-04 -0.20427838D-12
  0.16378673D+00  0.30533570D+00  0.51607113D+00  0.77582395D+00  0.95318936D+00
  0.80512080D+00  0.30366194D+00 -0.15028399D-02 -0.31489007D-03 -0.58957356D-03
 -0.10037994D-02 -0.15527251D-02 -0.20448843D-02 -0.21247658D-02 -0.13501933D-02
  0.90486814D-03  0.14393989D-01  0.28876480D-02  0.29273052D-03 -0.96080521D-03
 -0.90081596D-03 -0.64143463D-03 -0.14897955D-13 -0.13967780D-13 -0.99458915D-14
  0.39530373D-03  0.37062237D-03  0.26390521D-03 -0.43238770D-03 -0.44918688D-13
 -0.16963956D-03 -0.81067730D-03 -0.65773363D-12  0.10747053D-02 -0.17317814D-04
 -0.53415551D-15  0.14003735D-04  0.28764909D-03  0.14240287D-03 -0.43005196D-03
 -0.12295290D-12 -0.80402194D-03  0.51091534D-14 -0.10045059D-04  0.13778464D-03
 -0.12773959D-03  0.54748686D-13  0.35577971D-03 -0.14369760D-12  0.21079593D-04
 -0.42703959D-04  0.21624365D-04 -0.24858798D-12 -0.25778795D-04  0.25548188D-12
 -0.11398611D-03 -0.94393237D-14  0.67324160D-04  0.43891116D-03  0.78477344D-13
  0.11800506D-03 -0.96952824D-04 -0.50159373D-13 -0.31997754D-03  0.51032355D-13