 Molden2AIM, Version 4.0.0 (06/02/2016)           Time: Wed Jun 27 21:46:46 2018
GAUSSIAN             25 MOL ORBITALS    431 PRIMITIVES        5 NUCLEI
  C    1    (CENTRE  1)   3.07209753  0.22555960 -0.00043842  CHARGE =  6.0
  F    2    (CENTRE  2)   3.91107167  0.45949069  2.35804561  CHARGE =  9.0
  F    3    (CENTRE  3)   4.34602994 -1.62282499 -1.13201209  CHARGE =  9.0
  F    4    (CENTRE  4)   3.51307268  2.37517409 -1.22789112  CHARGE =  9.0
  Cl   5    (CENTRE  5)  -0.18507978 -0.45259130 -0.00454290  CHARGE = 17.0
CENTRE ASSIGNMENTS    1  1  1  1  1  1  1  1  1  1  1  1  1  1  1  1  1  1  1  1
CENTRE ASSIGNMENTS    1  1  1  1  1  1  1  1  1  1  1  1  1  1  1  1  1  1  1  1
CENTRE ASSIGNMENTS    1  1  1  1  1  1  1  1  1  1  1  1  1  1  1  1  1  1  1  1
CENTRE ASSIGNMENTS    1  1  1  1  1  1  1  1  1  1  1  1  1  1  1  2  2  2  2  2
CENTRE ASSIGNMENTS    2  2  2  2  2  2  2  2  2  2  2  2  2  2  2  2  2  2  2  2
CENTRE ASSIGNMENTS    2  2  2  2  2  2  2  2  2  2  2  2  2  2  2  2  2  2  2  2
CENTRE ASSIGNMENTS    2  2  2  2  2  2  2  2  2  2  2  2  2  2  2  2  2  2  2  2
CENTRE ASSIGNMENTS    2  2  2  2  2  2  2  2  2  2  3  3  3  3  3  3  3  3  3  3
CENTRE ASSIGNMENTS    3  3  3  3  3  3  3  3  3  3  3  3  3  3  3  3  3  3  3  3
CENTRE ASSIGNMENTS    3  3  3  3  3  3  3  3  3  3  3  3  3  3  3  3  3  3  3  3
CENTRE ASSIGNMENTS    3  3  3  3  3  3  3  3  3  3  3  3  3  3  3  3  3  3  3  3
CENTRE ASSIGNMENTS    3  3  3  3  3  4  4  4  4  4  4  4  4  4  4  4  4  4  4  4
CENTRE ASSIGNMENTS    4  4  4  4  4  4  4  4  4  4  4  4  4  4  4  4  4  4  4  4
CENTRE ASSIGNMENTS    4  4  4  4  4  4  4  4  4  4  4  4  4  4  4  4  4  4  4  4
CENTRE ASSIGNMENTS    4  4  4  4  4  4  4  4  4  4  4  4  4  4  4  4  4  4  4  4
CENTRE ASSIGNMENTS    5  5  5  5  5  5  5  5  5  5  5  5  5  5  5  5  5  5  5  5
CENTRE ASSIGNMENTS    5  5  5  5  5  5  5  5  5  5  5  5  5  5  5  5  5  5  5  5
CENTRE ASSIGNMENTS    5  5  5  5  5  5  5  5  5  5  5  5  5  5  5  5  5  5  5  5
CENTRE ASSIGNMENTS    5  5  5  5  5  5  5  5  5  5  5  5  5  5  5  5  5  5  5  5
CENTRE ASSIGNMENTS    5  5  5  5  5  5  5  5  5  5  5  5  5  5  5  5  5  5  5  5
CENTRE ASSIGNMENTS    5  5  5  5  5  5  5  5  5  5  5  5  5  5  5  5  5  5  5  5
CENTRE ASSIGNMENTS    5  5  5  5  5  5  5  5  5  5  5
TYPE ASSIGNMENTS      1  1  1  1  1  1  1  1  1  1  1  1  1  1  1  1  1  1  1  2
TYPE ASSIGNMENTS      2  2  3  3  3  4  4  4  2  3  4  2  3  4  2  3  4  5  6  7
TYPE ASSIGNMENTS      8  9 10  5  6  7  8  9 10  5  6  7  8  9 10 11 12 13 17 14
TYPE ASSIGNMENTS     15 18 19 16 20 11 12 13 17 14 15 18 19 16 20  1  1  1  1  1
TYPE ASSIGNMENTS      1  1  1  1  1  1  1  1  1  1  1  1  1  1  2  2  2  3  3  3
TYPE ASSIGNMENTS      4  4  4  2  3  4  2  3  4  2  3  4  5  6  7  8  9 10  5  6
TYPE ASSIGNMENTS      7  8  9 10  5  6  7  8  9 10 11 12 13 17 14 15 18 19 16 20
TYPE ASSIGNMENTS     11 12 13 17 14 15 18 19 16 20  1  1  1  1  1  1  1  1  1  1
TYPE ASSIGNMENTS      1  1  1  1  1  1  1  1  1  2  2  2  3  3  3  4  4  4  2  3
TYPE ASSIGNMENTS      4  2  3  4  2  3  4  5  6  7  8  9 10  5  6  7  8  9 10  5
TYPE ASSIGNMENTS      6  7  8  9 10 11 12 13 17 14 15 18 19 16 20 11 12 13 17 14
TYPE ASSIGNMENTS     15 18 19 16 20  1  1  1  1  1  1  1  1  1  1  1  1  1  1  1
TYPE ASSIGNMENTS      1  1  1  1  2  2  2  3  3  3  4  4  4  2  3  4  2  3  4  2
TYPE ASSIGNMENTS      3  4  5  6  7  8  9 10  5  6  7  8  9 10  5  6  7  8  9 10
TYPE ASSIGNMENTS     11 12 13 17 14 15 18 19 16 20 11 12 13 17 14 15 18 19 16 20
TYPE ASSIGNMENTS      1  1  1  1  1  1  1  1  1  1  1  1  1  1  1  1  1  1  1  1
TYPE ASSIGNMENTS      1  1  1  1  1  1  1  1  1  1  1  1  1  1  1  1  1  1  1  1
TYPE ASSIGNMENTS      1  1  2  2  2  2  2  2  2  3  3  3  3  3  3  3  4  4  4  4
TYPE ASSIGNMENTS      4  4  4  2  2  2  2  2  2  2  3  3  3  3  3  3  3  4  4  4
TYPE ASSIGNMENTS      4  4  4  4  2  3  4  2  3  4  2  3  4  5  6  7  8  9 10  5
TYPE ASSIGNMENTS      6  7  8  9 10  5  6  7  8  9 10 11 12 13 17 14 15 18 19 16
TYPE ASSIGNMENTS     20 11 12 13 17 14 15 18 19 16 20
EXPONENTS  0.8236000D+04 0.1235000D+04 0.2808000D+03 0.7927000D+02 0.2559000D+02
EXPONENTS  0.8997000D+01 0.3319000D+01 0.3643000D+00 0.8236000D+04 0.1235000D+04
EXPONENTS  0.2808000D+03 0.7927000D+02 0.2559000D+02 0.8997000D+01 0.3319000D+01
EXPONENTS  0.3643000D+00 0.9059000D+00 0.1285000D+00 0.4402000D-01 0.1871000D+02
EXPONENTS  0.4133000D+01 0.1200000D+01 0.1871000D+02 0.4133000D+01 0.1200000D+01
EXPONENTS  0.1871000D+02 0.4133000D+01 0.1200000D+01 0.3827000D+00 0.3827000D+00
EXPONENTS  0.3827000D+00 0.1209000D+00 0.1209000D+00 0.1209000D+00 0.3569000D-01
EXPONENTS  0.3569000D-01 0.3569000D-01 0.1097000D+01 0.1097000D+01 0.1097000D+01
EXPONENTS  0.1097000D+01 0.1097000D+01 0.1097000D+01 0.3180000D+00 0.3180000D+00
EXPONENTS  0.3180000D+00 0.3180000D+00 0.3180000D+00 0.3180000D+00 0.1000000D+00
EXPONENTS  0.1000000D+00 0.1000000D+00 0.1000000D+00 0.1000000D+00 0.1000000D+00
EXPONENTS  0.7610000D+00 0.7610000D+00 0.7610000D+00 0.7610000D+00 0.7610000D+00
EXPONENTS  0.7610000D+00 0.7610000D+00 0.7610000D+00 0.7610000D+00 0.7610000D+00
EXPONENTS  0.2680000D+00 0.2680000D+00 0.2680000D+00 0.2680000D+00 0.2680000D+00
EXPONENTS  0.2680000D+00 0.2680000D+00 0.2680000D+00 0.2680000D+00 0.2680000D+00
EXPONENTS  0.1950000D+05 0.2923000D+04 0.6645000D+03 0.1875000D+03 0.6062000D+02
EXPONENTS  0.2142000D+02 0.7950000D+01 0.8815000D+00 0.1950000D+05 0.2923000D+04
EXPONENTS  0.6645000D+03 0.1875000D+03 0.6062000D+02 0.2142000D+02 0.7950000D+01
EXPONENTS  0.8815000D+00 0.2257000D+01 0.3041000D+00 0.9158000D-01 0.4388000D+02
EXPONENTS  0.9926000D+01 0.2930000D+01 0.4388000D+02 0.9926000D+01 0.2930000D+01
EXPONENTS  0.4388000D+02 0.9926000D+01 0.2930000D+01 0.9132000D+00 0.9132000D+00
EXPONENTS  0.9132000D+00 0.2672000D+00 0.2672000D+00 0.2672000D+00 0.7361000D-01
EXPONENTS  0.7361000D-01 0.7361000D-01 0.3107000D+01 0.3107000D+01 0.3107000D+01
EXPONENTS  0.3107000D+01 0.3107000D+01 0.3107000D+01 0.8550000D+00 0.8550000D+00
EXPONENTS  0.8550000D+00 0.8550000D+00 0.8550000D+00 0.8550000D+00 0.2920000D+00
EXPONENTS  0.2920000D+00 0.2920000D+00 0.2920000D+00 0.2920000D+00 0.2920000D+00
EXPONENTS  0.1917000D+01 0.1917000D+01 0.1917000D+01 0.1917000D+01 0.1917000D+01
EXPONENTS  0.1917000D+01 0.1917000D+01 0.1917000D+01 0.1917000D+01 0.1917000D+01
EXPONENTS  0.7240000D+00 0.7240000D+00 0.7240000D+00 0.7240000D+00 0.7240000D+00
EXPONENTS  0.7240000D+00 0.7240000D+00 0.7240000D+00 0.7240000D+00 0.7240000D+00
EXPONENTS  0.1950000D+05 0.2923000D+04 0.6645000D+03 0.1875000D+03 0.6062000D+02
EXPONENTS  0.2142000D+02 0.7950000D+01 0.8815000D+00 0.1950000D+05 0.2923000D+04
EXPONENTS  0.6645000D+03 0.1875000D+03 0.6062000D+02 0.2142000D+02 0.7950000D+01
EXPONENTS  0.8815000D+00 0.2257000D+01 0.3041000D+00 0.9158000D-01 0.4388000D+02
EXPONENTS  0.9926000D+01 0.2930000D+01 0.4388000D+02 0.9926000D+01 0.2930000D+01
EXPONENTS  0.4388000D+02 0.9926000D+01 0.2930000D+01 0.9132000D+00 0.9132000D+00
EXPONENTS  0.9132000D+00 0.2672000D+00 0.2672000D+00 0.2672000D+00 0.7361000D-01
EXPONENTS  0.7361000D-01 0.7361000D-01 0.3107000D+01 0.3107000D+01 0.3107000D+01
EXPONENTS  0.3107000D+01 0.3107000D+01 0.3107000D+01 0.8550000D+00 0.8550000D+00
EXPONENTS  0.8550000D+00 0.8550000D+00 0.8550000D+00 0.8550000D+00 0.2920000D+00
EXPONENTS  0.2920000D+00 0.2920000D+00 0.2920000D+00 0.2920000D+00 0.2920000D+00
EXPONENTS  0.1917000D+01 0.1917000D+01 0.1917000D+01 0.1917000D+01 0.1917000D+01
EXPONENTS  0.1917000D+01 0.1917000D+01 0.1917000D+01 0.1917000D+01 0.1917000D+01
EXPONENTS  0.7240000D+00 0.7240000D+00 0.7240000D+00 0.7240000D+00 0.7240000D+00
EXPONENTS  0.7240000D+00 0.7240000D+00 0.7240000D+00 0.7240000D+00 0.7240000D+00
EXPONENTS  0.1950000D+05 0.2923000D+04 0.6645000D+03 0.1875000D+03 0.6062000D+02
EXPONENTS  0.2142000D+02 0.7950000D+01 0.8815000D+00 0.1950000D+05 0.2923000D+04
EXPONENTS  0.6645000D+03 0.1875000D+03 0.6062000D+02 0.2142000D+02 0.7950000D+01
EXPONENTS  0.8815000D+00 0.2257000D+01 0.3041000D+00 0.9158000D-01 0.4388000D+02
EXPONENTS  0.9926000D+01 0.2930000D+01 0.4388000D+02 0.9926000D+01 0.2930000D+01
EXPONENTS  0.4388000D+02 0.9926000D+01 0.2930000D+01 0.9132000D+00 0.9132000D+00
EXPONENTS  0.9132000D+00 0.2672000D+00 0.2672000D+00 0.2672000D+00 0.7361000D-01
EXPONENTS  0.7361000D-01 0.7361000D-01 0.3107000D+01 0.3107000D+01 0.3107000D+01
EXPONENTS  0.3107000D+01 0.3107000D+01 0.3107000D+01 0.8550000D+00 0.8550000D+00
EXPONENTS  0.8550000D+00 0.8550000D+00 0.8550000D+00 0.8550000D+00 0.2920000D+00
EXPONENTS  0.2920000D+00 0.2920000D+00 0.2920000D+00 0.2920000D+00 0.2920000D+00
EXPONENTS  0.1917000D+01 0.1917000D+01 0.1917000D+01 0.1917000D+01 0.1917000D+01
EXPONENTS  0.1917000D+01 0.1917000D+01 0.1917000D+01 0.1917000D+01 0.1917000D+01
EXPONENTS  0.7240000D+00 0.7240000D+00 0.7240000D+00 0.7240000D+00 0.7240000D+00
EXPONENTS  0.7240000D+00 0.7240000D+00 0.7240000D+00 0.7240000D+00 0.7240000D+00
EXPONENTS  0.4561000D+06 0.6833000D+05 0.1555000D+05 0.4405000D+04 0.1439000D+04
EXPONENTS  0.5204000D+03 0.2031000D+03 0.8396000D+02 0.3620000D+02 0.1583000D+02
EXPONENTS  0.6334000D+01 0.2694000D+01 0.4313000D+00 0.4561000D+06 0.6833000D+05
EXPONENTS  0.1555000D+05 0.4405000D+04 0.1439000D+04 0.5204000D+03 0.2031000D+03
EXPONENTS  0.8396000D+02 0.3620000D+02 0.1583000D+02 0.6334000D+01 0.2694000D+01
EXPONENTS  0.4313000D+00 0.4561000D+06 0.6833000D+05 0.1555000D+05 0.4405000D+04
EXPONENTS  0.1439000D+04 0.5204000D+03 0.2031000D+03 0.8396000D+02 0.3620000D+02
EXPONENTS  0.1583000D+02 0.6334000D+01 0.2694000D+01 0.4313000D+00 0.9768000D+00
EXPONENTS  0.1625000D+00 0.5910000D-01 0.6633000D+03 0.1568000D+03 0.4998000D+02
EXPONENTS  0.1842000D+02 0.7240000D+01 0.2922000D+01 0.3818000D+00 0.6633000D+03
EXPONENTS  0.1568000D+03 0.4998000D+02 0.1842000D+02 0.7240000D+01 0.2922000D+01
EXPONENTS  0.3818000D+00 0.6633000D+03 0.1568000D+03 0.4998000D+02 0.1842000D+02
EXPONENTS  0.7240000D+01 0.2922000D+01 0.3818000D+00 0.6633000D+03 0.1568000D+03
EXPONENTS  0.4998000D+02 0.1842000D+02 0.7240000D+01 0.2922000D+01 0.3818000D+00
EXPONENTS  0.6633000D+03 0.1568000D+03 0.4998000D+02 0.1842000D+02 0.7240000D+01
EXPONENTS  0.2922000D+01 0.3818000D+00 0.6633000D+03 0.1568000D+03 0.4998000D+02
EXPONENTS  0.1842000D+02 0.7240000D+01 0.2922000D+01 0.3818000D+00 0.1022000D+01
EXPONENTS  0.1022000D+01 0.1022000D+01 0.1301000D+00 0.1301000D+00 0.1301000D+00
EXPONENTS  0.4190000D-01 0.4190000D-01 0.4190000D-01 0.1046000D+01 0.1046000D+01
EXPONENTS  0.1046000D+01 0.1046000D+01 0.1046000D+01 0.1046000D+01 0.3440000D+00
EXPONENTS  0.3440000D+00 0.3440000D+00 0.3440000D+00 0.3440000D+00 0.3440000D+00
EXPONENTS  0.1350000D+00 0.1350000D+00 0.1350000D+00 0.1350000D+00 0.1350000D+00
EXPONENTS  0.1350000D+00 0.7060000D+00 0.7060000D+00 0.7060000D+00 0.7060000D+00
EXPONENTS  0.7060000D+00 0.7060000D+00 0.7060000D+00 0.7060000D+00 0.7060000D+00
EXPONENTS  0.7060000D+00 0.3120000D+00 0.3120000D+00 0.3120000D+00 0.3120000D+00
EXPONENTS  0.3120000D+00 0.3120000D+00 0.3120000D+00 0.3120000D+00 0.3120000D+00
EXPONENTS  0.3120000D+00
MO    1     MO 0.0        OCC NO =    2.0000000  ORB. ENERGY = -104.886605
  0.50399765D-05  0.93956622D-05  0.15880324D-04  0.23873329D-04  0.29331143D-04
  0.24774839D-04  0.93441579D-05 -0.46244759D-07 -0.37410026D-05 -0.70043373D-05
 -0.11925484D-04 -0.18446910D-04 -0.24293931D-04 -0.25242951D-04 -0.16040762D-04
  0.10750146D-04  0.12855695D-04 -0.10026518D-04  0.10619086D-05 -0.18096236D-04
 -0.16966372D-04 -0.12081068D-04 -0.37727860D-05 -0.35372267D-05 -0.25187161D-05
 -0.12404321D-07 -0.11629839D-07 -0.82811385D-08  0.19243095D-04  0.40213082D-05
 -0.62169988D-08 -0.89075353D-05 -0.18601194D-05 -0.58537012D-08  0.23510415D-07
  0.49377349D-08 -0.93226785D-10  0.27653368D-05 -0.12903566D-05 -0.14749802D-05
  0.17725068D-05  0.68295588D-08  0.14566448D-07 -0.18729832D-04  0.87459452D-05
  0.99838863D-05 -0.11960222D-04 -0.73702012D-07 -0.22882239D-07  0.14584598D-06
 -0.68372079D-07 -0.77473905D-07  0.92362348D-07 -0.68431088D-09 -0.12525754D-08
  0.47749437D-05 -0.16683095D-05  0.18013259D-05 -0.62545879D-05  0.62863499D-05
 -0.18120703D-06 -0.80702431D-05 -0.12814213D-05 -0.52227708D-05  0.22025617D-05
  0.26714197D-05 -0.89107729D-06  0.39042632D-06 -0.35186856D-05  0.35226754D-05
 -0.31573177D-07 -0.44955734D-05 -0.84944350D-06 -0.11397058D-05  0.46564254D-06
 -0.14776584D-05 -0.27544192D-05 -0.46694177D-05 -0.70708745D-05 -0.88421534D-05
 -0.76122705D-05 -0.29264347D-05  0.12680720D-07  0.92342957D-06  0.17340372D-05
  0.29527663D-05  0.46254909D-05  0.61987020D-05  0.66675397D-05  0.40031821D-05
 -0.26326610D-05  0.15047868D-05  0.28137722D-05  0.35889528D-05 -0.26061271D-05
 -0.25487354D-05 -0.16840573D-05 -0.62113549D-06 -0.60745695D-06 -0.40137249D-06
 -0.26917681D-05 -0.26324904D-05 -0.17393977D-05  0.10595127D-05  0.28348131D-06
  0.22201627D-05  0.81803005D-05  0.16762985D-05 -0.14651857D-05 -0.31152769D-06
 -0.74571689D-07 -0.40177487D-06  0.88954273D-06  0.66507727D-06 -0.15546200D-05
  0.23484185D-06  0.52935819D-05  0.10218514D-05 -0.10925352D-05 -0.32333913D-07
  0.11248691D-05 -0.55376933D-06 -0.34542555D-05 -0.67948440D-06 -0.90899970D-06
  0.92757053D-06 -0.18570835D-07 -0.93581350D-06 -0.49640079D-05 -0.10890200D-05
  0.74347284D-05 -0.13470502D-05 -0.22622987D-05 -0.59891382D-05  0.79503754D-05
  0.17824967D-06 -0.16315047D-04 -0.39092248D-05  0.66086463D-05 -0.32664669D-05
 -0.26273939D-05  0.33547952D-06  0.34417332D-06  0.15258253D-05 -0.24850378D-05
  0.13141553D-05  0.63563562D-05  0.14785992D-05 -0.23466752D-05  0.18291489D-05
 -0.14821656D-05 -0.27628209D-05 -0.46836607D-05 -0.70924426D-05 -0.88691244D-05
 -0.76354899D-05 -0.29353611D-05  0.12719400D-07  0.92640891D-06  0.17396319D-05
  0.29622930D-05  0.46404145D-05  0.62187013D-05  0.66890518D-05  0.40160979D-05
 -0.26411549D-05  0.15073416D-05  0.27838070D-05  0.35839750D-05 -0.30989768D-05
 -0.30307316D-05 -0.20025325D-05  0.17707789D-05  0.17317831D-05  0.11442623D-05
  0.13044146D-05  0.12756890D-05  0.84290164D-06  0.14745781D-05 -0.16922099D-05
 -0.10782866D-05  0.79068231D-05  0.29460633D-05  0.69223094D-06 -0.38612500D-06
  0.27859732D-06  0.19206318D-06  0.17431704D-05 -0.18947037D-05  0.15153333D-06
 -0.35317287D-05 -0.21307464D-05 -0.23155980D-05 -0.16736648D-05  0.13984341D-05
  0.27523069D-06  0.20172152D-05  0.14571375D-05  0.12348345D-05 -0.18553656D-05
  0.10607653D-05  0.79460026D-06  0.35959691D-05  0.25695767D-05 -0.37734023D-06
  0.71266813D-05 -0.26982211D-05 -0.23477966D-05 -0.11654775D-04  0.10675063D-04
  0.18887978D-05 -0.97252689D-05 -0.25803995D-05  0.51545921D-05 -0.94758447D-05
 -0.22282459D-05  0.12655103D-05  0.91086904D-06  0.37058615D-05 -0.49159629D-05
 -0.15330197D-05  0.29788762D-05  0.11194320D-05 -0.11995874D-05  0.39017665D-05
 -0.14872764D-05 -0.27723476D-05 -0.46998107D-05 -0.71168985D-05 -0.88997066D-05
 -0.76618184D-05 -0.29454827D-05  0.12763259D-07  0.92976355D-06  0.17459313D-05
  0.29730199D-05  0.46572180D-05  0.62412200D-05  0.67132736D-05  0.40306407D-05
 -0.26507189D-05  0.15108481D-05  0.27676648D-05  0.35805431D-05 -0.21531966D-05
 -0.21057793D-05 -0.13913774D-05 -0.28071027D-05 -0.27452852D-05 -0.18139260D-05
  0.14057292D-05  0.13747724D-05  0.90837026D-06  0.69228812D-06  0.20988853D-05
 -0.11659965D-05  0.84078923D-05  0.50468283D-06  0.75083809D-06 -0.24409217D-06
 -0.39994926D-06  0.20855429D-06 -0.10311071D-06  0.50946902D-07  0.52163809D-07
  0.49242518D-05 -0.31289173D-05  0.13434636D-05 -0.46233107D-06  0.13674112D-06
  0.32558996D-06 -0.35343323D-05  0.19864474D-05 -0.57637528D-06 -0.90859521D-07
 -0.65994623D-06  0.75080575D-06 -0.44871415D-05  0.23955736D-05  0.14665649D-05
  0.72087205D-05 -0.25697923D-05 -0.23463688D-05 -0.11533297D-04  0.10276454D-04
 -0.11521502D-05 -0.10092864D-04 -0.25670775D-05  0.81912566D-05  0.44605648D-05
 -0.27457395D-05  0.72443369D-06  0.92529897D-06  0.49463781D-05 -0.26845857D-05
 -0.63763570D-07  0.32908405D-05  0.51128466D-06 -0.27121333D-05 -0.31308321D-05
  0.61664362D+00  0.11537426D+01  0.19934116D+01  0.32315527D+01  0.49073705D+01
  0.68206680D+01  0.81087903D+01  0.72226867D+01  0.35855579D+01  0.57769083D+00
  0.88690930D-02  0.15848982D-02  0.59225173D-04 -0.21362937D-04 -0.39902898D-04
 -0.69253415D-04 -0.11237015D-03 -0.17393564D-03 -0.24897307D-03 -0.32498763D-03
 -0.34632855D-03 -0.25888762D-03 -0.13666218D-04  0.17560411D-03  0.10432902D-03
 -0.39115560D-06  0.95021559D-05  0.17734405D-04  0.30820835D-04  0.49951506D-04
  0.77582510D-04  0.11113918D-03  0.14674894D-03  0.15867913D-03  0.12440650D-03
  0.61904261D-05 -0.10664782D-03 -0.11040026D-03  0.49957682D-04 -0.31117298D-03
 -0.16490797D-04 -0.55592392D-05  0.15062577D-02  0.19840794D-02  0.21889044D-02
  0.18181367D-02  0.96565655D-03  0.24907099D-03 -0.25603651D-06  0.31343519D-03
  0.41286449D-03  0.45548625D-03  0.37833369D-03  0.20094221D-03  0.51828858D-04
 -0.53278304D-07  0.24889362D-05  0.32784876D-05  0.36169398D-05  0.30042843D-05
  0.15956484D-05  0.41156426D-06 -0.42307407D-09 -0.73689571D-03 -0.96749005D-03
 -0.11015586D-02 -0.93275458D-03 -0.53431773D-03 -0.12153875D-03  0.56886822D-04
 -0.15340779D-03 -0.20141318D-03 -0.22932373D-03 -0.19418191D-03 -0.11123488D-03
 -0.25302075D-04  0.11842764D-04 -0.10897114D-05 -0.14307112D-05 -0.16289700D-05
 -0.13793449D-05 -0.79014185D-06 -0.17972986D-06  0.84123465D-07 -0.94240873D-04
 -0.19610960D-04 -0.15350851D-06 -0.92780363D-05 -0.19312290D-05 -0.15285255D-07
 -0.36556534D-06 -0.76218028D-07 -0.28749383D-09  0.10405664D-04 -0.48635443D-05
 -0.55421194D-05  0.66382151D-05  0.61139808D-07  0.17975989D-07  0.11652429D-04
 -0.54358181D-05 -0.62166109D-05  0.74395049D-05  0.48216546D-07  0.52078071D-08
 -0.16145967D-05  0.75366743D-06  0.86092925D-06 -0.10307289D-05 -0.70885721D-08
 -0.14013776D-08  0.55465025D-05 -0.17983444D-05 -0.21343532D-07 -0.73545509D-05
  0.73304235D-05  0.45769100D-07 -0.92849565D-05 -0.19353903D-05  0.18261495D-07
  0.11627490D-07  0.34390507D-06 -0.11334273D-06  0.32355211D-07 -0.45256058D-06
  0.45338538D-06 -0.31146265D-09 -0.57915463D-06 -0.11335720D-06 -0.96754169D-07
  0.38111225D-07
MO    2     MO 0.0        OCC NO =    2.0000000  ORB. ENERGY =  -26.373025
  0.81902768D-04  0.15268538D-03  0.25806519D-03  0.38795651D-03  0.47664940D-03
  0.40260662D-03  0.15184840D-03 -0.75150622D-06 -0.61288397D-04 -0.11475122D-03
 -0.19537377D-03 -0.30221351D-03 -0.39800456D-03 -0.41355223D-03 -0.26279388D-03
  0.17611835D-03 -0.10774261D-03 -0.48214325D-03 -0.34636707D-05 -0.22801676D-04
 -0.21378021D-04 -0.15222424D-04 -0.75056200D-04 -0.70369958D-04 -0.50107602D-04
 -0.28723223D-03 -0.26929847D-03 -0.19175655D-03  0.28429965D-04  0.12325624D-03
  0.47763737D-03 -0.54434986D-05 -0.59348746D-04 -0.23655616D-03  0.48899077D-06
  0.78426671D-06  0.27573132D-05 -0.90590222D-04 -0.19730760D-03  0.28789782D-03
  0.14439869D-03  0.38208454D-03 -0.59265848D-05 -0.12230052D-03 -0.29662882D-03
  0.41892934D-03  0.19033360D-03  0.45110155D-03 -0.30893516D-04  0.10270417D-05
  0.91683931D-05 -0.10195435D-04 -0.24688930D-05  0.33915654D-05  0.40209409D-05
 -0.87659042D-04 -0.75037161D-04  0.15417150D-03 -0.34716827D-03  0.62146324D-04
 -0.13016228D-03  0.61014539D-03  0.16296516D-03 -0.33235221D-03 -0.92135429D-04
  0.99438583D-05 -0.34261766D-04  0.21673885D-04 -0.17042465D-03  0.68460230D-04
 -0.55691066D-04  0.14059307D-03  0.34325069D-04 -0.93305900D-05 -0.80457695D-04
  0.56670477D+00  0.10563622D+01  0.17907937D+01  0.27117894D+01  0.33911022D+01
  0.29194231D+01  0.11223328D+01 -0.48632519D-02  0.45180261D-03  0.84840529D-03
  0.14446879D-02  0.22630950D-02  0.30328136D-02  0.32621999D-02  0.19586205D-02
 -0.12880713D-02  0.54867489D-01  0.86769510D-03  0.14541451D-03 -0.30145590D-02
 -0.29481729D-02 -0.19479825D-02 -0.88161713D-03 -0.86220230D-03 -0.56969351D-03
 -0.84863502D-02 -0.82994652D-02 -0.54838075D-02  0.66752390D-03  0.20544281D-03
  0.18435271D-02 -0.12475378D-03  0.33443539D-04 -0.10407520D-03 -0.91953433D-05
 -0.32715152D-05 -0.17680958D-04 -0.99547040D-05  0.65570892D-04 -0.55616188D-04
  0.14117818D-05 -0.22832054D-03  0.22520287D-04  0.20618307D-03  0.26516611D-03
 -0.47134917D-03 -0.61059943D-04 -0.49377208D-03 -0.19524611D-03  0.65844786D-06
 -0.14350775D-04  0.13692328D-04  0.92018497D-05  0.50509183D-04 -0.20904172D-04
  0.11851003D-05 -0.88421036D-04  0.11653109D-03 -0.29927931D-03  0.13856759D-03
 -0.24151478D-03  0.29572401D-03  0.12669552D-03 -0.10807848D-03 -0.30025505D-04
 -0.25090059D-04  0.13199229D-04  0.16390621D-04  0.70887044D-04 -0.58480945D-04
  0.99594943D-05  0.43831319D-05  0.18883257D-04 -0.59131356D-04  0.42088880D-04
 -0.18201679D+00 -0.33928719D+00 -0.57517520D+00 -0.87098476D+00 -0.10891695D+01
 -0.93767349D+00 -0.36047592D+00  0.15620012D-02 -0.15797969D-03 -0.29665787D-03
 -0.50515720D-03 -0.79132576D-03 -0.10604696D-02 -0.11406781D-02 -0.68486161D-03
  0.45039381D-03 -0.17647059D-01 -0.21197586D-04 -0.37976096D-04  0.14831379D-02
  0.14504765D-02  0.95839116D-03 -0.21818640D-02 -0.21338154D-02 -0.14099020D-02
 -0.14823360D-02 -0.14496922D-02 -0.95787295D-03 -0.35249354D-03  0.51082940D-03
  0.39087335D-03  0.93860907D-04  0.43569480D-05  0.23665380D-03  0.26085508D-05
  0.56648083D-08 -0.37809095D-05  0.76114306D-04  0.45763290D-04 -0.12187760D-03
 -0.24834732D-03  0.48963810D-04 -0.15139206D-03 -0.72219446D-04  0.20996650D-04
  0.51222796D-04 -0.83088893D-04 -0.16383099D-03  0.29691710D-03 -0.31892276D-04
 -0.26902403D-04  0.58794678D-04  0.23710005D-04  0.39137203D-05  0.71872139D-04
 -0.37481863D-04 -0.14773961D-04  0.56296480D-04 -0.38381113D-04 -0.21884822D-03
 -0.61545430D-04  0.15082670D-03  0.26317010D-03 -0.10734401D-03 -0.21063328D-03
  0.22305989D-04 -0.12893562D-04 -0.16154011D-04  0.29289763D-04  0.26453273D-04
 -0.26915786D-04 -0.96207731D-04  0.12227413D-04  0.75377818D-04  0.24135279D-04
 -0.17055567D-01 -0.31792316D-01 -0.53895791D-01 -0.81614112D-01 -0.10205873D+00
 -0.87863063D-01 -0.33777769D-01  0.14636460D-03 -0.23844549D-04 -0.44775841D-04
 -0.76245534D-04 -0.11943818D-03 -0.16006121D-03 -0.17216741D-03 -0.10336909D-03
  0.67979862D-04 -0.16705103D-02  0.17522814D-03  0.27641853D-05  0.49116810D-04
  0.48035168D-04  0.31738866D-04  0.22962975D-03  0.22457288D-03  0.14838480D-03
 -0.32485592D-03 -0.31770200D-03 -0.20991914D-03 -0.20301981D-04 -0.72652503D-04
  0.14342435D-03  0.33931896D-04  0.64966027D-04  0.28645569D-03  0.64034386D-06
 -0.38444842D-05 -0.22130624D-05 -0.13676125D-04  0.16624816D-03 -0.15257203D-03
  0.11816622D-03  0.45069371D-04  0.20294850D-03 -0.74834618D-05 -0.10213881D-03
  0.10962228D-03 -0.56496976D-04 -0.17788840D-04 -0.15359930D-03 -0.20134390D-04
 -0.51418170D-04  0.71552560D-04  0.49968936D-05  0.27780546D-04 -0.74296412D-04
 -0.70775840D-04  0.62060032D-04  0.61352371D-04  0.50386405D-04  0.26180778D-04
 -0.76156351D-04  0.16194111D-03 -0.21236088D-03 -0.10790076D-03  0.55265257D-04
  0.17814968D-04  0.25011181D-04 -0.36687963D-05  0.16116045D-05 -0.14473550D-04
 -0.16126229D-04 -0.55056509D-04 -0.60559993D-04  0.27132618D-04 -0.50017034D-04
  0.71220976D-05  0.13325472D-04  0.23023464D-04  0.37323720D-04  0.56679046D-04
  0.78777209D-04  0.93654737D-04  0.83420436D-04  0.41412402D-04  0.66722015D-05
  0.10243607D-06  0.18305224D-07  0.68403767D-09 -0.11941263D-04 -0.22304565D-04
 -0.38710654D-04 -0.62811659D-04 -0.97224988D-04 -0.13916874D-03 -0.18165867D-03
 -0.19358763D-03 -0.14471068D-03 -0.76390199D-05  0.98157614D-04  0.58316900D-04
 -0.21864465D-06  0.58707187D-05  0.10956851D-04  0.19042042D-04  0.30861548D-04
  0.47932816D-04  0.68665143D-04  0.90665923D-04  0.98036757D-04  0.76862088D-04
  0.38246321D-05 -0.65890243D-04 -0.68208616D-04  0.30865364D-04 -0.38192085D-04
  0.11714719D-03  0.15431993D-04  0.17138787D-02  0.22575628D-02  0.24906207D-02
  0.20687467D-02  0.10987617D-02  0.28340268D-03 -0.29132832D-06  0.88525873D-03
  0.11660844D-02  0.12864643D-02  0.10685565D-02  0.56753630D-03  0.14638417D-03
 -0.15047795D-06  0.21654479D-02  0.28523809D-02  0.31468444D-02  0.26138160D-02
  0.13882611D-02  0.35807305D-03 -0.36808692D-06 -0.15375302D-02 -0.20186644D-02
 -0.22983980D-02 -0.19461890D-02 -0.11148520D-02 -0.25359015D-03  0.11869415D-03
 -0.77034462D-03 -0.10114060D-02 -0.11515602D-02 -0.97509384D-03 -0.55857129D-03
 -0.12705559D-03  0.59469009D-04 -0.18450540D-02 -0.24224207D-02 -0.27581041D-02
 -0.23354493D-02 -0.13378353D-02 -0.30431111D-03  0.14243435D-03 -0.62802602D-04
 -0.53037338D-04 -0.16368391D-03  0.46787541D-04  0.28208240D-04  0.75390943D-04
  0.52555727D-06 -0.41501578D-06 -0.21269377D-05  0.16429224D-04  0.15691120D-04
 -0.32120344D-04 -0.29323174D-04 -0.11308404D-03 -0.14636629D-04  0.21392534D-04
 -0.31344385D-04  0.99518504D-05  0.70811868D-04  0.18134117D-03  0.28922517D-04
  0.55347821D-05 -0.74531267D-05  0.19183446D-05  0.12445460D-04  0.25780502D-04
  0.34811340D-05 -0.35038930D-05 -0.17606080D-05 -0.19787341D-04  0.22535369D-04
  0.12565937D-04  0.82927440D-04 -0.12023690D-04 -0.72841125D-05 -0.23565415D-04
  0.51123354D-04  0.39993606D-06 -0.88712535D-05 -0.12171652D-04 -0.24959677D-04
  0.24668240D-04  0.42793038D-04  0.23759869D-04  0.19455206D-05 -0.62780827D-05
  0.10769208D-04
MO    3     MO 0.0        OCC NO =    2.0000000  ORB. ENERGY =  -26.372988
  0.15820717D-03  0.29493414D-03  0.49849066D-03  0.74939475D-03  0.92071804D-03
  0.77769357D-03  0.29331740D-03 -0.14516442D-05 -0.11838296D-03 -0.22165024D-03
 -0.37737851D-03 -0.58374717D-03 -0.76877448D-03 -0.79880593D-03 -0.50760531D-03
  0.34018527D-03 -0.20727068D-03 -0.93054416D-03 -0.67439723D-05 -0.11752944D-03
 -0.11019132D-03 -0.78462783D-04  0.20810894D-03  0.19511535D-03  0.13893376D-03
  0.30529515D-04  0.28623361D-04  0.20381538D-04  0.17729585D-03 -0.35040818D-03
 -0.51146964D-04 -0.70662085D-04  0.17691692D-03  0.25454970D-04  0.16531520D-05
 -0.18793123D-05 -0.30072841D-06 -0.58540676D-04  0.35636637D-04  0.22904039D-04
 -0.36383718D-03 -0.11993098D-03  0.37820165D-03 -0.93524782D-04  0.64943207D-04
  0.28581575D-04 -0.44593444D-03 -0.16384690D-03  0.55587631D-03  0.21243857D-05
 -0.28712461D-05  0.74686039D-06 -0.14296162D-05  0.26585311D-05 -0.14911855D-04
 -0.16408619D-03  0.23597661D-04  0.21721217D-03  0.33406313D-03 -0.12016575D-03
 -0.16776759D-03  0.15819545D-03  0.49372768D-04 -0.48386892D-03  0.98779854D-03
  0.16502387D-04 -0.14599833D-04  0.60832909D-05  0.17950686D-04  0.70018569D-04
 -0.45911138D-04 -0.67457848D-04 -0.26219070D-04  0.27661266D-04  0.25178057D-03
  0.18069451D+00  0.33682239D+00  0.57099675D+00  0.86465737D+00  0.10812571D+01
  0.93086162D+00  0.35785719D+00 -0.15506538D-02  0.12848414D-03  0.24127047D-03
  0.41084199D-03  0.64358155D-03  0.86247500D-03  0.92770814D-03  0.55699475D-03
 -0.36630318D-03  0.17464977D-01  0.59051769D-03  0.57039847D-04 -0.99103702D-03
 -0.96921256D-03 -0.64039972D-03 -0.13466528D-03 -0.13169971D-03 -0.87019564D-04
 -0.25584001D-02 -0.25020594D-02 -0.16532164D-02  0.20845143D-03 -0.16948594D-04
  0.47159601D-03  0.76464070D-04 -0.21644873D-03 -0.18949940D-03 -0.42675645D-05
  0.21206297D-05 -0.98740660D-05  0.52347437D-04  0.32432062D-05 -0.55590643D-04
 -0.12263176D-03  0.15106880D-03 -0.25951765D-03  0.25677600D-04  0.10290497D-03
 -0.12858257D-03  0.36592737D-04 -0.30588915D-03  0.12596969D-03 -0.28879620D-04
  0.41588930D-06  0.28463731D-04 -0.18465678D-04 -0.28220947D-04  0.11624569D-03
 -0.80368590D-04  0.58703340D-04  0.65373791D-04  0.56033496D-05 -0.57898394D-04
  0.62422393D-04  0.23550242D-03 -0.11821163D-03 -0.25854377D-03  0.17429357D-03
  0.22772619D-05 -0.17928074D-05 -0.83302644D-05 -0.40220337D-04  0.50174288D-04
  0.10998879D-04  0.33388551D-04 -0.44795866D-04  0.13991914D-04 -0.55185218D-04
  0.56609012D+00  0.10552165D+01  0.17888514D+01  0.27088482D+01  0.33874242D+01
  0.29162567D+01  0.11211155D+01 -0.48579772D-02  0.44243219D-03  0.83080929D-03
  0.14147249D-02  0.22161582D-02  0.29699128D-02  0.31945416D-02  0.19179986D-02
 -0.12613566D-02  0.54791352D-01  0.10478588D-02  0.15155002D-03 -0.45703025D-02
 -0.44696560D-02 -0.29532907D-02  0.65919987D-02  0.64468307D-02  0.42596936D-02
  0.39871546D-02  0.38993501D-02  0.25764655D-02  0.98879474D-03 -0.13966780D-02
 -0.82915471D-03 -0.10196156D-03  0.11473507D-03  0.16481531D-03 -0.13551341D-04
  0.15740728D-04  0.86398045D-05 -0.79120065D-05  0.15912656D-04 -0.80006497D-05
  0.82874379D-04  0.13700086D-03 -0.15718172D-03  0.55328365D-04 -0.19257890D-03
  0.13725053D-03  0.68072441D-03  0.37065325D-03 -0.51402578D-03 -0.95266758D-05
 -0.58212241D-05  0.15347900D-04 -0.35670031D-04 -0.26219859D-04  0.53090799D-04
 -0.50623737D-04 -0.80756935D-05  0.74888792D-04  0.27454402D-03 -0.37351321D-05
 -0.53824113D-04 -0.12267281D-03  0.27962213D-04 -0.17084226D-03  0.64484656D-03
 -0.16285022D-04  0.19484951D-05  0.14680172D-04  0.25487007D-04 -0.30497428D-04
 -0.97603641D-05  0.23368060D-04  0.24651942D-04 -0.34280152D-04 -0.19369255D-04
 -0.38708644D-01 -0.72154590D-01 -0.12231977D+00 -0.18522818D+00 -0.23162849D+00
 -0.19941055D+00 -0.76660697D-01  0.33218335D-03 -0.50714867D-04 -0.95233537D-04
 -0.16216629D-03 -0.25403253D-03 -0.34043348D-03 -0.36618211D-03 -0.21985526D-03
  0.14458607D-03 -0.37849720D-02  0.33137525D-03  0.36625305D-05  0.67814280D-04
  0.66320884D-04  0.43821012D-04  0.72908154D-03  0.71302582D-03  0.47112631D-03
 -0.32675592D-03 -0.31956015D-03 -0.21114691D-03 -0.20074526D-04 -0.26704571D-03
  0.10405663D-03  0.13815383D-03 -0.21587673D-03 -0.19126488D-04  0.30543722D-06
 -0.23782784D-05  0.38220937D-05  0.29675842D-06 -0.77583720D-04  0.77286962D-04
  0.18496631D-03 -0.17690608D-03 -0.56041767D-04 -0.28733733D-04  0.80652007D-04
 -0.51918274D-04 -0.10947989D-03  0.89644612D-04 -0.85463880D-06 -0.30807752D-04
  0.50131091D-04 -0.19323339D-04 -0.61022678D-04  0.81299050D-05  0.12891278D-04
 -0.13689298D-03 -0.49863419D-04  0.10068239D-03  0.24113735D-03  0.26918936D-04
 -0.13624979D-03  0.16954160D-03  0.12267132D-03 -0.16579737D-03  0.13653871D-03