 Molden2AIM, Version 4.0.0 (06/02/2016)           Time: Wed Jun 27 23:47:04 2018
GAUSSIAN             38 MOL ORBITALS    665 PRIMITIVES        7 NUCLEI
  C    1    (CENTRE  1)   2.36968066  0.01045208 -0.03914568  CHARGE =  6.0
  N    2    (CENTRE  2)   0.26153054  1.59198655 -0.55376156  CHARGE =  7.0
  H    3    (CENTRE  3)   0.31917474  3.08032539  0.66830164  CHARGE =  1.0
  F    4    (CENTRE  4)   4.45174310  1.43710081 -0.32361560  CHARGE =  9.0
  F    5    (CENTRE  5)   2.45699356 -0.96647019  2.31800609  CHARGE =  9.0
  F    6    (CENTRE  6)   2.46338273 -1.92212359 -1.65140520  CHARGE =  9.0
  Br   7    (CENTRE  7)  -2.85548578 -0.04223916  0.00195587  CHARGE = 35.0
CENTRE ASSIGNMENTS    1  1  1  1  1  1  1  1  1  1  1  1  1  1  1  1  1  1  1  1
CENTRE ASSIGNMENTS    1  1  1  1  1  1  1  1  1  1  1  1  1  1  1  1  1  1  1  1
CENTRE ASSIGNMENTS    1  1  1  1  1  1  1  1  1  1  1  1  1  1  1  1  1  1  1  1
CENTRE ASSIGNMENTS    1  1  1  1  1  1  1  1  1  1  1  1  1  1  1  2  2  2  2  2
CENTRE ASSIGNMENTS    2  2  2  2  2  2  2  2  2  2  2  2  2  2  2  2  2  2  2  2
CENTRE ASSIGNMENTS    2  2  2  2  2  2  2  2  2  2  2  2  2  2  2  2  2  2  2  2
CENTRE ASSIGNMENTS    2  2  2  2  2  2  2  2  2  2  2  2  2  2  2  2  2  2  2  2
CENTRE ASSIGNMENTS    2  2  2  2  2  2  2  2  2  2  3  3  3  3  3  3  3  3  3  3
CENTRE ASSIGNMENTS    3  3  3  3  3  3  3  3  3  3  3  3  3  3  3  3  3  4  4  4
CENTRE ASSIGNMENTS    4  4  4  4  4  4  4  4  4  4  4  4  4  4  4  4  4  4  4  4
CENTRE ASSIGNMENTS    4  4  4  4  4  4  4  4  4  4  4  4  4  4  4  4  4  4  4  4
CENTRE ASSIGNMENTS    4  4  4  4  4  4  4  4  4  4  4  4  4  4  4  4  4  4  4  4
CENTRE ASSIGNMENTS    4  4  4  4  4  4  4  4  4  4  4  4  5  5  5  5  5  5  5  5
CENTRE ASSIGNMENTS    5  5  5  5  5  5  5  5  5  5  5  5  5  5  5  5  5  5  5  5
CENTRE ASSIGNMENTS    5  5  5  5  5  5  5  5  5  5  5  5  5  5  5  5  5  5  5  5
CENTRE ASSIGNMENTS    5  5  5  5  5  5  5  5  5  5  5  5  5  5  5  5  5  5  5  5
CENTRE ASSIGNMENTS    5  5  5  5  5  5  5  6  6  6  6  6  6  6  6  6  6  6  6  6
CENTRE ASSIGNMENTS    6  6  6  6  6  6  6  6  6  6  6  6  6  6  6  6  6  6  6  6
CENTRE ASSIGNMENTS    6  6  6  6  6  6  6  6  6  6  6  6  6  6  6  6  6  6  6  6
CENTRE ASSIGNMENTS    6  6  6  6  6  6  6  6  6  6  6  6  6  6  6  6  6  6  6  6
CENTRE ASSIGNMENTS    6  6  7  7  7  7  7  7  7  7  7  7  7  7  7  7  7  7  7  7
CENTRE ASSIGNMENTS    7  7  7  7  7  7  7  7  7  7  7  7  7  7  7  7  7  7  7  7
CENTRE ASSIGNMENTS    7  7  7  7  7  7  7  7  7  7  7  7  7  7  7  7  7  7  7  7
CENTRE ASSIGNMENTS    7  7  7  7  7  7  7  7  7  7  7  7  7  7  7  7  7  7  7  7
CENTRE ASSIGNMENTS    7  7  7  7  7  7  7  7  7  7  7  7  7  7  7  7  7  7  7  7
CENTRE ASSIGNMENTS    7  7  7  7  7  7  7  7  7  7  7  7  7  7  7  7  7  7  7  7
CENTRE ASSIGNMENTS    7  7  7  7  7  7  7  7  7  7  7  7  7  7  7  7  7  7  7  7
CENTRE ASSIGNMENTS    7  7  7  7  7  7  7  7  7  7  7  7  7  7  7  7  7  7  7  7
CENTRE ASSIGNMENTS    7  7  7  7  7  7  7  7  7  7  7  7  7  7  7  7  7  7  7  7
CENTRE ASSIGNMENTS    7  7  7  7  7  7  7  7  7  7  7  7  7  7  7  7  7  7  7  7
CENTRE ASSIGNMENTS    7  7  7  7  7  7  7  7  7  7  7  7  7  7  7  7  7  7  7  7
CENTRE ASSIGNMENTS    7  7  7  7  7  7  7  7  7  7  7  7  7  7  7  7  7  7  7  7
CENTRE ASSIGNMENTS    7  7  7  7  7  7  7  7  7  7  7  7  7  7  7  7  7  7  7  7
CENTRE ASSIGNMENTS    7  7  7  7  7
TYPE ASSIGNMENTS      1  1  1  1  1  1  1  1  1  1  1  1  1  1  1  1  1  1  1  2
TYPE ASSIGNMENTS      2  2  3  3  3  4  4  4  2  3  4  2  3  4  2  3  4  5  6  7
TYPE ASSIGNMENTS      8  9 10  5  6  7  8  9 10  5  6  7  8  9 10 11 12 13 17 14
TYPE ASSIGNMENTS     15 18 19 16 20 11 12 13 17 14 15 18 19 16 20  1  1  1  1  1
TYPE ASSIGNMENTS      1  1  1  1  1  1  1  1  1  1  1  1  1  1  2  2  2  3  3  3
TYPE ASSIGNMENTS      4  4  4  2  3  4  2  3  4  2  3  4  5  6  7  8  9 10  5  6
TYPE ASSIGNMENTS      7  8  9 10  5  6  7  8  9 10 11 12 13 17 14 15 18 19 16 20
TYPE ASSIGNMENTS     11 12 13 17 14 15 18 19 16 20  1  1  1  1  1  1  2  3  4  2
TYPE ASSIGNMENTS      3  4  2  3  4  5  6  7  8  9 10  5  6  7  8  9 10  1  1  1
TYPE ASSIGNMENTS      1  1  1  1  1  1  1  1  1  1  1  1  1  1  1  1  2  2  2  3
TYPE ASSIGNMENTS      3  3  4  4  4  2  3  4  2  3  4  2  3  4  5  6  7  8  9 10
TYPE ASSIGNMENTS      5  6  7  8  9 10  5  6  7  8  9 10 11 12 13 17 14 15 18 19
TYPE ASSIGNMENTS     16 20 11 12 13 17 14 15 18 19 16 20  1  1  1  1  1  1  1  1
TYPE ASSIGNMENTS      1  1  1  1  1  1  1  1  1  1  1  2  2  2  3  3  3  4  4  4
TYPE ASSIGNMENTS      2  3  4  2  3  4  2  3  4  5  6  7  8  9 10  5  6  7  8  9
TYPE ASSIGNMENTS     10  5  6  7  8  9 10 11 12 13 17 14 15 18 19 16 20 11 12 13
TYPE ASSIGNMENTS     17 14 15 18 19 16 20  1  1  1  1  1  1  1  1  1  1  1  1  1
TYPE ASSIGNMENTS      1  1  1  1  1  1  2  2  2  3  3  3  4  4  4  2  3  4  2  3
TYPE ASSIGNMENTS      4  2  3  4  5  6  7  8  9 10  5  6  7  8  9 10  5  6  7  8
TYPE ASSIGNMENTS      9 10 11 12 13 17 14 15 18 19 16 20 11 12 13 17 14 15 18 19
TYPE ASSIGNMENTS     16 20  1  1  1  1  1  1  1  1  1  1  1  1  1  1  1  1  1  1
TYPE ASSIGNMENTS      1  1  1  1  1  1  1  1  1  1  1  1  1  1  1  1  1  1  1  1
TYPE ASSIGNMENTS      1  1  1  1  1  1  1  1  1  1  1  1  1  1  1  1  1  1  1  1
TYPE ASSIGNMENTS      1  1  1  1  1  1  1  1  1  1  1  1  1  1  1  1  1  2  2  2
TYPE ASSIGNMENTS      2  2  2  2  2  2  2  2  3  3  3  3  3  3  3  3  3  3  3  4
TYPE ASSIGNMENTS      4  4  4  4  4  4  4  4  4  4  2  2  2  2  2  2  2  2  2  2
TYPE ASSIGNMENTS      2  3  3  3  3  3  3  3  3  3  3  3  4  4  4  4  4  4  4  4
TYPE ASSIGNMENTS      4  4  4  2  2  2  2  2  2  2  2  2  2  2  3  3  3  3  3  3
TYPE ASSIGNMENTS      3  3  3  3  3  4  4  4  4  4  4  4  4  4  4  4  2  3  4  2
TYPE ASSIGNMENTS      3  4  2  3  4  5  5  5  5  5  5  5  6  6  6  6  6  6  6  7
TYPE ASSIGNMENTS      7  7  7  7  7  7  8  8  8  8  8  8  8  9  9  9  9  9  9  9
TYPE ASSIGNMENTS     10 10 10 10 10 10 10  5  6  7  8  9 10  5  6  7  8  9 10  5
TYPE ASSIGNMENTS      6  7  8  9 10 11 12 13 17 14 15 18 19 16 20 11 12 13 17 14
TYPE ASSIGNMENTS     15 18 19 16 20
EXPONENTS  0.8236000D+04 0.1235000D+04 0.2808000D+03 0.7927000D+02 0.2559000D+02
EXPONENTS  0.8997000D+01 0.3319000D+01 0.3643000D+00 0.8236000D+04 0.1235000D+04
EXPONENTS  0.2808000D+03 0.7927000D+02 0.2559000D+02 0.8997000D+01 0.3319000D+01
EXPONENTS  0.3643000D+00 0.9059000D+00 0.1285000D+00 0.4402000D-01 0.1871000D+02
EXPONENTS  0.4133000D+01 0.1200000D+01 0.1871000D+02 0.4133000D+01 0.1200000D+01
EXPONENTS  0.1871000D+02 0.4133000D+01 0.1200000D+01 0.3827000D+00 0.3827000D+00
EXPONENTS  0.3827000D+00 0.1209000D+00 0.1209000D+00 0.1209000D+00 0.3569000D-01
EXPONENTS  0.3569000D-01 0.3569000D-01 0.1097000D+01 0.1097000D+01 0.1097000D+01
EXPONENTS  0.1097000D+01 0.1097000D+01 0.1097000D+01 0.3180000D+00 0.3180000D+00
EXPONENTS  0.3180000D+00 0.3180000D+00 0.3180000D+00 0.3180000D+00 0.1000000D+00
EXPONENTS  0.1000000D+00 0.1000000D+00 0.1000000D+00 0.1000000D+00 0.1000000D+00
EXPONENTS  0.7610000D+00 0.7610000D+00 0.7610000D+00 0.7610000D+00 0.7610000D+00
EXPONENTS  0.7610000D+00 0.7610000D+00 0.7610000D+00 0.7610000D+00 0.7610000D+00
EXPONENTS  0.2680000D+00 0.2680000D+00 0.2680000D+00 0.2680000D+00 0.2680000D+00
EXPONENTS  0.2680000D+00 0.2680000D+00 0.2680000D+00 0.2680000D+00 0.2680000D+00
EXPONENTS  0.1142000D+05 0.1712000D+04 0.3893000D+03 0.1100000D+03 0.3557000D+02
EXPONENTS  0.1254000D+02 0.4644000D+01 0.5118000D+00 0.1142000D+05 0.1712000D+04
EXPONENTS  0.3893000D+03 0.1100000D+03 0.3557000D+02 0.1254000D+02 0.4644000D+01
EXPONENTS  0.5118000D+00 0.1293000D+01 0.1787000D+00 0.5760000D-01 0.2663000D+02
EXPONENTS  0.5948000D+01 0.1742000D+01 0.2663000D+02 0.5948000D+01 0.1742000D+01
EXPONENTS  0.2663000D+02 0.5948000D+01 0.1742000D+01 0.5550000D+00 0.5550000D+00
EXPONENTS  0.5550000D+00 0.1725000D+00 0.1725000D+00 0.1725000D+00 0.4910000D-01
EXPONENTS  0.4910000D-01 0.4910000D-01 0.1654000D+01 0.1654000D+01 0.1654000D+01
EXPONENTS  0.1654000D+01 0.1654000D+01 0.1654000D+01 0.4690000D+00 0.4690000D+00
EXPONENTS  0.4690000D+00 0.4690000D+00 0.4690000D+00 0.4690000D+00 0.1510000D+00
EXPONENTS  0.1510000D+00 0.1510000D+00 0.1510000D+00 0.1510000D+00 0.1510000D+00
EXPONENTS  0.1093000D+01 0.1093000D+01 0.1093000D+01 0.1093000D+01 0.1093000D+01
EXPONENTS  0.1093000D+01 0.1093000D+01 0.1093000D+01 0.1093000D+01 0.1093000D+01
EXPONENTS  0.3640000D+00 0.3640000D+00 0.3640000D+00 0.3640000D+00 0.3640000D+00
EXPONENTS  0.3640000D+00 0.3640000D+00 0.3640000D+00 0.3640000D+00 0.3640000D+00
EXPONENTS  0.3387000D+02 0.5095000D+01 0.1159000D+01 0.3258000D+00 0.1027000D+00
EXPONENTS  0.2526000D-01 0.1407000D+01 0.1407000D+01 0.1407000D+01 0.3880000D+00
EXPONENTS  0.3880000D+00 0.3880000D+00 0.1020000D+00 0.1020000D+00 0.1020000D+00
EXPONENTS  0.1057000D+01 0.1057000D+01 0.1057000D+01 0.1057000D+01 0.1057000D+01
EXPONENTS  0.1057000D+01 0.2470000D+00 0.2470000D+00 0.2470000D+00 0.2470000D+00
EXPONENTS  0.2470000D+00 0.2470000D+00 0.1950000D+05 0.2923000D+04 0.6645000D+03
EXPONENTS  0.1875000D+03 0.6062000D+02 0.2142000D+02 0.7950000D+01 0.8815000D+00
EXPONENTS  0.1950000D+05 0.2923000D+04 0.6645000D+03 0.1875000D+03 0.6062000D+02
EXPONENTS  0.2142000D+02 0.7950000D+01 0.8815000D+00 0.2257000D+01 0.3041000D+00
EXPONENTS  0.9158000D-01 0.4388000D+02 0.9926000D+01 0.2930000D+01 0.4388000D+02
EXPONENTS  0.9926000D+01 0.2930000D+01 0.4388000D+02 0.9926000D+01 0.2930000D+01
EXPONENTS  0.9132000D+00 0.9132000D+00 0.9132000D+00 0.2672000D+00 0.2672000D+00
EXPONENTS  0.2672000D+00 0.7361000D-01 0.7361000D-01 0.7361000D-01 0.3107000D+01
EXPONENTS  0.3107000D+01 0.3107000D+01 0.3107000D+01 0.3107000D+01 0.3107000D+01
EXPONENTS  0.8550000D+00 0.8550000D+00 0.8550000D+00 0.8550000D+00 0.8550000D+00
EXPONENTS  0.8550000D+00 0.2920000D+00 0.2920000D+00 0.2920000D+00 0.2920000D+00
EXPONENTS  0.2920000D+00 0.2920000D+00 0.1917000D+01 0.1917000D+01 0.1917000D+01
EXPONENTS  0.1917000D+01 0.1917000D+01 0.1917000D+01 0.1917000D+01 0.1917000D+01
EXPONENTS  0.1917000D+01 0.1917000D+01 0.7240000D+00 0.7240000D+00 0.7240000D+00
EXPONENTS  0.7240000D+00 0.7240000D+00 0.7240000D+00 0.7240000D+00 0.7240000D+00
EXPONENTS  0.7240000D+00 0.7240000D+00 0.1950000D+05 0.2923000D+04 0.6645000D+03
EXPONENTS  0.1875000D+03 0.6062000D+02 0.2142000D+02 0.7950000D+01 0.8815000D+00
EXPONENTS  0.1950000D+05 0.2923000D+04 0.6645000D+03 0.1875000D+03 0.6062000D+02
EXPONENTS  0.2142000D+02 0.7950000D+01 0.8815000D+00 0.2257000D+01 0.3041000D+00
EXPONENTS  0.9158000D-01 0.4388000D+02 0.9926000D+01 0.2930000D+01 0.4388000D+02
EXPONENTS  0.9926000D+01 0.2930000D+01 0.4388000D+02 0.9926000D+01 0.2930000D+01
EXPONENTS  0.9132000D+00 0.9132000D+00 0.9132000D+00 0.2672000D+00 0.2672000D+00
EXPONENTS  0.2672000D+00 0.7361000D-01 0.7361000D-01 0.7361000D-01 0.3107000D+01
EXPONENTS  0.3107000D+01 0.3107000D+01 0.3107000D+01 0.3107000D+01 0.3107000D+01
EXPONENTS  0.8550000D+00 0.8550000D+00 0.8550000D+00 0.8550000D+00 0.8550000D+00
EXPONENTS  0.8550000D+00 0.2920000D+00 0.2920000D+00 0.2920000D+00 0.2920000D+00
EXPONENTS  0.2920000D+00 0.2920000D+00 0.1917000D+01 0.1917000D+01 0.1917000D+01
EXPONENTS  0.1917000D+01 0.1917000D+01 0.1917000D+01 0.1917000D+01 0.1917000D+01
EXPONENTS  0.1917000D+01 0.1917000D+01 0.7240000D+00 0.7240000D+00 0.7240000D+00
EXPONENTS  0.7240000D+00 0.7240000D+00 0.7240000D+00 0.7240000D+00 0.7240000D+00
EXPONENTS  0.7240000D+00 0.7240000D+00 0.1950000D+05 0.2923000D+04 0.6645000D+03
EXPONENTS  0.1875000D+03 0.6062000D+02 0.2142000D+02 0.7950000D+01 0.8815000D+00
EXPONENTS  0.1950000D+05 0.2923000D+04 0.6645000D+03 0.1875000D+03 0.6062000D+02
EXPONENTS  0.2142000D+02 0.7950000D+01 0.8815000D+00 0.2257000D+01 0.3041000D+00
EXPONENTS  0.9158000D-01 0.4388000D+02 0.9926000D+01 0.2930000D+01 0.4388000D+02
EXPONENTS  0.9926000D+01 0.2930000D+01 0.4388000D+02 0.9926000D+01 0.2930000D+01
EXPONENTS  0.9132000D+00 0.9132000D+00 0.9132000D+00 0.2672000D+00 0.2672000D+00
EXPONENTS  0.2672000D+00 0.7361000D-01 0.7361000D-01 0.7361000D-01 0.3107000D+01
EXPONENTS  0.3107000D+01 0.3107000D+01 0.3107000D+01 0.3107000D+01 0.3107000D+01
EXPONENTS  0.8550000D+00 0.8550000D+00 0.8550000D+00 0.8550000D+00 0.8550000D+00
EXPONENTS  0.8550000D+00 0.2920000D+00 0.2920000D+00 0.2920000D+00 0.2920000D+00
EXPONENTS  0.2920000D+00 0.2920000D+00 0.1917000D+01 0.1917000D+01 0.1917000D+01
EXPONENTS  0.1917000D+01 0.1917000D+01 0.1917000D+01 0.1917000D+01 0.1917000D+01
EXPONENTS  0.1917000D+01 0.1917000D+01 0.7240000D+00 0.7240000D+00 0.7240000D+00
EXPONENTS  0.7240000D+00 0.7240000D+00 0.7240000D+00 0.7240000D+00 0.7240000D+00
EXPONENTS  0.7240000D+00 0.7240000D+00 0.1063900D+08 0.1593400D+07 0.3626100D+06
EXPONENTS  0.1027000D+06 0.3350100D+05 0.1209300D+05 0.4715900D+04 0.1955600D+04
EXPONENTS  0.8526100D+03 0.3876700D+03 0.1826800D+03 0.8824500D+02 0.3926300D+02
EXPONENTS  0.1923400D+02 0.9405700D+01 0.4160100D+01 0.1899500D+01 0.3011400D+00
EXPONENTS  0.1063900D+08 0.1593400D+07 0.3626100D+06 0.1027000D+06 0.3350100D+05
EXPONENTS  0.1209300D+05 0.4715900D+04 0.1955600D+04 0.8526100D+03 0.3876700D+03
EXPONENTS  0.1826800D+03 0.8824500D+02 0.3926300D+02 0.1923400D+02 0.9405700D+01
EXPONENTS  0.4160100D+01 0.1899500D+01 0.3011400D+00 0.1063900D+08 0.1593400D+07
EXPONENTS  0.3626100D+06 0.1027000D+06 0.3350100D+05 0.1209300D+05 0.4715900D+04
EXPONENTS  0.1955600D+04 0.8526100D+03 0.3876700D+03 0.1826800D+03 0.8824500D+02
EXPONENTS  0.3926300D+02 0.1923400D+02 0.9405700D+01 0.4160100D+01 0.1899500D+01
EXPONENTS  0.3011400D+00 0.1063900D+08 0.1593400D+07 0.3626100D+06 0.1027000D+06
EXPONENTS  0.3350100D+05 0.1209300D+05 0.4715900D+04 0.1955600D+04 0.8526100D+03
EXPONENTS  0.3876700D+03 0.1826800D+03 0.8824500D+02 0.3926300D+02 0.1923400D+02
EXPONENTS  0.9405700D+01 0.4160100D+01 0.1899500D+01 0.3011400D+00 0.6047200D+00
EXPONENTS  0.1251500D+00 0.4559300D-01 0.8676500D+04 0.2055900D+04 0.6662300D+03
EXPONENTS  0.2531000D+03 0.1061200D+03 0.4724200D+02 0.2182500D+02 0.9968400D+01
EXPONENTS  0.4517100D+01 0.1998200D+01 0.2814500D+00 0.8676500D+04 0.2055900D+04
EXPONENTS  0.6662300D+03 0.2531000D+03 0.1061200D+03 0.4724200D+02 0.2182500D+02
EXPONENTS  0.9968400D+01 0.4517100D+01 0.1998200D+01 0.2814500D+00 0.8676500D+04
EXPONENTS  0.2055900D+04 0.6662300D+03 0.2531000D+03 0.1061200D+03 0.4724200D+02
EXPONENTS  0.2182500D+02 0.9968400D+01 0.4517100D+01 0.1998200D+01 0.2814500D+00
EXPONENTS  0.8676500D+04 0.2055900D+04 0.6662300D+03 0.2531000D+03 0.1061200D+03
EXPONENTS  0.4724200D+02 0.2182500D+02 0.9968400D+01 0.4517100D+01 0.1998200D+01
EXPONENTS  0.2814500D+00 0.8676500D+04 0.2055900D+04 0.6662300D+03 0.2531000D+03
EXPONENTS  0.1061200D+03 0.4724200D+02 0.2182500D+02 0.9968400D+01 0.4517100D+01
EXPONENTS  0.1998200D+01 0.2814500D+00 0.8676500D+04 0.2055900D+04 0.6662300D+03
EXPONENTS  0.2531000D+03 0.1061200D+03 0.4724200D+02 0.2182500D+02 0.9968400D+01
EXPONENTS  0.4517100D+01 0.1998200D+01 0.2814500D+00 0.8676500D+04 0.2055900D+04
EXPONENTS  0.6662300D+03 0.2531000D+03 0.1061200D+03 0.4724200D+02 0.2182500D+02
EXPONENTS  0.9968400D+01 0.4517100D+01 0.1998200D+01 0.2814500D+00 0.8676500D+04
EXPONENTS  0.2055900D+04 0.6662300D+03 0.2531000D+03 0.1061200D+03 0.4724200D+02
EXPONENTS  0.2182500D+02 0.9968400D+01 0.4517100D+01 0.1998200D+01 0.2814500D+00
EXPONENTS  0.8676500D+04 0.2055900D+04 0.6662300D+03 0.2531000D+03 0.1061200D+03
EXPONENTS  0.4724200D+02 0.2182500D+02 0.9968400D+01 0.4517100D+01 0.1998200D+01
EXPONENTS  0.2814500D+00 0.7098800D+00 0.7098800D+00 0.7098800D+00 0.1020400D+00
EXPONENTS  0.1020400D+00 0.1020400D+00 0.3514200D-01 0.3514200D-01 0.3514200D-01
EXPONENTS  0.4038300D+03 0.1211700D+03 0.4634500D+02 0.1972100D+02 0.8862400D+01
EXPONENTS  0.3996200D+01 0.1763600D+01 0.4038300D+03 0.1211700D+03 0.4634500D+02
EXPONENTS  0.1972100D+02 0.8862400D+01 0.3996200D+01 0.1763600D+01 0.4038300D+03
EXPONENTS  0.1211700D+03 0.4634500D+02 0.1972100D+02 0.8862400D+01 0.3996200D+01
EXPONENTS  0.1763600D+01 0.4038300D+03 0.1211700D+03 0.4634500D+02 0.1972100D+02
EXPONENTS  0.8862400D+01 0.3996200D+01 0.1763600D+01 0.4038300D+03 0.1211700D+03
EXPONENTS  0.4634500D+02 0.1972100D+02 0.8862400D+01 0.3996200D+01 0.1763600D+01
EXPONENTS  0.4038300D+03 0.1211700D+03 0.4634500D+02 0.1972100D+02 0.8862400D+01
EXPONENTS  0.3996200D+01 0.1763600D+01 0.7061900D+00 0.7061900D+00 0.7061900D+00
EXPONENTS  0.7061900D+00 0.7061900D+00 0.7061900D+00 0.2639000D+00 0.2639000D+00
EXPONENTS  0.2639000D+00 0.2639000D+00 0.2639000D+00 0.2639000D+00 0.1047000D+00
EXPONENTS  0.1047000D+00 0.1047000D+00 0.1047000D+00 0.1047000D+00 0.1047000D+00
EXPONENTS  0.5515000D+00 0.5515000D+00 0.5515000D+00 0.5515000D+00 0.5515000D+00
EXPONENTS  0.5515000D+00 0.5515000D+00 0.5515000D+00 0.5515000D+00 0.5515000D+00
EXPONENTS  0.2580000D+00 0.2580000D+00 0.2580000D+00 0.2580000D+00 0.2580000D+00
EXPONENTS  0.2580000D+00 0.2580000D+00 0.2580000D+00 0.2580000D+00 0.2580000D+00
MO    1     MO 0.0        OCC NO =    2.0000000  ORB. ENERGY = -490.073372
 -0.18787556D-06 -0.35024276D-06 -0.59197197D-06 -0.88992777D-06 -0.10933791D-05
 -0.92353343D-06 -0.34832283D-06  0.17238691D-08  0.13417795D-06  0.25122346D-06
  0.42772943D-06  0.66163239D-06  0.87134659D-06  0.90538492D-06  0.57533147D-06
 -0.38557377D-06 -0.24467162D-06  0.17823893D-05 -0.21361613D-06  0.89951606D-07
  0.84335348D-07  0.60051792D-07  0.31497593D-07  0.29530995D-07  0.21027828D-07
  0.48402576D-08  0.45380492D-08  0.32313614D-08 -0.23314732D-06 -0.18705316D-06
  0.44820219D-07 -0.65742087D-06 -0.16512434D-06 -0.37362194D-07  0.13859025D-07
  0.12036561D-07 -0.69911639D-08  0.76869461D-07 -0.33150574D-07 -0.43718887D-07
 -0.29116280D-06  0.94735617D-07 -0.36682638D-07  0.60606006D-07 -0.11322545D-06
  0.52619440D-07  0.64447613D-07  0.37232274D-08  0.63226993D-07  0.10466550D-06
 -0.82545303D-07 -0.22120199D-07  0.50760093D-07 -0.12685165D-07  0.64018279D-07
 -0.88102635D-07 -0.53428269D-07  0.34999213D-07  0.11992831D-06  0.15612393D-06
 -0.70659044D-07  0.14437960D-06  0.41608782D-08 -0.34338594D-07  0.12410419D-06
 -0.59800330D-07  0.34640260D-07  0.88625942D-07  0.12943781D-06 -0.15620410D-07
 -0.34752457D-07  0.49963182D-07 -0.88300371D-07 -0.23112537D-06 -0.10442122D-06
 -0.15909555D-06 -0.29645113D-06 -0.50137319D-06 -0.75504024D-06 -0.93478879D-06
 -0.79546307D-06 -0.30268837D-06  0.14176188D-08  0.10481937D-06  0.19653730D-06
  0.33436843D-06  0.51923887D-06  0.68906018D-06  0.72617484D-06  0.45027473D-06
 -0.29952292D-06  0.78294741D-07  0.50299895D-07  0.12422768D-05 -0.21004395D-06
 -0.20174470D-06 -0.14147731D-06 -0.68371240D-07 -0.65669759D-07 -0.46052168D-07
  0.50765127D-07  0.48759298D-07  0.34193385D-07  0.33110518D-06  0.81870026D-07
 -0.37960403D-07 -0.11663636D-05  0.26987380D-06 -0.76331229D-07 -0.11765187D-07
 -0.87586049D-07  0.59186288D-07 -0.53746314D-06  0.19788279D-06  0.33958035D-06
 -0.12598181D-05  0.21676189D-06  0.36505173D-07  0.16335510D-06 -0.46264414D-07
 -0.11709068D-06  0.66451842D-06  0.25195288D-07  0.33139492D-07  0.26211617D-06
 -0.18737342D-06 -0.74742748D-07  0.24674432D-06 -0.12209170D-07  0.75993189D-07
  0.14577780D-07 -0.14088820D-06  0.28924275D-07  0.58002447D-07  0.57333405D-06
 -0.17691342D-06 -0.10173579D-06 -0.15066944D-06  0.90140597D-07  0.32440505D-06
 -0.62580702D-07  0.13828028D-06 -0.39269668D-07 -0.50395327D-07 -0.38140939D-06
  0.17205210D-06  0.23813743D-06 -0.33431456D-07 -0.54243096D-07  0.25757444D-06
  0.49176121D-08  0.88691159D-08  0.13077506D-07 -0.16065977D-06  0.40430739D-06
  0.15032770D-07 -0.20719485D-06 -0.58860105D-07 -0.32744488D-07 -0.22919372D-06
 -0.12218922D-06  0.23230906D-06 -0.81108880D-07 -0.14420724D-06 -0.11716523D-06
  0.86893294D-07  0.66366759D-07 -0.15326005D-06  0.46574265D-06  0.23541112D-06
 -0.64904927D-07 -0.11038325D-07  0.52093615D-07 -0.41055290D-07  0.47235876D-07
 -0.23037077D-07  0.18705646D-08 -0.44064552D-07 -0.82138234D-07 -0.13924450D-06
 -0.21085721D-06 -0.26367768D-06 -0.22700192D-06 -0.87267827D-07  0.37814578D-09
  0.28182559D-07  0.52921854D-07  0.90116791D-07  0.14116742D-06  0.18918095D-06
  0.20348962D-06  0.12217490D-06 -0.80347354D-07  0.42508901D-07 -0.20323325D-06
 -0.26877681D-06 -0.18390888D-06 -0.17985887D-06 -0.11884036D-06  0.41004150D-07
  0.40101163D-07  0.26496534D-07 -0.59936447D-07 -0.58616536D-07 -0.38730424D-07
  0.18543984D-06  0.10502230D-07  0.29949511D-07  0.10875291D-06 -0.16606131D-06
  0.15272045D-06 -0.15509520D-07  0.35963433D-07 -0.83384137D-08 -0.42660082D-08
 -0.24844935D-06  0.25271535D-06  0.11283312D-06  0.12311733D-06  0.82170307D-07
 -0.40888221D-07  0.11472250D-06 -0.73834284D-07 -0.71194132D-07 -0.52180247D-07
 -0.32908459D-07 -0.17374240D-07  0.14441233D-08  0.15930117D-07  0.15797703D-06
 -0.98130037D-07 -0.30052527D-07  0.92339375D-07 -0.49288400D-07  0.72585307D-07
 -0.16061224D-06  0.25081219D-06 -0.19635664D-06 -0.11640589D-06 -0.10294699D-06
 -0.21399286D-07  0.38422339D-07 -0.23355892D-07  0.16364853D-07 -0.32110333D-07
  0.11144119D-07 -0.10685218D-06  0.86870665D-07  0.58923558D-07  0.57757625D-07
  0.94603332D-08  0.94805762D-08  0.47873836D-07  0.89238904D-07  0.15128188D-06
  0.22908535D-06  0.28647204D-06  0.24662574D-06  0.94811938D-07 -0.41083565D-09
 -0.32186148D-07 -0.60439886D-07 -0.10291870D-06 -0.16122154D-06 -0.21605583D-06
 -0.23239717D-06 -0.13953096D-06  0.91761428D-07 -0.28109179D-08 -0.66433354D-06
  0.83770541D-08 -0.45063090D-07 -0.44070718D-07 -0.29119387D-07  0.63858436D-07
  0.62452155D-07  0.41264779D-07 -0.20374292D-06 -0.19925612D-06 -0.13165694D-06
  0.37265283D-07 -0.44424611D-07  0.18642274D-06 -0.14111415D-07 -0.37488935D-06
  0.85295659D-07  0.40043163D-07 -0.60251550D-07 -0.68892050D-08  0.21757859D-06
 -0.31106345D-07 -0.18647225D-06 -0.36313812D-06 -0.18298045D-07 -0.28430265D-06
 -0.77195596D-07  0.22009415D-07  0.55186181D-07  0.15231172D-06 -0.21973257D-07
  0.16074895D-06  0.20151060D-07 -0.48651305D-07  0.28500245D-07 -0.50375730D-07
  0.88934408D-07  0.13699108D-06  0.13274966D-06 -0.35474398D-07  0.11675174D-07
 -0.50253131D-06 -0.15086516D-06  0.13564319D-06  0.10428233D-06  0.25728835D-06
 -0.17066871D-06 -0.39646529D-06 -0.20973254D-07  0.25178464D-07 -0.22295346D-07
  0.12208841D-06  0.39909728D-07 -0.11346870D-07 -0.59168647D-07 -0.11544512D-06
  0.78232907D-07  0.89788262D-07  0.33913213D-07  0.63215698D-07  0.10716615D-06
  0.16228113D-06  0.20293313D-06  0.17470652D-06  0.67163564D-07 -0.29103072D-09
 -0.22956366D-07 -0.43107990D-07 -0.73405472D-07 -0.11498924D-06 -0.15409911D-06
 -0.16575437D-06 -0.99518704D-07  0.65447687D-07  0.53350957D-08 -0.75038171D-06
 -0.11095295D-06 -0.94568116D-07 -0.92485552D-07 -0.61109115D-07  0.20905692D-06
  0.20445310D-06  0.13509081D-06  0.16539438D-06  0.16175209D-06  0.10687644D-06
  0.77334372D-07 -0.19843884D-06 -0.15497980D-06  0.12928711D-07 -0.94503194D-07
 -0.12702402D-06  0.32185225D-07 -0.40032784D-07  0.16768353D-07  0.20828220D-06
 -0.72133827D-07 -0.13614837D-06 -0.38398003D-06  0.19293373D-06  0.36419352D-07
 -0.67916195D-07  0.12162687D-07  0.55753508D-07  0.18222437D-06 -0.54135803D-07
 -0.78147780D-07 -0.24820285D-07  0.31584150D-07 -0.67638651D-08 -0.10729015D-06
 -0.14395640D-07 -0.56210922D-07  0.93188384D-07 -0.74584474D-07 -0.96508939D-07
 -0.46214445D-07 -0.32904232D-07  0.93702511D-07 -0.23335071D-06  0.25665766D-06
  0.19582431D-06  0.55668194D-06 -0.42605240D-08  0.42415976D-07  0.42071887D-07
 -0.15921672D-07 -0.35356845D-07 -0.52364394D-07  0.28703244D-07 -0.91891082D-07
 -0.73851267D-07 -0.16637313D-06  0.78331761D+00  0.14735158D+01  0.25507286D+01
  0.41811322D+01  0.65498245D+01  0.98449440D+01  0.14070898D+02  0.18679467D+02
  0.21754776D+02  0.19981552D+02  0.11683999D+02  0.30659398D+01  0.16761373D+00
 -0.59992223D-02  0.16765933D-02 -0.49783712D-03  0.84872611D-04  0.69244376D-05
 -0.62114191D-06 -0.11412302D-05 -0.19734499D-05 -0.32318001D-05 -0.50883240D-05
 -0.76838678D-05 -0.11216101D-04 -0.15445252D-04 -0.19734897D-04 -0.21513350D-04
 -0.17708799D-04 -0.48556326D-05  0.97941258D-05  0.95448033D-05  0.20886719D-05
  0.70365432D-07  0.23837560D-08 -0.60639678D-11  0.86474774D-06  0.16952520D-05
  0.29691918D-05  0.48506932D-05  0.76507115D-05  0.11544582D-04  0.16926651D-04
  0.23370042D-04  0.30299375D-04  0.33694688D-04  0.29265911D-04  0.85012237D-05
 -0.21431482D-04 -0.31227179D-04 -0.53758706D-05  0.13114822D-04  0.62423248D-05
 -0.30146093D-07 -0.38512081D-06 -0.83446379D-06 -0.14205423D-05 -0.23187075D-05
 -0.36552149D-05 -0.55167750D-05 -0.80884912D-05 -0.11181765D-04 -0.14512809D-04
 -0.16213346D-04 -0.14162724D-04 -0.41950127D-05  0.10904623D-04  0.16774997D-04
  0.29361366D-05 -0.92618808D-05 -0.78619361D-05  0.29332181D-05 -0.19345389D-04
 -0.42290411D-05 -0.28869421D-06  0.25168741D-03  0.36112687D-03  0.47815117D-03
  0.55212913D-03  0.51184910D-03  0.33138044D-03  0.11696513D-03  0.13709321D-04
  0.19930816D-06  0.29186461D-07  0.30008215D-09  0.12401426D-03  0.17793850D-03
  0.23560004D-03  0.27205129D-03  0.25220406D-03  0.16328151D-03  0.57632376D-04
  0.67550114D-05  0.98205364D-07  0.14381082D-07  0.14785986D-09 -0.31813811D-04
 -0.45647186D-04 -0.60439302D-04 -0.69790269D-04 -0.64698790D-04 -0.41887176D-04
 -0.14784635D-04 -0.17328867D-05 -0.25192965D-07 -0.36892293D-08 -0.37931007D-10
  0.77727618D-04  0.11220071D-03  0.14989747D-03  0.17808279D-03  0.17257587D-03
  0.11996224D-03  0.39034564D-04 -0.17568651D-04 -0.18980005D-04 -0.48863442D-05
  0.47661775D-08  0.53178166D-04  0.76763294D-04  0.10255393D-03  0.12183721D-03
  0.11806960D-03  0.82073430D-04  0.26705907D-04 -0.12019777D-04 -0.12985370D-04
 -0.33430437D-05  0.32608304D-08 -0.17653286D-04 -0.25482721D-04 -0.34044305D-04
 -0.40445679D-04 -0.39194964D-04 -0.27245499D-04 -0.88654242D-05  0.39901444D-05
  0.43106872D-05  0.11097732D-05 -0.10824813D-08 -0.23996543D-04 -0.34868042D-04
 -0.46357466D-04 -0.55625750D-04 -0.53818160D-04 -0.38204627D-04 -0.11874094D-04
  0.68173558D-05  0.78316284D-05  0.20797578D-05 -0.75038308D-06 -0.21991353D-04
 -0.31954411D-04 -0.42483760D-04 -0.50977571D-04 -0.49321025D-04 -0.35012185D-04
 -0.10881875D-04  0.62476862D-05  0.71772046D-05  0.19059698D-05 -0.68767983D-06
  0.85585928D-05  0.12436015D-04  0.16533826D-04  0.19839447D-04  0.19194753D-04
  0.13626039D-04  0.42350073D-05 -0.24314740D-05 -0.27932239D-05 -0.74176516D-06
  0.26763118D-06  0.15526570D-05  0.10365082D-05 -0.34264179D-06 -0.87129047D-06
 -0.37324587D-06  0.92334633D-07 -0.13309454D-07 -0.82302084D-08 -0.24112932D-08
  0.53746608D-04  0.56240034D-04  0.47919519D-04  0.31558626D-04  0.14544431D-04
  0.43553535D-05  0.74102647D-06 -0.16186096D-04 -0.16937005D-04 -0.14431235D-04
 -0.95040593D-05 -0.43801380D-05 -0.13116394D-05 -0.22316433D-06 -0.37560512D-04
 -0.39303029D-04 -0.33488284D-04 -0.22054567D-04 -0.10164293D-04 -0.30437141D-05
 -0.51786214D-06  0.92401931D-04  0.96688665D-04  0.82383917D-04  0.54256038D-04
  0.25004993D-04  0.74877855D-05  0.12739832D-05 -0.30110282D-04 -0.31507166D-04
 -0.26845792D-04 -0.17679983D-04 -0.81481779D-05 -0.24399851D-05 -0.41514277D-06
 -0.12168486D-04 -0.12733009D-04 -0.10849205D-04 -0.71450218D-05 -0.32929278D-05
 -0.98607257D-06 -0.16777189D-06 -0.42952029D-06  0.16886688D-06  0.26065341D-06
 -0.75872609D-06  0.22730214D-06  0.53568421D-08 -0.11045651D-06 -0.12047945D-07
  0.12250445D-06 -0.35260544D-06  0.13002002D-06  0.12970322D-06 -0.80482638D-07
  0.22456780D-07  0.58025858D-07 -0.10804768D-06  0.24532221D-07  0.10705907D-07
  0.28340352D-07  0.34183286D-07 -0.12486411D-07  0.13599335D-07 -0.12399429D-06
  0.45599403D-07 -0.98620391D-07  0.21444432D-07 -0.81401713D-08  0.66381385D-09
 -0.19600605D-07  0.11534561D-07 -0.76076614D-08 -0.32591687D-07 -0.58238389D-07
  0.12921021D-07  0.91393502D-07  0.23634706D-07  0.99019636D-08  0.67274633D-07
MO    2     MO 0.0        OCC NO =    2.0000000  ORB. ENERGY =  -65.212073
 -0.12372147D-05 -0.23064495D-05 -0.38983060D-05 -0.58604309D-05 -0.72002164D-05
 -0.60817338D-05 -0.22938062D-05  0.11352175D-07  0.88804998D-06  0.16627098D-05
  0.28309056D-05  0.43789806D-05  0.57669634D-05  0.59922443D-05  0.38078023D-05
 -0.25519005D-05 -0.19152356D-05  0.30342486D-05 -0.23068207D-05  0.14403177D-05
  0.13503894D-05  0.96155768D-06 -0.20314282D-06 -0.19045930D-06 -0.13561837D-06
  0.55431173D-06  0.51970248D-06  0.37005912D-06 -0.43949084D-05  0.26585017D-05
 -0.35354439D-05  0.66703013D-06 -0.26992029D-06  0.38198556D-05  0.69439431D-07
 -0.17422209D-06  0.10023227D-06 -0.80117796D-06  0.10281884D-05 -0.22701042D-06
 -0.43511193D-05  0.12379188D-05  0.13141501D-05  0.48895551D-05 -0.14241643D-05
 -0.34653907D-05  0.21313630D-05  0.11358688D-05 -0.14077435D-05 -0.30949044D-06
  0.25009815D-06  0.59392296D-07 -0.23030320D-06 -0.56725508D-06 -0.41580095D-06
 -0.19058022D-05 -0.52454716D-06 -0.88771918D-07  0.32075840D-05 -0.47414094D-06
 -0.40785223D-06  0.25098225D-05  0.20477824D-05  0.67416799D-06  0.22145110D-05
  0.15863186D-06 -0.55473109D-06  0.60136126D-06  0.31708047D-07  0.18626438D-05
 -0.11261616D-05 -0.50760363D-06 -0.19845059D-06 -0.67792220D-06 -0.18633879D-05
  0.21788788D-05  0.40600198D-05  0.68665114D-05  0.10340586D-04  0.12802316D-04
  0.10894193D-04  0.41454414D-05 -0.19414871D-07 -0.14151571D-05 -0.26534328D-05
 -0.45142787D-05 -0.70101982D-05 -0.93029408D-05 -0.98040226D-05 -0.60791195D-05
  0.40438326D-05  0.44433969D-05 -0.41622366D-04 -0.94104025D-05  0.71536590D-06
  0.68710039D-06  0.48184222D-06  0.15943441D-06  0.15313485D-06  0.10738873D-06
  0.41195211D-05  0.39567507D-05  0.27747467D-05  0.41546453D-05  0.48011958D-06
 -0.75088876D-05  0.24816138D-04  0.13062585D-04 -0.92217809D-05  0.17138052D-05
  0.10778903D-05 -0.34828776D-06 -0.15653154D-05  0.28211674D-05 -0.12558520D-05
 -0.56127097D-05 -0.47518527D-05 -0.83869331D-06 -0.25370966D-05 -0.15133666D-05
  0.40504632D-05 -0.29198862D-05  0.70547609D-05 -0.25502873D-05 -0.95479473D-06
  0.28972508D-06  0.66506965D-06 -0.35774231D-05  0.18164657D-05  0.16270411D-05
 -0.18464998D-06 -0.19440569D-05  0.11872278D-05  0.16753778D-05  0.10008889D-04