 Molden2AIM, Version 4.0.0 (06/02/2016)           Time: Wed Jun 27 23:37:53 2018
GAUSSIAN             23 MOL ORBITALS    450 PRIMITIVES        6 NUCLEI
  C    1    (CENTRE  1)  -5.20110644  1.09968265  0.39580692  CHARGE =  6.0
  C    2    (CENTRE  2)  -2.91058830 -0.45944533  0.80649543  CHARGE =  6.0
  N    3    (CENTRE  3)  -1.12346297 -1.67378523  1.12821374  CHARGE =  7.0
  F    4    (CENTRE  4)  -4.91790075  3.36659055  1.46568670  CHARGE =  9.0
  F    5    (CENTRE  5)  -7.21836829 -0.02512769  1.41104149  CHARGE =  9.0
  F    6    (CENTRE  6)  -5.61140567  1.41892732 -2.07294452  CHARGE =  9.0
CENTRE ASSIGNMENTS    1  1  1  1  1  1  1  1  1  1  1  1  1  1  1  1  1  1  1  1
CENTRE ASSIGNMENTS    1  1  1  1  1  1  1  1  1  1  1  1  1  1  1  1  1  1  1  1
CENTRE ASSIGNMENTS    1  1  1  1  1  1  1  1  1  1  1  1  1  1  1  1  1  1  1  1
CENTRE ASSIGNMENTS    1  1  1  1  1  1  1  1  1  1  1  1  1  1  1  2  2  2  2  2
CENTRE ASSIGNMENTS    2  2  2  2  2  2  2  2  2  2  2  2  2  2  2  2  2  2  2  2
CENTRE ASSIGNMENTS    2  2  2  2  2  2  2  2  2  2  2  2  2  2  2  2  2  2  2  2
CENTRE ASSIGNMENTS    2  2  2  2  2  2  2  2  2  2  2  2  2  2  2  2  2  2  2  2
CENTRE ASSIGNMENTS    2  2  2  2  2  2  2  2  2  2  3  3  3  3  3  3  3  3  3  3
CENTRE ASSIGNMENTS    3  3  3  3  3  3  3  3  3  3  3  3  3  3  3  3  3  3  3  3
CENTRE ASSIGNMENTS    3  3  3  3  3  3  3  3  3  3  3  3  3  3  3  3  3  3  3  3
CENTRE ASSIGNMENTS    3  3  3  3  3  3  3  3  3  3  3  3  3  3  3  3  3  3  3  3
CENTRE ASSIGNMENTS    3  3  3  3  3  4  4  4  4  4  4  4  4  4  4  4  4  4  4  4
CENTRE ASSIGNMENTS    4  4  4  4  4  4  4  4  4  4  4  4  4  4  4  4  4  4  4  4
CENTRE ASSIGNMENTS    4  4  4  4  4  4  4  4  4  4  4  4  4  4  4  4  4  4  4  4
CENTRE ASSIGNMENTS    4  4  4  4  4  4  4  4  4  4  4  4  4  4  4  4  4  4  4  4
CENTRE ASSIGNMENTS    5  5  5  5  5  5  5  5  5  5  5  5  5  5  5  5  5  5  5  5
CENTRE ASSIGNMENTS    5  5  5  5  5  5  5  5  5  5  5  5  5  5  5  5  5  5  5  5
CENTRE ASSIGNMENTS    5  5  5  5  5  5  5  5  5  5  5  5  5  5  5  5  5  5  5  5
CENTRE ASSIGNMENTS    5  5  5  5  5  5  5  5  5  5  5  5  5  5  5  6  6  6  6  6
CENTRE ASSIGNMENTS    6  6  6  6  6  6  6  6  6  6  6  6  6  6  6  6  6  6  6  6
CENTRE ASSIGNMENTS    6  6  6  6  6  6  6  6  6  6  6  6  6  6  6  6  6  6  6  6
CENTRE ASSIGNMENTS    6  6  6  6  6  6  6  6  6  6  6  6  6  6  6  6  6  6  6  6
CENTRE ASSIGNMENTS    6  6  6  6  6  6  6  6  6  6
TYPE ASSIGNMENTS      1  1  1  1  1  1  1  1  1  1  1  1  1  1  1  1  1  1  1  2
TYPE ASSIGNMENTS      2  2  3  3  3  4  4  4  2  3  4  2  3  4  2  3  4  5  6  7
TYPE ASSIGNMENTS      8  9 10  5  6  7  8  9 10  5  6  7  8  9 10 11 12 13 17 14
TYPE ASSIGNMENTS     15 18 19 16 20 11 12 13 17 14 15 18 19 16 20  1  1  1  1  1
TYPE ASSIGNMENTS      1  1  1  1  1  1  1  1  1  1  1  1  1  1  2  2  2  3  3  3
TYPE ASSIGNMENTS      4  4  4  2  3  4  2  3  4  2  3  4  5  6  7  8  9 10  5  6
TYPE ASSIGNMENTS      7  8  9 10  5  6  7  8  9 10 11 12 13 17 14 15 18 19 16 20
TYPE ASSIGNMENTS     11 12 13 17 14 15 18 19 16 20  1  1  1  1  1  1  1  1  1  1
TYPE ASSIGNMENTS      1  1  1  1  1  1  1  1  1  2  2  2  3  3  3  4  4  4  2  3
TYPE ASSIGNMENTS      4  2  3  4  2  3  4  5  6  7  8  9 10  5  6  7  8  9 10  5
TYPE ASSIGNMENTS      6  7  8  9 10 11 12 13 17 14 15 18 19 16 20 11 12 13 17 14
TYPE ASSIGNMENTS     15 18 19 16 20  1  1  1  1  1  1  1  1  1  1  1  1  1  1  1
TYPE ASSIGNMENTS      1  1  1  1  2  2  2  3  3  3  4  4  4  2  3  4  2  3  4  2
TYPE ASSIGNMENTS      3  4  5  6  7  8  9 10  5  6  7  8  9 10  5  6  7  8  9 10
TYPE ASSIGNMENTS     11 12 13 17 14 15 18 19 16 20 11 12 13 17 14 15 18 19 16 20
TYPE ASSIGNMENTS      1  1  1  1  1  1  1  1  1  1  1  1  1  1  1  1  1  1  1  2
TYPE ASSIGNMENTS      2  2  3  3  3  4  4  4  2  3  4  2  3  4  2  3  4  5  6  7
TYPE ASSIGNMENTS      8  9 10  5  6  7  8  9 10  5  6  7  8  9 10 11 12 13 17 14
TYPE ASSIGNMENTS     15 18 19 16 20 11 12 13 17 14 15 18 19 16 20  1  1  1  1  1
TYPE ASSIGNMENTS      1  1  1  1  1  1  1  1  1  1  1  1  1  1  2  2  2  3  3  3
TYPE ASSIGNMENTS      4  4  4  2  3  4  2  3  4  2  3  4  5  6  7  8  9 10  5  6
TYPE ASSIGNMENTS      7  8  9 10  5  6  7  8  9 10 11 12 13 17 14 15 18 19 16 20
TYPE ASSIGNMENTS     11 12 13 17 14 15 18 19 16 20
EXPONENTS  0.8236000D+04 0.1235000D+04 0.2808000D+03 0.7927000D+02 0.2559000D+02
EXPONENTS  0.8997000D+01 0.3319000D+01 0.3643000D+00 0.8236000D+04 0.1235000D+04
EXPONENTS  0.2808000D+03 0.7927000D+02 0.2559000D+02 0.8997000D+01 0.3319000D+01
EXPONENTS  0.3643000D+00 0.9059000D+00 0.1285000D+00 0.4402000D-01 0.1871000D+02
EXPONENTS  0.4133000D+01 0.1200000D+01 0.1871000D+02 0.4133000D+01 0.1200000D+01
EXPONENTS  0.1871000D+02 0.4133000D+01 0.1200000D+01 0.3827000D+00 0.3827000D+00
EXPONENTS  0.3827000D+00 0.1209000D+00 0.1209000D+00 0.1209000D+00 0.3569000D-01
EXPONENTS  0.3569000D-01 0.3569000D-01 0.1097000D+01 0.1097000D+01 0.1097000D+01
EXPONENTS  0.1097000D+01 0.1097000D+01 0.1097000D+01 0.3180000D+00 0.3180000D+00
EXPONENTS  0.3180000D+00 0.3180000D+00 0.3180000D+00 0.3180000D+00 0.1000000D+00
EXPONENTS  0.1000000D+00 0.1000000D+00 0.1000000D+00 0.1000000D+00 0.1000000D+00
EXPONENTS  0.7610000D+00 0.7610000D+00 0.7610000D+00 0.7610000D+00 0.7610000D+00
EXPONENTS  0.7610000D+00 0.7610000D+00 0.7610000D+00 0.7610000D+00 0.7610000D+00
EXPONENTS  0.2680000D+00 0.2680000D+00 0.2680000D+00 0.2680000D+00 0.2680000D+00
EXPONENTS  0.2680000D+00 0.2680000D+00 0.2680000D+00 0.2680000D+00 0.2680000D+00
EXPONENTS  0.8236000D+04 0.1235000D+04 0.2808000D+03 0.7927000D+02 0.2559000D+02
EXPONENTS  0.8997000D+01 0.3319000D+01 0.3643000D+00 0.8236000D+04 0.1235000D+04
EXPONENTS  0.2808000D+03 0.7927000D+02 0.2559000D+02 0.8997000D+01 0.3319000D+01
EXPONENTS  0.3643000D+00 0.9059000D+00 0.1285000D+00 0.4402000D-01 0.1871000D+02
EXPONENTS  0.4133000D+01 0.1200000D+01 0.1871000D+02 0.4133000D+01 0.1200000D+01
EXPONENTS  0.1871000D+02 0.4133000D+01 0.1200000D+01 0.3827000D+00 0.3827000D+00
EXPONENTS  0.3827000D+00 0.1209000D+00 0.1209000D+00 0.1209000D+00 0.3569000D-01
EXPONENTS  0.3569000D-01 0.3569000D-01 0.1097000D+01 0.1097000D+01 0.1097000D+01
EXPONENTS  0.1097000D+01 0.1097000D+01 0.1097000D+01 0.3180000D+00 0.3180000D+00
EXPONENTS  0.3180000D+00 0.3180000D+00 0.3180000D+00 0.3180000D+00 0.1000000D+00
EXPONENTS  0.1000000D+00 0.1000000D+00 0.1000000D+00 0.1000000D+00 0.1000000D+00
EXPONENTS  0.7610000D+00 0.7610000D+00 0.7610000D+00 0.7610000D+00 0.7610000D+00
EXPONENTS  0.7610000D+00 0.7610000D+00 0.7610000D+00 0.7610000D+00 0.7610000D+00
EXPONENTS  0.2680000D+00 0.2680000D+00 0.2680000D+00 0.2680000D+00 0.2680000D+00
EXPONENTS  0.2680000D+00 0.2680000D+00 0.2680000D+00 0.2680000D+00 0.2680000D+00
EXPONENTS  0.1142000D+05 0.1712000D+04 0.3893000D+03 0.1100000D+03 0.3557000D+02
EXPONENTS  0.1254000D+02 0.4644000D+01 0.5118000D+00 0.1142000D+05 0.1712000D+04
EXPONENTS  0.3893000D+03 0.1100000D+03 0.3557000D+02 0.1254000D+02 0.4644000D+01
EXPONENTS  0.5118000D+00 0.1293000D+01 0.1787000D+00 0.5760000D-01 0.2663000D+02
EXPONENTS  0.5948000D+01 0.1742000D+01 0.2663000D+02 0.5948000D+01 0.1742000D+01
EXPONENTS  0.2663000D+02 0.5948000D+01 0.1742000D+01 0.5550000D+00 0.5550000D+00
EXPONENTS  0.5550000D+00 0.1725000D+00 0.1725000D+00 0.1725000D+00 0.4910000D-01
EXPONENTS  0.4910000D-01 0.4910000D-01 0.1654000D+01 0.1654000D+01 0.1654000D+01
EXPONENTS  0.1654000D+01 0.1654000D+01 0.1654000D+01 0.4690000D+00 0.4690000D+00
EXPONENTS  0.4690000D+00 0.4690000D+00 0.4690000D+00 0.4690000D+00 0.1510000D+00
EXPONENTS  0.1510000D+00 0.1510000D+00 0.1510000D+00 0.1510000D+00 0.1510000D+00
EXPONENTS  0.1093000D+01 0.1093000D+01 0.1093000D+01 0.1093000D+01 0.1093000D+01
EXPONENTS  0.1093000D+01 0.1093000D+01 0.1093000D+01 0.1093000D+01 0.1093000D+01
EXPONENTS  0.3640000D+00 0.3640000D+00 0.3640000D+00 0.3640000D+00 0.3640000D+00
EXPONENTS  0.3640000D+00 0.3640000D+00 0.3640000D+00 0.3640000D+00 0.3640000D+00
EXPONENTS  0.1950000D+05 0.2923000D+04 0.6645000D+03 0.1875000D+03 0.6062000D+02
EXPONENTS  0.2142000D+02 0.7950000D+01 0.8815000D+00 0.1950000D+05 0.2923000D+04
EXPONENTS  0.6645000D+03 0.1875000D+03 0.6062000D+02 0.2142000D+02 0.7950000D+01
EXPONENTS  0.8815000D+00 0.2257000D+01 0.3041000D+00 0.9158000D-01 0.4388000D+02
EXPONENTS  0.9926000D+01 0.2930000D+01 0.4388000D+02 0.9926000D+01 0.2930000D+01
EXPONENTS  0.4388000D+02 0.9926000D+01 0.2930000D+01 0.9132000D+00 0.9132000D+00
EXPONENTS  0.9132000D+00 0.2672000D+00 0.2672000D+00 0.2672000D+00 0.7361000D-01
EXPONENTS  0.7361000D-01 0.7361000D-01 0.3107000D+01 0.3107000D+01 0.3107000D+01
EXPONENTS  0.3107000D+01 0.3107000D+01 0.3107000D+01 0.8550000D+00 0.8550000D+00
EXPONENTS  0.8550000D+00 0.8550000D+00 0.8550000D+00 0.8550000D+00 0.2920000D+00
EXPONENTS  0.2920000D+00 0.2920000D+00 0.2920000D+00 0.2920000D+00 0.2920000D+00
EXPONENTS  0.1917000D+01 0.1917000D+01 0.1917000D+01 0.1917000D+01 0.1917000D+01
EXPONENTS  0.1917000D+01 0.1917000D+01 0.1917000D+01 0.1917000D+01 0.1917000D+01
EXPONENTS  0.7240000D+00 0.7240000D+00 0.7240000D+00 0.7240000D+00 0.7240000D+00
EXPONENTS  0.7240000D+00 0.7240000D+00 0.7240000D+00 0.7240000D+00 0.7240000D+00
EXPONENTS  0.1950000D+05 0.2923000D+04 0.6645000D+03 0.1875000D+03 0.6062000D+02
EXPONENTS  0.2142000D+02 0.7950000D+01 0.8815000D+00 0.1950000D+05 0.2923000D+04
EXPONENTS  0.6645000D+03 0.1875000D+03 0.6062000D+02 0.2142000D+02 0.7950000D+01
EXPONENTS  0.8815000D+00 0.2257000D+01 0.3041000D+00 0.9158000D-01 0.4388000D+02
EXPONENTS  0.9926000D+01 0.2930000D+01 0.4388000D+02 0.9926000D+01 0.2930000D+01
EXPONENTS  0.4388000D+02 0.9926000D+01 0.2930000D+01 0.9132000D+00 0.9132000D+00
EXPONENTS  0.9132000D+00 0.2672000D+00 0.2672000D+00 0.2672000D+00 0.7361000D-01
EXPONENTS  0.7361000D-01 0.7361000D-01 0.3107000D+01 0.3107000D+01 0.3107000D+01
EXPONENTS  0.3107000D+01 0.3107000D+01 0.3107000D+01 0.8550000D+00 0.8550000D+00
EXPONENTS  0.8550000D+00 0.8550000D+00 0.8550000D+00 0.8550000D+00 0.2920000D+00
EXPONENTS  0.2920000D+00 0.2920000D+00 0.2920000D+00 0.2920000D+00 0.2920000D+00
EXPONENTS  0.1917000D+01 0.1917000D+01 0.1917000D+01 0.1917000D+01 0.1917000D+01
EXPONENTS  0.1917000D+01 0.1917000D+01 0.1917000D+01 0.1917000D+01 0.1917000D+01
EXPONENTS  0.7240000D+00 0.7240000D+00 0.7240000D+00 0.7240000D+00 0.7240000D+00
EXPONENTS  0.7240000D+00 0.7240000D+00 0.7240000D+00 0.7240000D+00 0.7240000D+00
EXPONENTS  0.1950000D+05 0.2923000D+04 0.6645000D+03 0.1875000D+03 0.6062000D+02
EXPONENTS  0.2142000D+02 0.7950000D+01 0.8815000D+00 0.1950000D+05 0.2923000D+04
EXPONENTS  0.6645000D+03 0.1875000D+03 0.6062000D+02 0.2142000D+02 0.7950000D+01
EXPONENTS  0.8815000D+00 0.2257000D+01 0.3041000D+00 0.9158000D-01 0.4388000D+02
EXPONENTS  0.9926000D+01 0.2930000D+01 0.4388000D+02 0.9926000D+01 0.2930000D+01
EXPONENTS  0.4388000D+02 0.9926000D+01 0.2930000D+01 0.9132000D+00 0.9132000D+00
EXPONENTS  0.9132000D+00 0.2672000D+00 0.2672000D+00 0.2672000D+00 0.7361000D-01
EXPONENTS  0.7361000D-01 0.7361000D-01 0.3107000D+01 0.3107000D+01 0.3107000D+01
EXPONENTS  0.3107000D+01 0.3107000D+01 0.3107000D+01 0.8550000D+00 0.8550000D+00
EXPONENTS  0.8550000D+00 0.8550000D+00 0.8550000D+00 0.8550000D+00 0.2920000D+00
EXPONENTS  0.2920000D+00 0.2920000D+00 0.2920000D+00 0.2920000D+00 0.2920000D+00
EXPONENTS  0.1917000D+01 0.1917000D+01 0.1917000D+01 0.1917000D+01 0.1917000D+01
EXPONENTS  0.1917000D+01 0.1917000D+01 0.1917000D+01 0.1917000D+01 0.1917000D+01
EXPONENTS  0.7240000D+00 0.7240000D+00 0.7240000D+00 0.7240000D+00 0.7240000D+00
EXPONENTS  0.7240000D+00 0.7240000D+00 0.7240000D+00 0.7240000D+00 0.7240000D+00
MO    1     MO 0.0        OCC NO =    2.0000000  ORB. ENERGY =  -26.388314
  0.87090233D-05  0.16235600D-04  0.27441023D-04  0.41252847D-04  0.50683889D-04
  0.42810646D-04  0.16146601D-04 -0.79910428D-07 -0.65099861D-05 -0.12188748D-04
 -0.20752386D-04 -0.32100786D-04 -0.42275606D-04 -0.43927063D-04 -0.27913676D-04
  0.18707097D-04 -0.12152295D-04 -0.86440440D-04  0.34105096D-05 -0.11120839D-03
 -0.10426493D-03 -0.74242843D-04 -0.99089018D-04 -0.92902253D-04 -0.66151939D-04
  0.27935968D-03  0.26191746D-03  0.18650083D-03  0.18698411D-03  0.16940751D-03
 -0.47453905D-03 -0.14274879D-03 -0.10655518D-03  0.32303998D-03  0.22427069D-05
  0.17444193D-05 -0.51922778D-05 -0.22282799D-03 -0.85233791D-04  0.30806178D-03
 -0.26252302D-03  0.34701436D-03  0.12189487D-04 -0.28776736D-03 -0.13605409D-03
  0.42382145D-03 -0.37122176D-03  0.43284199D-03  0.64677471D-04  0.12744444D-05
  0.11894415D-04 -0.13168860D-04  0.15266099D-04  0.50340349D-05 -0.21708646D-04
  0.96694649D-04 -0.17617735D-03 -0.13486788D-03  0.50719820D-04  0.34468408D-03
  0.30426666D-04 -0.34080377D-03  0.18384795D-03  0.37417699D-03 -0.45195335D-03
  0.34134994D-04 -0.64871070D-04 -0.42555214D-04  0.14951300D-04  0.13276082D-03
  0.44472812D-05 -0.11735628D-03  0.61852390D-04  0.12321836D-03 -0.16664418D-03
  0.36626549D-05  0.68280215D-05  0.11540559D-04  0.17349241D-04  0.21315547D-04
  0.18004387D-04  0.67905923D-05 -0.33607020D-07 -0.24956179D-05 -0.46725842D-05
 -0.79554744D-05 -0.12305909D-04 -0.16206449D-04 -0.16839539D-04 -0.10700771D-04
  0.71714080D-05  0.71496703D-06  0.33576176D-04 -0.48847717D-05 -0.40477574D-04
 -0.37950298D-04 -0.27022873D-04 -0.37565240D-04 -0.35219800D-04 -0.25078596D-04
  0.10428334D-03  0.97772257D-04  0.69619672D-04  0.82691799D-04  0.92276641D-04
 -0.23957204D-03  0.18724883D-04  0.43364442D-04 -0.92700749D-04 -0.16705654D-05
 -0.15236289D-05  0.42516930D-05 -0.89602376D-05  0.28646697D-04 -0.19686460D-04
  0.29575733D-04  0.32565209D-04 -0.59703589D-04 -0.84716482D-04  0.51730269D-05
  0.79543455D-04 -0.65525873D-04  0.16354671D-03 -0.70893439D-04 -0.12953576D-04
  0.26478030D-05  0.10305773D-04 -0.82256569D-05  0.26473740D-04 -0.14517137D-04
  0.55644068D-04 -0.59549883D-06  0.39189161D-04 -0.66278359D-04 -0.34939014D-04
 -0.94254505D-04 -0.10065385D-03  0.36725510D-04 -0.23312979D-04  0.20942553D-03
 -0.35107781D-05 -0.49026806D-05 -0.69886025D-05  0.79205419D-05  0.14431695D-04
  0.99906889D-05  0.26117924D-05  0.27634672D-06  0.10975119D-04 -0.34831666D-04
  0.12774918D-05  0.23804178D-05  0.40258833D-05  0.60627572D-05  0.75060867D-05
  0.63873410D-05  0.24305011D-05 -0.11383074D-07 -0.89031294D-06 -0.16693451D-05
 -0.28400527D-05 -0.44103019D-05 -0.58527272D-05 -0.61679711D-05 -0.38245355D-05
  0.25440825D-05 -0.21461668D-06  0.14603963D-04  0.54389084D-05 -0.18143684D-04
 -0.17426791D-04 -0.12220869D-04 -0.18624023D-04 -0.17888152D-04 -0.12544407D-04
  0.49801857D-04  0.47834088D-04  0.33544565D-04  0.18498912D-04  0.22645002D-04
 -0.57032863D-04  0.17160008D-04  0.15006540D-04 -0.42646089D-04  0.20064911D-05
  0.22836153D-05 -0.58878441D-05  0.27060424D-04 -0.20677994D-04 -0.63824305D-05
 -0.19635155D-05 -0.64049808D-04  0.58804770D-04 -0.20716948D-05  0.33454624D-05
 -0.12737676D-05 -0.10983139D-05  0.85980828D-05 -0.91908386D-05  0.26381971D-05
  0.26899980D-05 -0.53281951D-05  0.62957832D-05 -0.39497136D-05 -0.28929559D-05
 -0.72674712D-05 -0.14003956D-04 -0.19250833D-04  0.21251174D-04  0.38125470D-04
  0.25774649D-04  0.55123935D-06  0.38863979D-05  0.31977850D-04 -0.94385568D-04
 -0.88219196D-05  0.38690598D-05 -0.22914582D-05  0.69326196D-05 -0.33094943D-05
  0.11131733D-04  0.19533139D-04 -0.82976851D-05 -0.42573584D-05 -0.14653292D-04
 -0.16585415D-01 -0.30915932D-01 -0.52410104D-01 -0.79364344D-01 -0.99245391D-01
 -0.85441037D-01 -0.32846654D-01  0.14232993D-03 -0.15259914D-04 -0.28655415D-04
 -0.48795230D-04 -0.76437439D-04 -0.10243516D-03 -0.11018283D-03 -0.66153624D-04
  0.43505407D-04 -0.16089955D-02  0.11779470D-05 -0.72785026D-05 -0.33691608D-04
 -0.32949657D-04 -0.21771231D-04  0.18881238D-03  0.18465439D-03  0.12200896D-03
  0.26553128D-03  0.25968379D-03  0.17158406D-03  0.22929441D-04 -0.31803559D-04
 -0.10052713D-03  0.11752179D-03  0.11114179D-03 -0.28746553D-03 -0.39065382D-05
 -0.29424459D-05  0.89801158D-05  0.74450111D-05  0.14091242D-03 -0.14835743D-03
  0.14687662D-03  0.32743444D-04 -0.25946521D-03 -0.22038265D-04 -0.78326314D-04
  0.10036458D-03 -0.97323752D-04 -0.71255611D-05  0.18737166D-03 -0.34081211D-04
 -0.46628956D-04  0.80710167D-04 -0.76373693D-04  0.36307356D-04  0.80580149D-04
  0.88181732D-05  0.44509161D-04 -0.85040199D-05  0.67608867D-04  0.19690888D-04
  0.58291173D-04 -0.94063387D-04 -0.15321837D-03 -0.32779113D-04  0.33231626D-04
 -0.11534982D-04  0.18769832D-04 -0.29957917D-05  0.45333962D-04  0.24871371D-04
  0.24331553D-04 -0.10729017D-04 -0.81180867D-04 -0.15344178D-04 -0.22823114D-04
 -0.39038591D+00 -0.72769626D+00 -0.12336241D+01 -0.18680704D+01 -0.23360286D+01
 -0.20111030D+01 -0.77314142D+00  0.33501483D-02 -0.33169504D-03 -0.62286454D-03
 -0.10606309D-02 -0.16614720D-02 -0.22265680D-02 -0.23949741D-02 -0.14379393D-02
  0.94564937D-03 -0.37820457D-01 -0.49623381D-03 -0.11814198D-03 -0.50583400D-02
 -0.49469461D-02 -0.32686564D-02 -0.27393057D-02 -0.26789812D-02 -0.17701161D-02
  0.26127428D-02  0.25552054D-02  0.16883323D-02  0.11228968D-02  0.60425655D-03
 -0.60665683D-03 -0.12029261D-03 -0.81651483D-05 -0.18404636D-03 -0.12413865D-04
 -0.33323426D-05  0.10830353D-04  0.15129962D-03 -0.25914954D-04 -0.12538467D-03
  0.12554382D-03  0.72672597D-04  0.60462460D-04  0.11727916D-03 -0.89390212D-04
 -0.27888948D-04  0.38362342D-03 -0.46865418D-03 -0.26241037D-03 -0.37095045D-04
 -0.18458373D-04  0.55553418D-04 -0.16362820D-04 -0.31937030D-04 -0.48685168D-04
 -0.66218275D-05 -0.35042015D-04 -0.40540672D-04  0.10211617D-03 -0.46457505D-04
 -0.11237081D-03 -0.82250685D-04  0.15158355D-03  0.23399283D-03 -0.36812242D-03
 -0.14443053D-04 -0.17752954D-04  0.30157744D-04 -0.48617663D-04  0.58532261D-04
 -0.19111712D-04  0.91946821D-04 -0.52733975D-05 -0.71361520D-04 -0.31223741D-04
  0.44928282D+00  0.83748264D+00  0.14197390D+01  0.21499032D+01  0.26884615D+01
  0.23145150D+01  0.88978405D+00 -0.38555799D-02  0.37920378D-03  0.71207753D-03
  0.12125452D-02  0.18994449D-02  0.25454797D-02  0.27380066D-02  0.16438956D-02
 -0.10810949D-02  0.43521569D-01  0.62056168D-03  0.13065224D-03  0.11820936D-02
  0.11560618D-02  0.76385888D-03 -0.10133811D-02 -0.99106458D-03 -0.65483827D-03
  0.70794035D-02  0.69235020D-02  0.45746505D-02 -0.24809906D-03  0.23924863D-03
 -0.15682626D-02  0.19013441D-03  0.48221348D-04  0.27712975D-04  0.17286619D-05
 -0.69600156D-05  0.17193359D-04 -0.53810325D-05  0.59263145D-04 -0.53882112D-04
  0.46480426D-04 -0.27188727D-03 -0.29085778D-04  0.22977577D-03  0.20200218D-03
 -0.43177795D-03 -0.38886440D-05 -0.92100105D-04  0.23129191D-03 -0.27094338D-05
  0.33864113D-05 -0.67697745D-06 -0.30325468D-04  0.86775500D-04  0.37264863D-04
  0.31049436D-04 -0.13144091D-03 -0.78978239D-04 -0.84915767D-04  0.28241527D-03
  0.14560647D-03 -0.82325402D-05  0.11190747D-03  0.91328244D-04 -0.12069851D-03
 -0.15017859D-04  0.24786032D-04 -0.27783186D-04  0.28330603D-04 -0.11760139D-03
  0.37152583D-04  0.16722974D-04  0.43243298D-04  0.46196975D-04  0.19010993D-04
MO    2     MO 0.0        OCC NO =    2.0000000  ORB. ENERGY =  -26.388301
  0.86235855D-04  0.16076324D-03  0.27171820D-03  0.40848146D-03  0.50186666D-03
  0.42390663D-03  0.15988198D-03 -0.79126486D-06 -0.64451256D-04 -0.12067309D-03
 -0.20545626D-03 -0.31780959D-03 -0.41854405D-03 -0.43489407D-03 -0.27635566D-03
  0.18520714D-03 -0.12054457D-03 -0.85885255D-03  0.33720170D-04  0.17232128D-03
  0.16156215D-03  0.11504188D-03  0.19704848D-03  0.18474548D-03  0.13154979D-03
  0.13340884D-03  0.12507927D-03  0.89063891D-04 -0.30952110D-03 -0.32336953D-03
 -0.22971519D-03  0.69086383D-04  0.31883544D-03  0.13158845D-03 -0.15999293D-05
 -0.47533250D-05 -0.21901174D-05  0.99299951D-04 -0.26584053D-03  0.16654058D-03
  0.19227857D-03 -0.15621124D-03 -0.39679099D-03  0.12227092D-03 -0.34162491D-03
  0.21935399D-03  0.20796677D-03 -0.24731393D-03 -0.55728611D-03  0.30633363D-05
  0.73919569D-06 -0.38025320D-05  0.13861916D-04  0.21661559D-04  0.21483206D-04
  0.56529314D-04 -0.31810951D-04 -0.19400028D-03 -0.48481482D-04 -0.11280601D-03
  0.70902733D-03 -0.12110646D-03  0.20823886D-03 -0.12702649D-03  0.48340837D-03
  0.18230199D-04 -0.36853069D-04 -0.17688567D-04 -0.46705139D-04  0.66626158D-04
  0.18905476D-03 -0.79854568D-05  0.43933050D-04 -0.13598906D-03  0.10103970D-03
  0.36737433D-04  0.68486927D-04  0.11575497D-03  0.17401764D-03  0.21380078D-03
  0.18058893D-03  0.68111502D-04 -0.33708762D-06 -0.25058371D-04 -0.46917178D-04
 -0.79880509D-04 -0.12356300D-03 -0.16272813D-03 -0.16908495D-03 -0.10744589D-03
  0.72007739D-04  0.75818311D-05  0.33575299D-03 -0.48464446D-04  0.73681508D-04
  0.69081097D-04  0.49189857D-04  0.67045123D-04  0.62859064D-04  0.44759398D-04
  0.51474492D-04  0.48260609D-04  0.34364428D-04 -0.26377649D-03 -0.88107995D-04
 -0.13461764D-03 -0.22435016D-03  0.51932797D-04 -0.73071224D-04  0.28175257D-05
  0.28158755D-05  0.20470634D-05  0.10328213D-04 -0.12213109D-04  0.18848967D-05
  0.59238033D-04  0.49289763D-04  0.40112763D-04  0.84449267D-04 -0.10993776D-03
  0.25488495D-04  0.38240572D-04  0.33026153D-04 -0.10678075D-03  0.14873831D-04
 -0.17153837D-04  0.22800060D-05  0.48507384D-05  0.93314190D-05 -0.13963329D-04
 -0.52403762D-04 -0.26705781D-04  0.19756148D-04  0.17333849D-03  0.11538174D-04
 -0.52632698D-04 -0.16127203D-04  0.68579170D-04 -0.66357476D-05  0.76410347D-04
  0.65951720D-05 -0.19933429D-05 -0.16231993D-06 -0.24986086D-04  0.13281859D-04
  0.14894395D-04  0.52005704D-05 -0.73018309D-05 -0.14407436D-04 -0.28466990D-05
  0.12969639D-04  0.24167012D-04  0.40872476D-04  0.61551684D-04  0.76204978D-04
  0.64846997D-04  0.24675479D-04 -0.11556579D-06 -0.90380870D-05 -0.16946498D-04
 -0.28831035D-04 -0.44771553D-04 -0.59414455D-04 -0.62614679D-04 -0.38825096D-04
  0.25826469D-04 -0.18832832D-05  0.14490246D-03  0.53992242D-04  0.46035141D-04
  0.44216203D-04  0.31007453D-04  0.24342050D-04  0.23380248D-04  0.16395844D-04
  0.26434119D-04  0.25389656D-04  0.17804979D-04 -0.73424312D-04 -0.13411719D-04
 -0.33863131D-04 -0.24150486D-04 -0.31409588D-04 -0.19968567D-04 -0.67085549D-05
 -0.19477060D-05 -0.33275651D-05 -0.33672848D-04  0.36186605D-04 -0.25137565D-05
 -0.35405020D-04 -0.46268746D-04  0.16449765D-05  0.13487672D-04 -0.46136218D-05
 -0.88740498D-05 -0.20269008D-04  0.14117776D-04 -0.26242992D-05 -0.42852888D-05
  0.37221179D-05  0.56317091D-06  0.87664441D-05  0.24744454D-05  0.96243656D-05
  0.19200894D-04 -0.63899151D-06 -0.39164351D-05 -0.53963187D-04  0.71484302D-05
  0.52117063D-04 -0.36394935D-05 -0.52314557D-05 -0.40367757D-04 -0.18585297D-04
  0.47362881D-05  0.47641078D-05 -0.23669900D-05 -0.19917783D-04 -0.12940024D-05
 -0.49213674D-05  0.57089192D-05 -0.12998321D-04  0.12022337D-04 -0.85451608D-05
 -0.30276669D+00 -0.56437023D+00 -0.95674629D+00 -0.14487959D+01 -0.18117243D+01
 -0.15597259D+01 -0.59961557D+00  0.25982324D-02 -0.26825230D-03 -0.50373031D-03
 -0.85776584D-03 -0.13436851D-02 -0.18006961D-02 -0.19368915D-02 -0.11629071D-02
  0.76477664D-03 -0.29352943D-01 -0.17280976D-03 -0.11413074D-03  0.57701826D-03
  0.56431126D-03  0.37286431D-03  0.44906676D-02  0.43917748D-02  0.29018313D-02
  0.21114218D-02  0.20649244D-02  0.13643829D-02 -0.15208758D-03 -0.10546358D-02
 -0.49978804D-03 -0.15976083D-03 -0.35828247D-04 -0.59561273D-04  0.13876393D-05
  0.11938811D-04  0.46901572D-05 -0.64233738D-04  0.99147150D-04 -0.34913411D-04
 -0.17395318D-03 -0.98264178D-04  0.62338390D-04 -0.13026650D-03  0.18464687D-03
 -0.54380375D-04  0.20625869D-03  0.92316328D-04  0.34367945D-03 -0.43681696D-05
 -0.46586615D-05  0.90268311D-05  0.71544166D-04  0.10147160D-04  0.10378709D-04
  0.78156017D-04  0.29121286D-04 -0.96578943D-04 -0.10762554D-03 -0.19024311D-03
  0.35271915D-03 -0.12684251D-03  0.10287925D-03 -0.62982323D-04 -0.33971786D-04
 -0.47299509D-05 -0.11668219D-04  0.40847723D-04 -0.38090058D-04  0.83204748D-04
 -0.10022594D-03  0.52279911D-04 -0.48200091D-04 -0.22317232D-04 -0.55631040D-04
  0.39250473D+00  0.73164581D+00  0.12403195D+01  0.18782093D+01  0.23487073D+01
  0.20220182D+01  0.77733763D+00 -0.33683312D-02  0.32064240D-03  0.60210963D-03
  0.10252889D-02  0.16061089D-02  0.21523749D-02  0.23151694D-02  0.13900247D-02
 -0.91413872D-03  0.38001172D-01  0.75115433D-03  0.91933662D-04  0.50629894D-02
  0.49514931D-02  0.32716608D-02  0.27709985D-02  0.27099760D-02  0.17905957D-02
 -0.23697775D-02 -0.23175907D-02 -0.15313301D-02 -0.10849140D-02 -0.59602506D-03
  0.46866185D-03  0.95192215D-04 -0.89817595D-04 -0.25707559D-03  0.14497241D-04
  0.87986973D-05  0.12017564D-05 -0.15541228D-04  0.84118392D-04 -0.68577163D-04
  0.11005252D-03  0.26710118D-03  0.98671473D-04 -0.20775277D-03  0.39744183D-04
  0.16800859D-03 -0.53246438D-03  0.25803218D-03  0.14992765D-03  0.67155312D-05
 -0.58006682D-04  0.51291151D-04 -0.32397259D-04 -0.69118807D-04 -0.53296514D-04
 -0.45790742D-04  0.22436485D-04 -0.27257477D-04 -0.64770810D-04 -0.14945886D-03
  0.14438710D-03  0.20214303D-03  0.82149405D-04 -0.62614668D-04  0.29011751D-03
  0.52510300D-05  0.74732576D-05 -0.17475873D-04 -0.38849350D-04 -0.69088957D-04
  0.12726109D-04  0.23096260D-04  0.46669184D-04  0.39701510D-04 -0.25376025D-04
  0.32987770D+00  0.61490633D+00  0.10424174D+01  0.15785272D+01  0.19739538D+01
  0.16993903D+01  0.65330768D+00 -0.28308891D-02  0.26763482D-03  0.50257080D-03
  0.85579140D-03  0.13405922D-02  0.17965512D-02  0.19324331D-02  0.11602303D-02
 -0.76301624D-03  0.31934292D-01  0.66765126D-03  0.73280714D-04  0.99988503D-03
  0.97786572D-03  0.64611722D-03 -0.59116329D-03 -0.57814479D-03 -0.38200470D-03
  0.50976898D-02  0.49854293D-02  0.32940839D-02 -0.24078389D-03  0.97939370D-04
 -0.10683212D-02 -0.10996085D-03 -0.25759767D-03  0.12159514D-03  0.82521372D-05
  0.44048763D-05  0.11975884D-04  0.53974260D-04 -0.96759525D-05 -0.44298307D-04
  0.70705544D-04  0.15374139D-03  0.30407797D-03  0.13889721D-03  0.17437982D-03
 -0.31327702D-03 -0.10507110D-04 -0.30399888D-03 -0.52098148D-04  0.60638667D-05
 -0.20467696D-04  0.14403829D-04  0.13956282D-04 -0.63210028D-04 -0.13718010D-03
  0.46784274D-04 -0.23063438D-04 -0.84563215D-04  0.66026757D-04  0.10712093D-03
  0.11731532D-03 -0.20637958D-03 -0.37930619D-04  0.13637433D-03  0.94481286D-04
  0.16608755D-04  0.25421221D-04 -0.14753855D-04  0.36021654D-05 -0.18359054D-04
  0.22119163D-04 -0.53428431D-04 -0.57904610D-04  0.22142401D-04 -0.72592497D-05
MO    3     MO 0.0        OCC NO =    2.0000000  ORB. ENERGY =  -26.388266
  0.19392712D-03  0.36152425D-03  0.61103967D-03  0.91859278D-03  0.11285974D-02
  0.95328089D-03  0.35954248D-03 -0.17793958D-05 -0.14493717D-03 -0.27136811D-03
 -0.46202743D-03 -0.71468618D-03 -0.94121656D-03 -0.97798429D-03 -0.62146511D-03
  0.41649147D-03 -0.27032451D-03 -0.19284179D-02  0.76417554D-04  0.39661479D-04
  0.37185158D-04  0.26478048D-04 -0.15928852D-03 -0.14934312D-03 -0.10634120D-03
 -0.52057736D-04 -0.48807437D-04 -0.34753802D-04 -0.10525218D-03  0.29679969D-03
  0.81741008D-04 -0.24907801D-03  0.15356134D-04 -0.11360409D-03  0.28896983D-05
  0.50129399D-06  0.16179674D-05 -0.15148670D-03  0.13071691D-03  0.20769792D-04
  0.24397701D-03 -0.29629732D-04  0.23345638D-03 -0.17473859D-03  0.16756372D-03
  0.71748695D-05  0.28567745D-03 -0.44664939D-05  0.30970273D-03 -0.58975969D-05
 -0.50698314D-06  0.64045801D-05  0.51613499D-05 -0.13105894D-04 -0.64188695D-05
 -0.35715780D-04  0.17242119D-03 -0.29213336D-03  0.16515298D-03 -0.55283003D-03
  0.11269564D-03 -0.58005643D-04  0.35566451D-04  0.76370446D-03  0.51951778D-03
 -0.16414358D-04  0.36371768D-05  0.10896816D-04 -0.85349771D-05  0.43582782D-04
 -0.98664022D-04  0.57778052D-04 -0.54494312D-04  0.65973573D-04  0.26539073D-04
  0.83078891D-04  0.15487794D-03  0.26177100D-03  0.39352757D-03  0.48349408D-03
  0.40838805D-03  0.15402895D-03 -0.76229785D-06 -0.56698197D-04 -0.10615691D-03
 -0.18074123D-03 -0.27957920D-03 -0.36819597D-03 -0.38257920D-03 -0.24311191D-03
  0.16292795D-03  0.17541417D-04  0.75372494D-03 -0.10973345D-03  0.36092542D-04
  0.33839052D-04  0.24095421D-04 -0.73669127D-04 -0.69069489D-04 -0.49181591D-04
 -0.15433777D-04 -0.14470147D-04 -0.10303607D-04 -0.29675840D-03  0.31433494D-03
 -0.30479178D-05 -0.39279820D-03  0.31003303D-03 -0.51330944D-04  0.11281054D-05
 -0.27721872D-05 -0.69201402D-06 -0.32513918D-04  0.63286800D-05  0.26185238D-04
  0.48715788D-04 -0.43754702D-04 -0.12370972D-05 -0.92129596D-05  0.46816471D-04
 -0.37603511D-04 -0.80540339D-04 -0.43725157D-05  0.38532828D-04  0.30864828D-06
  0.71143669D-05 -0.74230152D-05 -0.19171194D-04 -0.84118239D-06  0.37790746D-05
  0.23247615D-04  0.15101754D-04 -0.54485184D-05 -0.66198090D-04 -0.22487294D-04
  0.26573348D-04 -0.35447555D-05 -0.22817970D-04 -0.10227792D-04 -0.75463638D-04
 -0.45449218D-05 -0.63615803D-05  0.86913603D-05 -0.11924645D-06  0.27559952D-04
 -0.20015478D-04  0.13754012D-04 -0.84752106D-05 -0.60586035D-05  0.57887621D-05
  0.29665536D-04  0.55277358D-04  0.93487870D-04  0.14078755D-03  0.17430412D-03
  0.14832494D-03  0.56440377D-04 -0.26433436D-06 -0.20669750D-04 -0.38755975D-04
 -0.65935444D-04 -0.10239078D-03 -0.13587852D-03 -0.14319731D-03 -0.88791469D-04
  0.59064120D-04 -0.39080181D-05  0.32591072D-03  0.12165740D-03  0.42010210D-04
  0.40350305D-04  0.28296419D-04 -0.51823795D-04 -0.49776136D-04 -0.34906462D-04
 -0.28229795D-05 -0.27114381D-05 -0.19014476D-05 -0.94766839D-04  0.90906617D-04
 -0.52305431D-05 -0.13577380D-05  0.20744825D-04  0.85725591D-05 -0.79111285D-05
  0.81229777D-05 -0.19676374D-06  0.11846525D-04 -0.14932243D-04  0.30857184D-05
  0.20543922D-04  0.21822619D-04 -0.24378347D-05  0.19165189D-04  0.28395669D-07
 -0.19193585D-04 -0.58572234D-04  0.11436285D-04 -0.10654642D-04 -0.65636226D-05
 -0.12171609D-05  0.77807835D-05  0.18589945D-04 -0.68540352D-05 -0.91019476D-07
 -0.69658161D-05 -0.20173335D-05  0.15584215D-04  0.22137151D-04  0.38219846D-05
 -0.36705485D-04 -0.12397026D-05  0.22300160D-05 -0.10047160D-04 -0.21348096D-04
 -0.30397862D-05 -0.36838773D-05 -0.23557729D-05  0.48117553D-05  0.94538928D-05