 Molden2AIM, Version 4.0.0 (06/02/2016)           Time: Wed Jun 27 23:03:45 2018
GAUSSIAN             37 MOL ORBITALS    656 PRIMITIVES        8 NUCLEI
  C    1    (CENTRE  1)  -1.86455497  0.05305595  0.01317706  CHARGE =  6.0
  S    2    (CENTRE  2)   1.65663219 -0.40045942 -0.10341904  CHARGE = 16.0
  F    3    (CENTRE  3)  -2.52349869  0.76316779  2.31555323  CHARGE =  9.0
  F    4    (CENTRE  4)  -2.91867822 -2.14755091 -0.55135216  CHARGE =  9.0
  F    5    (CENTRE  5)  -2.52535629  1.78559655 -1.66078014  CHARGE =  9.0
  O    6    (CENTRE  6)   2.43481951 -0.77319467 -2.71255634  CHARGE =  8.0
  O    7    (CENTRE  7)   2.43276916 -1.98632137  2.00243884  CHARGE =  8.0
  F    8    (CENTRE  8)   2.31972952  2.50105253  0.64345741  CHARGE =  9.0
CENTRE ASSIGNMENTS    1  1  1  1  1  1  1  1  1  1  1  1  1  1  1  1  1  1  1  1
CENTRE ASSIGNMENTS    1  1  1  1  1  1  1  1  1  1  1  1  1  1  1  1  1  1  1  1
CENTRE ASSIGNMENTS    1  1  1  1  1  1  1  1  1  1  1  1  1  1  1  1  1  1  1  1
CENTRE ASSIGNMENTS    1  1  1  1  1  1  1  1  1  1  1  1  1  1  1  2  2  2  2  2
CENTRE ASSIGNMENTS    2  2  2  2  2  2  2  2  2  2  2  2  2  2  2  2  2  2  2  2
CENTRE ASSIGNMENTS    2  2  2  2  2  2  2  2  2  2  2  2  2  2  2  2  2  2  2  2
CENTRE ASSIGNMENTS    2  2  2  2  2  2  2  2  2  2  2  2  2  2  2  2  2  2  2  2
CENTRE ASSIGNMENTS    2  2  2  2  2  2  2  2  2  2  2  2  2  2  2  2  2  2  2  2
CENTRE ASSIGNMENTS    2  2  2  2  2  2  2  2  2  2  2  2  2  2  2  2  2  2  2  2
CENTRE ASSIGNMENTS    2  2  2  2  2  2  2  2  2  2  2  2  2  2  2  2  2  2  2  2
CENTRE ASSIGNMENTS    2  2  2  2  2  2  3  3  3  3  3  3  3  3  3  3  3  3  3  3
CENTRE ASSIGNMENTS    3  3  3  3  3  3  3  3  3  3  3  3  3  3  3  3  3  3  3  3
CENTRE ASSIGNMENTS    3  3  3  3  3  3  3  3  3  3  3  3  3  3  3  3  3  3  3  3
CENTRE ASSIGNMENTS    3  3  3  3  3  3  3  3  3  3  3  3  3  3  3  3  3  3  3  3
CENTRE ASSIGNMENTS    3  4  4  4  4  4  4  4  4  4  4  4  4  4  4  4  4  4  4  4
CENTRE ASSIGNMENTS    4  4  4  4  4  4  4  4  4  4  4  4  4  4  4  4  4  4  4  4
CENTRE ASSIGNMENTS    4  4  4  4  4  4  4  4  4  4  4  4  4  4  4  4  4  4  4  4
CENTRE ASSIGNMENTS    4  4  4  4  4  4  4  4  4  4  4  4  4  4  4  4  5  5  5  5
CENTRE ASSIGNMENTS    5  5  5  5  5  5  5  5  5  5  5  5  5  5  5  5  5  5  5  5
CENTRE ASSIGNMENTS    5  5  5  5  5  5  5  5  5  5  5  5  5  5  5  5  5  5  5  5
CENTRE ASSIGNMENTS    5  5  5  5  5  5  5  5  5  5  5  5  5  5  5  5  5  5  5  5
CENTRE ASSIGNMENTS    5  5  5  5  5  5  5  5  5  5  5  6  6  6  6  6  6  6  6  6
CENTRE ASSIGNMENTS    6  6  6  6  6  6  6  6  6  6  6  6  6  6  6  6  6  6  6  6
CENTRE ASSIGNMENTS    6  6  6  6  6  6  6  6  6  6  6  6  6  6  6  6  6  6  6  6
CENTRE ASSIGNMENTS    6  6  6  6  6  6  6  6  6  6  6  6  6  6  6  6  6  6  6  6
CENTRE ASSIGNMENTS    6  6  6  6  6  6  7  7  7  7  7  7  7  7  7  7  7  7  7  7
CENTRE ASSIGNMENTS    7  7  7  7  7  7  7  7  7  7  7  7  7  7  7  7  7  7  7  7
CENTRE ASSIGNMENTS    7  7  7  7  7  7  7  7  7  7  7  7  7  7  7  7  7  7  7  7
CENTRE ASSIGNMENTS    7  7  7  7  7  7  7  7  7  7  7  7  7  7  7  7  7  7  7  7
CENTRE ASSIGNMENTS    7  8  8  8  8  8  8  8  8  8  8  8  8  8  8  8  8  8  8  8
CENTRE ASSIGNMENTS    8  8  8  8  8  8  8  8  8  8  8  8  8  8  8  8  8  8  8  8
CENTRE ASSIGNMENTS    8  8  8  8  8  8  8  8  8  8  8  8  8  8  8  8  8  8  8  8
CENTRE ASSIGNMENTS    8  8  8  8  8  8  8  8  8  8  8  8  8  8  8  8
TYPE ASSIGNMENTS      1  1  1  1  1  1  1  1  1  1  1  1  1  1  1  1  1  1  1  2
TYPE ASSIGNMENTS      2  2  3  3  3  4  4  4  2  3  4  2  3  4  2  3  4  5  6  7
TYPE ASSIGNMENTS      8  9 10  5  6  7  8  9 10  5  6  7  8  9 10 11 12 13 17 14
TYPE ASSIGNMENTS     15 18 19 16 20 11 12 13 17 14 15 18 19 16 20  1  1  1  1  1
TYPE ASSIGNMENTS      1  1  1  1  1  1  1  1  1  1  1  1  1  1  1  1  1  1  1  1
TYPE ASSIGNMENTS      1  1  1  1  1  1  1  1  1  1  1  1  1  1  1  1  1  2  2  2
TYPE ASSIGNMENTS      2  2  2  2  3  3  3  3  3  3  3  4  4  4  4  4  4  4  2  2
TYPE ASSIGNMENTS      2  2  2  2  2  3  3  3  3  3  3  3  4  4  4  4  4  4  4  2
TYPE ASSIGNMENTS      3  4  2  3  4  2  3  4  5  6  7  8  9 10  5  6  7  8  9 10
TYPE ASSIGNMENTS      5  6  7  8  9 10 11 12 13 17 14 15 18 19 16 20 11 12 13 17
TYPE ASSIGNMENTS     14 15 18 19 16 20  1  1  1  1  1  1  1  1  1  1  1  1  1  1
TYPE ASSIGNMENTS      1  1  1  1  1  2  2  2  3  3  3  4  4  4  2  3  4  2  3  4
TYPE ASSIGNMENTS      2  3  4  5  6  7  8  9 10  5  6  7  8  9 10  5  6  7  8  9
TYPE ASSIGNMENTS     10 11 12 13 17 14 15 18 19 16 20 11 12 13 17 14 15 18 19 16
TYPE ASSIGNMENTS     20  1  1  1  1  1  1  1  1  1  1  1  1  1  1  1  1  1  1  1
TYPE ASSIGNMENTS      2  2  2  3  3  3  4  4  4  2  3  4  2  3  4  2  3  4  5  6
TYPE ASSIGNMENTS      7  8  9 10  5  6  7  8  9 10  5  6  7  8  9 10 11 12 13 17
TYPE ASSIGNMENTS     14 15 18 19 16 20 11 12 13 17 14 15 18 19 16 20  1  1  1  1
TYPE ASSIGNMENTS      1  1  1  1  1  1  1  1  1  1  1  1  1  1  1  2  2  2  3  3
TYPE ASSIGNMENTS      3  4  4  4  2  3  4  2  3  4  2  3  4  5  6  7  8  9 10  5
TYPE ASSIGNMENTS      6  7  8  9 10  5  6  7  8  9 10 11 12 13 17 14 15 18 19 16
TYPE ASSIGNMENTS     20 11 12 13 17 14 15 18 19 16 20  1  1  1  1  1  1  1  1  1
TYPE ASSIGNMENTS      1  1  1  1  1  1  1  1  1  1  2  2  2  3  3  3  4  4  4  2
TYPE ASSIGNMENTS      3  4  2  3  4  2  3  4  5  6  7  8  9 10  5  6  7  8  9 10
TYPE ASSIGNMENTS      5  6  7  8  9 10 11 12 13 17 14 15 18 19 16 20 11 12 13 17
TYPE ASSIGNMENTS     14 15 18 19 16 20  1  1  1  1  1  1  1  1  1  1  1  1  1  1
TYPE ASSIGNMENTS      1  1  1  1  1  2  2  2  3  3  3  4  4  4  2  3  4  2  3  4
TYPE ASSIGNMENTS      2  3  4  5  6  7  8  9 10  5  6  7  8  9 10  5  6  7  8  9
TYPE ASSIGNMENTS     10 11 12 13 17 14 15 18 19 16 20 11 12 13 17 14 15 18 19 16
TYPE ASSIGNMENTS     20  1  1  1  1  1  1  1  1  1  1  1  1  1  1  1  1  1  1  1
TYPE ASSIGNMENTS      2  2  2  3  3  3  4  4  4  2  3  4  2  3  4  2  3  4  5  6
TYPE ASSIGNMENTS      7  8  9 10  5  6  7  8  9 10  5  6  7  8  9 10 11 12 13 17
TYPE ASSIGNMENTS     14 15 18 19 16 20 11 12 13 17 14 15 18 19 16 20
EXPONENTS  0.8236000D+04 0.1235000D+04 0.2808000D+03 0.7927000D+02 0.2559000D+02
EXPONENTS  0.8997000D+01 0.3319000D+01 0.3643000D+00 0.8236000D+04 0.1235000D+04
EXPONENTS  0.2808000D+03 0.7927000D+02 0.2559000D+02 0.8997000D+01 0.3319000D+01
EXPONENTS  0.3643000D+00 0.9059000D+00 0.1285000D+00 0.4402000D-01 0.1871000D+02
EXPONENTS  0.4133000D+01 0.1200000D+01 0.1871000D+02 0.4133000D+01 0.1200000D+01
EXPONENTS  0.1871000D+02 0.4133000D+01 0.1200000D+01 0.3827000D+00 0.3827000D+00
EXPONENTS  0.3827000D+00 0.1209000D+00 0.1209000D+00 0.1209000D+00 0.3569000D-01
EXPONENTS  0.3569000D-01 0.3569000D-01 0.1097000D+01 0.1097000D+01 0.1097000D+01
EXPONENTS  0.1097000D+01 0.1097000D+01 0.1097000D+01 0.3180000D+00 0.3180000D+00
EXPONENTS  0.3180000D+00 0.3180000D+00 0.3180000D+00 0.3180000D+00 0.1000000D+00
EXPONENTS  0.1000000D+00 0.1000000D+00 0.1000000D+00 0.1000000D+00 0.1000000D+00
EXPONENTS  0.7610000D+00 0.7610000D+00 0.7610000D+00 0.7610000D+00 0.7610000D+00
EXPONENTS  0.7610000D+00 0.7610000D+00 0.7610000D+00 0.7610000D+00 0.7610000D+00
EXPONENTS  0.2680000D+00 0.2680000D+00 0.2680000D+00 0.2680000D+00 0.2680000D+00
EXPONENTS  0.2680000D+00 0.2680000D+00 0.2680000D+00 0.2680000D+00 0.2680000D+00
EXPONENTS  0.3741000D+06 0.5605000D+05 0.1276000D+05 0.3615000D+04 0.1183000D+04
EXPONENTS  0.4288000D+03 0.1678000D+03 0.6947000D+02 0.2984000D+02 0.1272000D+02
EXPONENTS  0.5244000D+01 0.2219000D+01 0.3490000D+00 0.3741000D+06 0.5605000D+05
EXPONENTS  0.1276000D+05 0.3615000D+04 0.1183000D+04 0.4288000D+03 0.1678000D+03
EXPONENTS  0.6947000D+02 0.2984000D+02 0.1272000D+02 0.5244000D+01 0.2219000D+01
EXPONENTS  0.3490000D+00 0.3741000D+06 0.5605000D+05 0.1276000D+05 0.3615000D+04
EXPONENTS  0.1183000D+04 0.4288000D+03 0.1678000D+03 0.6947000D+02 0.2984000D+02
EXPONENTS  0.1272000D+02 0.5244000D+01 0.2219000D+01 0.3490000D+00 0.7767000D+00
EXPONENTS  0.1322000D+00 0.4970000D-01 0.5744000D+03 0.1358000D+03 0.4319000D+02
EXPONENTS  0.1587000D+02 0.6208000D+01 0.2483000D+01 0.3229000D+00 0.5744000D+03
EXPONENTS  0.1358000D+03 0.4319000D+02 0.1587000D+02 0.6208000D+01 0.2483000D+01
EXPONENTS  0.3229000D+00 0.5744000D+03 0.1358000D+03 0.4319000D+02 0.1587000D+02
EXPONENTS  0.6208000D+01 0.2483000D+01 0.3229000D+00 0.5744000D+03 0.1358000D+03
EXPONENTS  0.4319000D+02 0.1587000D+02 0.6208000D+01 0.2483000D+01 0.3229000D+00
EXPONENTS  0.5744000D+03 0.1358000D+03 0.4319000D+02 0.1587000D+02 0.6208000D+01
EXPONENTS  0.2483000D+01 0.3229000D+00 0.5744000D+03 0.1358000D+03 0.4319000D+02
EXPONENTS  0.1587000D+02 0.6208000D+01 0.2483000D+01 0.3229000D+00 0.8688000D+00
EXPONENTS  0.8688000D+00 0.8688000D+00 0.1098000D+00 0.1098000D+00 0.1098000D+00
EXPONENTS  0.3510000D-01 0.3510000D-01 0.3510000D-01 0.2690000D+00 0.2690000D+00
EXPONENTS  0.2690000D+00 0.2690000D+00 0.2690000D+00 0.2690000D+00 0.8190000D+00
EXPONENTS  0.8190000D+00 0.8190000D+00 0.8190000D+00 0.8190000D+00 0.8190000D+00
EXPONENTS  0.1010000D+00 0.1010000D+00 0.1010000D+00 0.1010000D+00 0.1010000D+00
EXPONENTS  0.1010000D+00 0.5570000D+00 0.5570000D+00 0.5570000D+00 0.5570000D+00
EXPONENTS  0.5570000D+00 0.5570000D+00 0.5570000D+00 0.5570000D+00 0.5570000D+00
EXPONENTS  0.5570000D+00 0.2180000D+00 0.2180000D+00 0.2180000D+00 0.2180000D+00
EXPONENTS  0.2180000D+00 0.2180000D+00 0.2180000D+00 0.2180000D+00 0.2180000D+00
EXPONENTS  0.2180000D+00 0.1950000D+05 0.2923000D+04 0.6645000D+03 0.1875000D+03
EXPONENTS  0.6062000D+02 0.2142000D+02 0.7950000D+01 0.8815000D+00 0.1950000D+05
EXPONENTS  0.2923000D+04 0.6645000D+03 0.1875000D+03 0.6062000D+02 0.2142000D+02
EXPONENTS  0.7950000D+01 0.8815000D+00 0.2257000D+01 0.3041000D+00 0.9158000D-01
EXPONENTS  0.4388000D+02 0.9926000D+01 0.2930000D+01 0.4388000D+02 0.9926000D+01
EXPONENTS  0.2930000D+01 0.4388000D+02 0.9926000D+01 0.2930000D+01 0.9132000D+00
EXPONENTS  0.9132000D+00 0.9132000D+00 0.2672000D+00 0.2672000D+00 0.2672000D+00
EXPONENTS  0.7361000D-01 0.7361000D-01 0.7361000D-01 0.3107000D+01 0.3107000D+01
EXPONENTS  0.3107000D+01 0.3107000D+01 0.3107000D+01 0.3107000D+01 0.8550000D+00
EXPONENTS  0.8550000D+00 0.8550000D+00 0.8550000D+00 0.8550000D+00 0.8550000D+00
EXPONENTS  0.2920000D+00 0.2920000D+00 0.2920000D+00 0.2920000D+00 0.2920000D+00
EXPONENTS  0.2920000D+00 0.1917000D+01 0.1917000D+01 0.1917000D+01 0.1917000D+01
EXPONENTS  0.1917000D+01 0.1917000D+01 0.1917000D+01 0.1917000D+01 0.1917000D+01
EXPONENTS  0.1917000D+01 0.7240000D+00 0.7240000D+00 0.7240000D+00 0.7240000D+00
EXPONENTS  0.7240000D+00 0.7240000D+00 0.7240000D+00 0.7240000D+00 0.7240000D+00
EXPONENTS  0.7240000D+00 0.1950000D+05 0.2923000D+04 0.6645000D+03 0.1875000D+03
EXPONENTS  0.6062000D+02 0.2142000D+02 0.7950000D+01 0.8815000D+00 0.1950000D+05
EXPONENTS  0.2923000D+04 0.6645000D+03 0.1875000D+03 0.6062000D+02 0.2142000D+02
EXPONENTS  0.7950000D+01 0.8815000D+00 0.2257000D+01 0.3041000D+00 0.9158000D-01
EXPONENTS  0.4388000D+02 0.9926000D+01 0.2930000D+01 0.4388000D+02 0.9926000D+01
EXPONENTS  0.2930000D+01 0.4388000D+02 0.9926000D+01 0.2930000D+01 0.9132000D+00
EXPONENTS  0.9132000D+00 0.9132000D+00 0.2672000D+00 0.2672000D+00 0.2672000D+00
EXPONENTS  0.7361000D-01 0.7361000D-01 0.7361000D-01 0.3107000D+01 0.3107000D+01
EXPONENTS  0.3107000D+01 0.3107000D+01 0.3107000D+01 0.3107000D+01 0.8550000D+00
EXPONENTS  0.8550000D+00 0.8550000D+00 0.8550000D+00 0.8550000D+00 0.8550000D+00
EXPONENTS  0.2920000D+00 0.2920000D+00 0.2920000D+00 0.2920000D+00 0.2920000D+00
EXPONENTS  0.2920000D+00 0.1917000D+01 0.1917000D+01 0.1917000D+01 0.1917000D+01
EXPONENTS  0.1917000D+01 0.1917000D+01 0.1917000D+01 0.1917000D+01 0.1917000D+01
EXPONENTS  0.1917000D+01 0.7240000D+00 0.7240000D+00 0.7240000D+00 0.7240000D+00
EXPONENTS  0.7240000D+00 0.7240000D+00 0.7240000D+00 0.7240000D+00 0.7240000D+00
EXPONENTS  0.7240000D+00 0.1950000D+05 0.2923000D+04 0.6645000D+03 0.1875000D+03
EXPONENTS  0.6062000D+02 0.2142000D+02 0.7950000D+01 0.8815000D+00 0.1950000D+05
EXPONENTS  0.2923000D+04 0.6645000D+03 0.1875000D+03 0.6062000D+02 0.2142000D+02
EXPONENTS  0.7950000D+01 0.8815000D+00 0.2257000D+01 0.3041000D+00 0.9158000D-01
EXPONENTS  0.4388000D+02 0.9926000D+01 0.2930000D+01 0.4388000D+02 0.9926000D+01
EXPONENTS  0.2930000D+01 0.4388000D+02 0.9926000D+01 0.2930000D+01 0.9132000D+00
EXPONENTS  0.9132000D+00 0.9132000D+00 0.2672000D+00 0.2672000D+00 0.2672000D+00
EXPONENTS  0.7361000D-01 0.7361000D-01 0.7361000D-01 0.3107000D+01 0.3107000D+01
EXPONENTS  0.3107000D+01 0.3107000D+01 0.3107000D+01 0.3107000D+01 0.8550000D+00
EXPONENTS  0.8550000D+00 0.8550000D+00 0.8550000D+00 0.8550000D+00 0.8550000D+00
EXPONENTS  0.2920000D+00 0.2920000D+00 0.2920000D+00 0.2920000D+00 0.2920000D+00
EXPONENTS  0.2920000D+00 0.1917000D+01 0.1917000D+01 0.1917000D+01 0.1917000D+01
EXPONENTS  0.1917000D+01 0.1917000D+01 0.1917000D+01 0.1917000D+01 0.1917000D+01
EXPONENTS  0.1917000D+01 0.7240000D+00 0.7240000D+00 0.7240000D+00 0.7240000D+00
EXPONENTS  0.7240000D+00 0.7240000D+00 0.7240000D+00 0.7240000D+00 0.7240000D+00
EXPONENTS  0.7240000D+00 0.1533000D+05 0.2299000D+04 0.5224000D+03 0.1473000D+03
EXPONENTS  0.4755000D+02 0.1676000D+02 0.6207000D+01 0.6882000D+00 0.1533000D+05
EXPONENTS  0.2299000D+04 0.5224000D+03 0.1473000D+03 0.4755000D+02 0.1676000D+02
EXPONENTS  0.6207000D+01 0.6882000D+00 0.1752000D+01 0.2384000D+00 0.7376000D-01
EXPONENTS  0.3446000D+02 0.7749000D+01 0.2280000D+01 0.3446000D+02 0.7749000D+01
EXPONENTS  0.2280000D+01 0.3446000D+02 0.7749000D+01 0.2280000D+01 0.7156000D+00
EXPONENTS  0.7156000D+00 0.7156000D+00 0.2140000D+00 0.2140000D+00 0.2140000D+00
EXPONENTS  0.5974000D-01 0.5974000D-01 0.5974000D-01 0.2314000D+01 0.2314000D+01
EXPONENTS  0.2314000D+01 0.2314000D+01 0.2314000D+01 0.2314000D+01 0.6450000D+00
EXPONENTS  0.6450000D+00 0.6450000D+00 0.6450000D+00 0.6450000D+00 0.6450000D+00
EXPONENTS  0.2140000D+00 0.2140000D+00 0.2140000D+00 0.2140000D+00 0.2140000D+00
EXPONENTS  0.2140000D+00 0.1428000D+01 0.1428000D+01 0.1428000D+01 0.1428000D+01
EXPONENTS  0.1428000D+01 0.1428000D+01 0.1428000D+01 0.1428000D+01 0.1428000D+01
EXPONENTS  0.1428000D+01 0.5000000D+00 0.5000000D+00 0.5000000D+00 0.5000000D+00
EXPONENTS  0.5000000D+00 0.5000000D+00 0.5000000D+00 0.5000000D+00 0.5000000D+00
EXPONENTS  0.5000000D+00 0.1533000D+05 0.2299000D+04 0.5224000D+03 0.1473000D+03
EXPONENTS  0.4755000D+02 0.1676000D+02 0.6207000D+01 0.6882000D+00 0.1533000D+05
EXPONENTS  0.2299000D+04 0.5224000D+03 0.1473000D+03 0.4755000D+02 0.1676000D+02
EXPONENTS  0.6207000D+01 0.6882000D+00 0.1752000D+01 0.2384000D+00 0.7376000D-01
EXPONENTS  0.3446000D+02 0.7749000D+01 0.2280000D+01 0.3446000D+02 0.7749000D+01
EXPONENTS  0.2280000D+01 0.3446000D+02 0.7749000D+01 0.2280000D+01 0.7156000D+00
EXPONENTS  0.7156000D+00 0.7156000D+00 0.2140000D+00 0.2140000D+00 0.2140000D+00
EXPONENTS  0.5974000D-01 0.5974000D-01 0.5974000D-01 0.2314000D+01 0.2314000D+01
EXPONENTS  0.2314000D+01 0.2314000D+01 0.2314000D+01 0.2314000D+01 0.6450000D+00
EXPONENTS  0.6450000D+00 0.6450000D+00 0.6450000D+00 0.6450000D+00 0.6450000D+00
EXPONENTS  0.2140000D+00 0.2140000D+00 0.2140000D+00 0.2140000D+00 0.2140000D+00
EXPONENTS  0.2140000D+00 0.1428000D+01 0.1428000D+01 0.1428000D+01 0.1428000D+01
EXPONENTS  0.1428000D+01 0.1428000D+01 0.1428000D+01 0.1428000D+01 0.1428000D+01
EXPONENTS  0.1428000D+01 0.5000000D+00 0.5000000D+00 0.5000000D+00 0.5000000D+00
EXPONENTS  0.5000000D+00 0.5000000D+00 0.5000000D+00 0.5000000D+00 0.5000000D+00
EXPONENTS  0.5000000D+00 0.1950000D+05 0.2923000D+04 0.6645000D+03 0.1875000D+03
EXPONENTS  0.6062000D+02 0.2142000D+02 0.7950000D+01 0.8815000D+00 0.1950000D+05
EXPONENTS  0.2923000D+04 0.6645000D+03 0.1875000D+03 0.6062000D+02 0.2142000D+02
EXPONENTS  0.7950000D+01 0.8815000D+00 0.2257000D+01 0.3041000D+00 0.9158000D-01
EXPONENTS  0.4388000D+02 0.9926000D+01 0.2930000D+01 0.4388000D+02 0.9926000D+01
EXPONENTS  0.2930000D+01 0.4388000D+02 0.9926000D+01 0.2930000D+01 0.9132000D+00
EXPONENTS  0.9132000D+00 0.9132000D+00 0.2672000D+00 0.2672000D+00 0.2672000D+00
EXPONENTS  0.7361000D-01 0.7361000D-01 0.7361000D-01 0.3107000D+01 0.3107000D+01
EXPONENTS  0.3107000D+01 0.3107000D+01 0.3107000D+01 0.3107000D+01 0.8550000D+00
EXPONENTS  0.8550000D+00 0.8550000D+00 0.8550000D+00 0.8550000D+00 0.8550000D+00
EXPONENTS  0.2920000D+00 0.2920000D+00 0.2920000D+00 0.2920000D+00 0.2920000D+00
EXPONENTS  0.2920000D+00 0.1917000D+01 0.1917000D+01 0.1917000D+01 0.1917000D+01
EXPONENTS  0.1917000D+01 0.1917000D+01 0.1917000D+01 0.1917000D+01 0.1917000D+01
EXPONENTS  0.1917000D+01 0.7240000D+00 0.7240000D+00 0.7240000D+00 0.7240000D+00
EXPONENTS  0.7240000D+00 0.7240000D+00 0.7240000D+00 0.7240000D+00 0.7240000D+00
EXPONENTS  0.7240000D+00
MO    1     MO 0.0        OCC NO =    2.0000000  ORB. ENERGY =  -92.306614
  0.22110567D-05  0.41219124D-05  0.69667582D-05  0.10473320D-04  0.12867683D-04
  0.10868815D-04  0.40993173D-05 -0.20287750D-07 -0.15917034D-05 -0.29801710D-05
 -0.50739962D-05 -0.78487006D-05 -0.10336463D-04 -0.10740247D-04 -0.68249446D-05
  0.45739192D-05  0.75378224D-05 -0.45093121D-04 -0.10143443D-04  0.28863805D-05
  0.27061652D-05  0.19269508D-05 -0.38522866D-06 -0.36117636D-06 -0.25717908D-06
 -0.10147058D-06 -0.95135115D-07 -0.67741870D-07 -0.90889503D-05 -0.89451361D-06
 -0.19088270D-06 -0.19303575D-04  0.10951453D-04  0.28094396D-05 -0.80082931D-06
 -0.94469768D-07 -0.24198231D-07 -0.79283681D-05  0.49820972D-05  0.29462709D-05
  0.70802677D-05  0.18309331D-05  0.11329772D-05  0.74945348D-05 -0.28896383D-05
 -0.46048965D-05 -0.88514386D-05 -0.23004363D-05  0.96636882D-06 -0.10740639D-05
  0.12567323D-06  0.94839066D-06  0.54268879D-06  0.14049054D-06 -0.45560695D-06
  0.39817053D-06  0.15216225D-05 -0.17075093D-05  0.20246717D-05  0.92044729D-06
  0.22881667D-06 -0.32191833D-05 -0.54853147D-05  0.48937112D-05  0.28756395D-05
  0.11812684D-05  0.20849983D-05 -0.13947422D-05 -0.19747111D-05 -0.18783949D-05
 -0.48714236D-06 -0.15690941D-05 -0.43765999D-05  0.46713690D-05 -0.23446292D-06
  0.58445497D+00  0.10926046D+01  0.18883619D+01  0.30543406D+01  0.46164570D+01
  0.63576188D+01  0.74305824D+01  0.64205838D+01  0.29945832D+01  0.40659970D+00
  0.10887738D-02  0.21357241D-02  0.97504728D-04  0.33843337D-04  0.63203873D-04
  0.10963690D-03  0.17777244D-03  0.27370091D-03  0.38981157D-03  0.50124708D-03
  0.52616027D-03  0.37203260D-03 -0.82388177D-05 -0.26731023D-03 -0.14718827D-03
  0.62245669D-06 -0.13451870D-04 -0.25103179D-04 -0.43601218D-04 -0.70624299D-04
 -0.10909387D-03 -0.15552971D-03 -0.20229334D-03 -0.21559018D-03 -0.15989875D-03
  0.49770543D-05  0.14485994D-03  0.14191274D-03 -0.66281666D-04 -0.34693895D-03
  0.84087501D-04  0.19807563D-04  0.18116305D-03  0.23767606D-03  0.26069441D-03
  0.21450349D-03  0.11309048D-03  0.29420799D-04 -0.32557113D-07  0.96973068D-03
  0.12722338D-02  0.13954466D-02  0.11481956D-02  0.60535142D-03  0.15748383D-03
 -0.17427191D-06  0.24974651D-03  0.32765382D-03  0.35938630D-03  0.29570874D-03
  0.15590350D-03  0.40558721D-04 -0.44882360D-07 -0.53372157D-04 -0.70077967D-04
 -0.78842438D-04 -0.66430715D-04 -0.37160411D-04 -0.92491505D-05  0.42421061D-05
 -0.51188085D-03 -0.67210267D-03 -0.75616083D-03 -0.63712267D-03 -0.35639749D-03
 -0.88706609D-04  0.40685125D-04 -0.13194423D-03 -0.17324358D-03 -0.19491071D-03
 -0.16422701D-03 -0.91866285D-04 -0.22865331D-04  0.10487143D-04 -0.15889867D-04
 -0.48632438D-04 -0.12516275D-04 -0.90348383D-06 -0.49083101D-05 -0.12827136D-05
 -0.33559522D-06  0.24819483D-06  0.63591567D-07 -0.69750038D-05  0.70375150D-05
 -0.62511133D-07  0.23720338D-06  0.39105888D-07  0.39219997D-05  0.13262384D-04
  0.60675974D-05 -0.19329982D-04  0.14449694D-04  0.37619465D-05  0.13989923D-04
 -0.24111427D-06 -0.82285821D-06  0.10639725D-05  0.47930430D-06  0.12252412D-06
 -0.10380891D-05  0.26694846D-05 -0.10558418D-05  0.18968771D-05  0.11604585D-05
 -0.30333414D-05 -0.76349135D-06 -0.91689123D-05  0.62008669D-05 -0.49271398D-05
  0.56697719D-05 -0.17540747D-05  0.20856934D-05 -0.16559713D-05  0.69233461D-06
 -0.10267584D-05 -0.26871117D-06  0.45698896D-05 -0.52303217D-05  0.52366251D-05
 -0.21223896D-05 -0.13252595D-05 -0.24703412D-05 -0.41878356D-05 -0.63416173D-05
 -0.79302147D-05 -0.68271762D-05 -0.26246158D-05  0.11372890D-07  0.85312049D-06
  0.16020092D-05  0.27279454D-05  0.42733103D-05  0.57267385D-05  0.61598794D-05
  0.36983835D-05 -0.24322126D-05  0.68079745D-06  0.11868523D-04 -0.76066263D-06
  0.46866249D-05  0.45834168D-05  0.30284572D-05 -0.22858079D-08 -0.22354702D-08
 -0.14770697D-08  0.29640208D-05  0.28987476D-05  0.19153251D-05 -0.43703545D-05
 -0.10560729D-06 -0.39605692D-05  0.15691189D-04 -0.52811014D-05 -0.19515811D-05
  0.30193632D-07  0.40172387D-06  0.17348232D-06 -0.55851594D-05  0.28011750D-06
  0.53050419D-05  0.66124417D-05  0.17807640D-04 -0.67287212D-06  0.10398253D-05
 -0.16112825D-06 -0.87869706D-06 -0.27477157D-05 -0.79625734D-05  0.94583901D-06
  0.40880222D-05 -0.18811259D-05 -0.22068963D-05 -0.21740646D-05 -0.52274070D-05
  0.28247854D-05 -0.55139673D-05 -0.26693013D-05 -0.68627162D-05  0.84513824D-05
  0.39128113D-05  0.27396602D-04  0.80905196D-05  0.40950926D-05 -0.68084530D-05
 -0.64960333D-05  0.13051169D-05  0.13100929D-05  0.29415489D-05 -0.36485561D-05
 -0.21629416D-05 -0.11596085D-04 -0.26679465D-06 -0.17673372D-05  0.27714384D-05
  0.43981544D-05 -0.14818178D-05 -0.27621725D-05 -0.46825615D-05 -0.70907781D-05
 -0.88670429D-05 -0.76336980D-05 -0.29346722D-05  0.12716415D-07  0.97055311D-06
  0.18225268D-05  0.31034489D-05  0.48615343D-05  0.65150279D-05  0.70077910D-05
  0.42074685D-05 -0.27670083D-05  0.25002430D-06  0.20688504D-04  0.81669636D-05
 -0.17988180D-05 -0.17592047D-05 -0.11623809D-05 -0.55416808D-05 -0.54196428D-05
 -0.35809872D-05 -0.14232566D-05 -0.13919139D-05 -0.91969636D-06  0.22932684D-05
  0.70186172D-05  0.18014797D-05  0.13290454D-04  0.67292474D-06  0.17243584D-06
  0.55997824D-06  0.65636467D-06  0.16757119D-06 -0.84597545D-05  0.65220385D-05
  0.19377160D-05 -0.74021592D-05 -0.19011684D-05  0.25383860D-05  0.29353557D-05
 -0.12747354D-05 -0.16606203D-05  0.60568417D-05  0.15555315D-05  0.20106586D-06
  0.26689183D-05 -0.18123633D-05 -0.85655505D-06  0.10542517D-05  0.26492847D-06
 -0.51901363D-06 -0.26529211D-05  0.15349253D-05  0.14114250D-07  0.13010796D-04
 -0.48733424D-05 -0.12167577D-05 -0.50520324D-05  0.26856664D-06  0.11744150D-05
  0.99370341D-05  0.12439178D-05 -0.10131038D-05 -0.14649247D-06 -0.40914164D-05
  0.36776601D-05  0.93368003D-06  0.35966312D-06 -0.63834864D-06 -0.49420263D-06
 -0.24559803D-05 -0.13242964D-05 -0.24685458D-05 -0.41847921D-05 -0.63370085D-05
 -0.79244514D-05 -0.68222145D-05 -0.26227083D-05  0.11364624D-07  0.85259164D-06
  0.16010161D-05  0.27262543D-05  0.42706612D-05  0.57231885D-05  0.61560609D-05
  0.36960909D-05 -0.24307049D-05  0.67786046D-06  0.11875792D-04 -0.76836959D-06
  0.46880728D-05  0.45848328D-05  0.30293929D-05  0.14354424D-05  0.14038313D-05
  0.92757070D-06 -0.25891448D-05 -0.25321271D-05 -0.16730834D-05 -0.43669629D-05
 -0.20085636D-05  0.34104118D-05  0.15680987D-04 -0.55956765D-05 -0.82478304D-06
  0.30027124D-07  0.43533803D-06  0.41301148D-07 -0.55714192D-05  0.11513790D-05
  0.44200402D-05  0.14363257D-04 -0.12358728D-04 -0.38634534D-05  0.10344386D-05
  0.78484121D-07 -0.11129227D-05 -0.62404375D-05  0.56301823D-05  0.90821824D-07
  0.40826715D-05 -0.75986342D-06 -0.33228081D-05 -0.44344775D-05  0.35263777D-05
 -0.12501610D-05 -0.55247015D-05 -0.42680077D-05  0.72230952D-05  0.56012935D-05
  0.16667819D-04 -0.22099126D-04  0.10972811D-04 -0.38637962D-05  0.42983984D-06
  0.38306992D-05  0.13078282D-05  0.18819836D-05 -0.30506916D-05 -0.99452280D-06
 -0.74916352D-05  0.91057579D-05 -0.29289619D-05  0.18456843D-05  0.46316827D-07
 -0.52242755D-05 -0.34742761D-06 -0.64756036D-06 -0.10980478D-05 -0.16619465D-05
 -0.20736240D-05 -0.17809665D-05 -0.68374766D-06  0.30584452D-08  0.74543985D-06
  0.13980909D-05  0.23834385D-05  0.37248505D-05  0.49808348D-05  0.53183703D-05
  0.32515473D-05 -0.21451734D-05 -0.52662218D-05 -0.30800768D-04 -0.86153673D-05
  0.44073988D-05  0.42736943D-05  0.28830089D-05 -0.26399990D-05 -0.25599110D-05
 -0.17269008D-05 -0.25830227D-04 -0.25046631D-04 -0.16896310D-04  0.36788475D-05
 -0.69344376D-06 -0.14954332D-05 -0.21612857D-05  0.14021043D-05 -0.45382977D-05
  0.32153313D-07 -0.29984362D-06 -0.49388095D-06  0.99899994D-05  0.14582638D-04
 -0.24572638D-04  0.73097972D-05  0.20222169D-04 -0.60284402D-05 -0.49404249D-05
 -0.67936621D-05  0.11734087D-04 -0.26929284D-05 -0.89237817D-05  0.22967196D-05
 -0.31839129D-09 -0.43986151D-06  0.44017990D-06 -0.17125704D-05 -0.26809554D-05
  0.86271831D-06  0.19414492D-05 -0.15420639D-05  0.75729043D-05  0.88834378D-05
 -0.79445087D-05 -0.12324877D-04 -0.14707785D-04  0.12570701D-04 -0.10393836D-04
 -0.17758370D-05  0.21588076D-05 -0.10766804D-05  0.33136367D-05  0.38914690D-06
  0.17998262D-05 -0.26720474D-05 -0.68655697D-05  0.14302150D-05 -0.72688628D-05
 -0.33560414D-05 -0.34899864D-06 -0.65048856D-06 -0.11030131D-05 -0.16694617D-05
 -0.20830007D-05 -0.17890198D-05 -0.68683950D-06  0.30722752D-08  0.74636801D-06
  0.13998317D-05  0.23864062D-05  0.37294883D-05  0.49870365D-05  0.53249923D-05
  0.32555959D-05 -0.21478444D-05 -0.52638028D-05 -0.30748405D-04 -0.85991433D-05
  0.43815309D-05  0.42486111D-05  0.28660879D-05 -0.14785604D-04 -0.14337063D-04
 -0.96716978D-05  0.21363055D-04  0.20714977D-04  0.13974201D-04  0.36805380D-05
 -0.13206344D-05  0.96189574D-06 -0.21699398D-05 -0.95744560D-06  0.46521103D-05
  0.30972911D-07 -0.50016599D-06  0.28744432D-06  0.99996517D-05  0.29112605D-05
 -0.12910912D-04  0.16127889D-04 -0.14118003D-04  0.36317127D-04 -0.49461299D-05
 -0.15057650D-05  0.64518949D-05 -0.66508472D-05  0.64872623D-05 -0.16892339D-04
 -0.68409050D-09  0.13115567D-06 -0.13047158D-06 -0.27930303D-05  0.15150931D-05
 -0.12010424D-05  0.19352267D-05 -0.14714548D-05  0.15126419D-05  0.26625738D-05
 -0.12918078D-04  0.69754249D-05 -0.84682539D-05  0.17332443D-04 -0.11513351D-04
  0.20867986D-04  0.21552031D-05 -0.27474669D-05 -0.33919320D-06 -0.27235822D-05
  0.27876795D-06  0.32221910D-05 -0.37420271D-05  0.79636327D-05 -0.22046114D-05
  0.78981315D-05  0.88271310D-05  0.16454155D-04  0.27893837D-04  0.42239490D-04
  0.52820631D-04  0.45473643D-04  0.17481729D-04 -0.75751192D-07 -0.57988270D-05
 -0.10889170D-04 -0.18542379D-04 -0.29046526D-04 -0.38925763D-04 -0.41869906D-04
 -0.25138637D-04  0.16532225D-04 -0.18488947D-05 -0.40616232D-04 -0.73676720D-05
 -0.65225395D-05 -0.63789012D-05 -0.42148097D-05  0.20988233D-05  0.20526034D-05
  0.13562418D-05  0.54551186D-06  0.53349869D-06  0.35250514D-06  0.73769007D-05
  0.85353073D-05  0.21929981D-05  0.49412787D-05  0.28068834D-04  0.72269637D-05
 -0.34234447D-06  0.58174453D-06  0.14962563D-06  0.85359533D-05 -0.16409899D-04
  0.78739461D-05 -0.34518836D-05 -0.88509104D-06 -0.13396322D-04  0.11236783D-05
 -0.29853228D-05  0.18616444D-05 -0.62957905D-05 -0.16204572D-05 -0.26688541D-05
  0.28207421D-05 -0.51552552D-05  0.23345131D-05 -0.35825865D-05 -0.92535657D-06
 -0.41295420D-05 -0.75429081D-05  0.13069547D-04 -0.72898418D-05  0.14952316D-04
 -0.16749444D-04 -0.43329277D-05  0.76764087D-05 -0.22459196D-04  0.26202453D-04
  0.39833973D-05  0.16966954D-05 -0.31016706D-05  0.17609645D-05 -0.26877325D-05
  0.38716732D-05  0.10032969D-05 -0.24023537D-05  0.54333385D-05 -0.62861903D-05
 -0.15014911D-06
MO    2     MO 0.0        OCC NO =    2.0000000  ORB. ENERGY =  -26.409593
  0.77015041D-04  0.14357355D-03  0.24266459D-03  0.36480436D-03  0.44820431D-03
  0.37858019D-03  0.14278652D-03 -0.70665845D-06 -0.57427361D-04 -0.10752214D-03
 -0.18306564D-03 -0.28317471D-03 -0.37293114D-03 -0.38749934D-03 -0.24623843D-03
  0.16502327D-03 -0.11070276D-03 -0.48141331D-03 -0.24141500D-05  0.17157314D-05
  0.16086073D-05  0.11454242D-05 -0.21207111D-03 -0.19883014D-03 -0.14157891D-03
  0.24018028D-03  0.22518428D-03  0.16034462D-03  0.28385156D-06  0.45312727D-03
 -0.52751341D-03 -0.80586330D-04 -0.24581341D-03  0.30135646D-03 -0.97590314D-07
  0.35907480D-05 -0.44890492D-05 -0.98163053D-04  0.79723752D-04  0.18439301D-04
 -0.28551090D-03  0.26524698D-03 -0.69520577D-03 -0.86999443D-04  0.77592215D-04
  0.94072278D-05 -0.25648243D-03  0.22736719D-03 -0.89679617D-03 -0.35915757D-05
  0.69133691D-06  0.29002388D-05 -0.12695471D-05  0.14459206D-04  0.45980092D-04
  0.63308186D-04 -0.27808808D-04  0.33253339D-04 -0.11143677D-03 -0.16192294D-03
  0.25765812D-03 -0.78487794D-04  0.24534937D-03 -0.35741814D-03  0.92699202D-03
 -0.12354026D-04  0.76354588D-05 -0.13019088D-04  0.21315394D-04 -0.31738837D-04
  0.98219427D-04  0.15746685D-04  0.88324608D-05 -0.59162163D-04  0.31184318D-03
 -0.24972349D-05 -0.46684355D-05 -0.80685141D-05 -0.13050459D-04 -0.19725005D-04
 -0.27164569D-04 -0.31749083D-04 -0.27433603D-04 -0.12795130D-04 -0.17373023D-05
 -0.46520674D-08 -0.91254332D-08 -0.41661414D-09  0.58787830D-05  0.10978878D-04
  0.19044562D-04  0.30880099D-04  0.47543428D-04  0.67712520D-04  0.87069511D-04
  0.91397077D-04  0.64624210D-04 -0.14311302D-05 -0.46433330D-04 -0.25567452D-04
  0.10812432D-06 -0.42945296D-05 -0.80142276D-05 -0.13919754D-04 -0.22546913D-04
 -0.34828382D-04 -0.49653092D-04 -0.64582453D-04 -0.68827486D-04 -0.51047915D-04
  0.15889320D-05  0.46246752D-04  0.45305855D-04 -0.21160521D-04 -0.48253500D-04
  0.26469693D-03  0.23334434D-04 -0.10999410D-02 -0.14430627D-02 -0.15828198D-02
 -0.13023692D-02 -0.68663481D-03 -0.17862992D-03  0.19767222D-06  0.51514808D-03
  0.67584623D-03  0.74130030D-03  0.60995364D-03  0.32157962D-03  0.83659818D-04
 -0.92578118D-07 -0.22826195D-03 -0.29946725D-03 -0.32846993D-03 -0.27027026D-03
 -0.14249183D-03 -0.37069638D-04  0.41021334D-07  0.98302852D-03  0.12907224D-02
  0.14521498D-02  0.12235460D-02  0.68443446D-03  0.17035434D-03 -0.78132710D-04
 -0.44133757D-03 -0.57947891D-03 -0.65195285D-03 -0.54931957D-03 -0.30728166D-03