 Molden2AIM, Version 4.0.0 (06/02/2016)           Time: Wed Jun 27 22:13:22 2018
GAUSSIAN             37 MOL ORBITALS    683 PRIMITIVES        9 NUCLEI
  C    1    (CENTRE  1)  -6.47258032 -0.91998482  0.46011619  CHARGE =  6.0
  S    2    (CENTRE  2)  -3.17505547  0.11254075  1.24529550  CHARGE = 16.0
  F    3    (CENTRE  3)  -7.91706618 -0.66918037  2.50447482  CHARGE =  9.0
  F    4    (CENTRE  4)  -6.40552339 -3.32465375 -0.24007270  CHARGE =  9.0
  F    5    (CENTRE  5)  -7.38023656  0.49071274 -1.39816679  CHARGE =  9.0
  O    6    (CENTRE  6)  -1.75946352  0.21713709 -1.11425433  CHARGE =  8.0
  O    7    (CENTRE  7)  -2.38076579 -1.31416090  3.48275769  CHARGE =  8.0
  O    8    (CENTRE  8)  -3.78486442  3.01856347  2.07828867  CHARGE =  8.0
  H    9    (CENTRE  9)  -3.97131614  3.03041773  3.90278145  CHARGE =  1.0
CENTRE ASSIGNMENTS    1  1  1  1  1  1  1  1  1  1  1  1  1  1  1  1  1  1  1  1
CENTRE ASSIGNMENTS    1  1  1  1  1  1  1  1  1  1  1  1  1  1  1  1  1  1  1  1
CENTRE ASSIGNMENTS    1  1  1  1  1  1  1  1  1  1  1  1  1  1  1  1  1  1  1  1
CENTRE ASSIGNMENTS    1  1  1  1  1  1  1  1  1  1  1  1  1  1  1  2  2  2  2  2
CENTRE ASSIGNMENTS    2  2  2  2  2  2  2  2  2  2  2  2  2  2  2  2  2  2  2  2
CENTRE ASSIGNMENTS    2  2  2  2  2  2  2  2  2  2  2  2  2  2  2  2  2  2  2  2
CENTRE ASSIGNMENTS    2  2  2  2  2  2  2  2  2  2  2  2  2  2  2  2  2  2  2  2
CENTRE ASSIGNMENTS    2  2  2  2  2  2  2  2  2  2  2  2  2  2  2  2  2  2  2  2
CENTRE ASSIGNMENTS    2  2  2  2  2  2  2  2  2  2  2  2  2  2  2  2  2  2  2  2
CENTRE ASSIGNMENTS    2  2  2  2  2  2  2  2  2  2  2  2  2  2  2  2  2  2  2  2
CENTRE ASSIGNMENTS    2  2  2  2  2  2  3  3  3  3  3  3  3  3  3  3  3  3  3  3
CENTRE ASSIGNMENTS    3  3  3  3  3  3  3  3  3  3  3  3  3  3  3  3  3  3  3  3
CENTRE ASSIGNMENTS    3  3  3  3  3  3  3  3  3  3  3  3  3  3  3  3  3  3  3  3
CENTRE ASSIGNMENTS    3  3  3  3  3  3  3  3  3  3  3  3  3  3  3  3  3  3  3  3
CENTRE ASSIGNMENTS    3  4  4  4  4  4  4  4  4  4  4  4  4  4  4  4  4  4  4  4
CENTRE ASSIGNMENTS    4  4  4  4  4  4  4  4  4  4  4  4  4  4  4  4  4  4  4  4
CENTRE ASSIGNMENTS    4  4  4  4  4  4  4  4  4  4  4  4  4  4  4  4  4  4  4  4
CENTRE ASSIGNMENTS    4  4  4  4  4  4  4  4  4  4  4  4  4  4  4  4  5  5  5  5
CENTRE ASSIGNMENTS    5  5  5  5  5  5  5  5  5  5  5  5  5  5  5  5  5  5  5  5
CENTRE ASSIGNMENTS    5  5  5  5  5  5  5  5  5  5  5  5  5  5  5  5  5  5  5  5
CENTRE ASSIGNMENTS    5  5  5  5  5  5  5  5  5  5  5  5  5  5  5  5  5  5  5  5
CENTRE ASSIGNMENTS    5  5  5  5  5  5  5  5  5  5  5  6  6  6  6  6  6  6  6  6
CENTRE ASSIGNMENTS    6  6  6  6  6  6  6  6  6  6  6  6  6  6  6  6  6  6  6  6
CENTRE ASSIGNMENTS    6  6  6  6  6  6  6  6  6  6  6  6  6  6  6  6  6  6  6  6
CENTRE ASSIGNMENTS    6  6  6  6  6  6  6  6  6  6  6  6  6  6  6  6  6  6  6  6
CENTRE ASSIGNMENTS    6  6  6  6  6  6  7  7  7  7  7  7  7  7  7  7  7  7  7  7
CENTRE ASSIGNMENTS    7  7  7  7  7  7  7  7  7  7  7  7  7  7  7  7  7  7  7  7
CENTRE ASSIGNMENTS    7  7  7  7  7  7  7  7  7  7  7  7  7  7  7  7  7  7  7  7
CENTRE ASSIGNMENTS    7  7  7  7  7  7  7  7  7  7  7  7  7  7  7  7  7  7  7  7
CENTRE ASSIGNMENTS    7  8  8  8  8  8  8  8  8  8  8  8  8  8  8  8  8  8  8  8
CENTRE ASSIGNMENTS    8  8  8  8  8  8  8  8  8  8  8  8  8  8  8  8  8  8  8  8
CENTRE ASSIGNMENTS    8  8  8  8  8  8  8  8  8  8  8  8  8  8  8  8  8  8  8  8
CENTRE ASSIGNMENTS    8  8  8  8  8  8  8  8  8  8  8  8  8  8  8  8  9  9  9  9
CENTRE ASSIGNMENTS    9  9  9  9  9  9  9  9  9  9  9  9  9  9  9  9  9  9  9  9
CENTRE ASSIGNMENTS    9  9  9
TYPE ASSIGNMENTS      1  1  1  1  1  1  1  1  1  1  1  1  1  1  1  1  1  1  1  2
TYPE ASSIGNMENTS      2  2  3  3  3  4  4  4  2  3  4  2  3  4  2  3  4  5  6  7
TYPE ASSIGNMENTS      8  9 10  5  6  7  8  9 10  5  6  7  8  9 10 11 12 13 17 14
TYPE ASSIGNMENTS     15 18 19 16 20 11 12 13 17 14 15 18 19 16 20  1  1  1  1  1
TYPE ASSIGNMENTS      1  1  1  1  1  1  1  1  1  1  1  1  1  1  1  1  1  1  1  1
TYPE ASSIGNMENTS      1  1  1  1  1  1  1  1  1  1  1  1  1  1  1  1  1  2  2  2
TYPE ASSIGNMENTS      2  2  2  2  3  3  3  3  3  3  3  4  4  4  4  4  4  4  2  2
TYPE ASSIGNMENTS      2  2  2  2  2  3  3  3  3  3  3  3  4  4  4  4  4  4  4  2
TYPE ASSIGNMENTS      3  4  2  3  4  2  3  4  5  6  7  8  9 10  5  6  7  8  9 10
TYPE ASSIGNMENTS      5  6  7  8  9 10 11 12 13 17 14 15 18 19 16 20 11 12 13 17
TYPE ASSIGNMENTS     14 15 18 19 16 20  1  1  1  1  1  1  1  1  1  1  1  1  1  1
TYPE ASSIGNMENTS      1  1  1  1  1  2  2  2  3  3  3  4  4  4  2  3  4  2  3  4
TYPE ASSIGNMENTS      2  3  4  5  6  7  8  9 10  5  6  7  8  9 10  5  6  7  8  9
TYPE ASSIGNMENTS     10 11 12 13 17 14 15 18 19 16 20 11 12 13 17 14 15 18 19 16
TYPE ASSIGNMENTS     20  1  1  1  1  1  1  1  1  1  1  1  1  1  1  1  1  1  1  1
TYPE ASSIGNMENTS      2  2  2  3  3  3  4  4  4  2  3  4  2  3  4  2  3  4  5  6
TYPE ASSIGNMENTS      7  8  9 10  5  6  7  8  9 10  5  6  7  8  9 10 11 12 13 17
TYPE ASSIGNMENTS     14 15 18 19 16 20 11 12 13 17 14 15 18 19 16 20  1  1  1  1
TYPE ASSIGNMENTS      1  1  1  1  1  1  1  1  1  1  1  1  1  1  1  2  2  2  3  3
TYPE ASSIGNMENTS      3  4  4  4  2  3  4  2  3  4  2  3  4  5  6  7  8  9 10  5
TYPE ASSIGNMENTS      6  7  8  9 10  5  6  7  8  9 10 11 12 13 17 14 15 18 19 16
TYPE ASSIGNMENTS     20 11 12 13 17 14 15 18 19 16 20  1  1  1  1  1  1  1  1  1
TYPE ASSIGNMENTS      1  1  1  1  1  1  1  1  1  1  2  2  2  3  3  3  4  4  4  2
TYPE ASSIGNMENTS      3  4  2  3  4  2  3  4  5  6  7  8  9 10  5  6  7  8  9 10
TYPE ASSIGNMENTS      5  6  7  8  9 10 11 12 13 17 14 15 18 19 16 20 11 12 13 17
TYPE ASSIGNMENTS     14 15 18 19 16 20  1  1  1  1  1  1  1  1  1  1  1  1  1  1
TYPE ASSIGNMENTS      1  1  1  1  1  2  2  2  3  3  3  4  4  4  2  3  4  2  3  4
TYPE ASSIGNMENTS      2  3  4  5  6  7  8  9 10  5  6  7  8  9 10  5  6  7  8  9
TYPE ASSIGNMENTS     10 11 12 13 17 14 15 18 19 16 20 11 12 13 17 14 15 18 19 16
TYPE ASSIGNMENTS     20  1  1  1  1  1  1  1  1  1  1  1  1  1  1  1  1  1  1  1
TYPE ASSIGNMENTS      2  2  2  3  3  3  4  4  4  2  3  4  2  3  4  2  3  4  5  6
TYPE ASSIGNMENTS      7  8  9 10  5  6  7  8  9 10  5  6  7  8  9 10 11 12 13 17
TYPE ASSIGNMENTS     14 15 18 19 16 20 11 12 13 17 14 15 18 19 16 20  1  1  1  1
TYPE ASSIGNMENTS      1  1  2  3  4  2  3  4  2  3  4  5  6  7  8  9 10  5  6  7
TYPE ASSIGNMENTS      8  9 10
EXPONENTS  0.8236000D+04 0.1235000D+04 0.2808000D+03 0.7927000D+02 0.2559000D+02
EXPONENTS  0.8997000D+01 0.3319000D+01 0.3643000D+00 0.8236000D+04 0.1235000D+04
EXPONENTS  0.2808000D+03 0.7927000D+02 0.2559000D+02 0.8997000D+01 0.3319000D+01
EXPONENTS  0.3643000D+00 0.9059000D+00 0.1285000D+00 0.4402000D-01 0.1871000D+02
EXPONENTS  0.4133000D+01 0.1200000D+01 0.1871000D+02 0.4133000D+01 0.1200000D+01
EXPONENTS  0.1871000D+02 0.4133000D+01 0.1200000D+01 0.3827000D+00 0.3827000D+00
EXPONENTS  0.3827000D+00 0.1209000D+00 0.1209000D+00 0.1209000D+00 0.3569000D-01
EXPONENTS  0.3569000D-01 0.3569000D-01 0.1097000D+01 0.1097000D+01 0.1097000D+01
EXPONENTS  0.1097000D+01 0.1097000D+01 0.1097000D+01 0.3180000D+00 0.3180000D+00
EXPONENTS  0.3180000D+00 0.3180000D+00 0.3180000D+00 0.3180000D+00 0.1000000D+00
EXPONENTS  0.1000000D+00 0.1000000D+00 0.1000000D+00 0.1000000D+00 0.1000000D+00
EXPONENTS  0.7610000D+00 0.7610000D+00 0.7610000D+00 0.7610000D+00 0.7610000D+00
EXPONENTS  0.7610000D+00 0.7610000D+00 0.7610000D+00 0.7610000D+00 0.7610000D+00
EXPONENTS  0.2680000D+00 0.2680000D+00 0.2680000D+00 0.2680000D+00 0.2680000D+00
EXPONENTS  0.2680000D+00 0.2680000D+00 0.2680000D+00 0.2680000D+00 0.2680000D+00
EXPONENTS  0.3741000D+06 0.5605000D+05 0.1276000D+05 0.3615000D+04 0.1183000D+04
EXPONENTS  0.4288000D+03 0.1678000D+03 0.6947000D+02 0.2984000D+02 0.1272000D+02
EXPONENTS  0.5244000D+01 0.2219000D+01 0.3490000D+00 0.3741000D+06 0.5605000D+05
EXPONENTS  0.1276000D+05 0.3615000D+04 0.1183000D+04 0.4288000D+03 0.1678000D+03
EXPONENTS  0.6947000D+02 0.2984000D+02 0.1272000D+02 0.5244000D+01 0.2219000D+01
EXPONENTS  0.3490000D+00 0.3741000D+06 0.5605000D+05 0.1276000D+05 0.3615000D+04
EXPONENTS  0.1183000D+04 0.4288000D+03 0.1678000D+03 0.6947000D+02 0.2984000D+02
EXPONENTS  0.1272000D+02 0.5244000D+01 0.2219000D+01 0.3490000D+00 0.7767000D+00
EXPONENTS  0.1322000D+00 0.4970000D-01 0.5744000D+03 0.1358000D+03 0.4319000D+02
EXPONENTS  0.1587000D+02 0.6208000D+01 0.2483000D+01 0.3229000D+00 0.5744000D+03
EXPONENTS  0.1358000D+03 0.4319000D+02 0.1587000D+02 0.6208000D+01 0.2483000D+01
EXPONENTS  0.3229000D+00 0.5744000D+03 0.1358000D+03 0.4319000D+02 0.1587000D+02
EXPONENTS  0.6208000D+01 0.2483000D+01 0.3229000D+00 0.5744000D+03 0.1358000D+03
EXPONENTS  0.4319000D+02 0.1587000D+02 0.6208000D+01 0.2483000D+01 0.3229000D+00
EXPONENTS  0.5744000D+03 0.1358000D+03 0.4319000D+02 0.1587000D+02 0.6208000D+01
EXPONENTS  0.2483000D+01 0.3229000D+00 0.5744000D+03 0.1358000D+03 0.4319000D+02
EXPONENTS  0.1587000D+02 0.6208000D+01 0.2483000D+01 0.3229000D+00 0.8688000D+00
EXPONENTS  0.8688000D+00 0.8688000D+00 0.1098000D+00 0.1098000D+00 0.1098000D+00
EXPONENTS  0.3510000D-01 0.3510000D-01 0.3510000D-01 0.2690000D+00 0.2690000D+00
EXPONENTS  0.2690000D+00 0.2690000D+00 0.2690000D+00 0.2690000D+00 0.8190000D+00
EXPONENTS  0.8190000D+00 0.8190000D+00 0.8190000D+00 0.8190000D+00 0.8190000D+00
EXPONENTS  0.1010000D+00 0.1010000D+00 0.1010000D+00 0.1010000D+00 0.1010000D+00
EXPONENTS  0.1010000D+00 0.5570000D+00 0.5570000D+00 0.5570000D+00 0.5570000D+00
EXPONENTS  0.5570000D+00 0.5570000D+00 0.5570000D+00 0.5570000D+00 0.5570000D+00
EXPONENTS  0.5570000D+00 0.2180000D+00 0.2180000D+00 0.2180000D+00 0.2180000D+00
EXPONENTS  0.2180000D+00 0.2180000D+00 0.2180000D+00 0.2180000D+00 0.2180000D+00
EXPONENTS  0.2180000D+00 0.1950000D+05 0.2923000D+04 0.6645000D+03 0.1875000D+03
EXPONENTS  0.6062000D+02 0.2142000D+02 0.7950000D+01 0.8815000D+00 0.1950000D+05
EXPONENTS  0.2923000D+04 0.6645000D+03 0.1875000D+03 0.6062000D+02 0.2142000D+02
EXPONENTS  0.7950000D+01 0.8815000D+00 0.2257000D+01 0.3041000D+00 0.9158000D-01
EXPONENTS  0.4388000D+02 0.9926000D+01 0.2930000D+01 0.4388000D+02 0.9926000D+01
EXPONENTS  0.2930000D+01 0.4388000D+02 0.9926000D+01 0.2930000D+01 0.9132000D+00
EXPONENTS  0.9132000D+00 0.9132000D+00 0.2672000D+00 0.2672000D+00 0.2672000D+00
EXPONENTS  0.7361000D-01 0.7361000D-01 0.7361000D-01 0.3107000D+01 0.3107000D+01
EXPONENTS  0.3107000D+01 0.3107000D+01 0.3107000D+01 0.3107000D+01 0.8550000D+00
EXPONENTS  0.8550000D+00 0.8550000D+00 0.8550000D+00 0.8550000D+00 0.8550000D+00
EXPONENTS  0.2920000D+00 0.2920000D+00 0.2920000D+00 0.2920000D+00 0.2920000D+00
EXPONENTS  0.2920000D+00 0.1917000D+01 0.1917000D+01 0.1917000D+01 0.1917000D+01
EXPONENTS  0.1917000D+01 0.1917000D+01 0.1917000D+01 0.1917000D+01 0.1917000D+01
EXPONENTS  0.1917000D+01 0.7240000D+00 0.7240000D+00 0.7240000D+00 0.7240000D+00
EXPONENTS  0.7240000D+00 0.7240000D+00 0.7240000D+00 0.7240000D+00 0.7240000D+00
EXPONENTS  0.7240000D+00 0.1950000D+05 0.2923000D+04 0.6645000D+03 0.1875000D+03
EXPONENTS  0.6062000D+02 0.2142000D+02 0.7950000D+01 0.8815000D+00 0.1950000D+05
EXPONENTS  0.2923000D+04 0.6645000D+03 0.1875000D+03 0.6062000D+02 0.2142000D+02
EXPONENTS  0.7950000D+01 0.8815000D+00 0.2257000D+01 0.3041000D+00 0.9158000D-01
EXPONENTS  0.4388000D+02 0.9926000D+01 0.2930000D+01 0.4388000D+02 0.9926000D+01
EXPONENTS  0.2930000D+01 0.4388000D+02 0.9926000D+01 0.2930000D+01 0.9132000D+00
EXPONENTS  0.9132000D+00 0.9132000D+00 0.2672000D+00 0.2672000D+00 0.2672000D+00
EXPONENTS  0.7361000D-01 0.7361000D-01 0.7361000D-01 0.3107000D+01 0.3107000D+01
EXPONENTS  0.3107000D+01 0.3107000D+01 0.3107000D+01 0.3107000D+01 0.8550000D+00
EXPONENTS  0.8550000D+00 0.8550000D+00 0.8550000D+00 0.8550000D+00 0.8550000D+00
EXPONENTS  0.2920000D+00 0.2920000D+00 0.2920000D+00 0.2920000D+00 0.2920000D+00
EXPONENTS  0.2920000D+00 0.1917000D+01 0.1917000D+01 0.1917000D+01 0.1917000D+01
EXPONENTS  0.1917000D+01 0.1917000D+01 0.1917000D+01 0.1917000D+01 0.1917000D+01
EXPONENTS  0.1917000D+01 0.7240000D+00 0.7240000D+00 0.7240000D+00 0.7240000D+00
EXPONENTS  0.7240000D+00 0.7240000D+00 0.7240000D+00 0.7240000D+00 0.7240000D+00
EXPONENTS  0.7240000D+00 0.1950000D+05 0.2923000D+04 0.6645000D+03 0.1875000D+03
EXPONENTS  0.6062000D+02 0.2142000D+02 0.7950000D+01 0.8815000D+00 0.1950000D+05
EXPONENTS  0.2923000D+04 0.6645000D+03 0.1875000D+03 0.6062000D+02 0.2142000D+02
EXPONENTS  0.7950000D+01 0.8815000D+00 0.2257000D+01 0.3041000D+00 0.9158000D-01
EXPONENTS  0.4388000D+02 0.9926000D+01 0.2930000D+01 0.4388000D+02 0.9926000D+01
EXPONENTS  0.2930000D+01 0.4388000D+02 0.9926000D+01 0.2930000D+01 0.9132000D+00
EXPONENTS  0.9132000D+00 0.9132000D+00 0.2672000D+00 0.2672000D+00 0.2672000D+00
EXPONENTS  0.7361000D-01 0.7361000D-01 0.7361000D-01 0.3107000D+01 0.3107000D+01
EXPONENTS  0.3107000D+01 0.3107000D+01 0.3107000D+01 0.3107000D+01 0.8550000D+00
EXPONENTS  0.8550000D+00 0.8550000D+00 0.8550000D+00 0.8550000D+00 0.8550000D+00
EXPONENTS  0.2920000D+00 0.2920000D+00 0.2920000D+00 0.2920000D+00 0.2920000D+00
EXPONENTS  0.2920000D+00 0.1917000D+01 0.1917000D+01 0.1917000D+01 0.1917000D+01
EXPONENTS  0.1917000D+01 0.1917000D+01 0.1917000D+01 0.1917000D+01 0.1917000D+01
EXPONENTS  0.1917000D+01 0.7240000D+00 0.7240000D+00 0.7240000D+00 0.7240000D+00
EXPONENTS  0.7240000D+00 0.7240000D+00 0.7240000D+00 0.7240000D+00 0.7240000D+00
EXPONENTS  0.7240000D+00 0.1533000D+05 0.2299000D+04 0.5224000D+03 0.1473000D+03
EXPONENTS  0.4755000D+02 0.1676000D+02 0.6207000D+01 0.6882000D+00 0.1533000D+05
EXPONENTS  0.2299000D+04 0.5224000D+03 0.1473000D+03 0.4755000D+02 0.1676000D+02
EXPONENTS  0.6207000D+01 0.6882000D+00 0.1752000D+01 0.2384000D+00 0.7376000D-01
EXPONENTS  0.3446000D+02 0.7749000D+01 0.2280000D+01 0.3446000D+02 0.7749000D+01
EXPONENTS  0.2280000D+01 0.3446000D+02 0.7749000D+01 0.2280000D+01 0.7156000D+00
EXPONENTS  0.7156000D+00 0.7156000D+00 0.2140000D+00 0.2140000D+00 0.2140000D+00
EXPONENTS  0.5974000D-01 0.5974000D-01 0.5974000D-01 0.2314000D+01 0.2314000D+01
EXPONENTS  0.2314000D+01 0.2314000D+01 0.2314000D+01 0.2314000D+01 0.6450000D+00
EXPONENTS  0.6450000D+00 0.6450000D+00 0.6450000D+00 0.6450000D+00 0.6450000D+00
EXPONENTS  0.2140000D+00 0.2140000D+00 0.2140000D+00 0.2140000D+00 0.2140000D+00
EXPONENTS  0.2140000D+00 0.1428000D+01 0.1428000D+01 0.1428000D+01 0.1428000D+01
EXPONENTS  0.1428000D+01 0.1428000D+01 0.1428000D+01 0.1428000D+01 0.1428000D+01
EXPONENTS  0.1428000D+01 0.5000000D+00 0.5000000D+00 0.5000000D+00 0.5000000D+00
EXPONENTS  0.5000000D+00 0.5000000D+00 0.5000000D+00 0.5000000D+00 0.5000000D+00
EXPONENTS  0.5000000D+00 0.1533000D+05 0.2299000D+04 0.5224000D+03 0.1473000D+03
EXPONENTS  0.4755000D+02 0.1676000D+02 0.6207000D+01 0.6882000D+00 0.1533000D+05
EXPONENTS  0.2299000D+04 0.5224000D+03 0.1473000D+03 0.4755000D+02 0.1676000D+02
EXPONENTS  0.6207000D+01 0.6882000D+00 0.1752000D+01 0.2384000D+00 0.7376000D-01
EXPONENTS  0.3446000D+02 0.7749000D+01 0.2280000D+01 0.3446000D+02 0.7749000D+01
EXPONENTS  0.2280000D+01 0.3446000D+02 0.7749000D+01 0.2280000D+01 0.7156000D+00
EXPONENTS  0.7156000D+00 0.7156000D+00 0.2140000D+00 0.2140000D+00 0.2140000D+00
EXPONENTS  0.5974000D-01 0.5974000D-01 0.5974000D-01 0.2314000D+01 0.2314000D+01
EXPONENTS  0.2314000D+01 0.2314000D+01 0.2314000D+01 0.2314000D+01 0.6450000D+00
EXPONENTS  0.6450000D+00 0.6450000D+00 0.6450000D+00 0.6450000D+00 0.6450000D+00
EXPONENTS  0.2140000D+00 0.2140000D+00 0.2140000D+00 0.2140000D+00 0.2140000D+00
EXPONENTS  0.2140000D+00 0.1428000D+01 0.1428000D+01 0.1428000D+01 0.1428000D+01
EXPONENTS  0.1428000D+01 0.1428000D+01 0.1428000D+01 0.1428000D+01 0.1428000D+01
EXPONENTS  0.1428000D+01 0.5000000D+00 0.5000000D+00 0.5000000D+00 0.5000000D+00
EXPONENTS  0.5000000D+00 0.5000000D+00 0.5000000D+00 0.5000000D+00 0.5000000D+00
EXPONENTS  0.5000000D+00 0.1533000D+05 0.2299000D+04 0.5224000D+03 0.1473000D+03
EXPONENTS  0.4755000D+02 0.1676000D+02 0.6207000D+01 0.6882000D+00 0.1533000D+05
EXPONENTS  0.2299000D+04 0.5224000D+03 0.1473000D+03 0.4755000D+02 0.1676000D+02
EXPONENTS  0.6207000D+01 0.6882000D+00 0.1752000D+01 0.2384000D+00 0.7376000D-01
EXPONENTS  0.3446000D+02 0.7749000D+01 0.2280000D+01 0.3446000D+02 0.7749000D+01
EXPONENTS  0.2280000D+01 0.3446000D+02 0.7749000D+01 0.2280000D+01 0.7156000D+00
EXPONENTS  0.7156000D+00 0.7156000D+00 0.2140000D+00 0.2140000D+00 0.2140000D+00
EXPONENTS  0.5974000D-01 0.5974000D-01 0.5974000D-01 0.2314000D+01 0.2314000D+01
EXPONENTS  0.2314000D+01 0.2314000D+01 0.2314000D+01 0.2314000D+01 0.6450000D+00
EXPONENTS  0.6450000D+00 0.6450000D+00 0.6450000D+00 0.6450000D+00 0.6450000D+00
EXPONENTS  0.2140000D+00 0.2140000D+00 0.2140000D+00 0.2140000D+00 0.2140000D+00
EXPONENTS  0.2140000D+00 0.1428000D+01 0.1428000D+01 0.1428000D+01 0.1428000D+01
EXPONENTS  0.1428000D+01 0.1428000D+01 0.1428000D+01 0.1428000D+01 0.1428000D+01
EXPONENTS  0.1428000D+01 0.5000000D+00 0.5000000D+00 0.5000000D+00 0.5000000D+00
EXPONENTS  0.5000000D+00 0.5000000D+00 0.5000000D+00 0.5000000D+00 0.5000000D+00
EXPONENTS  0.5000000D+00 0.3387000D+02 0.5095000D+01 0.1159000D+01 0.3258000D+00
EXPONENTS  0.1027000D+00 0.2526000D-01 0.1407000D+01 0.1407000D+01 0.1407000D+01
EXPONENTS  0.3880000D+00 0.3880000D+00 0.3880000D+00 0.1020000D+00 0.1020000D+00
EXPONENTS  0.1020000D+00 0.1057000D+01 0.1057000D+01 0.1057000D+01 0.1057000D+01
EXPONENTS  0.1057000D+01 0.1057000D+01 0.2470000D+00 0.2470000D+00 0.2470000D+00
EXPONENTS  0.2470000D+00 0.2470000D+00 0.2470000D+00
MO    1     MO 0.0        OCC NO =    2.0000000  ORB. ENERGY =  -92.278680
  0.22070540D-05  0.41144505D-05  0.69541461D-05  0.10454360D-04  0.12844389D-04
  0.10849139D-04  0.40918962D-05 -0.20251023D-07 -0.15921420D-05 -0.29809922D-05
 -0.50753942D-05 -0.78508632D-05 -0.10339311D-04 -0.10743206D-04 -0.68268251D-05
  0.45751794D-05  0.73897307D-05 -0.51164566D-04 -0.86034428D-05  0.38138953D-05
  0.35757693D-05  0.25461607D-05  0.14512563D-05  0.13606450D-05  0.96886032D-06
  0.85760486D-06  0.80405907D-06  0.57253796D-06 -0.96366691D-05 -0.61141406D-05
 -0.16355706D-05 -0.25109280D-04 -0.28658062D-07 -0.43705826D-05 -0.58564447D-06
 -0.44013559D-06 -0.16776794D-06 -0.79642500D-05  0.47930874D-05  0.31711626D-05
 -0.64114204D-05 -0.40429666D-05  0.10312026D-05  0.86442216D-05 -0.46828537D-05
 -0.39613679D-05  0.38674924D-05  0.22318982D-05 -0.44634222D-06 -0.10549911D-05
  0.49412958D-07  0.10055781D-05 -0.90187905D-06 -0.66400314D-06 -0.11829927D-05
  0.26074257D-06  0.13400832D-05 -0.17194678D-05 -0.14625627D-05  0.15341024D-05
  0.49177403D-06  0.68033494D-06 -0.55543520D-05  0.46666295D-05  0.27308699D-06
  0.94961169D-06  0.39758606D-06 -0.18894148D-05 -0.31982989D-05  0.29467352D-05
  0.90768666D-06  0.34946386D-06 -0.41394934D-05  0.47605578D-05  0.82635972D-07
  0.58445520D+00  0.10926050D+01  0.18883626D+01  0.30543418D+01  0.46164588D+01
  0.63576213D+01  0.74305854D+01  0.64205864D+01  0.29945843D+01  0.40659986D+00
  0.10887742D-02  0.21357250D-02  0.97504767D-04  0.33257434D-04  0.62109674D-04
  0.10773884D-03  0.17469480D-03  0.26896254D-03  0.38306307D-03  0.49256938D-03
  0.51705127D-03  0.36559189D-03 -0.80961855D-05 -0.26268250D-03 -0.14464011D-03
  0.61168059D-06 -0.13630191D-04 -0.25435953D-04 -0.44179206D-04 -0.71560512D-04
 -0.11054005D-03 -0.15759145D-03 -0.20497499D-03 -0.21844809D-03 -0.16201841D-03
  0.50430314D-05  0.14678024D-03  0.14379397D-03 -0.67160312D-04 -0.35196858D-03
  0.11837071D-03  0.18947460D-04 -0.19453664D-03 -0.25522148D-03 -0.27993907D-03
 -0.23033830D-03 -0.12143891D-03 -0.31592664D-04  0.34960504D-07  0.75018694D-03
  0.98420442D-03  0.10795222D-02  0.88824800D-03  0.46830191D-03  0.12183002D-03
 -0.13481734D-06  0.29368496D-03  0.38529867D-03  0.42261392D-03  0.34773343D-03
  0.18333194D-03  0.47694306D-04 -0.52778612D-07  0.11973240D-03  0.15720937D-03
  0.17687115D-03  0.14902731D-03  0.83363789D-04  0.20749077D-04 -0.95165267D-05
 -0.42034486D-03 -0.55191536D-03 -0.62094199D-03 -0.52319057D-03 -0.29266547D-03
 -0.72843840D-04  0.33409695D-04 -0.17473665D-03 -0.22943028D-03 -0.25812454D-03
 -0.21748944D-03 -0.12166054D-03 -0.30281061D-04  0.13888354D-04  0.48001962D-05
 -0.38194645D-04 -0.14600711D-04 -0.49576180D-05 -0.22515123D-05  0.25366997D-06
 -0.29678273D-06  0.99327886D-07 -0.52670366D-07 -0.67734456D-05  0.39435140D-05
  0.28299316D-05 -0.89475572D-05 -0.54587592D-05 -0.16810884D-05  0.80557114D-05
  0.76578908D-05 -0.15713602D-04  0.10082831D-04  0.12640876D-04  0.20492425D-04
 -0.27377587D-06 -0.22245530D-06  0.49623117D-06  0.41385930D-06  0.85713534D-07
  0.18846740D-06  0.32836913D-05 -0.13635830D-05  0.78182787D-06  0.69370185D-06
 -0.13692422D-05  0.36467991D-05 -0.10544776D-04  0.54599910D-05 -0.59922827D-05
  0.40781035D-05 -0.14426879D-05  0.19118329D-05 -0.83991866D-06 -0.28151634D-05
 -0.62144612D-06 -0.18150531D-05  0.71432272D-05 -0.51140527D-05  0.43348091D-05
 -0.40222995D-05 -0.10858023D-05 -0.20239825D-05 -0.34311479D-05 -0.51957691D-05
 -0.64973275D-05 -0.55935938D-05 -0.21503817D-05  0.93179557D-08  0.69020727D-06
  0.12960870D-05  0.22070127D-05  0.34572723D-05  0.46331516D-05  0.49835792D-05
  0.29921344D-05 -0.19677535D-05  0.67962840D-06  0.98673180D-05 -0.17387633D-05
  0.32059747D-05  0.31353733D-05  0.20716737D-05  0.19680857D-05  0.19247448D-05
  0.12717603D-05  0.34192534D-05  0.33439551D-05  0.22094925D-05 -0.26212879D-05
 -0.18290522D-05 -0.42700222D-05  0.15187562D-04  0.30104282D-05  0.36110208D-05
 -0.22363537D-06  0.54013461D-06  0.25361891D-06 -0.11177725D-04  0.23174551D-05
  0.88602695D-05 -0.90735508D-06  0.72823926D-05  0.89002521D-05  0.40186971D-05
 -0.11161341D-05 -0.29025630D-05 -0.28128629D-06 -0.45895427D-05 -0.37555382D-05
  0.47837171D-05 -0.16532396D-05 -0.31304774D-05  0.28998962D-05 -0.14834870D-05
  0.49858917D-06 -0.93499101D-05  0.81620504D-06 -0.24632391D-05  0.82952509D-05
 -0.10438522D-04  0.10303415D-04  0.19754479D-04  0.79899066D-05 -0.29136974D-05
  0.10802664D-04  0.37605026D-05 -0.51460245D-06  0.18015976D-05 -0.44058265D-05
  0.36044677D-05 -0.67240638D-05 -0.68756812D-05 -0.20606603D-05  0.13192708D-05
 -0.52027223D-05 -0.15271868D-05 -0.28467424D-05 -0.48259283D-05 -0.73078777D-05
 -0.91385267D-05 -0.78674202D-05 -0.30245236D-05  0.13105756D-07  0.99081452D-06
  0.18605742D-05  0.31682370D-05  0.49630245D-05  0.66510367D-05  0.71540867D-05
  0.42953043D-05 -0.28247728D-05  0.54265289D-06  0.20590650D-04  0.86560648D-05
  0.17888256D-05  0.17494323D-05  0.11559239D-05 -0.45274015D-05 -0.44276998D-05
 -0.29255685D-05 -0.69124486D-06 -0.67602238D-06 -0.44667657D-06 -0.20798489D-05
  0.61812754D-05  0.12939973D-05  0.11289209D-04  0.67889240D-05  0.20022462D-05
  0.80710356D-07  0.98243494D-06  0.16879086D-06 -0.21784502D-05  0.12091255D-05
  0.96932470D-06 -0.17076311D-04 -0.56370041D-05 -0.71957428D-06 -0.35331686D-06
  0.12807314D-05 -0.92741451D-06  0.68813577D-05  0.21398688D-05  0.16537951D-05
  0.15600324D-05 -0.37769639D-06 -0.11823361D-05  0.43120486D-05  0.20622848D-05
  0.41104091D-06  0.31938486D-05  0.44382442D-05  0.61463518D-09 -0.32969235D-05
 -0.16446785D-04 -0.35669944D-05 -0.62846224D-05  0.31320518D-05  0.35651505D-05
 -0.49468880D-05 -0.15650109D-05 -0.15620260D-05 -0.30610214D-06  0.32475450D-05
  0.61644838D-05  0.13983349D-05  0.14474877D-05 -0.14784058D-05 -0.48002849D-06
  0.39532642D-05 -0.13489772D-05 -0.25145520D-05 -0.42627838D-05 -0.64551110D-05
 -0.80721389D-05 -0.69493597D-05 -0.26715876D-05  0.11576426D-07  0.87073017D-06
  0.16350771D-05  0.27842542D-05  0.43615178D-05  0.58449469D-05  0.62870285D-05
  0.37747237D-05 -0.24824171D-05  0.64428992D-06  0.11025158D-04 -0.37031938D-05
  0.41501681D-05  0.40587737D-05  0.26818034D-05  0.31610066D-05  0.30913954D-05
  0.20426156D-05 -0.15933891D-05 -0.15582997D-05 -0.10296345D-05 -0.36704627D-05
 -0.36055725D-05  0.23270758D-05  0.15988289D-04  0.33165390D-05  0.50202356D-05
 -0.20781027D-06  0.68585382D-06 -0.18926952D-06 -0.69306559D-05  0.65132481D-05
  0.41740781D-06  0.56836022D-05 -0.14011645D-04 -0.70840816D-05  0.18949112D-05
 -0.24955309D-05  0.60061969D-06 -0.35522040D-05  0.61400328D-05  0.14203886D-05
  0.33632252D-05 -0.23174834D-05 -0.10457418D-05  0.27481369D-06  0.68644585D-05
  0.52349659D-06 -0.40174197D-05  0.43914501D-06  0.59324724D-05  0.16769107D-04
  0.16629272D-05 -0.22122075D-04 -0.47168475D-05 -0.29803622D-05  0.43246574D-05
 -0.99374256D-05  0.10338743D-05  0.26180858D-06 -0.22543100D-05 -0.65662508D-05
 -0.19246596D-05  0.95819653D-05  0.34646277D-05  0.11392339D-05 -0.28190352D-05
  0.76847331D-06 -0.24061698D-06 -0.44847909D-06 -0.76047193D-06 -0.11510097D-05
 -0.14361240D-05 -0.12334390D-05 -0.47354122D-06  0.21181789D-08  0.65674330D-06
  0.12317383D-05  0.20998438D-05  0.32816472D-05  0.43881875D-05  0.46855612D-05
  0.28646603D-05 -0.18899288D-05 -0.48695683D-05 -0.37547539D-04 -0.65121061D-05
  0.98815939D-05  0.95818221D-05  0.64638406D-05  0.25157555D-05  0.24394366D-05
  0.16456295D-05 -0.22536777D-04 -0.21853092D-04 -0.14741967D-04  0.45718203D-05
 -0.42524253D-06 -0.23577554D-05  0.35985669D-05  0.35421028D-05 -0.73297158D-05
  0.16222913D-06  0.97488798D-07 -0.32641441D-06  0.32081643D-05  0.16723920D-04
 -0.19932084D-04 -0.16773421D-05  0.32694112D-04  0.84651796D-05 -0.19494722D-05
 -0.72124347D-05  0.91619070D-05  0.12639131D-05 -0.14292888D-04 -0.44432247D-05
  0.69939537D-06 -0.86423484D-06  0.16483947D-06 -0.11871660D-05 -0.55332772D-06
  0.15995157D-06  0.65923504D-05  0.20497040D-05  0.15043747D-05  0.63396415D-05
 -0.69198986D-05  0.50468941D-05 -0.26116693D-04  0.77078655D-06 -0.95600182D-05
  0.40312197D-06  0.11397367D-05  0.15988386D-06  0.19385957D-05  0.44286901D-05
  0.16903160D-05  0.15181393D-05 -0.78479003D-05 -0.21699676D-05 -0.73339263D-05
  0.38833449D-05 -0.13099653D-06 -0.24416068D-06 -0.41401562D-06 -0.62663193D-06
 -0.78185369D-06 -0.67150805D-06 -0.25780500D-06  0.11531776D-08  0.56505483D-06
  0.10597743D-05  0.18066829D-05  0.28234938D-05  0.37755491D-05  0.40314062D-05
  0.24647227D-05 -0.16260744D-05 -0.43390378D-05 -0.41370756D-04 -0.88473020D-05
  0.33364666D-05  0.32352502D-05  0.21824807D-05 -0.12680835D-04 -0.12296145D-04
 -0.82949065D-05  0.18211504D-04  0.17659033D-04  0.11912679D-04  0.45245634D-05
 -0.22418097D-05  0.52482634D-05  0.10281575D-05 -0.63274524D-05  0.88284369D-05
  0.21398685D-06 -0.46785200D-06  0.46633229D-06  0.11183746D-04  0.48244912D-05
 -0.16008237D-04  0.13551913D-04 -0.13712144D-04  0.33818377D-04 -0.47717133D-05
 -0.22068426D-05  0.69785559D-05 -0.46575567D-05  0.47571341D-05 -0.13290130D-04
  0.29618892D-06 -0.39908260D-06  0.10289368D-06 -0.13408016D-05  0.42065574D-06
  0.14415468D-06  0.43881742D-05 -0.29427070D-05  0.27002061D-06 -0.37475189D-06
 -0.98958429D-05  0.38767838D-05 -0.12789771D-04  0.18723964D-04 -0.46868456D-05
  0.20921351D-04  0.14220853D-05 -0.23976385D-05 -0.12553588D-05 -0.51022040D-06
 -0.43388070D-06  0.44316851D-05 -0.37560354D-05  0.76267962D-05 -0.66560869D-06
  0.64768265D-05  0.40030533D-05  0.74611762D-05  0.12651683D-04  0.19148911D-04
  0.23892250D-04  0.20520256D-04  0.78781255D-05 -0.35239339D-07 -0.25522628D-05
 -0.47868322D-05 -0.81604994D-05 -0.12753272D-04 -0.17053555D-04 -0.18209221D-04
 -0.11132761D-04  0.73447192D-05  0.13457568D-05 -0.45344437D-04 -0.54347485D-05
 -0.32096778D-05 -0.31123077D-05 -0.20995444D-05 -0.24176278D-05 -0.23442857D-05
 -0.15814413D-05  0.49025914D-05  0.47538646D-05  0.32069289D-05  0.74808438D-06
  0.13594046D-04 -0.26732150D-05 -0.89794192D-05  0.35552238D-04  0.14346310D-04
 -0.52042984D-06  0.90325046D-06  0.74243519D-06  0.29245643D-05 -0.12357142D-04
  0.94325779D-05  0.12052383D-04  0.50205836D-05 -0.20364650D-04  0.43780138D-05
 -0.27569557D-05 -0.16210581D-05 -0.47791061D-06 -0.14587082D-05  0.51440412D-05
  0.15305533D-05 -0.57829901D-05  0.42524368D-05  0.20651389D-05 -0.93653282D-06
 -0.12926061D-06 -0.24082905D-05 -0.10509120D-05 -0.56695520D-05 -0.22138934D-05
  0.29689685D-05  0.45423244D-05  0.94387650D-05  0.18376749D-06  0.12466332D-04
 -0.34329946D-05  0.79636221D-06 -0.21884005D-05  0.12057061D-05  0.26439744D-05
 -0.18814944D-05  0.35494308D-06 -0.50330610D-05  0.84466960D-05 -0.39720615D-05
 -0.22706788D-07  0.11808993D-06  0.21298005D-06  0.31403895D-06 -0.71946458D-05
 -0.68789154D-05 -0.25339110D-06  0.37865549D-05 -0.24241963D-05 -0.37272068D-05
  0.34398909D-05 -0.14817480D-04 -0.28809361D-05  0.17315520D-07 -0.63815474D-06
  0.73819226D-06 -0.11100447D-05  0.46933670D-06  0.64070801D-06 -0.20786066D-05
 -0.52998082D-05  0.18613117D-04 -0.93334154D-06  0.25847778D-06  0.67486376D-06
  0.44150416D-06 -0.87285466D-06  0.18680302D-05
MO    2     MO 0.0        OCC NO =    2.0000000  ORB. ENERGY =  -26.396248
  0.12908518D-03  0.24064412D-03  0.40673096D-03  0.61144986D-03  0.75123680D-03
  0.63453957D-03  0.23932498D-03 -0.11844327D-05 -0.95922081D-04 -0.17959640D-03
 -0.30577824D-03 -0.47299244D-03 -0.62291440D-03 -0.64724797D-03 -0.41129703D-03
  0.27564170D-03 -0.18198334D-03 -0.83573298D-03 -0.27359173D-04  0.11263428D-03
  0.10560179D-03  0.75194768D-04 -0.44656507D-04 -0.41868314D-04 -0.29812734D-04
 -0.25895021D-03 -0.24278228D-03 -0.17287545D-03 -0.19863959D-03  0.87311451D-04
  0.52257871D-03  0.13115459D-04 -0.91727944D-04 -0.37465566D-03 -0.17194750D-05
 -0.16499878D-06  0.38812342D-05  0.21842305D-04 -0.20270697D-03  0.18086466D-03
 -0.51261598D-04 -0.54388524D-03  0.98292895D-04  0.20558859D-05 -0.27891248D-03
  0.27685659D-03 -0.12064638D-04 -0.59248927D-03  0.22923139D-03 -0.30181315D-05
  0.20392080D-04 -0.17373949D-04 -0.11517054D-04  0.26671054D-05 -0.30556258D-04
  0.11049023D-03 -0.35105531D-04  0.22061679D-04  0.34134634D-03  0.12775620D-05
  0.33022607D-03 -0.67281703D-03  0.10403903D-03 -0.39641111D-03 -0.25839686D-03
  0.10832242D-06  0.40803506D-04 -0.44671164D-05  0.10525636D-03 -0.72815947D-04
  0.26163462D-04 -0.10558133D-03 -0.49594570D-04 -0.12762113D-04 -0.17435188D-03
 -0.67656350D-05 -0.12647962D-04 -0.21859627D-04 -0.35356965D-04 -0.53439982D-04