 Molden2AIM, Version 4.0.0 (06/02/2016)           Time: Wed Jun 27 22:28:12 2018
GAUSSIAN             38 MOL ORBITALS    655 PRIMITIVES        5 NUCLEI
  C    1    (CENTRE  1)   0.13585241  1.16167701 -0.00077479  CHARGE =  6.0
  Se   2    (CENTRE  2)  -2.84608061 -0.72523909 -0.00038172  CHARGE = 34.0
  Se   3    (CENTRE  3)   3.29682942  0.10502342 -0.00001890  CHARGE = 34.0
  H    4    (CENTRE  4)  -0.30442165  3.18824009  0.00069542  CHARGE =  1.0
  H    5    (CENTRE  5)  -1.55604395 -3.19963514  0.00048188  CHARGE =  1.0
CENTRE ASSIGNMENTS    1  1  1  1  1  1  1  1  1  1  1  1  1  1  1  1  1  1  1  1
CENTRE ASSIGNMENTS    1  1  1  1  1  1  1  1  1  1  1  1  1  1  1  1  1  1  1  1
CENTRE ASSIGNMENTS    1  1  1  1  1  1  1  1  1  1  1  1  1  1  1  1  1  1  1  1
CENTRE ASSIGNMENTS    1  1  1  1  1  1  1  1  1  1  1  1  1  1  1  2  2  2  2  2
CENTRE ASSIGNMENTS    2  2  2  2  2  2  2  2  2  2  2  2  2  2  2  2  2  2  2  2
CENTRE ASSIGNMENTS    2  2  2  2  2  2  2  2  2  2  2  2  2  2  2  2  2  2  2  2
CENTRE ASSIGNMENTS    2  2  2  2  2  2  2  2  2  2  2  2  2  2  2  2  2  2  2  2
CENTRE ASSIGNMENTS    2  2  2  2  2  2  2  2  2  2  2  2  2  2  2  2  2  2  2  2
CENTRE ASSIGNMENTS    2  2  2  2  2  2  2  2  2  2  2  2  2  2  2  2  2  2  2  2
CENTRE ASSIGNMENTS    2  2  2  2  2  2  2  2  2  2  2  2  2  2  2  2  2  2  2  2
CENTRE ASSIGNMENTS    2  2  2  2  2  2  2  2  2  2  2  2  2  2  2  2  2  2  2  2
CENTRE ASSIGNMENTS    2  2  2  2  2  2  2  2  2  2  2  2  2  2  2  2  2  2  2  2
CENTRE ASSIGNMENTS    2  2  2  2  2  2  2  2  2  2  2  2  2  2  2  2  2  2  2  2
CENTRE ASSIGNMENTS    2  2  2  2  2  2  2  2  2  2  2  2  2  2  2  2  2  2  2  2
CENTRE ASSIGNMENTS    2  2  2  2  2  2  2  2  2  2  2  2  2  2  2  2  2  2  2  2
CENTRE ASSIGNMENTS    2  2  2  2  2  2  2  2  2  2  2  2  2  2  2  2  2  2  2  2
CENTRE ASSIGNMENTS    2  2  2  2  2  2  2  2  2  2  2  2  2  2  2  2  2  2  3  3
CENTRE ASSIGNMENTS    3  3  3  3  3  3  3  3  3  3  3  3  3  3  3  3  3  3  3  3
CENTRE ASSIGNMENTS    3  3  3  3  3  3  3  3  3  3  3  3  3  3  3  3  3  3  3  3
CENTRE ASSIGNMENTS    3  3  3  3  3  3  3  3  3  3  3  3  3  3  3  3  3  3  3  3
CENTRE ASSIGNMENTS    3  3  3  3  3  3  3  3  3  3  3  3  3  3  3  3  3  3  3  3
CENTRE ASSIGNMENTS    3  3  3  3  3  3  3  3  3  3  3  3  3  3  3  3  3  3  3  3
CENTRE ASSIGNMENTS    3  3  3  3  3  3  3  3  3  3  3  3  3  3  3  3  3  3  3  3
CENTRE ASSIGNMENTS    3  3  3  3  3  3  3  3  3  3  3  3  3  3  3  3  3  3  3  3
CENTRE ASSIGNMENTS    3  3  3  3  3  3  3  3  3  3  3  3  3  3  3  3  3  3  3  3
CENTRE ASSIGNMENTS    3  3  3  3  3  3  3  3  3  3  3  3  3  3  3  3  3  3  3  3
CENTRE ASSIGNMENTS    3  3  3  3  3  3  3  3  3  3  3  3  3  3  3  3  3  3  3  3
CENTRE ASSIGNMENTS    3  3  3  3  3  3  3  3  3  3  3  3  3  3  3  3  3  3  3  3
CENTRE ASSIGNMENTS    3  3  3  3  3  3  3  3  3  3  3  3  3  3  3  3  3  3  3  3
CENTRE ASSIGNMENTS    3  3  3  3  3  3  3  3  3  3  3  3  3  3  3  3  3  3  3  3
CENTRE ASSIGNMENTS    3  4  4  4  4  4  4  4  4  4  4  4  4  4  4  4  4  4  4  4
CENTRE ASSIGNMENTS    4  4  4  4  4  4  4  4  5  5  5  5  5  5  5  5  5  5  5  5
CENTRE ASSIGNMENTS    5  5  5  5  5  5  5  5  5  5  5  5  5  5  5
TYPE ASSIGNMENTS      1  1  1  1  1  1  1  1  1  1  1  1  1  1  1  1  1  1  1  2
TYPE ASSIGNMENTS      2  2  3  3  3  4  4  4  2  3  4  2  3  4  2  3  4  5  6  7
TYPE ASSIGNMENTS      8  9 10  5  6  7  8  9 10  5  6  7  8  9 10 11 12 13 17 14
TYPE ASSIGNMENTS     15 18 19 16 20 11 12 13 17 14 15 18 19 16 20  1  1  1  1  1
TYPE ASSIGNMENTS      1  1  1  1  1  1  1  1  1  1  1  1  1  1  1  1  1  1  1  1
TYPE ASSIGNMENTS      1  1  1  1  1  1  1  1  1  1  1  1  1  1  1  1  1  1  1  1
TYPE ASSIGNMENTS      1  1  1  1  1  1  1  1  1  1  1  1  1  1  1  1  1  1  1  1
TYPE ASSIGNMENTS      1  1  1  1  1  1  1  1  1  1  2  2  2  2  2  2  2  2  2  2
TYPE ASSIGNMENTS      2  3  3  3  3  3  3  3  3  3  3  3  4  4  4  4  4  4  4  4
TYPE ASSIGNMENTS      4  4  4  2  2  2  2  2  2  2  2  2  2  2  3  3  3  3  3  3
TYPE ASSIGNMENTS      3  3  3  3  3  4  4  4  4  4  4  4  4  4  4  4  2  2  2  2
TYPE ASSIGNMENTS      2  2  2  2  2  2  2  3  3  3  3  3  3  3  3  3  3  3  4  4
TYPE ASSIGNMENTS      4  4  4  4  4  4  4  4  4  2  3  4  2  3  4  2  3  4  5  5
TYPE ASSIGNMENTS      5  5  5  5  5  6  6  6  6  6  6  6  7  7  7  7  7  7  7  8
TYPE ASSIGNMENTS      8  8  8  8  8  8  9  9  9  9  9  9  9 10 10 10 10 10 10 10
TYPE ASSIGNMENTS      5  6  7  8  9 10  5  6  7  8  9 10  5  6  7  8  9 10 11 12
TYPE ASSIGNMENTS     13 17 14 15 18 19 16 20 11 12 13 17 14 15 18 19 16 20  1  1
TYPE ASSIGNMENTS      1  1  1  1  1  1  1  1  1  1  1  1  1  1  1  1  1  1  1  1
TYPE ASSIGNMENTS      1  1  1  1  1  1  1  1  1  1  1  1  1  1  1  1  1  1  1  1
TYPE ASSIGNMENTS      1  1  1  1  1  1  1  1  1  1  1  1  1  1  1  1  1  1  1  1
TYPE ASSIGNMENTS      1  1  1  1  1  1  1  1  1  1  1  1  1  2  2  2  2  2  2  2
TYPE ASSIGNMENTS      2  2  2  2  3  3  3  3  3  3  3  3  3  3  3  4  4  4  4  4
TYPE ASSIGNMENTS      4  4  4  4  4  4  2  2  2  2  2  2  2  2  2  2  2  3  3  3
TYPE ASSIGNMENTS      3  3  3  3  3  3  3  3  4  4  4  4  4  4  4  4  4  4  4  2
TYPE ASSIGNMENTS      2  2  2  2  2  2  2  2  2  2  3  3  3  3  3  3  3  3  3  3
TYPE ASSIGNMENTS      3  4  4  4  4  4  4  4  4  4  4  4  2  3  4  2  3  4  2  3
TYPE ASSIGNMENTS      4  5  5  5  5  5  5  5  6  6  6  6  6  6  6  7  7  7  7  7
TYPE ASSIGNMENTS      7  7  8  8  8  8  8  8  8  9  9  9  9  9  9  9 10 10 10 10
TYPE ASSIGNMENTS     10 10 10  5  6  7  8  9 10  5  6  7  8  9 10  5  6  7  8  9
TYPE ASSIGNMENTS     10 11 12 13 17 14 15 18 19 16 20 11 12 13 17 14 15 18 19 16
TYPE ASSIGNMENTS     20  1  1  1  1  1  1  2  3  4  2  3  4  2  3  4  5  6  7  8
TYPE ASSIGNMENTS      9 10  5  6  7  8  9 10  1  1  1  1  1  1  2  3  4  2  3  4
TYPE ASSIGNMENTS      2  3  4  5  6  7  8  9 10  5  6  7  8  9 10
EXPONENTS  0.8236000D+04 0.1235000D+04 0.2808000D+03 0.7927000D+02 0.2559000D+02
EXPONENTS  0.8997000D+01 0.3319000D+01 0.3643000D+00 0.8236000D+04 0.1235000D+04
EXPONENTS  0.2808000D+03 0.7927000D+02 0.2559000D+02 0.8997000D+01 0.3319000D+01
EXPONENTS  0.3643000D+00 0.9059000D+00 0.1285000D+00 0.4402000D-01 0.1871000D+02
EXPONENTS  0.4133000D+01 0.1200000D+01 0.1871000D+02 0.4133000D+01 0.1200000D+01
EXPONENTS  0.1871000D+02 0.4133000D+01 0.1200000D+01 0.3827000D+00 0.3827000D+00
EXPONENTS  0.3827000D+00 0.1209000D+00 0.1209000D+00 0.1209000D+00 0.3569000D-01
EXPONENTS  0.3569000D-01 0.3569000D-01 0.1097000D+01 0.1097000D+01 0.1097000D+01
EXPONENTS  0.1097000D+01 0.1097000D+01 0.1097000D+01 0.3180000D+00 0.3180000D+00
EXPONENTS  0.3180000D+00 0.3180000D+00 0.3180000D+00 0.3180000D+00 0.1000000D+00
EXPONENTS  0.1000000D+00 0.1000000D+00 0.1000000D+00 0.1000000D+00 0.1000000D+00
EXPONENTS  0.7610000D+00 0.7610000D+00 0.7610000D+00 0.7610000D+00 0.7610000D+00
EXPONENTS  0.7610000D+00 0.7610000D+00 0.7610000D+00 0.7610000D+00 0.7610000D+00
EXPONENTS  0.2680000D+00 0.2680000D+00 0.2680000D+00 0.2680000D+00 0.2680000D+00
EXPONENTS  0.2680000D+00 0.2680000D+00 0.2680000D+00 0.2680000D+00 0.2680000D+00
EXPONENTS  0.9563600D+07 0.1432100D+07 0.3259100D+06 0.9231200D+05 0.3011600D+05
EXPONENTS  0.1087200D+05 0.4240100D+04 0.1758400D+04 0.7665900D+03 0.3484300D+03
EXPONENTS  0.1640300D+03 0.7914200D+02 0.3552400D+02 0.1730500D+02 0.8378400D+01
EXPONENTS  0.3740500D+01 0.1689000D+01 0.2552000D+00 0.9563600D+07 0.1432100D+07
EXPONENTS  0.3259100D+06 0.9231200D+05 0.3011600D+05 0.1087200D+05 0.4240100D+04
EXPONENTS  0.1758400D+04 0.7665900D+03 0.3484300D+03 0.1640300D+03 0.7914200D+02
EXPONENTS  0.3552400D+02 0.1730500D+02 0.8378400D+01 0.3740500D+01 0.1689000D+01
EXPONENTS  0.2552000D+00 0.9563600D+07 0.1432100D+07 0.3259100D+06 0.9231200D+05
EXPONENTS  0.3011600D+05 0.1087200D+05 0.4240100D+04 0.1758400D+04 0.7665900D+03
EXPONENTS  0.3484300D+03 0.1640300D+03 0.7914200D+02 0.3552400D+02 0.1730500D+02
EXPONENTS  0.8378400D+01 0.3740500D+01 0.1689000D+01 0.2552000D+00 0.9563600D+07
EXPONENTS  0.1432100D+07 0.3259100D+06 0.9231200D+05 0.3011600D+05 0.1087200D+05
EXPONENTS  0.4240100D+04 0.1758400D+04 0.7665900D+03 0.3484300D+03 0.1640300D+03
EXPONENTS  0.7914200D+02 0.3552400D+02 0.1730500D+02 0.8378400D+01 0.3740500D+01
EXPONENTS  0.1689000D+01 0.2552000D+00 0.5092700D+00 0.1065100D+00 0.3920100D-01
EXPONENTS  0.8004300D+04 0.1896900D+04 0.6147100D+03 0.2335000D+03 0.9785600D+02
EXPONENTS  0.4351400D+02 0.2006300D+02 0.9112700D+01 0.4106300D+01 0.1794900D+01
EXPONENTS  0.2461500D+00 0.8004300D+04 0.1896900D+04 0.6147100D+03 0.2335000D+03
EXPONENTS  0.9785600D+02 0.4351400D+02 0.2006300D+02 0.9112700D+01 0.4106300D+01
EXPONENTS  0.1794900D+01 0.2461500D+00 0.8004300D+04 0.1896900D+04 0.6147100D+03
EXPONENTS  0.2335000D+03 0.9785600D+02 0.4351400D+02 0.2006300D+02 0.9112700D+01
EXPONENTS  0.4106300D+01 0.1794900D+01 0.2461500D+00 0.8004300D+04 0.1896900D+04
EXPONENTS  0.6147100D+03 0.2335000D+03 0.9785600D+02 0.4351400D+02 0.2006300D+02
EXPONENTS  0.9112700D+01 0.4106300D+01 0.1794900D+01 0.2461500D+00 0.8004300D+04
EXPONENTS  0.1896900D+04 0.6147100D+03 0.2335000D+03 0.9785600D+02 0.4351400D+02
EXPONENTS  0.2006300D+02 0.9112700D+01 0.4106300D+01 0.1794900D+01 0.2461500D+00
EXPONENTS  0.8004300D+04 0.1896900D+04 0.6147100D+03 0.2335000D+03 0.9785600D+02
EXPONENTS  0.4351400D+02 0.2006300D+02 0.9112700D+01 0.4106300D+01 0.1794900D+01
EXPONENTS  0.2461500D+00 0.8004300D+04 0.1896900D+04 0.6147100D+03 0.2335000D+03
EXPONENTS  0.9785600D+02 0.4351400D+02 0.2006300D+02 0.9112700D+01 0.4106300D+01
EXPONENTS  0.1794900D+01 0.2461500D+00 0.8004300D+04 0.1896900D+04 0.6147100D+03
EXPONENTS  0.2335000D+03 0.9785600D+02 0.4351400D+02 0.2006300D+02 0.9112700D+01
EXPONENTS  0.4106300D+01 0.1794900D+01 0.2461500D+00 0.8004300D+04 0.1896900D+04
EXPONENTS  0.6147100D+03 0.2335000D+03 0.9785600D+02 0.4351400D+02 0.2006300D+02
EXPONENTS  0.9112700D+01 0.4106300D+01 0.1794900D+01 0.2461500D+00 0.6243200D+00
EXPONENTS  0.6243200D+00 0.6243200D+00 0.8891700D-01 0.8891700D-01 0.8891700D-01
EXPONENTS  0.3025100D-01 0.3025100D-01 0.3025100D-01 0.3618500D+03 0.1085500D+03
EXPONENTS  0.4143300D+02 0.1757900D+02 0.7862700D+01 0.3518000D+01 0.1534800D+01
EXPONENTS  0.3618500D+03 0.1085500D+03 0.4143300D+02 0.1757900D+02 0.7862700D+01
EXPONENTS  0.3518000D+01 0.1534800D+01 0.3618500D+03 0.1085500D+03 0.4143300D+02
EXPONENTS  0.1757900D+02 0.7862700D+01 0.3518000D+01 0.1534800D+01 0.3618500D+03
EXPONENTS  0.1085500D+03 0.4143300D+02 0.1757900D+02 0.7862700D+01 0.3518000D+01
EXPONENTS  0.1534800D+01 0.3618500D+03 0.1085500D+03 0.4143300D+02 0.1757900D+02
EXPONENTS  0.7862700D+01 0.3518000D+01 0.1534800D+01 0.3618500D+03 0.1085500D+03
EXPONENTS  0.4143300D+02 0.1757900D+02 0.7862700D+01 0.3518000D+01 0.1534800D+01
EXPONENTS  0.6081300D+00 0.6081300D+00 0.6081300D+00 0.6081300D+00 0.6081300D+00
EXPONENTS  0.6081300D+00 0.2220000D+00 0.2220000D+00 0.2220000D+00 0.2220000D+00
EXPONENTS  0.2220000D+00 0.2220000D+00 0.8370000D-01 0.8370000D-01 0.8370000D-01
EXPONENTS  0.8370000D-01 0.8370000D-01 0.8370000D-01 0.4620000D+00 0.4620000D+00
EXPONENTS  0.4620000D+00 0.4620000D+00 0.4620000D+00 0.4620000D+00 0.4620000D+00
EXPONENTS  0.4620000D+00 0.4620000D+00 0.4620000D+00 0.1880000D+00 0.1880000D+00
EXPONENTS  0.1880000D+00 0.1880000D+00 0.1880000D+00 0.1880000D+00 0.1880000D+00
EXPONENTS  0.1880000D+00 0.1880000D+00 0.1880000D+00 0.9563600D+07 0.1432100D+07
EXPONENTS  0.3259100D+06 0.9231200D+05 0.3011600D+05 0.1087200D+05 0.4240100D+04
EXPONENTS  0.1758400D+04 0.7665900D+03 0.3484300D+03 0.1640300D+03 0.7914200D+02
EXPONENTS  0.3552400D+02 0.1730500D+02 0.8378400D+01 0.3740500D+01 0.1689000D+01
EXPONENTS  0.2552000D+00 0.9563600D+07 0.1432100D+07 0.3259100D+06 0.9231200D+05
EXPONENTS  0.3011600D+05 0.1087200D+05 0.4240100D+04 0.1758400D+04 0.7665900D+03
EXPONENTS  0.3484300D+03 0.1640300D+03 0.7914200D+02 0.3552400D+02 0.1730500D+02
EXPONENTS  0.8378400D+01 0.3740500D+01 0.1689000D+01 0.2552000D+00 0.9563600D+07
EXPONENTS  0.1432100D+07 0.3259100D+06 0.9231200D+05 0.3011600D+05 0.1087200D+05
EXPONENTS  0.4240100D+04 0.1758400D+04 0.7665900D+03 0.3484300D+03 0.1640300D+03
EXPONENTS  0.7914200D+02 0.3552400D+02 0.1730500D+02 0.8378400D+01 0.3740500D+01
EXPONENTS  0.1689000D+01 0.2552000D+00 0.9563600D+07 0.1432100D+07 0.3259100D+06
EXPONENTS  0.9231200D+05 0.3011600D+05 0.1087200D+05 0.4240100D+04 0.1758400D+04
EXPONENTS  0.7665900D+03 0.3484300D+03 0.1640300D+03 0.7914200D+02 0.3552400D+02
EXPONENTS  0.1730500D+02 0.8378400D+01 0.3740500D+01 0.1689000D+01 0.2552000D+00
EXPONENTS  0.5092700D+00 0.1065100D+00 0.3920100D-01 0.8004300D+04 0.1896900D+04
EXPONENTS  0.6147100D+03 0.2335000D+03 0.9785600D+02 0.4351400D+02 0.2006300D+02
EXPONENTS  0.9112700D+01 0.4106300D+01 0.1794900D+01 0.2461500D+00 0.8004300D+04
EXPONENTS  0.1896900D+04 0.6147100D+03 0.2335000D+03 0.9785600D+02 0.4351400D+02
EXPONENTS  0.2006300D+02 0.9112700D+01 0.4106300D+01 0.1794900D+01 0.2461500D+00
EXPONENTS  0.8004300D+04 0.1896900D+04 0.6147100D+03 0.2335000D+03 0.9785600D+02
EXPONENTS  0.4351400D+02 0.2006300D+02 0.9112700D+01 0.4106300D+01 0.1794900D+01
EXPONENTS  0.2461500D+00 0.8004300D+04 0.1896900D+04 0.6147100D+03 0.2335000D+03
EXPONENTS  0.9785600D+02 0.4351400D+02 0.2006300D+02 0.9112700D+01 0.4106300D+01
EXPONENTS  0.1794900D+01 0.2461500D+00 0.8004300D+04 0.1896900D+04 0.6147100D+03
EXPONENTS  0.2335000D+03 0.9785600D+02 0.4351400D+02 0.2006300D+02 0.9112700D+01
EXPONENTS  0.4106300D+01 0.1794900D+01 0.2461500D+00 0.8004300D+04 0.1896900D+04
EXPONENTS  0.6147100D+03 0.2335000D+03 0.9785600D+02 0.4351400D+02 0.2006300D+02
EXPONENTS  0.9112700D+01 0.4106300D+01 0.1794900D+01 0.2461500D+00 0.8004300D+04
EXPONENTS  0.1896900D+04 0.6147100D+03 0.2335000D+03 0.9785600D+02 0.4351400D+02
EXPONENTS  0.2006300D+02 0.9112700D+01 0.4106300D+01 0.1794900D+01 0.2461500D+00
EXPONENTS  0.8004300D+04 0.1896900D+04 0.6147100D+03 0.2335000D+03 0.9785600D+02
EXPONENTS  0.4351400D+02 0.2006300D+02 0.9112700D+01 0.4106300D+01 0.1794900D+01
EXPONENTS  0.2461500D+00 0.8004300D+04 0.1896900D+04 0.6147100D+03 0.2335000D+03
EXPONENTS  0.9785600D+02 0.4351400D+02 0.2006300D+02 0.9112700D+01 0.4106300D+01
EXPONENTS  0.1794900D+01 0.2461500D+00 0.6243200D+00 0.6243200D+00 0.6243200D+00
EXPONENTS  0.8891700D-01 0.8891700D-01 0.8891700D-01 0.3025100D-01 0.3025100D-01
EXPONENTS  0.3025100D-01 0.3618500D+03 0.1085500D+03 0.4143300D+02 0.1757900D+02
EXPONENTS  0.7862700D+01 0.3518000D+01 0.1534800D+01 0.3618500D+03 0.1085500D+03
EXPONENTS  0.4143300D+02 0.1757900D+02 0.7862700D+01 0.3518000D+01 0.1534800D+01
EXPONENTS  0.3618500D+03 0.1085500D+03 0.4143300D+02 0.1757900D+02 0.7862700D+01
EXPONENTS  0.3518000D+01 0.1534800D+01 0.3618500D+03 0.1085500D+03 0.4143300D+02
EXPONENTS  0.1757900D+02 0.7862700D+01 0.3518000D+01 0.1534800D+01 0.3618500D+03
EXPONENTS  0.1085500D+03 0.4143300D+02 0.1757900D+02 0.7862700D+01 0.3518000D+01
EXPONENTS  0.1534800D+01 0.3618500D+03 0.1085500D+03 0.4143300D+02 0.1757900D+02
EXPONENTS  0.7862700D+01 0.3518000D+01 0.1534800D+01 0.6081300D+00 0.6081300D+00
EXPONENTS  0.6081300D+00 0.6081300D+00 0.6081300D+00 0.6081300D+00 0.2220000D+00
EXPONENTS  0.2220000D+00 0.2220000D+00 0.2220000D+00 0.2220000D+00 0.2220000D+00
EXPONENTS  0.8370000D-01 0.8370000D-01 0.8370000D-01 0.8370000D-01 0.8370000D-01
EXPONENTS  0.8370000D-01 0.4620000D+00 0.4620000D+00 0.4620000D+00 0.4620000D+00
EXPONENTS  0.4620000D+00 0.4620000D+00 0.4620000D+00 0.4620000D+00 0.4620000D+00
EXPONENTS  0.4620000D+00 0.1880000D+00 0.1880000D+00 0.1880000D+00 0.1880000D+00
EXPONENTS  0.1880000D+00 0.1880000D+00 0.1880000D+00 0.1880000D+00 0.1880000D+00
EXPONENTS  0.1880000D+00 0.3387000D+02 0.5095000D+01 0.1159000D+01 0.3258000D+00
EXPONENTS  0.1027000D+00 0.2526000D-01 0.1407000D+01 0.1407000D+01 0.1407000D+01
EXPONENTS  0.3880000D+00 0.3880000D+00 0.3880000D+00 0.1020000D+00 0.1020000D+00
EXPONENTS  0.1020000D+00 0.1057000D+01 0.1057000D+01 0.1057000D+01 0.1057000D+01
EXPONENTS  0.1057000D+01 0.1057000D+01 0.2470000D+00 0.2470000D+00 0.2470000D+00
EXPONENTS  0.2470000D+00 0.2470000D+00 0.2470000D+00 0.3387000D+02 0.5095000D+01
EXPONENTS  0.1159000D+01 0.3258000D+00 0.1027000D+00 0.2526000D-01 0.1407000D+01
EXPONENTS  0.1407000D+01 0.1407000D+01 0.3880000D+00 0.3880000D+00 0.3880000D+00
EXPONENTS  0.1020000D+00 0.1020000D+00 0.1020000D+00 0.1057000D+01 0.1057000D+01
EXPONENTS  0.1057000D+01 0.1057000D+01 0.1057000D+01 0.1057000D+01 0.2470000D+00
EXPONENTS  0.2470000D+00 0.2470000D+00 0.2470000D+00 0.2470000D+00 0.2470000D+00
MO    1     MO 0.0        OCC NO =    2.0000000  ORB. ENERGY = -460.875192
 -0.80779778D-07 -0.15059187D-06 -0.25452679D-06 -0.38263715D-06 -0.47011394D-06
 -0.39708638D-06 -0.14976637D-06  0.74120213D-09  0.59912043D-07  0.11217425D-06
  0.19098625D-06  0.29542670D-06  0.38906657D-06  0.40426508D-06  0.25689231D-06
 -0.17216325D-06 -0.28097562D-06  0.13441040D-05  0.28384595D-06  0.19021591D-06
  0.17833951D-06  0.12698835D-06  0.15697349D-06  0.14717263D-06  0.10479568D-06
 -0.13177867D-09 -0.12355088D-09 -0.87975589D-10 -0.14316700D-06  0.63314977D-08
  0.15538596D-09 -0.37851314D-06 -0.85872092D-06 -0.78453093D-10  0.91820097D-08
 -0.17629331D-07  0.29266008D-11 -0.12420682D-06 -0.12283479D-06  0.24704161D-06
 -0.33504362D-06  0.65950950D-10  0.17830851D-09  0.14747701D-06  0.13098189D-06
 -0.27845890D-06  0.44944580D-06  0.19790419D-10 -0.10621098D-09  0.26120776D-07
 -0.26056290D-08 -0.23515147D-07  0.22994356D-06  0.13279290D-09 -0.49515883D-10
 -0.55705414D-07  0.96112361D-07 -0.47562532D-10  0.39643081D-07 -0.31972110D-06
  0.98182022D-10  0.12747316D-06  0.31384012D-07  0.44505575D-10  0.15383402D-09
  0.26260250D-07  0.16923684D-07  0.83631967D-11 -0.12208662D-06 -0.12127104D-06
 -0.41201990D-10  0.43305872D-07  0.70499989D-07  0.16112400D-10  0.73100841D-10
  0.77217655D+00  0.14427759D+01  0.25023140D+01  0.40994297D+01  0.64193813D+01
  0.96401989D+01  0.13749684D+02  0.18166118D+02  0.20949999D+02  0.18855671D+02
  0.10578500D+02  0.25574091D+01  0.12141311D+00 -0.20777432D-02  0.58437962D-03
 -0.22773181D-03  0.21540829D-04  0.21239711D-05 -0.10383156D-06 -0.19120743D-06
 -0.33188806D-06 -0.54357048D-06 -0.85555492D-06 -0.12913469D-05 -0.18824076D-05
 -0.25849411D-05 -0.32828422D-05 -0.35354128D-05 -0.28204859D-05 -0.63176635D-06
  0.16893290D-05  0.15022771D-05  0.29340081D-06  0.81278060D-08  0.58858807D-09
  0.12020579D-10 -0.12898248D-06 -0.23286593D-06 -0.40537524D-06 -0.66381907D-06
 -0.10465486D-05 -0.15792130D-05 -0.23112957D-05 -0.31846618D-05 -0.41026977D-05
 -0.45157800D-05 -0.38015545D-05 -0.90528617D-06  0.30493519D-05  0.40745734D-05
  0.50056967D-06 -0.17490584D-05 -0.77209551D-06  0.38317712D-08  0.29458072D-07
  0.63820585D-07  0.10864619D-06  0.17734896D-06  0.27959825D-06  0.42192946D-06
  0.61752957D-06  0.85184334D-06  0.10987889D-05  0.12147287D-05  0.10287851D-05
  0.24989874D-06 -0.86700139D-06 -0.12236730D-05 -0.14600105D-06  0.68617133D-06
  0.54849471D-06 -0.20779574D-06 -0.43567890D-05 -0.33242879D-05 -0.16788058D-06
  0.23097704D-03  0.33104367D-03  0.43715587D-03  0.50248863D-03  0.46225813D-03
  0.29571919D-03  0.10235988D-03  0.11507698D-04  0.14640597D-06  0.25369625D-07
  0.25924996D-09 -0.77257811D-04 -0.11072836D-03 -0.14622105D-03 -0.16807372D-03
 -0.15461732D-03 -0.98912936D-04 -0.34237603D-04 -0.38491253D-05 -0.48970256D-07
 -0.84856991D-08 -0.86714611D-10 -0.29376585D-07 -0.42103460D-07 -0.55599234D-07
 -0.63908517D-07 -0.58791840D-07 -0.37610751D-07 -0.13018540D-07 -0.14635952D-08
 -0.18620498D-10 -0.32266105D-11 -0.32972448D-13  0.12283506D-03  0.17717990D-03
  0.23598070D-03  0.27927448D-03  0.26837228D-03  0.18446674D-03  0.58078387D-04
 -0.28068760D-04 -0.28805342D-04 -0.72542542D-05  0.79091833D-08 -0.26324744D-04
 -0.37971370D-04 -0.50572951D-04 -0.59851228D-04 -0.57514782D-04 -0.39533011D-04
 -0.12446761D-04  0.60154074D-05  0.61732641D-05  0.15546570D-05 -0.16950146D-08
 -0.50914243D-08 -0.73439784D-08 -0.97812290D-08 -0.11575725D-07 -0.11123837D-07
 -0.76460129D-08 -0.24073071D-08  0.11634298D-08  0.11939606D-08  0.30068358D-09
 -0.32782992D-12 -0.55726302D-04 -0.80785696D-04 -0.10722281D-03 -0.12796016D-03
 -0.12293934D-03 -0.86050983D-04 -0.25982330D-04  0.15905062D-04  0.17105610D-04
  0.46002581D-05 -0.17148262D-05  0.94890678D-05  0.13756178D-04  0.18257886D-04
  0.21789040D-04  0.20934095D-04  0.14652751D-04  0.44242679D-05 -0.27083120D-05
 -0.29127412D-05 -0.78333137D-06  0.29200038D-06  0.93575801D-09  0.13565562D-08
  0.18004891D-08  0.21487115D-08  0.20644016D-08  0.14449711D-08  0.43629619D-09
 -0.26707835D-09 -0.28723800D-09 -0.77247694D-10  0.28795420D-10  0.20974964D-05
 -0.47866284D-06 -0.17007003D-09 -0.54319283D-06  0.85360807D-07  0.46966857D-10
 -0.19678712D-08  0.37378415D-09 -0.20099019D-11  0.41294603D-05  0.42743860D-05
  0.35762388D-05  0.23076895D-05  0.10366457D-05  0.30268376D-06  0.51064606D-07
  0.30556390D-04  0.31628784D-04  0.26462767D-04  0.17076000D-04  0.76707724D-05
  0.22397414D-05  0.37785810D-06 -0.34685851D-04 -0.35903170D-04 -0.30039006D-04
 -0.19383689D-04 -0.87074181D-05 -0.25424252D-05 -0.42892271D-06  0.20425782D-04
  0.21142636D-04  0.17689351D-04  0.11414654D-04  0.51276188D-05  0.14971817D-05
  0.25258373D-06 -0.18771050D-07 -0.19429830D-07 -0.16256302D-07 -0.10489931D-07
 -0.47122205D-08 -0.13758921D-08 -0.23212143D-09 -0.48832943D-07 -0.50546762D-07
 -0.42290820D-07 -0.27289588D-07 -0.12258856D-07 -0.35793876D-08 -0.60386462D-09
  0.83281660D-08 -0.37782780D-06  0.36949963D-06 -0.20050017D-06  0.55341321D-10
  0.38890057D-09 -0.20957064D-06  0.28239021D-07  0.18133162D-06  0.98120438D-07
  0.24170871D-10  0.23400100D-09 -0.18945548D-07 -0.39952724D-08  0.22940821D-07
  0.43530228D-08  0.15476284D-10  0.17420121D-10 -0.11513121D-07  0.72133996D-07
  0.21190187D-10 -0.16718447D-06 -0.13269396D-06  0.19681679D-10  0.20172384D-06
 -0.83708030D-07 -0.83252241D-10  0.25813225D-09 -0.46824605D-08 -0.16216319D-08
  0.45498816D-11 -0.44830682D-08  0.16884913D-07  0.62660165D-11  0.18530450D-07
 -0.12020017D-07 -0.19915661D-10  0.55396473D-10 -0.63141588D-07 -0.11797711D-06
 -0.20461652D-06 -0.33521414D-06 -0.52491872D-06 -0.78828794D-06 -0.11243243D-05
 -0.14854602D-05 -0.17131007D-05 -0.15418456D-05 -0.86501373D-06 -0.20912170D-06
 -0.99280615D-08  0.16989897D-09 -0.47785260D-10  0.18621840D-10 -0.17614134D-11
 -0.17367907D-12 -0.33720492D-08 -0.62096810D-08 -0.10778446D-07 -0.17653076D-07
 -0.27785129D-07 -0.41937974D-07 -0.61133349D-07 -0.83948931D-07 -0.10661407D-06
 -0.11481659D-06 -0.91598521D-07 -0.20517338D-07  0.54862901D-07  0.48788174D-07
  0.95285283D-08  0.26395984D-09  0.19115074D-10  0.39038211D-12  0.43420710D-08
  0.78392071D-08  0.13646567D-07  0.22346829D-07  0.35231049D-07  0.53162683D-07
  0.77807543D-07  0.10720857D-06  0.13811336D-06  0.15201938D-06  0.12797567D-06
  0.30475586D-07 -0.10265349D-06 -0.13716659D-06 -0.16851195D-07  0.58880366D-07
  0.25991851D-07 -0.12899288D-09 -0.12962737D-08 -0.28083625D-08 -0.47808693D-08
 -0.78040678D-08 -0.12303448D-07 -0.18566594D-07 -0.27173786D-07 -0.37484534D-07
 -0.48351130D-07 -0.53452948D-07 -0.45270684D-07 -0.10996550D-07  0.38151550D-07
  0.53846537D-07  0.64246335D-08 -0.30194299D-07 -0.24135974D-07  0.91438485D-08
  0.51050717D-08 -0.14709705D-06 -0.17439386D-06  0.18836114D-05  0.26996520D-05
  0.35649940D-05  0.40977809D-05  0.37697023D-05  0.24115818D-05  0.83474201D-06
  0.93844962D-07  0.11939367D-08  0.20688859D-09  0.21141763D-11 -0.14222712D-07
 -0.20384444D-07 -0.26918441D-07 -0.30941390D-07 -0.28464145D-07 -0.18209293D-07
 -0.63029427D-08 -0.70860148D-09 -0.90151380D-11 -0.15621676D-11 -0.15963653D-13
  0.36918207D-09  0.52912352D-09  0.69872791D-09  0.80315250D-09  0.73885010D-09
  0.47266265D-09  0.16360688D-09  0.18393325D-10  0.23400793D-12  0.40549530D-13
  0.41437207D-15 -0.81241446D-05 -0.11718438D-04 -0.15607444D-04 -0.18470836D-04
 -0.17749779D-04 -0.12200381D-04 -0.38412259D-05  0.18564298D-05  0.19051463D-05
  0.47978655D-06 -0.52310267D-09  0.32409258D-06  0.46747801D-06  0.62262022D-06
  0.73684813D-06  0.70808338D-06  0.48670390D-06  0.15323617D-06 -0.74057657D-07
 -0.76001083D-07 -0.19139893D-07  0.20867882D-10 -0.18219803D-08 -0.26280630D-08
 -0.35002399D-08 -0.41424051D-08 -0.39806958D-08 -0.27361469D-08 -0.86146150D-09
  0.41633656D-09  0.42726209D-09  0.10760045D-09 -0.11731484D-12  0.61806278D-05
  0.89599758D-05  0.11892127D-04  0.14192116D-04  0.13635254D-04  0.95439510D-05
  0.28817112D-05 -0.17640372D-05 -0.18971905D-05 -0.51021657D-06  0.19019210D-06
 -0.51626358D-06 -0.74842060D-06 -0.99334116D-06 -0.11854576D-05 -0.11389434D-05
 -0.79719965D-06 -0.24070735D-06  0.14734881D-06  0.15847101D-06  0.42618038D-07
 -0.15886615D-07  0.16721266D-08  0.24240601D-08  0.32173336D-08  0.38395798D-08
  0.36889247D-08  0.25820506D-08  0.77962725D-09 -0.47724818D-09 -0.51327190D-09
 -0.13803560D-09  0.51455170D-10 -0.35608690D-07 -0.73944806D-07  0.57248972D-10
  0.75895276D-07 -0.11988177D-06 -0.12671406D-09  0.84615677D-08 -0.22063123D-08
  0.36161137D-11 -0.34480382D-06 -0.35690490D-06 -0.29861064D-06 -0.19268866D-06
 -0.86558379D-07 -0.25273646D-07 -0.42638189D-08  0.69223813D-07  0.71653261D-07
  0.59949936D-07  0.38684732D-07  0.17377711D-07  0.50740103D-08  0.85601663D-09
  0.27558001D-06  0.28525164D-06  0.23866070D-06  0.15400393D-06  0.69180669D-07
  0.20199636D-07  0.34078023D-08 -0.15727032D-05 -0.16278981D-05 -0.13620090D-05
 -0.87888257D-06 -0.39480607D-06 -0.11527698D-06 -0.19447933D-07  0.30916134D-08
  0.32001153D-08  0.26774316D-08  0.17277037D-08  0.77610813D-09  0.22661101D-09
  0.38230666D-10 -0.16162075D-08 -0.16729292D-08 -0.13996851D-08 -0.90319433D-09
 -0.40572724D-09 -0.11846579D-09 -0.19985904D-10  0.18416450D-07 -0.58146734D-08
 -0.12601777D-07  0.10492507D-06 -0.18477863D-09  0.96670415D-10 -0.64391338D-07
  0.26200946D-07  0.38190393D-07  0.26069286D-07  0.30097072D-12 -0.13196392D-10
 -0.17925824D-08 -0.59864962D-08  0.77790787D-08  0.19519094D-07  0.27622781D-10
  0.33337201D-11  0.39467704D-08  0.17569280D-07 -0.51142542D-11 -0.30589248D-08
 -0.45264315D-07  0.66995322D-10 -0.87813865D-08 -0.74435256D-08 -0.51652560D-10
 -0.57399380D-10  0.34265598D-08 -0.84431094D-09 -0.12965009D-11 -0.18615999D-08
  0.15040303D-08 -0.62345324D-11 -0.84180797D-08  0.10289025D-08  0.10124035D-10
  0.72795911D-11 -0.17657878D-07 -0.31846709D-07 -0.46957954D-07 -0.24176371D-06
  0.10082221D-05  0.20290839D-07 -0.89528211D-07 -0.26518425D-07  0.45875061D-10
 -0.74766803D-07  0.13586123D-06  0.26882674D-09 -0.14788870D-06 -0.16939929D-06
 -0.79773424D-10  0.40781478D-08  0.99853822D-08 -0.14063530D-07  0.15635356D-06
  0.31205346D-10 -0.29007991D-09  0.11205526D-07 -0.30425435D-08 -0.81629826D-08
  0.54559232D-07  0.94688802D-12 -0.64620412D-10 -0.55578036D-07 -0.10023728D-06
 -0.14779981D-06  0.78287748D-06  0.11909151D-05  0.22145872D-07 -0.20178481D-07
 -0.19014449D-06 -0.89058293D-11 -0.21089223D-06  0.82232817D-06 -0.20992634D-09
 -0.63286647D-07  0.24590532D-06 -0.10572940D-09 -0.70742061D-07  0.32245652D-06
 -0.25171446D-06 -0.47136558D-06  0.16474888D-09 -0.35860459D-09 -0.51266127D-07
  0.75792584D-07 -0.24526457D-07 -0.41727610D-07 -0.41483267D-11 -0.77997589D-10
MO    2     MO 0.0        OCC NO =    2.0000000  ORB. ENERGY = -460.822062
 -0.11666386D-06 -0.21748797D-06 -0.36759298D-06 -0.55261265D-06 -0.67894849D-06
 -0.57348054D-06 -0.21629576D-06  0.10704598D-08  0.85696353D-07  0.16045061D-06
  0.27318090D-06  0.42256931D-06  0.55650891D-06  0.57824841D-06  0.36745090D-06
 -0.24625705D-06 -0.44514296D-06  0.25736053D-05  0.71704779D-06 -0.42281018D-06
 -0.39641142D-06 -0.28226855D-06  0.17339643D-06  0.16257018D-06  0.11575965D-06
 -0.23432644D-09 -0.21969593D-09 -0.15643659D-09  0.52564927D-06 -0.29699483D-06
  0.18615964D-09  0.13026497D-05 -0.61490975D-06  0.10190419D-09  0.45951736D-08
 -0.29949070D-07  0.85345242D-11 -0.18910825D-06 -0.63762811D-07  0.25287106D-06
  0.14437028D-06 -0.31101640D-10 -0.17005642D-09  0.50542830D-06 -0.13061720D-06
 -0.37481109D-06 -0.52524246D-06  0.16925208D-09 -0.13039377D-09  0.11595872D-06
 -0.71862649D-07 -0.44096068D-07 -0.16058520D-06 -0.94550794D-11 -0.62283243D-10
  0.66043237D-07  0.60395680D-07 -0.47127348D-10 -0.85633303D-07 -0.25324785D-06
  0.25307966D-09 -0.11249641D-06  0.72060810D-07 -0.11169761D-09 -0.30400170D-09
  0.94620624D-07  0.35413071D-07 -0.61946640D-11 -0.18801327D-06 -0.13054868D-06
  0.33173657D-10 -0.95848603D-07  0.24309470D-07 -0.14589665D-10 -0.62733755D-10
  0.50035464D-07  0.93488931D-07  0.16214484D-06  0.26563467D-06  0.41596280D-06
  0.62466520D-06  0.89095143D-06  0.11771273D-05  0.13575172D-05  0.12218090D-05
  0.68546523D-06  0.16571489D-06  0.78673213D-08 -0.13463352D-09  0.37866606D-10
 -0.14756556D-10  0.13958017D-11  0.13762899D-12  0.31151179D-07  0.57365381D-07
  0.99571890D-07  0.16308010D-06  0.25668058D-06  0.38742535D-06  0.56475330D-06
  0.77552493D-06  0.98490678D-06  0.10606821D-05  0.84619227D-06  0.18954032D-06
 -0.50682655D-06 -0.45070789D-06 -0.88025078D-07 -0.24384758D-08 -0.17658612D-09
 -0.36063718D-11 -0.45104776D-07 -0.81432497D-07 -0.14175847D-06 -0.23213548D-06
 -0.36597480D-06 -0.55224591D-06 -0.80825298D-06 -0.11136664D-05 -0.14347007D-05
 -0.15791543D-05 -0.13293919D-05 -0.31657578D-06  0.10663489D-05  0.14248657D-05
  0.17504767D-06 -0.61164033D-06 -0.26999942D-06  0.13399585D-08  0.20074175D-07
  0.43490477D-07  0.74036840D-07  0.12085428D-06  0.19053196D-06  0.28752343D-06
  0.42081494D-06  0.58048783D-06  0.74876862D-06  0.82777569D-06  0.70106463D-06
  0.17029326D-06 -0.59081727D-06 -0.83387083D-06 -0.99492274D-07  0.46759080D-06
  0.37377120D-06 -0.14160221D-06  0.70919915D-07  0.15038890D-06 -0.17355633D-06
 -0.16921121D-05 -0.24251890D-05 -0.32025551D-05 -0.36811757D-05 -0.33864515D-05
 -0.21664058D-05 -0.74987708D-06 -0.84304114D-07 -0.10725538D-08 -0.18585504D-09
 -0.18992363D-11  0.47299844D-06  0.67791646D-06  0.89521469D-06  0.10290042D-05
  0.94661950D-06  0.60557843D-06  0.20961418D-06  0.23565646D-07  0.29981246D-09