 Molden2AIM, Version 4.0.0 (06/02/2016)           Time: Thu Jun 28 00:16:48 2018
GAUSSIAN             12 MOL ORBITALS    462 PRIMITIVES        8 NUCLEI
  C    1    (CENTRE  1)  -3.33535527  2.04906972  0.04705229  CHARGE =  6.0
  C    2    (CENTRE  2)  -0.57659701  3.02058926 -0.09365105  CHARGE =  6.0
  H    3    (CENTRE  3)  -4.41856896  2.81690135  1.66580303  CHARGE =  1.0
  H    4    (CENTRE  4)  -3.49351401 -0.02979720  0.23778046  CHARGE =  1.0
  H    5    (CENTRE  5)  -4.48721704  2.51983262 -1.63660865  CHARGE =  1.0
  Li   6    (CENTRE  6)   1.62785544  2.28296868  2.75713309  CHARGE =  3.0
  Li   7    (CENTRE  7)  -0.07477457  6.64888799 -0.43376962  CHARGE =  3.0
  Li   8    (CENTRE  8)   1.47855762  1.78081743 -2.88695161  CHARGE =  3.0
CENTRE ASSIGNMENTS    1  1  1  1  1  1  1  1  1  1  1  1  1  1  1  1  1  1  1  1
CENTRE ASSIGNMENTS    1  1  1  1  1  1  1  1  1  1  1  1  1  1  1  1  1  1  1  1
CENTRE ASSIGNMENTS    1  1  1  1  1  1  1  1  1  1  1  1  1  1  1  1  1  1  1  1
CENTRE ASSIGNMENTS    1  1  1  1  1  1  1  1  1  1  1  1  1  1  1  2  2  2  2  2
CENTRE ASSIGNMENTS    2  2  2  2  2  2  2  2  2  2  2  2  2  2  2  2  2  2  2  2
CENTRE ASSIGNMENTS    2  2  2  2  2  2  2  2  2  2  2  2  2  2  2  2  2  2  2  2
CENTRE ASSIGNMENTS    2  2  2  2  2  2  2  2  2  2  2  2  2  2  2  2  2  2  2  2
CENTRE ASSIGNMENTS    2  2  2  2  2  2  2  2  2  2  3  3  3  3  3  3  3  3  3  3
CENTRE ASSIGNMENTS    3  3  3  3  3  3  3  3  3  3  3  3  3  3  3  3  3  4  4  4
CENTRE ASSIGNMENTS    4  4  4  4  4  4  4  4  4  4  4  4  4  4  4  4  4  4  4  4
CENTRE ASSIGNMENTS    4  4  4  4  5  5  5  5  5  5  5  5  5  5  5  5  5  5  5  5
CENTRE ASSIGNMENTS    5  5  5  5  5  5  5  5  5  5  5  6  6  6  6  6  6  6  6  6
CENTRE ASSIGNMENTS    6  6  6  6  6  6  6  6  6  6  6  6  6  6  6  6  6  6  6  6
CENTRE ASSIGNMENTS    6  6  6  6  6  6  6  6  6  6  6  6  6  6  6  6  6  6  6  6
CENTRE ASSIGNMENTS    6  6  6  6  6  6  6  6  6  6  6  6  6  6  6  6  6  6  6  6
CENTRE ASSIGNMENTS    6  6  6  6  6  6  6  6  7  7  7  7  7  7  7  7  7  7  7  7
CENTRE ASSIGNMENTS    7  7  7  7  7  7  7  7  7  7  7  7  7  7  7  7  7  7  7  7
CENTRE ASSIGNMENTS    7  7  7  7  7  7  7  7  7  7  7  7  7  7  7  7  7  7  7  7
CENTRE ASSIGNMENTS    7  7  7  7  7  7  7  7  7  7  7  7  7  7  7  7  7  7  7  7
CENTRE ASSIGNMENTS    7  7  7  7  7  8  8  8  8  8  8  8  8  8  8  8  8  8  8  8
CENTRE ASSIGNMENTS    8  8  8  8  8  8  8  8  8  8  8  8  8  8  8  8  8  8  8  8
CENTRE ASSIGNMENTS    8  8  8  8  8  8  8  8  8  8  8  8  8  8  8  8  8  8  8  8
CENTRE ASSIGNMENTS    8  8  8  8  8  8  8  8  8  8  8  8  8  8  8  8  8  8  8  8
CENTRE ASSIGNMENTS    8  8
TYPE ASSIGNMENTS      1  1  1  1  1  1  1  1  1  1  1  1  1  1  1  1  1  1  1  2
TYPE ASSIGNMENTS      2  2  3  3  3  4  4  4  2  3  4  2  3  4  2  3  4  5  6  7
TYPE ASSIGNMENTS      8  9 10  5  6  7  8  9 10  5  6  7  8  9 10 11 12 13 17 14
TYPE ASSIGNMENTS     15 18 19 16 20 11 12 13 17 14 15 18 19 16 20  1  1  1  1  1
TYPE ASSIGNMENTS      1  1  1  1  1  1  1  1  1  1  1  1  1  1  2  2  2  3  3  3
TYPE ASSIGNMENTS      4  4  4  2  3  4  2  3  4  2  3  4  5  6  7  8  9 10  5  6
TYPE ASSIGNMENTS      7  8  9 10  5  6  7  8  9 10 11 12 13 17 14 15 18 19 16 20
TYPE ASSIGNMENTS     11 12 13 17 14 15 18 19 16 20  1  1  1  1  1  1  2  3  4  2
TYPE ASSIGNMENTS      3  4  2  3  4  5  6  7  8  9 10  5  6  7  8  9 10  1  1  1
TYPE ASSIGNMENTS      1  1  1  2  3  4  2  3  4  2  3  4  5  6  7  8  9 10  5  6
TYPE ASSIGNMENTS      7  8  9 10  1  1  1  1  1  1  2  3  4  2  3  4  2  3  4  5
TYPE ASSIGNMENTS      6  7  8  9 10  5  6  7  8  9 10  1  1  1  1  1  1  1  1  1
TYPE ASSIGNMENTS      1  1  1  1  1  1  1  1  1  1  1  1  2  2  2  3  3  3  4  4
TYPE ASSIGNMENTS      4  2  3  4  2  3  4  2  3  4  5  6  7  8  9 10  5  6  7  8
TYPE ASSIGNMENTS      9 10  5  6  7  8  9 10 11 12 13 17 14 15 18 19 16 20 11 12
TYPE ASSIGNMENTS     13 17 14 15 18 19 16 20  1  1  1  1  1  1  1  1  1  1  1  1
TYPE ASSIGNMENTS      1  1  1  1  1  1  1  1  1  2  2  2  3  3  3  4  4  4  2  3
TYPE ASSIGNMENTS      4  2  3  4  2  3  4  5  6  7  8  9 10  5  6  7  8  9 10  5
TYPE ASSIGNMENTS      6  7  8  9 10 11 12 13 17 14 15 18 19 16 20 11 12 13 17 14
TYPE ASSIGNMENTS     15 18 19 16 20  1  1  1  1  1  1  1  1  1  1  1  1  1  1  1
TYPE ASSIGNMENTS      1  1  1  1  1  1  2  2  2  3  3  3  4  4  4  2  3  4  2  3
TYPE ASSIGNMENTS      4  2  3  4  5  6  7  8  9 10  5  6  7  8  9 10  5  6  7  8
TYPE ASSIGNMENTS      9 10 11 12 13 17 14 15 18 19 16 20 11 12 13 17 14 15 18 19
TYPE ASSIGNMENTS     16 20
EXPONENTS  0.8236000D+04 0.1235000D+04 0.2808000D+03 0.7927000D+02 0.2559000D+02
EXPONENTS  0.8997000D+01 0.3319000D+01 0.3643000D+00 0.8236000D+04 0.1235000D+04
EXPONENTS  0.2808000D+03 0.7927000D+02 0.2559000D+02 0.8997000D+01 0.3319000D+01
EXPONENTS  0.3643000D+00 0.9059000D+00 0.1285000D+00 0.4402000D-01 0.1871000D+02
EXPONENTS  0.4133000D+01 0.1200000D+01 0.1871000D+02 0.4133000D+01 0.1200000D+01
EXPONENTS  0.1871000D+02 0.4133000D+01 0.1200000D+01 0.3827000D+00 0.3827000D+00
EXPONENTS  0.3827000D+00 0.1209000D+00 0.1209000D+00 0.1209000D+00 0.3569000D-01
EXPONENTS  0.3569000D-01 0.3569000D-01 0.1097000D+01 0.1097000D+01 0.1097000D+01
EXPONENTS  0.1097000D+01 0.1097000D+01 0.1097000D+01 0.3180000D+00 0.3180000D+00
EXPONENTS  0.3180000D+00 0.3180000D+00 0.3180000D+00 0.3180000D+00 0.1000000D+00
EXPONENTS  0.1000000D+00 0.1000000D+00 0.1000000D+00 0.1000000D+00 0.1000000D+00
EXPONENTS  0.7610000D+00 0.7610000D+00 0.7610000D+00 0.7610000D+00 0.7610000D+00
EXPONENTS  0.7610000D+00 0.7610000D+00 0.7610000D+00 0.7610000D+00 0.7610000D+00
EXPONENTS  0.2680000D+00 0.2680000D+00 0.2680000D+00 0.2680000D+00 0.2680000D+00
EXPONENTS  0.2680000D+00 0.2680000D+00 0.2680000D+00 0.2680000D+00 0.2680000D+00
EXPONENTS  0.8236000D+04 0.1235000D+04 0.2808000D+03 0.7927000D+02 0.2559000D+02
EXPONENTS  0.8997000D+01 0.3319000D+01 0.3643000D+00 0.8236000D+04 0.1235000D+04
EXPONENTS  0.2808000D+03 0.7927000D+02 0.2559000D+02 0.8997000D+01 0.3319000D+01
EXPONENTS  0.3643000D+00 0.9059000D+00 0.1285000D+00 0.4402000D-01 0.1871000D+02
EXPONENTS  0.4133000D+01 0.1200000D+01 0.1871000D+02 0.4133000D+01 0.1200000D+01
EXPONENTS  0.1871000D+02 0.4133000D+01 0.1200000D+01 0.3827000D+00 0.3827000D+00
EXPONENTS  0.3827000D+00 0.1209000D+00 0.1209000D+00 0.1209000D+00 0.3569000D-01
EXPONENTS  0.3569000D-01 0.3569000D-01 0.1097000D+01 0.1097000D+01 0.1097000D+01
EXPONENTS  0.1097000D+01 0.1097000D+01 0.1097000D+01 0.3180000D+00 0.3180000D+00
EXPONENTS  0.3180000D+00 0.3180000D+00 0.3180000D+00 0.3180000D+00 0.1000000D+00
EXPONENTS  0.1000000D+00 0.1000000D+00 0.1000000D+00 0.1000000D+00 0.1000000D+00
EXPONENTS  0.7610000D+00 0.7610000D+00 0.7610000D+00 0.7610000D+00 0.7610000D+00
EXPONENTS  0.7610000D+00 0.7610000D+00 0.7610000D+00 0.7610000D+00 0.7610000D+00
EXPONENTS  0.2680000D+00 0.2680000D+00 0.2680000D+00 0.2680000D+00 0.2680000D+00
EXPONENTS  0.2680000D+00 0.2680000D+00 0.2680000D+00 0.2680000D+00 0.2680000D+00
EXPONENTS  0.3387000D+02 0.5095000D+01 0.1159000D+01 0.3258000D+00 0.1027000D+00
EXPONENTS  0.2526000D-01 0.1407000D+01 0.1407000D+01 0.1407000D+01 0.3880000D+00
EXPONENTS  0.3880000D+00 0.3880000D+00 0.1020000D+00 0.1020000D+00 0.1020000D+00
EXPONENTS  0.1057000D+01 0.1057000D+01 0.1057000D+01 0.1057000D+01 0.1057000D+01
EXPONENTS  0.1057000D+01 0.2470000D+00 0.2470000D+00 0.2470000D+00 0.2470000D+00
EXPONENTS  0.2470000D+00 0.2470000D+00 0.3387000D+02 0.5095000D+01 0.1159000D+01
EXPONENTS  0.3258000D+00 0.1027000D+00 0.2526000D-01 0.1407000D+01 0.1407000D+01
EXPONENTS  0.1407000D+01 0.3880000D+00 0.3880000D+00 0.3880000D+00 0.1020000D+00
EXPONENTS  0.1020000D+00 0.1020000D+00 0.1057000D+01 0.1057000D+01 0.1057000D+01
EXPONENTS  0.1057000D+01 0.1057000D+01 0.1057000D+01 0.2470000D+00 0.2470000D+00
EXPONENTS  0.2470000D+00 0.2470000D+00 0.2470000D+00 0.2470000D+00 0.3387000D+02
EXPONENTS  0.5095000D+01 0.1159000D+01 0.3258000D+00 0.1027000D+00 0.2526000D-01
EXPONENTS  0.1407000D+01 0.1407000D+01 0.1407000D+01 0.3880000D+00 0.3880000D+00
EXPONENTS  0.3880000D+00 0.1020000D+00 0.1020000D+00 0.1020000D+00 0.1057000D+01
EXPONENTS  0.1057000D+01 0.1057000D+01 0.1057000D+01 0.1057000D+01 0.1057000D+01
EXPONENTS  0.2470000D+00 0.2470000D+00 0.2470000D+00 0.2470000D+00 0.2470000D+00
EXPONENTS  0.2470000D+00 0.5988000D+04 0.8989000D+03 0.2059000D+03 0.5924000D+02
EXPONENTS  0.1987000D+02 0.7406000D+01 0.2930000D+01 0.1189000D+01 0.4798000D+00
EXPONENTS  0.5988000D+04 0.8989000D+03 0.2059000D+03 0.5924000D+02 0.1987000D+02
EXPONENTS  0.7406000D+01 0.2930000D+01 0.1189000D+01 0.4798000D+00 0.7509000D-01
EXPONENTS  0.2832000D-01 0.7600000D-02 0.3266000D+01 0.6511000D+00 0.1696000D+00
EXPONENTS  0.3266000D+01 0.6511000D+00 0.1696000D+00 0.3266000D+01 0.6511000D+00
EXPONENTS  0.1696000D+00 0.5578000D-01 0.5578000D-01 0.5578000D-01 0.2050000D-01
EXPONENTS  0.2050000D-01 0.2050000D-01 0.9100000D-02 0.9100000D-02 0.9100000D-02
EXPONENTS  0.1874000D+00 0.1874000D+00 0.1874000D+00 0.1874000D+00 0.1874000D+00
EXPONENTS  0.1874000D+00 0.8010000D-01 0.8010000D-01 0.8010000D-01 0.8010000D-01
EXPONENTS  0.8010000D-01 0.8010000D-01 0.3710000D-01 0.3710000D-01 0.3710000D-01
EXPONENTS  0.3710000D-01 0.3710000D-01 0.3710000D-01 0.1829000D+00 0.1829000D+00
EXPONENTS  0.1829000D+00 0.1829000D+00 0.1829000D+00 0.1829000D+00 0.1829000D+00
EXPONENTS  0.1829000D+00 0.1829000D+00 0.1829000D+00 0.8160000D-01 0.8160000D-01
EXPONENTS  0.8160000D-01 0.8160000D-01 0.8160000D-01 0.8160000D-01 0.8160000D-01
EXPONENTS  0.8160000D-01 0.8160000D-01 0.8160000D-01 0.5988000D+04 0.8989000D+03
EXPONENTS  0.2059000D+03 0.5924000D+02 0.1987000D+02 0.7406000D+01 0.2930000D+01
EXPONENTS  0.1189000D+01 0.4798000D+00 0.5988000D+04 0.8989000D+03 0.2059000D+03
EXPONENTS  0.5924000D+02 0.1987000D+02 0.7406000D+01 0.2930000D+01 0.1189000D+01
EXPONENTS  0.4798000D+00 0.7509000D-01 0.2832000D-01 0.7600000D-02 0.3266000D+01
EXPONENTS  0.6511000D+00 0.1696000D+00 0.3266000D+01 0.6511000D+00 0.1696000D+00
EXPONENTS  0.3266000D+01 0.6511000D+00 0.1696000D+00 0.5578000D-01 0.5578000D-01
EXPONENTS  0.5578000D-01 0.2050000D-01 0.2050000D-01 0.2050000D-01 0.9100000D-02
EXPONENTS  0.9100000D-02 0.9100000D-02 0.1874000D+00 0.1874000D+00 0.1874000D+00
EXPONENTS  0.1874000D+00 0.1874000D+00 0.1874000D+00 0.8010000D-01 0.8010000D-01
EXPONENTS  0.8010000D-01 0.8010000D-01 0.8010000D-01 0.8010000D-01 0.3710000D-01
EXPONENTS  0.3710000D-01 0.3710000D-01 0.3710000D-01 0.3710000D-01 0.3710000D-01
EXPONENTS  0.1829000D+00 0.1829000D+00 0.1829000D+00 0.1829000D+00 0.1829000D+00
EXPONENTS  0.1829000D+00 0.1829000D+00 0.1829000D+00 0.1829000D+00 0.1829000D+00
EXPONENTS  0.8160000D-01 0.8160000D-01 0.8160000D-01 0.8160000D-01 0.8160000D-01
EXPONENTS  0.8160000D-01 0.8160000D-01 0.8160000D-01 0.8160000D-01 0.8160000D-01
EXPONENTS  0.5988000D+04 0.8989000D+03 0.2059000D+03 0.5924000D+02 0.1987000D+02
EXPONENTS  0.7406000D+01 0.2930000D+01 0.1189000D+01 0.4798000D+00 0.5988000D+04
EXPONENTS  0.8989000D+03 0.2059000D+03 0.5924000D+02 0.1987000D+02 0.7406000D+01
EXPONENTS  0.2930000D+01 0.1189000D+01 0.4798000D+00 0.7509000D-01 0.2832000D-01
EXPONENTS  0.7600000D-02 0.3266000D+01 0.6511000D+00 0.1696000D+00 0.3266000D+01
EXPONENTS  0.6511000D+00 0.1696000D+00 0.3266000D+01 0.6511000D+00 0.1696000D+00
EXPONENTS  0.5578000D-01 0.5578000D-01 0.5578000D-01 0.2050000D-01 0.2050000D-01
EXPONENTS  0.2050000D-01 0.9100000D-02 0.9100000D-02 0.9100000D-02 0.1874000D+00
EXPONENTS  0.1874000D+00 0.1874000D+00 0.1874000D+00 0.1874000D+00 0.1874000D+00
EXPONENTS  0.8010000D-01 0.8010000D-01 0.8010000D-01 0.8010000D-01 0.8010000D-01
EXPONENTS  0.8010000D-01 0.3710000D-01 0.3710000D-01 0.3710000D-01 0.3710000D-01
EXPONENTS  0.3710000D-01 0.3710000D-01 0.1829000D+00 0.1829000D+00 0.1829000D+00
EXPONENTS  0.1829000D+00 0.1829000D+00 0.1829000D+00 0.1829000D+00 0.1829000D+00
EXPONENTS  0.1829000D+00 0.1829000D+00 0.8160000D-01 0.8160000D-01 0.8160000D-01
EXPONENTS  0.8160000D-01 0.8160000D-01 0.8160000D-01 0.8160000D-01 0.8160000D-01
EXPONENTS  0.8160000D-01 0.8160000D-01
MO    1     MO 0.0        OCC NO =    2.0000000  ORB. ENERGY =  -11.152361
  0.32733634D+00  0.61022937D+00  0.10313951D+01  0.15505247D+01  0.19049988D+01
  0.16090760D+01  0.60688427D+00 -0.30035041D-02 -0.37727492D-03 -0.70637769D-03
 -0.12026685D-02 -0.18603452D-02 -0.24500092D-02 -0.25457165D-02 -0.16176886D-02
  0.10841373D-02  0.27493334D-01 -0.41079535D-03  0.29578158D-03 -0.45012620D-03
 -0.42202192D-03 -0.30050475D-03 -0.16017493D-03 -0.15017418D-03 -0.10693296D-03
  0.20330175D-04  0.19060831D-04  0.13572447D-04 -0.30155532D-03 -0.10570892D-03
  0.16108470D-04 -0.17944195D-03 -0.65240623D-04  0.59835337D-05 -0.74649908D-06
 -0.53984308D-06 -0.39290520D-06 -0.15318220D-03  0.62056841D-04  0.91125354D-04
 -0.17086506D-03  0.27411635D-04  0.98130048D-05 -0.10981936D-03  0.44649482D-04
  0.65169878D-04 -0.12334976D-03  0.19714866D-04  0.49851353D-05  0.14869046D-05
 -0.65522903D-06 -0.83167560D-06  0.77612046D-06 -0.11242088D-05 -0.10990959D-05
  0.35766023D-03 -0.54258311D-03 -0.59633222D-04  0.49149220D-04  0.73022276D-03
 -0.13407013D-03 -0.11221299D-02  0.89752659D-03  0.31296980D-03 -0.20214328D-03
 -0.70877288D-04  0.81680605D-04  0.40743499D-05  0.20679927D-04 -0.15824719D-03
  0.26617497D-04  0.19195194D-03 -0.86794621D-04 -0.38840546D-04  0.33403298D-04
  0.21294859D-02  0.39698459D-02  0.67097390D-02  0.10086936D-01  0.12392966D-01
  0.10467841D-01  0.39480844D-02 -0.19539290D-04 -0.77535563D-04 -0.14517104D-03
 -0.24716611D-03 -0.38232839D-03 -0.50351305D-03 -0.52318231D-03 -0.33245887D-03
  0.22280620D-03  0.31994719D-03  0.10363152D-02 -0.57304330D-03 -0.42740191D-03
 -0.40071646D-03 -0.28533399D-03 -0.15120514D-03 -0.14176443D-03 -0.10094472D-03
  0.20741982D-04  0.19446927D-04  0.13847370D-04 -0.37021909D-03 -0.12991479D-03
  0.19593176D-04 -0.34890316D-03 -0.12262010D-03  0.18239003D-04  0.53500054D-04
  0.19186411D-04 -0.21996857D-05  0.66091640D-04 -0.26812335D-04 -0.39279304D-04
  0.73808702D-04 -0.11990101D-04 -0.39231407D-05  0.19887804D-04 -0.77382537D-05
 -0.12149550D-04  0.23393346D-04 -0.16322544D-05 -0.10897407D-05  0.39687006D-04
 -0.16270118D-04 -0.23416888D-04  0.44497603D-04 -0.76045965D-05 -0.12895406D-05
  0.10775240D-03 -0.51035010D-04  0.15734550D-04 -0.11750597D-03  0.27948510D-03
 -0.40388309D-04 -0.20575122D-03 -0.12638007D-03 -0.68153407D-05 -0.30787639D-04
  0.19585679D-06 -0.40525050D-05 -0.13183440D-05  0.47851025D-05 -0.18144901D-05
  0.60808489D-06 -0.53726729D-05  0.13972005D-04  0.33469471D-05 -0.24039220D-05
  0.45609559D-04  0.82258717D-04  0.12129043D-03  0.40304594D-03 -0.12271348D-03
 -0.10225388D-04 -0.31240299D-03  0.20754863D-03  0.44780286D-03 -0.16443038D-03
  0.44690710D-04  0.14807922D-03 -0.23357201D-04  0.40861309D-04  0.68062003D-04
 -0.25708768D-04  0.20572990D-03 -0.18002113D-03  0.31249300D-03  0.75972299D-03
 -0.39518781D-03 -0.69987684D-05  0.26124637D-04 -0.19125869D-04  0.18412018D-04
  0.81429618D-04 -0.64094677D-04  0.45881823D-04  0.82749757D-04  0.12201447D-03
  0.39800086D-03 -0.12305329D-03 -0.10962412D-04 -0.57264768D-04 -0.58003227D-03
  0.53029640D-04 -0.82130534D-04 -0.21076153D-03  0.20913485D-04  0.15631778D-04
 -0.80811082D-04  0.58193672D-05  0.25346944D-03 -0.53701466D-03  0.28354522D-03
 -0.30679611D-03  0.28922749D-04  0.15565478D-03  0.16560422D-04 -0.61604184D-04
  0.45043762D-04 -0.24868156D-04  0.33084393D-05  0.19626353D-04  0.45899542D-04
  0.82781715D-04  0.12206159D-03  0.39756810D-03 -0.12288549D-03 -0.11014378D-04
 -0.33213555D-03  0.12507651D-03 -0.46546483D-03 -0.17163140D-03  0.18781763D-04
 -0.14778096D-03 -0.26466017D-04  0.27176334D-04 -0.73233463D-04 -0.59019209D-04
  0.26278098D-03 -0.20376177D-03  0.18317559D-03 -0.81899257D-03  0.23042080D-03
 -0.10145687D-04  0.35752393D-04 -0.25606706D-04  0.57948940D-05 -0.84481846D-04
  0.44291203D-04 -0.16591814D-04 -0.30838148D-04 -0.52516836D-04 -0.81901274D-04
 -0.11442074D-03 -0.13639163D-03 -0.12929882D-03 -0.82117818D-04 -0.20165721D-04
  0.12735188D-04  0.23546922D-04  0.39708259D-04  0.63271520D-04  0.88195737D-04
  0.11237572D-03  0.11160068D-03  0.10066645D-03  0.57619594D-04  0.15944017D-03
  0.89468458D-05  0.17071621D-06 -0.89817447D-05 -0.65906798D-05 -0.54120215D-05
  0.26847790D-05  0.19700536D-05  0.16177349D-05 -0.99135707D-05 -0.72744407D-05
 -0.59735006D-05 -0.23552208D-04 -0.10291478D-04  0.38470989D-05 -0.13144173D-05
 -0.93323478D-06  0.92752245D-06 -0.45751439D-07  0.10607713D-06 -0.22514256D-06
 -0.10680180D-04  0.63885563D-05  0.42916233D-05 -0.51623708D-05 -0.12001521D-04
 -0.22879010D-05  0.11947096D-06  0.31115508D-05 -0.32310218D-05  0.57969009D-06
 -0.63955424D-05  0.62632970D-05  0.36553008D-06 -0.28226024D-07 -0.33730405D-06
  0.39617865D-06 -0.23126121D-06  0.26284242D-06  0.30144320D-05 -0.11033564D-05
 -0.16771504D-05 -0.49769462D-05  0.30998603D-05  0.63614821D-05 -0.40663499D-05
  0.21020890D-06 -0.13300311D-05  0.36446477D-05 -0.15182590D-06  0.24434300D-06
 -0.10593054D-06 -0.10417604D-05  0.26142154D-07  0.13105532D-05  0.14972381D-05
 -0.75917117D-06 -0.99276158D-06 -0.11877812D-05 -0.16588390D-04 -0.30831784D-04
 -0.52505997D-04 -0.81884370D-04 -0.11439713D-03 -0.13636348D-03 -0.12927213D-03
 -0.82100870D-04 -0.20161559D-04  0.12732450D-04  0.23541859D-04  0.39699722D-04
  0.63257916D-04  0.88176774D-04  0.11235155D-03  0.11157669D-03  0.10064481D-03
  0.57607206D-04  0.15914778D-03  0.87939571D-05  0.20605443D-06 -0.27064795D-05
 -0.19859771D-05 -0.16308107D-05 -0.13276667D-04 -0.97422341D-05 -0.79999609D-05
  0.13740626D-05  0.10082681D-05  0.82795230D-06 -0.25171677D-04 -0.54750437D-05
  0.78755505D-06 -0.18065161D-05  0.38603743D-06 -0.11420929D-07  0.86793143D-07
 -0.23886083D-06  0.26326864D-07 -0.36246506D-05 -0.27591888D-05  0.63838394D-05
 -0.19772225D-04  0.25330586D-05  0.18832402D-05  0.13843985D-05 -0.59421852D-05
  0.45577867D-05  0.76439312D-06  0.10893629D-06  0.20739131D-05  0.37603499D-06
 -0.35065089D-06 -0.25384092D-07  0.48553896D-06 -0.31581393D-07  0.62157920D-07
 -0.47642066D-06 -0.15848771D-05  0.37943588D-06  0.58668574D-05  0.79343218D-05
 -0.91761442D-06 -0.44375954D-05 -0.31796904D-05 -0.22069322D-06 -0.24825735D-05
 -0.20634154D-06  0.82743257D-06  0.17855682D-06  0.10733056D-05 -0.74990947D-06
  0.71826228D-07 -0.45428094D-06 -0.17323882D-05 -0.60749670D-06 -0.32105218D-06
 -0.16530906D-04 -0.30724942D-04 -0.52324048D-04 -0.81600616D-04 -0.11400071D-03
 -0.13589094D-03 -0.12882416D-03 -0.81816366D-04 -0.20091693D-04  0.12688220D-04
  0.23460079D-04  0.39561812D-04  0.63038170D-04  0.87870464D-04  0.11196126D-03
  0.11118909D-03  0.10029518D-03  0.57407089D-04  0.15507625D-03  0.67564452D-05
  0.72340481D-06 -0.71278076D-05 -0.52302864D-05 -0.42949170D-05  0.44802215D-05
  0.32875245D-05  0.26995930D-05  0.10298450D-04  0.75568601D-05  0.62054129D-05
 -0.20653692D-04 -0.94952686D-05 -0.23788686D-05 -0.10659238D-05 -0.10128181D-05
 -0.83626438D-06 -0.64529680D-07  0.15101571D-06  0.24122022D-06 -0.10646383D-04
  0.64828697D-05  0.41635134D-05 -0.28908570D-05  0.13975698D-04  0.20042611D-05
  0.66036099D-07  0.22512396D-05 -0.23172757D-05  0.11076341D-05  0.67059207D-05
 -0.77018095D-05  0.30972482D-06 -0.14961428D-07 -0.29476340D-06  0.43549487D-06
  0.28270522D-06 -0.33839469D-06  0.27723599D-05 -0.88673129D-06  0.18740920D-05
 -0.54915693D-05  0.17733350D-05 -0.77721422D-05 -0.28255103D-05  0.88685883D-06
  0.21498663D-05 -0.33919791D-05 -0.20122828D-06  0.38765792D-06  0.19262615D-06
 -0.83115763D-06 -0.15222594D-06 -0.12114387D-05  0.14348425D-05 -0.10107478D-05
  0.63356024D-06  0.18878451D-05
MO    2     MO 0.0        OCC NO =    2.0000000  ORB. ENERGY =  -11.109565
 -0.20048684D-02 -0.37375306D-02 -0.63170851D-02 -0.94966482D-02 -0.11667730D-01
 -0.98552628D-02 -0.37170425D-02  0.18395851D-04 -0.68078057D-04 -0.12746360D-03
 -0.21701769D-03 -0.33569337D-03 -0.44209636D-03 -0.45936643D-03 -0.29190675D-03
  0.19562911D-03 -0.15904924D-03  0.27518161D-02 -0.69008448D-03  0.26932792D-03
  0.25251204D-03  0.17980362D-03  0.94405768D-04  0.88511409D-04  0.63025396D-04
 -0.14389494D-04 -0.13491066D-04 -0.96064425D-05  0.87210073D-03  0.30768258D-03
 -0.43636646D-04  0.82245227D-03  0.29174506D-03 -0.38769661D-04 -0.12793410D-04
 -0.44941043D-05  0.67048515D-06  0.41776506D-03 -0.16798906D-03 -0.24977600D-03
  0.47159007D-03 -0.67055573D-04 -0.24797181D-04 -0.27589543D-03  0.11018697D-03
  0.16570846D-03 -0.31271583D-03  0.40990037D-04  0.18168791D-04  0.23459743D-04
 -0.95471301D-05 -0.13912613D-04  0.26620636D-04 -0.40095207D-05 -0.67641893D-06
 -0.79747307D-04  0.28889612D-04 -0.13840444D-04  0.97200622D-04 -0.21306374D-03
  0.28588816D-04  0.14204130D-03  0.12639490D-03  0.12932516D-04  0.18922054D-04
 -0.43468313D-04 -0.28918027D-04 -0.20993226D-04  0.10542492D-03 -0.13948268D-03
  0.15429509D-04  0.24980014D-04  0.22623676D-03  0.47550169D-04 -0.10135615D-05
  0.32703731D+00  0.60967190D+00  0.10304529D+01  0.15491083D+01  0.19032585D+01
  0.16076061D+01  0.60632986D+00 -0.30007603D-02 -0.54814986D-04 -0.10263095D-03
 -0.17473797D-03 -0.27029307D-03 -0.35596647D-03 -0.36987196D-03 -0.23503703D-03
  0.15751635D-03  0.27095464D-01 -0.11841989D-02  0.77497806D-03 -0.21247014D-02
 -0.19920426D-02 -0.14184530D-02 -0.76983985D-03 -0.72177379D-03 -0.51394594D-03
  0.75385571D-04  0.70678765D-04  0.50327491D-04 -0.15591785D-03 -0.49693324D-04
  0.15923117D-04  0.11390704D-02  0.39943934D-03 -0.60676622D-04 -0.12154383D-03
 -0.42366772D-04  0.68757545D-05  0.53534121D-03 -0.21438766D-03 -0.32095355D-03
  0.60680441D-03 -0.81384611D-04 -0.32374858D-04 -0.16504783D-03  0.66147597D-04
  0.98900232D-04 -0.18756738D-03  0.24849716D-04  0.90899390D-05 -0.10660425D-03
  0.42976179D-04  0.63628071D-04 -0.11994000D-03  0.17760177D-04  0.63680431D-05
 -0.53942994D-04  0.37106518D-04 -0.44068291D-05  0.45219956D-04 -0.13394707D-03
  0.20135608D-04  0.11660903D-03  0.22627511D-04 -0.69151209D-05  0.18289720D-04
  0.33435738D-04 -0.22783694D-04  0.26909534D-05 -0.28135130D-04  0.83921118D-04
 -0.11733546D-04 -0.72172084D-04 -0.15570036D-04  0.36606856D-05 -0.10420766D-04
  0.22716027D-05  0.40969291D-05  0.60409196D-05 -0.34651685D-03  0.14343371D-03
  0.37656876D-05  0.54032383D-04  0.26200177D-04  0.66974249D-05 -0.39648250D-03
 -0.21859430D-03 -0.86363553D-04 -0.57294286D-04 -0.30798049D-04 -0.11118652D-04
 -0.26464442D-03  0.11240224D-03  0.15224217D-03 -0.11782329D-03  0.18248624D-03
  0.20909858D-03 -0.64721596D-04  0.27294829D-04  0.37426767D-04 -0.68636161D-04
  0.17031502D-04  0.41568260D-05  0.25927709D-05  0.46761690D-05  0.68950085D-05
 -0.33542477D-03  0.14982639D-03  0.41203004D-05  0.61425777D-04  0.11213443D-04
 -0.21861555D-05 -0.45946122D-03 -0.19970481D-04  0.11547118D-04 -0.66303998D-04
 -0.41443473D-05  0.21332443D-05 -0.14134629D-03  0.82803779D-04  0.58542511D-04
 -0.48904982D-03  0.51859603D-04  0.63874162D-05 -0.62223159D-04  0.22845291D-04
  0.39377869D-04 -0.77494345D-04  0.11047598D-04  0.47424338D-05  0.26102438D-05
  0.47076822D-05  0.69414746D-05 -0.33478766D-03  0.15006074D-03  0.41419294D-05
  0.56548391D-04  0.24081655D-04 -0.11899791D-04 -0.39021718D-03 -0.19730348D-03
  0.14284639D-03 -0.57171584D-04 -0.27638559D-04  0.19808251D-04 -0.27116083D-03
  0.77673551D-04  0.19348728D-03 -0.15400175D-03 -0.12129366D-03 -0.17319251D-03
 -0.65733946D-04  0.27511347D-04  0.38222599D-04 -0.70395606D-04  0.41146207D-05
  0.30785255D-05  0.15095108D-04  0.28056316D-04  0.47779424D-04  0.74513166D-04
  0.10409913D-03  0.12408808D-03  0.11763509D-03  0.74710176D-04  0.18346622D-04
 -0.15540083D-04 -0.28733074D-04 -0.48453906D-04 -0.77206918D-04 -0.10762063D-03
 -0.13712619D-03 -0.13618046D-03 -0.12283799D-03 -0.70310169D-04 -0.14204518D-03
 -0.35868053D-04 -0.95225316D-06 -0.45436958D-04 -0.33341010D-04 -0.27378399D-04
  0.60849615D-05  0.44650604D-05  0.36665418D-05 -0.40933107D-04 -0.30036147D-04
 -0.24664568D-04  0.70956667D-04 -0.11558500D-05  0.46496333D-04  0.43300192D-05
  0.34250996D-06  0.20553677D-05 -0.11790996D-06 -0.10978916D-06  0.14759186D-06
  0.16292628D-04 -0.28165805D-04  0.11873178D-04 -0.17118152D-04  0.89832939D-04
 -0.11717661D-04  0.70033682D-06  0.45783338D-05 -0.52786707D-05  0.12558205D-04
 -0.26191487D-04 -0.70124569D-06 -0.37341360D-06  0.90740805D-06 -0.53399445D-06
  0.69197319D-06 -0.29922552D-05  0.51706248D-06  0.25576821D-05 -0.72398055D-06
  0.21083858D-05  0.10810323D-04  0.26211733D-05 -0.17881249D-04 -0.18483369D-04
 -0.44923167D-06  0.11556091D-04  0.15895880D-04 -0.11468146D-05  0.22425176D-06
 -0.95373043D-07 -0.36297923D-06 -0.16397883D-05  0.17075508D-05  0.38034231D-05
  0.96703302D-06 -0.14214317D-05 -0.31653297D-05  0.15110325D-04  0.28084599D-04
  0.47827589D-04  0.74588281D-04  0.10420407D-03  0.12421317D-03  0.11775368D-03
  0.74785490D-04  0.18365116D-04 -0.15551762D-04 -0.28754669D-04 -0.48490322D-04
 -0.77264943D-04 -0.10770152D-03 -0.13722925D-03 -0.13628281D-03 -0.12293031D-03
 -0.70363011D-04 -0.14224296D-03 -0.36009878D-04 -0.94074508D-06 -0.20521969D-04
 -0.15058736D-04 -0.12365675D-04 -0.57575625D-04 -0.42248196D-04 -0.34692650D-04
  0.58344137D-05  0.42812119D-05  0.35155722D-05  0.41783779D-04  0.73444056D-04
 -0.80447026D-05  0.30060593D-05  0.37285703D-05 -0.41664940D-06 -0.19642024D-06
  0.92976241D-07 -0.75081479D-09 -0.23279851D-04  0.50817619D-04 -0.27537769D-04
  0.53433900D-04 -0.53299861D-05 -0.15737079D-04  0.12986774D-04 -0.15153409D-04
  0.21666345D-05 -0.11193490D-04  0.68036753D-06  0.35770792D-05  0.89493735D-06
 -0.17952357D-05  0.90029838D-06 -0.14968644D-05  0.14519608D-06  0.53145659D-06
  0.33913674D-05 -0.88181941D-05 -0.14531095D-05 -0.18518884D-04  0.13152177D-04
 -0.99816980D-06  0.83447816D-05  0.13302405D-04  0.53574984D-05  0.51262584D-05
 -0.64966837D-06  0.15818908D-05  0.76856642D-07  0.22849129D-05 -0.41546536D-05
  0.38308868D-06 -0.33590775D-06 -0.59101870D-06 -0.61365860D-06 -0.38084514D-06
  0.15407424D-04  0.28636798D-04  0.48767975D-04  0.76054835D-04  0.10625293D-03
  0.12665545D-03  0.12006895D-03  0.76255921D-04  0.18726211D-04 -0.15777163D-04
 -0.29171428D-04 -0.49193123D-04 -0.78384793D-04 -0.10926250D-03 -0.13921820D-03
 -0.13825804D-03 -0.12471202D-03 -0.71382827D-04 -0.14550611D-03 -0.38436259D-04
 -0.74830252D-06 -0.41999895D-04 -0.30818941D-04 -0.25307370D-04  0.13729502D-04
  0.10074518D-04  0.82728203D-05  0.41022674D-04  0.30101870D-04  0.24718538D-04
  0.67649351D-04 -0.11169015D-04 -0.51365581D-04  0.41936082D-05 -0.15422152D-06
 -0.24472480D-05 -0.11921099D-06 -0.12119836D-06 -0.10225394D-06  0.10942418D-04
 -0.24371979D-04  0.13429561D-04 -0.31544040D-04 -0.85314150D-04  0.28263939D-04
  0.24673578D-05  0.41975803D-05 -0.66649380D-05  0.16761645D-04  0.23197837D-04
 -0.45430599D-05 -0.17080468D-06  0.75839320D-06 -0.58758852D-06  0.11887698D-05
  0.28171553D-05 -0.11407359D-05  0.34866253D-05 -0.27731004D-05 -0.14572818D-05
  0.64383913D-05  0.41912008D-05  0.14647257D-04 -0.16898267D-04  0.41281004D-05
 -0.10275412D-04 -0.25742709D-04 -0.12559803D-05  0.49791351D-06 -0.19240916D-06
  0.42866296D-06 -0.15755213D-05 -0.82217337D-06  0.33392778D-05  0.81780740D-07
  0.13994008D-05  0.47066136D-05
MO    3     MO 0.0        OCC NO =    2.0000000  ORB. ENERGY =   -2.371590
  0.31480713D-04  0.58687207D-04  0.99191719D-04  0.14911764D-03  0.18320826D-03
  0.15474866D-03  0.58365501D-04 -0.28885412D-06 -0.52398742D-04 -0.98106977D-04
 -0.16703552D-03 -0.25837856D-03 -0.34027547D-03 -0.35356801D-03 -0.22467660D-03
  0.15057303D-03  0.23201094D-03  0.33541651D-02 -0.73773649D-02  0.79143056D-03
  0.74201646D-03  0.52835992D-03  0.26757160D-03  0.25086538D-03  0.17863109D-03
 -0.56197549D-04 -0.52688775D-04 -0.37517546D-04 -0.13714893D-02 -0.50048505D-03
  0.44084163D-04  0.22820281D-02  0.10926674D-02  0.29238387D-03 -0.32794628D-03
 -0.11610748D-03  0.16135973D-04  0.17076702D-03 -0.57382588D-04 -0.11338444D-03
  0.19897664D-03  0.96482373D-05 -0.52062256D-04 -0.84105056D-03  0.29549264D-03
  0.54555792D-03 -0.10520562D-02 -0.59315660D-04  0.10512170D-03  0.49673496D-05
 -0.52668054D-05  0.29945572D-06  0.24294768D-04  0.29359857D-05  0.38256902D-04
  0.15104959D-04 -0.88210158D-04 -0.11315376D-04  0.74649114D-04 -0.65718496D-04
 -0.45143314D-04 -0.11996399D-03  0.33034897D-03  0.79089442D-04 -0.97347917D-04
 -0.10230978D-03  0.16925204D-04 -0.25391119D-04  0.16451282D-03 -0.29876278D-03
  0.64490006D-04  0.14241651D-03  0.24798716D-03  0.11683351D-04 -0.38301026D-04
 -0.76423696D-03 -0.14247115D-02 -0.24080133D-02 -0.36200328D-02 -0.44476286D-02
 -0.37567333D-02 -0.14169016D-02  0.70123251D-05 -0.72740571D-04 -0.13619330D-03
 -0.23188075D-03 -0.35868425D-03 -0.47237454D-03 -0.49082741D-03 -0.31189878D-03
  0.20902731D-03 -0.73966530D-03  0.12936123D-01  0.17342997D-01  0.22585900D-02
  0.21175717D-02  0.15078372D-02  0.51266649D-03  0.48065743D-03  0.34225672D-03
 -0.52020099D-03 -0.48772149D-03 -0.34728676D-03 -0.48027408D-03 -0.31856736D-03
 -0.18935184D-03  0.55584166D-02  0.12203260D-02 -0.13381032D-02 -0.11196587D-02
 -0.43027942D-03  0.54446153D-05  0.13650034D-03 -0.11844104D-04 -0.12465624D-03
  0.21963811D-03  0.14645461D-03 -0.10994822D-03  0.16691881D-03 -0.17461967D-03
  0.77008508D-05  0.48351538D-06 -0.46415597D-03  0.21363059D-03 -0.47877813D-03
  0.14567285D-03  0.33310528D-03 -0.60777185D-03 -0.10312586D-03  0.14337293D-03
 -0.20391403D-03  0.21369190D-03 -0.63071813D-05  0.75828310D-04 -0.38256663D-03
  0.99341471D-04  0.53591378D-03 -0.25850906D-03 -0.80419927D-04  0.21838513D-03
 -0.16866273D-03  0.19141174D-03  0.85281834D-05  0.35749223D-04 -0.35447808D-03
  0.39787759D-04  0.47023896D-03 -0.21975715D-03 -0.65372309D-04  0.14620298D-03
 -0.16820481D-04 -0.30336431D-04 -0.44731050D-04 -0.60277800D-03  0.48602133D-03
 -0.74765878D-04  0.35595374D-04  0.11967771D-03  0.14500050D-03 -0.68002608D-03
 -0.15503003D-03  0.14740094D-03 -0.23368035D-03 -0.17258634D-03 -0.11150409D-03
 -0.12613098D-03  0.96298964D-04  0.29832019D-04  0.56636973D-05  0.24317493D-03