 Molden2AIM, Version 4.0.0 (06/02/2016)           Time: Wed Jun 27 23:31:15 2018
GAUSSIAN              6 MOL ORBITALS    233 PRIMITIVES        5 NUCLEI
  C    1    (CENTRE  1)   0.00000000 -0.00002646 -2.10463523  CHARGE =  6.0
  Li   2    (CENTRE  2)   0.00000000  0.00003779  1.63368335  CHARGE =  3.0
  H    3    (CENTRE  3)   0.00000000  1.92475787 -2.92213642  CHARGE =  1.0
  H    4    (CENTRE  4)   1.66689340 -0.96238460 -2.92221012  CHARGE =  1.0
  H    5    (CENTRE  5)  -1.66689340 -0.96238460 -2.92221012  CHARGE =  1.0
CENTRE ASSIGNMENTS    1  1  1  1  1  1  1  1  1  1  1  1  1  1  1  1  1  1  1  1
CENTRE ASSIGNMENTS    1  1  1  1  1  1  1  1  1  1  1  1  1  1  1  1  1  1  1  1
CENTRE ASSIGNMENTS    1  1  1  1  1  1  1  1  1  1  1  1  1  1  1  1  1  1  1  1
CENTRE ASSIGNMENTS    1  1  1  1  1  1  1  1  1  1  1  1  1  1  1  2  2  2  2  2
CENTRE ASSIGNMENTS    2  2  2  2  2  2  2  2  2  2  2  2  2  2  2  2  2  2  2  2
CENTRE ASSIGNMENTS    2  2  2  2  2  2  2  2  2  2  2  2  2  2  2  2  2  2  2  2
CENTRE ASSIGNMENTS    2  2  2  2  2  2  2  2  2  2  2  2  2  2  2  2  2  2  2  2
CENTRE ASSIGNMENTS    2  2  2  2  2  2  2  2  2  2  2  2  3  3  3  3  3  3  3  3
CENTRE ASSIGNMENTS    3  3  3  3  3  3  3  3  3  3  3  3  3  3  3  3  3  3  3  4
CENTRE ASSIGNMENTS    4  4  4  4  4  4  4  4  4  4  4  4  4  4  4  4  4  4  4  4
CENTRE ASSIGNMENTS    4  4  4  4  4  4  5  5  5  5  5  5  5  5  5  5  5  5  5  5
CENTRE ASSIGNMENTS    5  5  5  5  5  5  5  5  5  5  5  5  5
TYPE ASSIGNMENTS      1  1  1  1  1  1  1  1  1  1  1  1  1  1  1  1  1  1  1  2
TYPE ASSIGNMENTS      2  2  3  3  3  4  4  4  2  3  4  2  3  4  2  3  4  5  6  7
TYPE ASSIGNMENTS      8  9 10  5  6  7  8  9 10  5  6  7  8  9 10 11 12 13 17 14
TYPE ASSIGNMENTS     15 18 19 16 20 11 12 13 17 14 15 18 19 16 20  1  1  1  1  1
TYPE ASSIGNMENTS      1  1  1  1  1  1  1  1  1  1  1  1  1  1  1  1  2  2  2  3
TYPE ASSIGNMENTS      3  3  4  4  4  2  3  4  2  3  4  2  3  4  5  6  7  8  9 10
TYPE ASSIGNMENTS      5  6  7  8  9 10  5  6  7  8  9 10 11 12 13 17 14 15 18 19
TYPE ASSIGNMENTS     16 20 11 12 13 17 14 15 18 19 16 20  1  1  1  1  1  1  2  3
TYPE ASSIGNMENTS      4  2  3  4  2  3  4  5  6  7  8  9 10  5  6  7  8  9 10  1
TYPE ASSIGNMENTS      1  1  1  1  1  2  3  4  2  3  4  2  3  4  5  6  7  8  9 10
TYPE ASSIGNMENTS      5  6  7  8  9 10  1  1  1  1  1  1  2  3  4  2  3  4  2  3
TYPE ASSIGNMENTS      4  5  6  7  8  9 10  5  6  7  8  9 10
EXPONENTS  0.8236000D+04 0.1235000D+04 0.2808000D+03 0.7927000D+02 0.2559000D+02
EXPONENTS  0.8997000D+01 0.3319000D+01 0.3643000D+00 0.8236000D+04 0.1235000D+04
EXPONENTS  0.2808000D+03 0.7927000D+02 0.2559000D+02 0.8997000D+01 0.3319000D+01
EXPONENTS  0.3643000D+00 0.9059000D+00 0.1285000D+00 0.4402000D-01 0.1871000D+02
EXPONENTS  0.4133000D+01 0.1200000D+01 0.1871000D+02 0.4133000D+01 0.1200000D+01
EXPONENTS  0.1871000D+02 0.4133000D+01 0.1200000D+01 0.3827000D+00 0.3827000D+00
EXPONENTS  0.3827000D+00 0.1209000D+00 0.1209000D+00 0.1209000D+00 0.3569000D-01
EXPONENTS  0.3569000D-01 0.3569000D-01 0.1097000D+01 0.1097000D+01 0.1097000D+01
EXPONENTS  0.1097000D+01 0.1097000D+01 0.1097000D+01 0.3180000D+00 0.3180000D+00
EXPONENTS  0.3180000D+00 0.3180000D+00 0.3180000D+00 0.3180000D+00 0.1000000D+00
EXPONENTS  0.1000000D+00 0.1000000D+00 0.1000000D+00 0.1000000D+00 0.1000000D+00
EXPONENTS  0.7610000D+00 0.7610000D+00 0.7610000D+00 0.7610000D+00 0.7610000D+00
EXPONENTS  0.7610000D+00 0.7610000D+00 0.7610000D+00 0.7610000D+00 0.7610000D+00
EXPONENTS  0.2680000D+00 0.2680000D+00 0.2680000D+00 0.2680000D+00 0.2680000D+00
EXPONENTS  0.2680000D+00 0.2680000D+00 0.2680000D+00 0.2680000D+00 0.2680000D+00
EXPONENTS  0.5988000D+04 0.8989000D+03 0.2059000D+03 0.5924000D+02 0.1987000D+02
EXPONENTS  0.7406000D+01 0.2930000D+01 0.1189000D+01 0.4798000D+00 0.5988000D+04
EXPONENTS  0.8989000D+03 0.2059000D+03 0.5924000D+02 0.1987000D+02 0.7406000D+01
EXPONENTS  0.2930000D+01 0.1189000D+01 0.4798000D+00 0.7509000D-01 0.2832000D-01
EXPONENTS  0.7600000D-02 0.3266000D+01 0.6511000D+00 0.1696000D+00 0.3266000D+01
EXPONENTS  0.6511000D+00 0.1696000D+00 0.3266000D+01 0.6511000D+00 0.1696000D+00
EXPONENTS  0.5578000D-01 0.5578000D-01 0.5578000D-01 0.2050000D-01 0.2050000D-01
EXPONENTS  0.2050000D-01 0.9100000D-02 0.9100000D-02 0.9100000D-02 0.1874000D+00
EXPONENTS  0.1874000D+00 0.1874000D+00 0.1874000D+00 0.1874000D+00 0.1874000D+00
EXPONENTS  0.8010000D-01 0.8010000D-01 0.8010000D-01 0.8010000D-01 0.8010000D-01
EXPONENTS  0.8010000D-01 0.3710000D-01 0.3710000D-01 0.3710000D-01 0.3710000D-01
EXPONENTS  0.3710000D-01 0.3710000D-01 0.1829000D+00 0.1829000D+00 0.1829000D+00
EXPONENTS  0.1829000D+00 0.1829000D+00 0.1829000D+00 0.1829000D+00 0.1829000D+00
EXPONENTS  0.1829000D+00 0.1829000D+00 0.8160000D-01 0.8160000D-01 0.8160000D-01
EXPONENTS  0.8160000D-01 0.8160000D-01 0.8160000D-01 0.8160000D-01 0.8160000D-01
EXPONENTS  0.8160000D-01 0.8160000D-01 0.3387000D+02 0.5095000D+01 0.1159000D+01
EXPONENTS  0.3258000D+00 0.1027000D+00 0.2526000D-01 0.1407000D+01 0.1407000D+01
EXPONENTS  0.1407000D+01 0.3880000D+00 0.3880000D+00 0.3880000D+00 0.1020000D+00
EXPONENTS  0.1020000D+00 0.1020000D+00 0.1057000D+01 0.1057000D+01 0.1057000D+01
EXPONENTS  0.1057000D+01 0.1057000D+01 0.1057000D+01 0.2470000D+00 0.2470000D+00
EXPONENTS  0.2470000D+00 0.2470000D+00 0.2470000D+00 0.2470000D+00 0.3387000D+02
EXPONENTS  0.5095000D+01 0.1159000D+01 0.3258000D+00 0.1027000D+00 0.2526000D-01
EXPONENTS  0.1407000D+01 0.1407000D+01 0.1407000D+01 0.3880000D+00 0.3880000D+00
EXPONENTS  0.3880000D+00 0.1020000D+00 0.1020000D+00 0.1020000D+00 0.1057000D+01
EXPONENTS  0.1057000D+01 0.1057000D+01 0.1057000D+01 0.1057000D+01 0.1057000D+01
EXPONENTS  0.2470000D+00 0.2470000D+00 0.2470000D+00 0.2470000D+00 0.2470000D+00
EXPONENTS  0.2470000D+00 0.3387000D+02 0.5095000D+01 0.1159000D+01 0.3258000D+00
EXPONENTS  0.1027000D+00 0.2526000D-01 0.1407000D+01 0.1407000D+01 0.1407000D+01
EXPONENTS  0.3880000D+00 0.3880000D+00 0.3880000D+00 0.1020000D+00 0.1020000D+00
EXPONENTS  0.1020000D+00 0.1057000D+01 0.1057000D+01 0.1057000D+01 0.1057000D+01
EXPONENTS  0.1057000D+01 0.1057000D+01 0.2470000D+00 0.2470000D+00 0.2470000D+00
EXPONENTS  0.2470000D+00 0.2470000D+00 0.2470000D+00
MO    1     MO 0.0        OCC NO =    2.0000000  ORB. ENERGY =  -11.116008
  0.32720386D+00  0.60998240D+00  0.10309777D+01  0.15498972D+01  0.19042278D+01
  0.16084248D+01  0.60663865D+00 -0.30022885D-02 -0.28341312D-03 -0.53063879D-03
 -0.90345794D-03 -0.13975121D-02 -0.18404742D-02 -0.19123706D-02 -0.12152257D-02
  0.81441598D-03  0.27425652D-01  0.14674442D-02  0.82209993D-04  0.91745112D-14
  0.86016874D-14  0.61249138D-14  0.94649972D-07  0.88740366D-07  0.63188427D-07
 -0.22556933D-02 -0.21148558D-02 -0.15059033D-02 -0.34367754D-13  0.25296850D-08
 -0.23258606D-03 -0.43452514D-13  0.21319946D-07  0.38827883D-04 -0.75901634D-16
 -0.43936654D-09  0.47794038D-05  0.26920883D-03  0.26919529D-03 -0.53840412D-03
  0.31517522D-14  0.71975796D-14  0.57071844D-07  0.28218572D-04  0.28234813D-04
 -0.56453384D-04  0.28103082D-13  0.18781811D-13 -0.52763939D-08 -0.21981834D-05
 -0.21944672D-05  0.43926506D-05  0.75919868D-14  0.51682504D-14  0.16344531D-08
 -0.72523678D-15  0.41376968D-03  0.36619882D-03 -0.84215886D-15 -0.12412547D-02
 -0.54933470D-03  0.30178692D-14 -0.54393699D-07 -0.54926177D-03 -0.15123939D-13
  0.47760412D-15 -0.31245121D-04 -0.48782286D-04  0.36120390D-15  0.93727670D-04
  0.73182349D-04 -0.17940163D-14  0.76942628D-08  0.73164509D-04 -0.62695720D-14
 -0.71162244D-05 -0.13226473D-04 -0.22524456D-04 -0.35127433D-04 -0.49075023D-04
 -0.58498330D-04 -0.55456225D-04 -0.35220309D-04 -0.86490718D-05  0.14074027D-05
  0.26022388D-05  0.43882751D-05  0.69923195D-05  0.97467671D-05  0.12418967D-04
  0.12333316D-04  0.11124942D-04  0.63677088D-05  0.29024201D-04 -0.86151969D-05
  0.12533654D-05  0.89028103D-15  0.65327588D-15  0.53644590D-15 -0.95183370D-08
 -0.69844238D-08 -0.57353495D-08 -0.12178902D-03 -0.89367096D-04 -0.73384941D-04
 -0.31000713D-14  0.69538103D-09 -0.59795038D-05  0.12325297D-15  0.38054319D-10
  0.15127499D-05 -0.22447298D-16 -0.84682643D-11 -0.36501982D-06 -0.24839184D-04
 -0.24836522D-04  0.49675707D-04 -0.44947053D-16 -0.22930535D-14  0.83539224D-08
  0.15952552D-05  0.15949242D-05 -0.31901794D-05 -0.52570459D-15  0.19053015D-14
 -0.91088995D-09 -0.38852898D-07 -0.38863595D-07  0.77716492D-07  0.71532817D-17
  0.69088480D-16  0.25869728D-10 -0.14921275D-15  0.22672457D-05 -0.10239987D-04
 -0.14290572D-15 -0.67994152D-05  0.15361382D-04  0.59054397D-15 -0.23220667D-08
  0.15358579D-04 -0.56833401D-16  0.72346523D-16 -0.14336112D-06  0.89913410D-06
  0.70334074D-16  0.42989976D-06 -0.13488406D-05 -0.28737364D-15  0.18360884D-09
 -0.13485617D-05  0.18679525D-15  0.58792410D-04  0.10603453D-03  0.15634786D-03
  0.22177503D-04 -0.36272664D-03 -0.71397683D-05 -0.10479855D-14  0.51767949D-03
 -0.21913662D-03 -0.40057012D-14  0.28974526D-03 -0.20199420D-03 -0.44216020D-14
  0.91017552D-04 -0.73477159D-04  0.33954570D-03 -0.45341075D-03  0.11386505D-03
  0.20433589D-14 -0.11927226D-14  0.81433620D-03  0.36401745D-04 -0.29647828D-04
 -0.67539167D-05  0.14726355D-14 -0.25264381D-14  0.75646543D-04  0.58792350D-04
  0.10603442D-03  0.15634770D-03  0.22217268D-04 -0.36266572D-03 -0.71410957D-05
  0.44831896D-03 -0.25883108D-03 -0.21915478D-03  0.25091780D-03 -0.14485253D-03
 -0.20200744D-03  0.78817064D-04 -0.45500299D-04 -0.73472065D-04 -0.25515681D-03
  0.14132386D-03  0.11383295D-03  0.68667476D-03  0.70527724D-03 -0.40717366D-03
 -0.13135338D-04  0.19892313D-04 -0.67569754D-05  0.57196569D-04  0.65516043D-04
 -0.37826618D-04  0.58792350D-04  0.10603442D-03  0.15634770D-03  0.22217268D-04
 -0.36266572D-03 -0.71410957D-05 -0.44831896D-03 -0.25883108D-03 -0.21915478D-03
 -0.25091780D-03 -0.14485253D-03 -0.20200744D-03 -0.78817064D-04 -0.45500299D-04
 -0.73472065D-04 -0.25515681D-03  0.14132386D-03  0.11383295D-03 -0.68667476D-03
 -0.70527724D-03 -0.40717366D-03 -0.13135338D-04  0.19892313D-04 -0.67569754D-05
 -0.57196569D-04 -0.65516043D-04 -0.37826618D-04
MO    2     MO 0.0        OCC NO =    2.0000000  ORB. ENERGY =   -2.427705
 -0.48122443D-03 -0.89711175D-03 -0.15162769D-02 -0.22794609D-02 -0.28005810D-02
 -0.23655384D-02 -0.89219405D-03  0.44155181D-05  0.28442460D-04  0.53253259D-04
  0.90668229D-04  0.14024996D-03  0.18470427D-03  0.19191957D-03  0.12195627D-03
 -0.81732256D-04 -0.16531407D-02  0.17753914D-01  0.61945591D-02  0.46331003D-14
  0.43438261D-14  0.30930629D-14  0.42631597D-07  0.39969832D-07  0.28460901D-07
  0.26838686D-02  0.25162974D-02  0.17917536D-02 -0.26049933D-13 -0.93363820D-07
 -0.77095438D-03 -0.50834125D-13  0.15641726D-06  0.28695528D-02  0.29027355D-14
  0.13654965D-07  0.57297803D-03  0.50512627D-03  0.50509299D-03 -0.10102193D-02
 -0.74152554D-15  0.63764720D-14  0.24187074D-07 -0.44832755D-03 -0.44840961D-03
  0.89673716D-03  0.27687137D-13  0.13869694D-13  0.13780251D-06 -0.12212722D-03
 -0.12211399D-03  0.24424120D-03  0.11611228D-13  0.69002895D-14 -0.24460536D-07
 -0.66492643D-15  0.24121858D-03  0.32593238D-03 -0.79265213D-15 -0.72366693D-03
 -0.48893302D-03  0.27874314D-14  0.11205517D-07 -0.48886411D-03 -0.10212430D-13
  0.51110355D-15  0.19152440D-03  0.45263016D-03  0.24946851D-15 -0.57455695D-03
 -0.67897108D-03 -0.17827791D-14 -0.16254725D-07 -0.67891940D-03 -0.62855876D-14
  0.64216824D-01  0.11935572D+00  0.20326074D+00  0.31699003D+00  0.44285311D+00
  0.52788905D+00  0.50043709D+00  0.31782814D+00  0.78049242D-01  0.18169034D-03
  0.33593914D-03  0.56650965D-03  0.90268189D-03  0.12582706D-02  0.16032414D-02
  0.15921842D-02  0.14361877D-02  0.82204702D-03 -0.78952790D-02 -0.34389838D-02
  0.22196764D-05  0.87537275D-15  0.64233639D-15  0.52746279D-15  0.23323819D-06
  0.17114695D-06  0.14053952D-06  0.83739323D-02  0.61446754D-02  0.50457793D-02
 -0.69386722D-14  0.41322818D-07  0.20387124D-02  0.43823057D-16  0.62998958D-09
  0.16863704D-03  0.42580191D-17  0.51096747D-10 -0.56356393D-05  0.60667586D-03
  0.60666825D-03 -0.12133441D-02 -0.41589596D-15 -0.30071840D-14 -0.83886095D-07
  0.11151947D-03  0.11151739D-03 -0.22303686D-03 -0.52013264D-15  0.38748708D-14
 -0.19464905D-07  0.19164960D-04  0.19164849D-04 -0.38329809D-04 -0.78594433D-16
  0.21442121D-15 -0.93079972D-09 -0.18686881D-15 -0.61106201D-05  0.13362864D-03
 -0.16549047D-15  0.18310465D-04 -0.20044618D-03  0.72609690D-15  0.21394901D-07
 -0.20043975D-03 -0.18565886D-15  0.14863092D-15  0.11934967D-06  0.99246446D-05
  0.13817965D-15 -0.35945367D-06 -0.14887345D-04 -0.58407242D-15  0.14046594D-08
 -0.14886589D-04  0.30079161D-15  0.15045039D-03  0.27134347D-03  0.40009578D-03
 -0.51218569D-02 -0.13230216D-02  0.37052178D-03 -0.82485327D-15  0.33311425D-03
  0.22993733D-03 -0.49799639D-14  0.17489237D-02 -0.74380499D-03 -0.10289629D-13
  0.12317631D-03  0.13285376D-03  0.32559770D-03 -0.64653452D-03  0.32093682D-03
  0.16573954D-14 -0.30051474D-16  0.40598256D-03 -0.12434441D-03  0.61502277D-04
  0.62842131D-04  0.31331967D-14 -0.35046831D-14 -0.17573792D-03  0.15043451D-03
  0.27131483D-03  0.40005355D-03 -0.51220383D-02 -0.13227013D-02  0.37053217D-03
  0.28852110D-03 -0.16655664D-03  0.22996513D-03  0.15147085D-02 -0.87452509D-03
 -0.74400977D-03  0.10663105D-03 -0.61560560D-04  0.13280554D-03 -0.40352848D-03
  0.82561792D-04  0.32096669D-03  0.84188671D-03  0.35170148D-03 -0.20307246D-03
  0.15043114D-04 -0.77876192D-04  0.62833078D-04 -0.16092710D-03 -0.15215465D-03
  0.87857766D-04  0.15043451D-03  0.27131483D-03  0.40005355D-03 -0.51220383D-02
 -0.13227013D-02  0.37053217D-03 -0.28852110D-03 -0.16655664D-03  0.22996513D-03
 -0.15147085D-02 -0.87452509D-03 -0.74400977D-03 -0.10663105D-03 -0.61560560D-04
  0.13280554D-03 -0.40352848D-03  0.82561792D-04  0.32096669D-03 -0.84188671D-03
 -0.35170148D-03 -0.20307246D-03  0.15043114D-04 -0.77876192D-04  0.62833078D-04
  0.16092710D-03  0.15215465D-03  0.87857766D-04
MO    3     MO 0.0        OCC NO =    2.0000000  ORB. ENERGY =   -0.819838
 -0.40267815D-02 -0.75068363D-02 -0.12687876D-01 -0.19074033D-01 -0.23434654D-01
 -0.19794312D-01 -0.74656860D-02  0.36948097D-04 -0.53018659D-01 -0.99267658D-01
 -0.16901168D+00 -0.26143537D+00 -0.34430119D+00 -0.35775099D+00 -0.22733469D+00
  0.15235442D+00  0.58341447D-01  0.38339960D-01 -0.37741166D-02  0.24194914D-13
  0.22684269D-13  0.16152551D-13  0.31483074D-05  0.29517383D-05  0.21018135D-05
 -0.85665005D-01 -0.80316388D-01 -0.57190053D-01 -0.11266713D-12  0.91507276D-06
 -0.26772690D-01 -0.31748120D-12  0.17152813D-06 -0.23610489D-02  0.97921686D-15
 -0.15290137D-07 -0.34288500D-03  0.45733325D-02  0.45733267D-02 -0.91466592D-02
 -0.69933585D-14  0.11746803D-13  0.80449635D-06  0.77827979D-03  0.77824401D-03
 -0.15565238D-02  0.12510445D-12  0.85552820D-13  0.23062176D-06 -0.61695552D-04
 -0.61620484D-04  0.12331604D-03  0.59660347D-13  0.41188237D-13 -0.56211043D-09
 -0.31342841D-14  0.30983663D-02  0.35798261D-02 -0.31192738D-14 -0.92946176D-02
 -0.53699598D-02  0.12522126D-13 -0.48122391D-06 -0.53695185D-02 -0.48543395D-13
  0.29801387D-14  0.17389019D-03  0.26253073D-03  0.22181490D-14 -0.52168119D-03
 -0.39383004D-03 -0.11158565D-13  0.10628321D-07 -0.39376214D-03 -0.31807664D-13
 -0.70594655D-03 -0.13120979D-02 -0.22344801D-02 -0.34847257D-02 -0.48683602D-02
 -0.58031748D-02 -0.55013907D-02 -0.34939392D-02 -0.85800870D-03 -0.12264648D-02
 -0.22676909D-02 -0.38241116D-02 -0.60933761D-02 -0.84937076D-02 -0.10822365D-01
 -0.10747726D-01 -0.96947021D-02 -0.55490663D-02  0.68211410D-02  0.26808318D-02
  0.48219515D-05  0.52838259D-14  0.38771982D-14  0.31838112D-14 -0.15112203D-06
 -0.11089125D-06 -0.91059778D-07 -0.79106525D-02 -0.58047271D-02 -0.47666264D-02
 -0.29092329D-13 -0.75746108D-08 -0.18242744D-02  0.11539578D-14 -0.10709974D-08
 -0.11942531D-03 -0.21504181D-15 -0.21660865D-10  0.57417685D-06 -0.63425498D-03
 -0.63426362D-03  0.12685186D-02 -0.68384409D-15 -0.17193748D-13  0.91598266D-07
 -0.95014651D-04 -0.95019470D-04  0.19003412D-03 -0.40957584D-14  0.17568815D-13
 -0.89593199D-08 -0.18813759D-04 -0.18813503D-04  0.37627262D-04  0.12984341D-16
  0.67688808D-15  0.95315309D-09 -0.11826873D-14  0.15357371D-05 -0.15479933D-03
 -0.11250936D-14 -0.45809983D-05  0.23219291D-03  0.46731556D-14 -0.26213048D-07
  0.23220510D-03 -0.32836408D-15  0.68308639D-15 -0.15097479D-05 -0.10827037D-04
  0.65629187D-15  0.45264051D-05  0.16240279D-04 -0.27055510D-14  0.28387263D-08
  0.16240832D-04  0.15675220D-14  0.23129515D-01  0.41715032D-01  0.61508791D-01
  0.30083785D-01  0.48050784D-03 -0.32757043D-03 -0.98841715D-14 -0.18591015D-01
  0.66689844D-02 -0.96274656D-14  0.61738866D-03 -0.42047529D-03 -0.35832875D-13
  0.10177921D-02 -0.54519914D-03 -0.15106880D-02  0.21397816D-02 -0.62909362D-03
  0.80182252D-14 -0.50708782D-14 -0.27189580D-02  0.39624607D-03 -0.62651849D-03
  0.23027242D-03  0.57279024D-14 -0.14488138D-13  0.83706031D-03  0.23129427D-01
  0.41714874D-01  0.61508557D-01  0.30083547D-01  0.48119313D-03 -0.32759423D-03
 -0.16100131D-01  0.92952506D-02  0.66695965D-02  0.53466186D-03 -0.30865834D-03
 -0.42053396D-03  0.88141921D-03 -0.50880973D-03 -0.54511798D-03  0.12271340D-02
 -0.59812183D-03 -0.62901216D-03 -0.31613120D-02 -0.23548638D-02  0.13595750D-02
 -0.37081792D-03  0.14055277D-03  0.23026515D-03  0.88569777D-03  0.72499590D-03
 -0.41855116D-03  0.23129427D-01  0.41714874D-01  0.61508557D-01  0.30083547D-01
  0.48119313D-03 -0.32759423D-03  0.16100131D-01  0.92952506D-02  0.66695965D-02
 -0.53466186D-03 -0.30865834D-03 -0.42053396D-03 -0.88141921D-03 -0.50880973D-03
 -0.54511798D-03  0.12271340D-02 -0.59812183D-03 -0.62901216D-03  0.31613120D-02
  0.23548638D-02  0.13595750D-02 -0.37081792D-03  0.14055277D-03  0.23026515D-03
 -0.88569777D-03 -0.72499590D-03 -0.41855116D-03
MO    4     MO 0.0        OCC NO =    2.0000000  ORB. ENERGY =   -0.449418
  0.17457682D-14  0.32545089D-14  0.55006934D-14  0.82693439D-14  0.10159844D-13
  0.85816128D-14  0.32366686D-14 -0.16018454D-16 -0.13273642D-14 -0.24852445D-14
 -0.42313415D-14 -0.65452419D-14 -0.86198533D-14 -0.89565797D-14 -0.56915043D-14
  0.38143139D-14  0.44914245D-13 -0.68900317D-12 -0.12524484D-13  0.48264801D+00
  0.45251319D+00  0.32221635D+00  0.40262098D-09  0.37748276D-09  0.26879021D-09
 -0.86890334D-14 -0.81465211D-14 -0.58008083D-14  0.12270863D+00  0.10233625D-09
  0.86472673D-13  0.22254203D-01  0.18489721D-10  0.81972585D-13  0.44495661D-03
  0.36935388D-12  0.12307761D-13 -0.19521043D-10  0.19521739D-10 -0.69571816D-15
 -0.46803645D-01 -0.45597889D-01 -0.38033164D-10 -0.45527925D-11  0.45107456D-11
  0.42046856D-13 -0.10890714D-01 -0.98719317D-02 -0.82151976D-11 -0.47151846D-12
  0.46172533D-12  0.97931301D-14 -0.11382542D-02 -0.90961053D-03 -0.75119932D-12
  0.45603277D-03  0.36659521D-12 -0.87479022D-14  0.45585648D-03  0.41806957D-12
  0.23568997D-11 -0.18239548D-02 -0.15178552D-11 -0.23306560D-11  0.56344420D-02
 -0.10197790D-03 -0.93265397D-13 -0.95724941D-14 -0.10203554D-03 -0.57425870D-13
  0.54663177D-12  0.40796924D-03  0.33722206D-12 -0.51791429D-12  0.12812114D-02
  0.55287093D-15  0.10275860D-14  0.17499613D-14  0.27291068D-14  0.38127176D-14
  0.45448295D-14  0.43084835D-14  0.27363225D-14  0.67196032D-15 -0.64147675D-15
 -0.11860683D-14 -0.20001216D-14 -0.31870129D-14 -0.44424560D-14 -0.56604116D-14
 -0.56213730D-14 -0.50706111D-14 -0.29023230D-14 -0.33582110D-13 -0.59906217D-13
 -0.19462335D-14  0.47625033D-02  0.34946589D-02  0.28696841D-02  0.39763892D-11
  0.29178193D-11  0.23960048D-11 -0.14049390D-13 -0.10309248D-13 -0.84655716D-14
  0.21897063D-03  0.17792620D-12  0.13815904D-13 -0.35806319D-04 -0.29742268D-13
  0.40691083D-14  0.40000410D-05  0.32801078D-14  0.49864815D-16 -0.10260313D-12
  0.97431227D-13  0.51718996D-14 -0.23932116D-03 -0.18073004D-02 -0.15123777D-11
  0.34214344D-13 -0.34770499D-13  0.55615537D-15  0.84448700D-04  0.11976103D-03
  0.10299018D-12 -0.16886303D-14  0.22384164D-14 -0.54978605D-15 -0.48743006D-05
 -0.56470443D-05 -0.44751341D-14 -0.10984688D-03 -0.91733128D-13 -0.62627209D-15
 -0.10984411D-03 -0.92768668D-13  0.66680551D-13  0.43938476D-03  0.36796805D-12
 -0.64801735D-13  0.15673951D-03  0.13505573D-04  0.11346420D-13 -0.20741088D-15
  0.13504503D-04  0.11615854D-13 -0.15589049D-13 -0.54021222D-04 -0.45655115D-13
  0.16211282D-13 -0.38516375D-04  0.34611834D-10  0.62423868D-10  0.92043957D-10
  0.57351855D-10  0.47122060D-11 -0.22682375D-12  0.10356182D-01 -0.19273077D-10
  0.11802114D-10  0.51934736D-02  0.88835488D-12  0.26061181D-11  0.23794462D-03
  0.14317574D-11  0.15890173D-13 -0.20135515D-11  0.25841750D-11 -0.57062356D-12
 -0.55645767D-02  0.22713279D-02 -0.64363002D-11  0.23782343D-12 -0.29464620D-12
  0.56822775D-13 -0.92431823D-04  0.36782536D-03  0.20157802D-12  0.35938151D-01
  0.64815935D-01  0.95571058D-01  0.59264910D-01  0.45245709D-02 -0.26249398D-03
 -0.14726300D-01  0.14481048D-01  0.12247790D-01  0.21826608D-02  0.17382223D-02
  0.26541951D-02  0.13837554D-02 -0.66149459D-03 -0.16828509D-04  0.27041796D-03
  0.31225308D-03 -0.58267103D-03 -0.54916920D-02 -0.51871678D-02  0.43061929D-02
 -0.18438168D-03  0.12828261D-03  0.56099063D-04  0.44912219D-03  0.27407764D-03
  0.54150961D-04 -0.35938151D-01 -0.64815935D-01 -0.95571058D-01 -0.59264910D-01
 -0.45245709D-02  0.26249398D-03 -0.14726300D-01 -0.14481048D-01 -0.12247790D-01
  0.21826607D-02 -0.17382223D-02 -0.26541951D-02  0.13837554D-02  0.66149459D-03
  0.16828509D-04 -0.27041796D-03 -0.31225307D-03  0.58267103D-03 -0.54916920D-02
 -0.51871678D-02 -0.43061929D-02  0.18438168D-03 -0.12828261D-03 -0.56099063D-04
  0.44912219D-03  0.27407764D-03 -0.54150960D-04
MO    5     MO 0.0        OCC NO =    2.0000000  ORB. ENERGY =   -0.449418
  0.13776361D-08  0.25682269D-08  0.43407559D-08  0.65255780D-08  0.80174265D-08
  0.67719984D-08  0.25541486D-08 -0.12640624D-10  0.14404442D-06  0.26969660D-06
  0.45918154D-06  0.71028402D-06  0.93541907D-06  0.97196033D-06  0.61763716D-06
 -0.41392606D-06 -0.20030016D-06 -0.99251070D-06 -0.54722871D-06 -0.40260988D-09
 -0.37747236D-09 -0.26878281D-09  0.48264697D+00  0.45251221D+00  0.32221565D+00
  0.16226365D-04  0.15213249D-04  0.10832739D-04 -0.10240921D-09  0.12270839D+00
  0.42356872D-05 -0.18724194D-10  0.22253887D-01  0.62028018D-06 -0.36286543D-12
  0.44495990D-03 -0.26060337D-07 -0.23402683D-01  0.23403785D-01 -0.11015420D-05
  0.39042040D-10  0.38049672D-10 -0.45595425D-01 -0.54455955D-02  0.54458993D-02
 -0.30375789D-06  0.91405011D-11  0.82617419D-11 -0.98711573D-02 -0.56913115D-03
  0.56914497D-03 -0.13821567D-07  0.98772936D-12  0.78162274D-12 -0.90953928D-03
 -0.38171716D-12  0.45609844D-03 -0.85573533D-07 -0.38162313D-12  0.45600486D-03
  0.28170798D-02  0.15267746D-11 -0.18243002D-02 -0.28168231D-02 -0.47172557D-11
  0.86166440D-13 -0.10194166D-03 -0.18736239D-07  0.86028899D-13 -0.10201416D-03
  0.64057143D-03 -0.34452822D-12  0.40783912D-03 -0.64051523D-03 -0.10805621D-11
 -0.43020591D-07 -0.79959632D-07 -0.13616988D-06 -0.21236021D-06 -0.29667931D-06
 -0.35364718D-06 -0.33525637D-06 -0.21292169D-06 -0.52287303D-07 -0.13426749D-06
 -0.24825594D-06 -0.41864542D-06 -0.66707362D-06 -0.92985041D-06 -0.11847807D-05
 -0.11766095D-05 -0.10613295D-05 -0.60748519D-06  0.74535365D-06  0.28265840D-06
 -0.27573181D-09 -0.39711838D-11 -0.29139996D-11 -0.23928683D-11  0.47626716D-02
  0.34947824D-02  0.28697855D-02 -0.97389479D-06 -0.71463050D-06 -0.58682803D-06
 -0.20746635D-12  0.21895295D-03 -0.18671230D-06  0.30074825D-13 -0.35804385D-04
 -0.14724195D-07 -0.33872444D-14  0.39998041D-05  0.57471726D-09 -0.11971705D-03
  0.11956872D-03  0.14833381D-06  0.19836611D-12  0.14992107D-11 -0.18073935D-02
  0.42213784D-04 -0.42230860D-04  0.17075348D-07 -0.72391571D-13 -0.86074062D-13
  0.11977622D-03 -0.24391787D-05  0.24352631D-05  0.39155506D-08  0.39130051D-14
  0.55713112D-14 -0.56470848D-05  0.91064277D-13 -0.10985089D-03 -0.20356115D-07
  0.91112539D-13 -0.10985328D-03  0.78385668D-04 -0.36430537D-12  0.43940594D-03
 -0.78324600D-04 -0.13056176D-12 -0.10704019D-13  0.13506148D-04 -0.47925905D-09
 -0.10739617D-13  0.13505424D-04 -0.19255232D-04  0.42851673D-13 -0.54023868D-04
  0.19256670D-04  0.33010737D-13  0.41497665D-01  0.74842747D-01  0.11035559D+00
  0.68433472D-01  0.52254521D-02 -0.30313221D-03 -0.86409792D-11 -0.23087268D-01
  0.14141628D-01 -0.43398276D-11  0.11788849D-02  0.30646545D-02 -0.23214038D-12
  0.17656175D-02 -0.19310334D-04 -0.23973422D-02  0.30705076D-02 -0.67316533D-03
  0.46440805D-11 -0.18941022D-11 -0.76728647D-02  0.28245338D-03 -0.34719069D-03
  0.64737309D-04  0.83748763D-13 -0.31601118D-12  0.24285497D-03 -0.20749035D-01
 -0.37421739D-01 -0.55178333D-01 -0.34216760D-01 -0.26125172D-02  0.15153016D-03
  0.14481463D-01  0.19954677D-02 -0.70709668D-02  0.17382569D-02  0.41898728D-02
 -0.15321496D-02 -0.66149561D-03  0.61982233D-03  0.96924175D-05 -0.29383964D-02
  0.26018975D-02  0.33649886D-03 -0.42054496D-04  0.43060949D-02 -0.21455493D-03
  0.60238338D-04 -0.27835431D-04 -0.32402907D-04 -0.31264083D-03  0.54115313D-04
  0.33659789D-03 -0.20749035D-01 -0.37421739D-01 -0.55178333D-01 -0.34216760D-01
 -0.26125172D-02  0.15153016D-03 -0.14481463D-01  0.19954678D-02 -0.70709668D-02
 -0.17382569D-02  0.41898728D-02 -0.15321496D-02  0.66149560D-03  0.61982233D-03
  0.96924174D-05 -0.29383964D-02  0.26018975D-02  0.33649886D-03  0.42054506D-04
 -0.43060949D-02 -0.21455492D-03  0.60238338D-04 -0.27835431D-04 -0.32402907D-04
  0.31264083D-03 -0.54115313D-04  0.33659789D-03
MO    6     MO 0.0        OCC NO =    2.0000000  ORB. ENERGY =   -0.286367
  0.31066351D-04  0.57914742D-04  0.97886117D-04  0.14715490D-03  0.18079679D-03
  0.15271180D-03  0.57597270D-04 -0.28505211D-06 -0.14395918D-01 -0.26953702D-01
 -0.45890983D-01 -0.70986373D-01 -0.93486556D-01 -0.97138520D-01 -0.61727169D-01
  0.41368113D-01  0.17563948D-01 -0.90542153D-02 -0.13373191D-01 -0.81973792D-14
 -0.76855640D-14 -0.54725794D-14 -0.16357052D-04 -0.15335776D-04 -0.10919986D-04
  0.53538223D+00  0.50195487D+00  0.35742177D+00  0.49004667D-13 -0.42947015D-05
  0.13984505D+00  0.23327024D-12 -0.11867348D-05  0.23652672D-01 -0.29393716D-13
 -0.94780192D-07 -0.83101536D-04 -0.17314919D-02 -0.17318493D-02  0.34633412D-02
  0.13113496D-13 -0.60301554D-14  0.79506409D-06 -0.18076932D-02 -0.18078406D-02
  0.36155338D-02 -0.82562990D-13 -0.49572211D-13  0.88870462D-07 -0.11510959D-03
 -0.11507392D-03  0.23018351D-03 -0.61331452D-13 -0.44658684D-13  0.84004375D-07
  0.18228109D-14 -0.48982705D-03 -0.11085050D-02  0.16538798D-14  0.14691290D-02
  0.16627471D-02 -0.71223124D-14  0.35211875D-06  0.16627678D-02  0.22758904D-13
 -0.27632573D-14 -0.58581475D-03 -0.43508454D-04 -0.26142304D-14  0.17573256D-02
  0.65282453D-04  0.10904002D-13  0.11866054D-06  0.65242908D-04  0.24085077D-13
 -0.84059487D-03 -0.15623601D-02 -0.26606724D-02 -0.41493829D-02 -0.57969241D-02
 -0.69100401D-02 -0.65506954D-02 -0.41603538D-02 -0.10216605D-02 -0.64594366D-02
 -0.11943274D-01 -0.20140494D-01 -0.32092055D-01 -0.44733910D-01 -0.56998278D-01
 -0.56605173D-01 -0.51059201D-01 -0.29225332D-01  0.33831130D-01  0.98335988D-02
 -0.33988331D-04 -0.13732789D-14 -0.10076930D-14 -0.82748007D-15 -0.12311922D-05
 -0.90343178D-06 -0.74186463D-06 -0.36422397D-01 -0.26726250D-01 -0.21946604D-01
  0.48492360D-13 -0.14945573D-06 -0.67207426D-02 -0.61778040D-15  0.15951669D-08
 -0.38455452D-03 -0.24365833D-15 -0.56017304D-09  0.69385047D-05 -0.17398298D-02
 -0.17398259D-02  0.34796557D-02  0.24557552D-14  0.14311990D-13  0.30614488D-06
 -0.26624033D-03 -0.26623678D-03  0.53247712D-03  0.29365749D-14 -0.25229539D-13
  0.10356138D-07 -0.54555076D-04 -0.54554797D-04  0.10910987D-03  0.91861570D-15
 -0.13975991D-14  0.33466283D-08  0.87118777D-15  0.19767563D-04 -0.39738676D-03
  0.83221542D-15 -0.59236242D-04  0.59608472D-03 -0.34457787D-14 -0.66446859D-07
  0.59607556D-03  0.10070875D-14 -0.93881776D-15 -0.25392754D-05 -0.29072204D-04
 -0.90188053D-15  0.76131811D-05  0.43609676D-04  0.37183338D-14  0.46450693D-08
  0.43606935D-04 -0.21336736D-14 -0.11137902D-01 -0.20087665D-01 -0.29619251D-01
 -0.14340199D-01 -0.22849488D-02 -0.83107131D-03  0.54336780D-14  0.10213646D-01
  0.95557017D-02  0.11217538D-13  0.10792262D-02  0.10169637D-01  0.55787189D-13
 -0.46084255D-03  0.10427988D-02  0.10361518D-03 -0.42166531D-02  0.41130379D-02
 -0.34927034D-14 -0.93638490D-15 -0.50588175D-02 -0.15234570D-03 -0.19624881D-03
  0.34859451D-03 -0.10715086D-13  0.16891349D-13 -0.50004682D-03 -0.11137351D-01
 -0.20086671D-01 -0.29617784D-01 -0.14339440D-01 -0.22846795D-02 -0.83114011D-03
  0.88453064D-02 -0.51071641D-02  0.95552343D-02  0.93481798D-03 -0.53998461D-03
  0.10169666D-01 -0.39891455D-03  0.23033886D-03  0.10431027D-02 -0.31365975D-02
 -0.97658542D-03  0.41131829D-02  0.37415721D-02 -0.43806312D-02  0.25290289D-02
 -0.18531799D-03 -0.16339713D-03  0.34871512D-03  0.38009967D-04 -0.43303668D-03
  0.24996586D-03 -0.11137351D-01 -0.20086671D-01 -0.29617784D-01 -0.14339440D-01
 -0.22846795D-02 -0.83114011D-03 -0.88453064D-02 -0.51071641D-02  0.95552343D-02
 -0.93481798D-03 -0.53998461D-03  0.10169666D-01  0.39891455D-03  0.23033886D-03
  0.10431027D-02 -0.31365975D-02 -0.97658542D-03  0.41131829D-02 -0.37415721D-02
  0.43806312D-02  0.25290289D-02 -0.18531799D-03 -0.16339713D-03  0.34871512D-03
 -0.38009967D-04  0.43303668D-03  0.24996586D-03
END DATA
RHF
