 Molden2AIM, Version 4.0.0 (06/02/2016)           Time: Wed Jun 27 22:28:14 2018
GAUSSIAN             13 MOL ORBITALS    314 PRIMITIVES        6 NUCLEI
  C    1    (CENTRE  1)  -0.09086181  2.18349728  0.00000000  CHARGE =  6.0
  S    2    (CENTRE  2)  -0.09594706 -1.25787730  0.00000000  CHARGE = 16.0
  H    3    (CENTRE  3)   2.44224992 -1.57991686  0.00000000  CHARGE =  1.0
  H    4    (CENTRE  4)  -2.08055634  2.76379816  0.00000000  CHARGE =  1.0
  H    5    (CENTRE  5)   0.81874463  2.93753769  1.70135256  CHARGE =  1.0
  H    6    (CENTRE  6)   0.81874463  2.93753769 -1.70135256  CHARGE =  1.0
CENTRE ASSIGNMENTS    1  1  1  1  1  1  1  1  1  1  1  1  1  1  1  1  1  1  1  1
CENTRE ASSIGNMENTS    1  1  1  1  1  1  1  1  1  1  1  1  1  1  1  1  1  1  1  1
CENTRE ASSIGNMENTS    1  1  1  1  1  1  1  1  1  1  1  1  1  1  1  1  1  1  1  1
CENTRE ASSIGNMENTS    1  1  1  1  1  1  1  1  1  1  1  1  1  1  1  2  2  2  2  2
CENTRE ASSIGNMENTS    2  2  2  2  2  2  2  2  2  2  2  2  2  2  2  2  2  2  2  2
CENTRE ASSIGNMENTS    2  2  2  2  2  2  2  2  2  2  2  2  2  2  2  2  2  2  2  2
CENTRE ASSIGNMENTS    2  2  2  2  2  2  2  2  2  2  2  2  2  2  2  2  2  2  2  2
CENTRE ASSIGNMENTS    2  2  2  2  2  2  2  2  2  2  2  2  2  2  2  2  2  2  2  2
CENTRE ASSIGNMENTS    2  2  2  2  2  2  2  2  2  2  2  2  2  2  2  2  2  2  2  2
CENTRE ASSIGNMENTS    2  2  2  2  2  2  2  2  2  2  2  2  2  2  2  2  2  2  2  2
CENTRE ASSIGNMENTS    2  2  2  2  2  2  3  3  3  3  3  3  3  3  3  3  3  3  3  3
CENTRE ASSIGNMENTS    3  3  3  3  3  3  3  3  3  3  3  3  3  4  4  4  4  4  4  4
CENTRE ASSIGNMENTS    4  4  4  4  4  4  4  4  4  4  4  4  4  4  4  4  4  4  4  4
CENTRE ASSIGNMENTS    5  5  5  5  5  5  5  5  5  5  5  5  5  5  5  5  5  5  5  5
CENTRE ASSIGNMENTS    5  5  5  5  5  5  5  6  6  6  6  6  6  6  6  6  6  6  6  6
CENTRE ASSIGNMENTS    6  6  6  6  6  6  6  6  6  6  6  6  6  6
TYPE ASSIGNMENTS      1  1  1  1  1  1  1  1  1  1  1  1  1  1  1  1  1  1  1  2
TYPE ASSIGNMENTS      2  2  3  3  3  4  4  4  2  3  4  2  3  4  2  3  4  5  6  7
TYPE ASSIGNMENTS      8  9 10  5  6  7  8  9 10  5  6  7  8  9 10 11 12 13 17 14
TYPE ASSIGNMENTS     15 18 19 16 20 11 12 13 17 14 15 18 19 16 20  1  1  1  1  1
TYPE ASSIGNMENTS      1  1  1  1  1  1  1  1  1  1  1  1  1  1  1  1  1  1  1  1
TYPE ASSIGNMENTS      1  1  1  1  1  1  1  1  1  1  1  1  1  1  1  1  1  2  2  2
TYPE ASSIGNMENTS      2  2  2  2  3  3  3  3  3  3  3  4  4  4  4  4  4  4  2  2
TYPE ASSIGNMENTS      2  2  2  2  2  3  3  3  3  3  3  3  4  4  4  4  4  4  4  2
TYPE ASSIGNMENTS      3  4  2  3  4  2  3  4  5  6  7  8  9 10  5  6  7  8  9 10
TYPE ASSIGNMENTS      5  6  7  8  9 10 11 12 13 17 14 15 18 19 16 20 11 12 13 17
TYPE ASSIGNMENTS     14 15 18 19 16 20  1  1  1  1  1  1  2  3  4  2  3  4  2  3
TYPE ASSIGNMENTS      4  5  6  7  8  9 10  5  6  7  8  9 10  1  1  1  1  1  1  2
TYPE ASSIGNMENTS      3  4  2  3  4  2  3  4  5  6  7  8  9 10  5  6  7  8  9 10
TYPE ASSIGNMENTS      1  1  1  1  1  1  2  3  4  2  3  4  2  3  4  5  6  7  8  9
TYPE ASSIGNMENTS     10  5  6  7  8  9 10  1  1  1  1  1  1  2  3  4  2  3  4  2
TYPE ASSIGNMENTS      3  4  5  6  7  8  9 10  5  6  7  8  9 10
EXPONENTS  0.8236000D+04 0.1235000D+04 0.2808000D+03 0.7927000D+02 0.2559000D+02
EXPONENTS  0.8997000D+01 0.3319000D+01 0.3643000D+00 0.8236000D+04 0.1235000D+04
EXPONENTS  0.2808000D+03 0.7927000D+02 0.2559000D+02 0.8997000D+01 0.3319000D+01
EXPONENTS  0.3643000D+00 0.9059000D+00 0.1285000D+00 0.4402000D-01 0.1871000D+02
EXPONENTS  0.4133000D+01 0.1200000D+01 0.1871000D+02 0.4133000D+01 0.1200000D+01
EXPONENTS  0.1871000D+02 0.4133000D+01 0.1200000D+01 0.3827000D+00 0.3827000D+00
EXPONENTS  0.3827000D+00 0.1209000D+00 0.1209000D+00 0.1209000D+00 0.3569000D-01
EXPONENTS  0.3569000D-01 0.3569000D-01 0.1097000D+01 0.1097000D+01 0.1097000D+01
EXPONENTS  0.1097000D+01 0.1097000D+01 0.1097000D+01 0.3180000D+00 0.3180000D+00
EXPONENTS  0.3180000D+00 0.3180000D+00 0.3180000D+00 0.3180000D+00 0.1000000D+00
EXPONENTS  0.1000000D+00 0.1000000D+00 0.1000000D+00 0.1000000D+00 0.1000000D+00
EXPONENTS  0.7610000D+00 0.7610000D+00 0.7610000D+00 0.7610000D+00 0.7610000D+00
EXPONENTS  0.7610000D+00 0.7610000D+00 0.7610000D+00 0.7610000D+00 0.7610000D+00
EXPONENTS  0.2680000D+00 0.2680000D+00 0.2680000D+00 0.2680000D+00 0.2680000D+00
EXPONENTS  0.2680000D+00 0.2680000D+00 0.2680000D+00 0.2680000D+00 0.2680000D+00
EXPONENTS  0.3741000D+06 0.5605000D+05 0.1276000D+05 0.3615000D+04 0.1183000D+04
EXPONENTS  0.4288000D+03 0.1678000D+03 0.6947000D+02 0.2984000D+02 0.1272000D+02
EXPONENTS  0.5244000D+01 0.2219000D+01 0.3490000D+00 0.3741000D+06 0.5605000D+05
EXPONENTS  0.1276000D+05 0.3615000D+04 0.1183000D+04 0.4288000D+03 0.1678000D+03
EXPONENTS  0.6947000D+02 0.2984000D+02 0.1272000D+02 0.5244000D+01 0.2219000D+01
EXPONENTS  0.3490000D+00 0.3741000D+06 0.5605000D+05 0.1276000D+05 0.3615000D+04
EXPONENTS  0.1183000D+04 0.4288000D+03 0.1678000D+03 0.6947000D+02 0.2984000D+02
EXPONENTS  0.1272000D+02 0.5244000D+01 0.2219000D+01 0.3490000D+00 0.7767000D+00
EXPONENTS  0.1322000D+00 0.4970000D-01 0.5744000D+03 0.1358000D+03 0.4319000D+02
EXPONENTS  0.1587000D+02 0.6208000D+01 0.2483000D+01 0.3229000D+00 0.5744000D+03
EXPONENTS  0.1358000D+03 0.4319000D+02 0.1587000D+02 0.6208000D+01 0.2483000D+01
EXPONENTS  0.3229000D+00 0.5744000D+03 0.1358000D+03 0.4319000D+02 0.1587000D+02
EXPONENTS  0.6208000D+01 0.2483000D+01 0.3229000D+00 0.5744000D+03 0.1358000D+03
EXPONENTS  0.4319000D+02 0.1587000D+02 0.6208000D+01 0.2483000D+01 0.3229000D+00
EXPONENTS  0.5744000D+03 0.1358000D+03 0.4319000D+02 0.1587000D+02 0.6208000D+01
EXPONENTS  0.2483000D+01 0.3229000D+00 0.5744000D+03 0.1358000D+03 0.4319000D+02
EXPONENTS  0.1587000D+02 0.6208000D+01 0.2483000D+01 0.3229000D+00 0.8688000D+00
EXPONENTS  0.8688000D+00 0.8688000D+00 0.1098000D+00 0.1098000D+00 0.1098000D+00
EXPONENTS  0.3510000D-01 0.3510000D-01 0.3510000D-01 0.2690000D+00 0.2690000D+00
EXPONENTS  0.2690000D+00 0.2690000D+00 0.2690000D+00 0.2690000D+00 0.8190000D+00
EXPONENTS  0.8190000D+00 0.8190000D+00 0.8190000D+00 0.8190000D+00 0.8190000D+00
EXPONENTS  0.1010000D+00 0.1010000D+00 0.1010000D+00 0.1010000D+00 0.1010000D+00
EXPONENTS  0.1010000D+00 0.5570000D+00 0.5570000D+00 0.5570000D+00 0.5570000D+00
EXPONENTS  0.5570000D+00 0.5570000D+00 0.5570000D+00 0.5570000D+00 0.5570000D+00
EXPONENTS  0.5570000D+00 0.2180000D+00 0.2180000D+00 0.2180000D+00 0.2180000D+00
EXPONENTS  0.2180000D+00 0.2180000D+00 0.2180000D+00 0.2180000D+00 0.2180000D+00
EXPONENTS  0.2180000D+00 0.3387000D+02 0.5095000D+01 0.1159000D+01 0.3258000D+00
EXPONENTS  0.1027000D+00 0.2526000D-01 0.1407000D+01 0.1407000D+01 0.1407000D+01
EXPONENTS  0.3880000D+00 0.3880000D+00 0.3880000D+00 0.1020000D+00 0.1020000D+00
EXPONENTS  0.1020000D+00 0.1057000D+01 0.1057000D+01 0.1057000D+01 0.1057000D+01
EXPONENTS  0.1057000D+01 0.1057000D+01 0.2470000D+00 0.2470000D+00 0.2470000D+00
EXPONENTS  0.2470000D+00 0.2470000D+00 0.2470000D+00 0.3387000D+02 0.5095000D+01
EXPONENTS  0.1159000D+01 0.3258000D+00 0.1027000D+00 0.2526000D-01 0.1407000D+01
EXPONENTS  0.1407000D+01 0.1407000D+01 0.3880000D+00 0.3880000D+00 0.3880000D+00
EXPONENTS  0.1020000D+00 0.1020000D+00 0.1020000D+00 0.1057000D+01 0.1057000D+01
EXPONENTS  0.1057000D+01 0.1057000D+01 0.1057000D+01 0.1057000D+01 0.2470000D+00
EXPONENTS  0.2470000D+00 0.2470000D+00 0.2470000D+00 0.2470000D+00 0.2470000D+00
EXPONENTS  0.3387000D+02 0.5095000D+01 0.1159000D+01 0.3258000D+00 0.1027000D+00
EXPONENTS  0.2526000D-01 0.1407000D+01 0.1407000D+01 0.1407000D+01 0.3880000D+00
EXPONENTS  0.3880000D+00 0.3880000D+00 0.1020000D+00 0.1020000D+00 0.1020000D+00
EXPONENTS  0.1057000D+01 0.1057000D+01 0.1057000D+01 0.1057000D+01 0.1057000D+01
EXPONENTS  0.1057000D+01 0.2470000D+00 0.2470000D+00 0.2470000D+00 0.2470000D+00
EXPONENTS  0.2470000D+00 0.2470000D+00 0.3387000D+02 0.5095000D+01 0.1159000D+01
EXPONENTS  0.3258000D+00 0.1027000D+00 0.2526000D-01 0.1407000D+01 0.1407000D+01
EXPONENTS  0.1407000D+01 0.3880000D+00 0.3880000D+00 0.3880000D+00 0.1020000D+00
EXPONENTS  0.1020000D+00 0.1020000D+00 0.1057000D+01 0.1057000D+01 0.1057000D+01
EXPONENTS  0.1057000D+01 0.1057000D+01 0.1057000D+01 0.2470000D+00 0.2470000D+00
EXPONENTS  0.2470000D+00 0.2470000D+00 0.2470000D+00 0.2470000D+00
MO    1     MO 0.0        OCC NO =    2.0000000  ORB. ENERGY =  -91.955165
  0.44659047D-05  0.83254617D-05  0.14071497D-04  0.21154069D-04  0.25990218D-04
  0.21952894D-04  0.82798239D-05 -0.40977311D-07 -0.32765566D-05 -0.61347478D-05
 -0.10444933D-04 -0.16156723D-04 -0.21277836D-04 -0.22109035D-04 -0.14049299D-04
  0.94155135D-05  0.18058361D-04 -0.89573022D-04 -0.85577892D-05 -0.19547461D-05
 -0.18326987D-05 -0.13049907D-05 -0.13711092D-04 -0.12855020D-04 -0.91535401D-05
 -0.10262081D-15 -0.96213531D-16 -0.68509766D-16  0.51825548D-05  0.76269547D-05
  0.54104694D-15  0.86696794D-05  0.74575748D-05  0.28088020D-15  0.14465308D-06
  0.45207989D-06  0.76753871D-17  0.38623796D-06  0.12965458D-05 -0.16827837D-05
 -0.33423571D-05  0.18379933D-15  0.17127420D-15  0.15179693D-05 -0.78084964D-05
  0.62905271D-05  0.34018278D-05  0.21311760D-15  0.19768770D-15 -0.71236886D-06
 -0.48331160D-06  0.11956805D-05 -0.49700494D-06  0.35967481D-16  0.12682546D-16
  0.11399733D-05  0.57008893D-05  0.15904339D-16 -0.95009684D-06 -0.10340174D-04
 -0.19874305D-16 -0.24698230D-05 -0.67624941D-05 -0.27838712D-16  0.16427328D-15
  0.23767279D-05  0.23404043D-05 -0.33612534D-17 -0.26744122D-05 -0.24853621D-05
 -0.83960994D-17 -0.44557716D-05 -0.45358509D-05  0.18479860D-16  0.22665752D-16
  0.58449069D+00  0.10926714D+01  0.18884773D+01  0.30545273D+01  0.46167392D+01
  0.63580074D+01  0.74310366D+01  0.64209762D+01  0.29947662D+01  0.40662455D+00
  0.10888404D-02  0.21358547D-02  0.97510687D-04 -0.36461306D-04 -0.68093043D-04
 -0.11811792D-03 -0.19152412D-03 -0.29487319D-03 -0.41996565D-03 -0.54002132D-03
 -0.56686169D-03 -0.40081138D-03  0.88761359D-05  0.28798816D-03  0.15857410D-03
 -0.67060716D-06  0.16529921D-04  0.30847278D-04  0.53578029D-04  0.86784519D-04
  0.13405668D-03  0.19111795D-03  0.24858202D-03  0.26492142D-03  0.19648671D-03
 -0.61159017D-05 -0.17800672D-03 -0.17438515D-03  0.81448208D-04 -0.44134608D-03
  0.15537160D-05  0.54243012D-06  0.14555395D-02  0.19095886D-02  0.20945276D-02
  0.17234105D-02  0.90861610D-03  0.23637896D-03 -0.26157742D-06  0.11903300D-02
  0.15616481D-02  0.17128899D-02  0.14093930D-02  0.74305986D-03  0.19330905D-03
 -0.21391618D-06 -0.48123435D-15 -0.63135326D-15 -0.69249829D-15 -0.56979857D-15
 -0.30040907D-15 -0.78152242D-16  0.86483424D-19 -0.75346030D-03 -0.98929797D-03
 -0.11130269D-02 -0.93780933D-03 -0.52459739D-03 -0.13057122D-03  0.59886254D-04
 -0.57897195D-03 -0.76019369D-03 -0.85526916D-03 -0.72062893D-03 -0.40310972D-03
 -0.10033319D-03  0.46017635D-04  0.40725966D-15  0.53473441D-15  0.60161227D-15
  0.50690382D-15  0.28355489D-15  0.70576235D-16 -0.32369662D-16 -0.83248489D-04
 -0.75086285D-04  0.35074883D-16 -0.98016761D-05  0.51540408D-05  0.69053790D-17
 -0.32728437D-06  0.11327424D-06  0.72424185D-18  0.65204304D-05  0.32532895D-05
 -0.97737199D-05  0.79542561D-06 -0.78174739D-18 -0.17918990D-16  0.60826470D-05
  0.47279298D-05 -0.10810577D-04 -0.89240450D-05  0.42567157D-18  0.14456418D-16
 -0.98963097D-06  0.36444698D-06  0.62518399D-06 -0.66091772D-06 -0.10214107D-17
  0.43889960D-17  0.45632104D-05  0.55412848D-05  0.17299077D-17 -0.42147318D-05
 -0.10117721D-04  0.58069749D-17 -0.94748996D-05 -0.65061334D-05 -0.10996698D-16
 -0.10883296D-16  0.45430462D-06 -0.16036711D-06 -0.35000693D-18 -0.12413609D-05
  0.90639167D-06 -0.39090332D-18 -0.12155299D-06 -0.42529034D-06  0.14409241D-17
  0.10932130D-17  0.87126571D-06  0.15713636D-05  0.23169747D-05 -0.40111344D-04
  0.16844897D-04  0.56338657D-06  0.16186653D-05  0.22777315D-06  0.11260854D-16
  0.37868582D-04 -0.91279363D-05 -0.65959529D-17 -0.76222954D-06  0.65907360D-06
 -0.53599167D-18 -0.18968321D-05 -0.31240005D-06  0.22092322D-05  0.44868020D-05
  0.26173360D-18  0.68671121D-17 -0.41348738D-05  0.23483799D-05  0.17864938D-05
  0.34731951D-05  0.10227790D-17 -0.48832257D-17 -0.90988526D-06 -0.16410155D-05
 -0.24196765D-05  0.38310986D-04  0.27118717D-04  0.33112787D-06  0.53982056D-05
 -0.56901208D-06 -0.13523106D-16  0.91203302D-05 -0.54008342D-05  0.24115047D-16
  0.24563792D-05 -0.17079986D-05  0.29740203D-16  0.16863814D-05  0.16999377D-05
 -0.33863191D-05 -0.42926901D-05 -0.22268967D-16 -0.25472979D-16 -0.80327183D-06
  0.39990891D-07  0.76328094D-06  0.18030664D-05  0.11773508D-16 -0.11375936D-16
 -0.10434922D-05 -0.18819811D-05 -0.27749800D-05  0.24903712D-04  0.64882505D-05
  0.74993844D-07 -0.55695258D-06  0.20538060D-05 -0.18862282D-05 -0.31657106D-05
 -0.28593485D-05 -0.56324875D-05  0.10130907D-05 -0.41403304D-06 -0.10121257D-05
 -0.27669230D-05  0.25167349D-05  0.25018816D-06  0.43945847D-06  0.44168026D-05
  0.41060904D-05 -0.27606689D-06  0.10155942D-05 -0.73952731D-06 -0.99868616D-06
 -0.90108547D-06 -0.15843076D-05 -0.10434922D-05 -0.18819811D-05 -0.27749800D-05
  0.24903712D-04  0.64882505D-05  0.74993844D-07 -0.55695258D-06  0.20538060D-05
  0.18862282D-05 -0.31657106D-05 -0.28593485D-05  0.56324875D-05  0.10130907D-05
 -0.41403304D-06  0.10121257D-05 -0.27669230D-05  0.25167349D-05  0.25018816D-06
  0.43945847D-06 -0.44168026D-05 -0.41060904D-05 -0.27606689D-06  0.10155942D-05
 -0.73952731D-06 -0.99868616D-06  0.90108547D-06  0.15843076D-05
MO    2     MO 0.0        OCC NO =    2.0000000  ORB. ENERGY =  -11.261693
  0.32730981D+00  0.61017990D+00  0.10313115D+01  0.15503990D+01  0.19048444D+01
  0.16089456D+01  0.60683507D+00 -0.30032606D-02 -0.36745292D-03 -0.68798780D-03
 -0.11713581D-02 -0.18119129D-02 -0.23862255D-02 -0.24794411D-02 -0.15755735D-02
  0.10559127D-02  0.27599175D-01  0.54610304D-03 -0.69131151D-04 -0.62767493D-04
 -0.58848515D-04 -0.41903648D-04 -0.17755431D-02 -0.16646845D-02 -0.11853545D-02
  0.10900517D-13  0.10219927D-13  0.72771970D-14  0.11025546D-04  0.11429828D-02
 -0.47288342D-13 -0.97150995D-05  0.47609479D-03 -0.32343926D-13  0.16065581D-05
  0.15663338D-04 -0.18564191D-15  0.21203105D-03 -0.44390384D-03  0.23187279D-03
  0.77948500D-04 -0.90488386D-14 -0.93846466D-14  0.21608984D-03 -0.49697157D-03
  0.28088173D-03  0.11454181D-03 -0.29324126D-13 -0.19451622D-13  0.23523586D-04
 -0.37787395D-04  0.14263809D-04 -0.36166375D-05 -0.52354445D-14 -0.17827759D-14
 -0.52081319D-03 -0.33154388D-03 -0.10918897D-14  0.95578155D-04  0.39498335D-03
  0.23838027D-15  0.14668614D-02  0.59964830D-03  0.30372888D-14 -0.15151262D-13
  0.35268560D-04  0.88969821D-04  0.23048277D-15 -0.18121343D-04 -0.13565595D-03
 -0.39611575D-15 -0.87684337D-04 -0.13125351D-03 -0.29533257D-15 -0.51058052D-14
  0.18928626D-04  0.35385966D-04  0.61157997D-04  0.98920315D-04  0.14951226D-03
  0.20590292D-03  0.24065278D-03  0.20794216D-03  0.96984962D-04  0.13168463D-04
  0.35261898D-07  0.69169268D-07  0.31578660D-08 -0.36048990D-04 -0.67323024D-04
 -0.11678220D-03 -0.18935830D-03 -0.29153867D-03 -0.41521654D-03 -0.53391458D-03
 -0.56045143D-03 -0.39627887D-03  0.87757616D-05  0.28473149D-03  0.15678089D-03
 -0.66302372D-06  0.19490442D-04  0.36372048D-04  0.63173894D-04  0.10232769D-03
  0.15806634D-03  0.22534731D-03  0.29310324D-03  0.31236905D-03  0.23167763D-03
 -0.72112643D-05 -0.20988786D-03 -0.20561766D-03  0.96035643D-04 -0.31159683D-03
  0.10769757D-02  0.29395477D-03 -0.97096509D-04 -0.12738533D-03 -0.13972229D-03
 -0.11496572D-03 -0.60612200D-04 -0.15768430D-04  0.17449375D-07  0.12833086D-01
  0.16836310D-01  0.18466865D-01  0.15194830D-01  0.80110146D-02  0.20840874D-02
 -0.23062552D-05  0.31668525D-13  0.41547380D-13  0.45571144D-13  0.37496659D-13
  0.19768980D-13  0.51429543D-14 -0.56912033D-17  0.85602865D-04  0.11239708D-03
  0.12645430D-03  0.10654731D-03  0.59601069D-04  0.14834585D-04 -0.68038554D-05
 -0.12177651D-01 -0.15989330D-01 -0.17989074D-01 -0.15157155D-01 -0.84786999D-02
 -0.21103311D-02  0.96789955D-03 -0.25896531D-13 -0.34002303D-13 -0.38254883D-13
 -0.32232632D-13 -0.18030482D-13 -0.44877503D-14  0.20582985D-14 -0.12101891D-06
 -0.46056979D-03 -0.27417520D-14 -0.70099190D-05  0.50049295D-03 -0.74723581D-15
 -0.24604992D-05  0.16029583D-04 -0.17237845D-15 -0.16463240D-03  0.32708253D-03
 -0.16245013D-03  0.72003981D-04 -0.44379016D-15  0.13893846D-14 -0.81670191D-04
  0.17035157D-03 -0.88681375D-04 -0.51425553D-04  0.62863309D-15 -0.31827346D-14
 -0.21321711D-04  0.37689974D-04 -0.16368264D-04  0.13560598D-04  0.53557772D-15
 -0.50175505D-15  0.13895727D-04  0.89998810D-04  0.30326853D-15 -0.24917038D-04
 -0.11357446D-03 -0.44060638D-15 -0.16770143D-04 -0.15642197D-03 -0.46919922D-15
  0.57242031D-16 -0.11131890D-04  0.24664997D-04 -0.51222410D-16  0.28774066D-04
 -0.30612581D-04  0.15693292D-15  0.46216044D-05 -0.43382409D-04 -0.32656917D-17
  0.10985915D-15  0.12046442D-04  0.21726254D-04  0.32035349D-04  0.42412283D-04
  0.53852966D-04  0.12674334D-04  0.48905025D-05  0.53780780D-04 -0.60516918D-15
 -0.89654151D-05 -0.75723096D-04  0.33689998D-15 -0.21803599D-04 -0.17822883D-04
 -0.45978402D-15 -0.43379092D-05 -0.54253116D-04  0.58591025D-04  0.19925591D-03
 -0.13316441D-15 -0.95037738D-15  0.17262890D-04 -0.24654088D-04  0.73911983D-05
 -0.68122439D-05 -0.60098735D-16  0.39415605D-15  0.38153459D-04  0.68811334D-04
  0.10146227D-03 -0.91337635D-06 -0.52072034D-03 -0.76150062D-05 -0.60254653D-03
  0.16609321D-03  0.39107738D-16 -0.30954933D-03  0.24808838D-03 -0.42068571D-14
 -0.10153214D-03  0.67824827D-04 -0.49206572D-14 -0.43508324D-03  0.17889243D-03
  0.25619081D-03  0.53486473D-03 -0.66475050D-15  0.76074878D-15 -0.35386988D-04
  0.79314719D-05  0.27455516D-04  0.80822792D-04 -0.23155167D-14  0.94594764D-15
  0.39191017D-04  0.70682614D-04  0.10422147D-03 -0.13961225D-03 -0.48623413D-03
 -0.15836219D-04  0.27429396D-03  0.21975317D-03  0.52415518D-03  0.18015497D-03
  0.28626981D-03  0.32909034D-03  0.37699087D-04  0.86636392D-04  0.86838020D-04
  0.13715916D-03  0.11852903D-03 -0.25568819D-03 -0.30075489D-03 -0.53825808D-03
 -0.56846329D-03  0.17413670D-04 -0.24272352D-05 -0.14986435D-04 -0.35826691D-04
 -0.52297129D-04 -0.73745111D-04  0.39191017D-04  0.70682614D-04  0.10422147D-03
 -0.13961225D-03 -0.48623413D-03 -0.15836220D-04  0.27429396D-03  0.21975317D-03
 -0.52415518D-03  0.18015497D-03  0.28626981D-03 -0.32909034D-03  0.37699087D-04
  0.86636392D-04 -0.86838020D-04  0.13715916D-03  0.11852903D-03 -0.25568819D-03
 -0.30075489D-03  0.53825808D-03  0.56846329D-03  0.17413670D-04 -0.24272352D-05
 -0.14986435D-04 -0.35826691D-04  0.52297129D-04  0.73745111D-04
MO    3     MO 0.0        OCC NO =    2.0000000  ORB. ENERGY =   -8.955814
 -0.34894314D-04 -0.65050936D-04 -0.10994754D-03 -0.16528717D-03 -0.20307438D-03
 -0.17152878D-03 -0.64694345D-04  0.32017592D-06 -0.75121835D-05 -0.14065178D-04
 -0.23947169D-04 -0.37042629D-04 -0.48783839D-04 -0.50689533D-04 -0.32210923D-04
  0.21587011D-04 -0.17454802D-03  0.13085860D-02  0.14853229D-03  0.30048545D-04
  0.28172421D-04  0.20060442D-04 -0.17336965D-03 -0.16254506D-03 -0.11574177D-03
 -0.30740549D-14 -0.28821219D-14 -0.20522425D-14 -0.24079204D-04 -0.30634273D-03
  0.13559316D-13 -0.18632413D-03 -0.12147138D-03  0.15420374D-13 -0.52969103D-05
 -0.11629442D-04  0.31731678D-15 -0.15438137D-03  0.25608572D-03 -0.10170435D-03
  0.22359094D-04  0.15965922D-14  0.15974470D-14  0.73534492D-04 -0.82266993D-04
  0.87325012D-05 -0.16120739D-04  0.91460872D-14  0.69647563D-14  0.12395417D-04
  0.26374484D-05 -0.15032865D-04  0.15125057D-04  0.20917138D-14  0.13273223D-14
 -0.40542371D-04  0.94100167D-05  0.31774203D-15  0.30278908D-04  0.14915769D-04
 -0.21104159D-15  0.91348204D-04 -0.43145820D-04 -0.74218450D-15  0.47732787D-14
 -0.41872309D-04 -0.71227055D-06 -0.43778837D-17  0.14849531D-04 -0.55903164D-05
 -0.73185197D-16  0.11076740D-03  0.77271280D-05  0.86318848D-16  0.15128168D-14
 -0.16233084D-03 -0.30346808D-03 -0.52448759D-03 -0.84833514D-03 -0.12822089D-02
 -0.17658120D-02 -0.20638249D-02 -0.17833004D-02 -0.83173766D-03 -0.11293201D-03
 -0.30240409D-06 -0.59319181D-06 -0.27081684D-07 -0.16127985D+00 -0.30119699D+00
 -0.52247278D+00 -0.84717155D+00 -0.13043170D+01 -0.18576404D+01 -0.23886845D+01
 -0.25074079D+01 -0.17729151D+01  0.39261946D-01  0.12738624D+01  0.70142320D+00
 -0.29663068D-02 -0.80006743D-04 -0.14930442D-03 -0.25932390D-03 -0.42004718D-03
 -0.64884997D-03 -0.92503312D-03 -0.12031659D-02 -0.12822506D-02 -0.95101857D-03
  0.29601677D-04  0.86157328D-03  0.84404445D-03 -0.39421882D-03  0.41375365D-01
  0.49935400D-03 -0.63535730D-04  0.33944302D-01  0.44533075D-01  0.48845996D-01
  0.40191259D-01  0.21189627D-01  0.55125394D-02 -0.61001869D-05  0.31203844D-01
  0.40937744D-01  0.44902465D-01  0.36946460D-01  0.19478904D-01  0.50674902D-02
 -0.56076946D-05 -0.17114529D-13 -0.22453330D-13 -0.24627881D-13 -0.20264211D-13
 -0.10683693D-13 -0.27793918D-14  0.30756804D-17  0.40089550D-02  0.52637823D-02
  0.59221100D-02  0.49898254D-02  0.27912384D-02  0.69473355D-03 -0.31863828D-03
  0.45315850D-02  0.59499987D-02  0.66941497D-02  0.56403273D-02  0.31551200D-02
  0.78530294D-03 -0.36017777D-03  0.13771224D-13  0.18081701D-13  0.20343133D-13
  0.17140627D-13  0.95882266D-14  0.23864901D-14 -0.10945593D-14  0.15953050D-02
  0.15875738D-02  0.14351387D-14  0.21926823D-03 -0.16831016D-03  0.70973824D-15
  0.69987921D-05 -0.79928824D-05  0.39594057D-16 -0.31714111D-04 -0.12016586D-03
  0.15187997D-03  0.85069288D-04  0.21722360D-15 -0.73763807D-15  0.37302526D-03
  0.40759410D-03 -0.78061936D-03 -0.54019384D-03 -0.25689987D-15  0.15582026D-14
  0.23660159D-04 -0.18117904D-04 -0.55422549D-05  0.54233322D-05 -0.20425250D-15
  0.28126831D-15  0.57449956D-04  0.27085694D-04 -0.15401414D-15 -0.97200533D-04
 -0.71482869D-04  0.17140938D-15 -0.75149336D-04 -0.97742146D-05  0.29063304D-15
  0.16748926D-16 -0.87261380D-05 -0.10918995D-04  0.23584467D-16  0.20906015D-04
  0.15504614D-04 -0.19620036D-16  0.52723989D-05  0.17252371D-04 -0.51133366D-16
 -0.79996964D-16  0.66772171D-04  0.12042636D-03  0.17756860D-03  0.21771912D-03
 -0.51387381D-03 -0.19140428D-04  0.76046344D-05  0.23521455D-04  0.38861936D-15
 -0.67273648D-04  0.27386394D-05 -0.30704171D-15  0.91404209D-04 -0.15505332D-04
  0.99433424D-16 -0.29253081D-03  0.15306828D-03  0.13946252D-03  0.22970481D-04
  0.29802550D-17  0.49154208D-15  0.51355937D-06 -0.21293899D-06 -0.30062038D-06
  0.16119409D-05  0.98908877D-16 -0.19998417D-15 -0.58207152D-06 -0.10497900D-05
 -0.15479147D-05 -0.55827978D-03 -0.45092254D-03 -0.87579258D-05 -0.86222125D-04
  0.53938977D-04  0.82089655D-15 -0.65561735D-04  0.17133490D-03  0.58181468D-15
 -0.41989249D-04  0.42318434D-04  0.14684757D-14  0.49950073D-04 -0.75830297D-04
  0.25880224D-04  0.14048040D-03  0.23610945D-15 -0.24112382D-15  0.20104641D-04
 -0.15243651D-04 -0.48609897D-05 -0.19076606D-04  0.55201152D-15 -0.52072331D-15
  0.62634356D-05  0.11296364D-04  0.16656482D-04 -0.37028235D-03 -0.42885202D-04
  0.64865628D-05 -0.82684972D-06 -0.27540969D-04  0.29870000D-04  0.14189689D-04
  0.19037580D-03  0.38231017D-04 -0.13647437D-04  0.50581793D-05  0.91222242D-05
  0.57270124D-04 -0.10034478D-03  0.43074657D-04 -0.39431742D-04  0.71946620D-05
 -0.12898568D-03  0.14840800D-04 -0.30970371D-04  0.16129571D-04  0.13127795D-05
  0.95050877D-05  0.17023217D-05  0.62634356D-05  0.11296364D-04  0.16656482D-04
 -0.37028235D-03 -0.42885202D-04  0.64865628D-05 -0.82684972D-06 -0.27540969D-04
 -0.29870000D-04  0.14189689D-04  0.19037580D-03 -0.38231017D-04 -0.13647437D-04
  0.50581793D-05 -0.91222242D-05  0.57270124D-04 -0.10034478D-03  0.43074657D-04
 -0.39431742D-04 -0.71946621D-05  0.12898568D-03  0.14840800D-04 -0.30970371D-04
  0.16129571D-04  0.13127795D-05 -0.95050877D-05 -0.17023217D-05
MO    4     MO 0.0        OCC NO =    2.0000000  ORB. ENERGY =   -6.637166
  0.74673788D-04  0.13920892D-03  0.23528760D-03  0.35371433D-03  0.43457892D-03
  0.36707137D-03  0.13844582D-03 -0.68517607D-06 -0.27827747D-04 -0.52102322D-04
 -0.88708661D-04 -0.13721881D-03 -0.18071235D-03 -0.18777170D-03 -0.11932049D-03
  0.79965816D-04  0.45690873D-03 -0.34170375D-02 -0.20778905D-03  0.80175755D-04
  0.75169866D-04  0.53525423D-04  0.32367846D-04  0.30346913D-04  0.21608810D-04
 -0.57701523D-15 -0.54098846D-15 -0.38521601D-15 -0.23088199D-03  0.72621042D-03
  0.11194987D-14  0.41624823D-03  0.26991896D-03 -0.19623888D-14 -0.70161207D-06
  0.16958865D-04 -0.92278570D-16  0.19702805D-03 -0.36486649D-03  0.16783845D-03
  0.52790013D-04  0.40324422D-15  0.44635427D-15  0.56013004D-05  0.78130236D-05
 -0.13414324D-04 -0.15535185D-03  0.77309702D-15  0.25905123D-15 -0.36274184D-04
 -0.21602643D-04  0.57876827D-04  0.30244583D-04 -0.25574527D-15 -0.21423497D-15
  0.29361806D-04 -0.57593922D-04  0.20496840D-16 -0.34957321D-04  0.10151466D-03
  0.78368117D-17 -0.53128096D-04  0.71267110D-04 -0.69327331D-16  0.57199169D-15
  0.57932434D-04  0.44166215D-04  0.58893139D-17  0.15050495D-03 -0.10531894D-03
  0.29013630D-16 -0.32430225D-03 -0.27179706D-04 -0.46681572D-16  0.25980375D-15
 -0.94457869D-04 -0.17658350D-03 -0.30519141D-03 -0.49363342D-03 -0.74609801D-03
 -0.10274994D-02 -0.12009086D-02 -0.10376756D-02 -0.48397559D-03 -0.65713430D-04
 -0.17596438D-06 -0.34516936D-06 -0.15758423D-07  0.27278575D-03  0.50943900D-03
  0.88370078D-03  0.14328903D-02  0.22060977D-02  0.31419786D-02  0.40401766D-02
  0.42409832D-02  0.29986757D-02 -0.66406928D-04 -0.21545872D-02 -0.11863742D-02
  0.50171564D-05 -0.68652845D-04 -0.12811637D-03 -0.22252279D-03 -0.36043755D-03
 -0.55677053D-03 -0.79376005D-03 -0.10324225D-02 -0.11002841D-02 -0.81605786D-03
  0.25400851D-04  0.73930591D-03  0.72426462D-03 -0.33827453D-03  0.17878503D-03
  0.89646213D-03  0.16332372D-03  0.74234614D+01  0.97391772D+01  0.10682393D+02
  0.87896422D+01  0.46340732D+01  0.12055668D+01 -0.13340826D-02 -0.62016375D+01
 -0.81362107D+01 -0.89241830D+01 -0.73429592D+01 -0.38713533D+01 -0.10071432D+01
  0.11145066D-02  0.49857760D-12  0.65410666D-12  0.71745531D-12  0.59033360D-12
  0.31123555D-12  0.80968780D-13 -0.89600210D-16  0.20173309D-01  0.26487677D-01
  0.29800423D-01  0.25109109D-01  0.14045684D-01  0.34959421D-02 -0.16034075D-02
 -0.19809547D-01 -0.26010055D-01 -0.29263066D-01 -0.24656346D-01 -0.13792414D-01
 -0.34329038D-02  0.15744951D-02 -0.35237083D-14 -0.46266504D-14 -0.52052936D-14
 -0.43858535D-14 -0.24533849D-14 -0.61064251D-15  0.28007008D-15  0.59269794D-01
 -0.50179841D-01  0.33427522D-14  0.19485023D-03  0.14626987D-03 -0.16543254D-15
 -0.28559145D-05  0.60694330D-05 -0.51642441D-17 -0.61180248D-03  0.58152112D-03
  0.30281361D-04 -0.68800976D-04 -0.19917808D-17  0.20006460D-15  0.13505014D-02
 -0.12618644D-02 -0.88637020D-04  0.17114715D-03  0.64394836D-16 -0.17698805D-15
  0.63053769D-05  0.10313149D-05 -0.73366918D-05  0.32993784D-04  0.26954833D-16
 -0.72062080D-16  0.36845374D-04  0.54325083D-04 -0.82243072D-17 -0.58055030D-04
 -0.17131732D-03 -0.46685406D-16 -0.52481092D-04  0.83420738D-05  0.71358328D-16
 -0.50141168D-16 -0.46411616D-04  0.18815837D-04 -0.49321260D-17  0.57705747D-04
 -0.15928371D-04  0.19483047D-17  0.81529101D-04 -0.40519141D-04  0.12848073D-16
  0.45886852D-16  0.79320955D-04  0.14305861D-03  0.21093984D-03  0.15643455D-02
 -0.27421785D-03  0.95652824D-05  0.29196539D-03 -0.12489015D-04 -0.63584767D-16
 -0.83898042D-03  0.10884448D-03  0.55295758D-16  0.61455014D-04 -0.24856328D-04
 -0.26612568D-16 -0.48230535D-03  0.18090464D-03  0.30140071D-03  0.71611343D-04
  0.41436232D-16 -0.20910964D-16  0.12904788D-04 -0.17693457D-04  0.47886690D-05
  0.47973749D-04 -0.17382209D-16 -0.13583132D-16 -0.24109635D-04 -0.43482720D-04
 -0.64115246D-04  0.10166022D-02  0.16200307D-02  0.89936169D-06  0.34534283D-04
 -0.13655327D-03 -0.35305720D-15  0.10146894D-03 -0.10211303D-03  0.59796469D-15
  0.23868588D-03 -0.91291469D-04 -0.13658600D-15 -0.14287770D-03  0.21975718D-03
 -0.76879476D-04 -0.20537352D-03  0.26993293D-15 -0.36410537D-16 -0.40937501D-04
  0.73002101D-04 -0.32064600D-04  0.93161748D-04  0.12562477D-15  0.60375040D-16
 -0.92998891D-05 -0.16772733D-04 -0.24731385D-04  0.99413419D-03 -0.68888409D-04
  0.92853803D-06 -0.82158514D-05  0.40767367D-04 -0.50034566D-04  0.80210374D-05
 -0.41242943D-03 -0.12102724D-03  0.66236718D-04 -0.31556893D-04 -0.36841465D-04
 -0.96387492D-04  0.15467098D-03 -0.58283489D-04  0.14534814D-03 -0.61121205D-04
  0.15863600D-03 -0.14721919D-04  0.37413413D-04 -0.22691494D-04 -0.33502100D-04
 -0.23206090D-04  0.15072658D-04 -0.92998891D-05 -0.16772733D-04 -0.24731385D-04
  0.99413419D-03 -0.68888409D-04  0.92853802D-06 -0.82158514D-05  0.40767367D-04
  0.50034566D-04  0.80210374D-05 -0.41242943D-03  0.12102724D-03  0.66236718D-04
 -0.31556893D-04  0.36841465D-04 -0.96387492D-04  0.15467098D-03 -0.58283489D-04
  0.14534814D-03  0.61121205D-04 -0.15863600D-03 -0.14721919D-04  0.37413413D-04
 -0.22691494D-04 -0.33502100D-04  0.23206090D-04 -0.15072658D-04
MO    5     MO 0.0        OCC NO =    2.0000000  ORB. ENERGY =   -6.636186
 -0.11240854D-03 -0.20955508D-03 -0.35418501D-03 -0.53245609D-03 -0.65418382D-03
 -0.55256282D-03 -0.20840636D-03  0.10314147D-05  0.47531891D-04  0.88994698D-04
  0.15152109D-03  0.23438008D-03  0.30867033D-03  0.32072824D-03  0.20380840D-03
 -0.13658765D-03 -0.53919325D-03  0.44947240D-02  0.22106897D-03  0.93220430D-04
  0.87400078D-04  0.62234063D-04 -0.25567585D-03 -0.23971236D-03 -0.17068948D-03
  0.32965142D-15  0.30906916D-15  0.22007566D-15 -0.27211673D-03 -0.31872736D-03
 -0.81912912D-15  0.26836936D-03 -0.40466181D-03  0.34826803D-14  0.27999347D-05
 -0.74384671D-05  0.10726493D-15 -0.13857267D-03  0.28620974D-03 -0.14763708D-03
  0.22034758D-03 -0.61495589D-15 -0.40958120D-15  0.17228624D-03 -0.20962120D-03
  0.37334967D-04 -0.43890556D-03 -0.32311143D-15  0.19225781D-16 -0.28684746D-04
  0.16793134D-04  0.11891612D-04 -0.80634596D-05  0.49128771D-15  0.43519097D-15
 -0.67292609D-04  0.31476975D-04  0.55941902D-17  0.16995577D-04  0.18257923D-05