 Molden2AIM, Version 4.0.0 (06/02/2016)           Time: Wed Jun 27 23:56:32 2018
GAUSSIAN             13 MOL ORBITALS    368 PRIMITIVES        8 NUCLEI
  C    1    (CENTRE  1)  -0.00000567  0.00000000 -2.35967645  CHARGE =  6.0
  Si   2    (CENTRE  2)  -0.00001323  0.00000000  1.20537315  CHARGE = 14.0
  H    3    (CENTRE  3)  -1.94134210  0.00000000 -3.09774678  CHARGE =  1.0
  H    4    (CENTRE  4)   0.97067672  1.68125532 -3.09771087  CHARGE =  1.0
  H    5    (CENTRE  5)   0.97067672 -1.68125532 -3.09771087  CHARGE =  1.0
  H    6    (CENTRE  6)   2.65185078  0.00000000  2.20256839  CHARGE =  1.0
  H    7    (CENTRE  7)  -1.32593011  2.29657471  2.20260241  CHARGE =  1.0
  H    8    (CENTRE  8)  -1.32593011 -2.29657471  2.20260241  CHARGE =  1.0
CENTRE ASSIGNMENTS    1  1  1  1  1  1  1  1  1  1  1  1  1  1  1  1  1  1  1  1
CENTRE ASSIGNMENTS    1  1  1  1  1  1  1  1  1  1  1  1  1  1  1  1  1  1  1  1
CENTRE ASSIGNMENTS    1  1  1  1  1  1  1  1  1  1  1  1  1  1  1  1  1  1  1  1
CENTRE ASSIGNMENTS    1  1  1  1  1  1  1  1  1  1  1  1  1  1  1  2  2  2  2  2
CENTRE ASSIGNMENTS    2  2  2  2  2  2  2  2  2  2  2  2  2  2  2  2  2  2  2  2
CENTRE ASSIGNMENTS    2  2  2  2  2  2  2  2  2  2  2  2  2  2  2  2  2  2  2  2
CENTRE ASSIGNMENTS    2  2  2  2  2  2  2  2  2  2  2  2  2  2  2  2  2  2  2  2
CENTRE ASSIGNMENTS    2  2  2  2  2  2  2  2  2  2  2  2  2  2  2  2  2  2  2  2
CENTRE ASSIGNMENTS    2  2  2  2  2  2  2  2  2  2  2  2  2  2  2  2  2  2  2  2
CENTRE ASSIGNMENTS    2  2  2  2  2  2  2  2  2  2  2  2  2  2  2  2  2  2  2  2
CENTRE ASSIGNMENTS    2  2  2  2  2  2  3  3  3  3  3  3  3  3  3  3  3  3  3  3
CENTRE ASSIGNMENTS    3  3  3  3  3  3  3  3  3  3  3  3  3  4  4  4  4  4  4  4
CENTRE ASSIGNMENTS    4  4  4  4  4  4  4  4  4  4  4  4  4  4  4  4  4  4  4  4
CENTRE ASSIGNMENTS    5  5  5  5  5  5  5  5  5  5  5  5  5  5  5  5  5  5  5  5
CENTRE ASSIGNMENTS    5  5  5  5  5  5  5  6  6  6  6  6  6  6  6  6  6  6  6  6
CENTRE ASSIGNMENTS    6  6  6  6  6  6  6  6  6  6  6  6  6  6  7  7  7  7  7  7
CENTRE ASSIGNMENTS    7  7  7  7  7  7  7  7  7  7  7  7  7  7  7  7  7  7  7  7
CENTRE ASSIGNMENTS    7  8  8  8  8  8  8  8  8  8  8  8  8  8  8  8  8  8  8  8
CENTRE ASSIGNMENTS    8  8  8  8  8  8  8  8
TYPE ASSIGNMENTS      1  1  1  1  1  1  1  1  1  1  1  1  1  1  1  1  1  1  1  2
TYPE ASSIGNMENTS      2  2  3  3  3  4  4  4  2  3  4  2  3  4  2  3  4  5  6  7
TYPE ASSIGNMENTS      8  9 10  5  6  7  8  9 10  5  6  7  8  9 10 11 12 13 17 14
TYPE ASSIGNMENTS     15 18 19 16 20 11 12 13 17 14 15 18 19 16 20  1  1  1  1  1
TYPE ASSIGNMENTS      1  1  1  1  1  1  1  1  1  1  1  1  1  1  1  1  1  1  1  1
TYPE ASSIGNMENTS      1  1  1  1  1  1  1  1  1  1  1  1  1  1  1  1  1  2  2  2
TYPE ASSIGNMENTS      2  2  2  2  3  3  3  3  3  3  3  4  4  4  4  4  4  4  2  2
TYPE ASSIGNMENTS      2  2  2  2  2  3  3  3  3  3  3  3  4  4  4  4  4  4  4  2
TYPE ASSIGNMENTS      3  4  2  3  4  2  3  4  5  6  7  8  9 10  5  6  7  8  9 10
TYPE ASSIGNMENTS      5  6  7  8  9 10 11 12 13 17 14 15 18 19 16 20 11 12 13 17
TYPE ASSIGNMENTS     14 15 18 19 16 20  1  1  1  1  1  1  2  3  4  2  3  4  2  3
TYPE ASSIGNMENTS      4  5  6  7  8  9 10  5  6  7  8  9 10  1  1  1  1  1  1  2
TYPE ASSIGNMENTS      3  4  2  3  4  2  3  4  5  6  7  8  9 10  5  6  7  8  9 10
TYPE ASSIGNMENTS      1  1  1  1  1  1  2  3  4  2  3  4  2  3  4  5  6  7  8  9
TYPE ASSIGNMENTS     10  5  6  7  8  9 10  1  1  1  1  1  1  2  3  4  2  3  4  2
TYPE ASSIGNMENTS      3  4  5  6  7  8  9 10  5  6  7  8  9 10  1  1  1  1  1  1
TYPE ASSIGNMENTS      2  3  4  2  3  4  2  3  4  5  6  7  8  9 10  5  6  7  8  9
TYPE ASSIGNMENTS     10  1  1  1  1  1  1  2  3  4  2  3  4  2  3  4  5  6  7  8
TYPE ASSIGNMENTS      9 10  5  6  7  8  9 10
EXPONENTS  0.8236000D+04 0.1235000D+04 0.2808000D+03 0.7927000D+02 0.2559000D+02
EXPONENTS  0.8997000D+01 0.3319000D+01 0.3643000D+00 0.8236000D+04 0.1235000D+04
EXPONENTS  0.2808000D+03 0.7927000D+02 0.2559000D+02 0.8997000D+01 0.3319000D+01
EXPONENTS  0.3643000D+00 0.9059000D+00 0.1285000D+00 0.4402000D-01 0.1871000D+02
EXPONENTS  0.4133000D+01 0.1200000D+01 0.1871000D+02 0.4133000D+01 0.1200000D+01
EXPONENTS  0.1871000D+02 0.4133000D+01 0.1200000D+01 0.3827000D+00 0.3827000D+00
EXPONENTS  0.3827000D+00 0.1209000D+00 0.1209000D+00 0.1209000D+00 0.3569000D-01
EXPONENTS  0.3569000D-01 0.3569000D-01 0.1097000D+01 0.1097000D+01 0.1097000D+01
EXPONENTS  0.1097000D+01 0.1097000D+01 0.1097000D+01 0.3180000D+00 0.3180000D+00
EXPONENTS  0.3180000D+00 0.3180000D+00 0.3180000D+00 0.3180000D+00 0.1000000D+00
EXPONENTS  0.1000000D+00 0.1000000D+00 0.1000000D+00 0.1000000D+00 0.1000000D+00
EXPONENTS  0.7610000D+00 0.7610000D+00 0.7610000D+00 0.7610000D+00 0.7610000D+00
EXPONENTS  0.7610000D+00 0.7610000D+00 0.7610000D+00 0.7610000D+00 0.7610000D+00
EXPONENTS  0.2680000D+00 0.2680000D+00 0.2680000D+00 0.2680000D+00 0.2680000D+00
EXPONENTS  0.2680000D+00 0.2680000D+00 0.2680000D+00 0.2680000D+00 0.2680000D+00
EXPONENTS  0.2549000D+06 0.3819000D+05 0.8690000D+04 0.2462000D+04 0.8048000D+03
EXPONENTS  0.2913000D+03 0.1136000D+03 0.4675000D+02 0.1982000D+02 0.7708000D+01
EXPONENTS  0.3340000D+01 0.1402000D+01 0.2070000D+00 0.2549000D+06 0.3819000D+05
EXPONENTS  0.8690000D+04 0.2462000D+04 0.8048000D+03 0.2913000D+03 0.1136000D+03
EXPONENTS  0.4675000D+02 0.1982000D+02 0.7708000D+01 0.3340000D+01 0.1402000D+01
EXPONENTS  0.2070000D+00 0.2549000D+06 0.3819000D+05 0.8690000D+04 0.2462000D+04
EXPONENTS  0.8048000D+03 0.2913000D+03 0.1136000D+03 0.4675000D+02 0.1982000D+02
EXPONENTS  0.7708000D+01 0.3340000D+01 0.1402000D+01 0.2070000D+00 0.4387000D+00
EXPONENTS  0.7944000D-01 0.3300000D-01 0.4815000D+03 0.1139000D+03 0.3623000D+02
EXPONENTS  0.1334000D+02 0.5252000D+01 0.2120000D+01 0.2528000D+00 0.4815000D+03
EXPONENTS  0.1139000D+03 0.3623000D+02 0.1334000D+02 0.5252000D+01 0.2120000D+01
EXPONENTS  0.2528000D+00 0.4815000D+03 0.1139000D+03 0.3623000D+02 0.1334000D+02
EXPONENTS  0.5252000D+01 0.2120000D+01 0.2528000D+00 0.4815000D+03 0.1139000D+03
EXPONENTS  0.3623000D+02 0.1334000D+02 0.5252000D+01 0.2120000D+01 0.2528000D+00
EXPONENTS  0.4815000D+03 0.1139000D+03 0.3623000D+02 0.1334000D+02 0.5252000D+01
EXPONENTS  0.2120000D+01 0.2528000D+00 0.4815000D+03 0.1139000D+03 0.3623000D+02
EXPONENTS  0.1334000D+02 0.5252000D+01 0.2120000D+01 0.2528000D+00 0.8561000D+00
EXPONENTS  0.8561000D+00 0.8561000D+00 0.7889000D-01 0.7889000D-01 0.7889000D-01
EXPONENTS  0.2370000D-01 0.2370000D-01 0.2370000D-01 0.1590000D+00 0.1590000D+00
EXPONENTS  0.1590000D+00 0.1590000D+00 0.1590000D+00 0.1590000D+00 0.4810000D+00
EXPONENTS  0.4810000D+00 0.4810000D+00 0.4810000D+00 0.4810000D+00 0.4810000D+00
EXPONENTS  0.5560000D-01 0.5560000D-01 0.5560000D-01 0.5560000D-01 0.5560000D-01
EXPONENTS  0.5560000D-01 0.3360000D+00 0.3360000D+00 0.3360000D+00 0.3360000D+00
EXPONENTS  0.3360000D+00 0.3360000D+00 0.3360000D+00 0.3360000D+00 0.3360000D+00
EXPONENTS  0.3360000D+00 0.1250000D+00 0.1250000D+00 0.1250000D+00 0.1250000D+00
EXPONENTS  0.1250000D+00 0.1250000D+00 0.1250000D+00 0.1250000D+00 0.1250000D+00
EXPONENTS  0.1250000D+00 0.3387000D+02 0.5095000D+01 0.1159000D+01 0.3258000D+00
EXPONENTS  0.1027000D+00 0.2526000D-01 0.1407000D+01 0.1407000D+01 0.1407000D+01
EXPONENTS  0.3880000D+00 0.3880000D+00 0.3880000D+00 0.1020000D+00 0.1020000D+00
EXPONENTS  0.1020000D+00 0.1057000D+01 0.1057000D+01 0.1057000D+01 0.1057000D+01
EXPONENTS  0.1057000D+01 0.1057000D+01 0.2470000D+00 0.2470000D+00 0.2470000D+00
EXPONENTS  0.2470000D+00 0.2470000D+00 0.2470000D+00 0.3387000D+02 0.5095000D+01
EXPONENTS  0.1159000D+01 0.3258000D+00 0.1027000D+00 0.2526000D-01 0.1407000D+01
EXPONENTS  0.1407000D+01 0.1407000D+01 0.3880000D+00 0.3880000D+00 0.3880000D+00
EXPONENTS  0.1020000D+00 0.1020000D+00 0.1020000D+00 0.1057000D+01 0.1057000D+01
EXPONENTS  0.1057000D+01 0.1057000D+01 0.1057000D+01 0.1057000D+01 0.2470000D+00
EXPONENTS  0.2470000D+00 0.2470000D+00 0.2470000D+00 0.2470000D+00 0.2470000D+00
EXPONENTS  0.3387000D+02 0.5095000D+01 0.1159000D+01 0.3258000D+00 0.1027000D+00
EXPONENTS  0.2526000D-01 0.1407000D+01 0.1407000D+01 0.1407000D+01 0.3880000D+00
EXPONENTS  0.3880000D+00 0.3880000D+00 0.1020000D+00 0.1020000D+00 0.1020000D+00
EXPONENTS  0.1057000D+01 0.1057000D+01 0.1057000D+01 0.1057000D+01 0.1057000D+01
EXPONENTS  0.1057000D+01 0.2470000D+00 0.2470000D+00 0.2470000D+00 0.2470000D+00
EXPONENTS  0.2470000D+00 0.2470000D+00 0.3387000D+02 0.5095000D+01 0.1159000D+01
EXPONENTS  0.3258000D+00 0.1027000D+00 0.2526000D-01 0.1407000D+01 0.1407000D+01
EXPONENTS  0.1407000D+01 0.3880000D+00 0.3880000D+00 0.3880000D+00 0.1020000D+00
EXPONENTS  0.1020000D+00 0.1020000D+00 0.1057000D+01 0.1057000D+01 0.1057000D+01
EXPONENTS  0.1057000D+01 0.1057000D+01 0.1057000D+01 0.2470000D+00 0.2470000D+00
EXPONENTS  0.2470000D+00 0.2470000D+00 0.2470000D+00 0.2470000D+00 0.3387000D+02
EXPONENTS  0.5095000D+01 0.1159000D+01 0.3258000D+00 0.1027000D+00 0.2526000D-01
EXPONENTS  0.1407000D+01 0.1407000D+01 0.1407000D+01 0.3880000D+00 0.3880000D+00
EXPONENTS  0.3880000D+00 0.1020000D+00 0.1020000D+00 0.1020000D+00 0.1057000D+01
EXPONENTS  0.1057000D+01 0.1057000D+01 0.1057000D+01 0.1057000D+01 0.1057000D+01
EXPONENTS  0.2470000D+00 0.2470000D+00 0.2470000D+00 0.2470000D+00 0.2470000D+00
EXPONENTS  0.2470000D+00 0.3387000D+02 0.5095000D+01 0.1159000D+01 0.3258000D+00
EXPONENTS  0.1027000D+00 0.2526000D-01 0.1407000D+01 0.1407000D+01 0.1407000D+01
EXPONENTS  0.3880000D+00 0.3880000D+00 0.3880000D+00 0.1020000D+00 0.1020000D+00
EXPONENTS  0.1020000D+00 0.1057000D+01 0.1057000D+01 0.1057000D+01 0.1057000D+01
EXPONENTS  0.1057000D+01 0.1057000D+01 0.2470000D+00 0.2470000D+00 0.2470000D+00
EXPONENTS  0.2470000D+00 0.2470000D+00 0.2470000D+00
MO    1     MO 0.0        OCC NO =    2.0000000  ORB. ENERGY =  -68.771648
 -0.26905182D-05 -0.50157376D-05 -0.84774801D-05 -0.12744429D-04 -0.15658004D-04
 -0.13225688D-04 -0.49882427D-05  0.24687092D-07  0.21549862D-05  0.40348141D-05
  0.68696163D-05  0.10626252D-04  0.13994400D-04  0.14541078D-04  0.92402022D-05
 -0.61925686D-05  0.56202658D-05 -0.10484963D-03 -0.48924297D-05  0.21926746D-09
  0.20557718D-09  0.14638320D-09 -0.15285953D-15 -0.14331552D-15 -0.10204919D-15
 -0.19593704D-04 -0.18370343D-04 -0.13080779D-04  0.35588871D-09  0.67218790D-15
 -0.85112081D-06 -0.11284123D-08  0.55251863D-15  0.12727796D-04  0.67282420D-11
 -0.44236289D-16 -0.11976632D-05  0.12707898D-04  0.12708514D-04 -0.25416412D-04
  0.51525831D-16  0.37295641D-09 -0.16719806D-15 -0.19413464D-04 -0.19413952D-04
  0.38827415D-04  0.51488666D-15 -0.81790651D-09 -0.25577258D-15 -0.95886881D-06
 -0.95901933D-06  0.19178881D-05  0.89098505D-16 -0.23250148D-09 -0.89492915D-16
  0.43248855D-05  0.20942978D-16  0.40864370D-05 -0.12974782D-04 -0.11063946D-16
 -0.61295836D-05  0.12597960D-09 -0.51764989D-16 -0.61297272D-05 -0.30872699D-15
  0.60394718D-05 -0.36036682D-17  0.44569899D-05 -0.18118142D-04  0.11740178D-16
 -0.66854436D-05 -0.27297084D-09 -0.92917338D-18 -0.66855262D-05 -0.37865310D-16
  0.50541460D+00  0.94540761D+00  0.16326765D+01  0.26371981D+01  0.39715660D+01
  0.54013111D+01  0.61488450D+01  0.49814077D+01  0.20220518D+01  0.18438331D+00
 -0.70858916D-02  0.23694711D-02  0.13296935D-03 -0.23150766D-04 -0.43331860D-04
 -0.74944119D-04 -0.12180812D-03 -0.18636543D-03 -0.26446542D-03 -0.33174991D-03
 -0.33824777D-03 -0.20782616D-03  0.45294010D-04  0.16590526D-03  0.75879224D-04
 -0.40277108D-06  0.45450216D-05  0.85007771D-05  0.14721043D-04  0.23901781D-04
  0.36688750D-04  0.52114733D-04  0.66115805D-04  0.68447722D-04  0.44088650D-04
 -0.10843833D-04 -0.44202800D-04 -0.38552533D-04  0.19648378D-04 -0.47199674D-03
 -0.11722495D-03  0.16675884D-04 -0.32649409D-08 -0.43066254D-08 -0.47836028D-08
 -0.40940898D-08 -0.23393300D-08 -0.75916358D-09 -0.53454899D-12  0.23788771D-14
  0.31378615D-14  0.34853933D-14  0.29830054D-14  0.17044653D-14  0.55313615D-15
  0.38947913D-18  0.36698908D-04  0.48407751D-04  0.53769120D-04  0.46018788D-04
  0.26294766D-04  0.85332247D-05  0.60084898D-08  0.31252018D-09  0.42736732D-09
  0.46459133D-09  0.42647054D-09  0.23244376D-09  0.98086804D-10 -0.33828949D-10
 -0.21024211D-14 -0.28750338D-14 -0.31254513D-14 -0.28690009D-14 -0.15637220D-14
 -0.65986065D-15  0.22757793D-15 -0.25604156D-04 -0.35013354D-04 -0.38063042D-04
 -0.34939882D-04 -0.19043655D-04 -0.80360565D-05  0.27715384D-05  0.21805172D-09
 -0.63019077D-16  0.12320989D-04 -0.59601562D-09  0.45766759D-15  0.14525974D-04
  0.66893295D-11  0.77622212D-17  0.69764861D-07  0.15866739D-05  0.15868313D-05
 -0.31735052D-05 -0.22079013D-15 -0.41461926D-09 -0.16144666D-16  0.22595952D-05
  0.22594838D-05 -0.45190790D-05 -0.77604041D-16  0.16960629D-09  0.68034258D-16
  0.10348451D-06  0.10348123D-06 -0.20696575D-06 -0.22801655D-16 -0.77090291D-11
 -0.15869703D-16 -0.18255572D-05  0.61404446D-17  0.43982606D-05  0.54764354D-05
  0.28591784D-16 -0.65973877D-05  0.23633127D-09 -0.47013118D-16 -0.65973941D-05
 -0.60165736D-16  0.14911605D-06  0.82147421D-18 -0.21309295D-06 -0.44733842D-06
 -0.30045453D-17  0.31959940D-06 -0.97361780D-11  0.54012269D-18  0.31967946D-06
 -0.72627876D-17  0.56270865D-06  0.10148682D-05  0.14964226D-05  0.47131583D-04
  0.38297835D-04 -0.41551914D-06  0.72908327D-05  0.49308864D-16 -0.48243194D-05
  0.30780763D-05  0.41702833D-16  0.37351127D-04  0.40422848D-05  0.84758594D-16
  0.91638698D-05 -0.74696172D-05 -0.34150283D-05  0.10884646D-04  0.14778885D-16
  0.20816618D-04 -0.67916474D-17 -0.27165968D-05 -0.32451008D-05  0.59616975D-05
  0.51322677D-16  0.18008955D-05  0.51750590D-16  0.56280406D-06  0.10150403D-05
  0.14966763D-05  0.47132837D-04  0.38300516D-04 -0.41552921D-06 -0.36454542D-05
 -0.63141693D-05 -0.48238217D-05 -0.15398847D-05 -0.26660650D-05  0.37350556D-04
 -0.20215300D-05 -0.35009351D-05  0.91642901D-05 -0.44282177D-05 -0.64558831D-05
  0.10884101D-04 -0.35113820D-05 -0.10408801D-04 -0.18027789D-04 -0.31128362D-05
 -0.28487167D-05  0.59615529D-05  0.45771581D-06 -0.90056356D-06 -0.15595770D-05
  0.56280406D-06  0.10150403D-05  0.14966763D-05  0.47132837D-04  0.38300516D-04
 -0.41552921D-06 -0.36454542D-05  0.63141693D-05 -0.48238217D-05 -0.15398847D-05
  0.26660650D-05  0.37350556D-04 -0.20215300D-05  0.35009351D-05  0.91642901D-05
 -0.44282177D-05 -0.64558831D-05  0.10884101D-04  0.35113820D-05 -0.10408801D-04
  0.18027789D-04 -0.31128362D-05 -0.28487167D-05  0.59615529D-05 -0.45771581D-06
 -0.90056356D-06  0.15595770D-05 -0.17519542D-05 -0.31597215D-05 -0.46590075D-05
  0.94805487D-07  0.21194502D-04 -0.16764399D-05 -0.56862517D-05 -0.11509351D-15
 -0.23932660D-05 -0.13964342D-04  0.12099748D-15 -0.38288155D-05 -0.42158604D-05
  0.34611100D-16 -0.44405677D-05  0.26722177D-04 -0.14162832D-04 -0.12559345D-04
  0.11237059D-16  0.25950009D-04  0.25195579D-16  0.23390836D-05 -0.19537949D-05
 -0.38528869D-06 -0.48872248D-16  0.36907680D-05 -0.15372798D-16 -0.17519296D-05
 -0.31596771D-05 -0.46589421D-05  0.94308178D-07  0.21192405D-04 -0.16764405D-05
  0.28432170D-05 -0.49245772D-05 -0.23932756D-05  0.69819174D-05 -0.12093254D-04
 -0.38291213D-05  0.21078187D-05 -0.36507042D-05 -0.44405784D-05 -0.39418588D-05
  0.16500837D-04 -0.12558978D-04 -0.35406983D-04 -0.12975389D-04  0.22474430D-04
 -0.88059240D-06  0.12658434D-05 -0.38525102D-06 -0.37177423D-05 -0.18454667D-05
  0.31963877D-05 -0.17519296D-05 -0.31596771D-05 -0.46589421D-05  0.94308178D-07
  0.21192405D-04 -0.16764405D-05  0.28432170D-05  0.49245772D-05 -0.23932756D-05
  0.69819174D-05  0.12093254D-04 -0.38291213D-05  0.21078187D-05  0.36507042D-05
 -0.44405784D-05 -0.39418588D-05  0.16500837D-04 -0.12558978D-04  0.35406983D-04
 -0.12975389D-04 -0.22474430D-04 -0.88059240D-06  0.12658434D-05 -0.38525102D-06
  0.37177423D-05 -0.18454667D-05 -0.31963877D-05
MO    2     MO 0.0        OCC NO =    2.0000000  ORB. ENERGY =  -11.213770
  0.32724556D+00  0.61006013D+00  0.10311091D+01  0.15500947D+01  0.19044705D+01
  0.16086298D+01  0.60671596D+00 -0.30026711D-02 -0.35293047D-03 -0.66079719D-03
 -0.11250638D-02 -0.17403026D-02 -0.22919173D-02 -0.23814488D-02 -0.15133038D-02
  0.10141810D-02  0.27702260D-01  0.75158485D-03 -0.39524453D-04  0.93285274D-08
  0.87460874D-08  0.62277353D-08 -0.97064916D-14 -0.91004529D-14 -0.64800646D-14
 -0.38532900D-03 -0.36127043D-03 -0.25724607D-03  0.11297081D-07  0.39211566D-13
 -0.48245416D-03  0.11180998D-07  0.74940535D-14 -0.29207619D-04  0.25287884D-09
 -0.28584144D-17 -0.70612620D-05  0.21437094D-03  0.21436652D-03 -0.42873746D-03
  0.12895888D-13  0.31408604D-07 -0.11005767D-13  0.11862994D-03  0.11863841D-03
 -0.23726835D-03  0.19480683D-13 -0.42891636D-08 -0.10932973D-13  0.43177459D-05
  0.43178035D-05 -0.86355494D-05  0.71750899D-15  0.63204160D-10 -0.37553740D-15
 -0.49227142D-03  0.60017657D-15  0.39540308D-03  0.14768416D-02  0.39265252D-15
 -0.59312326D-03 -0.27315406D-07 -0.21931822D-14 -0.59308598D-03 -0.11227706D-13
  0.44748879D-04  0.18346634D-15 -0.88391496D-04 -0.13425169D-03  0.63410637D-15
  0.13259233D-03  0.50519533D-08 -0.11845054D-14  0.13258216D-03 -0.25733151D-14
  0.71514632D-04  0.13377231D-03  0.23101876D-03  0.37315553D-03  0.56196454D-03
  0.76426913D-03  0.87004292D-03  0.70485407D-03  0.28611419D-03  0.26089679D-04
 -0.10026322D-05  0.33527298D-06  0.18814759D-07 -0.14963201D-03 -0.28006992D-03
 -0.48439170D-03 -0.78729115D-03 -0.12045490D-02 -0.17093383D-02 -0.21442230D-02
 -0.21862211D-02 -0.13432577D-02  0.29275203D-03  0.10723073D-02  0.49043563D-03
 -0.26032592D-05  0.97715144D-04  0.18276143D-03  0.31649328D-03  0.51387345D-03
  0.78878536D-03  0.11204344D-02  0.14214488D-02  0.14715835D-02  0.94787861D-03
 -0.23313568D-03 -0.95033277D-03 -0.82885553D-03  0.42242793D-03  0.12786432D-03
 -0.91243944D-03  0.10937990D-03  0.50668416D-07  0.66834251D-07  0.74236436D-07
  0.63535925D-07  0.36303917D-07  0.11781412D-07  0.82956326D-11  0.13782139D-13
  0.18179352D-13  0.20192794D-13  0.17282186D-13  0.98749020D-14  0.32046210D-14
  0.22564661D-17 -0.56643254D-02 -0.74715371D-02 -0.82990423D-02 -0.71028105D-02
 -0.40584888D-02 -0.13170681D-02 -0.92738566D-06 -0.44024150D-07 -0.60202459D-07
 -0.65446137D-07 -0.60076132D-07 -0.32743931D-07 -0.13817310D-07  0.47654227D-08
 -0.12144499D-13 -0.16607446D-13 -0.18053967D-13 -0.16572597D-13 -0.90327385D-14
 -0.38116422D-14  0.13145892D-14  0.53857924D-02  0.73650018D-02  0.80064988D-02
  0.73495473D-02  0.40058017D-02  0.16903714D-02 -0.58298859D-03 -0.11252979D-08
 -0.15634960D-15  0.67709448D-04 -0.92354261D-09 -0.12836597D-15 -0.17309004D-03
  0.30115844D-10  0.28030819D-15 -0.60393626D-05 -0.54613432D-04 -0.54613114D-04
  0.10922655D-03 -0.15427452D-15  0.37355714D-08 -0.13701674D-14 -0.11981717D-03
 -0.11982108D-03  0.23963825D-03 -0.52112691D-15  0.18339279D-08 -0.70588102D-15
 -0.39887605D-05 -0.39887745D-05  0.79775350D-05 -0.13653228D-15  0.28092254D-09
 -0.44094362D-16 -0.26458951D-04 -0.90274252D-16 -0.20763976D-04  0.79376876D-04
 -0.24046567D-15  0.31148466D-04 -0.23146267D-10  0.51128843D-15  0.31143461D-04
  0.86950829D-15 -0.87698814D-05 -0.11183645D-16  0.10102139D-06  0.26309610D-04
  0.47341715D-17 -0.15115155D-06  0.34379141D-10  0.28816764D-16 -0.15191262D-06
  0.68195505D-16  0.48747099D-04  0.87917400D-04  0.12963416D-03  0.98779280D-04
 -0.29409770D-03 -0.13786106D-04 -0.60675003D-03 -0.23960545D-14 -0.20390351D-03
 -0.28246273D-03  0.41773951D-14 -0.26294841D-03 -0.70134246D-04  0.93400307D-15
 -0.58507153D-04 -0.43548811D-03  0.32745733D-03  0.10803078D-03  0.63739325D-16
 -0.75546009D-03  0.45772081D-15 -0.33703890D-04  0.31589377D-04  0.21145130D-05
  0.15213295D-14 -0.75407990D-04  0.23685062D-15  0.48746689D-04  0.87916661D-04
  0.12963307D-03  0.98750323D-04 -0.29412021D-03 -0.13786630D-04  0.30337963D-03
  0.52546396D-03 -0.20389443D-03  0.14124291D-03  0.24463048D-03 -0.26293977D-03
  0.35070193D-04  0.60742266D-04 -0.58506294D-04  0.13671291D-03 -0.24476050D-03
  0.10804760D-03 -0.66074894D-03  0.37772260D-03  0.65422643D-03  0.15264326D-04
 -0.17381535D-04  0.21172088D-05 -0.56547688D-04  0.37702661D-04  0.65302802D-04
  0.48746689D-04  0.87916661D-04  0.12963307D-03  0.98750323D-04 -0.29412021D-03
 -0.13786630D-04  0.30337963D-03 -0.52546396D-03 -0.20389443D-03  0.14124291D-03
 -0.24463048D-03 -0.26293977D-03  0.35070193D-04 -0.60742266D-04 -0.58506294D-04
  0.13671291D-03 -0.24476050D-03  0.10804760D-03  0.66074894D-03  0.37772260D-03
 -0.65422643D-03  0.15264326D-04 -0.17381535D-04  0.21172088D-05  0.56547688D-04
  0.37702661D-04 -0.65302802D-04 -0.12421964D-04 -0.22403524D-04 -0.33033984D-04
  0.21222423D-03  0.42729930D-03  0.14543569D-05 -0.31444584D-04 -0.12520090D-15
  0.40784039D-05 -0.69619730D-04  0.65183820D-16 -0.81607219D-04 -0.45404478D-04
  0.55082117D-15 -0.34940652D-04  0.27133023D-04 -0.22284270D-04 -0.48487532D-05
  0.56417907D-15  0.69443818D-04  0.86729571D-16  0.46440636D-06 -0.37726396D-05
  0.33082333D-05 -0.26783162D-15 -0.12619665D-04 -0.15760854D-15 -0.12422800D-04
 -0.22405032D-04 -0.33036206D-04  0.21223040D-03  0.42730541D-03  0.14548977D-05
  0.15721966D-04 -0.27228106D-04  0.40822370D-05  0.34812278D-04 -0.60299686D-04
 -0.81610978D-04  0.22702416D-04 -0.39322622D-04 -0.34941713D-04 -0.99299623D-05
  0.14780252D-04 -0.48502900D-05 -0.42800277D-04 -0.34724341D-04  0.60144952D-04
 -0.27142771D-05 -0.59469027D-06  0.33089674D-05 -0.36704827D-05  0.63099914D-05
 -0.10927783D-04 -0.12422800D-04 -0.22405032D-04 -0.33036206D-04  0.21223040D-03
  0.42730541D-03  0.14548977D-05  0.15721966D-04  0.27228106D-04  0.40822370D-05
  0.34812278D-04  0.60299686D-04 -0.81610978D-04  0.22702416D-04  0.39322622D-04
 -0.34941713D-04 -0.99299623D-05  0.14780252D-04 -0.48502900D-05  0.42800277D-04
 -0.34724341D-04 -0.60144952D-04 -0.27142771D-05 -0.59469027D-06  0.33089674D-05
  0.36704827D-05  0.63099914D-05  0.10927783D-04
MO    3     MO 0.0        OCC NO =    2.0000000  ORB. ENERGY =   -6.119038
 -0.20640130D-04 -0.38477895D-04 -0.65034421D-04 -0.97768037D-04 -0.12011933D-03
 -0.10145998D-03 -0.38266970D-04  0.18938537D-06 -0.30914437D-04 -0.57881580D-04
 -0.98548343D-04 -0.15243930D-03 -0.20075720D-03 -0.20859959D-03 -0.13255567D-03
  0.88835730D-04 -0.88820053D-05  0.45691809D-03  0.39269885D-04 -0.48511559D-09
 -0.45482670D-09 -0.32386370D-09  0.13699622D-14  0.12844266D-14  0.91458826D-15
  0.39145985D-03  0.36701849D-03  0.26133903D-03 -0.53434355D-08 -0.63095996D-14
  0.90019974D-04  0.18603557D-08  0.39284271D-15 -0.24946425D-04 -0.16757898D-09
 -0.65054112D-15  0.92532016D-05 -0.32169030D-04 -0.32170002D-04  0.64339032D-04
 -0.21128864D-14 -0.19496334D-08 -0.23467918D-14 -0.98119551D-05 -0.98146035D-05
  0.19626559D-04 -0.33892714D-14  0.10401286D-08  0.58209088D-14  0.23280309D-05
  0.23285422D-05 -0.46565731D-05 -0.10993012D-14  0.21303255D-08  0.67443634D-15
 -0.91343655D-05 -0.12889344D-15  0.92730723D-04  0.27403669D-04 -0.13621478D-15
 -0.13909655D-03 -0.57280887D-09  0.52289511D-15 -0.13909562D-03  0.24884571D-14
 -0.87777203D-05 -0.55053307D-16 -0.83050962D-05  0.26332546D-04 -0.14140018D-15
  0.12457891D-04  0.61535148D-09  0.30656010D-15  0.12457397D-04  0.29274917D-15
 -0.40130561D-03 -0.75066566D-03 -0.12963659D-02 -0.20939688D-02 -0.31534739D-02
 -0.42887096D-02 -0.48822611D-02 -0.39553010D-02 -0.16055348D-02 -0.14640269D-03
  0.56262880D-05 -0.18813902D-05 -0.10557935D-06 -0.13383588D+00 -0.25050391D+00
 -0.43325616D+00 -0.70417957D+00 -0.10773890D+01 -0.15288894D+01 -0.19178648D+01
 -0.19554293D+01 -0.12014547D+01  0.26184721D+00  0.95910760D+00  0.43866205D+00
 -0.23284422D-02 -0.24536174D-03 -0.45891212D-03 -0.79471144D-03 -0.12903311D-02
 -0.19806321D-02 -0.28133995D-02 -0.35692435D-02 -0.36951314D-02 -0.23801136D-02
  0.58540133D-03  0.23862760D-02  0.20812479D-02 -0.10607123D-02  0.19941203D-01
  0.90792705D-03 -0.18787172D-03 -0.29066665D-06 -0.38340429D-06 -0.42586798D-06
 -0.36448297D-06 -0.20826264D-06 -0.67585766D-07 -0.47589089D-10  0.16430018D-12
  0.21672041D-12  0.24072314D-12  0.20602508D-12  0.11772107D-12  0.38203054D-13
  0.26899873D-16  0.16762194D-02  0.22110198D-02  0.24558998D-02  0.21019041D-02
  0.12010111D-02  0.38975429D-03  0.27443724D-06 -0.64621960D-07 -0.88369699D-07
 -0.96066763D-07 -0.88184265D-07 -0.48064006D-07 -0.20282087D-07  0.69950459D-08
 -0.13785655D-12 -0.18851706D-12 -0.20493703D-12 -0.18812148D-12 -0.10253384D-12
 -0.43267313D-13  0.14922372D-13 -0.93328994D-04 -0.12762620D-03 -0.13874253D-03
 -0.12735839D-03 -0.69415495D-04 -0.29292006D-04  0.10102457D-04 -0.26715909D-07
 -0.69498517D-14  0.10360614D-03  0.60999297D-08  0.18816009D-13 -0.11765359D-03
 -0.52255626D-10  0.73139944D-15 -0.21771289D-05 -0.18142442D-04 -0.18144624D-04
  0.36287065D-04 -0.94650048D-14  0.41835996D-08  0.45217266D-14  0.17248421D-04
  0.17245339D-04 -0.34493760D-04 -0.58027603D-14  0.35832602D-08  0.42616430D-14
 -0.14393350D-05 -0.14392875D-05  0.28786225D-05 -0.10296929D-14  0.14773368D-11
 -0.23819005D-16 -0.10276973D-04  0.44650339D-15 -0.19482358D-05  0.30830961D-04
  0.66325532D-15  0.29241933D-05 -0.40896035D-10 -0.20027655D-14  0.29205142D-05
 -0.55039284D-14 -0.22155574D-05  0.59557390D-16  0.11562593D-05  0.66465576D-05
  0.10349625D-15 -0.17341365D-05  0.11459346D-09 -0.28216842D-15 -0.17346416D-05
 -0.11136755D-14 -0.28423596D-05 -0.51263126D-05 -0.75587449D-05 -0.10233228D-03
 -0.20327378D-03  0.23400937D-05 -0.45930120D-04  0.53249665D-15 -0.25669450D-05
 -0.39866336D-04 -0.27683067D-15 -0.32432876D-04 -0.24410152D-04 -0.15385010D-14
 -0.49540290D-04 -0.39193742D-04 -0.11192940D-04  0.50386682D-04  0.19762588D-15
  0.10288172D-04  0.10254632D-14  0.21709289D-05  0.91628412D-05 -0.11333770D-04
  0.17078855D-15  0.10650394D-04 -0.10639434D-14 -0.28422838D-05 -0.51261759D-05
 -0.75585434D-05 -0.10232756D-03 -0.20327783D-03  0.23404601D-05  0.22963967D-04
  0.39774676D-04 -0.25643048D-05  0.19932401D-04  0.34523111D-04 -0.32428149D-04
  0.12206321D-04  0.21139342D-04 -0.49543813D-04 -0.18194378D-04 -0.32195043D-04
  0.50389420D-04 -0.24249509D-04 -0.51491266D-05 -0.89186226D-05  0.74144862D-05
  0.39189933D-05 -0.11333479D-04 -0.60550227D-05 -0.53254635D-05 -0.92235651D-05
 -0.28422838D-05 -0.51261759D-05 -0.75585434D-05 -0.10232756D-03 -0.20327783D-03
  0.23404601D-05  0.22963967D-04 -0.39774676D-04 -0.25643047D-05  0.19932401D-04
 -0.34523111D-04 -0.32428149D-04  0.12206321D-04 -0.21139342D-04 -0.49543813D-04
 -0.18194378D-04 -0.32195043D-04  0.50389420D-04  0.24249509D-04 -0.51491266D-05
  0.89186226D-05  0.74144862D-05  0.39189933D-05 -0.11333479D-04  0.60550227D-05
 -0.53254635D-05  0.92235651D-05  0.46247016D-04  0.83408399D-04  0.12298564D-03
  0.35042064D-03 -0.99159161D-04  0.22358073D-04 -0.12429556D-03 -0.38569224D-14
 -0.44243587D-04 -0.10866077D-03  0.48610863D-14 -0.58378888D-04  0.27022185D-04
  0.56173486D-15  0.31561247D-04  0.16570828D-03 -0.11642648D-03 -0.49281799D-04
 -0.27740246D-15  0.23511222D-03 -0.49546058D-15 -0.21125800D-04  0.17897301D-04
  0.32284993D-05 -0.17538863D-14 -0.34847870D-04  0.83394518D-16  0.46246501D-04
  0.83407470D-04  0.12298427D-03  0.35043043D-03 -0.99135319D-04  0.22358223D-04
  0.62146082D-04 -0.10764135D-03 -0.44246298D-04  0.54334682D-04 -0.94110537D-04
 -0.58381114D-04 -0.13509649D-04  0.23397730D-04  0.31560006D-04 -0.45894248D-04
  0.95175168D-04 -0.49280920D-04 -0.24433741D-03 -0.11755930D-03  0.20361991D-03
  0.81414183D-05 -0.11369378D-04  0.32279592D-05  0.33794050D-04  0.17424339D-04
 -0.30179773D-04  0.46246501D-04  0.83407470D-04  0.12298427D-03  0.35043043D-03
 -0.99135318D-04  0.22358223D-04  0.62146082D-04  0.10764135D-03 -0.44246298D-04
  0.54334682D-04  0.94110537D-04 -0.58381114D-04 -0.13509649D-04 -0.23397730D-04
  0.31560006D-04 -0.45894248D-04  0.95175168D-04 -0.49280920D-04  0.24433741D-03
 -0.11755930D-03 -0.20361991D-03  0.81414183D-05 -0.11369378D-04  0.32279592D-05
 -0.33794050D-04  0.17424339D-04  0.30179773D-04
MO    4     MO 0.0        OCC NO =    2.0000000  ORB. ENERGY =   -4.225249
  0.20415534D-09  0.38059196D-09  0.64326746D-09  0.96704171D-09  0.11881225D-08
  0.10035594D-08  0.37850567D-09 -0.18732457D-11  0.35132520D-09  0.65779163D-09
  0.11199465D-08  0.17323870D-08  0.22814927D-08  0.23706171D-08  0.15064207D-08
 -0.10095681D-08  0.24225475D-08  0.11936178D-08 -0.46904386D-08  0.13098847D-03
  0.12281001D-03  0.87448047D-04  0.88093214D-12  0.82592987D-12  0.58811127D-12
  0.20634355D-08  0.19346020D-08  0.13775518D-08  0.88284007D-04  0.60166726D-12
 -0.75634286D-08  0.78187464D-04  0.53809197D-12 -0.45484337D-08  0.32169708D-05
  0.21607257D-13 -0.45188892D-09 -0.86420649D-05  0.86403859D-05  0.16789902D-08
  0.11653167D-12  0.17644190D-03  0.11872700D-11 -0.25962863D-04  0.25971814D-04
 -0.89509934D-08  0.35582768D-12  0.13653661D-03  0.91729102D-12 -0.12342687D-05
  0.12350832D-05 -0.81451898D-09  0.18384895D-13  0.17293677D-05  0.11433653D-13
 -0.32928912D-04 -0.22181695D-12 -0.28184247D-08 -0.32926109D-04 -0.22174593D-12
 -0.23037932D-04  0.13171285D-03  0.88719680D-12  0.23046387D-04  0.30768641D-12
 -0.12237902D-04 -0.82437452D-13 -0.58704885D-09 -0.12235318D-04 -0.82560816D-13
  0.14937298D-05  0.48949023D-04  0.32987317D-12 -0.14919687D-05 -0.21164204D-13
  0.29646600D-08  0.55455702D-08  0.95769505D-08  0.15469272D-07  0.23296405D-07
  0.31683000D-07  0.36067884D-07  0.29219932D-07  0.11860948D-07  0.10815553D-08
 -0.41564410D-10  0.13898839D-10  0.77997136D-12 -0.13607199D-07 -0.25468930D-07
 -0.44049494D-07 -0.71594490D-07 -0.10953899D-06 -0.15544339D-06 -0.19499082D-06
 -0.19881004D-06 -0.12215284D-06  0.26622212D-07  0.97513224D-07  0.44599116D-07
 -0.23673455D-09  0.20934198D-08  0.39154260D-08  0.67804568D-08  0.11009070D-07
  0.16898700D-07  0.24003850D-07  0.30452691D-07  0.31526763D-07  0.20307066D-07
 -0.49946286D-08 -0.20359643D-07 -0.17757152D-07  0.90499688D-08 -0.95591890D-08
 -0.17234641D-07  0.39814873D-08  0.61650119D+01  0.81319685D+01  0.90326193D+01
  0.77306490D+01  0.44172307D+01  0.14334877D+01  0.10093600D-02  0.41537721D-07