 Molden2AIM, Version 4.0.0 (06/02/2016)           Time: Wed Jun 27 21:02:18 2018
GAUSSIAN              8 MOL ORBITALS    204 PRIMITIVES        4 NUCLEI
  C    1    (CENTRE  1)   0.23777479  1.39487488  0.00000000  CHARGE =  6.0
  H    2    (CENTRE  2)  -1.80370012  2.02535744  0.00000000  CHARGE =  1.0
  O    3    (CENTRE  3)   0.23741007 -1.07617257  0.00000000  CHARGE =  8.0
  H    4    (CENTRE  4)  -1.42788651 -1.86542425  0.00000000  CHARGE =  1.0
CENTRE ASSIGNMENTS    1  1  1  1  1  1  1  1  1  1  1  1  1  1  1  1  1  1  1  1
CENTRE ASSIGNMENTS    1  1  1  1  1  1  1  1  1  1  1  1  1  1  1  1  1  1  1  1
CENTRE ASSIGNMENTS    1  1  1  1  1  1  1  1  1  1  1  1  1  1  1  1  1  1  1  1
CENTRE ASSIGNMENTS    1  1  1  1  1  1  1  1  1  1  1  1  1  1  1  2  2  2  2  2
CENTRE ASSIGNMENTS    2  2  2  2  2  2  2  2  2  2  2  2  2  2  2  2  2  2  2  2
CENTRE ASSIGNMENTS    2  2  3  3  3  3  3  3  3  3  3  3  3  3  3  3  3  3  3  3
CENTRE ASSIGNMENTS    3  3  3  3  3  3  3  3  3  3  3  3  3  3  3  3  3  3  3  3
CENTRE ASSIGNMENTS    3  3  3  3  3  3  3  3  3  3  3  3  3  3  3  3  3  3  3  3
CENTRE ASSIGNMENTS    3  3  3  3  3  3  3  3  3  3  3  3  3  3  3  3  3  4  4  4
CENTRE ASSIGNMENTS    4  4  4  4  4  4  4  4  4  4  4  4  4  4  4  4  4  4  4  4
CENTRE ASSIGNMENTS    4  4  4  4
TYPE ASSIGNMENTS      1  1  1  1  1  1  1  1  1  1  1  1  1  1  1  1  1  1  1  2
TYPE ASSIGNMENTS      2  2  3  3  3  4  4  4  2  3  4  2  3  4  2  3  4  5  6  7
TYPE ASSIGNMENTS      8  9 10  5  6  7  8  9 10  5  6  7  8  9 10 11 12 13 17 14
TYPE ASSIGNMENTS     15 18 19 16 20 11 12 13 17 14 15 18 19 16 20  1  1  1  1  1
TYPE ASSIGNMENTS      1  2  3  4  2  3  4  2  3  4  5  6  7  8  9 10  5  6  7  8
TYPE ASSIGNMENTS      9 10  1  1  1  1  1  1  1  1  1  1  1  1  1  1  1  1  1  1
TYPE ASSIGNMENTS      1  2  2  2  3  3  3  4  4  4  2  3  4  2  3  4  2  3  4  5
TYPE ASSIGNMENTS      6  7  8  9 10  5  6  7  8  9 10  5  6  7  8  9 10 11 12 13
TYPE ASSIGNMENTS     17 14 15 18 19 16 20 11 12 13 17 14 15 18 19 16 20  1  1  1
TYPE ASSIGNMENTS      1  1  1  2  3  4  2  3  4  2  3  4  5  6  7  8  9 10  5  6
TYPE ASSIGNMENTS      7  8  9 10
EXPONENTS  0.8236000D+04 0.1235000D+04 0.2808000D+03 0.7927000D+02 0.2559000D+02
EXPONENTS  0.8997000D+01 0.3319000D+01 0.3643000D+00 0.8236000D+04 0.1235000D+04
EXPONENTS  0.2808000D+03 0.7927000D+02 0.2559000D+02 0.8997000D+01 0.3319000D+01
EXPONENTS  0.3643000D+00 0.9059000D+00 0.1285000D+00 0.4402000D-01 0.1871000D+02
EXPONENTS  0.4133000D+01 0.1200000D+01 0.1871000D+02 0.4133000D+01 0.1200000D+01
EXPONENTS  0.1871000D+02 0.4133000D+01 0.1200000D+01 0.3827000D+00 0.3827000D+00
EXPONENTS  0.3827000D+00 0.1209000D+00 0.1209000D+00 0.1209000D+00 0.3569000D-01
EXPONENTS  0.3569000D-01 0.3569000D-01 0.1097000D+01 0.1097000D+01 0.1097000D+01
EXPONENTS  0.1097000D+01 0.1097000D+01 0.1097000D+01 0.3180000D+00 0.3180000D+00
EXPONENTS  0.3180000D+00 0.3180000D+00 0.3180000D+00 0.3180000D+00 0.1000000D+00
EXPONENTS  0.1000000D+00 0.1000000D+00 0.1000000D+00 0.1000000D+00 0.1000000D+00
EXPONENTS  0.7610000D+00 0.7610000D+00 0.7610000D+00 0.7610000D+00 0.7610000D+00
EXPONENTS  0.7610000D+00 0.7610000D+00 0.7610000D+00 0.7610000D+00 0.7610000D+00
EXPONENTS  0.2680000D+00 0.2680000D+00 0.2680000D+00 0.2680000D+00 0.2680000D+00
EXPONENTS  0.2680000D+00 0.2680000D+00 0.2680000D+00 0.2680000D+00 0.2680000D+00
EXPONENTS  0.3387000D+02 0.5095000D+01 0.1159000D+01 0.3258000D+00 0.1027000D+00
EXPONENTS  0.2526000D-01 0.1407000D+01 0.1407000D+01 0.1407000D+01 0.3880000D+00
EXPONENTS  0.3880000D+00 0.3880000D+00 0.1020000D+00 0.1020000D+00 0.1020000D+00
EXPONENTS  0.1057000D+01 0.1057000D+01 0.1057000D+01 0.1057000D+01 0.1057000D+01
EXPONENTS  0.1057000D+01 0.2470000D+00 0.2470000D+00 0.2470000D+00 0.2470000D+00
EXPONENTS  0.2470000D+00 0.2470000D+00 0.1533000D+05 0.2299000D+04 0.5224000D+03
EXPONENTS  0.1473000D+03 0.4755000D+02 0.1676000D+02 0.6207000D+01 0.6882000D+00
EXPONENTS  0.1533000D+05 0.2299000D+04 0.5224000D+03 0.1473000D+03 0.4755000D+02
EXPONENTS  0.1676000D+02 0.6207000D+01 0.6882000D+00 0.1752000D+01 0.2384000D+00
EXPONENTS  0.7376000D-01 0.3446000D+02 0.7749000D+01 0.2280000D+01 0.3446000D+02
EXPONENTS  0.7749000D+01 0.2280000D+01 0.3446000D+02 0.7749000D+01 0.2280000D+01
EXPONENTS  0.7156000D+00 0.7156000D+00 0.7156000D+00 0.2140000D+00 0.2140000D+00
EXPONENTS  0.2140000D+00 0.5974000D-01 0.5974000D-01 0.5974000D-01 0.2314000D+01
EXPONENTS  0.2314000D+01 0.2314000D+01 0.2314000D+01 0.2314000D+01 0.2314000D+01
EXPONENTS  0.6450000D+00 0.6450000D+00 0.6450000D+00 0.6450000D+00 0.6450000D+00
EXPONENTS  0.6450000D+00 0.2140000D+00 0.2140000D+00 0.2140000D+00 0.2140000D+00
EXPONENTS  0.2140000D+00 0.2140000D+00 0.1428000D+01 0.1428000D+01 0.1428000D+01
EXPONENTS  0.1428000D+01 0.1428000D+01 0.1428000D+01 0.1428000D+01 0.1428000D+01
EXPONENTS  0.1428000D+01 0.1428000D+01 0.5000000D+00 0.5000000D+00 0.5000000D+00
EXPONENTS  0.5000000D+00 0.5000000D+00 0.5000000D+00 0.5000000D+00 0.5000000D+00
EXPONENTS  0.5000000D+00 0.5000000D+00 0.3387000D+02 0.5095000D+01 0.1159000D+01
EXPONENTS  0.3258000D+00 0.1027000D+00 0.2526000D-01 0.1407000D+01 0.1407000D+01
EXPONENTS  0.1407000D+01 0.3880000D+00 0.3880000D+00 0.3880000D+00 0.1020000D+00
EXPONENTS  0.1020000D+00 0.1020000D+00 0.1057000D+01 0.1057000D+01 0.1057000D+01
EXPONENTS  0.1057000D+01 0.1057000D+01 0.1057000D+01 0.2470000D+00 0.2470000D+00
EXPONENTS  0.2470000D+00 0.2470000D+00 0.2470000D+00 0.2470000D+00
MO    1     MO 0.0        OCC NO =    2.0000000  ORB. ENERGY =  -20.644251
  0.14159396D-03  0.26396334D-03  0.44614455D-03  0.67070139D-03  0.82403415D-03
  0.69602858D-03  0.26251637D-03 -0.12992082D-05 -0.10959198D-03 -0.20519077D-03
 -0.34935484D-03 -0.54039882D-03 -0.71168623D-03 -0.73948758D-03 -0.46991116D-03
  0.31492353D-03 -0.13456262D-03  0.38584766D-04  0.41013771D-04 -0.22993607D-04
 -0.21557968D-04 -0.15350558D-04 -0.13315391D-03 -0.12484026D-03 -0.88893699D-04
 -0.74463753D-17 -0.69814501D-17 -0.49712084D-17  0.54754339D-04 -0.80061124D-03
 -0.10267280D-18 -0.10216470D-04 -0.82691518D-04 -0.12010062D-19 -0.91202873D-06
 -0.37827919D-05 -0.73391639D-21 -0.34655311D-03  0.67796025D-03 -0.33140713D-03
 -0.48088997D-04 -0.10934390D-18  0.24284339D-18 -0.18664994D-03  0.28122662D-03
 -0.94576687D-04  0.14864764D-03 -0.11619451D-18  0.15359032D-18  0.58729431D-06
  0.19600039D-05 -0.25472982D-05  0.89555145D-05  0.61182150D-20 -0.40479057D-20
  0.22807105D-04 -0.15033139D-03  0.91194576D-19 -0.60641901D-04  0.21853402D-03
  0.79296175D-19 -0.77794136D-05  0.23246016D-03 -0.35287990D-18  0.29771685D-18
  0.11484882D-04 -0.29894196D-04  0.26562068D-20 -0.38305921D-04  0.51229531D-04
  0.14375644D-19  0.38512746D-05  0.38453057D-04 -0.22344265D-19  0.66509427D-20
  0.12462650D-04  0.22476903D-04  0.33142180D-04  0.16295187D-03  0.65367012D-04
 -0.69866108D-07  0.31365925D-04 -0.59127927D-05  0.31465416D-20  0.75997937D-04
 -0.66513433D-04 -0.71218135D-19  0.21165262D-04  0.50614966D-06  0.12043021D-19
  0.31503421D-04 -0.10366123D-03  0.72157810D-04  0.60687990D-04 -0.21136398D-19
  0.54978989D-19  0.76872783D-05 -0.65060472D-05 -0.11812311D-05  0.12130507D-04
 -0.96284333D-20  0.28157868D-20  0.49813064D+00  0.92845141D+00  0.15743460D+01
  0.23828460D+01  0.29730960D+01  0.25534930D+01  0.98033561D+00 -0.43851013D-02
  0.33910142D-03  0.63599312D-03  0.10842289D-02  0.16944386D-02  0.22657873D-02
  0.24193326D-02  0.14791325D-02 -0.97584180D-03  0.47458461D-01 -0.31217998D-03
 -0.12120509D-03 -0.77395081D-02 -0.75047194D-02 -0.50626394D-02  0.47769321D-02
  0.46320172D-02  0.31247315D-02 -0.91634251D-17 -0.88854400D-17 -0.59940653D-17
  0.13383284D-02 -0.11389735D-02  0.11407946D-17  0.26797261D-03  0.92457729D-04
 -0.48447290D-20 -0.92550668D-06 -0.52006130D-05 -0.18883835D-20  0.31749003D-03
  0.65551732D-03 -0.97300735D-03  0.46860914D-03  0.22494040D-17  0.39785529D-17
 -0.39964110D-04 -0.44087631D-03  0.48084042D-03 -0.53581272D-03  0.20742794D-18
  0.36206903D-18 -0.25622928D-04  0.27414899D-04 -0.17919713D-05 -0.21253771D-05
 -0.23844597D-19 -0.81999597D-20  0.16778958D-04 -0.11017256D-03  0.26848272D-18
 -0.57318816D-04 -0.77521813D-04 -0.33303675D-18  0.69819428D-05  0.40803949D-03
 -0.47241141D-18 -0.14148008D-17  0.12418729D-04 -0.69356545D-04 -0.76194282D-19
  0.56335175D-04  0.23385331D-03  0.76651736D-19 -0.93591361D-04 -0.25783676D-04
  0.15193111D-18  0.27433932D-18  0.12802031D-03  0.23088990D-03  0.34044702D-03
  0.81761247D-03  0.38239675D-04 -0.34150826D-05  0.49988966D-03  0.22810235D-03
 -0.74732082D-19  0.53047805D-03  0.18949905D-03 -0.16853698D-18  0.22315523D-04
 -0.13733192D-05  0.13337699D-20 -0.99153712D-04  0.41291313D-04  0.57862399D-04
 -0.18049679D-03 -0.44653183D-18 -0.12492839D-18  0.50468071D-04 -0.32729670D-04
 -0.17738401D-04  0.61704895D-04 -0.30911171D-19 -0.85335568D-20
MO    2     MO 0.0        OCC NO =    2.0000000  ORB. ENERGY =  -11.313192
  0.32715178D+00  0.60988531D+00  0.10308136D+01  0.15496505D+01  0.19039247D+01
  0.16081688D+01  0.60654209D+00 -0.30018107D-02 -0.11742856D-03 -0.21986331D-03
 -0.37433609D-03 -0.57904102D-03 -0.76257665D-03 -0.79236598D-03 -0.50351301D-03
  0.33744271D-03  0.27221019D-01  0.17638712D-03 -0.31642045D-05 -0.56128975D-02
 -0.52624482D-02 -0.37471766D-02 -0.63949260D-02 -0.59956496D-02 -0.42692597D-02
 -0.16875631D-16 -0.15821976D-16 -0.11266190D-16  0.10257861D-02  0.57027196D-03
  0.35029540D-17  0.11010057D-03  0.29034041D-03  0.34519086D-18  0.31766469D-05
  0.13513354D-05  0.12252190D-19  0.31864415D-03  0.12161728D-02 -0.15348170D-02
 -0.27597141D-03  0.38137372D-17  0.16317166D-17 -0.60535382D-04 -0.16475905D-03
  0.22529443D-03 -0.14925777D-03 -0.23111136D-18 -0.90842136D-18  0.52362364D-06
 -0.15140129D-04  0.14616505D-04 -0.32829396D-04 -0.26924184D-19 -0.50529696D-19
 -0.13711429D-03 -0.26056030D-03 -0.14585727D-18  0.27146463D-03  0.78448930D-03
 -0.15061927D-18  0.13987824D-03 -0.28084100D-05  0.58819110D-18  0.41787153D-18
  0.29001287D-04  0.53087789D-04 -0.84320935D-19 -0.33010111D-04 -0.88405418D-04
  0.47216543D-19 -0.53993749D-04 -0.70857951D-04  0.20574626D-18 -0.13357885D-18
  0.84840984D-04  0.15301421D-03  0.22561936D-03  0.71099027D-03 -0.32914035D-03
  0.41901962D-05 -0.20998403D-03 -0.21267328D-05  0.16759495D-18  0.42453256D-04
 -0.22818606D-03 -0.10444142D-17 -0.10463355D-03 -0.10947982D-04 -0.12117801D-18
 -0.65764406D-03  0.43332013D-03  0.22432393D-03  0.20095805D-03 -0.11402434D-17
  0.48472961D-18 -0.40710631D-04  0.81221560D-05  0.32588475D-04 -0.24732918D-04
 -0.35025043D-18  0.90996697D-19  0.11888844D-03  0.22159276D-03  0.37574789D-03
  0.56871194D-03  0.70958646D-03  0.60944013D-03  0.23397592D-03 -0.10465886D-05
 -0.18700179D-03 -0.35072648D-03 -0.59791177D-03 -0.93441971D-03 -0.12494972D-02
 -0.13341717D-02 -0.81568641D-03  0.53814035D-03  0.26743878D-03  0.44682907D-03
 -0.13284536D-03  0.15311606D-04  0.14847108D-04  0.10015771D-04  0.15984942D-02
  0.15500017D-02  0.10456220D-02  0.90980511D-18  0.88220491D-18  0.59513022D-18
 -0.11818868D-04  0.72804044D-03 -0.23355230D-18 -0.20510092D-03  0.10335040D-03
 -0.10647629D-17 -0.12623062D-04 -0.23432372D-04 -0.36906512D-19 -0.90419081D-03
  0.13167132D-02 -0.41252237D-03  0.65229051D-03 -0.77151137D-18  0.13792804D-17
  0.37584933D-03 -0.58996612D-03  0.21411679D-03 -0.65050051D-03 -0.14732291D-18
 -0.13407318D-17  0.73145369D-04 -0.11191869D-03  0.38773324D-04 -0.20123121D-03
 -0.11944996D-19 -0.66763484D-18 -0.66156433D-05 -0.29937848D-04 -0.35724779D-18
  0.48411179D-04 -0.17719776D-03  0.52328035D-18 -0.28564249D-04  0.26701130D-03
  0.54846302D-18 -0.77259086D-18 -0.37819067D-04 -0.30208959D-03  0.25097684D-18
  0.25776557D-04  0.66234944D-03  0.12295276D-18  0.87680644D-04  0.24391934D-03
 -0.87588329D-18  0.85107399D-19  0.40124598D-04  0.72366365D-04  0.10670416D-03
  0.36006873D-04  0.28710475D-03 -0.39517695D-05  0.12124270D-03 -0.29835059D-03
 -0.71584612D-19  0.20960249D-03 -0.30925532D-03  0.69849068D-19  0.48725759D-04
  0.49733146D-04  0.52905291D-20  0.29438585D-03 -0.44387602D-03  0.14949017D-03
 -0.28867027D-03  0.58393927D-19 -0.16366048D-18  0.13286742D-04  0.79426889D-06
 -0.14081011D-04  0.49214563D-06 -0.27073372D-19  0.14746981D-18
MO    3     MO 0.0        OCC NO =    2.0000000  ORB. ENERGY =   -1.455414
 -0.34935134D-02 -0.65127033D-02 -0.11007616D-01 -0.16548052D-01 -0.20331194D-01
 -0.17172944D-01 -0.64770025D-02  0.32055047D-04 -0.19502504D-01 -0.36514841D-01
 -0.62169640D-01 -0.96166980D-01 -0.12664853D+00 -0.13159594D+00 -0.83623309D-01
  0.56042397D-01  0.22837369D-01  0.10079544D-01  0.50107571D-03 -0.14992796D-01
 -0.14056699D-01 -0.10009207D-01 -0.15213241D+00 -0.14263381D+00 -0.10156377D+00
 -0.90018385D-16 -0.84397958D-16 -0.60096374D-16 -0.98944481D-02 -0.31919220D-01
 -0.69882027D-16 -0.92845195D-03 -0.76147050D-04 -0.43479103D-17  0.15470904D-04
  0.96338726D-05  0.19410261D-18 -0.11848245D-01  0.28859690D-01 -0.17011445D-01
  0.52650208D-02  0.73682347D-17  0.38445528D-16 -0.53082085D-03  0.34269512D-02
 -0.28961303D-02 -0.11308927D-02 -0.66263841D-17  0.63305519D-18  0.71002588D-04
 -0.12005143D-03  0.49048842D-04 -0.62529211D-04  0.99054117D-18 -0.18946004D-18
 -0.65484140D-03 -0.44167573D-02  0.16878921D-17  0.10661828D-03  0.89045598D-02
  0.78553670D-17  0.18579059D-02  0.43457121D-02 -0.12919043D-16  0.21731884D-16
 -0.10034960D-03 -0.15508350D-03 -0.72475586D-18  0.11553014D-03  0.51150019D-03
 -0.10392960D-17  0.18551864D-03 -0.46249672D-04  0.32135635D-17 -0.14496601D-17
  0.36418222D-02  0.65681764D-02  0.96847722D-02 -0.24369913D-02 -0.35964996D-02
 -0.28921639D-05  0.24282440D-02 -0.32682450D-02 -0.45367344D-17 -0.48244309D-02
  0.63341589D-03 -0.77431835D-17 -0.73509431D-03  0.39811101D-03  0.16068809D-17
 -0.16190501D-02  0.14194554D-02  0.19959472D-03 -0.16423848D-02 -0.31248663D-17
  0.58565027D-17 -0.39790580D-03  0.14683318D-04  0.38322248D-03  0.52188884D-03
 -0.55065936D-17 -0.14108334D-17 -0.37841094D-02 -0.70530931D-02 -0.11959709D-01
 -0.18101577D-01 -0.22585482D-01 -0.19397917D-01 -0.74472376D-02  0.33311951D-04
 -0.95708720D-01 -0.17950408D+00 -0.30601510D+00 -0.47824203D+00 -0.63950072D+00
 -0.68283768D+00 -0.41747357D+00  0.27542370D+00  0.13864700D+00  0.63487274D-01
  0.99391416D-03 -0.15032765D+00 -0.14576725D+00 -0.98333727D-01  0.18457969D+00
  0.17898021D+00  0.12073899D+00 -0.40696116D-16 -0.39461543D-16 -0.26620524D-16
 -0.41518995D-01  0.50181315D-01 -0.49489812D-17 -0.44656137D-02 -0.19210777D-02
 -0.81139634D-17 -0.21821289D-03 -0.43867184D-03 -0.98717471D-18  0.14067502D-02
  0.26873326D-01 -0.28280076D-01  0.13425958D-01 -0.71493247D-17 -0.37865688D-16
 -0.21246675D-02  0.10125250D-01 -0.80005827D-02  0.30421774D-02 -0.87879182D-17
 -0.53904883D-17  0.36886963D-03 -0.66711473D-03  0.29824510D-03  0.33573187D-03
  0.66024386D-18 -0.40165239D-17 -0.22351039D-02  0.12594606D-01  0.33787175D-17
 -0.77069681D-03 -0.25319253D-01  0.22300078D-16  0.74760085D-02 -0.12464565D-01
 -0.32436230D-16 -0.27045348D-16  0.42627531D-03  0.94633252D-03 -0.25210814D-18
 -0.17017014D-02 -0.27742905D-02 -0.21945985D-17  0.42287550D-03 -0.64707028D-04
  0.29509229D-17 -0.19123032D-17  0.19137057D-01  0.34514470D-01  0.50891566D-01
  0.16009491D-01 -0.21056101D-02 -0.16752985D-03  0.21344638D-01  0.13604621D-01
 -0.46333713D-19  0.27913641D-02  0.47158416D-02  0.44162138D-17 -0.52795591D-03
  0.24619375D-03  0.14835728D-17  0.14229380D-02  0.46018665D-03 -0.18831246D-02
  0.74031439D-02  0.45603328D-17  0.26778253D-17 -0.15791886D-03  0.45604384D-03
 -0.29812498D-03  0.69245724D-03  0.11695811D-17  0.17286945D-17
MO    4     MO 0.0        OCC NO =    2.0000000  ORB. ENERGY =   -0.891452
 -0.27904229D-02 -0.52019827D-02 -0.87922672D-02 -0.13217658D-01 -0.16239420D-01
 -0.13716786D-01 -0.51734670D-02  0.25603777D-04 -0.43775869D-01 -0.81962239D-01
 -0.13954773D+00 -0.21585911D+00 -0.28427886D+00 -0.29538394D+00 -0.18770323D+00
  0.12579434D+00  0.54328162D-01  0.34801424D-01  0.93425682D-03 -0.52754424D-01
 -0.49460626D-01 -0.35218912D-01 -0.10145453D+00 -0.95120072D-01 -0.67731158D-01
 -0.10805122D-15 -0.10130488D-15 -0.72135112D-16 -0.20890012D-01 -0.23507499D-01
  0.10110600D-15 -0.34146338D-02  0.22004158D-02 -0.19207585D-16 -0.20165365D-04
  0.94838757D-04 -0.87396030D-18  0.18502055D-02  0.15790024D-01 -0.17640229D-01
 -0.12656245D-01 -0.50139302D-16  0.77149175D-16  0.24050389D-02  0.19904097D-02
 -0.43954485D-02 -0.63720557D-02  0.15051355D-16  0.21694528D-16  0.22139877D-03
 -0.19015323D-03 -0.31245541D-04 -0.35194798D-03  0.18831309D-18  0.17087525D-17
 -0.22684439D-02 -0.47527497D-02  0.27660015D-17  0.39579601D-02  0.99318163D-02
 -0.12054162D-16  0.28473717D-02  0.43264329D-02  0.37561576D-17  0.67193940D-17
 -0.43895965D-03 -0.25520281D-03  0.18486573D-17  0.85801358D-03  0.88934093D-03
  0.39717478D-18  0.45886538D-03 -0.12373252D-03 -0.59431466D-17  0.68178064D-17
  0.17900249D-01  0.32283836D-01  0.47602497D-01  0.16800522D-01 -0.82057777D-02
 -0.29744774D-03  0.14136540D-01 -0.55629332D-02 -0.37721763D-17 -0.38754343D-02
 -0.67520675D-03  0.17305401D-16 -0.20728908D-02  0.44225081D-03  0.34732574D-17
  0.37584531D-03  0.86227509D-03 -0.12381204D-02 -0.40808242D-02  0.19660019D-17
 -0.56435419D-17 -0.56041572D-03  0.21628721D-03  0.34412851D-03  0.23527312D-03
  0.15975412D-16 -0.22650549D-17  0.71697493D-05  0.13363490D-04  0.22660052D-04
  0.34297043D-04  0.42792697D-04  0.36753219D-04  0.14110276D-04 -0.63116128D-07
  0.24659069D-01  0.46248695D-01  0.78843887D-01  0.12321765D+00  0.16476547D+00
  0.17593111D+00  0.10756083D+00 -0.70962104D-01 -0.40240816D-01 -0.28267420D-01
 -0.28466337D-02  0.37238387D+00  0.36108709D+00  0.24358722D+00  0.10454931D+01
  0.10137766D+01  0.68388769D+00  0.55530262D-15  0.53845675D-15  0.36323974D-15
  0.87584435D-01  0.24799449D+00  0.13025426D-15  0.50760491D-02  0.20737432D-01
  0.43070482D-16  0.41040852D-04 -0.16545823D-03  0.41275864D-18 -0.54746015D-01
  0.60399590D-01 -0.56535749D-02 -0.65270676D-01 -0.24355122D-16 -0.24074135D-16
 -0.15556820D-01  0.17366297D-01 -0.18094778D-02 -0.15100599D-01 -0.15965654D-16
  0.18832993D-16 -0.65121808D-04  0.72966397D-04 -0.78445894D-05 -0.16230374D-03
 -0.39622657D-18  0.15951182D-16 -0.53721267D-03  0.93266493D-02  0.31980556D-17
  0.94847201D-02 -0.42085906D-02  0.12709061D-16 -0.78730820D-02 -0.23771357D-01
 -0.22303228D-16 -0.17947499D-16  0.11017016D-02  0.89394673D-03 -0.31423113D-17
 -0.26918932D-02 -0.17277220D-02  0.22803865D-17 -0.61321171D-03 -0.95411814D-03
  0.71465475D-17 -0.10895789D-16 -0.28450710D-01 -0.51312028D-01 -0.75659555D-01
 -0.49139278D-01  0.10787504D-02  0.19711761D-03 -0.29814643D-01 -0.39961390D-02
  0.31450309D-17 -0.10957088D-01  0.22603859D-02  0.14294200D-17  0.62561049D-03
  0.12004698D-02 -0.34122386D-18 -0.99116974D-02  0.56573865D-02  0.42543109D-02
 -0.47720563D-02 -0.35684082D-17  0.76720076D-17 -0.52704914D-03  0.93059981D-03
 -0.40355067D-03  0.10869823D-02  0.10252316D-17 -0.89127877D-17
MO    5     MO 0.0        OCC NO =    2.0000000  ORB. ENERGY =   -0.747927
 -0.13097199D-03 -0.24416157D-03 -0.41267607D-03 -0.62038731D-03 -0.76221749D-03
 -0.64381452D-03 -0.24282315D-03  0.12017453D-05  0.16643222D-01  0.31161363D-01
  0.53054887D-01  0.82067843D-01  0.10808046D+00  0.11230252D+00  0.71363212D-01
 -0.47825965D-01 -0.19669995D-01 -0.18386797D-01 -0.90354540D-03  0.27100142D+00
  0.25408106D+00  0.18092085D+00 -0.17228351D+00 -0.16152674D+00 -0.11501666D+00
 -0.45746250D-15 -0.42890017D-15 -0.30540247D-15  0.69276873D-01 -0.35070726D-01
 -0.12218038D-15  0.66356414D-02 -0.20421712D-02 -0.21455172D-16  0.78747559D-05
 -0.73599243D-06 -0.13156080D-18 -0.29286924D-01  0.24175791D-01  0.51111329D-02
 -0.16929441D-01 -0.10048201D-15 -0.35893244D-15 -0.65585388D-02  0.44460506D-02
  0.21124882D-02 -0.43170415D-02 -0.64208938D-16  0.14998042D-15 -0.27799652D-03
  0.35502066D-04  0.24249445D-03  0.25721369D-03 -0.49237063D-17  0.28243716D-17
 -0.13486576D-02 -0.77156304D-03 -0.90900521D-17  0.73334856D-02  0.55519651D-03
 -0.18118366D-16 -0.32875129D-02  0.17594926D-02  0.45388522D-16 -0.45754453D-16
  0.18720051D-03 -0.14459634D-03  0.38464007D-17 -0.16747627D-03  0.69314914D-03
  0.29285822D-17 -0.39412525D-03 -0.25936011D-03 -0.14467784D-16  0.20192471D-16
 -0.28796053D-01 -0.51934867D-01 -0.76577931D-01 -0.45664407D-01 -0.19677081D-02
  0.12417054D-03 -0.22786818D-01  0.88010964D-02  0.38158814D-17 -0.32603909D-02
 -0.72538876D-03  0.10570992D-16  0.41191658D-03  0.31614004D-03 -0.47394818D-17
 -0.47766158D-02  0.24303905D-02  0.23462253D-02  0.41758542D-02  0.14474848D-16
 -0.37338406D-16  0.69515537D-04  0.85221549D-05 -0.78037692D-04 -0.49907205D-03
  0.76531008D-17  0.11376914D-16  0.12758926D-02  0.23780997D-02  0.40324691D-02
  0.61033298D-02  0.76151736D-02  0.65404185D-02  0.25109938D-02 -0.11231830D-04
 -0.27862894D-01 -0.52257549D-01 -0.89087664D-01 -0.13922668D+00 -0.18617260D+00
 -0.19878893D+00 -0.12153565D+00  0.80181843D-01  0.43301865D-01  0.52283738D-01
  0.23913381D-02  0.11080103D+01  0.10743973D+01  0.72478204D+00  0.18626478D+00
  0.18061418D+00  0.12184126D+00 -0.17498368D-14 -0.16967531D-14 -0.11446196D-14
  0.26048151D+00  0.44681922D-01 -0.47703976D-15  0.24325488D-01 -0.42415790D-03
  0.26626734D-16  0.24202868D-03 -0.22415951D-03 -0.52087286D-18 -0.49576041D-01
  0.27105276D-01  0.22470765D-01  0.52069529D-02  0.18312464D-14 -0.16564328D-14
 -0.11846348D-01  0.10441633D-01  0.14047149D-02  0.11436942D-01 -0.66658428D-16
  0.14577754D-15  0.83606154D-03 -0.14261931D-03 -0.69344223D-03  0.18499819D-02
 -0.80775314D-18 -0.27710746D-17 -0.23594222D-02  0.69919212D-03  0.72607412D-15
  0.22111958D-01  0.51003310D-02 -0.40309980D-15 -0.15033691D-01 -0.71979073D-02
 -0.17751226D-14 -0.29813429D-14 -0.10413152D-03  0.11610657D-02 -0.45247386D-16
 -0.25260869D-03 -0.25924713D-02 -0.17543724D-19  0.56500325D-03 -0.89072592D-03
  0.13575970D-15  0.17968068D-15 -0.26395161D-01 -0.47604759D-01 -0.70193190D-01
 -0.65291655D-01 -0.44024416D-02 -0.20067437D-04 -0.18087596D-01 -0.14604470D-01
  0.16018872D-15 -0.12571892D-01 -0.78035549D-02 -0.83684877D-16  0.49117254D-04
  0.54270669D-03 -0.71408718D-17 -0.51074682D-02  0.10174529D-02  0.40900153D-02
 -0.10040707D-01  0.27586153D-15  0.11656345D-15 -0.49352417D-04  0.25729589D-03
 -0.20794347D-03  0.18877936D-03 -0.35730509D-16 -0.10065134D-16
MO    6     MO 0.0        OCC NO =    2.0000000  ORB. ENERGY =   -0.594317
  0.19715925D-15  0.36754968D-15  0.62122371D-15  0.93390272D-15  0.11474074D-14
  0.96916897D-15  0.36553488D-15 -0.18090525D-17 -0.53770980D-15 -0.10067624D-14
 -0.17140991D-14 -0.26514507D-14 -0.34918673D-14 -0.36282738D-14 -0.23056051D-14
  0.15451630D-14  0.26225519D-15  0.10436048D-14  0.18133127D-15 -0.44296708D-15
 -0.41530980D-15 -0.29572532D-15  0.91510960D-14  0.85797342D-14  0.61092819D-14
  0.20891701D+00  0.19587298D+00  0.13947323D+00 -0.63261376D-15  0.22692815D-14
  0.55179388D-01 -0.29681212D-15  0.26163517D-15  0.54807774D-02  0.25318066D-17
 -0.38201145D-16 -0.28591300D-04  0.34196201D-15 -0.73006818D-15  0.38810618D-15
 -0.11080295D-14 -0.72378728D-02 -0.62262252D-01  0.27900018D-15 -0.24420657D-15
 -0.34793610D-16 -0.44020263D-15 -0.15643920D-02 -0.13773938D-01  0.38069657D-16
  0.42871391D-17 -0.42356796D-16 -0.50031104D-16 -0.19616924D-03 -0.46374953D-04
 -0.12345741D-15 -0.85160796D-16 -0.33268378D-02  0.48941897D-15  0.25520711D-15
 -0.55057195D-02 -0.11904673D-15  0.27527512D-18  0.15486233D-01  0.66599122D-03
 -0.42542953D-16 -0.15402579D-16 -0.25441093D-03  0.12652742D-15  0.26283766D-17
 -0.51511190D-03  0.11014443D-17  0.43579361D-16  0.12783447D-02  0.65736545D-03
  0.57313591D-15  0.10336742D-14  0.15241520D-14  0.12734068D-15 -0.51179316D-15
  0.54725231D-16  0.23360741D-15  0.14902533D-15  0.41168994D-02 -0.14995154D-15
  0.17920031D-15  0.29115122D-02 -0.47077979D-16 -0.25112363D-16 -0.15172235D-03
 -0.25377831D-16  0.35489131D-16 -0.10111300D-16  0.45717946D-15  0.33717152D-02
 -0.14518005D-02 -0.22299323D-16  0.56510512D-16 -0.34211189D-16  0.28938039D-16
  0.10257856D-03  0.65083949D-04  0.15597747D-16  0.29072194D-16  0.49296808D-16
  0.74613016D-16  0.93095259D-16  0.79956412D-16  0.30696821D-16 -0.13730876D-18
 -0.38794599D-15 -0.72760232D-15 -0.12404024D-14 -0.19385076D-14 -0.25921540D-14
 -0.27678161D-14 -0.16921885D-14  0.11164032D-14  0.90430476D-15  0.65493464D-15
  0.42971091D-15  0.25141954D-13  0.24379238D-13  0.16446090D-13 -0.25274853D-13
 -0.24508106D-13 -0.16533023D-13  0.16039875D+01  0.15553283D+01  0.10492153D+01
  0.59622760D-14 -0.65007612D-14  0.39721871D+00  0.10043361D-14 -0.71039488D-15
  0.59415130D-01 -0.76104142D-16  0.75612843D-16  0.93895454D-03  0.12545373D-15
 -0.84556865D-16 -0.40896866D-16  0.11082703D-14 -0.54603347D-01  0.66301769D-01
 -0.12648050D-16 -0.46423932D-15  0.47688737D-15  0.56247410D-15 -0.14054616D-01
  0.26297882D-01 -0.11080945D-15  0.53994076D-16  0.56815375D-16 -0.22586769D-15
 -0.91739393D-03  0.15248308D-02  0.23324307D-16 -0.61836289D-15 -0.12669318D-01
 -0.24119650D-15  0.12443558D-14  0.29046317D-02  0.17122358D-15  0.61073289D-15
  0.35103322D-01  0.18119173D-01  0.51819234D-16 -0.40204096D-16 -0.27732760D-03
 -0.31256734D-16  0.23282749D-15 -0.14675937D-02 -0.12420097D-15 -0.11221520D-15
  0.22995765D-02 -0.21227610D-02 -0.14778485D-15 -0.26653607D-15 -0.39300728D-15
  0.30697636D-15 -0.63609761D-15 -0.91380184D-16  0.17509649D-15 -0.36441250D-15
  0.20749812D-01  0.13530782D-15 -0.19955395D-15  0.13003241D-01 -0.11910328D-15
 -0.13536050D-15  0.11510143D-02  0.63266296D-15 -0.37716311D-15 -0.25549985D-15
  0.14399377D-15  0.14210421D-01  0.68425761D-02 -0.74112540D-16  0.17151055D-16
  0.56961486D-16 -0.12678654D-15  0.19180970D-02  0.12087700D-02
MO    7     MO 0.0        OCC NO =    2.0000000  ORB. ENERGY =   -0.591689
 -0.75798703D-03 -0.14130602D-02 -0.23883206D-02 -0.35904282D-02 -0.44112559D-02
 -0.37260108D-02 -0.14053142D-02  0.69549783D-05  0.18493474D-01  0.34625619D-01
  0.58953080D-01  0.91191450D-01  0.12009593D+00  0.12478737D+00  0.79296769D-01
 -0.53142851D-01 -0.22827314D-01 -0.36137325D-01 -0.70096727D-03  0.42132488D-01
  0.39501886D-01  0.28127696D-01 -0.36714159D+00 -0.34421858D+00 -0.24510413D+00
  0.52687082D-14  0.49397488D-14  0.35173954D-14  0.13440761D-01 -0.88601679D-01
  0.14117496D-14  0.70581831D-02 -0.96047850D-02  0.48467661D-16  0.54654560D-04
 -0.13918134D-03 -0.10574582D-17 -0.30390993D-01  0.36755558D-01 -0.63645648D-02
  0.48460054D-01 -0.39732853D-15 -0.13898526D-14 -0.71317922D-02  0.78833451D-02
 -0.75155285D-03  0.10223720D-01  0.24037536D-16 -0.30405846D-15 -0.46991763D-03
  0.32024570D-03  0.14967193D-03  0.10038231D-03  0.48212286D-18  0.68175557D-17
  0.27984003D-02 -0.19140680D-02 -0.89401537D-16 -0.73855158D-02  0.29279933D-02
 -0.15165094D-15 -0.10096852D-02  0.28142108D-02  0.41985555D-15  0.79017993D-17
  0.54316239D-03  0.34154554D-04 -0.39476200D-17 -0.11289619D-02 -0.54402687D-03
 -0.17223645D-17 -0.50052523D-03  0.44156321D-03  0.13565225D-16  0.17117814D-16
 -0.24989540D-01 -0.45069664D-01 -0.66455193D-01 -0.37837491D-01  0.46039253D-02
  0.13451574D-03 -0.18137660D-01 -0.16654435D-02  0.97943628D-16 -0.23268352D-02
 -0.13941981D-02  0.50400973D-16  0.18000666D-02 -0.75022899D-03  0.62367358D-18
 -0.43767170D-02  0.38726870D-02  0.50402998D-03 -0.28122328D-02  0.52943973D-16
 -0.31996853D-16 -0.11762916D-03 -0.21506372D-03  0.33269288D-03 -0.10037937D-03
  0.91564464D-17 -0.17480962D-17 -0.77698219D-03 -0.14481948D-02 -0.24556586D-02
 -0.37167537D-02 -0.46374234D-02 -0.39829282D-02 -0.15291236D-02  0.68398636D-05
  0.12798715D-01  0.24004307D-01  0.40922082D-01  0.63953248D-01  0.85517678D-01
  0.91312943D-01  0.55826943D-01 -0.36831226D-01 -0.23725470D-01 -0.40129613D-01
 -0.10025219D-01 -0.91432002D+00 -0.88658286D+00 -0.59808356D+00  0.10301341D+01
  0.99888355D+00  0.67384094D+00  0.40713142D-13  0.39478053D-13  0.26631661D-13
 -0.21767093D+00  0.25225346D+00  0.10045806D-13 -0.25623187D-01  0.38126594D-01
  0.15980195D-14 -0.19432587D-03  0.13757937D-03  0.25743219D-16  0.55461967D-02
  0.28153648D-01 -0.33699845D-01 -0.32447916D-01 -0.13625871D-14  0.16964306D-14
 -0.10953858D-02  0.83991993D-02 -0.73038135D-02 -0.16887101D-01 -0.35012354D-15
  0.67940359D-15 -0.97912399D-03  0.80131803D-03  0.17780596D-03 -0.19397205D-02
 -0.26253757D-16  0.84747296D-16 -0.28079270D-02  0.12171483D-01 -0.29751552D-15
  0.12374552D-02 -0.19871420D-01  0.75125895D-16  0.71863257D-02 -0.16643030D-01
  0.81742067D-15  0.45676688D-15  0.91815391D-03  0.64264856D-03 -0.13637732D-16
 -0.22922066D-02 -0.95133972D-04 -0.30565040D-16 -0.46225510D-03 -0.18328117D-02
  0.71478235D-16 -0.69529192D-16  0.81836913D-02  0.14759624D-01  0.21763057D-01
  0.30569194D-01  0.85956815D-02  0.22552277D-04 -0.52332096D-03  0.16827320D-01
  0.52999563D-15  0.41628399D-02  0.11923579D-01  0.31723410D-15  0.35124647D-03
  0.11742106D-02  0.22549995D-16 -0.21722964D-02  0.30668269D-02 -0.89453056D-03
  0.10601731D-01  0.34518919D-15  0.18968614D-15 -0.56522784D-03  0.55795231D-03
  0.72755267D-05  0.10004760D-02  0.55591782D-16  0.94487886D-17
MO    8     MO 0.0        OCC NO =    2.0000000  ORB. ENERGY =   -0.371645
  0.14872786D-02  0.27726254D-02  0.46862253D-02  0.70449317D-02  0.86555126D-02
  0.73109640D-02  0.27574266D-02 -0.13646658D-04 -0.31434511D-01 -0.58855322D-01
 -0.10020622D+00 -0.15500379D+00 -0.20413454D+00 -0.21210886D+00 -0.13478566D+00
  0.90330214D-01  0.43403114D-01  0.48629004D-01  0.56046910D-02  0.52476069D+00
  0.49199650D+00  0.35033082D+00  0.22109664D+00  0.20729215D+00  0.14760436D+00
  0.41545725D-15  0.38951758D-15  0.27735972D-15  0.13696284D+00  0.53738190D-01
  0.18552746D-15  0.23525913D-01  0.90947566D-02  0.73211475D-16  0.53091840D-03
  0.96752888D-04 -0.51284116D-17 -0.19715654D-01 -0.93679830D-03  0.20652452D-01
  0.76378874D-02 -0.54465704D-15  0.15928870D-15 -0.52522048D-02  0.78147038D-03
  0.44707344D-02  0.53619473D-02  0.16813799D-16 -0.13993940D-16 -0.36722274D-03