 Molden2AIM, Version 4.0.0 (06/02/2016)           Time: Wed Jun 27 23:48:01 2018
GAUSSIAN             33 MOL ORBITALS    562 PRIMITIVES        6 NUCLEI
  Cl   1    (CENTRE  1)   4.33642635  2.60138942 -1.39513189  CHARGE = 17.0
  O    2    (CENTRE  2)  -0.14597567  0.37378027  1.89822233  CHARGE =  8.0
  Cl   3    (CENTRE  3)  -0.72764849  2.71485803  0.54557527  CHARGE = 17.0
  O    4    (CENTRE  4)   2.22844252  4.32759188  0.25120507  CHARGE =  8.0
  O    5    (CENTRE  5)  -1.61262424  2.34065257 -2.04774313  CHARGE =  8.0
  O    6    (CENTRE  6)  -2.04933806  4.65293091  2.00211948  CHARGE =  8.0
CENTRE ASSIGNMENTS    1  1  1  1  1  1  1  1  1  1  1  1  1  1  1  1  1  1  1  1
CENTRE ASSIGNMENTS    1  1  1  1  1  1  1  1  1  1  1  1  1  1  1  1  1  1  1  1
CENTRE ASSIGNMENTS    1  1  1  1  1  1  1  1  1  1  1  1  1  1  1  1  1  1  1  1
CENTRE ASSIGNMENTS    1  1  1  1  1  1  1  1  1  1  1  1  1  1  1  1  1  1  1  1
CENTRE ASSIGNMENTS    1  1  1  1  1  1  1  1  1  1  1  1  1  1  1  1  1  1  1  1
CENTRE ASSIGNMENTS    1  1  1  1  1  1  1  1  1  1  1  1  1  1  1  1  1  1  1  1
CENTRE ASSIGNMENTS    1  1  1  1  1  1  1  1  1  1  1  2  2  2  2  2  2  2  2  2
CENTRE ASSIGNMENTS    2  2  2  2  2  2  2  2  2  2  2  2  2  2  2  2  2  2  2  2
CENTRE ASSIGNMENTS    2  2  2  2  2  2  2  2  2  2  2  2  2  2  2  2  2  2  2  2
CENTRE ASSIGNMENTS    2  2  2  2  2  2  2  2  2  2  2  2  2  2  2  2  2  2  2  2
CENTRE ASSIGNMENTS    2  2  2  2  2  2  3  3  3  3  3  3  3  3  3  3  3  3  3  3
CENTRE ASSIGNMENTS    3  3  3  3  3  3  3  3  3  3  3  3  3  3  3  3  3  3  3  3
CENTRE ASSIGNMENTS    3  3  3  3  3  3  3  3  3  3  3  3  3  3  3  3  3  3  3  3
CENTRE ASSIGNMENTS    3  3  3  3  3  3  3  3  3  3  3  3  3  3  3  3  3  3  3  3
CENTRE ASSIGNMENTS    3  3  3  3  3  3  3  3  3  3  3  3  3  3  3  3  3  3  3  3
CENTRE ASSIGNMENTS    3  3  3  3  3  3  3  3  3  3  3  3  3  3  3  3  3  3  3  3
CENTRE ASSIGNMENTS    3  3  3  3  3  3  3  3  3  3  3  3  3  3  3  3  3  4  4  4
CENTRE ASSIGNMENTS    4  4  4  4  4  4  4  4  4  4  4  4  4  4  4  4  4  4  4  4
CENTRE ASSIGNMENTS    4  4  4  4  4  4  4  4  4  4  4  4  4  4  4  4  4  4  4  4
CENTRE ASSIGNMENTS    4  4  4  4  4  4  4  4  4  4  4  4  4  4  4  4  4  4  4  4
CENTRE ASSIGNMENTS    4  4  4  4  4  4  4  4  4  4  4  4  5  5  5  5  5  5  5  5
CENTRE ASSIGNMENTS    5  5  5  5  5  5  5  5  5  5  5  5  5  5  5  5  5  5  5  5
CENTRE ASSIGNMENTS    5  5  5  5  5  5  5  5  5  5  5  5  5  5  5  5  5  5  5  5
CENTRE ASSIGNMENTS    5  5  5  5  5  5  5  5  5  5  5  5  5  5  5  5  5  5  5  5
CENTRE ASSIGNMENTS    5  5  5  5  5  5  5  6  6  6  6  6  6  6  6  6  6  6  6  6
CENTRE ASSIGNMENTS    6  6  6  6  6  6  6  6  6  6  6  6  6  6  6  6  6  6  6  6
CENTRE ASSIGNMENTS    6  6  6  6  6  6  6  6  6  6  6  6  6  6  6  6  6  6  6  6
CENTRE ASSIGNMENTS    6  6  6  6  6  6  6  6  6  6  6  6  6  6  6  6  6  6  6  6
CENTRE ASSIGNMENTS    6  6
TYPE ASSIGNMENTS      1  1  1  1  1  1  1  1  1  1  1  1  1  1  1  1  1  1  1  1
TYPE ASSIGNMENTS      1  1  1  1  1  1  1  1  1  1  1  1  1  1  1  1  1  1  1  1
TYPE ASSIGNMENTS      1  1  2  2  2  2  2  2  2  3  3  3  3  3  3  3  4  4  4  4
TYPE ASSIGNMENTS      4  4  4  2  2  2  2  2  2  2  3  3  3  3  3  3  3  4  4  4
TYPE ASSIGNMENTS      4  4  4  4  2  3  4  2  3  4  2  3  4  5  6  7  8  9 10  5
TYPE ASSIGNMENTS      6  7  8  9 10  5  6  7  8  9 10 11 12 13 17 14 15 18 19 16
TYPE ASSIGNMENTS     20 11 12 13 17 14 15 18 19 16 20  1  1  1  1  1  1  1  1  1
TYPE ASSIGNMENTS      1  1  1  1  1  1  1  1  1  1  2  2  2  3  3  3  4  4  4  2
TYPE ASSIGNMENTS      3  4  2  3  4  2  3  4  5  6  7  8  9 10  5  6  7  8  9 10
TYPE ASSIGNMENTS      5  6  7  8  9 10 11 12 13 17 14 15 18 19 16 20 11 12 13 17
TYPE ASSIGNMENTS     14 15 18 19 16 20  1  1  1  1  1  1  1  1  1  1  1  1  1  1
TYPE ASSIGNMENTS      1  1  1  1  1  1  1  1  1  1  1  1  1  1  1  1  1  1  1  1
TYPE ASSIGNMENTS      1  1  1  1  1  1  1  1  2  2  2  2  2  2  2  3  3  3  3  3
TYPE ASSIGNMENTS      3  3  4  4  4  4  4  4  4  2  2  2  2  2  2  2  3  3  3  3
TYPE ASSIGNMENTS      3  3  3  4  4  4  4  4  4  4  2  3  4  2  3  4  2  3  4  5
TYPE ASSIGNMENTS      6  7  8  9 10  5  6  7  8  9 10  5  6  7  8  9 10 11 12 13
TYPE ASSIGNMENTS     17 14 15 18 19 16 20 11 12 13 17 14 15 18 19 16 20  1  1  1
TYPE ASSIGNMENTS      1  1  1  1  1  1  1  1  1  1  1  1  1  1  1  1  2  2  2  3
TYPE ASSIGNMENTS      3  3  4  4  4  2  3  4  2  3  4  2  3  4  5  6  7  8  9 10
TYPE ASSIGNMENTS      5  6  7  8  9 10  5  6  7  8  9 10 11 12 13 17 14 15 18 19
TYPE ASSIGNMENTS     16 20 11 12 13 17 14 15 18 19 16 20  1  1  1  1  1  1  1  1
TYPE ASSIGNMENTS      1  1  1  1  1  1  1  1  1  1  1  2  2  2  3  3  3  4  4  4
TYPE ASSIGNMENTS      2  3  4  2  3  4  2  3  4  5  6  7  8  9 10  5  6  7  8  9
TYPE ASSIGNMENTS     10  5  6  7  8  9 10 11 12 13 17 14 15 18 19 16 20 11 12 13
TYPE ASSIGNMENTS     17 14 15 18 19 16 20  1  1  1  1  1  1  1  1  1  1  1  1  1
TYPE ASSIGNMENTS      1  1  1  1  1  1  2  2  2  3  3  3  4  4  4  2  3  4  2  3
TYPE ASSIGNMENTS      4  2  3  4  5  6  7  8  9 10  5  6  7  8  9 10  5  6  7  8
TYPE ASSIGNMENTS      9 10 11 12 13 17 14 15 18 19 16 20 11 12 13 17 14 15 18 19
TYPE ASSIGNMENTS     16 20
EXPONENTS  0.4561000D+06 0.6833000D+05 0.1555000D+05 0.4405000D+04 0.1439000D+04
EXPONENTS  0.5204000D+03 0.2031000D+03 0.8396000D+02 0.3620000D+02 0.1583000D+02
EXPONENTS  0.6334000D+01 0.2694000D+01 0.4313000D+00 0.4561000D+06 0.6833000D+05
EXPONENTS  0.1555000D+05 0.4405000D+04 0.1439000D+04 0.5204000D+03 0.2031000D+03
EXPONENTS  0.8396000D+02 0.3620000D+02 0.1583000D+02 0.6334000D+01 0.2694000D+01
EXPONENTS  0.4313000D+00 0.4561000D+06 0.6833000D+05 0.1555000D+05 0.4405000D+04
EXPONENTS  0.1439000D+04 0.5204000D+03 0.2031000D+03 0.8396000D+02 0.3620000D+02
EXPONENTS  0.1583000D+02 0.6334000D+01 0.2694000D+01 0.4313000D+00 0.9768000D+00
EXPONENTS  0.1625000D+00 0.5910000D-01 0.6633000D+03 0.1568000D+03 0.4998000D+02
EXPONENTS  0.1842000D+02 0.7240000D+01 0.2922000D+01 0.3818000D+00 0.6633000D+03
EXPONENTS  0.1568000D+03 0.4998000D+02 0.1842000D+02 0.7240000D+01 0.2922000D+01
EXPONENTS  0.3818000D+00 0.6633000D+03 0.1568000D+03 0.4998000D+02 0.1842000D+02
EXPONENTS  0.7240000D+01 0.2922000D+01 0.3818000D+00 0.6633000D+03 0.1568000D+03
EXPONENTS  0.4998000D+02 0.1842000D+02 0.7240000D+01 0.2922000D+01 0.3818000D+00
EXPONENTS  0.6633000D+03 0.1568000D+03 0.4998000D+02 0.1842000D+02 0.7240000D+01
EXPONENTS  0.2922000D+01 0.3818000D+00 0.6633000D+03 0.1568000D+03 0.4998000D+02
EXPONENTS  0.1842000D+02 0.7240000D+01 0.2922000D+01 0.3818000D+00 0.1022000D+01
EXPONENTS  0.1022000D+01 0.1022000D+01 0.1301000D+00 0.1301000D+00 0.1301000D+00
EXPONENTS  0.4190000D-01 0.4190000D-01 0.4190000D-01 0.1046000D+01 0.1046000D+01
EXPONENTS  0.1046000D+01 0.1046000D+01 0.1046000D+01 0.1046000D+01 0.3440000D+00
EXPONENTS  0.3440000D+00 0.3440000D+00 0.3440000D+00 0.3440000D+00 0.3440000D+00
EXPONENTS  0.1350000D+00 0.1350000D+00 0.1350000D+00 0.1350000D+00 0.1350000D+00
EXPONENTS  0.1350000D+00 0.7060000D+00 0.7060000D+00 0.7060000D+00 0.7060000D+00
EXPONENTS  0.7060000D+00 0.7060000D+00 0.7060000D+00 0.7060000D+00 0.7060000D+00
EXPONENTS  0.7060000D+00 0.3120000D+00 0.3120000D+00 0.3120000D+00 0.3120000D+00
EXPONENTS  0.3120000D+00 0.3120000D+00 0.3120000D+00 0.3120000D+00 0.3120000D+00
EXPONENTS  0.3120000D+00 0.1533000D+05 0.2299000D+04 0.5224000D+03 0.1473000D+03
EXPONENTS  0.4755000D+02 0.1676000D+02 0.6207000D+01 0.6882000D+00 0.1533000D+05
EXPONENTS  0.2299000D+04 0.5224000D+03 0.1473000D+03 0.4755000D+02 0.1676000D+02
EXPONENTS  0.6207000D+01 0.6882000D+00 0.1752000D+01 0.2384000D+00 0.7376000D-01
EXPONENTS  0.3446000D+02 0.7749000D+01 0.2280000D+01 0.3446000D+02 0.7749000D+01
EXPONENTS  0.2280000D+01 0.3446000D+02 0.7749000D+01 0.2280000D+01 0.7156000D+00
EXPONENTS  0.7156000D+00 0.7156000D+00 0.2140000D+00 0.2140000D+00 0.2140000D+00
EXPONENTS  0.5974000D-01 0.5974000D-01 0.5974000D-01 0.2314000D+01 0.2314000D+01
EXPONENTS  0.2314000D+01 0.2314000D+01 0.2314000D+01 0.2314000D+01 0.6450000D+00
EXPONENTS  0.6450000D+00 0.6450000D+00 0.6450000D+00 0.6450000D+00 0.6450000D+00
EXPONENTS  0.2140000D+00 0.2140000D+00 0.2140000D+00 0.2140000D+00 0.2140000D+00
EXPONENTS  0.2140000D+00 0.1428000D+01 0.1428000D+01 0.1428000D+01 0.1428000D+01
EXPONENTS  0.1428000D+01 0.1428000D+01 0.1428000D+01 0.1428000D+01 0.1428000D+01
EXPONENTS  0.1428000D+01 0.5000000D+00 0.5000000D+00 0.5000000D+00 0.5000000D+00
EXPONENTS  0.5000000D+00 0.5000000D+00 0.5000000D+00 0.5000000D+00 0.5000000D+00
EXPONENTS  0.5000000D+00 0.4561000D+06 0.6833000D+05 0.1555000D+05 0.4405000D+04
EXPONENTS  0.1439000D+04 0.5204000D+03 0.2031000D+03 0.8396000D+02 0.3620000D+02
EXPONENTS  0.1583000D+02 0.6334000D+01 0.2694000D+01 0.4313000D+00 0.4561000D+06
EXPONENTS  0.6833000D+05 0.1555000D+05 0.4405000D+04 0.1439000D+04 0.5204000D+03
EXPONENTS  0.2031000D+03 0.8396000D+02 0.3620000D+02 0.1583000D+02 0.6334000D+01
EXPONENTS  0.2694000D+01 0.4313000D+00 0.4561000D+06 0.6833000D+05 0.1555000D+05
EXPONENTS  0.4405000D+04 0.1439000D+04 0.5204000D+03 0.2031000D+03 0.8396000D+02
EXPONENTS  0.3620000D+02 0.1583000D+02 0.6334000D+01 0.2694000D+01 0.4313000D+00
EXPONENTS  0.9768000D+00 0.1625000D+00 0.5910000D-01 0.6633000D+03 0.1568000D+03
EXPONENTS  0.4998000D+02 0.1842000D+02 0.7240000D+01 0.2922000D+01 0.3818000D+00
EXPONENTS  0.6633000D+03 0.1568000D+03 0.4998000D+02 0.1842000D+02 0.7240000D+01
EXPONENTS  0.2922000D+01 0.3818000D+00 0.6633000D+03 0.1568000D+03 0.4998000D+02
EXPONENTS  0.1842000D+02 0.7240000D+01 0.2922000D+01 0.3818000D+00 0.6633000D+03
EXPONENTS  0.1568000D+03 0.4998000D+02 0.1842000D+02 0.7240000D+01 0.2922000D+01
EXPONENTS  0.3818000D+00 0.6633000D+03 0.1568000D+03 0.4998000D+02 0.1842000D+02
EXPONENTS  0.7240000D+01 0.2922000D+01 0.3818000D+00 0.6633000D+03 0.1568000D+03
EXPONENTS  0.4998000D+02 0.1842000D+02 0.7240000D+01 0.2922000D+01 0.3818000D+00
EXPONENTS  0.1022000D+01 0.1022000D+01 0.1022000D+01 0.1301000D+00 0.1301000D+00
EXPONENTS  0.1301000D+00 0.4190000D-01 0.4190000D-01 0.4190000D-01 0.1046000D+01
EXPONENTS  0.1046000D+01 0.1046000D+01 0.1046000D+01 0.1046000D+01 0.1046000D+01
EXPONENTS  0.3440000D+00 0.3440000D+00 0.3440000D+00 0.3440000D+00 0.3440000D+00
EXPONENTS  0.3440000D+00 0.1350000D+00 0.1350000D+00 0.1350000D+00 0.1350000D+00
EXPONENTS  0.1350000D+00 0.1350000D+00 0.7060000D+00 0.7060000D+00 0.7060000D+00
EXPONENTS  0.7060000D+00 0.7060000D+00 0.7060000D+00 0.7060000D+00 0.7060000D+00
EXPONENTS  0.7060000D+00 0.7060000D+00 0.3120000D+00 0.3120000D+00 0.3120000D+00
EXPONENTS  0.3120000D+00 0.3120000D+00 0.3120000D+00 0.3120000D+00 0.3120000D+00
EXPONENTS  0.3120000D+00 0.3120000D+00 0.1533000D+05 0.2299000D+04 0.5224000D+03
EXPONENTS  0.1473000D+03 0.4755000D+02 0.1676000D+02 0.6207000D+01 0.6882000D+00
EXPONENTS  0.1533000D+05 0.2299000D+04 0.5224000D+03 0.1473000D+03 0.4755000D+02
EXPONENTS  0.1676000D+02 0.6207000D+01 0.6882000D+00 0.1752000D+01 0.2384000D+00
EXPONENTS  0.7376000D-01 0.3446000D+02 0.7749000D+01 0.2280000D+01 0.3446000D+02
EXPONENTS  0.7749000D+01 0.2280000D+01 0.3446000D+02 0.7749000D+01 0.2280000D+01
EXPONENTS  0.7156000D+00 0.7156000D+00 0.7156000D+00 0.2140000D+00 0.2140000D+00
EXPONENTS  0.2140000D+00 0.5974000D-01 0.5974000D-01 0.5974000D-01 0.2314000D+01
EXPONENTS  0.2314000D+01 0.2314000D+01 0.2314000D+01 0.2314000D+01 0.2314000D+01
EXPONENTS  0.6450000D+00 0.6450000D+00 0.6450000D+00 0.6450000D+00 0.6450000D+00
EXPONENTS  0.6450000D+00 0.2140000D+00 0.2140000D+00 0.2140000D+00 0.2140000D+00
EXPONENTS  0.2140000D+00 0.2140000D+00 0.1428000D+01 0.1428000D+01 0.1428000D+01
EXPONENTS  0.1428000D+01 0.1428000D+01 0.1428000D+01 0.1428000D+01 0.1428000D+01
EXPONENTS  0.1428000D+01 0.1428000D+01 0.5000000D+00 0.5000000D+00 0.5000000D+00
EXPONENTS  0.5000000D+00 0.5000000D+00 0.5000000D+00 0.5000000D+00 0.5000000D+00
EXPONENTS  0.5000000D+00 0.5000000D+00 0.1533000D+05 0.2299000D+04 0.5224000D+03
EXPONENTS  0.1473000D+03 0.4755000D+02 0.1676000D+02 0.6207000D+01 0.6882000D+00
EXPONENTS  0.1533000D+05 0.2299000D+04 0.5224000D+03 0.1473000D+03 0.4755000D+02
EXPONENTS  0.1676000D+02 0.6207000D+01 0.6882000D+00 0.1752000D+01 0.2384000D+00
EXPONENTS  0.7376000D-01 0.3446000D+02 0.7749000D+01 0.2280000D+01 0.3446000D+02
EXPONENTS  0.7749000D+01 0.2280000D+01 0.3446000D+02 0.7749000D+01 0.2280000D+01
EXPONENTS  0.7156000D+00 0.7156000D+00 0.7156000D+00 0.2140000D+00 0.2140000D+00
EXPONENTS  0.2140000D+00 0.5974000D-01 0.5974000D-01 0.5974000D-01 0.2314000D+01
EXPONENTS  0.2314000D+01 0.2314000D+01 0.2314000D+01 0.2314000D+01 0.2314000D+01
EXPONENTS  0.6450000D+00 0.6450000D+00 0.6450000D+00 0.6450000D+00 0.6450000D+00
EXPONENTS  0.6450000D+00 0.2140000D+00 0.2140000D+00 0.2140000D+00 0.2140000D+00
EXPONENTS  0.2140000D+00 0.2140000D+00 0.1428000D+01 0.1428000D+01 0.1428000D+01
EXPONENTS  0.1428000D+01 0.1428000D+01 0.1428000D+01 0.1428000D+01 0.1428000D+01
EXPONENTS  0.1428000D+01 0.1428000D+01 0.5000000D+00 0.5000000D+00 0.5000000D+00
EXPONENTS  0.5000000D+00 0.5000000D+00 0.5000000D+00 0.5000000D+00 0.5000000D+00
EXPONENTS  0.5000000D+00 0.5000000D+00 0.1533000D+05 0.2299000D+04 0.5224000D+03
EXPONENTS  0.1473000D+03 0.4755000D+02 0.1676000D+02 0.6207000D+01 0.6882000D+00
EXPONENTS  0.1533000D+05 0.2299000D+04 0.5224000D+03 0.1473000D+03 0.4755000D+02
EXPONENTS  0.1676000D+02 0.6207000D+01 0.6882000D+00 0.1752000D+01 0.2384000D+00
EXPONENTS  0.7376000D-01 0.3446000D+02 0.7749000D+01 0.2280000D+01 0.3446000D+02
EXPONENTS  0.7749000D+01 0.2280000D+01 0.3446000D+02 0.7749000D+01 0.2280000D+01
EXPONENTS  0.7156000D+00 0.7156000D+00 0.7156000D+00 0.2140000D+00 0.2140000D+00
EXPONENTS  0.2140000D+00 0.5974000D-01 0.5974000D-01 0.5974000D-01 0.2314000D+01
EXPONENTS  0.2314000D+01 0.2314000D+01 0.2314000D+01 0.2314000D+01 0.2314000D+01
EXPONENTS  0.6450000D+00 0.6450000D+00 0.6450000D+00 0.6450000D+00 0.6450000D+00
EXPONENTS  0.6450000D+00 0.2140000D+00 0.2140000D+00 0.2140000D+00 0.2140000D+00
EXPONENTS  0.2140000D+00 0.2140000D+00 0.1428000D+01 0.1428000D+01 0.1428000D+01
EXPONENTS  0.1428000D+01 0.1428000D+01 0.1428000D+01 0.1428000D+01 0.1428000D+01
EXPONENTS  0.1428000D+01 0.1428000D+01 0.5000000D+00 0.5000000D+00 0.5000000D+00
EXPONENTS  0.5000000D+00 0.5000000D+00 0.5000000D+00 0.5000000D+00 0.5000000D+00
EXPONENTS  0.5000000D+00 0.5000000D+00
MO    1     MO 0.0        OCC NO =    2.0000000  ORB. ENERGY = -105.313465
 -0.34398490D-06 -0.64359707D-06 -0.11119932D-05 -0.18026706D-05 -0.27374991D-05
 -0.38048018D-05 -0.45233605D-05 -0.40290616D-05 -0.20001468D-05 -0.32225570D-06
 -0.49474834D-08 -0.88411042D-09 -0.33037827D-10  0.40375076D-06  0.75414845D-06
  0.13088612D-05  0.21237498D-05  0.32873125D-05  0.47054892D-05  0.61421333D-05
  0.65454679D-05  0.48928701D-05  0.25828592D-06 -0.33188459D-05 -0.19717758D-05
  0.73926809D-08 -0.23176204D-06 -0.43255045D-06 -0.75173461D-06 -0.12183407D-05
 -0.18922738D-05 -0.27107368D-05 -0.35792754D-05 -0.38702584D-05 -0.30343328D-05
 -0.15098740D-06  0.26011904D-05  0.26927142D-05 -0.12184913D-05  0.66219765D-06
 -0.63555535D-05 -0.14422120D-05  0.18714227D-04  0.24650837D-04  0.27195648D-04
  0.22589112D-04  0.11997626D-04  0.30945377D-05 -0.31810796D-08 -0.72136287D-04
 -0.95019679D-04 -0.10482897D-03 -0.87072506D-04 -0.46246323D-04 -0.11928276D-04
  0.12261862D-07 -0.43005805D-04 -0.56648297D-04 -0.62496342D-04 -0.51910396D-04
 -0.27570872D-04 -0.71113322D-05  0.73102078D-08 -0.18856071D-04 -0.24756639D-04
 -0.28187255D-04 -0.23867810D-04 -0.13672400D-04 -0.31099967D-05  0.14556496D-05
  0.64777837D-04  0.85048551D-04  0.96834032D-04  0.81995081D-04  0.46969939D-04
  0.10684032D-04 -0.50007148D-05  0.39381825D-04  0.51705449D-04  0.58870458D-04
  0.49849086D-04  0.28555475D-04  0.64953800D-05 -0.30401953D-05  0.12496350D-05
  0.33426080D-05  0.12056511D-05  0.12882676D-05 -0.19706645D-05 -0.14647731D-05
 -0.18551764D-07 -0.87982208D-07 -0.37078711D-07 -0.18945547D-05  0.12861816D-05
  0.60837310D-06  0.10378158D-05  0.28302036D-05 -0.30903115D-06  0.15859199D-05
 -0.12426940D-05 -0.34322593D-06  0.16205853D-05 -0.30896381D-06 -0.19278365D-05
  0.48092253D-07 -0.12182827D-06  0.73736015D-07  0.31812195D-06  0.31421939D-06
 -0.49578964D-06 -0.38621989D-06  0.15724478D-06 -0.34554781D-07  0.31173211D-06
 -0.81789787D-06  0.76251666D-06  0.84692755D-06  0.34616353D-06 -0.65885231D-06
  0.50943397D-06 -0.22478988D-06 -0.11877483D-06 -0.55449173D-07  0.85933419D-06
  0.69437440D-06  0.56878874D-06 -0.18496456D-06 -0.33804990D-06 -0.40244122D-06
  0.30938301D-06 -0.16293490D-05 -0.30368968D-05 -0.51495708D-05 -0.77941153D-05
 -0.97247802D-05 -0.83522893D-05 -0.32066063D-05  0.14343347D-07  0.14319265D-05
  0.26856137D-05  0.45783826D-05  0.71551208D-05  0.95677599D-05  0.10216137D-04
  0.62459458D-05 -0.41206957D-05 -0.31448918D-05 -0.24859094D-04 -0.41395154D-05
  0.36713785D-05  0.35600021D-05  0.24015564D-05 -0.11973757D-04 -0.11610516D-04
 -0.78323857D-05  0.70547823D-05  0.68407657D-05  0.46147401D-05  0.16577236D-05
 -0.80320291D-05  0.43830295D-05  0.27336057D-05 -0.68128491D-05  0.40396374D-05
  0.14956604D-06 -0.20487429D-06  0.11118801D-06  0.12577357D-04 -0.13735415D-04
  0.11580582D-05  0.12431223D-04 -0.57778202D-05  0.24675645D-04 -0.46969156D-05
  0.46839377D-05  0.12977915D-07 -0.42099396D-05  0.18051589D-05 -0.78759273D-05
 -0.35669734D-06  0.33736152D-06  0.19335825D-07  0.68334403D-06 -0.23543600D-06
 -0.15583514D-06  0.28546278D-05 -0.58772016D-07  0.36768914D-05 -0.60186418D-05
 -0.42290383D-06  0.21091705D-05 -0.25452416D-05  0.59921988D-06 -0.13139845D-04
  0.61115210D-05  0.61991069D-06  0.14777309D-05  0.10002232D-05 -0.25159356D-05
 -0.56101674D-05  0.24924135D-05  0.65620354D-06  0.11769747D-05 -0.54930830D-05
  0.51516545D-05  0.61659941D+00  0.11536599D+01  0.19932687D+01  0.32313210D+01
  0.49070187D+01  0.68201789D+01  0.81082088D+01  0.72221688D+01  0.35853008D+01
  0.57764941D+00  0.88684571D-02  0.15847846D-02  0.59220927D-04  0.64647673D-04
  0.12075257D-03  0.20957194D-03  0.34005010D-03  0.52635716D-03  0.75343246D-03
  0.98346470D-03  0.10480457D-02  0.78343547D-03  0.41356167D-04 -0.53140621D-03
 -0.31571635D-03  0.11836996D-05 -0.22710750D-04 -0.42386342D-04 -0.73663732D-04
 -0.11938724D-03 -0.18542707D-03 -0.26562963D-03 -0.35073918D-03 -0.37925310D-03
 -0.29733934D-03 -0.14795507D-04  0.25489499D-03  0.26386357D-03 -0.11940200D-03
 -0.15748187D-03  0.86154893D-04  0.10096155D-04  0.22667053D-03  0.29857596D-03
  0.32939923D-03  0.27360393D-03  0.14531769D-03  0.37481672D-04 -0.38529884D-07
  0.11220114D-03  0.14779408D-03  0.16305149D-03  0.13543300D-03  0.71931758D-04
  0.18553299D-04 -0.19072160D-07 -0.28166005D-04 -0.37100950D-04 -0.40931039D-04
 -0.33997933D-04 -0.18057128D-04 -0.46574600D-05  0.47877106D-08 -0.13481438D-03
 -0.17700139D-03 -0.20152911D-03 -0.17064657D-03 -0.97752926D-04 -0.22235399D-04
  0.10407391D-04 -0.65251092D-04 -0.85669901D-04 -0.97541485D-04 -0.82594123D-04
 -0.47313094D-04 -0.10762087D-04  0.50372492D-05  0.17478832D-04  0.22948425D-04
  0.26128471D-04  0.22124516D-04  0.12673774D-04  0.28828440D-05 -0.13493296D-05
 -0.10699199D-04 -0.55440835D-05  0.12093661D-05  0.34907313D-05  0.23551298D-06
 -0.11818632D-05 -0.14269669D-06  0.18906335D-07  0.62475287D-07  0.12468272D-04
 -0.55002588D-05 -0.69680129D-05  0.15630964D-04 -0.68610227D-05 -0.40787994D-05
  0.54101972D-06  0.67487536D-06 -0.12158951D-05  0.38116297D-05  0.59428289D-06
  0.46993405D-06 -0.16993493D-06 -0.28937977D-07  0.19887291D-06 -0.11326628D-06
  0.32350109D-06 -0.32636450D-06 -0.39430726D-05  0.22642371D-05  0.94065298D-05
 -0.16823738D-05 -0.11127814D-04 -0.12800386D-05  0.13511591D-04  0.43351025D-05
 -0.26939551D-04  0.29842245D-04  0.21968527D-05 -0.13853076D-05 -0.38293751D-05
  0.10976106D-05  0.71812616D-05 -0.61871583D-06 -0.76881686D-05 -0.30253389D-05
  0.12106841D-04 -0.12770894D-04  0.47698662D-05  0.88904170D-05  0.15075201D-04
  0.22817020D-04  0.28468979D-04  0.24451056D-04  0.93872358D-05 -0.41989682D-07
 -0.32149381D-05 -0.60296960D-05 -0.10279310D-04 -0.16064560D-04 -0.21481378D-04
 -0.22937104D-04 -0.14023296D-04  0.92517187D-05  0.17155983D-07 -0.20799396D-04
 -0.39518157D-05  0.48998066D-06  0.47511642D-06  0.32051073D-06  0.30327321D-07
  0.29407300D-07  0.19837991D-07 -0.16746741D-06 -0.16238706D-06 -0.10954535D-06
  0.51623123D-06  0.22436299D-05  0.92810587D-06  0.23353172D-04  0.91664587D-05
 -0.41086367D-05  0.10773036D-05  0.30483778D-06 -0.24843728D-06  0.51860532D-05
 -0.14983363D-05 -0.36877169D-05  0.61643101D-05 -0.42785659D-05  0.90829972D-06
 -0.54865962D-05  0.15606262D-05  0.39259700D-05 -0.81346605D-05  0.33993279D-05
  0.46858332D-07 -0.64322444D-06 -0.81706158D-06  0.14602860D-05 -0.67448446D-05
 -0.22788436D-05  0.87396194D-06  0.19892903D-05 -0.44442998D-05 -0.14610049D-05
 -0.28849343D-06  0.14408969D-04  0.63481964D-05 -0.56793774D-05 -0.10760696D-05
 -0.19651818D-05 -0.16263993D-04  0.15347417D-06  0.78699692D-06  0.88218899D-06
 -0.40408161D-07 -0.15149060D-05 -0.34991731D-05 -0.42001435D-06 -0.84608479D-06
  0.85260617D-06  0.47918105D-05 -0.16284531D-05 -0.30352270D-05 -0.51467394D-05
 -0.77898298D-05 -0.97194332D-05 -0.83476968D-05 -0.32048431D-05  0.14335460D-07
  0.14313709D-05  0.26845716D-05  0.45766060D-05  0.71523444D-05  0.95640472D-05
  0.10212173D-04  0.62435221D-05 -0.41190967D-05 -0.31463526D-05 -0.24857112D-04
 -0.41401452D-05 -0.40447231D-05 -0.39220209D-05 -0.26457721D-05 -0.16300432D-05
 -0.15805936D-05 -0.10662591D-05 -0.13701374D-04 -0.13285724D-04 -0.89624709D-05
 -0.31671821D-05 -0.15583617D-05 -0.85978968D-05 -0.17978842D-05 -0.73744511D-06
 -0.81475781D-05  0.50760218D-08 -0.11559956D-07 -0.27652968D-06  0.90205089D-05
  0.82476199D-05 -0.17268129D-04  0.80074742D-06 -0.22197155D-04 -0.10233349D-04
 -0.32212530D-05 -0.24100243D-05  0.56312772D-05 -0.89775100D-06  0.78671830D-05
  0.35516174D-05  0.69324339D-07  0.12335968D-06 -0.19268402D-06  0.26980108D-06
  0.83503545D-06  0.37963746D-06 -0.97885109D-06 -0.24564558D-05  0.49284362D-05
 -0.37571052D-05  0.43647276D-05 -0.49446223D-05  0.66936585D-05  0.30046397D-05
 -0.98406863D-05  0.18964168D-05 -0.19099456D-05 -0.14159250D-06  0.18199463D-05
 -0.10031349D-05 -0.24452896D-05 -0.21673952D-05  0.67329716D-05  0.28700671D-05
 -0.32924437D-05  0.24502904D-05 -0.16301958D-05 -0.30384752D-05 -0.51522473D-05
 -0.77981662D-05 -0.97298346D-05 -0.83566303D-05 -0.32082729D-05  0.14350801D-07
  0.14233897D-05  0.26696026D-05  0.45510873D-05  0.71124635D-05  0.95107189D-05
  0.10155230D-04  0.62087088D-05 -0.40961290D-05 -0.30173783D-05 -0.21093585D-04
 -0.34735259D-05 -0.56168684D-05 -0.54464729D-05 -0.36741584D-05  0.11966746D-04
  0.11603718D-04  0.78277995D-05  0.80505589D-05  0.78063341D-05  0.52661069D-05
 -0.46271582D-05  0.48805290D-05  0.41473003D-05 -0.34389089D-05  0.54790946D-05
  0.40064947D-05  0.61921732D-07  0.21768348D-06  0.85480325D-07  0.73826757D-05
 -0.62441712D-05 -0.11385045D-05  0.25956327D-04  0.12534181D-04 -0.22668642D-04
 -0.31810230D-05  0.24023196D-05  0.77870343D-06 -0.94217621D-05 -0.36938485D-05
  0.77147190D-05  0.74455536D-07 -0.21939464D-06  0.14493910D-06 -0.58632674D-06
 -0.25137028D-06 -0.13067246D-06 -0.11430331D-05 -0.33779747D-06  0.39603588D-05
  0.53165786D-05  0.52165462D-05 -0.30552521D-05 -0.18874792D-05 -0.42031537D-05
 -0.88258244D-05  0.15444892D-04 -0.23452445D-05  0.10042449D-05  0.68695459D-06
  0.47228682D-05 -0.21596135D-05  0.16165238D-05  0.23128654D-05 -0.85312110D-06
 -0.36773876D-05  0.87567923D-05
MO    2     MO 0.0        OCC NO =    2.0000000  ORB. ENERGY = -104.944552
  0.61663578D+00  0.11537279D+01  0.19933862D+01  0.32315116D+01  0.49073081D+01
  0.68205812D+01  0.81086871D+01  0.72225948D+01  0.35855123D+01  0.57768348D+00
  0.88689802D-02  0.15848781D-02  0.59224420D-04 -0.61503012D-05 -0.11487879D-04
 -0.19937772D-04 -0.32350901D-04 -0.50075353D-04 -0.71678319D-04 -0.93562596D-04
 -0.99706558D-04 -0.74532676D-04 -0.39344476D-05  0.50555698D-04  0.30035893D-04
 -0.11261208D-06  0.35891699D-05  0.66986684D-05  0.11641696D-04  0.18867765D-04
  0.29304593D-04  0.41979675D-04  0.55430249D-04  0.59936541D-04  0.46991025D-04
  0.23382579D-05 -0.40283190D-04 -0.41700569D-04  0.18870097D-04 -0.28837242D-03
  0.21083161D-04  0.60037517D-05 -0.13291441D-02 -0.17507810D-02 -0.19315216D-02
 -0.16043507D-02 -0.85210965D-03 -0.21978393D-03  0.22593041D-06  0.93916374D-03
  0.12370894D-02  0.13647994D-02  0.11336228D-02  0.60209461D-03  0.15529776D-03
 -0.15964082D-06  0.96354497D-03  0.12692050D-02  0.14002304D-02  0.11630523D-02
  0.61772534D-03  0.15932938D-03 -0.16378519D-06  0.62740268D-03  0.82373373D-03
  0.93788145D-03  0.79415949D-03  0.45492513D-03  0.10347968D-03 -0.48434188D-04
 -0.43636563D-03 -0.57291608D-03 -0.65230711D-03 -0.55234687D-03 -0.31640555D-03
 -0.71971286D-04  0.33686523D-04 -0.45133691D-03 -0.59257227D-03 -0.67468713D-03
 -0.57129735D-03 -0.32726112D-03 -0.74440550D-04  0.34842274D-04  0.85710320D-04
 -0.60051249D-04 -0.61879488D-04 -0.47222059D-05  0.47172526D-05  0.41138210D-05
 -0.13111535D-06  0.21995318D-06  0.15867882D-06  0.38968487D-05 -0.14679741D-05
 -0.24288746D-05 -0.15564192D-04 -0.17348501D-04  0.13286982D-04  0.34637546D-05
 -0.16613135D-05 -0.18024412D-05 -0.17161470D-04 -0.17294134D-04  0.12975479D-04
 -0.13062932D-06  0.59942628D-07  0.70686689D-07 -0.85866133D-06 -0.43676041D-06
  0.51964523D-06  0.92440630D-06 -0.23381180D-05 -0.34565009D-05 -0.17557290D-05
  0.48733574D-05  0.77706858D-05 -0.10174899D-05  0.21409966D-05  0.25988168D-05
 -0.17991573D-04  0.50454414D-06 -0.53227438D-06 -0.24203435D-06 -0.80073431D-06
  0.14565511D-05  0.42569514D-06 -0.71289811D-06  0.14027202D-06  0.30040790D-06
 -0.28290926D-05  0.71806489D-06  0.13383806D-05  0.22694500D-05  0.34349183D-05
  0.42857751D-05  0.36809092D-05  0.14131726D-05 -0.63212079D-08 -0.47499669D-06
 -0.89086807D-06 -0.15187348D-05 -0.23734868D-05 -0.31738041D-05 -0.33888828D-05
 -0.20718965D-05  0.13669115D-05 -0.66711452D-06  0.21770943D-05  0.15702825D-05
  0.27784729D-05  0.26941840D-05  0.18174806D-05 -0.17769656D-05 -0.17230589D-05
 -0.11623654D-05  0.11520655D-05  0.11171160D-05  0.75359987D-06 -0.22289965D-05
  0.25087538D-05 -0.18504239D-05  0.19236593D-05  0.33197890D-05 -0.82829055D-06
  0.91049263D-07  0.30548589D-06 -0.40031147D-08  0.28360171D-05 -0.19757273D-05
 -0.86028984D-06  0.56013801D-06 -0.40178617D-06  0.67739002D-06 -0.19028186D-05
  0.16923502D-05  0.21046838D-06 -0.83242112D-06  0.58937620D-06 -0.18200753D-05
 -0.95671648D-07  0.58860431D-06 -0.49293266D-06  0.12209474D-05 -0.42951196D-06
 -0.10648310D-05  0.52488501D-06  0.88233087D-06 -0.18019445D-05 -0.17770720D-05
 -0.16696063D-05  0.38443791D-05  0.20241695D-06 -0.97738634D-06  0.15614544D-05
  0.75495629D-05 -0.18891853D-06  0.65103394D-07  0.55486462D-06  0.68160994D-06
 -0.31557569D-06 -0.45419617D-06 -0.11485434D-06  0.12026551D-06 -0.12103977D-05
 -0.14910444D-05  0.10801898D-06  0.20210393D-06  0.34919082D-06  0.56607904D-06
  0.85963618D-06  0.11947932D-05  0.14204368D-05  0.12652158D-05  0.62809101D-06
  0.10119552D-06  0.15536209D-08  0.27763052D-09  0.10374619D-10 -0.65303101D-07
 -0.12197682D-06 -0.21169668D-06 -0.34349768D-06 -0.53169361D-06 -0.76107110D-06
 -0.99343552D-06 -0.10586713D-05 -0.79137830D-06 -0.41775454D-07  0.53679385D-06
  0.31891722D-06 -0.11957005D-08  0.10445888D-06  0.19495744D-06  0.33881888D-06
  0.54912572D-06  0.85287822D-06  0.12217727D-05  0.16132370D-05  0.17443877D-05
  0.13676226D-05  0.68052447D-07 -0.11723983D-05 -0.12136496D-05  0.54919361D-06
  0.29138788D-05 -0.13822780D-04 -0.59521893D-05 -0.73859447D-04 -0.97289467D-04
 -0.10733307D-03 -0.89152456D-04 -0.47351035D-04 -0.12213213D-04  0.12554768D-07
  0.60084991D-04  0.79145418D-04  0.87315937D-04  0.72525923D-04  0.38520279D-04
  0.99355037D-05 -0.10213360D-07  0.57487095D-04  0.75723406D-04  0.83540657D-04
  0.69390118D-04  0.36854777D-04  0.95059221D-05 -0.97717648D-08  0.67246061D-04
  0.88289149D-04  0.10052369D-03  0.85119333D-04  0.48759631D-04  0.11091124D-04
 -0.51912566D-05 -0.55354246D-04 -0.72676067D-04 -0.82747049D-04 -0.70066802D-04
 -0.40136962D-04 -0.91297664D-05  0.42732331D-05 -0.52662425D-04 -0.69141904D-04
 -0.78723144D-04 -0.66659525D-04 -0.38185142D-04 -0.86857951D-05  0.40654301D-05
  0.20325204D-05 -0.21970505D-05 -0.18544032D-05 -0.67861478D-05 -0.59824425D-05
 -0.46269144D-06 -0.20088351D-06 -0.37728717D-06 -0.11373373D-06 -0.43303428D-05
  0.31765048D-05  0.11538380D-05  0.20429680D-05  0.58682997D-05  0.22205409D-06
  0.30161667D-05 -0.13819621D-05 -0.16342046D-05 -0.10260211D-05 -0.50545202D-05
  0.20892083D-05 -0.39514748D-06 -0.17231255D-06  0.56746003D-06 -0.22426649D-05
 -0.52554001D-06  0.26288717D-06 -0.77987157D-06 -0.33425279D-06  0.15604350D-06
  0.15058190D-05  0.95613051D-06  0.23834606D-05  0.83379570D-06  0.46627878D-07
 -0.28515911D-05  0.73733896D-06  0.89163992D-06 -0.84830837D-07  0.10778520D-05
 -0.24515454D-05 -0.86775238D-07 -0.24009933D-05 -0.22337442D-06  0.34126775D-06
 -0.83256267D-06  0.65134132D-06  0.87154533D-05  0.16244484D-04  0.27545262D-04
  0.41691037D-04  0.52018241D-04  0.44676732D-04  0.17152266D-04 -0.76723138D-07
 -0.60024121D-05 -0.11257673D-04 -0.19191864D-04 -0.29993148D-04 -0.40106553D-04
 -0.42824448D-04 -0.26182028D-04  0.17273312D-04  0.34859082D-05 -0.26667938D-04
 -0.62172507D-05  0.36699823D-05  0.35586483D-05  0.24006431D-05 -0.98770884D-05
 -0.95774533D-05 -0.64608934D-05 -0.62990102D-05 -0.61079210D-05 -0.41203674D-05
  0.13510245D-05  0.56036816D-05  0.22969516D-05 -0.31959626D-04  0.17668231D-04
  0.20710804D-04 -0.15700181D-05  0.60882291D-06  0.88804501D-06  0.55984510D-05
 -0.20805249D-05 -0.35179262D-05 -0.30809567D-04 -0.31104181D-04  0.24879606D-04
 -0.44237751D-05  0.16855159D-05  0.27382592D-05  0.21978805D-04  0.22795347D-04
 -0.17935781D-04  0.11221772D-05 -0.12995599D-05  0.17738267D-06  0.91011923D-05
  0.61864898D-05 -0.80071498D-05  0.33439355D-05 -0.40243621D-05  0.68720692D-06