 Molden2AIM, Version 4.0.0 (06/02/2016)           Time: Wed Jun 27 23:32:59 2018
GAUSSIAN             25 MOL ORBITALS    412 PRIMITIVES        4 NUCLEI
  Cl   1    (CENTRE  1)   4.91685951  3.21837744 -0.46142199  CHARGE = 17.0
  Cl   2    (CENTRE  2)  -0.37654683 -0.25924397  0.86707060  CHARGE = 17.0
  O    3    (CENTRE  3)   0.08938216  2.87182246 -0.20116890  CHARGE =  8.0
  O    4    (CENTRE  4)   2.00048486  3.96196200  0.98924139  CHARGE =  8.0
CENTRE ASSIGNMENTS    1  1  1  1  1  1  1  1  1  1  1  1  1  1  1  1  1  1  1  1
CENTRE ASSIGNMENTS    1  1  1  1  1  1  1  1  1  1  1  1  1  1  1  1  1  1  1  1
CENTRE ASSIGNMENTS    1  1  1  1  1  1  1  1  1  1  1  1  1  1  1  1  1  1  1  1
CENTRE ASSIGNMENTS    1  1  1  1  1  1  1  1  1  1  1  1  1  1  1  1  1  1  1  1
CENTRE ASSIGNMENTS    1  1  1  1  1  1  1  1  1  1  1  1  1  1  1  1  1  1  1  1
CENTRE ASSIGNMENTS    1  1  1  1  1  1  1  1  1  1  1  1  1  1  1  1  1  1  1  1
CENTRE ASSIGNMENTS    1  1  1  1  1  1  1  1  1  1  1  2  2  2  2  2  2  2  2  2
CENTRE ASSIGNMENTS    2  2  2  2  2  2  2  2  2  2  2  2  2  2  2  2  2  2  2  2
CENTRE ASSIGNMENTS    2  2  2  2  2  2  2  2  2  2  2  2  2  2  2  2  2  2  2  2
CENTRE ASSIGNMENTS    2  2  2  2  2  2  2  2  2  2  2  2  2  2  2  2  2  2  2  2
CENTRE ASSIGNMENTS    2  2  2  2  2  2  2  2  2  2  2  2  2  2  2  2  2  2  2  2
CENTRE ASSIGNMENTS    2  2  2  2  2  2  2  2  2  2  2  2  2  2  2  2  2  2  2  2
CENTRE ASSIGNMENTS    2  2  2  2  2  2  2  2  2  2  2  2  2  2  2  2  2  2  2  2
CENTRE ASSIGNMENTS    2  2  3  3  3  3  3  3  3  3  3  3  3  3  3  3  3  3  3  3
CENTRE ASSIGNMENTS    3  3  3  3  3  3  3  3  3  3  3  3  3  3  3  3  3  3  3  3
CENTRE ASSIGNMENTS    3  3  3  3  3  3  3  3  3  3  3  3  3  3  3  3  3  3  3  3
CENTRE ASSIGNMENTS    3  3  3  3  3  3  3  3  3  3  3  3  3  3  3  3  3  4  4  4
CENTRE ASSIGNMENTS    4  4  4  4  4  4  4  4  4  4  4  4  4  4  4  4  4  4  4  4
CENTRE ASSIGNMENTS    4  4  4  4  4  4  4  4  4  4  4  4  4  4  4  4  4  4  4  4
CENTRE ASSIGNMENTS    4  4  4  4  4  4  4  4  4  4  4  4  4  4  4  4  4  4  4  4
CENTRE ASSIGNMENTS    4  4  4  4  4  4  4  4  4  4  4  4
TYPE ASSIGNMENTS      1  1  1  1  1  1  1  1  1  1  1  1  1  1  1  1  1  1  1  1
TYPE ASSIGNMENTS      1  1  1  1  1  1  1  1  1  1  1  1  1  1  1  1  1  1  1  1
TYPE ASSIGNMENTS      1  1  2  2  2  2  2  2  2  3  3  3  3  3  3  3  4  4  4  4
TYPE ASSIGNMENTS      4  4  4  2  2  2  2  2  2  2  3  3  3  3  3  3  3  4  4  4
TYPE ASSIGNMENTS      4  4  4  4  2  3  4  2  3  4  2  3  4  5  6  7  8  9 10  5
TYPE ASSIGNMENTS      6  7  8  9 10  5  6  7  8  9 10 11 12 13 17 14 15 18 19 16
TYPE ASSIGNMENTS     20 11 12 13 17 14 15 18 19 16 20  1  1  1  1  1  1  1  1  1
TYPE ASSIGNMENTS      1  1  1  1  1  1  1  1  1  1  1  1  1  1  1  1  1  1  1  1
TYPE ASSIGNMENTS      1  1  1  1  1  1  1  1  1  1  1  1  1  2  2  2  2  2  2  2
TYPE ASSIGNMENTS      3  3  3  3  3  3  3  4  4  4  4  4  4  4  2  2  2  2  2  2
TYPE ASSIGNMENTS      2  3  3  3  3  3  3  3  4  4  4  4  4  4  4  2  3  4  2  3
TYPE ASSIGNMENTS      4  2  3  4  5  6  7  8  9 10  5  6  7  8  9 10  5  6  7  8
TYPE ASSIGNMENTS      9 10 11 12 13 17 14 15 18 19 16 20 11 12 13 17 14 15 18 19
TYPE ASSIGNMENTS     16 20  1  1  1  1  1  1  1  1  1  1  1  1  1  1  1  1  1  1
TYPE ASSIGNMENTS      1  2  2  2  3  3  3  4  4  4  2  3  4  2  3  4  2  3  4  5
TYPE ASSIGNMENTS      6  7  8  9 10  5  6  7  8  9 10  5  6  7  8  9 10 11 12 13
TYPE ASSIGNMENTS     17 14 15 18 19 16 20 11 12 13 17 14 15 18 19 16 20  1  1  1
TYPE ASSIGNMENTS      1  1  1  1  1  1  1  1  1  1  1  1  1  1  1  1  2  2  2  3
TYPE ASSIGNMENTS      3  3  4  4  4  2  3  4  2  3  4  2  3  4  5  6  7  8  9 10
TYPE ASSIGNMENTS      5  6  7  8  9 10  5  6  7  8  9 10 11 12 13 17 14 15 18 19
TYPE ASSIGNMENTS     16 20 11 12 13 17 14 15 18 19 16 20
EXPONENTS  0.4561000D+06 0.6833000D+05 0.1555000D+05 0.4405000D+04 0.1439000D+04
EXPONENTS  0.5204000D+03 0.2031000D+03 0.8396000D+02 0.3620000D+02 0.1583000D+02
EXPONENTS  0.6334000D+01 0.2694000D+01 0.4313000D+00 0.4561000D+06 0.6833000D+05
EXPONENTS  0.1555000D+05 0.4405000D+04 0.1439000D+04 0.5204000D+03 0.2031000D+03
EXPONENTS  0.8396000D+02 0.3620000D+02 0.1583000D+02 0.6334000D+01 0.2694000D+01
EXPONENTS  0.4313000D+00 0.4561000D+06 0.6833000D+05 0.1555000D+05 0.4405000D+04
EXPONENTS  0.1439000D+04 0.5204000D+03 0.2031000D+03 0.8396000D+02 0.3620000D+02
EXPONENTS  0.1583000D+02 0.6334000D+01 0.2694000D+01 0.4313000D+00 0.9768000D+00
EXPONENTS  0.1625000D+00 0.5910000D-01 0.6633000D+03 0.1568000D+03 0.4998000D+02
EXPONENTS  0.1842000D+02 0.7240000D+01 0.2922000D+01 0.3818000D+00 0.6633000D+03
EXPONENTS  0.1568000D+03 0.4998000D+02 0.1842000D+02 0.7240000D+01 0.2922000D+01
EXPONENTS  0.3818000D+00 0.6633000D+03 0.1568000D+03 0.4998000D+02 0.1842000D+02
EXPONENTS  0.7240000D+01 0.2922000D+01 0.3818000D+00 0.6633000D+03 0.1568000D+03
EXPONENTS  0.4998000D+02 0.1842000D+02 0.7240000D+01 0.2922000D+01 0.3818000D+00
EXPONENTS  0.6633000D+03 0.1568000D+03 0.4998000D+02 0.1842000D+02 0.7240000D+01
EXPONENTS  0.2922000D+01 0.3818000D+00 0.6633000D+03 0.1568000D+03 0.4998000D+02
EXPONENTS  0.1842000D+02 0.7240000D+01 0.2922000D+01 0.3818000D+00 0.1022000D+01
EXPONENTS  0.1022000D+01 0.1022000D+01 0.1301000D+00 0.1301000D+00 0.1301000D+00
EXPONENTS  0.4190000D-01 0.4190000D-01 0.4190000D-01 0.1046000D+01 0.1046000D+01
EXPONENTS  0.1046000D+01 0.1046000D+01 0.1046000D+01 0.1046000D+01 0.3440000D+00
EXPONENTS  0.3440000D+00 0.3440000D+00 0.3440000D+00 0.3440000D+00 0.3440000D+00
EXPONENTS  0.1350000D+00 0.1350000D+00 0.1350000D+00 0.1350000D+00 0.1350000D+00
EXPONENTS  0.1350000D+00 0.7060000D+00 0.7060000D+00 0.7060000D+00 0.7060000D+00
EXPONENTS  0.7060000D+00 0.7060000D+00 0.7060000D+00 0.7060000D+00 0.7060000D+00
EXPONENTS  0.7060000D+00 0.3120000D+00 0.3120000D+00 0.3120000D+00 0.3120000D+00
EXPONENTS  0.3120000D+00 0.3120000D+00 0.3120000D+00 0.3120000D+00 0.3120000D+00
EXPONENTS  0.3120000D+00 0.4561000D+06 0.6833000D+05 0.1555000D+05 0.4405000D+04
EXPONENTS  0.1439000D+04 0.5204000D+03 0.2031000D+03 0.8396000D+02 0.3620000D+02
EXPONENTS  0.1583000D+02 0.6334000D+01 0.2694000D+01 0.4313000D+00 0.4561000D+06
EXPONENTS  0.6833000D+05 0.1555000D+05 0.4405000D+04 0.1439000D+04 0.5204000D+03
EXPONENTS  0.2031000D+03 0.8396000D+02 0.3620000D+02 0.1583000D+02 0.6334000D+01
EXPONENTS  0.2694000D+01 0.4313000D+00 0.4561000D+06 0.6833000D+05 0.1555000D+05
EXPONENTS  0.4405000D+04 0.1439000D+04 0.5204000D+03 0.2031000D+03 0.8396000D+02
EXPONENTS  0.3620000D+02 0.1583000D+02 0.6334000D+01 0.2694000D+01 0.4313000D+00
EXPONENTS  0.9768000D+00 0.1625000D+00 0.5910000D-01 0.6633000D+03 0.1568000D+03
EXPONENTS  0.4998000D+02 0.1842000D+02 0.7240000D+01 0.2922000D+01 0.3818000D+00
EXPONENTS  0.6633000D+03 0.1568000D+03 0.4998000D+02 0.1842000D+02 0.7240000D+01
EXPONENTS  0.2922000D+01 0.3818000D+00 0.6633000D+03 0.1568000D+03 0.4998000D+02
EXPONENTS  0.1842000D+02 0.7240000D+01 0.2922000D+01 0.3818000D+00 0.6633000D+03
EXPONENTS  0.1568000D+03 0.4998000D+02 0.1842000D+02 0.7240000D+01 0.2922000D+01
EXPONENTS  0.3818000D+00 0.6633000D+03 0.1568000D+03 0.4998000D+02 0.1842000D+02
EXPONENTS  0.7240000D+01 0.2922000D+01 0.3818000D+00 0.6633000D+03 0.1568000D+03
EXPONENTS  0.4998000D+02 0.1842000D+02 0.7240000D+01 0.2922000D+01 0.3818000D+00
EXPONENTS  0.1022000D+01 0.1022000D+01 0.1022000D+01 0.1301000D+00 0.1301000D+00
EXPONENTS  0.1301000D+00 0.4190000D-01 0.4190000D-01 0.4190000D-01 0.1046000D+01
EXPONENTS  0.1046000D+01 0.1046000D+01 0.1046000D+01 0.1046000D+01 0.1046000D+01
EXPONENTS  0.3440000D+00 0.3440000D+00 0.3440000D+00 0.3440000D+00 0.3440000D+00
EXPONENTS  0.3440000D+00 0.1350000D+00 0.1350000D+00 0.1350000D+00 0.1350000D+00
EXPONENTS  0.1350000D+00 0.1350000D+00 0.7060000D+00 0.7060000D+00 0.7060000D+00
EXPONENTS  0.7060000D+00 0.7060000D+00 0.7060000D+00 0.7060000D+00 0.7060000D+00
EXPONENTS  0.7060000D+00 0.7060000D+00 0.3120000D+00 0.3120000D+00 0.3120000D+00
EXPONENTS  0.3120000D+00 0.3120000D+00 0.3120000D+00 0.3120000D+00 0.3120000D+00
EXPONENTS  0.3120000D+00 0.3120000D+00 0.1533000D+05 0.2299000D+04 0.5224000D+03
EXPONENTS  0.1473000D+03 0.4755000D+02 0.1676000D+02 0.6207000D+01 0.6882000D+00
EXPONENTS  0.1533000D+05 0.2299000D+04 0.5224000D+03 0.1473000D+03 0.4755000D+02
EXPONENTS  0.1676000D+02 0.6207000D+01 0.6882000D+00 0.1752000D+01 0.2384000D+00
EXPONENTS  0.7376000D-01 0.3446000D+02 0.7749000D+01 0.2280000D+01 0.3446000D+02
EXPONENTS  0.7749000D+01 0.2280000D+01 0.3446000D+02 0.7749000D+01 0.2280000D+01
EXPONENTS  0.7156000D+00 0.7156000D+00 0.7156000D+00 0.2140000D+00 0.2140000D+00
EXPONENTS  0.2140000D+00 0.5974000D-01 0.5974000D-01 0.5974000D-01 0.2314000D+01
EXPONENTS  0.2314000D+01 0.2314000D+01 0.2314000D+01 0.2314000D+01 0.2314000D+01
EXPONENTS  0.6450000D+00 0.6450000D+00 0.6450000D+00 0.6450000D+00 0.6450000D+00
EXPONENTS  0.6450000D+00 0.2140000D+00 0.2140000D+00 0.2140000D+00 0.2140000D+00
EXPONENTS  0.2140000D+00 0.2140000D+00 0.1428000D+01 0.1428000D+01 0.1428000D+01
EXPONENTS  0.1428000D+01 0.1428000D+01 0.1428000D+01 0.1428000D+01 0.1428000D+01
EXPONENTS  0.1428000D+01 0.1428000D+01 0.5000000D+00 0.5000000D+00 0.5000000D+00
EXPONENTS  0.5000000D+00 0.5000000D+00 0.5000000D+00 0.5000000D+00 0.5000000D+00
EXPONENTS  0.5000000D+00 0.5000000D+00 0.1533000D+05 0.2299000D+04 0.5224000D+03
EXPONENTS  0.1473000D+03 0.4755000D+02 0.1676000D+02 0.6207000D+01 0.6882000D+00
EXPONENTS  0.1533000D+05 0.2299000D+04 0.5224000D+03 0.1473000D+03 0.4755000D+02
EXPONENTS  0.1676000D+02 0.6207000D+01 0.6882000D+00 0.1752000D+01 0.2384000D+00
EXPONENTS  0.7376000D-01 0.3446000D+02 0.7749000D+01 0.2280000D+01 0.3446000D+02
EXPONENTS  0.7749000D+01 0.2280000D+01 0.3446000D+02 0.7749000D+01 0.2280000D+01
EXPONENTS  0.7156000D+00 0.7156000D+00 0.7156000D+00 0.2140000D+00 0.2140000D+00
EXPONENTS  0.2140000D+00 0.5974000D-01 0.5974000D-01 0.5974000D-01 0.2314000D+01
EXPONENTS  0.2314000D+01 0.2314000D+01 0.2314000D+01 0.2314000D+01 0.2314000D+01
EXPONENTS  0.6450000D+00 0.6450000D+00 0.6450000D+00 0.6450000D+00 0.6450000D+00
EXPONENTS  0.6450000D+00 0.2140000D+00 0.2140000D+00 0.2140000D+00 0.2140000D+00
EXPONENTS  0.2140000D+00 0.2140000D+00 0.1428000D+01 0.1428000D+01 0.1428000D+01
EXPONENTS  0.1428000D+01 0.1428000D+01 0.1428000D+01 0.1428000D+01 0.1428000D+01
EXPONENTS  0.1428000D+01 0.1428000D+01 0.5000000D+00 0.5000000D+00 0.5000000D+00
EXPONENTS  0.5000000D+00 0.5000000D+00 0.5000000D+00 0.5000000D+00 0.5000000D+00
EXPONENTS  0.5000000D+00 0.5000000D+00
MO    1     MO 0.0        OCC NO =    2.0000000  ORB. ENERGY = -104.912730
  0.61663431D+00  0.11537252D+01  0.19933815D+01  0.32315039D+01  0.49072964D+01
  0.68205650D+01  0.81086678D+01  0.72225776D+01  0.35855038D+01  0.57768211D+00
  0.88689591D-02  0.15848743D-02  0.59224279D-04 -0.59401556D-05 -0.11095358D-04
 -0.19256532D-04 -0.31245525D-04 -0.48364362D-04 -0.69229190D-04 -0.90365717D-04
 -0.96299751D-04 -0.71986019D-04 -0.38000140D-05  0.48828294D-04  0.29009617D-04
 -0.10876431D-06  0.34188820D-05  0.63808507D-05  0.11089357D-04  0.17972585D-04
  0.27914239D-04  0.39987953D-04  0.52800365D-04  0.57092857D-04  0.44761540D-04
  0.22273194D-05 -0.38371957D-04 -0.39722089D-04  0.17974807D-04 -0.28460413D-03
  0.65438006D-05  0.31713134D-05 -0.13357165D-02 -0.17594384D-02 -0.19410727D-02
 -0.16122840D-02 -0.85632322D-03 -0.22087074D-03  0.22704761D-06  0.28217067D-03
  0.37168210D-03  0.41005242D-03  0.34059567D-03  0.18089864D-03  0.46659035D-04
 -0.47963902D-07  0.60741464D-03  0.80010141D-03  0.88269929D-03  0.73318322D-03
  0.38941142D-03  0.10044056D-03 -0.10324949D-06  0.59890194D-03  0.78631435D-03
  0.89527673D-03  0.75808357D-03  0.43425945D-03  0.98778960D-04 -0.46233990D-04
 -0.11794320D-03 -0.15485078D-03 -0.17630900D-03 -0.14929122D-03 -0.85519760D-04
 -0.19452778D-04  0.91049709D-05 -0.26184102D-03 -0.34377807D-03 -0.39141662D-03
 -0.33143552D-03 -0.18985903D-03 -0.43186342D-04  0.20213585D-04  0.87433882D-04
 -0.18314388D-04 -0.39668417D-04 -0.23761388D-05  0.12470187D-05  0.16845069D-05
 -0.11126845D-06  0.89752544D-07  0.11899254D-06  0.10616557D-04 -0.69109928D-05
 -0.37055641D-05 -0.79360073D-05 -0.16935134D-04  0.51126273D-05  0.81847517D-05
 -0.51846847D-05 -0.30000670D-05 -0.61438205D-05 -0.12882216D-04  0.26663225D-05
 -0.15305671D-06  0.69742205D-07  0.83314501D-07 -0.42657552D-06 -0.28055597D-06
 -0.50779605D-07 -0.28155016D-05 -0.11911926D-05 -0.20340267D-05  0.64514676D-05
  0.25281984D-05  0.82745482D-05  0.19950372D-05  0.10453794D-05 -0.21724682D-05
 -0.75346246D-05  0.70787219D-07 -0.27571260D-06 -0.34101539D-06  0.14345980D-06
  0.13001305D-05  0.14348943D-05 -0.35582146D-06 -0.47299271D-06 -0.41184812D-06
 -0.63200941D-07 -0.12249088D-02 -0.22918091D-02 -0.39597383D-02 -0.64191977D-02
 -0.97480638D-02 -0.13548662D-01 -0.16107405D-01 -0.14347237D-01 -0.71223982D-02
 -0.11475325D-02 -0.17617680D-04 -0.31482621D-05 -0.11764564D-06 -0.12240668D-06
 -0.22863810D-06 -0.39681251D-06 -0.64386544D-06 -0.99662723D-06 -0.14265813D-05
 -0.18621343D-05 -0.19844148D-05 -0.14833903D-05 -0.78305540D-07  0.10061873D-05
  0.59779087D-06 -0.22412676D-08  0.92711664D-07  0.17303296D-06  0.30071606D-06
  0.48737227D-06  0.75696544D-06  0.10843748D-05  0.14318159D-05  0.15482177D-05
  0.12138228D-05  0.60399420D-07 -0.10405530D-05 -0.10771653D-05  0.48743252D-06
  0.13136578D-05 -0.11399132D-05 -0.16153717D-05 -0.22729297D-04 -0.29939585D-04
 -0.33030376D-04 -0.27435524D-04 -0.14571673D-04 -0.37584596D-05  0.38635687D-08
 -0.11207573D-04 -0.14762888D-04 -0.16286924D-04 -0.13528163D-04 -0.71851359D-05
 -0.18532562D-05  0.19050843D-08 -0.22493285D-05 -0.29628704D-05 -0.32687402D-05
 -0.27150644D-05 -0.14420367D-05 -0.37194332D-06  0.38234509D-09  0.18907535D-04
  0.24824207D-04  0.28264186D-04  0.23932952D-04  0.13709716D-04  0.31184848D-05
 -0.14596225D-05  0.83734367D-05  0.10993708D-04  0.12517146D-04  0.10599005D-04
  0.60715182D-05  0.13810597D-05 -0.64641197D-06  0.18596296D-05  0.24415574D-05
  0.27798927D-05  0.23538990D-05  0.13484040D-05  0.30671512D-06 -0.14355956D-06
  0.18939296D-05  0.11370059D-05  0.39883247D-06  0.11079997D-06 -0.12367309D-05
 -0.12393179D-06 -0.36370973D-07 -0.11000496D-06  0.90399479D-08  0.10249210D-07
  0.39082328D-06 -0.40107249D-06  0.88476443D-06  0.36394207D-06  0.10079872D-05
 -0.70957200D-07 -0.47956814D-06  0.55052534D-06 -0.96507758D-06 -0.66456488D-07
 -0.30742698D-06  0.16995976D-06 -0.23775446D-06  0.67794705D-07  0.12971888D-06
 -0.64130538D-07 -0.10647725D-06 -0.55434964D-06  0.37661500D-06 -0.20217848D-06
 -0.22633427D-06 -0.14677612D-05  0.16754044D-06  0.18893832D-05  0.33791619D-06
  0.43899501D-06  0.15024205D-05  0.19800581D-06 -0.24856051D-06  0.80721923D-07
 -0.67847223D-07  0.49802598D-06 -0.13624109D-07 -0.52617022D-06  0.24765556D-06
 -0.22854166D-06 -0.69938626D-06 -0.39730069D-06 -0.74051736D-06 -0.12556721D-05
 -0.19005182D-05 -0.23712918D-05 -0.20366234D-05 -0.78189933D-06  0.34974837D-08
  0.26493739D-06  0.49689664D-06  0.84709985D-06  0.13238522D-05  0.17702426D-05
  0.18902064D-05  0.11556351D-05 -0.76241786D-06  0.18933765D-06 -0.13986170D-04
 -0.45547526D-06  0.37701333D-05  0.36557611D-05  0.24661549D-05 -0.10245518D-05
 -0.99347063D-06 -0.67018942D-06 -0.40541238D-06 -0.39311363D-06 -0.26519213D-06
 -0.39175067D-05  0.80407987D-06  0.11506520D-06 -0.10513665D-05 -0.61342686D-05
 -0.46371025D-05  0.26159824D-07 -0.38015462D-06  0.82905693D-08 -0.55663702D-05
  0.13184268D-05  0.42479434D-05 -0.21144589D-05  0.56936146D-06  0.26571712D-05
  0.82003368D-06  0.14967565D-06 -0.96970934D-06  0.11230340D-05  0.50788883D-06
 -0.31840284D-06  0.16125343D-05 -0.10903429D-05 -0.52219145D-06 -0.11014433D-05
 -0.18119415D-05 -0.15721669D-05 -0.50322031D-05  0.77486698D-07 -0.14012863D-06
  0.59166194D-05 -0.28348235D-05  0.10093081D-05  0.91799899D-05  0.26023635D-05
 -0.58892224D-06  0.89869936D-05  0.13731897D-05  0.18058188D-07  0.57843448D-07
 -0.20762373D-05  0.75897491D-06 -0.73964544D-06 -0.20433318D-05 -0.81314948D-06
  0.56611510D-06 -0.59689577D-06  0.71763883D-05  0.13375864D-04  0.22681034D-04
  0.34328802D-04  0.42832322D-04  0.36787252D-04  0.14123341D-04 -0.63174572D-07
 -0.49076723D-05 -0.92044609D-05 -0.15691588D-04 -0.24522898D-04 -0.32791787D-04
 -0.35013983D-04 -0.21406863D-04  0.14122948D-04  0.87332392D-06 -0.13011233D-04
 -0.22814526D-05  0.19629932D-05  0.19034431D-05  0.12840515D-05 -0.32693898D-05
 -0.31702083D-05 -0.21386038D-05 -0.40999400D-05 -0.39755626D-05 -0.26818911D-05
  0.44792547D-05  0.21523909D-05  0.20293515D-05 -0.30381226D-04  0.31817454D-05
  0.79595710D-05 -0.11358649D-05 -0.14291893D-06  0.90550429D-07  0.20443157D-04
 -0.12604100D-04 -0.78390570D-05 -0.16004142D-04 -0.35494451D-04  0.75063186D-05
 -0.10102993D-04  0.65519813D-05  0.35510112D-05  0.80565385D-05  0.17536057D-04
 -0.50833437D-05 -0.13153675D-05  0.14763974D-05 -0.16102987D-06  0.60279758D-05
  0.95247483D-05 -0.21349332D-05 -0.47671412D-06  0.59077684D-06 -0.74307753D-06
 -0.10802195D-05  0.41003202D-05  0.53083098D-05  0.25103619D-05 -0.58726507D-05
 -0.30790772D-05  0.13807539D-04 -0.20778771D-05 -0.18891123D-05 -0.22526489D-05
  0.62129839D-05  0.37670906D-05  0.86590949D-05  0.20647459D-07  0.19002462D-05
 -0.19011481D-05 -0.11313879D-04
MO    2     MO 0.0        OCC NO =    2.0000000  ORB. ENERGY = -104.912727
  0.12250226D-02  0.22920220D-02  0.39601063D-02  0.64197942D-02  0.97489696D-02
  0.13549921D-01  0.16108902D-01  0.14348571D-01  0.71230601D-02  0.11476391D-02
  0.17619317D-04  0.31485547D-05  0.11765658D-06 -0.14658171D-06 -0.27379358D-06
 -0.47518204D-06 -0.77102734D-06 -0.11934588D-05 -0.17083278D-05 -0.22299014D-05
 -0.23763320D-05 -0.17763564D-05 -0.93770700D-07  0.12049069D-05  0.71585316D-06
 -0.26839127D-08  0.10659434D-06  0.19894298D-06  0.34574539D-06  0.56035156D-06
  0.87031370D-06  0.12467495D-05  0.16462165D-05  0.17800484D-05  0.13955810D-05
  0.69443650D-07 -0.11963658D-05 -0.12384604D-05  0.56042084D-06  0.18232204D-06
 -0.11174752D-05 -0.16034791D-05  0.14800106D-04  0.19495061D-04  0.21507620D-04
  0.17864551D-04  0.94882967D-05  0.24473085D-05 -0.25157499D-08  0.16497034D-04
  0.21730296D-04  0.23973607D-04  0.19912836D-04  0.10576191D-04  0.27279082D-05
 -0.28041968D-08  0.50502155D-05  0.66522673D-05  0.73390092D-05  0.60958907D-05
  0.32376756D-05  0.83509099D-06 -0.85844515D-09 -0.13494616D-04 -0.17717442D-04
 -0.20172611D-04 -0.17081338D-04 -0.97848482D-05 -0.22257135D-05  0.10417564D-05
 -0.13658008D-04 -0.17931963D-04 -0.20416859D-04 -0.17288158D-04 -0.99033223D-05
 -0.22526623D-05  0.10543699D-05 -0.33545362D-05 -0.44042602D-05 -0.50145742D-05
 -0.42461355D-05 -0.24323499D-05 -0.55327521D-06  0.25896325D-06 -0.15283451D-05
 -0.12395825D-05 -0.55762453D-06  0.10643390D-05 -0.63049945D-06 -0.55101237D-07
  0.11321311D-06 -0.11834352D-07 -0.20644001D-07  0.79271672D-06 -0.27721144D-06
 -0.51550528D-06  0.86728205D-07  0.81773276D-06 -0.44362079D-07 -0.76420697D-06
  0.20219076D-06  0.56201620D-06 -0.28547574D-06 -0.15306156D-06  0.10852691D-07
 -0.12028730D-06  0.49761184D-07  0.70526116D-07  0.40455899D-06 -0.34547881D-07
 -0.55081666D-07 -0.69029790D-08 -0.11705554D-06  0.77535448D-07  0.10242157D-05
  0.17541288D-05 -0.89962094D-06 -0.10035068D-05 -0.14029622D-05  0.66701459D-06
 -0.78197286D-06  0.14416838D-06  0.57607029D-07 -0.36281524D-08 -0.39878392D-06
 -0.66242037D-06  0.33520141D-06 -0.33721221D-07  0.48959928D-06 -0.32431695D-06
  0.39260313D-06  0.61663431D+00  0.11537252D+01  0.19933815D+01  0.32315039D+01
  0.49072964D+01  0.68205650D+01  0.81086678D+01  0.72225776D+01  0.35855038D+01
  0.57768211D+00  0.88689591D-02  0.15848743D-02  0.59224279D-04 -0.59448454D-05
 -0.11104118D-04 -0.19271735D-04 -0.31270194D-04 -0.48402546D-04 -0.69283847D-04
 -0.90437062D-04 -0.96375780D-04 -0.72042852D-04 -0.38030142D-05  0.48866845D-04
  0.29032520D-04 -0.10885018D-06  0.34209536D-05  0.63847169D-05  0.11096076D-04
  0.17983475D-04  0.27931152D-04  0.40012182D-04  0.52832358D-04  0.57127450D-04
  0.44788662D-04  0.22286690D-05 -0.38395207D-04 -0.39746157D-04  0.17985698D-04
 -0.28460887D-03  0.65383520D-05  0.31640445D-05  0.27064813D-03  0.35650433D-03
  0.39330779D-03  0.32668733D-03  0.17351158D-03  0.44753697D-04 -0.46005279D-07
  0.14016862D-02  0.18463353D-02  0.20369403D-02  0.16919131D-02  0.89861613D-03
  0.23177931D-03 -0.23826125D-06 -0.44142440D-03 -0.58145500D-03 -0.64148108D-03
 -0.53282377D-03 -0.28299565D-03 -0.72992833D-04  0.75034151D-07 -0.12999447D-03
 -0.17067321D-03 -0.19432400D-03 -0.16454558D-03 -0.94258046D-04 -0.21440435D-04
  0.10035304D-04 -0.62342662D-03 -0.81851345D-03 -0.93193778D-03 -0.78912663D-03
 -0.45204212D-03 -0.10282390D-03  0.48127244D-04  0.18873009D-03  0.24778878D-03
  0.28212575D-03  0.23889250D-03  0.13684682D-03  0.31127904D-04 -0.14569572D-04
 -0.17862565D-04 -0.91670684D-04  0.28826412D-04 -0.24073828D-06  0.28837924D-05
 -0.12766131D-05 -0.43078392D-07  0.15362235D-06 -0.94847616D-07 -0.69294575D-05
  0.12672634D-04 -0.57431766D-05  0.74220234D-05 -0.11420450D-05 -0.13597554D-04
 -0.53325302D-05  0.97023807D-05 -0.43698505D-05  0.58099122D-05 -0.19813033D-05
 -0.97693236D-05 -0.15169560D-06  0.82124658D-07  0.69570937D-07 -0.43656802D-06
 -0.18940202D-06 -0.19483838D-06 -0.13211061D-05  0.30282861D-05  0.17968577D-05
  0.60330797D-05 -0.46220339D-05  0.25946660D-05 -0.20697614D-05 -0.44628245D-05
 -0.79852392D-05 -0.73681940D-06 -0.61562251D-07  0.49996113D-06  0.29010858D-06
 -0.26941724D-06 -0.13238513D-05  0.29168582D-07  0.45410399D-06 -0.17603212D-06
 -0.89949433D-06 -0.14135495D-05  0.71781352D-05  0.13379120D-04  0.22686555D-04
  0.34337158D-04  0.42842748D-04  0.36796207D-04  0.14126779D-04 -0.63189950D-07
 -0.49088062D-05 -0.92065877D-05 -0.15695214D-04 -0.24528564D-04 -0.32799364D-04
 -0.35022073D-04 -0.21411809D-04  0.14126211D-04  0.87268189D-06 -0.13068140D-04
 -0.22873224D-05  0.24552950D-05  0.23808102D-05  0.16060805D-05 -0.37165842D-05
 -0.36038365D-05 -0.24311268D-05  0.34083894D-05  0.33049912D-05  0.22295276D-05
 -0.40552636D-05 -0.28207366D-05 -0.20919625D-05  0.95792621D-05  0.29681321D-04
 -0.47365302D-05  0.61118080D-06  0.97008775D-06 -0.89720917D-08 -0.13379784D-04
  0.25010400D-04 -0.11630615D-04  0.13651030D-04 -0.58018176D-05 -0.27369632D-04
  0.68126676D-05 -0.12445947D-04  0.56332799D-05 -0.66643359D-05  0.15386552D-05
  0.14173442D-04  0.34833203D-05 -0.43947110D-05  0.91139078D-06  0.21585207D-05
  0.18807951D-05  0.81700786D-05 -0.10320802D-05  0.16454530D-05 -0.10853961D-06
  0.41006213D-06 -0.22211732D-05 -0.31906015D-05  0.26861783D-05 -0.27151859D-05
  0.35162203D-05 -0.16814218D-04 -0.88814456D-06  0.31870803D-05  0.22391745D-05
  0.44221663D-05 -0.63119594D-05  0.34471443D-05 -0.17577327D-05 -0.32492815D-05
 -0.10164668D-04  0.17422079D-05 -0.36991029D-06 -0.68946518D-06 -0.11691045D-05
 -0.17694941D-05 -0.22078120D-05 -0.18962161D-05 -0.72799422D-06  0.32563628D-08
  0.24627062D-06  0.46188664D-06  0.78741547D-06  0.12305771D-05  0.16455161D-05
  0.17570275D-05  0.10742122D-05 -0.70869995D-06  0.19186859D-06 -0.14028723D-04
 -0.45900208D-06 -0.66476306D-06 -0.64459656D-06 -0.43484103D-06 -0.38752441D-05
 -0.37576832D-05 -0.25349109D-05 -0.94770323D-07 -0.91895335D-07 -0.61992050D-07
  0.97939565D-06  0.38734428D-05  0.35478670D-06  0.62532473D-05 -0.22749531D-05
  0.38400709D-05  0.32472075D-06 -0.18241724D-06 -0.63618280D-07 -0.45338577D-06
 -0.33413380D-05  0.37947238D-05 -0.72278847D-05  0.23698296D-05 -0.20750755D-05
  0.65383820D-06  0.19297612D-06 -0.84681432D-06  0.13420589D-05 -0.11329240D-06
  0.77617125D-06 -0.12067646D-05  0.16523835D-05 -0.44561892D-06  0.16463000D-05
 -0.18387728D-05 -0.51721938D-06 -0.15634169D-05  0.12283409D-05 -0.20455690D-06
  0.11112230D-04  0.19978829D-05 -0.36571892D-05 -0.64219797D-05 -0.56829055D-05
  0.42708599D-05 -0.35505006D-05  0.46824296D-06 -0.42295531D-06 -0.78816219D-08
 -0.31352655D-05 -0.20104284D-06  0.78414213D-07  0.17305367D-05  0.14699088D-05
 -0.54769348D-07  0.30576303D-06
MO    3     MO 0.0        OCC NO =    2.0000000  ORB. ENERGY =  -20.737062
  0.42161761D-04  0.78884816D-04  0.13629549D-03  0.22095088D-03  0.33553154D-03
  0.46634938D-03  0.55442214D-03  0.49383660D-03  0.24515527D-03  0.39498442D-04
  0.60640630D-06  0.10836421D-06  0.40494015D-08 -0.71263203D-04 -0.13310943D-03
 -0.23101787D-03 -0.37484812D-03 -0.58022037D-03 -0.83053275D-03 -0.10841047D-02
 -0.11552944D-02 -0.86360604D-03 -0.45588228D-04  0.58578611D-03  0.34802425D-03
 -0.13048300D-05  0.36497862D-04  0.68118000D-04  0.11838309D-03  0.19186416D-03
  0.29799508D-03  0.42688655D-03  0.56366391D-03  0.60948789D-03  0.47784641D-03
  0.23777479D-04 -0.40963519D-03 -0.42404836D-03  0.19188788D-03 -0.12776223D-03
 -0.14562126D-03 -0.44227770D-04 -0.67780343D-03 -0.89281924D-03 -0.98498878D-03
 -0.81814640D-03 -0.43453743D-03 -0.11207988D-03  0.11521430D-06  0.58299418D-03
  0.76793417D-03  0.84721129D-03  0.70370636D-03  0.37375554D-03  0.96402457D-04
 -0.99098449D-07  0.76730658D-03  0.10107150D-02  0.11150554D-02  0.92618167D-03
  0.49191758D-03  0.12687989D-03 -0.13042822D-06  0.76044151D-03  0.99840396D-03
  0.11367564D-02  0.96255860D-03  0.55139062D-03  0.12542224D-03 -0.58704510D-04
 -0.52161527D-03 -0.68484261D-03 -0.77974369D-03 -0.66025493D-03 -0.37821945D-03
 -0.86031802D-04  0.40267618D-04 -0.72733448D-03 -0.95493685D-03 -0.10872659D-02
 -0.92065207D-03 -0.52738495D-03 -0.11996178D-03  0.56148715D-04  0.64287387D-04
 -0.70129383D-04 -0.89483522D-04  0.10272893D-03 -0.95779568D-05 -0.28699915D-04
  0.20165238D-05  0.12487065D-06 -0.10283576D-05  0.55953369D-04 -0.17534065D-04
 -0.38419304D-04  0.95130873D-04  0.70445986D-04 -0.28637890D-04 -0.13696753D-04
 -0.24124031D-05  0.16109156D-04 -0.59634653D-04 -0.67422648D-04  0.25976622D-04
 -0.19387586D-04  0.12028649D-04  0.73589373D-05  0.57430902D-05  0.18184467D-04
 -0.58192557D-05 -0.45036932D-04 -0.25238951D-04 -0.38676246D-04  0.10594023D-03
  0.40554091D-04  0.15071658D-03  0.29170564D-04  0.35162763D-04 -0.34687845D-04
 -0.94142764D-04  0.18112223D-04 -0.34436034D-05 -0.57803966D-06 -0.23516551D-04
  0.22974303D-04  0.46361356D-05 -0.30820118D-04 -0.12643493D-04 -0.29020166D-05
 -0.13641645D-04  0.42338402D-04  0.79215312D-04  0.13686651D-03  0.22187658D-03
  0.33693728D-03  0.46830320D-03  0.55674495D-03  0.49590558D-03  0.24618238D-03
  0.39663925D-04  0.60894691D-06  0.10881821D-06  0.40663669D-08 -0.71387156D-04
 -0.13334096D-03 -0.23141970D-03 -0.37550012D-03 -0.58122959D-03 -0.83197736D-03
 -0.10859903D-02 -0.11573039D-02 -0.86510817D-03 -0.45667523D-04  0.58680501D-03
  0.34862959D-03 -0.13070996D-05  0.36469064D-04  0.68064254D-04  0.11828968D-03
  0.19171278D-03  0.29775996D-03  0.42654973D-03  0.56321918D-03  0.60900700D-03
  0.47746938D-03  0.23758718D-04 -0.40931198D-03 -0.42371378D-03  0.19173648D-03
 -0.13161013D-03 -0.14707775D-03 -0.47373035D-04 -0.32080711D-03 -0.42257496D-03
 -0.46619917D-03 -0.38723200D-03 -0.20566832D-03 -0.53047860D-04  0.54531396D-07
  0.10197713D-02  0.13432676D-02  0.14819389D-02  0.12309206D-02  0.65377183D-03
  0.16862683D-03 -0.17334264D-06 -0.65732988D-03 -0.86585098D-03 -0.95523646D-03
 -0.79343369D-03 -0.42141190D-03 -0.10869442D-03  0.11173417D-06  0.22158192D-03
  0.29092082D-03  0.33123476D-03  0.28047599D-03  0.16066745D-03  0.36546270D-04
 -0.17105666D-04 -0.10634661D-02 -0.13962531D-02 -0.15897368D-02 -0.13461239D-02
 -0.77111158D-03 -0.17540113D-03  0.82097383D-04  0.61599837D-03  0.80876071D-03
  0.92083356D-03  0.77972404D-03  0.44665595D-03  0.10159873D-03 -0.47553798D-04
  0.44194189D-04 -0.10878938D-03  0.77706731D-04 -0.33364345D-04 -0.10241826D-03
  0.18689317D-04 -0.85697510D-06 -0.21014605D-05  0.94784277D-06  0.35313164D-04
 -0.83673440D-05 -0.26945820D-04  0.12102210D-03  0.87008132D-05  0.78851422D-04
 -0.30347733D-04  0.24521701D-04  0.58260315D-05 -0.52030926D-04 -0.51124655D-05
 -0.71361373D-04  0.89054825D-05 -0.18574813D-04  0.96693307D-05 -0.19326029D-04
 -0.37823030D-06  0.14113653D-04 -0.19140562D-04  0.51384486D-04  0.39798071D-04
  0.10400998D-03 -0.89852101D-04  0.25796029D-04 -0.46588294D-04 -0.64301356D-04
 -0.14519024D-03 -0.34842996D-04  0.60149412D-05  0.81948290D-07  0.15918302D-05
 -0.41005240D-04 -0.19092586D-04  0.75849991D-05  0.22960417D-04  0.18846741D-04
 -0.12360490D-04 -0.90887617D-05  0.36221250D+00  0.67511749D+00  0.11447756D+01
  0.17326712D+01  0.21618677D+01  0.18567561D+01  0.71284475D+00 -0.31885983D-02
  0.18240530D-03  0.34210567D-03  0.58321516D-03  0.91145178D-03  0.12187847D-02
  0.13013779D-02  0.79563693D-03 -0.52491292D-03  0.33836320D-01  0.63733646D-03
  0.53327386D-04  0.54614920D-02  0.52958101D-02  0.35725222D-02 -0.23358349D-02
 -0.22649742D-02 -0.15279382D-02  0.55994915D-02  0.54296232D-02  0.36627917D-02
 -0.62696154D-03  0.38378118D-03 -0.66039430D-03  0.16845304D-03 -0.88129509D-04
  0.14165816D-03  0.47216662D-05 -0.10444852D-08 -0.37525001D-05  0.28473107D-03
 -0.61574556D-03  0.33101449D-03 -0.83618092D-04 -0.31689491D-04  0.11644201D-02
  0.40463273D-04 -0.50466175D-04  0.10002902D-04 -0.47487379D-04 -0.11257419D-03
  0.39665462D-04  0.26323908D-04 -0.76481158D-05 -0.18675793D-04  0.42856077D-04
  0.67862470D-04 -0.13671311D-05  0.41111712D-04 -0.59438592D-04  0.79107677D-06
 -0.58941105D-04  0.55510431D-04  0.45946277D-04 -0.64394032D-04  0.12280534D-03
 -0.48319507D-04  0.17234856D-03  0.64588929D-05 -0.79470817D-05 -0.31144420D-04
  0.30002440D-04  0.10596006D-03  0.67385185D-04 -0.49379119D-04 -0.82118818D-04
  0.26048074D-04  0.25786420D-04  0.34235858D+00  0.63811234D+00  0.10820271D+01
  0.16376984D+01  0.20433695D+01  0.17549819D+01  0.67377166D+00 -0.30138220D-02
  0.16775829D-03  0.31463483D-03  0.53638340D-03  0.83826285D-03  0.11209172D-02
  0.11968782D-02  0.73174786D-03 -0.48276279D-03  0.31951367D-01  0.64764410D-03
  0.63567509D-04 -0.68859196D-03 -0.66770258D-03 -0.45042821D-03 -0.47880848D-02
 -0.46428316D-02 -0.31320268D-02 -0.59672305D-02 -0.57862063D-02 -0.39033406D-02