 Molden2AIM, Version 4.0.0 (06/02/2016)           Time: Thu Jun 28 00:16:26 2018
GAUSSIAN             25 MOL ORBITALS    393 PRIMITIVES        3 NUCLEI
  S    1    (CENTRE  1)  -0.31530269  0.00000000 -0.21684229  CHARGE = 16.0
  Cl   2    (CENTRE  2)  -0.05796735  0.00000000  3.63550992  CHARGE = 17.0
  Cl   3    (CENTRE  3)   3.37408521  0.00000000 -1.35492796  CHARGE = 17.0
CENTRE ASSIGNMENTS    1  1  1  1  1  1  1  1  1  1  1  1  1  1  1  1  1  1  1  1
CENTRE ASSIGNMENTS    1  1  1  1  1  1  1  1  1  1  1  1  1  1  1  1  1  1  1  1
CENTRE ASSIGNMENTS    1  1  1  1  1  1  1  1  1  1  1  1  1  1  1  1  1  1  1  1
CENTRE ASSIGNMENTS    1  1  1  1  1  1  1  1  1  1  1  1  1  1  1  1  1  1  1  1
CENTRE ASSIGNMENTS    1  1  1  1  1  1  1  1  1  1  1  1  1  1  1  1  1  1  1  1
CENTRE ASSIGNMENTS    1  1  1  1  1  1  1  1  1  1  1  1  1  1  1  1  1  1  1  1
CENTRE ASSIGNMENTS    1  1  1  1  1  1  1  1  1  1  1  2  2  2  2  2  2  2  2  2
CENTRE ASSIGNMENTS    2  2  2  2  2  2  2  2  2  2  2  2  2  2  2  2  2  2  2  2
CENTRE ASSIGNMENTS    2  2  2  2  2  2  2  2  2  2  2  2  2  2  2  2  2  2  2  2
CENTRE ASSIGNMENTS    2  2  2  2  2  2  2  2  2  2  2  2  2  2  2  2  2  2  2  2
CENTRE ASSIGNMENTS    2  2  2  2  2  2  2  2  2  2  2  2  2  2  2  2  2  2  2  2
CENTRE ASSIGNMENTS    2  2  2  2  2  2  2  2  2  2  2  2  2  2  2  2  2  2  2  2
CENTRE ASSIGNMENTS    2  2  2  2  2  2  2  2  2  2  2  2  2  2  2  2  2  2  2  2
CENTRE ASSIGNMENTS    2  2  3  3  3  3  3  3  3  3  3  3  3  3  3  3  3  3  3  3
CENTRE ASSIGNMENTS    3  3  3  3  3  3  3  3  3  3  3  3  3  3  3  3  3  3  3  3
CENTRE ASSIGNMENTS    3  3  3  3  3  3  3  3  3  3  3  3  3  3  3  3  3  3  3  3
CENTRE ASSIGNMENTS    3  3  3  3  3  3  3  3  3  3  3  3  3  3  3  3  3  3  3  3
CENTRE ASSIGNMENTS    3  3  3  3  3  3  3  3  3  3  3  3  3  3  3  3  3  3  3  3
CENTRE ASSIGNMENTS    3  3  3  3  3  3  3  3  3  3  3  3  3  3  3  3  3  3  3  3
CENTRE ASSIGNMENTS    3  3  3  3  3  3  3  3  3  3  3  3  3
TYPE ASSIGNMENTS      1  1  1  1  1  1  1  1  1  1  1  1  1  1  1  1  1  1  1  1
TYPE ASSIGNMENTS      1  1  1  1  1  1  1  1  1  1  1  1  1  1  1  1  1  1  1  1
TYPE ASSIGNMENTS      1  1  2  2  2  2  2  2  2  3  3  3  3  3  3  3  4  4  4  4
TYPE ASSIGNMENTS      4  4  4  2  2  2  2  2  2  2  3  3  3  3  3  3  3  4  4  4
TYPE ASSIGNMENTS      4  4  4  4  2  3  4  2  3  4  2  3  4  5  6  7  8  9 10  5
TYPE ASSIGNMENTS      6  7  8  9 10  5  6  7  8  9 10 11 12 13 17 14 15 18 19 16
TYPE ASSIGNMENTS     20 11 12 13 17 14 15 18 19 16 20  1  1  1  1  1  1  1  1  1
TYPE ASSIGNMENTS      1  1  1  1  1  1  1  1  1  1  1  1  1  1  1  1  1  1  1  1
TYPE ASSIGNMENTS      1  1  1  1  1  1  1  1  1  1  1  1  1  2  2  2  2  2  2  2
TYPE ASSIGNMENTS      3  3  3  3  3  3  3  4  4  4  4  4  4  4  2  2  2  2  2  2
TYPE ASSIGNMENTS      2  3  3  3  3  3  3  3  4  4  4  4  4  4  4  2  3  4  2  3
TYPE ASSIGNMENTS      4  2  3  4  5  6  7  8  9 10  5  6  7  8  9 10  5  6  7  8
TYPE ASSIGNMENTS      9 10 11 12 13 17 14 15 18 19 16 20 11 12 13 17 14 15 18 19
TYPE ASSIGNMENTS     16 20  1  1  1  1  1  1  1  1  1  1  1  1  1  1  1  1  1  1
TYPE ASSIGNMENTS      1  1  1  1  1  1  1  1  1  1  1  1  1  1  1  1  1  1  1  1
TYPE ASSIGNMENTS      1  1  1  1  2  2  2  2  2  2  2  3  3  3  3  3  3  3  4  4
TYPE ASSIGNMENTS      4  4  4  4  4  2  2  2  2  2  2  2  3  3  3  3  3  3  3  4
TYPE ASSIGNMENTS      4  4  4  4  4  4  2  3  4  2  3  4  2  3  4  5  6  7  8  9
TYPE ASSIGNMENTS     10  5  6  7  8  9 10  5  6  7  8  9 10 11 12 13 17 14 15 18
TYPE ASSIGNMENTS     19 16 20 11 12 13 17 14 15 18 19 16 20
EXPONENTS  0.3741000D+06 0.5605000D+05 0.1276000D+05 0.3615000D+04 0.1183000D+04
EXPONENTS  0.4288000D+03 0.1678000D+03 0.6947000D+02 0.2984000D+02 0.1272000D+02
EXPONENTS  0.5244000D+01 0.2219000D+01 0.3490000D+00 0.3741000D+06 0.5605000D+05
EXPONENTS  0.1276000D+05 0.3615000D+04 0.1183000D+04 0.4288000D+03 0.1678000D+03
EXPONENTS  0.6947000D+02 0.2984000D+02 0.1272000D+02 0.5244000D+01 0.2219000D+01
EXPONENTS  0.3490000D+00 0.3741000D+06 0.5605000D+05 0.1276000D+05 0.3615000D+04
EXPONENTS  0.1183000D+04 0.4288000D+03 0.1678000D+03 0.6947000D+02 0.2984000D+02
EXPONENTS  0.1272000D+02 0.5244000D+01 0.2219000D+01 0.3490000D+00 0.7767000D+00
EXPONENTS  0.1322000D+00 0.4970000D-01 0.5744000D+03 0.1358000D+03 0.4319000D+02
EXPONENTS  0.1587000D+02 0.6208000D+01 0.2483000D+01 0.3229000D+00 0.5744000D+03
EXPONENTS  0.1358000D+03 0.4319000D+02 0.1587000D+02 0.6208000D+01 0.2483000D+01
EXPONENTS  0.3229000D+00 0.5744000D+03 0.1358000D+03 0.4319000D+02 0.1587000D+02
EXPONENTS  0.6208000D+01 0.2483000D+01 0.3229000D+00 0.5744000D+03 0.1358000D+03
EXPONENTS  0.4319000D+02 0.1587000D+02 0.6208000D+01 0.2483000D+01 0.3229000D+00
EXPONENTS  0.5744000D+03 0.1358000D+03 0.4319000D+02 0.1587000D+02 0.6208000D+01
EXPONENTS  0.2483000D+01 0.3229000D+00 0.5744000D+03 0.1358000D+03 0.4319000D+02
EXPONENTS  0.1587000D+02 0.6208000D+01 0.2483000D+01 0.3229000D+00 0.8688000D+00
EXPONENTS  0.8688000D+00 0.8688000D+00 0.1098000D+00 0.1098000D+00 0.1098000D+00
EXPONENTS  0.3510000D-01 0.3510000D-01 0.3510000D-01 0.2690000D+00 0.2690000D+00
EXPONENTS  0.2690000D+00 0.2690000D+00 0.2690000D+00 0.2690000D+00 0.8190000D+00
EXPONENTS  0.8190000D+00 0.8190000D+00 0.8190000D+00 0.8190000D+00 0.8190000D+00
EXPONENTS  0.1010000D+00 0.1010000D+00 0.1010000D+00 0.1010000D+00 0.1010000D+00
EXPONENTS  0.1010000D+00 0.5570000D+00 0.5570000D+00 0.5570000D+00 0.5570000D+00
EXPONENTS  0.5570000D+00 0.5570000D+00 0.5570000D+00 0.5570000D+00 0.5570000D+00
EXPONENTS  0.5570000D+00 0.2180000D+00 0.2180000D+00 0.2180000D+00 0.2180000D+00
EXPONENTS  0.2180000D+00 0.2180000D+00 0.2180000D+00 0.2180000D+00 0.2180000D+00
EXPONENTS  0.2180000D+00 0.4561000D+06 0.6833000D+05 0.1555000D+05 0.4405000D+04
EXPONENTS  0.1439000D+04 0.5204000D+03 0.2031000D+03 0.8396000D+02 0.3620000D+02
EXPONENTS  0.1583000D+02 0.6334000D+01 0.2694000D+01 0.4313000D+00 0.4561000D+06
EXPONENTS  0.6833000D+05 0.1555000D+05 0.4405000D+04 0.1439000D+04 0.5204000D+03
EXPONENTS  0.2031000D+03 0.8396000D+02 0.3620000D+02 0.1583000D+02 0.6334000D+01
EXPONENTS  0.2694000D+01 0.4313000D+00 0.4561000D+06 0.6833000D+05 0.1555000D+05
EXPONENTS  0.4405000D+04 0.1439000D+04 0.5204000D+03 0.2031000D+03 0.8396000D+02
EXPONENTS  0.3620000D+02 0.1583000D+02 0.6334000D+01 0.2694000D+01 0.4313000D+00
EXPONENTS  0.9768000D+00 0.1625000D+00 0.5910000D-01 0.6633000D+03 0.1568000D+03
EXPONENTS  0.4998000D+02 0.1842000D+02 0.7240000D+01 0.2922000D+01 0.3818000D+00
EXPONENTS  0.6633000D+03 0.1568000D+03 0.4998000D+02 0.1842000D+02 0.7240000D+01
EXPONENTS  0.2922000D+01 0.3818000D+00 0.6633000D+03 0.1568000D+03 0.4998000D+02
EXPONENTS  0.1842000D+02 0.7240000D+01 0.2922000D+01 0.3818000D+00 0.6633000D+03
EXPONENTS  0.1568000D+03 0.4998000D+02 0.1842000D+02 0.7240000D+01 0.2922000D+01
EXPONENTS  0.3818000D+00 0.6633000D+03 0.1568000D+03 0.4998000D+02 0.1842000D+02
EXPONENTS  0.7240000D+01 0.2922000D+01 0.3818000D+00 0.6633000D+03 0.1568000D+03
EXPONENTS  0.4998000D+02 0.1842000D+02 0.7240000D+01 0.2922000D+01 0.3818000D+00
EXPONENTS  0.1022000D+01 0.1022000D+01 0.1022000D+01 0.1301000D+00 0.1301000D+00
EXPONENTS  0.1301000D+00 0.4190000D-01 0.4190000D-01 0.4190000D-01 0.1046000D+01
EXPONENTS  0.1046000D+01 0.1046000D+01 0.1046000D+01 0.1046000D+01 0.1046000D+01
EXPONENTS  0.3440000D+00 0.3440000D+00 0.3440000D+00 0.3440000D+00 0.3440000D+00
EXPONENTS  0.3440000D+00 0.1350000D+00 0.1350000D+00 0.1350000D+00 0.1350000D+00
EXPONENTS  0.1350000D+00 0.1350000D+00 0.7060000D+00 0.7060000D+00 0.7060000D+00
EXPONENTS  0.7060000D+00 0.7060000D+00 0.7060000D+00 0.7060000D+00 0.7060000D+00
EXPONENTS  0.7060000D+00 0.7060000D+00 0.3120000D+00 0.3120000D+00 0.3120000D+00
EXPONENTS  0.3120000D+00 0.3120000D+00 0.3120000D+00 0.3120000D+00 0.3120000D+00
EXPONENTS  0.3120000D+00 0.3120000D+00 0.4561000D+06 0.6833000D+05 0.1555000D+05
EXPONENTS  0.4405000D+04 0.1439000D+04 0.5204000D+03 0.2031000D+03 0.8396000D+02
EXPONENTS  0.3620000D+02 0.1583000D+02 0.6334000D+01 0.2694000D+01 0.4313000D+00
EXPONENTS  0.4561000D+06 0.6833000D+05 0.1555000D+05 0.4405000D+04 0.1439000D+04
EXPONENTS  0.5204000D+03 0.2031000D+03 0.8396000D+02 0.3620000D+02 0.1583000D+02
EXPONENTS  0.6334000D+01 0.2694000D+01 0.4313000D+00 0.4561000D+06 0.6833000D+05
EXPONENTS  0.1555000D+05 0.4405000D+04 0.1439000D+04 0.5204000D+03 0.2031000D+03
EXPONENTS  0.8396000D+02 0.3620000D+02 0.1583000D+02 0.6334000D+01 0.2694000D+01
EXPONENTS  0.4313000D+00 0.9768000D+00 0.1625000D+00 0.5910000D-01 0.6633000D+03
EXPONENTS  0.1568000D+03 0.4998000D+02 0.1842000D+02 0.7240000D+01 0.2922000D+01
EXPONENTS  0.3818000D+00 0.6633000D+03 0.1568000D+03 0.4998000D+02 0.1842000D+02
EXPONENTS  0.7240000D+01 0.2922000D+01 0.3818000D+00 0.6633000D+03 0.1568000D+03
EXPONENTS  0.4998000D+02 0.1842000D+02 0.7240000D+01 0.2922000D+01 0.3818000D+00
EXPONENTS  0.6633000D+03 0.1568000D+03 0.4998000D+02 0.1842000D+02 0.7240000D+01
EXPONENTS  0.2922000D+01 0.3818000D+00 0.6633000D+03 0.1568000D+03 0.4998000D+02
EXPONENTS  0.1842000D+02 0.7240000D+01 0.2922000D+01 0.3818000D+00 0.6633000D+03
EXPONENTS  0.1568000D+03 0.4998000D+02 0.1842000D+02 0.7240000D+01 0.2922000D+01
EXPONENTS  0.3818000D+00 0.1022000D+01 0.1022000D+01 0.1022000D+01 0.1301000D+00
EXPONENTS  0.1301000D+00 0.1301000D+00 0.4190000D-01 0.4190000D-01 0.4190000D-01
EXPONENTS  0.1046000D+01 0.1046000D+01 0.1046000D+01 0.1046000D+01 0.1046000D+01
EXPONENTS  0.1046000D+01 0.3440000D+00 0.3440000D+00 0.3440000D+00 0.3440000D+00
EXPONENTS  0.3440000D+00 0.3440000D+00 0.1350000D+00 0.1350000D+00 0.1350000D+00
EXPONENTS  0.1350000D+00 0.1350000D+00 0.1350000D+00 0.7060000D+00 0.7060000D+00
EXPONENTS  0.7060000D+00 0.7060000D+00 0.7060000D+00 0.7060000D+00 0.7060000D+00
EXPONENTS  0.7060000D+00 0.7060000D+00 0.7060000D+00 0.3120000D+00 0.3120000D+00
EXPONENTS  0.3120000D+00 0.3120000D+00 0.3120000D+00 0.3120000D+00 0.3120000D+00
EXPONENTS  0.3120000D+00 0.3120000D+00 0.3120000D+00
MO    1     MO 0.0        OCC NO =    2.0000000  ORB. ENERGY = -104.880351
 -0.38672816D-06 -0.72296582D-06 -0.12495107D-05 -0.20210274D-05 -0.30546646D-05
 -0.42067744D-05 -0.49167440D-05 -0.42484377D-05 -0.19814865D-05 -0.26904306D-06
 -0.72043102D-09 -0.14131878D-08 -0.64517928D-10  0.64083299D-06  0.11967829D-05
  0.20760051D-05  0.33661705D-05  0.51826028D-05  0.73811905D-05  0.94912528D-05
  0.99629911D-05  0.70445407D-05 -0.15600430D-06 -0.50615936D-05 -0.27870508D-05
  0.11786391D-07 -0.28502137D-06 -0.53189205D-06 -0.92383282D-06 -0.14964042D-05
 -0.23115065D-05 -0.32953999D-05 -0.42862388D-05 -0.45679752D-05 -0.33879722D-05
  0.10545499D-06  0.30693263D-05  0.30068804D-05 -0.14043915D-05  0.23673034D-05
  0.29420141D-05  0.91634058D-06 -0.52674380D-04 -0.69105919D-04 -0.75798660D-04
 -0.62368338D-04 -0.32881821D-04 -0.85542958D-05  0.94662004D-08  0.40991980D-15
  0.53779245D-15  0.58987635D-15  0.48535961D-15  0.25589119D-15  0.66570792D-16
 -0.73667368D-19  0.52451157D-04  0.68813062D-04  0.75477440D-04  0.62104034D-04
  0.32742475D-04  0.85180444D-05 -0.94260846D-08  0.44787560D-04  0.58806338D-04
  0.66161096D-04  0.55745725D-04  0.31183377D-04  0.77614791D-05 -0.35597883D-05
 -0.41321508D-15 -0.54255391D-15 -0.61040973D-15 -0.51431635D-15 -0.28770136D-15
 -0.71608282D-16  0.32843008D-16 -0.43595978D-04 -0.57241784D-04 -0.64400867D-04
 -0.54262599D-04 -0.30353737D-04 -0.75549834D-05  0.34650794D-05  0.83423855D-05
  0.72574719D-17 -0.81900671D-05  0.45904326D-05  0.21901804D-19 -0.48172841D-05
  0.12126470D-06 -0.60772496D-21 -0.10412659D-06 -0.26993242D-05  0.54491265D-06
  0.21544115D-05  0.17922936D-20  0.25584437D-05 -0.80165133D-20  0.24505645D-05
 -0.41608161D-06 -0.20344829D-05  0.23655060D-20 -0.26566808D-05  0.95963165D-20
  0.51942212D-06 -0.61845107D-07 -0.45757701D-06  0.15514085D-20 -0.28412155D-06
 -0.30280385D-21 -0.16184478D-05 -0.14830717D-19  0.55327760D-06  0.36609094D-05
  0.34849386D-19  0.19748343D-05  0.11944339D-05  0.96427645D-20 -0.36346671D-05
 -0.71722285D-21 -0.54286191D-06  0.60337970D-21  0.20352388D-07  0.28779283D-06
 -0.88904496D-21  0.11403192D-06  0.13407929D-05 -0.92109414D-21 -0.17508908D-06
 -0.11577770D-20 -0.28686369D+00 -0.53672306D+00 -0.92733855D+00 -0.15033239D+01
 -0.22829173D+01 -0.31729866D+01 -0.37722234D+01 -0.33600064D+01 -0.16680078D+01
 -0.26874278D+00 -0.41259176D-02 -0.73729741D-03 -0.27551654D-04  0.68536757D-05
  0.12801682D-04  0.22217940D-04  0.36050688D-04  0.55802183D-04  0.79875755D-04
  0.10426281D-03  0.11110942D-03  0.83056549D-04  0.43844077D-05 -0.56337462D-04
 -0.33470925D-04  0.12549088D-06 -0.31898417D-05 -0.59533799D-05 -0.10346450D-04
 -0.16768552D-04 -0.26044187D-04 -0.37309049D-04 -0.49263123D-04 -0.53268049D-04
 -0.41762841D-04 -0.20781051D-05  0.35801314D-04  0.37060997D-04 -0.16770625D-04
  0.13692912D-03  0.12711076D-04  0.29668661D-05 -0.35464039D-05 -0.46714098D-05
 -0.51536594D-05 -0.42807065D-05 -0.22735872D-05 -0.58642446D-06  0.60282441D-09
  0.27150785D-18  0.35763677D-18  0.39455713D-18  0.32772505D-18  0.17406274D-18
  0.44895857D-19 -0.46151415D-22  0.54180960D-03  0.71368485D-03  0.78736158D-03
  0.65399429D-03  0.34735226D-03  0.89592279D-04 -0.92097817D-07  0.16964133D-04
  0.22272662D-04  0.25359065D-04  0.21473015D-04  0.12300569D-04  0.27979528D-05
 -0.13095959D-05 -0.20573534D-19 -0.27011541D-19 -0.30754627D-19 -0.26041755D-19
 -0.14917720D-19 -0.33932637D-20  0.15882342D-20 -0.20146514D-03 -0.26450896D-03
 -0.30116291D-03 -0.25501238D-03 -0.14608091D-03 -0.33228339D-04  0.15552691D-04
  0.74350304D-06 -0.21147762D-19 -0.36012576D-04 -0.66253008D-06 -0.15231446D-20
 -0.60522624D-05  0.93824975D-08  0.66062850D-22 -0.13315019D-06  0.14104877D-05
  0.39244322D-05 -0.53349200D-05 -0.22988053D-19 -0.20502720D-05  0.28589532D-19
  0.12029519D-05  0.69981832D-06 -0.19027702D-05  0.25610373D-21  0.16295218D-05
 -0.85826012D-20 -0.35074546D-06 -0.54244539D-06  0.89319085D-06 -0.77609667D-21
  0.17991466D-06 -0.15996862D-20 -0.22919267D-06  0.22772555D-19  0.11782049D-05
  0.13386517D-05  0.30386045D-19  0.16040500D-06 -0.65107363D-06 -0.98703710D-19
 -0.36950196D-05 -0.94179060D-20  0.20024742D-06 -0.41515304D-20 -0.18565720D-06
 -0.34135935D-06 -0.54917867D-20 -0.61901129D-06 -0.25938290D-06  0.17946378D-19
  0.11759829D-05  0.37882414D-20  0.54585059D+00  0.10212885D+01  0.17645604D+01
  0.28605581D+01  0.43439857D+01  0.60376293D+01  0.71778703D+01  0.63934948D+01
  0.31739222D+01  0.51136973D+00  0.78508874D-02  0.14029459D-02  0.52425898D-04
 -0.11121738D-04 -0.20773810D-04 -0.36053954D-04 -0.58500915D-04 -0.90552469D-04
 -0.12961763D-03 -0.16919150D-03 -0.18030177D-03 -0.13477924D-03 -0.71147565D-05
  0.91421089D-04  0.54314630D-04 -0.20363914D-06  0.51024304D-05  0.95229511D-05
  0.16550051D-04  0.26822764D-04  0.41659952D-04  0.59679083D-04  0.78800668D-04
  0.85206897D-04  0.66803312D-04  0.33241107D-05 -0.57267328D-04 -0.59282301D-04
  0.26826080D-04 -0.25702355D-03 -0.20834863D-04 -0.42409876D-05 -0.93030279D-03
 -0.12254176D-02 -0.13519226D-02 -0.11229272D-02 -0.59641389D-03 -0.15383254D-03
  0.15813462D-06 -0.90531651D-18 -0.11925050D-17 -0.13156124D-17 -0.10927673D-17
 -0.58039527D-18 -0.14970087D-18  0.15388741D-21  0.32530434D-03  0.42849883D-03
  0.47273459D-03  0.39266041D-03  0.20855148D-03  0.53791511D-04 -0.55295845D-07
  0.32034796D-03  0.42059338D-03  0.47887651D-03  0.40549296D-03  0.23228198D-03
  0.52836092D-04 -0.24730199D-04 -0.44817087D-19 -0.58841550D-19 -0.66995434D-19
 -0.56728982D-19 -0.32496545D-19 -0.73918365D-20  0.34597863D-20 -0.12581796D-03
 -0.16518975D-03 -0.18808069D-03 -0.15925900D-03 -0.91229688D-04 -0.20751589D-04
  0.97128856D-05  0.61716304D-04 -0.10969784D-18 -0.21905748D-04  0.88669832D-05
 -0.10868850D-19 -0.28522599D-05  0.15274393D-06  0.47580362D-21 -0.81982841D-07
  0.88789616D-05 -0.65949526D-05 -0.22840090D-05  0.12676748D-18 -0.76815862D-05
 -0.17926768D-18  0.22610785D-05 -0.13387228D-05 -0.92235567D-06 -0.21282691D-19
 -0.38978700D-05  0.44022259D-20 -0.12267268D-05  0.80234051D-06  0.42438631D-06
  0.16863012D-20  0.12778997D-05  0.12528208D-20 -0.16877304D-05 -0.11844111D-19
 -0.30931387D-06  0.44606794D-05  0.51481869D-19  0.34001418D-05  0.60251192D-06
 -0.15949538D-19 -0.24722002D-05 -0.52534474D-19  0.43214221D-06  0.10453430D-20
 -0.11942304D-06 -0.13118857D-05 -0.31633401D-20 -0.34034181D-06  0.15459035D-07
  0.27311105D-22  0.69861093D-06  0.12185242D-20
MO    2     MO 0.0        OCC NO =    2.0000000  ORB. ENERGY = -104.880350
 -0.12434338D-05 -0.23245272D-05 -0.40175087D-05 -0.64981400D-05 -0.98215582D-05
 -0.13525897D-04 -0.15808638D-04 -0.13659856D-04 -0.63710054D-05 -0.86504490D-06
 -0.23163771D-08 -0.45437743D-08 -0.20744228D-09  0.20604510D-05  0.38479799D-05
  0.66749166D-05  0.10823146D-04  0.16663466D-04  0.23732519D-04  0.30516938D-04
  0.32033704D-04  0.22650099D-04 -0.50159593D-06 -0.16274389D-04 -0.89611202D-05
  0.37896425D-07 -0.91642268D-06 -0.17101803D-05 -0.29703785D-05 -0.48113541D-05
 -0.74321340D-05 -0.10595624D-04 -0.13781445D-04 -0.14687306D-04 -0.10893269D-04
  0.33906702D-06  0.98687345D-05  0.96679537D-05 -0.45155077D-05  0.76114169D-05
  0.94594510D-05  0.29462978D-05 -0.23362641D-04 -0.30650513D-04 -0.33618941D-04
 -0.27662198D-04 -0.14584058D-04 -0.37940825D-05  0.41985391D-08 -0.79128237D-16
 -0.10381194D-15 -0.11386587D-15 -0.93690645D-16 -0.49395561D-16 -0.12850390D-16
  0.14220267D-19 -0.43646467D-04 -0.57261788D-04 -0.62807453D-04 -0.51678968D-04
 -0.27246174D-04 -0.70881667D-05  0.78437791D-08  0.21513920D-04  0.28247907D-04
  0.31780801D-04  0.26777727D-04  0.14979085D-04  0.37282638D-05 -0.17099614D-05
  0.88058544D-16  0.11562140D-15  0.13008188D-15  0.10960382D-15  0.61310838D-16
  0.15260143D-16 -0.69990367D-17  0.37934060D-04  0.49807652D-04  0.56036967D-04
  0.47215381D-04  0.26411622D-04  0.65737990D-05 -0.30150610D-05  0.38927290D-05
 -0.17871758D-17  0.70087175D-05  0.16305630D-05 -0.25014087D-20  0.36015171D-05
  0.81157091D-07  0.23295361D-21  0.11413700D-06  0.29033655D-06  0.17520078D-05
 -0.20423444D-05  0.47040548D-20  0.13524617D-05  0.36892416D-20 -0.58120737D-06
 -0.13378271D-05  0.19190345D-05 -0.47886876D-20 -0.20583693D-05 -0.27462143D-20
  0.65031582D-09 -0.19885126D-06  0.19820095D-06 -0.40056794D-21  0.36582793D-06
 -0.50734444D-21 -0.61328355D-06  0.24654242D-20 -0.23993136D-05  0.16414200D-05
 -0.62336034D-20  0.41556200D-05  0.19843062D-06 -0.11626694D-20  0.30423207D-05
 -0.30926736D-21 -0.41330480D-07 -0.31961044D-21 -0.53155359D-06  0.31119486D-06
  0.88583360D-21  0.12646341D-05 -0.18720342D-06  0.72997710D-22  0.33002670D-06
 -0.36440390D-21  0.54584973D+00  0.10212869D+01  0.17645576D+01  0.28605536D+01
  0.43439789D+01  0.60376198D+01  0.71778590D+01  0.63934847D+01  0.31739172D+01
  0.51136892D+00  0.78508751D-02  0.14029437D-02  0.52425816D-04 -0.96567812D-05
 -0.18037481D-04 -0.31304922D-04 -0.50795167D-04 -0.78624886D-04 -0.11254438D-03
 -0.14690557D-03 -0.15655240D-03 -0.11702610D-03 -0.61775998D-05  0.79379091D-04
  0.47160300D-04 -0.17681577D-06  0.43642538D-05  0.81452509D-05  0.14155729D-04
  0.22942273D-04  0.35632941D-04  0.51045217D-04  0.67400452D-04  0.72879882D-04
  0.57138772D-04  0.28432064D-05 -0.48982374D-04 -0.50705838D-04  0.22945109D-04
 -0.25433053D-03 -0.18276815D-04 -0.31692142D-05 -0.56452652D-04 -0.74360812D-04
 -0.82037396D-04 -0.68141487D-04 -0.36191599D-04 -0.93348691D-05  0.95959281D-08
 -0.59887304D-18 -0.78885020D-18 -0.87028657D-18 -0.72287303D-18 -0.38393543D-18
 -0.99028146D-19  0.10179757D-21 -0.95010823D-03 -0.12515058D-02 -0.13807040D-02
 -0.11468334D-02 -0.60911109D-03 -0.15710752D-03  0.16150119D-06  0.19579449D-04
  0.25706381D-04  0.29268606D-04  0.24783453D-04  0.14196916D-04  0.32293059D-05
 -0.15114929D-05 -0.86675984D-19 -0.11379921D-18 -0.12956878D-18 -0.10971352D-18
 -0.62848127D-19 -0.14295769D-19  0.66912064D-20  0.31424514D-03  0.41258083D-03
  0.46975363D-03  0.39776808D-03  0.22785687D-03  0.51829533D-04 -0.24259074D-04
  0.39479150D-05  0.11159897D-18  0.63135159D-04 -0.64273917D-07  0.39635470D-20
  0.76095035D-05 -0.24993479D-07 -0.19202604D-21  0.10984946D-06 -0.39842850D-05
 -0.59290842D-05  0.99133693D-05  0.51083969D-19  0.98941830D-07 -0.36067711D-19
 -0.14570199D-05 -0.13441125D-05  0.28011324D-05  0.30096012D-20  0.10041258D-05
 -0.20272130D-20  0.61903630D-06  0.62694257D-06 -0.12459789D-05  0.12678546D-21
 -0.78467190D-08  0.11792501D-21  0.13492848D-06 -0.65981777D-20 -0.24304730D-05
  0.68767851D-06 -0.10247908D-19  0.37533228D-05 -0.10924639D-05  0.30042441D-19
  0.35380964D-05 -0.95288581D-20  0.91004457D-07  0.84713585D-21  0.55093078D-06
 -0.17310814D-06  0.13031828D-20 -0.75982438D-06 -0.99905234D-07 -0.38445903D-20
 -0.89296796D-06  0.11885949D-20  0.28686205D+00  0.53672000D+00  0.92733325D+00
  0.15033154D+01  0.22829043D+01  0.31729685D+01  0.37722018D+01  0.33599873D+01
  0.16679983D+01  0.26874125D+00  0.41258940D-02  0.73729320D-03  0.27551497D-04
 -0.40661448D-05 -0.75949747D-05 -0.13181447D-04 -0.21388132D-04 -0.33106288D-04
 -0.47388643D-04 -0.61856982D-04 -0.65918936D-04 -0.49275743D-04 -0.26011789D-05
  0.33423858D-04  0.19857612D-04 -0.74451156D-07  0.17852238D-05  0.33318629D-05
  0.57904845D-05  0.93846719D-05  0.14575865D-04  0.20880347D-04  0.27570553D-04
  0.29811946D-04  0.23372952D-04  0.11630304D-05 -0.20036529D-04 -0.20741522D-04
  0.93858322D-05 -0.13180489D-03 -0.78434389D-05 -0.92744886D-06 -0.46110803D-03
 -0.60738277D-03 -0.67008548D-03 -0.55658302D-03 -0.29561476D-03 -0.76247670D-04
  0.78380012D-07 -0.12305381D-17 -0.16208948D-17 -0.17882267D-17 -0.14853278D-17
 -0.78889370D-18 -0.20347870D-18  0.20916918D-21  0.12473820D-03  0.16430820D-03
  0.18127044D-03  0.15056594D-03  0.79969227D-04  0.20626396D-04 -0.21203234D-07
  0.14419113D-03  0.18931238D-03  0.21554607D-03  0.18251556D-03  0.10455194D-03
  0.23781939D-04 -0.11131256D-04  0.35135337D-18  0.46130122D-18  0.52522538D-18
  0.44473928D-18  0.25476378D-18  0.57949922D-19 -0.27123753D-19 -0.27677163D-04
 -0.36338087D-04 -0.41373585D-04 -0.35033452D-04 -0.20068510D-04 -0.45648899D-05
  0.21366197D-05  0.30797061D-04  0.17404550D-19 -0.78669072D-05  0.24934816D-05
  0.29966791D-20 -0.14145279D-05  0.85021129D-08 -0.39492530D-21 -0.19603110D-07
  0.38019636D-05 -0.26573766D-05 -0.11445870D-05  0.49461109D-19 -0.58966183D-05
 -0.10686976D-18  0.15894712D-05 -0.71010322D-06 -0.87936801D-06 -0.13752415D-21
  0.13638005D-06  0.65624264D-20 -0.38133989D-06  0.20869208D-06  0.17264781D-06
  0.19262354D-22  0.62607714D-06 -0.78623689D-21 -0.11021720D-05 -0.71247530D-20
 -0.10988280D-05  0.12384230D-05  0.25922743D-19  0.23514108D-05  0.20680931D-05
 -0.45484839D-20  0.94507316D-06 -0.99430145D-20  0.10400454D-06  0.66247404D-21
  0.41490308D-06 -0.18422050D-06 -0.27640921D-20 -0.95528132D-06 -0.12779313D-06
  0.77666995D-21 -0.28942793D-06  0.16758919D-20
MO    3     MO 0.0        OCC NO =    2.0000000  ORB. ENERGY =  -92.079340
  0.58447563D+00  0.10926432D+01  0.18884286D+01  0.30544486D+01  0.46166202D+01
  0.63578436D+01  0.74308451D+01  0.64208108D+01  0.29946890D+01  0.40661407D+00
  0.10888123D-02  0.21357996D-02  0.97508175D-04 -0.70338113D-05 -0.13135942D-04
 -0.22786324D-04 -0.36947237D-04 -0.56884477D-04 -0.81016273D-04 -0.10417641D-03
 -0.10935423D-03 -0.77321190D-04  0.17123101D-05  0.55556275D-04  0.30590793D-04
 -0.12936794D-06  0.45186658D-05  0.84324989D-05  0.14646241D-04  0.23723661D-04
  0.36646113D-04  0.52244541D-04  0.67953082D-04  0.72419668D-04  0.53712162D-04
 -0.16718601D-05 -0.48660420D-04 -0.47670417D-04  0.22264912D-04 -0.39463527D-03
  0.14271622D-04  0.49638094D-05  0.15427929D-02  0.20240603D-02  0.22200856D-02
  0.18267216D-02  0.96308377D-03  0.25054888D-03 -0.27725788D-06 -0.65939332D-17
 -0.86508813D-17 -0.94886982D-17 -0.78074512D-17 -0.41162427D-17 -0.10708518D-17
  0.11850067D-20  0.10610165D-02  0.13919959D-02  0.15268073D-02  0.12562812D-02
  0.66233631D-03  0.17230860D-03 -0.19067704D-06 -0.55126732D-03 -0.72381734D-03
 -0.81434332D-03 -0.68614581D-03 -0.38382035D-03 -0.95532103D-04  0.43815626D-04
  0.13609638D-17  0.17869537D-17  0.20104434D-17  0.16939506D-17  0.94757221D-18
  0.23584879D-18 -0.10817162D-18 -0.37911934D-03 -0.49778600D-03 -0.56004281D-03
 -0.47187841D-03 -0.26396217D-03 -0.65699646D-04  0.30133023D-04 -0.10041712D-03
  0.50273477D-18 -0.69059312D-04  0.59966895D-06  0.88383539D-20  0.41235827D-06
  0.15639605D-06 -0.80431609D-21  0.10755651D-06  0.27388118D-05 -0.74924646D-05
  0.47536528D-05 -0.22839381D-19 -0.52585149D-05 -0.61583411D-20  0.53041863D-05
 -0.11406189D-04  0.61020024D-05  0.23419485D-18 -0.20820754D-05  0.55283534D-19
 -0.29127152D-06  0.17011361D-06  0.12115792D-06  0.14794760D-20 -0.10763756D-05
 -0.55699323D-21  0.31334223D-05 -0.82897530D-21  0.59337187D-05 -0.81663814D-05
 -0.73000157D-19 -0.12184950D-04 -0.12338856D-05  0.75487083D-19 -0.56162064D-05
  0.15294491D-19  0.11245089D-07  0.14539771D-20  0.28910847D-06  0.28022350D-06
  0.18186112D-20 -0.10600459D-05 -0.31395877D-06 -0.61805426D-20  0.19272049D-06
  0.22065891D-20  0.17512448D-05  0.32765857D-05  0.56612142D-05  0.91774885D-05
  0.13936748D-04  0.19370441D-04  0.23028660D-04  0.20512159D-04  0.10182850D-04
  0.16406203D-05  0.25187892D-07  0.45010515D-08  0.16819727D-09 -0.35577367D-05
 -0.66453412D-05 -0.11533312D-04 -0.18713878D-04 -0.28966861D-04 -0.41463430D-04
 -0.54122728D-04 -0.57676798D-04 -0.43114577D-04 -0.22759419D-05  0.29244724D-04
  0.17374726D-04 -0.65142197D-07  0.21567325D-05  0.40252304D-05  0.69954962D-05
  0.11337641D-04  0.17609132D-04  0.25225590D-04  0.33308041D-04  0.36015873D-04
  0.28236911D-04  0.14050594D-05 -0.24206172D-04 -0.25057875D-04  0.11339043D-04
  0.51911249D-05 -0.15364163D-04 -0.45368739D-05  0.25297688D-06  0.33322733D-06
  0.36762781D-06  0.30535715D-06  0.16218260D-06  0.41831624D-07 -0.43001488D-10
  0.26449578D-19  0.34840030D-19  0.38436715D-19  0.31926110D-19  0.16956733D-19
  0.43736360D-20 -0.44959491D-23  0.21938385D-03  0.28897777D-03  0.31881018D-03
  0.26480850D-03  0.14064623D-03  0.36276765D-04 -0.37291281D-07 -0.55661601D-06
 -0.73079601D-06 -0.83206502D-06 -0.70455849D-06 -0.40359823D-06 -0.91804595D-07
  0.42969603D-07 -0.14851923D-19 -0.19499486D-19 -0.22201600D-19 -0.18799403D-19
 -0.10769022D-19 -0.24495788D-20  0.11465377D-20 -0.18738687D-03 -0.24602522D-03
 -0.28011781D-03 -0.23719226D-03 -0.13587286D-03 -0.30906361D-04  0.14465878D-04
 -0.59982857D-06 -0.95230555D-21 -0.25146148D-04  0.26731695D-05  0.32982194D-20
  0.94359487D-05  0.12138386D-07  0.22486683D-21  0.18938550D-06 -0.61343552D-05
 -0.52246361D-05  0.11358991D-04 -0.56688246D-20  0.22759513D-05  0.16268380D-19
  0.54512387D-05  0.51802124D-05 -0.10631451D-04  0.67767233D-21 -0.24118853D-05
 -0.78418512D-20  0.82189863D-06  0.81637407D-06 -0.16382727D-05 -0.73844308D-21
 -0.11496919D-05 -0.19773272D-20  0.27371000D-06  0.46939593D-20  0.14976264D-05
 -0.96031026D-06  0.18529736D-20 -0.22317476D-05  0.13918025D-06 -0.15934852D-19
 -0.22611317D-05 -0.22817663D-20 -0.39277408D-06 -0.19135257D-20  0.27648651D-05
 -0.73952398D-07 -0.16664148D-20 -0.41415828D-05  0.12522746D-05  0.74069918D-20
 -0.41530126D-05  0.10359465D-20  0.17512513D-05  0.32765979D-05  0.56612352D-05
  0.91775226D-05  0.13936800D-04  0.19370513D-04  0.23028746D-04  0.20512236D-04
  0.10182888D-04  0.16406264D-05  0.25187985D-07  0.45010682D-08  0.16819790D-09
 -0.35577502D-05 -0.66453664D-05 -0.11533356D-04 -0.18713949D-04 -0.28966971D-04
 -0.41463587D-04 -0.54122933D-04 -0.57677016D-04 -0.43114741D-04 -0.22759506D-05
  0.29244835D-04  0.17374792D-04 -0.65142444D-07  0.21567407D-05  0.40252458D-05
  0.69955229D-05  0.11337685D-04  0.17609199D-04  0.25225686D-04  0.33308168D-04
  0.36016010D-04  0.28237019D-04  0.14050647D-05 -0.24206264D-04 -0.25057971D-04
  0.11339086D-04  0.51911673D-05 -0.15364316D-04 -0.45369189D-05  0.20495212D-03
  0.26996794D-03  0.29783788D-03  0.24738859D-03  0.13139409D-03  0.33890369D-04
 -0.34838147D-07  0.91313426D-19  0.12028027D-18  0.13269732D-18  0.11022038D-18
  0.58540720D-19  0.15099359D-19 -0.15521628D-22 -0.78260632D-04 -0.10308682D-03
 -0.11372891D-03 -0.94464931D-04 -0.50172619D-04 -0.12940982D-04  0.13302890D-07
 -0.17518191D-03 -0.23000101D-03 -0.26187307D-03 -0.22174336D-03 -0.12702313D-03
 -0.28893356D-04  0.13523681D-04 -0.92604827D-19 -0.12158335D-18 -0.13843159D-18
 -0.11721818D-18 -0.67147088D-19 -0.15273633D-19  0.71489008D-20  0.66528402D-04
  0.87346915D-04  0.99450888D-04  0.84210928D-04  0.48239262D-04  0.10972758D-04
 -0.51358548D-05 -0.23696125D-04 -0.12814069D-19  0.84373015D-05  0.97677988D-05
  0.27062677D-21 -0.88004136D-06  0.18119276D-06 -0.32986919D-22 -0.56428733D-07
  0.98798545D-05 -0.52246282D-05 -0.46552262D-05  0.26565578D-19 -0.99964113D-05
 -0.10485537D-19 -0.93783822D-05  0.51802368D-05  0.41981454D-05 -0.15561838D-19
  0.89526844D-05  0.57632282D-20 -0.17074505D-05  0.81637831D-06  0.89107218D-06
 -0.40418519D-21  0.78865594D-06 -0.73031469D-21  0.10086172D-05  0.34269463D-20
  0.86720730D-06 -0.24550701D-05 -0.12469445D-19 -0.25139349D-05 -0.57078148D-06
  0.21886056D-20 -0.87687003D-07  0.23180192D-20  0.21288867D-05 -0.30290122D-20
  0.99540187D-06 -0.39045358D-05  0.10605757D-19 -0.44031153D-05 -0.24821242D-05
 -0.15187207D-20  0.14169097D-05 -0.67075667D-20
MO    4     MO 0.0        OCC NO =    2.0000000  ORB. ENERGY =  -10.602901
  0.27972507D-06  0.52292976D-06  0.90378589D-06  0.14618331D-05  0.22094752D-05
  0.30428099D-05  0.35563393D-05  0.30729454D-05  0.14332327D-05  0.19460204D-06
  0.52109631D-09  0.10221755D-08  0.46666583D-10 -0.50664567D-06 -0.94618236D-06
 -0.16412997D-05 -0.26613107D-05 -0.40973908D-05 -0.58356049D-05 -0.75038304D-05
 -0.78767890D-05 -0.55694480D-05  0.12333776D-06  0.40017204D-05  0.22034558D-05
 -0.93183774D-08  0.20939052D-06  0.39075368D-06  0.67869237D-06  0.10993311D-05
  0.16981448D-05  0.24209605D-05  0.31488788D-05  0.33558560D-05  0.24889686D-05
 -0.77472350D-07 -0.22548759D-05 -0.22090001D-05  0.10317341D-05 -0.28939282D-05