 Molden2AIM, Version 4.0.0 (06/02/2016)           Time: Wed Jun 27 22:26:08 2018
GAUSSIAN             15 MOL ORBITALS    281 PRIMITIVES        3 NUCLEI
  Cl   1    (CENTRE  1)   0.00000000  0.00000000 -0.00164028  CHARGE = 17.0
  C    2    (CENTRE  2)   0.00000000  0.00000000  3.09182060  CHARGE =  6.0
  N    3    (CENTRE  3)   0.00000000  0.00000000  5.28772015  CHARGE =  7.0
CENTRE ASSIGNMENTS    1  1  1  1  1  1  1  1  1  1  1  1  1  1  1  1  1  1  1  1
CENTRE ASSIGNMENTS    1  1  1  1  1  1  1  1  1  1  1  1  1  1  1  1  1  1  1  1
CENTRE ASSIGNMENTS    1  1  1  1  1  1  1  1  1  1  1  1  1  1  1  1  1  1  1  1
CENTRE ASSIGNMENTS    1  1  1  1  1  1  1  1  1  1  1  1  1  1  1  1  1  1  1  1
CENTRE ASSIGNMENTS    1  1  1  1  1  1  1  1  1  1  1  1  1  1  1  1  1  1  1  1
CENTRE ASSIGNMENTS    1  1  1  1  1  1  1  1  1  1  1  1  1  1  1  1  1  1  1  1
CENTRE ASSIGNMENTS    1  1  1  1  1  1  1  1  1  1  1  2  2  2  2  2  2  2  2  2
CENTRE ASSIGNMENTS    2  2  2  2  2  2  2  2  2  2  2  2  2  2  2  2  2  2  2  2
CENTRE ASSIGNMENTS    2  2  2  2  2  2  2  2  2  2  2  2  2  2  2  2  2  2  2  2
CENTRE ASSIGNMENTS    2  2  2  2  2  2  2  2  2  2  2  2  2  2  2  2  2  2  2  2
CENTRE ASSIGNMENTS    2  2  2  2  2  2  3  3  3  3  3  3  3  3  3  3  3  3  3  3
CENTRE ASSIGNMENTS    3  3  3  3  3  3  3  3  3  3  3  3  3  3  3  3  3  3  3  3
CENTRE ASSIGNMENTS    3  3  3  3  3  3  3  3  3  3  3  3  3  3  3  3  3  3  3  3
CENTRE ASSIGNMENTS    3  3  3  3  3  3  3  3  3  3  3  3  3  3  3  3  3  3  3  3
CENTRE ASSIGNMENTS    3
TYPE ASSIGNMENTS      1  1  1  1  1  1  1  1  1  1  1  1  1  1  1  1  1  1  1  1
TYPE ASSIGNMENTS      1  1  1  1  1  1  1  1  1  1  1  1  1  1  1  1  1  1  1  1
TYPE ASSIGNMENTS      1  1  2  2  2  2  2  2  2  3  3  3  3  3  3  3  4  4  4  4
TYPE ASSIGNMENTS      4  4  4  2  2  2  2  2  2  2  3  3  3  3  3  3  3  4  4  4
TYPE ASSIGNMENTS      4  4  4  4  2  3  4  2  3  4  2  3  4  5  6  7  8  9 10  5
TYPE ASSIGNMENTS      6  7  8  9 10  5  6  7  8  9 10 11 12 13 17 14 15 18 19 16
TYPE ASSIGNMENTS     20 11 12 13 17 14 15 18 19 16 20  1  1  1  1  1  1  1  1  1
TYPE ASSIGNMENTS      1  1  1  1  1  1  1  1  1  1  2  2  2  3  3  3  4  4  4  2
TYPE ASSIGNMENTS      3  4  2  3  4  2  3  4  5  6  7  8  9 10  5  6  7  8  9 10
TYPE ASSIGNMENTS      5  6  7  8  9 10 11 12 13 17 14 15 18 19 16 20 11 12 13 17
TYPE ASSIGNMENTS     14 15 18 19 16 20  1  1  1  1  1  1  1  1  1  1  1  1  1  1
TYPE ASSIGNMENTS      1  1  1  1  1  2  2  2  3  3  3  4  4  4  2  3  4  2  3  4
TYPE ASSIGNMENTS      2  3  4  5  6  7  8  9 10  5  6  7  8  9 10  5  6  7  8  9
TYPE ASSIGNMENTS     10 11 12 13 17 14 15 18 19 16 20 11 12 13 17 14 15 18 19 16
TYPE ASSIGNMENTS     20
EXPONENTS  0.4561000D+06 0.6833000D+05 0.1555000D+05 0.4405000D+04 0.1439000D+04
EXPONENTS  0.5204000D+03 0.2031000D+03 0.8396000D+02 0.3620000D+02 0.1583000D+02
EXPONENTS  0.6334000D+01 0.2694000D+01 0.4313000D+00 0.4561000D+06 0.6833000D+05
EXPONENTS  0.1555000D+05 0.4405000D+04 0.1439000D+04 0.5204000D+03 0.2031000D+03
EXPONENTS  0.8396000D+02 0.3620000D+02 0.1583000D+02 0.6334000D+01 0.2694000D+01
EXPONENTS  0.4313000D+00 0.4561000D+06 0.6833000D+05 0.1555000D+05 0.4405000D+04
EXPONENTS  0.1439000D+04 0.5204000D+03 0.2031000D+03 0.8396000D+02 0.3620000D+02
EXPONENTS  0.1583000D+02 0.6334000D+01 0.2694000D+01 0.4313000D+00 0.9768000D+00
EXPONENTS  0.1625000D+00 0.5910000D-01 0.6633000D+03 0.1568000D+03 0.4998000D+02
EXPONENTS  0.1842000D+02 0.7240000D+01 0.2922000D+01 0.3818000D+00 0.6633000D+03
EXPONENTS  0.1568000D+03 0.4998000D+02 0.1842000D+02 0.7240000D+01 0.2922000D+01
EXPONENTS  0.3818000D+00 0.6633000D+03 0.1568000D+03 0.4998000D+02 0.1842000D+02
EXPONENTS  0.7240000D+01 0.2922000D+01 0.3818000D+00 0.6633000D+03 0.1568000D+03
EXPONENTS  0.4998000D+02 0.1842000D+02 0.7240000D+01 0.2922000D+01 0.3818000D+00
EXPONENTS  0.6633000D+03 0.1568000D+03 0.4998000D+02 0.1842000D+02 0.7240000D+01
EXPONENTS  0.2922000D+01 0.3818000D+00 0.6633000D+03 0.1568000D+03 0.4998000D+02
EXPONENTS  0.1842000D+02 0.7240000D+01 0.2922000D+01 0.3818000D+00 0.1022000D+01
EXPONENTS  0.1022000D+01 0.1022000D+01 0.1301000D+00 0.1301000D+00 0.1301000D+00
EXPONENTS  0.4190000D-01 0.4190000D-01 0.4190000D-01 0.1046000D+01 0.1046000D+01
EXPONENTS  0.1046000D+01 0.1046000D+01 0.1046000D+01 0.1046000D+01 0.3440000D+00
EXPONENTS  0.3440000D+00 0.3440000D+00 0.3440000D+00 0.3440000D+00 0.3440000D+00
EXPONENTS  0.1350000D+00 0.1350000D+00 0.1350000D+00 0.1350000D+00 0.1350000D+00
EXPONENTS  0.1350000D+00 0.7060000D+00 0.7060000D+00 0.7060000D+00 0.7060000D+00
EXPONENTS  0.7060000D+00 0.7060000D+00 0.7060000D+00 0.7060000D+00 0.7060000D+00
EXPONENTS  0.7060000D+00 0.3120000D+00 0.3120000D+00 0.3120000D+00 0.3120000D+00
EXPONENTS  0.3120000D+00 0.3120000D+00 0.3120000D+00 0.3120000D+00 0.3120000D+00
EXPONENTS  0.3120000D+00 0.8236000D+04 0.1235000D+04 0.2808000D+03 0.7927000D+02
EXPONENTS  0.2559000D+02 0.8997000D+01 0.3319000D+01 0.3643000D+00 0.8236000D+04
EXPONENTS  0.1235000D+04 0.2808000D+03 0.7927000D+02 0.2559000D+02 0.8997000D+01
EXPONENTS  0.3319000D+01 0.3643000D+00 0.9059000D+00 0.1285000D+00 0.4402000D-01
EXPONENTS  0.1871000D+02 0.4133000D+01 0.1200000D+01 0.1871000D+02 0.4133000D+01
EXPONENTS  0.1200000D+01 0.1871000D+02 0.4133000D+01 0.1200000D+01 0.3827000D+00
EXPONENTS  0.3827000D+00 0.3827000D+00 0.1209000D+00 0.1209000D+00 0.1209000D+00
EXPONENTS  0.3569000D-01 0.3569000D-01 0.3569000D-01 0.1097000D+01 0.1097000D+01
EXPONENTS  0.1097000D+01 0.1097000D+01 0.1097000D+01 0.1097000D+01 0.3180000D+00
EXPONENTS  0.3180000D+00 0.3180000D+00 0.3180000D+00 0.3180000D+00 0.3180000D+00
EXPONENTS  0.1000000D+00 0.1000000D+00 0.1000000D+00 0.1000000D+00 0.1000000D+00
EXPONENTS  0.1000000D+00 0.7610000D+00 0.7610000D+00 0.7610000D+00 0.7610000D+00
EXPONENTS  0.7610000D+00 0.7610000D+00 0.7610000D+00 0.7610000D+00 0.7610000D+00
EXPONENTS  0.7610000D+00 0.2680000D+00 0.2680000D+00 0.2680000D+00 0.2680000D+00
EXPONENTS  0.2680000D+00 0.2680000D+00 0.2680000D+00 0.2680000D+00 0.2680000D+00
EXPONENTS  0.2680000D+00 0.1142000D+05 0.1712000D+04 0.3893000D+03 0.1100000D+03
EXPONENTS  0.3557000D+02 0.1254000D+02 0.4644000D+01 0.5118000D+00 0.1142000D+05
EXPONENTS  0.1712000D+04 0.3893000D+03 0.1100000D+03 0.3557000D+02 0.1254000D+02
EXPONENTS  0.4644000D+01 0.5118000D+00 0.1293000D+01 0.1787000D+00 0.5760000D-01
EXPONENTS  0.2663000D+02 0.5948000D+01 0.1742000D+01 0.2663000D+02 0.5948000D+01
EXPONENTS  0.1742000D+01 0.2663000D+02 0.5948000D+01 0.1742000D+01 0.5550000D+00
EXPONENTS  0.5550000D+00 0.5550000D+00 0.1725000D+00 0.1725000D+00 0.1725000D+00
EXPONENTS  0.4910000D-01 0.4910000D-01 0.4910000D-01 0.1654000D+01 0.1654000D+01
EXPONENTS  0.1654000D+01 0.1654000D+01 0.1654000D+01 0.1654000D+01 0.4690000D+00
EXPONENTS  0.4690000D+00 0.4690000D+00 0.4690000D+00 0.4690000D+00 0.4690000D+00
EXPONENTS  0.1510000D+00 0.1510000D+00 0.1510000D+00 0.1510000D+00 0.1510000D+00
EXPONENTS  0.1510000D+00 0.1093000D+01 0.1093000D+01 0.1093000D+01 0.1093000D+01
EXPONENTS  0.1093000D+01 0.1093000D+01 0.1093000D+01 0.1093000D+01 0.1093000D+01
EXPONENTS  0.1093000D+01 0.3640000D+00 0.3640000D+00 0.3640000D+00 0.3640000D+00
EXPONENTS  0.3640000D+00 0.3640000D+00 0.3640000D+00 0.3640000D+00 0.3640000D+00
EXPONENTS  0.3640000D+00
MO    1     MO 0.0        OCC NO =    2.0000000  ORB. ENERGY = -104.935537
  0.61664172D+00  0.11537390D+01  0.19934055D+01  0.32315427D+01  0.49073554D+01
  0.68206470D+01  0.81087653D+01  0.72226644D+01  0.35855469D+01  0.57768905D+00
  0.88690657D-02  0.15848933D-02  0.59224991D-04 -0.17503898D-04 -0.32694767D-04
 -0.56743354D-04 -0.92071404D-04 -0.14251560D-03 -0.20399813D-03 -0.26628128D-03
 -0.28376714D-03 -0.21212170D-03 -0.11197528D-04  0.14388267D-03  0.85482838D-04
 -0.32049655D-06  0.78157017D-05  0.14586881D-04  0.25350715D-04  0.41086052D-04
  0.63813071D-04  0.91414066D-04  0.12070376D-03  0.13051657D-03  0.10232668D-03
  0.50917417D-05 -0.87719835D-04 -0.90806291D-04  0.41091132D-04 -0.31235590D-03
  0.10612113D-04 -0.10487580D-05 -0.36206596D-17 -0.47692212D-17 -0.52615683D-17
 -0.43703373D-17 -0.23211923D-17 -0.59870320D-18  0.61544654D-21 -0.20733820D-17
 -0.27311094D-17 -0.30130534D-17 -0.25026872D-17 -0.13292380D-17 -0.34284925D-18
  0.35243737D-21  0.20712740D-02  0.27283326D-02  0.30099901D-02  0.25001427D-02
  0.13278865D-02  0.34250067D-03 -0.35207905D-06  0.98250161D-18  0.12899526D-17
  0.14687059D-17  0.12436398D-17  0.71240479D-18  0.16204737D-18 -0.75847089D-19
  0.51601995D-18  0.67749637D-18  0.77137945D-18  0.65317244D-18  0.37416232D-18
  0.85108947D-19 -0.39835671D-19 -0.10476085D-02 -0.13754332D-02 -0.15660319D-02
 -0.13260515D-02 -0.75961336D-03 -0.17278569D-03  0.80873210D-04  0.19897153D-18
  0.17255382D-18 -0.13071398D-03  0.23332796D-20  0.77933718D-20 -0.25310380D-05
  0.20998033D-21 -0.39770773D-21 -0.15708834D-06 -0.59267977D-05 -0.59267977D-05
  0.11853595D-04  0.72176874D-18  0.16406820D-18 -0.17171529D-18 -0.10146012D-04
 -0.10146012D-04  0.20292024D-04 -0.76462064D-19 -0.61616464D-19 -0.18141535D-21
  0.61394454D-06  0.61394454D-06 -0.12278891D-05  0.63670301D-20  0.19001881D-20
  0.11048498D-20  0.25363421D-20  0.11357793D-19  0.10122402D-04  0.15649474D-19
  0.37287868D-20 -0.15183604D-04 -0.23258500D-19 -0.37802165D-19 -0.15183604D-04
  0.20948054D-19  0.29789049D-20 -0.57543136D-21  0.11685267D-05  0.98745110D-21
  0.40304216D-21 -0.17527901D-05 -0.99241659D-20  0.13232519D-20 -0.17527901D-05
 -0.11575324D-19  0.36508414D-05  0.68059985D-05  0.11503336D-04  0.17293283D-04
  0.21246796D-04  0.17946316D-04  0.67686900D-05 -0.33498625D-07 -0.30474113D-05
 -0.57057154D-05 -0.97144686D-05 -0.15026806D-04 -0.19789775D-04 -0.20562844D-04
 -0.13066764D-04  0.87570414D-05  0.27240961D-04 -0.13503256D-04 -0.20746790D-05
 -0.31161163D-19 -0.29215571D-19 -0.20803227D-19 -0.14296445D-19 -0.13403826D-19
 -0.95443228D-20 -0.17964576D-04 -0.16842932D-04 -0.11993171D-04  0.71921749D-20
  0.79403679D-20  0.67854029D-04  0.19387817D-21 -0.14653329D-21 -0.37922714D-05
 -0.48567921D-21  0.36737383D-21 -0.13590598D-06 -0.35259390D-05 -0.35259390D-05
  0.70518780D-05 -0.80158818D-20  0.11161008D-19  0.19114290D-19  0.10412801D-04
  0.10412801D-04 -0.20825602D-04 -0.34896997D-20 -0.43233798D-19  0.39704078D-21
  0.81460961D-06  0.81460961D-06 -0.16292192D-05 -0.18778617D-20  0.52473172D-21
  0.19016869D-20 -0.32886889D-20 -0.60551118D-20  0.12850050D-04 -0.33834203D-20
 -0.74166696D-20 -0.19275075D-04  0.13249487D-19  0.25582005D-19 -0.19275075D-04
  0.12609985D-19 -0.35299270D-20 -0.11612589D-20  0.74581779D-06 -0.33641526D-20
 -0.10570665D-20 -0.11187267D-05  0.13953934D-19  0.45408433D-20 -0.11187267D-05
 -0.18201094D-19  0.71999366D-07  0.13416022D-06  0.22689856D-06  0.34169666D-06
  0.42304263D-06  0.35999018D-06  0.13698291D-06 -0.64154939D-09 -0.10310283D-06
 -0.19331876D-06 -0.32889274D-06 -0.51073569D-06 -0.67777597D-06 -0.71428283D-06
 -0.44290092D-06  0.29461787D-06  0.43156735D-05  0.56633244D-05  0.86031342D-06
  0.19883098D-20  0.19097478D-20  0.13392470D-20  0.84855551D-20  0.81502742D-20
  0.57155349D-20 -0.45593699D-05 -0.43792203D-05 -0.30710115D-05 -0.86353120D-20
 -0.14327173D-19  0.16121322D-04  0.53349532D-20 -0.44003645D-20  0.11764659D-04
  0.39665141D-21 -0.55833118D-21  0.44676371D-06  0.25439143D-06  0.25439143D-06
 -0.50878286D-06 -0.30380220D-19  0.43851575D-19  0.15823666D-19  0.72340225D-05
  0.72340225D-05 -0.14468045D-04  0.16943694D-19 -0.17930655D-19  0.99542093D-20
  0.10268109D-05  0.10268109D-05 -0.20536218D-05  0.44934905D-20 -0.42571342D-20
 -0.47978753D-21  0.50169961D-20  0.70658815D-20  0.66527602D-05  0.55674034D-20
  0.67131698D-20 -0.99791403D-05 -0.20618392D-19 -0.27910814D-19 -0.99791403D-05
  0.33044313D-19 -0.25007327D-20 -0.40435473D-21  0.17639517D-05 -0.26023020D-20
 -0.41227100D-21 -0.26459276D-05  0.10104500D-19  0.16253352D-20 -0.26459276D-05
 -0.16221179D-19
MO    2     MO 0.0        OCC NO =    2.0000000  ORB. ENERGY =  -15.607669
 -0.22902218D-04 -0.42850137D-04 -0.74035544D-04 -0.12002025D-03 -0.18226033D-03
 -0.25332042D-03 -0.30116144D-03 -0.26825144D-03 -0.13316805D-03 -0.21455506D-04
 -0.32939917D-06 -0.58863308D-07 -0.21996300D-08  0.38213825D-04  0.71377939D-04
  0.12387987D-03  0.20100669D-03  0.31113449D-03  0.44536075D-03  0.58133490D-03
  0.61950934D-03  0.46309581D-03  0.24446005D-04 -0.31411903D-03 -0.18662279D-03
  0.69969556D-06 -0.19875575D-04 -0.37094897D-04 -0.64467667D-04 -0.10448312D-03
 -0.16227865D-03 -0.23246885D-03 -0.30695345D-03 -0.33190773D-03 -0.26021996D-03
 -0.12948459D-04  0.22307430D-03  0.23092326D-03 -0.10449604D-03  0.15471723D-03
 -0.11759264D-03 -0.30779161D-04 -0.84416680D-15 -0.11119571D-14 -0.12267492D-14
 -0.10189562D-14 -0.54119241D-15 -0.13958931D-15  0.14349306D-18  0.12361799D-15
  0.16283264D-15  0.17964255D-15  0.14921379D-15  0.79251066D-16  0.20441162D-16
 -0.21012819D-19 -0.25990398D-02 -0.34235187D-02 -0.37769431D-02 -0.31371854D-02
 -0.16662354D-02 -0.42977071D-03  0.44178968D-06  0.12636311D-14  0.16590550D-14
  0.18889561D-14  0.15994905D-14  0.91624972D-15  0.20841502D-15 -0.97549701D-16
 -0.13470826D-15 -0.17686207D-15 -0.20137048D-15 -0.17051225D-15 -0.97675982D-16
 -0.22217897D-16  0.10399199D-16  0.26199183D-02  0.34397606D-02  0.39164205D-02
  0.33162640D-02  0.18996837D-02  0.43211214D-03 -0.20225226D-03  0.11688631D-17
 -0.28078935D-16  0.76395417D-04  0.56890549D-19 -0.26861443D-17 -0.26074410D-04
  0.33695682D-19 -0.23935499D-19 -0.17887670D-05  0.10129199D-03  0.10129199D-03
 -0.20258398D-03 -0.33679176D-19 -0.50401268D-18 -0.22158942D-17  0.31504679D-04
  0.31504679D-04 -0.63009358D-04 -0.59942063D-21 -0.66399183D-18  0.11096560D-17
 -0.48034511D-05 -0.48034511D-05  0.96069023D-05 -0.20416284D-20  0.78844760D-20
 -0.70636733D-18  0.18100654D-18 -0.16968656D-19 -0.14603693D-03  0.17216858D-18
 -0.26211129D-19  0.21905540D-03 -0.71518822D-18  0.77117097D-19  0.21905540D-03
  0.53236487D-20  0.65073067D-21  0.31119610D-19  0.11472315D-04  0.35828919D-20
  0.35396697D-19 -0.17208473D-04 -0.55350839D-20 -0.12875553D-18 -0.17208473D-04
 -0.11249609D-19  0.10352839D-03  0.19300045D-03  0.32620477D-03  0.49039262D-03
  0.60250399D-03  0.50891094D-03  0.19194248D-03 -0.94993405D-06 -0.57958436D-04
 -0.10851648D-03 -0.18475859D-03 -0.28579345D-03 -0.37637991D-03 -0.39108284D-03
 -0.24851559D-03  0.16654937D-03  0.38334300D-03 -0.83826322D-03 -0.27651351D-04
  0.34714805D-18  0.32547337D-18  0.23175643D-18  0.13138134D-17  0.12317836D-17
  0.87710330D-18  0.12499072D-02  0.11718674D-02  0.83443943D-03  0.21224570D-18
  0.17242317D-18 -0.39209284D-03  0.43001839D-18  0.92017904D-18 -0.41048197D-03
  0.34006200D-19 -0.53720097D-19 -0.29701074D-05  0.23187020D-03  0.23187020D-03
 -0.46374040D-03 -0.17190911D-18  0.12648882D-17  0.38659415D-17  0.14787390D-04
  0.14787390D-04 -0.29574780D-04 -0.13780287D-19  0.23931776D-18  0.80571344D-18
  0.10038430D-04  0.10038430D-04 -0.20076860D-04  0.85099687D-21  0.15701883D-18
 -0.66919567D-18  0.39403666D-18 -0.30081545D-18 -0.59037084D-03  0.42754194D-18
 -0.27756261D-18  0.88555626D-03 -0.16096519D-17  0.11800090D-17  0.88555626D-03
 -0.79648273D-19 -0.13627418D-18  0.96245926D-19  0.14578063D-04 -0.13684465D-18
  0.10026636D-18 -0.21867095D-04  0.54566717D-18 -0.38900413D-18 -0.21867095D-04
 -0.14996166D-19  0.41141273D+00  0.76660704D+00  0.12965247D+01  0.19524943D+01
  0.24173146D+01  0.20570257D+01  0.78273621D+00 -0.36658876D-02  0.15212955D-03
  0.28524433D-03  0.48528547D-03  0.75359710D-03  0.10000672D-02  0.10539335D-02
  0.65350603D-03 -0.43471246D-03  0.36383187D-01  0.18741544D-02  0.79795696D-04
  0.26385112D-17  0.25342584D-17  0.17771969D-17  0.16423038D-16  0.15774132D-16
  0.11061910D-16 -0.79943060D-02 -0.76784354D-02 -0.53846489D-02  0.14574508D-17
  0.14484046D-19  0.34275619D-03 -0.11409067D-17  0.99516800D-18 -0.31054658D-03
 -0.18883615D-19  0.11856819D-18 -0.91364047D-06 -0.13780217D-02 -0.13780217D-02
  0.27560434D-02  0.23928479D-17 -0.20569625D-17 -0.27827753D-17  0.46308843D-04
  0.46308843D-04 -0.92617685D-04  0.26691144D-18  0.37503953D-19  0.67108461D-18
  0.33456300D-05  0.33456300D-05 -0.66912600D-05  0.29786127D-20  0.10925428D-19
  0.21002007D-18  0.88850792D-19 -0.25297269D-19 -0.34628944D-03 -0.13336509D-18
 -0.41317430D-18  0.51943416D-03 -0.13318729D-18  0.48906611D-18  0.51943416D-03
 -0.15376843D-18 -0.53390337D-19  0.96138773D-19  0.56346842D-04 -0.34809276D-19
  0.90479513D-19 -0.84520262D-04  0.19498029D-18 -0.37889583D-18 -0.84520262D-04
 -0.29744800D-19
MO    3     MO 0.0        OCC NO =    2.0000000  ORB. ENERGY =  -11.348690
  0.78085801D-04  0.14609883D-03  0.25242642D-03  0.40921266D-03  0.62142207D-03
  0.86370361D-03  0.10268190D-02  0.91461138D-03  0.45404047D-03  0.73153195D-04
  0.11230964D-05  0.20069622D-06  0.74997048D-08 -0.17913384D-03 -0.33459629D-03
 -0.58070809D-03 -0.94225324D-03 -0.14584961D-02 -0.20877047D-02 -0.27251067D-02
 -0.29040559D-02 -0.21708408D-02 -0.11459483D-03  0.14724867D-02  0.87482625D-03
 -0.32799426D-05  0.65485163D-04  0.12221862D-03  0.21240521D-03  0.34424636D-03
  0.53466849D-03  0.76592804D-03  0.10113366D-02  0.10935549D-02  0.85736119D-03
  0.42662009D-04 -0.73497531D-03 -0.76083569D-03  0.34428892D-03 -0.89568822D-03
  0.24499209D-02  0.47480298D-03 -0.19548168D-15 -0.25749324D-15 -0.28407537D-15
 -0.23595725D-15 -0.12532263D-15 -0.32324361D-16  0.33228344D-19 -0.25254705D-14
 -0.33266115D-14 -0.36700318D-14 -0.30483832D-14 -0.16190704D-14 -0.41760548D-15
  0.42928424D-18  0.36530261D-01  0.48118552D-01  0.53086035D-01  0.44094054D-01
  0.23419423D-01  0.60405524D-02 -0.62094825D-05 -0.17204512D-14 -0.22588263D-14
 -0.25718399D-14 -0.21777284D-14 -0.12474867D-14 -0.28375994D-15  0.13281527D-15
  0.79748831D-15  0.10470437D-14  0.11921363D-14  0.10094520D-14  0.57825299D-15
  0.13153249D-15 -0.61564445D-16 -0.33857945D-01 -0.44452999D-01 -0.50613010D-01
 -0.42857018D-01 -0.24550150D-01 -0.55843074D-02  0.26137632D-02  0.18148924D-16
 -0.41432877D-16 -0.14445663D-02  0.32776382D-17 -0.16466032D-17  0.91762543D-03
 -0.16121123D-18  0.54304280D-19  0.13150037D-04 -0.26990239D-03 -0.26990239D-03
  0.53980478D-03  0.14520260D-18  0.37488573D-17  0.77837558D-18 -0.45441147D-03
 -0.45441147D-03  0.90882294D-03  0.26984796D-19 -0.27687769D-17  0.30924089D-19
 -0.43729624D-04 -0.43729624D-04  0.87459249D-04  0.22904315D-20  0.41873306D-18
 -0.27064422D-18  0.35988385D-19 -0.46329641D-19  0.35106826D-03 -0.24206297D-19
 -0.62968893D-19 -0.52660239D-03 -0.83758860D-19  0.20195782D-18 -0.52660239D-03
  0.30792328D-19  0.73936626D-19  0.56991809D-19  0.94505605D-04  0.90420567D-19
  0.76499434D-19 -0.14175841D-03 -0.31223045D-18 -0.24747486D-18 -0.14175841D-03
  0.46260330D-20  0.32697385D+00  0.60955360D+00  0.10302530D+01  0.15488077D+01
  0.19028892D+01  0.16072941D+01  0.60621221D+00 -0.30001780D-02 -0.18805025D-03
 -0.35208941D-03 -0.59946234D-03 -0.92727710D-03 -0.12211913D-02 -0.12688960D-02
 -0.80632644D-03  0.54038123D-03  0.28444159D-01 -0.27725559D-03  0.45029200D-04
  0.54443573D-17  0.51044311D-17  0.36346590D-17 -0.11270636D-16 -0.10566938D-16
 -0.75242894D-17 -0.59504919D-02 -0.55789644D-02 -0.39725550D-02  0.60749106D-18
  0.31968680D-17  0.50089308D-02 -0.40358628D-18  0.93684680D-18  0.12244883D-02
  0.13523045D-18 -0.16511552D-19  0.28451777D-04 -0.13744167D-02 -0.13744167D-02
  0.27488334D-02 -0.33822574D-17 -0.11600029D-17  0.29194773D-18  0.26958406D-03
  0.26958406D-03 -0.53916813D-03 -0.26186013D-19 -0.21855644D-17  0.93244053D-18
 -0.21574455D-05 -0.21574455D-05  0.43148911D-05 -0.21653010D-20  0.72383999D-18
 -0.16531081D-18  0.42164526D-18 -0.19470983D-18  0.10703777D-02  0.51870213D-18
  0.23589991D-18 -0.16055666D-02 -0.17836379D-17  0.34822959D-18 -0.16055666D-02
 -0.60592132D-18 -0.37694892D-18 -0.71574192D-19  0.87795928D-04 -0.38245541D-18
 -0.63387983D-19 -0.13169389D-03  0.15133022D-17  0.27811056D-18 -0.13169389D-03
  0.73589752D-20 -0.62336845D-03 -0.11615553D-02 -0.19644812D-02 -0.29583999D-02
 -0.36626910D-02 -0.31167847D-02 -0.11859941D-02  0.55545163D-05  0.19129626D-03
  0.35868228D-03  0.61022528D-03  0.94761544D-03  0.12575408D-02  0.13252754D-02
  0.82175528D-03 -0.54663193D-03 -0.36308798D-04 -0.22041480D-02 -0.47710335D-03
 -0.16405457D-17 -0.15757245D-17 -0.11050068D-17 -0.54396790D-18 -0.52247467D-18
 -0.36639530D-18 -0.10250705D-02 -0.98456797D-03 -0.69044702D-03  0.23430346D-18
 -0.11511759D-17  0.17913823D-02 -0.12282387D-17 -0.10914390D-17  0.68377271D-03
 -0.55255407D-19  0.21628043D-19  0.30017392D-04  0.18005742D-03  0.18005742D-03
 -0.36011485D-03 -0.27347323D-18 -0.16141872D-17 -0.26787711D-18  0.37848081D-03
  0.37848081D-03 -0.75696163D-03 -0.58278277D-19 -0.11477450D-17  0.18130492D-17
  0.21039045D-04  0.21039045D-04 -0.42078090D-04  0.14701369D-20 -0.47567783D-18
  0.38373285D-18  0.62852980D-18 -0.64004961D-19 -0.39864761D-03  0.67890127D-18
 -0.14789373D-18  0.59797142D-03 -0.25644907D-17  0.33990861D-18  0.59797142D-03
  0.30894566D-18 -0.38117745D-18  0.16204024D-18  0.11381465D-03 -0.37081017D-18
  0.13891606D-18 -0.17072198D-03  0.15143425D-17 -0.62503677D-18 -0.17072198D-03
  0.44257142D-20
MO    4     MO 0.0        OCC NO =    2.0000000  ORB. ENERGY =  -10.658381
 -0.13511063D-03 -0.25279250D-03 -0.43676944D-03 -0.70805420D-03 -0.10752368D-02
 -0.14944527D-02 -0.17766887D-02 -0.15825376D-02 -0.78561905D-03 -0.12657582D-03
 -0.19432759D-05 -0.34726150D-06 -0.12976621D-07 -0.17277534D+00 -0.32271953D+00
 -0.56009539D+00 -0.90880720D+00 -0.14067256D+01 -0.20135999D+01 -0.26283769D+01
 -0.28009741D+01 -0.20937850D+01 -0.11052719D+00  0.14202195D+01  0.84377358D+00
 -0.31635183D-02 -0.89980008D-04 -0.16793472D-03 -0.29185576D-03 -0.47301233D-03
 -0.73466221D-03 -0.10524248D-02 -0.13896289D-02 -0.15026010D-02 -0.11780587D-02
 -0.58619811D-04  0.10098942D-02  0.10454277D-02 -0.47307081D-03  0.55922545D-01
  0.78148965D-03 -0.14700233D-04 -0.66105249D-16 -0.87075448D-16 -0.96064618D-16
 -0.79792708D-16 -0.42379845D-16 -0.10930998D-16  0.11236695D-19  0.62108449D-16
  0.81810766D-16  0.90256441D-16  0.74968349D-16  0.39817511D-16  0.10270098D-16
 -0.10557311D-19  0.49708069D-01  0.65476683D-01  0.72236120D-01  0.60000401D-01
  0.31867670D-01  0.82196018D-02 -0.84494712D-05  0.12217222D-16  0.16040317D-16
  0.18263081D-16  0.15464427D-16  0.88586192D-17  0.20150285D-17 -0.94314425D-18
 -0.92601415D-17 -0.12157887D-16 -0.13842649D-16 -0.11721386D-16 -0.67144614D-17
 -0.15273070D-17  0.71486374D-18  0.77613453D-02  0.10190077D-01  0.11602153D-01
  0.98242264D-02  0.56276951D-02  0.12801054D-02 -0.59915978D-03 -0.60804118D-17
  0.15681196D-17  0.25995297D-02 -0.29620183D-18 -0.15739785D-18  0.12157659D-03
  0.15982320D-19  0.10624147D-19  0.25995268D-05 -0.76860859D-03 -0.76860859D-03
  0.15372172D-02  0.36869946D-17 -0.55343533D-17 -0.62145950D-18  0.15910878D-03
  0.15910878D-03 -0.31821757D-03  0.16426117D-18  0.62160625D-18 -0.74257436D-18
 -0.10859888D-04 -0.10859888D-04  0.21719777D-04  0.75069893D-20 -0.48261820D-19
 -0.17231324D-19  0.25274134D-18  0.41728573D-18  0.65833884D-04 -0.51545804D-18
  0.46210467D-18 -0.98750826D-04 -0.24276597D-18 -0.17139618D-17 -0.98750826D-04
  0.57708507D-18  0.21270812D-20  0.16968615D-19 -0.35532813D-04  0.11137252D-19
  0.15553376D-19  0.53299219D-04 -0.17518496D-19 -0.66459219D-19  0.53299219D-04
 -0.56428119D-19 -0.40235023D-04 -0.75007231D-04 -0.12677543D-03 -0.19058500D-03
 -0.23415570D-03 -0.19778192D-03 -0.74596063D-04  0.36918008D-06 -0.86478302D-04
 -0.16191467D-03 -0.27567357D-03 -0.42642510D-03 -0.56158686D-03 -0.58352472D-03
 -0.37080376D-03  0.24850406D-03 -0.11233574D-03 -0.12777714D-03  0.49729083D-04
 -0.37665526D-19 -0.35313825D-19 -0.25145547D-19 -0.24621507D-18 -0.23084228D-18
 -0.16437346D-18 -0.36535972D-03 -0.34254797D-03 -0.24391456D-03  0.96926981D-19
  0.11681765D-18 -0.47882199D-03 -0.42102168D-19 -0.11211668D-19  0.29882828D-03
 -0.12441921D-19 -0.12553543D-19 -0.39009395D-05 -0.17507212D-03 -0.17507212D-03
  0.35014424D-03  0.95596312D-19  0.23418227D-18  0.35183312D-18 -0.82582748D-04
 -0.82582748D-04  0.16516550D-03  0.11553663D-19  0.26944381D-18 -0.45778932D-18
 -0.28991847D-05 -0.28991847D-05  0.57983695D-05 -0.47563288D-20 -0.74587896D-19
 -0.51844501D-19 -0.21294222D-18 -0.17589834D-18  0.10611960D-03 -0.18034500D-18
 -0.15335045D-18 -0.15917939D-03  0.81917164D-18  0.68104547D-18 -0.15917939D-03
  0.54885129D-19  0.57171983D-19 -0.14184453D-19  0.16662417D-04  0.48396302D-19
 -0.13766647D-19 -0.24993625D-04 -0.21991225D-18  0.56320005D-19 -0.24993625D-04
 -0.21397770D-19 -0.10560490D-03 -0.19677917D-03 -0.33280291D-03 -0.50118275D-03
 -0.62049675D-03 -0.52801473D-03 -0.20091935D-03  0.94099102D-06  0.79731063D-04
  0.14949649D-03  0.25433801D-03  0.39496007D-03  0.52413499D-03  0.55236633D-03
  0.34250236D-03 -0.22783270D-03 -0.84838682D-04 -0.23843886D-03 -0.49727910D-04
  0.12386442D-18  0.11897029D-18  0.83430180D-19  0.27323149D-19  0.26243558D-19
  0.18403794D-19  0.15831409D-03  0.15205879D-03  0.10663412D-03  0.67466544D-20
 -0.12735080D-18  0.13064391D-03  0.16558174D-18  0.19367121D-18 -0.11676025D-03
  0.21473634D-19  0.20078445D-19  0.40402303D-05  0.13282245D-03  0.13282245D-03
 -0.26564489D-03 -0.38364297D-19  0.10462006D-18  0.56048919D-18 -0.27445735D-04
 -0.27445735D-04  0.54891470D-04  0.13678204D-20  0.22288748D-18 -0.86254408D-19
 -0.15341093D-04 -0.15341093D-04  0.30682186D-04  0.45232883D-20  0.16315691D-19
 -0.51284746D-19  0.66256778D-19  0.11155203D-18  0.64501350D-04  0.77044009D-19
  0.79101854D-19 -0.96752025D-04 -0.27581434D-18 -0.41375794D-18 -0.96752025D-04
  0.66981289D-19  0.32435907D-19 -0.13793761D-19 -0.94999735D-05  0.32698559D-19
 -0.10830184D-19  0.14249960D-04 -0.13000628D-18  0.52211466D-19  0.14249960D-04
 -0.75569450D-20
MO    5     MO 0.0        OCC NO =    2.0000000  ORB. ENERGY =   -8.125635
 -0.89435939D-04 -0.16733498D-03 -0.28911778D-03 -0.46869365D-03 -0.71174869D-03
 -0.98924698D-03 -0.11760720D-02 -0.10475544D-02 -0.52003739D-03 -0.83786355D-04
 -0.12863437D-05 -0.22986836D-06 -0.85898221D-08  0.98494381D-03  0.18397336D-02
  0.31929469D-02  0.51808553D-02  0.80193486D-02  0.11478969D-01  0.14983640D-01
  0.15967569D-01  0.11936082D-01  0.63008456D-03 -0.80962738D-02 -0.48101168D-02
  0.18034332D-04  0.13128231D-03  0.24501952D-03  0.42582236D-03  0.69013278D-03
  0.10718843D-02  0.15355051D-02  0.20274915D-02  0.21923197D-02  0.17188071D-02
  0.85527270D-04 -0.14734522D-02 -0.15252962D-02  0.69021810D-03  0.13544199D-02
 -0.25078177D-02  0.87805633D-04  0.12410010D-11  0.16346768D-11  0.18034314D-11
  0.14979571D-11  0.79560140D-12  0.20520881D-12 -0.21094768D-15 -0.15772625D-12
 -0.20776087D-12 -0.22920891D-12 -0.19038435D-12 -0.10111775D-12 -0.26081218D-13
  0.26810606D-16  0.11484738D+02  0.15127978D+02  0.16689703D+02  0.13862717D+02
  0.73628258D+01  0.18990876D+01 -0.19521974D-02  0.15603974D-14  0.20486874D-14
  0.23325814D-14  0.19751341D-14  0.11314329D-14  0.25736172D-15 -0.12045945D-15
 -0.17716706D-15 -0.23260736D-15 -0.26484059D-15 -0.22425614D-15 -0.12846255D-15
 -0.29220773D-16  0.13676930D-16  0.40679082D-01  0.53408652D-01  0.60809680D-01
  0.51491140D-01  0.29496107D-01  0.67093411D-02 -0.31403409D-02  0.90753290D-14
 -0.11471427D-14  0.91004995D-01  0.33268168D-16 -0.41288493D-17 -0.21601766D-03
 -0.15956076D-17  0.18918540D-18  0.15098385D-05 -0.11913585D-02 -0.11913585D-02
  0.23827170D-02 -0.37386976D-18  0.30805126D-15 -0.43306597D-16  0.51886564D-03
  0.51886564D-03 -0.10377313D-02 -0.12223225D-19 -0.88844852D-16  0.11396452D-16
  0.81875209D-05  0.81875209D-05 -0.16375042D-04  0.24526172D-19  0.59505461D-17
 -0.77285931D-18 -0.99461255D-17  0.11590625D-17  0.17858590D-03 -0.99460204D-17
  0.11634048D-17 -0.26787885D-03  0.39784397D-16 -0.46405924D-17 -0.26787885D-03
 -0.33859009D-17  0.50387752D-17 -0.62889593D-18 -0.16277441D-03  0.50460365D-17
 -0.62552451D-18  0.24416161D-03 -0.20162362D-16  0.25122123D-17  0.24416161D-03
  0.41953724D-18 -0.17268291D-05 -0.32192021D-05 -0.54410186D-05 -0.81796332D-05
 -0.10049624D-04 -0.84885144D-05 -0.32015553D-05  0.15844676D-07 -0.57961772D-04
 -0.10852272D-03 -0.18476922D-03 -0.28580989D-03 -0.37640158D-03 -0.39110535D-03
 -0.24852989D-03  0.16655895D-03 -0.72564309D-03  0.16509642D-02  0.91026762D-04
 -0.24952835D-16 -0.23394869D-16 -0.16658540D-16  0.30449372D-17  0.28548222D-17
  0.20328034D-17 -0.39926840D-03 -0.37433950D-03 -0.26655203D-03 -0.12482946D-17
 -0.68708543D-19 -0.23889444D-02 -0.33785792D-17  0.45365344D-18  0.17177455D-04
  0.88651148D-18 -0.10447504D-18  0.24559534D-04  0.10738226D-05  0.10738226D-05
 -0.21476452D-05  0.97681183D-19 -0.92572232D-17  0.13411730D-17 -0.46859789D-03
 -0.46859789D-03  0.93719577D-03 -0.50843605D-19 -0.76913502D-16  0.96800625D-17
 -0.56631608D-04 -0.56631608D-04  0.11326322D-03 -0.14182647D-19  0.64923708D-17
 -0.80299570D-18  0.10267316D-16 -0.12524257D-17  0.10178356D-03  0.10272915D-16
 -0.12212786D-17 -0.15267534D-03 -0.41074862D-16  0.49785557D-17 -0.15267534D-03
 -0.33166155D-18 -0.60956162D-17  0.76119361D-18  0.40188891D-04 -0.60988452D-17
  0.76156947D-18 -0.60283337D-04  0.24385694D-16 -0.30451503D-17 -0.60283337D-04
  0.89877494D-19 -0.30407138D-03 -0.56659225D-03 -0.95824954D-03 -0.14430707D-02
 -0.17866151D-02 -0.15203289D-02 -0.57851318D-03  0.27094240D-05  0.22490623D-03
  0.42170128D-03  0.71743934D-03  0.11141075D-02  0.14784855D-02  0.15581208D-02
  0.96613429D-03 -0.64267290D-03 -0.39748271D-03 -0.76391074D-03 -0.47934865D-04
 -0.92369036D-17 -0.88719355D-17 -0.62216136D-17  0.10177548D-17  0.97754131D-18
  0.68551944D-18  0.46668115D-03  0.44824167D-03  0.31433800D-03  0.74426054D-17
 -0.97975444D-18  0.17144687D-04  0.21796648D-17 -0.28330046D-18 -0.46531848D-03
 -0.17209957D-17  0.20489534D-18 -0.41558714D-04  0.23541149D-03  0.23541149D-03
 -0.47082298D-03  0.14006105D-18  0.36553407D-16 -0.45659540D-17 -0.22504061D-03
 -0.22504061D-03  0.45008121D-03 -0.73564935D-19 -0.47001401D-16  0.58542730D-17