 Molden2AIM, Version 4.0.0 (06/02/2016)           Time: Wed Jun 27 23:08:43 2018
GAUSSIAN             16 MOL ORBITALS    281 PRIMITIVES        3 NUCLEI
  Cl   1    (CENTRE  1)   0.00000000  0.00000000 -0.50270305  CHARGE = 17.0
  N    2    (CENTRE  2)   0.00000000  0.00000000  2.49085934  CHARGE =  7.0
  O    3    (CENTRE  3)   0.00000000  0.00000000  4.81485965  CHARGE =  8.0
CENTRE ASSIGNMENTS    1  1  1  1  1  1  1  1  1  1  1  1  1  1  1  1  1  1  1  1
CENTRE ASSIGNMENTS    1  1  1  1  1  1  1  1  1  1  1  1  1  1  1  1  1  1  1  1
CENTRE ASSIGNMENTS    1  1  1  1  1  1  1  1  1  1  1  1  1  1  1  1  1  1  1  1
CENTRE ASSIGNMENTS    1  1  1  1  1  1  1  1  1  1  1  1  1  1  1  1  1  1  1  1
CENTRE ASSIGNMENTS    1  1  1  1  1  1  1  1  1  1  1  1  1  1  1  1  1  1  1  1
CENTRE ASSIGNMENTS    1  1  1  1  1  1  1  1  1  1  1  1  1  1  1  1  1  1  1  1
CENTRE ASSIGNMENTS    1  1  1  1  1  1  1  1  1  1  1  2  2  2  2  2  2  2  2  2
CENTRE ASSIGNMENTS    2  2  2  2  2  2  2  2  2  2  2  2  2  2  2  2  2  2  2  2
CENTRE ASSIGNMENTS    2  2  2  2  2  2  2  2  2  2  2  2  2  2  2  2  2  2  2  2
CENTRE ASSIGNMENTS    2  2  2  2  2  2  2  2  2  2  2  2  2  2  2  2  2  2  2  2
CENTRE ASSIGNMENTS    2  2  2  2  2  2  3  3  3  3  3  3  3  3  3  3  3  3  3  3
CENTRE ASSIGNMENTS    3  3  3  3  3  3  3  3  3  3  3  3  3  3  3  3  3  3  3  3
CENTRE ASSIGNMENTS    3  3  3  3  3  3  3  3  3  3  3  3  3  3  3  3  3  3  3  3
CENTRE ASSIGNMENTS    3  3  3  3  3  3  3  3  3  3  3  3  3  3  3  3  3  3  3  3
CENTRE ASSIGNMENTS    3
TYPE ASSIGNMENTS      1  1  1  1  1  1  1  1  1  1  1  1  1  1  1  1  1  1  1  1
TYPE ASSIGNMENTS      1  1  1  1  1  1  1  1  1  1  1  1  1  1  1  1  1  1  1  1
TYPE ASSIGNMENTS      1  1  2  2  2  2  2  2  2  3  3  3  3  3  3  3  4  4  4  4
TYPE ASSIGNMENTS      4  4  4  2  2  2  2  2  2  2  3  3  3  3  3  3  3  4  4  4
TYPE ASSIGNMENTS      4  4  4  4  2  3  4  2  3  4  2  3  4  5  6  7  8  9 10  5
TYPE ASSIGNMENTS      6  7  8  9 10  5  6  7  8  9 10 11 12 13 17 14 15 18 19 16
TYPE ASSIGNMENTS     20 11 12 13 17 14 15 18 19 16 20  1  1  1  1  1  1  1  1  1
TYPE ASSIGNMENTS      1  1  1  1  1  1  1  1  1  1  2  2  2  3  3  3  4  4  4  2
TYPE ASSIGNMENTS      3  4  2  3  4  2  3  4  5  6  7  8  9 10  5  6  7  8  9 10
TYPE ASSIGNMENTS      5  6  7  8  9 10 11 12 13 17 14 15 18 19 16 20 11 12 13 17
TYPE ASSIGNMENTS     14 15 18 19 16 20  1  1  1  1  1  1  1  1  1  1  1  1  1  1
TYPE ASSIGNMENTS      1  1  1  1  1  2  2  2  3  3  3  4  4  4  2  3  4  2  3  4
TYPE ASSIGNMENTS      2  3  4  5  6  7  8  9 10  5  6  7  8  9 10  5  6  7  8  9
TYPE ASSIGNMENTS     10 11 12 13 17 14 15 18 19 16 20 11 12 13 17 14 15 18 19 16
TYPE ASSIGNMENTS     20
EXPONENTS  0.4561000D+06 0.6833000D+05 0.1555000D+05 0.4405000D+04 0.1439000D+04
EXPONENTS  0.5204000D+03 0.2031000D+03 0.8396000D+02 0.3620000D+02 0.1583000D+02
EXPONENTS  0.6334000D+01 0.2694000D+01 0.4313000D+00 0.4561000D+06 0.6833000D+05
EXPONENTS  0.1555000D+05 0.4405000D+04 0.1439000D+04 0.5204000D+03 0.2031000D+03
EXPONENTS  0.8396000D+02 0.3620000D+02 0.1583000D+02 0.6334000D+01 0.2694000D+01
EXPONENTS  0.4313000D+00 0.4561000D+06 0.6833000D+05 0.1555000D+05 0.4405000D+04
EXPONENTS  0.1439000D+04 0.5204000D+03 0.2031000D+03 0.8396000D+02 0.3620000D+02
EXPONENTS  0.1583000D+02 0.6334000D+01 0.2694000D+01 0.4313000D+00 0.9768000D+00
EXPONENTS  0.1625000D+00 0.5910000D-01 0.6633000D+03 0.1568000D+03 0.4998000D+02
EXPONENTS  0.1842000D+02 0.7240000D+01 0.2922000D+01 0.3818000D+00 0.6633000D+03
EXPONENTS  0.1568000D+03 0.4998000D+02 0.1842000D+02 0.7240000D+01 0.2922000D+01
EXPONENTS  0.3818000D+00 0.6633000D+03 0.1568000D+03 0.4998000D+02 0.1842000D+02
EXPONENTS  0.7240000D+01 0.2922000D+01 0.3818000D+00 0.6633000D+03 0.1568000D+03
EXPONENTS  0.4998000D+02 0.1842000D+02 0.7240000D+01 0.2922000D+01 0.3818000D+00
EXPONENTS  0.6633000D+03 0.1568000D+03 0.4998000D+02 0.1842000D+02 0.7240000D+01
EXPONENTS  0.2922000D+01 0.3818000D+00 0.6633000D+03 0.1568000D+03 0.4998000D+02
EXPONENTS  0.1842000D+02 0.7240000D+01 0.2922000D+01 0.3818000D+00 0.1022000D+01
EXPONENTS  0.1022000D+01 0.1022000D+01 0.1301000D+00 0.1301000D+00 0.1301000D+00
EXPONENTS  0.4190000D-01 0.4190000D-01 0.4190000D-01 0.1046000D+01 0.1046000D+01
EXPONENTS  0.1046000D+01 0.1046000D+01 0.1046000D+01 0.1046000D+01 0.3440000D+00
EXPONENTS  0.3440000D+00 0.3440000D+00 0.3440000D+00 0.3440000D+00 0.3440000D+00
EXPONENTS  0.1350000D+00 0.1350000D+00 0.1350000D+00 0.1350000D+00 0.1350000D+00
EXPONENTS  0.1350000D+00 0.7060000D+00 0.7060000D+00 0.7060000D+00 0.7060000D+00
EXPONENTS  0.7060000D+00 0.7060000D+00 0.7060000D+00 0.7060000D+00 0.7060000D+00
EXPONENTS  0.7060000D+00 0.3120000D+00 0.3120000D+00 0.3120000D+00 0.3120000D+00
EXPONENTS  0.3120000D+00 0.3120000D+00 0.3120000D+00 0.3120000D+00 0.3120000D+00
EXPONENTS  0.3120000D+00 0.1142000D+05 0.1712000D+04 0.3893000D+03 0.1100000D+03
EXPONENTS  0.3557000D+02 0.1254000D+02 0.4644000D+01 0.5118000D+00 0.1142000D+05
EXPONENTS  0.1712000D+04 0.3893000D+03 0.1100000D+03 0.3557000D+02 0.1254000D+02
EXPONENTS  0.4644000D+01 0.5118000D+00 0.1293000D+01 0.1787000D+00 0.5760000D-01
EXPONENTS  0.2663000D+02 0.5948000D+01 0.1742000D+01 0.2663000D+02 0.5948000D+01
EXPONENTS  0.1742000D+01 0.2663000D+02 0.5948000D+01 0.1742000D+01 0.5550000D+00
EXPONENTS  0.5550000D+00 0.5550000D+00 0.1725000D+00 0.1725000D+00 0.1725000D+00
EXPONENTS  0.4910000D-01 0.4910000D-01 0.4910000D-01 0.1654000D+01 0.1654000D+01
EXPONENTS  0.1654000D+01 0.1654000D+01 0.1654000D+01 0.1654000D+01 0.4690000D+00
EXPONENTS  0.4690000D+00 0.4690000D+00 0.4690000D+00 0.4690000D+00 0.4690000D+00
EXPONENTS  0.1510000D+00 0.1510000D+00 0.1510000D+00 0.1510000D+00 0.1510000D+00
EXPONENTS  0.1510000D+00 0.1093000D+01 0.1093000D+01 0.1093000D+01 0.1093000D+01
EXPONENTS  0.1093000D+01 0.1093000D+01 0.1093000D+01 0.1093000D+01 0.1093000D+01
EXPONENTS  0.1093000D+01 0.3640000D+00 0.3640000D+00 0.3640000D+00 0.3640000D+00
EXPONENTS  0.3640000D+00 0.3640000D+00 0.3640000D+00 0.3640000D+00 0.3640000D+00
EXPONENTS  0.3640000D+00 0.1533000D+05 0.2299000D+04 0.5224000D+03 0.1473000D+03
EXPONENTS  0.4755000D+02 0.1676000D+02 0.6207000D+01 0.6882000D+00 0.1533000D+05
EXPONENTS  0.2299000D+04 0.5224000D+03 0.1473000D+03 0.4755000D+02 0.1676000D+02
EXPONENTS  0.6207000D+01 0.6882000D+00 0.1752000D+01 0.2384000D+00 0.7376000D-01
EXPONENTS  0.3446000D+02 0.7749000D+01 0.2280000D+01 0.3446000D+02 0.7749000D+01
EXPONENTS  0.2280000D+01 0.3446000D+02 0.7749000D+01 0.2280000D+01 0.7156000D+00
EXPONENTS  0.7156000D+00 0.7156000D+00 0.2140000D+00 0.2140000D+00 0.2140000D+00
EXPONENTS  0.5974000D-01 0.5974000D-01 0.5974000D-01 0.2314000D+01 0.2314000D+01
EXPONENTS  0.2314000D+01 0.2314000D+01 0.2314000D+01 0.2314000D+01 0.6450000D+00
EXPONENTS  0.6450000D+00 0.6450000D+00 0.6450000D+00 0.6450000D+00 0.6450000D+00
EXPONENTS  0.2140000D+00 0.2140000D+00 0.2140000D+00 0.2140000D+00 0.2140000D+00
EXPONENTS  0.2140000D+00 0.1428000D+01 0.1428000D+01 0.1428000D+01 0.1428000D+01
EXPONENTS  0.1428000D+01 0.1428000D+01 0.1428000D+01 0.1428000D+01 0.1428000D+01
EXPONENTS  0.1428000D+01 0.5000000D+00 0.5000000D+00 0.5000000D+00 0.5000000D+00
EXPONENTS  0.5000000D+00 0.5000000D+00 0.5000000D+00 0.5000000D+00 0.5000000D+00
EXPONENTS  0.5000000D+00
MO    1     MO 0.0        OCC NO =    2.0000000  ORB. ENERGY = -104.965612
  0.61663483D+00  0.11537261D+01  0.19933832D+01  0.32315066D+01  0.49073006D+01
  0.68205708D+01  0.81086747D+01  0.72225837D+01  0.35855068D+01  0.57768260D+00
  0.88689666D-02  0.15848756D-02  0.59224329D-04 -0.41024642D-05 -0.76628140D-05
 -0.13299185D-04 -0.21579173D-04 -0.33401997D-04 -0.47811924D-04 -0.62409496D-04
 -0.66507732D-04 -0.49715880D-04 -0.26244130D-05  0.33722404D-04  0.20034982D-04
 -0.75116163D-07  0.28447788D-05  0.53093698D-05  0.92272174D-05  0.14954605D-04
  0.23226843D-04  0.33273123D-04  0.43934058D-04  0.47505749D-04  0.37245123D-04
  0.18533050D-05 -0.31928487D-04 -0.33051903D-04  0.14956454D-04 -0.28945371D-03
  0.45601761D-04  0.16123573D-04  0.10258983D-16  0.13513383D-16  0.14908427D-16
  0.12383162D-16  0.65769984D-17  0.16963997D-17 -0.17438413D-20 -0.25208020D-17
 -0.33204619D-17 -0.36632474D-17 -0.30427480D-17 -0.16160774D-17 -0.41683350D-18
  0.42849067D-21  0.23173358D-02  0.30524513D-02  0.33675689D-02  0.27971530D-02
  0.14856359D-02  0.38318884D-03 -0.39390510D-06 -0.23643663D-17 -0.31042397D-17
 -0.35344052D-17 -0.29927892D-17 -0.17143849D-17 -0.38996308D-18  0.18252418D-18
  0.50553951D-18  0.66373632D-18  0.75571263D-18  0.63990642D-18  0.36656303D-18
  0.83380373D-19 -0.39026603D-19 -0.10936375D-02 -0.14358658D-02 -0.16348389D-02
 -0.13843144D-02 -0.79298861D-03 -0.18037740D-03  0.84426549D-04 -0.62245649D-18
  0.13184015D-18 -0.14741415D-03  0.34192906D-20 -0.17310253D-22  0.16857988D-04
  0.33746277D-21 -0.12865595D-21  0.68165862D-06 -0.60100959D-05 -0.94744917D-05
  0.15484588D-04  0.44891495D-05 -0.25835278D-18 -0.52783299D-19 -0.11115095D-04
 -0.11017959D-04  0.22133054D-04 -0.12586845D-06  0.77889431D-19 -0.10977653D-19
 -0.61258138D-06 -0.63184312D-06  0.12444245D-05  0.24959272D-07  0.54727334D-20
 -0.18831664D-20 -0.67228272D-20  0.47947966D-20  0.96852454D-05  0.34522681D-20
 -0.16207841D-19 -0.15459467D-04  0.16716213D-19  0.18234512D-20 -0.13596270D-04
 -0.24143227D-05 -0.48793333D-20  0.28664606D-21  0.17306882D-05 -0.57461827D-20
  0.24266521D-20 -0.25569431D-05  0.20384183D-19 -0.32865903D-20 -0.26351214D-05
  0.10130315D-06  0.16761724D-05  0.31233005D-05  0.52822841D-05  0.79548272D-05
  0.98485921D-05  0.83807074D-05  0.31890138D-05 -0.14935512D-07 -0.14140115D-05
 -0.26512848D-05 -0.45106243D-05 -0.70045233D-05 -0.92954098D-05 -0.97960859D-05
 -0.60741982D-05  0.40405590D-05  0.19845550D-04 -0.83549530D-04 -0.19596967D-04
  0.30437827D-19  0.29235169D-19  0.20501718D-19 -0.37331952D-20 -0.35856894D-20
 -0.25145329D-20 -0.17996954D-04 -0.17285859D-04 -0.12122038D-04 -0.76179320D-20
  0.44943847D-20  0.30291069D-04 -0.26662150D-19  0.85195560D-20  0.22776355D-04
  0.18028555D-20 -0.29869969D-21  0.18291901D-05 -0.80198956D-05 -0.76211958D-05
  0.15641091D-04 -0.51663350D-06 -0.96212725D-19  0.28082605D-19  0.19837170D-04
  0.19928710D-04 -0.39765880D-04 -0.11861742D-06  0.78540786D-19 -0.16631201D-19
  0.27142231D-05  0.27312301D-05 -0.54454532D-05 -0.22037577D-07  0.18075214D-19
 -0.22302924D-20 -0.18952090D-19 -0.21786695D-20  0.33476899D-05 -0.10080038D-19
  0.77653018D-20 -0.48338728D-05  0.66936308D-19 -0.12292934D-20 -0.52091970D-05
  0.48634351D-06  0.12291126D-19 -0.31359907D-20  0.48204425D-06  0.10559379D-19
 -0.44911173D-20 -0.69364593D-06 -0.47432757D-19  0.13899089D-19 -0.75248682D-06
  0.76245780D-07  0.53692464D-05  0.10007584D-04  0.16969547D-04  0.25684200D-04
  0.32046383D-04  0.27523569D-04  0.10566833D-04 -0.47266094D-07 -0.35967857D-05
 -0.67458608D-05 -0.11500214D-04 -0.17972596D-04 -0.24032785D-04 -0.25661411D-04
 -0.15688884D-04  0.10350573D-04 -0.33675870D-05  0.28514162D-04  0.52238088D-05
 -0.43979112D-19 -0.42644945D-19 -0.28768028D-19  0.97048423D-20  0.94104325D-20
  0.63482222D-20  0.14381200D-04  0.13944927D-04  0.94071651D-05  0.48556501D-19
 -0.15315888D-19 -0.28954725D-04 -0.14800913D-19 -0.75059600D-21 -0.66189818D-05
 -0.23871021D-20  0.34208958D-21 -0.73440345D-06 -0.46561531D-05 -0.48482647D-05
  0.95044178D-05  0.24893736D-06 -0.24871336D-20 -0.24230114D-20 -0.19995492D-05
 -0.19677375D-05  0.39672866D-05 -0.41221456D-07 -0.84120169D-20  0.83446952D-20
 -0.27617463D-06 -0.28903095D-06  0.56520558D-06  0.16659176D-07  0.71537116D-20
 -0.41478889D-21 -0.11868004D-20  0.40306018D-20  0.19231147D-05 -0.71464426D-20
 -0.31495354D-21 -0.28478023D-05  0.10706844D-19 -0.11776852D-19 -0.29215417D-05
  0.95551285D-07  0.41225114D-20 -0.13374058D-20  0.54291090D-06  0.57878901D-20
  0.46739751D-21 -0.81611040D-06 -0.18155424D-19  0.35448199D-20 -0.81262230D-06
 -0.45198739D-08
MO    2     MO 0.0        OCC NO =    2.0000000  ORB. ENERGY =  -20.652904
 -0.14728844D-05 -0.27557723D-05 -0.47613641D-05 -0.77187266D-05 -0.11721502D-04
 -0.16291510D-04 -0.19368255D-04 -0.17251751D-04 -0.85642860D-05 -0.13798437D-05
 -0.21184276D-07 -0.37856093D-08 -0.14146231D-09  0.11570521D-05  0.21612072D-05
  0.37508800D-05  0.60861539D-05  0.94206434D-05  0.13484795D-04  0.17601870D-04
  0.18757730D-04  0.14021784D-04  0.74018505D-06 -0.95110105D-05 -0.56506329D-05
  0.21185637D-07  0.85291161D-07  0.15918366D-06  0.27664720D-06  0.44836372D-06
  0.69637905D-06  0.99758309D-06  0.13172155D-05  0.14243007D-05  0.11166702D-05
  0.55565140D-07 -0.95726870D-06 -0.99095057D-06  0.44841915D-06  0.10522223D-03
 -0.81584230D-03 -0.27110919D-03  0.19688653D-15  0.25934374D-15  0.28611690D-15
  0.23765298D-15  0.12622327D-15  0.32556663D-16 -0.33467143D-19  0.93010711D-15
  0.12251598D-14  0.13516383D-14  0.11226910D-14  0.59628844D-15  0.15380018D-15
 -0.15810136D-18 -0.76774809D-02 -0.10112965D-01 -0.11156970D-01 -0.92671460D-02
 -0.49220064D-02 -0.12695290D-02  0.13050327D-05 -0.61007245D-16 -0.80098041D-16
 -0.91197512D-16 -0.77222308D-16 -0.44235911D-16 -0.10062135D-16  0.47096330D-17
 -0.63181805D-15 -0.82953078D-15 -0.94448182D-15 -0.79974842D-15 -0.45812668D-15
 -0.10420793D-15  0.48775045D-16  0.70236096D-02  0.92214845D-02  0.10499339D-01
  0.88904087D-02  0.50927684D-02  0.11584281D-02 -0.54220811D-03 -0.19406149D-16
 -0.14696557D-17  0.24754948D-03 -0.14045642D-19  0.49616207D-18 -0.35423006D-03
 -0.18722607D-19 -0.29834647D-19 -0.13097900D-04  0.47290602D-04  0.50631611D-04
 -0.97922214D-04 -0.43292649D-05 -0.22086125D-19 -0.44129400D-19  0.62928122D-04
  0.61484183D-04 -0.12441230D-03  0.18710508D-05  0.41215642D-18  0.10581377D-17
  0.19058785D-04  0.18820370D-04 -0.37879155D-04  0.30893711D-06  0.41892804D-19
 -0.70548231D-20  0.22099387D-18 -0.26978367D-18 -0.23067541D-04  0.21859889D-18
 -0.18782908D-18  0.34105156D-04 -0.88158051D-18  0.99718010D-18  0.35097466D-04
 -0.12858312D-05 -0.35210512D-19 -0.21046689D-20 -0.40026204D-06 -0.34110551D-19
 -0.54646811D-20  0.19656253D-05  0.13974209D-18  0.11778688D-19 -0.76483913D-06
  0.35381242D-05  0.33534429D-03  0.62486471D-03  0.10568029D-02  0.15914866D-02
  0.19703636D-02  0.16766905D-02  0.63801167D-03 -0.29880808D-05 -0.23549026D-03
 -0.44154644D-03 -0.75120187D-03 -0.11665372D-02 -0.15480627D-02 -0.16314456D-02
 -0.10116003D-02  0.67291694D-03 -0.37231621D-03  0.92283744D-03  0.32657112D-03
  0.20969109D-17  0.20140579D-17  0.14123964D-17 -0.59582192D-18 -0.57227983D-18
 -0.40132212D-18 -0.65227625D-04 -0.62650354D-04 -0.43934753D-04 -0.31801987D-18
 -0.15467417D-17  0.18205647D-02 -0.43534635D-18 -0.83953777D-18 -0.71717094D-03
  0.12451837D-19  0.61706355D-19 -0.16951054D-04 -0.48865849D-03 -0.54902786D-03
  0.10376864D-02  0.78226378D-04 -0.46184541D-17 -0.37197615D-17 -0.41175900D-03
 -0.43017704D-03  0.84193604D-03  0.23866012D-04 -0.38643163D-18 -0.14787580D-17
 -0.13804111D-04 -0.13188481D-04  0.26992592D-04 -0.79773114D-06  0.11425179D-18
  0.18321847D-18  0.11106369D-18  0.45180376D-19  0.37440275D-03  0.49704654D-19
 -0.32171962D-18 -0.53100013D-03 -0.38289571D-18  0.18617849D-18 -0.59220812D-03
  0.79313055D-04  0.10286721D-18  0.34558492D-18 -0.68921732D-05  0.98426428D-19
  0.38708671D-18  0.15200530D-04 -0.40702804D-18 -0.14238415D-17  0.54759896D-05
  0.12601019D-04  0.49810090D+00  0.92839598D+00  0.15742520D+01  0.23827037D+01
  0.29729185D+01  0.25533405D+01  0.98027707D+00 -0.43848395D-02  0.43643888D-03
  0.81855194D-03  0.13954516D-02  0.21808193D-02  0.29161709D-02  0.31137906D-02
  0.19037105D-02 -0.12559526D-02  0.47185805D-01  0.82523083D-03 -0.13887577D-03
 -0.39746163D-16 -0.38540409D-16 -0.25999132D-16 -0.42543190D-16 -0.41252584D-16
 -0.27828749D-16 -0.12009858D-01 -0.11645523D-01 -0.78560009D-02 -0.20508259D-17
  0.35961501D-18  0.29054308D-02 -0.18526039D-18  0.38344360D-18 -0.63365994D-04
 -0.18381914D-20 -0.59105941D-19  0.13235704D-04 -0.10065698D-02  0.33851850D-03
  0.66805133D-03 -0.17429598D-02  0.55105318D-17  0.45791945D-17  0.49363665D-03
  0.60508296D-03 -0.10987196D-02 -0.14441166D-03  0.18549997D-18 -0.22360935D-17
  0.18805175D-06 -0.17355373D-05  0.15474856D-05  0.24925786D-05 -0.78165342D-19
 -0.10094389D-18  0.51138093D-18  0.18302843D-17  0.42768046D-03  0.42232292D-18
 -0.31142933D-17 -0.73937387D-03 -0.19564657D-17 -0.23765596D-17 -0.54366750D-03
 -0.25359549D-03 -0.48468120D-19 -0.16387906D-18  0.10096925D-03 -0.10763340D-19
 -0.21930537D-18 -0.15210504D-03  0.15616770D-18  0.71094254D-18 -0.15080270D-03
 -0.16875561D-05
MO    3     MO 0.0        OCC NO =    2.0000000  ORB. ENERGY =  -15.700454
  0.43393099D-04  0.81188655D-04  0.14027601D-03  0.22740377D-03  0.34533077D-03
  0.47996916D-03  0.57061409D-03  0.50825914D-03  0.25231506D-03  0.40651998D-04
  0.62411646D-06  0.11152900D-06  0.41676646D-08 -0.71705461D-04 -0.13393551D-03
 -0.23245157D-03 -0.37717442D-03 -0.58382121D-03 -0.83568703D-03 -0.10908326D-02
 -0.11624642D-02 -0.86896556D-03 -0.45871148D-04  0.58942149D-03  0.35018408D-03
 -0.13129278D-05  0.36399253D-04  0.67933962D-04  0.11806325D-03  0.19134579D-03
  0.29718997D-03  0.42573321D-03  0.56214103D-03  0.60784120D-03  0.47655539D-03
  0.23713238D-04 -0.40852845D-03 -0.42290268D-03  0.19136945D-03 -0.40538418D-03
 -0.94412123D-04 -0.85353559D-04 -0.12652963D-14 -0.16666792D-14 -0.18387376D-14
 -0.15272829D-14 -0.81117706D-15 -0.20922623D-15  0.21507745D-18 -0.36985548D-14
 -0.48718268D-14 -0.53747662D-14 -0.44643612D-14 -0.23711307D-14 -0.61158376D-15
  0.62868732D-18  0.73601237D-02  0.96949347D-02  0.10695784D-01  0.88840782D-02
  0.47185497D-02  0.12170516D-02 -0.12510877D-05 -0.78261506D-16 -0.10275162D-15
 -0.11699028D-15 -0.99062563D-16 -0.56746850D-16 -0.12907940D-16  0.60416261D-17
 -0.27475991D-15 -0.36073962D-15 -0.41072860D-15 -0.34778811D-15 -0.19922642D-15
 -0.45317098D-16  0.21210896D-16 -0.73641709D-02 -0.96686165D-02 -0.11008431D-01
 -0.93214874D-02 -0.53397069D-02 -0.12145981D-02  0.56849874D-03  0.27735329D-18
 -0.19492676D-16 -0.38612072D-03 -0.25983245D-19  0.46356221D-18 -0.41072595D-04
 -0.96773379D-20  0.10920335D-19 -0.59611901D-05 -0.13161536D-03 -0.13735297D-03
  0.26896832D-03  0.74347702D-05  0.10211224D-17 -0.18115065D-17 -0.13931378D-03
 -0.14597537D-03  0.28528915D-03  0.86320709D-05  0.46412517D-18 -0.13107343D-17
  0.14902221D-05  0.19224815D-05 -0.34127036D-05 -0.56011990D-06 -0.54108741D-19
  0.22873581D-18 -0.13324306D-18  0.48673794D-18  0.17729944D-03 -0.14040295D-18
  0.38591391D-18 -0.26408331D-03  0.54013211D-18 -0.18461277D-17 -0.26781501D-03
  0.48355150D-05 -0.12706901D-19  0.49463464D-19  0.39620813D-04 -0.24607604D-19
  0.33682454D-19 -0.58295125D-04  0.62728306D-19 -0.18207285D-18 -0.60567315D-04
  0.29442942D-05  0.41127683D+00  0.76635382D+00  0.12960964D+01  0.19518494D+01
  0.24165162D+01  0.20563462D+01  0.78247767D+00 -0.36646768D-02  0.15033847D-03
  0.28188604D-03  0.47957202D-03  0.74472472D-03  0.98829302D-03  0.10415252D-02
  0.64581205D-03 -0.42959443D-03  0.36979461D-01  0.60670045D-03  0.14768955D-03
  0.19483554D-16  0.18713721D-16  0.13123353D-16 -0.51784299D-16 -0.49738200D-16
 -0.34879859D-16 -0.96119973D-03 -0.92322085D-03 -0.64742619D-03 -0.23347300D-17
  0.85720237D-17  0.12235341D-02 -0.33786075D-18  0.16938515D-17 -0.20561373D-03
  0.13015548D-19 -0.13252947D-19 -0.20284388D-07 -0.15579599D-02 -0.25071068D-03
  0.18086706D-02 -0.16939280D-02 -0.16283897D-17 -0.55528678D-17  0.19743651D-03
  0.31181233D-03 -0.50924884D-03 -0.14820771D-03 -0.55965248D-18  0.37299285D-17
 -0.25688399D-04 -0.27646777D-04  0.53335175D-04  0.25376575D-05 -0.21776056D-18
  0.11646945D-17  0.96870418D-18 -0.54832230D-18  0.51891513D-03 -0.10734339D-17
  0.33192997D-18 -0.67020593D-03 -0.18326786D-17  0.13130369D-17 -0.88653945D-03
  0.28032405D-03  0.81760206D-19 -0.59279315D-18 -0.48165426D-04  0.19512457D-18
 -0.53039131D-18  0.72764925D-04 -0.44040518D-18  0.23087708D-17  0.71731354D-04
  0.13392966D-05  0.91680744D-04  0.17088111D-03  0.28975774D-03  0.43856184D-03
  0.54719713D-03  0.46996936D-03  0.18043038D-03 -0.80707614D-06 -0.14344016D-03
 -0.26902557D-03 -0.45862963D-03 -0.71674884D-03 -0.95842976D-03 -0.10233795D-02
 -0.62567418D-03  0.41278182D-03  0.21939331D-03 -0.12094216D-03 -0.10104252D-03
 -0.16649849D-17 -0.16144753D-17 -0.10891155D-17  0.40314784D-17  0.39091779D-17
  0.26371083D-17 -0.13798167D-02 -0.13379580D-02 -0.90257857D-03 -0.19933940D-18
 -0.17216847D-17 -0.23387773D-03  0.84066184D-18 -0.38791841D-17  0.68873178D-04
  0.41006340D-20 -0.56650035D-19  0.60405846D-05 -0.22188089D-03 -0.32486411D-03
  0.54674499D-03  0.13344522D-03  0.23593087D-17 -0.77288768D-17  0.18455995D-03
  0.14012556D-03 -0.32468551D-03  0.57577903D-04 -0.12115125D-17  0.60922898D-17
  0.67186219D-05  0.49108529D-05 -0.11629475D-04  0.23424994D-05 -0.35758882D-18
  0.16913183D-17  0.34141737D-19 -0.61147107D-18  0.64452985D-03  0.10777642D-18
  0.79455058D-18 -0.10111362D-02 -0.21020163D-18  0.10398626D-17 -0.92245329D-03
 -0.11491499D-03 -0.15532438D-18  0.76558853D-18  0.99415677D-04 -0.17705248D-18
  0.50470732D-18 -0.16046508D-03  0.64302564D-18 -0.28014729D-17 -0.13778195D-03
 -0.29392705D-04
MO    4     MO 0.0        OCC NO =    2.0000000  ORB. ENERGY =  -10.681917
  0.33294541D-04  0.62294214D-04  0.10763060D-03  0.17448176D-03  0.26496447D-03
  0.36826945D-03  0.43781925D-03  0.38997571D-03  0.19359562D-03  0.31191356D-04
  0.47887040D-06  0.85573671D-07  0.31977546D-08 -0.17304747D+00 -0.32322782D+00
 -0.56097756D+00 -0.91023860D+00 -0.14089412D+01 -0.20167714D+01 -0.26325166D+01
 -0.28053858D+01 -0.20970828D+01 -0.11070128D+00  0.14224564D+01  0.84510255D+00
 -0.31685010D-02  0.25027150D-04  0.46709569D-04  0.81177120D-04  0.13156423D-03
  0.20433985D-03  0.29272273D-03  0.38651309D-03  0.41793530D-03  0.32766670D-03
  0.16304586D-04 -0.28089320D-03 -0.29077654D-03  0.13158050D-03  0.55447771D-01
  0.15790663D-03 -0.34255153D-03  0.10744116D-14  0.14152412D-14  0.15613426D-14
  0.12968745D-14  0.68880156D-15  0.17766202D-15 -0.18263051D-18  0.50315315D-15
  0.66276562D-15  0.73118574D-15  0.60733381D-15  0.32256974D-15  0.83200145D-16
 -0.85526921D-19  0.73636547D-01  0.96995859D-01  0.10700916D+00  0.88883404D-01
  0.47208135D-01  0.12176355D-01 -0.12516879D-04  0.60447343D-16  0.79362930D-16
  0.90360535D-16  0.76513590D-16  0.43829930D-16  0.99697885D-17 -0.46664097D-17
  0.39105815D-17  0.51343069D-17  0.58457861D-17  0.49499716D-17  0.28355343D-17
  0.64498568D-18 -0.30188879D-18  0.78105562D-02  0.10254688D-01  0.11675716D-01
  0.98865171D-02  0.56633776D-02  0.12882219D-02 -0.60295876D-03  0.25763193D-16
 -0.27717623D-17  0.34611889D-02 -0.12546207D-18  0.24303689D-18 -0.16152739D-03
 -0.10082715D-19 -0.13890615D-19 -0.14332141D-04 -0.97229021D-03 -0.12787076D-02
  0.22509978D-02  0.39705439D-03 -0.51400881D-18 -0.61645377D-17  0.20707778D-03
  0.24076777D-03 -0.44784555D-03 -0.43655351D-04 -0.20607790D-17  0.20574689D-17
  0.16216887D-05 -0.71850078D-06 -0.90318793D-06  0.30324077D-05 -0.17094406D-18
  0.26785125D-19 -0.24363965D-18  0.25250240D-18  0.75203778D-04  0.33311498D-18
  0.46091989D-18 -0.89880052D-04  0.39780398D-18 -0.12184271D-17 -0.13573128D-03
  0.59413829D-04  0.13565161D-18 -0.82001053D-19 -0.55472328D-04  0.14822523D-18
 -0.91306717D-19  0.84320576D-04 -0.55518006D-18  0.33730988D-18  0.82096407D-04
  0.28820695D-05  0.32833541D-04  0.61180468D-04  0.10347151D-03  0.15582236D-03
  0.19291819D-03  0.16416467D-03  0.62467686D-04 -0.29256283D-06 -0.73141311D-04
 -0.13714064D-03 -0.23331704D-03 -0.36231672D-03 -0.48081536D-03 -0.50671339D-03
 -0.31419463D-03  0.20900239D-03 -0.88041749D-04  0.75423465D-03  0.40321731D-03
 -0.24152612D-18 -0.23198295D-18 -0.16268246D-18 -0.19380962D-18 -0.18615182D-18
 -0.13054251D-18 -0.56489425D-03 -0.54257418D-03 -0.38049046D-03  0.25606287D-18
 -0.26341847D-18 -0.71729928D-03  0.81891384D-18 -0.18063093D-18  0.28545477D-03
 -0.41118475D-19  0.35126808D-19 -0.43029713D-04 -0.22084725D-03 -0.22090761D-03
  0.44175486D-03  0.78211374D-07  0.19370969D-17 -0.38366522D-18 -0.13631631D-03
 -0.14098963D-03  0.27730594D-03  0.60556745D-05 -0.17784726D-17  0.13725693D-17
 -0.40331291D-04 -0.39809072D-04  0.80140363D-04 -0.67668816D-06 -0.42178167D-18
  0.37445784D-18  0.29489129D-18 -0.26988527D-19  0.13753713D-03  0.10090618D-18
 -0.14418663D-18 -0.20711485D-03 -0.98558005D-18  0.22515222D-18 -0.20549655D-03
 -0.20969907D-05 -0.31671403D-18  0.55464231D-19  0.12452125D-03 -0.25992860D-18
  0.10953326D-18 -0.19198639D-03  0.12100707D-17 -0.27592595D-18 -0.18157736D-03
 -0.13487979D-04 -0.15873359D-03 -0.29585898D-03 -0.50167880D-03 -0.75931424D-03
 -0.94740247D-03 -0.81369237D-03 -0.31239232D-03  0.13973500D-05  0.11356063D-03
  0.21298577D-03  0.36309405D-03  0.56744532D-03  0.75878251D-03  0.81020282D-03
  0.49534212D-03 -0.32679664D-03 -0.16723363D-04 -0.73366158D-03 -0.12336196D-03
  0.69666964D-18  0.67553520D-18  0.45571206D-18 -0.12012876D-18 -0.11648449D-18
 -0.78579749D-19 -0.96401028D-04 -0.93476570D-04 -0.63058742D-04 -0.12006810D-17
  0.42338470D-18  0.48196766D-03  0.21026716D-18 -0.54048362D-18  0.65276339D-04
  0.56974157D-19 -0.42873216D-19  0.22301469D-04  0.10422803D-03  0.11582360D-03
 -0.22005163D-03 -0.15025487D-04  0.94985302D-19 -0.63274787D-18  0.11293896D-04
  0.71546159D-05 -0.18448512D-04  0.53636621D-05  0.37587544D-18  0.33093138D-18
 -0.13639127D-04 -0.14838672D-04  0.28477798D-04  0.15543654D-05 -0.10534404D-18
  0.19733333D-18  0.12898094D-19 -0.36909387D-19  0.76646866D-04  0.23615375D-18
  0.22456923D-18 -0.10743480D-03 -0.27484803D-18 -0.11384107D-18 -0.12250580D-03
  0.19528940D-04 -0.66032341D-19  0.88218486D-19 -0.77085025D-05 -0.13572083D-18
 -0.19341367D-19  0.76612081D-05  0.33381785D-18 -0.24531409D-18  0.15464300D-04
 -0.10111213D-04
MO    5     MO 0.0        OCC NO =    2.0000000  ORB. ENERGY =   -8.149438
 -0.87298832D-04 -0.16333645D-03 -0.28220920D-03 -0.45749403D-03 -0.69474118D-03
 -0.96560854D-03 -0.11479693D-02 -0.10225227D-02 -0.50761089D-03 -0.81784248D-04
 -0.12556061D-05 -0.22437557D-06 -0.83845649D-08  0.13317221D-02  0.24874657D-02
  0.43171174D-02  0.70049272D-02  0.10842795D-01  0.15520476D-01  0.20259070D-01
  0.21589419D-01  0.16138529D-01  0.85192429D-03 -0.10946804D-01 -0.65036594D-02
  0.24383847D-04  0.17319655D-03  0.32324640D-03  0.56177380D-03  0.91047007D-03
  0.14141026D-02  0.20257427D-02  0.26748045D-02  0.28922571D-02  0.22675671D-02
  0.11283339D-03 -0.19438783D-02 -0.20122744D-02  0.91058263D-03  0.15259458D-02
 -0.33846971D-02 -0.50156554D-03  0.28328958D-12  0.37315596D-12  0.41167844D-12
  0.34194626D-12  0.18161597D-12  0.46844056D-13 -0.48154097D-16  0.25663606D-11
  0.33804729D-11  0.37294535D-11  0.30977399D-11  0.16452849D-11  0.42436697D-12
 -0.43623481D-15  0.11479012D+02  0.15120434D+02  0.16681381D+02  0.13855805D+02
  0.73591544D+01  0.18981406D+01 -0.19512240D-02  0.45933940D-15  0.60307896D-15
  0.68664977D-15  0.58142682D-15  0.33306367D-15  0.75760429D-16 -0.35460050D-16
  0.14732818D-14  0.19343110D-14  0.22023554D-14  0.18648641D-14  0.10682659D-14
  0.24299344D-15 -0.11373430D-15  0.42967819D-01  0.56413597D-01  0.64231030D-01
  0.54388198D-01  0.31155654D-01  0.70868304D-02 -0.33170266D-02  0.21645369D-14
  0.18411210D-13  0.92103391D-01  0.87695676D-19 -0.89241787D-17 -0.93815515D-03
 -0.28185884D-18 -0.17797897D-17 -0.23734963D-04 -0.15527874D-02 -0.15926926D-02
  0.31454801D-02  0.51708968D-04  0.93033383D-16  0.87968500D-15  0.57513120D-03
  0.55799747D-03 -0.11331287D-02  0.22201820D-04 -0.23139917D-16 -0.18465191D-15
  0.60924096D-04  0.62161009D-04 -0.12308510D-03 -0.16027867D-05 -0.20379215D-17
 -0.16684846D-16 -0.70757870D-17 -0.43432147D-16  0.32465652D-03  0.16938150D-16
 -0.20440959D-16 -0.43810763D-03  0.42892112D-17  0.15073740D-15 -0.53586193D-03
  0.12666961D-03  0.24478848D-17  0.16434635D-16 -0.20537521D-03  0.18193541D-18
  0.14273519D-16  0.30130256D-03 -0.75255899D-17 -0.63577423D-16  0.31482309D-03
 -0.17519842D-04  0.36335809D-04  0.67706430D-04  0.11450855D-03  0.17244353D-03
  0.21349627D-03  0.18167569D-03  0.69130953D-04 -0.32376975D-06 -0.10264105D-03
 -0.19245292D-03 -0.32741968D-03 -0.50844820D-03 -0.67474033D-03 -0.71108369D-03
 -0.44091725D-03  0.29329832D-03 -0.34029449D-03  0.42464563D-02  0.62749437D-03
 -0.18211678D-16 -0.17492099D-16 -0.12266668D-16  0.45905130D-16  0.44091329D-16
  0.30919883D-16 -0.97986955D-03 -0.94115299D-03 -0.66000144D-03 -0.41317538D-17
  0.11013737D-16 -0.93082019D-03  0.68241788D-17  0.44458842D-16 -0.13218937D-02
 -0.50223115D-18 -0.27850921D-17 -0.44712695D-04 -0.72362910D-04 -0.47912933D-04
  0.12027584D-03 -0.31682178D-04  0.25182742D-16  0.71737348D-16 -0.65240669D-03
 -0.64911409D-03  0.13015208D-02 -0.42665390D-05 -0.21717985D-16 -0.17462312D-15
 -0.10537976D-03 -0.10657023D-03  0.21195000D-03  0.15426092D-05 -0.75408939D-17
 -0.60401897D-16  0.64985731D-17  0.37864958D-16  0.69525290D-03  0.60586931D-17
  0.37274327D-16 -0.10388728D-02 -0.25554412D-16 -0.15086920D-15 -0.10468859D-02
  0.10383307D-04 -0.29184193D-17 -0.13437106D-16  0.80124686D-04 -0.22052459D-17
 -0.12807606D-16 -0.12058721D-03  0.10960504D-16  0.53118925D-16 -0.11978685D-03
 -0.10371028D-05 -0.28425827D-03 -0.52982084D-03 -0.89840060D-03 -0.13597712D-02
 -0.16965974D-02 -0.14571509D-02 -0.55942856D-03  0.25023583D-05  0.19949937D-03
  0.37416601D-03  0.63787101D-03  0.99686823D-03  0.13330028D-02  0.14233362D-02
  0.87019983D-03 -0.57410500D-03  0.11944725D-03 -0.10520058D-02 -0.15850205D-03
  0.14374493D-16  0.13938422D-16  0.94027775D-17  0.34972250D-16  0.33911318D-16
  0.22876375D-16 -0.60360162D-03 -0.58529053D-03 -0.39483353D-03 -0.94121789D-17
 -0.56880282D-16  0.13826720D-02  0.81904416D-17  0.73506255D-16  0.31476197D-03
  0.88581533D-18  0.58656248D-17  0.10865726D-04  0.18009414D-03  0.18206787D-03
 -0.36216201D-03 -0.25575523D-05  0.45722657D-17  0.67882244D-16  0.19718657D-03
  0.19377150D-03 -0.39095807D-03  0.44252398D-05 -0.23755300D-17 -0.42809977D-16