 Molden2AIM, Version 4.0.0 (06/02/2016)           Time: Wed Jun 27 22:26:10 2018
GAUSSIAN             15 MOL ORBITALS    281 PRIMITIVES        3 NUCLEI
  C    1    (CENTRE  1)   0.00000000  0.00000000  0.26021907  CHARGE =  6.0
  O    2    (CENTRE  2)   0.00000000  0.00000000  2.45181193  CHARGE =  8.0
  S    3    (CENTRE  3)   0.00000000  0.00000000 -2.71203100  CHARGE = 16.0
CENTRE ASSIGNMENTS    1  1  1  1  1  1  1  1  1  1  1  1  1  1  1  1  1  1  1  1
CENTRE ASSIGNMENTS    1  1  1  1  1  1  1  1  1  1  1  1  1  1  1  1  1  1  1  1
CENTRE ASSIGNMENTS    1  1  1  1  1  1  1  1  1  1  1  1  1  1  1  1  1  1  1  1
CENTRE ASSIGNMENTS    1  1  1  1  1  1  1  1  1  1  1  1  1  1  1  2  2  2  2  2
CENTRE ASSIGNMENTS    2  2  2  2  2  2  2  2  2  2  2  2  2  2  2  2  2  2  2  2
CENTRE ASSIGNMENTS    2  2  2  2  2  2  2  2  2  2  2  2  2  2  2  2  2  2  2  2
CENTRE ASSIGNMENTS    2  2  2  2  2  2  2  2  2  2  2  2  2  2  2  2  2  2  2  2
CENTRE ASSIGNMENTS    2  2  2  2  2  2  2  2  2  2  3  3  3  3  3  3  3  3  3  3
CENTRE ASSIGNMENTS    3  3  3  3  3  3  3  3  3  3  3  3  3  3  3  3  3  3  3  3
CENTRE ASSIGNMENTS    3  3  3  3  3  3  3  3  3  3  3  3  3  3  3  3  3  3  3  3
CENTRE ASSIGNMENTS    3  3  3  3  3  3  3  3  3  3  3  3  3  3  3  3  3  3  3  3
CENTRE ASSIGNMENTS    3  3  3  3  3  3  3  3  3  3  3  3  3  3  3  3  3  3  3  3
CENTRE ASSIGNMENTS    3  3  3  3  3  3  3  3  3  3  3  3  3  3  3  3  3  3  3  3
CENTRE ASSIGNMENTS    3  3  3  3  3  3  3  3  3  3  3  3  3  3  3  3  3  3  3  3
CENTRE ASSIGNMENTS    3
TYPE ASSIGNMENTS      1  1  1  1  1  1  1  1  1  1  1  1  1  1  1  1  1  1  1  2
TYPE ASSIGNMENTS      2  2  3  3  3  4  4  4  2  3  4  2  3  4  2  3  4  5  6  7
TYPE ASSIGNMENTS      8  9 10  5  6  7  8  9 10  5  6  7  8  9 10 11 12 13 17 14
TYPE ASSIGNMENTS     15 18 19 16 20 11 12 13 17 14 15 18 19 16 20  1  1  1  1  1
TYPE ASSIGNMENTS      1  1  1  1  1  1  1  1  1  1  1  1  1  1  2  2  2  3  3  3
TYPE ASSIGNMENTS      4  4  4  2  3  4  2  3  4  2  3  4  5  6  7  8  9 10  5  6
TYPE ASSIGNMENTS      7  8  9 10  5  6  7  8  9 10 11 12 13 17 14 15 18 19 16 20
TYPE ASSIGNMENTS     11 12 13 17 14 15 18 19 16 20  1  1  1  1  1  1  1  1  1  1
TYPE ASSIGNMENTS      1  1  1  1  1  1  1  1  1  1  1  1  1  1  1  1  1  1  1  1
TYPE ASSIGNMENTS      1  1  1  1  1  1  1  1  1  1  1  1  2  2  2  2  2  2  2  3
TYPE ASSIGNMENTS      3  3  3  3  3  3  4  4  4  4  4  4  4  2  2  2  2  2  2  2
TYPE ASSIGNMENTS      3  3  3  3  3  3  3  4  4  4  4  4  4  4  2  3  4  2  3  4
TYPE ASSIGNMENTS      2  3  4  5  6  7  8  9 10  5  6  7  8  9 10  5  6  7  8  9
TYPE ASSIGNMENTS     10 11 12 13 17 14 15 18 19 16 20 11 12 13 17 14 15 18 19 16
TYPE ASSIGNMENTS     20
EXPONENTS  0.8236000D+04 0.1235000D+04 0.2808000D+03 0.7927000D+02 0.2559000D+02
EXPONENTS  0.8997000D+01 0.3319000D+01 0.3643000D+00 0.8236000D+04 0.1235000D+04
EXPONENTS  0.2808000D+03 0.7927000D+02 0.2559000D+02 0.8997000D+01 0.3319000D+01
EXPONENTS  0.3643000D+00 0.9059000D+00 0.1285000D+00 0.4402000D-01 0.1871000D+02
EXPONENTS  0.4133000D+01 0.1200000D+01 0.1871000D+02 0.4133000D+01 0.1200000D+01
EXPONENTS  0.1871000D+02 0.4133000D+01 0.1200000D+01 0.3827000D+00 0.3827000D+00
EXPONENTS  0.3827000D+00 0.1209000D+00 0.1209000D+00 0.1209000D+00 0.3569000D-01
EXPONENTS  0.3569000D-01 0.3569000D-01 0.1097000D+01 0.1097000D+01 0.1097000D+01
EXPONENTS  0.1097000D+01 0.1097000D+01 0.1097000D+01 0.3180000D+00 0.3180000D+00
EXPONENTS  0.3180000D+00 0.3180000D+00 0.3180000D+00 0.3180000D+00 0.1000000D+00
EXPONENTS  0.1000000D+00 0.1000000D+00 0.1000000D+00 0.1000000D+00 0.1000000D+00
EXPONENTS  0.7610000D+00 0.7610000D+00 0.7610000D+00 0.7610000D+00 0.7610000D+00
EXPONENTS  0.7610000D+00 0.7610000D+00 0.7610000D+00 0.7610000D+00 0.7610000D+00
EXPONENTS  0.2680000D+00 0.2680000D+00 0.2680000D+00 0.2680000D+00 0.2680000D+00
EXPONENTS  0.2680000D+00 0.2680000D+00 0.2680000D+00 0.2680000D+00 0.2680000D+00
EXPONENTS  0.1533000D+05 0.2299000D+04 0.5224000D+03 0.1473000D+03 0.4755000D+02
EXPONENTS  0.1676000D+02 0.6207000D+01 0.6882000D+00 0.1533000D+05 0.2299000D+04
EXPONENTS  0.5224000D+03 0.1473000D+03 0.4755000D+02 0.1676000D+02 0.6207000D+01
EXPONENTS  0.6882000D+00 0.1752000D+01 0.2384000D+00 0.7376000D-01 0.3446000D+02
EXPONENTS  0.7749000D+01 0.2280000D+01 0.3446000D+02 0.7749000D+01 0.2280000D+01
EXPONENTS  0.3446000D+02 0.7749000D+01 0.2280000D+01 0.7156000D+00 0.7156000D+00
EXPONENTS  0.7156000D+00 0.2140000D+00 0.2140000D+00 0.2140000D+00 0.5974000D-01
EXPONENTS  0.5974000D-01 0.5974000D-01 0.2314000D+01 0.2314000D+01 0.2314000D+01
EXPONENTS  0.2314000D+01 0.2314000D+01 0.2314000D+01 0.6450000D+00 0.6450000D+00
EXPONENTS  0.6450000D+00 0.6450000D+00 0.6450000D+00 0.6450000D+00 0.2140000D+00
EXPONENTS  0.2140000D+00 0.2140000D+00 0.2140000D+00 0.2140000D+00 0.2140000D+00
EXPONENTS  0.1428000D+01 0.1428000D+01 0.1428000D+01 0.1428000D+01 0.1428000D+01
EXPONENTS  0.1428000D+01 0.1428000D+01 0.1428000D+01 0.1428000D+01 0.1428000D+01
EXPONENTS  0.5000000D+00 0.5000000D+00 0.5000000D+00 0.5000000D+00 0.5000000D+00
EXPONENTS  0.5000000D+00 0.5000000D+00 0.5000000D+00 0.5000000D+00 0.5000000D+00
EXPONENTS  0.3741000D+06 0.5605000D+05 0.1276000D+05 0.3615000D+04 0.1183000D+04
EXPONENTS  0.4288000D+03 0.1678000D+03 0.6947000D+02 0.2984000D+02 0.1272000D+02
EXPONENTS  0.5244000D+01 0.2219000D+01 0.3490000D+00 0.3741000D+06 0.5605000D+05
EXPONENTS  0.1276000D+05 0.3615000D+04 0.1183000D+04 0.4288000D+03 0.1678000D+03
EXPONENTS  0.6947000D+02 0.2984000D+02 0.1272000D+02 0.5244000D+01 0.2219000D+01
EXPONENTS  0.3490000D+00 0.3741000D+06 0.5605000D+05 0.1276000D+05 0.3615000D+04
EXPONENTS  0.1183000D+04 0.4288000D+03 0.1678000D+03 0.6947000D+02 0.2984000D+02
EXPONENTS  0.1272000D+02 0.5244000D+01 0.2219000D+01 0.3490000D+00 0.7767000D+00
EXPONENTS  0.1322000D+00 0.4970000D-01 0.5744000D+03 0.1358000D+03 0.4319000D+02
EXPONENTS  0.1587000D+02 0.6208000D+01 0.2483000D+01 0.3229000D+00 0.5744000D+03
EXPONENTS  0.1358000D+03 0.4319000D+02 0.1587000D+02 0.6208000D+01 0.2483000D+01
EXPONENTS  0.3229000D+00 0.5744000D+03 0.1358000D+03 0.4319000D+02 0.1587000D+02
EXPONENTS  0.6208000D+01 0.2483000D+01 0.3229000D+00 0.5744000D+03 0.1358000D+03
EXPONENTS  0.4319000D+02 0.1587000D+02 0.6208000D+01 0.2483000D+01 0.3229000D+00
EXPONENTS  0.5744000D+03 0.1358000D+03 0.4319000D+02 0.1587000D+02 0.6208000D+01
EXPONENTS  0.2483000D+01 0.3229000D+00 0.5744000D+03 0.1358000D+03 0.4319000D+02
EXPONENTS  0.1587000D+02 0.6208000D+01 0.2483000D+01 0.3229000D+00 0.8688000D+00
EXPONENTS  0.8688000D+00 0.8688000D+00 0.1098000D+00 0.1098000D+00 0.1098000D+00
EXPONENTS  0.3510000D-01 0.3510000D-01 0.3510000D-01 0.2690000D+00 0.2690000D+00
EXPONENTS  0.2690000D+00 0.2690000D+00 0.2690000D+00 0.2690000D+00 0.8190000D+00
EXPONENTS  0.8190000D+00 0.8190000D+00 0.8190000D+00 0.8190000D+00 0.8190000D+00
EXPONENTS  0.1010000D+00 0.1010000D+00 0.1010000D+00 0.1010000D+00 0.1010000D+00
EXPONENTS  0.1010000D+00 0.5570000D+00 0.5570000D+00 0.5570000D+00 0.5570000D+00
EXPONENTS  0.5570000D+00 0.5570000D+00 0.5570000D+00 0.5570000D+00 0.5570000D+00
EXPONENTS  0.5570000D+00 0.2180000D+00 0.2180000D+00 0.2180000D+00 0.2180000D+00
EXPONENTS  0.2180000D+00 0.2180000D+00 0.2180000D+00 0.2180000D+00 0.2180000D+00
EXPONENTS  0.2180000D+00
MO    1     MO 0.0        OCC NO =    2.0000000  ORB. ENERGY =  -91.993320
 -0.47943064D-05 -0.89376773D-05 -0.15106249D-04 -0.22709641D-04 -0.27901417D-04
 -0.23567207D-04 -0.88886835D-05  0.43990591D-07  0.32667525D-05  0.61163915D-05
  0.10413680D-04  0.16108379D-04  0.21214169D-04  0.22042880D-04  0.14007261D-04
 -0.93873405D-05  0.22484755D-04 -0.22421079D-04 -0.83688287D-05  0.80143772D-20
  0.75139881D-20  0.53504071D-20 -0.57837924D-18 -0.54226731D-18 -0.38612663D-18
  0.72605930D-05  0.68072674D-05  0.48471799D-05  0.91615506D-20 -0.32640560D-19
  0.55083424D-04 -0.34208255D-19 -0.63796675D-19 -0.20491181D-04  0.98348888D-21
  0.27988074D-20  0.51738097D-06  0.46319845D-05  0.46319845D-05 -0.92639690D-05
  0.54625328D-20 -0.25666327D-19 -0.38207321D-19  0.11717495D-04  0.11717495D-04
 -0.23434990D-04 -0.16974357D-20  0.19360009D-18  0.44819396D-18  0.96010540D-06
  0.96010540D-06 -0.19202108D-05 -0.12161387D-21  0.97493264D-20  0.22249519D-19
 -0.49665741D-19 -0.67263584D-19 -0.65416002D-05 -0.45936170D-19 -0.67752176D-19
  0.98124002D-05  0.19493339D-18  0.26954293D-18  0.98124002D-05 -0.76615473D-21
  0.12852363D-19  0.27828652D-19 -0.32493013D-05  0.13129957D-19  0.27816618D-19
  0.48739519D-05 -0.51687047D-19 -0.11130257D-18  0.48739519D-05 -0.72358102D-21
  0.17600099D-04  0.32804321D-04  0.55625259D-04  0.84191420D-04  0.10504631D-03
  0.90220771D-04  0.34637508D-04 -0.15493570D-06 -0.11979427D-04 -0.22467713D-04
 -0.38302525D-04 -0.59859391D-04 -0.80043411D-04 -0.85467701D-04 -0.52253277D-04
  0.34473538D-04 -0.27050512D-05  0.28445333D-04  0.13202068D-04  0.12398856D-18
  0.12022720D-18  0.81104557D-19 -0.50869249D-19 -0.49326060D-19 -0.33275069D-19
  0.94830408D-07  0.91953597D-07  0.62031353D-07  0.19333734D-19 -0.99418582D-20
 -0.20779835D-04 -0.35411200D-19 -0.10052232D-18  0.18715707D-04 -0.35810846D-20
 -0.90214868D-20 -0.76088075D-06 -0.14166373D-04 -0.14166373D-04  0.28332745D-04
 -0.28100781D-20 -0.16407298D-18 -0.34198867D-18  0.40882972D-05  0.40882972D-05
 -0.81765943D-05  0.10912323D-20  0.13719485D-18  0.28430851D-18  0.30922703D-05
  0.30922703D-05 -0.61845405D-05  0.49211733D-21  0.31538723D-19  0.78003067D-19
 -0.35522570D-20 -0.29988300D-19 -0.37451467D-05 -0.18920569D-20 -0.29710224D-19
  0.56177201D-05  0.12548828D-19  0.11967512D-18  0.56177201D-05  0.43559645D-20
  0.18978894D-19  0.43254719D-19  0.23879052D-05  0.18246695D-19  0.43195426D-19
 -0.35818577D-05 -0.75183377D-19 -0.17295958D-18 -0.35818577D-05 -0.19095624D-20
  0.58448486D+00  0.10926605D+01  0.18884584D+01  0.30544968D+01  0.46166931D+01
  0.63579439D+01  0.74309624D+01  0.64209121D+01  0.29947363D+01  0.40662049D+00
  0.10888295D-02  0.21358333D-02  0.97509714D-04 -0.26024328D-04 -0.48601541D-04
 -0.84306893D-04 -0.13670071D-03 -0.21046631D-03 -0.29975130D-03 -0.38544126D-03
 -0.40459862D-03 -0.28607990D-03  0.63353591D-05  0.20555210D-03  0.11318257D-03
 -0.47864716D-06  0.10732106D-04  0.20027697D-04  0.34785713D-04  0.56345137D-04
  0.87036747D-04  0.12408396D-03  0.16139270D-03  0.17200111D-03  0.12756965D-03
 -0.39707695D-05 -0.11557146D-03 -0.11322014D-03  0.52880519D-04 -0.43280187D-03
 -0.16818440D-04  0.42774190D-05  0.15767568D-16  0.20686191D-16  0.22689599D-16
  0.18669361D-16  0.98428566D-17  0.25606461D-17 -0.28336159D-20  0.41946165D-16
  0.55031085D-16  0.60360712D-16  0.49665751D-16  0.26184766D-16  0.68120385D-17
 -0.75382151D-20  0.17422663D-02  0.22857585D-02  0.25071287D-02  0.20629052D-02
  0.10876044D-02  0.28294327D-03 -0.31310558D-06 -0.45113516D-17 -0.59234321D-17
 -0.66642605D-17 -0.56151433D-17 -0.31410324D-17 -0.78179658D-18  0.35856958D-18
 -0.78715500D-17 -0.10335393D-16 -0.11628014D-16 -0.97974810D-17 -0.54805735D-17
 -0.13641036D-17  0.62564363D-18 -0.85248303D-03 -0.11193154D-02 -0.12593053D-02
 -0.10610599D-02 -0.59354205D-03 -0.14773141D-03  0.67756742D-04 -0.76531973D-18
 -0.27187290D-17 -0.11688393D-03  0.41255813D-20  0.61749832D-20 -0.44711771D-05
  0.16956336D-20  0.27679337D-20 -0.36063085D-07 -0.77543075D-05 -0.77543075D-05
  0.15508615D-04 -0.34702618D-20  0.13523090D-18  0.26663139D-18 -0.27078565D-05
 -0.27078565D-05  0.54157130D-05  0.17989343D-19 -0.26996640D-18 -0.40888757D-18
  0.43913941D-06  0.43913941D-06 -0.87827882D-06  0.35426541D-21  0.50897363D-20
  0.78274871D-20 -0.15248522D-19 -0.34029360D-19  0.76599622D-05 -0.12497157D-19
 -0.32895146D-19 -0.11489943D-04  0.58242722D-19  0.13498323D-18 -0.11489943D-04
 -0.12153085D-19 -0.45328913D-20 -0.84922132D-20  0.70779810D-06 -0.45819649D-20
 -0.86690417D-20 -0.10616971D-05  0.18180639D-19  0.34145681D-19 -0.10616971D-05
  0.29485077D-21
MO    2     MO 0.0        OCC NO =    2.0000000  ORB. ENERGY =  -20.661696
  0.18105474D-03  0.33752720D-03  0.57048043D-03  0.85761896D-03  0.10536840D-02
  0.89000456D-03  0.33567698D-03 -0.16612841D-05 -0.14673111D-03 -0.27472693D-03
 -0.46774611D-03 -0.72353210D-03 -0.95286633D-03 -0.99008915D-03 -0.62915721D-03
  0.42164653D-03  0.79151338D-04  0.13103818D-03  0.24316235D-04 -0.92566556D-15
 -0.86787030D-15 -0.61797536D-15 -0.23517640D-15 -0.22049282D-15 -0.15700403D-15
  0.84771494D-03  0.79478664D-03  0.56593544D-03 -0.20197964D-16 -0.57135047D-17
  0.80782172D-03 -0.33167689D-17 -0.25489581D-17  0.24008519D-04 -0.14050514D-18
 -0.65308368D-21  0.36356386D-06 -0.34085941D-03 -0.34085941D-03  0.68171882D-03
 -0.61946845D-19  0.16665687D-17 -0.39318955D-18 -0.14075685D-03 -0.14075685D-03
  0.28151371D-03 -0.22836712D-19 -0.18789427D-17 -0.20129561D-18  0.41801941D-05
  0.41801941D-05 -0.83603881D-05  0.35262618D-20  0.69708089D-19 -0.37726226D-19
  0.44246802D-18 -0.97635151D-19 -0.88509188D-04  0.39356215D-18 -0.11218046D-18
  0.13276378D-03 -0.17209662D-17  0.40508591D-18  0.13276378D-03 -0.97231426D-19
  0.67408911D-18  0.35883224D-18  0.63423556D-04  0.67930811D-18  0.36479752D-18
 -0.95135334D-04 -0.27015754D-17 -0.14412942D-17 -0.95135334D-04 -0.12385514D-19
  0.49800199D+00  0.92821164D+00  0.15739394D+01  0.23822306D+01  0.29723282D+01
  0.25528335D+01  0.98008243D+00 -0.43839689D-02  0.45145043D-03  0.84670647D-03
  0.14434489D-02  0.22558297D-02  0.30164741D-02  0.32208911D-02  0.19691897D-02
 -0.12991517D-02  0.47275418D-01  0.48470176D-03 -0.51689167D-04 -0.42294429D-16
 -0.41011370D-16 -0.27666028D-16 -0.12523869D-16 -0.12143940D-16 -0.81922304D-17
 -0.10247490D-01 -0.99366186D-02 -0.67031842D-02  0.13499791D-17  0.18155969D-17
  0.19736107D-02  0.52428900D-17  0.34650237D-17 -0.85267087D-04  0.27519022D-18
  0.14771429D-18  0.52325195D-05 -0.85598592D-03 -0.85598592D-03  0.17119718D-02
  0.22031584D-17  0.16435297D-16 -0.10417497D-17  0.24583047D-03  0.24583047D-03
 -0.49166094D-03  0.42087824D-18 -0.46631014D-17 -0.81975635D-18 -0.11103594D-04
 -0.11103594D-04  0.22207188D-04 -0.12408674D-19 -0.21839383D-17 -0.15781804D-17
  0.18329552D-17  0.88010123D-18  0.63231361D-04  0.20361128D-17 -0.99087665D-18
 -0.94847042D-04 -0.75349785D-17 -0.16494270D-17 -0.94847042D-04  0.28388428D-18
 -0.12398633D-18 -0.16210850D-18  0.55073177D-04 -0.17920489D-18 -0.14459791D-18
 -0.82609766D-04  0.55116387D-18  0.63092340D-18 -0.82609766D-04  0.17619524D-19
  0.19124928D-04  0.35752941D-04  0.61792245D-04  0.99946183D-04  0.15106280D-03
  0.20803827D-03  0.24314850D-03  0.21009865D-03  0.97990760D-04  0.13305028D-04
  0.35627587D-07  0.69886598D-07  0.31906151D-08 -0.36366777D-04 -0.67916505D-04
 -0.11781169D-03 -0.19102758D-03 -0.29410870D-03 -0.41887685D-03 -0.53862126D-03
 -0.56539204D-03 -0.39977224D-03  0.88531237D-05  0.28724152D-03  0.15816298D-03
 -0.66886855D-06  0.20588197D-04  0.38420621D-04  0.66732020D-04  0.10809107D-03
  0.16696906D-03  0.23803949D-03  0.30961162D-03  0.32996253D-03  0.24472634D-03
 -0.76174223D-05 -0.22170932D-03 -0.21719861D-03  0.10144463D-03  0.46276141D-04
 -0.23412983D-04 -0.29822918D-04  0.47335578D-16  0.62101701D-16  0.68116101D-16
  0.56047007D-16  0.29549091D-16  0.76872768D-17 -0.85067555D-20  0.38469063D-16
  0.50469316D-16  0.55357147D-16  0.45548738D-16  0.24014196D-16  0.62473587D-17
 -0.69133393D-20 -0.28011846D-05 -0.36750016D-05 -0.40309166D-05 -0.33167021D-05
 -0.17486309D-05 -0.45491112D-06  0.50340553D-09 -0.38064147D-16 -0.49978456D-16
 -0.56229133D-16 -0.47377296D-16 -0.26502195D-16 -0.65963424D-17  0.30254005D-17
 -0.28009972D-16 -0.36777264D-16 -0.41376902D-16 -0.34863168D-16 -0.19501968D-16
 -0.48540000D-17  0.22262783D-17  0.84977459D-04  0.11157592D-03  0.12553043D-03
  0.10576888D-03  0.59165630D-04  0.14726205D-04 -0.67541471D-05 -0.28932613D-17
 -0.24860159D-17  0.10492114D-04  0.15214539D-17  0.82723864D-18 -0.34975027D-04
  0.93358730D-19  0.91629880D-20 -0.18984362D-05 -0.26822431D-05 -0.26822431D-05
  0.53644862D-05 -0.18008530D-21  0.30413127D-17  0.23518637D-17  0.31417479D-04
  0.31417479D-04 -0.62834959D-04 -0.14360429D-20 -0.13348514D-18 -0.12395993D-17
  0.10830720D-05  0.10830720D-05 -0.21661439D-05 -0.16913702D-20  0.47075254D-18
  0.24943879D-18  0.69887833D-19 -0.82338810D-19 -0.17415282D-04  0.68854891D-19
 -0.84664282D-19  0.26122924D-04 -0.27851839D-18  0.33168071D-18  0.26122924D-04
 -0.39060464D-20 -0.20269903D-18 -0.13191854D-18  0.70920635D-05 -0.20323410D-18
 -0.13105613D-18 -0.10638095D-04  0.81133118D-18  0.52681175D-18 -0.10638095D-04
 -0.30198377D-20
MO    3     MO 0.0        OCC NO =    2.0000000  ORB. ENERGY =  -11.441080
  0.32709922D+00  0.60978733D+00  0.10306480D+01  0.15494015D+01  0.19036188D+01
  0.16079104D+01  0.60644465D+00 -0.30013284D-02 -0.17535108D-03 -0.32831255D-03
 -0.55898020D-03 -0.86465738D-03 -0.11387233D-02 -0.11832065D-02 -0.75187461D-03
  0.50388888D-03  0.27853846D-01  0.47452705D-03  0.16709385D-03 -0.35519050D-16
 -0.33301367D-16 -0.23712557D-16 -0.13042912D-16 -0.12228559D-16 -0.87074627D-17
  0.90618764D-03  0.84960851D-03  0.60497187D-03  0.83252076D-17  0.28108796D-17
  0.19006935D-02  0.19120435D-17  0.69354617D-18 -0.13306878D-03  0.80387067D-20
  0.21577716D-20 -0.10398974D-04 -0.15296313D-02 -0.15296313D-02  0.30592626D-02
  0.59262424D-19  0.17610274D-17  0.49395798D-18  0.19573868D-03  0.19573868D-03
 -0.39147735D-03 -0.11982241D-18  0.78265539D-18  0.16416373D-18 -0.16764340D-05
 -0.16764340D-05  0.33528680D-05  0.38023983D-20  0.36437330D-19  0.32892382D-20
 -0.60148321D-18 -0.63448078D-19  0.54580589D-03 -0.29130993D-18 -0.10977308D-19
 -0.81870883D-03  0.20957596D-17  0.20132154D-18 -0.81870883D-03 -0.57031179D-18
 -0.39688291D-18 -0.14891684D-18 -0.12414209D-04 -0.39825177D-18 -0.14395425D-18
  0.18621313D-04  0.15889005D-17  0.59070477D-18  0.18621313D-04  0.44698712D-20
 -0.79226779D-04 -0.14766852D-03 -0.25039689D-03 -0.37898735D-03 -0.47286556D-03
 -0.40612845D-03 -0.15592061D-03  0.69744246D-06 -0.14814184D-03 -0.27784370D-03
 -0.47366259D-03 -0.74024243D-03 -0.98984518D-03 -0.10569239D-02 -0.64618253D-03
  0.42631199D-03  0.36628004D-03 -0.44788754D-03 -0.26241264D-03  0.22540163D-17
  0.21856376D-17  0.14744182D-17  0.22560768D-18  0.21876356D-18  0.14757660D-18
 -0.25425701D-02 -0.24654377D-02 -0.16631697D-02 -0.23140571D-17 -0.95649383D-18
  0.55964012D-03 -0.35548450D-17 -0.12261443D-17  0.64914621D-03 -0.10030449D-18
 -0.30747690D-19  0.36504705D-04 -0.40324051D-03 -0.40324051D-03  0.80648103D-03
  0.15263022D-18 -0.28657345D-17 -0.37561230D-18  0.42787220D-03  0.42787220D-03
 -0.85574441D-03  0.54862011D-19  0.32915504D-17  0.11058417D-17  0.85669976D-04
  0.85669976D-04 -0.17133995D-03  0.84007661D-20  0.13700561D-17  0.46859996D-18
 -0.21066295D-18  0.31332377D-19 -0.49337270D-03 -0.33267630D-18 -0.14069755D-18
  0.74005904D-03  0.96466513D-18  0.46700414D-19  0.74005904D-03  0.95261928D-19
  0.21453429D-18  0.67156275D-19  0.25833963D-03  0.17441455D-18  0.35768646D-19
 -0.38750944D-03 -0.81801743D-18 -0.23723747D-18 -0.38750944D-03 -0.50449488D-19
  0.11473437D-03  0.21448924D-03  0.37070438D-03  0.59959769D-03  0.90625680D-03
  0.12480643D-02  0.14586978D-02  0.12604250D-02  0.58786670D-03  0.79819598D-04
  0.21373722D-06  0.41926406D-06  0.19141156D-07 -0.23490138D-03 -0.43868833D-03
 -0.76097279D-03 -0.12338911D-02 -0.18997158D-02 -0.27056220D-02 -0.34790786D-02
 -0.36519973D-02 -0.25822209D-02  0.57184363D-04  0.18553591D-02  0.10216111D-02
 -0.43203759D-05  0.13379555D-03  0.24968230D-03  0.43366826D-03  0.70244637D-03
  0.10850741D-02  0.15469361D-02  0.20120586D-02  0.21443121D-02  0.15903917D-02
 -0.49502987D-04 -0.14408120D-02 -0.14114985D-02  0.65925349D-03 -0.31226805D-03
  0.14210449D-03 -0.14644999D-03 -0.21803581D-16 -0.28605110D-16 -0.31375446D-16
 -0.25816214D-16 -0.13610819D-16 -0.35408917D-17  0.39183577D-20 -0.81782875D-17
 -0.10729468D-16 -0.11768591D-16 -0.96833830D-17 -0.51052710D-17 -0.13281502D-17
  0.14697336D-20  0.12097130D-01  0.15870776D-01  0.17407822D-01  0.14323432D-01
  0.75515967D-02  0.19645685D-02 -0.21739954D-05  0.31236783D-16  0.41014087D-16
  0.46143613D-16  0.38879483D-16  0.21748637D-16  0.54131916D-17 -0.24827505D-17
  0.11564923D-16  0.15184814D-16  0.17083939D-16  0.14394511D-16  0.80520874D-17
  0.20041482D-17 -0.91919892D-18 -0.11885882D-01 -0.15606236D-01 -0.17558068D-01
 -0.14793999D-01 -0.82755559D-02 -0.20597690D-02  0.94470932D-03  0.18024632D-17
  0.67737309D-18  0.11770149D-03 -0.68381214D-18 -0.26632317D-18  0.17052797D-04
 -0.20940634D-21  0.62597127D-22 -0.54904284D-05 -0.10644770D-03 -0.10644770D-03
  0.21289540D-03  0.22556588D-19 -0.21006706D-17 -0.78240423D-18 -0.24626358D-03
 -0.24626358D-03  0.49252717D-03  0.33176594D-19 -0.39330304D-19 -0.63204355D-19
 -0.36212836D-05 -0.36212836D-05  0.72425672D-05 -0.22979901D-20 -0.16782190D-18
 -0.64172245D-19  0.30963438D-18  0.10511127D-18  0.23734232D-04  0.31586440D-18
  0.11819229D-18 -0.35601348D-04 -0.12447676D-17 -0.43352609D-18 -0.35601348D-04
  0.62657664D-19  0.84424264D-19  0.30101993D-19  0.20259562D-04  0.83777853D-19
  0.32691019D-19 -0.30389343D-04 -0.33705064D-18 -0.12299700D-18 -0.30389343D-04
  0.83226737D-20
MO    4     MO 0.0        OCC NO =    2.0000000  ORB. ENERGY =   -8.996572
 -0.28638504D-04 -0.53388683D-04 -0.90236280D-04 -0.13565469D-03 -0.16666746D-03
 -0.14077731D-03 -0.53096022D-04  0.26277518D-06 -0.86529688D-04 -0.16201088D-03
 -0.27583738D-03 -0.42667849D-03 -0.56192056D-03 -0.58387145D-03 -0.37102410D-03
  0.24865172D-03  0.19632131D-03 -0.66445755D-03  0.83497082D-04 -0.21545553D-16
 -0.20200326D-16 -0.14383835D-16 -0.69966162D-16 -0.65597724D-16 -0.46709487D-16
 -0.74743094D-03 -0.70076402D-03 -0.49898573D-03  0.25271903D-16  0.14898960D-16
  0.22407417D-04 -0.66391034D-17  0.12645391D-16  0.68774536D-03 -0.85287422D-18
  0.38924783D-19 -0.80786728D-05 -0.10882315D-03 -0.10882315D-03  0.21764630D-03
  0.16882509D-18  0.25947154D-16 -0.24358915D-16  0.34445187D-04  0.34445187D-04
 -0.68890374D-04 -0.13424078D-18 -0.20372247D-16  0.17361216D-16  0.29635705D-05
  0.29635705D-05 -0.59271409D-05  0.54261007D-20 -0.18250016D-17  0.17688467D-17
 -0.12401773D-17  0.21225010D-17  0.22582524D-03 -0.83877322D-18  0.20574092D-17
 -0.33873786D-03  0.45593052D-17 -0.84249121D-17 -0.33873786D-03 -0.21920576D-18
 -0.95622728D-18 -0.15443593D-17  0.65813568D-04 -0.93099597D-18 -0.15657508D-17
 -0.98720352D-04  0.37996778D-17  0.61988286D-17 -0.98720352D-04  0.85763037D-19
 -0.13173192D-03 -0.24553135D-03 -0.41633981D-03 -0.63014970D-03 -0.78624284D-03
 -0.67527774D-03 -0.25925226D-03  0.11596512D-05  0.96663617D-04  0.18129501D-03
  0.30906825D-03  0.48301351D-03  0.64588110D-03  0.68965043D-03  0.42163875D-03
 -0.27817164D-03 -0.14457275D-04 -0.42056964D-03 -0.25132564D-03 -0.42247204D-17
 -0.40965577D-17 -0.27635136D-17 -0.24433396D-16 -0.23692175D-16 -0.15982602D-16
  0.22651157D-04  0.21964003D-04  0.14816787D-04 -0.50471635D-17 -0.15299526D-17
  0.33487778D-03  0.73822667D-17 -0.23148385D-16 -0.14553109D-03  0.17146311D-17
 -0.19942546D-17  0.30710269D-04  0.74722354D-04  0.74722354D-04 -0.14944471D-03
 -0.46733820D-19 -0.11210381D-16  0.17782612D-16  0.49309544D-04  0.49309544D-04
 -0.98619087D-04  0.16940928D-19  0.50851201D-17 -0.47686091D-17 -0.28840032D-04
 -0.28840032D-04  0.57680063D-04 -0.21672242D-19 -0.69000769D-17  0.12182180D-16
 -0.39173122D-18 -0.84825238D-18  0.82224672D-04 -0.29299563D-18 -0.90934280D-18
 -0.12333701D-03  0.14681893D-17  0.34541000D-17 -0.12333701D-03 -0.85655981D-19
 -0.27492374D-18 -0.24853391D-18  0.15991702D-04 -0.33877533D-18 -0.22568237D-18
 -0.23987553D-04  0.11635465D-17  0.97128412D-18 -0.23987553D-04 -0.10663057D-19
 -0.11941260D-03 -0.22323491D-03 -0.38581962D-03 -0.62404592D-03 -0.94320887D-03
 -0.12989534D-02 -0.15181754D-02 -0.13118180D-02 -0.61183661D-03 -0.83074194D-04
 -0.22245222D-06 -0.43635930D-06 -0.19921625D-07 -0.16136003D+00 -0.30134672D+00
 -0.52273251D+00 -0.84759269D+00 -0.13049654D+01 -0.18585639D+01 -0.23898719D+01
 -0.25086544D+01 -0.17737964D+01  0.39281464D-01  0.12744956D+01  0.70177189D+00
 -0.29677814D-02 -0.34454015D-04 -0.64296289D-04 -0.11167496D-03 -0.18088866D-03
 -0.27942003D-03 -0.39835524D-03 -0.51813005D-03 -0.55218696D-03 -0.40954559D-03
  0.12747633D-04  0.37102697D-03  0.36347837D-03 -0.16976596D-03  0.41288545D-01
  0.15219370D-02 -0.37508566D-04 -0.66496081D-15 -0.87239237D-15 -0.95688146D-15
 -0.78733723D-15 -0.41509976D-15 -0.10798934D-15  0.11950121D-18 -0.79437185D-15
 -0.10421726D-14 -0.11431045D-14 -0.94056451D-15 -0.49588421D-15 -0.12900563D-15
  0.14275789D-18  0.39595226D-01  0.51946780D-01  0.56977700D-01  0.46882155D-01
  0.24717199D-01  0.64302470D-02 -0.71157239D-05  0.23070208D-15  0.30291324D-15
  0.34079782D-15  0.28714793D-15  0.16062652D-15  0.39979615D-16 -0.18336578D-16
  0.11386008D-15  0.14949898D-15  0.16819643D-15  0.14171821D-15  0.79275181D-16
  0.19731431D-16 -0.90497851D-17 -0.27815836D-02 -0.36522363D-02 -0.41090120D-02
 -0.34621533D-02 -0.19366800D-02 -0.48203572D-03  0.22108481D-03  0.25328307D-16
  0.27923273D-16  0.17309327D-02 -0.28634381D-17 -0.86625686D-18  0.26614551D-03
  0.28168272D-18  0.11825353D-18 -0.89013769D-06  0.36911448D-04  0.36911448D-04
 -0.73822897D-04  0.24256251D-18 -0.11650897D-16 -0.67354810D-19 -0.53476786D-03
 -0.53476786D-03  0.10695357D-02 -0.14979555D-17 -0.52377476D-17 -0.14114877D-16
 -0.83030243D-05 -0.83030243D-05  0.16606049D-04 -0.15579974D-19 -0.29022440D-18
 -0.22966972D-18  0.12904893D-17 -0.23037190D-17  0.11719830D-03  0.14600141D-17
 -0.19514624D-17 -0.17579745D-03 -0.53314819D-17  0.88626194D-17 -0.17579745D-03
  0.18571435D-18  0.45548152D-19  0.21373841D-18 -0.16937833D-04  0.31389523D-19
  0.19404965D-18  0.25406750D-04 -0.16803398D-18 -0.83526489D-18  0.25406750D-04
  0.37564324D-19
MO    5     MO 0.0        OCC NO =    2.0000000  ORB. ENERGY =   -6.678099
 -0.49319258D-04 -0.91942310D-04 -0.15539870D-03 -0.23361515D-03 -0.28702320D-03
 -0.24243698D-03 -0.91438309D-04  0.45253329D-06 -0.12326928D-03 -0.23079899D-03
 -0.39295503D-03 -0.60784169D-03 -0.80050612D-03 -0.83177713D-03 -0.52855703D-03
  0.35422663D-03  0.10398596D-03  0.20376121D-02  0.58710773D-04  0.45042423D-15
  0.42230135D-15  0.30070372D-15  0.12004472D-16  0.11254955D-16  0.80141986D-17
 -0.11451116D-02 -0.10736149D-02 -0.76447778D-03 -0.22465967D-15 -0.45622765D-16
 -0.19466311D-02  0.47316508D-16  0.11296598D-16 -0.21367861D-03  0.59258604D-18
 -0.39600256D-18  0.12124750D-04  0.12487933D-03  0.12487933D-03 -0.24975866D-03
  0.26930147D-18 -0.38364887D-16  0.16370169D-17 -0.18876099D-03 -0.18876099D-03
  0.37752199D-03  0.34301092D-20 -0.58589658D-16 -0.55370508D-16 -0.39039060D-04
 -0.39039060D-04  0.78078120D-04 -0.41912179D-20  0.27414168D-17 -0.18974979D-17
  0.18189335D-16  0.13595095D-16  0.11837004D-03  0.18359371D-16  0.13560735D-16
 -0.17755507D-03 -0.72927378D-16 -0.54346020D-16 -0.17755507D-03 -0.52824015D-18
 -0.33707726D-17 -0.23960867D-17  0.13374200D-03 -0.33681177D-17 -0.24026018D-17
 -0.20061301D-03  0.13480436D-16  0.95908620D-17 -0.20061301D-03 -0.20925722D-19
 -0.27914625D-03 -0.52029269D-03 -0.88224401D-03 -0.13353174D-02 -0.16660863D-02
 -0.14309459D-02 -0.54936795D-03  0.24573566D-05  0.20375644D-03  0.38215025D-03
  0.65148240D-03  0.10181402D-02  0.13614474D-02  0.14537084D-02  0.88876884D-03
 -0.58635570D-03 -0.17463808D-03 -0.41042270D-03 -0.23711636D-04 -0.48143537D-17
 -0.46683037D-17 -0.31492101D-17 -0.22266974D-16 -0.21591474D-16 -0.14565481D-16
  0.38820348D-03  0.37642679D-03  0.25393529D-03  0.26844504D-16  0.99286269D-17
 -0.31873085D-04  0.54802978D-17  0.14819838D-16 -0.52018661D-03 -0.13831516D-17
  0.85715106D-18 -0.41215316D-04  0.18218071D-03  0.18218071D-03 -0.36436143D-03
 -0.99535140D-19  0.86583871D-16  0.44636570D-16 -0.15771751D-03 -0.15771751D-03
  0.31543502D-03  0.63527902D-19 -0.72460611D-16 -0.46835441D-16 -0.53741449D-04
 -0.53741449D-04  0.10748290D-03  0.19367929D-19 -0.55335863D-17 -0.80668154D-17
  0.18716540D-18 -0.68414105D-17 -0.19655644D-03  0.20128615D-18 -0.68613038D-17
  0.29483466D-03 -0.76278234D-18  0.27385535D-16  0.29483466D-03  0.33997125D-19
 -0.89502152D-17 -0.35507612D-17  0.93963314D-06 -0.89664704D-17 -0.35436640D-17
 -0.14094497D-05  0.35817116D-16  0.14195948D-16 -0.14094497D-05 -0.11657979D-18
  0.12816802D-04  0.23960267D-04  0.41410822D-04  0.66980147D-04  0.10123657D-03
  0.13941937D-03  0.16294892D-03  0.14080016D-03  0.65669696D-04  0.89165259D-05
  0.23876260D-07  0.46835351D-07  0.21382294D-08  0.54848675D-03  0.10243224D-02
  0.17768456D-02  0.28810938D-02  0.44357719D-02  0.63175355D-02  0.81235306D-02
  0.85272897D-02  0.60293981D-02 -0.13352355D-03 -0.43322005D-02 -0.23854272D-02
  0.10087931D-04  0.23577951D-03  0.43999945D-03  0.76422638D-03  0.12378772D-02
  0.19121580D-02  0.27260685D-02  0.35457246D-02  0.37787867D-02  0.28026475D-02
 -0.87236009D-04 -0.25390526D-02 -0.24873952D-02  0.11617611D-02  0.12736689D-02
 -0.24814443D-02  0.11784524D-04  0.79858333D-12  0.10476978D-11  0.11491648D-11
  0.94555105D-12  0.49851321D-12  0.12968958D-12 -0.14351474D-15  0.72891861D-12
  0.95630153D-12  0.10489170D-11  0.86306554D-12  0.45502522D-12  0.11837606D-12
 -0.13099518D-15  0.96767419D+01  0.12695358D+02  0.13924873D+02  0.11457606D+02
  0.60406766D+01  0.15714985D+01 -0.17390234D-02  0.71428844D-15  0.93786507D-15
  0.10551614D-14  0.88905329D-15  0.49732394D-15  0.12378292D-15 -0.56772810D-16
  0.57052189D-15  0.74909872D-15  0.84278657D-15  0.71011140D-15  0.39722636D-15
  0.98868833D-16 -0.45346011D-16  0.23001603D-01  0.30201245D-01  0.33978437D-01
  0.28629402D-01  0.16014886D-01  0.39860726D-02 -0.18282049D-02  0.60533629D-14
  0.55060774D-14  0.77949278D-01  0.21986639D-16  0.10788892D-16 -0.45420807D-03
 -0.13456392D-17 -0.75768150D-18  0.89012171D-06  0.33026367D-03  0.33026367D-03
 -0.66052734D-03  0.12235126D-18 -0.37787888D-16 -0.34767204D-16 -0.78708864D-03
 -0.78708864D-03  0.15741773D-02  0.21877710D-18  0.90999305D-16  0.83890986D-16