 Molden2AIM, Version 4.0.0 (06/02/2016)           Time: Wed Jun 27 23:32:36 2018
GAUSSIAN             55 MOL ORBITALS    864 PRIMITIVES        4 NUCLEI
  C    1    (CENTRE  1)  -0.00022677  0.00000000  0.00000000  CHARGE =  6.0
  Se   2    (CENTRE  2)  -1.77812268  3.08037453  0.00000000  CHARGE = 34.0
  Se   3    (CENTRE  3)  -1.77812268 -3.08037453  0.00000000  CHARGE = 34.0
  Se   4    (CENTRE  4)   3.55647213  0.00000000  0.00000000  CHARGE = 34.0
CENTRE ASSIGNMENTS    1  1  1  1  1  1  1  1  1  1  1  1  1  1  1  1  1  1  1  1
CENTRE ASSIGNMENTS    1  1  1  1  1  1  1  1  1  1  1  1  1  1  1  1  1  1  1  1
CENTRE ASSIGNMENTS    1  1  1  1  1  1  1  1  1  1  1  1  1  1  1  1  1  1  1  1
CENTRE ASSIGNMENTS    1  1  1  1  1  1  1  1  1  1  1  1  1  1  1  2  2  2  2  2
CENTRE ASSIGNMENTS    2  2  2  2  2  2  2  2  2  2  2  2  2  2  2  2  2  2  2  2
CENTRE ASSIGNMENTS    2  2  2  2  2  2  2  2  2  2  2  2  2  2  2  2  2  2  2  2
CENTRE ASSIGNMENTS    2  2  2  2  2  2  2  2  2  2  2  2  2  2  2  2  2  2  2  2
CENTRE ASSIGNMENTS    2  2  2  2  2  2  2  2  2  2  2  2  2  2  2  2  2  2  2  2
CENTRE ASSIGNMENTS    2  2  2  2  2  2  2  2  2  2  2  2  2  2  2  2  2  2  2  2
CENTRE ASSIGNMENTS    2  2  2  2  2  2  2  2  2  2  2  2  2  2  2  2  2  2  2  2
CENTRE ASSIGNMENTS    2  2  2  2  2  2  2  2  2  2  2  2  2  2  2  2  2  2  2  2
CENTRE ASSIGNMENTS    2  2  2  2  2  2  2  2  2  2  2  2  2  2  2  2  2  2  2  2
CENTRE ASSIGNMENTS    2  2  2  2  2  2  2  2  2  2  2  2  2  2  2  2  2  2  2  2
CENTRE ASSIGNMENTS    2  2  2  2  2  2  2  2  2  2  2  2  2  2  2  2  2  2  2  2
CENTRE ASSIGNMENTS    2  2  2  2  2  2  2  2  2  2  2  2  2  2  2  2  2  2  2  2
CENTRE ASSIGNMENTS    2  2  2  2  2  2  2  2  2  2  2  2  2  2  2  2  2  2  2  2
CENTRE ASSIGNMENTS    2  2  2  2  2  2  2  2  2  2  2  2  2  2  2  2  2  2  3  3
CENTRE ASSIGNMENTS    3  3  3  3  3  3  3  3  3  3  3  3  3  3  3  3  3  3  3  3
CENTRE ASSIGNMENTS    3  3  3  3  3  3  3  3  3  3  3  3  3  3  3  3  3  3  3  3
CENTRE ASSIGNMENTS    3  3  3  3  3  3  3  3  3  3  3  3  3  3  3  3  3  3  3  3
CENTRE ASSIGNMENTS    3  3  3  3  3  3  3  3  3  3  3  3  3  3  3  3  3  3  3  3
CENTRE ASSIGNMENTS    3  3  3  3  3  3  3  3  3  3  3  3  3  3  3  3  3  3  3  3
CENTRE ASSIGNMENTS    3  3  3  3  3  3  3  3  3  3  3  3  3  3  3  3  3  3  3  3
CENTRE ASSIGNMENTS    3  3  3  3  3  3  3  3  3  3  3  3  3  3  3  3  3  3  3  3
CENTRE ASSIGNMENTS    3  3  3  3  3  3  3  3  3  3  3  3  3  3  3  3  3  3  3  3
CENTRE ASSIGNMENTS    3  3  3  3  3  3  3  3  3  3  3  3  3  3  3  3  3  3  3  3
CENTRE ASSIGNMENTS    3  3  3  3  3  3  3  3  3  3  3  3  3  3  3  3  3  3  3  3
CENTRE ASSIGNMENTS    3  3  3  3  3  3  3  3  3  3  3  3  3  3  3  3  3  3  3  3
CENTRE ASSIGNMENTS    3  3  3  3  3  3  3  3  3  3  3  3  3  3  3  3  3  3  3  3
CENTRE ASSIGNMENTS    3  3  3  3  3  3  3  3  3  3  3  3  3  3  3  3  3  3  3  3
CENTRE ASSIGNMENTS    3  4  4  4  4  4  4  4  4  4  4  4  4  4  4  4  4  4  4  4
CENTRE ASSIGNMENTS    4  4  4  4  4  4  4  4  4  4  4  4  4  4  4  4  4  4  4  4
CENTRE ASSIGNMENTS    4  4  4  4  4  4  4  4  4  4  4  4  4  4  4  4  4  4  4  4
CENTRE ASSIGNMENTS    4  4  4  4  4  4  4  4  4  4  4  4  4  4  4  4  4  4  4  4
CENTRE ASSIGNMENTS    4  4  4  4  4  4  4  4  4  4  4  4  4  4  4  4  4  4  4  4
CENTRE ASSIGNMENTS    4  4  4  4  4  4  4  4  4  4  4  4  4  4  4  4  4  4  4  4
CENTRE ASSIGNMENTS    4  4  4  4  4  4  4  4  4  4  4  4  4  4  4  4  4  4  4  4
CENTRE ASSIGNMENTS    4  4  4  4  4  4  4  4  4  4  4  4  4  4  4  4  4  4  4  4
CENTRE ASSIGNMENTS    4  4  4  4  4  4  4  4  4  4  4  4  4  4  4  4  4  4  4  4
CENTRE ASSIGNMENTS    4  4  4  4  4  4  4  4  4  4  4  4  4  4  4  4  4  4  4  4
CENTRE ASSIGNMENTS    4  4  4  4  4  4  4  4  4  4  4  4  4  4  4  4  4  4  4  4
CENTRE ASSIGNMENTS    4  4  4  4  4  4  4  4  4  4  4  4  4  4  4  4  4  4  4  4
CENTRE ASSIGNMENTS    4  4  4  4  4  4  4  4  4  4  4  4  4  4  4  4  4  4  4  4
CENTRE ASSIGNMENTS    4  4  4  4
TYPE ASSIGNMENTS      1  1  1  1  1  1  1  1  1  1  1  1  1  1  1  1  1  1  1  2
TYPE ASSIGNMENTS      2  2  3  3  3  4  4  4  2  3  4  2  3  4  2  3  4  5  6  7
TYPE ASSIGNMENTS      8  9 10  5  6  7  8  9 10  5  6  7  8  9 10 11 12 13 17 14
TYPE ASSIGNMENTS     15 18 19 16 20 11 12 13 17 14 15 18 19 16 20  1  1  1  1  1
TYPE ASSIGNMENTS      1  1  1  1  1  1  1  1  1  1  1  1  1  1  1  1  1  1  1  1
TYPE ASSIGNMENTS      1  1  1  1  1  1  1  1  1  1  1  1  1  1  1  1  1  1  1  1
TYPE ASSIGNMENTS      1  1  1  1  1  1  1  1  1  1  1  1  1  1  1  1  1  1  1  1
TYPE ASSIGNMENTS      1  1  1  1  1  1  1  1  1  1  2  2  2  2  2  2  2  2  2  2
TYPE ASSIGNMENTS      2  3  3  3  3  3  3  3  3  3  3  3  4  4  4  4  4  4  4  4
TYPE ASSIGNMENTS      4  4  4  2  2  2  2  2  2  2  2  2  2  2  3  3  3  3  3  3
TYPE ASSIGNMENTS      3  3  3  3  3  4  4  4  4  4  4  4  4  4  4  4  2  2  2  2
TYPE ASSIGNMENTS      2  2  2  2  2  2  2  3  3  3  3  3  3  3  3  3  3  3  4  4
TYPE ASSIGNMENTS      4  4  4  4  4  4  4  4  4  2  3  4  2  3  4  2  3  4  5  5
TYPE ASSIGNMENTS      5  5  5  5  5  6  6  6  6  6  6  6  7  7  7  7  7  7  7  8
TYPE ASSIGNMENTS      8  8  8  8  8  8  9  9  9  9  9  9  9 10 10 10 10 10 10 10
TYPE ASSIGNMENTS      5  6  7  8  9 10  5  6  7  8  9 10  5  6  7  8  9 10 11 12
TYPE ASSIGNMENTS     13 17 14 15 18 19 16 20 11 12 13 17 14 15 18 19 16 20  1  1
TYPE ASSIGNMENTS      1  1  1  1  1  1  1  1  1  1  1  1  1  1  1  1  1  1  1  1
TYPE ASSIGNMENTS      1  1  1  1  1  1  1  1  1  1  1  1  1  1  1  1  1  1  1  1
TYPE ASSIGNMENTS      1  1  1  1  1  1  1  1  1  1  1  1  1  1  1  1  1  1  1  1
TYPE ASSIGNMENTS      1  1  1  1  1  1  1  1  1  1  1  1  1  2  2  2  2  2  2  2
TYPE ASSIGNMENTS      2  2  2  2  3  3  3  3  3  3  3  3  3  3  3  4  4  4  4  4
TYPE ASSIGNMENTS      4  4  4  4  4  4  2  2  2  2  2  2  2  2  2  2  2  3  3  3
TYPE ASSIGNMENTS      3  3  3  3  3  3  3  3  4  4  4  4  4  4  4  4  4  4  4  2
TYPE ASSIGNMENTS      2  2  2  2  2  2  2  2  2  2  3  3  3  3  3  3  3  3  3  3
TYPE ASSIGNMENTS      3  4  4  4  4  4  4  4  4  4  4  4  2  3  4  2  3  4  2  3
TYPE ASSIGNMENTS      4  5  5  5  5  5  5  5  6  6  6  6  6  6  6  7  7  7  7  7
TYPE ASSIGNMENTS      7  7  8  8  8  8  8  8  8  9  9  9  9  9  9  9 10 10 10 10
TYPE ASSIGNMENTS     10 10 10  5  6  7  8  9 10  5  6  7  8  9 10  5  6  7  8  9
TYPE ASSIGNMENTS     10 11 12 13 17 14 15 18 19 16 20 11 12 13 17 14 15 18 19 16
TYPE ASSIGNMENTS     20  1  1  1  1  1  1  1  1  1  1  1  1  1  1  1  1  1  1  1
TYPE ASSIGNMENTS      1  1  1  1  1  1  1  1  1  1  1  1  1  1  1  1  1  1  1  1
TYPE ASSIGNMENTS      1  1  1  1  1  1  1  1  1  1  1  1  1  1  1  1  1  1  1  1
TYPE ASSIGNMENTS      1  1  1  1  1  1  1  1  1  1  1  1  1  1  1  1  2  2  2  2
TYPE ASSIGNMENTS      2  2  2  2  2  2  2  3  3  3  3  3  3  3  3  3  3  3  4  4
TYPE ASSIGNMENTS      4  4  4  4  4  4  4  4  4  2  2  2  2  2  2  2  2  2  2  2
TYPE ASSIGNMENTS      3  3  3  3  3  3  3  3  3  3  3  4  4  4  4  4  4  4  4  4
TYPE ASSIGNMENTS      4  4  2  2  2  2  2  2  2  2  2  2  2  3  3  3  3  3  3  3
TYPE ASSIGNMENTS      3  3  3  3  4  4  4  4  4  4  4  4  4  4  4  2  3  4  2  3
TYPE ASSIGNMENTS      4  2  3  4  5  5  5  5  5  5  5  6  6  6  6  6  6  6  7  7
TYPE ASSIGNMENTS      7  7  7  7  7  8  8  8  8  8  8  8  9  9  9  9  9  9  9 10
TYPE ASSIGNMENTS     10 10 10 10 10 10  5  6  7  8  9 10  5  6  7  8  9 10  5  6
TYPE ASSIGNMENTS      7  8  9 10 11 12 13 17 14 15 18 19 16 20 11 12 13 17 14 15
TYPE ASSIGNMENTS     18 19 16 20
EXPONENTS  0.8236000D+04 0.1235000D+04 0.2808000D+03 0.7927000D+02 0.2559000D+02
EXPONENTS  0.8997000D+01 0.3319000D+01 0.3643000D+00 0.8236000D+04 0.1235000D+04
EXPONENTS  0.2808000D+03 0.7927000D+02 0.2559000D+02 0.8997000D+01 0.3319000D+01
EXPONENTS  0.3643000D+00 0.9059000D+00 0.1285000D+00 0.4402000D-01 0.1871000D+02
EXPONENTS  0.4133000D+01 0.1200000D+01 0.1871000D+02 0.4133000D+01 0.1200000D+01
EXPONENTS  0.1871000D+02 0.4133000D+01 0.1200000D+01 0.3827000D+00 0.3827000D+00
EXPONENTS  0.3827000D+00 0.1209000D+00 0.1209000D+00 0.1209000D+00 0.3569000D-01
EXPONENTS  0.3569000D-01 0.3569000D-01 0.1097000D+01 0.1097000D+01 0.1097000D+01
EXPONENTS  0.1097000D+01 0.1097000D+01 0.1097000D+01 0.3180000D+00 0.3180000D+00
EXPONENTS  0.3180000D+00 0.3180000D+00 0.3180000D+00 0.3180000D+00 0.1000000D+00
EXPONENTS  0.1000000D+00 0.1000000D+00 0.1000000D+00 0.1000000D+00 0.1000000D+00
EXPONENTS  0.7610000D+00 0.7610000D+00 0.7610000D+00 0.7610000D+00 0.7610000D+00
EXPONENTS  0.7610000D+00 0.7610000D+00 0.7610000D+00 0.7610000D+00 0.7610000D+00
EXPONENTS  0.2680000D+00 0.2680000D+00 0.2680000D+00 0.2680000D+00 0.2680000D+00
EXPONENTS  0.2680000D+00 0.2680000D+00 0.2680000D+00 0.2680000D+00 0.2680000D+00
EXPONENTS  0.9563600D+07 0.1432100D+07 0.3259100D+06 0.9231200D+05 0.3011600D+05
EXPONENTS  0.1087200D+05 0.4240100D+04 0.1758400D+04 0.7665900D+03 0.3484300D+03
EXPONENTS  0.1640300D+03 0.7914200D+02 0.3552400D+02 0.1730500D+02 0.8378400D+01
EXPONENTS  0.3740500D+01 0.1689000D+01 0.2552000D+00 0.9563600D+07 0.1432100D+07
EXPONENTS  0.3259100D+06 0.9231200D+05 0.3011600D+05 0.1087200D+05 0.4240100D+04
EXPONENTS  0.1758400D+04 0.7665900D+03 0.3484300D+03 0.1640300D+03 0.7914200D+02
EXPONENTS  0.3552400D+02 0.1730500D+02 0.8378400D+01 0.3740500D+01 0.1689000D+01
EXPONENTS  0.2552000D+00 0.9563600D+07 0.1432100D+07 0.3259100D+06 0.9231200D+05
EXPONENTS  0.3011600D+05 0.1087200D+05 0.4240100D+04 0.1758400D+04 0.7665900D+03
EXPONENTS  0.3484300D+03 0.1640300D+03 0.7914200D+02 0.3552400D+02 0.1730500D+02
EXPONENTS  0.8378400D+01 0.3740500D+01 0.1689000D+01 0.2552000D+00 0.9563600D+07
EXPONENTS  0.1432100D+07 0.3259100D+06 0.9231200D+05 0.3011600D+05 0.1087200D+05
EXPONENTS  0.4240100D+04 0.1758400D+04 0.7665900D+03 0.3484300D+03 0.1640300D+03
EXPONENTS  0.7914200D+02 0.3552400D+02 0.1730500D+02 0.8378400D+01 0.3740500D+01
EXPONENTS  0.1689000D+01 0.2552000D+00 0.5092700D+00 0.1065100D+00 0.3920100D-01
EXPONENTS  0.8004300D+04 0.1896900D+04 0.6147100D+03 0.2335000D+03 0.9785600D+02
EXPONENTS  0.4351400D+02 0.2006300D+02 0.9112700D+01 0.4106300D+01 0.1794900D+01
EXPONENTS  0.2461500D+00 0.8004300D+04 0.1896900D+04 0.6147100D+03 0.2335000D+03
EXPONENTS  0.9785600D+02 0.4351400D+02 0.2006300D+02 0.9112700D+01 0.4106300D+01
EXPONENTS  0.1794900D+01 0.2461500D+00 0.8004300D+04 0.1896900D+04 0.6147100D+03
EXPONENTS  0.2335000D+03 0.9785600D+02 0.4351400D+02 0.2006300D+02 0.9112700D+01
EXPONENTS  0.4106300D+01 0.1794900D+01 0.2461500D+00 0.8004300D+04 0.1896900D+04
EXPONENTS  0.6147100D+03 0.2335000D+03 0.9785600D+02 0.4351400D+02 0.2006300D+02
EXPONENTS  0.9112700D+01 0.4106300D+01 0.1794900D+01 0.2461500D+00 0.8004300D+04
EXPONENTS  0.1896900D+04 0.6147100D+03 0.2335000D+03 0.9785600D+02 0.4351400D+02
EXPONENTS  0.2006300D+02 0.9112700D+01 0.4106300D+01 0.1794900D+01 0.2461500D+00
EXPONENTS  0.8004300D+04 0.1896900D+04 0.6147100D+03 0.2335000D+03 0.9785600D+02
EXPONENTS  0.4351400D+02 0.2006300D+02 0.9112700D+01 0.4106300D+01 0.1794900D+01
EXPONENTS  0.2461500D+00 0.8004300D+04 0.1896900D+04 0.6147100D+03 0.2335000D+03
EXPONENTS  0.9785600D+02 0.4351400D+02 0.2006300D+02 0.9112700D+01 0.4106300D+01
EXPONENTS  0.1794900D+01 0.2461500D+00 0.8004300D+04 0.1896900D+04 0.6147100D+03
EXPONENTS  0.2335000D+03 0.9785600D+02 0.4351400D+02 0.2006300D+02 0.9112700D+01
EXPONENTS  0.4106300D+01 0.1794900D+01 0.2461500D+00 0.8004300D+04 0.1896900D+04
EXPONENTS  0.6147100D+03 0.2335000D+03 0.9785600D+02 0.4351400D+02 0.2006300D+02
EXPONENTS  0.9112700D+01 0.4106300D+01 0.1794900D+01 0.2461500D+00 0.6243200D+00
EXPONENTS  0.6243200D+00 0.6243200D+00 0.8891700D-01 0.8891700D-01 0.8891700D-01
EXPONENTS  0.3025100D-01 0.3025100D-01 0.3025100D-01 0.3618500D+03 0.1085500D+03
EXPONENTS  0.4143300D+02 0.1757900D+02 0.7862700D+01 0.3518000D+01 0.1534800D+01
EXPONENTS  0.3618500D+03 0.1085500D+03 0.4143300D+02 0.1757900D+02 0.7862700D+01
EXPONENTS  0.3518000D+01 0.1534800D+01 0.3618500D+03 0.1085500D+03 0.4143300D+02
EXPONENTS  0.1757900D+02 0.7862700D+01 0.3518000D+01 0.1534800D+01 0.3618500D+03
EXPONENTS  0.1085500D+03 0.4143300D+02 0.1757900D+02 0.7862700D+01 0.3518000D+01
EXPONENTS  0.1534800D+01 0.3618500D+03 0.1085500D+03 0.4143300D+02 0.1757900D+02
EXPONENTS  0.7862700D+01 0.3518000D+01 0.1534800D+01 0.3618500D+03 0.1085500D+03
EXPONENTS  0.4143300D+02 0.1757900D+02 0.7862700D+01 0.3518000D+01 0.1534800D+01
EXPONENTS  0.6081300D+00 0.6081300D+00 0.6081300D+00 0.6081300D+00 0.6081300D+00
EXPONENTS  0.6081300D+00 0.2220000D+00 0.2220000D+00 0.2220000D+00 0.2220000D+00
EXPONENTS  0.2220000D+00 0.2220000D+00 0.8370000D-01 0.8370000D-01 0.8370000D-01
EXPONENTS  0.8370000D-01 0.8370000D-01 0.8370000D-01 0.4620000D+00 0.4620000D+00
EXPONENTS  0.4620000D+00 0.4620000D+00 0.4620000D+00 0.4620000D+00 0.4620000D+00
EXPONENTS  0.4620000D+00 0.4620000D+00 0.4620000D+00 0.1880000D+00 0.1880000D+00
EXPONENTS  0.1880000D+00 0.1880000D+00 0.1880000D+00 0.1880000D+00 0.1880000D+00
EXPONENTS  0.1880000D+00 0.1880000D+00 0.1880000D+00 0.9563600D+07 0.1432100D+07
EXPONENTS  0.3259100D+06 0.9231200D+05 0.3011600D+05 0.1087200D+05 0.4240100D+04
EXPONENTS  0.1758400D+04 0.7665900D+03 0.3484300D+03 0.1640300D+03 0.7914200D+02
EXPONENTS  0.3552400D+02 0.1730500D+02 0.8378400D+01 0.3740500D+01 0.1689000D+01
EXPONENTS  0.2552000D+00 0.9563600D+07 0.1432100D+07 0.3259100D+06 0.9231200D+05
EXPONENTS  0.3011600D+05 0.1087200D+05 0.4240100D+04 0.1758400D+04 0.7665900D+03
EXPONENTS  0.3484300D+03 0.1640300D+03 0.7914200D+02 0.3552400D+02 0.1730500D+02
EXPONENTS  0.8378400D+01 0.3740500D+01 0.1689000D+01 0.2552000D+00 0.9563600D+07
EXPONENTS  0.1432100D+07 0.3259100D+06 0.9231200D+05 0.3011600D+05 0.1087200D+05
EXPONENTS  0.4240100D+04 0.1758400D+04 0.7665900D+03 0.3484300D+03 0.1640300D+03
EXPONENTS  0.7914200D+02 0.3552400D+02 0.1730500D+02 0.8378400D+01 0.3740500D+01
EXPONENTS  0.1689000D+01 0.2552000D+00 0.9563600D+07 0.1432100D+07 0.3259100D+06
EXPONENTS  0.9231200D+05 0.3011600D+05 0.1087200D+05 0.4240100D+04 0.1758400D+04
EXPONENTS  0.7665900D+03 0.3484300D+03 0.1640300D+03 0.7914200D+02 0.3552400D+02
EXPONENTS  0.1730500D+02 0.8378400D+01 0.3740500D+01 0.1689000D+01 0.2552000D+00
EXPONENTS  0.5092700D+00 0.1065100D+00 0.3920100D-01 0.8004300D+04 0.1896900D+04
EXPONENTS  0.6147100D+03 0.2335000D+03 0.9785600D+02 0.4351400D+02 0.2006300D+02
EXPONENTS  0.9112700D+01 0.4106300D+01 0.1794900D+01 0.2461500D+00 0.8004300D+04
EXPONENTS  0.1896900D+04 0.6147100D+03 0.2335000D+03 0.9785600D+02 0.4351400D+02
EXPONENTS  0.2006300D+02 0.9112700D+01 0.4106300D+01 0.1794900D+01 0.2461500D+00
EXPONENTS  0.8004300D+04 0.1896900D+04 0.6147100D+03 0.2335000D+03 0.9785600D+02
EXPONENTS  0.4351400D+02 0.2006300D+02 0.9112700D+01 0.4106300D+01 0.1794900D+01
EXPONENTS  0.2461500D+00 0.8004300D+04 0.1896900D+04 0.6147100D+03 0.2335000D+03
EXPONENTS  0.9785600D+02 0.4351400D+02 0.2006300D+02 0.9112700D+01 0.4106300D+01
EXPONENTS  0.1794900D+01 0.2461500D+00 0.8004300D+04 0.1896900D+04 0.6147100D+03
EXPONENTS  0.2335000D+03 0.9785600D+02 0.4351400D+02 0.2006300D+02 0.9112700D+01
EXPONENTS  0.4106300D+01 0.1794900D+01 0.2461500D+00 0.8004300D+04 0.1896900D+04
EXPONENTS  0.6147100D+03 0.2335000D+03 0.9785600D+02 0.4351400D+02 0.2006300D+02
EXPONENTS  0.9112700D+01 0.4106300D+01 0.1794900D+01 0.2461500D+00 0.8004300D+04
EXPONENTS  0.1896900D+04 0.6147100D+03 0.2335000D+03 0.9785600D+02 0.4351400D+02
EXPONENTS  0.2006300D+02 0.9112700D+01 0.4106300D+01 0.1794900D+01 0.2461500D+00
EXPONENTS  0.8004300D+04 0.1896900D+04 0.6147100D+03 0.2335000D+03 0.9785600D+02
EXPONENTS  0.4351400D+02 0.2006300D+02 0.9112700D+01 0.4106300D+01 0.1794900D+01
EXPONENTS  0.2461500D+00 0.8004300D+04 0.1896900D+04 0.6147100D+03 0.2335000D+03
EXPONENTS  0.9785600D+02 0.4351400D+02 0.2006300D+02 0.9112700D+01 0.4106300D+01
EXPONENTS  0.1794900D+01 0.2461500D+00 0.6243200D+00 0.6243200D+00 0.6243200D+00
EXPONENTS  0.8891700D-01 0.8891700D-01 0.8891700D-01 0.3025100D-01 0.3025100D-01
EXPONENTS  0.3025100D-01 0.3618500D+03 0.1085500D+03 0.4143300D+02 0.1757900D+02
EXPONENTS  0.7862700D+01 0.3518000D+01 0.1534800D+01 0.3618500D+03 0.1085500D+03
EXPONENTS  0.4143300D+02 0.1757900D+02 0.7862700D+01 0.3518000D+01 0.1534800D+01
EXPONENTS  0.3618500D+03 0.1085500D+03 0.4143300D+02 0.1757900D+02 0.7862700D+01
EXPONENTS  0.3518000D+01 0.1534800D+01 0.3618500D+03 0.1085500D+03 0.4143300D+02
EXPONENTS  0.1757900D+02 0.7862700D+01 0.3518000D+01 0.1534800D+01 0.3618500D+03
EXPONENTS  0.1085500D+03 0.4143300D+02 0.1757900D+02 0.7862700D+01 0.3518000D+01
EXPONENTS  0.1534800D+01 0.3618500D+03 0.1085500D+03 0.4143300D+02 0.1757900D+02
EXPONENTS  0.7862700D+01 0.3518000D+01 0.1534800D+01 0.6081300D+00 0.6081300D+00
EXPONENTS  0.6081300D+00 0.6081300D+00 0.6081300D+00 0.6081300D+00 0.2220000D+00
EXPONENTS  0.2220000D+00 0.2220000D+00 0.2220000D+00 0.2220000D+00 0.2220000D+00
EXPONENTS  0.8370000D-01 0.8370000D-01 0.8370000D-01 0.8370000D-01 0.8370000D-01
EXPONENTS  0.8370000D-01 0.4620000D+00 0.4620000D+00 0.4620000D+00 0.4620000D+00
EXPONENTS  0.4620000D+00 0.4620000D+00 0.4620000D+00 0.4620000D+00 0.4620000D+00
EXPONENTS  0.4620000D+00 0.1880000D+00 0.1880000D+00 0.1880000D+00 0.1880000D+00
EXPONENTS  0.1880000D+00 0.1880000D+00 0.1880000D+00 0.1880000D+00 0.1880000D+00
EXPONENTS  0.1880000D+00 0.9563600D+07 0.1432100D+07 0.3259100D+06 0.9231200D+05
EXPONENTS  0.3011600D+05 0.1087200D+05 0.4240100D+04 0.1758400D+04 0.7665900D+03
EXPONENTS  0.3484300D+03 0.1640300D+03 0.7914200D+02 0.3552400D+02 0.1730500D+02
EXPONENTS  0.8378400D+01 0.3740500D+01 0.1689000D+01 0.2552000D+00 0.9563600D+07
EXPONENTS  0.1432100D+07 0.3259100D+06 0.9231200D+05 0.3011600D+05 0.1087200D+05
EXPONENTS  0.4240100D+04 0.1758400D+04 0.7665900D+03 0.3484300D+03 0.1640300D+03
EXPONENTS  0.7914200D+02 0.3552400D+02 0.1730500D+02 0.8378400D+01 0.3740500D+01
EXPONENTS  0.1689000D+01 0.2552000D+00 0.9563600D+07 0.1432100D+07 0.3259100D+06
EXPONENTS  0.9231200D+05 0.3011600D+05 0.1087200D+05 0.4240100D+04 0.1758400D+04
EXPONENTS  0.7665900D+03 0.3484300D+03 0.1640300D+03 0.7914200D+02 0.3552400D+02
EXPONENTS  0.1730500D+02 0.8378400D+01 0.3740500D+01 0.1689000D+01 0.2552000D+00
EXPONENTS  0.9563600D+07 0.1432100D+07 0.3259100D+06 0.9231200D+05 0.3011600D+05
EXPONENTS  0.1087200D+05 0.4240100D+04 0.1758400D+04 0.7665900D+03 0.3484300D+03
EXPONENTS  0.1640300D+03 0.7914200D+02 0.3552400D+02 0.1730500D+02 0.8378400D+01
EXPONENTS  0.3740500D+01 0.1689000D+01 0.2552000D+00 0.5092700D+00 0.1065100D+00
EXPONENTS  0.3920100D-01 0.8004300D+04 0.1896900D+04 0.6147100D+03 0.2335000D+03
EXPONENTS  0.9785600D+02 0.4351400D+02 0.2006300D+02 0.9112700D+01 0.4106300D+01
EXPONENTS  0.1794900D+01 0.2461500D+00 0.8004300D+04 0.1896900D+04 0.6147100D+03
EXPONENTS  0.2335000D+03 0.9785600D+02 0.4351400D+02 0.2006300D+02 0.9112700D+01
EXPONENTS  0.4106300D+01 0.1794900D+01 0.2461500D+00 0.8004300D+04 0.1896900D+04
EXPONENTS  0.6147100D+03 0.2335000D+03 0.9785600D+02 0.4351400D+02 0.2006300D+02
EXPONENTS  0.9112700D+01 0.4106300D+01 0.1794900D+01 0.2461500D+00 0.8004300D+04
EXPONENTS  0.1896900D+04 0.6147100D+03 0.2335000D+03 0.9785600D+02 0.4351400D+02
EXPONENTS  0.2006300D+02 0.9112700D+01 0.4106300D+01 0.1794900D+01 0.2461500D+00
EXPONENTS  0.8004300D+04 0.1896900D+04 0.6147100D+03 0.2335000D+03 0.9785600D+02
EXPONENTS  0.4351400D+02 0.2006300D+02 0.9112700D+01 0.4106300D+01 0.1794900D+01
EXPONENTS  0.2461500D+00 0.8004300D+04 0.1896900D+04 0.6147100D+03 0.2335000D+03
EXPONENTS  0.9785600D+02 0.4351400D+02 0.2006300D+02 0.9112700D+01 0.4106300D+01
EXPONENTS  0.1794900D+01 0.2461500D+00 0.8004300D+04 0.1896900D+04 0.6147100D+03
EXPONENTS  0.2335000D+03 0.9785600D+02 0.4351400D+02 0.2006300D+02 0.9112700D+01
EXPONENTS  0.4106300D+01 0.1794900D+01 0.2461500D+00 0.8004300D+04 0.1896900D+04
EXPONENTS  0.6147100D+03 0.2335000D+03 0.9785600D+02 0.4351400D+02 0.2006300D+02
EXPONENTS  0.9112700D+01 0.4106300D+01 0.1794900D+01 0.2461500D+00 0.8004300D+04
EXPONENTS  0.1896900D+04 0.6147100D+03 0.2335000D+03 0.9785600D+02 0.4351400D+02
EXPONENTS  0.2006300D+02 0.9112700D+01 0.4106300D+01 0.1794900D+01 0.2461500D+00
EXPONENTS  0.6243200D+00 0.6243200D+00 0.6243200D+00 0.8891700D-01 0.8891700D-01
EXPONENTS  0.8891700D-01 0.3025100D-01 0.3025100D-01 0.3025100D-01 0.3618500D+03
EXPONENTS  0.1085500D+03 0.4143300D+02 0.1757900D+02 0.7862700D+01 0.3518000D+01
EXPONENTS  0.1534800D+01 0.3618500D+03 0.1085500D+03 0.4143300D+02 0.1757900D+02
EXPONENTS  0.7862700D+01 0.3518000D+01 0.1534800D+01 0.3618500D+03 0.1085500D+03
EXPONENTS  0.4143300D+02 0.1757900D+02 0.7862700D+01 0.3518000D+01 0.1534800D+01
EXPONENTS  0.3618500D+03 0.1085500D+03 0.4143300D+02 0.1757900D+02 0.7862700D+01
EXPONENTS  0.3518000D+01 0.1534800D+01 0.3618500D+03 0.1085500D+03 0.4143300D+02
EXPONENTS  0.1757900D+02 0.7862700D+01 0.3518000D+01 0.1534800D+01 0.3618500D+03
EXPONENTS  0.1085500D+03 0.4143300D+02 0.1757900D+02 0.7862700D+01 0.3518000D+01
EXPONENTS  0.1534800D+01 0.6081300D+00 0.6081300D+00 0.6081300D+00 0.6081300D+00
EXPONENTS  0.6081300D+00 0.6081300D+00 0.2220000D+00 0.2220000D+00 0.2220000D+00
EXPONENTS  0.2220000D+00 0.2220000D+00 0.2220000D+00 0.8370000D-01 0.8370000D-01
EXPONENTS  0.8370000D-01 0.8370000D-01 0.8370000D-01 0.8370000D-01 0.4620000D+00
EXPONENTS  0.4620000D+00 0.4620000D+00 0.4620000D+00 0.4620000D+00 0.4620000D+00
EXPONENTS  0.4620000D+00 0.4620000D+00 0.4620000D+00 0.4620000D+00 0.1880000D+00
EXPONENTS  0.1880000D+00 0.1880000D+00 0.1880000D+00 0.1880000D+00 0.1880000D+00
EXPONENTS  0.1880000D+00 0.1880000D+00 0.1880000D+00 0.1880000D+00
MO    1     MO 0.0        OCC NO =    2.0000000  ORB. ENERGY = -460.475298
 -0.76232216D-10 -0.14211418D-09 -0.24019800D-09 -0.36109628D-09 -0.44364850D-09
 -0.37473208D-09 -0.14133515D-09  0.69947556D-12  0.53998749D-10  0.10110270D-09
  0.17213599D-09  0.26626820D-09  0.35066585D-09  0.36436428D-09  0.23153715D-09
 -0.15517081D-09 -0.12079179D-09  0.86122911D-09  0.24726347D-09  0.74381495D-10
  0.69737380D-10  0.49657169D-10 -0.45789246D-06 -0.42930328D-06 -0.30568951D-06
 -0.25995815D-15 -0.24372729D-15 -0.17354835D-15 -0.66148052D-10  0.40726802D-06
  0.19687606D-16 -0.20364580D-09  0.12541097D-05 -0.21910898D-16  0.10610604D-12
 -0.58083200D-09  0.43474590D-17 -0.20061895D-10 -0.91580991D-10  0.11164289D-09
  0.43975287D-06  0.24467112D-20 -0.46402800D-16  0.67261854D-11  0.11362124D-09
 -0.12034743D-09 -0.65730083D-06  0.30818285D-20 -0.25938348D-19 -0.16479607D-10
  0.30800187D-10 -0.14320580D-10 -0.29076598D-06  0.68415725D-20  0.16702618D-20
  0.29409288D-10  0.44020815D-07  0.50736852D-20 -0.11684407D-09  0.44030244D-07
 -0.31786445D-20  0.28616205D-10 -0.17609269D-06 -0.12042411D-19  0.51475055D-20
  0.16871298D-10  0.25220537D-07  0.20005936D-20 -0.66968801D-10  0.25020797D-07
 -0.34898371D-20  0.16354907D-10 -0.10068241D-06 -0.25119436D-20 -0.18462463D-20
  0.54616487D+00  0.10204836D+01  0.17699010D+01  0.28995500D+01  0.45404650D+01
  0.68185676D+01  0.97252297D+01  0.12848999D+02  0.14818054D+02  0.13336724D+02
  0.74822337D+01  0.18088700D+01  0.85876182D-01 -0.14695996D-02  0.41333504D-03
 -0.16107600D-03  0.15235951D-04  0.15022969D-05 -0.10144643D-06 -0.18681518D-06
 -0.32426422D-06 -0.53108405D-06 -0.83590185D-06 -0.12616832D-05 -0.18391665D-05
 -0.25255620D-05 -0.32074316D-05 -0.34542004D-05 -0.27556961D-05 -0.61725396D-06
  0.16505232D-05  0.14677680D-05  0.28666105D-06  0.79411009D-08  0.57506753D-09
  0.11744452D-10 -0.82705682D-07 -0.14931745D-06 -0.25993325D-06 -0.42565166D-06
 -0.67106409D-06 -0.10126172D-05 -0.14820407D-05 -0.20420573D-05 -0.26307170D-05
 -0.28955921D-05 -0.24376190D-05 -0.58048432D-06  0.19552944D-05  0.26126832D-05
  0.32097347D-06 -0.11215249D-05 -0.49508029D-06  0.24569944D-08  0.11623695D-07
  0.25182606D-07  0.42870087D-07  0.69979129D-07  0.11032510D-06  0.16648677D-06
  0.24366752D-06  0.33612407D-06  0.43356491D-06  0.47931295D-06  0.40594253D-06
  0.98606138D-07 -0.34210520D-06 -0.48284226D-06 -0.57609732D-07  0.27075249D-06
  0.21642744D-06 -0.81992952D-07 -0.31376039D-05 -0.18830720D-05 -0.44530297D-07
  0.62873561D-04  0.90112394D-04  0.11899687D-03  0.13678091D-03  0.12582988D-03
  0.80496824D-04  0.27863073D-04  0.31324757D-05  0.39852726D-07  0.69057887D-08
  0.70569645D-10 -0.10958481D-03 -0.15706044D-03 -0.20740434D-03 -0.23840083D-03
 -0.21931386D-03 -0.14030108D-03 -0.48563647D-04 -0.54597152D-05 -0.69460885D-07
 -0.12036371D-07 -0.12299861D-09  0.13272820D-16  0.19023029D-16  0.25120640D-16
  0.28874909D-16  0.26563111D-16  0.16993150D-16  0.58819883D-17  0.66127613D-18
  0.84130442D-20  0.14578352D-20  0.14897489D-22  0.36096602D-04  0.52066504D-04
  0.69345846D-04  0.82068259D-04  0.78864514D-04  0.54207834D-04  0.17067052D-04
 -0.82483523D-05 -0.84648060D-05 -0.21317523D-05  0.23242113D-08 -0.60163290D-04
 -0.86780806D-04 -0.11558080D-03 -0.13678563D-03 -0.13144585D-03 -0.90349824D-04
 -0.28446168D-04  0.13747776D-04  0.14108546D-04  0.35530556D-05 -0.38738328D-08
  0.95045983D-18  0.13709634D-17  0.18259459D-17  0.21609398D-17  0.20765820D-17
  0.14273468D-17  0.44939265D-18 -0.21718741D-18 -0.22288686D-18 -0.56131182D-19
  0.61198821D-22 -0.16989366D-04 -0.24629264D-04 -0.32689188D-04 -0.39011418D-04
 -0.37480712D-04 -0.26234500D-04 -0.79212742D-05  0.48490015D-05  0.52150146D-05
  0.14024880D-05 -0.52280178D-06  0.27829992D-04  0.40344778D-04  0.53547602D-04
  0.63903940D-04  0.61396516D-04  0.42974289D-04  0.12975705D-04 -0.79430670D-05
 -0.85426267D-05 -0.22973917D-05  0.85639270D-06  0.41748879D-18  0.60522807D-18
  0.80328890D-18  0.95864845D-18  0.92103358D-18  0.64467441D-18  0.19465371D-18
 -0.11915711D-18 -0.12815134D-18 -0.34464088D-19  0.12847088D-19  0.63930273D-06
 -0.10496487D-05 -0.83049389D-20 -0.12653318D-06  0.37287543D-06 -0.31327510D-20
  0.27661490D-09 -0.55183881D-10  0.27257279D-20 -0.84312756D-05 -0.87271759D-05
 -0.73017422D-05 -0.47116972D-05 -0.21165588D-05 -0.61800091D-06 -0.10426054D-06
  0.14951981D-04  0.15476729D-04  0.12948872D-04  0.83556995D-05  0.37534944D-05
  0.10959596D-05  0.18489511D-06 -0.65207051D-05 -0.67495529D-05 -0.56471298D-05
 -0.36440023D-05 -0.16369356D-05 -0.47795872D-06 -0.80634565D-07 -0.39208663D-04
 -0.40584713D-04 -0.33955900D-04 -0.21911198D-04 -0.98428095D-05 -0.28739411D-05
 -0.48485147D-06 -0.43012766D-17 -0.44522323D-17 -0.37250369D-17 -0.24037066D-17
 -0.10797779D-17 -0.31527766D-18 -0.53189273D-19  0.35624567D-17  0.36874831D-17
  0.30851964D-17  0.19908277D-17  0.89430704D-18  0.26112318D-18  0.44053081D-19
  0.59292570D-07 -0.14859159D-06  0.89299020D-07  0.30982706D-06  0.25765397D-19
  0.79369729D-20  0.24524783D-07 -0.94572162D-07  0.70047379D-07  0.20828601D-06
 -0.79614439D-20 -0.11931052D-19  0.11615197D-07 -0.22887091D-07  0.11271894D-07
  0.27513903D-07  0.25623265D-20 -0.64390534D-21  0.20729530D-07  0.32216934D-07
  0.94432679D-21 -0.11671289D-06  0.21759784D-08  0.36926554D-20  0.54524295D-07
 -0.98826780D-07 -0.65256358D-20  0.40975527D-20  0.32507975D-08 -0.14118793D-09
 -0.69893218D-21 -0.11152258D-07  0.13728756D-08 -0.99982628D-21  0.13998656D-08
 -0.94931185D-09  0.30966228D-20 -0.26559251D-20 -0.54585764D+00 -0.10199095D+01
 -0.17689054D+01 -0.28979189D+01 -0.45379108D+01 -0.68147319D+01 -0.97197589D+01
 -0.12841771D+02 -0.14809718D+02 -0.13329221D+02 -0.74780247D+01 -0.18078525D+01
 -0.85827873D-01  0.14687729D-02 -0.41310252D-03  0.16098539D-03 -0.15227380D-04
 -0.15014518D-05  0.10140492D-06  0.18673874D-06  0.32413155D-06  0.53086676D-06
  0.83555985D-06  0.12611670D-05  0.18384140D-05  0.25245287D-05  0.32061193D-05
  0.34527871D-05  0.27545687D-05  0.61700141D-06 -0.16498479D-05 -0.14671675D-05
 -0.28654377D-06 -0.79378519D-08 -0.57483224D-09 -0.11739647D-10  0.82636574D-07
  0.14919268D-06  0.25971605D-06  0.42529599D-06  0.67050335D-06  0.10117711D-05
  0.14808023D-05  0.20403510D-05  0.26285188D-05  0.28931726D-05  0.24355822D-05
  0.57999928D-06 -0.19536606D-05 -0.26105001D-05 -0.32070527D-06  0.11205878D-05
  0.49466661D-06 -0.24549414D-08 -0.11606992D-07 -0.25146419D-07 -0.42808484D-07
 -0.69878570D-07 -0.11016656D-06 -0.16624754D-06 -0.24331738D-06 -0.33564107D-06
 -0.43294189D-06 -0.47862419D-06 -0.40535920D-06 -0.98464443D-07  0.34161361D-06
  0.48214843D-06  0.57526948D-07 -0.27036342D-06 -0.21611644D-06  0.81875130D-07
  0.31358836D-05  0.18821044D-05  0.44420441D-07 -0.62838349D-04 -0.90061927D-04
 -0.11893023D-03 -0.13670430D-03 -0.12575941D-03 -0.80451743D-04 -0.27847468D-04
 -0.31307213D-05 -0.39830407D-07 -0.69019212D-08 -0.70530123D-10 -0.10952410D-03
 -0.15697344D-03 -0.20728945D-03 -0.23826877D-03 -0.21919238D-03 -0.14022337D-03
 -0.48536747D-04 -0.54566909D-05 -0.69422409D-07 -0.12029704D-07 -0.12293048D-09
 -0.23910946D-17 -0.34269930D-17 -0.45254758D-17 -0.52018063D-17 -0.47853366D-17
 -0.30613109D-17 -0.10596384D-17 -0.11912870D-18 -0.15156074D-20 -0.26262858D-21
 -0.26837783D-23 -0.36075480D-04 -0.52036038D-04 -0.69305269D-04 -0.82020237D-04
 -0.78818368D-04 -0.54176115D-04 -0.17057066D-04  0.82435258D-05  0.84598529D-05
  0.21305049D-05 -0.23228513D-08 -0.60125342D-04 -0.86726069D-04 -0.11550790D-03
 -0.13669935D-03 -0.13136295D-03 -0.90292837D-04 -0.28428226D-04  0.13739105D-04
  0.14099648D-04  0.35508145D-05 -0.38713894D-08  0.11628147D-17  0.16772686D-17
  0.22339048D-17  0.26437442D-17  0.25405388D-17  0.17462494D-17  0.54979745D-18
 -0.26571215D-18 -0.27268498D-18 -0.68672198D-19  0.74872066D-22  0.16979019D-04
  0.24614264D-04  0.32669279D-04  0.38987659D-04  0.37457885D-04  0.26218522D-04
  0.79164499D-05 -0.48460483D-05 -0.52118385D-05 -0.14016338D-05  0.52248337D-06
  0.27811158D-04  0.40317474D-04  0.53511364D-04  0.63860693D-04  0.61354966D-04
  0.42945206D-04  0.12966923D-04 -0.79376915D-05 -0.85368454D-05 -0.22958370D-05
  0.85581313D-06  0.29857039D-18  0.43283361D-18  0.57447836D-18  0.68558496D-18
  0.65868439D-18  0.46104396D-18  0.13920813D-18 -0.85216142D-19 -0.91648439D-19
 -0.24647263D-19  0.91876957D-20 -0.63897330D-06 -0.10490450D-05  0.29774644D-19
  0.12639320D-06  0.37271952D-06  0.58422843D-20 -0.27998726D-09 -0.60785961D-10