 Molden2AIM, Version 4.0.0 (06/02/2016)           Time: Wed Jun 27 23:39:15 2018
GAUSSIAN             13 MOL ORBITALS    225 PRIMITIVES        3 NUCLEI
  F    1    (CENTRE  1)   0.00633436  0.00000000  0.02565870  CHARGE =  9.0
  O    2    (CENTRE  2)   0.01725887  0.00000000  2.64250986  CHARGE =  8.0
  F    3    (CENTRE  3)   2.56347963  0.00000000  3.24611296  CHARGE =  9.0
CENTRE ASSIGNMENTS    1  1  1  1  1  1  1  1  1  1  1  1  1  1  1  1  1  1  1  1
CENTRE ASSIGNMENTS    1  1  1  1  1  1  1  1  1  1  1  1  1  1  1  1  1  1  1  1
CENTRE ASSIGNMENTS    1  1  1  1  1  1  1  1  1  1  1  1  1  1  1  1  1  1  1  1
CENTRE ASSIGNMENTS    1  1  1  1  1  1  1  1  1  1  1  1  1  1  1  2  2  2  2  2
CENTRE ASSIGNMENTS    2  2  2  2  2  2  2  2  2  2  2  2  2  2  2  2  2  2  2  2
CENTRE ASSIGNMENTS    2  2  2  2  2  2  2  2  2  2  2  2  2  2  2  2  2  2  2  2
CENTRE ASSIGNMENTS    2  2  2  2  2  2  2  2  2  2  2  2  2  2  2  2  2  2  2  2
CENTRE ASSIGNMENTS    2  2  2  2  2  2  2  2  2  2  3  3  3  3  3  3  3  3  3  3
CENTRE ASSIGNMENTS    3  3  3  3  3  3  3  3  3  3  3  3  3  3  3  3  3  3  3  3
CENTRE ASSIGNMENTS    3  3  3  3  3  3  3  3  3  3  3  3  3  3  3  3  3  3  3  3
CENTRE ASSIGNMENTS    3  3  3  3  3  3  3  3  3  3  3  3  3  3  3  3  3  3  3  3
CENTRE ASSIGNMENTS    3  3  3  3  3
TYPE ASSIGNMENTS      1  1  1  1  1  1  1  1  1  1  1  1  1  1  1  1  1  1  1  2
TYPE ASSIGNMENTS      2  2  3  3  3  4  4  4  2  3  4  2  3  4  2  3  4  5  6  7
TYPE ASSIGNMENTS      8  9 10  5  6  7  8  9 10  5  6  7  8  9 10 11 12 13 17 14
TYPE ASSIGNMENTS     15 18 19 16 20 11 12 13 17 14 15 18 19 16 20  1  1  1  1  1
TYPE ASSIGNMENTS      1  1  1  1  1  1  1  1  1  1  1  1  1  1  2  2  2  3  3  3
TYPE ASSIGNMENTS      4  4  4  2  3  4  2  3  4  2  3  4  5  6  7  8  9 10  5  6
TYPE ASSIGNMENTS      7  8  9 10  5  6  7  8  9 10 11 12 13 17 14 15 18 19 16 20
TYPE ASSIGNMENTS     11 12 13 17 14 15 18 19 16 20  1  1  1  1  1  1  1  1  1  1
TYPE ASSIGNMENTS      1  1  1  1  1  1  1  1  1  2  2  2  3  3  3  4  4  4  2  3
TYPE ASSIGNMENTS      4  2  3  4  2  3  4  5  6  7  8  9 10  5  6  7  8  9 10  5
TYPE ASSIGNMENTS      6  7  8  9 10 11 12 13 17 14 15 18 19 16 20 11 12 13 17 14
TYPE ASSIGNMENTS     15 18 19 16 20
EXPONENTS  0.1950000D+05 0.2923000D+04 0.6645000D+03 0.1875000D+03 0.6062000D+02
EXPONENTS  0.2142000D+02 0.7950000D+01 0.8815000D+00 0.1950000D+05 0.2923000D+04
EXPONENTS  0.6645000D+03 0.1875000D+03 0.6062000D+02 0.2142000D+02 0.7950000D+01
EXPONENTS  0.8815000D+00 0.2257000D+01 0.3041000D+00 0.9158000D-01 0.4388000D+02
EXPONENTS  0.9926000D+01 0.2930000D+01 0.4388000D+02 0.9926000D+01 0.2930000D+01
EXPONENTS  0.4388000D+02 0.9926000D+01 0.2930000D+01 0.9132000D+00 0.9132000D+00
EXPONENTS  0.9132000D+00 0.2672000D+00 0.2672000D+00 0.2672000D+00 0.7361000D-01
EXPONENTS  0.7361000D-01 0.7361000D-01 0.3107000D+01 0.3107000D+01 0.3107000D+01
EXPONENTS  0.3107000D+01 0.3107000D+01 0.3107000D+01 0.8550000D+00 0.8550000D+00
EXPONENTS  0.8550000D+00 0.8550000D+00 0.8550000D+00 0.8550000D+00 0.2920000D+00
EXPONENTS  0.2920000D+00 0.2920000D+00 0.2920000D+00 0.2920000D+00 0.2920000D+00
EXPONENTS  0.1917000D+01 0.1917000D+01 0.1917000D+01 0.1917000D+01 0.1917000D+01
EXPONENTS  0.1917000D+01 0.1917000D+01 0.1917000D+01 0.1917000D+01 0.1917000D+01
EXPONENTS  0.7240000D+00 0.7240000D+00 0.7240000D+00 0.7240000D+00 0.7240000D+00
EXPONENTS  0.7240000D+00 0.7240000D+00 0.7240000D+00 0.7240000D+00 0.7240000D+00
EXPONENTS  0.1533000D+05 0.2299000D+04 0.5224000D+03 0.1473000D+03 0.4755000D+02
EXPONENTS  0.1676000D+02 0.6207000D+01 0.6882000D+00 0.1533000D+05 0.2299000D+04
EXPONENTS  0.5224000D+03 0.1473000D+03 0.4755000D+02 0.1676000D+02 0.6207000D+01
EXPONENTS  0.6882000D+00 0.1752000D+01 0.2384000D+00 0.7376000D-01 0.3446000D+02
EXPONENTS  0.7749000D+01 0.2280000D+01 0.3446000D+02 0.7749000D+01 0.2280000D+01
EXPONENTS  0.3446000D+02 0.7749000D+01 0.2280000D+01 0.7156000D+00 0.7156000D+00
EXPONENTS  0.7156000D+00 0.2140000D+00 0.2140000D+00 0.2140000D+00 0.5974000D-01
EXPONENTS  0.5974000D-01 0.5974000D-01 0.2314000D+01 0.2314000D+01 0.2314000D+01
EXPONENTS  0.2314000D+01 0.2314000D+01 0.2314000D+01 0.6450000D+00 0.6450000D+00
EXPONENTS  0.6450000D+00 0.6450000D+00 0.6450000D+00 0.6450000D+00 0.2140000D+00
EXPONENTS  0.2140000D+00 0.2140000D+00 0.2140000D+00 0.2140000D+00 0.2140000D+00
EXPONENTS  0.1428000D+01 0.1428000D+01 0.1428000D+01 0.1428000D+01 0.1428000D+01
EXPONENTS  0.1428000D+01 0.1428000D+01 0.1428000D+01 0.1428000D+01 0.1428000D+01
EXPONENTS  0.5000000D+00 0.5000000D+00 0.5000000D+00 0.5000000D+00 0.5000000D+00
EXPONENTS  0.5000000D+00 0.5000000D+00 0.5000000D+00 0.5000000D+00 0.5000000D+00
EXPONENTS  0.1950000D+05 0.2923000D+04 0.6645000D+03 0.1875000D+03 0.6062000D+02
EXPONENTS  0.2142000D+02 0.7950000D+01 0.8815000D+00 0.1950000D+05 0.2923000D+04
EXPONENTS  0.6645000D+03 0.1875000D+03 0.6062000D+02 0.2142000D+02 0.7950000D+01
EXPONENTS  0.8815000D+00 0.2257000D+01 0.3041000D+00 0.9158000D-01 0.4388000D+02
EXPONENTS  0.9926000D+01 0.2930000D+01 0.4388000D+02 0.9926000D+01 0.2930000D+01
EXPONENTS  0.4388000D+02 0.9926000D+01 0.2930000D+01 0.9132000D+00 0.9132000D+00
EXPONENTS  0.9132000D+00 0.2672000D+00 0.2672000D+00 0.2672000D+00 0.7361000D-01
EXPONENTS  0.7361000D-01 0.7361000D-01 0.3107000D+01 0.3107000D+01 0.3107000D+01
EXPONENTS  0.3107000D+01 0.3107000D+01 0.3107000D+01 0.8550000D+00 0.8550000D+00
EXPONENTS  0.8550000D+00 0.8550000D+00 0.8550000D+00 0.8550000D+00 0.2920000D+00
EXPONENTS  0.2920000D+00 0.2920000D+00 0.2920000D+00 0.2920000D+00 0.2920000D+00
EXPONENTS  0.1917000D+01 0.1917000D+01 0.1917000D+01 0.1917000D+01 0.1917000D+01
EXPONENTS  0.1917000D+01 0.1917000D+01 0.1917000D+01 0.1917000D+01 0.1917000D+01
EXPONENTS  0.7240000D+00 0.7240000D+00 0.7240000D+00 0.7240000D+00 0.7240000D+00
EXPONENTS  0.7240000D+00 0.7240000D+00 0.7240000D+00 0.7240000D+00 0.7240000D+00
MO    1     MO 0.0        OCC NO =    2.0000000  ORB. ENERGY =  -26.403535
 -0.34501100D+00 -0.64311545D+00 -0.10902388D+01 -0.16509428D+01 -0.20645098D+01
 -0.17773506D+01 -0.68327847D+00  0.29607575D-02 -0.29158664D-03 -0.54754807D-03
 -0.93237994D-03 -0.14605677D-02 -0.19573325D-02 -0.21053750D-02 -0.12640644D-02
  0.83130192D-03 -0.33246228D-01 -0.11539762D-02 -0.68388184D-04 -0.26547512D-03
 -0.25962886D-03 -0.17154777D-03  0.43665698D-15  0.42704099D-15  0.28216404D-15
 -0.52595919D-02 -0.51437660D-02 -0.33987037D-02  0.11667814D-03 -0.16250192D-15
  0.10282508D-02  0.28834877D-04 -0.19090482D-17 -0.48697058D-03 -0.19036647D-05
  0.63063620D-18 -0.74018884D-05 -0.20849582D-03 -0.48556459D-03  0.69406041D-03
  0.41308706D-17 -0.17390453D-03  0.28256238D-16 -0.20752465D-03 -0.16849856D-03
  0.37602320D-03  0.35619524D-18  0.20926764D-03 -0.32334356D-17  0.48895227D-04
  0.58560923D-04 -0.10745615D-03 -0.23510766D-19  0.99506758D-05  0.28545026D-17
  0.58903766D-04  0.14674816D-17  0.13735298D-03 -0.30382071D-03  0.66582565D-19
  0.15139508D-03  0.12710942D-03 -0.44690274D-17 -0.56345402D-03  0.78694061D-19
 -0.40147240D-04 -0.34479677D-18 -0.80191533D-05  0.67431346D-04 -0.20895232D-18
 -0.11402817D-03  0.53010374D-04  0.12433426D-17  0.13808563D-03 -0.29372657D-19
  0.20996610D-04  0.39134979D-04  0.66359958D-04  0.10043889D-03  0.12531841D-03
  0.10763180D-03  0.41321940D-04 -0.18483557D-06 -0.11389874D-04 -0.21361992D-04
 -0.36417513D-04 -0.56913484D-04 -0.76104172D-04 -0.81261513D-04 -0.49681695D-04
  0.32776965D-04 -0.47619635D-04 -0.11633027D-03  0.27485124D-05 -0.30096173D-03
 -0.29183164D-03 -0.19686790D-03 -0.49422239D-17 -0.47922947D-17 -0.32328537D-17
 -0.33387995D-03 -0.32375124D-03 -0.21840067D-03  0.15768504D-03  0.95242626D-18
  0.17453705D-03 -0.38953882D-03 -0.19507741D-17 -0.42171101D-03 -0.86574801D-06
 -0.65787752D-19 -0.22918906D-05 -0.34242842D-03  0.31585995D-04  0.31084243D-03
 -0.44311185D-18 -0.20426335D-03  0.82713741D-17  0.35418608D-03 -0.37167951D-04
 -0.31701813D-03 -0.28471171D-18  0.18901069D-03 -0.18175689D-17 -0.85663369D-04
  0.34435880D-05  0.82219781D-04  0.28435282D-18 -0.33685385D-04  0.21501789D-17
  0.33948466D-03 -0.22249249D-17  0.20713225D-03 -0.78816778D-03 -0.37249595D-17
  0.19340619D-03 -0.23028621D-03  0.10399734D-16 -0.81480293D-03 -0.19266471D-18
  0.88788443D-04  0.40502832D-18  0.28065361D-04 -0.54630738D-04  0.89695446D-18
 -0.47357005D-04 -0.21173459D-03 -0.21120394D-17 -0.36839079D-04  0.17891870D-18
  0.48541846D+00  0.90484105D+00  0.15339280D+01  0.23228191D+01  0.29046934D+01
  0.25006705D+01  0.96134903D+00 -0.41656827D-02  0.38185682D-03  0.71705948D-03
  0.12210286D-02  0.19127341D-02  0.25632888D-02  0.27571627D-02  0.16553968D-02
 -0.10886586D-02  0.46733867D-01  0.15051037D-02  0.61169348D-04 -0.70690152D-02
 -0.69133425D-02 -0.45679377D-02 -0.29041681D-16 -0.28402130D-16 -0.18766488D-16
 -0.19340148D-02 -0.18914242D-02 -0.12497439D-02  0.13380976D-02 -0.64495328D-18
  0.42461875D-03 -0.60253357D-03 -0.60454475D-18 -0.12692828D-03 -0.56501858D-05
 -0.63318896D-19 -0.34135003D-05 -0.92708170D-03  0.63678116D-03  0.29030053D-03
 -0.99405959D-17 -0.48613622D-03 -0.60685576D-17 -0.43824262D-03  0.24287444D-03
  0.19536818D-03  0.17645822D-17 -0.51950650D-03 -0.22097938D-18  0.13508500D-03
 -0.76763186D-04 -0.58321811D-04  0.12970753D-18  0.92878685D-04  0.20419995D-18
  0.19883980D-03  0.83603769D-19  0.35089069D-04 -0.59084574D-03  0.50700823D-17
  0.26872448D-03 -0.56736673D-05 -0.53208936D-17 -0.37399169D-03 -0.19793321D-17
 -0.39026268D-04 -0.19969156D-18 -0.40488710D-04  0.14058436D-03 -0.57243491D-18
  0.38263709D-04 -0.23505556D-04  0.11715096D-17  0.83202420D-04  0.19550794D-18
MO    2     MO 0.0        OCC NO =    2.0000000  ORB. ENERGY =  -26.403512
  0.48550853D+00  0.90500892D+00  0.15342126D+01  0.23232501D+01  0.29052324D+01
  0.25011344D+01  0.96152739D+00 -0.41664556D-02  0.32391698D-03  0.60825872D-03
  0.10357597D-02  0.16225114D-02  0.21743562D-02  0.23388133D-02  0.14042204D-02
 -0.92347443D-03  0.46655687D-01  0.12634868D-02 -0.10383814D-04  0.94653441D-04
  0.92568998D-04  0.61164251D-04  0.77409106D-15  0.75704415D-15  0.50021108D-15
  0.71661873D-02  0.70083747D-02  0.46307295D-02 -0.45913890D-06 -0.25753751D-15
 -0.13029121D-02  0.43616520D-04 -0.24837594D-18  0.47384822D-03  0.74996980D-06
  0.39766794D-18 -0.21704815D-05  0.42076270D-03  0.54240377D-03 -0.96316648D-03
 -0.48756008D-17 -0.19182344D-03 -0.11493935D-16  0.24782393D-03  0.25462939D-03
 -0.50245332D-03 -0.16863335D-18  0.34039172D-04 -0.57942802D-17 -0.69115995D-04
 -0.65293528D-04  0.13440952D-03  0.22990132D-19  0.22428003D-04  0.24229090D-17
  0.33081768D-04  0.14984257D-17 -0.34043220D-03 -0.17219686D-03  0.20218518D-17
  0.63161243D-03  0.72951559D-04 -0.65171289D-17  0.38968418D-03  0.93284572D-18
 -0.24128577D-04 -0.30508427D-18  0.66740277D-04  0.44153568D-04 -0.31989319D-18
 -0.12291434D-03  0.28232162D-04  0.12351460D-17 -0.77306491D-04 -0.82855845D-19
  0.12416236D-03  0.23142266D-03  0.39241616D-03  0.59394013D-03  0.74106387D-03
  0.63647503D-03  0.24435514D-03 -0.10930155D-05 -0.67352390D-04 -0.12632108D-03
 -0.21534974D-03 -0.33654973D-03 -0.45003112D-03 -0.48052831D-03 -0.29378559D-03
  0.19382189D-03 -0.28141088D-03 -0.68833321D-03  0.16236260D-04 -0.82616225D-04
 -0.80109948D-04 -0.54041698D-04 -0.36270506D-17 -0.35170190D-17 -0.23725602D-17
  0.16233994D-03  0.15741513D-03  0.10619132D-03  0.44299003D-04  0.11035892D-17
 -0.85743832D-04 -0.13828712D-03 -0.17342085D-17  0.23341617D-03  0.37061752D-05
 -0.32247942D-19 -0.24386665D-05 -0.31626278D-05  0.18715595D-03 -0.18399332D-03
 -0.14902059D-18 -0.26753127D-03  0.64723370D-17  0.31095595D-04 -0.21963433D-03
  0.18853874D-03 -0.25271221D-18  0.15762225D-03 -0.20287120D-17  0.38975842D-06
  0.20388981D-04 -0.20778740D-04  0.15332492D-18  0.36736126D-04  0.17529720D-17
  0.22499113D-03 -0.20086132D-17 -0.45757419D-03 -0.39330443D-03 -0.27571008D-17
  0.81701204D-03 -0.28166897D-03  0.87829405D-17  0.55571054D-03 -0.16275341D-18
  0.48082123D-04  0.28183491D-18 -0.10672630D-03 -0.85437885D-04  0.44971584D-18
  0.23879696D-03 -0.58808483D-04 -0.12952206D-17  0.81381950D-04 -0.29313074D-19
  0.34513766D+00  0.64335154D+00  0.10906390D+01  0.16515489D+01  0.20652677D+01
  0.17780031D+01  0.68352931D+00 -0.29618444D-02  0.21008840D-03  0.39450882D-03
  0.67178048D-03  0.10523401D-02  0.14102596D-02  0.15169243D-02  0.91075938D-03
 -0.59895369D-03  0.33136389D-01  0.81395558D-03 -0.32291687D-04 -0.49082309D-02
 -0.48001427D-02 -0.31716572D-02 -0.20726267D-16 -0.20269837D-16 -0.13393138D-16
 -0.11441036D-02 -0.11189084D-02 -0.73931007D-03  0.87804911D-03 -0.37810308D-18
  0.16534285D-03 -0.26848499D-03 -0.32907823D-18 -0.11449748D-03  0.43854201D-05
 -0.48267962D-19  0.93545415D-06 -0.57690606D-03  0.35261197D-03  0.22429409D-03
 -0.66155239D-17 -0.65978481D-03 -0.42875890D-17 -0.34675241D-03  0.18513673D-03
  0.16161568D-03  0.10040028D-17 -0.13758699D-03 -0.18178382D-18  0.78993805D-04
 -0.42418259D-04 -0.36575546D-04  0.41057811D-19  0.84108335D-04  0.10758751D-18
  0.24744480D-03 -0.18349281D-18 -0.18802262D-03 -0.23759306D-03  0.32842583D-17
  0.34980812D-03 -0.50474135D-03 -0.27337798D-17  0.21425973D-03 -0.14992350D-17
 -0.39053441D-04 -0.98774514D-19  0.63351215D-04  0.41357475D-04 -0.23363781D-18
 -0.13409654D-03  0.75802847D-04  0.52996135D-18 -0.55957107D-04  0.20623364D-18
MO    3     MO 0.0        OCC NO =    2.0000000  ORB. ENERGY =  -20.820839
 -0.11896489D-03 -0.22175570D-03 -0.37593043D-03 -0.56926946D-03 -0.71187346D-03
 -0.61285674D-03 -0.23560450D-03  0.10209129D-05  0.67103095D-04  0.12600773D-03
  0.21456943D-03  0.33612174D-03  0.45044268D-03  0.48451183D-03  0.29090027D-03
 -0.19130826D-03 -0.21862973D-03  0.54519140D-03  0.16253433D-03 -0.31783940D-04
 -0.31083999D-04 -0.20538512D-04 -0.16357504D-16 -0.15997282D-16 -0.10570080D-16
 -0.53037860D-03 -0.51869868D-03 -0.34272615D-03  0.20069437D-04  0.89413817D-17
  0.71293895D-03 -0.11180692D-03 -0.27652277D-17  0.53945743D-03  0.32584109D-06
  0.14054998D-18  0.12508442D-04  0.42521534D-03  0.29974883D-03 -0.72496417D-03
  0.53731129D-18  0.51256965D-04 -0.73381613D-17 -0.43330229D-03 -0.40159358D-03
  0.83489587D-03 -0.19939950D-18 -0.50603391D-04  0.68903418D-18 -0.88318442D-04
 -0.80631300D-04  0.16894974D-03  0.21351829D-19 -0.65586508D-04 -0.46074381D-18
 -0.40047500D-04  0.89022995D-18  0.25532338D-03  0.15089421D-03  0.12441408D-18
 -0.34241854D-03 -0.30751716D-04 -0.27951039D-17 -0.42355160D-03 -0.28608523D-19
  0.13037938D-04 -0.22410948D-19  0.31295280D-03 -0.33337015D-04  0.22345787D-18
 -0.48854098D-03 -0.57767981D-05 -0.15622503D-18 -0.45031742D-03 -0.64611741D-19
  0.49852117D+00  0.92917933D+00  0.15755803D+01  0.23847141D+01  0.29754270D+01
  0.25554949D+01  0.98110420D+00 -0.43885393D-02  0.23038975D-03  0.43210169D-03
  0.73663866D-03  0.11512228D-02  0.15394043D-02  0.16437249D-02  0.10049412D-02
 -0.66299914D-03  0.46724087D-01 -0.40044240D-03 -0.19629955D-03  0.10077299D-01
  0.97715907D-02  0.65918573D-02  0.16720186D-16  0.16212956D-16  0.10937164D-16
 -0.80011746D-02 -0.77584479D-02 -0.52338031D-02 -0.19369435D-02 -0.40214312D-17
  0.15378191D-02 -0.83154325D-04  0.84678850D-18  0.65966833D-04 -0.10015620D-04
 -0.16627866D-18  0.79515665D-05 -0.57221795D-03  0.11390762D-02 -0.56685825D-03
 -0.10183379D-17  0.24225045D-04  0.90266847D-17 -0.33519541D-03  0.79832770D-03
 -0.46313230D-03 -0.13261433D-17 -0.55050538D-03  0.18006869D-17  0.14157254D-04
 -0.31755682D-05 -0.10981686D-04  0.41217409D-19 -0.10810433D-03 -0.48649232D-18
 -0.32562537D-03 -0.19611160D-17  0.44912780D-03  0.72322624D-03 -0.33710009D-17
 -0.77319968D-03  0.25364988D-03  0.92543488D-17 -0.57418372D-03  0.40251882D-18
 -0.35085122D-04  0.17427237D-18  0.73797742D-04  0.68106224D-06  0.30440090D-19
 -0.22086512D-03  0.10457430D-03 -0.55325721D-18 -0.52811089D-06 -0.41431155D-18
 -0.11895328D-03 -0.22173407D-03 -0.37589376D-03 -0.56921394D-03 -0.71180403D-03
 -0.61279696D-03 -0.23558152D-03  0.10208133D-05  0.67092131D-04  0.12598714D-03
  0.21453437D-03  0.33606682D-03  0.45036908D-03  0.48443267D-03  0.29085274D-03
 -0.19127700D-03 -0.21868667D-03  0.54534549D-03  0.16256564D-03  0.50949291D-03
  0.49827294D-03  0.32923000D-03 -0.56850610D-17 -0.55598655D-17 -0.36736382D-17
  0.15118165D-03  0.14785235D-03  0.97692300D-04 -0.69008425D-03 -0.41619814D-18
 -0.18115762D-03 -0.55085243D-03 -0.87150016D-19 -0.13365051D-04 -0.12111609D-04
 -0.45167292D-20 -0.31525644D-05 -0.67701833D-03  0.29963772D-03  0.37738061D-03
  0.81472503D-18 -0.46164930D-03  0.80371681D-18  0.78105130D-03 -0.40165320D-03
 -0.37939810D-03  0.26936848D-19  0.51450531D-03 -0.25307039D-18  0.17022714D-03
 -0.80638059D-04 -0.89589082D-04 -0.97513788D-19  0.54726279D-04  0.23372636D-18
 -0.22598608D-03 -0.65525143D-18  0.10920746D-03  0.44694275D-03 -0.29531079D-17
 -0.27666655D-03  0.23101551D-03  0.49188622D-17 -0.50955838D-04 -0.24203939D-17
 -0.26579699D-03 -0.51153716D-19  0.89625561D-04  0.43102316D-03  0.13299549D-17
 -0.40339458D-03  0.36636781D-03 -0.11764937D-17  0.13451789D-03  0.53633295D-18
MO    4     MO 0.0        OCC NO =    2.0000000  ORB. ENERGY =   -1.767729
 -0.10686106D-02 -0.19919365D-02 -0.33768220D-02 -0.51135037D-02 -0.63944543D-02
 -0.55050295D-02 -0.21163343D-02  0.91704231D-05 -0.76623665D-01 -0.14388567D+00
 -0.24501249D+00 -0.38381061D+00 -0.51435137D+00 -0.55325425D+00 -0.33217312D+00
  0.21845102D+00  0.12178614D+00  0.55264230D-01 -0.19901222D-03  0.21889066D-01
  0.21407029D-01  0.14144529D-01 -0.80724532D-15 -0.78946829D-15 -0.52163508D-15
  0.21152764D+00  0.20686941D+00  0.13668737D+00  0.59714934D-02  0.17658355D-15
  0.57992515D-01  0.28182103D-03  0.33223329D-16  0.57584098D-02  0.59638850D-05
 -0.15706026D-17 -0.20306552D-03 -0.11278568D-01 -0.12792687D-01  0.24071254D-01
 -0.78269519D-15  0.49916729D-02  0.13142915D-15 -0.53342090D-02 -0.60409663D-02
  0.11375175D-01 -0.77104483D-16  0.28197754D-02  0.28699008D-16 -0.41425039D-03
 -0.39367260D-03  0.80792299D-03  0.62880437D-18 -0.44168666D-04 -0.91813705D-17
 -0.51078755D-03 -0.80570429D-17  0.82568909D-02 -0.12757220D-02 -0.40506058D-17
 -0.11043056D-01  0.28080847D-02  0.28221734D-16 -0.13727617D-01  0.93612906D-17
 -0.28765806D-03 -0.33613972D-17  0.21945902D-02  0.83894151D-04 -0.25018579D-17
 -0.32710403D-02  0.77908003D-03  0.12586050D-16 -0.33127303D-02  0.33982803D-17
 -0.11382457D-02 -0.21215435D-02 -0.35974349D-02 -0.54448852D-02 -0.67936270D-02
 -0.58348196D-02 -0.22401007D-02  0.10020108D-04 -0.53702763D-01 -0.10072086D+00
 -0.17170699D+00 -0.26834460D+00 -0.35882787D+00 -0.38314450D+00 -0.23424704D+00
  0.15454197D+00  0.78028262D-01  0.25560045D-01  0.51704202D-03  0.15473705D+00
  0.15004289D+00  0.10121804D+00  0.18577283D-16  0.18013715D-16  0.12151946D-16
 -0.12280681D+00 -0.11908129D+00 -0.80331537D-01  0.43359073D-01  0.17296808D-16
 -0.34413929D-01  0.14834328D-02  0.54684269D-17 -0.11778856D-02  0.14343204D-06
  0.94224339D-18 -0.11272088D-06  0.11349905D-01 -0.24687847D-01  0.13337942D-01
  0.51872625D-17  0.86210403D-02 -0.39360537D-16  0.40799106D-02 -0.86708923D-02
  0.45909817D-02  0.70409565D-18  0.22159904D-02 -0.25478308D-16  0.22519180D-04
 -0.18122771D-04 -0.43964094D-05 -0.11985478D-17 -0.11614506D-03 -0.35015200D-17
  0.65201752D-02 -0.19197316D-16 -0.95096504D-02 -0.12907426D-01 -0.61222385D-17
  0.18284449D-01 -0.66530995D-02  0.63714186D-16  0.10244502D-01 -0.22222619D-16
  0.88301256D-03 -0.15443993D-17 -0.12347624D-02 -0.19097078D-02 -0.37665359D-17
  0.21882087D-02 -0.73932987D-03  0.83997337D-17  0.15160785D-02 -0.34558595D-18
 -0.10689457D-02 -0.19925612D-02 -0.33778810D-02 -0.51151074D-02 -0.63964597D-02
 -0.55067560D-02 -0.21169980D-02  0.91732991D-05 -0.76644447D-01 -0.14392470D+00
 -0.24507894D+00 -0.38391470D+00 -0.51449087D+00 -0.55340430D+00 -0.33226321D+00
  0.21851027D+00  0.12181938D+00  0.55279760D-01 -0.19903537D-03 -0.20111588D+00
 -0.19668694D+00 -0.12995938D+00  0.13487127D-15  0.13190115D-15  0.87152668D-16
 -0.69260407D-01 -0.67735165D-01 -0.44755487D-01 -0.55144451D-01  0.22653320D-16
 -0.18959686D-01 -0.55463541D-02  0.27602279D-17 -0.15795456D-02  0.19917758D-03
  0.10180598D-18  0.40217904D-04  0.21160996D-01 -0.12796142D-01 -0.83648537D-02
 -0.13666024D-16  0.20087439D-01  0.47319292D-17  0.98974190D-02 -0.60424562D-02
 -0.38549628D-02  0.75012163D-18  0.99073693D-02 -0.88238969D-17  0.75509224D-03
 -0.39376094D-03 -0.36133130D-03 -0.29047325D-17  0.49989282D-03  0.62261020D-18
 -0.64816793D-02  0.21781368D-17  0.26103530D-02  0.13085874D-01  0.12404468D-16
 -0.12185353D-01  0.63591634D-02 -0.18938879D-16  0.43542939D-02  0.19674041D-17
 -0.17004338D-02 -0.15354746D-17  0.90449051D-03  0.32463932D-02 -0.69262214D-18
 -0.33825542D-02  0.18549083D-02  0.52990460D-17  0.66908263D-03 -0.29418515D-18
MO    5     MO 0.0        OCC NO =    2.0000000  ORB. ENERGY =   -1.642690
 -0.11081499D-02 -0.20656394D-02 -0.35017666D-02 -0.53027066D-02 -0.66310532D-02
 -0.57087192D-02 -0.21946401D-02  0.95097346D-05 -0.93673730D-01 -0.17590267D+00
 -0.29953192D+00 -0.46921498D+00 -0.62880327D+00 -0.67636270D+00 -0.40608728D+00
  0.26706008D+00  0.15195025D+00  0.75782015D-01  0.88845708D-03 -0.23208446D-01
 -0.22697354D-01 -0.14997101D-01 -0.59361615D-15 -0.58054363D-15 -0.38358972D-15
  0.81120348D-01  0.79333928D-01  0.52419281D-01 -0.58385194D-02 -0.27190598D-15
  0.26166064D-01 -0.66911702D-03 -0.28969491D-16  0.58276214D-02  0.66918300D-05
 -0.28729336D-17 -0.80895193D-04 -0.47708012D-02 -0.31572089D-02  0.79280101D-02
  0.17248263D-14 -0.36938250D-02  0.44180912D-17 -0.27835732D-02 -0.34937048D-02
  0.62772780D-02  0.11250209D-15 -0.23275829D-02 -0.72886584D-17 -0.33923536D-03
 -0.41507396D-03  0.75430932D-03  0.36725198D-17 -0.21924133D-03  0.57840112D-17
 -0.59669763D-04 -0.14936454D-17  0.55007743D-02  0.10192982D-02  0.89840667D-17
 -0.95150759D-02 -0.84028896D-03 -0.45031306D-17 -0.69872469D-02  0.59096075D-17
  0.28132257D-03 -0.22820163D-17  0.13630950D-02 -0.17665697D-04 -0.46893018D-17
 -0.10544179D-02 -0.82630202D-03  0.11535351D-16 -0.30348671D-02 -0.84482021D-18
  0.11173414D-08  0.20825807D-08  0.35313668D-08  0.53448881D-08  0.66688598D-08
  0.57276612D-08  0.21989605D-08 -0.98360852D-11 -0.41626927D-05 -0.78072333D-05
 -0.13309621D-04 -0.20800347D-04 -0.27814028D-04 -0.29698897D-04 -0.18157323D-04
  0.11979099D-04  0.59181328D-05  0.29589613D-05  0.15664477D-06 -0.18439556D+00
 -0.17880167D+00 -0.12061855D+00  0.89104828D-17  0.86401710D-17  0.58286083D-17
 -0.23223818D+00 -0.22519291D+00 -0.15191381D+00 -0.47111099D-01  0.13672777D-16
 -0.59336004D-01  0.35317696D-03  0.28964842D-17  0.44415798D-03  0.27076261D-04
 -0.53165471D-18  0.34082356D-04 -0.43678514D-01 -0.71781678D-06  0.43679232D-01
 -0.13810875D-16 -0.20324728D-01 -0.53746756D-16 -0.13010094D-01 -0.66311401D-06
  0.13010757D-01 -0.12560170D-17 -0.60538426D-02 -0.32912849D-17  0.57396270D-03
 -0.30644102D-07 -0.57393206D-03  0.87433170D-18  0.26707693D-03 -0.14878375D-17
 -0.62759354D-02  0.40243509D-17 -0.56521504D-02  0.13633121D-01 -0.92423298D-17
 -0.21437150D-03  0.51946854D-02 -0.28307230D-17  0.17170823D-01  0.96470715D-17
 -0.88127629D-03  0.27077969D-17 -0.60842396D-03  0.97056293D-03  0.27879736D-17
  0.60252508D-03  0.16732659D-02 -0.10911364D-16  0.12227468D-02 -0.43949201D-17
  0.11079564D-02  0.20652787D-02  0.35011551D-02  0.53017807D-02  0.66298954D-02
  0.57077224D-02  0.21942569D-02 -0.95080742D-05  0.93653632D-01  0.17586493D+00
  0.29946765D+00  0.46911431D+00  0.62866836D+00  0.67621758D+00  0.40600015D+00
 -0.26700278D+00 -0.15191773D+00 -0.75767198D-01 -0.88855261D-03  0.84245755D-01
  0.82390508D-01  0.54438892D-01 -0.24097536D-15 -0.23566864D-15 -0.15571623D-15
 -0.42374372D-02 -0.41441210D-02 -0.27381960D-02  0.26801669D-01 -0.45717349D-16
  0.23857403D-03  0.58268703D-02 -0.60339399D-17  0.66843341D-03 -0.80262950D-04
 -0.49319137D-18 -0.11801191D-04 -0.80899692D-02  0.31560611D-02  0.49339081D-02
  0.25486410D-16 -0.22883102D-02 -0.31027132D-17 -0.63246972D-02  0.34929992D-02
  0.28316980D-02 -0.33604526D-17 -0.19092792D-02  0.82294281D-17 -0.74637001D-03
  0.41497928D-03  0.33139073D-03  0.40146524D-17 -0.28581073D-03 -0.29754313D-18
  0.47882374D-02  0.27019081D-18 -0.20785611D-02 -0.70363881D-02 -0.20927972D-16
  0.68257438D-02 -0.73283242D-02  0.20117400D-16 -0.59006057D-03 -0.58103819D-17
  0.13807588D-02  0.14777629D-17  0.80317979D-05 -0.29513419D-02  0.24760275D-17
  0.68072323D-03 -0.11909344D-02 -0.69093161D-17 -0.70481862D-03 -0.11362242D-17
MO    6     MO 0.0        OCC NO =    2.0000000  ORB. ENERGY =   -1.281361
 -0.60472898D-03 -0.11272410D-02 -0.19109507D-02 -0.28937425D-02 -0.36186351D-02
 -0.31153078D-02 -0.11976380D-02  0.51895617D-05  0.57079707D-01  0.10718558D+00
  0.18251856D+00  0.28591424D+00  0.38315872D+00  0.41213886D+00  0.24744763D+00
 -0.16273197D+00 -0.96932539D-01 -0.60281308D-01 -0.24142971D-02 -0.19678179D-01
 -0.19244829D-01 -0.12715872D-01  0.47101548D-15  0.46064286D-15  0.30436621D-15
  0.50222483D+00  0.49116491D+00  0.32453342D+00 -0.42977053D-02  0.48539489D-15
  0.11630280D+00 -0.12420601D-02 -0.19509739D-16  0.67513488D-02  0.26945741D-04
  0.84750999D-17 -0.18801936D-03 -0.21480751D-01 -0.21835110D-01  0.43315861D-01
  0.68457410D-15 -0.15283564D-02 -0.45802609D-15 -0.61348152D-02 -0.57863548D-02
  0.11921170D-01  0.20846735D-15 -0.27134201D-03  0.48483624D-16 -0.12052813D-03
 -0.15977588D-04  0.13650572D-03  0.54163681D-17 -0.48014419D-03  0.19944934D-16
 -0.21671892D-03 -0.10676756D-16  0.96792756D-02  0.77214026D-03 -0.28138586D-16
 -0.14531084D-01 -0.12198350D-03  0.60168855D-16 -0.14506743D-01  0.77143202D-17
  0.63657635D-04 -0.85609820D-17  0.10920026D-02 -0.20789628D-03 -0.34429033D-17
 -0.18221283D-02  0.16923374D-04  0.29125849D-16 -0.14538794D-02  0.55967386D-17
  0.10678392D-02  0.19903148D-02  0.33749145D-02  0.51080903D-02  0.63734053D-02
  0.54739052D-02  0.21015386D-02 -0.94003113D-05 -0.92885049D-01 -0.17420821D+00
 -0.29698681D+00 -0.46413258D+00 -0.62063369D+00 -0.66269209D+00 -0.40515695D+00
  0.26729795D+00  0.14589683D+00  0.81230108D-01  0.19624399D-02 -0.89833537D-01
 -0.87108313D-01 -0.58762753D-01  0.24465198D-15  0.23723012D-15  0.16003404D-15
  0.71325272D-01  0.69161522D-01  0.46655954D-01 -0.12665736D-01  0.75972671D-16
  0.10056719D-01  0.20660036D-02  0.61920168D-17 -0.16400408D-02  0.35173936D-05
  0.14614465D-17 -0.27783640D-05 -0.45083493D-02  0.90328760D-02 -0.45245267D-02
  0.88295900D-17 -0.72616608D-04 -0.47457740D-16  0.42941275D-03 -0.14801356D-02
  0.10507229D-02 -0.60651890D-17  0.26711593D-02 -0.12715068D-16  0.32857265D-03
 -0.57072681D-03  0.24215416D-03 -0.28379140D-17 -0.37073881D-03 -0.71803580D-17
  0.15814585D-03 -0.17961856D-17 -0.73083357D-03  0.12074861D-02  0.60718158D-17
  0.31515158D-02 -0.16819237D-02 -0.68325892D-18 -0.95901509D-03 -0.73043973D-19
  0.69183336D-03  0.45444290D-17 -0.10030536D-02 -0.13886497D-02 -0.35349565D-17
  0.19064642D-02 -0.68685039D-03 -0.10098330D-16  0.11026968D-02  0.56694125D-17
 -0.60487507D-03 -0.11275133D-02 -0.19114123D-02 -0.28944415D-02 -0.36195093D-02
 -0.31160603D-02 -0.11979274D-02  0.51908153D-05  0.57084462D-01  0.10719451D+00
  0.18253376D+00  0.28593806D+00  0.38319064D+00  0.41217319D+00  0.24746825D+00
 -0.16274553D+00 -0.96940440D-01 -0.60287771D-01 -0.24146512D-02 -0.49367626D+00
 -0.48280460D+00 -0.31900941D+00 -0.18331152D-15 -0.17927467D-15 -0.11845435D-15
 -0.94652269D-01 -0.92567852D-01 -0.61163494D-01 -0.11426326D+00 -0.41351564D-16
 -0.22171504D-01 -0.68575300D-02 -0.14678064D-17 -0.32021685D-03  0.18926030D-03
 -0.23620726D-18  0.16364014D-04  0.40331232D-01 -0.21838167D-01 -0.18493064D-01
  0.25911985D-16  0.27234670D-01 -0.16271840D-16  0.11054745D-01 -0.57868325D-02
 -0.52679129D-02 -0.13238914D-16  0.77274695D-02  0.21112874D-17  0.22929092D-03
 -0.15997718D-04 -0.21329321D-03  0.31512686D-18 -0.31737027D-03 -0.40503344D-17
 -0.82461961D-02 -0.45943172D-18  0.32177272D-02  0.14305922D-01 -0.21159487D-16
 -0.12188924D-01  0.10432666D-01  0.22537782D-16  0.25357420D-02 -0.24726050D-16
 -0.91349746D-03 -0.57252678D-19  0.31934823D-03  0.13689532D-02  0.11288052D-16
 -0.14899402D-02  0.13715391D-02 -0.11116294D-16  0.53189554D-03  0.95690139D-17
MO    7     MO 0.0        OCC NO =    2.0000000  ORB. ENERGY =   -0.827417
 -0.93527198D-16 -0.17433875D-15 -0.29554704D-15 -0.44754532D-15 -0.55965699D-15
 -0.48181254D-15 -0.18522633D-15  0.80261601D-18 -0.29558417D-15 -0.55505472D-15
 -0.94516246D-15 -0.14805914D-14 -0.19841667D-14 -0.21342388D-14 -0.12813942D-14
  0.84269871D-15  0.61872375D-15  0.11614829D-14  0.21125995D-15 -0.22589858D-13
 -0.22092388D-13 -0.14597375D-13  0.13888002D+01  0.13582163D+01  0.89743094D+00
 -0.21400740D-13 -0.20929456D-13 -0.13828977D-13 -0.48914053D-14  0.32460502D+00
 -0.53985021D-14 -0.61702772D-15  0.43868765D-01 -0.38085545D-16  0.59345589D-17
  0.27388562D-03 -0.27755637D-18 -0.35122105D-15  0.13749719D-14 -0.10237508D-14
  0.32218011D-02 -0.21611941D-15  0.59898031D-01  0.20606725D-15 -0.13448342D-15
 -0.71583824D-16  0.95551965D-03 -0.10118172D-14  0.25505529D-01 -0.11189657D-15
 -0.38330537D-16  0.15022710D-15  0.30302236D-03  0.16570659D-15  0.21765972D-02
  0.47926755D-15 -0.85338182D-02 -0.35008039D-15 -0.67398496D-15 -0.63296678D-02
  0.58588460D-15 -0.76381768D-15  0.31931122D-01  0.46435659D-15  0.31999500D-02
 -0.13911737D-15 -0.20104579D-02  0.43861282D-16  0.38586897D-15 -0.17609724D-02
 -0.14461485D-16  0.31483140D-16  0.77923462D-02 -0.11712236D-15  0.31448286D-03
 -0.12648671D-15 -0.23575495D-15 -0.39976228D-15 -0.60505883D-15 -0.75493676D-15
 -0.64839000D-15 -0.24892953D-15  0.11134771D-17 -0.19591594D-15 -0.36744521D-15
 -0.62641353D-15 -0.97896241D-15 -0.13090593D-14 -0.13977701D-14 -0.85456924D-15
  0.56379288D-15  0.46679879D-15  0.37834780D-15  0.22775357D-15 -0.97795637D-14
 -0.94828871D-14 -0.63970996D-14  0.11261556D+01  0.10919921D+01  0.73665141D+00
  0.14971838D-13  0.14517647D-13  0.97935186D-14 -0.24716825D-14  0.27320429D+00