 Molden2AIM, Version 4.0.0 (06/02/2016)           Time: Wed Jun 27 23:44:46 2018
GAUSSIAN             50 MOL ORBITALS    787 PRIMITIVES        5 NUCLEI
  Ge   1    (CENTRE  1)   0.00000000  0.00000000  0.00000000  CHARGE = 32.0
  Cl   2    (CENTRE  2)   2.32635868  2.32635868  2.32635868  CHARGE = 17.0
  Cl   3    (CENTRE  3)   2.32635868 -2.32635868 -2.32635868  CHARGE = 17.0
  Cl   4    (CENTRE  4)  -2.32635868  2.32635868 -2.32635868  CHARGE = 17.0
  Cl   5    (CENTRE  5)  -2.32635868 -2.32635868  2.32635868  CHARGE = 17.0
CENTRE ASSIGNMENTS    1  1  1  1  1  1  1  1  1  1  1  1  1  1  1  1  1  1  1  1
CENTRE ASSIGNMENTS    1  1  1  1  1  1  1  1  1  1  1  1  1  1  1  1  1  1  1  1
CENTRE ASSIGNMENTS    1  1  1  1  1  1  1  1  1  1  1  1  1  1  1  1  1  1  1  1
CENTRE ASSIGNMENTS    1  1  1  1  1  1  1  1  1  1  1  1  1  1  1  1  1  1  1  1
CENTRE ASSIGNMENTS    1  1  1  1  1  1  1  1  1  1  1  1  1  1  1  1  1  1  1  1
CENTRE ASSIGNMENTS    1  1  1  1  1  1  1  1  1  1  1  1  1  1  1  1  1  1  1  1
CENTRE ASSIGNMENTS    1  1  1  1  1  1  1  1  1  1  1  1  1  1  1  1  1  1  1  1
CENTRE ASSIGNMENTS    1  1  1  1  1  1  1  1  1  1  1  1  1  1  1  1  1  1  1  1
CENTRE ASSIGNMENTS    1  1  1  1  1  1  1  1  1  1  1  1  1  1  1  1  1  1  1  1
CENTRE ASSIGNMENTS    1  1  1  1  1  1  1  1  1  1  1  1  1  1  1  1  1  1  1  1
CENTRE ASSIGNMENTS    1  1  1  1  1  1  1  1  1  1  1  1  1  1  1  1  1  1  1  1
CENTRE ASSIGNMENTS    1  1  1  1  1  1  1  1  1  1  1  1  1  1  1  1  1  1  1  1
CENTRE ASSIGNMENTS    1  1  1  1  1  1  1  1  1  1  1  1  1  1  1  1  1  1  1  1
CENTRE ASSIGNMENTS    1  1  1  2  2  2  2  2  2  2  2  2  2  2  2  2  2  2  2  2
CENTRE ASSIGNMENTS    2  2  2  2  2  2  2  2  2  2  2  2  2  2  2  2  2  2  2  2
CENTRE ASSIGNMENTS    2  2  2  2  2  2  2  2  2  2  2  2  2  2  2  2  2  2  2  2
CENTRE ASSIGNMENTS    2  2  2  2  2  2  2  2  2  2  2  2  2  2  2  2  2  2  2  2
CENTRE ASSIGNMENTS    2  2  2  2  2  2  2  2  2  2  2  2  2  2  2  2  2  2  2  2
CENTRE ASSIGNMENTS    2  2  2  2  2  2  2  2  2  2  2  2  2  2  2  2  2  2  2  2
CENTRE ASSIGNMENTS    2  2  2  2  2  2  2  2  2  2  2  2  2  2  3  3  3  3  3  3
CENTRE ASSIGNMENTS    3  3  3  3  3  3  3  3  3  3  3  3  3  3  3  3  3  3  3  3
CENTRE ASSIGNMENTS    3  3  3  3  3  3  3  3  3  3  3  3  3  3  3  3  3  3  3  3
CENTRE ASSIGNMENTS    3  3  3  3  3  3  3  3  3  3  3  3  3  3  3  3  3  3  3  3
CENTRE ASSIGNMENTS    3  3  3  3  3  3  3  3  3  3  3  3  3  3  3  3  3  3  3  3
CENTRE ASSIGNMENTS    3  3  3  3  3  3  3  3  3  3  3  3  3  3  3  3  3  3  3  3
CENTRE ASSIGNMENTS    3  3  3  3  3  3  3  3  3  3  3  3  3  3  3  3  3  3  3  3
CENTRE ASSIGNMENTS    3  3  3  3  3  4  4  4  4  4  4  4  4  4  4  4  4  4  4  4
CENTRE ASSIGNMENTS    4  4  4  4  4  4  4  4  4  4  4  4  4  4  4  4  4  4  4  4
CENTRE ASSIGNMENTS    4  4  4  4  4  4  4  4  4  4  4  4  4  4  4  4  4  4  4  4
CENTRE ASSIGNMENTS    4  4  4  4  4  4  4  4  4  4  4  4  4  4  4  4  4  4  4  4
CENTRE ASSIGNMENTS    4  4  4  4  4  4  4  4  4  4  4  4  4  4  4  4  4  4  4  4
CENTRE ASSIGNMENTS    4  4  4  4  4  4  4  4  4  4  4  4  4  4  4  4  4  4  4  4
CENTRE ASSIGNMENTS    4  4  4  4  4  4  4  4  4  4  4  4  4  4  4  4  5  5  5  5
CENTRE ASSIGNMENTS    5  5  5  5  5  5  5  5  5  5  5  5  5  5  5  5  5  5  5  5
CENTRE ASSIGNMENTS    5  5  5  5  5  5  5  5  5  5  5  5  5  5  5  5  5  5  5  5
CENTRE ASSIGNMENTS    5  5  5  5  5  5  5  5  5  5  5  5  5  5  5  5  5  5  5  5
CENTRE ASSIGNMENTS    5  5  5  5  5  5  5  5  5  5  5  5  5  5  5  5  5  5  5  5
CENTRE ASSIGNMENTS    5  5  5  5  5  5  5  5  5  5  5  5  5  5  5  5  5  5  5  5
CENTRE ASSIGNMENTS    5  5  5  5  5  5  5  5  5  5  5  5  5  5  5  5  5  5  5  5
CENTRE ASSIGNMENTS    5  5  5  5  5  5  5
TYPE ASSIGNMENTS      1  1  1  1  1  1  1  1  1  1  1  1  1  1  1  1  1  1  1  1
TYPE ASSIGNMENTS      1  1  1  1  1  1  1  1  1  1  1  1  1  1  1  1  1  1  1  1
TYPE ASSIGNMENTS      1  1  1  1  1  1  1  1  1  1  1  1  1  1  1  1  1  1  1  1
TYPE ASSIGNMENTS      1  1  1  1  1  1  1  1  1  1  1  1  1  1  1  2  2  2  2  2
TYPE ASSIGNMENTS      2  2  2  2  2  2  3  3  3  3  3  3  3  3  3  3  3  4  4  4
TYPE ASSIGNMENTS      4  4  4  4  4  4  4  4  2  2  2  2  2  2  2  2  2  2  2  3
TYPE ASSIGNMENTS      3  3  3  3  3  3  3  3  3  3  4  4  4  4  4  4  4  4  4  4
TYPE ASSIGNMENTS      4  2  2  2  2  2  2  2  2  2  2  2  3  3  3  3  3  3  3  3
TYPE ASSIGNMENTS      3  3  3  4  4  4  4  4  4  4  4  4  4  4  2  3  4  2  3  4
TYPE ASSIGNMENTS      2  3  4  5  5  5  5  5  5  5  6  6  6  6  6  6  6  7  7  7
TYPE ASSIGNMENTS      7  7  7  7  8  8  8  8  8  8  8  9  9  9  9  9  9  9 10 10
TYPE ASSIGNMENTS     10 10 10 10 10  5  6  7  8  9 10  5  6  7  8  9 10  5  6  7
TYPE ASSIGNMENTS      8  9 10 11 12 13 17 14 15 18 19 16 20 11 12 13 17 14 15 18
TYPE ASSIGNMENTS     19 16 20  1  1  1  1  1  1  1  1  1  1  1  1  1  1  1  1  1
TYPE ASSIGNMENTS      1  1  1  1  1  1  1  1  1  1  1  1  1  1  1  1  1  1  1  1
TYPE ASSIGNMENTS      1  1  1  1  1  2  2  2  2  2  2  2  3  3  3  3  3  3  3  4
TYPE ASSIGNMENTS      4  4  4  4  4  4  2  2  2  2  2  2  2  3  3  3  3  3  3  3
TYPE ASSIGNMENTS      4  4  4  4  4  4  4  2  3  4  2  3  4  2  3  4  5  6  7  8
TYPE ASSIGNMENTS      9 10  5  6  7  8  9 10  5  6  7  8  9 10 11 12 13 17 14 15
TYPE ASSIGNMENTS     18 19 16 20 11 12 13 17 14 15 18 19 16 20  1  1  1  1  1  1
TYPE ASSIGNMENTS      1  1  1  1  1  1  1  1  1  1  1  1  1  1  1  1  1  1  1  1
TYPE ASSIGNMENTS      1  1  1  1  1  1  1  1  1  1  1  1  1  1  1  1  2  2  2  2
TYPE ASSIGNMENTS      2  2  2  3  3  3  3  3  3  3  4  4  4  4  4  4  4  2  2  2
TYPE ASSIGNMENTS      2  2  2  2  3  3  3  3  3  3  3  4  4  4  4  4  4  4  2  3
TYPE ASSIGNMENTS      4  2  3  4  2  3  4  5  6  7  8  9 10  5  6  7  8  9 10  5
TYPE ASSIGNMENTS      6  7  8  9 10 11 12 13 17 14 15 18 19 16 20 11 12 13 17 14
TYPE ASSIGNMENTS     15 18 19 16 20  1  1  1  1  1  1  1  1  1  1  1  1  1  1  1
TYPE ASSIGNMENTS      1  1  1  1  1  1  1  1  1  1  1  1  1  1  1  1  1  1  1  1
TYPE ASSIGNMENTS      1  1  1  1  1  1  1  2  2  2  2  2  2  2  3  3  3  3  3  3
TYPE ASSIGNMENTS      3  4  4  4  4  4  4  4  2  2  2  2  2  2  2  3  3  3  3  3
TYPE ASSIGNMENTS      3  3  4  4  4  4  4  4  4  2  3  4  2  3  4  2  3  4  5  6
TYPE ASSIGNMENTS      7  8  9 10  5  6  7  8  9 10  5  6  7  8  9 10 11 12 13 17
TYPE ASSIGNMENTS     14 15 18 19 16 20 11 12 13 17 14 15 18 19 16 20  1  1  1  1
TYPE ASSIGNMENTS      1  1  1  1  1  1  1  1  1  1  1  1  1  1  1  1  1  1  1  1
TYPE ASSIGNMENTS      1  1  1  1  1  1  1  1  1  1  1  1  1  1  1  1  1  1  2  2
TYPE ASSIGNMENTS      2  2  2  2  2  3  3  3  3  3  3  3  4  4  4  4  4  4  4  2
TYPE ASSIGNMENTS      2  2  2  2  2  2  3  3  3  3  3  3  3  4  4  4  4  4  4  4
TYPE ASSIGNMENTS      2  3  4  2  3  4  2  3  4  5  6  7  8  9 10  5  6  7  8  9
TYPE ASSIGNMENTS     10  5  6  7  8  9 10 11 12 13 17 14 15 18 19 16 20 11 12 13
TYPE ASSIGNMENTS     17 14 15 18 19 16 20
EXPONENTS  0.7447967D+07 0.1115318D+07 0.2538426D+06 0.7191529D+05 0.2347018D+05
EXPONENTS  0.8477492D+04 0.3308391D+04 0.1372605D+04 0.5982201D+03 0.2713860D+03
EXPONENTS  0.1269780D+03 0.6022207D+02 0.2801858D+02 0.1351752D+02 0.6309406D+01
EXPONENTS  0.2904534D+01 0.1287556D+01 0.1677320D+00 0.7447967D+07 0.1115318D+07
EXPONENTS  0.2538426D+06 0.7191529D+05 0.2347018D+05 0.8477492D+04 0.3308391D+04
EXPONENTS  0.1372605D+04 0.5982201D+03 0.2713860D+03 0.1269780D+03 0.6022207D+02
EXPONENTS  0.2801858D+02 0.1351752D+02 0.6309406D+01 0.2904534D+01 0.1287556D+01
EXPONENTS  0.1677320D+00 0.7447967D+07 0.1115318D+07 0.2538426D+06 0.7191529D+05
EXPONENTS  0.2347018D+05 0.8477492D+04 0.3308391D+04 0.1372605D+04 0.5982201D+03
EXPONENTS  0.2713860D+03 0.1269780D+03 0.6022207D+02 0.2801858D+02 0.1351752D+02
EXPONENTS  0.6309406D+01 0.2904534D+01 0.1287556D+01 0.1677320D+00 0.7447967D+07
EXPONENTS  0.1115318D+07 0.2538426D+06 0.7191529D+05 0.2347018D+05 0.8477492D+04
EXPONENTS  0.3308391D+04 0.1372605D+04 0.5982201D+03 0.2713860D+03 0.1269780D+03
EXPONENTS  0.6022207D+02 0.2801858D+02 0.1351752D+02 0.6309406D+01 0.2904534D+01
EXPONENTS  0.1287556D+01 0.1677320D+00 0.3365520D+00 0.7106900D-01 0.2737000D-01
EXPONENTS  0.6979598D+04 0.1654165D+04 0.5360286D+03 0.2035371D+03 0.8523753D+02
EXPONENTS  0.3784196D+02 0.1740651D+02 0.7881492D+01 0.3533213D+01 0.1521473D+01
EXPONENTS  0.1990930D+00 0.6979598D+04 0.1654165D+04 0.5360286D+03 0.2035371D+03
EXPONENTS  0.8523753D+02 0.3784196D+02 0.1740651D+02 0.7881492D+01 0.3533213D+01
EXPONENTS  0.1521473D+01 0.1990930D+00 0.6979598D+04 0.1654165D+04 0.5360286D+03
EXPONENTS  0.2035371D+03 0.8523753D+02 0.3784196D+02 0.1740651D+02 0.7881492D+01
EXPONENTS  0.3533213D+01 0.1521473D+01 0.1990930D+00 0.6979598D+04 0.1654165D+04
EXPONENTS  0.5360286D+03 0.2035371D+03 0.8523753D+02 0.3784196D+02 0.1740651D+02
EXPONENTS  0.7881492D+01 0.3533213D+01 0.1521473D+01 0.1990930D+00 0.6979598D+04
EXPONENTS  0.1654165D+04 0.5360286D+03 0.2035371D+03 0.8523753D+02 0.3784196D+02
EXPONENTS  0.1740651D+02 0.7881492D+01 0.3533213D+01 0.1521473D+01 0.1990930D+00
EXPONENTS  0.6979598D+04 0.1654165D+04 0.5360286D+03 0.2035371D+03 0.8523753D+02
EXPONENTS  0.3784196D+02 0.1740651D+02 0.7881492D+01 0.3533213D+01 0.1521473D+01
EXPONENTS  0.1990930D+00 0.6979598D+04 0.1654165D+04 0.5360286D+03 0.2035371D+03
EXPONENTS  0.8523753D+02 0.3784196D+02 0.1740651D+02 0.7881492D+01 0.3533213D+01
EXPONENTS  0.1521473D+01 0.1990930D+00 0.6979598D+04 0.1654165D+04 0.5360286D+03
EXPONENTS  0.2035371D+03 0.8523753D+02 0.3784196D+02 0.1740651D+02 0.7881492D+01
EXPONENTS  0.3533213D+01 0.1521473D+01 0.1990930D+00 0.6979598D+04 0.1654165D+04
EXPONENTS  0.5360286D+03 0.2035371D+03 0.8523753D+02 0.3784196D+02 0.1740651D+02
EXPONENTS  0.7881492D+01 0.3533213D+01 0.1521473D+01 0.1990930D+00 0.5627040D+00
EXPONENTS  0.5627040D+00 0.5627040D+00 0.6703100D-01 0.6703100D-01 0.6703100D-01
EXPONENTS  0.2136800D-01 0.2136800D-01 0.2136800D-01 0.2822391D+03 0.8454996D+02
EXPONENTS  0.3207366D+02 0.1349750D+02 0.5958550D+01 0.2610788D+01 0.1103987D+01
EXPONENTS  0.2822391D+03 0.8454996D+02 0.3207366D+02 0.1349750D+02 0.5958550D+01
EXPONENTS  0.2610788D+01 0.1103987D+01 0.2822391D+03 0.8454996D+02 0.3207366D+02
EXPONENTS  0.1349750D+02 0.5958550D+01 0.2610788D+01 0.1103987D+01 0.2822391D+03
EXPONENTS  0.8454996D+02 0.3207366D+02 0.1349750D+02 0.5958550D+01 0.2610788D+01
EXPONENTS  0.1103987D+01 0.2822391D+03 0.8454996D+02 0.3207366D+02 0.1349750D+02
EXPONENTS  0.5958550D+01 0.2610788D+01 0.1103987D+01 0.2822391D+03 0.8454996D+02
EXPONENTS  0.3207366D+02 0.1349750D+02 0.5958550D+01 0.2610788D+01 0.1103987D+01
EXPONENTS  0.4240490D+00 0.4240490D+00 0.4240490D+00 0.4240490D+00 0.4240490D+00
EXPONENTS  0.4240490D+00 0.1520000D+00 0.1520000D+00 0.1520000D+00 0.1520000D+00
EXPONENTS  0.1520000D+00 0.1520000D+00 0.5280000D-01 0.5280000D-01 0.5280000D-01
EXPONENTS  0.5280000D-01 0.5280000D-01 0.5280000D-01 0.3458000D+00 0.3458000D+00
EXPONENTS  0.3458000D+00 0.3458000D+00 0.3458000D+00 0.3458000D+00 0.3458000D+00
EXPONENTS  0.3458000D+00 0.3458000D+00 0.3458000D+00 0.1323000D+00 0.1323000D+00
EXPONENTS  0.1323000D+00 0.1323000D+00 0.1323000D+00 0.1323000D+00 0.1323000D+00
EXPONENTS  0.1323000D+00 0.1323000D+00 0.1323000D+00 0.4561000D+06 0.6833000D+05
EXPONENTS  0.1555000D+05 0.4405000D+04 0.1439000D+04 0.5204000D+03 0.2031000D+03
EXPONENTS  0.8396000D+02 0.3620000D+02 0.1583000D+02 0.6334000D+01 0.2694000D+01
EXPONENTS  0.4313000D+00 0.4561000D+06 0.6833000D+05 0.1555000D+05 0.4405000D+04
EXPONENTS  0.1439000D+04 0.5204000D+03 0.2031000D+03 0.8396000D+02 0.3620000D+02
EXPONENTS  0.1583000D+02 0.6334000D+01 0.2694000D+01 0.4313000D+00 0.4561000D+06
EXPONENTS  0.6833000D+05 0.1555000D+05 0.4405000D+04 0.1439000D+04 0.5204000D+03
EXPONENTS  0.2031000D+03 0.8396000D+02 0.3620000D+02 0.1583000D+02 0.6334000D+01
EXPONENTS  0.2694000D+01 0.4313000D+00 0.9768000D+00 0.1625000D+00 0.5910000D-01
EXPONENTS  0.6633000D+03 0.1568000D+03 0.4998000D+02 0.1842000D+02 0.7240000D+01
EXPONENTS  0.2922000D+01 0.3818000D+00 0.6633000D+03 0.1568000D+03 0.4998000D+02
EXPONENTS  0.1842000D+02 0.7240000D+01 0.2922000D+01 0.3818000D+00 0.6633000D+03
EXPONENTS  0.1568000D+03 0.4998000D+02 0.1842000D+02 0.7240000D+01 0.2922000D+01
EXPONENTS  0.3818000D+00 0.6633000D+03 0.1568000D+03 0.4998000D+02 0.1842000D+02
EXPONENTS  0.7240000D+01 0.2922000D+01 0.3818000D+00 0.6633000D+03 0.1568000D+03
EXPONENTS  0.4998000D+02 0.1842000D+02 0.7240000D+01 0.2922000D+01 0.3818000D+00
EXPONENTS  0.6633000D+03 0.1568000D+03 0.4998000D+02 0.1842000D+02 0.7240000D+01
EXPONENTS  0.2922000D+01 0.3818000D+00 0.1022000D+01 0.1022000D+01 0.1022000D+01
EXPONENTS  0.1301000D+00 0.1301000D+00 0.1301000D+00 0.4190000D-01 0.4190000D-01
EXPONENTS  0.4190000D-01 0.1046000D+01 0.1046000D+01 0.1046000D+01 0.1046000D+01
EXPONENTS  0.1046000D+01 0.1046000D+01 0.3440000D+00 0.3440000D+00 0.3440000D+00
EXPONENTS  0.3440000D+00 0.3440000D+00 0.3440000D+00 0.1350000D+00 0.1350000D+00
EXPONENTS  0.1350000D+00 0.1350000D+00 0.1350000D+00 0.1350000D+00 0.7060000D+00
EXPONENTS  0.7060000D+00 0.7060000D+00 0.7060000D+00 0.7060000D+00 0.7060000D+00
EXPONENTS  0.7060000D+00 0.7060000D+00 0.7060000D+00 0.7060000D+00 0.3120000D+00
EXPONENTS  0.3120000D+00 0.3120000D+00 0.3120000D+00 0.3120000D+00 0.3120000D+00
EXPONENTS  0.3120000D+00 0.3120000D+00 0.3120000D+00 0.3120000D+00 0.4561000D+06
EXPONENTS  0.6833000D+05 0.1555000D+05 0.4405000D+04 0.1439000D+04 0.5204000D+03
EXPONENTS  0.2031000D+03 0.8396000D+02 0.3620000D+02 0.1583000D+02 0.6334000D+01
EXPONENTS  0.2694000D+01 0.4313000D+00 0.4561000D+06 0.6833000D+05 0.1555000D+05
EXPONENTS  0.4405000D+04 0.1439000D+04 0.5204000D+03 0.2031000D+03 0.8396000D+02
EXPONENTS  0.3620000D+02 0.1583000D+02 0.6334000D+01 0.2694000D+01 0.4313000D+00
EXPONENTS  0.4561000D+06 0.6833000D+05 0.1555000D+05 0.4405000D+04 0.1439000D+04
EXPONENTS  0.5204000D+03 0.2031000D+03 0.8396000D+02 0.3620000D+02 0.1583000D+02
EXPONENTS  0.6334000D+01 0.2694000D+01 0.4313000D+00 0.9768000D+00 0.1625000D+00
EXPONENTS  0.5910000D-01 0.6633000D+03 0.1568000D+03 0.4998000D+02 0.1842000D+02
EXPONENTS  0.7240000D+01 0.2922000D+01 0.3818000D+00 0.6633000D+03 0.1568000D+03
EXPONENTS  0.4998000D+02 0.1842000D+02 0.7240000D+01 0.2922000D+01 0.3818000D+00
EXPONENTS  0.6633000D+03 0.1568000D+03 0.4998000D+02 0.1842000D+02 0.7240000D+01
EXPONENTS  0.2922000D+01 0.3818000D+00 0.6633000D+03 0.1568000D+03 0.4998000D+02
EXPONENTS  0.1842000D+02 0.7240000D+01 0.2922000D+01 0.3818000D+00 0.6633000D+03
EXPONENTS  0.1568000D+03 0.4998000D+02 0.1842000D+02 0.7240000D+01 0.2922000D+01
EXPONENTS  0.3818000D+00 0.6633000D+03 0.1568000D+03 0.4998000D+02 0.1842000D+02
EXPONENTS  0.7240000D+01 0.2922000D+01 0.3818000D+00 0.1022000D+01 0.1022000D+01
EXPONENTS  0.1022000D+01 0.1301000D+00 0.1301000D+00 0.1301000D+00 0.4190000D-01
EXPONENTS  0.4190000D-01 0.4190000D-01 0.1046000D+01 0.1046000D+01 0.1046000D+01
EXPONENTS  0.1046000D+01 0.1046000D+01 0.1046000D+01 0.3440000D+00 0.3440000D+00
EXPONENTS  0.3440000D+00 0.3440000D+00 0.3440000D+00 0.3440000D+00 0.1350000D+00
EXPONENTS  0.1350000D+00 0.1350000D+00 0.1350000D+00 0.1350000D+00 0.1350000D+00
EXPONENTS  0.7060000D+00 0.7060000D+00 0.7060000D+00 0.7060000D+00 0.7060000D+00
EXPONENTS  0.7060000D+00 0.7060000D+00 0.7060000D+00 0.7060000D+00 0.7060000D+00
EXPONENTS  0.3120000D+00 0.3120000D+00 0.3120000D+00 0.3120000D+00 0.3120000D+00
EXPONENTS  0.3120000D+00 0.3120000D+00 0.3120000D+00 0.3120000D+00 0.3120000D+00
EXPONENTS  0.4561000D+06 0.6833000D+05 0.1555000D+05 0.4405000D+04 0.1439000D+04
EXPONENTS  0.5204000D+03 0.2031000D+03 0.8396000D+02 0.3620000D+02 0.1583000D+02
EXPONENTS  0.6334000D+01 0.2694000D+01 0.4313000D+00 0.4561000D+06 0.6833000D+05
EXPONENTS  0.1555000D+05 0.4405000D+04 0.1439000D+04 0.5204000D+03 0.2031000D+03
EXPONENTS  0.8396000D+02 0.3620000D+02 0.1583000D+02 0.6334000D+01 0.2694000D+01
EXPONENTS  0.4313000D+00 0.4561000D+06 0.6833000D+05 0.1555000D+05 0.4405000D+04
EXPONENTS  0.1439000D+04 0.5204000D+03 0.2031000D+03 0.8396000D+02 0.3620000D+02
EXPONENTS  0.1583000D+02 0.6334000D+01 0.2694000D+01 0.4313000D+00 0.9768000D+00
EXPONENTS  0.1625000D+00 0.5910000D-01 0.6633000D+03 0.1568000D+03 0.4998000D+02
EXPONENTS  0.1842000D+02 0.7240000D+01 0.2922000D+01 0.3818000D+00 0.6633000D+03
EXPONENTS  0.1568000D+03 0.4998000D+02 0.1842000D+02 0.7240000D+01 0.2922000D+01
EXPONENTS  0.3818000D+00 0.6633000D+03 0.1568000D+03 0.4998000D+02 0.1842000D+02
EXPONENTS  0.7240000D+01 0.2922000D+01 0.3818000D+00 0.6633000D+03 0.1568000D+03
EXPONENTS  0.4998000D+02 0.1842000D+02 0.7240000D+01 0.2922000D+01 0.3818000D+00
EXPONENTS  0.6633000D+03 0.1568000D+03 0.4998000D+02 0.1842000D+02 0.7240000D+01
EXPONENTS  0.2922000D+01 0.3818000D+00 0.6633000D+03 0.1568000D+03 0.4998000D+02
EXPONENTS  0.1842000D+02 0.7240000D+01 0.2922000D+01 0.3818000D+00 0.1022000D+01
EXPONENTS  0.1022000D+01 0.1022000D+01 0.1301000D+00 0.1301000D+00 0.1301000D+00
EXPONENTS  0.4190000D-01 0.4190000D-01 0.4190000D-01 0.1046000D+01 0.1046000D+01
EXPONENTS  0.1046000D+01 0.1046000D+01 0.1046000D+01 0.1046000D+01 0.3440000D+00
EXPONENTS  0.3440000D+00 0.3440000D+00 0.3440000D+00 0.3440000D+00 0.3440000D+00
EXPONENTS  0.1350000D+00 0.1350000D+00 0.1350000D+00 0.1350000D+00 0.1350000D+00
EXPONENTS  0.1350000D+00 0.7060000D+00 0.7060000D+00 0.7060000D+00 0.7060000D+00
EXPONENTS  0.7060000D+00 0.7060000D+00 0.7060000D+00 0.7060000D+00 0.7060000D+00
EXPONENTS  0.7060000D+00 0.3120000D+00 0.3120000D+00 0.3120000D+00 0.3120000D+00
EXPONENTS  0.3120000D+00 0.3120000D+00 0.3120000D+00 0.3120000D+00 0.3120000D+00
EXPONENTS  0.3120000D+00 0.4561000D+06 0.6833000D+05 0.1555000D+05 0.4405000D+04
EXPONENTS  0.1439000D+04 0.5204000D+03 0.2031000D+03 0.8396000D+02 0.3620000D+02
EXPONENTS  0.1583000D+02 0.6334000D+01 0.2694000D+01 0.4313000D+00 0.4561000D+06
EXPONENTS  0.6833000D+05 0.1555000D+05 0.4405000D+04 0.1439000D+04 0.5204000D+03
EXPONENTS  0.2031000D+03 0.8396000D+02 0.3620000D+02 0.1583000D+02 0.6334000D+01
EXPONENTS  0.2694000D+01 0.4313000D+00 0.4561000D+06 0.6833000D+05 0.1555000D+05
EXPONENTS  0.4405000D+04 0.1439000D+04 0.5204000D+03 0.2031000D+03 0.8396000D+02
EXPONENTS  0.3620000D+02 0.1583000D+02 0.6334000D+01 0.2694000D+01 0.4313000D+00
EXPONENTS  0.9768000D+00 0.1625000D+00 0.5910000D-01 0.6633000D+03 0.1568000D+03
EXPONENTS  0.4998000D+02 0.1842000D+02 0.7240000D+01 0.2922000D+01 0.3818000D+00
EXPONENTS  0.6633000D+03 0.1568000D+03 0.4998000D+02 0.1842000D+02 0.7240000D+01
EXPONENTS  0.2922000D+01 0.3818000D+00 0.6633000D+03 0.1568000D+03 0.4998000D+02
EXPONENTS  0.1842000D+02 0.7240000D+01 0.2922000D+01 0.3818000D+00 0.6633000D+03
EXPONENTS  0.1568000D+03 0.4998000D+02 0.1842000D+02 0.7240000D+01 0.2922000D+01
EXPONENTS  0.3818000D+00 0.6633000D+03 0.1568000D+03 0.4998000D+02 0.1842000D+02
EXPONENTS  0.7240000D+01 0.2922000D+01 0.3818000D+00 0.6633000D+03 0.1568000D+03
EXPONENTS  0.4998000D+02 0.1842000D+02 0.7240000D+01 0.2922000D+01 0.3818000D+00
EXPONENTS  0.1022000D+01 0.1022000D+01 0.1022000D+01 0.1301000D+00 0.1301000D+00
EXPONENTS  0.1301000D+00 0.4190000D-01 0.4190000D-01 0.4190000D-01 0.1046000D+01
EXPONENTS  0.1046000D+01 0.1046000D+01 0.1046000D+01 0.1046000D+01 0.1046000D+01
EXPONENTS  0.3440000D+00 0.3440000D+00 0.3440000D+00 0.3440000D+00 0.3440000D+00
EXPONENTS  0.3440000D+00 0.1350000D+00 0.1350000D+00 0.1350000D+00 0.1350000D+00
EXPONENTS  0.1350000D+00 0.1350000D+00 0.7060000D+00 0.7060000D+00 0.7060000D+00
EXPONENTS  0.7060000D+00 0.7060000D+00 0.7060000D+00 0.7060000D+00 0.7060000D+00
EXPONENTS  0.7060000D+00 0.7060000D+00 0.3120000D+00 0.3120000D+00 0.3120000D+00
EXPONENTS  0.3120000D+00 0.3120000D+00 0.3120000D+00 0.3120000D+00 0.3120000D+00
EXPONENTS  0.3120000D+00 0.3120000D+00
MO    1     MO 0.0        OCC NO =    2.0000000  ORB. ENERGY = -405.376204
  0.75191747D+00  0.14040130D+01  0.24333059D+01  0.39852613D+01  0.62332570D+01
  0.93325413D+01  0.13229976D+02  0.17246121D+02  0.19355601D+02  0.16455604D+02
  0.82097685D+01  0.15263562D+01  0.35861095D-01  0.51987319D-02 -0.13777810D-02
  0.28621653D-03 -0.78565086D-04 -0.49688254D-05 -0.24113700D-06 -0.45176214D-06
 -0.78173401D-06 -0.12801394D-05 -0.20114575D-05 -0.30324425D-05 -0.43997259D-05
 -0.59997333D-05 -0.74868639D-05 -0.78119333D-05 -0.56573583D-05 -0.39967501D-06
  0.40973008D-05  0.28885965D-05  0.40898989D-06  0.37049929D-08  0.18601128D-08
  0.63237674D-10  0.65351443D-06  0.12060979D-05  0.20850496D-05  0.34176189D-05
  0.53725537D-05  0.81075846D-05  0.11794208D-04  0.16180195D-04  0.20454327D-04
  0.21952270D-04  0.16752135D-04  0.13074240D-05 -0.16899008D-04 -0.17957807D-04
  0.22010077D-06  0.81774232D-05  0.29581597D-05 -0.13655551D-07 -0.34668845D-06
 -0.75110851D-06 -0.12787554D-05 -0.20930666D-05 -0.32876679D-05 -0.49638378D-05
 -0.72207022D-05 -0.99185663D-05 -0.12553827D-04 -0.13536350D-04 -0.10389980D-04
 -0.84496412D-06  0.11031150D-04  0.12345731D-04 -0.39116899D-06 -0.73151174D-05
 -0.49990769D-05  0.19727851D-05  0.12971598D-04 -0.18779587D-05 -0.11720410D-06
 -0.54422064D-15 -0.77923335D-15 -0.10264124D-14 -0.11751766D-14 -0.10753178D-14
 -0.68442711D-15 -0.23635029D-15 -0.26389841D-16 -0.33410790D-18 -0.60635494D-19
 -0.47600107D-21  0.67728790D-15  0.96976351D-15  0.12773803D-14  0.14625187D-14
  0.13382435D-14  0.85177622D-15  0.29414024D-15  0.32842414D-16  0.41580054D-18
  0.75461464D-19  0.59238797D-21  0.20269262D-16  0.29022209D-16  0.38228287D-16
  0.43768943D-16  0.40049747D-16  0.25491191D-16  0.88027642D-17  0.98287819D-18
  0.12443704D-19  0.22583427D-20  0.17728454D-22  0.51758296D-15  0.74597493D-15
  0.99080587D-15  0.11676037D-14  0.11148435D-14  0.76128226D-15  0.24113327D-15
 -0.11366466D-15 -0.11783294D-15 -0.31001464D-16  0.20570598D-19 -0.40848047D-14
 -0.58872918D-14 -0.78195165D-14 -0.92148189D-14 -0.87984312D-14 -0.60080984D-14
 -0.19030424D-14  0.89705026D-15  0.92994663D-15  0.24466595D-15 -0.16234475D-18
 -0.35779595D-15 -0.51567928D-15 -0.68492658D-15 -0.80714381D-15 -0.77067162D-15
 -0.52626097D-15 -0.16669117D-15  0.78574368D-16  0.81455825D-16  0.21430764D-16
 -0.14220091D-19 -0.42881168D-15 -0.61413812D-15 -0.82134569D-15 -0.96493258D-15
 -0.93238270D-15 -0.63561540D-15 -0.20319932D-15  0.12051000D-15  0.11694145D-15
  0.39518679D-16 -0.14782377D-16  0.30114793D-14  0.43129988D-14  0.57681860D-14
  0.67765750D-14  0.65479821D-14  0.44638304D-14  0.14270380D-14 -0.84632345D-15
 -0.82126203D-15 -0.27753368D-15  0.10381439D-15  0.29689893D-15  0.42521452D-15
  0.56868007D-15  0.66809620D-15  0.64555944D-15  0.44008487D-15  0.14069034D-15
 -0.83438238D-16 -0.80967456D-16 -0.27361787D-16  0.10234964D-16  0.60228471D-17
 -0.52666351D-16  0.11366073D-16 -0.58301841D-17  0.33096958D-16 -0.58188273D-16
 -0.50189112D-18 -0.54706464D-18 -0.15768298D-17  0.68519333D-16  0.68923242D-16
  0.55078485D-16  0.33729618D-16  0.14151028D-16  0.38580851D-17  0.63120205D-18
 -0.55304429D-16 -0.55630439D-16 -0.44455835D-16 -0.27224393D-16 -0.11421806D-16
 -0.31139999D-17 -0.50946598D-18 -0.13214904D-16 -0.13292803D-16 -0.10622650D-16
 -0.65052247D-17 -0.27292220D-17 -0.74408523D-18 -0.12173607D-18 -0.16937437D-15
 -0.17037280D-15 -0.13614966D-15 -0.83376946D-16 -0.34980221D-16 -0.95368811D-17
 -0.15602815D-17 -0.59164087D-15 -0.59512848D-15 -0.47558377D-15 -0.29124364D-15
 -0.12218926D-15 -0.33313238D-16 -0.54502125D-17  0.78785714D-17  0.79250141D-17
  0.63330998D-17  0.38783390D-17  0.16271303D-17  0.44361492D-18  0.72577624D-19
 -0.25275171D-17  0.18190604D-17  0.70845675D-18  0.14995072D-16  0.25475958D-16
 -0.17993232D-19  0.46196087D-17 -0.32180498D-17 -0.14015590D-17 -0.58683535D-17
  0.48354397D-16 -0.97304008D-17  0.86212158D-18 -0.59298324D-18 -0.26913834D-18
 -0.51413972D-17  0.27451149D-17 -0.18768378D-18  0.11376828D-17 -0.57720241D-17
  0.11383261D-17 -0.10607432D-17  0.81436238D-17 -0.12647447D-17 -0.23523052D-17
  0.91724485D-17 -0.21502336D-17  0.83964179D-06  0.21993534D-18 -0.17136161D-17
 -0.13371106D-17 -0.17856941D-18  0.38305884D-17  0.11982010D-17 -0.48123660D-18
  0.13102600D-17  0.28131307D-17 -0.31734373D-06 -0.56107447D-07 -0.10497725D-06
 -0.18137743D-06 -0.29403397D-06 -0.44651404D-06 -0.62060201D-06 -0.73780626D-06
 -0.65718107D-06 -0.32624436D-06 -0.52563193D-07 -0.80698503D-09 -0.14420743D-09
 -0.53888067D-11  0.85172302D-07  0.15908963D-06  0.27610777D-06  0.44801070D-06
  0.69346736D-06  0.99263552D-06  0.12956994D-05  0.13807839D-05  0.10321640D-05
  0.54486105D-07 -0.70011941D-06 -0.41595137D-06  0.15595058D-08 -0.31950003D-07
 -0.59630077D-07 -0.10363183D-06 -0.16795670D-06 -0.26086306D-06 -0.37369386D-06
 -0.49342792D-06 -0.53354195D-06 -0.41830380D-06 -0.20814659D-07  0.35859212D-06
  0.37120932D-06 -0.16797747D-06  0.30119559D-06  0.96524511D-06  0.22986964D-06
  0.94284365D-06  0.12419367D-05  0.13701471D-05  0.11380647D-05  0.60445379D-06
  0.15590626D-06 -0.16026634D-09  0.94284365D-06  0.12419367D-05  0.13701471D-05
  0.11380647D-05  0.60445379D-06  0.15590626D-06 -0.16026634D-09  0.94284365D-06
  0.12419367D-05  0.13701471D-05  0.11380647D-05  0.60445379D-06  0.15590626D-06
 -0.16026634D-09 -0.14551945D-06 -0.19105637D-06 -0.21753173D-06 -0.18419694D-06
 -0.10551510D-06 -0.24001024D-07  0.11233800D-07 -0.14551945D-06 -0.19105637D-06
 -0.21753173D-06 -0.18419694D-06 -0.10551510D-06 -0.24001024D-07  0.11233800D-07
 -0.14551945D-06 -0.19105637D-06 -0.21753173D-06 -0.18419694D-06 -0.10551510D-06
 -0.24001024D-07  0.11233800D-07 -0.42592896D-06 -0.42592896D-06 -0.42592896D-06
 -0.13985075D-06 -0.13985075D-06 -0.13985075D-06 -0.26857467D-09 -0.26857467D-09
 -0.26857467D-09 -0.17903739D-17  0.30532847D-17 -0.12629107D-17  0.76633324D-06
  0.76633324D-06  0.76633324D-06  0.42392594D-18 -0.20995953D-17  0.16756693D-17
 -0.29411691D-06 -0.29411691D-06 -0.29411691D-06  0.36296791D-17 -0.83776821D-18
 -0.27919109D-17 -0.99294963D-08 -0.99294963D-08 -0.99294963D-08 -0.34756052D-07
 -0.34756052D-07 -0.34756052D-07  0.52134078D-07  0.52134078D-07  0.52134078D-07
  0.52134078D-07  0.52134078D-07  0.52134078D-07 -0.36221130D-06 -0.40998101D-07
 -0.40998101D-07 -0.40998101D-07  0.61497152D-07  0.61497152D-07  0.61497152D-07
  0.61497152D-07  0.61497152D-07  0.61497152D-07  0.52883204D-06 -0.56107447D-07
 -0.10497725D-06 -0.18137743D-06 -0.29403397D-06 -0.44651404D-06 -0.62060201D-06
 -0.73780626D-06 -0.65718107D-06 -0.32624436D-06 -0.52563193D-07 -0.80698503D-09
 -0.14420743D-09 -0.53888067D-11  0.85172302D-07  0.15908963D-06  0.27610777D-06
  0.44801070D-06  0.69346736D-06  0.99263552D-06  0.12956994D-05  0.13807839D-05
  0.10321640D-05  0.54486105D-07 -0.70011941D-06 -0.41595137D-06  0.15595058D-08
 -0.31950003D-07 -0.59630077D-07 -0.10363183D-06 -0.16795670D-06 -0.26086306D-06
 -0.37369386D-06 -0.49342792D-06 -0.53354195D-06 -0.41830380D-06 -0.20814659D-07
  0.35859212D-06  0.37120932D-06 -0.16797747D-06  0.30119559D-06  0.96524511D-06
  0.22986964D-06  0.94284365D-06  0.12419367D-05  0.13701471D-05  0.11380647D-05
  0.60445379D-06  0.15590626D-06 -0.16026634D-09 -0.94284365D-06 -0.12419367D-05
 -0.13701471D-05 -0.11380647D-05 -0.60445379D-06 -0.15590626D-06  0.16026634D-09
 -0.94284365D-06 -0.12419367D-05 -0.13701471D-05 -0.11380647D-05 -0.60445379D-06
 -0.15590626D-06  0.16026634D-09 -0.14551945D-06 -0.19105637D-06 -0.21753173D-06
 -0.18419694D-06 -0.10551510D-06 -0.24001024D-07  0.11233800D-07  0.14551945D-06
  0.19105637D-06  0.21753173D-06  0.18419694D-06  0.10551510D-06  0.24001024D-07
 -0.11233800D-07  0.14551945D-06  0.19105637D-06  0.21753173D-06  0.18419694D-06
  0.10551510D-06  0.24001024D-07 -0.11233800D-07 -0.42592896D-06  0.42592896D-06
  0.42592896D-06 -0.13985075D-06  0.13985075D-06  0.13985075D-06 -0.26857467D-09
  0.26857467D-09  0.26857467D-09 -0.43686568D-17  0.10799943D-17  0.32886625D-17
 -0.76633324D-06 -0.76633324D-06  0.76633324D-06  0.22915337D-17  0.22991384D-19
 -0.23145251D-17  0.29411691D-06  0.29411691D-06 -0.29411691D-06 -0.13869250D-17
  0.16025307D-19  0.13708997D-17  0.99294963D-08  0.99294963D-08 -0.99294963D-08
 -0.34756052D-07  0.34756052D-07  0.34756052D-07  0.52134078D-07 -0.52134078D-07
 -0.52134078D-07  0.52134078D-07 -0.52134078D-07 -0.52134078D-07 -0.36221130D-06
 -0.40998101D-07  0.40998101D-07  0.40998101D-07  0.61497152D-07 -0.61497152D-07
 -0.61497152D-07  0.61497152D-07 -0.61497152D-07 -0.61497152D-07  0.52883204D-06
 -0.56107447D-07 -0.10497725D-06 -0.18137743D-06 -0.29403397D-06 -0.44651404D-06
 -0.62060201D-06 -0.73780626D-06 -0.65718107D-06 -0.32624436D-06 -0.52563193D-07
 -0.80698503D-09 -0.14420743D-09 -0.53888067D-11  0.85172302D-07  0.15908963D-06
  0.27610777D-06  0.44801070D-06  0.69346736D-06  0.99263552D-06  0.12956994D-05
  0.13807839D-05  0.10321640D-05  0.54486105D-07 -0.70011941D-06 -0.41595137D-06
  0.15595058D-08 -0.31950003D-07 -0.59630077D-07 -0.10363183D-06 -0.16795670D-06
 -0.26086306D-06 -0.37369386D-06 -0.49342792D-06 -0.53354194D-06 -0.41830380D-06
 -0.20814659D-07  0.35859212D-06  0.37120932D-06 -0.16797747D-06  0.30119559D-06
  0.96524511D-06  0.22986964D-06 -0.94284365D-06 -0.12419367D-05 -0.13701471D-05
 -0.11380647D-05 -0.60445379D-06 -0.15590626D-06  0.16026634D-09  0.94284365D-06
  0.12419367D-05  0.13701471D-05  0.11380647D-05  0.60445379D-06  0.15590626D-06
 -0.16026634D-09 -0.94284365D-06 -0.12419367D-05 -0.13701471D-05 -0.11380647D-05
 -0.60445379D-06 -0.15590626D-06  0.16026634D-09  0.14551945D-06  0.19105637D-06
  0.21753173D-06  0.18419694D-06  0.10551510D-06  0.24001024D-07 -0.11233800D-07
 -0.14551945D-06 -0.19105637D-06 -0.21753173D-06 -0.18419694D-06 -0.10551510D-06
 -0.24001024D-07  0.11233800D-07  0.14551945D-06  0.19105637D-06  0.21753173D-06
  0.18419694D-06  0.10551510D-06  0.24001024D-07 -0.11233800D-07  0.42592896D-06
 -0.42592896D-06  0.42592896D-06  0.13985075D-06 -0.13985075D-06  0.13985075D-06
  0.26857467D-09 -0.26857466D-09  0.26857467D-09 -0.14912933D-18  0.10220841D-17
 -0.87295473D-18 -0.76633324D-06  0.76633324D-06 -0.76633324D-06  0.59261078D-18
 -0.32719654D-18 -0.26541423D-18  0.29411691D-06 -0.29411691D-06  0.29411691D-06