 Molden2AIM, Version 4.0.0 (06/02/2016)           Time: Wed Jun 27 20:29:15 2018
GAUSSIAN              5 MOL ORBITALS    129 PRIMITIVES        3 NUCLEI
  O    1    (CENTRE  1)   0.00000000  0.00000000  0.22365098  CHARGE =  8.0
  H    2    (CENTRE  2)   0.00000000  1.43843496 -0.88765160  CHARGE =  1.0
  H    3    (CENTRE  3)   0.00000000 -1.43843496 -0.88765160  CHARGE =  1.0
CENTRE ASSIGNMENTS    1  1  1  1  1  1  1  1  1  1  1  1  1  1  1  1  1  1  1  1
CENTRE ASSIGNMENTS    1  1  1  1  1  1  1  1  1  1  1  1  1  1  1  1  1  1  1  1
CENTRE ASSIGNMENTS    1  1  1  1  1  1  1  1  1  1  1  1  1  1  1  1  1  1  1  1
CENTRE ASSIGNMENTS    1  1  1  1  1  1  1  1  1  1  1  1  1  1  1  2  2  2  2  2
CENTRE ASSIGNMENTS    2  2  2  2  2  2  2  2  2  2  2  2  2  2  2  2  2  2  2  2
CENTRE ASSIGNMENTS    2  2  3  3  3  3  3  3  3  3  3  3  3  3  3  3  3  3  3  3
CENTRE ASSIGNMENTS    3  3  3  3  3  3  3  3  3
TYPE ASSIGNMENTS      1  1  1  1  1  1  1  1  1  1  1  1  1  1  1  1  1  1  1  2
TYPE ASSIGNMENTS      2  2  3  3  3  4  4  4  2  3  4  2  3  4  2  3  4  5  6  7
TYPE ASSIGNMENTS      8  9 10  5  6  7  8  9 10  5  6  7  8  9 10 11 12 13 17 14
TYPE ASSIGNMENTS     15 18 19 16 20 11 12 13 17 14 15 18 19 16 20  1  1  1  1  1
TYPE ASSIGNMENTS      1  2  3  4  2  3  4  2  3  4  5  6  7  8  9 10  5  6  7  8
TYPE ASSIGNMENTS      9 10  1  1  1  1  1  1  2  3  4  2  3  4  2  3  4  5  6  7
TYPE ASSIGNMENTS      8  9 10  5  6  7  8  9 10
EXPONENTS  0.1533000D+05 0.2299000D+04 0.5224000D+03 0.1473000D+03 0.4755000D+02
EXPONENTS  0.1676000D+02 0.6207000D+01 0.6882000D+00 0.1533000D+05 0.2299000D+04
EXPONENTS  0.5224000D+03 0.1473000D+03 0.4755000D+02 0.1676000D+02 0.6207000D+01
EXPONENTS  0.6882000D+00 0.1752000D+01 0.2384000D+00 0.7376000D-01 0.3446000D+02
EXPONENTS  0.7749000D+01 0.2280000D+01 0.3446000D+02 0.7749000D+01 0.2280000D+01
EXPONENTS  0.3446000D+02 0.7749000D+01 0.2280000D+01 0.7156000D+00 0.7156000D+00
EXPONENTS  0.7156000D+00 0.2140000D+00 0.2140000D+00 0.2140000D+00 0.5974000D-01
EXPONENTS  0.5974000D-01 0.5974000D-01 0.2314000D+01 0.2314000D+01 0.2314000D+01
EXPONENTS  0.2314000D+01 0.2314000D+01 0.2314000D+01 0.6450000D+00 0.6450000D+00
EXPONENTS  0.6450000D+00 0.6450000D+00 0.6450000D+00 0.6450000D+00 0.2140000D+00
EXPONENTS  0.2140000D+00 0.2140000D+00 0.2140000D+00 0.2140000D+00 0.2140000D+00
EXPONENTS  0.1428000D+01 0.1428000D+01 0.1428000D+01 0.1428000D+01 0.1428000D+01
EXPONENTS  0.1428000D+01 0.1428000D+01 0.1428000D+01 0.1428000D+01 0.1428000D+01
EXPONENTS  0.5000000D+00 0.5000000D+00 0.5000000D+00 0.5000000D+00 0.5000000D+00
EXPONENTS  0.5000000D+00 0.5000000D+00 0.5000000D+00 0.5000000D+00 0.5000000D+00
EXPONENTS  0.3387000D+02 0.5095000D+01 0.1159000D+01 0.3258000D+00 0.1027000D+00
EXPONENTS  0.2526000D-01 0.1407000D+01 0.1407000D+01 0.1407000D+01 0.3880000D+00
EXPONENTS  0.3880000D+00 0.3880000D+00 0.1020000D+00 0.1020000D+00 0.1020000D+00
EXPONENTS  0.1057000D+01 0.1057000D+01 0.1057000D+01 0.1057000D+01 0.1057000D+01
EXPONENTS  0.1057000D+01 0.2470000D+00 0.2470000D+00 0.2470000D+00 0.2470000D+00
EXPONENTS  0.2470000D+00 0.2470000D+00 0.3387000D+02 0.5095000D+01 0.1159000D+01
EXPONENTS  0.3258000D+00 0.1027000D+00 0.2526000D-01 0.1407000D+01 0.1407000D+01
EXPONENTS  0.1407000D+01 0.3880000D+00 0.3880000D+00 0.3880000D+00 0.1020000D+00
EXPONENTS  0.1020000D+00 0.1020000D+00 0.1057000D+01 0.1057000D+01 0.1057000D+01
EXPONENTS  0.1057000D+01 0.1057000D+01 0.1057000D+01 0.2470000D+00 0.2470000D+00
EXPONENTS  0.2470000D+00 0.2470000D+00 0.2470000D+00 0.2470000D+00
MO    1     MO 0.0        OCC NO =    2.0000000  ORB. ENERGY =  -20.567966
  0.49821846D+00  0.92861510D+00  0.15746235D+01  0.23832660D+01  0.29736202D+01
  0.25539432D+01  0.98050844D+00 -0.43858744D-02  0.28210658D-03  0.52909789D-03
  0.90199591D-03  0.14096440D-02  0.18849627D-02  0.20127007D-02  0.12305257D-02
 -0.81182613D-03  0.47321672D-01  0.19676693D-03  0.27369231D-04 -0.14784474D-16
 -0.14335967D-16 -0.96709585D-17 -0.24697282D-15 -0.23948056D-15 -0.16155217D-15
 -0.91430430D-02 -0.88656762D-02 -0.59807328D-02  0.19849059D-17  0.83681708D-16
  0.14891115D-02  0.20661476D-18  0.77466905D-15 -0.51738846D-04  0.75501567D-20
  0.44270689D-16 -0.70278537D-05 -0.44898045D-03  0.38369029D-03  0.65290152D-04
  0.14110463D-17  0.51171117D-17  0.69361902D-16  0.38585215D-03 -0.32834476D-03
 -0.57507392D-04  0.48742583D-18 -0.10587858D-17 -0.15152196D-15 -0.16046581D-04
  0.73238353D-05  0.87227453D-05  0.44804062D-19 -0.69671890D-19 -0.25766523D-15
  0.10721607D-18 -0.76874164D-18  0.66579159D-04  0.10696716D-17 -0.16445965D-16
 -0.74767571D-04 -0.13913198D-17  0.18752190D-16 -0.12496991D-03 -0.78976314D-18
 -0.11260596D-18  0.20535363D-16 -0.27466669D-04  0.17521573D-18 -0.10800837D-15
 -0.56265515D-04  0.16260214D-18  0.46402284D-16  0.13866552D-03 -0.17048085D-18
  0.12732772D-03  0.22964080D-03  0.33860522D-03  0.30433694D-03 -0.28384128D-04
  0.11356349D-05 -0.36032396D-18 -0.34994754D-03  0.22334332D-03 -0.58043554D-18
 -0.29432915D-03  0.26283411D-03 -0.22059536D-19 -0.91076513D-05  0.62983181D-05
  0.10680939D-03 -0.41286898D-04 -0.65522490D-04  0.13255454D-17 -0.83084138D-18
  0.36605180D-03 -0.32506689D-04  0.25969158D-04  0.65375313D-05  0.94981955D-19
 -0.82519045D-19 -0.98421360D-04  0.12732772D-03  0.22964080D-03  0.33860522D-03
  0.30433694D-03 -0.28384128D-04  0.11356349D-05 -0.32744070D-18  0.34994754D-03
  0.22334332D-03 -0.25830030D-18  0.29432915D-03  0.26283411D-03 -0.13375539D-19
  0.91076513D-05  0.62983181D-05  0.10680939D-03 -0.41286898D-04 -0.65522490D-04
 -0.66830404D-18 -0.59947955D-18 -0.36605180D-03 -0.32506689D-04  0.25969158D-04
  0.65375313D-05 -0.53162754D-19 -0.24926524D-19  0.98421360D-04
MO    2     MO 0.0        OCC NO =    2.0000000  ORB. ENERGY =   -1.351128
 -0.42493814D-02 -0.79203001D-02 -0.13430205D-01 -0.20327240D-01 -0.25362461D-01
 -0.21782972D-01 -0.83629064D-02  0.37407793D-04 -0.97954964D-01 -0.18371696D+00
 -0.31319715D+00 -0.48946618D+00 -0.65450954D+00 -0.69886359D+00 -0.42727150D+00
  0.28188778D+00  0.14414860D+00  0.71687524D-01  0.35212091D-02 -0.15318477D-15
 -0.14853769D-15 -0.10020265D-15 -0.34029035D-13 -0.32996717D-13 -0.22259390D-13
 -0.21557209D+00 -0.20903241D+00 -0.14101203D+00 -0.76530542D-16  0.70127200D-13
 -0.58884378D-01 -0.22666609D-17  0.10130805D-12 -0.36011048D-02  0.40211214D-18
  0.49820983D-14 -0.11836218D-03 -0.25622423D-01  0.19238481D-01  0.63839412D-02
 -0.11163467D-16  0.36378980D-16  0.15362682D-13 -0.69004592D-02  0.42720352D-02
  0.26284240D-02 -0.29013067D-17  0.50732820D-17 -0.78013594D-13  0.25223231D-03
 -0.34053508D-03  0.88302774D-04  0.57103529D-18 -0.66047557D-18 -0.29780206D-13
  0.46489716D-17 -0.17146661D-14  0.30874540D-02  0.39335619D-17 -0.15404464D-13
  0.12284882D-01 -0.17880477D-16  0.20548463D-13 -0.21547244D-01  0.11996018D-17
  0.57520589D-18  0.11104032D-14 -0.16084684D-03 -0.31127995D-17 -0.11519568D-13
  0.52787253D-03  0.13871818D-17  0.81883584D-14 -0.45332001D-04 -0.19289856D-17
  0.22437798D-01  0.40467493D-01  0.59669294D-01  0.22770274D-01 -0.19165282D-02
 -0.62303335D-04 -0.57424820D-17 -0.23163614D-01  0.16171617D-01 -0.49851025D-17
 -0.34311732D-02  0.23788479D-02  0.28095205D-18  0.41924542D-03 -0.35151636D-03
 -0.20896220D-02  0.19499281D-02  0.13969389D-03  0.14238621D-16 -0.46515010D-17
 -0.65852058D-02  0.58703504D-04 -0.55401688D-04 -0.33018158D-05 -0.84391115D-18
  0.81121865D-18  0.20852182D-03  0.22437798D-01  0.40467493D-01  0.59669294D-01
  0.22770274D-01 -0.19165282D-02 -0.62303335D-04 -0.12137904D-16  0.23163614D-01
  0.16171617D-01  0.27484049D-17  0.34311732D-02  0.23788479D-02 -0.21862179D-17
 -0.41924542D-03 -0.35151636D-03 -0.20896220D-02  0.19499281D-02  0.13969389D-03
  0.24629042D-17 -0.23367924D-17  0.65852058D-02  0.58703504D-04 -0.55401688D-04
 -0.33018158D-05  0.10377630D-17  0.10502843D-17 -0.20852182D-03
MO    3     MO 0.0        OCC NO =    2.0000000  ORB. ENERGY =   -0.715505
 -0.18497197D-14 -0.34476395D-14 -0.58460542D-14 -0.88482754D-14 -0.11040064D-13
 -0.94819428D-14 -0.36403022D-14  0.16283295D-16  0.12163552D-14  0.22813043D-14
  0.38891237D-14  0.60779434D-14  0.81273684D-14  0.86781346D-14  0.53056414D-14
 -0.35003399D-14  0.56106277D-14 -0.93309612D-13 -0.21981598D-13  0.58735359D-14
  0.56953541D-14  0.38420522D-14  0.13909382D+01  0.13487422D+01  0.90985351D+00
 -0.18365229D-13 -0.17808094D-13 -0.12013235D-13  0.14592355D-14  0.31824843D+00
  0.34360099D-13  0.17782825D-15  0.32603526D-01  0.32792604D-13  0.21292628D-16
  0.34931297D-03  0.11995681D-14 -0.15847793D-14  0.15466687D-14  0.38110573D-16
  0.19841539D-14 -0.77664895D-15 -0.15696279D+00  0.13707528D-13 -0.13068034D-13
 -0.63949393D-15 -0.48321277D-15 -0.63448312D-16 -0.30722561D-01  0.38076205D-14
 -0.20621026D-14 -0.17455179D-14 -0.13027123D-16 -0.36893071D-16 -0.57086756D-04
  0.18316171D-16  0.74746811D-02 -0.42762413D-14 -0.11569556D-15 -0.21185050D-01
 -0.39261436D-14  0.60747047D-16 -0.12389933D-02  0.16754868D-13 -0.88167538D-15
  0.75858865D-17 -0.43552891D-05 -0.69924612D-15 -0.64432606D-17 -0.17502314D-02
 -0.37598018D-14 -0.16314399D-16  0.17632972D-02  0.58575402D-14 -0.10939708D-16
  0.35684917D-01  0.64359218D-01  0.94897629D-01  0.68354486D-01  0.47211858D-02
 -0.21310500D-03  0.14129144D-15 -0.20640506D-01  0.27494842D-01  0.19308210D-15
 -0.85059882D-02  0.12221428D-01 -0.18292484D-16  0.66835885D-03  0.17562983D-04
 -0.68352479D-02  0.31135871D-02  0.37216608D-02 -0.31923223D-15  0.25704484D-15
 -0.19544284D-01 -0.34473312D-04 -0.28708283D-03  0.32155614D-03 -0.33075731D-17
 -0.90581843D-17 -0.66616712D-03 -0.35684917D-01 -0.64359218D-01 -0.94897629D-01
 -0.68354486D-01 -0.47211858D-02  0.21310500D-03  0.84834290D-16 -0.20640506D-01
 -0.27494842D-01 -0.62361052D-16 -0.85059882D-02 -0.12221428D-01 -0.34678310D-16
  0.66835885D-03 -0.17562983D-04  0.68352479D-02 -0.31135871D-02 -0.37216608D-02
  0.11973423D-15 -0.24434616D-16 -0.19544284D-01  0.34473312D-04  0.28708283D-03
 -0.32155614D-03 -0.18724072D-16 -0.34873483D-17 -0.66616712D-03
MO    4     MO 0.0        OCC NO =    2.0000000  ORB. ENERGY =   -0.583843
  0.24428769D-02  0.45532082D-02  0.77207325D-02  0.11685688D-01  0.14580327D-01
  0.12522556D-01  0.48076529D-02 -0.21504926D-04 -0.35139874D-01 -0.65905705D-01
 -0.11235478D+00 -0.17558865D+00 -0.23479548D+00 -0.25070683D+00 -0.15327724D+00
  0.10112301D+00  0.56591237D-01  0.79608713D-01  0.84038577D-02  0.38865675D-13
  0.37686631D-13  0.25423179D-13 -0.12769133D-13 -0.12381763D-13 -0.83526645D-14
  0.15294039D+01  0.14830074D+01  0.10004280D+01  0.90174461D-14  0.45122662D-13
  0.35944014D+00  0.15897191D-14  0.77831831D-13  0.44546171D-01  0.29682526D-16
  0.54514476D-14  0.57327352D-03  0.43310577D-01 -0.16745595D-02 -0.41636018D-01
 -0.19351878D-14 -0.41252653D-14  0.11551791D-13  0.68920616D-02  0.53046648D-02
 -0.12196726D-01  0.21078303D-15  0.11796841D-15 -0.53185349D-13 -0.65427459D-03
  0.11242738D-02 -0.46999921D-03  0.21476543D-16 -0.72333532D-16 -0.21941482D-13
  0.22686747D-14 -0.11236435D-14  0.19176347D-02 -0.45915620D-14 -0.74896852D-14
 -0.20593695D-01 -0.22144621D-14  0.10860616D-13  0.14840791D-01  0.13395650D-15
 -0.92777945D-16  0.39499158D-15  0.48591136D-03  0.19582909D-15 -0.79408897D-14
 -0.48192655D-03  0.82504743D-16  0.67559149D-14 -0.97580754D-03 -0.81008363D-16
 -0.21730702D-01 -0.39192217D-01 -0.57788901D-01 -0.54614294D-01 -0.83873867D-02
 -0.84583648D-04  0.10758439D-14  0.20910645D-01  0.32326457D-02  0.15575801D-15
  0.14233190D-01 -0.54219140D-03  0.15740946D-16  0.39463919D-03  0.69002861D-03
  0.32151507D-02 -0.68991797D-02  0.36840290D-02 -0.10192724D-14  0.68035181D-15
  0.59284989D-02  0.16144871D-03 -0.42329329D-03  0.26184459D-03 -0.38624513D-17
 -0.13296617D-16 -0.49482329D-03 -0.21730702D-01 -0.39192217D-01 -0.57788901D-01
 -0.54614294D-01 -0.83873867D-02 -0.84583648D-04  0.11147384D-14 -0.20910645D-01
  0.32326457D-02  0.27091860D-15 -0.14233190D-01 -0.54219140D-03  0.28927719D-16
 -0.39463919D-03  0.69002861D-03  0.32151507D-02 -0.68991797D-02  0.36840290D-02
  0.10659029D-14  0.73021707D-15 -0.59284989D-02  0.16144871D-03 -0.42329329D-03
  0.26184459D-03  0.19875701D-16  0.21590887D-16  0.49482329D-03
MO    5     MO 0.0        OCC NO =    2.0000000  ORB. ENERGY =   -0.509946
 -0.33515526D-15 -0.62468627D-15 -0.10592609D-14 -0.16032408D-14 -0.20003764D-14
 -0.17180565D-14 -0.65959531D-15  0.29504103D-17  0.93473877D-15  0.17531257D-14
  0.29886950D-14  0.46707486D-14  0.62456809D-14  0.66689310D-14  0.40772537D-14
 -0.26899243D-14 -0.11083408D-14 -0.23121287D-14 -0.74333153D-15  0.17347696D+01
  0.16821430D+01  0.11347637D+01 -0.32193972D-14 -0.31217323D-14 -0.21059022D-14
 -0.33384408D-13 -0.32371646D-13 -0.21837721D-13  0.42235133D+00 -0.10562637D-14
 -0.80164648D-14  0.67620904D-01  0.56267784D-15 -0.91275432D-15  0.14047781D-02
  0.53528123D-16  0.14417477D-16 -0.19901763D-14 -0.12933714D-14  0.32835477D-14
  0.40620440D-14 -0.71166045D-01  0.42209520D-14  0.83141350D-16 -0.20845854D-15
  0.12531719D-15 -0.17885841D-14 -0.18791414D-01 -0.16570623D-15 -0.64035900D-17
 -0.70209121D-16  0.76612711D-16 -0.82158549D-15 -0.10392938D-02 -0.60881682D-16
 -0.11883683D-01  0.13385545D-15 -0.22549149D-15  0.24961796D-01  0.12145797D-14
  0.81097819D-15  0.10689254D-01 -0.16161460D-14 -0.13450371D-15 -0.10900542D-14
 -0.47749682D-03 -0.68826010D-16  0.80869786D-17  0.79078208D-03  0.78044732D-16
  0.18006230D-15  0.64170839D-03  0.12843330D-15 -0.20432324D-15  0.14731889D-14
  0.27323921D-15  0.49279816D-15  0.72663060D-15  0.57610493D-15  0.45790179D-15
 -0.40681955D-16  0.23140888D-01 -0.78518943D-15  0.12891176D-14  0.13055429D-01
 -0.25041632D-15 -0.27251616D-15  0.15155381D-02 -0.19769884D-15 -0.50599393D-16
 -0.60044825D-15  0.36432534D-15  0.23612290D-15 -0.11910827D-01  0.90925839D-02
 -0.29530587D-15 -0.51811585D-16  0.63361471D-16 -0.11549886D-16 -0.15027466D-02
  0.10529134D-02  0.52249087D-16  0.35946509D-15  0.64831009D-15  0.95593284D-15
  0.23884705D-14  0.59221136D-15  0.92402859D-16  0.23140888D-01 -0.21523095D-15
 -0.16721609D-14  0.13055429D-01  0.85738033D-15  0.95460592D-15  0.15155381D-02
 -0.19568253D-16  0.13020515D-15  0.26324737D-17 -0.23030583D-15  0.22767335D-15
  0.11910827D-01  0.90925839D-02  0.27769619D-15 -0.66474589D-16  0.40696406D-16
  0.25778184D-16  0.15027466D-02  0.10529134D-02  0.12767538D-15
END DATA
RHF
