 Molden2AIM, Version 4.0.0 (06/02/2016)           Time: Wed Jun 27 23:45:13 2018
GAUSSIAN              9 MOL ORBITALS    204 PRIMITIVES        4 NUCLEI
  O    1    (CENTRE  1)   0.04607341  1.34783393 -0.15816630  CHARGE =  8.0
  O    2    (CENTRE  2)  -0.04607341 -1.34783393 -0.15816630  CHARGE =  8.0
  H    3    (CENTRE  3)   1.53532500  1.65115387  0.85594956  CHARGE =  1.0
  H    4    (CENTRE  4)  -1.53532500 -1.65115387  0.85594956  CHARGE =  1.0
CENTRE ASSIGNMENTS    1  1  1  1  1  1  1  1  1  1  1  1  1  1  1  1  1  1  1  1
CENTRE ASSIGNMENTS    1  1  1  1  1  1  1  1  1  1  1  1  1  1  1  1  1  1  1  1
CENTRE ASSIGNMENTS    1  1  1  1  1  1  1  1  1  1  1  1  1  1  1  1  1  1  1  1
CENTRE ASSIGNMENTS    1  1  1  1  1  1  1  1  1  1  1  1  1  1  1  2  2  2  2  2
CENTRE ASSIGNMENTS    2  2  2  2  2  2  2  2  2  2  2  2  2  2  2  2  2  2  2  2
CENTRE ASSIGNMENTS    2  2  2  2  2  2  2  2  2  2  2  2  2  2  2  2  2  2  2  2
CENTRE ASSIGNMENTS    2  2  2  2  2  2  2  2  2  2  2  2  2  2  2  2  2  2  2  2
CENTRE ASSIGNMENTS    2  2  2  2  2  2  2  2  2  2  3  3  3  3  3  3  3  3  3  3
CENTRE ASSIGNMENTS    3  3  3  3  3  3  3  3  3  3  3  3  3  3  3  3  3  4  4  4
CENTRE ASSIGNMENTS    4  4  4  4  4  4  4  4  4  4  4  4  4  4  4  4  4  4  4  4
CENTRE ASSIGNMENTS    4  4  4  4
TYPE ASSIGNMENTS      1  1  1  1  1  1  1  1  1  1  1  1  1  1  1  1  1  1  1  2
TYPE ASSIGNMENTS      2  2  3  3  3  4  4  4  2  3  4  2  3  4  2  3  4  5  6  7
TYPE ASSIGNMENTS      8  9 10  5  6  7  8  9 10  5  6  7  8  9 10 11 12 13 17 14
TYPE ASSIGNMENTS     15 18 19 16 20 11 12 13 17 14 15 18 19 16 20  1  1  1  1  1
TYPE ASSIGNMENTS      1  1  1  1  1  1  1  1  1  1  1  1  1  1  2  2  2  3  3  3
TYPE ASSIGNMENTS      4  4  4  2  3  4  2  3  4  2  3  4  5  6  7  8  9 10  5  6
TYPE ASSIGNMENTS      7  8  9 10  5  6  7  8  9 10 11 12 13 17 14 15 18 19 16 20
TYPE ASSIGNMENTS     11 12 13 17 14 15 18 19 16 20  1  1  1  1  1  1  2  3  4  2
TYPE ASSIGNMENTS      3  4  2  3  4  5  6  7  8  9 10  5  6  7  8  9 10  1  1  1
TYPE ASSIGNMENTS      1  1  1  2  3  4  2  3  4  2  3  4  5  6  7  8  9 10  5  6
TYPE ASSIGNMENTS      7  8  9 10
EXPONENTS  0.1533000D+05 0.2299000D+04 0.5224000D+03 0.1473000D+03 0.4755000D+02
EXPONENTS  0.1676000D+02 0.6207000D+01 0.6882000D+00 0.1533000D+05 0.2299000D+04
EXPONENTS  0.5224000D+03 0.1473000D+03 0.4755000D+02 0.1676000D+02 0.6207000D+01
EXPONENTS  0.6882000D+00 0.1752000D+01 0.2384000D+00 0.7376000D-01 0.3446000D+02
EXPONENTS  0.7749000D+01 0.2280000D+01 0.3446000D+02 0.7749000D+01 0.2280000D+01
EXPONENTS  0.3446000D+02 0.7749000D+01 0.2280000D+01 0.7156000D+00 0.7156000D+00
EXPONENTS  0.7156000D+00 0.2140000D+00 0.2140000D+00 0.2140000D+00 0.5974000D-01
EXPONENTS  0.5974000D-01 0.5974000D-01 0.2314000D+01 0.2314000D+01 0.2314000D+01
EXPONENTS  0.2314000D+01 0.2314000D+01 0.2314000D+01 0.6450000D+00 0.6450000D+00
EXPONENTS  0.6450000D+00 0.6450000D+00 0.6450000D+00 0.6450000D+00 0.2140000D+00
EXPONENTS  0.2140000D+00 0.2140000D+00 0.2140000D+00 0.2140000D+00 0.2140000D+00
EXPONENTS  0.1428000D+01 0.1428000D+01 0.1428000D+01 0.1428000D+01 0.1428000D+01
EXPONENTS  0.1428000D+01 0.1428000D+01 0.1428000D+01 0.1428000D+01 0.1428000D+01
EXPONENTS  0.5000000D+00 0.5000000D+00 0.5000000D+00 0.5000000D+00 0.5000000D+00
EXPONENTS  0.5000000D+00 0.5000000D+00 0.5000000D+00 0.5000000D+00 0.5000000D+00
EXPONENTS  0.1533000D+05 0.2299000D+04 0.5224000D+03 0.1473000D+03 0.4755000D+02
EXPONENTS  0.1676000D+02 0.6207000D+01 0.6882000D+00 0.1533000D+05 0.2299000D+04
EXPONENTS  0.5224000D+03 0.1473000D+03 0.4755000D+02 0.1676000D+02 0.6207000D+01
EXPONENTS  0.6882000D+00 0.1752000D+01 0.2384000D+00 0.7376000D-01 0.3446000D+02
EXPONENTS  0.7749000D+01 0.2280000D+01 0.3446000D+02 0.7749000D+01 0.2280000D+01
EXPONENTS  0.3446000D+02 0.7749000D+01 0.2280000D+01 0.7156000D+00 0.7156000D+00
EXPONENTS  0.7156000D+00 0.2140000D+00 0.2140000D+00 0.2140000D+00 0.5974000D-01
EXPONENTS  0.5974000D-01 0.5974000D-01 0.2314000D+01 0.2314000D+01 0.2314000D+01
EXPONENTS  0.2314000D+01 0.2314000D+01 0.2314000D+01 0.6450000D+00 0.6450000D+00
EXPONENTS  0.6450000D+00 0.6450000D+00 0.6450000D+00 0.6450000D+00 0.2140000D+00
EXPONENTS  0.2140000D+00 0.2140000D+00 0.2140000D+00 0.2140000D+00 0.2140000D+00
EXPONENTS  0.1428000D+01 0.1428000D+01 0.1428000D+01 0.1428000D+01 0.1428000D+01
EXPONENTS  0.1428000D+01 0.1428000D+01 0.1428000D+01 0.1428000D+01 0.1428000D+01
EXPONENTS  0.5000000D+00 0.5000000D+00 0.5000000D+00 0.5000000D+00 0.5000000D+00
EXPONENTS  0.5000000D+00 0.5000000D+00 0.5000000D+00 0.5000000D+00 0.5000000D+00
EXPONENTS  0.3387000D+02 0.5095000D+01 0.1159000D+01 0.3258000D+00 0.1027000D+00
EXPONENTS  0.2526000D-01 0.1407000D+01 0.1407000D+01 0.1407000D+01 0.3880000D+00
EXPONENTS  0.3880000D+00 0.3880000D+00 0.1020000D+00 0.1020000D+00 0.1020000D+00
EXPONENTS  0.1057000D+01 0.1057000D+01 0.1057000D+01 0.1057000D+01 0.1057000D+01
EXPONENTS  0.1057000D+01 0.2470000D+00 0.2470000D+00 0.2470000D+00 0.2470000D+00
EXPONENTS  0.2470000D+00 0.2470000D+00 0.3387000D+02 0.5095000D+01 0.1159000D+01
EXPONENTS  0.3258000D+00 0.1027000D+00 0.2526000D-01 0.1407000D+01 0.1407000D+01
EXPONENTS  0.1407000D+01 0.3880000D+00 0.3880000D+00 0.3880000D+00 0.1020000D+00
EXPONENTS  0.1020000D+00 0.1020000D+00 0.1057000D+01 0.1057000D+01 0.1057000D+01
EXPONENTS  0.1057000D+01 0.1057000D+01 0.1057000D+01 0.2470000D+00 0.2470000D+00
EXPONENTS  0.2470000D+00 0.2470000D+00 0.2470000D+00 0.2470000D+00
MO    1     MO 0.0        OCC NO =    2.0000000  ORB. ENERGY =  -20.631793
  0.35230696D+00  0.65665484D+00  0.11134690D+01  0.16852872D+01  0.21027464D+01
  0.18059787D+01  0.69335036D+00 -0.31013987D-02  0.22412969D-03  0.42036079D-03
  0.71662300D-03  0.11199423D-02  0.14975762D-02  0.15990622D-02  0.97763529D-03
 -0.64498439D-03  0.33190205D-01  0.15909058D-03  0.39582839D-04  0.40581046D-02
  0.39349964D-02  0.26545253D-02 -0.49434839D-02 -0.47935165D-02 -0.32336779D-02
  0.33671817D-02  0.32650336D-02  0.22025724D-02 -0.66786222D-03  0.61836911D-03
 -0.61939645D-03 -0.11337539D-03 -0.21788357D-03 -0.86808374D-06  0.26648136D-06
 -0.93530699D-05  0.41180232D-05  0.40849194D-03 -0.71802220D-03  0.30953025D-03
 -0.32386484D-04  0.17426917D-03 -0.23988534D-05 -0.14466672D-03  0.11415731D-03
  0.30509412D-04 -0.17113160D-03 -0.39758861D-03 -0.36874851D-04 -0.34952764D-04
  0.75993641D-04 -0.41040877D-04  0.39647709D-04 -0.23792686D-04 -0.29892603D-04
 -0.27243392D-05 -0.13530185D-03  0.77586222D-04  0.27282199D-04  0.23208023D-03
 -0.14162754D-03 -0.19109181D-04  0.17382531D-03 -0.91131127D-04  0.46070897D-04
  0.20794486D-05 -0.59456546D-04 -0.68044657D-05  0.14892327D-04  0.75214497D-04
 -0.43369113D-04 -0.21130672D-04  0.10315514D-03  0.63782510D-04 -0.12959115D-04
  0.35230696D+00  0.65665484D+00  0.11134690D+01  0.16852872D+01  0.21027464D+01
  0.18059787D+01  0.69335036D+00 -0.31013987D-02  0.22412969D-03  0.42036079D-03
  0.71662300D-03  0.11199423D-02  0.14975762D-02  0.15990622D-02  0.97763529D-03
 -0.64498439D-03  0.33190205D-01  0.15909058D-03  0.39582839D-04 -0.40581046D-02
 -0.39349964D-02 -0.26545253D-02  0.49434839D-02  0.47935165D-02  0.32336779D-02
  0.33671817D-02  0.32650336D-02  0.22025724D-02  0.66786222D-03 -0.61836911D-03
 -0.61939645D-03  0.11337539D-03  0.21788357D-03 -0.86808377D-06 -0.26648135D-06
  0.93530700D-05  0.41180232D-05  0.40849194D-03 -0.71802220D-03  0.30953025D-03
 -0.32386484D-04 -0.17426917D-03  0.23988534D-05 -0.14466672D-03  0.11415731D-03
  0.30509412D-04 -0.17113160D-03  0.39758861D-03  0.36874851D-04 -0.34952764D-04
  0.75993641D-04 -0.41040877D-04  0.39647709D-04  0.23792686D-04  0.29892603D-04
  0.27243392D-05  0.13530185D-03  0.77586222D-04 -0.27282199D-04 -0.23208023D-03
 -0.14162754D-03  0.19109181D-04 -0.17382531D-03 -0.91131127D-04  0.46070897D-04
 -0.20794486D-05  0.59456546D-04 -0.68044656D-05 -0.14892327D-04 -0.75214497D-04
 -0.43369114D-04  0.21130672D-04 -0.10315514D-03  0.63782510D-04 -0.12959115D-04
  0.91727190D-04  0.16543377D-03  0.24393199D-03  0.40972139D-03 -0.64099286D-04
  0.61900113D-06 -0.32205421D-03 -0.23355867D-03 -0.19046652D-03 -0.26652366D-03
  0.33395522D-04 -0.18691867D-03 -0.31846790D-05  0.19053435D-04 -0.23206206D-05
 -0.36691642D-04  0.16297254D-04  0.20394389D-04  0.60047611D-04 -0.14970845D-03
  0.28599495D-04  0.36799973D-04 -0.49327085D-04  0.12527112D-04  0.12803684D-04
  0.61012038D-04  0.19959266D-04  0.91727190D-04  0.16543377D-03  0.24393199D-03
  0.40972139D-03 -0.64099286D-04  0.61900114D-06  0.32205421D-03  0.23355867D-03
 -0.19046652D-03  0.26652366D-03 -0.33395522D-04 -0.18691867D-03  0.31846790D-05
 -0.19053435D-04 -0.23206206D-05 -0.36691642D-04  0.16297254D-04  0.20394389D-04
  0.60047610D-04  0.14970845D-03 -0.28599495D-04  0.36799973D-04 -0.49327085D-04
  0.12527112D-04  0.12803684D-04 -0.61012038D-04 -0.19959266D-04
MO    2     MO 0.0        OCC NO =    2.0000000  ORB. ENERGY =  -20.631489
  0.35234604D+00  0.65672768D+00  0.11135925D+01  0.16854742D+01  0.21029797D+01
  0.18061791D+01  0.69342727D+00 -0.31017427D-02  0.19867805D-03  0.37262560D-03
  0.63524496D-03  0.99276422D-03  0.13275149D-02  0.14174764D-02  0.86661730D-03
 -0.57174146D-03  0.33546056D-01 -0.14926999D-03 -0.21033145D-03  0.40486308D-02
  0.39258100D-02  0.26483282D-02 -0.57533219D-02 -0.55787870D-02 -0.37634167D-02
  0.32680076D-02  0.31688681D-02  0.21376997D-02 -0.66088144D-03  0.15287009D-02
 -0.50883142D-03 -0.83993416D-04  0.69431956D-04 -0.66820158D-04  0.34232959D-06
  0.16960343D-04 -0.12759835D-05  0.18303205D-03 -0.27045466D-03  0.87422609D-04
  0.13828974D-03  0.32144082D-03  0.38288224D-04  0.33290896D-03 -0.81572893D-03
  0.48281997D-03 -0.26771034D-03 -0.41420765D-03 -0.90752363D-04 -0.22357004D-05
 -0.74905368D-05  0.97262372D-05 -0.32705879D-04 -0.12282752D-04 -0.86813717D-05
 -0.11355806D-04  0.50184227D-03 -0.14879977D-04  0.54412655D-04 -0.70111826D-03
  0.61614715D-04 -0.20345235D-04 -0.80440854D-03 -0.16974785D-04  0.20633535D-03
 -0.60198818D-05  0.13258631D-03  0.26627371D-04  0.39428153D-04 -0.22704367D-03
 -0.65712973D-04 -0.21368508D-04 -0.17071526D-03 -0.14169141D-04 -0.97086937D-04
 -0.35234604D+00 -0.65672768D+00 -0.11135925D+01 -0.16854742D+01 -0.21029797D+01
 -0.18061791D+01 -0.69342726D+00  0.31017427D-02 -0.19867805D-03 -0.37262560D-03
 -0.63524496D-03 -0.99276422D-03 -0.13275149D-02 -0.14174764D-02 -0.86661730D-03
  0.57174146D-03 -0.33546056D-01  0.14926999D-03  0.21033145D-03  0.40486308D-02
  0.39258100D-02  0.26483282D-02 -0.57533219D-02 -0.55787870D-02 -0.37634167D-02
 -0.32680076D-02 -0.31688681D-02 -0.21376997D-02 -0.66088144D-03  0.15287009D-02
  0.50883142D-03 -0.83993416D-04  0.69431956D-04  0.66820158D-04  0.34232959D-06
  0.16960343D-04  0.12759835D-05 -0.18303205D-03  0.27045466D-03 -0.87422609D-04
 -0.13828974D-03  0.32144082D-03  0.38288224D-04 -0.33290896D-03  0.81572893D-03
 -0.48281997D-03  0.26771034D-03 -0.41420765D-03 -0.90752363D-04  0.22357004D-05
  0.74905369D-05 -0.97262372D-05  0.32705879D-04 -0.12282752D-04 -0.86813717D-05
 -0.11355806D-04  0.50184227D-03  0.14879977D-04  0.54412655D-04 -0.70111826D-03
 -0.61614715D-04 -0.20345235D-04 -0.80440854D-03  0.16974785D-04 -0.20633535D-03
 -0.60198818D-05  0.13258631D-03 -0.26627371D-04  0.39428153D-04 -0.22704367D-03
  0.65712973D-04 -0.21368508D-04 -0.17071526D-03  0.14169141D-04  0.97086937D-04
  0.78142276D-04  0.14093281D-03  0.20780535D-03  0.46505091D-03  0.62962165D-04
 -0.16101317D-05 -0.25518148D-03 -0.48187725D-04 -0.16990449D-03 -0.29489636D-03
  0.47368544D-04 -0.20883647D-03 -0.12323282D-04  0.83460872D-05 -0.10595904D-04
 -0.89650267D-04  0.14276196D-03 -0.53111692D-04 -0.61928764D-04 -0.12277647D-03
 -0.66465573D-04  0.21781978D-04 -0.26204562D-04  0.44225836D-05 -0.40982027D-05
  0.53821764D-04 -0.49297440D-05 -0.78142276D-04 -0.14093281D-03 -0.20780535D-03
 -0.46505091D-03 -0.62962165D-04  0.16101317D-05 -0.25518148D-03 -0.48187725D-04
  0.16990449D-03 -0.29489636D-03  0.47368544D-04  0.20883647D-03 -0.12323282D-04
  0.83460872D-05  0.10595904D-04  0.89650267D-04 -0.14276196D-03  0.53111692D-04
  0.61928764D-04 -0.12277647D-03 -0.66465573D-04 -0.21781978D-04  0.26204562D-04
 -0.44225836D-05  0.40982027D-05  0.53821764D-04 -0.49297440D-05
MO    3     MO 0.0        OCC NO =    2.0000000  ORB. ENERGY =   -1.486492
 -0.28042466D-02 -0.52267549D-02 -0.88628445D-02 -0.13414328D-01 -0.16737165D-01
 -0.14374992D-01 -0.55188391D-02  0.24686106D-04 -0.69809914D-01 -0.13093022D+00
 -0.22320733D+00 -0.34882961D+00 -0.46645165D+00 -0.49806161D+00 -0.30450510D+00
  0.20089397D+00  0.10183822D+00  0.46398711D-01  0.16344222D-02  0.68096956D-01
  0.66031141D-01  0.44544218D-01 -0.19380643D+00 -0.18792704D+00 -0.12677447D+00
  0.66952101D-01  0.64921016D-01  0.43795334D-01  0.18845757D-01 -0.54664089D-01
  0.18015170D-01  0.56604253D-03 -0.29906757D-02  0.13731290D-02  0.54299286D-04
  0.45227583D-04  0.55891195D-04 -0.61737206D-02  0.20755216D-01 -0.14581495D-01
  0.58557306D-02  0.21274402D-01 -0.24618816D-02 -0.30036993D-02  0.82836712D-02
 -0.52799718D-02  0.16403938D-02  0.52008526D-02 -0.78713575D-03 -0.11574892D-03
  0.26257657D-03 -0.14682765D-03  0.36949435D-03 -0.40448807D-03 -0.12012119D-03
  0.89649717D-03 -0.96984853D-02 -0.18238944D-02 -0.59772499D-02  0.14651686D-01
  0.68504186D-02  0.32877584D-02  0.14443770D-01 -0.13787353D-02  0.11243487D-02
 -0.32650611D-04 -0.94893775D-03 -0.23360494D-03  0.18521119D-03  0.14171026D-02
  0.20560920D-03 -0.87259355D-04  0.14297106D-02  0.49520563D-03  0.76478882D-03
 -0.28042466D-02 -0.52267549D-02 -0.88628445D-02 -0.13414328D-01 -0.16737165D-01
 -0.14374992D-01 -0.55188391D-02  0.24686106D-04 -0.69809914D-01 -0.13093022D+00
 -0.22320733D+00 -0.34882961D+00 -0.46645165D+00 -0.49806161D+00 -0.30450510D+00
  0.20089397D+00  0.10183822D+00  0.46398711D-01  0.16344222D-02 -0.68096956D-01
 -0.66031141D-01 -0.44544218D-01  0.19380643D+00  0.18792704D+00  0.12677447D+00
  0.66952101D-01  0.64921016D-01  0.43795334D-01 -0.18845757D-01  0.54664089D-01
  0.18015170D-01 -0.56604253D-03  0.29906757D-02  0.13731290D-02 -0.54299286D-04
 -0.45227583D-04  0.55891195D-04 -0.61737206D-02  0.20755216D-01 -0.14581495D-01
  0.58557306D-02 -0.21274402D-01  0.24618816D-02 -0.30036993D-02  0.82836712D-02
 -0.52799718D-02  0.16403938D-02 -0.52008526D-02  0.78713575D-03 -0.11574892D-03
  0.26257657D-03 -0.14682765D-03  0.36949435D-03  0.40448807D-03  0.12012119D-03
 -0.89649717D-03  0.96984853D-02 -0.18238944D-02  0.59772499D-02 -0.14651686D-01
  0.68504186D-02 -0.32877584D-02 -0.14443770D-01 -0.13787353D-02  0.11243487D-02
  0.32650611D-04  0.94893775D-03 -0.23360494D-03 -0.18521119D-03 -0.14171026D-02
  0.20560920D-03  0.87259355D-04 -0.14297106D-02  0.49520563D-03  0.76478882D-03
  0.14050808D-01  0.25341211D-01  0.37365602D-01  0.13705171D-01 -0.24216966D-02
 -0.46060115D-04 -0.15326041D-01 -0.59351909D-02 -0.10133049D-01 -0.25115238D-02
 -0.18970030D-02 -0.14388973D-02  0.44300541D-03  0.14695271D-03  0.34323184D-03
  0.13415354D-02 -0.10514145D-02 -0.29012086D-03  0.34475011D-02  0.34723308D-02
  0.21294827D-02  0.69971245D-04 -0.11879744D-03  0.48826194D-04  0.33445593D-03
 -0.71640799D-04  0.25085722D-03  0.14050808D-01  0.25341211D-01  0.37365602D-01
  0.13705171D-01 -0.24216966D-02 -0.46060115D-04  0.15326041D-01  0.59351909D-02
 -0.10133049D-01  0.25115238D-02  0.18970030D-02 -0.14388973D-02 -0.44300541D-03
 -0.14695271D-03  0.34323184D-03  0.13415354D-02 -0.10514145D-02 -0.29012086D-03
  0.34475011D-02 -0.34723308D-02 -0.21294827D-02  0.69971245D-04 -0.11879744D-03
  0.48826194D-04  0.33445593D-03  0.71640799D-04 -0.25085722D-03
MO    4     MO 0.0        OCC NO =    2.0000000  ORB. ENERGY =   -1.211030
 -0.14781263D-02 -0.27550373D-02 -0.46716303D-02 -0.70707301D-02 -0.88222068D-02
 -0.75770990D-02 -0.29089957D-02  0.13012116D-04 -0.72160016D-01 -0.13533790D+00
 -0.23072145D+00 -0.36057271D+00 -0.48215442D+00 -0.51482851D+00 -0.31475606D+00
  0.20765693D+00  0.11031556D+00  0.60052950D-01  0.20566937D-02  0.18853831D+00
  0.18281874D+00  0.12332844D+00  0.22342254D+00  0.21664471D+00  0.14614724D+00
  0.10361253D+00  0.10046930D+00  0.67775997D-01  0.47168023D-01  0.50423986D-01
  0.26640212D-01  0.26862244D-02  0.32936350D-02  0.18429756D-02  0.88180979D-04
  0.78684080D-04  0.68020294D-04  0.23266955D-01 -0.32971233D-01  0.97042778D-02
  0.49444479D-02  0.35499865D-01  0.10345100D-01  0.57364674D-02 -0.78675952D-02
  0.21311278D-02  0.11750619D-02  0.84159021D-02  0.24376916D-02 -0.59786310D-04
 -0.71810795D-04  0.13159711D-03 -0.76353290D-04 -0.30309785D-03 -0.10414970D-03
 -0.41058685D-03  0.11459837D-02 -0.22511292D-02 -0.57175797D-03 -0.40458518D-06
  0.94530019D-02  0.18035185D-02 -0.34375466D-02 -0.26996145D-02  0.80487200D-02
  0.11752500D-04  0.15509492D-03 -0.53321909D-04 -0.18744586D-03 -0.25925293D-03
  0.54378416D-03  0.15218836D-03 -0.20603185D-03 -0.38381843D-03  0.59015548D-03
  0.14781263D-02  0.27550373D-02  0.46716303D-02  0.70707301D-02  0.88222068D-02
  0.75770990D-02  0.29089957D-02 -0.13012116D-04  0.72160016D-01  0.13533790D+00
  0.23072145D+00  0.36057271D+00  0.48215442D+00  0.51482851D+00  0.31475606D+00
 -0.20765693D+00 -0.11031556D+00 -0.60052950D-01 -0.20566937D-02  0.18853831D+00
  0.18281874D+00  0.12332844D+00  0.22342254D+00  0.21664471D+00  0.14614724D+00
 -0.10361253D+00 -0.10046930D+00 -0.67775997D-01  0.47168023D-01  0.50423986D-01
 -0.26640212D-01  0.26862244D-02  0.32936350D-02 -0.18429756D-02  0.88180979D-04
  0.78684080D-04 -0.68020294D-04 -0.23266955D-01  0.32971233D-01 -0.97042778D-02
 -0.49444479D-02  0.35499865D-01  0.10345100D-01 -0.57364674D-02  0.78675952D-02
 -0.21311278D-02 -0.11750619D-02  0.84159021D-02  0.24376916D-02  0.59786310D-04
  0.71810795D-04 -0.13159711D-03  0.76353290D-04 -0.30309785D-03 -0.10414970D-03
 -0.41058685D-03  0.11459837D-02  0.22511292D-02 -0.57175797D-03 -0.40458520D-06
 -0.94530019D-02  0.18035185D-02 -0.34375466D-02  0.26996145D-02 -0.80487200D-02
  0.11752500D-04  0.15509492D-03  0.53321909D-04 -0.18744586D-03 -0.25925293D-03
 -0.54378416D-03  0.15218836D-03 -0.20603185D-03  0.38381843D-03 -0.59015548D-03
  0.21037521D-01  0.37942036D-01  0.55945510D-01  0.25153519D-01 -0.19536286D-02
 -0.14367697D-03 -0.21726258D-01 -0.27258344D-02 -0.14855573D-01 -0.41195628D-02
  0.38787523D-03 -0.30564114D-02  0.54547978D-03  0.19512603D-03  0.32069353D-03
  0.29626360D-02 -0.29028931D-02 -0.59742921D-04  0.12132246D-02  0.80551059D-02
  0.78393317D-03 -0.32584013D-04 -0.48585675D-04  0.81169688D-04 -0.22586435D-03
 -0.10430828D-03 -0.11222910D-03 -0.21037521D-01 -0.37942036D-01 -0.55945510D-01
 -0.25153519D-01  0.19536286D-02  0.14367697D-03 -0.21726258D-01 -0.27258344D-02
  0.14855573D-01 -0.41195628D-02  0.38787523D-03  0.30564114D-02  0.54547978D-03
  0.19512603D-03 -0.32069353D-03 -0.29626360D-02  0.29028931D-02  0.59742921D-04
 -0.12132246D-02  0.80551059D-02  0.78393317D-03  0.32584013D-04  0.48585675D-04
 -0.81169688D-04  0.22586435D-03 -0.10430828D-03 -0.11222910D-03
MO    5     MO 0.0        OCC NO =    2.0000000  ORB. ENERGY =   -0.722159
 -0.98841536D-03 -0.18422791D-02 -0.31238949D-02 -0.47281604D-02 -0.58993637D-02
 -0.50667666D-02 -0.19452302D-02  0.87011342D-05  0.71827559D-02  0.13471437D-01
  0.22965846D-01  0.35891147D-01  0.47993303D-01  0.51245658D-01  0.31330590D-01
 -0.20670021D-01 -0.10029942D-01 -0.17044751D-01 -0.22098931D-03  0.42941317D+00
  0.41638632D+00  0.28089175D+00  0.54590213D+00  0.52934143D+00  0.35709060D+00
  0.82738603D+00  0.80228614D+00  0.54121749D+00  0.96677033D-01  0.13418511D+00
  0.19668705D+00  0.92657538D-02  0.15525778D-01  0.22767881D-01  0.22724263D-03
 -0.18267775D-04  0.23816560D-03  0.31591227D-01 -0.54050854D-01  0.22459628D-01
  0.24739594D-01  0.64300158D-01 -0.16240831D-01  0.83874697D-02 -0.16064790D-01
  0.76773202D-02  0.35336859D-02  0.13212668D-01 -0.97929804D-02  0.42871252D-03
 -0.12615613D-02  0.83284877D-03 -0.49157815D-03  0.73668441D-04 -0.20598197D-03
 -0.23814927D-02  0.60726839D-02 -0.75522667D-02 -0.11340730D-02 -0.74713153D-02
  0.75716202D-02  0.82785510D-02 -0.10746736D-01  0.15085180D-01  0.16493125D-01
  0.15449490D-03  0.15358654D-02 -0.50129837D-03 -0.80826381D-03 -0.18430910D-02
  0.43938833D-03  0.34477912D-03 -0.27645052D-02  0.10645068D-02 -0.16314881D-02
 -0.98841536D-03 -0.18422791D-02 -0.31238949D-02 -0.47281604D-02 -0.58993637D-02
 -0.50667666D-02 -0.19452302D-02  0.87011342D-05  0.71827559D-02  0.13471437D-01
  0.22965846D-01  0.35891147D-01  0.47993303D-01  0.51245658D-01  0.31330590D-01
 -0.20670021D-01 -0.10029942D-01 -0.17044751D-01 -0.22098931D-03 -0.42941317D+00
 -0.41638632D+00 -0.28089175D+00 -0.54590213D+00 -0.52934143D+00 -0.35709060D+00
  0.82738603D+00  0.80228614D+00  0.54121749D+00 -0.96677033D-01 -0.13418511D+00
  0.19668705D+00 -0.92657538D-02 -0.15525778D-01  0.22767881D-01 -0.22724263D-03
  0.18267775D-04  0.23816560D-03  0.31591227D-01 -0.54050854D-01  0.22459628D-01
  0.24739594D-01 -0.64300158D-01  0.16240831D-01  0.83874697D-02 -0.16064790D-01
  0.76773202D-02  0.35336859D-02 -0.13212668D-01  0.97929804D-02  0.42871252D-03
 -0.12615613D-02  0.83284877D-03 -0.49157815D-03 -0.73668441D-04  0.20598197D-03
  0.23814927D-02 -0.60726839D-02 -0.75522667D-02  0.11340730D-02  0.74713153D-02
  0.75716202D-02 -0.82785510D-02  0.10746736D-01  0.15085180D-01  0.16493125D-01
 -0.15449490D-03 -0.15358654D-02 -0.50129837D-03  0.80826381D-03  0.18430910D-02
  0.43938833D-03 -0.34477912D-03  0.27645052D-02  0.10645068D-02 -0.16314881D-02
  0.26989720D-01  0.48677072D-01  0.71774314D-01  0.53276796D-01  0.38268222D-02
 -0.12664078D-04 -0.22838442D-01  0.22788601D-02 -0.88703176D-02 -0.11862692D-01
  0.15897056D-02 -0.39820483D-02 -0.78046821D-04  0.32960724D-03  0.13315337D-03
  0.70088473D-02 -0.49865204D-02 -0.20223270D-02 -0.11927685D-02  0.11539539D-01
 -0.13754128D-02  0.37033738D-03 -0.81016156D-04 -0.28932122D-03 -0.43111651D-03
  0.17023417D-03 -0.42540515D-03  0.26989720D-01  0.48677072D-01  0.71774314D-01
  0.53276796D-01  0.38268222D-02 -0.12664078D-04  0.22838442D-01 -0.22788601D-02
 -0.88703176D-02  0.11862692D-01 -0.15897056D-02 -0.39820483D-02  0.78046821D-04
 -0.32960724D-03  0.13315337D-03  0.70088473D-02 -0.49865204D-02 -0.20223270D-02
 -0.11927685D-02 -0.11539539D-01  0.13754128D-02  0.37033738D-03 -0.81016157D-04
 -0.28932122D-03 -0.43111651D-03 -0.17023417D-03  0.42540515D-03
MO    6     MO 0.0        OCC NO =    2.0000000  ORB. ENERGY =   -0.712686
 -0.11355946D-02 -0.21166021D-02 -0.35890559D-02 -0.54322033D-02 -0.67778037D-02
 -0.58212294D-02 -0.22348832D-02  0.99967695D-05  0.25011368D-01  0.46909440D-01
  0.79970312D-01  0.12497803D+00  0.16711944D+00  0.17844460D+00  0.10909753D+00
 -0.71975924D-01 -0.40086275D-01 -0.56640938D-01 -0.48760947D-02  0.10333348D+01
  0.10019872D+01  0.67593461D+00 -0.15516844D+00 -0.15046119D+00 -0.10150023D+00
  0.18738537D+00  0.18170078D+00  0.12257427D+00  0.24208313D+00 -0.36486578D-01
  0.38928566D-01  0.28204694D-01  0.21282843D-02  0.97125686D-03  0.35424860D-03
  0.27289421D-03  0.67032621D-04  0.20992424D-01 -0.93118836D-02 -0.11680540D-01
 -0.38455894D-01  0.58053560D-01  0.65791432D-02  0.45032246D-02 -0.34548742D-02
 -0.10483504D-02 -0.18536869D-01  0.98557072D-02 -0.61379527D-03  0.28017060D-03
 -0.92554219D-03  0.64537159D-03 -0.74821594D-03  0.64544095D-04  0.66685466D-03
 -0.34786227D-02 -0.28130725D-02 -0.34193046D-02  0.17103866D-01  0.68055071D-02
  0.13119118D-01 -0.66679983D-02  0.16337105D-02 -0.28612038D-02 -0.19955641D-02
 -0.56207958D-03  0.41605724D-03 -0.10710974D-03  0.24322009D-02 -0.63227188D-03
  0.53509210D-03 -0.74596216D-03 -0.61589985D-03 -0.21376287D-03 -0.94142797D-03
  0.11355946D-02  0.21166021D-02  0.35890559D-02  0.54322033D-02  0.67778037D-02
  0.58212294D-02  0.22348832D-02 -0.99967695D-05 -0.25011368D-01 -0.46909440D-01
 -0.79970312D-01 -0.12497803D+00 -0.16711944D+00 -0.17844460D+00 -0.10909753D+00
  0.71975924D-01  0.40086275D-01  0.56640938D-01  0.48760947D-02  0.10333348D+01
  0.10019872D+01  0.67593461D+00 -0.15516844D+00 -0.15046119D+00 -0.10150023D+00
 -0.18738537D+00 -0.18170078D+00 -0.12257427D+00  0.24208313D+00 -0.36486578D-01
 -0.38928566D-01  0.28204694D-01  0.21282843D-02 -0.97125686D-03  0.35424860D-03
  0.27289421D-03 -0.67032621D-04 -0.20992424D-01  0.93118836D-02  0.11680540D-01
  0.38455894D-01  0.58053560D-01  0.65791432D-02 -0.45032246D-02  0.34548742D-02
  0.10483504D-02  0.18536869D-01  0.98557072D-02 -0.61379527D-03 -0.28017060D-03
  0.92554219D-03 -0.64537159D-03  0.74821594D-03  0.64544095D-04  0.66685466D-03
 -0.34786227D-02 -0.28130725D-02  0.34193046D-02  0.17103866D-01  0.68055071D-02
 -0.13119118D-01 -0.66679983D-02  0.16337105D-02  0.28612038D-02  0.19955641D-02
 -0.56207958D-03  0.41605724D-03  0.10710974D-03  0.24322009D-02 -0.63227188D-03
 -0.53509210D-03 -0.74596216D-03 -0.61589985D-03  0.21376287D-03  0.94142797D-03
  0.22216322D-01  0.40068051D-01  0.59080318D-01  0.51085674D-01  0.22895248D-02
 -0.18870511D-03 -0.11966920D-01 -0.71828464D-02 -0.14141663D-01 -0.85101648D-02
 -0.48071678D-02 -0.94763526D-02  0.55900888D-03  0.23262123D-03  0.16194705D-03
  0.16624899D-02 -0.26194272D-02  0.95693731D-03  0.39331951D-02  0.12183002D-01
  0.36864834D-02 -0.31995631D-04 -0.26966999D-03  0.30166562D-03  0.18458441D-03
  0.58476670D-03  0.19568229D-03 -0.22216322D-01 -0.40068051D-01 -0.59080318D-01
 -0.51085674D-01 -0.22895248D-02  0.18870511D-03 -0.11966920D-01 -0.71828464D-02
  0.14141663D-01 -0.85101648D-02 -0.48071678D-02  0.94763526D-02  0.55900888D-03
  0.23262123D-03 -0.16194705D-03 -0.16624899D-02  0.26194272D-02 -0.95693731D-03
 -0.39331951D-02  0.12183002D-01  0.36864834D-02  0.31995631D-04  0.26966999D-03
 -0.30166562D-03 -0.18458441D-03  0.58476670D-03  0.19568229D-03
MO    7     MO 0.0        OCC NO =    2.0000000  ORB. ENERGY =   -0.616204
 -0.95873696D-03 -0.17869623D-02 -0.30300960D-02 -0.45861915D-02 -0.57222280D-02
 -0.49146307D-02 -0.18868223D-02  0.84398718D-05  0.15808538D-01  0.29649304D-01
  0.50545564D-01  0.78992878D-01  0.10562853D+00  0.11278664D+00  0.68955541D-01
 -0.45492678D-01 -0.27891402D-01 -0.34486513D-01 -0.20859277D-02 -0.23453186D+00
 -0.22741702D+00 -0.15341418D+00 -0.89856970D+00 -0.87131035D+00 -0.58778081D+00
  0.74007672D+00  0.71762547D+00  0.48410590D+00 -0.59616738D-01 -0.22468021D+00
  0.17749675D+00 -0.14199113D-01 -0.33230970D-01  0.23446796D-01 -0.24880418D-03
 -0.63406933D-03  0.35506084D-03 -0.32664010D-01  0.42496117D-01 -0.98321073D-02
 -0.16808759D-01  0.88539167D-02 -0.52365084D-01 -0.11298261D-01  0.15240628D-01
 -0.39423675D-02 -0.71302952D-02 -0.15073398D-02 -0.18055410D-01 -0.16070688D-02
  0.24229384D-02 -0.81586960D-03  0.85008765D-03 -0.16738536D-02 -0.12820037D-02
 -0.16934541D-02 -0.90423641D-02 -0.34258216D-02 -0.56581158D-02  0.90725340D-02
 -0.48523405D-02  0.10738478D-01  0.18054558D-01  0.15129805D-01 -0.98796997D-02
 -0.15635882D-03 -0.91251188D-03 -0.58406388D-03  0.86536009D-03  0.13100916D-02
 -0.14392080D-02 -0.39628363D-03  0.14274440D-02  0.31913996D-02 -0.50186920D-03
 -0.95873696D-03 -0.17869623D-02 -0.30300960D-02 -0.45861915D-02 -0.57222280D-02
 -0.49146307D-02 -0.18868223D-02  0.84398718D-05  0.15808538D-01  0.29649304D-01
  0.50545564D-01  0.78992878D-01  0.10562853D+00  0.11278664D+00  0.68955541D-01
 -0.45492678D-01 -0.27891402D-01 -0.34486513D-01 -0.20859277D-02  0.23453186D+00
  0.22741702D+00  0.15341418D+00  0.89856970D+00  0.87131035D+00  0.58778081D+00
  0.74007672D+00  0.71762547D+00  0.48410590D+00  0.59616738D-01  0.22468021D+00
  0.17749675D+00  0.14199113D-01  0.33230970D-01  0.23446796D-01  0.24880418D-03
  0.63406933D-03  0.35506084D-03 -0.32664010D-01  0.42496117D-01 -0.98321073D-02
 -0.16808759D-01 -0.88539167D-02  0.52365084D-01 -0.11298261D-01  0.15240628D-01
 -0.39423675D-02 -0.71302952D-02  0.15073398D-02  0.18055410D-01 -0.16070688D-02
  0.24229384D-02 -0.81586960D-03  0.85008765D-03  0.16738536D-02  0.12820037D-02
  0.16934541D-02  0.90423641D-02 -0.34258216D-02  0.56581158D-02 -0.90725340D-02
 -0.48523405D-02 -0.10738478D-01 -0.18054558D-01  0.15129805D-01 -0.98796997D-02
  0.15635882D-03  0.91251188D-03 -0.58406388D-03 -0.86536009D-03 -0.13100916D-02
 -0.14392080D-02  0.39628363D-03 -0.14274440D-02  0.31913996D-02 -0.50186920D-03
 -0.35252934D-02 -0.63580118D-02 -0.93748847D-02  0.69363174D-02  0.47599797D-03
  0.63059705D-05 -0.20683005D-02 -0.12325365D-01  0.10340300D-01 -0.53356874D-02
 -0.63787480D-02  0.26572192D-02 -0.41898504D-03 -0.57067930D-04  0.12207981D-03
  0.18104606D-02  0.20550301D-02 -0.38654907D-02  0.77508903D-02 -0.35368677D-02
  0.34658167D-02  0.53109227D-03 -0.36511566D-03 -0.16597661D-03  0.98283132D-03
 -0.39837331D-03  0.87034721D-03 -0.35252934D-02 -0.63580118D-02 -0.93748847D-02
  0.69363174D-02  0.47599797D-03  0.63059705D-05  0.20683005D-02  0.12325365D-01
  0.10340300D-01  0.53356874D-02  0.63787480D-02  0.26572192D-02  0.41898504D-03
  0.57067930D-04  0.12207981D-03  0.18104606D-02  0.20550301D-02 -0.38654907D-02
  0.77508903D-02  0.35368677D-02 -0.34658167D-02  0.53109227D-03 -0.36511566D-03
 -0.16597661D-03  0.98283132D-03  0.39837331D-03 -0.87034721D-03
MO    8     MO 0.0        OCC NO =    2.0000000  ORB. ENERGY =   -0.514905
  0.10133307D-02  0.18887180D-02  0.32026400D-02  0.48473447D-02  0.60480710D-02
  0.51944863D-02  0.19942643D-02 -0.89204667D-05 -0.15916741D-01 -0.29852242D-01
 -0.50891528D-01 -0.79533553D-01 -0.10635151D+00 -0.11355862D+00 -0.69427515D-01
  0.45804058D-01  0.27489217D-01  0.34694794D-01  0.48198540D-02 -0.10907225D+01
 -0.10576339D+01 -0.71347360D+00  0.51081970D+00  0.49532328D+00  0.33414216D+00
  0.36466733D+00  0.35360464D+00  0.23853960D+00 -0.25936170D+00  0.12910158D+00
  0.91766497D-01 -0.42516747D-01  0.20262581D-01  0.16958717D-01 -0.94558342D-03
  0.45267619D-03  0.39380070D-03 -0.20834958D-01 -0.50221410D-02  0.25857100D-01
 -0.69425603D-02 -0.34276548D-01 -0.11821576D-01 -0.42336165D-02 -0.27959046D-02
  0.70295211D-02 -0.35011544D-02 -0.76389703D-02 -0.42348973D-02  0.14045911D-03