 Molden2AIM, Version 4.0.0 (06/02/2016)           Time: Thu Jun 28 00:16:16 2018
GAUSSIAN             12 MOL ORBITALS    252 PRIMITIVES        4 NUCLEI
  O    1    (CENTRE  1)   0.00000000  0.45234563 -1.99322642  CHARGE =  8.0
  N    2    (CENTRE  2)   0.00000000 -0.92568423 -0.26396639  CHARGE =  7.0
  O    3    (CENTRE  3)   0.00000000  0.41221730  2.01426097  CHARGE =  8.0
  H    4    (CENTRE  4)   0.00000000 -0.91794580  3.27167906  CHARGE =  1.0
CENTRE ASSIGNMENTS    1  1  1  1  1  1  1  1  1  1  1  1  1  1  1  1  1  1  1  1
CENTRE ASSIGNMENTS    1  1  1  1  1  1  1  1  1  1  1  1  1  1  1  1  1  1  1  1
CENTRE ASSIGNMENTS    1  1  1  1  1  1  1  1  1  1  1  1  1  1  1  1  1  1  1  1
CENTRE ASSIGNMENTS    1  1  1  1  1  1  1  1  1  1  1  1  1  1  1  2  2  2  2  2
CENTRE ASSIGNMENTS    2  2  2  2  2  2  2  2  2  2  2  2  2  2  2  2  2  2  2  2
CENTRE ASSIGNMENTS    2  2  2  2  2  2  2  2  2  2  2  2  2  2  2  2  2  2  2  2
CENTRE ASSIGNMENTS    2  2  2  2  2  2  2  2  2  2  2  2  2  2  2  2  2  2  2  2
CENTRE ASSIGNMENTS    2  2  2  2  2  2  2  2  2  2  3  3  3  3  3  3  3  3  3  3
CENTRE ASSIGNMENTS    3  3  3  3  3  3  3  3  3  3  3  3  3  3  3  3  3  3  3  3
CENTRE ASSIGNMENTS    3  3  3  3  3  3  3  3  3  3  3  3  3  3  3  3  3  3  3  3
CENTRE ASSIGNMENTS    3  3  3  3  3  3  3  3  3  3  3  3  3  3  3  3  3  3  3  3
CENTRE ASSIGNMENTS    3  3  3  3  3  4  4  4  4  4  4  4  4  4  4  4  4  4  4  4
CENTRE ASSIGNMENTS    4  4  4  4  4  4  4  4  4  4  4  4
TYPE ASSIGNMENTS      1  1  1  1  1  1  1  1  1  1  1  1  1  1  1  1  1  1  1  2
TYPE ASSIGNMENTS      2  2  3  3  3  4  4  4  2  3  4  2  3  4  2  3  4  5  6  7
TYPE ASSIGNMENTS      8  9 10  5  6  7  8  9 10  5  6  7  8  9 10 11 12 13 17 14
TYPE ASSIGNMENTS     15 18 19 16 20 11 12 13 17 14 15 18 19 16 20  1  1  1  1  1
TYPE ASSIGNMENTS      1  1  1  1  1  1  1  1  1  1  1  1  1  1  2  2  2  3  3  3
TYPE ASSIGNMENTS      4  4  4  2  3  4  2  3  4  2  3  4  5  6  7  8  9 10  5  6
TYPE ASSIGNMENTS      7  8  9 10  5  6  7  8  9 10 11 12 13 17 14 15 18 19 16 20
TYPE ASSIGNMENTS     11 12 13 17 14 15 18 19 16 20  1  1  1  1  1  1  1  1  1  1
TYPE ASSIGNMENTS      1  1  1  1  1  1  1  1  1  2  2  2  3  3  3  4  4  4  2  3
TYPE ASSIGNMENTS      4  2  3  4  2  3  4  5  6  7  8  9 10  5  6  7  8  9 10  5
TYPE ASSIGNMENTS      6  7  8  9 10 11 12 13 17 14 15 18 19 16 20 11 12 13 17 14
TYPE ASSIGNMENTS     15 18 19 16 20  1  1  1  1  1  1  2  3  4  2  3  4  2  3  4
TYPE ASSIGNMENTS      5  6  7  8  9 10  5  6  7  8  9 10
EXPONENTS  0.1533000D+05 0.2299000D+04 0.5224000D+03 0.1473000D+03 0.4755000D+02
EXPONENTS  0.1676000D+02 0.6207000D+01 0.6882000D+00 0.1533000D+05 0.2299000D+04
EXPONENTS  0.5224000D+03 0.1473000D+03 0.4755000D+02 0.1676000D+02 0.6207000D+01
EXPONENTS  0.6882000D+00 0.1752000D+01 0.2384000D+00 0.7376000D-01 0.3446000D+02
EXPONENTS  0.7749000D+01 0.2280000D+01 0.3446000D+02 0.7749000D+01 0.2280000D+01
EXPONENTS  0.3446000D+02 0.7749000D+01 0.2280000D+01 0.7156000D+00 0.7156000D+00
EXPONENTS  0.7156000D+00 0.2140000D+00 0.2140000D+00 0.2140000D+00 0.5974000D-01
EXPONENTS  0.5974000D-01 0.5974000D-01 0.2314000D+01 0.2314000D+01 0.2314000D+01
EXPONENTS  0.2314000D+01 0.2314000D+01 0.2314000D+01 0.6450000D+00 0.6450000D+00
EXPONENTS  0.6450000D+00 0.6450000D+00 0.6450000D+00 0.6450000D+00 0.2140000D+00
EXPONENTS  0.2140000D+00 0.2140000D+00 0.2140000D+00 0.2140000D+00 0.2140000D+00
EXPONENTS  0.1428000D+01 0.1428000D+01 0.1428000D+01 0.1428000D+01 0.1428000D+01
EXPONENTS  0.1428000D+01 0.1428000D+01 0.1428000D+01 0.1428000D+01 0.1428000D+01
EXPONENTS  0.5000000D+00 0.5000000D+00 0.5000000D+00 0.5000000D+00 0.5000000D+00
EXPONENTS  0.5000000D+00 0.5000000D+00 0.5000000D+00 0.5000000D+00 0.5000000D+00
EXPONENTS  0.1142000D+05 0.1712000D+04 0.3893000D+03 0.1100000D+03 0.3557000D+02
EXPONENTS  0.1254000D+02 0.4644000D+01 0.5118000D+00 0.1142000D+05 0.1712000D+04
EXPONENTS  0.3893000D+03 0.1100000D+03 0.3557000D+02 0.1254000D+02 0.4644000D+01
EXPONENTS  0.5118000D+00 0.1293000D+01 0.1787000D+00 0.5760000D-01 0.2663000D+02
EXPONENTS  0.5948000D+01 0.1742000D+01 0.2663000D+02 0.5948000D+01 0.1742000D+01
EXPONENTS  0.2663000D+02 0.5948000D+01 0.1742000D+01 0.5550000D+00 0.5550000D+00
EXPONENTS  0.5550000D+00 0.1725000D+00 0.1725000D+00 0.1725000D+00 0.4910000D-01
EXPONENTS  0.4910000D-01 0.4910000D-01 0.1654000D+01 0.1654000D+01 0.1654000D+01
EXPONENTS  0.1654000D+01 0.1654000D+01 0.1654000D+01 0.4690000D+00 0.4690000D+00
EXPONENTS  0.4690000D+00 0.4690000D+00 0.4690000D+00 0.4690000D+00 0.1510000D+00
EXPONENTS  0.1510000D+00 0.1510000D+00 0.1510000D+00 0.1510000D+00 0.1510000D+00
EXPONENTS  0.1093000D+01 0.1093000D+01 0.1093000D+01 0.1093000D+01 0.1093000D+01
EXPONENTS  0.1093000D+01 0.1093000D+01 0.1093000D+01 0.1093000D+01 0.1093000D+01
EXPONENTS  0.3640000D+00 0.3640000D+00 0.3640000D+00 0.3640000D+00 0.3640000D+00
EXPONENTS  0.3640000D+00 0.3640000D+00 0.3640000D+00 0.3640000D+00 0.3640000D+00
EXPONENTS  0.1533000D+05 0.2299000D+04 0.5224000D+03 0.1473000D+03 0.4755000D+02
EXPONENTS  0.1676000D+02 0.6207000D+01 0.6882000D+00 0.1533000D+05 0.2299000D+04
EXPONENTS  0.5224000D+03 0.1473000D+03 0.4755000D+02 0.1676000D+02 0.6207000D+01
EXPONENTS  0.6882000D+00 0.1752000D+01 0.2384000D+00 0.7376000D-01 0.3446000D+02
EXPONENTS  0.7749000D+01 0.2280000D+01 0.3446000D+02 0.7749000D+01 0.2280000D+01
EXPONENTS  0.3446000D+02 0.7749000D+01 0.2280000D+01 0.7156000D+00 0.7156000D+00
EXPONENTS  0.7156000D+00 0.2140000D+00 0.2140000D+00 0.2140000D+00 0.5974000D-01
EXPONENTS  0.5974000D-01 0.5974000D-01 0.2314000D+01 0.2314000D+01 0.2314000D+01
EXPONENTS  0.2314000D+01 0.2314000D+01 0.2314000D+01 0.6450000D+00 0.6450000D+00
EXPONENTS  0.6450000D+00 0.6450000D+00 0.6450000D+00 0.6450000D+00 0.2140000D+00
EXPONENTS  0.2140000D+00 0.2140000D+00 0.2140000D+00 0.2140000D+00 0.2140000D+00
EXPONENTS  0.1428000D+01 0.1428000D+01 0.1428000D+01 0.1428000D+01 0.1428000D+01
EXPONENTS  0.1428000D+01 0.1428000D+01 0.1428000D+01 0.1428000D+01 0.1428000D+01
EXPONENTS  0.5000000D+00 0.5000000D+00 0.5000000D+00 0.5000000D+00 0.5000000D+00
EXPONENTS  0.5000000D+00 0.5000000D+00 0.5000000D+00 0.5000000D+00 0.5000000D+00
EXPONENTS  0.3387000D+02 0.5095000D+01 0.1159000D+01 0.3258000D+00 0.1027000D+00
EXPONENTS  0.2526000D-01 0.1407000D+01 0.1407000D+01 0.1407000D+01 0.3880000D+00
EXPONENTS  0.3880000D+00 0.3880000D+00 0.1020000D+00 0.1020000D+00 0.1020000D+00
EXPONENTS  0.1057000D+01 0.1057000D+01 0.1057000D+01 0.1057000D+01 0.1057000D+01
EXPONENTS  0.1057000D+01 0.2470000D+00 0.2470000D+00 0.2470000D+00 0.2470000D+00
EXPONENTS  0.2470000D+00 0.2470000D+00
MO    1     MO 0.0        OCC NO =    2.0000000  ORB. ENERGY =  -20.658580
  0.49800550D+00  0.92821817D+00  0.15739505D+01  0.23822473D+01  0.29723491D+01
  0.25528515D+01  0.98008933D+00 -0.43839997D-02  0.45511918D-03  0.85358730D-03
  0.14551792D-02  0.22741619D-02  0.30409877D-02  0.32470659D-02  0.19851924D-02
 -0.13097094D-02  0.47315772D-01  0.10814173D-02 -0.47150972D-04 -0.26501548D-17
 -0.25697587D-17 -0.17335440D-17 -0.61850308D-02 -0.59973993D-02 -0.40458101D-02
  0.87934717D-02  0.85267096D-02  0.57520679D-02  0.73466461D-18  0.12731384D-02
 -0.19180613D-02  0.64444527D-19 -0.18551874D-03  0.15365786D-03 -0.11459043D-21
 -0.72469833D-06 -0.23546741D-05 -0.16688760D-02  0.67223592D-03  0.99664005D-03
 -0.71091243D-17 -0.27472812D-17 -0.12284843D-02  0.29717404D-03  0.83853841D-04
 -0.38102788D-03 -0.11025447D-17  0.37632301D-18  0.11440493D-02 -0.16468379D-04
  0.12086967D-04  0.43814127D-05  0.25075464D-19  0.38952940D-19 -0.55998224D-04
  0.22250656D-18 -0.24753174D-05 -0.65653012D-04  0.31157720D-18 -0.21352836D-03
  0.36584619D-03 -0.97909687D-18  0.22095431D-03 -0.16888716D-03 -0.68058460D-18
 -0.23330088D-19 -0.36831835D-04 -0.72889722D-05 -0.65371797D-19 -0.69594318D-04
  0.80686501D-04  0.13536206D-18  0.18008982D-03 -0.58819584D-04 -0.87366827D-19
  0.33717443D-03  0.62827491D-03  0.10625704D-02  0.16001721D-02  0.19811169D-02
  0.16858410D-02  0.64149362D-03 -0.30043883D-05 -0.23122997D-03 -0.43355835D-03
 -0.73761175D-03 -0.11454332D-02 -0.15200564D-02 -0.16019308D-02 -0.99329931D-03
  0.66074308D-03 -0.57223837D-04 -0.36006536D-03  0.22722325D-04  0.31195930D-18
  0.29963318D-18  0.21012347D-18  0.37707213D-03  0.36217328D-03  0.25398090D-03
 -0.32277478D-03 -0.31002132D-03 -0.21740835D-03 -0.25016672D-18  0.83628563D-03
 -0.11891580D-02 -0.43239898D-19 -0.64962164D-04  0.17906478D-03  0.46902243D-21
  0.37805877D-05 -0.24387820D-05 -0.48887997D-03  0.53137422D-05  0.48356623D-03
  0.10531079D-18 -0.27098991D-18 -0.17173598D-02 -0.17970898D-03  0.14809910D-03
  0.31609882D-04 -0.21812503D-18  0.43704938D-18 -0.70680735D-03  0.12583813D-05
  0.22836580D-05 -0.35420394D-05 -0.42942655D-21  0.16765044D-20  0.26055119D-04
  0.79511500D-19  0.40179954D-04 -0.30300050D-04 -0.96912854D-20  0.61313715D-04
  0.42172361D-04 -0.22884321D-18 -0.18185358D-03  0.48727791D-04  0.27452259D-18
  0.26776039D-19 -0.75096247D-06  0.19682485D-04 -0.10586524D-19 -0.62994080D-04
  0.31931118D-04 -0.69741593D-19  0.65246968D-04 -0.90978572D-04  0.15772688D-18
 -0.71921244D-03 -0.13405194D-02 -0.22730768D-02 -0.34404076D-02 -0.42926242D-02
 -0.36867917D-02 -0.14154310D-02  0.63313099D-05 -0.14076738D-04 -0.26401271D-04
 -0.45008379D-04 -0.70339335D-04 -0.94057093D-04 -0.10043105D-03 -0.61401573D-04
  0.40509029D-04 -0.94988522D-04 -0.15842360D-04  0.25630821D-04  0.15623685D-18
  0.15149719D-18  0.10219911D-18  0.65835714D-04  0.63838496D-04  0.43065072D-04
  0.11736432D-03  0.11380391D-03  0.76771447D-04 -0.28789723D-19 -0.19317636D-04
 -0.11067890D-03 -0.47019837D-20 -0.38390623D-05 -0.56412234D-04  0.17105478D-20
 -0.30106563D-06 -0.64214102D-05 -0.67111601D-04 -0.63221322D-04  0.13033292D-03
 -0.11428314D-18 -0.15343809D-18 -0.35368429D-03  0.25612382D-05  0.16331272D-05
 -0.41943654D-05  0.30740348D-19  0.71294711D-19  0.25574891D-03 -0.27478814D-05
 -0.88153751D-05  0.11563257D-04  0.41551863D-20  0.28176627D-19  0.53745472D-04
  0.10121901D-19 -0.24698264D-04  0.36572078D-04 -0.40924304D-19 -0.16631881D-04
  0.12196071D-04  0.10558602D-19  0.90726671D-04 -0.12191231D-03  0.14906464D-18
  0.34649523D-20  0.31907137D-04  0.38171435D-04  0.13933023D-19  0.18476923D-04
 -0.58587733D-05 -0.24327880D-19 -0.11419833D-03 -0.10865553D-03 -0.76181298D-19
  0.14939728D-04  0.26944414D-04  0.39729522D-04  0.86622988D-04 -0.38863303D-04
  0.57840065D-06 -0.20605155D-19  0.25062424D-04 -0.13112232D-03 -0.75566247D-20
 -0.24348002D-04  0.12771368D-05 -0.17349742D-20 -0.82484464D-05  0.18467828D-04
  0.33993361D-04 -0.29030317D-04 -0.49630435D-05  0.12284179D-19  0.66545917D-20
 -0.54098184D-04  0.73961851D-05  0.55167159D-06 -0.79478567D-05 -0.19893846D-19
 -0.16015660D-19  0.24220547D-05
MO    2     MO 0.0        OCC NO =    2.0000000  ORB. ENERGY =  -20.645106
  0.76030144D-03  0.14171041D-02  0.24029390D-02  0.36369600D-02  0.45378642D-02
  0.38974202D-02  0.14962954D-02 -0.66930211D-05 -0.10004712D-04 -0.18764085D-04
 -0.31988651D-04 -0.49992035D-04 -0.66848876D-04 -0.71379015D-04 -0.43639730D-04
  0.28790843D-04  0.53393104D-04 -0.55849480D-04 -0.14489857D-04 -0.68701437D-15
 -0.66617284D-15 -0.44939626D-15 -0.61697145D-04 -0.59825477D-04 -0.40357913D-04
 -0.94025969D-04 -0.91173562D-04 -0.61505146D-04  0.20675844D-15  0.59694847D-04
  0.13603521D-03 -0.60576198D-17  0.38153551D-04  0.11041803D-03  0.25507030D-18
 -0.32373625D-06  0.16759078D-06 -0.33972658D-04  0.22204953D-04  0.11767705D-04
 -0.47954391D-17  0.11070008D-16  0.21853426D-03 -0.29559435D-05 -0.68080187D-04
  0.71036131D-04  0.32384364D-17 -0.53634416D-17 -0.10537056D-03 -0.80978080D-05
 -0.13415600D-04  0.21513408D-04 -0.78431427D-19 -0.67100920D-18 -0.32472064D-04
 -0.65748646D-18 -0.22833799D-04 -0.97476212D-05  0.16514775D-18 -0.73376466D-04
  0.85992686D-05  0.18073116D-17  0.14187786D-03  0.20643595D-04  0.59886221D-17
  0.28499907D-18  0.24046113D-04 -0.95121030D-05  0.21993076D-18  0.35811820D-04
  0.19210258D-04 -0.10749280D-17 -0.10795016D-03  0.93260512D-05 -0.22943984D-18
  0.73314245D-04  0.13661030D-03  0.23104227D-03  0.34793685D-03  0.43076839D-03
  0.36656446D-03  0.13948454D-03 -0.65326561D-06 -0.42018563D-04 -0.78785198D-04
 -0.13403706D-03 -0.20814541D-03 -0.27622106D-03 -0.29109908D-03 -0.18050000D-03
  0.12006867D-03 -0.29126484D-03 -0.65231881D-04  0.73842302D-04 -0.14698828D-17
 -0.14118049D-17 -0.99005505D-18 -0.13984845D-03 -0.13432276D-03 -0.94196394D-04
 -0.35521283D-03 -0.34117768D-03 -0.23925734D-03  0.17133741D-17  0.30110356D-03
  0.71697079D-03  0.13343980D-17 -0.52353497D-04 -0.72003357D-04 -0.13714564D-18
  0.36034018D-05  0.71849888D-05 -0.19356638D-03  0.33451897D-04  0.16011448D-03
 -0.53393284D-17  0.23546308D-17  0.59356926D-03 -0.18520407D-03 -0.95546279D-04
  0.28075034D-03  0.27713104D-17 -0.49716770D-17  0.64101773D-03 -0.11819670D-04
 -0.17233709D-04  0.29053379D-04  0.24758864D-18  0.21631821D-18 -0.32771002D-04
  0.21882939D-17 -0.15215834D-03  0.10927382D-03  0.17365776D-17 -0.26844626D-03
 -0.51079109D-03 -0.83014594D-17  0.72492129D-03  0.18296963D-03 -0.58142087D-18
 -0.71224125D-18 -0.34801079D-04 -0.14080232D-04  0.10531175D-17 -0.34655856D-04
 -0.37395363D-04  0.10836063D-17  0.13905909D-03  0.79636058D-04 -0.24021583D-17
  0.49817158D+00  0.92852773D+00  0.15744754D+01  0.23830418D+01  0.29733404D+01
  0.25537029D+01  0.98041619D+00 -0.43854618D-02  0.33742510D-03  0.63284913D-03
  0.10788690D-02  0.16860623D-02  0.22545866D-02  0.24073728D-02  0.14718205D-02
 -0.97101779D-03  0.47331746D-01  0.16225179D-03 -0.96787191D-04 -0.19733321D-16
 -0.19134683D-16 -0.12908144D-16 -0.92349169D-02 -0.89547629D-02 -0.60408302D-02
 -0.14224666D-02 -0.13793141D-02 -0.93047717D-03  0.19891897D-17  0.16871267D-02
  0.50115055D-03 -0.30015181D-17  0.61523931D-04 -0.31699829D-03 -0.17820232D-18
 -0.28000229D-06 -0.22953314D-05 -0.38288188D-03  0.15884665D-03  0.22403523D-03
  0.24354255D-17  0.11541594D-17 -0.65116165D-03  0.51466089D-03  0.37370755D-04
 -0.55203165D-03 -0.14767577D-18 -0.72366943D-18 -0.50280070D-04 -0.75205481D-05
  0.12172172D-05  0.63033308D-05  0.10713510D-17 -0.13668686D-17  0.89992162D-04
 -0.17434916D-17  0.26835245D-04  0.84264252D-04  0.73627156D-18 -0.23472738D-03
 -0.40274088D-03  0.44942034D-17  0.15422165D-03  0.14994812D-03 -0.65149808D-17
  0.48629786D-18 -0.65382475D-04  0.71912548D-05 -0.31966478D-18 -0.72247682D-04
  0.49615598D-04 -0.11392288D-17  0.26839511D-03 -0.71189362D-04  0.31217558D-17
  0.12212077D-03  0.22024983D-03  0.32475825D-03  0.77025727D-03  0.44196504D-04
 -0.53143659D-06 -0.53711108D-18  0.36732460D-03 -0.36153240D-03  0.37173257D-17
  0.49700298D-03 -0.26730094D-03  0.74277400D-18  0.34571850D-04  0.50249421D-05
  0.34518844D-04 -0.61070560D-05 -0.28411788D-04 -0.20285286D-17 -0.16820687D-17
  0.27390753D-03 -0.20101279D-04  0.27072613D-04 -0.69713338D-05  0.18458146D-17
 -0.37014161D-18 -0.10305641D-03
MO    3     MO 0.0        OCC NO =    2.0000000  ORB. ENERGY =  -15.793423
  0.82274538D-04  0.15334915D-03  0.26002935D-03  0.39356654D-03  0.49105613D-03
  0.42175172D-03  0.16191869D-03 -0.72427223D-06 -0.18338110D-03 -0.34393580D-03
 -0.58633513D-03 -0.91632768D-03 -0.12253047D-02 -0.13083398D-02 -0.79989327D-03
  0.52772100D-03  0.19638876D-03  0.67039082D-03  0.70782167D-04  0.39262588D-15
  0.38071504D-15  0.25682811D-15 -0.10678020D-02 -0.10354087D-02 -0.69848062D-03
  0.10523081D-02  0.10203849D-02  0.68834562D-03  0.58216742D-16 -0.46595722D-03
  0.61432056D-03 -0.41345739D-17 -0.27311314D-04  0.22224294D-03  0.32256539D-20
 -0.65932564D-06 -0.16678997D-05 -0.26282318D-03  0.13869137D-03  0.12413181D-03
  0.60886904D-17 -0.19606243D-16 -0.13433249D-02  0.80369553D-04 -0.15849744D-03
  0.78127888D-04 -0.91967564D-17  0.13267809D-16  0.36850332D-03 -0.68604238D-06
 -0.28683806D-04  0.29369849D-04  0.11843147D-17 -0.16904734D-17 -0.49319209D-05
 -0.32815584D-17 -0.13719745D-03  0.50680159D-04  0.23266909D-17 -0.56549940D-03
  0.61002618D-03  0.75179843D-17  0.97709174D-03 -0.76206666D-03 -0.18624011D-16
 -0.23107982D-18 -0.70625521D-05  0.60589296D-04  0.24607763D-18 -0.13548443D-03
  0.87014995D-04  0.44716185D-18  0.15667208D-03 -0.26878288D-03 -0.16756817D-17
  0.41165376D+00  0.76705617D+00  0.12972843D+01  0.19536382D+01  0.24187309D+01
  0.20582308D+01  0.78319480D+00 -0.36680354D-02  0.62785085D-04  0.11772262D-03
  0.20028121D-03  0.31101557D-03  0.41273575D-03  0.43496682D-03  0.26970718D-03
 -0.17940932D-03  0.36186871D-01 -0.10809755D-02 -0.25417374D-03 -0.13146195D-16
 -0.12626763D-16 -0.88547577D-17  0.11193942D-01  0.10751647D-01  0.75397973D-02
  0.35763510D-03  0.34350424D-03  0.24088888D-03 -0.29535544D-17 -0.18644875D-02
 -0.89201143D-03  0.38585284D-17 -0.49809370D-03 -0.12948441D-03  0.23947508D-19
 -0.16411359D-04 -0.79528468D-05 -0.18289966D-02  0.78848600D-03  0.10405106D-02
  0.39116059D-17 -0.23160456D-17 -0.22747817D-02  0.44791578D-03 -0.11894448D-03
 -0.32897129D-03 -0.53375767D-17  0.10562353D-16 -0.15293987D-03  0.22270122D-04
 -0.16730652D-04 -0.55394695D-05  0.13240871D-17 -0.57310937D-18 -0.17175999D-04
  0.20505449D-17 -0.14459549D-03 -0.15103103D-03  0.11470385D-17  0.11506339D-03
  0.52325040D-03 -0.72986731D-17  0.31872308D-03 -0.70157302D-04  0.12341925D-16
  0.60569176D-18  0.34966796D-04  0.15811699D-04 -0.13022207D-17  0.11435248D-03
 -0.49470804D-04 -0.51485455D-18 -0.21925286D-03  0.20357059D-05  0.49025972D-17
 -0.82995619D-04 -0.15469315D-03 -0.26230834D-03 -0.39701588D-03 -0.49535991D-03
 -0.42544809D-03 -0.16333780D-03  0.73061999D-06  0.20903617D-04  0.39205252D-04
  0.66836360D-04  0.10445222D-03  0.13967252D-03  0.14913769D-03  0.91179859D-04
 -0.60154933D-04 -0.22296762D-03  0.12680491D-02  0.33976435D-03  0.46306231D-18
  0.44901467D-18  0.30290265D-18  0.12690754D-03  0.12305762D-03  0.83013946D-04
  0.56968449D-04  0.55240233D-04  0.37264735D-04  0.64775865D-18 -0.62781632D-03
 -0.82701473D-03 -0.34971158D-17 -0.41433870D-03 -0.73398392D-03 -0.22748588D-18
 -0.97387191D-05 -0.42751991D-04 -0.65434852D-04 -0.49115703D-04  0.11455055D-03
 -0.29600719D-18 -0.58566532D-17  0.88755831D-03 -0.33398660D-03 -0.37738329D-04
  0.37172493D-03  0.92964351D-18  0.22730671D-17  0.50360349D-03 -0.64763877D-04
 -0.58741140D-05  0.70637991D-04  0.18116908D-17  0.11717843D-17  0.17115569D-03
 -0.88111467D-19  0.79638281D-04 -0.75851862D-04  0.54818079D-17  0.78564829D-04
  0.14652090D-03 -0.52174735D-17 -0.31747967D-03  0.81034684D-04  0.80534860D-17
  0.34936326D-18  0.20613982D-05 -0.81638834D-04 -0.18359519D-17  0.65179152D-04
  0.94240944D-04  0.78786207D-18 -0.71363346D-04  0.15067556D-03 -0.37284820D-17
 -0.21591192D-04 -0.38940604D-04 -0.57417897D-04 -0.12873181D-03 -0.44637096D-04
  0.96041957D-05 -0.25947089D-17 -0.83039787D-04  0.71059283D-04  0.20386076D-17
  0.92699933D-04  0.27202689D-03  0.67805130D-18  0.17272377D-04  0.37169657D-04
 -0.30202749D-04  0.12912602D-03 -0.98923268D-04  0.22970257D-18 -0.11671677D-17
  0.15525914D-04  0.18309914D-04  0.12944348D-04 -0.31254262D-04 -0.59421269D-18
 -0.16105788D-17 -0.27203494D-04
MO    4     MO 0.0        OCC NO =    2.0000000  ORB. ENERGY =   -1.610071
 -0.41060112D-02 -0.76530767D-02 -0.12977082D-01 -0.19641418D-01 -0.24506756D-01
 -0.21048035D-01 -0.80807498D-02  0.36145690D-04 -0.70214652D-01 -0.13168932D+00
 -0.22450142D+00 -0.35085202D+00 -0.46915601D+00 -0.50094924D+00 -0.30627054D+00
  0.20205870D+00  0.10152511D+00  0.41615681D-01 -0.16640231D-02 -0.19248057D-14
 -0.18664141D-14 -0.12590719D-14 -0.23335371D+00 -0.22627460D+00 -0.15264351D+00
  0.33034465D+00  0.32032319D+00  0.21608813D+00 -0.35276513D-15 -0.55964679D-01
  0.79879372D-01  0.54963335D-16 -0.15298966D-02  0.29767298D-02  0.25397223D-18
  0.22722864D-03 -0.31276533D-03 -0.36870286D-01  0.17081930D-02  0.35162093D-01
  0.53270696D-16 -0.38069658D-16 -0.10060714D+00 -0.70925839D-02 -0.10628773D-03
  0.71988716D-02  0.33777447D-16 -0.31290220D-16 -0.21974984D-01  0.30438169D-03
 -0.59117854D-04 -0.24526383D-03 -0.15486150D-16  0.15378706D-16  0.90866348D-03
  0.76075666D-17  0.82185858D-02  0.15631912D-02 -0.12283736D-16  0.15063506D-01
 -0.21207760D-01 -0.10538964D-16 -0.39719263D-01  0.16518187D-01  0.97696714D-16
  0.27345391D-18  0.39448099D-03 -0.28881082D-03 -0.36465572D-17  0.18861328D-03
  0.35000599D-04  0.28261955D-17 -0.13720562D-02  0.83143187D-03 -0.78052775D-17
 -0.47722992D-02 -0.88924768D-02 -0.15039408D-01 -0.22648515D-01 -0.28040330D-01
 -0.23861056D-01 -0.90795718D-02  0.42523508D-04 -0.50190101D-01 -0.94106909D-01
 -0.16010385D+00 -0.24862438D+00 -0.32993901D+00 -0.34771042D+00 -0.21560265D+00
  0.14341896D+00  0.70261554D-01  0.13127172D-01  0.29834707D-03 -0.20688085D-15
 -0.19870658D-15 -0.13934677D-15  0.24276925D+00  0.23317696D+00  0.16351978D+00
 -0.16623944D+00 -0.15967100D+00 -0.11197232D+00 -0.59168593D-16  0.60869046D-01
 -0.30030155D-01 -0.34521553D-16 -0.10395451D-02 -0.84485008D-03 -0.21104887D-17
 -0.89047154D-04 -0.24071889D-04 -0.37999923D-01  0.10428058D-01  0.27571865D-01
 -0.60531040D-16  0.40580080D-16 -0.67193667D-01 -0.52214098D-02  0.12808884D-02
  0.39405213D-02 -0.69185532D-17 -0.37081064D-17 -0.69782362D-02  0.36170149D-03
 -0.17804778D-03 -0.18365371D-03 -0.10000957D-16  0.20465337D-16 -0.36037493D-04
  0.79541793D-17 -0.66019887D-02  0.20177860D-02 -0.10635061D-16 -0.14385906D-01
  0.58640144D-02 -0.13227476D-16  0.34191872D-01 -0.11917372D-01 -0.14959428D-17
 -0.11080521D-17  0.69745540D-05  0.13647505D-03  0.16361609D-18  0.33403635D-03
 -0.42981432D-03  0.31605402D-17 -0.35496001D-03  0.20389166D-04  0.12009371D-17
 -0.14952993D-02 -0.27870455D-02 -0.47259057D-02 -0.71528784D-02 -0.89247038D-02
 -0.76651303D-02 -0.29427926D-02  0.13163292D-04 -0.35310465D-01 -0.66225653D-01
 -0.11290022D+00 -0.17644107D+00 -0.23593533D+00 -0.25192392D+00 -0.15402135D+00
  0.10161393D+00  0.50873914D-01  0.23676541D-01  0.51423035D-03  0.45126733D-16
  0.43757752D-16  0.29518721D-16 -0.90295515D-01 -0.87556276D-01 -0.59064946D-01
 -0.12128116D+00 -0.11760192D+00 -0.79333564D-01  0.98177388D-17 -0.24957521D-01
 -0.31435069D-01 -0.93958978D-17 -0.94039478D-03 -0.27438300D-02  0.72635605D-18
  0.12527964D-03 -0.18436609D-04 -0.14608303D-01 -0.16677787D-02  0.16276081D-01
  0.58470244D-17  0.11260568D-16  0.18447064D-01 -0.33097138D-02 -0.79765794D-03
  0.41073717D-02  0.21160600D-17  0.47237219D-17  0.38547665D-02  0.17667652D-03
 -0.18213010D-03  0.54535819D-05  0.37878776D-17 -0.58321016D-17  0.86334423D-04
  0.42866299D-18  0.22416419D-02 -0.40995291D-02 -0.26793441D-17  0.59484497D-02
  0.68868326D-02  0.13933552D-17 -0.12673376D-01  0.54117547D-02  0.41732399D-17
  0.99769875D-18  0.53230115D-04  0.82473436D-04  0.71835933D-18 -0.35696363D-03
 -0.40709522D-03 -0.37114556D-17  0.19727329D-03  0.15967491D-03  0.88794879D-18
  0.58419871D-02  0.10536264D-01  0.15535716D-01  0.57655063D-02 -0.26454308D-03
  0.93073507D-05 -0.24197367D-17  0.45736139D-02 -0.65213882D-02  0.12861106D-16
  0.79396975D-03 -0.12318025D-02 -0.13171861D-17 -0.99843811D-04  0.18313001D-03
 -0.44486959D-03 -0.79540604D-04  0.52441020D-03 -0.72734665D-17 -0.79809645D-17
 -0.16669651D-02  0.30909240D-04 -0.35936158D-04  0.50269175D-05  0.10737482D-16
  0.46606201D-17 -0.18104464D-03
MO    5     MO 0.0        OCC NO =    2.0000000  ORB. ENERGY =   -1.411787
  0.17105167D-02  0.31881831D-02  0.54061022D-02  0.81823875D-02  0.10209231D-01
  0.87683675D-02  0.33663468D-02 -0.15057876D-04  0.45755764D-01  0.85816069D-01
  0.14629758D+00  0.22863465D+00  0.30572809D+00  0.32644632D+00  0.19958288D+00
 -0.13167266D+00 -0.66951329D-01 -0.35973690D-01 -0.64785083D-03  0.71492249D-15
  0.69323433D-15  0.46765178D-15  0.14147495D+00  0.13718311D+00  0.92542919D-01
 -0.97010819D-01 -0.94067862D-01 -0.63457624D-01  0.39622524D-15  0.37099876D-01
 -0.25533884D-01  0.26741859D-16  0.38675117D-02 -0.11614387D-02  0.82231833D-17
 -0.38042368D-04  0.45856945D-04  0.16567848D-01 -0.88525257D-02 -0.77153223D-02
  0.44056322D-16 -0.37647467D-16  0.51525176D-01  0.42891294D-02 -0.28269007D-02
 -0.14622288D-02  0.20921564D-16  0.16355942D-16  0.12973387D-01  0.85748019D-05
 -0.27365169D-03  0.26507688D-03 -0.10532241D-16  0.11363501D-16 -0.31265568D-03
 -0.46457440D-17 -0.35391836D-02  0.24901417D-02  0.57416161D-17 -0.96102230D-02
  0.97031918D-02  0.81956160D-17  0.20227774D-01 -0.17173617D-01 -0.30897767D-16
 -0.25880803D-17 -0.72503849D-04 -0.43739776D-04  0.22557760D-17 -0.32009543D-03
  0.71316652D-03  0.55084647D-17  0.53760698D-03 -0.58194719D-03 -0.14631911D-16
  0.87064232D-03  0.16223138D-02  0.27437393D-02  0.41319193D-02  0.51155842D-02
  0.43531313D-02  0.16564468D-02 -0.77578468D-05 -0.16028964D-02 -0.30054456D-02
 -0.51131573D-02 -0.79401934D-02 -0.10537098D-01 -0.11104655D-01 -0.68855947D-02
  0.45803003D-02  0.37061028D-03  0.54527873D-02  0.11565072D-02  0.24714788D-15
  0.23738258D-15  0.16646905D-15 -0.41489112D-01 -0.39849796D-01 -0.27945428D-01
  0.35470267D+00  0.34068767D+00  0.23891371D+00  0.64466142D-16 -0.42953914D-02
  0.81742987D-01 -0.16568904D-16  0.46809029D-03  0.13667858D-02  0.10359545D-18
  0.51731529D-04  0.38936584D-04 -0.47246642D-03 -0.57420770D-02  0.62145435D-02
  0.19265319D-16 -0.84479820D-16  0.94361739D-01 -0.21316004D-02 -0.13727701D-02
  0.35043705D-02  0.32276687D-17 -0.11665342D-16  0.17457669D-01 -0.29900485D-03
 -0.25157344D-03  0.55057830D-03 -0.51790936D-17  0.90934839D-17 -0.34159065D-03
  0.39634878D-17 -0.95853950D-04  0.24597012D-02  0.86112811D-18  0.32065240D-04
 -0.11882098D-01 -0.12751592D-16  0.25549661D-03  0.45029946D-02 -0.40047387D-17
  0.13050347D-17 -0.37849622D-03 -0.34671035D-03 -0.62044830D-17 -0.52453181D-03
 -0.62218711D-04  0.22893789D-17  0.16600205D-02  0.11023498D-02  0.50973506D-17
 -0.32927443D-02 -0.61372517D-02 -0.10406745D-01 -0.15751094D-01 -0.19652766D-01
 -0.16879105D-01 -0.64802167D-02  0.28986407D-04 -0.87116615D-01 -0.16338937D+00
 -0.27854306D+00 -0.43530858D+00 -0.58209051D+00 -0.62153696D+00 -0.37999551D+00
  0.25069796D+00  0.12801521D+00  0.61412451D-01  0.12016177D-02  0.94631601D-16
  0.91760821D-16  0.61901308D-16 -0.20364790D+00 -0.19746996D+00 -0.13321207D+00
  0.20771603D-02  0.20141468D-02  0.13587315D-02  0.23275143D-16 -0.55273651D-01
 -0.30249719D-02 -0.10708723D-16 -0.22511712D-02 -0.15403752D-02 -0.12800099D-17
 -0.16379427D-04  0.15020358D-03 -0.20415263D-01  0.10264609D-01  0.10150655D-01
  0.25314418D-16 -0.33550678D-17 -0.10168603D-01 -0.63116750D-02  0.17916347D-02
  0.45200403D-02 -0.92278895D-17 -0.19522443D-17  0.42666433D-02  0.16205322D-03
 -0.40969885D-03  0.24764562D-03  0.46970751D-17 -0.33892606D-17  0.84027259D-03
  0.23103849D-17  0.41534428D-02 -0.27118161D-02  0.12648280D-17  0.13080898D-01
  0.56353860D-02 -0.81959826D-17 -0.25541227D-01  0.25000624D-02  0.47958631D-17
 -0.95411745D-18  0.60032323D-03  0.26961788D-03  0.24103540D-18  0.61603617D-03
  0.68894837D-03  0.26213169D-17 -0.24170059D-02 -0.14978020D-02  0.34084646D-17
  0.20026645D-01  0.36118879D-01  0.53257265D-01  0.23922113D-01 -0.25843909D-02
 -0.12385600D-03 -0.73802313D-17  0.17867991D-01 -0.20660057D-01  0.84728263D-17
  0.24579235D-02 -0.61397744D-02  0.70590334D-18 -0.40326564D-03  0.48619289D-03
 -0.23486293D-02 -0.68042285D-03  0.30290521D-02 -0.83850950D-17 -0.13385875D-17
 -0.72221561D-02  0.50179824D-04 -0.37471418D-03  0.32453435D-03  0.86670210D-17
 -0.27883634D-18 -0.55283184D-04
MO    6     MO 0.0        OCC NO =    2.0000000  ORB. ENERGY =   -0.948002
 -0.13745126D-02 -0.25619146D-02 -0.43441583D-02 -0.65750859D-02 -0.82037875D-02
 -0.70459593D-02 -0.27050808D-02  0.12099992D-04  0.58723364D-01  0.11013712D+00
  0.18775965D+00  0.29343179D+00  0.39237421D+00  0.41896418D+00  0.25614648D+00
 -0.16898989D+00 -0.91620749D-01 -0.76003262D-01 -0.36964651D-02 -0.29525685D-14
 -0.28629983D-14 -0.19313617D-14 -0.31867102D+00 -0.30900370D+00 -0.20845207D+00
  0.47408261D+00  0.45970066D+00  0.31011135D+00 -0.44646994D-15 -0.69248293D-01
  0.10478987D+00  0.10051565D-15 -0.41313724D-02  0.80570385D-02 -0.21446256D-17
  0.62412820D-04 -0.10667075D-03 -0.15915262D-01 -0.28549700D-02  0.18770232D-01
 -0.45447356D-17 -0.11120014D-14 -0.57593654D-01 -0.23082849D-02 -0.14569163D-02
  0.37652011D-02 -0.45535717D-16 -0.46234742D-16 -0.10234914D-01  0.11326653D-03
 -0.31526401D-03  0.20199748D-03 -0.32693617D-16  0.21274366D-16 -0.92133475D-03
  0.18675097D-16  0.34187224D-02  0.54211795D-03 -0.46824609D-16  0.14591573D-02
 -0.30705524D-02 -0.92006831D-17 -0.11715324D-01  0.14441985D-02  0.22151077D-15
 -0.34384054D-17  0.35639224D-03  0.56357861D-04  0.98800566D-17  0.24416984D-03
 -0.36727772D-03  0.43515950D-18 -0.13133466D-02  0.19820414D-03 -0.41255257D-16
  0.10999299D-02  0.20495574D-02  0.34663154D-02  0.52200789D-02  0.64627963D-02
  0.54995480D-02  0.20926795D-02 -0.98009107D-05 -0.59610296D-01 -0.11176986D+00
 -0.19015379D+00 -0.29528876D+00 -0.39186536D+00 -0.41297230D+00 -0.25606917D+00
  0.17033731D+00  0.87885348D-01  0.53624787D-01  0.20608439D-02 -0.60808628D-15
 -0.58405960D-15 -0.40958291D-15 -0.70438076D-01 -0.67654930D-01 -0.47444307D-01
  0.17557759D+00  0.16864017D+00  0.11826213D+00 -0.21046497D-15 -0.98917325D-02
  0.42735492D-01 -0.68438018D-16 -0.41042240D-04  0.14181213D-02 -0.73926140D-17
 -0.34836375D-06  0.56670784D-04 -0.50029183D-02  0.24177702D-02  0.25851482D-02
 -0.10237718D-15  0.10758094D-15  0.23189909D-01 -0.26742716D-02  0.52432570D-03
  0.21499459D-02 -0.28517053D-16  0.95073375D-17  0.54980362D-02 -0.65721064D-03
  0.23536069D-05  0.65485703D-03 -0.22983371D-16  0.38859519D-16 -0.76355673D-03
  0.11956722D-16 -0.23071833D-02  0.12863447D-02 -0.35191887D-16 -0.67991398D-02
 -0.80470416D-03 -0.67827808D-18  0.13720690D-01 -0.30543300D-02  0.40677669D-16
 -0.38046945D-17 -0.25567074D-04  0.42658714D-04  0.11157787D-16 -0.36537378D-03
 -0.63415613D-03  0.25629621D-18  0.44207500D-03  0.50617999D-03  0.76579411D-17
 -0.68587663D-04 -0.12783858D-03 -0.21677187D-03 -0.32809433D-03 -0.40936593D-03