 Molden2AIM, Version 4.0.0 (06/02/2016)           Time: Wed Jun 27 22:08:35 2018
GAUSSIAN             24 MOL ORBITALS    412 PRIMITIVES        4 NUCLEI
  Cl   1    (CENTRE  1)  -0.52931418  0.00000000 -1.22169849  CHARGE = 17.0
  N    2    (CENTRE  2)   0.00187650  0.00000000  2.07950754  CHARGE =  7.0
  N    3    (CENTRE  3)   2.26698538  0.00000000  2.46467719  CHARGE =  7.0
  Cl   4    (CENTRE  4)   2.79817416  0.00000000  5.76588322  CHARGE = 17.0
CENTRE ASSIGNMENTS    1  1  1  1  1  1  1  1  1  1  1  1  1  1  1  1  1  1  1  1
CENTRE ASSIGNMENTS    1  1  1  1  1  1  1  1  1  1  1  1  1  1  1  1  1  1  1  1
CENTRE ASSIGNMENTS    1  1  1  1  1  1  1  1  1  1  1  1  1  1  1  1  1  1  1  1
CENTRE ASSIGNMENTS    1  1  1  1  1  1  1  1  1  1  1  1  1  1  1  1  1  1  1  1
CENTRE ASSIGNMENTS    1  1  1  1  1  1  1  1  1  1  1  1  1  1  1  1  1  1  1  1
CENTRE ASSIGNMENTS    1  1  1  1  1  1  1  1  1  1  1  1  1  1  1  1  1  1  1  1
CENTRE ASSIGNMENTS    1  1  1  1  1  1  1  1  1  1  1  2  2  2  2  2  2  2  2  2
CENTRE ASSIGNMENTS    2  2  2  2  2  2  2  2  2  2  2  2  2  2  2  2  2  2  2  2
CENTRE ASSIGNMENTS    2  2  2  2  2  2  2  2  2  2  2  2  2  2  2  2  2  2  2  2
CENTRE ASSIGNMENTS    2  2  2  2  2  2  2  2  2  2  2  2  2  2  2  2  2  2  2  2
CENTRE ASSIGNMENTS    2  2  2  2  2  2  3  3  3  3  3  3  3  3  3  3  3  3  3  3
CENTRE ASSIGNMENTS    3  3  3  3  3  3  3  3  3  3  3  3  3  3  3  3  3  3  3  3
CENTRE ASSIGNMENTS    3  3  3  3  3  3  3  3  3  3  3  3  3  3  3  3  3  3  3  3
CENTRE ASSIGNMENTS    3  3  3  3  3  3  3  3  3  3  3  3  3  3  3  3  3  3  3  3
CENTRE ASSIGNMENTS    3  4  4  4  4  4  4  4  4  4  4  4  4  4  4  4  4  4  4  4
CENTRE ASSIGNMENTS    4  4  4  4  4  4  4  4  4  4  4  4  4  4  4  4  4  4  4  4
CENTRE ASSIGNMENTS    4  4  4  4  4  4  4  4  4  4  4  4  4  4  4  4  4  4  4  4
CENTRE ASSIGNMENTS    4  4  4  4  4  4  4  4  4  4  4  4  4  4  4  4  4  4  4  4
CENTRE ASSIGNMENTS    4  4  4  4  4  4  4  4  4  4  4  4  4  4  4  4  4  4  4  4
CENTRE ASSIGNMENTS    4  4  4  4  4  4  4  4  4  4  4  4  4  4  4  4  4  4  4  4
CENTRE ASSIGNMENTS    4  4  4  4  4  4  4  4  4  4  4  4
TYPE ASSIGNMENTS      1  1  1  1  1  1  1  1  1  1  1  1  1  1  1  1  1  1  1  1
TYPE ASSIGNMENTS      1  1  1  1  1  1  1  1  1  1  1  1  1  1  1  1  1  1  1  1
TYPE ASSIGNMENTS      1  1  2  2  2  2  2  2  2  3  3  3  3  3  3  3  4  4  4  4
TYPE ASSIGNMENTS      4  4  4  2  2  2  2  2  2  2  3  3  3  3  3  3  3  4  4  4
TYPE ASSIGNMENTS      4  4  4  4  2  3  4  2  3  4  2  3  4  5  6  7  8  9 10  5
TYPE ASSIGNMENTS      6  7  8  9 10  5  6  7  8  9 10 11 12 13 17 14 15 18 19 16
TYPE ASSIGNMENTS     20 11 12 13 17 14 15 18 19 16 20  1  1  1  1  1  1  1  1  1
TYPE ASSIGNMENTS      1  1  1  1  1  1  1  1  1  1  2  2  2  3  3  3  4  4  4  2
TYPE ASSIGNMENTS      3  4  2  3  4  2  3  4  5  6  7  8  9 10  5  6  7  8  9 10
TYPE ASSIGNMENTS      5  6  7  8  9 10 11 12 13 17 14 15 18 19 16 20 11 12 13 17
TYPE ASSIGNMENTS     14 15 18 19 16 20  1  1  1  1  1  1  1  1  1  1  1  1  1  1
TYPE ASSIGNMENTS      1  1  1  1  1  2  2  2  3  3  3  4  4  4  2  3  4  2  3  4
TYPE ASSIGNMENTS      2  3  4  5  6  7  8  9 10  5  6  7  8  9 10  5  6  7  8  9
TYPE ASSIGNMENTS     10 11 12 13 17 14 15 18 19 16 20 11 12 13 17 14 15 18 19 16
TYPE ASSIGNMENTS     20  1  1  1  1  1  1  1  1  1  1  1  1  1  1  1  1  1  1  1
TYPE ASSIGNMENTS      1  1  1  1  1  1  1  1  1  1  1  1  1  1  1  1  1  1  1  1
TYPE ASSIGNMENTS      1  1  1  2  2  2  2  2  2  2  3  3  3  3  3  3  3  4  4  4
TYPE ASSIGNMENTS      4  4  4  4  2  2  2  2  2  2  2  3  3  3  3  3  3  3  4  4
TYPE ASSIGNMENTS      4  4  4  4  4  2  3  4  2  3  4  2  3  4  5  6  7  8  9 10
TYPE ASSIGNMENTS      5  6  7  8  9 10  5  6  7  8  9 10 11 12 13 17 14 15 18 19
TYPE ASSIGNMENTS     16 20 11 12 13 17 14 15 18 19 16 20
EXPONENTS  0.4561000D+06 0.6833000D+05 0.1555000D+05 0.4405000D+04 0.1439000D+04
EXPONENTS  0.5204000D+03 0.2031000D+03 0.8396000D+02 0.3620000D+02 0.1583000D+02
EXPONENTS  0.6334000D+01 0.2694000D+01 0.4313000D+00 0.4561000D+06 0.6833000D+05
EXPONENTS  0.1555000D+05 0.4405000D+04 0.1439000D+04 0.5204000D+03 0.2031000D+03
EXPONENTS  0.8396000D+02 0.3620000D+02 0.1583000D+02 0.6334000D+01 0.2694000D+01
EXPONENTS  0.4313000D+00 0.4561000D+06 0.6833000D+05 0.1555000D+05 0.4405000D+04
EXPONENTS  0.1439000D+04 0.5204000D+03 0.2031000D+03 0.8396000D+02 0.3620000D+02
EXPONENTS  0.1583000D+02 0.6334000D+01 0.2694000D+01 0.4313000D+00 0.9768000D+00
EXPONENTS  0.1625000D+00 0.5910000D-01 0.6633000D+03 0.1568000D+03 0.4998000D+02
EXPONENTS  0.1842000D+02 0.7240000D+01 0.2922000D+01 0.3818000D+00 0.6633000D+03
EXPONENTS  0.1568000D+03 0.4998000D+02 0.1842000D+02 0.7240000D+01 0.2922000D+01
EXPONENTS  0.3818000D+00 0.6633000D+03 0.1568000D+03 0.4998000D+02 0.1842000D+02
EXPONENTS  0.7240000D+01 0.2922000D+01 0.3818000D+00 0.6633000D+03 0.1568000D+03
EXPONENTS  0.4998000D+02 0.1842000D+02 0.7240000D+01 0.2922000D+01 0.3818000D+00
EXPONENTS  0.6633000D+03 0.1568000D+03 0.4998000D+02 0.1842000D+02 0.7240000D+01
EXPONENTS  0.2922000D+01 0.3818000D+00 0.6633000D+03 0.1568000D+03 0.4998000D+02
EXPONENTS  0.1842000D+02 0.7240000D+01 0.2922000D+01 0.3818000D+00 0.1022000D+01
EXPONENTS  0.1022000D+01 0.1022000D+01 0.1301000D+00 0.1301000D+00 0.1301000D+00
EXPONENTS  0.4190000D-01 0.4190000D-01 0.4190000D-01 0.1046000D+01 0.1046000D+01
EXPONENTS  0.1046000D+01 0.1046000D+01 0.1046000D+01 0.1046000D+01 0.3440000D+00
EXPONENTS  0.3440000D+00 0.3440000D+00 0.3440000D+00 0.3440000D+00 0.3440000D+00
EXPONENTS  0.1350000D+00 0.1350000D+00 0.1350000D+00 0.1350000D+00 0.1350000D+00
EXPONENTS  0.1350000D+00 0.7060000D+00 0.7060000D+00 0.7060000D+00 0.7060000D+00
EXPONENTS  0.7060000D+00 0.7060000D+00 0.7060000D+00 0.7060000D+00 0.7060000D+00
EXPONENTS  0.7060000D+00 0.3120000D+00 0.3120000D+00 0.3120000D+00 0.3120000D+00
EXPONENTS  0.3120000D+00 0.3120000D+00 0.3120000D+00 0.3120000D+00 0.3120000D+00
EXPONENTS  0.3120000D+00 0.1142000D+05 0.1712000D+04 0.3893000D+03 0.1100000D+03
EXPONENTS  0.3557000D+02 0.1254000D+02 0.4644000D+01 0.5118000D+00 0.1142000D+05
EXPONENTS  0.1712000D+04 0.3893000D+03 0.1100000D+03 0.3557000D+02 0.1254000D+02
EXPONENTS  0.4644000D+01 0.5118000D+00 0.1293000D+01 0.1787000D+00 0.5760000D-01
EXPONENTS  0.2663000D+02 0.5948000D+01 0.1742000D+01 0.2663000D+02 0.5948000D+01
EXPONENTS  0.1742000D+01 0.2663000D+02 0.5948000D+01 0.1742000D+01 0.5550000D+00
EXPONENTS  0.5550000D+00 0.5550000D+00 0.1725000D+00 0.1725000D+00 0.1725000D+00
EXPONENTS  0.4910000D-01 0.4910000D-01 0.4910000D-01 0.1654000D+01 0.1654000D+01
EXPONENTS  0.1654000D+01 0.1654000D+01 0.1654000D+01 0.1654000D+01 0.4690000D+00
EXPONENTS  0.4690000D+00 0.4690000D+00 0.4690000D+00 0.4690000D+00 0.4690000D+00
EXPONENTS  0.1510000D+00 0.1510000D+00 0.1510000D+00 0.1510000D+00 0.1510000D+00
EXPONENTS  0.1510000D+00 0.1093000D+01 0.1093000D+01 0.1093000D+01 0.1093000D+01
EXPONENTS  0.1093000D+01 0.1093000D+01 0.1093000D+01 0.1093000D+01 0.1093000D+01
EXPONENTS  0.1093000D+01 0.3640000D+00 0.3640000D+00 0.3640000D+00 0.3640000D+00
EXPONENTS  0.3640000D+00 0.3640000D+00 0.3640000D+00 0.3640000D+00 0.3640000D+00
EXPONENTS  0.3640000D+00 0.1142000D+05 0.1712000D+04 0.3893000D+03 0.1100000D+03
EXPONENTS  0.3557000D+02 0.1254000D+02 0.4644000D+01 0.5118000D+00 0.1142000D+05
EXPONENTS  0.1712000D+04 0.3893000D+03 0.1100000D+03 0.3557000D+02 0.1254000D+02
EXPONENTS  0.4644000D+01 0.5118000D+00 0.1293000D+01 0.1787000D+00 0.5760000D-01
EXPONENTS  0.2663000D+02 0.5948000D+01 0.1742000D+01 0.2663000D+02 0.5948000D+01
EXPONENTS  0.1742000D+01 0.2663000D+02 0.5948000D+01 0.1742000D+01 0.5550000D+00
EXPONENTS  0.5550000D+00 0.5550000D+00 0.1725000D+00 0.1725000D+00 0.1725000D+00
EXPONENTS  0.4910000D-01 0.4910000D-01 0.4910000D-01 0.1654000D+01 0.1654000D+01
EXPONENTS  0.1654000D+01 0.1654000D+01 0.1654000D+01 0.1654000D+01 0.4690000D+00
EXPONENTS  0.4690000D+00 0.4690000D+00 0.4690000D+00 0.4690000D+00 0.4690000D+00
EXPONENTS  0.1510000D+00 0.1510000D+00 0.1510000D+00 0.1510000D+00 0.1510000D+00
EXPONENTS  0.1510000D+00 0.1093000D+01 0.1093000D+01 0.1093000D+01 0.1093000D+01
EXPONENTS  0.1093000D+01 0.1093000D+01 0.1093000D+01 0.1093000D+01 0.1093000D+01
EXPONENTS  0.1093000D+01 0.3640000D+00 0.3640000D+00 0.3640000D+00 0.3640000D+00
EXPONENTS  0.3640000D+00 0.3640000D+00 0.3640000D+00 0.3640000D+00 0.3640000D+00
EXPONENTS  0.3640000D+00 0.4561000D+06 0.6833000D+05 0.1555000D+05 0.4405000D+04
EXPONENTS  0.1439000D+04 0.5204000D+03 0.2031000D+03 0.8396000D+02 0.3620000D+02
EXPONENTS  0.1583000D+02 0.6334000D+01 0.2694000D+01 0.4313000D+00 0.4561000D+06
EXPONENTS  0.6833000D+05 0.1555000D+05 0.4405000D+04 0.1439000D+04 0.5204000D+03
EXPONENTS  0.2031000D+03 0.8396000D+02 0.3620000D+02 0.1583000D+02 0.6334000D+01
EXPONENTS  0.2694000D+01 0.4313000D+00 0.4561000D+06 0.6833000D+05 0.1555000D+05
EXPONENTS  0.4405000D+04 0.1439000D+04 0.5204000D+03 0.2031000D+03 0.8396000D+02
EXPONENTS  0.3620000D+02 0.1583000D+02 0.6334000D+01 0.2694000D+01 0.4313000D+00
EXPONENTS  0.9768000D+00 0.1625000D+00 0.5910000D-01 0.6633000D+03 0.1568000D+03
EXPONENTS  0.4998000D+02 0.1842000D+02 0.7240000D+01 0.2922000D+01 0.3818000D+00
EXPONENTS  0.6633000D+03 0.1568000D+03 0.4998000D+02 0.1842000D+02 0.7240000D+01
EXPONENTS  0.2922000D+01 0.3818000D+00 0.6633000D+03 0.1568000D+03 0.4998000D+02
EXPONENTS  0.1842000D+02 0.7240000D+01 0.2922000D+01 0.3818000D+00 0.6633000D+03
EXPONENTS  0.1568000D+03 0.4998000D+02 0.1842000D+02 0.7240000D+01 0.2922000D+01
EXPONENTS  0.3818000D+00 0.6633000D+03 0.1568000D+03 0.4998000D+02 0.1842000D+02
EXPONENTS  0.7240000D+01 0.2922000D+01 0.3818000D+00 0.6633000D+03 0.1568000D+03
EXPONENTS  0.4998000D+02 0.1842000D+02 0.7240000D+01 0.2922000D+01 0.3818000D+00
EXPONENTS  0.1022000D+01 0.1022000D+01 0.1022000D+01 0.1301000D+00 0.1301000D+00
EXPONENTS  0.1301000D+00 0.4190000D-01 0.4190000D-01 0.4190000D-01 0.1046000D+01
EXPONENTS  0.1046000D+01 0.1046000D+01 0.1046000D+01 0.1046000D+01 0.1046000D+01
EXPONENTS  0.3440000D+00 0.3440000D+00 0.3440000D+00 0.3440000D+00 0.3440000D+00
EXPONENTS  0.3440000D+00 0.1350000D+00 0.1350000D+00 0.1350000D+00 0.1350000D+00
EXPONENTS  0.1350000D+00 0.1350000D+00 0.7060000D+00 0.7060000D+00 0.7060000D+00
EXPONENTS  0.7060000D+00 0.7060000D+00 0.7060000D+00 0.7060000D+00 0.7060000D+00
EXPONENTS  0.7060000D+00 0.7060000D+00 0.3120000D+00 0.3120000D+00 0.3120000D+00
EXPONENTS  0.3120000D+00 0.3120000D+00 0.3120000D+00 0.3120000D+00 0.3120000D+00
EXPONENTS  0.3120000D+00 0.3120000D+00
MO    1     MO 0.0        OCC NO =    2.0000000  ORB. ENERGY = -104.892853
  0.40668402D+00  0.76090736D+00  0.13146794D+01  0.21312486D+01  0.32364710D+01
  0.44983141D+01  0.53478465D+01  0.47634503D+01  0.23647194D+01  0.38099418D+00
  0.58492755D-02  0.10452598D-02  0.39059727D-04 -0.70847683D-05 -0.13233330D-04
 -0.22967086D-04 -0.37266247D-04 -0.57683724D-04 -0.82569010D-04 -0.10777835D-03
 -0.11485582D-03 -0.85857054D-04 -0.45322414D-05  0.58237052D-04  0.34599500D-04
 -0.12972218D-06  0.33301949D-05  0.62153289D-05  0.10801695D-04  0.17506369D-04
  0.27190132D-04  0.38950649D-04  0.51430703D-04  0.55611846D-04  0.43600408D-04
  0.21695419D-05 -0.37376573D-04 -0.38691682D-04  0.17508534D-04 -0.19370529D-03
  0.67571673D-05  0.17903054D-05  0.19542237D-03  0.25741512D-03  0.28398918D-03
  0.23588566D-03  0.12528460D-03  0.32314554D-04 -0.33218262D-07 -0.65974049D-15
 -0.86902629D-15 -0.95873958D-15 -0.79634342D-15 -0.42295734D-15 -0.10909303D-15
  0.11214393D-18  0.97397523D-03  0.12829440D-02  0.14153877D-02  0.11756422D-02
  0.62441214D-03  0.16105411D-03 -0.16555815D-06 -0.92867323D-04 -0.12192799D-03
 -0.13882398D-03 -0.11755045D-03 -0.67337422D-04 -0.15316927D-04  0.71691650D-05
  0.53961254D-18  0.70847171D-18  0.80664716D-18  0.68303568D-18  0.39126914D-18
  0.89000154D-19 -0.41656970D-19 -0.46357885D-03 -0.60864505D-03 -0.69298716D-03
 -0.58679307D-03 -0.33613766D-03 -0.76459656D-04  0.35787327D-04 -0.11680314D-04
  0.10965580D-18 -0.61789530D-04  0.94450119D-06  0.91202477D-20  0.15312526D-05
 -0.95078313D-07 -0.40782479D-21  0.49927489D-07 -0.29868042D-05 -0.53784110D-05
  0.83652151D-05  0.18754058D-19  0.63517147D-05  0.48688002D-19 -0.40868807D-05
 -0.34011622D-05  0.74880429D-05  0.17235367D-20  0.34130918D-05 -0.11640945D-19
 -0.14258345D-07  0.25506353D-06 -0.24080519D-06 -0.16044025D-21  0.24289741D-07
  0.16305220D-20 -0.37578561D-06 -0.18954378D-20  0.37028542D-05 -0.18607093D-05
 -0.12860700D-19 -0.28535687D-05  0.29880661D-05  0.18547014D-19 -0.82549939D-05
  0.62577996D-19 -0.17800552D-06 -0.13734669D-21  0.25000328D-06  0.59250001D-06
  0.16440635D-20 -0.15571226D-05 -0.58483460D-07 -0.12320234D-20  0.80711277D-06
 -0.31534701D-20  0.49814816D-05  0.92822574D-05  0.15698624D-04  0.23641258D-04
  0.29269411D-04  0.24906948D-04  0.94775532D-05 -0.44387425D-07 -0.35568362D-05
 -0.66691012D-05 -0.11346125D-04 -0.17619335D-04 -0.23381882D-04 -0.24641294D-04
 -0.15279174D-04  0.10163713D-04  0.47789851D-05 -0.17283748D-04 -0.14456922D-05
 -0.29890350D-05 -0.28709323D-05 -0.20132959D-05  0.13770531D-19  0.13226431D-19
  0.92752862D-20 -0.51366738D-05 -0.49337138D-05 -0.34598607D-05  0.35476746D-05
  0.80734461D-21 -0.23125012D-05  0.24418471D-06  0.11921766D-19  0.27301668D-04
  0.14207324D-06 -0.56326252D-22  0.87620438D-06 -0.15259591D-05 -0.92167934D-05
  0.10742752D-04 -0.12720078D-20  0.21583459D-05  0.56253755D-20  0.36149427D-05
  0.65783970D-05 -0.10193340D-04  0.17432377D-20 -0.74828077D-05 -0.59408605D-20
  0.74669046D-06  0.61234495D-06 -0.13590354D-05  0.41685030D-20  0.42417545D-05
  0.14155010D-20  0.15001632D-07  0.53084060D-20  0.49980506D-05 -0.34690872D-05
 -0.67417177D-20 -0.11648435D-04  0.34240823D-05 -0.91835002D-20 -0.33457165D-05
 -0.60689626D-20 -0.10620269D-05 -0.26570922D-20  0.27232462D-05  0.33338176D-06
  0.12817374D-20 -0.35709526D-05  0.28526988D-05  0.66895391D-20 -0.45987860D-05
  0.47808978D-20  0.55585564D-05  0.10357551D-04  0.17517216D-04  0.26379956D-04
  0.32660097D-04  0.27792269D-04  0.10575471D-04 -0.49529442D-07 -0.39640701D-05
 -0.74326685D-05 -0.12645181D-04 -0.19636630D-04 -0.26058950D-04 -0.27462557D-04
 -0.17028537D-04  0.11327389D-04  0.54142649D-05 -0.19964145D-04 -0.33723418D-05
  0.27135630D-05  0.26063448D-05  0.18277489D-05 -0.31635624D-19 -0.30385638D-19
 -0.21308507D-19  0.65109869D-05  0.62537251D-05  0.43855437D-05 -0.31169357D-05
 -0.10246944D-19  0.14509399D-05 -0.50578431D-06 -0.13523866D-19 -0.29276603D-04
 -0.86162011D-07  0.44394440D-23 -0.99171192D-06 -0.24629065D-05 -0.10219949D-04
  0.12682856D-04  0.40961543D-21  0.35259360D-05  0.19393123D-19  0.42435546D-05
  0.74935587D-05 -0.11737113D-04  0.92364063D-21 -0.82854517D-05 -0.19917169D-19
  0.92256338D-06  0.82936901D-06 -0.17519324D-05  0.38837780D-20  0.40288543D-05
  0.20693451D-21  0.13593390D-06 -0.23058802D-20 -0.53508766D-05  0.32542655D-05
  0.77597139D-20  0.12622413D-04 -0.36620671D-05 -0.84207314D-21  0.34302169D-05
 -0.98345932D-20  0.11226513D-05  0.34150180D-20 -0.30097506D-05 -0.26151640D-06
 -0.14633118D-21  0.38836830D-05 -0.31064374D-05 -0.10098723D-19  0.51455687D-05
 -0.33501975D-21  0.46351951D+00  0.86724678D+00  0.14984103D+01  0.24290979D+01
  0.36887789D+01  0.51269689D+01  0.60952264D+01  0.54291589D+01  0.26951970D+01
  0.43423942D+00  0.66667318D-02  0.11913384D-02  0.44518458D-04 -0.78858445D-05
 -0.14729625D-04 -0.25563979D-04 -0.41479949D-04 -0.64206034D-04 -0.91905105D-04
 -0.11996487D-03 -0.12784259D-03 -0.95564929D-04 -0.50447028D-05  0.64821928D-04
  0.38511672D-04 -0.14438990D-06  0.36900031D-05  0.68868590D-05  0.11968755D-04
  0.19397831D-04  0.30127868D-04  0.43159040D-04  0.56987491D-04  0.61620382D-04
  0.48311179D-04  0.24039483D-05 -0.41414895D-04 -0.42872094D-04  0.19400229D-04
 -0.22068189D-03  0.80734190D-05  0.27221208D-05 -0.22352106D-03 -0.29442740D-03
 -0.32482239D-03 -0.26980234D-03 -0.14329857D-03 -0.36960882D-04  0.37994531D-07
 -0.47668489D-18 -0.62790098D-18 -0.69272188D-18 -0.57538515D-18 -0.30560103D-18
 -0.78823420D-19  0.81027796D-22 -0.11053820D-02 -0.14560362D-02 -0.16063490D-02
 -0.13342575D-02 -0.70865656D-03 -0.18278320D-03  0.18789491D-06  0.10628894D-03
  0.13954959D-03  0.15888747D-03  0.13453939D-03  0.77069340D-04  0.17530601D-04
 -0.82052861D-05 -0.46427051D-18 -0.60955315D-18 -0.69402110D-18 -0.58766856D-18
 -0.33663918D-18 -0.76573734D-19  0.35840722D-19  0.52400164D-03  0.68797574D-03
  0.78331100D-03  0.66327558D-03  0.37994979D-03  0.86425395D-04 -0.40451841D-04
  0.13577854D-04 -0.52169435D-18  0.70442790D-04 -0.83707924D-06 -0.12291137D-19
 -0.22236311D-05  0.81907153D-07  0.71490223D-21 -0.91430744D-07 -0.36023260D-05
 -0.57420762D-05  0.93444022D-05 -0.80280513D-19  0.69938951D-05 -0.20834847D-20
 -0.45479368D-05 -0.40275558D-05  0.85754926D-05  0.53542322D-20  0.39989866D-05
 -0.71875244D-20 -0.67684715D-07  0.26628237D-06 -0.19859766D-06 -0.16511061D-21
 -0.39702133D-07  0.87103643D-21  0.47502328D-06 -0.56416814D-20 -0.41585049D-05
  0.21740446D-05 -0.71719046D-21  0.32828364D-05 -0.35991145D-05  0.17642235D-19
  0.91926782D-05 -0.14923335D-19  0.19135729D-06  0.60420368D-21 -0.30510092D-06
 -0.63106799D-06 -0.18784814D-20  0.16678004D-05  0.56996125D-07  0.65870350D-22
 -0.75249764D-06  0.50554920D-21
MO    2     MO 0.0        OCC NO =    2.0000000  ORB. ENERGY = -104.892853
  0.46351881D+00  0.86724548D+00  0.14984081D+01  0.24290942D+01  0.36887734D+01
  0.51269612D+01  0.60952173D+01  0.54291507D+01  0.26951930D+01  0.43423877D+00
  0.66667218D-02  0.11913366D-02  0.44518392D-04 -0.66214524D-05 -0.12367922D-04
 -0.21465129D-04 -0.34829181D-04 -0.53911436D-04 -0.77169323D-04 -0.10073007D-03
 -0.10734470D-03 -0.80242342D-04 -0.42358507D-05  0.54428579D-04  0.32336829D-04
 -0.12123887D-06  0.29837327D-05  0.55687072D-05  0.96779230D-05  0.15685066D-04
  0.24361363D-04  0.34898356D-04  0.46080028D-04  0.49826179D-04  0.39064370D-04
  0.19438301D-05 -0.33488042D-04 -0.34666331D-04  0.15687005D-04 -0.22005030D-03
  0.10560812D-04  0.72808464D-05  0.22879558D-03  0.30137512D-03  0.33248736D-03
  0.27616897D-03  0.14668005D-03  0.37833063D-04 -0.38891103D-07 -0.16668947D-15
 -0.21956744D-15 -0.24223432D-15 -0.20120345D-15 -0.10686404D-15 -0.27563353D-16
  0.28334190D-19  0.10738798D-02  0.14145407D-02  0.15605697D-02  0.12962325D-02
  0.68846059D-03  0.17757407D-03 -0.18254011D-06 -0.10925523D-03 -0.14344411D-03
 -0.16332168D-03 -0.13829409D-03 -0.79220178D-04 -0.18019842D-04  0.84342778D-05
  0.11335725D-17  0.14882976D-17  0.16945363D-17  0.14348638D-17  0.82194521D-18
  0.18696402D-18 -0.87509450D-19 -0.49481305D-03 -0.64965326D-03 -0.73967803D-03
 -0.62632898D-03 -0.35878535D-03 -0.81611220D-04  0.38198542D-04 -0.15351777D-04
  0.31377525D-18 -0.70562694D-04 -0.76417159D-06  0.15367197D-20  0.54231017D-05
  0.95052024D-07 -0.42509850D-21  0.32234372D-06 -0.49272424D-05 -0.31471595D-05
  0.80744019D-05  0.32009979D-19  0.53521069D-05  0.61910622D-19 -0.38115342D-05
 -0.50379173D-05  0.88494515D-05 -0.50576379D-20  0.47275051D-05 -0.25811531D-19
 -0.41168013D-06  0.10290904D-06  0.30877109D-06 -0.98443190D-23 -0.49039111D-06
 -0.88127392D-21 -0.78751406D-06 -0.52601650D-20  0.37449066D-05 -0.25305332D-05
 -0.12780187D-19 -0.34865745D-05  0.48930754D-05  0.28560682D-19 -0.77481452D-05
  0.73668055D-19 -0.11428362D-06  0.19886010D-20  0.43992100D-06  0.33521191D-06
  0.18789717D-20 -0.95258983D-06  0.76389638D-08 -0.78447745D-20 -0.36717316D-06
 -0.82891908D-20  0.47619551D-05  0.88732021D-05  0.15006809D-04  0.22599423D-04
  0.27979552D-04  0.23809336D-04  0.90598916D-05 -0.42431337D-07 -0.33631554D-05
 -0.63059478D-05 -0.10728294D-04 -0.16659907D-04 -0.22108666D-04 -0.23299499D-04
 -0.14447176D-04  0.96102668D-05  0.51961825D-05 -0.21735634D-04 -0.14906713D-04
  0.19225696D-05  0.18466051D-05  0.12949669D-05 -0.16324254D-19 -0.15679251D-19
 -0.10995373D-19 -0.10901305D-04 -0.10470573D-04 -0.73426885D-05 -0.30798550D-05
  0.10128413D-20  0.64726809D-05  0.20273549D-05  0.12513164D-19  0.16966692D-04
 -0.42056864D-06  0.31250205D-21  0.94526388D-06 -0.73030432D-05 -0.83143784D-05
  0.15617422D-04  0.83672598D-20  0.10655340D-04  0.32371336D-19  0.50688950D-05
  0.74654941D-05 -0.12534389D-04  0.65940295D-20 -0.66596348D-05 -0.10791653D-19
  0.14009140D-05  0.17084990D-05 -0.31094130D-05  0.16353528D-20 -0.13597902D-05
 -0.38629550D-20 -0.11594807D-05  0.72864205D-20  0.30389612D-05  0.14249173D-05
  0.48790567D-20 -0.82487287D-05  0.20535248D-05 -0.26738318D-19 -0.86815501D-06
 -0.17722920D-19 -0.53545566D-06 -0.34208988D-20  0.23805381D-05 -0.53073175D-06
  0.10555029D-21 -0.26375434D-05  0.21370987D-05  0.10157146D-19 -0.45040710D-05
  0.67880788D-20 -0.40735527D-05 -0.75904657D-05 -0.12837380D-04 -0.19332384D-04
 -0.23934745D-04 -0.20367388D-04 -0.77501668D-05  0.36297337D-07  0.28719417D-05
  0.53849176D-05  0.91613470D-05  0.14226605D-04  0.18879532D-04  0.19896435D-04
  0.12337059D-04 -0.82066164D-05 -0.45304293D-05  0.19302849D-04  0.14592031D-04
  0.22950203D-05  0.22043396D-05  0.15458351D-05  0.25397630D-19  0.24394120D-19
  0.17106841D-19 -0.10140580D-04 -0.97399056D-05 -0.68302941D-05 -0.35151320D-05
  0.73285673D-20  0.67185071D-05  0.19783528D-05 -0.36749810D-20  0.13271384D-04
 -0.43547619D-06 -0.42468250D-21  0.82326403D-06  0.70425136D-05  0.70449059D-05
 -0.14087420D-04 -0.17727009D-19 -0.10284061D-04 -0.51136151D-20 -0.45556335D-05
 -0.65464121D-05  0.11102046D-04  0.12164786D-19  0.56297413D-05  0.14297472D-19
 -0.12918880D-05 -0.16143364D-05  0.29062244D-05  0.22510615D-20  0.18999656D-05
  0.25495494D-20 -0.11515863D-05  0.21066764D-20  0.23630529D-05  0.18640272D-05
 -0.14960791D-20 -0.66635324D-05  0.15907319D-05 -0.48239502D-20 -0.42562628D-06
 -0.41656430D-22 -0.39276470D-06 -0.15342431D-20  0.20060969D-05 -0.56958010D-06
 -0.46611256D-20 -0.21506608D-05  0.17478742D-05  0.92638549D-20 -0.38676300D-05
  0.34950228D-20 -0.40668323D+00 -0.76090588D+00 -0.13146768D+01 -0.21312444D+01
 -0.32364647D+01 -0.44983053D+01 -0.53478361D+01 -0.47634410D+01 -0.23647148D+01
 -0.38099344D+00 -0.58492641D-02 -0.10452577D-02 -0.39059651D-04  0.56436774D-05
  0.10541579D-04  0.18295422D-04  0.29686034D-04  0.45950455D-04  0.65773902D-04
  0.85855488D-04  0.91493348D-04  0.68393135D-04  0.36103521D-05 -0.46391233D-04
 -0.27561722D-04  0.10333579D-06 -0.25252225D-05 -0.47129640D-05 -0.81907166D-05
 -0.13274742D-04 -0.20617753D-04 -0.29535526D-04 -0.38998910D-04 -0.42169389D-04
 -0.33061348D-04 -0.16451217D-05  0.28341934D-04  0.29339156D-04 -0.13276383D-04
  0.19298544D-03 -0.95921705D-05 -0.69861247D-05  0.20143256D-03  0.26533188D-03
  0.29272323D-03  0.24314029D-03  0.12913771D-03  0.33308383D-04 -0.34239885D-07
  0.43412804D-18  0.57184406D-18  0.63087796D-18  0.52401666D-18  0.27831798D-18
  0.71786325D-19 -0.73793902D-22  0.93807080D-03  0.12356498D-02  0.13632112D-02
  0.11323036D-02  0.60139393D-03  0.15511704D-03 -0.15945504D-06 -0.96247545D-04
 -0.12636597D-03 -0.14387695D-03 -0.12182910D-03 -0.69788397D-04 -0.15874439D-04
  0.74301111D-05  0.39573228D-18  0.51956748D-18  0.59156580D-18  0.50091362D-18
  0.28694261D-18  0.65269488D-19 -0.30549712D-19 -0.43031118D-03 -0.56496704D-03
 -0.64325654D-03 -0.54468321D-03 -0.31201552D-03 -0.70972705D-04  0.33219132D-04
 -0.13702058D-04  0.45741086D-18 -0.61926217D-04 -0.88053694D-06  0.89833368D-20
  0.51778555D-05  0.10661124D-06 -0.37678045D-21  0.31311114D-06  0.44968918D-05
  0.24208457D-05 -0.69177375D-05  0.65008575D-19 -0.44804373D-05 -0.36698231D-20
  0.32475686D-05  0.45527259D-05 -0.78002945D-05 -0.29528452D-20 -0.42433951D-05
  0.81618832D-20  0.40632792D-06 -0.68858391D-07 -0.33746952D-06 -0.39570766D-21
  0.48938606D-06 -0.24462524D-21 -0.73194418D-06  0.32402537D-20  0.32314588D-05
 -0.22670100D-05  0.30224021D-20 -0.30857905D-05  0.44628426D-05 -0.12743163D-19
 -0.66085859D-05  0.14362460D-19 -0.90159270D-07  0.15579426D-21  0.40366539D-06
  0.25529666D-06  0.77448858D-21 -0.74195939D-06  0.15181149D-07 -0.12418714D-20
 -0.46903678D-06 -0.98067048D-21
MO    3     MO 0.0        OCC NO =    2.0000000  ORB. ENERGY =  -15.742838
  0.32349591D-04  0.60526209D-04  0.10457588D-03  0.16952970D-03  0.25744437D-03
  0.35781740D-03  0.42539327D-03  0.37890761D-03  0.18810108D-03  0.30306098D-04
  0.46527933D-06  0.83144959D-07  0.31069974D-08 -0.52727598D-04 -0.98487582D-04
 -0.17092998D-03 -0.27734989D-03 -0.42930468D-03 -0.61451065D-03 -0.80212835D-03
 -0.85480160D-03 -0.63898155D-03 -0.33730701D-04  0.43342276D-03  0.25750292D-03
 -0.96544289D-06  0.25656411D-04  0.47883994D-04  0.83218167D-04  0.13487217D-03
  0.20947759D-03  0.30008270D-03  0.39623124D-03  0.42844350D-03  0.33590526D-03
  0.16714535D-04 -0.28795574D-03 -0.29808757D-03  0.13488884D-03 -0.18468694D-03
 -0.15955306D-03 -0.76645672D-04 -0.65961868D-03 -0.86886584D-03 -0.95856257D-03
 -0.79619639D-03 -0.42287925D-03 -0.10907289D-03  0.11212323D-06 -0.17541829D-14
 -0.23106526D-14 -0.25491911D-14 -0.21173962D-14 -0.11246006D-14 -0.29006730D-15
  0.29817932D-18  0.28212388D-02  0.37162046D-02  0.40998443D-02  0.34053919D-02
  0.18086864D-02  0.46651298D-03 -0.47955948D-06  0.52704320D-03  0.69196909D-03
  0.78785771D-03  0.66712555D-03  0.38215520D-03  0.86927050D-04 -0.40686643D-04
  0.51886432D-15  0.68123082D-15  0.77563140D-15  0.65677281D-15  0.37622475D-15
  0.85578079D-16 -0.40055251D-16 -0.27826702D-02 -0.36534420D-02 -0.41597125D-02
 -0.35222737D-02 -0.20176940D-02 -0.45895538D-03  0.21481638D-03  0.50001831D-04
  0.29661671D-15 -0.26793667D-03 -0.77844434D-04 -0.27990146D-17 -0.67441168D-04
 -0.95171618D-06  0.48368151D-19 -0.43204719D-05  0.21841330D-04  0.30394761D-04
 -0.52236091D-04 -0.50254033D-18  0.78741187D-04 -0.54659986D-18 -0.78806099D-04
 -0.68845462D-04  0.14765156D-03  0.12452940D-18 -0.72369715D-04  0.28939982D-18
 -0.59506225D-05  0.76050735D-05 -0.16544510D-05 -0.51012288D-19 -0.27295496D-04
 -0.12443494D-18 -0.57381808D-05 -0.13892396D-18  0.82962393D-04 -0.64814979D-05
  0.17938800D-18 -0.11344835D-03  0.23696040D-04  0.23738387D-18 -0.13543883D-03
  0.47887423D-18  0.21976369D-05  0.47407678D-19  0.35173321D-04  0.45465277D-05
 -0.76924956D-19 -0.62701457D-04 -0.11139438D-04 -0.65298078D-19 -0.42818505D-04
 -0.11751118D-18  0.29110236D+00  0.54242639D+00  0.91737900D+00  0.13815219D+01
  0.17104138D+01  0.14554849D+01  0.55383887D+00 -0.25938637D-02 -0.35473855D-04
 -0.66513809D-04 -0.11315978D-03 -0.17572519D-03 -0.23319755D-03 -0.24575820D-03
 -0.15238576D-03  0.10136707D-03  0.25801347D-01  0.44567304D-03  0.64884578D-04
  0.64489589D-02  0.61941479D-02  0.43437641D-02 -0.27203995D-16 -0.26129112D-16
 -0.18323537D-16 -0.45415766D-02 -0.43621300D-02 -0.30590267D-02 -0.24398601D-03
  0.41362284D-17  0.12184216D-02 -0.34832859D-04  0.11097658D-18  0.18827395D-05
 -0.26353389D-05  0.30864458D-19 -0.33146453D-05  0.16652075D-02 -0.10834776D-02
 -0.58172988D-03  0.15046863D-17  0.32862364D-03  0.57736309D-17 -0.24930206D-03
  0.21880513D-03  0.30496933D-04  0.34667326D-17  0.22660956D-03  0.92423680D-18
 -0.42914504D-04 -0.14848924D-04  0.57763427D-04 -0.88096670D-20  0.21866761D-04
  0.38542000D-19 -0.24575994D-03 -0.40828667D-18 -0.84346698D-05  0.54340772D-03
  0.22161170D-17  0.70342448D-04  0.19387210D-03 -0.99125701D-18 -0.45038439D-04
  0.47415236D-18 -0.90422699D-04 -0.64412329D-20 -0.27005664D-04  0.50321729D-04
  0.54595179D-18  0.10885090D-03  0.22094637D-03 -0.52662809D-18 -0.27833911D-04
  0.28471124D-18  0.29108694D+00  0.54239765D+00  0.91733041D+00  0.13814488D+01
  0.17103232D+01  0.14554078D+01  0.55380953D+00 -0.25937263D-02 -0.35484795D-04
 -0.66534323D-04 -0.11319468D-03 -0.17577939D-03 -0.23326947D-03 -0.24583400D-03
 -0.15243276D-03  0.10139833D-03  0.25799992D-01  0.44569542D-03  0.64900036D-04
 -0.64486983D-02 -0.61938976D-02 -0.43435885D-02  0.41784583D-17  0.40133593D-17
  0.28144446D-17  0.45413360D-02  0.43618990D-02  0.30588646D-02  0.24391794D-03
 -0.30630058D-17 -0.12183854D-02  0.34828587D-04 -0.30701299D-18 -0.18689443D-05
  0.26345284D-05 -0.76876720D-20  0.33154907D-05  0.16651613D-02 -0.10834246D-02
 -0.58173665D-03  0.52815002D-17  0.32861021D-03  0.13442572D-18 -0.24929709D-03
  0.21878951D-03  0.30507576D-04  0.34731987D-17  0.22662616D-03  0.79015589D-18
 -0.42914181D-04 -0.14849359D-04  0.57763540D-04 -0.12710602D-19  0.21866878D-04
 -0.19383046D-18  0.24577974D-03  0.25360678D-18  0.84293081D-05 -0.54343492D-03
 -0.16627302D-17 -0.70319431D-04 -0.19390431D-03  0.90190983D-18  0.45031507D-04
 -0.21093888D-17  0.90420895D-04  0.13494293D-18  0.27009021D-04 -0.50320372D-04
 -0.67062836D-18 -0.10885808D-03 -0.22094231D-03  0.26579957D-18  0.27831017D-04
 -0.19004022D-18  0.32349528D-04  0.60526091D-04  0.10457568D-03  0.16952937D-03
  0.25744387D-03  0.35781670D-03  0.42539244D-03  0.37890687D-03  0.18810072D-03
  0.30306039D-04  0.46527842D-06  0.83144797D-07  0.31069914D-08 -0.52727936D-04
 -0.98488214D-04 -0.17093107D-03 -0.27735167D-03 -0.42930744D-03 -0.61451459D-03
 -0.80213350D-03 -0.85480709D-03 -0.63898565D-03 -0.33730918D-04  0.43342555D-03
  0.25750457D-03 -0.96544909D-06  0.25656872D-04  0.47884854D-04  0.83219662D-04
  0.13487459D-03  0.20948136D-03  0.30008809D-03  0.39623836D-03  0.42845120D-03
  0.33591130D-03  0.16714835D-04 -0.28796091D-03 -0.29809292D-03  0.13489127D-03
 -0.18467277D-03 -0.15957751D-03 -0.76653022D-04  0.65970261D-03  0.86897640D-03
  0.95868454D-03  0.79629770D-03  0.42293305D-03  0.10908677D-03 -0.11213749D-06
 -0.15319060D-16 -0.20178640D-16 -0.22261767D-16 -0.18490956D-16 -0.98209961D-17
 -0.25331214D-17  0.26039627D-20 -0.28207975D-02 -0.37156234D-02 -0.40992030D-02
 -0.34048593D-02 -0.18084035D-02 -0.46644001D-03  0.47948447D-06 -0.52711819D-03
 -0.69206754D-03 -0.78796981D-03 -0.66722047D-03 -0.38220958D-03 -0.86939418D-04
  0.40692432D-04 -0.39076035D-17 -0.51303969D-17 -0.58413343D-17 -0.49462020D-17
 -0.28333749D-17 -0.64449450D-18  0.30165889D-18  0.27822627D-02  0.36529069D-02
  0.41591033D-02  0.35217578D-02  0.20173985D-02  0.45888816D-03 -0.21478492D-03