 Molden2AIM, Version 4.0.0 (06/02/2016)           Time: Wed Jun 27 23:47:38 2018
GAUSSIAN             23 MOL ORBITALS    450 PRIMITIVES        6 NUCLEI
  N    1    (CENTRE  1)  -0.38236340  1.60509180  0.29350281  CHARGE =  7.0
  N    2    (CENTRE  2)   0.38236340 -1.60508991  0.29359352  CHARGE =  7.0
  O    3    (CENTRE  3)   1.42834760  2.92228004  0.29508073  CHARGE =  8.0
  O    4    (CENTRE  4)  -2.59214299  1.96631483  0.29229906  CHARGE =  8.0
  O    5    (CENTRE  5)  -1.42834760 -2.92227815  0.29501837  CHARGE =  8.0
  O    6    (CENTRE  6)   2.59214488 -1.96631672  0.29219134  CHARGE =  8.0
CENTRE ASSIGNMENTS    1  1  1  1  1  1  1  1  1  1  1  1  1  1  1  1  1  1  1  1
CENTRE ASSIGNMENTS    1  1  1  1  1  1  1  1  1  1  1  1  1  1  1  1  1  1  1  1
CENTRE ASSIGNMENTS    1  1  1  1  1  1  1  1  1  1  1  1  1  1  1  1  1  1  1  1
CENTRE ASSIGNMENTS    1  1  1  1  1  1  1  1  1  1  1  1  1  1  1  2  2  2  2  2
CENTRE ASSIGNMENTS    2  2  2  2  2  2  2  2  2  2  2  2  2  2  2  2  2  2  2  2
CENTRE ASSIGNMENTS    2  2  2  2  2  2  2  2  2  2  2  2  2  2  2  2  2  2  2  2
CENTRE ASSIGNMENTS    2  2  2  2  2  2  2  2  2  2  2  2  2  2  2  2  2  2  2  2
CENTRE ASSIGNMENTS    2  2  2  2  2  2  2  2  2  2  3  3  3  3  3  3  3  3  3  3
CENTRE ASSIGNMENTS    3  3  3  3  3  3  3  3  3  3  3  3  3  3  3  3  3  3  3  3
CENTRE ASSIGNMENTS    3  3  3  3  3  3  3  3  3  3  3  3  3  3  3  3  3  3  3  3
CENTRE ASSIGNMENTS    3  3  3  3  3  3  3  3  3  3  3  3  3  3  3  3  3  3  3  3
CENTRE ASSIGNMENTS    3  3  3  3  3  4  4  4  4  4  4  4  4  4  4  4  4  4  4  4
CENTRE ASSIGNMENTS    4  4  4  4  4  4  4  4  4  4  4  4  4  4  4  4  4  4  4  4
CENTRE ASSIGNMENTS    4  4  4  4  4  4  4  4  4  4  4  4  4  4  4  4  4  4  4  4
CENTRE ASSIGNMENTS    4  4  4  4  4  4  4  4  4  4  4  4  4  4  4  4  4  4  4  4
CENTRE ASSIGNMENTS    5  5  5  5  5  5  5  5  5  5  5  5  5  5  5  5  5  5  5  5
CENTRE ASSIGNMENTS    5  5  5  5  5  5  5  5  5  5  5  5  5  5  5  5  5  5  5  5
CENTRE ASSIGNMENTS    5  5  5  5  5  5  5  5  5  5  5  5  5  5  5  5  5  5  5  5
CENTRE ASSIGNMENTS    5  5  5  5  5  5  5  5  5  5  5  5  5  5  5  6  6  6  6  6
CENTRE ASSIGNMENTS    6  6  6  6  6  6  6  6  6  6  6  6  6  6  6  6  6  6  6  6
CENTRE ASSIGNMENTS    6  6  6  6  6  6  6  6  6  6  6  6  6  6  6  6  6  6  6  6
CENTRE ASSIGNMENTS    6  6  6  6  6  6  6  6  6  6  6  6  6  6  6  6  6  6  6  6
CENTRE ASSIGNMENTS    6  6  6  6  6  6  6  6  6  6
TYPE ASSIGNMENTS      1  1  1  1  1  1  1  1  1  1  1  1  1  1  1  1  1  1  1  2
TYPE ASSIGNMENTS      2  2  3  3  3  4  4  4  2  3  4  2  3  4  2  3  4  5  6  7
TYPE ASSIGNMENTS      8  9 10  5  6  7  8  9 10  5  6  7  8  9 10 11 12 13 17 14
TYPE ASSIGNMENTS     15 18 19 16 20 11 12 13 17 14 15 18 19 16 20  1  1  1  1  1
TYPE ASSIGNMENTS      1  1  1  1  1  1  1  1  1  1  1  1  1  1  2  2  2  3  3  3
TYPE ASSIGNMENTS      4  4  4  2  3  4  2  3  4  2  3  4  5  6  7  8  9 10  5  6
TYPE ASSIGNMENTS      7  8  9 10  5  6  7  8  9 10 11 12 13 17 14 15 18 19 16 20
TYPE ASSIGNMENTS     11 12 13 17 14 15 18 19 16 20  1  1  1  1  1  1  1  1  1  1
TYPE ASSIGNMENTS      1  1  1  1  1  1  1  1  1  2  2  2  3  3  3  4  4  4  2  3
TYPE ASSIGNMENTS      4  2  3  4  2  3  4  5  6  7  8  9 10  5  6  7  8  9 10  5
TYPE ASSIGNMENTS      6  7  8  9 10 11 12 13 17 14 15 18 19 16 20 11 12 13 17 14
TYPE ASSIGNMENTS     15 18 19 16 20  1  1  1  1  1  1  1  1  1  1  1  1  1  1  1
TYPE ASSIGNMENTS      1  1  1  1  2  2  2  3  3  3  4  4  4  2  3  4  2  3  4  2
TYPE ASSIGNMENTS      3  4  5  6  7  8  9 10  5  6  7  8  9 10  5  6  7  8  9 10
TYPE ASSIGNMENTS     11 12 13 17 14 15 18 19 16 20 11 12 13 17 14 15 18 19 16 20
TYPE ASSIGNMENTS      1  1  1  1  1  1  1  1  1  1  1  1  1  1  1  1  1  1  1  2
TYPE ASSIGNMENTS      2  2  3  3  3  4  4  4  2  3  4  2  3  4  2  3  4  5  6  7
TYPE ASSIGNMENTS      8  9 10  5  6  7  8  9 10  5  6  7  8  9 10 11 12 13 17 14
TYPE ASSIGNMENTS     15 18 19 16 20 11 12 13 17 14 15 18 19 16 20  1  1  1  1  1
TYPE ASSIGNMENTS      1  1  1  1  1  1  1  1  1  1  1  1  1  1  2  2  2  3  3  3
TYPE ASSIGNMENTS      4  4  4  2  3  4  2  3  4  2  3  4  5  6  7  8  9 10  5  6
TYPE ASSIGNMENTS      7  8  9 10  5  6  7  8  9 10 11 12 13 17 14 15 18 19 16 20
TYPE ASSIGNMENTS     11 12 13 17 14 15 18 19 16 20
EXPONENTS  0.1142000D+05 0.1712000D+04 0.3893000D+03 0.1100000D+03 0.3557000D+02
EXPONENTS  0.1254000D+02 0.4644000D+01 0.5118000D+00 0.1142000D+05 0.1712000D+04
EXPONENTS  0.3893000D+03 0.1100000D+03 0.3557000D+02 0.1254000D+02 0.4644000D+01
EXPONENTS  0.5118000D+00 0.1293000D+01 0.1787000D+00 0.5760000D-01 0.2663000D+02
EXPONENTS  0.5948000D+01 0.1742000D+01 0.2663000D+02 0.5948000D+01 0.1742000D+01
EXPONENTS  0.2663000D+02 0.5948000D+01 0.1742000D+01 0.5550000D+00 0.5550000D+00
EXPONENTS  0.5550000D+00 0.1725000D+00 0.1725000D+00 0.1725000D+00 0.4910000D-01
EXPONENTS  0.4910000D-01 0.4910000D-01 0.1654000D+01 0.1654000D+01 0.1654000D+01
EXPONENTS  0.1654000D+01 0.1654000D+01 0.1654000D+01 0.4690000D+00 0.4690000D+00
EXPONENTS  0.4690000D+00 0.4690000D+00 0.4690000D+00 0.4690000D+00 0.1510000D+00
EXPONENTS  0.1510000D+00 0.1510000D+00 0.1510000D+00 0.1510000D+00 0.1510000D+00
EXPONENTS  0.1093000D+01 0.1093000D+01 0.1093000D+01 0.1093000D+01 0.1093000D+01
EXPONENTS  0.1093000D+01 0.1093000D+01 0.1093000D+01 0.1093000D+01 0.1093000D+01
EXPONENTS  0.3640000D+00 0.3640000D+00 0.3640000D+00 0.3640000D+00 0.3640000D+00
EXPONENTS  0.3640000D+00 0.3640000D+00 0.3640000D+00 0.3640000D+00 0.3640000D+00
EXPONENTS  0.1142000D+05 0.1712000D+04 0.3893000D+03 0.1100000D+03 0.3557000D+02
EXPONENTS  0.1254000D+02 0.4644000D+01 0.5118000D+00 0.1142000D+05 0.1712000D+04
EXPONENTS  0.3893000D+03 0.1100000D+03 0.3557000D+02 0.1254000D+02 0.4644000D+01
EXPONENTS  0.5118000D+00 0.1293000D+01 0.1787000D+00 0.5760000D-01 0.2663000D+02
EXPONENTS  0.5948000D+01 0.1742000D+01 0.2663000D+02 0.5948000D+01 0.1742000D+01
EXPONENTS  0.2663000D+02 0.5948000D+01 0.1742000D+01 0.5550000D+00 0.5550000D+00
EXPONENTS  0.5550000D+00 0.1725000D+00 0.1725000D+00 0.1725000D+00 0.4910000D-01
EXPONENTS  0.4910000D-01 0.4910000D-01 0.1654000D+01 0.1654000D+01 0.1654000D+01
EXPONENTS  0.1654000D+01 0.1654000D+01 0.1654000D+01 0.4690000D+00 0.4690000D+00
EXPONENTS  0.4690000D+00 0.4690000D+00 0.4690000D+00 0.4690000D+00 0.1510000D+00
EXPONENTS  0.1510000D+00 0.1510000D+00 0.1510000D+00 0.1510000D+00 0.1510000D+00
EXPONENTS  0.1093000D+01 0.1093000D+01 0.1093000D+01 0.1093000D+01 0.1093000D+01
EXPONENTS  0.1093000D+01 0.1093000D+01 0.1093000D+01 0.1093000D+01 0.1093000D+01
EXPONENTS  0.3640000D+00 0.3640000D+00 0.3640000D+00 0.3640000D+00 0.3640000D+00
EXPONENTS  0.3640000D+00 0.3640000D+00 0.3640000D+00 0.3640000D+00 0.3640000D+00
EXPONENTS  0.1533000D+05 0.2299000D+04 0.5224000D+03 0.1473000D+03 0.4755000D+02
EXPONENTS  0.1676000D+02 0.6207000D+01 0.6882000D+00 0.1533000D+05 0.2299000D+04
EXPONENTS  0.5224000D+03 0.1473000D+03 0.4755000D+02 0.1676000D+02 0.6207000D+01
EXPONENTS  0.6882000D+00 0.1752000D+01 0.2384000D+00 0.7376000D-01 0.3446000D+02
EXPONENTS  0.7749000D+01 0.2280000D+01 0.3446000D+02 0.7749000D+01 0.2280000D+01
EXPONENTS  0.3446000D+02 0.7749000D+01 0.2280000D+01 0.7156000D+00 0.7156000D+00
EXPONENTS  0.7156000D+00 0.2140000D+00 0.2140000D+00 0.2140000D+00 0.5974000D-01
EXPONENTS  0.5974000D-01 0.5974000D-01 0.2314000D+01 0.2314000D+01 0.2314000D+01
EXPONENTS  0.2314000D+01 0.2314000D+01 0.2314000D+01 0.6450000D+00 0.6450000D+00
EXPONENTS  0.6450000D+00 0.6450000D+00 0.6450000D+00 0.6450000D+00 0.2140000D+00
EXPONENTS  0.2140000D+00 0.2140000D+00 0.2140000D+00 0.2140000D+00 0.2140000D+00
EXPONENTS  0.1428000D+01 0.1428000D+01 0.1428000D+01 0.1428000D+01 0.1428000D+01
EXPONENTS  0.1428000D+01 0.1428000D+01 0.1428000D+01 0.1428000D+01 0.1428000D+01
EXPONENTS  0.5000000D+00 0.5000000D+00 0.5000000D+00 0.5000000D+00 0.5000000D+00
EXPONENTS  0.5000000D+00 0.5000000D+00 0.5000000D+00 0.5000000D+00 0.5000000D+00
EXPONENTS  0.1533000D+05 0.2299000D+04 0.5224000D+03 0.1473000D+03 0.4755000D+02
EXPONENTS  0.1676000D+02 0.6207000D+01 0.6882000D+00 0.1533000D+05 0.2299000D+04
EXPONENTS  0.5224000D+03 0.1473000D+03 0.4755000D+02 0.1676000D+02 0.6207000D+01
EXPONENTS  0.6882000D+00 0.1752000D+01 0.2384000D+00 0.7376000D-01 0.3446000D+02
EXPONENTS  0.7749000D+01 0.2280000D+01 0.3446000D+02 0.7749000D+01 0.2280000D+01
EXPONENTS  0.3446000D+02 0.7749000D+01 0.2280000D+01 0.7156000D+00 0.7156000D+00
EXPONENTS  0.7156000D+00 0.2140000D+00 0.2140000D+00 0.2140000D+00 0.5974000D-01
EXPONENTS  0.5974000D-01 0.5974000D-01 0.2314000D+01 0.2314000D+01 0.2314000D+01
EXPONENTS  0.2314000D+01 0.2314000D+01 0.2314000D+01 0.6450000D+00 0.6450000D+00
EXPONENTS  0.6450000D+00 0.6450000D+00 0.6450000D+00 0.6450000D+00 0.2140000D+00
EXPONENTS  0.2140000D+00 0.2140000D+00 0.2140000D+00 0.2140000D+00 0.2140000D+00
EXPONENTS  0.1428000D+01 0.1428000D+01 0.1428000D+01 0.1428000D+01 0.1428000D+01
EXPONENTS  0.1428000D+01 0.1428000D+01 0.1428000D+01 0.1428000D+01 0.1428000D+01
EXPONENTS  0.5000000D+00 0.5000000D+00 0.5000000D+00 0.5000000D+00 0.5000000D+00
EXPONENTS  0.5000000D+00 0.5000000D+00 0.5000000D+00 0.5000000D+00 0.5000000D+00
EXPONENTS  0.1533000D+05 0.2299000D+04 0.5224000D+03 0.1473000D+03 0.4755000D+02
EXPONENTS  0.1676000D+02 0.6207000D+01 0.6882000D+00 0.1533000D+05 0.2299000D+04
EXPONENTS  0.5224000D+03 0.1473000D+03 0.4755000D+02 0.1676000D+02 0.6207000D+01
EXPONENTS  0.6882000D+00 0.1752000D+01 0.2384000D+00 0.7376000D-01 0.3446000D+02
EXPONENTS  0.7749000D+01 0.2280000D+01 0.3446000D+02 0.7749000D+01 0.2280000D+01
EXPONENTS  0.3446000D+02 0.7749000D+01 0.2280000D+01 0.7156000D+00 0.7156000D+00
EXPONENTS  0.7156000D+00 0.2140000D+00 0.2140000D+00 0.2140000D+00 0.5974000D-01
EXPONENTS  0.5974000D-01 0.5974000D-01 0.2314000D+01 0.2314000D+01 0.2314000D+01
EXPONENTS  0.2314000D+01 0.2314000D+01 0.2314000D+01 0.6450000D+00 0.6450000D+00
EXPONENTS  0.6450000D+00 0.6450000D+00 0.6450000D+00 0.6450000D+00 0.2140000D+00
EXPONENTS  0.2140000D+00 0.2140000D+00 0.2140000D+00 0.2140000D+00 0.2140000D+00
EXPONENTS  0.1428000D+01 0.1428000D+01 0.1428000D+01 0.1428000D+01 0.1428000D+01
EXPONENTS  0.1428000D+01 0.1428000D+01 0.1428000D+01 0.1428000D+01 0.1428000D+01
EXPONENTS  0.5000000D+00 0.5000000D+00 0.5000000D+00 0.5000000D+00 0.5000000D+00
EXPONENTS  0.5000000D+00 0.5000000D+00 0.5000000D+00 0.5000000D+00 0.5000000D+00
EXPONENTS  0.1533000D+05 0.2299000D+04 0.5224000D+03 0.1473000D+03 0.4755000D+02
EXPONENTS  0.1676000D+02 0.6207000D+01 0.6882000D+00 0.1533000D+05 0.2299000D+04
EXPONENTS  0.5224000D+03 0.1473000D+03 0.4755000D+02 0.1676000D+02 0.6207000D+01
EXPONENTS  0.6882000D+00 0.1752000D+01 0.2384000D+00 0.7376000D-01 0.3446000D+02
EXPONENTS  0.7749000D+01 0.2280000D+01 0.3446000D+02 0.7749000D+01 0.2280000D+01
EXPONENTS  0.3446000D+02 0.7749000D+01 0.2280000D+01 0.7156000D+00 0.7156000D+00
EXPONENTS  0.7156000D+00 0.2140000D+00 0.2140000D+00 0.2140000D+00 0.5974000D-01
EXPONENTS  0.5974000D-01 0.5974000D-01 0.2314000D+01 0.2314000D+01 0.2314000D+01
EXPONENTS  0.2314000D+01 0.2314000D+01 0.2314000D+01 0.6450000D+00 0.6450000D+00
EXPONENTS  0.6450000D+00 0.6450000D+00 0.6450000D+00 0.6450000D+00 0.2140000D+00
EXPONENTS  0.2140000D+00 0.2140000D+00 0.2140000D+00 0.2140000D+00 0.2140000D+00
EXPONENTS  0.1428000D+01 0.1428000D+01 0.1428000D+01 0.1428000D+01 0.1428000D+01
EXPONENTS  0.1428000D+01 0.1428000D+01 0.1428000D+01 0.1428000D+01 0.1428000D+01
EXPONENTS  0.5000000D+00 0.5000000D+00 0.5000000D+00 0.5000000D+00 0.5000000D+00
EXPONENTS  0.5000000D+00 0.5000000D+00 0.5000000D+00 0.5000000D+00 0.5000000D+00
MO    1     MO 0.0        OCC NO =    2.0000000  ORB. ENERGY =  -20.687711
  0.94314598D-04  0.17574137D-03  0.29722271D-03  0.44760093D-03  0.55415898D-03
  0.47156429D-03  0.17943891D-03 -0.84038897D-06 -0.66117601D-04 -0.12397112D-03
 -0.21091176D-03 -0.32752370D-03 -0.43464299D-03 -0.45805405D-03 -0.28402273D-03
  0.18893203D-03 -0.24364784D-04 -0.94501164D-04  0.22472398D-04 -0.10469370D-03
 -0.10055705D-03 -0.70517546D-04  0.45410041D-04  0.43615801D-04  0.30586410D-04
  0.29457354D-07  0.28293436D-07  0.19841310D-07 -0.24628275D-02 -0.43216946D-03
 -0.17443019D-05  0.26169981D-03 -0.78105839D-05  0.18934475D-07 -0.31246802D-04
 -0.70499667D-05 -0.13315590D-07  0.61900462D-03 -0.46329290D-03 -0.15571173D-03
 -0.13851638D-02  0.39619732D-06 -0.11001925D-05  0.36981006D-03 -0.31404303D-03
 -0.55767038D-04 -0.10433459D-02  0.18509383D-06 -0.76810518D-06  0.64507139D-05
 -0.71371838D-05  0.68646995D-06 -0.46118304D-04  0.17576325D-07 -0.20460441D-07
 -0.13895282D-03  0.60246710D-05  0.38533975D-06 -0.55924907D-04 -0.13393423D-03
 -0.96688620D-06  0.47278338D-03  0.11586022D-03 -0.18913304D-06 -0.63072334D-06
  0.13752057D-04 -0.25190131D-04  0.62381351D-08 -0.62471723D-04  0.73715367D-04
  0.25105792D-07  0.21215553D-04  0.18550267D-05 -0.43820197D-07 -0.17502541D-07
  0.60314840D-04  0.11238782D-03  0.19007598D-03  0.28624390D-03  0.35438852D-03
  0.30156863D-03  0.11475243D-03 -0.53743458D-06 -0.41842739D-04 -0.78455526D-04
 -0.13347619D-03 -0.20727443D-03 -0.27506523D-03 -0.28988100D-03 -0.17974471D-03
  0.11956625D-03 -0.22978057D-04 -0.10273828D-03 -0.10361825D-04  0.89423376D-04
  0.85890084D-04  0.60232055D-04 -0.42444418D-04 -0.40767356D-04 -0.28588884D-04
  0.44431244D-07  0.42675679D-07  0.29927132D-07  0.16520935D-02  0.31072465D-03
 -0.12622598D-05 -0.20598879D-03 -0.82563048D-04 -0.42662953D-07  0.26602613D-04
  0.24180249D-05 -0.48515078D-08  0.40164933D-03 -0.30350716D-03 -0.98142174D-04
 -0.89670390D-03 -0.49041356D-06  0.73681806D-06  0.24778885D-03 -0.21091107D-03
 -0.36877777D-04 -0.75580135D-03 -0.25135546D-06  0.48912613D-06  0.13590808D-04
 -0.13287488D-04 -0.30331952D-06 -0.43981604D-04 -0.43416052D-08  0.16394310D-07
  0.86649860D-04 -0.96558960D-05  0.27638338D-06  0.35129786D-04  0.12145401D-03
 -0.69946103D-06 -0.29507937D-03 -0.92486325D-04 -0.12968909D-06 -0.33410044D-06
 -0.74312875D-05  0.25792340D-04  0.10525747D-08  0.35502105D-04 -0.85159983D-04
  0.25587730D-07 -0.13208243D-04  0.77829629D-05 -0.28745454D-07  0.43056183D-07
 -0.21243017D+00 -0.39594251D+00 -0.67138731D+00 -0.10161760D+01 -0.12678909D+01
 -0.10889492D+01 -0.41806877D+00  0.18700473D-02 -0.20318389D-03 -0.38107641D-03
 -0.64965174D-03 -0.10152792D-02 -0.13576218D-02 -0.14496235D-02 -0.88627140D-03
  0.58470804D-03 -0.20287875D-01 -0.11770858D-03  0.12295905D-03  0.44724199D-02
  0.43367429D-02  0.29255411D-02  0.30862814D-02  0.29926548D-02  0.20188272D-02
  0.39641205D-05  0.38438634D-05  0.25930476D-05 -0.13352447D-02 -0.79662649D-03
 -0.11657037D-05 -0.24311949D-03  0.73991087D-04 -0.72098084D-07 -0.55234761D-05
  0.18230659D-05 -0.44396526D-08 -0.47173897D-03  0.84013237D-05  0.46333765D-03
 -0.45660283D-03 -0.13026889D-05 -0.44162198D-06  0.44667448D-03 -0.14191317D-03
 -0.30476131D-03  0.87481393D-03  0.12214121D-05  0.70078856D-06  0.59146435D-04
 -0.46173973D-04 -0.12972462D-04  0.35892526D-04  0.88304511D-07 -0.46619329D-07
 -0.59710533D-04  0.25555123D-04  0.30098731D-06 -0.71933245D-04 -0.32011970D-03
 -0.49515519D-06  0.25106484D-03  0.24345434D-03 -0.40780675D-06 -0.91111903D-06
 -0.18022171D-04  0.62354377D-04  0.48253034D-07 -0.33700339D-04 -0.22352200D-03
 -0.23067207D-06  0.87766853D-04  0.36458866D-04  0.85912972D-07 -0.37643642D-06
  0.35693766D+00  0.66528587D+00  0.11281044D+01  0.17074386D+01  0.21303848D+01
  0.18297164D+01  0.70246371D+00 -0.31421633D-02  0.32919749D-03  0.61741806D-03
  0.10525624D-02  0.16449502D-02  0.21996118D-02  0.23486726D-02  0.14359324D-02
 -0.94734098D-03  0.33987604D-01  0.46949624D-03 -0.13751879D-03  0.87441352D-02
  0.84788698D-02  0.57197954D-02 -0.13043188D-02 -0.12647504D-02 -0.85319318D-03
  0.47678299D-05  0.46231912D-05  0.31187774D-05 -0.22007970D-02  0.22194560D-03
 -0.13294603D-05 -0.92502311D-04 -0.16368756D-03  0.11566672D-07 -0.44234542D-05
 -0.45662782D-05 -0.29959942D-09  0.92872154D-03 -0.11403045D-03 -0.81469109D-03
  0.16722806D-04  0.20446052D-05  0.38511255D-06 -0.89018345D-03  0.48783029D-03
  0.40235315D-03  0.18836850D-03 -0.14449927D-05  0.17684962D-06 -0.36285351D-04
  0.29089826D-04  0.71955250D-05 -0.59326991D-04 -0.23425992D-07 -0.73705158D-07
 -0.22721594D-03 -0.14668642D-04  0.29550869D-06  0.23068264D-03  0.18582047D-03
 -0.84195896D-06  0.45096517D-03 -0.14181454D-03 -0.44567106D-07  0.48940928D-06
 -0.11135859D-03 -0.22183571D-04  0.50413827D-07  0.20190128D-03  0.63903445D-04
 -0.30880670D-06  0.13217450D-03  0.26472667D-05  0.15756522D-06 -0.18976285D-08
 -0.14111284D+00 -0.26301617D+00 -0.44598828D+00 -0.67502404D+00 -0.84223291D+00
 -0.72336575D+00 -0.27771418D+00  0.12422325D-02 -0.13021574D-03 -0.24422285D-03
 -0.41634642D-03 -0.65066841D-03 -0.87006765D-03 -0.92902940D-03 -0.56799036D-03
  0.37472554D-03 -0.13487426D-01 -0.11015635D-03  0.97736009D-04 -0.29610436D-02
 -0.28712162D-02 -0.19369055D-02 -0.20706848D-02 -0.20078677D-02 -0.13544957D-02
  0.24121375D-05  0.23389620D-05  0.15778500D-05  0.87753777D-03  0.54336982D-03
 -0.76301435D-06  0.18660277D-03 -0.59548338D-04  0.27681438D-08  0.54471933D-05
 -0.12983225D-05 -0.45903752D-08 -0.32951270D-03  0.32127091D-05  0.32629999D-03
 -0.30436965D-03  0.83803304D-06  0.33263886D-06  0.31163942D-03 -0.93631862D-04
 -0.21800756D-03  0.58733930D-03 -0.75577494D-06 -0.47646473D-06  0.46221404D-04
 -0.34802743D-04 -0.11418661D-04  0.35315837D-04 -0.55012796D-07  0.51870135D-07
  0.48877533D-04 -0.67917366D-05  0.20689091D-06 -0.64952414D-05  0.20300573D-03
 -0.26827551D-06 -0.14013736D-03 -0.18263052D-03 -0.35239723D-06 -0.51753247D-06
  0.13412994D-04 -0.45319911D-04  0.23965252D-07  0.31914115D-04  0.15946756D-03
 -0.14928865D-06 -0.72153097D-04 -0.23507822D-04  0.77392894D-07 -0.23857811D-06
  0.23570796D+00  0.43932931D+00  0.74495695D+00  0.11275270D+01  0.14068245D+01
  0.12082747D+01  0.46388014D+00 -0.20749643D-02  0.22282784D-03  0.41791913D-03
  0.71246050D-03  0.11134371D-02  0.14888775D-02  0.15897741D-02  0.97195670D-03
 -0.64123800D-03  0.22443738D-01  0.28934205D-03 -0.95517645D-04 -0.57707644D-02
 -0.55957003D-02 -0.37748264D-02  0.85439588D-03  0.82847660D-03  0.55888542D-03
  0.38021203D-05  0.36867777D-05  0.24870785D-05  0.14620207D-02 -0.13134687D-03
 -0.10727837D-05  0.76189571D-04  0.16683264D-03  0.30801346D-07  0.32536672D-05
  0.65449594D-05 -0.35174982D-08  0.63174587D-03 -0.91236767D-04 -0.54050911D-03
  0.65857487D-04 -0.14629866D-05 -0.28854807D-06 -0.59945690D-03  0.33388372D-03
  0.26557318D-03  0.72123500D-04  0.11270825D-05 -0.95924747D-07 -0.32736331D-04
  0.29399585D-04  0.33367467D-05 -0.56805752D-04  0.53928897D-08  0.92454448D-07
  0.13782273D-03 -0.11835050D-04  0.25641866D-06 -0.14136090D-03 -0.78295235D-04
 -0.60500804D-06 -0.27210729D-03  0.11380038D-03 -0.16424794D-06  0.55691503D-06
  0.81278811D-04  0.18656918D-04  0.26981787D-07 -0.15133446D-03 -0.45414535D-04
 -0.24529816D-06 -0.92501974D-04 -0.10556220D-04  0.16435280D-06 -0.92267605D-07
MO    2     MO 0.0        OCC NO =    2.0000000  ORB. ENERGY =  -20.687709
 -0.63118183D-04 -0.11761144D-03 -0.19891043D-03 -0.29954809D-03 -0.37085996D-03
 -0.31558509D-03 -0.12008595D-03  0.56241373D-06  0.45294564D-04  0.84927731D-04
  0.14448734D-03  0.22437358D-03  0.29775679D-03  0.31379479D-03  0.19457279D-03
 -0.12942989D-03 -0.12839833D-05 -0.37452271D-04 -0.73894079D-04  0.17722086D-04
  0.17021851D-04  0.11936897D-04  0.17778721D-05  0.17076249D-05  0.11975044D-05
  0.74879376D-07  0.71920746D-07  0.50435791D-07  0.15740373D-02  0.23348143D-03
  0.96405963D-06 -0.85288643D-04  0.21311495D-03 -0.16690947D-06  0.56716787D-05
  0.98146764D-05  0.21791680D-07 -0.41968915D-03  0.31206116D-03  0.10762798D-03
  0.97736965D-03 -0.30566621D-06  0.65029083D-06 -0.23118564D-03  0.19675038D-03
  0.34435261D-04  0.52936733D-03 -0.14275306D-06  0.51337894D-06  0.18552067D-04
 -0.16325875D-04 -0.22261924D-05 -0.49732280D-05 -0.11764394D-07  0.12210610D-07
  0.10503999D-03  0.10752463D-04 -0.19684198D-06  0.43354552D-04  0.73977432D-05
  0.54751784D-06 -0.35847453D-03 -0.39655132D-04  0.43008102D-07  0.35361461D-06
 -0.12327295D-04 -0.58804718D-05 -0.16697307D-07  0.53529117D-04  0.40580416D-04
  0.38635357D-07 -0.16547231D-04 -0.22939001D-04  0.11456564D-07  0.44167743D-07
  0.92262281D-04  0.17191718D-03  0.29075504D-03  0.43786098D-03  0.54210030D-03
  0.46130289D-03  0.17553426D-03 -0.82210183D-06 -0.65642631D-04 -0.12308055D-03
 -0.20939663D-03 -0.32517086D-03 -0.43152064D-03 -0.45476352D-03 -0.28198239D-03
  0.18757480D-03 -0.76420619D-05  0.27542182D-06  0.76176748D-04  0.56971075D-04
  0.54720037D-04  0.38373467D-04 -0.14144046D-04 -0.13585187D-04 -0.95268709D-05
 -0.67842834D-07 -0.65162231D-07 -0.45696255D-07  0.24157182D-02  0.38921221D-03
 -0.16289076D-05 -0.18091064D-03  0.19724667D-03  0.15145267D-06  0.17500762D-04
  0.11819572D-04 -0.26467695D-07  0.62247353D-03 -0.46699937D-03 -0.15547416D-03
 -0.14487619D-02 -0.79460138D-06  0.99787449D-06  0.35536014D-03 -0.30346083D-03
 -0.51899311D-04 -0.89928964D-03 -0.39945393D-06  0.75257065D-06 -0.14413796D-04
  0.12115689D-04  0.22981077D-05 -0.13439662D-04 -0.10012418D-07  0.16043961D-07
  0.15157588D-03  0.78189383D-05  0.33429009D-06  0.61067539D-04  0.58460720D-04
 -0.93673821D-06 -0.51579518D-03 -0.81917535D-04 -0.66132049D-07 -0.42150219D-06
 -0.16896959D-04  0.43525095D-05  0.22504170D-07  0.74235562D-04  0.88853318D-05
 -0.49631963D-07 -0.23544685D-04 -0.21942860D-04 -0.17880545D-07 -0.12259943D-07
  0.14304045D+00  0.26660900D+00  0.45208052D+00  0.68424493D+00  0.85373789D+00
  0.73324699D+00  0.28150778D+00 -0.12592016D-02  0.14777787D-03  0.27716105D-03
  0.47249883D-03  0.73842370D-03  0.98741319D-03  0.10543271D-02  0.64459490D-03
 -0.42526457D-03  0.13632266D-01  0.85633312D-05 -0.41009452D-04 -0.30290201D-02
 -0.29371306D-02 -0.19813709D-02 -0.20260619D-02 -0.19645985D-02 -0.13253065D-02
 -0.25306225D-05 -0.24538526D-05 -0.16553545D-05  0.91210175D-03  0.49868729D-03
  0.67852291D-06  0.91922080D-04 -0.19385031D-04  0.17916429D-06 -0.93187293D-06
 -0.70838827D-06 -0.61920565D-08  0.27296615D-03 -0.61358054D-05 -0.26683035D-03
  0.30672959D-03  0.88036347D-06  0.20182487D-06 -0.25616314D-03  0.92023700D-04
  0.16413944D-03 -0.56889616D-03 -0.78026551D-06 -0.37873666D-06 -0.20320542D-04
  0.18728457D-04  0.15920853D-05  0.56723344D-05 -0.61536347D-07 -0.34535966D-07
  0.15660728D-04 -0.43231348D-04 -0.14328504D-06  0.18897867D-03  0.23944308D-03
  0.43432308D-06 -0.23596085D-03 -0.10974904D-03 -0.44679599D-08  0.65915424D-06
  0.82369695D-05 -0.30691633D-04 -0.40178073D-07 -0.13428664D-05  0.11879581D-03
  0.10449971D-06 -0.23368042D-04 -0.26720913D-04  0.16034509D-07  0.24650887D-06
 -0.23455610D+00 -0.43718238D+00 -0.74131647D+00 -0.11220170D+01 -0.13999496D+01
 -0.12023700D+01 -0.46161323D+00  0.20648243D-02 -0.20349341D-03 -0.38165694D-03
 -0.65064141D-03 -0.10168259D-02 -0.13596899D-02 -0.14518319D-02 -0.88762153D-03
  0.58559877D-03 -0.22335763D-01 -0.35294135D-03  0.78190848D-04 -0.57589138D-02
 -0.55842092D-02 -0.37670745D-02  0.87137117D-03  0.84493692D-03  0.56998945D-03
 -0.29624674D-05 -0.28725969D-05 -0.19378369D-05  0.14305228D-02 -0.18140333D-03
  0.68952767D-06  0.24775286D-04 -0.37817722D-04  0.50043421D-07  0.19742230D-05
 -0.57779551D-05 -0.48410860D-08 -0.56347799D-03  0.36590920D-04  0.52688707D-03
  0.12311790D-03 -0.12999962D-05 -0.17290164D-06  0.55836873D-03 -0.29359115D-03
 -0.26477758D-03 -0.25227805D-03  0.88498257D-06 -0.16334616D-06  0.19866694D-05
  0.61817950D-05 -0.81684644D-05 -0.41561718D-05  0.39324244D-07 -0.45356529D-07
  0.18085057D-03  0.64723344D-04 -0.12290024D-06 -0.17979678D-03 -0.23512239D-03
  0.69298608D-06 -0.36275493D-03  0.40952357D-04 -0.32428537D-06  0.85182494D-07
  0.54070818D-04  0.43663732D-05 -0.66146187D-07 -0.89014501D-04 -0.33661494D-04
  0.18575800D-06 -0.73197954D-04  0.20562375D-04  0.12680565D-07 -0.20893032D-06
 -0.21737459D+00 -0.40515827D+00 -0.68701417D+00 -0.10398280D+01 -0.12974017D+01
 -0.11142950D+01 -0.42779953D+00  0.19135735D-02 -0.21782048D-03 -0.40852771D-03
 -0.69645019D-03 -0.10884161D-02 -0.14554197D-02 -0.15540489D-02 -0.95011504D-03
  0.62682820D-03 -0.20732171D-01 -0.59539948D-04  0.86297599D-04 -0.45881108D-02
 -0.44489241D-02 -0.30012179D-02 -0.31088264D-02 -0.30145158D-02 -0.20335746D-02
  0.34848869D-05  0.33791680D-05  0.22795668D-05  0.13724883D-02  0.77812714D-03
 -0.99094260D-06  0.17884723D-03 -0.47420157D-04 -0.18344837D-06  0.13216658D-05
 -0.13747177D-05  0.50153082D-08 -0.44055817D-03  0.74376203D-05  0.43312054D-03
 -0.46749611D-03  0.12916264D-05  0.36140105D-06  0.41271799D-03 -0.14035951D-03
 -0.27235848D-03  0.87275544D-03 -0.10915951D-05 -0.58312365D-06  0.41768106D-04
 -0.35294546D-04 -0.64735593D-05  0.86012001D-05 -0.88133715D-07 -0.14512053D-07
  0.37809086D-04 -0.50034303D-04  0.22521407D-06  0.20376713D-03  0.34813460D-03
 -0.55525689D-06 -0.31719439D-03 -0.19803169D-03 -0.12038531D-06 -0.85587212D-06
  0.14724460D-04 -0.52826044D-04  0.50232405D-07  0.12318331D-04  0.19771638D-03
 -0.15916716D-06 -0.56491711D-04 -0.39238253D-04  0.84699458D-08 -0.35501624D-06
  0.35395800D+00  0.65973216D+00  0.11186872D+01  0.16931851D+01  0.21126007D+01
  0.18144422D+01  0.69659965D+00 -0.31159330D-02  0.31474460D-03  0.59031130D-03
  0.10063514D-02  0.15727313D-02  0.21030414D-02  0.22455579D-02  0.13728901D-02
 -0.90574948D-03  0.33706038D-01  0.50399724D-03 -0.12580459D-03 -0.86857043D-02
 -0.84222115D-02 -0.56815741D-02  0.13060811D-02  0.12664594D-02  0.85434601D-03
  0.54427460D-05  0.52776328D-05  0.35602599D-05  0.21716848D-02 -0.25250429D-03
 -0.13186132D-05  0.60575226D-04  0.29711200D-04 -0.28434294D-07  0.35517389D-05
 -0.35306752D-05  0.34643428D-08  0.87795596D-03 -0.78193882D-04 -0.79976208D-03
 -0.10524287D-03 -0.21103520D-05 -0.28595287D-06 -0.86057176D-03  0.46021394D-03
  0.40035782D-03  0.30407744D-03  0.15805703D-05 -0.23480899D-06 -0.16340312D-04
  0.59025584D-05  0.10437754D-04 -0.19552044D-04  0.41358909D-07 -0.10132335D-07
  0.25485337D-03  0.64971386D-04  0.27286318D-06 -0.25523112D-03 -0.28778851D-03
 -0.11322200D-05 -0.50932899D-03  0.92874350D-04  0.31363048D-06  0.20819479D-06
  0.93263971D-04  0.12671343D-04  0.92803227D-07 -0.16103696D-03 -0.55830710D-04
 -0.33775229D-06 -0.11875496D-03  0.17816680D-04  0.59342607D-07  0.19281982D-06
MO    3     MO 0.0        OCC NO =    2.0000000  ORB. ENERGY =  -20.687646
  0.31654054D-03  0.58982669D-03  0.99754480D-03  0.15022472D-02  0.18598795D-02
  0.15826735D-02  0.60223646D-03 -0.28205303D-05 -0.22106277D-03 -0.41449476D-03
 -0.70517892D-03 -0.10950684D-02 -0.14532195D-02 -0.15314938D-02 -0.94962388D-03
  0.63169017D-03 -0.95946473D-04 -0.39696279D-03  0.28550794D-04 -0.39656135D-04
 -0.38089244D-04 -0.26710807D-04  0.26222541D-03  0.25186437D-03  0.17662468D-03
  0.47114825D-07  0.45253226D-07  0.31734686D-07  0.42669434D-03  0.58548559D-03
  0.48594279D-06 -0.39784474D-04 -0.96124403D-04 -0.40535540D-08  0.55381850D-05
  0.95833002D-05  0.47734291D-08  0.69461904D-03 -0.17469350D-03 -0.51992555D-03
  0.85992969D-03  0.16923154D-05  0.78034586D-06  0.22585862D-03 -0.36484635D-04
 -0.18937399D-03  0.44394920D-03  0.71559336D-06  0.38120832D-06 -0.79302390D-05
  0.70061763D-05  0.92406278D-06  0.63570576D-05  0.60255062D-08  0.33053008D-08
  0.74269425D-04  0.34751776D-04 -0.67036070D-07 -0.10939598D-03 -0.12685053D-03
  0.17048013D-06 -0.11341229D-03  0.22595201D-04  0.30628078D-07  0.73813332D-07
 -0.32864251D-04 -0.20028715D-04 -0.99205449D-08  0.96658131D-04  0.87211291D-04
  0.77744074D-08  0.19346229D-05 -0.27125147D-04  0.21987227D-07  0.41340470D-07
  0.30815877D-03  0.57420850D-03  0.97113053D-03  0.14624688D-02  0.18106312D-02
  0.15407654D-02  0.58628967D-03 -0.27458447D-05 -0.21507846D-03 -0.40327413D-03
 -0.68608929D-03 -0.10654242D-02 -0.14138799D-02 -0.14900353D-02 -0.92391697D-03
  0.61458992D-03 -0.95606038D-04 -0.39895080D-03  0.20454559D-04  0.39770532D-04
  0.38199120D-04  0.26787860D-04 -0.26056672D-03 -0.25027122D-03 -0.17550745D-03
 -0.43101566D-08 -0.41398539D-08 -0.29031513D-08 -0.40273526D-03 -0.56219002D-03
  0.39471422D-06  0.44403098D-04  0.71739931D-04 -0.14862130D-08 -0.51509021D-05
 -0.10360185D-04  0.65090978D-09  0.67942967D-03 -0.17369581D-03 -0.50573386D-03
  0.82794144D-03 -0.16187271D-05 -0.63724617D-06  0.21849088D-03 -0.33774338D-04
 -0.18471655D-03  0.42475311D-03 -0.66909733D-06 -0.33476142D-06 -0.64332773D-05
  0.57518937D-05  0.68138360D-06  0.79047961D-05 -0.64459698D-08 -0.72927983D-08
 -0.73345230D-04 -0.34096278D-04 -0.86694009D-07  0.11166890D-03  0.13073096D-03
  0.22991166D-06  0.10836678D-03 -0.28442122D-04  0.30170366D-07  0.50022324D-07
  0.34156595D-04  0.21139562D-04  0.39223412D-09 -0.99759920D-04 -0.92264034D-04
 -0.10927138D-07 -0.27098669D-05  0.28845347D-04  0.97504357D-08  0.25383485D-07
  0.30703740D+00  0.57227821D+00  0.97039422D+00  0.14687369D+01  0.18325548D+01
  0.15739201D+01  0.60425855D+00 -0.27028856D-02  0.28125516D-03  0.52750103D-03
  0.89927361D-03  0.14053896D-02  0.18792737D-02  0.20066262D-02  0.12268119D-02
 -0.80937597D-03  0.29130404D-01  0.61187847D-03 -0.43268757D-04 -0.59427533D-02
 -0.57624717D-02 -0.38873294D-02 -0.42780297D-02 -0.41482498D-02 -0.27983848D-02
 -0.53285730D-05 -0.51669234D-05 -0.34855760D-05  0.12695078D-02  0.85746250D-03
  0.11964095D-05 -0.86953697D-04 -0.10734239D-03 -0.13904539D-06  0.23823562D-05
 -0.38043433D-05 -0.16025806D-08  0.57689791D-03  0.14512635D-03 -0.72202426D-03
  0.76398147D-03  0.19063066D-05  0.68125344D-06 -0.27127690D-03  0.43175313D-04
  0.22810158D-03 -0.79406981D-03 -0.93239773D-06 -0.60486580D-06  0.35968293D-05
  0.79706101D-05 -0.11567439D-04  0.31335115D-04  0.30839147D-07  0.75880165D-07
  0.30108041D-05 -0.28651247D-04 -0.23329208D-06  0.19546154D-03  0.28220039D-03
  0.28017017D-06 -0.20449395D-03 -0.19624665D-03  0.41970608D-06  0.91915132D-06
  0.10947178D-04 -0.25536440D-04 -0.38278589D-07  0.39220112D-04  0.11693347D-03