 Molden2AIM, Version 4.0.0 (06/02/2016)           Time: Wed Jun 27 22:40:18 2018
GAUSSIAN             15 MOL ORBITALS    281 PRIMITIVES        3 NUCLEI
  N    1    (CENTRE  1)   0.00000000  0.00000000 -2.52602715  CHARGE =  7.0
  N    2    (CENTRE  2)   0.00000000  0.00000000 -0.39400601  CHARGE =  7.0
  S    3    (CENTRE  3)   0.00000000  0.00000000  2.62096510  CHARGE = 16.0
CENTRE ASSIGNMENTS    1  1  1  1  1  1  1  1  1  1  1  1  1  1  1  1  1  1  1  1
CENTRE ASSIGNMENTS    1  1  1  1  1  1  1  1  1  1  1  1  1  1  1  1  1  1  1  1
CENTRE ASSIGNMENTS    1  1  1  1  1  1  1  1  1  1  1  1  1  1  1  1  1  1  1  1
CENTRE ASSIGNMENTS    1  1  1  1  1  1  1  1  1  1  1  1  1  1  1  2  2  2  2  2
CENTRE ASSIGNMENTS    2  2  2  2  2  2  2  2  2  2  2  2  2  2  2  2  2  2  2  2
CENTRE ASSIGNMENTS    2  2  2  2  2  2  2  2  2  2  2  2  2  2  2  2  2  2  2  2
CENTRE ASSIGNMENTS    2  2  2  2  2  2  2  2  2  2  2  2  2  2  2  2  2  2  2  2
CENTRE ASSIGNMENTS    2  2  2  2  2  2  2  2  2  2  3  3  3  3  3  3  3  3  3  3
CENTRE ASSIGNMENTS    3  3  3  3  3  3  3  3  3  3  3  3  3  3  3  3  3  3  3  3
CENTRE ASSIGNMENTS    3  3  3  3  3  3  3  3  3  3  3  3  3  3  3  3  3  3  3  3
CENTRE ASSIGNMENTS    3  3  3  3  3  3  3  3  3  3  3  3  3  3  3  3  3  3  3  3
CENTRE ASSIGNMENTS    3  3  3  3  3  3  3  3  3  3  3  3  3  3  3  3  3  3  3  3
CENTRE ASSIGNMENTS    3  3  3  3  3  3  3  3  3  3  3  3  3  3  3  3  3  3  3  3
CENTRE ASSIGNMENTS    3  3  3  3  3  3  3  3  3  3  3  3  3  3  3  3  3  3  3  3
CENTRE ASSIGNMENTS    3
TYPE ASSIGNMENTS      1  1  1  1  1  1  1  1  1  1  1  1  1  1  1  1  1  1  1  2
TYPE ASSIGNMENTS      2  2  3  3  3  4  4  4  2  3  4  2  3  4  2  3  4  5  6  7
TYPE ASSIGNMENTS      8  9 10  5  6  7  8  9 10  5  6  7  8  9 10 11 12 13 17 14
TYPE ASSIGNMENTS     15 18 19 16 20 11 12 13 17 14 15 18 19 16 20  1  1  1  1  1
TYPE ASSIGNMENTS      1  1  1  1  1  1  1  1  1  1  1  1  1  1  2  2  2  3  3  3
TYPE ASSIGNMENTS      4  4  4  2  3  4  2  3  4  2  3  4  5  6  7  8  9 10  5  6
TYPE ASSIGNMENTS      7  8  9 10  5  6  7  8  9 10 11 12 13 17 14 15 18 19 16 20
TYPE ASSIGNMENTS     11 12 13 17 14 15 18 19 16 20  1  1  1  1  1  1  1  1  1  1
TYPE ASSIGNMENTS      1  1  1  1  1  1  1  1  1  1  1  1  1  1  1  1  1  1  1  1
TYPE ASSIGNMENTS      1  1  1  1  1  1  1  1  1  1  1  1  2  2  2  2  2  2  2  3
TYPE ASSIGNMENTS      3  3  3  3  3  3  4  4  4  4  4  4  4  2  2  2  2  2  2  2
TYPE ASSIGNMENTS      3  3  3  3  3  3  3  4  4  4  4  4  4  4  2  3  4  2  3  4
TYPE ASSIGNMENTS      2  3  4  5  6  7  8  9 10  5  6  7  8  9 10  5  6  7  8  9
TYPE ASSIGNMENTS     10 11 12 13 17 14 15 18 19 16 20 11 12 13 17 14 15 18 19 16
TYPE ASSIGNMENTS     20
EXPONENTS  0.1142000D+05 0.1712000D+04 0.3893000D+03 0.1100000D+03 0.3557000D+02
EXPONENTS  0.1254000D+02 0.4644000D+01 0.5118000D+00 0.1142000D+05 0.1712000D+04
EXPONENTS  0.3893000D+03 0.1100000D+03 0.3557000D+02 0.1254000D+02 0.4644000D+01
EXPONENTS  0.5118000D+00 0.1293000D+01 0.1787000D+00 0.5760000D-01 0.2663000D+02
EXPONENTS  0.5948000D+01 0.1742000D+01 0.2663000D+02 0.5948000D+01 0.1742000D+01
EXPONENTS  0.2663000D+02 0.5948000D+01 0.1742000D+01 0.5550000D+00 0.5550000D+00
EXPONENTS  0.5550000D+00 0.1725000D+00 0.1725000D+00 0.1725000D+00 0.4910000D-01
EXPONENTS  0.4910000D-01 0.4910000D-01 0.1654000D+01 0.1654000D+01 0.1654000D+01
EXPONENTS  0.1654000D+01 0.1654000D+01 0.1654000D+01 0.4690000D+00 0.4690000D+00
EXPONENTS  0.4690000D+00 0.4690000D+00 0.4690000D+00 0.4690000D+00 0.1510000D+00
EXPONENTS  0.1510000D+00 0.1510000D+00 0.1510000D+00 0.1510000D+00 0.1510000D+00
EXPONENTS  0.1093000D+01 0.1093000D+01 0.1093000D+01 0.1093000D+01 0.1093000D+01
EXPONENTS  0.1093000D+01 0.1093000D+01 0.1093000D+01 0.1093000D+01 0.1093000D+01
EXPONENTS  0.3640000D+00 0.3640000D+00 0.3640000D+00 0.3640000D+00 0.3640000D+00
EXPONENTS  0.3640000D+00 0.3640000D+00 0.3640000D+00 0.3640000D+00 0.3640000D+00
EXPONENTS  0.1142000D+05 0.1712000D+04 0.3893000D+03 0.1100000D+03 0.3557000D+02
EXPONENTS  0.1254000D+02 0.4644000D+01 0.5118000D+00 0.1142000D+05 0.1712000D+04
EXPONENTS  0.3893000D+03 0.1100000D+03 0.3557000D+02 0.1254000D+02 0.4644000D+01
EXPONENTS  0.5118000D+00 0.1293000D+01 0.1787000D+00 0.5760000D-01 0.2663000D+02
EXPONENTS  0.5948000D+01 0.1742000D+01 0.2663000D+02 0.5948000D+01 0.1742000D+01
EXPONENTS  0.2663000D+02 0.5948000D+01 0.1742000D+01 0.5550000D+00 0.5550000D+00
EXPONENTS  0.5550000D+00 0.1725000D+00 0.1725000D+00 0.1725000D+00 0.4910000D-01
EXPONENTS  0.4910000D-01 0.4910000D-01 0.1654000D+01 0.1654000D+01 0.1654000D+01
EXPONENTS  0.1654000D+01 0.1654000D+01 0.1654000D+01 0.4690000D+00 0.4690000D+00
EXPONENTS  0.4690000D+00 0.4690000D+00 0.4690000D+00 0.4690000D+00 0.1510000D+00
EXPONENTS  0.1510000D+00 0.1510000D+00 0.1510000D+00 0.1510000D+00 0.1510000D+00
EXPONENTS  0.1093000D+01 0.1093000D+01 0.1093000D+01 0.1093000D+01 0.1093000D+01
EXPONENTS  0.1093000D+01 0.1093000D+01 0.1093000D+01 0.1093000D+01 0.1093000D+01
EXPONENTS  0.3640000D+00 0.3640000D+00 0.3640000D+00 0.3640000D+00 0.3640000D+00
EXPONENTS  0.3640000D+00 0.3640000D+00 0.3640000D+00 0.3640000D+00 0.3640000D+00
EXPONENTS  0.3741000D+06 0.5605000D+05 0.1276000D+05 0.3615000D+04 0.1183000D+04
EXPONENTS  0.4288000D+03 0.1678000D+03 0.6947000D+02 0.2984000D+02 0.1272000D+02
EXPONENTS  0.5244000D+01 0.2219000D+01 0.3490000D+00 0.3741000D+06 0.5605000D+05
EXPONENTS  0.1276000D+05 0.3615000D+04 0.1183000D+04 0.4288000D+03 0.1678000D+03
EXPONENTS  0.6947000D+02 0.2984000D+02 0.1272000D+02 0.5244000D+01 0.2219000D+01
EXPONENTS  0.3490000D+00 0.3741000D+06 0.5605000D+05 0.1276000D+05 0.3615000D+04
EXPONENTS  0.1183000D+04 0.4288000D+03 0.1678000D+03 0.6947000D+02 0.2984000D+02
EXPONENTS  0.1272000D+02 0.5244000D+01 0.2219000D+01 0.3490000D+00 0.7767000D+00
EXPONENTS  0.1322000D+00 0.4970000D-01 0.5744000D+03 0.1358000D+03 0.4319000D+02
EXPONENTS  0.1587000D+02 0.6208000D+01 0.2483000D+01 0.3229000D+00 0.5744000D+03
EXPONENTS  0.1358000D+03 0.4319000D+02 0.1587000D+02 0.6208000D+01 0.2483000D+01
EXPONENTS  0.3229000D+00 0.5744000D+03 0.1358000D+03 0.4319000D+02 0.1587000D+02
EXPONENTS  0.6208000D+01 0.2483000D+01 0.3229000D+00 0.5744000D+03 0.1358000D+03
EXPONENTS  0.4319000D+02 0.1587000D+02 0.6208000D+01 0.2483000D+01 0.3229000D+00
EXPONENTS  0.5744000D+03 0.1358000D+03 0.4319000D+02 0.1587000D+02 0.6208000D+01
EXPONENTS  0.2483000D+01 0.3229000D+00 0.5744000D+03 0.1358000D+03 0.4319000D+02
EXPONENTS  0.1587000D+02 0.6208000D+01 0.2483000D+01 0.3229000D+00 0.8688000D+00
EXPONENTS  0.8688000D+00 0.8688000D+00 0.1098000D+00 0.1098000D+00 0.1098000D+00
EXPONENTS  0.3510000D-01 0.3510000D-01 0.3510000D-01 0.2690000D+00 0.2690000D+00
EXPONENTS  0.2690000D+00 0.2690000D+00 0.2690000D+00 0.2690000D+00 0.8190000D+00
EXPONENTS  0.8190000D+00 0.8190000D+00 0.8190000D+00 0.8190000D+00 0.8190000D+00
EXPONENTS  0.1010000D+00 0.1010000D+00 0.1010000D+00 0.1010000D+00 0.1010000D+00
EXPONENTS  0.1010000D+00 0.5570000D+00 0.5570000D+00 0.5570000D+00 0.5570000D+00
EXPONENTS  0.5570000D+00 0.5570000D+00 0.5570000D+00 0.5570000D+00 0.5570000D+00
EXPONENTS  0.5570000D+00 0.2180000D+00 0.2180000D+00 0.2180000D+00 0.2180000D+00
EXPONENTS  0.2180000D+00 0.2180000D+00 0.2180000D+00 0.2180000D+00 0.2180000D+00
EXPONENTS  0.2180000D+00
MO    1     MO 0.0        OCC NO =    2.0000000  ORB. ENERGY =  -91.991083
  0.18779710D-04  0.34993224D-04  0.59182315D-04  0.89125287D-04  0.11034289D-03
  0.93896817D-04  0.35729471D-04 -0.16733636D-06 -0.13089732D-04 -0.24543370D-04
 -0.41755575D-04 -0.64841999D-04 -0.86049104D-04 -0.90683944D-04 -0.56229830D-04
  0.37404105D-04  0.68746870D-05  0.15361932D-04 -0.48031974D-05  0.37929927D-15
  0.36431242D-15  0.25548101D-15  0.37096513D-15  0.35630758D-15  0.24986747D-15
  0.10116856D-04  0.97171191D-05  0.68143147D-05  0.14741630D-17  0.55390570D-17
  0.26676423D-04 -0.33096695D-19 -0.53064455D-18 -0.64491491D-05  0.10102580D-19
  0.21278814D-19  0.57618509D-06 -0.69331097D-05 -0.69331097D-05  0.13866219D-04
 -0.18071845D-19 -0.83352726D-19 -0.28836953D-17  0.51584038D-06  0.51584038D-06
 -0.10316808D-05  0.78658623D-20  0.88853888D-18  0.18731826D-17  0.13644673D-06
  0.13644673D-06 -0.27289346D-06  0.26881398D-21  0.21397494D-19 -0.27679087D-19
 -0.17099722D-18 -0.99627463D-19 -0.62527969D-05 -0.18124119D-18 -0.12039611D-18
  0.93791954D-05  0.69423283D-18  0.41927850D-18  0.93791954D-05 -0.26879075D-20
 -0.26593530D-19 -0.48306859D-19  0.96640707D-06 -0.25870456D-19 -0.45700190D-19
 -0.14496106D-05  0.10565105D-18  0.19062077D-18 -0.14496106D-05  0.44115274D-20
  0.11052090D-05  0.20593943D-05  0.34829520D-05  0.52451327D-05  0.64938146D-05
  0.55259431D-05  0.21027233D-05 -0.98479503D-08 -0.82069824D-06 -0.15388169D-05
 -0.26179854D-05 -0.40654548D-05 -0.53950950D-05 -0.56856896D-05 -0.35254903D-05
  0.23451575D-05  0.17914541D-04 -0.80846818D-04 -0.27115178D-04  0.87828138D-18
  0.84357877D-18  0.59157566D-18  0.19502905D-17  0.18732307D-17  0.13136387D-17
  0.16747653D-05  0.16085920D-05  0.11280558D-05 -0.58233539D-18 -0.93225078D-18
 -0.28320075D-04 -0.29154336D-18 -0.92299565D-18 -0.31679589D-04 -0.14617611D-19
 -0.22702626D-19 -0.47070438D-05 -0.44565231D-05 -0.44565231D-05  0.89130463D-05
 -0.79784848D-20 -0.98015890D-18 -0.73766294D-18  0.19820694D-04  0.19820694D-04
 -0.39641387D-04  0.39675621D-20  0.85239241D-18  0.15085428D-17  0.42400913D-05
  0.42400913D-05 -0.84801825D-05  0.99951849D-22 -0.19933789D-19 -0.52374283D-18
  0.53472788D-19 -0.18188887D-18  0.37586302D-05  0.69841551D-19 -0.14283678D-18
 -0.56379452D-05 -0.23025991D-18  0.68850338D-18 -0.56379452D-05  0.68195749D-20
  0.79183961D-19  0.29562797D-18  0.31621858D-05  0.77467020D-19  0.28939226D-18
 -0.47432788D-05 -0.31501890D-18 -0.11762762D-17 -0.47432788D-05  0.11027160D-19
  0.58448337D+00  0.10926577D+01  0.18884537D+01  0.30544891D+01  0.46166813D+01
  0.63579278D+01  0.74309435D+01  0.64208958D+01  0.29947287D+01  0.40661946D+00
  0.10888267D-02  0.21358279D-02  0.97509466D-04 -0.22536743D-04 -0.42088328D-04
 -0.73008717D-04 -0.11838111D-03 -0.18226120D-03 -0.25958088D-03 -0.33378732D-03
 -0.35037736D-03 -0.24774162D-03  0.54863419D-05  0.17800556D-03  0.98014690D-04
 -0.41450246D-06  0.10199340D-04  0.19033477D-04  0.33058871D-04  0.53548036D-04
  0.82716044D-04  0.11792415D-03  0.15338080D-03  0.16346259D-03  0.12123680D-03
 -0.37736514D-05 -0.10983423D-03 -0.10759963D-03  0.50255409D-04 -0.42551869D-03
  0.44473444D-04  0.19580646D-04 -0.36069927D-17 -0.47321780D-17 -0.51904780D-17
 -0.42708076D-17 -0.22516542D-17 -0.58577401D-18  0.64821866D-21  0.18660754D-16
  0.24481893D-16  0.26852905D-16  0.22094996D-16  0.11648919D-16  0.30304981D-17
 -0.33535551D-20 -0.22518605D-02 -0.29543183D-02 -0.32404369D-02 -0.26662829D-02
 -0.14057171D-02 -0.36570114D-03  0.40468559D-06  0.14475895D-18  0.19006939D-18
  0.21384088D-18  0.18017711D-18  0.10078855D-18  0.25086064D-19 -0.11505678D-19
 -0.15644764D-16 -0.20541670D-16 -0.23110764D-16 -0.19472566D-16 -0.10892680D-16
 -0.27111660D-17  0.12434713D-17  0.11696673D-02  0.15357803D-02  0.17278564D-02
  0.14558496D-02  0.81438188D-03  0.20269799D-03 -0.92967065D-04 -0.47345225D-19
 -0.14691205D-19  0.14342710D-03  0.75213451D-19  0.42685931D-18 -0.14918955D-04
 -0.11275125D-20 -0.35990945D-20 -0.71034081D-06 -0.95181619D-05 -0.95181619D-05
  0.19036324D-04 -0.24586182D-19 -0.56071619D-19 -0.77426141D-18 -0.65522307D-05
 -0.65522307D-05  0.13104461D-04  0.22649388D-18 -0.21427624D-18 -0.70408931D-18
 -0.58089658D-07 -0.58089658D-07  0.11617932D-06  0.10958511D-20 -0.25230180D-19
 -0.11493566D-18 -0.64084935D-20 -0.30652754D-20 -0.10023907D-04 -0.28795366D-19
 -0.16995364D-19  0.15035860D-04  0.48020846D-19  0.26191190D-19  0.15035860D-04
  0.73115675D-19 -0.52155043D-20 -0.29695876D-19 -0.42922518D-06 -0.43613265D-20
 -0.29075815D-19  0.64383777D-06  0.20007839D-19  0.11816344D-18  0.64383777D-06
 -0.15530155D-20
MO    2     MO 0.0        OCC NO =    2.0000000  ORB. ENERGY =  -15.791848
  0.84353414D-02  0.15718017D-01  0.26583107D-01  0.40032686D-01  0.49563062D-01
  0.42175929D-01  0.16048719D-01 -0.75162997D-04 -0.83407525D-04 -0.15638989D-03
 -0.26606573D-03 -0.41317199D-03 -0.54830326D-03 -0.57783637D-03 -0.35829541D-03
  0.23833825D-03  0.12362988D-02 -0.16176313D-02 -0.42370959D-03  0.68389037D-15
  0.65686853D-15  0.46064155D-15 -0.88658489D-15 -0.85155419D-15 -0.59716858D-15
  0.16805640D-02  0.16141616D-02  0.11319616D-02  0.26896532D-16 -0.39072368D-16
 -0.69578533D-03 -0.31385043D-18  0.19812311D-18 -0.68099603D-03  0.21478732D-18
 -0.83376356D-19 -0.29311585D-04  0.27261268D-03  0.27261268D-03 -0.54522536D-03
 -0.64053448D-18  0.63134964D-17  0.53871970D-17  0.27245122D-03  0.27245122D-03
 -0.54490245D-03 -0.25261482D-18  0.11098837D-17 -0.12632909D-16  0.25099107D-04
  0.25099107D-04 -0.50198213D-04  0.59878059D-20  0.59581217D-19 -0.13892875D-18
 -0.10103425D-17  0.23978517D-17 -0.66371048D-03 -0.82781431D-18  0.25111430D-17
  0.99556572D-03  0.38588417D-17 -0.97046982D-17  0.99556572D-03 -0.26963678D-19
  0.73809275D-19  0.37993365D-18 -0.62364992D-04  0.98974366D-19  0.37747368D-18
  0.93547488D-04 -0.32040219D-18 -0.15172746D-17  0.93547488D-04 -0.13119803D-18
  0.41145164D+00  0.76667955D+00  0.12966473D+01  0.19526790D+01  0.24175433D+01
  0.20572202D+01  0.78281025D+00 -0.36662344D-02 -0.10756190D-05 -0.20167956D-05
 -0.34311694D-05 -0.53282438D-05 -0.70708894D-05 -0.74517468D-05 -0.46205584D-05
  0.30735972D-05  0.36777567D-01  0.19740592D-02  0.44616983D-03  0.31038664D-17
  0.29812266D-17  0.20906419D-17 -0.70012212D-16 -0.67245893D-16 -0.47157462D-16
 -0.73724078D-03 -0.70811096D-03 -0.49657628D-03  0.49360835D-18  0.37258491D-17
 -0.18775468D-02  0.38355059D-18  0.43650211D-17 -0.29555985D-03 -0.20271318D-18
  0.12069678D-18 -0.36240814D-04 -0.17511285D-02 -0.17511285D-02  0.35022569D-02
  0.38108432D-17 -0.64019842D-17  0.13879357D-16  0.11563800D-03  0.11563800D-03
 -0.23127600D-03  0.91414982D-18  0.14506749D-17 -0.99967799D-17 -0.44323920D-04
 -0.44323920D-04  0.88647840D-04 -0.19819221D-19  0.68499285D-18  0.14433250D-17
  0.34644369D-18  0.72409201D-18 -0.68487263D-03 -0.10661908D-17  0.95409684D-18
  0.10273090D-02  0.26859683D-19 -0.31263729D-17  0.10273090D-02 -0.11643125D-17
 -0.63837709D-19 -0.14564963D-17  0.73422412D-04 -0.89044956D-19 -0.14221852D-17
 -0.11013362D-03  0.28055808D-18  0.57916742D-17 -0.11013362D-03 -0.25340386D-18
  0.13279546D-04  0.24825339D-04  0.42905937D-04  0.69398428D-04  0.10489166D-03
  0.14445303D-03  0.16883210D-03  0.14588367D-03  0.68040664D-04  0.92384522D-05
  0.24738299D-07  0.48526316D-07  0.22154290D-08 -0.19610065D-04 -0.36622631D-04
 -0.63527621D-04 -0.10300784D-03 -0.15859230D-03 -0.22587105D-03 -0.29044085D-03
 -0.30487647D-03 -0.21556927D-03  0.47738717D-05  0.15488931D-03  0.85286255D-04
 -0.36067413D-06  0.10587467D-04  0.19757779D-04  0.34316898D-04  0.55585760D-04
  0.85863732D-04  0.12241165D-03  0.15921757D-03  0.16968301D-03  0.12585036D-03
 -0.39172545D-05 -0.11401387D-03 -0.11169424D-03  0.52167836D-04 -0.34559276D-03
 -0.96023981D-04  0.51959663D-05 -0.15910395D-16 -0.20873572D-16 -0.22895127D-16
 -0.18838473D-16 -0.99320156D-17 -0.25838410D-17  0.28592835D-20 -0.55537291D-16
 -0.72861902D-16 -0.79918401D-16 -0.65758127D-16 -0.34668985D-16 -0.90192313D-17
  0.99806989D-20 -0.41119339D-02 -0.53946334D-02 -0.59170906D-02 -0.48686759D-02
 -0.25668622D-02 -0.66777623D-03  0.73896248D-06  0.14372268D-16  0.18870876D-16
  0.21231008D-16  0.17888729D-16  0.10006704D-16  0.24906483D-17 -0.11423313D-17
  0.41533028D-16  0.54533119D-16  0.61353436D-16  0.51694908D-16  0.28917407D-16
  0.71974837D-17 -0.33011128D-17  0.43798641D-02  0.57507883D-02  0.64700245D-02
  0.54514849D-02  0.30494842D-02  0.75901041D-03 -0.34811875D-03  0.16564465D-17
  0.23274589D-17  0.25022965D-03 -0.76620384D-19 -0.13842624D-17 -0.61696964D-05
  0.96281528D-20  0.38366889D-20  0.17992145D-05 -0.85929399D-04 -0.85929399D-04
  0.17185880D-03 -0.41305261D-19  0.15612979D-17  0.29531286D-17 -0.15077191D-03
 -0.15077191D-03  0.30154381D-03 -0.22804202D-18 -0.96516754D-18  0.16118617D-17
 -0.56396878D-06 -0.56396878D-06  0.11279376D-05  0.35891752D-20 -0.16734297D-19
  0.39226531D-18  0.97312091D-19  0.26967980D-18 -0.15199891D-03  0.89127576D-19
  0.27875432D-18  0.22799837D-03 -0.38106385D-18 -0.10877937D-17  0.22799837D-03
  0.16940266D-18  0.33937820D-19  0.11739986D-18 -0.15115795D-04  0.32036080D-19
  0.11680132D-18  0.22673693D-04 -0.13384954D-18 -0.46900090D-18  0.22673693D-04
 -0.89944871D-20
MO    3     MO 0.0        OCC NO =    2.0000000  ORB. ENERGY =  -15.723183
  0.41165477D+00  0.76705805D+00  0.12972875D+01  0.19536430D+01  0.24187368D+01
  0.20582359D+01  0.78319672D+00 -0.36680444D-02 -0.67816599D-04 -0.12715676D-03
 -0.21633148D-03 -0.33593994D-03 -0.44581184D-03 -0.46982448D-03 -0.29132115D-03
  0.19378694D-03  0.36676755D-01  0.47396570D-02  0.17687847D-04 -0.96482322D-17
 -0.92670117D-17 -0.64986682D-17  0.21446387D-16  0.20598998D-16  0.14445439D-16
  0.94443869D-02  0.90712207D-02  0.63613661D-02 -0.71602076D-18 -0.73674544D-18
 -0.35371291D-03  0.17636822D-18 -0.16493835D-19  0.13346395D-02 -0.33969548D-20
 -0.53209201D-20 -0.28856870D-05 -0.14331059D-02 -0.14331059D-02  0.28662118D-02
 -0.26322414D-16 -0.34477746D-17 -0.21707684D-17  0.16374463D-03  0.16374463D-03
 -0.32748926D-03 -0.14700254D-17  0.26888522D-18 -0.42690141D-18 -0.28223374D-04
 -0.28223374D-04  0.56446748D-04  0.22156756D-19  0.38905881D-19 -0.16650127D-19
 -0.20603025D-18  0.25392545D-18  0.22611876D-03  0.51669325D-18  0.35012487D-18
 -0.33917815D-03  0.10139749D-18 -0.11119012D-17 -0.33917815D-03 -0.15617475D-17
 -0.30654453D-19  0.11304359D-19 -0.77352610D-04  0.12432834D-19  0.39419785D-20
  0.11602892D-03  0.79530526D-19 -0.37855056D-19  0.11602892D-03 -0.17251878D-18
 -0.82142787D-02 -0.15306099D-01 -0.25886450D-01 -0.38983560D-01 -0.48264176D-01
 -0.41070635D-01 -0.15628134D-01  0.73193221D-04 -0.24953109D-03 -0.46787313D-03
 -0.79599141D-03 -0.12360906D-02 -0.16403641D-02 -0.17287186D-02 -0.10719158D-02
  0.71303882D-03 -0.11529598D-03 -0.32012163D-02  0.22985614D-03  0.28421700D-18
  0.27298703D-18  0.19143735D-18  0.15090938D-17  0.14494666D-17  0.10164660D-17
 -0.15195321D-02 -0.14594924D-02 -0.10234968D-02 -0.39867647D-19  0.28115905D-18
 -0.78876363D-03 -0.16927589D-18  0.32429275D-18  0.28883708D-02  0.48749295D-20
  0.76813640D-20  0.20168487D-04 -0.42469646D-04 -0.42469646D-04  0.84939292D-04
 -0.97068797D-18  0.19078578D-19 -0.35110959D-18  0.25504157D-03  0.25504157D-03
 -0.51008313D-03  0.17412156D-18  0.13696859D-18 -0.49386679D-18  0.17042233D-04
  0.17042233D-04 -0.34084466D-04  0.23864931D-20  0.61359226D-19  0.39760521D-19
  0.13823271D-19 -0.97521107D-19  0.54722458D-03 -0.53316107D-19  0.15259863D-22
 -0.82083688D-03  0.11846295D-19  0.29254806D-18 -0.82083688D-03  0.14206342D-17
  0.12287346D-19 -0.80207215D-19  0.26059396D-03 -0.22428672D-19 -0.69735554D-19
 -0.39089094D-03 -0.14433367D-19  0.31035720D-18 -0.39089094D-03 -0.28368545D-18
 -0.10877265D-03 -0.20334415D-03 -0.35144217D-03 -0.56844194D-03 -0.85916671D-03
 -0.11832135D-02 -0.13829023D-02 -0.11949319D-02 -0.55732051D-03 -0.75672084D-04
 -0.20263120D-06 -0.39747864D-06 -0.18146560D-07  0.20871884D-03  0.38979132D-03
  0.67615336D-03  0.10963593D-02  0.16879700D-02  0.24040484D-02  0.30912941D-02
  0.32449389D-02  0.22944018D-02 -0.50810488D-04 -0.16485573D-02 -0.90774041D-03
  0.38388188D-05 -0.12371444D-03 -0.23086945D-03 -0.40099261D-03 -0.64951905D-03
 -0.10033168D-02 -0.14303789D-02 -0.18604557D-02 -0.19827443D-02 -0.14705602D-02
  0.45773079D-04  0.13322510D-02  0.13051461D-02 -0.60958064D-03 -0.94170782D-04
 -0.91154890D-03 -0.16118581D-03 -0.12363198D-17 -0.16219843D-17 -0.17790695D-17
 -0.14638466D-17 -0.77176888D-18 -0.20077778D-18  0.22218109D-21 -0.90658656D-18
 -0.11893922D-17 -0.13045820D-17 -0.10734307D-17 -0.56593390D-18 -0.14722925D-18
  0.16292418D-21  0.82161368D-02  0.10779124D-01  0.11823056D-01  0.97281980D-02
  0.51288984D-02  0.13342969D-02 -0.14765356D-05  0.19043017D-18  0.25003597D-18
  0.28130733D-18  0.23702269D-18  0.13258717D-18  0.33000677D-19 -0.15135701D-19
  0.24000693D-17  0.31513057D-17  0.35454314D-17  0.29872940D-17  0.16710504D-17
  0.41592103D-18 -0.19076143D-18 -0.79378395D-02 -0.10422432D-01 -0.11725938D-01
 -0.98799895D-02 -0.55267276D-02 -0.13755913D-02  0.63091243D-03 -0.14482969D-19
  0.85762339D-19  0.23208653D-03 -0.14787360D-19 -0.72866087D-19  0.26962387D-03
  0.12379663D-21 -0.78504426D-22  0.67702695D-05 -0.11787096D-04 -0.11787096D-04
  0.23574192D-04  0.53480963D-19 -0.16081113D-19  0.16295773D-18  0.12807271D-03
  0.12807271D-03 -0.25614542D-03 -0.33284387D-19  0.44812060D-19  0.32678462D-19
  0.71802342D-05  0.71802342D-05 -0.14360468D-04 -0.25439565D-20  0.17589800D-20
  0.18701879D-19  0.55837959D-20  0.16886981D-19 -0.16574078D-04  0.72488770D-20
  0.20630675D-19  0.24861118D-04 -0.24000265D-19 -0.71291617D-19  0.24861118D-04
 -0.10224642D-18 -0.17488678D-20  0.65217536D-20 -0.19687958D-04 -0.23454309D-20
  0.62806145D-20  0.29531937D-04  0.75920342D-20 -0.25845875D-19  0.29531937D-04
 -0.15452999D-19
MO    4     MO 0.0        OCC NO =    2.0000000  ORB. ENERGY =   -8.991211
 -0.13530945D-03 -0.25212924D-03 -0.42641375D-03 -0.64215547D-03 -0.79503013D-03
 -0.67653476D-03 -0.25743396D-03  0.12056730D-05  0.10406187D-03  0.19511697D-03
  0.33195202D-03  0.51548644D-03  0.68408048D-03  0.72092693D-03  0.44702069D-03
 -0.29735833D-03 -0.21080027D-03 -0.15321689D-03  0.20594930D-03 -0.12079840D-15
 -0.11602542D-15 -0.81365032D-16 -0.88670083D-17 -0.85166554D-17 -0.59724667D-17
 -0.26358225D-03 -0.25316760D-03 -0.17753859D-03  0.98336447D-16  0.44300247D-16
  0.10039795D-03 -0.48051211D-16  0.92050661D-17  0.15559284D-03 -0.10602773D-17
 -0.76533001D-18  0.14372179D-04  0.52196440D-04  0.52196440D-04 -0.10439288D-03
 -0.60755339D-17  0.22441596D-16 -0.15419139D-16 -0.48730828D-04 -0.48730828D-04
  0.97461655D-04 -0.19817300D-20 -0.27508468D-16  0.12850003D-16 -0.10012514D-04
 -0.10012514D-04  0.20025029D-04  0.84473336D-19 -0.20650013D-17  0.12614567D-17
  0.18404153D-17 -0.10689080D-17 -0.33088288D-04  0.13737424D-17 -0.20933626D-17
  0.49632432D-04 -0.68949883D-17  0.53000867D-17  0.49632432D-04 -0.76869547D-18
  0.19046407D-17 -0.83300030D-18 -0.15235682D-04  0.19329831D-17 -0.68227759D-18
  0.22853523D-04 -0.76469050D-17  0.31812785D-17  0.22853523D-04  0.25878496D-18
  0.12482091D-04  0.23258538D-04  0.39336019D-04  0.59237865D-04  0.73340319D-04
  0.62409302D-04  0.23747891D-04 -0.11122150D-06 -0.82796007D-04 -0.15524329D-03
 -0.26411502D-03 -0.41014274D-03 -0.54428327D-03 -0.57359985D-03 -0.35566850D-03
  0.23659082D-03  0.23680685D-03 -0.19536050D-03 -0.61582075D-04 -0.43392135D-16
 -0.41677627D-16 -0.29227229D-16  0.34008156D-17  0.32664428D-17  0.22906551D-17
  0.99048218D-03  0.95134630D-03  0.66714969D-03  0.19776401D-16 -0.93398841D-17
  0.49884110D-03  0.86875673D-17 -0.25124306D-17 -0.35495355D-03 -0.59300562D-18
  0.39966973D-18  0.32922116D-04 -0.28044792D-03 -0.28044792D-03  0.56089584D-03
 -0.96021367D-18 -0.15275373D-16 -0.18023336D-16  0.12868319D-03  0.12868319D-03
 -0.25736639D-03 -0.22919987D-18 -0.26839294D-16  0.14058050D-16 -0.20943869D-04
 -0.20943869D-04  0.41887738D-04 -0.86993880D-19  0.22796108D-17  0.29145806D-17
  0.26176028D-17  0.19294728D-17 -0.18624643D-03  0.31973314D-17  0.36545093D-17
  0.27936965D-03 -0.11050140D-16 -0.94429277D-17  0.27936965D-03  0.20065820D-18
 -0.24962654D-17 -0.42604240D-18 -0.16255198D-03 -0.25600288D-17 -0.75133636D-18
  0.24382797D-03  0.10048825D-16  0.20294636D-17  0.24382797D-03 -0.13062505D-19
  0.44225619D-05  0.82677224D-05  0.14289206D-04  0.23112149D-04  0.34932660D-04
  0.48108005D-04  0.56227104D-04  0.48584460D-04  0.22659965D-04  0.30767337D-05
  0.82387348D-08  0.16160992D-07  0.73781679D-09 -0.16156685D+00 -0.30173298D+00
 -0.52340253D+00 -0.84867911D+00 -0.13066381D+01 -0.18609462D+01 -0.23929352D+01
 -0.25118699D+01 -0.17760700D+01  0.39331814D-01  0.12761293D+01  0.70267140D+00
 -0.29715855D-02  0.58043874D-04  0.10831845D-03  0.18813619D-03  0.30473889D-03
  0.47073240D-03  0.67109976D-03  0.87288157D-03  0.93025646D-03  0.68995187D-03
 -0.21475640D-04 -0.62506045D-03 -0.61234351D-03  0.28600073D-03  0.40950138D-01
  0.45446180D-03 -0.11830682D-03  0.14122411D-15  0.18527834D-15  0.20322210D-15
  0.16721436D-15  0.88158719D-16  0.22934732D-16 -0.25379619D-19 -0.10777712D-14
 -0.14139772D-14 -0.15509175D-14 -0.12761195D-14 -0.67279542D-15 -0.17502957D-15
  0.19368806D-18 -0.58884212D-01 -0.77252880D-01 -0.84734634D-01 -0.69721000D-01
 -0.36758290D-01 -0.95627697D-02  0.10582180D-04  0.14179853D-15  0.18618234D-15
  0.20946768D-15  0.17649236D-15  0.98727353D-16  0.24573037D-16 -0.11270379D-16
  0.43202803D-16  0.56725543D-16  0.63820061D-16  0.53773226D-16  0.30079989D-16
  0.74868480D-17 -0.34338292D-17  0.16940861D-03  0.22243453D-03  0.25025385D-03
  0.21085779D-03  0.11795089D-03  0.29357736D-04 -0.13464872D-04 -0.31220159D-17
 -0.17008689D-17 -0.26661989D-02 -0.51463189D-18 -0.12495528D-17  0.14602731D-04
  0.22576616D-18 -0.13425117D-18  0.27815663D-05  0.91000462D-04  0.91000462D-04
 -0.18200092D-03  0.93550613D-18  0.86898577D-17  0.24254425D-17 -0.86373995D-03
 -0.86373995D-03  0.17274799D-02 -0.42393281D-17  0.10694508D-16 -0.38107184D-17
 -0.25907896D-05 -0.25907896D-05  0.51815793D-05 -0.47871107D-19 -0.62469397D-18
  0.45419296D-18  0.18689406D-17  0.44070934D-18 -0.11343991D-03  0.10895421D-17
 -0.87282396D-18  0.17015987D-03 -0.66963638D-17 -0.44930405D-18  0.17015987D-03
  0.47374622D-17 -0.25300889D-18  0.13814291D-18  0.20992105D-04 -0.18138271D-18
  0.17449212D-18 -0.31488158D-04  0.94040939D-18 -0.58892086D-18 -0.31488158D-04
 -0.22218818D-18
MO    5     MO 0.0        OCC NO =    2.0000000  ORB. ENERGY =   -6.673088
  0.26789012D-03  0.49917379D-03  0.84422801D-03  0.12713606D-02  0.15740269D-02
  0.13394259D-02  0.50967625D-03 -0.23870313D-05 -0.19662759D-03 -0.36867857D-03
 -0.62723194D-03 -0.97402498D-03 -0.12925878D-02 -0.13622101D-02 -0.84465717D-03
  0.56186627D-03  0.18851636D-03 -0.34536137D-02 -0.18888314D-03  0.11793610D-15
  0.11327621D-15  0.79437099D-16  0.75194238D-17  0.72223167D-17  0.50647870D-17
  0.49517078D-03  0.47560561D-03  0.33352748D-03 -0.13996582D-15  0.19936532D-17
 -0.47912519D-04 -0.34116891D-16  0.15271809D-15 -0.11662716D-02 -0.15004453D-16
  0.77142560D-18  0.15303717D-04 -0.64035889D-04 -0.64035889D-04  0.12807178D-03
  0.55320889D-16  0.92540041D-17 -0.13924579D-16 -0.30643609D-04 -0.30643609D-04
  0.61287218D-04 -0.16591453D-17 -0.36275143D-16  0.81198987D-16  0.13500353D-04
  0.13500353D-04 -0.27000707D-04 -0.13650231D-19 -0.19458882D-16  0.29091740D-16
  0.10056812D-16 -0.20907729D-16 -0.44838927D-04  0.10115970D-16 -0.20760820D-16
  0.67258390D-04 -0.40286405D-16  0.83484006D-16  0.67258390D-04  0.49243426D-18
  0.93280209D-18 -0.19334953D-17  0.78673486D-04  0.92701726D-18 -0.19660136D-17
 -0.11801023D-03 -0.37254235D-17  0.77664993D-17 -0.11801023D-03 -0.15171702D-18
 -0.65533157D-04 -0.12211139D-03 -0.20652097D-03 -0.31100914D-03 -0.38504949D-03
 -0.32765974D-03 -0.12468058D-03  0.58393233D-06  0.19256872D-03  0.36106816D-03
  0.61428436D-03  0.95391876D-03  0.12659057D-02  0.13340908D-02  0.82722141D-03
 -0.55026800D-03 -0.32635193D-03 -0.10701577D-02 -0.89063541D-03 -0.17410488D-16
 -0.16722565D-16 -0.11727017D-16  0.40369620D-16  0.38774537D-16  0.27191382D-16
 -0.17480659D-02 -0.16789964D-02 -0.11774282D-02  0.63773347D-17 -0.17807881D-16
 -0.77716202D-03  0.18673911D-16 -0.42402404D-16 -0.35911093D-02 -0.74912094D-18
  0.62989017D-18 -0.13267149D-03  0.15641507D-03  0.15641507D-03 -0.31283014D-03
  0.39995870D-18  0.97254325D-17  0.10866511D-16  0.13931369D-03  0.13931369D-03
 -0.27862738D-03  0.28345200D-19 -0.42912539D-16  0.84469757D-16  0.30316615D-04
  0.30316615D-04 -0.60633230D-04  0.16621697D-18 -0.62010078D-16  0.89647385D-16
 -0.15876836D-16  0.24379732D-16  0.47677914D-03 -0.15890795D-16  0.24075440D-16
 -0.71516871D-03  0.63521302D-16 -0.97214636D-16 -0.71516871D-03 -0.41294001D-18
  0.60630023D-18  0.27050702D-17  0.86069983D-04  0.61403543D-18  0.27745328D-17
 -0.12910497D-03 -0.24329361D-17 -0.10889743D-16 -0.12910497D-03  0.15370421D-18
  0.12211494D-03  0.22828679D-03  0.39455085D-03  0.63816830D-03  0.96455402D-03
  0.13283492D-02  0.15525322D-02  0.13415049D-02  0.62568268D-03  0.84954191D-04
  0.22748639D-06  0.44623426D-06  0.20372458D-07 -0.11575601D-02 -0.21617929D-02
 -0.37499642D-02 -0.60804373D-02 -0.93615254D-02 -0.13332915D-01 -0.17144398D-01
 -0.17996516D-01 -0.12724812D-01  0.28179629D-03  0.91429420D-02  0.50343520D-02
 -0.21290189D-04 -0.13957778D-03 -0.26047278D-03 -0.45241005D-03 -0.73280390D-03
 -0.11319676D-02 -0.16137898D-02 -0.20990134D-02 -0.22369825D-02 -0.16591234D-02
  0.51642351D-04  0.15030794D-02  0.14724990D-02 -0.68774437D-03 -0.15693344D-02
  0.36750650D-02  0.71114720D-03 -0.64959126D-12 -0.85222836D-12 -0.93476462D-12
 -0.76913914D-12 -0.40550537D-12 -0.10549333D-12  0.11673913D-15  0.11376340D-11
  0.14925139D-11  0.16370602D-11  0.13469991D-11  0.71016456D-12  0.18475125D-12
 -0.20444610D-15  0.96577771D+01  0.12670478D+02  0.13897583D+02  0.11435151D+02
  0.60288379D+01  0.15684187D+01 -0.17356152D-02 -0.49627436D-15 -0.65161125D-15
 -0.73310660D-15 -0.61769774D-15 -0.34553145D-15 -0.86002075D-16  0.39444696D-16
  0.69687981D-15  0.91500743D-15  0.10294451D-14  0.86738529D-15  0.48520317D-15
  0.12076608D-15 -0.55389144D-16  0.35381509D-01  0.46456136D-01  0.52266286D-01
  0.44038298D-01  0.24634406D-01  0.61314535D-02 -0.28121800D-02 -0.48639502D-14
  0.85149014D-14  0.79949628D-01  0.22925037D-16 -0.25549862D-16 -0.11148849D-02
  0.41205552D-18 -0.10378118D-17 -0.34049727D-04 -0.44044791D-03 -0.44044791D-03
  0.88089582D-03  0.59380991D-19 -0.58583834D-16  0.84219428D-16  0.11521960D-02
  0.11521960D-02 -0.23043921D-02  0.32317154D-17  0.17809431D-15 -0.32483587D-15