 Molden2AIM, Version 4.0.0 (06/02/2016)           Time: Wed Jun 27 20:32:48 2018
GAUSSIAN             46 MOL ORBITALS    730 PRIMITIVES        6 NUCLEI
  N    1    (CENTRE  1)  -0.00019842  0.00000000  0.00000378  CHARGE =  7.0
  Cl   2    (CENTRE  2)  -1.63050672  2.82382720 -0.00000189  CHARGE = 17.0
  Cl   3    (CENTRE  3)  -1.63050672 -2.82382720 -0.00000189  CHARGE = 17.0
  Cl   4    (CENTRE  4)   3.26059204  0.00000000 -0.00000189  CHARGE = 17.0
  Cl   5    (CENTRE  5)   0.00030992  0.00000000  4.53941884  CHARGE = 17.0
  Cl   6    (CENTRE  6)   0.00030992  0.00000000 -4.53941884  CHARGE = 17.0
CENTRE ASSIGNMENTS    1  1  1  1  1  1  1  1  1  1  1  1  1  1  1  1  1  1  1  1
CENTRE ASSIGNMENTS    1  1  1  1  1  1  1  1  1  1  1  1  1  1  1  1  1  1  1  1
CENTRE ASSIGNMENTS    1  1  1  1  1  1  1  1  1  1  1  1  1  1  1  1  1  1  1  1
CENTRE ASSIGNMENTS    1  1  1  1  1  1  1  1  1  1  1  1  1  1  1  2  2  2  2  2
CENTRE ASSIGNMENTS    2  2  2  2  2  2  2  2  2  2  2  2  2  2  2  2  2  2  2  2
CENTRE ASSIGNMENTS    2  2  2  2  2  2  2  2  2  2  2  2  2  2  2  2  2  2  2  2
CENTRE ASSIGNMENTS    2  2  2  2  2  2  2  2  2  2  2  2  2  2  2  2  2  2  2  2
CENTRE ASSIGNMENTS    2  2  2  2  2  2  2  2  2  2  2  2  2  2  2  2  2  2  2  2
CENTRE ASSIGNMENTS    2  2  2  2  2  2  2  2  2  2  2  2  2  2  2  2  2  2  2  2
CENTRE ASSIGNMENTS    2  2  2  2  2  2  2  2  2  2  2  2  2  2  2  2  2  2  2  2
CENTRE ASSIGNMENTS    2  2  2  2  2  2  3  3  3  3  3  3  3  3  3  3  3  3  3  3
CENTRE ASSIGNMENTS    3  3  3  3  3  3  3  3  3  3  3  3  3  3  3  3  3  3  3  3
CENTRE ASSIGNMENTS    3  3  3  3  3  3  3  3  3  3  3  3  3  3  3  3  3  3  3  3
CENTRE ASSIGNMENTS    3  3  3  3  3  3  3  3  3  3  3  3  3  3  3  3  3  3  3  3
CENTRE ASSIGNMENTS    3  3  3  3  3  3  3  3  3  3  3  3  3  3  3  3  3  3  3  3
CENTRE ASSIGNMENTS    3  3  3  3  3  3  3  3  3  3  3  3  3  3  3  3  3  3  3  3
CENTRE ASSIGNMENTS    3  3  3  3  3  3  3  3  3  3  3  3  3  3  3  3  3  4  4  4
CENTRE ASSIGNMENTS    4  4  4  4  4  4  4  4  4  4  4  4  4  4  4  4  4  4  4  4
CENTRE ASSIGNMENTS    4  4  4  4  4  4  4  4  4  4  4  4  4  4  4  4  4  4  4  4
CENTRE ASSIGNMENTS    4  4  4  4  4  4  4  4  4  4  4  4  4  4  4  4  4  4  4  4
CENTRE ASSIGNMENTS    4  4  4  4  4  4  4  4  4  4  4  4  4  4  4  4  4  4  4  4
CENTRE ASSIGNMENTS    4  4  4  4  4  4  4  4  4  4  4  4  4  4  4  4  4  4  4  4
CENTRE ASSIGNMENTS    4  4  4  4  4  4  4  4  4  4  4  4  4  4  4  4  4  4  4  4
CENTRE ASSIGNMENTS    4  4  4  4  4  4  4  4  5  5  5  5  5  5  5  5  5  5  5  5
CENTRE ASSIGNMENTS    5  5  5  5  5  5  5  5  5  5  5  5  5  5  5  5  5  5  5  5
CENTRE ASSIGNMENTS    5  5  5  5  5  5  5  5  5  5  5  5  5  5  5  5  5  5  5  5
CENTRE ASSIGNMENTS    5  5  5  5  5  5  5  5  5  5  5  5  5  5  5  5  5  5  5  5
CENTRE ASSIGNMENTS    5  5  5  5  5  5  5  5  5  5  5  5  5  5  5  5  5  5  5  5
CENTRE ASSIGNMENTS    5  5  5  5  5  5  5  5  5  5  5  5  5  5  5  5  5  5  5  5
CENTRE ASSIGNMENTS    5  5  5  5  5  5  5  5  5  5  5  5  5  5  5  5  5  5  5  6
CENTRE ASSIGNMENTS    6  6  6  6  6  6  6  6  6  6  6  6  6  6  6  6  6  6  6  6
CENTRE ASSIGNMENTS    6  6  6  6  6  6  6  6  6  6  6  6  6  6  6  6  6  6  6  6
CENTRE ASSIGNMENTS    6  6  6  6  6  6  6  6  6  6  6  6  6  6  6  6  6  6  6  6
CENTRE ASSIGNMENTS    6  6  6  6  6  6  6  6  6  6  6  6  6  6  6  6  6  6  6  6
CENTRE ASSIGNMENTS    6  6  6  6  6  6  6  6  6  6  6  6  6  6  6  6  6  6  6  6
CENTRE ASSIGNMENTS    6  6  6  6  6  6  6  6  6  6  6  6  6  6  6  6  6  6  6  6
CENTRE ASSIGNMENTS    6  6  6  6  6  6  6  6  6  6
TYPE ASSIGNMENTS      1  1  1  1  1  1  1  1  1  1  1  1  1  1  1  1  1  1  1  2
TYPE ASSIGNMENTS      2  2  3  3  3  4  4  4  2  3  4  2  3  4  2  3  4  5  6  7
TYPE ASSIGNMENTS      8  9 10  5  6  7  8  9 10  5  6  7  8  9 10 11 12 13 17 14
TYPE ASSIGNMENTS     15 18 19 16 20 11 12 13 17 14 15 18 19 16 20  1  1  1  1  1
TYPE ASSIGNMENTS      1  1  1  1  1  1  1  1  1  1  1  1  1  1  1  1  1  1  1  1
TYPE ASSIGNMENTS      1  1  1  1  1  1  1  1  1  1  1  1  1  1  1  1  1  2  2  2
TYPE ASSIGNMENTS      2  2  2  2  3  3  3  3  3  3  3  4  4  4  4  4  4  4  2  2
TYPE ASSIGNMENTS      2  2  2  2  2  3  3  3  3  3  3  3  4  4  4  4  4  4  4  2
TYPE ASSIGNMENTS      3  4  2  3  4  2  3  4  5  6  7  8  9 10  5  6  7  8  9 10
TYPE ASSIGNMENTS      5  6  7  8  9 10 11 12 13 17 14 15 18 19 16 20 11 12 13 17
TYPE ASSIGNMENTS     14 15 18 19 16 20  1  1  1  1  1  1  1  1  1  1  1  1  1  1
TYPE ASSIGNMENTS      1  1  1  1  1  1  1  1  1  1  1  1  1  1  1  1  1  1  1  1
TYPE ASSIGNMENTS      1  1  1  1  1  1  1  1  2  2  2  2  2  2  2  3  3  3  3  3
TYPE ASSIGNMENTS      3  3  4  4  4  4  4  4  4  2  2  2  2  2  2  2  3  3  3  3
TYPE ASSIGNMENTS      3  3  3  4  4  4  4  4  4  4  2  3  4  2  3  4  2  3  4  5
TYPE ASSIGNMENTS      6  7  8  9 10  5  6  7  8  9 10  5  6  7  8  9 10 11 12 13
TYPE ASSIGNMENTS     17 14 15 18 19 16 20 11 12 13 17 14 15 18 19 16 20  1  1  1
TYPE ASSIGNMENTS      1  1  1  1  1  1  1  1  1  1  1  1  1  1  1  1  1  1  1  1
TYPE ASSIGNMENTS      1  1  1  1  1  1  1  1  1  1  1  1  1  1  1  1  1  1  1  2
TYPE ASSIGNMENTS      2  2  2  2  2  2  3  3  3  3  3  3  3  4  4  4  4  4  4  4
TYPE ASSIGNMENTS      2  2  2  2  2  2  2  3  3  3  3  3  3  3  4  4  4  4  4  4
TYPE ASSIGNMENTS      4  2  3  4  2  3  4  2  3  4  5  6  7  8  9 10  5  6  7  8
TYPE ASSIGNMENTS      9 10  5  6  7  8  9 10 11 12 13 17 14 15 18 19 16 20 11 12
TYPE ASSIGNMENTS     13 17 14 15 18 19 16 20  1  1  1  1  1  1  1  1  1  1  1  1
TYPE ASSIGNMENTS      1  1  1  1  1  1  1  1  1  1  1  1  1  1  1  1  1  1  1  1
TYPE ASSIGNMENTS      1  1  1  1  1  1  1  1  1  1  2  2  2  2  2  2  2  3  3  3
TYPE ASSIGNMENTS      3  3  3  3  4  4  4  4  4  4  4  2  2  2  2  2  2  2  3  3
TYPE ASSIGNMENTS      3  3  3  3  3  4  4  4  4  4  4  4  2  3  4  2  3  4  2  3
TYPE ASSIGNMENTS      4  5  6  7  8  9 10  5  6  7  8  9 10  5  6  7  8  9 10 11
TYPE ASSIGNMENTS     12 13 17 14 15 18 19 16 20 11 12 13 17 14 15 18 19 16 20  1
TYPE ASSIGNMENTS      1  1  1  1  1  1  1  1  1  1  1  1  1  1  1  1  1  1  1  1
TYPE ASSIGNMENTS      1  1  1  1  1  1  1  1  1  1  1  1  1  1  1  1  1  1  1  1
TYPE ASSIGNMENTS      1  2  2  2  2  2  2  2  3  3  3  3  3  3  3  4  4  4  4  4
TYPE ASSIGNMENTS      4  4  2  2  2  2  2  2  2  3  3  3  3  3  3  3  4  4  4  4
TYPE ASSIGNMENTS      4  4  4  2  3  4  2  3  4  2  3  4  5  6  7  8  9 10  5  6
TYPE ASSIGNMENTS      7  8  9 10  5  6  7  8  9 10 11 12 13 17 14 15 18 19 16 20
TYPE ASSIGNMENTS     11 12 13 17 14 15 18 19 16 20
EXPONENTS  0.1142000D+05 0.1712000D+04 0.3893000D+03 0.1100000D+03 0.3557000D+02
EXPONENTS  0.1254000D+02 0.4644000D+01 0.5118000D+00 0.1142000D+05 0.1712000D+04
EXPONENTS  0.3893000D+03 0.1100000D+03 0.3557000D+02 0.1254000D+02 0.4644000D+01
EXPONENTS  0.5118000D+00 0.1293000D+01 0.1787000D+00 0.5760000D-01 0.2663000D+02
EXPONENTS  0.5948000D+01 0.1742000D+01 0.2663000D+02 0.5948000D+01 0.1742000D+01
EXPONENTS  0.2663000D+02 0.5948000D+01 0.1742000D+01 0.5550000D+00 0.5550000D+00
EXPONENTS  0.5550000D+00 0.1725000D+00 0.1725000D+00 0.1725000D+00 0.4910000D-01
EXPONENTS  0.4910000D-01 0.4910000D-01 0.1654000D+01 0.1654000D+01 0.1654000D+01
EXPONENTS  0.1654000D+01 0.1654000D+01 0.1654000D+01 0.4690000D+00 0.4690000D+00
EXPONENTS  0.4690000D+00 0.4690000D+00 0.4690000D+00 0.4690000D+00 0.1510000D+00
EXPONENTS  0.1510000D+00 0.1510000D+00 0.1510000D+00 0.1510000D+00 0.1510000D+00
EXPONENTS  0.1093000D+01 0.1093000D+01 0.1093000D+01 0.1093000D+01 0.1093000D+01
EXPONENTS  0.1093000D+01 0.1093000D+01 0.1093000D+01 0.1093000D+01 0.1093000D+01
EXPONENTS  0.3640000D+00 0.3640000D+00 0.3640000D+00 0.3640000D+00 0.3640000D+00
EXPONENTS  0.3640000D+00 0.3640000D+00 0.3640000D+00 0.3640000D+00 0.3640000D+00
EXPONENTS  0.4561000D+06 0.6833000D+05 0.1555000D+05 0.4405000D+04 0.1439000D+04
EXPONENTS  0.5204000D+03 0.2031000D+03 0.8396000D+02 0.3620000D+02 0.1583000D+02
EXPONENTS  0.6334000D+01 0.2694000D+01 0.4313000D+00 0.4561000D+06 0.6833000D+05
EXPONENTS  0.1555000D+05 0.4405000D+04 0.1439000D+04 0.5204000D+03 0.2031000D+03
EXPONENTS  0.8396000D+02 0.3620000D+02 0.1583000D+02 0.6334000D+01 0.2694000D+01
EXPONENTS  0.4313000D+00 0.4561000D+06 0.6833000D+05 0.1555000D+05 0.4405000D+04
EXPONENTS  0.1439000D+04 0.5204000D+03 0.2031000D+03 0.8396000D+02 0.3620000D+02
EXPONENTS  0.1583000D+02 0.6334000D+01 0.2694000D+01 0.4313000D+00 0.9768000D+00
EXPONENTS  0.1625000D+00 0.5910000D-01 0.6633000D+03 0.1568000D+03 0.4998000D+02
EXPONENTS  0.1842000D+02 0.7240000D+01 0.2922000D+01 0.3818000D+00 0.6633000D+03
EXPONENTS  0.1568000D+03 0.4998000D+02 0.1842000D+02 0.7240000D+01 0.2922000D+01
EXPONENTS  0.3818000D+00 0.6633000D+03 0.1568000D+03 0.4998000D+02 0.1842000D+02
EXPONENTS  0.7240000D+01 0.2922000D+01 0.3818000D+00 0.6633000D+03 0.1568000D+03
EXPONENTS  0.4998000D+02 0.1842000D+02 0.7240000D+01 0.2922000D+01 0.3818000D+00
EXPONENTS  0.6633000D+03 0.1568000D+03 0.4998000D+02 0.1842000D+02 0.7240000D+01
EXPONENTS  0.2922000D+01 0.3818000D+00 0.6633000D+03 0.1568000D+03 0.4998000D+02
EXPONENTS  0.1842000D+02 0.7240000D+01 0.2922000D+01 0.3818000D+00 0.1022000D+01
EXPONENTS  0.1022000D+01 0.1022000D+01 0.1301000D+00 0.1301000D+00 0.1301000D+00
EXPONENTS  0.4190000D-01 0.4190000D-01 0.4190000D-01 0.1046000D+01 0.1046000D+01
EXPONENTS  0.1046000D+01 0.1046000D+01 0.1046000D+01 0.1046000D+01 0.3440000D+00
EXPONENTS  0.3440000D+00 0.3440000D+00 0.3440000D+00 0.3440000D+00 0.3440000D+00
EXPONENTS  0.1350000D+00 0.1350000D+00 0.1350000D+00 0.1350000D+00 0.1350000D+00
EXPONENTS  0.1350000D+00 0.7060000D+00 0.7060000D+00 0.7060000D+00 0.7060000D+00
EXPONENTS  0.7060000D+00 0.7060000D+00 0.7060000D+00 0.7060000D+00 0.7060000D+00
EXPONENTS  0.7060000D+00 0.3120000D+00 0.3120000D+00 0.3120000D+00 0.3120000D+00
EXPONENTS  0.3120000D+00 0.3120000D+00 0.3120000D+00 0.3120000D+00 0.3120000D+00
EXPONENTS  0.3120000D+00 0.4561000D+06 0.6833000D+05 0.1555000D+05 0.4405000D+04
EXPONENTS  0.1439000D+04 0.5204000D+03 0.2031000D+03 0.8396000D+02 0.3620000D+02
EXPONENTS  0.1583000D+02 0.6334000D+01 0.2694000D+01 0.4313000D+00 0.4561000D+06
EXPONENTS  0.6833000D+05 0.1555000D+05 0.4405000D+04 0.1439000D+04 0.5204000D+03
EXPONENTS  0.2031000D+03 0.8396000D+02 0.3620000D+02 0.1583000D+02 0.6334000D+01
EXPONENTS  0.2694000D+01 0.4313000D+00 0.4561000D+06 0.6833000D+05 0.1555000D+05
EXPONENTS  0.4405000D+04 0.1439000D+04 0.5204000D+03 0.2031000D+03 0.8396000D+02
EXPONENTS  0.3620000D+02 0.1583000D+02 0.6334000D+01 0.2694000D+01 0.4313000D+00
EXPONENTS  0.9768000D+00 0.1625000D+00 0.5910000D-01 0.6633000D+03 0.1568000D+03
EXPONENTS  0.4998000D+02 0.1842000D+02 0.7240000D+01 0.2922000D+01 0.3818000D+00
EXPONENTS  0.6633000D+03 0.1568000D+03 0.4998000D+02 0.1842000D+02 0.7240000D+01
EXPONENTS  0.2922000D+01 0.3818000D+00 0.6633000D+03 0.1568000D+03 0.4998000D+02
EXPONENTS  0.1842000D+02 0.7240000D+01 0.2922000D+01 0.3818000D+00 0.6633000D+03
EXPONENTS  0.1568000D+03 0.4998000D+02 0.1842000D+02 0.7240000D+01 0.2922000D+01
EXPONENTS  0.3818000D+00 0.6633000D+03 0.1568000D+03 0.4998000D+02 0.1842000D+02
EXPONENTS  0.7240000D+01 0.2922000D+01 0.3818000D+00 0.6633000D+03 0.1568000D+03
EXPONENTS  0.4998000D+02 0.1842000D+02 0.7240000D+01 0.2922000D+01 0.3818000D+00
EXPONENTS  0.1022000D+01 0.1022000D+01 0.1022000D+01 0.1301000D+00 0.1301000D+00
EXPONENTS  0.1301000D+00 0.4190000D-01 0.4190000D-01 0.4190000D-01 0.1046000D+01
EXPONENTS  0.1046000D+01 0.1046000D+01 0.1046000D+01 0.1046000D+01 0.1046000D+01
EXPONENTS  0.3440000D+00 0.3440000D+00 0.3440000D+00 0.3440000D+00 0.3440000D+00
EXPONENTS  0.3440000D+00 0.1350000D+00 0.1350000D+00 0.1350000D+00 0.1350000D+00
EXPONENTS  0.1350000D+00 0.1350000D+00 0.7060000D+00 0.7060000D+00 0.7060000D+00
EXPONENTS  0.7060000D+00 0.7060000D+00 0.7060000D+00 0.7060000D+00 0.7060000D+00
EXPONENTS  0.7060000D+00 0.7060000D+00 0.3120000D+00 0.3120000D+00 0.3120000D+00
EXPONENTS  0.3120000D+00 0.3120000D+00 0.3120000D+00 0.3120000D+00 0.3120000D+00
EXPONENTS  0.3120000D+00 0.3120000D+00 0.4561000D+06 0.6833000D+05 0.1555000D+05
EXPONENTS  0.4405000D+04 0.1439000D+04 0.5204000D+03 0.2031000D+03 0.8396000D+02
EXPONENTS  0.3620000D+02 0.1583000D+02 0.6334000D+01 0.2694000D+01 0.4313000D+00
EXPONENTS  0.4561000D+06 0.6833000D+05 0.1555000D+05 0.4405000D+04 0.1439000D+04
EXPONENTS  0.5204000D+03 0.2031000D+03 0.8396000D+02 0.3620000D+02 0.1583000D+02
EXPONENTS  0.6334000D+01 0.2694000D+01 0.4313000D+00 0.4561000D+06 0.6833000D+05
EXPONENTS  0.1555000D+05 0.4405000D+04 0.1439000D+04 0.5204000D+03 0.2031000D+03
EXPONENTS  0.8396000D+02 0.3620000D+02 0.1583000D+02 0.6334000D+01 0.2694000D+01
EXPONENTS  0.4313000D+00 0.9768000D+00 0.1625000D+00 0.5910000D-01 0.6633000D+03
EXPONENTS  0.1568000D+03 0.4998000D+02 0.1842000D+02 0.7240000D+01 0.2922000D+01
EXPONENTS  0.3818000D+00 0.6633000D+03 0.1568000D+03 0.4998000D+02 0.1842000D+02
EXPONENTS  0.7240000D+01 0.2922000D+01 0.3818000D+00 0.6633000D+03 0.1568000D+03
EXPONENTS  0.4998000D+02 0.1842000D+02 0.7240000D+01 0.2922000D+01 0.3818000D+00
EXPONENTS  0.6633000D+03 0.1568000D+03 0.4998000D+02 0.1842000D+02 0.7240000D+01
EXPONENTS  0.2922000D+01 0.3818000D+00 0.6633000D+03 0.1568000D+03 0.4998000D+02
EXPONENTS  0.1842000D+02 0.7240000D+01 0.2922000D+01 0.3818000D+00 0.6633000D+03
EXPONENTS  0.1568000D+03 0.4998000D+02 0.1842000D+02 0.7240000D+01 0.2922000D+01
EXPONENTS  0.3818000D+00 0.1022000D+01 0.1022000D+01 0.1022000D+01 0.1301000D+00
EXPONENTS  0.1301000D+00 0.1301000D+00 0.4190000D-01 0.4190000D-01 0.4190000D-01
EXPONENTS  0.1046000D+01 0.1046000D+01 0.1046000D+01 0.1046000D+01 0.1046000D+01
EXPONENTS  0.1046000D+01 0.3440000D+00 0.3440000D+00 0.3440000D+00 0.3440000D+00
EXPONENTS  0.3440000D+00 0.3440000D+00 0.1350000D+00 0.1350000D+00 0.1350000D+00
EXPONENTS  0.1350000D+00 0.1350000D+00 0.1350000D+00 0.7060000D+00 0.7060000D+00
EXPONENTS  0.7060000D+00 0.7060000D+00 0.7060000D+00 0.7060000D+00 0.7060000D+00
EXPONENTS  0.7060000D+00 0.7060000D+00 0.7060000D+00 0.3120000D+00 0.3120000D+00
EXPONENTS  0.3120000D+00 0.3120000D+00 0.3120000D+00 0.3120000D+00 0.3120000D+00
EXPONENTS  0.3120000D+00 0.3120000D+00 0.3120000D+00 0.4561000D+06 0.6833000D+05
EXPONENTS  0.1555000D+05 0.4405000D+04 0.1439000D+04 0.5204000D+03 0.2031000D+03
EXPONENTS  0.8396000D+02 0.3620000D+02 0.1583000D+02 0.6334000D+01 0.2694000D+01
EXPONENTS  0.4313000D+00 0.4561000D+06 0.6833000D+05 0.1555000D+05 0.4405000D+04
EXPONENTS  0.1439000D+04 0.5204000D+03 0.2031000D+03 0.8396000D+02 0.3620000D+02
EXPONENTS  0.1583000D+02 0.6334000D+01 0.2694000D+01 0.4313000D+00 0.4561000D+06
EXPONENTS  0.6833000D+05 0.1555000D+05 0.4405000D+04 0.1439000D+04 0.5204000D+03
EXPONENTS  0.2031000D+03 0.8396000D+02 0.3620000D+02 0.1583000D+02 0.6334000D+01
EXPONENTS  0.2694000D+01 0.4313000D+00 0.9768000D+00 0.1625000D+00 0.5910000D-01
EXPONENTS  0.6633000D+03 0.1568000D+03 0.4998000D+02 0.1842000D+02 0.7240000D+01
EXPONENTS  0.2922000D+01 0.3818000D+00 0.6633000D+03 0.1568000D+03 0.4998000D+02
EXPONENTS  0.1842000D+02 0.7240000D+01 0.2922000D+01 0.3818000D+00 0.6633000D+03
EXPONENTS  0.1568000D+03 0.4998000D+02 0.1842000D+02 0.7240000D+01 0.2922000D+01
EXPONENTS  0.3818000D+00 0.6633000D+03 0.1568000D+03 0.4998000D+02 0.1842000D+02
EXPONENTS  0.7240000D+01 0.2922000D+01 0.3818000D+00 0.6633000D+03 0.1568000D+03
EXPONENTS  0.4998000D+02 0.1842000D+02 0.7240000D+01 0.2922000D+01 0.3818000D+00
EXPONENTS  0.6633000D+03 0.1568000D+03 0.4998000D+02 0.1842000D+02 0.7240000D+01
EXPONENTS  0.2922000D+01 0.3818000D+00 0.1022000D+01 0.1022000D+01 0.1022000D+01
EXPONENTS  0.1301000D+00 0.1301000D+00 0.1301000D+00 0.4190000D-01 0.4190000D-01
EXPONENTS  0.4190000D-01 0.1046000D+01 0.1046000D+01 0.1046000D+01 0.1046000D+01
EXPONENTS  0.1046000D+01 0.1046000D+01 0.3440000D+00 0.3440000D+00 0.3440000D+00
EXPONENTS  0.3440000D+00 0.3440000D+00 0.3440000D+00 0.1350000D+00 0.1350000D+00
EXPONENTS  0.1350000D+00 0.1350000D+00 0.1350000D+00 0.1350000D+00 0.7060000D+00
EXPONENTS  0.7060000D+00 0.7060000D+00 0.7060000D+00 0.7060000D+00 0.7060000D+00
EXPONENTS  0.7060000D+00 0.7060000D+00 0.7060000D+00 0.7060000D+00 0.3120000D+00
EXPONENTS  0.3120000D+00 0.3120000D+00 0.3120000D+00 0.3120000D+00 0.3120000D+00
EXPONENTS  0.3120000D+00 0.3120000D+00 0.3120000D+00 0.3120000D+00 0.4561000D+06
EXPONENTS  0.6833000D+05 0.1555000D+05 0.4405000D+04 0.1439000D+04 0.5204000D+03
EXPONENTS  0.2031000D+03 0.8396000D+02 0.3620000D+02 0.1583000D+02 0.6334000D+01
EXPONENTS  0.2694000D+01 0.4313000D+00 0.4561000D+06 0.6833000D+05 0.1555000D+05
EXPONENTS  0.4405000D+04 0.1439000D+04 0.5204000D+03 0.2031000D+03 0.8396000D+02
EXPONENTS  0.3620000D+02 0.1583000D+02 0.6334000D+01 0.2694000D+01 0.4313000D+00
EXPONENTS  0.4561000D+06 0.6833000D+05 0.1555000D+05 0.4405000D+04 0.1439000D+04
EXPONENTS  0.5204000D+03 0.2031000D+03 0.8396000D+02 0.3620000D+02 0.1583000D+02
EXPONENTS  0.6334000D+01 0.2694000D+01 0.4313000D+00 0.9768000D+00 0.1625000D+00
EXPONENTS  0.5910000D-01 0.6633000D+03 0.1568000D+03 0.4998000D+02 0.1842000D+02
EXPONENTS  0.7240000D+01 0.2922000D+01 0.3818000D+00 0.6633000D+03 0.1568000D+03
EXPONENTS  0.4998000D+02 0.1842000D+02 0.7240000D+01 0.2922000D+01 0.3818000D+00
EXPONENTS  0.6633000D+03 0.1568000D+03 0.4998000D+02 0.1842000D+02 0.7240000D+01
EXPONENTS  0.2922000D+01 0.3818000D+00 0.6633000D+03 0.1568000D+03 0.4998000D+02
EXPONENTS  0.1842000D+02 0.7240000D+01 0.2922000D+01 0.3818000D+00 0.6633000D+03
EXPONENTS  0.1568000D+03 0.4998000D+02 0.1842000D+02 0.7240000D+01 0.2922000D+01
EXPONENTS  0.3818000D+00 0.6633000D+03 0.1568000D+03 0.4998000D+02 0.1842000D+02
EXPONENTS  0.7240000D+01 0.2922000D+01 0.3818000D+00 0.1022000D+01 0.1022000D+01
EXPONENTS  0.1022000D+01 0.1301000D+00 0.1301000D+00 0.1301000D+00 0.4190000D-01
EXPONENTS  0.4190000D-01 0.4190000D-01 0.1046000D+01 0.1046000D+01 0.1046000D+01
EXPONENTS  0.1046000D+01 0.1046000D+01 0.1046000D+01 0.3440000D+00 0.3440000D+00
EXPONENTS  0.3440000D+00 0.3440000D+00 0.3440000D+00 0.3440000D+00 0.1350000D+00
EXPONENTS  0.1350000D+00 0.1350000D+00 0.1350000D+00 0.1350000D+00 0.1350000D+00
EXPONENTS  0.7060000D+00 0.7060000D+00 0.7060000D+00 0.7060000D+00 0.7060000D+00
EXPONENTS  0.7060000D+00 0.7060000D+00 0.7060000D+00 0.7060000D+00 0.7060000D+00
EXPONENTS  0.3120000D+00 0.3120000D+00 0.3120000D+00 0.3120000D+00 0.3120000D+00
EXPONENTS  0.3120000D+00 0.3120000D+00 0.3120000D+00 0.3120000D+00 0.3120000D+00
MO    1     MO 0.0        OCC NO =    2.0000000  ORB. ENERGY = -104.959435
  0.10666784D-10  0.19875982D-10  0.33615269D-10  0.50622732D-10  0.62674226D-10
  0.53332938D-10  0.20294167D-10 -0.95046240D-13 -0.74852761D-11 -0.14034963D-10
 -0.23877647D-10 -0.37079465D-10 -0.49206607D-10 -0.51857009D-10 -0.32154654D-10
  0.21389288D-10  0.10814384D-10 -0.60765526D-10  0.21120470D-11 -0.71810323D-11
 -0.68972957D-11 -0.48368598D-11 -0.14896775D-04 -0.14308174D-04 -0.10033880D-04
  0.40321265D-15  0.38728093D-15  0.27158812D-15  0.20124231D-11  0.41800590D-05
 -0.79931657D-16  0.24297802D-10  0.50396198D-04  0.15077239D-15  0.50073739D-12
  0.10534396D-05  0.10547518D-16 -0.83786686D-12  0.13478632D-10 -0.12640766D-10
  0.29688967D-04  0.18165110D-14  0.95550178D-10  0.85133212D-12 -0.14933134D-10
  0.14081802D-10 -0.32735577D-04 -0.46468217D-15 -0.11664883D-09  0.36248025D-11
 -0.62844249D-11  0.26596224D-11 -0.20523705D-04 -0.18138922D-16 -0.33361059D-10
 -0.43668270D-11  0.42147106D-05 -0.54305619D-16  0.21227311D-10  0.42148558D-05
  0.56542349D-16 -0.81268297D-11 -0.16858988D-04  0.10637451D-15  0.91242150D-10
 -0.24764060D-11  0.17993557D-05 -0.55266021D-17  0.10900394D-10  0.17990103D-05
 -0.66856774D-17 -0.34711758D-11 -0.71970773D-05  0.23265484D-16  0.63513987D-10
 -0.43602772D+00 -0.81580953D+00 -0.14095381D+01 -0.22850257D+01 -0.34699938D+01
 -0.48228834D+01 -0.57337126D+01 -0.51071501D+01 -0.25353423D+01 -0.40848426D+00
 -0.62713215D-02 -0.11206790D-02 -0.41878025D-04  0.55891961D-05  0.10439816D-04
  0.18118806D-04  0.29399460D-04  0.45506872D-04  0.65138953D-04  0.85026680D-04
  0.90610116D-04  0.67732901D-04  0.35754995D-05 -0.45943394D-04 -0.27295655D-04
  0.10233824D-06 -0.31287645D-05 -0.58393881D-05 -0.10148343D-04 -0.16447478D-04
 -0.25545508D-04 -0.36594678D-04 -0.48319862D-04 -0.52248104D-04 -0.40963191D-04
 -0.20383148D-05  0.35115812D-04  0.36351375D-04 -0.16449511D-04  0.20666446D-03
 -0.36610699D-04 -0.49991539D-05 -0.71072640D-03 -0.93618617D-03 -0.10328327D-02
 -0.85788625D-03 -0.45564423D-03 -0.11752394D-03  0.12081061D-06  0.12571865D-02
  0.16559967D-02  0.18269523D-02  0.15174939D-02  0.80597789D-03  0.20788521D-03
 -0.21369893D-06 -0.30374756D-08 -0.40010371D-08 -0.44140812D-08 -0.36664018D-08
 -0.19473151D-08 -0.50226936D-09  0.51631583D-12  0.35208313D-03  0.46225933D-03
  0.52631626D-03  0.44566299D-03  0.25529292D-03  0.58070282D-04 -0.27180088D-04
 -0.63246425D-03 -0.83037920D-03 -0.94544781D-03 -0.80056637D-03 -0.45859524D-03
 -0.10431451D-03  0.48824930D-04  0.13418372D-08  0.17617339D-08  0.20058637D-08
  0.16984830D-08  0.97295644D-09  0.22131383D-09 -0.10358705D-09  0.45212537D-04
 -0.79897126D-04  0.20223420D-09 -0.27893571D-05  0.10743311D-04 -0.34293188D-10
 -0.12152889D-06  0.92824832D-07  0.37112463D-12  0.49361941D-06 -0.10005299D-04
  0.95116792D-05  0.16351045D-04 -0.92814240D-11 -0.50938598D-11  0.20630783D-05
 -0.62591584D-05  0.41960801D-05  0.13498843D-04 -0.30795229D-10  0.61856633D-10
  0.56700160D-06 -0.93453009D-06  0.36752849D-06  0.68095159D-06 -0.64209631D-12
  0.10882016D-10  0.14858409D-05  0.20498396D-05  0.13002787D-10 -0.69826294D-05
 -0.27081605D-06 -0.24828788D-10  0.25251068D-05 -0.58787029D-05 -0.14179573D-10
  0.35854997D-10  0.32057650D-06 -0.13705668D-06  0.91258889D-12 -0.12576991D-05
  0.25607010D-06  0.76103485D-11  0.29596963D-06  0.15509994D-06 -0.10348115D-10
  0.99399273D-11  0.43602843D+00  0.81581086D+00  0.14095404D+01  0.22850294D+01
  0.34699995D+01  0.48228912D+01  0.57337219D+01  0.51071585D+01  0.25353464D+01
  0.40848492D+00  0.62713317D-02  0.11206808D-02  0.41878093D-04 -0.55892046D-05
 -0.10439832D-04 -0.18118834D-04 -0.29399505D-04 -0.45506941D-04 -0.65139052D-04
 -0.85026810D-04 -0.90610254D-04 -0.67733005D-04 -0.35755050D-05  0.45943464D-04
  0.27295696D-04 -0.10233840D-06  0.31287693D-05  0.58393972D-05  0.10148358D-04
  0.16447503D-04  0.25545548D-04  0.36594734D-04  0.48319937D-04  0.52248185D-04
  0.40963254D-04  0.20383180D-05 -0.35115866D-04 -0.36351431D-04  0.16449537D-04
 -0.20666479D-03  0.36610739D-04  0.49991566D-05  0.71072758D-03  0.93618773D-03
  0.10328344D-02  0.85788768D-03  0.45564499D-03  0.11752413D-03 -0.12081081D-06
  0.12571885D-02  0.16559994D-02  0.18269553D-02  0.15174964D-02  0.80597918D-03
  0.20788554D-03 -0.21369927D-06  0.30374805D-08  0.40010436D-08  0.44140884D-08
  0.36664078D-08  0.19473182D-08  0.50227018D-09 -0.51631666D-12 -0.35208373D-03
 -0.46226012D-03 -0.52631716D-03 -0.44566375D-03 -0.25529335D-03 -0.58070381D-04
  0.27180134D-04 -0.63246525D-03 -0.83038051D-03 -0.94544930D-03 -0.80056764D-03
 -0.45859597D-03 -0.10431467D-03  0.48825007D-04 -0.13418394D-08 -0.17617367D-08
 -0.20058669D-08 -0.16984857D-08 -0.97295800D-09 -0.22131419D-09  0.10358722D-09
 -0.45212612D-04 -0.79897253D-04 -0.20223452D-09  0.27893676D-05  0.10743320D-04
  0.34293215D-10  0.12152881D-06  0.92824883D-07 -0.37112617D-12 -0.49362130D-06
  0.10005311D-04 -0.95116900D-05  0.16351073D-04  0.92814375D-11 -0.50938089D-11
 -0.20630806D-05  0.62591711D-05 -0.41960905D-05  0.13498871D-04  0.30795289D-10
  0.61856725D-10 -0.56700090D-06  0.93453026D-06 -0.36752936D-06  0.68095390D-06
  0.64210822D-12  0.10882018D-10 -0.14858452D-05  0.20498401D-05 -0.13002816D-10
  0.69826471D-05 -0.27081171D-06  0.24828779D-10 -0.25251116D-05 -0.58787086D-05
  0.14179668D-10  0.35855082D-10 -0.32057713D-06 -0.13705574D-06 -0.91258938D-12
  0.12577022D-05  0.25607038D-06 -0.76103451D-11 -0.29597078D-06  0.15509684D-06
  0.10348113D-10  0.99399560D-11 -0.90353133D-08 -0.16905106D-07 -0.29208278D-07
 -0.47350025D-07 -0.71904790D-07 -0.99939203D-07 -0.11881329D-06 -0.10582974D-06
 -0.52537054D-07 -0.84645611D-08 -0.12995356D-09 -0.23222574D-10 -0.86779134D-12
  0.39053896D-12  0.72947070D-12  0.12660318D-11  0.20542551D-11  0.31797429D-11
  0.45515130D-11  0.59411462D-11  0.63312827D-11  0.47327623D-11  0.24983412D-12
 -0.32102444D-11 -0.19072540D-11  0.71507725D-14 -0.19483643D-12 -0.36363412D-12
 -0.63196409D-12 -0.10242279D-11 -0.15907863D-11 -0.22788472D-11 -0.30090054D-11
 -0.32536274D-11 -0.25508861D-11 -0.12693125D-12  0.21867543D-11  0.22636961D-11
 -0.10243545D-11  0.44981443D-11 -0.10830241D-10 -0.27921606D-11  0.39708585D-10
  0.52305118D-10  0.57704798D-10  0.47930468D-10  0.25457036D-10  0.65661121D-11
 -0.67497400D-14  0.26144510D-04  0.34438187D-04  0.37993388D-04  0.31557876D-04
  0.16761154D-04  0.43231907D-05 -0.44440930D-08 -0.37450734D-15 -0.49331022D-15
 -0.54423674D-15 -0.45205117D-15 -0.24009536D-15 -0.61927596D-16  0.63659464D-19
 -0.21964128D-10 -0.28837290D-10 -0.32833377D-10 -0.27801955D-10 -0.15926030D-10
 -0.36226193D-11  0.16955852D-11 -0.22634759D-04 -0.29717780D-04 -0.33835878D-04
 -0.28650832D-04 -0.16412300D-04 -0.37332288D-05  0.17473565D-05  0.29707054D-15
  0.39003184D-15  0.44407995D-15  0.37602866D-15  0.21540369D-15  0.48996867D-16
 -0.22933230D-16 -0.25991002D-11 -0.15850907D-05  0.27633028D-16  0.27134244D-11
  0.59106008D-05 -0.11481399D-17  0.11544062D-12 -0.11767526D-06  0.14298483D-17
 -0.14340482D-11 -0.11161189D-11  0.25501672D-11 -0.18324893D-05 -0.22718965D-16
 -0.21168117D-10  0.19961635D-11 -0.32100427D-12 -0.16751593D-11 -0.91563170D-06
  0.56673221D-17  0.85182032D-11 -0.61437625D-13  0.19188225D-12 -0.13044462D-12
 -0.19192893D-05 -0.23247449D-17  0.97673594D-11 -0.59129398D-12 -0.78439728D-06
 -0.44360486D-17  0.33881259D-11  0.38570118D-05  0.16707023D-16 -0.16142440D-11
 -0.15038199D-05 -0.33988774D-17  0.54285899D-10 -0.53213849D-12  0.29801634D-07
  0.78783881D-18 -0.22148146D-13 -0.75674000D-06  0.10400824D-17  0.16185636D-11
  0.66733509D-06 -0.34035988D-17 -0.21160588D-10 -0.88582112D-12 -0.16573747D-11
 -0.28635763D-11 -0.46421912D-11 -0.70495377D-11 -0.97980284D-11 -0.11648442D-10
 -0.10375536D-10 -0.51507270D-11 -0.82986464D-12 -0.12740633D-13 -0.22767385D-14
 -0.85078167D-16  0.74486512D-12  0.13913011D-11  0.24146705D-11  0.39180290D-11
  0.60646435D-11  0.86809862D-11  0.11331399D-10  0.12075496D-10  0.90266784D-11
  0.47650232D-12 -0.61228183D-11 -0.36376575D-11  0.13638488D-13 -0.38494612D-12
 -0.71844647D-12 -0.12485967D-11 -0.20236080D-11 -0.31429800D-11 -0.45024096D-11
 -0.59450123D-11 -0.64283218D-11 -0.50398877D-11 -0.25078314D-12  0.43204580D-11
  0.44724749D-11 -0.20238582D-11  0.11543851D-11 -0.13750405D-11  0.26094986D-12
 -0.70993044D-11 -0.93513772D-11 -0.10316760D-10 -0.85692549D-11 -0.45513394D-11
 -0.11739232D-11  0.12067531D-14 -0.14664114D-04 -0.19315929D-04 -0.21309995D-04
 -0.17700400D-04 -0.94011126D-05 -0.24248212D-05  0.24926337D-08  0.26858317D-10
  0.35378431D-10  0.39030698D-10  0.32419481D-10  0.17218774D-10  0.44412241D-11
 -0.45654273D-14  0.53314112D-11  0.69997520D-11  0.79697326D-11  0.67484423D-11
  0.38657676D-11  0.87932800D-12 -0.41157390D-12  0.11007348D-04  0.14451841D-04
  0.16454485D-04  0.13932982D-04  0.79813484D-05  0.18154799D-05 -0.84974449D-06
 -0.24315093D-10 -0.31923934D-10 -0.36347748D-10 -0.30777780D-10 -0.17630697D-10
 -0.40103719D-11  0.18770748D-11  0.10727640D-11  0.22198866D-05 -0.59265259D-12
 -0.39058491D-12 -0.81232923D-06 -0.43236853D-12  0.11111501D-13  0.22575944D-07
 -0.23991959D-13  0.14978999D-11 -0.15780308D-13 -0.14821196D-11 -0.31389121D-05
 -0.28618882D-11 -0.59318894D-05 -0.55136296D-12  0.99226261D-13  0.45213670D-12
  0.13489056D-05  0.13082725D-11  0.27109539D-05 -0.12529435D-12 -0.72915173D-13
  0.19820952D-12  0.10871165D-06  0.20271236D-12  0.42118025D-06 -0.44679304D-12
 -0.48799736D-06  0.47482266D-12  0.39965783D-12 -0.48726933D-06 -0.14339408D-11
  0.94072129D-12  0.19512614D-05  0.94728111D-14  0.29942101D-05  0.28538639D-12
  0.42130710D-06 -0.32942426D-12 -0.43560744D-13  0.42094851D-06  0.98107673D-12
 -0.81259843D-12 -0.16848698D-05  0.71960483D-14 -0.20199716D-05 -0.88344834D-12
 -0.16529352D-11 -0.28559059D-11 -0.46297566D-11 -0.70306547D-11 -0.97717833D-11
 -0.11617241D-10 -0.10347744D-10 -0.51369302D-11 -0.82764175D-12 -0.12706505D-13
 -0.22706400D-14 -0.84850276D-16  0.74491315D-12  0.13913908D-11  0.24148262D-11
  0.39182816D-11  0.60650345D-11  0.86815459D-11  0.11332129D-10  0.12076275D-10
  0.90272605D-11  0.47653304D-12 -0.61232131D-11 -0.36378921D-11  0.13639368D-13
 -0.38496979D-12 -0.71849065D-12 -0.12486735D-11 -0.20237324D-11 -0.31431733D-11
 -0.45026865D-11 -0.59453779D-11 -0.64287171D-11 -0.50401976D-11 -0.25079856D-12
  0.43207236D-11  0.44727500D-11 -0.20239826D-11  0.11544607D-11 -0.13749719D-11
  0.26102656D-12 -0.70993411D-11 -0.93514256D-11 -0.10316813D-10 -0.85692992D-11
 -0.45513630D-11 -0.11739293D-11  0.12067594D-14 -0.14663843D-04 -0.19315572D-04
 -0.21309601D-04 -0.17700073D-04 -0.94009387D-05 -0.24247763D-05  0.24925876D-08
 -0.26859486D-10 -0.35379971D-10 -0.39032396D-10 -0.32420891D-10 -0.17219523D-10
 -0.44414173D-11  0.45656260D-14  0.53314471D-11  0.69997992D-11  0.79697863D-11
  0.67484877D-11  0.38657936D-11  0.87933392D-12 -0.41157667D-12  0.11007120D-04
  0.14451542D-04  0.16454144D-04  0.13932693D-04  0.79811831D-05  0.18154423D-05
 -0.84972689D-06  0.24316030D-10  0.31925164D-10  0.36349148D-10  0.30778966D-10
  0.17631377D-10  0.40105265D-11 -0.18771471D-11  0.10727649D-11  0.22198666D-05
  0.59275667D-12 -0.39058246D-12 -0.81234054D-06  0.43244783D-12  0.11113783D-13
  0.22577053D-07  0.23995588D-13  0.14979070D-11 -0.15750304D-13 -0.14821567D-11
 -0.31388752D-05  0.28619000D-11  0.59318840D-05 -0.55136792D-12  0.99213142D-13
  0.45215478D-12  0.13488903D-05 -0.13082795D-11 -0.27109505D-05 -0.12529840D-12
 -0.72922119D-13  0.19822052D-12  0.10870927D-06 -0.20270770D-12 -0.42118573D-06