 Molden2AIM, Version 4.0.0 (06/02/2016)           Time: Wed Jun 27 23:27:08 2018
GAUSSIAN             12 MOL ORBITALS    252 PRIMITIVES        4 NUCLEI
  O    1    (CENTRE  1)  -0.00947320  0.00000000  0.00640995  CHARGE =  8.0
  N    2    (CENTRE  2)   0.01225298  0.00000000  2.24022119  CHARGE =  7.0
  O    3    (CENTRE  3)   2.38356447  0.00000000  3.25311817  CHARGE =  8.0
  H    4    (CENTRE  4)   3.55613764  0.00000000  1.82082104  CHARGE =  1.0
CENTRE ASSIGNMENTS    1  1  1  1  1  1  1  1  1  1  1  1  1  1  1  1  1  1  1  1
CENTRE ASSIGNMENTS    1  1  1  1  1  1  1  1  1  1  1  1  1  1  1  1  1  1  1  1
CENTRE ASSIGNMENTS    1  1  1  1  1  1  1  1  1  1  1  1  1  1  1  1  1  1  1  1
CENTRE ASSIGNMENTS    1  1  1  1  1  1  1  1  1  1  1  1  1  1  1  2  2  2  2  2
CENTRE ASSIGNMENTS    2  2  2  2  2  2  2  2  2  2  2  2  2  2  2  2  2  2  2  2
CENTRE ASSIGNMENTS    2  2  2  2  2  2  2  2  2  2  2  2  2  2  2  2  2  2  2  2
CENTRE ASSIGNMENTS    2  2  2  2  2  2  2  2  2  2  2  2  2  2  2  2  2  2  2  2
CENTRE ASSIGNMENTS    2  2  2  2  2  2  2  2  2  2  3  3  3  3  3  3  3  3  3  3
CENTRE ASSIGNMENTS    3  3  3  3  3  3  3  3  3  3  3  3  3  3  3  3  3  3  3  3
CENTRE ASSIGNMENTS    3  3  3  3  3  3  3  3  3  3  3  3  3  3  3  3  3  3  3  3
CENTRE ASSIGNMENTS    3  3  3  3  3  3  3  3  3  3  3  3  3  3  3  3  3  3  3  3
CENTRE ASSIGNMENTS    3  3  3  3  3  4  4  4  4  4  4  4  4  4  4  4  4  4  4  4
CENTRE ASSIGNMENTS    4  4  4  4  4  4  4  4  4  4  4  4
TYPE ASSIGNMENTS      1  1  1  1  1  1  1  1  1  1  1  1  1  1  1  1  1  1  1  2
TYPE ASSIGNMENTS      2  2  3  3  3  4  4  4  2  3  4  2  3  4  2  3  4  5  6  7
TYPE ASSIGNMENTS      8  9 10  5  6  7  8  9 10  5  6  7  8  9 10 11 12 13 17 14
TYPE ASSIGNMENTS     15 18 19 16 20 11 12 13 17 14 15 18 19 16 20  1  1  1  1  1
TYPE ASSIGNMENTS      1  1  1  1  1  1  1  1  1  1  1  1  1  1  2  2  2  3  3  3
TYPE ASSIGNMENTS      4  4  4  2  3  4  2  3  4  2  3  4  5  6  7  8  9 10  5  6
TYPE ASSIGNMENTS      7  8  9 10  5  6  7  8  9 10 11 12 13 17 14 15 18 19 16 20
TYPE ASSIGNMENTS     11 12 13 17 14 15 18 19 16 20  1  1  1  1  1  1  1  1  1  1
TYPE ASSIGNMENTS      1  1  1  1  1  1  1  1  1  2  2  2  3  3  3  4  4  4  2  3
TYPE ASSIGNMENTS      4  2  3  4  2  3  4  5  6  7  8  9 10  5  6  7  8  9 10  5
TYPE ASSIGNMENTS      6  7  8  9 10 11 12 13 17 14 15 18 19 16 20 11 12 13 17 14
TYPE ASSIGNMENTS     15 18 19 16 20  1  1  1  1  1  1  2  3  4  2  3  4  2  3  4
TYPE ASSIGNMENTS      5  6  7  8  9 10  5  6  7  8  9 10
EXPONENTS  0.1533000D+05 0.2299000D+04 0.5224000D+03 0.1473000D+03 0.4755000D+02
EXPONENTS  0.1676000D+02 0.6207000D+01 0.6882000D+00 0.1533000D+05 0.2299000D+04
EXPONENTS  0.5224000D+03 0.1473000D+03 0.4755000D+02 0.1676000D+02 0.6207000D+01
EXPONENTS  0.6882000D+00 0.1752000D+01 0.2384000D+00 0.7376000D-01 0.3446000D+02
EXPONENTS  0.7749000D+01 0.2280000D+01 0.3446000D+02 0.7749000D+01 0.2280000D+01
EXPONENTS  0.3446000D+02 0.7749000D+01 0.2280000D+01 0.7156000D+00 0.7156000D+00
EXPONENTS  0.7156000D+00 0.2140000D+00 0.2140000D+00 0.2140000D+00 0.5974000D-01
EXPONENTS  0.5974000D-01 0.5974000D-01 0.2314000D+01 0.2314000D+01 0.2314000D+01
EXPONENTS  0.2314000D+01 0.2314000D+01 0.2314000D+01 0.6450000D+00 0.6450000D+00
EXPONENTS  0.6450000D+00 0.6450000D+00 0.6450000D+00 0.6450000D+00 0.2140000D+00
EXPONENTS  0.2140000D+00 0.2140000D+00 0.2140000D+00 0.2140000D+00 0.2140000D+00
EXPONENTS  0.1428000D+01 0.1428000D+01 0.1428000D+01 0.1428000D+01 0.1428000D+01
EXPONENTS  0.1428000D+01 0.1428000D+01 0.1428000D+01 0.1428000D+01 0.1428000D+01
EXPONENTS  0.5000000D+00 0.5000000D+00 0.5000000D+00 0.5000000D+00 0.5000000D+00
EXPONENTS  0.5000000D+00 0.5000000D+00 0.5000000D+00 0.5000000D+00 0.5000000D+00
EXPONENTS  0.1142000D+05 0.1712000D+04 0.3893000D+03 0.1100000D+03 0.3557000D+02
EXPONENTS  0.1254000D+02 0.4644000D+01 0.5118000D+00 0.1142000D+05 0.1712000D+04
EXPONENTS  0.3893000D+03 0.1100000D+03 0.3557000D+02 0.1254000D+02 0.4644000D+01
EXPONENTS  0.5118000D+00 0.1293000D+01 0.1787000D+00 0.5760000D-01 0.2663000D+02
EXPONENTS  0.5948000D+01 0.1742000D+01 0.2663000D+02 0.5948000D+01 0.1742000D+01
EXPONENTS  0.2663000D+02 0.5948000D+01 0.1742000D+01 0.5550000D+00 0.5550000D+00
EXPONENTS  0.5550000D+00 0.1725000D+00 0.1725000D+00 0.1725000D+00 0.4910000D-01
EXPONENTS  0.4910000D-01 0.4910000D-01 0.1654000D+01 0.1654000D+01 0.1654000D+01
EXPONENTS  0.1654000D+01 0.1654000D+01 0.1654000D+01 0.4690000D+00 0.4690000D+00
EXPONENTS  0.4690000D+00 0.4690000D+00 0.4690000D+00 0.4690000D+00 0.1510000D+00
EXPONENTS  0.1510000D+00 0.1510000D+00 0.1510000D+00 0.1510000D+00 0.1510000D+00
EXPONENTS  0.1093000D+01 0.1093000D+01 0.1093000D+01 0.1093000D+01 0.1093000D+01
EXPONENTS  0.1093000D+01 0.1093000D+01 0.1093000D+01 0.1093000D+01 0.1093000D+01
EXPONENTS  0.3640000D+00 0.3640000D+00 0.3640000D+00 0.3640000D+00 0.3640000D+00
EXPONENTS  0.3640000D+00 0.3640000D+00 0.3640000D+00 0.3640000D+00 0.3640000D+00
EXPONENTS  0.1533000D+05 0.2299000D+04 0.5224000D+03 0.1473000D+03 0.4755000D+02
EXPONENTS  0.1676000D+02 0.6207000D+01 0.6882000D+00 0.1533000D+05 0.2299000D+04
EXPONENTS  0.5224000D+03 0.1473000D+03 0.4755000D+02 0.1676000D+02 0.6207000D+01
EXPONENTS  0.6882000D+00 0.1752000D+01 0.2384000D+00 0.7376000D-01 0.3446000D+02
EXPONENTS  0.7749000D+01 0.2280000D+01 0.3446000D+02 0.7749000D+01 0.2280000D+01
EXPONENTS  0.3446000D+02 0.7749000D+01 0.2280000D+01 0.7156000D+00 0.7156000D+00
EXPONENTS  0.7156000D+00 0.2140000D+00 0.2140000D+00 0.2140000D+00 0.5974000D-01
EXPONENTS  0.5974000D-01 0.5974000D-01 0.2314000D+01 0.2314000D+01 0.2314000D+01
EXPONENTS  0.2314000D+01 0.2314000D+01 0.2314000D+01 0.6450000D+00 0.6450000D+00
EXPONENTS  0.6450000D+00 0.6450000D+00 0.6450000D+00 0.6450000D+00 0.2140000D+00
EXPONENTS  0.2140000D+00 0.2140000D+00 0.2140000D+00 0.2140000D+00 0.2140000D+00
EXPONENTS  0.1428000D+01 0.1428000D+01 0.1428000D+01 0.1428000D+01 0.1428000D+01
EXPONENTS  0.1428000D+01 0.1428000D+01 0.1428000D+01 0.1428000D+01 0.1428000D+01
EXPONENTS  0.5000000D+00 0.5000000D+00 0.5000000D+00 0.5000000D+00 0.5000000D+00
EXPONENTS  0.5000000D+00 0.5000000D+00 0.5000000D+00 0.5000000D+00 0.5000000D+00
EXPONENTS  0.3387000D+02 0.5095000D+01 0.1159000D+01 0.3258000D+00 0.1027000D+00
EXPONENTS  0.2526000D-01 0.1407000D+01 0.1407000D+01 0.1407000D+01 0.3880000D+00
EXPONENTS  0.3880000D+00 0.3880000D+00 0.1020000D+00 0.1020000D+00 0.1020000D+00
EXPONENTS  0.1057000D+01 0.1057000D+01 0.1057000D+01 0.1057000D+01 0.1057000D+01
EXPONENTS  0.1057000D+01 0.2470000D+00 0.2470000D+00 0.2470000D+00 0.2470000D+00
EXPONENTS  0.2470000D+00 0.2470000D+00
MO    1     MO 0.0        OCC NO =    2.0000000  ORB. ENERGY =  -20.658244
  0.49799295D+00  0.92819479D+00  0.15739108D+01  0.23821873D+01  0.29722743D+01
  0.25527872D+01  0.98006464D+00 -0.43838893D-02  0.45161169D-03  0.84700892D-03
  0.14439645D-02  0.22566355D-02  0.30175516D-02  0.32220416D-02  0.19698931D-02
 -0.12996158D-02  0.47309974D-01  0.99520953D-03 -0.65443302D-04  0.10871924D-02
  0.10542110D-02  0.71116448D-03 -0.33685942D-16 -0.32664032D-16 -0.22034963D-16
  0.10517568D-01  0.10198503D-01  0.68798501D-02 -0.26583574D-03  0.37812883D-17
 -0.22930637D-02 -0.21569638D-04 -0.33153413D-18  0.20732752D-03  0.26428957D-06
  0.16148875D-19 -0.20220282D-05  0.20753269D-03 -0.15280194D-02  0.13204867D-02
 -0.23519356D-17  0.16766934D-03 -0.83968256D-17  0.45797647D-03  0.30397919D-03
 -0.76195566D-03 -0.27288635D-18 -0.22497143D-03  0.14257041D-17 -0.15748344D-04
 -0.18113315D-04  0.33861659D-04 -0.14606019D-19 -0.83173136D-05 -0.18691495D-19
 -0.10316382D-04  0.20893457D-18 -0.18496929D-03  0.83656683D-04 -0.15425066D-17
  0.84853653D-04 -0.52707536D-04  0.91570289D-18  0.47005421D-03  0.11446381D-18
  0.16126491D-04 -0.64756503D-19 -0.78507421D-04 -0.10048396D-04 -0.20837272D-18
  0.13701802D-03 -0.38331077D-04  0.40264223D-18  0.98504244D-04 -0.40944126D-19
  0.31421172D-03  0.58548727D-03  0.99020576D-03  0.14911950D-02  0.18461961D-02
  0.15710296D-02  0.59780574D-03 -0.27997793D-05 -0.21570013D-03 -0.40443975D-03
 -0.68807236D-03 -0.10685037D-02 -0.14179666D-02 -0.14943421D-02 -0.92658745D-03
  0.61636633D-03 -0.86327712D-04 -0.28147627D-03  0.42930872D-04  0.10905046D-03
  0.10474166D-03  0.73452085D-04  0.13171779D-17  0.12651337D-17  0.88719906D-18
 -0.39098176D-03 -0.37553330D-03 -0.26334987D-03 -0.14129168D-03 -0.67144868D-18
 -0.14519620D-02  0.65018833D-04  0.75503002D-19  0.10631182D-03  0.16385320D-05
 -0.18381392D-20 -0.83539632D-05 -0.66904476D-03 -0.48326603D-03  0.11523108D-02
 -0.24249750D-18  0.13106473D-03 -0.90043153D-18 -0.25902861D-03 -0.18553100D-03
  0.44455961D-03  0.36332251D-18 -0.27245346D-03  0.14829166D-17  0.14141677D-04
 -0.36634179D-06 -0.13775335D-04  0.34770211D-19 -0.23968021D-05 -0.37764095D-19
 -0.37666532D-04  0.50422500D-18  0.14739155D-04  0.80055652D-04  0.64486565D-18
 -0.10732644D-03  0.32943944D-04 -0.21575407D-17  0.63108970D-04  0.84005915D-19
 -0.83647090D-05  0.61661620D-19 -0.45970026D-04 -0.27884431D-04  0.18992969D-18
  0.67590854D-04  0.52978558D-04 -0.37491455D-18  0.70319224D-04 -0.27308709D-19
 -0.43648106D-02 -0.81354453D-02 -0.13795020D-01 -0.20879405D-01 -0.26051401D-01
 -0.22374679D-01 -0.85900744D-02  0.38423930D-04 -0.79005601D-05 -0.14817696D-04
 -0.25260924D-04 -0.39477907D-04 -0.52789484D-04 -0.56366861D-04 -0.34461594D-04
  0.22735666D-04 -0.46645190D-03  0.82220526D-04  0.17550714D-04  0.13211417D-03
  0.12810630D-03  0.86419756D-04  0.12022457D-19  0.11657739D-19  0.78642422D-20
  0.17071319D-03  0.16553437D-03  0.11166850D-03 -0.89296382D-04 -0.12335193D-18
 -0.13081634D-03 -0.14309412D-04 -0.12991411D-18 -0.34324777D-04 -0.33008771D-05
 -0.51352581D-20  0.35115939D-05 -0.15670688D-03 -0.36459224D-04  0.19316610D-03
 -0.55748849D-18  0.18335050D-03 -0.16216692D-18  0.13545607D-03 -0.41958882D-04
 -0.93497186D-04  0.40459046D-18  0.33285190D-05  0.10192909D-18  0.25623978D-04
 -0.14733830D-04 -0.10890149D-04  0.50282270D-19 -0.16727053D-05  0.68985985D-19
 -0.33112176D-04  0.97589207D-19  0.77656883D-05  0.20835355D-04 -0.17831938D-18
 -0.45669620D-05  0.78501173D-04 -0.11444825D-18 -0.18730103D-04  0.42216023D-18
 -0.30003741D-04 -0.12842502D-19  0.42192494D-04  0.13471821D-05 -0.27583970D-19
 -0.10652000D-03  0.88664040D-04  0.66111477D-19 -0.20057484D-04 -0.38749896D-18
 -0.76537212D-06 -0.13803801D-05 -0.20353697D-05 -0.12513692D-03 -0.29727186D-04
 -0.73431424D-06 -0.96512381D-04 -0.22100827D-18 -0.13078228D-03  0.43296257D-04
 -0.15261487D-19 -0.30982344D-04  0.79194322D-05  0.95280136D-20 -0.40482705D-05
  0.43733904D-04  0.27530316D-05 -0.46486936D-04  0.14366728D-18 -0.12652098D-04
 -0.15851495D-18 -0.87982361D-05  0.55771483D-05  0.32210878D-05 -0.29310243D-19
 -0.17798580D-04 -0.15873000D-19
MO    2     MO 0.0        OCC NO =    2.0000000  ORB. ENERGY =  -20.655381
  0.44037555D-02  0.82080337D-02  0.13918105D-01  0.21065701D-01  0.26283844D-01
  0.22574317D-01  0.86667192D-02 -0.38766767D-04 -0.13698637D-04 -0.25692133D-04
 -0.43799455D-04 -0.68450022D-04 -0.91530722D-04 -0.97733471D-04 -0.59752328D-04
  0.39420957D-04  0.38162419D-03 -0.17272987D-03 -0.33724805D-04 -0.12844697D-03
 -0.12455036D-03 -0.84020934D-04 -0.65092575D-15 -0.63117902D-15 -0.42578964D-15
  0.11775068D-04  0.11417855D-04  0.77024177D-05  0.16823672D-03  0.24255066D-15
  0.10117339D-03  0.11843932D-03  0.10193119D-16  0.16743741D-04 -0.32098183D-05
 -0.88344801D-19 -0.13280483D-05  0.15849349D-03 -0.11771838D-03 -0.40775111D-04
 -0.14835594D-18  0.54962175D-04 -0.12047755D-16 -0.97411952D-04  0.15537705D-04
  0.81874247D-04  0.63453213D-19  0.14030997D-03  0.53569257D-18 -0.65618230D-05
 -0.11427360D-04  0.17989183D-04  0.30402650D-18  0.40780998D-04  0.32660452D-17
  0.14034863D-04  0.44993132D-17 -0.31538734D-04 -0.27727174D-05  0.34779912D-17
  0.65435751D-04 -0.39331872D-04 -0.16975931D-16  0.29180450D-04 -0.14353083D-17
 -0.99519106D-05 -0.88847588D-18  0.32328425D-04  0.30121713D-04 -0.64339139D-18
 -0.11043955D-03 -0.26598144D-06  0.33088190D-17  0.13454273D-04  0.98925763D-18
  0.10130635D-03  0.18876946D-03  0.31925649D-03  0.48078258D-03  0.59524002D-03
  0.50652240D-03  0.19274112D-03 -0.90268888D-06 -0.62919468D-04 -0.11797459D-03
 -0.20070988D-03 -0.31168125D-03 -0.41361915D-03 -0.43589781D-03 -0.27028445D-03
  0.17979332D-03 -0.29602122D-03 -0.68370783D-04  0.91768681D-04 -0.28146073D-03
 -0.27033967D-03 -0.18958084D-03  0.69000108D-17  0.66273779D-17  0.46475748D-17
 -0.23614610D-03 -0.22681550D-03 -0.15905869D-03  0.77897830D-03 -0.16734533D-17
  0.52903595D-03 -0.11361827D-03 -0.45932149D-17 -0.21928050D-03  0.11079695D-04
  0.97113737D-19  0.12316894D-05  0.37631405D-03 -0.21751191D-03 -0.15880213D-03
  0.10416357D-17  0.56310182D-03  0.57028963D-17  0.41757639D-03 -0.21390442D-03
 -0.20367197D-03 -0.14135766D-17  0.53345064D-03  0.28949582D-17 -0.82889426D-05
 -0.93244497D-05  0.17613392D-04  0.28392204D-19 -0.49217444D-05  0.17603031D-17
  0.19764416D-03 -0.70471705D-17 -0.10335325D-03 -0.51250057D-03 -0.88008245D-17
  0.64440001D-03 -0.80431906D-04  0.29942336D-16 -0.33434026D-03  0.52854706D-18
  0.74551587D-04  0.29673827D-18 -0.35268756D-04 -0.52669265D-04 -0.68071553D-19
  0.68355567D-04 -0.17098550D-03 -0.82214324D-18  0.37450700D-04  0.50359903D-18
  0.49813391D+00  0.92845752D+00  0.15743563D+01  0.23828616D+01  0.29731156D+01
  0.25535098D+01  0.98034206D+00 -0.43851302D-02  0.34622952D-03  0.64936204D-03
  0.11070199D-02  0.17300567D-02  0.23134154D-02  0.24701883D-02  0.15102247D-02
 -0.99635453D-03  0.47373521D-01  0.21723663D-03 -0.14504206D-03 -0.27339745D-02
 -0.26510356D-02 -0.17883730D-02 -0.11299455D-17 -0.10956670D-17 -0.73913049D-18
 -0.91461310D-02 -0.88686705D-02 -0.59827527D-02  0.79269649D-03  0.98381444D-18
  0.17333984D-02 -0.44726936D-03  0.11407548D-17  0.19631951D-03  0.23950596D-05
  0.15894173D-18  0.13306310D-05  0.14236894D-03 -0.40920599D-03  0.26683705D-03
  0.81640475D-18 -0.31193817D-03  0.16011253D-16 -0.57028678D-03  0.53344366D-03
  0.36843115D-04 -0.93580734D-18 -0.13921721D-03 -0.38755684D-17  0.39613528D-04
 -0.18656003D-05 -0.37747928D-04  0.37732765D-18  0.10706506D-03  0.81838709D-19
  0.12434614D-03  0.11455928D-18  0.33084135D-05 -0.50293702D-03  0.15354892D-17
  0.15163588D-03  0.12989860D-03 -0.18791670D-17 -0.16156112D-03 -0.83928747D-17
  0.22683855D-04 -0.19222258D-18 -0.69448704D-04  0.57994089D-04 -0.79609028D-18
  0.30395376D-03 -0.12604565D-03  0.13727580D-17 -0.95607652D-04  0.20409409D-17
  0.11431233D-03  0.20616699D-03  0.30399311D-03  0.90545923D-03  0.10449200D-03
 -0.57129392D-06 -0.32655995D-03  0.78211393D-18  0.42956278D-03 -0.20895165D-03
 -0.12474772D-17  0.49390413D-03 -0.65955353D-05 -0.51741434D-18  0.29521754D-04
 -0.34890748D-04  0.28786329D-04  0.61044184D-05 -0.15900508D-17  0.23971851D-03
  0.34131660D-17 -0.23523882D-04 -0.51546337D-05  0.28678516D-04  0.69017994D-18
 -0.85869369D-04 -0.64456495D-18
MO    3     MO 0.0        OCC NO =    2.0000000  ORB. ENERGY =  -15.797651
  0.75077794D-04  0.13993535D-03  0.23728398D-03  0.35914036D-03  0.44810231D-03
  0.38486013D-03  0.14775529D-03 -0.66091846D-06 -0.17060624D-03 -0.31997624D-03
 -0.54548934D-03 -0.85249365D-03 -0.11399464D-02 -0.12171970D-02 -0.74417040D-03
  0.49095843D-03  0.15478708D-03  0.69024216D-03  0.10573614D-03 -0.15005876D-03
 -0.14550652D-03 -0.98157842D-04  0.10719730D-14  0.10394533D-14  0.70120903D-15
  0.13246180D-02  0.12844338D-02  0.86647148D-03  0.47748580D-04  0.18525107D-17
  0.90632301D-03  0.37041537D-03 -0.18244737D-17  0.26315882D-03  0.12546672D-04
 -0.54606969D-19  0.50930162D-05 -0.45786830D-03 -0.33893279D-03  0.79680109D-03
  0.14154515D-17 -0.53120384D-03  0.10215242D-16  0.92437427D-05  0.66944425D-04
 -0.76188168D-04 -0.34670184D-18  0.50086427D-03 -0.35781293D-17 -0.74363263D-05
 -0.13355857D-04  0.20792184D-04 -0.22332037D-18  0.15674263D-03 -0.99036804D-18
 -0.84977468D-04 -0.10161059D-17 -0.46332804D-03  0.88030538D-04 -0.87359549D-18
  0.66375484D-03  0.16690187D-03  0.39219133D-17  0.72622928D-03  0.13001655D-17
 -0.47957688D-04  0.38591555D-18 -0.10185351D-03 -0.10291766D-03  0.51093239D-19
  0.15653982D-03  0.24679073D-03 -0.12088399D-17  0.14902071D-03 -0.75518970D-18
  0.41163722D+00  0.76702534D+00  0.12972322D+01  0.19535597D+01  0.24186337D+01
  0.20581481D+01  0.78316332D+00 -0.36678880D-02  0.76305779D-04  0.14307405D-03
  0.24341153D-03  0.37799240D-03  0.50161790D-03  0.52863641D-03  0.32778830D-03
 -0.21804490D-03  0.36184460D-01 -0.13946960D-02 -0.25450032D-03  0.94566099D-02
  0.90829608D-02  0.63695991D-02 -0.30288818D-16 -0.29092048D-16 -0.20401352D-16
 -0.68043598D-02 -0.65355063D-02 -0.45831481D-02 -0.21044374D-02  0.76506207D-17
  0.74830683D-03 -0.76585194D-03  0.22104007D-17  0.12112026D-03 -0.21726216D-04
  0.25055554D-19 -0.39486269D-05 -0.18039233D-04 -0.18431076D-02  0.18611468D-02
 -0.28665709D-17 -0.21409192D-03  0.26741440D-17 -0.23086130D-03  0.45925766D-03
 -0.22839635D-03  0.20715495D-17 -0.77998415D-04 -0.37437770D-17 -0.39987842D-04
  0.27181487D-04  0.12806354D-04  0.31646342D-18  0.47976734D-04 -0.57126278D-18
 -0.55193229D-04  0.16070154D-19 -0.12331621D-03  0.41172895D-03  0.33709807D-18
  0.25846154D-03 -0.24614926D-03 -0.38530853D-18  0.11148708D-03  0.20011146D-17
 -0.87724496D-05 -0.63802166D-18  0.70930792D-04  0.83068174D-04  0.21783621D-18
 -0.17125707D-03 -0.56750825D-04  0.16962288D-17 -0.41535300D-04 -0.35148296D-18
 -0.44864163D-04 -0.83621027D-04 -0.14179356D-03 -0.21461115D-03 -0.26777206D-03
 -0.22998048D-03 -0.88293980D-04  0.39494439D-06 -0.14100406D-04 -0.26445661D-04
 -0.45084054D-04 -0.70457601D-04 -0.94215237D-04 -0.10059991D-03 -0.61504811D-04
  0.40577139D-04 -0.17201651D-03  0.12986810D-02  0.19721821D-03 -0.68538113D-04
 -0.66458915D-04 -0.44832791D-04 -0.17753746D-17 -0.17215161D-17 -0.11613246D-17
  0.12769654D-03  0.12382269D-03  0.83530056D-04 -0.94972337D-03 -0.34442417D-18
 -0.51475125D-03 -0.96557846D-03 -0.16047756D-17 -0.46722607D-03 -0.34359984D-04
 -0.45729043D-19 -0.12371312D-05  0.67847439D-03 -0.14647147D-03 -0.53200292D-03
 -0.38461550D-17  0.36043558D-03 -0.26592534D-18  0.15809935D-03 -0.28462728D-03
  0.12652793D-03  0.18178895D-17  0.67953474D-03  0.65033365D-18  0.26277231D-04
 -0.43279694D-04  0.17002462D-04  0.39436982D-18  0.30301927D-03  0.95707360D-18
 -0.94278931D-04  0.32784486D-18  0.10867876D-04  0.10934642D-04 -0.31529709D-18
 -0.11723441D-03  0.27190215D-03 -0.66823748D-18  0.84630781D-04  0.51978892D-17
  0.11062939D-04  0.26918237D-18 -0.65071429D-04  0.10823246D-03 -0.58861957D-18
  0.10736575D-03 -0.14142127D-03 -0.21892753D-18  0.87848539D-04 -0.22112406D-17
  0.19666431D-04  0.35469218D-04  0.52299342D-04  0.17050074D-03  0.17956862D-03
  0.11962359D-04  0.38183545D-04 -0.16997306D-17  0.76598807D-05  0.39001425D-03
  0.10142515D-17  0.23208026D-03  0.14725547D-05  0.11947436D-18  0.40770534D-04
 -0.38971910D-03  0.11515331D-03  0.27456578D-03  0.42731308D-18 -0.21906314D-04
  0.16821919D-18 -0.41619489D-04  0.24137155D-04  0.17482334D-04 -0.49929193D-18
  0.15871002D-05 -0.11988330D-18
MO    4     MO 0.0        OCC NO =    2.0000000  ORB. ENERGY =   -1.616201
 -0.40468572D-02 -0.75428212D-02 -0.12790126D-01 -0.19358451D-01 -0.24153694D-01
 -0.20744802D-01 -0.79643330D-02  0.35624950D-04 -0.66301378D-01 -0.12434988D+00
 -0.21198928D+00 -0.33129798D+00 -0.44300853D+00 -0.47302982D+00 -0.28920116D+00
  0.19079736D+00  0.95736542D-01  0.38041768D-01 -0.16569704D-02  0.36499269D-01
  0.35392013D-01  0.23875243D-01  0.18310352D-14  0.17754882D-14  0.11977339D-14
  0.37759824D+00  0.36614328D+00  0.24699809D+00  0.95755023D-02 -0.31996900D-16
  0.90817520D-01  0.10434080D-02 -0.33202633D-16  0.28171768D-02 -0.39017690D-05
  0.45842376D-17 -0.35861279D-03 -0.31249721D-01 -0.33988917D-01  0.65238638D-01
 -0.96215219D-17  0.13756240D-01 -0.12896636D-15 -0.71667572D-02 -0.66847620D-02
  0.13851519D-01  0.25415135D-18  0.35945409D-02  0.27533242D-16  0.36697710D-03
  0.22548953D-03 -0.59246662D-03  0.10152997D-18  0.10850796D-03 -0.10083331D-17
 -0.19141223D-02 -0.28336030D-17  0.17590689D-01 -0.15661245D-02 -0.11836787D-16
 -0.28406905D-01  0.73084912D-02  0.20337596D-16 -0.24365162D-01  0.19632458D-16
  0.23751559D-04 -0.38471564D-18  0.47546149D-03 -0.33360907D-04 -0.69659005D-17
 -0.12385234D-02 -0.37893769D-04  0.81200475D-17 -0.18786105D-03 -0.25577027D-17
 -0.45772001D-02 -0.85289384D-02 -0.14424573D-01 -0.21722608D-01 -0.26893997D-01
 -0.22885578D-01 -0.87083846D-02  0.40785080D-04 -0.49904104D-01 -0.93570661D-01
 -0.15919154D+00 -0.24720765D+00 -0.32805892D+00 -0.34572907D+00 -0.21437408D+00
  0.14260172D+00  0.69504924D-01  0.16144777D-01  0.91897828D-03  0.10705453D+00
  0.10282459D+00  0.72107703D-01  0.16863053D-15  0.16196761D-15  0.11358287D-15
 -0.25301492D+00 -0.24301781D+00 -0.17042086D+00  0.34310687D-01  0.83761213D-17
 -0.56107108D-01 -0.14442287D-04 -0.11957869D-17 -0.10055164D-02 -0.36693120D-04
 -0.12839446D-17  0.95412437D-05 -0.89196892D-02 -0.37964674D-01  0.46884363D-01
 -0.15743269D-16  0.54140130D-02 -0.73461277D-17 -0.25986955D-03 -0.58299585D-02
  0.60898280D-02 -0.15584743D-17  0.20499411D-02  0.43245540D-16 -0.11235759D-03
  0.25083612D-03 -0.13847853D-03  0.49835273D-20 -0.13909176D-03 -0.65709270D-18
  0.36645462D-02  0.12968362D-16 -0.13678327D-01 -0.83910463D-02  0.12072713D-16
  0.29067866D-01 -0.26025922D-02 -0.50977800D-16  0.11967116D-01  0.44724014D-17
 -0.40678771D-04  0.37370151D-17  0.40948548D-04 -0.93900747D-04  0.46788682D-17
  0.22717546D-03  0.21593706D-03 -0.15889913D-16 -0.35002111D-03 -0.35093780D-17
 -0.18381610D-02 -0.34260955D-02 -0.58095228D-02 -0.87929834D-02 -0.10971076D-01
 -0.94226911D-02 -0.36175543D-02  0.16181543D-04 -0.41031904D-01 -0.76956353D-01
 -0.13119371D+00 -0.20503023D+00 -0.27416449D+00 -0.29274375D+00 -0.17897779D+00
  0.11807868D+00  0.59215878D-01  0.24290035D-01  0.32468640D-04 -0.12424330D+00
 -0.12047421D+00 -0.81271188D-01 -0.22153197D-16 -0.21481150D-16 -0.14491057D-16
 -0.13897158D+00 -0.13475569D+00 -0.90905392D-01 -0.32412863D-01 -0.10105564D-16
 -0.36346129D-01 -0.59807144D-03 -0.62039213D-17 -0.12351995D-02  0.20809511D-03
 -0.62006892D-18  0.31735338D-04  0.15540062D-01 -0.17814935D-01  0.22748733D-02
 -0.43988378D-17  0.22775416D-01 -0.11212697D-16  0.28278734D-02 -0.36404046D-02
  0.81253122D-03  0.16649629D-17  0.76882242D-02  0.60010100D-17 -0.19830492D-03
  0.27926806D-03 -0.80963140D-04 -0.23173451D-17 -0.11182740D-03  0.70727456D-18
 -0.28076827D-02 -0.25824460D-17  0.23870380D-02  0.79311748D-02 -0.11046198D-16
 -0.15406669D-01  0.49187318D-03  0.18793536D-16  0.82455553D-02 -0.29437196D-17
  0.42420980D-03  0.42825734D-18  0.14891181D-03 -0.63643103D-03  0.11439689D-17
 -0.50115360D-03 -0.63619837D-03 -0.24287409D-17  0.54418173D-04 -0.81266830D-18
  0.76602073D-02  0.13815499D-01  0.20370946D-01  0.85889413D-02 -0.68807487D-03
 -0.49317854D-04 -0.83898622D-02 -0.67972022D-17  0.73088581D-02 -0.35298638D-02
  0.59054863D-17  0.12193010D-02  0.26070907D-04  0.27903190D-17 -0.25940289D-03
  0.15181679D-02 -0.11392984D-02 -0.37886952D-03  0.29764491D-17 -0.30204434D-02
 -0.82437911D-18  0.35392784D-03 -0.97811899D-04 -0.25611594D-03 -0.28097870D-17
 -0.24552178D-03  0.21182016D-17
MO    5     MO 0.0        OCC NO =    2.0000000  ORB. ENERGY =   -1.417008
  0.20676153D-02  0.38537689D-02  0.65347151D-02  0.98905957D-02  0.12340576D-01
  0.10598909D-01  0.40691271D-02 -0.18201455D-04  0.52384098D-01  0.98247674D-01
  0.16749075D+00  0.26175543D+00  0.35001689D+00  0.37373644D+00  0.22849513D+00
 -0.15074721D+00 -0.76443081D-01 -0.41815225D-01 -0.77251045D-03  0.50527256D-01
  0.48994442D-01  0.33051361D-01  0.51268771D-15  0.49713462D-15  0.33536408D-15
 -0.18673524D+00 -0.18107037D+00 -0.12214900D+00  0.12770806D-01  0.58284348D-16
 -0.49885609D-01  0.10530717D-02  0.32038488D-16 -0.43285519D-02 -0.67116331D-04
  0.68102392D-17  0.88842260D-04  0.18997230D-01  0.18225719D-01 -0.37222949D-01
  0.12763257D-14  0.12069246D-01 -0.31520464D-15  0.48136277D-02  0.49133515D-02
 -0.97269792D-02  0.13873197D-16  0.33891600D-02  0.35614044D-16 -0.15170481D-03
  0.19275135D-04  0.13242967D-03  0.19570860D-17  0.10235256D-03  0.52807533D-18
 -0.13037539D-02 -0.11587189D-16 -0.12410497D-01 -0.15329946D-02  0.37880474D-17
  0.21426145D-01  0.54442564D-02  0.30973520D-16  0.15805346D-01  0.14362613D-16
 -0.10167487D-03 -0.15189094D-17 -0.51695815D-03  0.32045953D-03  0.38662874D-18
  0.76321156D-03 -0.15434924D-04  0.41700995D-17  0.78766290D-03 -0.84264645D-17
  0.90935983D-03  0.16944581D-02  0.28657535D-02  0.43156660D-02  0.53430745D-02
  0.45467152D-02  0.17301090D-02 -0.81028387D-05  0.12407216D-02  0.23263646D-02
  0.39578383D-02  0.61461050D-02  0.81562388D-02  0.85955561D-02  0.53297931D-02
 -0.35453805D-02 -0.34213244D-02  0.23977339D-02  0.12673332D-02  0.20712209D+00
  0.19893829D+00  0.13950926D+00  0.49773052D-16  0.47806421D-16  0.33525162D-16
  0.32061082D+00  0.30794286D+00  0.21595079D+00  0.49648906D-01  0.94605727D-17
  0.69171479D-01  0.12415314D-02 -0.57600190D-17 -0.79175204D-03  0.11615602D-03
 -0.65149242D-18 -0.43263832D-04  0.49917213D-01  0.63308663D-03 -0.50550300D-01
 -0.17876347D-16  0.32065399D-01 -0.93348285D-16  0.93643551D-02 -0.17957587D-02
 -0.75685964D-02 -0.41974144D-17  0.72705333D-02  0.63646076D-17 -0.52319633D-04
 -0.21105815D-03  0.26337779D-03 -0.15412384D-17  0.20719877D-04 -0.12976366D-17
  0.24045658D-02  0.51545750D-18  0.28491518D-02 -0.71902740D-02  0.51116064D-17
  0.64421474D-03 -0.23423304D-04 -0.66579789D-17 -0.91916701D-02  0.12517351D-17
  0.61078003D-03  0.36279729D-17 -0.29885153D-03 -0.50639602D-03 -0.35752703D-18
  0.74412004D-03 -0.13259441D-02 -0.10526392D-16  0.15243455D-03 -0.50407440D-17
 -0.30097112D-02 -0.56097144D-02 -0.95122169D-02 -0.14397183D-01 -0.17963481D-01
 -0.15428235D-01 -0.59231993D-02  0.26494834D-04 -0.84731703D-01 -0.15891641D+00
 -0.27091764D+00 -0.42339154D+00 -0.56615516D+00 -0.60452171D+00 -0.36959272D+00
  0.24383483D+00  0.12401644D+00  0.62312941D-01 -0.36745447D-04 -0.46684968D-01
 -0.45268715D-01 -0.30538007D-01  0.10631504D-15  0.10308983D-15  0.69543791D-16
 -0.15102849D+00 -0.14644683D+00 -0.98792169D-01 -0.14910407D-01  0.21223831D-16
 -0.42994932D-01 -0.40377502D-02 -0.34767493D-17 -0.10048099D-02  0.20937602D-03
 -0.11573971D-17  0.65533150D-04  0.14660117D-01 -0.19608320D-01  0.49482034D-02
 -0.53792252D-17 -0.89010009D-02 -0.21491555D-16  0.74728134D-02 -0.65809907D-02
 -0.89182265D-03 -0.10999466D-16  0.19569983D-02  0.31921363D-17  0.75820333D-03
  0.77537107D-04 -0.83574043D-03 -0.50680926D-17  0.96267577D-03  0.17069840D-17
 -0.71240679D-02 -0.93480058D-17  0.41738271D-02  0.87149015D-02 -0.68203094D-17
 -0.24186503D-01  0.12657302D-01  0.34864327D-16  0.11665021D-01 -0.62130043D-17
 -0.22842734D-03  0.20970198D-17  0.91365927D-03  0.10051878D-02  0.50706442D-18
 -0.30075287D-02 -0.31990582D-03 -0.67981239D-17  0.26655092D-03  0.82311339D-17
  0.17517989D-01  0.31594415D-01  0.46585947D-01  0.20866935D-01 -0.78575377D-03
 -0.90681598D-04 -0.16980612D-01 -0.56735642D-17  0.16895646D-01 -0.46576463D-02
  0.16245333D-16  0.22562569D-02  0.68565666D-04  0.56516776D-17 -0.38429220D-03
  0.20601233D-02 -0.15929878D-02 -0.46713553D-03  0.21343904D-17 -0.64594452D-02
  0.77638258D-17  0.15043382D-03  0.17805549D-03 -0.32848930D-03 -0.73991818D-17
 -0.16240560D-03  0.31646859D-17
MO    6     MO 0.0        OCC NO =    2.0000000  ORB. ENERGY =   -0.969765
 -0.12258376D-02 -0.22848035D-02 -0.38742697D-02 -0.58638876D-02 -0.73164196D-02
 -0.62838287D-02 -0.24124840D-02  0.10791189D-04  0.51371255D-01  0.96348063D-01
  0.16425233D+00  0.25669441D+00  0.34324934D+00  0.36651027D+00  0.22407719D+00
 -0.14783252D+00 -0.79720178D-01 -0.67203348D-01 -0.37977274D-02 -0.23293856D-01
 -0.22587205D-01 -0.15237195D-01  0.20317500D-14  0.19701141D-14  0.13290273D-14
  0.46479385D+00  0.45069369D+00  0.30403530D+00 -0.52998910D-02 -0.32149248D-15
  0.10103330D+00 -0.15921640D-02 -0.46132450D-16  0.61897601D-02  0.20783407D-04
  0.11192332D-16 -0.10420936D-03 -0.20064350D-01 -0.11724560D-01  0.31788910D-01
 -0.12823236D-14  0.10926333D-02 -0.32613389D-15 -0.39717569D-02 -0.15504576D-02
  0.55222145D-02  0.39254958D-17  0.10598010D-02  0.69168755D-16 -0.41440068D-03
  0.70653215D-04  0.34374746D-03 -0.95634647D-17  0.16208889D-04  0.10468183D-16
 -0.26296459D-03 -0.12366554D-16  0.30546853D-02 -0.51154649D-03 -0.23514265D-16
 -0.72410068D-02  0.13004403D-02  0.60613927D-16 -0.19230492D-02 -0.13009639D-16
 -0.96787854D-04 -0.30225146D-17  0.36591980D-03  0.24745696D-03 -0.91565774D-18
 -0.59686214D-03  0.42906598D-04  0.99832016D-17 -0.50089726D-03  0.45603403D-17
  0.10667085D-02  0.19876542D-02  0.33616216D-02  0.50624159D-02  0.62675993D-02
  0.53334441D-02  0.20294739D-02 -0.95048920D-05 -0.59469762D-01 -0.11150636D+00
 -0.18970549D+00 -0.29459260D+00 -0.39094152D+00 -0.41199870D+00 -0.25546547D+00
  0.16993573D+00  0.87882560D-01  0.49916095D-01  0.25928263D-02  0.31176643D-01
  0.29944792D-01  0.20999355D-01  0.16667058D-15  0.16008510D-15  0.11226272D-15
  0.23045690D+00  0.22135110D+00  0.15522667D+00  0.11726783D-01 -0.11663730D-16
  0.51849762D-01 -0.12945193D-04  0.12132491D-16 -0.32522984D-03  0.73321865D-04
 -0.51827032D-17 -0.15209936D-03  0.11466565D-01 -0.45166876D-02 -0.69498769D-02
 -0.40877330D-16  0.24661811D-01  0.52767338D-16  0.22677130D-02 -0.26602652D-02
  0.39255219D-03 -0.46922922D-17  0.70430424D-02  0.24441202D-16 -0.20051388D-04
 -0.42006426D-03  0.44011565D-03 -0.18548445D-17 -0.30774533D-03  0.14258540D-17
  0.88860997D-03  0.19796329D-16 -0.52595248D-02 -0.57039915D-02  0.79109965D-17
  0.14456813D-01  0.30381616D-02 -0.67299984D-16  0.13217611D-02  0.96041091D-17
  0.23600458D-03 -0.98261582D-18 -0.30560494D-03 -0.63119037D-03  0.53916659D-17
  0.11570199D-02 -0.76823376D-04 -0.24438185D-17 -0.24020506D-03  0.39960794D-17
  0.53563247D-04  0.99835000D-04  0.16928708D-03  0.25622388D-03  0.31969260D-03