 Molden2AIM, Version 4.0.0 (06/02/2016)           Time: Wed Jun 27 23:20:49 2018
GAUSSIAN             16 MOL ORBITALS    281 PRIMITIVES        3 NUCLEI
  N    1    (CENTRE  1)   0.00000000  0.22103371  0.00325789  CHARGE =  7.0
  O    2    (CENTRE  2)   0.00000000  1.47198705 -2.46518552  CHARGE =  8.0
  Cl   3    (CENTRE  3)   0.00000000 -1.69302075 -2.86917873  CHARGE = 17.0
CENTRE ASSIGNMENTS    1  1  1  1  1  1  1  1  1  1  1  1  1  1  1  1  1  1  1  1
CENTRE ASSIGNMENTS    1  1  1  1  1  1  1  1  1  1  1  1  1  1  1  1  1  1  1  1
CENTRE ASSIGNMENTS    1  1  1  1  1  1  1  1  1  1  1  1  1  1  1  1  1  1  1  1
CENTRE ASSIGNMENTS    1  1  1  1  1  1  1  1  1  1  1  1  1  1  1  2  2  2  2  2
CENTRE ASSIGNMENTS    2  2  2  2  2  2  2  2  2  2  2  2  2  2  2  2  2  2  2  2
CENTRE ASSIGNMENTS    2  2  2  2  2  2  2  2  2  2  2  2  2  2  2  2  2  2  2  2
CENTRE ASSIGNMENTS    2  2  2  2  2  2  2  2  2  2  2  2  2  2  2  2  2  2  2  2
CENTRE ASSIGNMENTS    2  2  2  2  2  2  2  2  2  2  3  3  3  3  3  3  3  3  3  3
CENTRE ASSIGNMENTS    3  3  3  3  3  3  3  3  3  3  3  3  3  3  3  3  3  3  3  3
CENTRE ASSIGNMENTS    3  3  3  3  3  3  3  3  3  3  3  3  3  3  3  3  3  3  3  3
CENTRE ASSIGNMENTS    3  3  3  3  3  3  3  3  3  3  3  3  3  3  3  3  3  3  3  3
CENTRE ASSIGNMENTS    3  3  3  3  3  3  3  3  3  3  3  3  3  3  3  3  3  3  3  3
CENTRE ASSIGNMENTS    3  3  3  3  3  3  3  3  3  3  3  3  3  3  3  3  3  3  3  3
CENTRE ASSIGNMENTS    3  3  3  3  3  3  3  3  3  3  3  3  3  3  3  3  3  3  3  3
CENTRE ASSIGNMENTS    3
TYPE ASSIGNMENTS      1  1  1  1  1  1  1  1  1  1  1  1  1  1  1  1  1  1  1  2
TYPE ASSIGNMENTS      2  2  3  3  3  4  4  4  2  3  4  2  3  4  2  3  4  5  6  7
TYPE ASSIGNMENTS      8  9 10  5  6  7  8  9 10  5  6  7  8  9 10 11 12 13 17 14
TYPE ASSIGNMENTS     15 18 19 16 20 11 12 13 17 14 15 18 19 16 20  1  1  1  1  1
TYPE ASSIGNMENTS      1  1  1  1  1  1  1  1  1  1  1  1  1  1  2  2  2  3  3  3
TYPE ASSIGNMENTS      4  4  4  2  3  4  2  3  4  2  3  4  5  6  7  8  9 10  5  6
TYPE ASSIGNMENTS      7  8  9 10  5  6  7  8  9 10 11 12 13 17 14 15 18 19 16 20
TYPE ASSIGNMENTS     11 12 13 17 14 15 18 19 16 20  1  1  1  1  1  1  1  1  1  1
TYPE ASSIGNMENTS      1  1  1  1  1  1  1  1  1  1  1  1  1  1  1  1  1  1  1  1
TYPE ASSIGNMENTS      1  1  1  1  1  1  1  1  1  1  1  1  2  2  2  2  2  2  2  3
TYPE ASSIGNMENTS      3  3  3  3  3  3  4  4  4  4  4  4  4  2  2  2  2  2  2  2
TYPE ASSIGNMENTS      3  3  3  3  3  3  3  4  4  4  4  4  4  4  2  3  4  2  3  4
TYPE ASSIGNMENTS      2  3  4  5  6  7  8  9 10  5  6  7  8  9 10  5  6  7  8  9
TYPE ASSIGNMENTS     10 11 12 13 17 14 15 18 19 16 20 11 12 13 17 14 15 18 19 16
TYPE ASSIGNMENTS     20
EXPONENTS  0.1142000D+05 0.1712000D+04 0.3893000D+03 0.1100000D+03 0.3557000D+02
EXPONENTS  0.1254000D+02 0.4644000D+01 0.5118000D+00 0.1142000D+05 0.1712000D+04
EXPONENTS  0.3893000D+03 0.1100000D+03 0.3557000D+02 0.1254000D+02 0.4644000D+01
EXPONENTS  0.5118000D+00 0.1293000D+01 0.1787000D+00 0.5760000D-01 0.2663000D+02
EXPONENTS  0.5948000D+01 0.1742000D+01 0.2663000D+02 0.5948000D+01 0.1742000D+01
EXPONENTS  0.2663000D+02 0.5948000D+01 0.1742000D+01 0.5550000D+00 0.5550000D+00
EXPONENTS  0.5550000D+00 0.1725000D+00 0.1725000D+00 0.1725000D+00 0.4910000D-01
EXPONENTS  0.4910000D-01 0.4910000D-01 0.1654000D+01 0.1654000D+01 0.1654000D+01
EXPONENTS  0.1654000D+01 0.1654000D+01 0.1654000D+01 0.4690000D+00 0.4690000D+00
EXPONENTS  0.4690000D+00 0.4690000D+00 0.4690000D+00 0.4690000D+00 0.1510000D+00
EXPONENTS  0.1510000D+00 0.1510000D+00 0.1510000D+00 0.1510000D+00 0.1510000D+00
EXPONENTS  0.1093000D+01 0.1093000D+01 0.1093000D+01 0.1093000D+01 0.1093000D+01
EXPONENTS  0.1093000D+01 0.1093000D+01 0.1093000D+01 0.1093000D+01 0.1093000D+01
EXPONENTS  0.3640000D+00 0.3640000D+00 0.3640000D+00 0.3640000D+00 0.3640000D+00
EXPONENTS  0.3640000D+00 0.3640000D+00 0.3640000D+00 0.3640000D+00 0.3640000D+00
EXPONENTS  0.1533000D+05 0.2299000D+04 0.5224000D+03 0.1473000D+03 0.4755000D+02
EXPONENTS  0.1676000D+02 0.6207000D+01 0.6882000D+00 0.1533000D+05 0.2299000D+04
EXPONENTS  0.5224000D+03 0.1473000D+03 0.4755000D+02 0.1676000D+02 0.6207000D+01
EXPONENTS  0.6882000D+00 0.1752000D+01 0.2384000D+00 0.7376000D-01 0.3446000D+02
EXPONENTS  0.7749000D+01 0.2280000D+01 0.3446000D+02 0.7749000D+01 0.2280000D+01
EXPONENTS  0.3446000D+02 0.7749000D+01 0.2280000D+01 0.7156000D+00 0.7156000D+00
EXPONENTS  0.7156000D+00 0.2140000D+00 0.2140000D+00 0.2140000D+00 0.5974000D-01
EXPONENTS  0.5974000D-01 0.5974000D-01 0.2314000D+01 0.2314000D+01 0.2314000D+01
EXPONENTS  0.2314000D+01 0.2314000D+01 0.2314000D+01 0.6450000D+00 0.6450000D+00
EXPONENTS  0.6450000D+00 0.6450000D+00 0.6450000D+00 0.6450000D+00 0.2140000D+00
EXPONENTS  0.2140000D+00 0.2140000D+00 0.2140000D+00 0.2140000D+00 0.2140000D+00
EXPONENTS  0.1428000D+01 0.1428000D+01 0.1428000D+01 0.1428000D+01 0.1428000D+01
EXPONENTS  0.1428000D+01 0.1428000D+01 0.1428000D+01 0.1428000D+01 0.1428000D+01
EXPONENTS  0.5000000D+00 0.5000000D+00 0.5000000D+00 0.5000000D+00 0.5000000D+00
EXPONENTS  0.5000000D+00 0.5000000D+00 0.5000000D+00 0.5000000D+00 0.5000000D+00
EXPONENTS  0.4561000D+06 0.6833000D+05 0.1555000D+05 0.4405000D+04 0.1439000D+04
EXPONENTS  0.5204000D+03 0.2031000D+03 0.8396000D+02 0.3620000D+02 0.1583000D+02
EXPONENTS  0.6334000D+01 0.2694000D+01 0.4313000D+00 0.4561000D+06 0.6833000D+05
EXPONENTS  0.1555000D+05 0.4405000D+04 0.1439000D+04 0.5204000D+03 0.2031000D+03
EXPONENTS  0.8396000D+02 0.3620000D+02 0.1583000D+02 0.6334000D+01 0.2694000D+01
EXPONENTS  0.4313000D+00 0.4561000D+06 0.6833000D+05 0.1555000D+05 0.4405000D+04
EXPONENTS  0.1439000D+04 0.5204000D+03 0.2031000D+03 0.8396000D+02 0.3620000D+02
EXPONENTS  0.1583000D+02 0.6334000D+01 0.2694000D+01 0.4313000D+00 0.9768000D+00
EXPONENTS  0.1625000D+00 0.5910000D-01 0.6633000D+03 0.1568000D+03 0.4998000D+02
EXPONENTS  0.1842000D+02 0.7240000D+01 0.2922000D+01 0.3818000D+00 0.6633000D+03
EXPONENTS  0.1568000D+03 0.4998000D+02 0.1842000D+02 0.7240000D+01 0.2922000D+01
EXPONENTS  0.3818000D+00 0.6633000D+03 0.1568000D+03 0.4998000D+02 0.1842000D+02
EXPONENTS  0.7240000D+01 0.2922000D+01 0.3818000D+00 0.6633000D+03 0.1568000D+03
EXPONENTS  0.4998000D+02 0.1842000D+02 0.7240000D+01 0.2922000D+01 0.3818000D+00
EXPONENTS  0.6633000D+03 0.1568000D+03 0.4998000D+02 0.1842000D+02 0.7240000D+01
EXPONENTS  0.2922000D+01 0.3818000D+00 0.6633000D+03 0.1568000D+03 0.4998000D+02
EXPONENTS  0.1842000D+02 0.7240000D+01 0.2922000D+01 0.3818000D+00 0.1022000D+01
EXPONENTS  0.1022000D+01 0.1022000D+01 0.1301000D+00 0.1301000D+00 0.1301000D+00
EXPONENTS  0.4190000D-01 0.4190000D-01 0.4190000D-01 0.1046000D+01 0.1046000D+01
EXPONENTS  0.1046000D+01 0.1046000D+01 0.1046000D+01 0.1046000D+01 0.3440000D+00
EXPONENTS  0.3440000D+00 0.3440000D+00 0.3440000D+00 0.3440000D+00 0.3440000D+00
EXPONENTS  0.1350000D+00 0.1350000D+00 0.1350000D+00 0.1350000D+00 0.1350000D+00
EXPONENTS  0.1350000D+00 0.7060000D+00 0.7060000D+00 0.7060000D+00 0.7060000D+00
EXPONENTS  0.7060000D+00 0.7060000D+00 0.7060000D+00 0.7060000D+00 0.7060000D+00
EXPONENTS  0.7060000D+00 0.3120000D+00 0.3120000D+00 0.3120000D+00 0.3120000D+00
EXPONENTS  0.3120000D+00 0.3120000D+00 0.3120000D+00 0.3120000D+00 0.3120000D+00
EXPONENTS  0.3120000D+00
MO    1     MO 0.0        OCC NO =    2.0000000  ORB. ENERGY = -104.967507
  0.45842209D-05  0.85420206D-05  0.14446698D-04  0.21755927D-04  0.26935249D-04
  0.22920681D-04  0.87217421D-05 -0.40847639D-07 -0.33106658D-05 -0.62075293D-05
 -0.10560854D-04 -0.16399892D-04 -0.21763610D-04 -0.22935858D-04 -0.14221695D-04
  0.94602769D-05  0.50767951D-05 -0.20288442D-04 -0.45761084D-05 -0.15314895D-19
 -0.14709774D-19 -0.10315509D-19 -0.85861571D-05 -0.82469013D-05 -0.57832964D-05
 -0.14489087D-04 -0.13916595D-04 -0.97592767D-05 -0.26043872D-19  0.49324013D-05
  0.66707558D-05  0.23355010D-19  0.12831653D-05  0.12984004D-04  0.27295853D-21
  0.25841714D-07  0.45875405D-06 -0.70334925D-05 -0.28361367D-05  0.98696292D-05
 -0.47974709D-19 -0.12131616D-18  0.19265738D-04  0.69046646D-05  0.10070400D-05
 -0.79117046D-05 -0.69924443D-21  0.20798919D-19 -0.13931840D-04  0.10677605D-05
  0.14291326D-06 -0.12106738D-05 -0.58220703D-20 -0.69634354D-20 -0.42153022D-06
  0.10832152D-19 -0.21345428D-05  0.81959966D-06  0.84312303D-20 -0.50910250D-05
 -0.85419732D-05 -0.40927688D-19  0.11494654D-04  0.60831742D-05  0.12564842D-19
  0.18976834D-20 -0.81920976D-06  0.93126829D-06 -0.27806777D-20 -0.13820381D-05
 -0.34119353D-05 -0.29123724D-20  0.38396674D-05  0.61813044D-06  0.79352659D-20
  0.82774791D-05  0.15428156D-04  0.26161041D-04  0.39595954D-04  0.49404190D-04
  0.42431610D-04  0.16290320D-04 -0.72867602D-07 -0.57105202D-05 -0.10710222D-04
 -0.18258581D-04 -0.28534608D-04 -0.38156207D-04 -0.40741934D-04 -0.24908819D-04
  0.16433326D-04  0.26645586D-05 -0.22349648D-04 -0.70964336D-05  0.18152878D-18
  0.17602185D-18  0.11874330D-18 -0.15987818D-04 -0.15502805D-04 -0.10458101D-04
 -0.46134419D-06 -0.44734867D-06 -0.30177877D-06  0.48965136D-19  0.97584351D-05
  0.18475586D-05 -0.23003459D-21  0.25302893D-04  0.83415595D-05  0.37948300D-21
  0.10865127D-05  0.37809056D-06 -0.11769268D-04  0.24971587D-04 -0.13202318D-04
 -0.13506644D-18 -0.16978640D-18  0.15977782D-04  0.96358997D-05 -0.19609924D-04
  0.99740241D-05  0.97017651D-21  0.48907874D-19 -0.12976596D-04  0.25283923D-05
 -0.57846315D-05  0.32562392D-05  0.71868571D-20 -0.10078115D-20 -0.16733432D-05
 -0.46384667D-19  0.70589663D-05 -0.35686134D-05  0.89839045D-19 -0.62280328D-05
 -0.35062839D-06  0.49314957D-19 -0.14948866D-04  0.11056468D-04 -0.40614647D-19
  0.24121893D-20  0.48764142D-05 -0.79697747D-06 -0.29349883D-19 -0.73583156D-05
 -0.15721531D-05  0.22113315D-19 -0.72709270D-05  0.39630855D-05 -0.12784604D-19
  0.61663539D+00  0.11537272D+01  0.19933850D+01  0.32315096D+01  0.49073051D+01
  0.68205770D+01  0.81086821D+01  0.72225903D+01  0.35855101D+01  0.57768312D+00
  0.88689747D-02  0.15848771D-02  0.59224383D-04 -0.52878901D-05 -0.98770195D-05
 -0.17142046D-04 -0.27814575D-04 -0.43053658D-04 -0.61627400D-04 -0.80443008D-04
 -0.85725448D-04 -0.64081513D-04 -0.33827492D-05  0.43466648D-04  0.25824183D-04
 -0.96821325D-07  0.30189888D-05  0.56345077D-05  0.97922784D-05  0.15870403D-04
  0.24649220D-04  0.35310719D-04  0.46624514D-04  0.50414930D-04  0.39525959D-04
  0.19667986D-05 -0.33883740D-04 -0.35075952D-04  0.15872365D-04 -0.29145091D-03
  0.27262449D-04  0.77655313D-05  0.70422888D-17  0.92762748D-17  0.10233904D-16
  0.85004338D-17  0.45147869D-17  0.11644952D-17 -0.11970615D-20  0.18325165D-02
  0.24138356D-02  0.26630261D-02  0.22119493D-02  0.11748200D-02  0.30302035D-03
 -0.31149461D-06  0.76267198D-03  0.10046102D-02  0.11083204D-02  0.92058745D-03
  0.48894636D-03  0.12611353D-03 -0.12964042D-06 -0.18168217D-17 -0.23853537D-17
 -0.27159006D-17 -0.22997131D-17 -0.13173642D-17 -0.29965465D-18  0.14025487D-18
 -0.86181899D-03 -0.11315052D-02 -0.12883019D-02 -0.10908811D-02 -0.62489870D-03
 -0.14214277D-03  0.66530641D-04 -0.36577852D-03 -0.48024038D-03 -0.54678900D-03
 -0.46299847D-03 -0.26522335D-03 -0.60329111D-04  0.28237344D-04 -0.26038396D-18
 -0.12193959D-03 -0.52219949D-04 -0.16970511D-19  0.92205025D-05  0.29484332D-05
  0.12301534D-21  0.33347587D-06  0.10373094D-06 -0.76857640D-05  0.81910895D-05
 -0.50532554D-06 -0.81758713D-19 -0.27765302D-19 -0.39970768D-05 -0.10576024D-04
  0.13716657D-04 -0.31406335D-05  0.37485099D-19  0.21259295D-19  0.16383930D-04
 -0.25005568D-06  0.63806836D-06 -0.38801268D-06 -0.56687447D-20 -0.87894413D-20
  0.26148107D-06 -0.75155921D-20  0.40126738D-05 -0.64100246D-06  0.83728615D-20
 -0.12361494D-04 -0.55509928D-05  0.14173915D-19  0.32347232D-06  0.74740002D-05
  0.41177237D-19 -0.16956522D-20  0.83980050D-06 -0.34362958D-06  0.78970742D-20
 -0.17676271D-05 -0.65310992D-06 -0.28101175D-20 -0.75177444D-06  0.16839987D-05
  0.12415773D-20
MO    2     MO 0.0        OCC NO =    2.0000000  ORB. ENERGY =  -20.706957
  0.36246119D-04  0.67539306D-04  0.11422590D-03  0.17201787D-03  0.21296929D-03
  0.18122725D-03  0.68960312D-04 -0.32297056D-06 -0.15692373D-04 -0.29423347D-04
 -0.50057867D-04 -0.77734582D-04 -0.10315831D-03 -0.10871470D-03 -0.67410050D-04
  0.44841191D-04 -0.23085792D-03 -0.46017227D-04  0.45940552D-04 -0.77133661D-15
 -0.74085960D-15 -0.51954189D-15 -0.21802774D-03 -0.20941304D-03 -0.14685488D-03
  0.28612359D-03  0.27481829D-03  0.19272155D-03  0.14249092D-15  0.27702604D-03
 -0.27601565D-03  0.66059885D-18  0.44669713D-04 -0.18502087D-04 -0.14507353D-19
  0.27244797D-05 -0.56171135D-05 -0.61696309D-04 -0.57691452D-04  0.11938776D-03
  0.33209596D-18  0.18941989D-17 -0.24080993D-03 -0.16975915D-03 -0.28657225D-04
  0.19841638D-03 -0.37237593D-18 -0.12320188D-18 -0.46648695D-03 -0.41865513D-05
  0.16555096D-05  0.25310417D-05  0.14159406D-18 -0.24012454D-18 -0.70636176D-05
  0.12975596D-17 -0.22280725D-03 -0.18266169D-03 -0.11119602D-17 -0.29222124D-03
  0.49387589D-03 -0.27807186D-17  0.96064299D-03  0.54109182D-04  0.15490694D-17
 -0.18209330D-18 -0.20242277D-04 -0.23593452D-04  0.11395233D-19 -0.32290992D-04
  0.88364883D-04  0.53488467D-18  0.93017824D-04 -0.17584526D-04 -0.97117800D-19
  0.49832853D+00  0.92882026D+00  0.15749714D+01  0.23837926D+01  0.29742772D+01
  0.25545074D+01  0.98072507D+00 -0.43868434D-02  0.31162823D-03  0.58446647D-03
  0.99638720D-03  0.15571592D-02  0.20822186D-02  0.22233240D-02  0.13592967D-02
 -0.89678141D-03  0.46825959D-01  0.83671098D-03 -0.25194999D-04 -0.14849119D-16
 -0.14398651D-16 -0.97132448D-17 -0.89465548D-02 -0.86751487D-02 -0.58522041D-02
  0.43819801D-02  0.42490467D-02  0.28663818D-02  0.29109465D-17  0.15295871D-02
 -0.99500961D-03 -0.97710962D-18 -0.25904594D-03  0.62314979D-04 -0.30493109D-19
 -0.35792073D-05 -0.58910202D-05  0.87826775D-03 -0.72403575D-03 -0.15423200D-03
 -0.31261898D-17  0.10174470D-17 -0.14257258D-02  0.41101320D-03 -0.21415330D-03
 -0.19685990D-03 -0.36422866D-18 -0.34041741D-18  0.35800796D-03 -0.41681518D-04
  0.45329446D-04 -0.36479289D-05  0.21516911D-18 -0.32374198D-18 -0.56268748D-04
  0.23254152D-18  0.31281723D-04 -0.43520950D-04  0.89390059D-18 -0.39656749D-03
  0.27135301D-03 -0.15915252D-17  0.30272232D-03 -0.14079016D-03 -0.10611249D-16
  0.34646992D-19 -0.23941973D-04 -0.11771276D-04 -0.66880596D-18  0.39487825D-04
  0.66946287D-05  0.56486498D-18  0.32338093D-04  0.28619198D-04  0.50682871D-18
  0.42737162D-05  0.79961393D-05  0.13815557D-04  0.22396630D-04  0.34011069D-04
  0.47271386D-04  0.56198859D-04  0.50057621D-04  0.24850102D-04  0.40037496D-05
  0.61468221D-07  0.10984311D-07  0.41046655D-09  0.71610312D-06  0.13375778D-05
  0.23214311D-05  0.37667393D-05  0.58304651D-05  0.83457811D-05  0.10893851D-04
  0.11609216D-04  0.86781249D-05  0.45810280D-06 -0.58863935D-05 -0.34971941D-05
  0.13111856D-07 -0.49650817D-05 -0.92666095D-05 -0.16104552D-04 -0.26100741D-04
 -0.40538537D-04 -0.58072624D-04 -0.76679489D-04 -0.82913273D-04 -0.65005081D-04
 -0.32346313D-05  0.55725790D-04  0.57686523D-04 -0.26103968D-04 -0.16836342D-03
 -0.50368994D-04 -0.33655322D-04  0.55289936D-17  0.72829254D-17  0.80347729D-17
  0.66738025D-17  0.35446186D-17  0.91426054D-18 -0.93982875D-21  0.13724758D-02
  0.18078587D-02  0.19944917D-02  0.16566546D-02  0.87988949D-03  0.22694917D-03
 -0.23329603D-06  0.56654397D-03  0.74626555D-03  0.82330573D-03  0.68385004D-03
  0.36320937D-03  0.93682292D-04 -0.96302211D-07 -0.34804037D-17 -0.45695149D-17
 -0.52027288D-17 -0.44054571D-17 -0.25236154D-17 -0.57403496D-18  0.26867995D-18
 -0.14482166D-02 -0.19014022D-02 -0.21648862D-02 -0.18331368D-02 -0.10500913D-02
 -0.23885934D-03  0.11179932D-03 -0.35668153D-03 -0.46829670D-03 -0.53319025D-03
 -0.45148360D-03 -0.25862719D-03 -0.58828713D-04  0.27535075D-04 -0.10439018D-17
 -0.30194281D-03 -0.13129298D-03 -0.87547462D-19 -0.42165062D-04  0.68789624D-05
  0.45009935D-19 -0.15468310D-05 -0.97093881D-07  0.55352588D-04 -0.12887602D-04
 -0.42464986D-04  0.18124805D-18  0.18483320D-17 -0.13650030D-03 -0.74771556D-04
  0.91817029D-04 -0.17045473D-04 -0.16367570D-18 -0.62154415D-18  0.59522437D-04
  0.49359747D-05 -0.12239080D-04  0.73031049D-05  0.65412675D-19  0.11332882D-18
  0.13293444D-05  0.41262624D-19  0.17184277D-03 -0.14411860D-04 -0.97284448D-19
 -0.24221370D-03 -0.38259972D-04 -0.26503424D-19 -0.27331463D-03  0.81495552D-04
  0.63542282D-18  0.26036349D-19  0.50796378D-05  0.50047152D-07  0.43537605D-19
 -0.33435186D-04 -0.13356490D-04 -0.12164665D-18  0.18196272D-04  0.13206348D-04
 -0.10453675D-18
MO    3     MO 0.0        OCC NO =    2.0000000  ORB. ENERGY =  -15.679638
  0.41148465D+00  0.76674105D+00  0.12967513D+01  0.19528357D+01  0.24177372D+01
  0.20573853D+01  0.78287305D+00 -0.36665285D-02  0.22148326D-03  0.41528319D-03
  0.70652026D-03  0.10971514D-02  0.14559837D-02  0.15344069D-02  0.95143018D-03
 -0.63289172D-03  0.35989505D-01 -0.35898159D-03 -0.21661050D-03 -0.11658114D-16
 -0.11197479D-16 -0.78524455D-17  0.91896328D-03  0.88265324D-03  0.61897738D-03
 -0.97780819D-02 -0.93917307D-02 -0.65861299D-02  0.14477069D-17 -0.33894887D-03
  0.21346418D-02 -0.50244043D-19 -0.14027796D-03  0.34472648D-03 -0.20686221D-20
 -0.56964519D-05  0.16992897D-04  0.86009147D-03 -0.10650766D-02  0.20498516D-03
 -0.15609609D-16 -0.18985949D-17 -0.36962385D-03  0.52060276D-03  0.56345012D-04
 -0.57694777D-03 -0.69865006D-18 -0.11112303D-17  0.28404811D-03  0.54278696D-05
  0.85528720D-05 -0.13980742D-04  0.46684972D-19  0.68225787D-20  0.32614940D-04
  0.43889867D-19  0.10429226D-03  0.18344815D-03  0.37900553D-18  0.11518620D-03
 -0.61007034D-03 -0.51067514D-18 -0.42806299D-03  0.59725899D-04  0.80949101D-18
 -0.38845326D-19  0.98100655D-05  0.24320989D-04  0.18513703D-19  0.13247894D-04
 -0.67360812D-04  0.98022274D-19 -0.42678091D-04 -0.56021561D-05 -0.60330809D-19
 -0.10840302D-03 -0.20204929D-03 -0.34260865D-03 -0.51855415D-03 -0.64700417D-03
 -0.55569029D-03 -0.21334031D-03  0.95428429D-06  0.50833277D-04  0.95339070D-04
  0.16253221D-03  0.25400621D-03  0.33965471D-03  0.36267204D-03  0.22173057D-03
 -0.14628436D-03 -0.24150806D-03  0.78245380D-03  0.15916218D-03 -0.18579228D-18
 -0.18015601D-18 -0.12153218D-18  0.15675874D-03  0.15200325D-03  0.10254049D-03
 -0.37889440D-03 -0.36740012D-03 -0.24784595D-03 -0.25297754D-18 -0.30586714D-03
  0.88977537D-03 -0.89422220D-19 -0.25085539D-03  0.61063750D-03 -0.29589126D-20
  0.39060608D-05  0.24717844D-04  0.23050182D-04  0.79722863D-04 -0.10277305D-03
  0.10722356D-18  0.31041837D-18  0.18269966D-04 -0.36607727D-03 -0.20885308D-03
  0.57493036D-03  0.18579276D-18 -0.45212100D-18 -0.88470566D-03 -0.64060450D-04
 -0.51222420D-05  0.69182692D-04  0.31355088D-19 -0.53218480D-19 -0.15426733D-03
 -0.88727046D-20  0.26745894D-03  0.91734995D-04  0.11189801D-18  0.88557430D-04
 -0.43795921D-03 -0.85279893D-19 -0.89093425D-03  0.16275423D-03  0.37076032D-18
  0.77932275D-19  0.36019952D-04  0.54045562D-04 -0.30368923D-19  0.11974847D-03
 -0.15706135D-03 -0.20342790D-18 -0.22780832D-03 -0.50753301D-05  0.31139524D-18
 -0.70953708D-05 -0.13275466D-04 -0.22937064D-04 -0.37183656D-04 -0.56466349D-04
 -0.78481585D-04 -0.93303282D-04 -0.83107387D-04 -0.41256995D-04 -0.66471630D-05
 -0.10205166D-06 -0.18236531D-07 -0.68147071D-09  0.22471577D-04  0.41973679D-04
  0.72847357D-04  0.11820165D-03  0.18296212D-03  0.26189366D-03  0.34185303D-03
  0.36430145D-03  0.27232273D-03  0.14375433D-04 -0.18471718D-03 -0.10974323D-03
  0.41145482D-06 -0.18675663D-04 -0.34855434D-04 -0.60575676D-04 -0.98175350D-04
 -0.15248169D-03 -0.21843442D-03 -0.28842230D-03 -0.31187006D-03 -0.24451017D-03
 -0.12166745D-04  0.20960704D-03  0.21698214D-03 -0.98187488D-04 -0.23485529D-03
  0.21709951D-03  0.13291433D-03 -0.20277873D-17 -0.26710510D-17 -0.29467950D-17
 -0.24476520D-17 -0.13000074D-17 -0.33530983D-18  0.34468711D-21  0.25693819D-02
  0.33844526D-02  0.37338440D-02  0.31013867D-02  0.16472218D-02  0.42486655D-03
 -0.43674837D-06  0.43843573D-02  0.57751826D-02  0.63713793D-02  0.52921629D-02
  0.28107963D-02  0.72498635D-03 -0.74526132D-06  0.25299446D-17  0.33216318D-17
  0.37819222D-17  0.32023764D-17  0.18344445D-17  0.41727248D-18 -0.19530649D-18
 -0.21649515D-02 -0.28424226D-02 -0.32363072D-02 -0.27403720D-02 -0.15697906D-02
 -0.35707290D-03  0.16712977D-03 -0.40900090D-02 -0.53698820D-02 -0.61140057D-02
 -0.51770889D-02 -0.29656359D-02 -0.67457927D-03  0.31574022D-03  0.16098361D-18
 -0.36467420D-03 -0.42854466D-03  0.43094367D-19  0.13621680D-03  0.37652624D-04
  0.25717819D-20  0.69041278D-05  0.28158056D-05  0.89056397D-04 -0.75998211D-04
 -0.13058187D-04  0.96167283D-19  0.93543099D-19 -0.17842104D-03 -0.12952396D-03
  0.28276921D-04  0.10124704D-03 -0.11468762D-18 -0.14640108D-18  0.29278250D-03
 -0.10379412D-04  0.22282444D-04 -0.11903032D-04  0.17301747D-19  0.27299259D-19
  0.51879247D-05  0.33877141D-19 -0.78414308D-04  0.22163784D-04 -0.18523198D-19
 -0.11532392D-03 -0.18670714D-03 -0.83108225D-19  0.35056685D-03  0.12021578D-03
 -0.23378496D-18  0.11090272D-19  0.84439686D-05  0.36769096D-05 -0.15914132D-19
 -0.60572723D-04 -0.47222775D-04 -0.17356683D-19  0.35240817D-04  0.36192046D-04
 -0.39848702D-19
MO    4     MO 0.0        OCC NO =    2.0000000  ORB. ENERGY =  -10.685677
 -0.27505838D-04 -0.51253080D-04 -0.86681807D-04 -0.13053800D-03 -0.16161451D-03
 -0.13752665D-03 -0.52331429D-04  0.24509041D-06  0.11074282D-04  0.20764383D-04
  0.35326394D-04  0.54858160D-04  0.72799969D-04  0.76721174D-04  0.47572022D-04
 -0.31644927D-04 -0.12422771D-03  0.19814950D-03  0.14294127D-03  0.13140194D-15
  0.12620999D-15  0.88507160D-16  0.52110190D-04  0.50051215D-04  0.35099367D-04
  0.93337104D-04  0.89649173D-04  0.62868188D-04 -0.63859204D-16 -0.22940124D-03
 -0.16981501D-03  0.22958775D-16 -0.75696292D-05 -0.16773941D-03 -0.12957374D-18
 -0.16025439D-05 -0.15057105D-04 -0.19802350D-04  0.31761807D-04 -0.11959457D-04
  0.43162816D-17  0.75397419D-17  0.13781569D-03 -0.10280114D-03 -0.27375813D-04
  0.13017695D-03 -0.14712775D-17 -0.24793352D-17  0.26503703D-03 -0.14012950D-04
 -0.31235447D-05  0.17136494D-04  0.68422719D-18  0.74889675D-18 -0.30288167D-05
  0.89803568D-18  0.65950067D-04 -0.48546532D-04  0.10639911D-17  0.11529093D-03
  0.15004273D-03 -0.37580982D-17 -0.31314113D-03 -0.44031353D-05 -0.48885487D-18
 -0.29227418D-18  0.13171918D-04 -0.12842036D-04 -0.22980260D-19  0.61518678D-05
  0.46614989D-04  0.89980279D-18 -0.45667623D-04 -0.80888798D-05  0.18133424D-18
 -0.36065858D-04 -0.67222119D-04 -0.11398644D-03 -0.17252379D-03 -0.21525932D-03
 -0.18487904D-03 -0.70978660D-04  0.31749190D-06  0.66432256D-05  0.12459534D-04
  0.21240775D-04  0.33195196D-04  0.44388302D-04  0.47396358D-04  0.28977204D-04
 -0.19117399D-04 -0.11434005D-03  0.37996103D-03  0.71793139D-04 -0.53586636D-17
 -0.51961011D-17 -0.35052591D-17 -0.17597972D-03 -0.17064113D-03 -0.11511350D-03
 -0.10465557D-03 -0.10148069D-03 -0.68458277D-04 -0.53807668D-18 -0.53242931D-03
 -0.11383864D-03  0.25754555D-18 -0.32089862D-03 -0.58482715D-04 -0.31066425D-19
 -0.14577058D-04 -0.10788193D-04 -0.18661684D-03  0.39987846D-03 -0.21326161D-03
  0.61132342D-18  0.27626567D-17  0.65124571D-04 -0.13337589D-03  0.24679319D-03
 -0.11341730D-03  0.78316515D-18 -0.15040494D-17  0.17128115D-03 -0.27574755D-04
  0.53008639D-04 -0.25433884D-04 -0.15715434D-18 -0.37026347D-19 -0.37806954D-05
 -0.10233547D-17 -0.21413588D-03  0.29138390D-04 -0.40597910D-17  0.28148063D-03
  0.36097807D-04  0.71298552D-17  0.36092702D-03 -0.12351298D-03  0.80664336D-17
  0.14367050D-18  0.11106389D-04  0.13510609D-04  0.11000940D-18 -0.15019007D-04
 -0.24751495D-05 -0.54102089D-18 -0.18300161D-04 -0.38056678D-04 -0.13517999D-18
 -0.19485177D-04 -0.36456841D-04 -0.62989345D-04 -0.10211307D-03 -0.15506685D-03
 -0.21552469D-03 -0.25622776D-03 -0.22822798D-03 -0.11329920D-03 -0.18254317D-04
 -0.28025239D-06 -0.50080827D-07 -0.18714424D-08 -0.17296109D+00 -0.32306648D+00
 -0.56069755D+00 -0.90978426D+00 -0.14082380D+01 -0.20157647D+01 -0.26312026D+01
 -0.28039855D+01 -0.20960361D+01 -0.11064602D+00  0.14217464D+01  0.84468073D+00
 -0.31669195D-02 -0.17327286D-04 -0.32338883D-04 -0.56202133D-04 -0.91087124D-04
 -0.14147256D-03 -0.20266353D-03 -0.26759831D-03 -0.28935315D-03 -0.22685662D-03
 -0.11288310D-04  0.19447348D-03  0.20131610D-03 -0.91098385D-04  0.55602592D-01
  0.67623042D-06 -0.20943221D-03  0.10706638D-15  0.14103045D-15  0.15558962D-15
  0.12923507D-15  0.68639883D-16  0.17704228D-16 -0.18199345D-19  0.49879897D-01
  0.65703019D-01  0.72485822D-01  0.60207807D-01  0.31977829D-01  0.82480149D-02
 -0.84786789D-05  0.19199763D-01  0.25290397D-01  0.27901233D-01  0.23175181D-01
  0.12308902D-01  0.31748248D-02 -0.32636120D-05  0.28594843D-17  0.37542933D-17
  0.42745391D-17  0.36195042D-17  0.20733914D-17  0.47162460D-18 -0.22074627D-18
  0.10592514D-01  0.13907195D-01  0.15834365D-01  0.13407890D-01  0.76805554D-02
  0.17470599D-02 -0.81772017D-03  0.46863288D-02  0.61528061D-02  0.70054224D-02
  0.59319040D-02  0.33980230D-02  0.77293234D-03 -0.36177487D-03  0.19077045D-19
  0.28764882D-02  0.12021435D-02  0.35376331D-18 -0.18107810D-03 -0.60563763D-04
  0.32331427D-18 -0.72318081D-05 -0.48967404D-05 -0.12934228D-02  0.15444406D-02
 -0.25101777D-03 -0.57092907D-17  0.58516574D-17  0.10741692D-02  0.28730050D-03
 -0.35921498D-03  0.71914473D-04 -0.66077579D-19 -0.45358461D-17 -0.33716279D-03
  0.92735287D-06 -0.84776410D-05  0.75502882D-05  0.27496956D-18  0.13987308D-17
 -0.96508742D-05  0.39700068D-19  0.25173634D-04 -0.17403036D-04  0.46196514D-18
 -0.20085378D-04  0.47470600D-05 -0.58106535D-18 -0.55435523D-04  0.47462048D-04
 -0.26393099D-17  0.55182241D-19 -0.30149117D-04  0.15749927D-04 -0.26559651D-19
  0.68149805D-04  0.22131869D-04 -0.13898707D-18  0.22297548D-04 -0.69381652D-04
  0.34081042D-18
MO    5     MO 0.0        OCC NO =    2.0000000  ORB. ENERGY =   -8.152442
 -0.14310197D-03 -0.26664946D-03 -0.45097108D-03 -0.67913746D-03 -0.84081623D-03
 -0.71549666D-03 -0.27225968D-03  0.12751082D-05  0.90953003D-04  0.17053773D-03
  0.29013542D-03  0.45054968D-03  0.59790562D-03  0.63011045D-03  0.39070868D-03
 -0.25989956D-03 -0.25383059D-03  0.14015286D-02  0.11499684D-03 -0.42743061D-16
 -0.41054199D-16 -0.28790038D-16  0.23095542D-03  0.22182992D-03  0.15556245D-03
  0.46738672D-03  0.44891936D-03  0.31481324D-03  0.52091930D-16 -0.33092951D-03
 -0.62724423D-03 -0.69976204D-17 -0.21183192D-04 -0.73515996D-03 -0.29990998D-17
  0.46840532D-05 -0.98158150D-05 -0.59477877D-05  0.24295595D-04 -0.18347807D-04
 -0.33721232D-15  0.70245287D-16  0.25495095D-04 -0.27653981D-03 -0.10465891D-03
  0.38119872D-03 -0.10266581D-16  0.58745699D-17  0.54764266D-03 -0.45911818D-04
 -0.15793426D-04  0.61705244D-04 -0.83324780D-18 -0.94741086D-18  0.11161380D-05
  0.26486133D-18  0.95022050D-04 -0.15807087D-03 -0.14074953D-17  0.14262059D-03
  0.35189906D-03  0.61291135D-18 -0.42768674D-03  0.12231355D-03  0.42774832D-17
  0.15056519D-18  0.43652431D-04 -0.33418196D-04 -0.41323607D-18  0.11620039D-04
  0.82217120D-04 -0.38459486D-19 -0.14257733D-03  0.18037469D-04  0.14843995D-17
 -0.22561631D-03 -0.42051978D-03 -0.71306221D-03 -0.10792529D-02 -0.13465925D-02
 -0.11565433D-02 -0.44401948D-03  0.19861264D-05  0.11916921D-03  0.22350480D-03
  0.38102669D-03  0.59547055D-03  0.79625758D-03  0.85021745D-03  0.51980628D-03
 -0.34293661D-03 -0.17391245D-03  0.15084285D-02  0.45319264D-03  0.19429927D-17
  0.18840493D-17  0.12709686D-17 -0.15769695D-03 -0.15291299D-03 -0.10315420D-03
 -0.16040024D-03 -0.15553428D-03 -0.10492251D-03  0.14061303D-17 -0.96475185D-03
  0.24525667D-04 -0.63861616D-18 -0.13869693D-02 -0.62063870D-03 -0.85966189D-19
 -0.58002966D-04 -0.14560007D-04 -0.30336480D-03  0.47133949D-03 -0.16797469D-03
  0.16231348D-18 -0.10006722D-16 -0.31646139D-03 -0.29795816D-03  0.66773357D-03
 -0.36977541D-03 -0.56033598D-18  0.32441092D-17  0.48266444D-03 -0.99032129D-04
  0.28036128D-03 -0.18132915D-03  0.95176469D-18  0.36326997D-18  0.16578356D-03
 -0.13986286D-17 -0.70718831D-04 -0.11640800D-04  0.13415325D-16  0.11153675D-03
 -0.13357775D-03 -0.92194393D-17  0.10061975D-03  0.16850015D-03 -0.23298342D-16
  0.23813147D-18 -0.79068608D-04  0.28620718D-04 -0.41271345D-17  0.24225235D-04
  0.84765630D-04  0.34127401D-17  0.21298059D-03 -0.17062778D-03  0.19586432D-17
 -0.64472263D-04 -0.12062785D-03 -0.20841820D-03 -0.33787022D-03 -0.51308288D-03
 -0.71312486D-03 -0.84780259D-03 -0.75515733D-03 -0.37488271D-03 -0.60399611D-04
 -0.92729492D-06 -0.16570669D-06 -0.61922005D-08  0.10463593D-02  0.19544490D-02
  0.33920410D-02  0.55039040D-02  0.85193898D-02  0.12194732D-01  0.15917935D-01
  0.16963216D-01  0.12680348D-01  0.66937306D-03 -0.86011116D-02 -0.51100485D-02
  0.19158851D-04  0.16568489D-03  0.30922698D-03  0.53740927D-03  0.87098233D-03
  0.13527719D-02  0.19378848D-02  0.25587963D-02  0.27668178D-02  0.21692211D-02
  0.10793972D-03 -0.18595709D-02 -0.19250006D-02  0.87109001D-03  0.14311058D-02
 -0.27965199D-02 -0.30821595D-03 -0.38061103D-14 -0.50135015D-14 -0.55310666D-14
 -0.45941866D-14 -0.24400841D-14 -0.62936887D-15  0.64696980D-18  0.11085228D+02
  0.14601733D+02  0.16109132D+02  0.13380486D+02  0.71067010D+01  0.18330255D+01
 -0.18842879D-02  0.30030324D+01  0.39556676D+01  0.43640280D+01  0.36248269D+01
  0.19252336D+01  0.49657391D+00 -0.51046110D-03 -0.24642911D-16 -0.32354336D-16
 -0.36837792D-16 -0.31192729D-16 -0.17868396D-16 -0.40644402D-17  0.19023817D-17
  0.38707491D-01  0.50820098D-01  0.57862420D-01  0.48995521D-01  0.28066521D-01
  0.63841597D-02 -0.29881381D-02  0.12936700D-01  0.16984939D-01  0.19338603D-01
  0.16375134D-01  0.93803074D-02  0.21336945D-02 -0.99868645D-03 -0.28418041D-16
  0.87989357D-01  0.23982502D-01 -0.12966127D-17 -0.68084543D-03 -0.23172377D-03
 -0.98610297D-20 -0.19102579D-04  0.11451584D-05 -0.15060474D-02  0.23160701D-02
 -0.81002276D-03  0.11006712D-16 -0.11314851D-16  0.27364662D-02  0.62253711D-03
 -0.88881598D-03  0.26627887D-03  0.11232559D-17  0.47064953D-17 -0.95078080D-03