 Molden2AIM, Version 4.0.0 (06/02/2016)           Time: Wed Jun 27 23:56:27 2018
GAUSSIAN             21 MOL ORBITALS    375 PRIMITIVES        5 NUCLEI
  O    1    (CENTRE  1)   0.00009071  0.00000000 -2.57284511  CHARGE =  8.0
  N    2    (CENTRE  2)  -0.00003024  0.00000000 -0.38384495  CHARGE =  7.0
  F    3    (CENTRE  3)  -1.19096587  2.06192553  0.84746280  CHARGE =  9.0
  F    4    (CENTRE  4)  -1.19096587 -2.06192553  0.84746280  CHARGE =  9.0
  F    5    (CENTRE  5)   2.38187128  0.00000000  0.84734753  CHARGE =  9.0
CENTRE ASSIGNMENTS    1  1  1  1  1  1  1  1  1  1  1  1  1  1  1  1  1  1  1  1
CENTRE ASSIGNMENTS    1  1  1  1  1  1  1  1  1  1  1  1  1  1  1  1  1  1  1  1
CENTRE ASSIGNMENTS    1  1  1  1  1  1  1  1  1  1  1  1  1  1  1  1  1  1  1  1
CENTRE ASSIGNMENTS    1  1  1  1  1  1  1  1  1  1  1  1  1  1  1  2  2  2  2  2
CENTRE ASSIGNMENTS    2  2  2  2  2  2  2  2  2  2  2  2  2  2  2  2  2  2  2  2
CENTRE ASSIGNMENTS    2  2  2  2  2  2  2  2  2  2  2  2  2  2  2  2  2  2  2  2
CENTRE ASSIGNMENTS    2  2  2  2  2  2  2  2  2  2  2  2  2  2  2  2  2  2  2  2
CENTRE ASSIGNMENTS    2  2  2  2  2  2  2  2  2  2  3  3  3  3  3  3  3  3  3  3
CENTRE ASSIGNMENTS    3  3  3  3  3  3  3  3  3  3  3  3  3  3  3  3  3  3  3  3
CENTRE ASSIGNMENTS    3  3  3  3  3  3  3  3  3  3  3  3  3  3  3  3  3  3  3  3
CENTRE ASSIGNMENTS    3  3  3  3  3  3  3  3  3  3  3  3  3  3  3  3  3  3  3  3
CENTRE ASSIGNMENTS    3  3  3  3  3  4  4  4  4  4  4  4  4  4  4  4  4  4  4  4
CENTRE ASSIGNMENTS    4  4  4  4  4  4  4  4  4  4  4  4  4  4  4  4  4  4  4  4
CENTRE ASSIGNMENTS    4  4  4  4  4  4  4  4  4  4  4  4  4  4  4  4  4  4  4  4
CENTRE ASSIGNMENTS    4  4  4  4  4  4  4  4  4  4  4  4  4  4  4  4  4  4  4  4
CENTRE ASSIGNMENTS    5  5  5  5  5  5  5  5  5  5  5  5  5  5  5  5  5  5  5  5
CENTRE ASSIGNMENTS    5  5  5  5  5  5  5  5  5  5  5  5  5  5  5  5  5  5  5  5
CENTRE ASSIGNMENTS    5  5  5  5  5  5  5  5  5  5  5  5  5  5  5  5  5  5  5  5
CENTRE ASSIGNMENTS    5  5  5  5  5  5  5  5  5  5  5  5  5  5  5
TYPE ASSIGNMENTS      1  1  1  1  1  1  1  1  1  1  1  1  1  1  1  1  1  1  1  2
TYPE ASSIGNMENTS      2  2  3  3  3  4  4  4  2  3  4  2  3  4  2  3  4  5  6  7
TYPE ASSIGNMENTS      8  9 10  5  6  7  8  9 10  5  6  7  8  9 10 11 12 13 17 14
TYPE ASSIGNMENTS     15 18 19 16 20 11 12 13 17 14 15 18 19 16 20  1  1  1  1  1
TYPE ASSIGNMENTS      1  1  1  1  1  1  1  1  1  1  1  1  1  1  2  2  2  3  3  3
TYPE ASSIGNMENTS      4  4  4  2  3  4  2  3  4  2  3  4  5  6  7  8  9 10  5  6
TYPE ASSIGNMENTS      7  8  9 10  5  6  7  8  9 10 11 12 13 17 14 15 18 19 16 20
TYPE ASSIGNMENTS     11 12 13 17 14 15 18 19 16 20  1  1  1  1  1  1  1  1  1  1
TYPE ASSIGNMENTS      1  1  1  1  1  1  1  1  1  2  2  2  3  3  3  4  4  4  2  3
TYPE ASSIGNMENTS      4  2  3  4  2  3  4  5  6  7  8  9 10  5  6  7  8  9 10  5
TYPE ASSIGNMENTS      6  7  8  9 10 11 12 13 17 14 15 18 19 16 20 11 12 13 17 14
TYPE ASSIGNMENTS     15 18 19 16 20  1  1  1  1  1  1  1  1  1  1  1  1  1  1  1
TYPE ASSIGNMENTS      1  1  1  1  2  2  2  3  3  3  4  4  4  2  3  4  2  3  4  2
TYPE ASSIGNMENTS      3  4  5  6  7  8  9 10  5  6  7  8  9 10  5  6  7  8  9 10
TYPE ASSIGNMENTS     11 12 13 17 14 15 18 19 16 20 11 12 13 17 14 15 18 19 16 20
TYPE ASSIGNMENTS      1  1  1  1  1  1  1  1  1  1  1  1  1  1  1  1  1  1  1  2
TYPE ASSIGNMENTS      2  2  3  3  3  4  4  4  2  3  4  2  3  4  2  3  4  5  6  7
TYPE ASSIGNMENTS      8  9 10  5  6  7  8  9 10  5  6  7  8  9 10 11 12 13 17 14
TYPE ASSIGNMENTS     15 18 19 16 20 11 12 13 17 14 15 18 19 16 20
EXPONENTS  0.1533000D+05 0.2299000D+04 0.5224000D+03 0.1473000D+03 0.4755000D+02
EXPONENTS  0.1676000D+02 0.6207000D+01 0.6882000D+00 0.1533000D+05 0.2299000D+04
EXPONENTS  0.5224000D+03 0.1473000D+03 0.4755000D+02 0.1676000D+02 0.6207000D+01
EXPONENTS  0.6882000D+00 0.1752000D+01 0.2384000D+00 0.7376000D-01 0.3446000D+02
EXPONENTS  0.7749000D+01 0.2280000D+01 0.3446000D+02 0.7749000D+01 0.2280000D+01
EXPONENTS  0.3446000D+02 0.7749000D+01 0.2280000D+01 0.7156000D+00 0.7156000D+00
EXPONENTS  0.7156000D+00 0.2140000D+00 0.2140000D+00 0.2140000D+00 0.5974000D-01
EXPONENTS  0.5974000D-01 0.5974000D-01 0.2314000D+01 0.2314000D+01 0.2314000D+01
EXPONENTS  0.2314000D+01 0.2314000D+01 0.2314000D+01 0.6450000D+00 0.6450000D+00
EXPONENTS  0.6450000D+00 0.6450000D+00 0.6450000D+00 0.6450000D+00 0.2140000D+00
EXPONENTS  0.2140000D+00 0.2140000D+00 0.2140000D+00 0.2140000D+00 0.2140000D+00
EXPONENTS  0.1428000D+01 0.1428000D+01 0.1428000D+01 0.1428000D+01 0.1428000D+01
EXPONENTS  0.1428000D+01 0.1428000D+01 0.1428000D+01 0.1428000D+01 0.1428000D+01
EXPONENTS  0.5000000D+00 0.5000000D+00 0.5000000D+00 0.5000000D+00 0.5000000D+00
EXPONENTS  0.5000000D+00 0.5000000D+00 0.5000000D+00 0.5000000D+00 0.5000000D+00
EXPONENTS  0.1142000D+05 0.1712000D+04 0.3893000D+03 0.1100000D+03 0.3557000D+02
EXPONENTS  0.1254000D+02 0.4644000D+01 0.5118000D+00 0.1142000D+05 0.1712000D+04
EXPONENTS  0.3893000D+03 0.1100000D+03 0.3557000D+02 0.1254000D+02 0.4644000D+01
EXPONENTS  0.5118000D+00 0.1293000D+01 0.1787000D+00 0.5760000D-01 0.2663000D+02
EXPONENTS  0.5948000D+01 0.1742000D+01 0.2663000D+02 0.5948000D+01 0.1742000D+01
EXPONENTS  0.2663000D+02 0.5948000D+01 0.1742000D+01 0.5550000D+00 0.5550000D+00
EXPONENTS  0.5550000D+00 0.1725000D+00 0.1725000D+00 0.1725000D+00 0.4910000D-01
EXPONENTS  0.4910000D-01 0.4910000D-01 0.1654000D+01 0.1654000D+01 0.1654000D+01
EXPONENTS  0.1654000D+01 0.1654000D+01 0.1654000D+01 0.4690000D+00 0.4690000D+00
EXPONENTS  0.4690000D+00 0.4690000D+00 0.4690000D+00 0.4690000D+00 0.1510000D+00
EXPONENTS  0.1510000D+00 0.1510000D+00 0.1510000D+00 0.1510000D+00 0.1510000D+00
EXPONENTS  0.1093000D+01 0.1093000D+01 0.1093000D+01 0.1093000D+01 0.1093000D+01
EXPONENTS  0.1093000D+01 0.1093000D+01 0.1093000D+01 0.1093000D+01 0.1093000D+01
EXPONENTS  0.3640000D+00 0.3640000D+00 0.3640000D+00 0.3640000D+00 0.3640000D+00
EXPONENTS  0.3640000D+00 0.3640000D+00 0.3640000D+00 0.3640000D+00 0.3640000D+00
EXPONENTS  0.1950000D+05 0.2923000D+04 0.6645000D+03 0.1875000D+03 0.6062000D+02
EXPONENTS  0.2142000D+02 0.7950000D+01 0.8815000D+00 0.1950000D+05 0.2923000D+04
EXPONENTS  0.6645000D+03 0.1875000D+03 0.6062000D+02 0.2142000D+02 0.7950000D+01
EXPONENTS  0.8815000D+00 0.2257000D+01 0.3041000D+00 0.9158000D-01 0.4388000D+02
EXPONENTS  0.9926000D+01 0.2930000D+01 0.4388000D+02 0.9926000D+01 0.2930000D+01
EXPONENTS  0.4388000D+02 0.9926000D+01 0.2930000D+01 0.9132000D+00 0.9132000D+00
EXPONENTS  0.9132000D+00 0.2672000D+00 0.2672000D+00 0.2672000D+00 0.7361000D-01
EXPONENTS  0.7361000D-01 0.7361000D-01 0.3107000D+01 0.3107000D+01 0.3107000D+01
EXPONENTS  0.3107000D+01 0.3107000D+01 0.3107000D+01 0.8550000D+00 0.8550000D+00
EXPONENTS  0.8550000D+00 0.8550000D+00 0.8550000D+00 0.8550000D+00 0.2920000D+00
EXPONENTS  0.2920000D+00 0.2920000D+00 0.2920000D+00 0.2920000D+00 0.2920000D+00
EXPONENTS  0.1917000D+01 0.1917000D+01 0.1917000D+01 0.1917000D+01 0.1917000D+01
EXPONENTS  0.1917000D+01 0.1917000D+01 0.1917000D+01 0.1917000D+01 0.1917000D+01
EXPONENTS  0.7240000D+00 0.7240000D+00 0.7240000D+00 0.7240000D+00 0.7240000D+00
EXPONENTS  0.7240000D+00 0.7240000D+00 0.7240000D+00 0.7240000D+00 0.7240000D+00
EXPONENTS  0.1950000D+05 0.2923000D+04 0.6645000D+03 0.1875000D+03 0.6062000D+02
EXPONENTS  0.2142000D+02 0.7950000D+01 0.8815000D+00 0.1950000D+05 0.2923000D+04
EXPONENTS  0.6645000D+03 0.1875000D+03 0.6062000D+02 0.2142000D+02 0.7950000D+01
EXPONENTS  0.8815000D+00 0.2257000D+01 0.3041000D+00 0.9158000D-01 0.4388000D+02
EXPONENTS  0.9926000D+01 0.2930000D+01 0.4388000D+02 0.9926000D+01 0.2930000D+01
EXPONENTS  0.4388000D+02 0.9926000D+01 0.2930000D+01 0.9132000D+00 0.9132000D+00
EXPONENTS  0.9132000D+00 0.2672000D+00 0.2672000D+00 0.2672000D+00 0.7361000D-01
EXPONENTS  0.7361000D-01 0.7361000D-01 0.3107000D+01 0.3107000D+01 0.3107000D+01
EXPONENTS  0.3107000D+01 0.3107000D+01 0.3107000D+01 0.8550000D+00 0.8550000D+00
EXPONENTS  0.8550000D+00 0.8550000D+00 0.8550000D+00 0.8550000D+00 0.2920000D+00
EXPONENTS  0.2920000D+00 0.2920000D+00 0.2920000D+00 0.2920000D+00 0.2920000D+00
EXPONENTS  0.1917000D+01 0.1917000D+01 0.1917000D+01 0.1917000D+01 0.1917000D+01
EXPONENTS  0.1917000D+01 0.1917000D+01 0.1917000D+01 0.1917000D+01 0.1917000D+01
EXPONENTS  0.7240000D+00 0.7240000D+00 0.7240000D+00 0.7240000D+00 0.7240000D+00
EXPONENTS  0.7240000D+00 0.7240000D+00 0.7240000D+00 0.7240000D+00 0.7240000D+00
EXPONENTS  0.1950000D+05 0.2923000D+04 0.6645000D+03 0.1875000D+03 0.6062000D+02
EXPONENTS  0.2142000D+02 0.7950000D+01 0.8815000D+00 0.1950000D+05 0.2923000D+04
EXPONENTS  0.6645000D+03 0.1875000D+03 0.6062000D+02 0.2142000D+02 0.7950000D+01
EXPONENTS  0.8815000D+00 0.2257000D+01 0.3041000D+00 0.9158000D-01 0.4388000D+02
EXPONENTS  0.9926000D+01 0.2930000D+01 0.4388000D+02 0.9926000D+01 0.2930000D+01
EXPONENTS  0.4388000D+02 0.9926000D+01 0.2930000D+01 0.9132000D+00 0.9132000D+00
EXPONENTS  0.9132000D+00 0.2672000D+00 0.2672000D+00 0.2672000D+00 0.7361000D-01
EXPONENTS  0.7361000D-01 0.7361000D-01 0.3107000D+01 0.3107000D+01 0.3107000D+01
EXPONENTS  0.3107000D+01 0.3107000D+01 0.3107000D+01 0.8550000D+00 0.8550000D+00
EXPONENTS  0.8550000D+00 0.8550000D+00 0.8550000D+00 0.8550000D+00 0.2920000D+00
EXPONENTS  0.2920000D+00 0.2920000D+00 0.2920000D+00 0.2920000D+00 0.2920000D+00
EXPONENTS  0.1917000D+01 0.1917000D+01 0.1917000D+01 0.1917000D+01 0.1917000D+01
EXPONENTS  0.1917000D+01 0.1917000D+01 0.1917000D+01 0.1917000D+01 0.1917000D+01
EXPONENTS  0.7240000D+00 0.7240000D+00 0.7240000D+00 0.7240000D+00 0.7240000D+00
EXPONENTS  0.7240000D+00 0.7240000D+00 0.7240000D+00 0.7240000D+00 0.7240000D+00
MO    1     MO 0.0        OCC NO =    2.0000000  ORB. ENERGY =  -26.408717
  0.17845509D-13  0.33261734D-13  0.56400879D-13  0.85365358D-13  0.10651104D-12
  0.91478781D-13  0.35120483D-13 -0.15709607D-15 -0.11409825D-13 -0.21399409D-13
 -0.36481301D-13 -0.57013172D-13 -0.76237474D-13 -0.81403848D-13 -0.49768716D-13
  0.32834376D-13 -0.22660531D-13  0.19571905D-13  0.10284947D-13  0.14114072D-12
  0.13685902D-12  0.92324287D-13  0.31485701D-03  0.30530539D-03  0.20595721D-03
 -0.92730056D-13 -0.89916962D-13 -0.60657451D-13 -0.12306999D-12 -0.27553308D-03
  0.87232323D-13 -0.11437020D-12 -0.25384043D-03  0.11087195D-12  0.17679726D-14
  0.40629806D-05  0.13395526D-14  0.11697568D-12 -0.36769979D-13 -0.80205701D-13
 -0.33287297D-03  0.13473982D-12  0.31381642D-03 -0.77312697D-13  0.32695935D-13
  0.44616762D-13  0.24107442D-03 -0.19490263D-12 -0.44991872D-03 -0.26430891D-13
 -0.30914576D-14  0.29522349D-13  0.51420522D-04 -0.45410030D-13 -0.97538064D-04
  0.55378560D-13  0.80045213D-04 -0.63048248D-13 -0.29323378D-13  0.79884201D-04
  0.75333213D-13 -0.13681230D-12 -0.32001984D-03  0.11381153D-12  0.10062025D-03
 -0.20052896D-14  0.16789876D-04  0.18543395D-13  0.34563304D-13  0.16835538D-04
 -0.68475692D-13 -0.28547435D-13 -0.67205166D-04  0.12845508D-13  0.17651416D-03
  0.56557789D-13  0.10538711D-12  0.17823603D-12  0.26841358D-12  0.33231342D-12
  0.28278372D-12  0.10760442D-12 -0.50395742D-15 -0.38725191D-13 -0.72610095D-13
 -0.12353138D-12 -0.19183118D-12 -0.25457114D-12 -0.26828304D-12 -0.16635260D-12
  0.11065781D-12 -0.63469067D-13 -0.92248033D-12 -0.39398900D-13  0.14687505D-12
  0.14107173D-12  0.98929236D-13  0.35920869D-03  0.34501566D-03  0.24194879D-03
 -0.10265022D-12 -0.98594314D-13 -0.69141138D-13 -0.28565140D-13 -0.95623062D-04
  0.15028840D-12  0.30939468D-12  0.62557436D-03 -0.32637895D-12 -0.16139487D-14
 -0.55075750D-05 -0.13751604D-14  0.75376913D-13 -0.84431133D-13  0.90542195D-14
 -0.33842364D-03  0.15240351D-12  0.37979128D-03 -0.64874277D-13  0.13403887D-12
 -0.69164595D-13  0.45692307D-03 -0.30837962D-12 -0.74844842D-03  0.86480086D-14
 -0.17899530D-13  0.92515218D-14 -0.56559232D-04  0.18976702D-13  0.28668449D-04
  0.11777929D-12 -0.53073977D-04 -0.12411492D-12 -0.44016271D-12 -0.53550676D-04
 -0.10017265D-12  0.86824828D-13  0.21277261D-03  0.47251743D-12  0.13219237D-02
 -0.93322464D-14 -0.17328226D-04  0.62673933D-14 -0.66207852D-14 -0.17367272D-04
 -0.12900860D-12  0.34617524D-13  0.69351951D-04  0.11020642D-12  0.52916691D-03
 -0.42104049D+00 -0.78483772D+00 -0.13304929D+01 -0.20147584D+01 -0.25194624D+01
 -0.21690224D+01 -0.83385141D+00  0.36132147D-02 -0.37423537D-03 -0.70274775D-03
 -0.11966582D-02 -0.18745580D-02 -0.25121283D-02 -0.27021327D-02 -0.16223569D-02
  0.10669302D-02 -0.40652077D-01 -0.12012771D-02 -0.70751307D-04 -0.26611235D-02
 -0.26025206D-02 -0.17195954D-02  0.47612155D-02  0.46563647D-02  0.30766570D-02
  0.27033130D-02  0.26437810D-02  0.17468579D-02  0.55868702D-03 -0.10505876D-02
 -0.61237722D-03 -0.22123215D-03  0.21678176D-03  0.23362880D-03 -0.31971996D-05
  0.92854910D-05  0.43676589D-05 -0.70233758D-04  0.17168584D-03 -0.10145208D-03
 -0.69837396D-03 -0.46703922D-03  0.60551795D-03 -0.11918391D-03  0.24272404D-03
 -0.12354013D-03 -0.42363177D-03 -0.22267740D-03  0.47579146D-03 -0.17883771D-05
  0.43171328D-05 -0.25287558D-05  0.77919850D-04  0.66186280D-04 -0.81932514D-04
 -0.12268804D-04 -0.63041604D-04 -0.10182996D-04  0.54969066D-04  0.14405699D-03
  0.30198501D-04 -0.18162654D-04  0.45067825D-04  0.35048666D-06  0.55378970D-03
 -0.16279340D-04 -0.29826464D-05  0.26344929D-04  0.53525865D-04 -0.77280230D-05
  0.90962155D-06 -0.46878464D-05  0.16675962D-04 -0.79944410D-04 -0.10477923D-03
  0.42104050D+00  0.78483772D+00  0.13304929D+01  0.20147584D+01  0.25194624D+01
  0.21690224D+01  0.83385141D+00 -0.36132147D-02  0.37423537D-03  0.70274775D-03
  0.11966582D-02  0.18745580D-02  0.25121283D-02  0.27021327D-02  0.16223569D-02
 -0.10669302D-02  0.40652077D-01  0.12012771D-02  0.70751307D-04  0.26611235D-02
  0.26025206D-02  0.17195954D-02  0.47612155D-02  0.46563647D-02  0.30766570D-02
 -0.27033130D-02 -0.26437810D-02 -0.17468579D-02 -0.55868702D-03 -0.10505876D-02
  0.61237722D-03  0.22123215D-03  0.21678176D-03 -0.23362880D-03  0.31971997D-05
  0.92854910D-05 -0.43676589D-05  0.70233758D-04 -0.17168584D-03  0.10145208D-03
 -0.69837396D-03  0.46703922D-03  0.60551795D-03  0.11918391D-03 -0.24272404D-03
  0.12354013D-03 -0.42363177D-03  0.22267740D-03  0.47579146D-03  0.17883770D-05
 -0.43171327D-05  0.25287557D-05  0.77919850D-04 -0.66186280D-04 -0.81932514D-04
  0.12268804D-04 -0.63041604D-04  0.10182996D-04 -0.54969066D-04  0.14405699D-03
 -0.30198502D-04  0.18162654D-04  0.45067825D-04 -0.35048630D-06  0.55378970D-03
  0.16279340D-04 -0.29826464D-05 -0.26344929D-04 -0.53525865D-04 -0.77280230D-05
 -0.90962148D-06  0.46878464D-05  0.16675962D-04  0.79944409D-04 -0.10477923D-03
 -0.64393041D-10 -0.12003142D-09 -0.20348276D-09 -0.30813287D-09 -0.38532124D-09
 -0.33172569D-09 -0.12752747D-09  0.55259739D-12 -0.70600629D-13 -0.13257548D-12
 -0.22575317D-12 -0.35364101D-12 -0.47392056D-12 -0.50976546D-12 -0.30606251D-12
  0.20127958D-12 -0.62596209D-11 -0.15013563D-13  0.67864540D-14  0.98939908D-12
  0.96761069D-12  0.63934129D-12  0.15500154D-03  0.15158812D-03  0.10016068D-03
  0.49346695D-12  0.48259990D-12  0.31887416D-12 -0.31806624D-12 -0.83277756D-04
 -0.18573190D-12 -0.87357556D-13 -0.16634672D-03  0.61965437D-13  0.50013889D-15
  0.37456104D-05 -0.97958643D-17  0.34886550D-13 -0.40714959D-13  0.58284085D-14
 -0.27904001D-03  0.14400422D-12 -0.20286931D-03  0.99632566D-13 -0.55544505D-13
 -0.44088061D-13  0.20408096D-03  0.11817050D-12  0.90280718D-04  0.25728786D-13
 -0.30470432D-14 -0.22681742D-13  0.88651163D-04 -0.22215330D-13  0.32605491D-04
  0.15715651D-13  0.99859938D-04 -0.45223938D-13 -0.15909020D-12 -0.31198588D-03
 -0.75017619D-13  0.11194325D-12  0.12406070D-04  0.21068943D-12  0.50187904D-03
 -0.23272010D-13 -0.43547340D-05  0.20826380D-13  0.67120411D-13  0.40105974D-05
  0.56691020D-14  0.26956180D-14  0.90536045D-05 -0.68148241D-13 -0.24474879D-03
MO    2     MO 0.0        OCC NO =    2.0000000  ORB. ENERGY =  -26.408695
  0.16974248D-04  0.31637814D-04  0.53647250D-04  0.81197612D-04  0.10131091D-03
  0.87012562D-04  0.33405814D-04 -0.14942626D-06 -0.10462628D-04 -0.19622917D-04
 -0.33452772D-04 -0.52280172D-04 -0.69908551D-04 -0.74646034D-04 -0.45637121D-04
  0.30108601D-04 -0.31046638D-04  0.99047107D-05  0.33680454D-05  0.24887667D-03
  0.24132665D-03  0.16279754D-03 -0.19538639D-12 -0.18945907D-12 -0.12780797D-12
 -0.12257220D-03 -0.11885380D-03 -0.80178070D-04 -0.21774235D-03  0.17129861D-12
  0.10253758D-03 -0.20084218D-03  0.16040071D-12  0.13448376D-03  0.32172136D-05
 -0.62329857D-15  0.81787943D-06  0.18739352D-03 -0.75658897D-04 -0.11173463D-03
  0.19292625D-12  0.24825634D-03 -0.18571353D-12 -0.12363795D-03  0.66853201D-04
  0.56784749D-04 -0.14204005D-12 -0.35578361D-03  0.27361765D-12 -0.38868940D-04
  0.17723067D-05  0.37096634D-04 -0.31134761D-13 -0.77170141D-04  0.62925313D-13
  0.93353337D-04 -0.47898625D-13 -0.84507108D-04 -0.26943798D-04 -0.51132675D-13
  0.87001507D-04 -0.25311621D-03  0.19482855D-12  0.16651982D-03 -0.69910078D-13
 -0.65993875D-07 -0.10710973D-13  0.24420772D-04  0.53372845D-04 -0.87135724D-14
 -0.10636928D-03 -0.53174863D-04  0.40846493D-13  0.33106960D-04 -0.10274488D-12
  0.69221794D-04  0.12898462D-03  0.21814533D-03  0.32851478D-03  0.40672261D-03
  0.34610258D-03  0.13169842D-03 -0.61679987D-06 -0.46730518D-04 -0.87620159D-04
 -0.14906796D-03 -0.23148680D-03 -0.30719645D-03 -0.32374289D-03 -0.20074124D-03
  0.13353315D-03 -0.11180497D-03 -0.10743789D-02 -0.18982962D-04  0.28380450D-03
  0.27259083D-03  0.19115951D-03 -0.20565409D-12 -0.19752829D-12 -0.13852047D-12
 -0.15438402D-03 -0.14828400D-03 -0.10398698D-03 -0.75247831D-04  0.38388624D-13
  0.21494714D-03  0.49514561D-03 -0.40622545D-12 -0.39507081D-03 -0.43619091D-05
 -0.70411062D-15  0.43571984D-06  0.13071878D-03 -0.13683903D-03  0.61202523D-05
  0.19722890D-12  0.30077745D-03 -0.22327378D-12 -0.13623685D-03  0.22444382D-03
 -0.88206968D-04 -0.26489418D-12 -0.59158668D-03  0.44160223D-12  0.15899796D-04
 -0.28872539D-04  0.12972743D-04  0.36743253D-13  0.22674969D-04 -0.19755606D-13
  0.15229632D-03  0.31042236D-13 -0.17685825D-03 -0.62527311D-03  0.33245292D-13
 -0.25667889D-03  0.16838414D-03 -0.12637200D-12  0.78725364D-03 -0.80525621D-12
 -0.11229975D-04  0.13726623D-13  0.21507269D-05 -0.20995475D-04  0.72263496D-14
 -0.21230362D-03  0.54685400D-04 -0.48406220D-13  0.20585144D-03 -0.31388309D-12
  0.40270260D+00  0.75065510D+00  0.12725449D+01  0.19270081D+01  0.24097304D+01
  0.20745534D+01  0.79753406D+00 -0.34558456D-02  0.33761758D-03  0.63398602D-03
  0.10795688D-02  0.16911382D-02  0.22663242D-02  0.24377372D-02  0.14636142D-02
 -0.96253428D-03  0.38821935D-01  0.13591834D-02  0.82502193D-04  0.25917609D-02
  0.25346856D-02  0.16747739D-02 -0.42739349D-02 -0.41798150D-02 -0.27617805D-02
 -0.24832771D-02 -0.24285908D-02 -0.16046726D-02 -0.52297110D-03  0.79112554D-03
  0.46645661D-03  0.12460917D-03 -0.44341479D-03 -0.18443645D-03  0.75265177D-05
 -0.78878370D-05 -0.56561425D-05  0.20534431D-03 -0.33410527D-03  0.12876096D-03
  0.55596126D-03  0.21732709D-03 -0.65410072D-03  0.37560742D-05 -0.85017908D-04
  0.81261834D-04  0.43309983D-03  0.28140791D-03 -0.36342280D-03 -0.40369322D-04
  0.66295759D-04 -0.25926438D-04 -0.63595631D-04 -0.25970514D-04  0.89670579D-04
  0.91784538D-04 -0.92939925D-04 -0.48672414D-04 -0.23461053D-03  0.19021953D-03
 -0.12486526D-03 -0.40743085D-04  0.88600249D-04  0.27088251D-03  0.14977020D-05
 -0.14908207D-04  0.42029799D-05 -0.20468150D-05  0.31762044D-04 -0.20721790D-05
  0.65986110D-04  0.12962577D-04 -0.10536761D-04 -0.59845665D-04 -0.11734236D-03
  0.40270260D+00  0.75065510D+00  0.12725449D+01  0.19270081D+01  0.24097304D+01
  0.20745534D+01  0.79753406D+00 -0.34558456D-02  0.33761758D-03  0.63398601D-03
  0.10795688D-02  0.16911382D-02  0.22663241D-02  0.24377372D-02  0.14636142D-02
 -0.96253428D-03  0.38821935D-01  0.13591834D-02  0.82502193D-04  0.25917609D-02
  0.25346856D-02  0.16747739D-02  0.42739349D-02  0.41798149D-02  0.27617805D-02
 -0.24832771D-02 -0.24285908D-02 -0.16046726D-02 -0.52297110D-03 -0.79112554D-03
  0.46645661D-03  0.12460917D-03  0.44341479D-03 -0.18443645D-03  0.75265177D-05
  0.78878370D-05 -0.56561425D-05  0.20534431D-03 -0.33410527D-03  0.12876096D-03
 -0.55596126D-03  0.21732709D-03  0.65410072D-03  0.37560741D-05 -0.85017907D-04
  0.81261833D-04 -0.43309983D-03  0.28140791D-03  0.36342280D-03 -0.40369322D-04
  0.66295759D-04 -0.25926438D-04  0.63595631D-04 -0.25970514D-04 -0.89670578D-04
  0.91784538D-04  0.92939925D-04 -0.48672414D-04 -0.23461053D-03 -0.19021953D-03
 -0.12486526D-03 -0.40743085D-04 -0.88600249D-04  0.27088251D-03 -0.14977027D-05
 -0.14908207D-04 -0.42029799D-05 -0.20468149D-05  0.31762044D-04  0.20721790D-05
  0.65986110D-04  0.12962577D-04  0.10536761D-04 -0.59845665D-04  0.11734236D-03
 -0.17393753D+00 -0.32422709D+00 -0.54964463D+00 -0.83232396D+00 -0.10408240D+01
 -0.89605254D+00 -0.34447531D+00  0.14926679D-02 -0.17475129D-03 -0.32815197D-03
 -0.55878621D-03 -0.87533529D-03 -0.11730523D-02 -0.12617759D-02 -0.75756858D-03
  0.49820897D-03 -0.16853227D-01 -0.28679706D-03 -0.14515278D-04  0.24710977D-02
  0.24166796D-02  0.15968024D-02 -0.95358655D-13 -0.93258682D-13 -0.61619954D-13
  0.12175116D-02  0.11906998D-02  0.78674568D-03 -0.68127081D-03  0.50952578D-13
 -0.37169236D-03 -0.37561218D-04  0.10344460D-12  0.13588917D-03  0.26299589D-05
 -0.69935188D-15  0.33128432D-06  0.12615612D-03 -0.11660777D-03 -0.95483425D-05
  0.15939495D-12  0.36387769D-03  0.12157223D-12  0.20944247D-03 -0.12122805D-03
 -0.88214414D-04 -0.12040303D-12  0.26061212D-03 -0.53759412D-13  0.24831056D-04
  0.46509215D-05 -0.29481978D-04 -0.56127601D-13 -0.52014354D-04 -0.21485092D-13
  0.17968451D-04 -0.60954638D-13 -0.62546578D-04 -0.21567709D-03  0.19960668D-12
 -0.14666395D-03  0.16177173D-03 -0.16742770D-13  0.33430368D-03 -0.31385850D-12
 -0.37483341D-04  0.25411280D-14  0.33960171D-04  0.10437972D-03 -0.52010005D-14
  0.30802877D-05  0.80703021D-05 -0.24223836D-14 -0.10496080D-03  0.15155821D-12
MO    3     MO 0.0        OCC NO =    2.0000000  ORB. ENERGY =  -26.408624
  0.22035203D-04  0.41070783D-04  0.69642439D-04  0.10540708D-03  0.13151725D-03
  0.11295578D-03  0.43365921D-04 -0.19397843D-06 -0.13591889D-04 -0.25491924D-04
 -0.43458143D-04 -0.67916618D-04 -0.90817459D-04 -0.96971873D-04 -0.59286702D-04
  0.39113765D-04 -0.40098959D-04  0.13145911D-04  0.43434167D-05 -0.19278764D-03
 -0.18693916D-03 -0.12610806D-03 -0.23624925D-13 -0.22908230D-13 -0.15453757D-13
 -0.15832683D-03 -0.15352376D-03 -0.10356622D-03  0.16867901D-03  0.21003712D-13
  0.13278922D-03  0.15542865D-03  0.20290939D-13  0.17373473D-03 -0.24902993D-05
  0.28797065D-15  0.10578564D-05 -0.29970852D-04  0.17391137D-03 -0.14394052D-03
  0.21142939D-13 -0.19206071D-03 -0.21292557D-13  0.37129763D-04 -0.11048140D-03
  0.73351633D-04 -0.16146627D-13  0.27539723D-03  0.32775980D-13 -0.82081894D-05
 -0.39697820D-04  0.47906010D-04 -0.37182120D-14  0.59732640D-04  0.81930388D-14
 -0.10131470D-04 -0.55930519D-14 -0.10907964D-03 -0.16565107D-03 -0.65975291D-14
  0.19427547D-03  0.19604548D-03  0.23376685D-13  0.13296345D-03 -0.99076140D-14
 -0.27545269D-04 -0.13821863D-14  0.31524114D-04  0.41505637D-04 -0.76851201D-15
  0.67700116D-05  0.41130169D-04  0.49150708D-14 -0.10134235D-03 -0.11484315D-13
  0.89246622D-04  0.16629794D-03  0.28125150D-03  0.42354918D-03  0.52438136D-03
  0.44622487D-03  0.16979680D-03 -0.79523083D-06 -0.60251181D-04 -0.11297153D-03
 -0.19219818D-03 -0.29846348D-03 -0.39607840D-03 -0.41741226D-03 -0.25882223D-03
  0.17216865D-03 -0.14367361D-03 -0.13883096D-02 -0.24560347D-04 -0.21934077D-03
 -0.21067419D-03 -0.14773929D-03 -0.22391213D-13 -0.21506492D-13 -0.15081837D-13
 -0.19894239D-03 -0.19108179D-03 -0.13399974D-03  0.57837845D-04  0.11880974D-14
  0.27693520D-03 -0.38351695D-03 -0.53039111D-13 -0.51026703D-03  0.33699799D-05
 -0.83834649D-15  0.55149368D-06 -0.10849736D-03  0.99977662D-04  0.85196964D-05
  0.21871840D-13 -0.23345379D-03 -0.25420816D-13  0.19670516D-03 -0.82566477D-04
 -0.11413869D-03 -0.29355549D-13  0.45740510D-03  0.50643446D-13 -0.25697594D-04
  0.89693526D-05  0.16728242D-04  0.48331955D-14 -0.17656265D-04 -0.27260943D-14
  0.28347385D-03  0.35140092D-14 -0.22795743D-03 -0.71991428D-03  0.41120741D-14
  0.74572569D-03 -0.13050727D-03 -0.14654102D-13 -0.61853401D-04 -0.96678461D-13
  0.13735447D-04  0.22117840D-14  0.27955526D-05  0.12925818D-05  0.23238621D-15
  0.15780872D-03 -0.42498923D-04 -0.68677383D-14 -0.16619538D-03 -0.36112825D-13
  0.12305974D+00  0.22938869D+00  0.38887022D+00  0.58886413D+00  0.73637666D+00
  0.63395171D+00  0.24371418D+00 -0.10560534D-02  0.83216048D-04  0.15626500D-03
  0.26609235D-03  0.41683208D-03  0.55860403D-03  0.60085395D-03  0.36075192D-03
 -0.23724564D-03  0.11804719D-01  0.62224806D-03  0.39787590D-04  0.58465299D-03
  0.57177786D-03  0.37779781D-03 -0.11765414D-02 -0.11506318D-02 -0.76027109D-03
 -0.65813070D-03 -0.64363745D-03 -0.42527847D-03 -0.12513824D-04  0.11008943D-03
  0.25066571D-04  0.22418115D-03 -0.21136103D-03 -0.17672799D-04  0.57188740D-06
 -0.49631011D-05 -0.31777633D-05 -0.28484041D-04 -0.42650524D-04  0.71134565D-04
  0.32220742D-03  0.17157233D-03 -0.81820995D-04  0.59124176D-04 -0.47436078D-04
 -0.11688099D-04 -0.32391892D-04  0.60213052D-05 -0.10624136D-03  0.18559065D-04
  0.17389319D-04 -0.35948384D-04 -0.92225989D-04 -0.24423602D-04  0.76863708D-05
  0.11223481D-03  0.18544795D-04 -0.72423676D-04 -0.24597240D-03 -0.19966135D-03
  0.27693014D-03 -0.90732030D-04  0.14402697D-03 -0.59659116D-04  0.51468191D-04
 -0.30930961D-04  0.39286487D-06  0.22160756D-04  0.95047610D-04  0.46242759D-05
 -0.11385589D-03 -0.22547271D-05 -0.58028706D-05  0.47373621D-04 -0.19818443D-04
  0.12305974D+00  0.22938869D+00  0.38887022D+00  0.58886413D+00  0.73637666D+00
  0.63395171D+00  0.24371418D+00 -0.10560534D-02  0.83216048D-04  0.15626500D-03
  0.26609234D-03  0.41683208D-03  0.55860403D-03  0.60085395D-03  0.36075192D-03
 -0.23724564D-03  0.11804719D-01  0.62224806D-03  0.39787590D-04  0.58465299D-03
  0.57177786D-03  0.37779781D-03  0.11765414D-02  0.11506318D-02  0.76027109D-03
 -0.65813070D-03 -0.64363745D-03 -0.42527847D-03 -0.12513824D-04 -0.11008943D-03
  0.25066571D-04  0.22418115D-03  0.21136103D-03 -0.17672799D-04  0.57188740D-06
  0.49631011D-05 -0.31777633D-05 -0.28484041D-04 -0.42650524D-04  0.71134565D-04
 -0.32220742D-03  0.17157233D-03  0.81820995D-04  0.59124176D-04 -0.47436078D-04
 -0.11688099D-04  0.32391892D-04  0.60213051D-05  0.10624135D-03  0.18559065D-04
  0.17389319D-04 -0.35948384D-04  0.92225989D-04 -0.24423602D-04 -0.76863708D-05
  0.11223481D-03 -0.18544795D-04 -0.72423676D-04 -0.24597240D-03  0.19966135D-03
  0.27693014D-03 -0.90732030D-04 -0.14402697D-03 -0.59659116D-04 -0.51468191D-04
 -0.30930961D-04 -0.39286487D-06  0.22160756D-04  0.95047610D-04 -0.46242759D-05
 -0.11385589D-03 -0.22547271D-05  0.58028706D-05  0.47373621D-04  0.19818443D-04
  0.56950337D+00  0.10615790D+01  0.17996373D+01  0.27251813D+01  0.34078488D+01
  0.29338403D+01  0.11278753D+01 -0.48872685D-02  0.47998621D-03  0.90132910D-03
  0.15348080D-02  0.24042677D-02  0.32220015D-02  0.34656971D-02  0.20808000D-02
 -0.13684216D-02  0.54908938D-01  0.18968458D-02  0.11492182D-03 -0.70907166D-02
 -0.69345660D-02 -0.45819609D-02 -0.11764004D-13 -0.11504939D-13 -0.76017996D-14
 -0.35202624D-02 -0.34427397D-02 -0.22747637D-02  0.13614501D-02  0.62037080D-14
  0.67349280D-03 -0.61188525D-03  0.12704313D-13 -0.26552000D-03 -0.14816725D-04
  0.22120110D-15 -0.78090350D-05 -0.61842245D-03  0.43920319D-03  0.17921926D-03
  0.16945590D-13 -0.96144983D-03  0.14387301D-13 -0.36234916D-03  0.24300032D-03
  0.11934884D-03 -0.13638114D-13 -0.64890129D-03 -0.62905317D-14  0.90479833D-04
 -0.57210152D-04 -0.33269681D-04 -0.71016667D-14  0.12927173D-03 -0.28467784D-14
  0.77516948D-04 -0.73253860D-14 -0.61614674D-04 -0.35196835D-03  0.25714175D-13
  0.24801035D-03  0.11941751D-03 -0.37380167D-14 -0.63166331D-04 -0.38993070D-13
 -0.75991998D-05  0.28815047D-15 -0.56916278D-05  0.44716528D-04 -0.11675064D-14
  0.30497096D-04 -0.21918929D-04  0.30305499D-15 -0.13422213D-04  0.18578786D-13
MO    4     MO 0.0        OCC NO =    2.0000000  ORB. ENERGY =  -20.664194
  0.49798655D+00  0.92818286D+00  0.15738906D+01  0.23821567D+01  0.29722361D+01
  0.25527544D+01  0.98005204D+00 -0.43838329D-02  0.44459781D-03  0.83385421D-03
  0.14215386D-02  0.22215882D-02  0.29706867D-02  0.31720008D-02  0.19392991D-02
 -0.12794318D-02  0.47471573D-01  0.99140471D-03 -0.63555064D-04 -0.97892292D-06
 -0.94922594D-06 -0.64034221D-06 -0.43783663D-16 -0.42455426D-16 -0.28640179D-16
  0.12537175D-01  0.12156842D-01  0.82009338D-02  0.30766921D-06  0.13294479D-15
 -0.25941625D-02  0.10392283D-06 -0.16957675D-15  0.15193983D-03  0.37755199D-08
 -0.43833705D-16  0.11602515D-05 -0.71904262D-03 -0.71900920D-03  0.14380518D-02
 -0.57692780D-16 -0.64946493D-06 -0.65704312D-16  0.48179306D-03  0.48182642D-03
 -0.96361948D-03  0.41430733D-16  0.35802758D-06  0.16395535D-15 -0.77000775D-05
 -0.77040614D-05  0.15404139D-04  0.36354312D-16  0.54635164D-07 -0.99565564D-16
 -0.13627086D-04 -0.37450886D-16 -0.21171764D-03  0.40930203D-04 -0.51104235D-16
  0.31757161D-03 -0.48945483D-07  0.16345689D-15  0.31758130D-03  0.17722559D-16
 -0.13306418D-05 -0.27350102D-17 -0.11243379D-03  0.38894628D-05  0.51432371D-17
  0.16865089D-03  0.10246266D-06  0.30617934D-17  0.16865049D-03  0.51515525D-16
  0.38293412D-03  0.71354135D-03  0.12067773D-02  0.18173398D-02  0.22499845D-02
  0.19146353D-02  0.72855404D-03 -0.34121294D-05 -0.27018463D-03 -0.50659871D-03
 -0.86187514D-03 -0.13384011D-02 -0.17761361D-02 -0.18718036D-02 -0.11606377D-02
  0.77205662D-03  0.78539452D-04 -0.25864076D-03  0.67642216D-04 -0.15669274D-06
 -0.15050150D-06 -0.10554204D-06 -0.36806974D-15 -0.35352658D-15 -0.24791724D-15
 -0.43123874D-03 -0.41419965D-03 -0.29046539D-03  0.34933017D-06  0.37384260D-15
 -0.18417306D-02 -0.69088823D-07  0.11515076D-14  0.23766074D-03 -0.45953216D-08