 Molden2AIM, Version 4.0.0 (06/02/2016)           Time: Wed Jun 27 22:27:47 2018
GAUSSIAN             16 MOL ORBITALS    316 PRIMITIVES        4 NUCLEI
  P    1    (CENTRE  1)   0.00000000  0.00000000  1.83306080  CHARGE = 15.0
  P    2    (CENTRE  2)   0.00000000  0.00000000 -1.83306080  CHARGE = 15.0
  H    3    (CENTRE  3)   0.00000000  0.00000000  4.46315705  CHARGE =  1.0
  H    4    (CENTRE  4)   0.00000000  0.00000000 -4.46315705  CHARGE =  1.0
CENTRE ASSIGNMENTS    1  1  1  1  1  1  1  1  1  1  1  1  1  1  1  1  1  1  1  1
CENTRE ASSIGNMENTS    1  1  1  1  1  1  1  1  1  1  1  1  1  1  1  1  1  1  1  1
CENTRE ASSIGNMENTS    1  1  1  1  1  1  1  1  1  1  1  1  1  1  1  1  1  1  1  1
CENTRE ASSIGNMENTS    1  1  1  1  1  1  1  1  1  1  1  1  1  1  1  1  1  1  1  1
CENTRE ASSIGNMENTS    1  1  1  1  1  1  1  1  1  1  1  1  1  1  1  1  1  1  1  1
CENTRE ASSIGNMENTS    1  1  1  1  1  1  1  1  1  1  1  1  1  1  1  1  1  1  1  1
CENTRE ASSIGNMENTS    1  1  1  1  1  1  1  1  1  1  1  2  2  2  2  2  2  2  2  2
CENTRE ASSIGNMENTS    2  2  2  2  2  2  2  2  2  2  2  2  2  2  2  2  2  2  2  2
CENTRE ASSIGNMENTS    2  2  2  2  2  2  2  2  2  2  2  2  2  2  2  2  2  2  2  2
CENTRE ASSIGNMENTS    2  2  2  2  2  2  2  2  2  2  2  2  2  2  2  2  2  2  2  2
CENTRE ASSIGNMENTS    2  2  2  2  2  2  2  2  2  2  2  2  2  2  2  2  2  2  2  2
CENTRE ASSIGNMENTS    2  2  2  2  2  2  2  2  2  2  2  2  2  2  2  2  2  2  2  2
CENTRE ASSIGNMENTS    2  2  2  2  2  2  2  2  2  2  2  2  2  2  2  2  2  2  2  2
CENTRE ASSIGNMENTS    2  2  3  3  3  3  3  3  3  3  3  3  3  3  3  3  3  3  3  3
CENTRE ASSIGNMENTS    3  3  3  3  3  3  3  3  3  4  4  4  4  4  4  4  4  4  4  4
CENTRE ASSIGNMENTS    4  4  4  4  4  4  4  4  4  4  4  4  4  4  4  4
TYPE ASSIGNMENTS      1  1  1  1  1  1  1  1  1  1  1  1  1  1  1  1  1  1  1  1
TYPE ASSIGNMENTS      1  1  1  1  1  1  1  1  1  1  1  1  1  1  1  1  1  1  1  1
TYPE ASSIGNMENTS      1  1  2  2  2  2  2  2  2  3  3  3  3  3  3  3  4  4  4  4
TYPE ASSIGNMENTS      4  4  4  2  2  2  2  2  2  2  3  3  3  3  3  3  3  4  4  4
TYPE ASSIGNMENTS      4  4  4  4  2  3  4  2  3  4  2  3  4  5  6  7  8  9 10  5
TYPE ASSIGNMENTS      6  7  8  9 10  5  6  7  8  9 10 11 12 13 17 14 15 18 19 16
TYPE ASSIGNMENTS     20 11 12 13 17 14 15 18 19 16 20  1  1  1  1  1  1  1  1  1
TYPE ASSIGNMENTS      1  1  1  1  1  1  1  1  1  1  1  1  1  1  1  1  1  1  1  1
TYPE ASSIGNMENTS      1  1  1  1  1  1  1  1  1  1  1  1  1  2  2  2  2  2  2  2
TYPE ASSIGNMENTS      3  3  3  3  3  3  3  4  4  4  4  4  4  4  2  2  2  2  2  2
TYPE ASSIGNMENTS      2  3  3  3  3  3  3  3  4  4  4  4  4  4  4  2  3  4  2  3
TYPE ASSIGNMENTS      4  2  3  4  5  6  7  8  9 10  5  6  7  8  9 10  5  6  7  8
TYPE ASSIGNMENTS      9 10 11 12 13 17 14 15 18 19 16 20 11 12 13 17 14 15 18 19
TYPE ASSIGNMENTS     16 20  1  1  1  1  1  1  2  3  4  2  3  4  2  3  4  5  6  7
TYPE ASSIGNMENTS      8  9 10  5  6  7  8  9 10  1  1  1  1  1  1  2  3  4  2  3
TYPE ASSIGNMENTS      4  2  3  4  5  6  7  8  9 10  5  6  7  8  9 10
EXPONENTS  0.3124000D+06 0.4680000D+05 0.1065000D+05 0.3018000D+04 0.9868000D+03
EXPONENTS  0.3574000D+03 0.1396000D+03 0.5763000D+02 0.2460000D+02 0.1012000D+02
EXPONENTS  0.4283000D+01 0.1805000D+01 0.2782000D+00 0.3124000D+06 0.4680000D+05
EXPONENTS  0.1065000D+05 0.3018000D+04 0.9868000D+03 0.3574000D+03 0.1396000D+03
EXPONENTS  0.5763000D+02 0.2460000D+02 0.1012000D+02 0.4283000D+01 0.1805000D+01
EXPONENTS  0.2782000D+00 0.3124000D+06 0.4680000D+05 0.1065000D+05 0.3018000D+04
EXPONENTS  0.9868000D+03 0.3574000D+03 0.1396000D+03 0.5763000D+02 0.2460000D+02
EXPONENTS  0.1012000D+02 0.4283000D+01 0.1805000D+01 0.2782000D+00 0.6158000D+00
EXPONENTS  0.1055000D+00 0.4090000D-01 0.5049000D+03 0.1194000D+03 0.3796000D+02
EXPONENTS  0.1395000D+02 0.5457000D+01 0.2177000D+01 0.2877000D+00 0.5049000D+03
EXPONENTS  0.1194000D+03 0.3796000D+02 0.1395000D+02 0.5457000D+01 0.2177000D+01
EXPONENTS  0.2877000D+00 0.5049000D+03 0.1194000D+03 0.3796000D+02 0.1395000D+02
EXPONENTS  0.5457000D+01 0.2177000D+01 0.2877000D+00 0.5049000D+03 0.1194000D+03
EXPONENTS  0.3796000D+02 0.1395000D+02 0.5457000D+01 0.2177000D+01 0.2877000D+00
EXPONENTS  0.5049000D+03 0.1194000D+03 0.3796000D+02 0.1395000D+02 0.5457000D+01
EXPONENTS  0.2177000D+01 0.2877000D+00 0.5049000D+03 0.1194000D+03 0.3796000D+02
EXPONENTS  0.1395000D+02 0.5457000D+01 0.2177000D+01 0.2877000D+00 0.8010000D+00
EXPONENTS  0.8010000D+00 0.8010000D+00 0.9714000D-01 0.9714000D-01 0.9714000D-01
EXPONENTS  0.3070000D-01 0.3070000D-01 0.3070000D-01 0.2160000D+00 0.2160000D+00
EXPONENTS  0.2160000D+00 0.2160000D+00 0.2160000D+00 0.2160000D+00 0.6520000D+00
EXPONENTS  0.6520000D+00 0.6520000D+00 0.6520000D+00 0.6520000D+00 0.6520000D+00
EXPONENTS  0.7750000D-01 0.7750000D-01 0.7750000D-01 0.7750000D-01 0.7750000D-01
EXPONENTS  0.7750000D-01 0.4520000D+00 0.4520000D+00 0.4520000D+00 0.4520000D+00
EXPONENTS  0.4520000D+00 0.4520000D+00 0.4520000D+00 0.4520000D+00 0.4520000D+00
EXPONENTS  0.4520000D+00 0.1650000D+00 0.1650000D+00 0.1650000D+00 0.1650000D+00
EXPONENTS  0.1650000D+00 0.1650000D+00 0.1650000D+00 0.1650000D+00 0.1650000D+00
EXPONENTS  0.1650000D+00 0.3124000D+06 0.4680000D+05 0.1065000D+05 0.3018000D+04
EXPONENTS  0.9868000D+03 0.3574000D+03 0.1396000D+03 0.5763000D+02 0.2460000D+02
EXPONENTS  0.1012000D+02 0.4283000D+01 0.1805000D+01 0.2782000D+00 0.3124000D+06
EXPONENTS  0.4680000D+05 0.1065000D+05 0.3018000D+04 0.9868000D+03 0.3574000D+03
EXPONENTS  0.1396000D+03 0.5763000D+02 0.2460000D+02 0.1012000D+02 0.4283000D+01
EXPONENTS  0.1805000D+01 0.2782000D+00 0.3124000D+06 0.4680000D+05 0.1065000D+05
EXPONENTS  0.3018000D+04 0.9868000D+03 0.3574000D+03 0.1396000D+03 0.5763000D+02
EXPONENTS  0.2460000D+02 0.1012000D+02 0.4283000D+01 0.1805000D+01 0.2782000D+00
EXPONENTS  0.6158000D+00 0.1055000D+00 0.4090000D-01 0.5049000D+03 0.1194000D+03
EXPONENTS  0.3796000D+02 0.1395000D+02 0.5457000D+01 0.2177000D+01 0.2877000D+00
EXPONENTS  0.5049000D+03 0.1194000D+03 0.3796000D+02 0.1395000D+02 0.5457000D+01
EXPONENTS  0.2177000D+01 0.2877000D+00 0.5049000D+03 0.1194000D+03 0.3796000D+02
EXPONENTS  0.1395000D+02 0.5457000D+01 0.2177000D+01 0.2877000D+00 0.5049000D+03
EXPONENTS  0.1194000D+03 0.3796000D+02 0.1395000D+02 0.5457000D+01 0.2177000D+01
EXPONENTS  0.2877000D+00 0.5049000D+03 0.1194000D+03 0.3796000D+02 0.1395000D+02
EXPONENTS  0.5457000D+01 0.2177000D+01 0.2877000D+00 0.5049000D+03 0.1194000D+03
EXPONENTS  0.3796000D+02 0.1395000D+02 0.5457000D+01 0.2177000D+01 0.2877000D+00
EXPONENTS  0.8010000D+00 0.8010000D+00 0.8010000D+00 0.9714000D-01 0.9714000D-01
EXPONENTS  0.9714000D-01 0.3070000D-01 0.3070000D-01 0.3070000D-01 0.2160000D+00
EXPONENTS  0.2160000D+00 0.2160000D+00 0.2160000D+00 0.2160000D+00 0.2160000D+00
EXPONENTS  0.6520000D+00 0.6520000D+00 0.6520000D+00 0.6520000D+00 0.6520000D+00
EXPONENTS  0.6520000D+00 0.7750000D-01 0.7750000D-01 0.7750000D-01 0.7750000D-01
EXPONENTS  0.7750000D-01 0.7750000D-01 0.4520000D+00 0.4520000D+00 0.4520000D+00
EXPONENTS  0.4520000D+00 0.4520000D+00 0.4520000D+00 0.4520000D+00 0.4520000D+00
EXPONENTS  0.4520000D+00 0.4520000D+00 0.1650000D+00 0.1650000D+00 0.1650000D+00
EXPONENTS  0.1650000D+00 0.1650000D+00 0.1650000D+00 0.1650000D+00 0.1650000D+00
EXPONENTS  0.1650000D+00 0.1650000D+00 0.3387000D+02 0.5095000D+01 0.1159000D+01
EXPONENTS  0.3258000D+00 0.1027000D+00 0.2526000D-01 0.1407000D+01 0.1407000D+01
EXPONENTS  0.1407000D+01 0.3880000D+00 0.3880000D+00 0.3880000D+00 0.1020000D+00
EXPONENTS  0.1020000D+00 0.1020000D+00 0.1057000D+01 0.1057000D+01 0.1057000D+01
EXPONENTS  0.1057000D+01 0.1057000D+01 0.1057000D+01 0.2470000D+00 0.2470000D+00
EXPONENTS  0.2470000D+00 0.2470000D+00 0.2470000D+00 0.2470000D+00 0.3387000D+02
EXPONENTS  0.5095000D+01 0.1159000D+01 0.3258000D+00 0.1027000D+00 0.2526000D-01
EXPONENTS  0.1407000D+01 0.1407000D+01 0.1407000D+01 0.3880000D+00 0.3880000D+00
EXPONENTS  0.3880000D+00 0.1020000D+00 0.1020000D+00 0.1020000D+00 0.1057000D+01
EXPONENTS  0.1057000D+01 0.1057000D+01 0.1057000D+01 0.1057000D+01 0.1057000D+01
EXPONENTS  0.2470000D+00 0.2470000D+00 0.2470000D+00 0.2470000D+00 0.2470000D+00
EXPONENTS  0.2470000D+00
MO    1     MO 0.0        OCC NO =    2.0000000  ORB. ENERGY =  -79.988346
  0.38422052D+00  0.71887078D+00  0.12412776D+01  0.20074629D+01  0.30298573D+01
  0.41509982D+01  0.47970182D+01  0.40312946D+01  0.17707212D+01  0.20239052D+00
 -0.27277472D-02  0.16965826D-02  0.83454862D-04 -0.94594248D-05 -0.17692863D-04
 -0.30634237D-04 -0.49742840D-04 -0.76393378D-04 -0.10864892D-03 -0.13823830D-03
 -0.14326355D-03 -0.95603200D-04  0.94156962D-05  0.71920577D-04  0.36928273D-04
 -0.16198443D-06  0.49469298D-05  0.92444319D-05  0.16030173D-04  0.25994640D-04
  0.40067958D-04  0.57014515D-04  0.73417449D-04  0.77180235D-04  0.54105711D-04
 -0.62821572D-05 -0.50858055D-04 -0.47864340D-04  0.23341487D-04 -0.30695319D-03
 -0.49379035D-04 -0.11467097D-05  0.10427780D-16  0.13641526D-16  0.14924307D-16
  0.12293491D-16  0.65730492D-17  0.18161973D-17 -0.14886553D-20  0.18094743D-16
  0.23671377D-16  0.25897316D-16  0.21332207D-16  0.11405845D-16  0.31515455D-17
 -0.25831803D-20  0.37093422D-03  0.48525275D-03  0.53088351D-03  0.43730082D-03
  0.23381477D-03  0.64605289D-04 -0.52954054D-07 -0.52757463D-17 -0.69872313D-17
 -0.77190136D-17 -0.66113587D-17 -0.36067463D-17 -0.11086193D-17  0.48265401D-18
 -0.32439310D-17 -0.42962824D-17 -0.47462379D-17 -0.40651673D-17 -0.22177026D-17
 -0.68166363D-18  0.29677247D-18 -0.32406170D-04 -0.42918933D-04 -0.47413891D-04
 -0.40610142D-04 -0.22154369D-04 -0.68096723D-05  0.29646929D-05 -0.17463930D-17
 -0.13052332D-17 -0.26345633D-04 -0.49451164D-19 -0.34060796D-19 -0.12835784D-04
  0.95936449D-21  0.21032083D-20  0.77320442D-06 -0.75953397D-07 -0.75953397D-07
  0.15190679D-06 -0.31903713D-19  0.33436572D-19  0.28579404D-19  0.64064407D-05
  0.64064407D-05 -0.12812881D-04  0.10321397D-17 -0.51384106D-19  0.72908286D-19
  0.77777848D-06  0.77777848D-06 -0.15555570D-05  0.21715210D-20  0.45132804D-20
 -0.80284035D-20 -0.22435409D-19 -0.14782614D-19 -0.24516689D-05 -0.11872269D-19
 -0.36571246D-20  0.36775033D-05  0.79178497D-19  0.48004967D-19  0.36775033D-05
 -0.24127816D-19  0.19993059D-20  0.31608414D-20  0.42676399D-07  0.11527280D-20
  0.36353037D-20 -0.64014598D-07 -0.71506458D-20 -0.13117828D-19 -0.64014598D-07
  0.10992145D-19  0.38422025D+00  0.71887028D+00  0.12412767D+01  0.20074615D+01
  0.30298552D+01  0.41509953D+01  0.47970149D+01  0.40312918D+01  0.17707200D+01
  0.20239038D+00 -0.27277453D-02  0.16965814D-02  0.83454804D-04 -0.94594154D-05
 -0.17692846D-04 -0.30634207D-04 -0.49742790D-04 -0.76393302D-04 -0.10864881D-03
 -0.13823816D-03 -0.14326340D-03 -0.95603105D-04  0.94156869D-05  0.71920506D-04
  0.36928237D-04 -0.16198427D-06  0.49469247D-05  0.92444223D-05  0.16030156D-04
  0.25994613D-04  0.40067917D-04  0.57014456D-04  0.73417373D-04  0.77180155D-04
  0.54105655D-04 -0.62821507D-05 -0.50858002D-04 -0.47864290D-04  0.23341463D-04
 -0.30695297D-03 -0.49379031D-04 -0.11467154D-05  0.75996232D-17  0.99417575D-17
  0.10876631D-16  0.89593282D-17  0.47903484D-17  0.13236197D-17 -0.10849116D-20
  0.25606887D-16  0.33498695D-16  0.36648746D-16  0.30188405D-16  0.16141052D-16
  0.44599292D-17 -0.36556036D-20 -0.37093349D-03 -0.48525179D-03 -0.53088247D-03
 -0.43729995D-03 -0.23381431D-03 -0.64605162D-04  0.52953949D-07 -0.28170881D-17
 -0.37309689D-17 -0.41217184D-17 -0.35302644D-17 -0.19258928D-17 -0.59196896D-18
  0.25772256D-18 -0.39982049D-17 -0.52952475D-17 -0.58498260D-17 -0.50103938D-17
 -0.27333594D-17 -0.84016302D-18  0.36577756D-18  0.32405740D-04  0.42918364D-04
  0.47413262D-04  0.40609604D-04  0.22154076D-04  0.68095820D-05 -0.29646536D-05
 -0.87653281D-18 -0.15861272D-17  0.26345587D-04 -0.31563199D-19 -0.46561681D-19
  0.12835795D-04  0.24365486D-20  0.13146643D-20 -0.77320532D-06 -0.75949473D-07
 -0.75949473D-07  0.15189895D-06  0.22700890D-19 -0.32001093D-19 -0.34562231D-19
  0.64064399D-05  0.64064399D-05 -0.12812880D-04 -0.90373911D-18  0.98346865D-19
 -0.37416109D-19  0.77777831D-06  0.77777831D-06 -0.15555566D-05 -0.18489786D-20
  0.14086218D-19 -0.38942724D-21  0.25172470D-20 -0.11638303D-19  0.24516760D-05
 -0.10179346D-19 -0.13606437D-19 -0.36775139D-05  0.26276056D-20  0.48521346D-19
 -0.36775139D-05 -0.37066167D-19  0.41484849D-20  0.23065496D-20 -0.42675685D-07
  0.43680059D-20  0.23872548D-20  0.64013527D-07 -0.16813460D-19 -0.93069036D-20
  0.64013527D-07  0.11334344D-19 -0.98995298D-06 -0.17854210D-05 -0.26326022D-05
 -0.14564428D-05  0.44957335D-04 -0.65806691D-06  0.53641308D-19  0.22067654D-19
 -0.49275419D-05 -0.86554522D-19 -0.42119973D-19 -0.69953323D-05 -0.93947538D-20
  0.17603643D-19 -0.70088557D-05 -0.12798597D-04 -0.12798597D-04  0.25597195D-04
  0.12649643D-19  0.57000117D-20  0.26209459D-19 -0.38488552D-06 -0.38488552D-06
  0.76977104D-06 -0.74161491D-20  0.67440214D-19  0.40755666D-19 -0.98995436D-06
 -0.17854235D-05 -0.26326059D-05 -0.14563953D-05  0.44957351D-04 -0.65806830D-06
  0.11036443D-19  0.30172399D-19  0.49275427D-05 -0.43290248D-20 -0.65878777D-19
  0.69953617D-05  0.32679942D-19  0.59829404D-21  0.70088594D-05 -0.12798597D-04
 -0.12798597D-04  0.25597195D-04 -0.23109168D-19  0.61549015D-19 -0.23070894D-19
 -0.38488610D-06 -0.38488610D-06  0.76977220D-06  0.82909707D-20 -0.26040689D-19
 -0.54830744D-19
MO    2     MO 0.0        OCC NO =    2.0000000  ORB. ENERGY =  -79.988342
 -0.38422240D+00 -0.71887430D+00 -0.12412836D+01 -0.20074727D+01 -0.30298721D+01
 -0.41510186D+01 -0.47970417D+01 -0.40313144D+01 -0.17707299D+01 -0.20239151D+00
  0.27277606D-02 -0.16965909D-02 -0.83455271D-04  0.13550576D-04  0.25344934D-04
  0.43883383D-04  0.71256356D-04  0.10943311D-03  0.15563901D-03  0.19802564D-03
  0.20522428D-03  0.13695108D-03 -0.13487935D-04 -0.10302585D-03 -0.52899557D-04
  0.23204185D-06 -0.74236468D-05 -0.13872725D-04 -0.24055797D-04 -0.39009048D-04
 -0.60128278D-04 -0.85559255D-04 -0.11017444D-03 -0.11582109D-03 -0.81194136D-04
  0.94273658D-05  0.76320517D-04  0.71827976D-04 -0.35027576D-04  0.31771333D-03
  0.19785830D-04  0.42678229D-06 -0.69500869D-16 -0.90920400D-16 -0.99470104D-16
 -0.81935785D-16 -0.43809195D-16 -0.12104906D-16  0.99218474D-20 -0.17534171D-16
 -0.22938042D-16 -0.25095022D-16 -0.20671340D-16 -0.11052494D-16 -0.30539113D-17
  0.25031539D-20 -0.10585292D-02 -0.13847582D-02 -0.15149740D-02 -0.12479185D-02
 -0.66723357D-03 -0.18436311D-03  0.15111416D-06  0.65854065D-17  0.87217533D-17
  0.96351944D-17  0.82525734D-17  0.45020911D-17  0.13838248D-17 -0.60246885D-18
  0.60029989D-17  0.79504091D-17  0.87830664D-17  0.75227231D-17  0.41039302D-17
  0.12614405D-17 -0.54918704D-18  0.62388427D-03  0.82627621D-03  0.91281325D-03
  0.78182733D-03  0.42651639D-03  0.13109996D-03 -0.57076331D-04  0.18230911D-17
  0.15489656D-17  0.66274626D-04  0.30045509D-19 -0.17047362D-19 -0.30930056D-04
  0.29799264D-20  0.25021022D-20  0.38429123D-06  0.47970973D-05  0.47970973D-05
 -0.95941947D-05  0.25260102D-19  0.21477920D-19  0.86279000D-19 -0.10833622D-05
 -0.10833622D-05  0.21667245D-05 -0.10177027D-17  0.42537970D-22 -0.15452399D-18
 -0.40076391D-06 -0.40076391D-06  0.80152781D-06 -0.21348342D-20 -0.38277160D-19
 -0.31496756D-19  0.49153832D-19  0.46937844D-19 -0.99525498D-05  0.39422011D-19
  0.41045915D-19  0.14928825D-04 -0.18688351D-18 -0.18185945D-18  0.14928825D-04
  0.16113422D-19  0.68206443D-20  0.97044658D-20 -0.12629781D-05  0.74280131D-20
  0.92374533D-20  0.18944671D-05 -0.27889946D-19 -0.38350851D-19  0.18944671D-05
 -0.48748911D-22  0.38422267D+00  0.71887480D+00  0.12412845D+01  0.20074741D+01
  0.30298742D+01  0.41510215D+01  0.47970451D+01  0.40313172D+01  0.17707311D+01
  0.20239165D+00 -0.27277625D-02  0.16965920D-02  0.83455329D-04 -0.13550583D-04
 -0.25344946D-04 -0.43883404D-04 -0.71256391D-04 -0.10943316D-03 -0.15563908D-03
 -0.19802573D-03 -0.20522438D-03 -0.13695115D-03  0.13487942D-04  0.10302590D-03
  0.52899583D-04 -0.23204196D-06  0.74236502D-05  0.13872731D-04  0.24055808D-04
  0.39009066D-04  0.60128306D-04  0.85559294D-04  0.11017449D-03  0.11582114D-03
  0.81194173D-04 -0.94273701D-05 -0.76320552D-04 -0.71828009D-04  0.35027592D-04
 -0.31771354D-03 -0.19785865D-04 -0.42678301D-06  0.10678714D-16  0.13969795D-16
  0.15283446D-16  0.12589322D-16  0.67312230D-17  0.18599022D-17 -0.15244783D-20
  0.28335883D-16  0.37068743D-16  0.40554503D-16  0.33405666D-16  0.17861247D-16
  0.49352360D-17 -0.40451912D-20 -0.10585295D-02 -0.13847586D-02 -0.15149744D-02
 -0.12479189D-02 -0.66723374D-03 -0.18436316D-03  0.15111420D-06 -0.53743167D-17
 -0.71177785D-17 -0.78632332D-17 -0.67348832D-17 -0.36741336D-17 -0.11293323D-17
  0.49167176D-18 -0.61825477D-17 -0.81882046D-17 -0.90457665D-17 -0.77477266D-17
 -0.42266781D-17 -0.12991700D-17  0.56561313D-18  0.62388430D-03  0.82627625D-03
  0.91281329D-03  0.78182737D-03  0.42651641D-03  0.13109996D-03 -0.57076333D-04
 -0.11656104D-17 -0.18337716D-17  0.66274645D-04 -0.94429173D-20  0.56409712D-20
 -0.30930046D-04 -0.37126413D-20 -0.22051237D-20  0.38429068D-06 -0.47970974D-05
 -0.47970974D-05  0.95941948D-05  0.13005262D-19  0.41632978D-19  0.75777119D-19
  0.10833667D-05  0.10833667D-05 -0.21667335D-05 -0.88890019D-18  0.82749356D-20
 -0.12527071D-18  0.40076444D-06  0.40076444D-06 -0.80152888D-06 -0.17268087D-20
 -0.40288854D-19 -0.30221098D-19 -0.33701492D-19 -0.42540317D-19 -0.99525481D-05
 -0.42948607D-19 -0.43673770D-19  0.14928822D-04  0.14405308D-18  0.17129472D-18
  0.14928822D-04 -0.31655912D-19 -0.87525030D-20 -0.93282754D-20 -0.12629781D-05
 -0.87316174D-20 -0.92055247D-20  0.18944671D-05  0.34989126D-19  0.37190351D-19
  0.18944671D-05 -0.38227517D-20 -0.19518681D-05 -0.35202746D-05 -0.51906428D-05
  0.67612550D-04  0.35868192D-04 -0.73001324D-06 -0.13817434D-18 -0.12848085D-18
 -0.18879132D-05  0.21483610D-18  0.20431360D-18 -0.40322494D-04  0.94425876D-19
  0.90166319D-19 -0.77881417D-05 -0.63444127D-07 -0.63444127D-07  0.12688825D-06
  0.99781182D-20 -0.15034715D-18 -0.20948491D-18 -0.73659454D-06 -0.73659454D-06
  0.14731891D-05 -0.52174990D-20 -0.10355504D-18 -0.80808220D-19  0.19518674D-05
  0.35202733D-05  0.51906410D-05 -0.67612551D-04 -0.35868160D-04  0.73001275D-06
  0.13592101D-18  0.12484115D-18 -0.18879096D-05 -0.19008797D-18 -0.20929762D-18
 -0.40322489D-04 -0.99999287D-19 -0.86641434D-19 -0.77881367D-05  0.63435221D-07
  0.63435221D-07 -0.12687044D-06  0.10614075D-19 -0.13133062D-18 -0.19247005D-18
  0.73659429D-06  0.73659429D-06 -0.14731886D-05 -0.10271417D-19 -0.82845080D-19
 -0.85272110D-19
MO    3     MO 0.0        OCC NO =    2.0000000  ORB. ENERGY =   -7.530722
 -0.31800245D-04 -0.59497778D-04 -0.10273509D-03 -0.16614889D-03 -0.25076798D-03
 -0.34355989D-03 -0.39702813D-03 -0.33365255D-03 -0.14655482D-03 -0.16750974D-04
  0.22576366D-06 -0.14041869D-06 -0.69071924D-08 -0.10429068D+00 -0.19506479D+00
 -0.33774414D+00 -0.54841753D+00 -0.84224117D+00 -0.11978603D+01 -0.15240848D+01
 -0.15794884D+01 -0.10540305D+01  0.10380857D+00  0.79292829D+00  0.40713623D+00
 -0.17858872D-02 -0.20575089D-04 -0.38449102D-04 -0.66672105D-04 -0.10811595D-03
 -0.16664918D-03 -0.23713268D-03 -0.30535516D-03 -0.32100520D-03 -0.22503449D-03
  0.26128518D-04  0.21152696D-03  0.19907561D-03 -0.97081058D-04  0.21372413D-01
  0.10911707D-02 -0.25007856D-04  0.43332580D-14  0.56687284D-14  0.62017876D-14
  0.51085534D-14  0.27314269D-14  0.75471976D-15 -0.61860989D-18  0.95060082D-15
  0.12435673D-14  0.13605062D-14  0.11206799D-14  0.59920196D-15  0.16556531D-15
 -0.13570645D-18  0.18914843D-01  0.24744225D-01  0.27071049D-01  0.22299039D-01
  0.11922787D-01  0.32943818D-02 -0.27002568D-05 -0.11239929D-14 -0.14886232D-14
 -0.16445288D-14 -0.14085439D-14 -0.76841400D-15 -0.23619032D-15  0.10282899D-15
  0.79549031D-16  0.10535523D-15  0.11638923D-15  0.99687730D-16  0.54383429D-16
  0.16716040D-16 -0.72775786D-17  0.76807591D-02  0.10172445D-01  0.11237819D-01
  0.96252265D-02  0.52509253D-02  0.16139968D-02 -0.70267768D-03 -0.58566187D-15
  0.60983380D-16  0.12621758D-02 -0.16679271D-17  0.15180854D-17  0.42851974D-03
 -0.15982628D-18  0.34259742D-19 -0.87832283D-05  0.31111917D-04  0.31111917D-04
 -0.62223834D-04 -0.10304847D-16 -0.29445613D-18 -0.27054725D-17 -0.91020357D-04
 -0.91020357D-04  0.18204071D-03  0.73547731D-16 -0.35171037D-17  0.65529079D-17
 -0.31964379D-05 -0.31964379D-05  0.63928758D-05  0.37219143D-18  0.67125381D-18
 -0.27495340D-18  0.67825805D-18  0.41000977D-18 -0.44152620D-04  0.12458949D-17
 -0.87864638D-18  0.66228930D-04 -0.32806690D-17 -0.35138293D-18  0.66228930D-04
 -0.91784953D-18  0.51810425D-19 -0.10429422D-18  0.21220344D-04  0.25650011D-19
 -0.99466885D-19 -0.31830516D-04 -0.18108129D-18  0.41234955D-18 -0.31830516D-04
  0.18982232D-17 -0.31800245D-04 -0.59497777D-04 -0.10273509D-03 -0.16614889D-03
 -0.25076798D-03 -0.34355989D-03 -0.39702813D-03 -0.33365255D-03 -0.14655482D-03
 -0.16750974D-04  0.22576366D-06 -0.14041869D-06 -0.69071924D-08 -0.10429068D+00
 -0.19506479D+00 -0.33774414D+00 -0.54841753D+00 -0.84224117D+00 -0.11978603D+01
 -0.15240848D+01 -0.15794884D+01 -0.10540305D+01  0.10380857D+00  0.79292829D+00
  0.40713623D+00 -0.17858872D-02 -0.20575089D-04 -0.38449102D-04 -0.66672105D-04
 -0.10811595D-03 -0.16664918D-03 -0.23713268D-03 -0.30535516D-03 -0.32100520D-03
 -0.22503449D-03  0.26128518D-04  0.21152696D-03  0.19907561D-03 -0.97081058D-04
  0.21372413D-01  0.10911707D-02 -0.25007841D-04  0.15773352D-14  0.20634554D-14
  0.22574925D-14  0.18595479D-14  0.99425784D-15  0.27472309D-15 -0.22517818D-18
  0.13884537D-14  0.18163624D-14  0.19871642D-14  0.16368723D-14  0.87519826D-15
  0.24182577D-15 -0.19821372D-18 -0.18914843D-01 -0.24744225D-01 -0.27071049D-01
 -0.22299039D-01 -0.11922787D-01 -0.32943818D-02  0.27002568D-05  0.72095471D-16
  0.95483691D-16  0.10548383D-15  0.90347221D-16  0.49287828D-16  0.15149786D-16
 -0.65956863D-17  0.80892333D-16  0.10713431D-15  0.11835463D-15  0.10137110D-15
  0.55301773D-16  0.16998315D-16 -0.74004712D-17 -0.76807591D-02 -0.10172445D-01
 -0.11237819D-01 -0.96252264D-02 -0.52509253D-02 -0.16139967D-02  0.70267767D-03
  0.56479422D-16  0.51081463D-16 -0.12621758D-02  0.64806826D-18 -0.25548171D-18
 -0.42851971D-03 -0.24556402D-19 -0.78004352D-19  0.87832299D-05  0.31111916D-04
  0.31111916D-04 -0.62223832D-04  0.10885376D-16  0.12444915D-17 -0.38017078D-18
 -0.91020357D-04 -0.91020357D-04  0.18204071D-03 -0.76757153D-16 -0.17134720D-18
 -0.18871880D-17 -0.31964382D-05 -0.31964382D-05  0.63928763D-05 -0.38980850D-18
  0.20229395D-17 -0.33254767D-18 -0.37776604D-18  0.68411796D-19  0.44152618D-04
 -0.15891455D-18  0.50915485D-19 -0.66228928D-04  0.12922127D-17 -0.25615087D-18
 -0.66228928D-04 -0.89685309D-18 -0.14541175D-19  0.92224641D-20 -0.21220344D-04
  0.16062441D-19 -0.80827626D-20  0.31830516D-04  0.27561085D-19 -0.19584630D-19
  0.31830516D-04  0.18575032D-17  0.42566438D-04  0.76770323D-04  0.11319780D-03
  0.26007356D-03 -0.89496990D-03  0.11930566D-04 -0.52565718D-17 -0.10979083D-17
 -0.58751246D-04  0.53111825D-17  0.14329114D-17 -0.25964942D-03  0.26375172D-19
  0.56433928D-18  0.15752769D-03 -0.36092349D-04 -0.36092349D-04  0.72184698D-04
  0.11771498D-17  0.23222090D-17  0.16407693D-17  0.36032141D-06  0.36032141D-06
 -0.72064281D-06 -0.15136897D-17 -0.26628214D-17 -0.20412730D-17  0.42566438D-04
  0.76770323D-04  0.11319780D-03  0.26007355D-03 -0.89496988D-03  0.11930569D-04
  0.22809305D-17 -0.26165837D-17  0.58751246D-04 -0.21426668D-17  0.13946552D-17
  0.25964941D-03  0.48178701D-17 -0.33840651D-18 -0.15752768D-03 -0.36092348D-04
 -0.36092348D-04  0.72184696D-04 -0.11357302D-17 -0.64654560D-17 -0.17607159D-17
  0.36032164D-06  0.36032164D-06 -0.72064327D-06  0.13363070D-17  0.16174277D-17
  0.77339634D-18
MO    4     MO 0.0        OCC NO =    2.0000000  ORB. ENERGY =   -7.530256
  0.41327036D-04  0.77322259D-04  0.13351271D-03  0.21592415D-03  0.32589363D-03
  0.44648436D-03  0.51597074D-03  0.43360895D-03  0.19046005D-03  0.21769270D-04
 -0.29339846D-06  0.18248564D-06  0.89764651D-08  0.10427716D+00  0.19503950D+00
  0.33770035D+00  0.54834644D+00  0.84213199D+00  0.11977050D+01  0.15238873D+01
  0.15792837D+01  0.10538939D+01 -0.10379511D+00 -0.79282550D+00 -0.40708346D+00
  0.17856557D-02  0.53666788D-04  0.10028826D-03  0.17390339D-03  0.28200295D-03
  0.43467741D-03  0.61852220D-03  0.79646949D-03  0.83729009D-03  0.58696603D-03
 -0.68152008D-04 -0.55173381D-03 -0.51925649D-03  0.25322022D-03 -0.21246524D-01
 -0.43160583D-03  0.24770565D-04  0.25081898D-14  0.32811909D-14  0.35897378D-14
  0.29569486D-14  0.15810130D-14  0.43684922D-15 -0.35806569D-18 -0.24310985D-14
 -0.31803408D-14 -0.34794042D-14 -0.28660643D-14 -0.15324192D-14 -0.42342230D-15
  0.34706024D-18 -0.46088178D-02 -0.60292133D-02 -0.65961706D-02 -0.54334157D-02
 -0.29051234D-02 -0.80271378D-03  0.65794843D-06 -0.15881946D-14 -0.21034148D-14
 -0.23237084D-14 -0.19902633D-14 -0.10857639D-14 -0.33373537D-15  0.14529669D-15
  0.16415987D-16  0.21741435D-16  0.24018446D-16  0.20571872D-16  0.11222735D-16
  0.34495744D-17 -0.15018239D-17 -0.20602042D-01 -0.27285472D-01 -0.30143117D-01
 -0.25817672D-01 -0.14084517D-01 -0.43292112D-02  0.18847870D-02 -0.80729077D-15
 -0.12527623D-17 -0.23127373D-02 -0.17028663D-17  0.25753107D-18  0.94417522D-03
 -0.14749092D-18 -0.57979988D-20 -0.83845979D-05 -0.28308386D-04 -0.28308386D-04
  0.56616773D-04  0.85893355D-17 -0.34758805D-17 -0.22526341D-17  0.80796112D-04
  0.80796112D-04 -0.16159222D-03 -0.71713828D-16  0.12556698D-17 -0.40067383D-17
  0.25956800D-05  0.25956800D-05 -0.51913600D-05 -0.34325227D-18  0.10095580D-17
  0.47242446D-18  0.10108235D-18 -0.59750779D-18  0.32307024D-03 -0.44107803D-18
  0.45648453D-18 -0.48460536D-03  0.13783097D-18  0.13360388D-17 -0.48460536D-03
 -0.18301319D-17 -0.17910900D-18 -0.16761144D-18  0.30933254D-04 -0.15210126D-18
 -0.19801824D-18 -0.46399881D-04  0.68942826D-18  0.70085257D-18 -0.46399881D-04
  0.59114354D-18 -0.41327036D-04 -0.77322259D-04 -0.13351271D-03 -0.21592415D-03
 -0.32589363D-03 -0.44648436D-03 -0.51597074D-03 -0.43360895D-03 -0.19046005D-03
 -0.21769270D-04  0.29339846D-06 -0.18248564D-06 -0.89764651D-08 -0.10427716D+00
 -0.19503950D+00 -0.33770036D+00 -0.54834644D+00 -0.84213199D+00 -0.11977050D+01
 -0.15238873D+01 -0.15792837D+01 -0.10538939D+01  0.10379511D+00  0.79282551D+00
  0.40708346D+00 -0.17856557D-02 -0.53666788D-04 -0.10028826D-03 -0.17390339D-03
 -0.28200295D-03 -0.43467741D-03 -0.61852220D-03 -0.79646949D-03 -0.83729009D-03
 -0.58696603D-03  0.68152008D-04  0.55173381D-03  0.51925649D-03 -0.25322022D-03
  0.21246524D-01  0.43160584D-03 -0.24770565D-04  0.15376330D-14  0.20115174D-14
  0.22006706D-14  0.18127424D-14  0.96923198D-15  0.26780820D-15 -0.21951035D-18
  0.13335845D-14  0.17445831D-14  0.19086350D-14  0.15721861D-14  0.84061202D-15
  0.23226926D-15 -0.19038068D-18 -0.46088179D-02 -0.60292134D-02 -0.65961707D-02
 -0.54334157D-02 -0.29051234D-02 -0.80271379D-03  0.65794843D-06  0.12616090D-15
  0.16708827D-15  0.18458766D-15  0.15809989D-15  0.86249474D-16  0.26510827D-16
 -0.11541886D-16  0.11894273D-15  0.15752849D-15  0.17402666D-15  0.14905437D-15
  0.81314797D-16  0.24994037D-16 -0.10881528D-16 -0.20602042D-01 -0.27285473D-01
 -0.30143117D-01 -0.25817672D-01 -0.14084517D-01 -0.43292113D-02  0.18847870D-02
  0.62495066D-16  0.54702973D-16 -0.23127373D-02 -0.13792049D-17 -0.36930844D-18
  0.94417522D-03  0.38401952D-19  0.39323379D-19 -0.83845978D-05  0.28308387D-04
  0.28308387D-04 -0.56616773D-04  0.91030972D-17 -0.26744097D-17 -0.14363834D-17
 -0.80796113D-04 -0.80796113D-04  0.16159223D-03 -0.74777895D-16  0.22370498D-17
 -0.74134608D-18 -0.25956800D-05 -0.25956800D-05  0.51913600D-05 -0.36707808D-18
  0.25395647D-17  0.63368290D-18  0.32507036D-18  0.42722741D-18  0.32307024D-03
  0.46731896D-18  0.45622154D-18 -0.48460536D-03 -0.14425300D-17 -0.17379038D-17
 -0.48460536D-03  0.15773220D-17  0.28634428D-18  0.18689887D-18  0.30933254D-04
  0.29142685D-18  0.18830383D-18 -0.46399881D-04 -0.11504597D-17 -0.74900044D-18
 -0.46399881D-04 -0.60550479D-18 -0.43132795D-05 -0.77791772D-05 -0.11470392D-04
 -0.15049410D-02 -0.12134802D-02  0.12115178D-04 -0.28608519D-17  0.86372580D-18
  0.28267232D-03  0.97287619D-18 -0.21661360D-17  0.10071638D-02 -0.13655977D-17
 -0.10303706D-17  0.21470243D-03  0.23028337D-03  0.23028337D-03 -0.46056674D-03
  0.39193181D-17  0.63756059D-17  0.15521626D-17  0.19587901D-04  0.19587901D-04
 -0.39175803D-04 -0.14795645D-17 -0.69354714D-18  0.23677521D-18  0.43132796D-05
  0.77791775D-05  0.11470393D-04  0.15049410D-02  0.12134802D-02 -0.12115178D-04
  0.69164148D-18 -0.41028814D-17  0.28267232D-03  0.56024223D-18  0.36758663D-17
  0.10071638D-02  0.66730474D-17  0.18547335D-17  0.21470243D-03 -0.23028337D-03
 -0.23028337D-03  0.46056674D-03  0.39377057D-17 -0.32960123D-17 -0.57066974D-19
 -0.19587901D-04 -0.19587901D-04  0.39175803D-04 -0.16239595D-17  0.19745163D-17
  0.16159641D-17
MO    5     MO 0.0        OCC NO =    2.0000000  ORB. ENERGY =   -5.422741
 -0.12890761D-03 -0.24118419D-03 -0.41645388D-03 -0.67351230D-03 -0.10165300D-02
 -0.13926775D-02 -0.16094199D-02 -0.13525164D-02 -0.59408448D-03 -0.67902876D-04
  0.91517076D-06 -0.56921064D-06 -0.27999460D-07  0.69800996D-03  0.13055545D-02
  0.22604971D-02  0.36705189D-02  0.56370593D-02  0.80171924D-02  0.10200590D-01
  0.10571402D-01  0.70545501D-02 -0.69478323D-03 -0.53070118D-02 -0.27249334D-02
  0.11952814D-04 -0.66978070D-04 -0.12516333D-03 -0.21703765D-03 -0.35194977D-03
 -0.54249294D-03 -0.77193782D-03 -0.99402241D-03 -0.10449680D-02 -0.73255459D-03
  0.85056143D-04  0.68858353D-03  0.64805066D-03 -0.31602789D-03  0.55188191D-03
 -0.70798243D-03 -0.11917763D-03  0.53962169D-11  0.70592816D-11  0.77231014D-11
  0.63616942D-11  0.34014527D-11  0.93985439D-12 -0.77035643D-15  0.53263723D-12
  0.69679115D-12  0.76231393D-12  0.62793531D-12  0.33574268D-12  0.92768961D-13
 -0.76038550D-16  0.56428705D+01  0.73819515D+01  0.80761136D+01  0.66524783D+01