 Molden2AIM, Version 4.0.0 (06/02/2016)           Time: Wed Jun 27 22:08:38 2018
GAUSSIAN             17 MOL ORBITALS    370 PRIMITIVES        6 NUCLEI
  P    1    (CENTRE  1)   0.14696211  2.11214500 -0.64584036  CHARGE = 15.0
  P    2    (CENTRE  2)  -0.14696211 -2.11214500 -0.64584036  CHARGE = 15.0
  H    3    (CENTRE  3)   0.55721976  2.52506528  1.99855923  CHARGE =  1.0
  H    4    (CENTRE  4)  -2.52544511  2.50673493 -0.47187406  CHARGE =  1.0
  H    5    (CENTRE  5)  -0.55721976 -2.52506528  1.99855923  CHARGE =  1.0
  H    6    (CENTRE  6)   2.52544511 -2.50673493 -0.47187406  CHARGE =  1.0
CENTRE ASSIGNMENTS    1  1  1  1  1  1  1  1  1  1  1  1  1  1  1  1  1  1  1  1
CENTRE ASSIGNMENTS    1  1  1  1  1  1  1  1  1  1  1  1  1  1  1  1  1  1  1  1
CENTRE ASSIGNMENTS    1  1  1  1  1  1  1  1  1  1  1  1  1  1  1  1  1  1  1  1
CENTRE ASSIGNMENTS    1  1  1  1  1  1  1  1  1  1  1  1  1  1  1  1  1  1  1  1
CENTRE ASSIGNMENTS    1  1  1  1  1  1  1  1  1  1  1  1  1  1  1  1  1  1  1  1
CENTRE ASSIGNMENTS    1  1  1  1  1  1  1  1  1  1  1  1  1  1  1  1  1  1  1  1
CENTRE ASSIGNMENTS    1  1  1  1  1  1  1  1  1  1  1  2  2  2  2  2  2  2  2  2
CENTRE ASSIGNMENTS    2  2  2  2  2  2  2  2  2  2  2  2  2  2  2  2  2  2  2  2
CENTRE ASSIGNMENTS    2  2  2  2  2  2  2  2  2  2  2  2  2  2  2  2  2  2  2  2
CENTRE ASSIGNMENTS    2  2  2  2  2  2  2  2  2  2  2  2  2  2  2  2  2  2  2  2
CENTRE ASSIGNMENTS    2  2  2  2  2  2  2  2  2  2  2  2  2  2  2  2  2  2  2  2
CENTRE ASSIGNMENTS    2  2  2  2  2  2  2  2  2  2  2  2  2  2  2  2  2  2  2  2
CENTRE ASSIGNMENTS    2  2  2  2  2  2  2  2  2  2  2  2  2  2  2  2  2  2  2  2
CENTRE ASSIGNMENTS    2  2  3  3  3  3  3  3  3  3  3  3  3  3  3  3  3  3  3  3
CENTRE ASSIGNMENTS    3  3  3  3  3  3  3  3  3  4  4  4  4  4  4  4  4  4  4  4
CENTRE ASSIGNMENTS    4  4  4  4  4  4  4  4  4  4  4  4  4  4  4  4  5  5  5  5
CENTRE ASSIGNMENTS    5  5  5  5  5  5  5  5  5  5  5  5  5  5  5  5  5  5  5  5
CENTRE ASSIGNMENTS    5  5  5  6  6  6  6  6  6  6  6  6  6  6  6  6  6  6  6  6
CENTRE ASSIGNMENTS    6  6  6  6  6  6  6  6  6  6
TYPE ASSIGNMENTS      1  1  1  1  1  1  1  1  1  1  1  1  1  1  1  1  1  1  1  1
TYPE ASSIGNMENTS      1  1  1  1  1  1  1  1  1  1  1  1  1  1  1  1  1  1  1  1
TYPE ASSIGNMENTS      1  1  2  2  2  2  2  2  2  3  3  3  3  3  3  3  4  4  4  4
TYPE ASSIGNMENTS      4  4  4  2  2  2  2  2  2  2  3  3  3  3  3  3  3  4  4  4
TYPE ASSIGNMENTS      4  4  4  4  2  3  4  2  3  4  2  3  4  5  6  7  8  9 10  5
TYPE ASSIGNMENTS      6  7  8  9 10  5  6  7  8  9 10 11 12 13 17 14 15 18 19 16
TYPE ASSIGNMENTS     20 11 12 13 17 14 15 18 19 16 20  1  1  1  1  1  1  1  1  1
TYPE ASSIGNMENTS      1  1  1  1  1  1  1  1  1  1  1  1  1  1  1  1  1  1  1  1
TYPE ASSIGNMENTS      1  1  1  1  1  1  1  1  1  1  1  1  1  2  2  2  2  2  2  2
TYPE ASSIGNMENTS      3  3  3  3  3  3  3  4  4  4  4  4  4  4  2  2  2  2  2  2
TYPE ASSIGNMENTS      2  3  3  3  3  3  3  3  4  4  4  4  4  4  4  2  3  4  2  3
TYPE ASSIGNMENTS      4  2  3  4  5  6  7  8  9 10  5  6  7  8  9 10  5  6  7  8
TYPE ASSIGNMENTS      9 10 11 12 13 17 14 15 18 19 16 20 11 12 13 17 14 15 18 19
TYPE ASSIGNMENTS     16 20  1  1  1  1  1  1  2  3  4  2  3  4  2  3  4  5  6  7
TYPE ASSIGNMENTS      8  9 10  5  6  7  8  9 10  1  1  1  1  1  1  2  3  4  2  3
TYPE ASSIGNMENTS      4  2  3  4  5  6  7  8  9 10  5  6  7  8  9 10  1  1  1  1
TYPE ASSIGNMENTS      1  1  2  3  4  2  3  4  2  3  4  5  6  7  8  9 10  5  6  7
TYPE ASSIGNMENTS      8  9 10  1  1  1  1  1  1  2  3  4  2  3  4  2  3  4  5  6
TYPE ASSIGNMENTS      7  8  9 10  5  6  7  8  9 10
EXPONENTS  0.3124000D+06 0.4680000D+05 0.1065000D+05 0.3018000D+04 0.9868000D+03
EXPONENTS  0.3574000D+03 0.1396000D+03 0.5763000D+02 0.2460000D+02 0.1012000D+02
EXPONENTS  0.4283000D+01 0.1805000D+01 0.2782000D+00 0.3124000D+06 0.4680000D+05
EXPONENTS  0.1065000D+05 0.3018000D+04 0.9868000D+03 0.3574000D+03 0.1396000D+03
EXPONENTS  0.5763000D+02 0.2460000D+02 0.1012000D+02 0.4283000D+01 0.1805000D+01
EXPONENTS  0.2782000D+00 0.3124000D+06 0.4680000D+05 0.1065000D+05 0.3018000D+04
EXPONENTS  0.9868000D+03 0.3574000D+03 0.1396000D+03 0.5763000D+02 0.2460000D+02
EXPONENTS  0.1012000D+02 0.4283000D+01 0.1805000D+01 0.2782000D+00 0.6158000D+00
EXPONENTS  0.1055000D+00 0.4090000D-01 0.5049000D+03 0.1194000D+03 0.3796000D+02
EXPONENTS  0.1395000D+02 0.5457000D+01 0.2177000D+01 0.2877000D+00 0.5049000D+03
EXPONENTS  0.1194000D+03 0.3796000D+02 0.1395000D+02 0.5457000D+01 0.2177000D+01
EXPONENTS  0.2877000D+00 0.5049000D+03 0.1194000D+03 0.3796000D+02 0.1395000D+02
EXPONENTS  0.5457000D+01 0.2177000D+01 0.2877000D+00 0.5049000D+03 0.1194000D+03
EXPONENTS  0.3796000D+02 0.1395000D+02 0.5457000D+01 0.2177000D+01 0.2877000D+00
EXPONENTS  0.5049000D+03 0.1194000D+03 0.3796000D+02 0.1395000D+02 0.5457000D+01
EXPONENTS  0.2177000D+01 0.2877000D+00 0.5049000D+03 0.1194000D+03 0.3796000D+02
EXPONENTS  0.1395000D+02 0.5457000D+01 0.2177000D+01 0.2877000D+00 0.8010000D+00
EXPONENTS  0.8010000D+00 0.8010000D+00 0.9714000D-01 0.9714000D-01 0.9714000D-01
EXPONENTS  0.3070000D-01 0.3070000D-01 0.3070000D-01 0.2160000D+00 0.2160000D+00
EXPONENTS  0.2160000D+00 0.2160000D+00 0.2160000D+00 0.2160000D+00 0.6520000D+00
EXPONENTS  0.6520000D+00 0.6520000D+00 0.6520000D+00 0.6520000D+00 0.6520000D+00
EXPONENTS  0.7750000D-01 0.7750000D-01 0.7750000D-01 0.7750000D-01 0.7750000D-01
EXPONENTS  0.7750000D-01 0.4520000D+00 0.4520000D+00 0.4520000D+00 0.4520000D+00
EXPONENTS  0.4520000D+00 0.4520000D+00 0.4520000D+00 0.4520000D+00 0.4520000D+00
EXPONENTS  0.4520000D+00 0.1650000D+00 0.1650000D+00 0.1650000D+00 0.1650000D+00
EXPONENTS  0.1650000D+00 0.1650000D+00 0.1650000D+00 0.1650000D+00 0.1650000D+00
EXPONENTS  0.1650000D+00 0.3124000D+06 0.4680000D+05 0.1065000D+05 0.3018000D+04
EXPONENTS  0.9868000D+03 0.3574000D+03 0.1396000D+03 0.5763000D+02 0.2460000D+02
EXPONENTS  0.1012000D+02 0.4283000D+01 0.1805000D+01 0.2782000D+00 0.3124000D+06
EXPONENTS  0.4680000D+05 0.1065000D+05 0.3018000D+04 0.9868000D+03 0.3574000D+03
EXPONENTS  0.1396000D+03 0.5763000D+02 0.2460000D+02 0.1012000D+02 0.4283000D+01
EXPONENTS  0.1805000D+01 0.2782000D+00 0.3124000D+06 0.4680000D+05 0.1065000D+05
EXPONENTS  0.3018000D+04 0.9868000D+03 0.3574000D+03 0.1396000D+03 0.5763000D+02
EXPONENTS  0.2460000D+02 0.1012000D+02 0.4283000D+01 0.1805000D+01 0.2782000D+00
EXPONENTS  0.6158000D+00 0.1055000D+00 0.4090000D-01 0.5049000D+03 0.1194000D+03
EXPONENTS  0.3796000D+02 0.1395000D+02 0.5457000D+01 0.2177000D+01 0.2877000D+00
EXPONENTS  0.5049000D+03 0.1194000D+03 0.3796000D+02 0.1395000D+02 0.5457000D+01
EXPONENTS  0.2177000D+01 0.2877000D+00 0.5049000D+03 0.1194000D+03 0.3796000D+02
EXPONENTS  0.1395000D+02 0.5457000D+01 0.2177000D+01 0.2877000D+00 0.5049000D+03
EXPONENTS  0.1194000D+03 0.3796000D+02 0.1395000D+02 0.5457000D+01 0.2177000D+01
EXPONENTS  0.2877000D+00 0.5049000D+03 0.1194000D+03 0.3796000D+02 0.1395000D+02
EXPONENTS  0.5457000D+01 0.2177000D+01 0.2877000D+00 0.5049000D+03 0.1194000D+03
EXPONENTS  0.3796000D+02 0.1395000D+02 0.5457000D+01 0.2177000D+01 0.2877000D+00
EXPONENTS  0.8010000D+00 0.8010000D+00 0.8010000D+00 0.9714000D-01 0.9714000D-01
EXPONENTS  0.9714000D-01 0.3070000D-01 0.3070000D-01 0.3070000D-01 0.2160000D+00
EXPONENTS  0.2160000D+00 0.2160000D+00 0.2160000D+00 0.2160000D+00 0.2160000D+00
EXPONENTS  0.6520000D+00 0.6520000D+00 0.6520000D+00 0.6520000D+00 0.6520000D+00
EXPONENTS  0.6520000D+00 0.7750000D-01 0.7750000D-01 0.7750000D-01 0.7750000D-01
EXPONENTS  0.7750000D-01 0.7750000D-01 0.4520000D+00 0.4520000D+00 0.4520000D+00
EXPONENTS  0.4520000D+00 0.4520000D+00 0.4520000D+00 0.4520000D+00 0.4520000D+00
EXPONENTS  0.4520000D+00 0.4520000D+00 0.1650000D+00 0.1650000D+00 0.1650000D+00
EXPONENTS  0.1650000D+00 0.1650000D+00 0.1650000D+00 0.1650000D+00 0.1650000D+00
EXPONENTS  0.1650000D+00 0.1650000D+00 0.3387000D+02 0.5095000D+01 0.1159000D+01
EXPONENTS  0.3258000D+00 0.1027000D+00 0.2526000D-01 0.1407000D+01 0.1407000D+01
EXPONENTS  0.1407000D+01 0.3880000D+00 0.3880000D+00 0.3880000D+00 0.1020000D+00
EXPONENTS  0.1020000D+00 0.1020000D+00 0.1057000D+01 0.1057000D+01 0.1057000D+01
EXPONENTS  0.1057000D+01 0.1057000D+01 0.1057000D+01 0.2470000D+00 0.2470000D+00
EXPONENTS  0.2470000D+00 0.2470000D+00 0.2470000D+00 0.2470000D+00 0.3387000D+02
EXPONENTS  0.5095000D+01 0.1159000D+01 0.3258000D+00 0.1027000D+00 0.2526000D-01
EXPONENTS  0.1407000D+01 0.1407000D+01 0.1407000D+01 0.3880000D+00 0.3880000D+00
EXPONENTS  0.3880000D+00 0.1020000D+00 0.1020000D+00 0.1020000D+00 0.1057000D+01
EXPONENTS  0.1057000D+01 0.1057000D+01 0.1057000D+01 0.1057000D+01 0.1057000D+01
EXPONENTS  0.2470000D+00 0.2470000D+00 0.2470000D+00 0.2470000D+00 0.2470000D+00
EXPONENTS  0.2470000D+00 0.3387000D+02 0.5095000D+01 0.1159000D+01 0.3258000D+00
EXPONENTS  0.1027000D+00 0.2526000D-01 0.1407000D+01 0.1407000D+01 0.1407000D+01
EXPONENTS  0.3880000D+00 0.3880000D+00 0.3880000D+00 0.1020000D+00 0.1020000D+00
EXPONENTS  0.1020000D+00 0.1057000D+01 0.1057000D+01 0.1057000D+01 0.1057000D+01
EXPONENTS  0.1057000D+01 0.1057000D+01 0.2470000D+00 0.2470000D+00 0.2470000D+00
EXPONENTS  0.2470000D+00 0.2470000D+00 0.2470000D+00 0.3387000D+02 0.5095000D+01
EXPONENTS  0.1159000D+01 0.3258000D+00 0.1027000D+00 0.2526000D-01 0.1407000D+01
EXPONENTS  0.1407000D+01 0.1407000D+01 0.3880000D+00 0.3880000D+00 0.3880000D+00
EXPONENTS  0.1020000D+00 0.1020000D+00 0.1020000D+00 0.1057000D+01 0.1057000D+01
EXPONENTS  0.1057000D+01 0.1057000D+01 0.1057000D+01 0.1057000D+01 0.2470000D+00
EXPONENTS  0.2470000D+00 0.2470000D+00 0.2470000D+00 0.2470000D+00 0.2470000D+00
MO    1     MO 0.0        OCC NO =    2.0000000  ORB. ENERGY =  -79.957549
  0.38423455D+00  0.71889703D+00  0.12413229D+01  0.20075362D+01  0.30299679D+01
  0.41511498D+01  0.47971934D+01  0.40314418D+01  0.17707859D+01  0.20239791D+00
 -0.27278468D-02  0.16966445D-02  0.83457910D-04 -0.36426301D-04 -0.68131581D-04
 -0.11796615D-03 -0.19154945D-03 -0.29417520D-03 -0.41838467D-03 -0.53232729D-03
 -0.55167848D-03 -0.36814828D-03  0.36257911D-04  0.27695136D-03  0.14220319D-03
 -0.62376877D-06  0.17516636D-04  0.32733707D-04  0.56761407D-04  0.92044694D-04
  0.14187706D-03  0.20188330D-03  0.25996462D-03  0.27328831D-03  0.19158348D-03
 -0.22244557D-04 -0.18008382D-03 -0.16948335D-03  0.82650119D-04 -0.34446549D-03
 -0.48996356D-04 -0.34835011D-05 -0.56222463D-03 -0.73549712D-03 -0.80465962D-03
 -0.66281642D-03 -0.35439281D-03 -0.97922173D-04  0.80262407D-07 -0.45150037D-03
 -0.59064865D-03 -0.64619032D-03 -0.53228165D-03 -0.28459886D-03 -0.78637425D-04
  0.64455565D-07  0.70813370D-03  0.92637403D-03  0.10134856D-02  0.83483116D-03
  0.44636517D-03  0.12333503D-03 -0.10109218D-06  0.23562621D-03  0.31206481D-03
  0.34474779D-03  0.29527753D-03  0.16108507D-03  0.49513326D-04 -0.21556369D-04
  0.17678087D-03  0.23412969D-03  0.25865041D-03  0.22153486D-03  0.12085565D-03
  0.37147859D-04 -0.16172877D-04 -0.29651748D-03 -0.39270960D-03 -0.43383861D-03
 -0.37158410D-03 -0.20271319D-03 -0.62308718D-04  0.27127034D-04  0.38357504D-04
  0.26678807D-04 -0.48677764D-04  0.80832714D-05  0.42516524D-05 -0.72522793D-05
  0.11231565D-06  0.12157588D-06 -0.44564101D-07  0.20363030D-05 -0.46979528D-05
  0.26616498D-05 -0.13882106D-05 -0.29922317D-05  0.74250312D-06 -0.13066333D-05
  0.39713185D-05 -0.26646853D-05 -0.14978656D-05  0.44737888D-05  0.20080673D-05
 -0.15801080D-07 -0.15724564D-06  0.17304672D-06 -0.42105057D-06  0.42186552D-07
  0.27988777D-06 -0.14691566D-05 -0.11684562D-06  0.97717510D-06  0.21015265D-05
 -0.16983228D-06 -0.10612820D-05  0.23059432D-05  0.52036914D-06 -0.18702433D-05
 -0.44262822D-06 -0.11301461D-06  0.55915431D-06  0.15038544D-06  0.75019885D-06
 -0.85079377D-06  0.38648598D-06 -0.41115502D-06 -0.82666917D-06 -0.83764231D-06
 -0.19518400D-06  0.38423388D+00  0.71889578D+00  0.12413207D+01  0.20075327D+01
  0.30299626D+01  0.41511426D+01  0.47971850D+01  0.40314348D+01  0.17707828D+01
  0.20239755D+00 -0.27278421D-02  0.16966415D-02  0.83457764D-04 -0.36426243D-04
 -0.68131472D-04 -0.11796596D-03 -0.19154915D-03 -0.29417473D-03 -0.41838400D-03
 -0.53232644D-03 -0.55167759D-03 -0.36814769D-03  0.36257853D-04  0.27695092D-03
  0.14220296D-03 -0.62376777D-06  0.17516609D-04  0.32733655D-04  0.56761318D-04
  0.92044550D-04  0.14187683D-03  0.20188298D-03  0.25996421D-03  0.27328788D-03
  0.19158318D-03 -0.22244522D-04 -0.18008354D-03 -0.16948308D-03  0.82649990D-04
 -0.34446489D-03 -0.48996256D-04 -0.34834980D-05  0.56222370D-03  0.73549590D-03
  0.80465828D-03  0.66281532D-03  0.35439223D-03  0.97922011D-04 -0.80262274D-07
  0.45149948D-03  0.59064749D-03  0.64618905D-03  0.53228061D-03  0.28459830D-03
  0.78637271D-04 -0.64455439D-07  0.70813256D-03  0.92637253D-03  0.10134840D-02
  0.83482981D-03  0.44636445D-03  0.12333483D-03 -0.10109202D-06 -0.23562584D-03
 -0.31206432D-03 -0.34474725D-03 -0.29527707D-03 -0.16108481D-03 -0.49513248D-04
  0.21556335D-04 -0.17678049D-03 -0.23412918D-03 -0.25864985D-03 -0.22153438D-03
 -0.12085539D-03 -0.37147778D-04  0.16172842D-04 -0.29651704D-03 -0.39270902D-03
 -0.43383797D-03 -0.37158354D-03 -0.20271288D-03 -0.62308626D-04  0.27126994D-04
 -0.38357440D-04 -0.26678730D-04 -0.48677686D-04 -0.80832583D-05 -0.42516545D-05
 -0.72522544D-05 -0.11231552D-06 -0.12157639D-06 -0.44563521D-07  0.20363063D-05
 -0.46979610D-05  0.26616547D-05 -0.13882117D-05  0.29922279D-05 -0.74250411D-06
 -0.13066349D-05  0.39713214D-05 -0.26646865D-05 -0.14978612D-05 -0.44737825D-05
 -0.20080624D-05 -0.15801089D-07 -0.15724668D-06  0.17304777D-06 -0.42105019D-06
 -0.42185785D-07 -0.27988715D-06  0.14691555D-05  0.11683881D-06  0.97717448D-06
 -0.21015261D-05  0.16984318D-06 -0.10612812D-05 -0.23059404D-05 -0.52035960D-06
 -0.18702423D-05 -0.44262674D-06  0.11301486D-06 -0.55915457D-06  0.15038580D-06
 -0.75019917D-06  0.85079405D-06  0.38648550D-06  0.41115458D-06  0.82666967D-06
 -0.83764290D-06 -0.19518346D-06 -0.51342797D-06 -0.92598848D-06 -0.13653695D-05
 -0.16113510D-04  0.18531264D-04  0.19423049D-06 -0.29844457D-05  0.36044041D-05
  0.29382691D-07  0.60498254D-05  0.16320411D-05  0.12444556D-04 -0.12365028D-06
 -0.15401528D-05 -0.27372342D-05 -0.56698174D-05 -0.40894945D-05  0.97593120D-05
  0.18653507D-05  0.17499863D-05  0.26912274D-05 -0.55656508D-06  0.21963629D-05
 -0.16397978D-05 -0.84089655D-06 -0.20811796D-05 -0.97981434D-06 -0.38947475D-06
 -0.70243374D-06 -0.10357381D-05 -0.16591935D-04  0.21165651D-04  0.34078471D-06
  0.94687990D-06  0.16784205D-05  0.25118925D-05 -0.13668302D-04  0.26783641D-05
 -0.32510354D-05  0.27953434D-05 -0.12756713D-05 -0.13230504D-06  0.94087275D-05
 -0.36744968D-05 -0.57342307D-05 -0.31267699D-05 -0.46403484D-05  0.16612823D-05
 -0.20197886D-05  0.18547771D-05  0.16501143D-06  0.16322733D-05 -0.12630152D-05
 -0.54469879D-06 -0.51342682D-06 -0.92598641D-06 -0.13653664D-05 -0.16113505D-04
  0.18531219D-04  0.19422895D-06  0.29844420D-05 -0.36044094D-05  0.29387266D-07
 -0.60498186D-05 -0.16320371D-05  0.12444540D-04  0.12364736D-06  0.15401524D-05
 -0.27372295D-05 -0.56698086D-05 -0.40894869D-05  0.97592954D-05  0.18653523D-05
 -0.17499808D-05 -0.26912183D-05 -0.55656740D-06  0.21963632D-05 -0.16397958D-05
 -0.84089693D-06  0.20811759D-05  0.97981126D-06 -0.38947422D-06 -0.70243280D-06
 -0.10357368D-05 -0.16591919D-04  0.21165614D-04  0.34078386D-06 -0.94687502D-06
 -0.16784221D-05  0.25118896D-05  0.13668282D-04 -0.26783606D-05 -0.32510320D-05
 -0.27953387D-05  0.12756684D-05 -0.13230672D-06  0.94087102D-05 -0.36744859D-05
 -0.57342243D-05 -0.31267629D-05  0.46403421D-05 -0.16612806D-05 -0.20197853D-05
  0.18547760D-05  0.16500928D-06  0.16322719D-05  0.12630137D-05  0.54469840D-06
MO    2     MO 0.0        OCC NO =    2.0000000  ORB. ENERGY =  -79.957547
 -0.38423245D+00 -0.71889311D+00 -0.12413161D+01 -0.20075252D+01 -0.30299514D+01
 -0.41511271D+01 -0.47971672D+01 -0.40314198D+01 -0.17707762D+01 -0.20239680D+00
  0.27278319D-02 -0.16966352D-02 -0.83457454D-04  0.33455254D-04  0.62574549D-04
  0.10834445D-03  0.17592606D-03  0.27018132D-03  0.38425986D-03  0.48890896D-03
  0.50668180D-03  0.33812091D-03 -0.33300599D-04 -0.25436231D-03 -0.13060464D-03
  0.57289217D-06 -0.15713137D-04 -0.29363469D-04 -0.50917296D-04 -0.82567843D-04
 -0.12726950D-03 -0.18109755D-03 -0.23319886D-03 -0.24515076D-03 -0.17185820D-03
  0.19954274D-04  0.16154253D-03  0.15203347D-03 -0.74140527D-04  0.34856719D-03
  0.57812554D-04  0.16429993D-05  0.53411488D-03  0.69872420D-03  0.76442875D-03
  0.62967734D-03  0.33667411D-03  0.93026322D-04 -0.76249498D-07  0.50773616D-03
  0.66421580D-03  0.72667536D-03  0.59857901D-03  0.32004654D-03  0.88431964D-04
 -0.72483708D-07 -0.65567542D-03 -0.85774858D-03 -0.93840701D-03 -0.77298718D-03
 -0.41329861D-03 -0.11419842D-03  0.93603312D-07 -0.21229908D-03 -0.28117022D-03
 -0.31061756D-03 -0.26604489D-03 -0.14513755D-03 -0.44611479D-04  0.19422276D-04
 -0.21963843D-03 -0.29089050D-03 -0.32135586D-03 -0.27524228D-03 -0.15015508D-03
 -0.46153734D-04  0.20093720D-04  0.25224481D-03  0.33407460D-03  0.36906269D-03
  0.31610332D-03  0.17244632D-03  0.53005478D-04 -0.23076729D-04 -0.36664638D-04
 -0.44075979D-04  0.44773210D-04 -0.75356913D-05  0.13821608D-05  0.14336781D-04
 -0.77011936D-07  0.31116576D-06  0.33872317D-06  0.18994028D-05 -0.47603524D-05
  0.28609496D-05 -0.66176482D-06  0.22060693D-05  0.58905254D-06 -0.96747704D-06
  0.16630038D-05 -0.69552673D-06  0.25355537D-05 -0.35774948D-05 -0.28575082D-05
  0.10989641D-08 -0.61398451D-06  0.61288554D-06  0.21733370D-06 -0.44316154D-06
 -0.35028640D-06  0.62692253D-06  0.39092597D-05 -0.35012753D-06 -0.26375398D-06
 -0.62563378D-05  0.46107395D-06 -0.16170136D-05 -0.54714413D-05  0.58930864D-06
  0.84622244D-06 -0.14759866D-06  0.14975527D-06  0.20621500D-06  0.18632504D-06
 -0.16387150D-06 -0.27764196D-06  0.25647094D-06 -0.28539432D-06 -0.34100302D-06
  0.31179112D-06  0.38423312D+00  0.71889436D+00  0.12413183D+01  0.20075287D+01
  0.30299567D+01  0.41511344D+01  0.47971756D+01  0.40314268D+01  0.17707793D+01
  0.20239715D+00 -0.27278367D-02  0.16966382D-02  0.83457600D-04 -0.33455318D-04
 -0.62574668D-04 -0.10834466D-03 -0.17592640D-03 -0.27018183D-03 -0.38426059D-03
 -0.48890988D-03 -0.50668276D-03 -0.33812156D-03  0.33300662D-04  0.25436280D-03
  0.13060489D-03 -0.57289326D-06  0.15713167D-04  0.29363526D-04  0.50917395D-04
  0.82568003D-04  0.12726975D-03  0.18109790D-03  0.23319932D-03  0.24515123D-03
  0.17185853D-03 -0.19954313D-04 -0.16154285D-03 -0.15203377D-03  0.74140671D-04
 -0.34856779D-03 -0.57812639D-04 -0.16430053D-05  0.53411586D-03  0.69872548D-03
  0.76443016D-03  0.62967850D-03  0.33667472D-03  0.93026493D-04 -0.76249638D-07
  0.50773695D-03  0.66421683D-03  0.72667648D-03  0.59857994D-03  0.32004703D-03
  0.88432101D-04 -0.72483821D-07  0.65567666D-03  0.85775020D-03  0.93840878D-03
  0.77298864D-03  0.41329939D-03  0.11419863D-03 -0.93603488D-07 -0.21229949D-03
 -0.28117076D-03 -0.31061816D-03 -0.26604540D-03 -0.14513784D-03 -0.44611565D-04
  0.19422313D-04 -0.21963874D-03 -0.29089091D-03 -0.32135631D-03 -0.27524266D-03
 -0.15015529D-03 -0.46153799D-04  0.20093748D-04 -0.25224533D-03 -0.33407528D-03
 -0.36906344D-03 -0.31610396D-03 -0.17244667D-03 -0.53005586D-04  0.23076776D-04
 -0.36664704D-04 -0.44076026D-04 -0.44773295D-04 -0.75357053D-05  0.13821533D-05
 -0.14336793D-04 -0.77012129D-07  0.31116554D-06 -0.33872325D-06 -0.18993992D-05
  0.47603442D-05 -0.28609449D-05  0.66176235D-06  0.22060745D-05  0.58905123D-06
  0.96747476D-06 -0.16629968D-05  0.69552208D-06 -0.25355562D-05 -0.35775026D-05
 -0.28575117D-05 -0.10989854D-08  0.61398422D-06 -0.61288524D-06 -0.21733444D-06
 -0.44316161D-06 -0.35028690D-06  0.62692510D-06  0.39092599D-05  0.35012923D-06
 -0.26375766D-06 -0.62563375D-05 -0.46107581D-06 -0.16170176D-05 -0.54714422D-05
 -0.58931189D-06 -0.84622322D-06 -0.14759846D-06  0.14975430D-06 -0.20621473D-06
  0.18632372D-06 -0.16387002D-06  0.27764264D-06  0.25647165D-06 -0.28539288D-06
  0.34100156D-06 -0.31179146D-06  0.66299305D-06  0.11957353D-05  0.17631110D-05
  0.27725632D-05 -0.25615589D-04 -0.91411514D-06  0.21080581D-05  0.30318631D-05
  0.25942404D-05 -0.39113150D-05 -0.23098198D-05 -0.93891635D-05  0.16904535D-05
  0.22681637D-06  0.27085967D-05  0.50622288D-05  0.44189080D-05 -0.94811368D-05
  0.92339526D-06 -0.31191482D-05 -0.52163457D-05 -0.13309866D-05  0.15089584D-06
  0.11800908D-05 -0.22165287D-06  0.21250581D-05  0.17718337D-05  0.30092857D-06
  0.54273706D-06  0.80026548D-06  0.86956056D-05 -0.21145464D-04 -0.50680902D-06
 -0.27699558D-05  0.93734605D-06 -0.16413529D-05  0.11787525D-04 -0.20205702D-05
  0.19445550D-05 -0.27283406D-05  0.16985985D-05 -0.97649412D-06 -0.99180447D-05
  0.62710536D-05  0.36469911D-05  0.40475879D-05  0.35946320D-05 -0.98768399D-06
  0.18653735D-05 -0.63365355D-06 -0.12317199D-05 -0.79305769D-06  0.84758817D-06
  0.22214331D-06 -0.66299394D-06 -0.11957369D-05 -0.17631133D-05 -0.27725914D-05
  0.25615621D-04  0.91411547D-06  0.21080633D-05  0.30318568D-05 -0.25942404D-05
 -0.39113256D-05 -0.23098226D-05  0.93891852D-05  0.16904537D-05  0.22681907D-06
 -0.27086014D-05 -0.50622387D-05 -0.44189151D-05  0.94811538D-05 -0.92339200D-06
 -0.31191512D-05 -0.52163504D-05  0.13309857D-05 -0.15089200D-06 -0.11800937D-05
  0.22165140D-06  0.21250617D-05  0.17718354D-05 -0.30092924D-06 -0.54273827D-06
 -0.80026726D-06 -0.86956347D-05  0.21145501D-04  0.50680961D-06 -0.27699575D-05
  0.93734308D-06  0.16413573D-05  0.11787548D-04 -0.20205748D-05 -0.19445606D-05
 -0.27283455D-05  0.16986007D-05  0.97649389D-06  0.99180611D-05 -0.62710601D-05
 -0.36470011D-05 -0.40475933D-05  0.35946401D-05 -0.98768689D-06 -0.18653770D-05
  0.63365680D-06  0.12317202D-05  0.79306052D-06  0.84759038D-06  0.22214426D-06
MO    3     MO 0.0        OCC NO =    2.0000000  ORB. ENERGY =   -7.498528
 -0.17023087D-03 -0.31849939D-03 -0.54995438D-03 -0.88941672D-03 -0.13423938D-02
 -0.18391210D-02 -0.21253435D-02 -0.17860857D-02 -0.78452712D-03 -0.89670156D-04
  0.12085424D-05 -0.75167960D-06 -0.36975105D-07 -0.10406743D+00 -0.19464723D+00
 -0.33702117D+00 -0.54724359D+00 -0.84043828D+00 -0.11952962D+01 -0.15208224D+01
 -0.15761074D+01 -0.10517743D+01  0.10358635D+00  0.79123096D+00  0.40626472D+00
 -0.17820644D-02 -0.11006070D-03 -0.20567275D-03 -0.35664383D-03 -0.57833612D-03
 -0.89144332D-03 -0.12684751D-02 -0.16334123D-02 -0.17171278D-02 -0.12037592D-02
  0.13976722D-03  0.11315045D-02  0.10648994D-02 -0.51930804D-03  0.21816852D-01
  0.63144069D-03  0.11443864D-04 -0.13997455D-01 -0.18311342D-01 -0.20033250D-01
 -0.16501843D-01 -0.88231590D-02 -0.24379245D-02  0.19982572D-05 -0.15190903D-01
 -0.19872600D-01 -0.21741321D-01 -0.17908820D-01 -0.95754375D-02 -0.26457863D-02
  0.21686322D-05  0.18266084D-01  0.23895524D-01  0.26142540D-01  0.21534205D-01
  0.11513848D-01  0.31813879D-02 -0.26076407D-05 -0.19105927D-02 -0.25304009D-02
 -0.27954132D-02 -0.23942799D-02 -0.13061703D-02 -0.40148251D-03  0.17479143D-03
 -0.83538260D-03 -0.11063859D-02 -0.12222592D-02 -0.10468687D-02 -0.57110652D-03
 -0.17554317D-03  0.76425349D-04  0.25258267D-02  0.33452206D-02  0.36955702D-02
  0.31652671D-02  0.17267730D-02  0.53076474D-03 -0.23107638D-03 -0.80433055D-03
 -0.74495576D-03  0.10464891D-02 -0.10181091D-03 -0.25438995D-04  0.63341621D-04
 -0.15162689D-05 -0.61219942D-06 -0.58153573D-06 -0.10785111D-04  0.25956821D-04
 -0.15171711D-04  0.47548720D-04 -0.59742844D-05 -0.34695346D-04 -0.25770402D-04
  0.10437449D-03 -0.78604085D-04 -0.13723422D-03  0.22460630D-03  0.17906871D-03
  0.20700579D-05 -0.20454007D-06 -0.18655178D-05  0.72097197D-05 -0.66204931D-06
 -0.31352657D-05 -0.10116688D-04 -0.18138252D-04  0.64399174D-05 -0.81217608D-06
  0.32538616D-04 -0.11612396D-04  0.31162241D-04  0.21876140D-04 -0.77073563D-05
  0.94873196D-05  0.31926194D-05 -0.98384716D-06 -0.23743892D-05 -0.97134614D-05
  0.23630588D-05 -0.10495183D-05  0.13560331D-06  0.58848271D-06  0.81726861D-05
  0.88943947D-05 -0.17023087D-03 -0.31849938D-03 -0.54995438D-03 -0.88941671D-03
 -0.13423938D-02 -0.18391210D-02 -0.21253435D-02 -0.17860857D-02 -0.78452711D-03
 -0.89670155D-04  0.12085424D-05 -0.75167959D-06 -0.36975104D-07 -0.10406743D+00
 -0.19464723D+00 -0.33702116D+00 -0.54724359D+00 -0.84043827D+00 -0.11952962D+01
 -0.15208224D+01 -0.15761074D+01 -0.10517743D+01  0.10358635D+00  0.79123095D+00
  0.40626472D+00 -0.17820644D-02 -0.11006070D-03 -0.20567275D-03 -0.35664383D-03
 -0.57833612D-03 -0.89144331D-03 -0.12684751D-02 -0.16334123D-02 -0.17171278D-02
 -0.12037592D-02  0.13976722D-03  0.11315045D-02  0.10648994D-02 -0.51930804D-03
  0.21816852D-01  0.63144069D-03  0.11443864D-04  0.13997455D-01  0.18311342D-01
  0.20033250D-01  0.16501843D-01  0.88231590D-02  0.24379244D-02 -0.19982572D-05
  0.15190903D-01  0.19872600D-01  0.21741321D-01  0.17908820D-01  0.95754375D-02
  0.26457863D-02 -0.21686322D-05  0.18266084D-01  0.23895523D-01  0.26142540D-01
  0.21534204D-01  0.11513848D-01  0.31813878D-02 -0.26076407D-05  0.19105927D-02
  0.25304008D-02  0.27954132D-02  0.23942799D-02  0.13061703D-02  0.40148250D-03
 -0.17479142D-03  0.83538258D-03  0.11063859D-02  0.12222592D-02  0.10468687D-02
  0.57110650D-03  0.17554317D-03 -0.76425347D-04  0.25258267D-02  0.33452206D-02
  0.36955701D-02  0.31652671D-02  0.17267730D-02  0.53076474D-03 -0.23107638D-03
  0.80433055D-03  0.74495576D-03  0.10464891D-02  0.10181091D-03  0.25438995D-04
  0.63341620D-04  0.15162690D-05  0.61219938D-06 -0.58153572D-06 -0.10785111D-04
  0.25956822D-04 -0.15171711D-04  0.47548720D-04  0.59742844D-05  0.34695346D-04
 -0.25770402D-04  0.10437449D-03 -0.78604084D-04 -0.13723422D-03 -0.22460630D-03
 -0.17906871D-03  0.20700579D-05 -0.20454010D-06 -0.18655178D-05  0.72097197D-05
  0.66204931D-06  0.31352656D-05  0.10116688D-04  0.18138252D-04  0.64399174D-05
  0.81217610D-06 -0.32538616D-04 -0.11612396D-04 -0.31162241D-04 -0.21876140D-04
 -0.77073563D-05  0.94873195D-05 -0.31926193D-05  0.98384720D-06 -0.23743892D-05
  0.97134614D-05 -0.23630588D-05 -0.10495183D-05 -0.13560335D-06 -0.58848279D-06
  0.81726860D-05  0.88943947D-05  0.38437088D-04  0.69322872D-04  0.10221653D-03
  0.21665445D-03 -0.19587178D-03  0.68304791D-06  0.44388526D-05 -0.47509277D-04
 -0.50677664D-04 -0.47375680D-04  0.65740072D-05 -0.93746408D-04  0.71740843D-05
  0.20538133D-04  0.44154870D-04  0.14662290D-04 -0.88923913D-05 -0.57698992D-05
  0.11676027D-04  0.74343336D-04  0.24033390D-04  0.12232914D-04 -0.84949961D-05
 -0.37379176D-05 -0.54044019D-05  0.12269903D-04 -0.24948513D-05  0.38161503D-04
  0.68825843D-04  0.10148367D-03  0.19630637D-03 -0.24626351D-03 -0.27534620D-05
  0.38108565D-04 -0.85775066D-05 -0.14227672D-04  0.99313458D-04 -0.78231838D-05
  0.28188104D-04 -0.44165819D-04  0.14091146D-04  0.51598613D-05  0.14964581D-04
 -0.20566344D-04  0.56017631D-05 -0.11461126D-04  0.71967660D-04 -0.26924223D-04
 -0.18448848D-05 -0.91412897D-06  0.27590138D-05 -0.98798655D-05  0.18602939D-04
  0.11559650D-04  0.38437088D-04  0.69322871D-04  0.10221653D-03  0.21665445D-03
 -0.19587178D-03  0.68304784D-06 -0.44388526D-05  0.47509277D-04 -0.50677664D-04
  0.47375679D-04 -0.65740072D-05 -0.93746407D-04 -0.71740843D-05 -0.20538133D-04
  0.44154870D-04  0.14662290D-04 -0.88923912D-05 -0.57698992D-05  0.11676027D-04
 -0.74343336D-04 -0.24033390D-04  0.12232914D-04 -0.84949961D-05 -0.37379176D-05
 -0.54044019D-05 -0.12269903D-04  0.24948513D-05  0.38161503D-04  0.68825843D-04
  0.10148366D-03  0.19630637D-03 -0.24626351D-03 -0.27534621D-05 -0.38108565D-04
  0.85775064D-05 -0.14227672D-04 -0.99313457D-04  0.78231837D-05  0.28188104D-04
  0.44165819D-04 -0.14091146D-04  0.51598613D-05  0.14964581D-04 -0.20566344D-04
  0.56017632D-05 -0.11461126D-04 -0.71967660D-04  0.26924223D-04 -0.18448848D-05
 -0.91412897D-06  0.27590138D-05 -0.98798656D-05 -0.18602939D-04 -0.11559650D-04
MO    4     MO 0.0        OCC NO =    2.0000000  ORB. ENERGY =   -7.498385
  0.15896145D-03  0.29741447D-03  0.51354696D-03  0.83053661D-03  0.12535263D-02
  0.17173697D-02  0.19846441D-02  0.16678454D-02  0.73259079D-03  0.83733919D-04
 -0.11285359D-05  0.70191780D-06  0.34527323D-07  0.10409544D+00  0.19469962D+00
  0.33711187D+00  0.54739087D+00  0.84066446D+00  0.11956178D+01  0.15212317D+01
  0.15765316D+01  0.10520573D+01 -0.10361423D+00 -0.79144390D+00 -0.40637406D+00
  0.17825440D-02  0.10111698D-03  0.18895943D-03  0.32766234D-03  0.53133954D-03
  0.81900311D-03  0.11653967D-02  0.15006784D-02  0.15775911D-02  0.11059397D-02
 -0.12840950D-03 -0.10395565D-02 -0.97836389D-03  0.47710818D-03 -0.21947063D-01
 -0.32267327D-03  0.10319585D-03  0.13807489D-01  0.18062831D-01  0.19761370D-01
  0.16277889D-01  0.87034160D-02  0.24048383D-02 -0.19711379D-05  0.13074285D-01
  0.17103660D-01  0.18712004D-01  0.15413503D-01  0.82412482D-02  0.22771368D-02
 -0.18664668D-05 -0.18289545D-01 -0.23926215D-01 -0.26176118D-01 -0.21561863D-01
 -0.11528636D-01 -0.31854741D-02  0.26109900D-05  0.20744537D-02  0.27474194D-02
  0.30351604D-02  0.25996241D-02  0.14181933D-02  0.43591544D-03 -0.18978232D-03
  0.30622190D-02  0.40556219D-02  0.44803727D-02  0.38374529D-02  0.20934758D-02
  0.64347956D-03 -0.28014847D-03 -0.25033509D-02 -0.33154535D-02 -0.36626854D-02
 -0.31371012D-02 -0.17114074D-02 -0.52604178D-03  0.22902017D-03  0.82105226D-03
  0.86142756D-03 -0.10403628D-02  0.24334490D-04 -0.10888024D-03 -0.11760946D-03
 -0.79321530D-06 -0.97091789D-05 -0.41234943D-05 -0.26785729D-04  0.74715887D-04
 -0.47930158D-04 -0.12617404D-04  0.61177934D-05  0.52558267D-04 -0.10750198D-04
 -0.53352587D-04  0.64102785D-04  0.12233559D-03 -0.22164298D-03 -0.20088538D-03
 -0.57636481D-06  0.93175410D-05 -0.87411762D-05 -0.16334996D-05  0.20531224D-05
  0.80537527D-05  0.10711612D-04 -0.19715477D-04 -0.71470673D-05 -0.80037366D-05
  0.34586942D-04  0.10838567D-04 -0.24131100D-04  0.24559488D-04  0.10602635D-04
 -0.14684588D-04 -0.19505755D-05 -0.67974157D-05  0.15780219D-05  0.17833460D-05