 Molden2AIM, Version 4.0.0 (06/02/2016)           Time: Wed Jun 27 21:02:30 2018
GAUSSIAN             26 MOL ORBITALS    431 PRIMITIVES        5 NUCLEI
  P    1    (CENTRE  1)   0.00000000  0.00000000  0.86743909  CHARGE = 15.0
  F    2    (CENTRE  2)   2.38729290  0.00000000 -1.18152858  CHARGE =  9.0
  F    3    (CENTRE  3)  -2.38729290  0.00000000 -1.18152858  CHARGE =  9.0
  F    4    (CENTRE  4)   0.00000000 -3.36719338  0.57438037  CHARGE =  9.0
  F    5    (CENTRE  5)   0.00000000  3.36719338  0.57438037  CHARGE =  9.0
CENTRE ASSIGNMENTS    1  1  1  1  1  1  1  1  1  1  1  1  1  1  1  1  1  1  1  1
CENTRE ASSIGNMENTS    1  1  1  1  1  1  1  1  1  1  1  1  1  1  1  1  1  1  1  1
CENTRE ASSIGNMENTS    1  1  1  1  1  1  1  1  1  1  1  1  1  1  1  1  1  1  1  1
CENTRE ASSIGNMENTS    1  1  1  1  1  1  1  1  1  1  1  1  1  1  1  1  1  1  1  1
CENTRE ASSIGNMENTS    1  1  1  1  1  1  1  1  1  1  1  1  1  1  1  1  1  1  1  1
CENTRE ASSIGNMENTS    1  1  1  1  1  1  1  1  1  1  1  1  1  1  1  1  1  1  1  1
CENTRE ASSIGNMENTS    1  1  1  1  1  1  1  1  1  1  1  2  2  2  2  2  2  2  2  2
CENTRE ASSIGNMENTS    2  2  2  2  2  2  2  2  2  2  2  2  2  2  2  2  2  2  2  2
CENTRE ASSIGNMENTS    2  2  2  2  2  2  2  2  2  2  2  2  2  2  2  2  2  2  2  2
CENTRE ASSIGNMENTS    2  2  2  2  2  2  2  2  2  2  2  2  2  2  2  2  2  2  2  2
CENTRE ASSIGNMENTS    2  2  2  2  2  2  3  3  3  3  3  3  3  3  3  3  3  3  3  3
CENTRE ASSIGNMENTS    3  3  3  3  3  3  3  3  3  3  3  3  3  3  3  3  3  3  3  3
CENTRE ASSIGNMENTS    3  3  3  3  3  3  3  3  3  3  3  3  3  3  3  3  3  3  3  3
CENTRE ASSIGNMENTS    3  3  3  3  3  3  3  3  3  3  3  3  3  3  3  3  3  3  3  3
CENTRE ASSIGNMENTS    3  4  4  4  4  4  4  4  4  4  4  4  4  4  4  4  4  4  4  4
CENTRE ASSIGNMENTS    4  4  4  4  4  4  4  4  4  4  4  4  4  4  4  4  4  4  4  4
CENTRE ASSIGNMENTS    4  4  4  4  4  4  4  4  4  4  4  4  4  4  4  4  4  4  4  4
CENTRE ASSIGNMENTS    4  4  4  4  4  4  4  4  4  4  4  4  4  4  4  4  5  5  5  5
CENTRE ASSIGNMENTS    5  5  5  5  5  5  5  5  5  5  5  5  5  5  5  5  5  5  5  5
CENTRE ASSIGNMENTS    5  5  5  5  5  5  5  5  5  5  5  5  5  5  5  5  5  5  5  5
CENTRE ASSIGNMENTS    5  5  5  5  5  5  5  5  5  5  5  5  5  5  5  5  5  5  5  5
CENTRE ASSIGNMENTS    5  5  5  5  5  5  5  5  5  5  5
TYPE ASSIGNMENTS      1  1  1  1  1  1  1  1  1  1  1  1  1  1  1  1  1  1  1  1
TYPE ASSIGNMENTS      1  1  1  1  1  1  1  1  1  1  1  1  1  1  1  1  1  1  1  1
TYPE ASSIGNMENTS      1  1  2  2  2  2  2  2  2  3  3  3  3  3  3  3  4  4  4  4
TYPE ASSIGNMENTS      4  4  4  2  2  2  2  2  2  2  3  3  3  3  3  3  3  4  4  4
TYPE ASSIGNMENTS      4  4  4  4  2  3  4  2  3  4  2  3  4  5  6  7  8  9 10  5
TYPE ASSIGNMENTS      6  7  8  9 10  5  6  7  8  9 10 11 12 13 17 14 15 18 19 16
TYPE ASSIGNMENTS     20 11 12 13 17 14 15 18 19 16 20  1  1  1  1  1  1  1  1  1
TYPE ASSIGNMENTS      1  1  1  1  1  1  1  1  1  1  2  2  2  3  3  3  4  4  4  2
TYPE ASSIGNMENTS      3  4  2  3  4  2  3  4  5  6  7  8  9 10  5  6  7  8  9 10
TYPE ASSIGNMENTS      5  6  7  8  9 10 11 12 13 17 14 15 18 19 16 20 11 12 13 17
TYPE ASSIGNMENTS     14 15 18 19 16 20  1  1  1  1  1  1  1  1  1  1  1  1  1  1
TYPE ASSIGNMENTS      1  1  1  1  1  2  2  2  3  3  3  4  4  4  2  3  4  2  3  4
TYPE ASSIGNMENTS      2  3  4  5  6  7  8  9 10  5  6  7  8  9 10  5  6  7  8  9
TYPE ASSIGNMENTS     10 11 12 13 17 14 15 18 19 16 20 11 12 13 17 14 15 18 19 16
TYPE ASSIGNMENTS     20  1  1  1  1  1  1  1  1  1  1  1  1  1  1  1  1  1  1  1
TYPE ASSIGNMENTS      2  2  2  3  3  3  4  4  4  2  3  4  2  3  4  2  3  4  5  6
TYPE ASSIGNMENTS      7  8  9 10  5  6  7  8  9 10  5  6  7  8  9 10 11 12 13 17
TYPE ASSIGNMENTS     14 15 18 19 16 20 11 12 13 17 14 15 18 19 16 20  1  1  1  1
TYPE ASSIGNMENTS      1  1  1  1  1  1  1  1  1  1  1  1  1  1  1  2  2  2  3  3
TYPE ASSIGNMENTS      3  4  4  4  2  3  4  2  3  4  2  3  4  5  6  7  8  9 10  5
TYPE ASSIGNMENTS      6  7  8  9 10  5  6  7  8  9 10 11 12 13 17 14 15 18 19 16
TYPE ASSIGNMENTS     20 11 12 13 17 14 15 18 19 16 20
EXPONENTS  0.3124000D+06 0.4680000D+05 0.1065000D+05 0.3018000D+04 0.9868000D+03
EXPONENTS  0.3574000D+03 0.1396000D+03 0.5763000D+02 0.2460000D+02 0.1012000D+02
EXPONENTS  0.4283000D+01 0.1805000D+01 0.2782000D+00 0.3124000D+06 0.4680000D+05
EXPONENTS  0.1065000D+05 0.3018000D+04 0.9868000D+03 0.3574000D+03 0.1396000D+03
EXPONENTS  0.5763000D+02 0.2460000D+02 0.1012000D+02 0.4283000D+01 0.1805000D+01
EXPONENTS  0.2782000D+00 0.3124000D+06 0.4680000D+05 0.1065000D+05 0.3018000D+04
EXPONENTS  0.9868000D+03 0.3574000D+03 0.1396000D+03 0.5763000D+02 0.2460000D+02
EXPONENTS  0.1012000D+02 0.4283000D+01 0.1805000D+01 0.2782000D+00 0.6158000D+00
EXPONENTS  0.1055000D+00 0.4090000D-01 0.5049000D+03 0.1194000D+03 0.3796000D+02
EXPONENTS  0.1395000D+02 0.5457000D+01 0.2177000D+01 0.2877000D+00 0.5049000D+03
EXPONENTS  0.1194000D+03 0.3796000D+02 0.1395000D+02 0.5457000D+01 0.2177000D+01
EXPONENTS  0.2877000D+00 0.5049000D+03 0.1194000D+03 0.3796000D+02 0.1395000D+02
EXPONENTS  0.5457000D+01 0.2177000D+01 0.2877000D+00 0.5049000D+03 0.1194000D+03
EXPONENTS  0.3796000D+02 0.1395000D+02 0.5457000D+01 0.2177000D+01 0.2877000D+00
EXPONENTS  0.5049000D+03 0.1194000D+03 0.3796000D+02 0.1395000D+02 0.5457000D+01
EXPONENTS  0.2177000D+01 0.2877000D+00 0.5049000D+03 0.1194000D+03 0.3796000D+02
EXPONENTS  0.1395000D+02 0.5457000D+01 0.2177000D+01 0.2877000D+00 0.8010000D+00
EXPONENTS  0.8010000D+00 0.8010000D+00 0.9714000D-01 0.9714000D-01 0.9714000D-01
EXPONENTS  0.3070000D-01 0.3070000D-01 0.3070000D-01 0.2160000D+00 0.2160000D+00
EXPONENTS  0.2160000D+00 0.2160000D+00 0.2160000D+00 0.2160000D+00 0.6520000D+00
EXPONENTS  0.6520000D+00 0.6520000D+00 0.6520000D+00 0.6520000D+00 0.6520000D+00
EXPONENTS  0.7750000D-01 0.7750000D-01 0.7750000D-01 0.7750000D-01 0.7750000D-01
EXPONENTS  0.7750000D-01 0.4520000D+00 0.4520000D+00 0.4520000D+00 0.4520000D+00
EXPONENTS  0.4520000D+00 0.4520000D+00 0.4520000D+00 0.4520000D+00 0.4520000D+00
EXPONENTS  0.4520000D+00 0.1650000D+00 0.1650000D+00 0.1650000D+00 0.1650000D+00
EXPONENTS  0.1650000D+00 0.1650000D+00 0.1650000D+00 0.1650000D+00 0.1650000D+00
EXPONENTS  0.1650000D+00 0.1950000D+05 0.2923000D+04 0.6645000D+03 0.1875000D+03
EXPONENTS  0.6062000D+02 0.2142000D+02 0.7950000D+01 0.8815000D+00 0.1950000D+05
EXPONENTS  0.2923000D+04 0.6645000D+03 0.1875000D+03 0.6062000D+02 0.2142000D+02
EXPONENTS  0.7950000D+01 0.8815000D+00 0.2257000D+01 0.3041000D+00 0.9158000D-01
EXPONENTS  0.4388000D+02 0.9926000D+01 0.2930000D+01 0.4388000D+02 0.9926000D+01
EXPONENTS  0.2930000D+01 0.4388000D+02 0.9926000D+01 0.2930000D+01 0.9132000D+00
EXPONENTS  0.9132000D+00 0.9132000D+00 0.2672000D+00 0.2672000D+00 0.2672000D+00
EXPONENTS  0.7361000D-01 0.7361000D-01 0.7361000D-01 0.3107000D+01 0.3107000D+01
EXPONENTS  0.3107000D+01 0.3107000D+01 0.3107000D+01 0.3107000D+01 0.8550000D+00
EXPONENTS  0.8550000D+00 0.8550000D+00 0.8550000D+00 0.8550000D+00 0.8550000D+00
EXPONENTS  0.2920000D+00 0.2920000D+00 0.2920000D+00 0.2920000D+00 0.2920000D+00
EXPONENTS  0.2920000D+00 0.1917000D+01 0.1917000D+01 0.1917000D+01 0.1917000D+01
EXPONENTS  0.1917000D+01 0.1917000D+01 0.1917000D+01 0.1917000D+01 0.1917000D+01
EXPONENTS  0.1917000D+01 0.7240000D+00 0.7240000D+00 0.7240000D+00 0.7240000D+00
EXPONENTS  0.7240000D+00 0.7240000D+00 0.7240000D+00 0.7240000D+00 0.7240000D+00
EXPONENTS  0.7240000D+00 0.1950000D+05 0.2923000D+04 0.6645000D+03 0.1875000D+03
EXPONENTS  0.6062000D+02 0.2142000D+02 0.7950000D+01 0.8815000D+00 0.1950000D+05
EXPONENTS  0.2923000D+04 0.6645000D+03 0.1875000D+03 0.6062000D+02 0.2142000D+02
EXPONENTS  0.7950000D+01 0.8815000D+00 0.2257000D+01 0.3041000D+00 0.9158000D-01
EXPONENTS  0.4388000D+02 0.9926000D+01 0.2930000D+01 0.4388000D+02 0.9926000D+01
EXPONENTS  0.2930000D+01 0.4388000D+02 0.9926000D+01 0.2930000D+01 0.9132000D+00
EXPONENTS  0.9132000D+00 0.9132000D+00 0.2672000D+00 0.2672000D+00 0.2672000D+00
EXPONENTS  0.7361000D-01 0.7361000D-01 0.7361000D-01 0.3107000D+01 0.3107000D+01
EXPONENTS  0.3107000D+01 0.3107000D+01 0.3107000D+01 0.3107000D+01 0.8550000D+00
EXPONENTS  0.8550000D+00 0.8550000D+00 0.8550000D+00 0.8550000D+00 0.8550000D+00
EXPONENTS  0.2920000D+00 0.2920000D+00 0.2920000D+00 0.2920000D+00 0.2920000D+00
EXPONENTS  0.2920000D+00 0.1917000D+01 0.1917000D+01 0.1917000D+01 0.1917000D+01
EXPONENTS  0.1917000D+01 0.1917000D+01 0.1917000D+01 0.1917000D+01 0.1917000D+01
EXPONENTS  0.1917000D+01 0.7240000D+00 0.7240000D+00 0.7240000D+00 0.7240000D+00
EXPONENTS  0.7240000D+00 0.7240000D+00 0.7240000D+00 0.7240000D+00 0.7240000D+00
EXPONENTS  0.7240000D+00 0.1950000D+05 0.2923000D+04 0.6645000D+03 0.1875000D+03
EXPONENTS  0.6062000D+02 0.2142000D+02 0.7950000D+01 0.8815000D+00 0.1950000D+05
EXPONENTS  0.2923000D+04 0.6645000D+03 0.1875000D+03 0.6062000D+02 0.2142000D+02
EXPONENTS  0.7950000D+01 0.8815000D+00 0.2257000D+01 0.3041000D+00 0.9158000D-01
EXPONENTS  0.4388000D+02 0.9926000D+01 0.2930000D+01 0.4388000D+02 0.9926000D+01
EXPONENTS  0.2930000D+01 0.4388000D+02 0.9926000D+01 0.2930000D+01 0.9132000D+00
EXPONENTS  0.9132000D+00 0.9132000D+00 0.2672000D+00 0.2672000D+00 0.2672000D+00
EXPONENTS  0.7361000D-01 0.7361000D-01 0.7361000D-01 0.3107000D+01 0.3107000D+01
EXPONENTS  0.3107000D+01 0.3107000D+01 0.3107000D+01 0.3107000D+01 0.8550000D+00
EXPONENTS  0.8550000D+00 0.8550000D+00 0.8550000D+00 0.8550000D+00 0.8550000D+00
EXPONENTS  0.2920000D+00 0.2920000D+00 0.2920000D+00 0.2920000D+00 0.2920000D+00
EXPONENTS  0.2920000D+00 0.1917000D+01 0.1917000D+01 0.1917000D+01 0.1917000D+01
EXPONENTS  0.1917000D+01 0.1917000D+01 0.1917000D+01 0.1917000D+01 0.1917000D+01
EXPONENTS  0.1917000D+01 0.7240000D+00 0.7240000D+00 0.7240000D+00 0.7240000D+00
EXPONENTS  0.7240000D+00 0.7240000D+00 0.7240000D+00 0.7240000D+00 0.7240000D+00
EXPONENTS  0.7240000D+00 0.1950000D+05 0.2923000D+04 0.6645000D+03 0.1875000D+03
EXPONENTS  0.6062000D+02 0.2142000D+02 0.7950000D+01 0.8815000D+00 0.1950000D+05
EXPONENTS  0.2923000D+04 0.6645000D+03 0.1875000D+03 0.6062000D+02 0.2142000D+02
EXPONENTS  0.7950000D+01 0.8815000D+00 0.2257000D+01 0.3041000D+00 0.9158000D-01
EXPONENTS  0.4388000D+02 0.9926000D+01 0.2930000D+01 0.4388000D+02 0.9926000D+01
EXPONENTS  0.2930000D+01 0.4388000D+02 0.9926000D+01 0.2930000D+01 0.9132000D+00
EXPONENTS  0.9132000D+00 0.9132000D+00 0.2672000D+00 0.2672000D+00 0.2672000D+00
EXPONENTS  0.7361000D-01 0.7361000D-01 0.7361000D-01 0.3107000D+01 0.3107000D+01
EXPONENTS  0.3107000D+01 0.3107000D+01 0.3107000D+01 0.3107000D+01 0.8550000D+00
EXPONENTS  0.8550000D+00 0.8550000D+00 0.8550000D+00 0.8550000D+00 0.8550000D+00
EXPONENTS  0.2920000D+00 0.2920000D+00 0.2920000D+00 0.2920000D+00 0.2920000D+00
EXPONENTS  0.2920000D+00 0.1917000D+01 0.1917000D+01 0.1917000D+01 0.1917000D+01
EXPONENTS  0.1917000D+01 0.1917000D+01 0.1917000D+01 0.1917000D+01 0.1917000D+01
EXPONENTS  0.1917000D+01 0.7240000D+00 0.7240000D+00 0.7240000D+00 0.7240000D+00
EXPONENTS  0.7240000D+00 0.7240000D+00 0.7240000D+00 0.7240000D+00 0.7240000D+00
EXPONENTS  0.7240000D+00
MO    1     MO 0.0        OCC NO =    2.0000000  ORB. ENERGY =  -79.924642
  0.54336071D+00  0.10166197D+01  0.17554020D+01  0.28389334D+01  0.42847931D+01
  0.58702991D+01  0.67838939D+01  0.57010155D+01  0.25041358D+01  0.28621859D+00
 -0.38575521D-02  0.23992896D-02  0.11802101D-03  0.78664723D-05  0.14713413D-04
  0.25475479D-04  0.41366223D-04  0.63528852D-04  0.90352611D-04  0.11495919D-03
  0.11913819D-03  0.79503769D-04 -0.78301076D-05 -0.59809263D-04 -0.30709609D-04
  0.13470651D-06  0.52656649D-06  0.98400588D-06  0.17063011D-05  0.27669497D-05
  0.42649572D-05  0.60688011D-05  0.78147800D-05  0.82153026D-05  0.57591790D-05
 -0.66869222D-06 -0.54134885D-05 -0.50948282D-05  0.24845400D-05 -0.41867939D-03
  0.18622323D-04  0.28184599D-05 -0.91744084D-14 -0.12001877D-13 -0.13130474D-13
 -0.10815870D-13 -0.57829989D-14 -0.15978987D-14  0.13097258D-17 -0.29907434D-14
 -0.39124632D-14 -0.42803718D-14 -0.35258395D-14 -0.18851860D-14 -0.52089517D-15
  0.42695437D-18 -0.23857582D-02 -0.31210271D-02 -0.34145130D-02 -0.28126120D-02
 -0.15038394D-02 -0.41552543D-03  0.34058753D-06  0.79420689D-14  0.10518525D-13
  0.11620145D-13  0.99526896D-14  0.54295688D-14  0.16689071D-14 -0.72658371D-15
  0.26313121D-14  0.34849261D-14  0.38499072D-14  0.32974572D-14  0.17988877D-14
  0.55293091D-15 -0.24072676D-15  0.73245642D-03  0.97006983D-03  0.10716666D-02
  0.91788569D-03  0.50074138D-03  0.15391477D-03 -0.67009102D-04  0.49100516D-15
  0.13947223D-15  0.18385609D-03 -0.68190405D-15  0.87397299D-16 -0.91032578D-05
  0.30840176D-17 -0.18198469D-17 -0.16189178D-06 -0.24439144D-05 -0.46829231D-05
  0.71268375D-05 -0.66511858D-19  0.69097812D-15  0.90674259D-17  0.31963833D-05
  0.16413307D-05 -0.48377140D-05  0.57074913D-18  0.47039400D-16  0.21105089D-16
  0.43385324D-07 -0.30815692D-06  0.26477160D-06  0.40936899D-20  0.69704813D-16
 -0.13823219D-17  0.24227202D-16 -0.35941989D-16  0.97994115D-06  0.14160336D-15
  0.55193481D-16 -0.14132196D-05 -0.21428496D-15  0.52632485D-16 -0.15266039D-05
 -0.81074063D-19  0.12233060D-16  0.77094515D-17  0.77490276D-07  0.16003612D-16
 -0.11197628D-16 -0.39995832D-07 -0.52702792D-16 -0.11930726D-16 -0.19247500D-06
  0.11074646D-19  0.90023804D-05  0.16780827D-04  0.28447627D-04  0.43078092D-04
  0.53869305D-04  0.46376454D-04  0.17828802D-04 -0.77255117D-07 -0.57033443D-05
 -0.10709871D-04 -0.18237063D-04 -0.28568251D-04 -0.38284817D-04 -0.41180482D-04
 -0.24724708D-04  0.16260008D-04 -0.37330991D-05 -0.32759358D-04 -0.10564140D-04
  0.11349737D-04  0.11099794D-04  0.73341035D-05 -0.20134333D-16 -0.19690938D-16
 -0.13010635D-16 -0.17236413D-05 -0.16856836D-05 -0.11138024D-05  0.44409287D-05
  0.16529396D-16 -0.14187278D-04  0.22857409D-04 -0.10925971D-17 -0.49623720D-05
  0.67827928D-06  0.19720232D-17 -0.12329145D-06 -0.12391023D-04  0.26016595D-04
 -0.13625572D-04 -0.20850915D-16  0.61563209D-04  0.62141384D-17  0.30255620D-06
 -0.23980303D-05  0.20954741D-05  0.61482493D-17  0.13932314D-05 -0.83628186D-18
 -0.55620108D-05  0.21877373D-05  0.33742736D-05 -0.19855801D-17 -0.35308383D-07
 -0.37538779D-18 -0.20558534D-04  0.15680383D-16  0.12145561D-04 -0.29266782D-04
 -0.21816180D-16 -0.74737710D-04  0.90942385D-04 -0.25224969D-16  0.38301028D-04
 -0.60453157D-16  0.69356057D-05 -0.40048209D-17 -0.32398027D-05  0.11008689D-04
  0.54267703D-17  0.24099021D-04 -0.31815506D-04  0.65876923D-17 -0.14379613D-04
  0.21230844D-16  0.90023804D-05  0.16780827D-04  0.28447627D-04  0.43078092D-04
  0.53869305D-04  0.46376454D-04  0.17828802D-04 -0.77255117D-07 -0.57033443D-05
 -0.10709871D-04 -0.18237063D-04 -0.28568251D-04 -0.38284817D-04 -0.41180482D-04
 -0.24724708D-04  0.16260008D-04 -0.37330991D-05 -0.32759358D-04 -0.10564140D-04
 -0.11349737D-04 -0.11099794D-04 -0.73341035D-05 -0.20249866D-16 -0.19803927D-16
 -0.13085292D-16 -0.17236413D-05 -0.16856836D-05 -0.11138024D-05 -0.44409287D-05
  0.16512418D-16 -0.14187278D-04 -0.22857409D-04 -0.11169744D-17 -0.49623720D-05
 -0.67827928D-06  0.19841624D-17 -0.12329145D-06 -0.12391023D-04  0.26016595D-04
 -0.13625572D-04  0.20687468D-16 -0.61563209D-04  0.62257136D-17  0.30255620D-06
 -0.23980303D-05  0.20954741D-05 -0.61693504D-17 -0.13932314D-05 -0.89153874D-18
 -0.55620108D-05  0.21877373D-05  0.33742736D-05  0.20302717D-17  0.35308383D-07
 -0.34414318D-18  0.20558534D-04  0.15876983D-16  0.12145561D-04  0.29266782D-04
 -0.22235447D-16 -0.74737710D-04 -0.90942385D-04 -0.25395502D-16  0.38301028D-04
  0.59058641D-16 -0.69356057D-05 -0.40691954D-17 -0.32398027D-05 -0.11008689D-04
  0.55669332D-17  0.24099021D-04  0.31815506D-04  0.66406530D-17 -0.14379613D-04
 -0.20815043D-16  0.19678535D-05  0.36681641D-05  0.62184400D-05  0.94165509D-05
  0.11775430D-04  0.10137548D-04  0.38972437D-05 -0.16887395D-07 -0.12580280D-05
 -0.23623537D-05 -0.40226809D-05 -0.63015059D-05 -0.84447592D-05 -0.90834771D-05
 -0.54537077D-05  0.35865877D-05  0.82834696D-06 -0.77241964D-05  0.22247911D-06
  0.58995926D-16  0.57696727D-16  0.38122667D-16 -0.78327682D-06 -0.76602762D-06
 -0.50614684D-06  0.52917234D-05  0.51751899D-05  0.34194668D-05 -0.53041958D-16
 -0.83167014D-05 -0.72470774D-05  0.79297096D-16 -0.52774034D-05  0.73744540D-05
 -0.99261823D-17  0.21328155D-06  0.36172052D-06  0.81596125D-05 -0.16170806D-04
  0.80111936D-05 -0.19264513D-15  0.33298843D-15 -0.15852683D-04  0.12544564D-05
 -0.27368093D-05  0.14823529D-05  0.66615555D-16 -0.11993989D-15  0.39554025D-06
  0.32610467D-06 -0.52340150D-06  0.19729683D-06  0.21573533D-16  0.11449858D-16
  0.72704508D-05 -0.73530911D-17 -0.29498735D-04  0.15557367D-04 -0.12922710D-15
  0.42715295D-04  0.24420272D-04  0.15128637D-15  0.45780910D-04 -0.71092372D-04
  0.42174709D-15 -0.24619626D-17  0.70656975D-05 -0.52183484D-05  0.49461357D-16
 -0.10470640D-04 -0.72156022D-05 -0.42075469D-16 -0.10726453D-04  0.22870647D-04
 -0.14439810D-15  0.19678535D-05  0.36681641D-05  0.62184400D-05  0.94165509D-05
  0.11775430D-04  0.10137548D-04  0.38972437D-05 -0.16887395D-07 -0.12580280D-05
 -0.23623537D-05 -0.40226809D-05 -0.63015059D-05 -0.84447592D-05 -0.90834771D-05
 -0.54537077D-05  0.35865877D-05  0.82834696D-06 -0.77241964D-05  0.22247911D-06
  0.59100731D-16  0.57799224D-16  0.38190391D-16  0.78327682D-06  0.76602762D-06
  0.50614684D-06  0.52917234D-05  0.51751899D-05  0.34194668D-05 -0.53113011D-16
  0.83167014D-05 -0.72470774D-05  0.79354453D-16  0.52774034D-05  0.73744540D-05
 -0.99272402D-17 -0.21328155D-06  0.36172052D-06  0.81596125D-05 -0.16170806D-04
  0.80111936D-05  0.19231420D-15  0.33286422D-15  0.15852683D-04  0.12544564D-05
 -0.27368093D-05  0.14823529D-05 -0.66508660D-16 -0.11987990D-15 -0.39554025D-06
  0.32610467D-06 -0.52340150D-06  0.19729683D-06 -0.21619358D-16  0.11419521D-16
 -0.72704508D-05 -0.74692237D-17  0.29498735D-04  0.15557367D-04 -0.12880114D-15
 -0.42715295D-04  0.24420272D-04  0.15120881D-15 -0.45780910D-04 -0.71092372D-04
 -0.42220713D-15 -0.24309638D-17 -0.70656975D-05 -0.52183484D-05  0.49346598D-16
  0.10470640D-04 -0.72156022D-05 -0.42053706D-16  0.10726453D-04  0.22870647D-04
  0.14449941D-15
MO    2     MO 0.0        OCC NO =    2.0000000  ORB. ENERGY =  -26.107228
 -0.10907785D-14 -0.20408300D-14 -0.35239107D-14 -0.56990638D-14 -0.86015788D-14
 -0.11784429D-13 -0.13618440D-13 -0.11444598D-13 -0.50269688D-14 -0.57457425D-15
  0.77439069D-17 -0.48164937D-17 -0.23692323D-18  0.19482782D-14  0.36440503D-14
  0.63094762D-14  0.10245114D-13  0.15734102D-13  0.22377505D-13  0.28471781D-13
  0.29506788D-13  0.19690587D-13 -0.19392718D-14 -0.14812877D-13 -0.76058060D-14
  0.33362572D-16 -0.10324664D-14 -0.19293918D-14 -0.33456337D-14 -0.54253029D-14
 -0.83625245D-14 -0.11899416D-13 -0.15322848D-13 -0.16108173D-13 -0.11292323D-13
  0.13111398D-14  0.10614510D-13  0.99896959D-14 -0.48715675D-14  0.64889734D-14
 -0.11514290D-13 -0.12226197D-14  0.78517624D-02  0.10271604D-01  0.11237494D-01
  0.92565796D-02  0.49492819D-02  0.13675346D-02 -0.11209067D-05 -0.18575287D-14
 -0.24300020D-14 -0.26585074D-14 -0.21898729D-14 -0.11708751D-14 -0.32352415D-15
  0.26517821D-18  0.12147157D-12  0.15890800D-12  0.17385092D-12  0.14320495D-12
  0.76568421D-13  0.21156598D-13 -0.17341113D-16 -0.68619091D-02 -0.90879552D-02
 -0.10039749D-01 -0.85990758D-02 -0.46911212D-02 -0.14419277D-02  0.62776482D-03
  0.14053939D-14  0.18613124D-14  0.20562502D-14  0.17611846D-14  0.96079283D-15
  0.29532252D-15 -0.12857309D-15 -0.10683024D-12 -0.14148663D-12 -0.15630472D-12
 -0.13387547D-12 -0.73034134D-13 -0.22448778D-13  0.97734118D-14 -0.15154258D-03
  0.14013687D-16 -0.59684917D-14  0.18469525D-03  0.66586161D-15  0.27285038D-14
  0.10773177D-05 -0.17846659D-17 -0.90011636D-17 -0.57928959D-14  0.56534304D-14
  0.13946546D-15 -0.33621925D-17 -0.30785603D-03  0.17561949D-17  0.76509350D-15
  0.25906963D-16 -0.79100046D-15  0.21248257D-16 -0.30197784D-03  0.31892371D-15
 -0.61865897D-15  0.41540133D-15  0.20325764D-15  0.87611408D-17 -0.19793822D-04
  0.31822723D-18  0.14532698D-04  0.90073748D-17 -0.83492798D-15 -0.49705194D-04
 -0.14529957D-16  0.56808461D-14  0.61071017D-05 -0.12492167D-16 -0.31760621D-14
  0.13618109D-16 -0.83787459D-06  0.50420480D-16 -0.33793975D-15 -0.18867795D-04
 -0.72204043D-16  0.18522268D-14  0.21381419D-04 -0.79057397D-16 -0.83840756D-15
 -0.47285369D-17 -0.42110127D+00 -0.78495102D+00 -0.13306850D+01 -0.20150492D+01
 -0.25198261D+01 -0.21693355D+01 -0.83397178D+00  0.36137362D-02 -0.31723512D-03
 -0.59571138D-03 -0.10143937D-02 -0.15890418D-02 -0.21295029D-02 -0.22905675D-02
 -0.13752537D-02  0.90442472D-03 -0.40599710D-01 -0.14010950D-02 -0.20605583D-03
  0.32833696D-02  0.32110638D-02  0.21216856D-02 -0.24650698D-16 -0.24107844D-16
 -0.15929072D-16 -0.27422138D-02 -0.26818252D-02 -0.17719953D-02 -0.58309428D-03
  0.21618935D-16  0.44882995D-03  0.46326060D-03  0.24822807D-16 -0.37996838D-03
  0.11219450D-04  0.48834673D-17 -0.13022339D-04  0.97743310D-04 -0.31667742D-03
  0.21893411D-03 -0.12121843D-15 -0.60844498D-03  0.22838204D-16  0.52346705D-04
 -0.75803782D-05 -0.44766327D-04  0.67802579D-16 -0.26950649D-04 -0.98408311D-17
 -0.53424075D-04  0.62267717D-04 -0.88436423D-05 -0.34703031D-16  0.21242132D-03
  0.58164239D-17  0.24816932D-04  0.71446604D-16 -0.11012394D-03  0.37006408D-03
 -0.15624498D-15  0.55795530D-03 -0.44451487D-03 -0.58094838D-16 -0.22758347D-03
 -0.95727093D-16 -0.16556989D-04 -0.21388617D-16  0.42330805D-04 -0.15953722D-03
  0.46120233D-16 -0.24998349D-03  0.20920818D-03  0.18045616D-16  0.12299107D-03
  0.39285581D-16  0.42110127D+00  0.78495102D+00  0.13306850D+01  0.20150492D+01
  0.25198261D+01  0.21693355D+01  0.83397178D+00 -0.36137362D-02  0.31723512D-03
  0.59571138D-03  0.10143937D-02  0.15890418D-02  0.21295029D-02  0.22905675D-02
  0.13752537D-02 -0.90442472D-03  0.40599710D-01  0.14010950D-02  0.20605583D-03
  0.32833696D-02  0.32110638D-02  0.21216856D-02  0.19522834D-17  0.19092905D-17
  0.12615489D-17  0.27422138D-02  0.26818252D-02  0.17719953D-02 -0.58309428D-03
 -0.11711029D-16 -0.44882995D-03  0.46326060D-03  0.52361016D-16  0.37996838D-03
  0.11219450D-04  0.18926179D-18  0.13022339D-04 -0.97743310D-04  0.31667742D-03
 -0.21893411D-03  0.10628484D-15 -0.60844498D-03  0.58314330D-16 -0.52346705D-04
  0.75803782D-05  0.44766327D-04 -0.41236610D-16 -0.26950649D-04 -0.17708900D-16
  0.53424075D-04 -0.62267717D-04  0.88436423D-05  0.24063340D-16  0.21242132D-03
  0.56914395D-17  0.24816932D-04  0.61286840D-16  0.11012394D-03  0.37006408D-03
 -0.12541337D-15 -0.55795530D-03 -0.44451487D-03 -0.58447145D-16  0.22758347D-03
  0.26020575D-15 -0.16556989D-04 -0.16768004D-16 -0.42330805D-04 -0.15953722D-03
  0.36213979D-16  0.24998349D-03  0.20920818D-03  0.14090033D-16 -0.12299107D-03
 -0.88486544D-16  0.17848051D-12  0.33269541D-12  0.56400051D-12  0.85406299D-12
  0.10680088D-11  0.91945606D-12  0.35347248D-12 -0.15316541D-14 -0.65841756D-15
 -0.12363916D-14 -0.21053616D-14 -0.32980365D-14 -0.44197569D-14 -0.47540445D-14
 -0.28543221D-14  0.18771223D-14  0.16551546D-13 -0.44500551D-14 -0.13267233D-14
  0.14405764D-03  0.14088522D-03  0.93088823D-04  0.36644494D-14  0.35837515D-14
  0.23679361D-14  0.56461756D-17  0.55218364D-17  0.36485108D-17 -0.90801411D-04
 -0.12875615D-14 -0.98943499D-15  0.38922074D-04 -0.28149559D-14  0.11676837D-14
 -0.26046690D-05 -0.25798254D-16 -0.21216559D-16 -0.77581503D-15  0.28350085D-14
 -0.20591934D-14  0.20203734D-03  0.33468282D-04  0.24234895D-14 -0.37820889D-15
 -0.26059931D-15  0.63880820D-15 -0.12011490D-03  0.72229572D-05 -0.95807003D-15
  0.76358798D-15 -0.66948981D-15 -0.94098174D-16  0.50109484D-04 -0.67640467D-05
  0.76689205D-15  0.12773532D-03  0.76669202D-15  0.13552808D-15 -0.39087747D-03
 -0.66079042D-14  0.21733072D-14  0.76715142D-05  0.43078281D-14 -0.25798915D-14
  0.79703847D-03 -0.30924883D-04 -0.36864396D-15 -0.15503043D-15  0.90820394D-04
  0.21208887D-14 -0.76817211D-15  0.19542543D-05 -0.10149568D-14  0.12332634D-14
 -0.20156656D-03 -0.45616605D-13 -0.85031328D-13 -0.14414901D-12 -0.21828408D-12
 -0.27296501D-12 -0.23499744D-12 -0.90341597D-13  0.39146493D-15 -0.96156282D-15
 -0.18056447D-14 -0.30747015D-14 -0.48165017D-14 -0.64546789D-14 -0.69428774D-14
 -0.41684945D-14  0.27413773D-14 -0.51206592D-14 -0.62547764D-14 -0.24426814D-14
  0.14405764D-03  0.14088522D-03  0.93088823D-04 -0.19658792D-14 -0.19225869D-14
 -0.12703345D-14 -0.23359894D-15 -0.22845466D-15 -0.15094965D-15 -0.90801411D-04
  0.88535550D-15 -0.82834765D-15  0.38922074D-04  0.35582696D-14  0.93228224D-15
 -0.26046690D-05  0.17402880D-15 -0.53540135D-16 -0.93271805D-15  0.32826282D-14
 -0.23499102D-14 -0.20203734D-03  0.33468282D-04 -0.22022531D-14 -0.30940562D-15
 -0.41362836D-15  0.72303398D-15  0.12011490D-03  0.72229572D-05  0.85355803D-15
  0.77060100D-15 -0.67642431D-15 -0.94176689D-16 -0.50109484D-04 -0.67640467D-05
 -0.63426078D-15  0.12773532D-03 -0.61971433D-15  0.13362938D-15 -0.39087747D-03
  0.63037978D-14  0.20899794D-14  0.76715142D-05 -0.44446548D-14 -0.24908676D-14
 -0.79703847D-03 -0.30924883D-04  0.37103741D-15 -0.15184425D-15  0.90820394D-04
 -0.21212375D-14 -0.73259258D-15  0.19542543D-05  0.10081252D-14  0.11881253D-14
  0.20156656D-03
MO    3     MO 0.0        OCC NO =    2.0000000  ORB. ENERGY =  -26.107219
 -0.24468235D-04 -0.45779699D-04 -0.79048020D-04 -0.12784084D-03 -0.19294977D-03
 -0.26434716D-03 -0.30548751D-03 -0.25672410D-03 -0.11276447D-03 -0.12888793D-04
  0.17371056D-06 -0.10804311D-06 -0.53146387D-08  0.49483828D-04  0.92554318D-04
  0.16025280D-03  0.26021309D-03  0.39962649D-03  0.56836062D-03  0.72314759D-03
  0.74943549D-03  0.50011627D-03 -0.49255076D-04 -0.37622853D-03 -0.19317795D-03
  0.84736757D-06 -0.27496884D-04 -0.51384006D-04 -0.89101687D-04 -0.14448792D-03
 -0.22271268D-03 -0.31690798D-03 -0.40808161D-03 -0.42899658D-03 -0.30073976D-03
  0.34918577D-04  0.28268807D-03  0.26604788D-03 -0.12974071D-03  0.17555973D-03
 -0.81677631D-03 -0.21023802D-05  0.18049380D-12  0.23612034D-12  0.25832392D-12
  0.21278729D-12  0.11377251D-12  0.31436447D-13 -0.25767044D-16  0.11595763D-14
  0.15169471D-14  0.16595933D-14  0.13670447D-14  0.73092763D-15  0.20196240D-15
 -0.16553950D-18  0.64613391D-02  0.84526646D-02  0.92475113D-02  0.76173852D-02
  0.40728421D-02  0.11253658D-02 -0.92241178D-06 -0.15831018D-12 -0.20966699D-12
 -0.23162570D-12 -0.19838812D-12 -0.10822823D-12 -0.33266520D-13  0.14483078D-13
 -0.12001642D-14 -0.15895050D-14 -0.17559760D-14 -0.15039988D-14 -0.82048826D-15
 -0.25219658D-15  0.10979756D-15 -0.55368378D-02 -0.73330224D-02 -0.81010198D-02
 -0.69385482D-02 -0.37852406D-02 -0.11634837D-02  0.50654007D-03 -0.76972680D-14
  0.35414556D-15 -0.18800056D-03  0.28889343D-14 -0.19685993D-14  0.22673136D-03
 -0.41153381D-15  0.23502326D-16 -0.11208055D-05 -0.10076609D-03  0.14397657D-03
 -0.43210480D-04 -0.23355792D-16 -0.73795970D-14  0.66142266D-16 -0.54093814D-04
  0.92660041D-04 -0.38566227D-04  0.15411514D-16 -0.68603642D-14 -0.66005837D-16
 -0.88250662D-05  0.16404131D-04 -0.75790647D-05 -0.62144563D-17  0.19097380D-15
  0.15049040D-16 -0.31303059D-15 -0.53269943D-16  0.71061281D-05 -0.27031712D-14
  0.68598383D-16  0.24551173D-04  0.36422630D-14  0.91211447D-16 -0.45869558D-04
  0.27172761D-17 -0.32788390D-16 -0.11991474D-15 -0.37924595D-05 -0.25320919D-15
  0.18110805D-15  0.38350411D-04  0.35157436D-15  0.17863617D-15 -0.26973032D-04
  0.79831391D-17  0.42107642D+00  0.78490470D+00  0.13306064D+01  0.20149303D+01
  0.25196774D+01  0.21692075D+01  0.83392257D+00 -0.36135230D-02  0.33510178D-03
  0.62926179D-03  0.10715243D-02  0.16785365D-02  0.22494364D-02  0.24195721D-02
  0.14527079D-02 -0.95536184D-03  0.40597687D-01  0.15181018D-02  0.28110709D-03
 -0.31359062D-02 -0.30668477D-02 -0.20263960D-02  0.27585745D-15  0.26978256D-15
  0.17825675D-15  0.27621735D-02  0.27013454D-02  0.17848931D-02  0.52292369D-03
 -0.20752790D-15 -0.45104664D-03 -0.46942707D-03  0.61216966D-16  0.39043116D-03
 -0.25189051D-04 -0.71500732D-16  0.18024042D-04 -0.33385925D-03  0.35239184D-03
 -0.18532593D-04  0.38907733D-15  0.64132396D-03 -0.10262343D-15  0.45489331D-04
 -0.12207034D-04 -0.33282296D-04 -0.14876785D-15 -0.34579540D-05  0.23038817D-16
  0.40971047D-04 -0.59326427D-04  0.18355380D-04  0.36204406D-16 -0.16768027D-03
  0.13079001D-17 -0.53665700D-04 -0.87921057D-16  0.10000831D-03 -0.13112095D-03
  0.54372813D-16 -0.50669085D-03  0.29211805D-03  0.20939036D-15  0.20666593D-03
  0.64635392D-15  0.29088193D-05  0.28360819D-16 -0.41794643D-04  0.11306430D-03
 -0.20003587D-16  0.23373922D-03 -0.12179076D-03 -0.65078870D-16 -0.10835529D-03
 -0.20399672D-15  0.42107642D+00  0.78490470D+00  0.13306064D+01  0.20149303D+01
  0.25196774D+01  0.21692075D+01  0.83392257D+00 -0.36135230D-02  0.33510178D-03
  0.62926179D-03  0.10715243D-02  0.16785365D-02  0.22494364D-02  0.24195721D-02
  0.14527079D-02 -0.95536184D-03  0.40597687D-01  0.15181018D-02  0.28110709D-03
  0.31359062D-02  0.30668477D-02  0.20263960D-02  0.24295274D-15  0.23760247D-15
  0.15699400D-15  0.27621735D-02  0.27013454D-02  0.17848931D-02 -0.52292369D-03
 -0.19255524D-15 -0.45104664D-03  0.46942707D-03  0.23047460D-16  0.39043116D-03
  0.25189051D-04 -0.69914319D-16  0.18024042D-04 -0.33385925D-03  0.35239184D-03
 -0.18532593D-04 -0.30305404D-15 -0.64132396D-03 -0.65706917D-16  0.45489331D-04
 -0.12207034D-04 -0.33282296D-04  0.10839862D-15  0.34579540D-05  0.15081625D-16
  0.40971047D-04 -0.59326427D-04  0.18355380D-04 -0.32863900D-16  0.16768027D-03
 -0.89158322D-17  0.53665700D-04 -0.11099449D-15  0.10000831D-03  0.13112095D-03
  0.46828870D-16 -0.50669085D-03 -0.29211805D-03  0.28615460D-15  0.20666593D-03
 -0.74162786D-15 -0.29088193D-05  0.35393311D-16 -0.41794643D-04 -0.11306430D-03
 -0.16638679D-16  0.23373922D-03  0.12179076D-03 -0.89541254D-16 -0.10835529D-03
  0.21866348D-15 -0.64896408D-04 -0.12096972D-03 -0.20507341D-03 -0.31054158D-03
 -0.38833333D-03 -0.33431883D-03 -0.12852436D-03  0.55691710D-06 -0.15654483D-04