 Molden2AIM, Version 4.0.0 (06/02/2016)           Time: Wed Jun 27 22:08:31 2018
GAUSSIAN             20 MOL ORBITALS    356 PRIMITIVES        4 NUCLEI
  P    1    (CENTRE  1)  -0.00005858  0.00000000  0.00000000  CHARGE = 15.0
  O    2    (CENTRE  2)  -1.43561360  2.48669817  0.00000000  CHARGE =  8.0
  O    3    (CENTRE  3)  -1.43561360 -2.48669817  0.00000000  CHARGE =  8.0
  O    4    (CENTRE  4)   2.87128767  0.00000000  0.00000000  CHARGE =  8.0
CENTRE ASSIGNMENTS    1  1  1  1  1  1  1  1  1  1  1  1  1  1  1  1  1  1  1  1
CENTRE ASSIGNMENTS    1  1  1  1  1  1  1  1  1  1  1  1  1  1  1  1  1  1  1  1
CENTRE ASSIGNMENTS    1  1  1  1  1  1  1  1  1  1  1  1  1  1  1  1  1  1  1  1
CENTRE ASSIGNMENTS    1  1  1  1  1  1  1  1  1  1  1  1  1  1  1  1  1  1  1  1
CENTRE ASSIGNMENTS    1  1  1  1  1  1  1  1  1  1  1  1  1  1  1  1  1  1  1  1
CENTRE ASSIGNMENTS    1  1  1  1  1  1  1  1  1  1  1  1  1  1  1  1  1  1  1  1
CENTRE ASSIGNMENTS    1  1  1  1  1  1  1  1  1  1  1  2  2  2  2  2  2  2  2  2
CENTRE ASSIGNMENTS    2  2  2  2  2  2  2  2  2  2  2  2  2  2  2  2  2  2  2  2
CENTRE ASSIGNMENTS    2  2  2  2  2  2  2  2  2  2  2  2  2  2  2  2  2  2  2  2
CENTRE ASSIGNMENTS    2  2  2  2  2  2  2  2  2  2  2  2  2  2  2  2  2  2  2  2
CENTRE ASSIGNMENTS    2  2  2  2  2  2  3  3  3  3  3  3  3  3  3  3  3  3  3  3
CENTRE ASSIGNMENTS    3  3  3  3  3  3  3  3  3  3  3  3  3  3  3  3  3  3  3  3
CENTRE ASSIGNMENTS    3  3  3  3  3  3  3  3  3  3  3  3  3  3  3  3  3  3  3  3
CENTRE ASSIGNMENTS    3  3  3  3  3  3  3  3  3  3  3  3  3  3  3  3  3  3  3  3
CENTRE ASSIGNMENTS    3  4  4  4  4  4  4  4  4  4  4  4  4  4  4  4  4  4  4  4
CENTRE ASSIGNMENTS    4  4  4  4  4  4  4  4  4  4  4  4  4  4  4  4  4  4  4  4
CENTRE ASSIGNMENTS    4  4  4  4  4  4  4  4  4  4  4  4  4  4  4  4  4  4  4  4
CENTRE ASSIGNMENTS    4  4  4  4  4  4  4  4  4  4  4  4  4  4  4  4
TYPE ASSIGNMENTS      1  1  1  1  1  1  1  1  1  1  1  1  1  1  1  1  1  1  1  1
TYPE ASSIGNMENTS      1  1  1  1  1  1  1  1  1  1  1  1  1  1  1  1  1  1  1  1
TYPE ASSIGNMENTS      1  1  2  2  2  2  2  2  2  3  3  3  3  3  3  3  4  4  4  4
TYPE ASSIGNMENTS      4  4  4  2  2  2  2  2  2  2  3  3  3  3  3  3  3  4  4  4
TYPE ASSIGNMENTS      4  4  4  4  2  3  4  2  3  4  2  3  4  5  6  7  8  9 10  5
TYPE ASSIGNMENTS      6  7  8  9 10  5  6  7  8  9 10 11 12 13 17 14 15 18 19 16
TYPE ASSIGNMENTS     20 11 12 13 17 14 15 18 19 16 20  1  1  1  1  1  1  1  1  1
TYPE ASSIGNMENTS      1  1  1  1  1  1  1  1  1  1  2  2  2  3  3  3  4  4  4  2
TYPE ASSIGNMENTS      3  4  2  3  4  2  3  4  5  6  7  8  9 10  5  6  7  8  9 10
TYPE ASSIGNMENTS      5  6  7  8  9 10 11 12 13 17 14 15 18 19 16 20 11 12 13 17
TYPE ASSIGNMENTS     14 15 18 19 16 20  1  1  1  1  1  1  1  1  1  1  1  1  1  1
TYPE ASSIGNMENTS      1  1  1  1  1  2  2  2  3  3  3  4  4  4  2  3  4  2  3  4
TYPE ASSIGNMENTS      2  3  4  5  6  7  8  9 10  5  6  7  8  9 10  5  6  7  8  9
TYPE ASSIGNMENTS     10 11 12 13 17 14 15 18 19 16 20 11 12 13 17 14 15 18 19 16
TYPE ASSIGNMENTS     20  1  1  1  1  1  1  1  1  1  1  1  1  1  1  1  1  1  1  1
TYPE ASSIGNMENTS      2  2  2  3  3  3  4  4  4  2  3  4  2  3  4  2  3  4  5  6
TYPE ASSIGNMENTS      7  8  9 10  5  6  7  8  9 10  5  6  7  8  9 10 11 12 13 17
TYPE ASSIGNMENTS     14 15 18 19 16 20 11 12 13 17 14 15 18 19 16 20
EXPONENTS  0.3124000D+06 0.4680000D+05 0.1065000D+05 0.3018000D+04 0.9868000D+03
EXPONENTS  0.3574000D+03 0.1396000D+03 0.5763000D+02 0.2460000D+02 0.1012000D+02
EXPONENTS  0.4283000D+01 0.1805000D+01 0.2782000D+00 0.3124000D+06 0.4680000D+05
EXPONENTS  0.1065000D+05 0.3018000D+04 0.9868000D+03 0.3574000D+03 0.1396000D+03
EXPONENTS  0.5763000D+02 0.2460000D+02 0.1012000D+02 0.4283000D+01 0.1805000D+01
EXPONENTS  0.2782000D+00 0.3124000D+06 0.4680000D+05 0.1065000D+05 0.3018000D+04
EXPONENTS  0.9868000D+03 0.3574000D+03 0.1396000D+03 0.5763000D+02 0.2460000D+02
EXPONENTS  0.1012000D+02 0.4283000D+01 0.1805000D+01 0.2782000D+00 0.6158000D+00
EXPONENTS  0.1055000D+00 0.4090000D-01 0.5049000D+03 0.1194000D+03 0.3796000D+02
EXPONENTS  0.1395000D+02 0.5457000D+01 0.2177000D+01 0.2877000D+00 0.5049000D+03
EXPONENTS  0.1194000D+03 0.3796000D+02 0.1395000D+02 0.5457000D+01 0.2177000D+01
EXPONENTS  0.2877000D+00 0.5049000D+03 0.1194000D+03 0.3796000D+02 0.1395000D+02
EXPONENTS  0.5457000D+01 0.2177000D+01 0.2877000D+00 0.5049000D+03 0.1194000D+03
EXPONENTS  0.3796000D+02 0.1395000D+02 0.5457000D+01 0.2177000D+01 0.2877000D+00
EXPONENTS  0.5049000D+03 0.1194000D+03 0.3796000D+02 0.1395000D+02 0.5457000D+01
EXPONENTS  0.2177000D+01 0.2877000D+00 0.5049000D+03 0.1194000D+03 0.3796000D+02
EXPONENTS  0.1395000D+02 0.5457000D+01 0.2177000D+01 0.2877000D+00 0.8010000D+00
EXPONENTS  0.8010000D+00 0.8010000D+00 0.9714000D-01 0.9714000D-01 0.9714000D-01
EXPONENTS  0.3070000D-01 0.3070000D-01 0.3070000D-01 0.2160000D+00 0.2160000D+00
EXPONENTS  0.2160000D+00 0.2160000D+00 0.2160000D+00 0.2160000D+00 0.6520000D+00
EXPONENTS  0.6520000D+00 0.6520000D+00 0.6520000D+00 0.6520000D+00 0.6520000D+00
EXPONENTS  0.7750000D-01 0.7750000D-01 0.7750000D-01 0.7750000D-01 0.7750000D-01
EXPONENTS  0.7750000D-01 0.4520000D+00 0.4520000D+00 0.4520000D+00 0.4520000D+00
EXPONENTS  0.4520000D+00 0.4520000D+00 0.4520000D+00 0.4520000D+00 0.4520000D+00
EXPONENTS  0.4520000D+00 0.1650000D+00 0.1650000D+00 0.1650000D+00 0.1650000D+00
EXPONENTS  0.1650000D+00 0.1650000D+00 0.1650000D+00 0.1650000D+00 0.1650000D+00
EXPONENTS  0.1650000D+00 0.1533000D+05 0.2299000D+04 0.5224000D+03 0.1473000D+03
EXPONENTS  0.4755000D+02 0.1676000D+02 0.6207000D+01 0.6882000D+00 0.1533000D+05
EXPONENTS  0.2299000D+04 0.5224000D+03 0.1473000D+03 0.4755000D+02 0.1676000D+02
EXPONENTS  0.6207000D+01 0.6882000D+00 0.1752000D+01 0.2384000D+00 0.7376000D-01
EXPONENTS  0.3446000D+02 0.7749000D+01 0.2280000D+01 0.3446000D+02 0.7749000D+01
EXPONENTS  0.2280000D+01 0.3446000D+02 0.7749000D+01 0.2280000D+01 0.7156000D+00
EXPONENTS  0.7156000D+00 0.7156000D+00 0.2140000D+00 0.2140000D+00 0.2140000D+00
EXPONENTS  0.5974000D-01 0.5974000D-01 0.5974000D-01 0.2314000D+01 0.2314000D+01
EXPONENTS  0.2314000D+01 0.2314000D+01 0.2314000D+01 0.2314000D+01 0.6450000D+00
EXPONENTS  0.6450000D+00 0.6450000D+00 0.6450000D+00 0.6450000D+00 0.6450000D+00
EXPONENTS  0.2140000D+00 0.2140000D+00 0.2140000D+00 0.2140000D+00 0.2140000D+00
EXPONENTS  0.2140000D+00 0.1428000D+01 0.1428000D+01 0.1428000D+01 0.1428000D+01
EXPONENTS  0.1428000D+01 0.1428000D+01 0.1428000D+01 0.1428000D+01 0.1428000D+01
EXPONENTS  0.1428000D+01 0.5000000D+00 0.5000000D+00 0.5000000D+00 0.5000000D+00
EXPONENTS  0.5000000D+00 0.5000000D+00 0.5000000D+00 0.5000000D+00 0.5000000D+00
EXPONENTS  0.5000000D+00 0.1533000D+05 0.2299000D+04 0.5224000D+03 0.1473000D+03
EXPONENTS  0.4755000D+02 0.1676000D+02 0.6207000D+01 0.6882000D+00 0.1533000D+05
EXPONENTS  0.2299000D+04 0.5224000D+03 0.1473000D+03 0.4755000D+02 0.1676000D+02
EXPONENTS  0.6207000D+01 0.6882000D+00 0.1752000D+01 0.2384000D+00 0.7376000D-01
EXPONENTS  0.3446000D+02 0.7749000D+01 0.2280000D+01 0.3446000D+02 0.7749000D+01
EXPONENTS  0.2280000D+01 0.3446000D+02 0.7749000D+01 0.2280000D+01 0.7156000D+00
EXPONENTS  0.7156000D+00 0.7156000D+00 0.2140000D+00 0.2140000D+00 0.2140000D+00
EXPONENTS  0.5974000D-01 0.5974000D-01 0.5974000D-01 0.2314000D+01 0.2314000D+01
EXPONENTS  0.2314000D+01 0.2314000D+01 0.2314000D+01 0.2314000D+01 0.6450000D+00
EXPONENTS  0.6450000D+00 0.6450000D+00 0.6450000D+00 0.6450000D+00 0.6450000D+00
EXPONENTS  0.2140000D+00 0.2140000D+00 0.2140000D+00 0.2140000D+00 0.2140000D+00
EXPONENTS  0.2140000D+00 0.1428000D+01 0.1428000D+01 0.1428000D+01 0.1428000D+01
EXPONENTS  0.1428000D+01 0.1428000D+01 0.1428000D+01 0.1428000D+01 0.1428000D+01
EXPONENTS  0.1428000D+01 0.5000000D+00 0.5000000D+00 0.5000000D+00 0.5000000D+00
EXPONENTS  0.5000000D+00 0.5000000D+00 0.5000000D+00 0.5000000D+00 0.5000000D+00
EXPONENTS  0.5000000D+00 0.1533000D+05 0.2299000D+04 0.5224000D+03 0.1473000D+03
EXPONENTS  0.4755000D+02 0.1676000D+02 0.6207000D+01 0.6882000D+00 0.1533000D+05
EXPONENTS  0.2299000D+04 0.5224000D+03 0.1473000D+03 0.4755000D+02 0.1676000D+02
EXPONENTS  0.6207000D+01 0.6882000D+00 0.1752000D+01 0.2384000D+00 0.7376000D-01
EXPONENTS  0.3446000D+02 0.7749000D+01 0.2280000D+01 0.3446000D+02 0.7749000D+01
EXPONENTS  0.2280000D+01 0.3446000D+02 0.7749000D+01 0.2280000D+01 0.7156000D+00
EXPONENTS  0.7156000D+00 0.7156000D+00 0.2140000D+00 0.2140000D+00 0.2140000D+00
EXPONENTS  0.5974000D-01 0.5974000D-01 0.5974000D-01 0.2314000D+01 0.2314000D+01
EXPONENTS  0.2314000D+01 0.2314000D+01 0.2314000D+01 0.2314000D+01 0.6450000D+00
EXPONENTS  0.6450000D+00 0.6450000D+00 0.6450000D+00 0.6450000D+00 0.6450000D+00
EXPONENTS  0.2140000D+00 0.2140000D+00 0.2140000D+00 0.2140000D+00 0.2140000D+00
EXPONENTS  0.2140000D+00 0.1428000D+01 0.1428000D+01 0.1428000D+01 0.1428000D+01
EXPONENTS  0.1428000D+01 0.1428000D+01 0.1428000D+01 0.1428000D+01 0.1428000D+01
EXPONENTS  0.1428000D+01 0.5000000D+00 0.5000000D+00 0.5000000D+00 0.5000000D+00
EXPONENTS  0.5000000D+00 0.5000000D+00 0.5000000D+00 0.5000000D+00 0.5000000D+00
EXPONENTS  0.5000000D+00
MO    1     MO 0.0        OCC NO =    2.0000000  ORB. ENERGY =  -79.879958
  0.54336321D+00  0.10166244D+01  0.17554101D+01  0.28389465D+01  0.42848128D+01
  0.58703261D+01  0.67839252D+01  0.57010417D+01  0.25041473D+01  0.28621991D+00
 -0.38575699D-02  0.23993007D-02  0.11802155D-03 -0.52024062D-07 -0.97305560D-07
 -0.16847932D-06 -0.27357103D-06 -0.42014117D-06 -0.59753720D-06 -0.76027011D-06
 -0.78790749D-06 -0.52578956D-06  0.51783568D-07  0.39554208D-06  0.20309467D-06
 -0.89086688D-09 -0.19658881D-05 -0.36736964D-05 -0.63703198D-05 -0.10330155D-04
 -0.15922830D-04 -0.22657317D-04 -0.29175770D-04 -0.30671085D-04 -0.21501371D-04
  0.24965015D-05  0.20210766D-04  0.19021077D-04 -0.92758040D-05 -0.45699764D-03
  0.11379190D-04  0.28796655D-06 -0.94541686D-07 -0.12367857D-06 -0.13530869D-06
 -0.11145684D-06 -0.59593430D-07 -0.16466243D-07  0.13496640D-10  0.42679266D-14
  0.55832625D-14  0.61082848D-14  0.50315331D-14  0.26902459D-14  0.74334105D-15
 -0.60928327D-18 -0.32302754D-17 -0.42258167D-17 -0.46231915D-17 -0.38082279D-17
 -0.20361726D-17 -0.56261424D-18  0.46114962D-21  0.40475576D-07  0.53606105D-07
  0.59220346D-07  0.50722407D-07  0.27670992D-07  0.85053375D-08 -0.37029261D-08
 -0.38926850D-14 -0.51554963D-14 -0.56954385D-14 -0.48781604D-14 -0.26612211D-14
 -0.81798959D-15  0.35612403D-15  0.10642582D-17  0.14095102D-17  0.15571301D-17
  0.13336867D-17  0.72757655D-18  0.22363795D-18 -0.97364134D-19  0.68154172D-08
 -0.36907454D-16  0.16175660D-18 -0.42200940D-09 -0.20726084D-15 -0.11186121D-19
 -0.33555449D-11 -0.70372369D-17 -0.35828031D-21  0.46263314D-05  0.46321751D-05
 -0.92585065D-05 -0.19283970D-15 -0.56869812D-21  0.76208881D-20 -0.15918663D-04
 -0.15925269D-04  0.31843932D-04 -0.19415380D-15 -0.24245637D-19 -0.22775471D-18
  0.10773380D-06  0.10770683D-06 -0.21544063D-06  0.28200768D-16  0.14118141D-21
 -0.65650467D-21 -0.29538177D-05 -0.88684106D-17  0.44200201D-20  0.88613985D-05
  0.62982331D-16 -0.69060680D-20  0.54587438D-10 -0.36377099D-16 -0.63539924D-20
  0.25133173D-19  0.15922472D-05 -0.10423818D-16  0.17020954D-20 -0.47767470D-05
  0.11243610D-16 -0.28053717D-20  0.54183942D-11  0.20027845D-16 -0.23009143D-20
 -0.20144572D-20  0.23658625D-05  0.44096633D-05  0.74773279D-05  0.11317284D-04
  0.14120666D-04  0.12127769D-04  0.46560864D-05 -0.20826960D-07 -0.89083557D-06
 -0.16707842D-05 -0.28483208D-05 -0.44513709D-05 -0.59523311D-05 -0.63557018D-05
 -0.38857515D-05  0.25635828D-05 -0.91927541D-05 -0.27891545D-04  0.90163672D-06
 -0.16911535D-04 -0.16398500D-04 -0.11062331D-04  0.29295608D-04  0.28406885D-04
  0.19163117D-04  0.49791930D-19  0.48281423D-19  0.32570363D-19  0.98727001D-07
 -0.17135534D-06 -0.14151248D-19 -0.12677482D-05  0.21942297D-05  0.27068214D-19
  0.24249060D-06 -0.42000774D-06  0.15552046D-20  0.82050239D-05 -0.19422458D-04
  0.11217434D-04  0.47836975D-04 -0.70369180D-19  0.92179720D-19 -0.36628780D-05
  0.10346546D-04 -0.66836678D-05 -0.24257637D-04  0.25417584D-19 -0.41110212D-19
  0.65678019D-06  0.68604416D-06 -0.13428243D-05 -0.48766045D-07  0.84376005D-20
 -0.14442301D-19 -0.47593114D-05 -0.43307339D-05  0.90302646D-20  0.24279078D-04
 -0.43306916D-05 -0.13551617D-19 -0.10001144D-04  0.17322893D-04 -0.13539177D-19
  0.49797414D-19 -0.30363531D-05 -0.17842467D-05 -0.14050677D-19  0.13226946D-04
 -0.17808980D-05  0.88835780D-20 -0.41178862D-05  0.71336379D-05  0.33268452D-19
 -0.48296782D-19  0.23658625D-05  0.44096633D-05  0.74773279D-05  0.11317284D-04
  0.14120666D-04  0.12127769D-04  0.46560864D-05 -0.20826960D-07 -0.89083557D-06
 -0.16707842D-05 -0.28483208D-05 -0.44513709D-05 -0.59523311D-05 -0.63557018D-05
 -0.38857515D-05  0.25635828D-05 -0.91927541D-05 -0.27891545D-04  0.90163672D-06
 -0.16911535D-04 -0.16398500D-04 -0.11062331D-04 -0.29295608D-04 -0.28406885D-04
 -0.19163117D-04  0.88589698D-19  0.85902207D-19  0.57949121D-19  0.98727001D-07
  0.17135534D-06 -0.43736216D-19 -0.12677482D-05 -0.21942297D-05  0.26632899D-19
  0.24249060D-06  0.42000774D-06  0.76030940D-21  0.82050239D-05 -0.19422458D-04
  0.11217434D-04 -0.47836975D-04  0.25832522D-19  0.87010739D-19 -0.36628780D-05
  0.10346546D-04 -0.66836678D-05  0.24257637D-04 -0.20354762D-19 -0.41042758D-19
  0.65678019D-06  0.68604416D-06 -0.13428243D-05  0.48766045D-07  0.62582779D-20
  0.13118457D-19 -0.47593114D-05  0.43307339D-05  0.22409992D-19  0.24279078D-04
  0.43306916D-05 -0.22507138D-19 -0.10001144D-04 -0.17322893D-04 -0.44722839D-19
 -0.55180954D-19 -0.30363531D-05  0.17842467D-05  0.66875963D-21  0.13226946D-04
  0.17808980D-05  0.16124074D-20 -0.41178862D-05 -0.71336379D-05 -0.36186863D-20
 -0.14356327D-19  0.23654593D-05  0.44089118D-05  0.74760535D-05  0.11315355D-04
  0.14118260D-04  0.12125702D-04  0.46552928D-05 -0.20823410D-07 -0.89060313D-06
 -0.16703482D-05 -0.28475776D-05 -0.44502095D-05 -0.59507780D-05 -0.63540435D-05
 -0.38847376D-05  0.25629139D-05 -0.91919649D-05 -0.27883457D-04  0.90244536D-06
  0.33825888D-04  0.32799733D-04  0.22126506D-04  0.93870073D-16  0.91022395D-16
  0.61403170D-16 -0.90432666D-19 -0.87689266D-19 -0.59154661D-19 -0.19891706D-06
 -0.84515532D-16  0.28284032D-20  0.25308810D-05  0.10161097D-15  0.25289874D-19
 -0.48506451D-06 -0.57476954D-17  0.97186306D-21 -0.33228861D-04  0.22012935D-04
  0.11215927D-04 -0.12665552D-16  0.74272932D-19 -0.15002374D-19  0.17346803D-04
 -0.10664114D-04 -0.66826894D-05  0.33565796D-16 -0.18853186D-19 -0.10818612D-20
  0.70017223D-06  0.64262600D-06 -0.13427982D-05 -0.65760599D-16 -0.14375892D-19
  0.14807312D-20 -0.12258999D-04  0.15784629D-16  0.23596878D-19  0.16773619D-04
 -0.14942783D-15 -0.41426603D-19  0.20003378D-04  0.10207394D-15 -0.29364030D-19
  0.18431701D-19 -0.61246344D-05 -0.30147360D-17 -0.66516011D-20  0.10138564D-04
  0.36699570D-16  0.18956342D-19  0.82353393D-05 -0.27655362D-16  0.99846113D-21
 -0.55510367D-20
MO    2     MO 0.0        OCC NO =    2.0000000  ORB. ENERGY =  -20.350344
  0.37723815D-13  0.70580687D-13  0.12187200D-12  0.19709816D-12  0.29747962D-12
  0.40755629D-12  0.47098429D-12  0.39580346D-12  0.17385422D-12  0.19871251D-13
 -0.26781764D-15  0.16657509D-15  0.81938252D-17 -0.68109990D-13 -0.12739260D-12
 -0.22057341D-12 -0.35815966D-12 -0.55004954D-12 -0.78229672D-12 -0.99534692D-12
 -0.10315298D-11 -0.68836459D-12  0.67795135D-13  0.51784436D-12  0.26589189D-12
 -0.11663244D-14  0.44505402D-13  0.83168182D-13  0.14421658D-12  0.23386261D-12
  0.36047421D-12  0.51293510D-12  0.66050525D-12  0.69435742D-12  0.48676584D-12
 -0.56517870D-13 -0.45754807D-12 -0.43061491D-12  0.20999334D-12 -0.34958572D-12
  0.20507092D-12  0.40540627D-13 -0.38908891D-11 -0.50900255D-11 -0.55686662D-11
 -0.45870369D-11 -0.24525840D-11 -0.67767275D-12  0.55545791D-15 -0.33108524D-02
 -0.43312268D-02 -0.47385139D-02 -0.39032216D-02 -0.20869635D-02 -0.57664828D-03
  0.47265269D-06 -0.16582613D-15 -0.21693223D-15 -0.23733146D-15 -0.19549532D-15
 -0.10452689D-15 -0.28881793D-16  0.23673108D-19  0.43602857D-11  0.57747896D-11
  0.63795912D-11  0.54641393D-11  0.29808948D-11  0.91624889D-12 -0.39890269D-12
  0.38973814D-02  0.51617162D-02  0.57023098D-02  0.48840458D-02  0.26644318D-02
  0.81897647D-03 -0.35655368D-03 -0.76949369D-16 -0.10191222D-15 -0.11258563D-15
 -0.96429936D-16 -0.52606179D-16 -0.16169760D-16  0.70397474D-17  0.11117188D-12
  0.89662917D-04  0.24715794D-16  0.17362460D-12  0.25673963D-03 -0.11190380D-16
 -0.54571752D-14 -0.54522124D-05  0.14748291D-17 -0.65179102D-13  0.12734787D-12
 -0.62168765D-13  0.17900470D-03 -0.33107611D-17 -0.60032231D-17 -0.20231376D-12
  0.41230858D-12 -0.20999482D-12  0.64196242D-03  0.22114145D-18  0.18688764D-15
  0.20760575D-13 -0.18935229D-13 -0.18253460D-14 -0.48871561D-04  0.22069215D-21
 -0.93186961D-19  0.74497611D-13 -0.62263808D-04  0.32311017D-19 -0.46799038D-12
 -0.62145119D-04 -0.16645981D-18  0.24449754D-12  0.24893654D-03  0.69526758D-19
 -0.74196263D-18  0.17680691D-13  0.40269105D-05  0.79362011D-19 -0.41547545D-13
  0.40418376D-05 -0.71460535D-19 -0.11494529D-13 -0.16122569D-04 -0.16662550D-18
  0.22224099D-18 -0.35234349D+00 -0.65672293D+00 -0.11135845D+01 -0.16854620D+01
 -0.21029645D+01 -0.18061660D+01 -0.69342225D+00  0.31017203D-02 -0.19679645D-03
 -0.36909662D-03 -0.62922882D-03 -0.98336217D-03 -0.13149426D-02 -0.14040521D-02
 -0.85840994D-03  0.56632674D-03 -0.33244661D-01 -0.74163946D-03 -0.23353141D-03
 -0.28021116D-02 -0.27171057D-02 -0.18329434D-02  0.48841113D-02  0.47359450D-02
  0.31948405D-02  0.45119615D-16  0.43750849D-16  0.29514064D-16  0.48082752D-03
 -0.81182984D-03 -0.65980021D-17 -0.93410609D-04  0.64333142D-04  0.21454678D-17
 -0.10437748D-05  0.27777049D-04  0.13974116D-18 -0.50704583D-04 -0.34553111D-03
  0.39623569D-03  0.38180131D-03 -0.10070001D-17 -0.18319924D-16 -0.45146418D-04
  0.14551608D-03 -0.10036966D-03 -0.28006707D-03  0.13215850D-18  0.16691600D-17
 -0.89751958D-05 -0.47434550D-06  0.94495413D-05  0.23231704D-04  0.52319453D-18
 -0.12613075D-17 -0.14995548D-04 -0.89279198D-04 -0.11315646D-17  0.11764797D-03
 -0.23508703D-05  0.12134910D-17 -0.72661330D-04  0.27018846D-03  0.21812028D-17
  0.49205036D-17  0.15334471D-05  0.61785504D-05 -0.17518450D-18  0.21573016D-05
  0.26607854D-05  0.40066386D-18 -0.67576430D-05 -0.21196437D-04  0.12488965D-18
 -0.68287961D-18  0.35234349D+00  0.65672293D+00  0.11135845D+01  0.16854620D+01
  0.21029645D+01  0.18061660D+01  0.69342225D+00 -0.31017203D-02  0.19679645D-03
  0.36909662D-03  0.62922882D-03  0.98336217D-03  0.13149426D-02  0.14040521D-02
  0.85840994D-03 -0.56632674D-03  0.33244661D-01  0.74163946D-03  0.23353141D-03
  0.28021116D-02  0.27171057D-02  0.18329434D-02  0.48841113D-02  0.47359451D-02
  0.31948406D-02 -0.16059988D-16 -0.15572786D-16 -0.10505309D-16 -0.48082752D-03
 -0.81182984D-03  0.66890589D-18  0.93410609D-04  0.64333142D-04  0.15838048D-18
  0.10437749D-05  0.27777049D-04 -0.81262108D-19  0.50704583D-04  0.34553111D-03
 -0.39623569D-03  0.38180131D-03  0.68288240D-17 -0.29134807D-16  0.45146418D-04
 -0.14551608D-03  0.10036966D-03 -0.28006707D-03 -0.10101081D-17 -0.27977496D-18
  0.89751958D-05  0.47434555D-06 -0.94495414D-05  0.23231704D-04  0.20475748D-18
 -0.21839137D-18  0.14995548D-04 -0.89279198D-04  0.12867329D-17 -0.11764797D-03
 -0.23508706D-05  0.14637864D-17  0.72661331D-04  0.27018846D-03 -0.53239851D-17
  0.20868759D-17 -0.15334470D-05  0.61785504D-05  0.10830098D-18 -0.21573017D-05
  0.26607854D-05 -0.49235964D-18  0.67576429D-05 -0.21196437D-04  0.16745668D-18
 -0.74653146D-18 -0.22699847D-09 -0.42309594D-09 -0.71743053D-09 -0.10858645D-08
 -0.13548419D-08 -0.11636285D-08 -0.44673960D-09  0.19982937D-11 -0.94233646D-13
 -0.17673754D-12 -0.30129876D-12 -0.47087131D-12 -0.62964466D-12 -0.67231370D-12
 -0.41103941D-12  0.27117884D-12 -0.21383009D-10 -0.64671037D-12 -0.20822720D-12
  0.35508409D-11  0.34431212D-11  0.23227092D-11  0.29889841D-04  0.28983091D-04
  0.19551822D-04  0.24610376D-17  0.23863786D-17  0.16098369D-17 -0.43291173D-12
  0.21070437D-04 -0.90124276D-18  0.43076922D-13 -0.97580318D-04  0.69244989D-18
  0.17602433D-13  0.25962988D-04  0.47551629D-19 -0.31621248D-12 -0.54695272D-14
  0.32168201D-12 -0.12911486D-03 -0.28542397D-17 -0.54743612D-18  0.98452882D-13
 -0.32513072D-13 -0.65939810D-13  0.50256180D-04  0.79485061D-18  0.35095257D-18
 -0.10986276D-14  0.14072820D-13 -0.12974192D-13  0.37982596D-04 -0.51920602D-18
 -0.68832249D-19 -0.60752040D-13  0.73965491D-05  0.57593157D-18  0.66827501D-13
 -0.16659659D-03 -0.47250416D-18  0.11542862D-12  0.14440694D-03 -0.12552906D-17
  0.34105378D-17  0.14697528D-13  0.64791230D-05 -0.22788754D-18 -0.73720458D-13
  0.13472984D-04  0.39733781D-18  0.29627875D-13 -0.32910353D-04  0.28632481D-18
 -0.38448525D-18
MO    3     MO 0.0        OCC NO =    2.0000000  ORB. ENERGY =  -20.350334
 -0.19013400D-04 -0.35573785D-04 -0.61425421D-04 -0.99340597D-04 -0.14993444D-03
 -0.20541483D-03 -0.23738355D-03 -0.19949122D-03 -0.87625284D-04 -0.10015425D-04
  0.13498433D-06 -0.83956483D-07 -0.41298178D-08  0.34506330D-04  0.64540477D-04
  0.11174835D-03  0.18145319D-03  0.27866971D-03  0.39633229D-03  0.50426918D-03
  0.52260040D-03  0.34874378D-03 -0.34346816D-04 -0.26235371D-03 -0.13470789D-03
  0.59089093D-06 -0.23368278D-04 -0.43668793D-04 -0.75723235D-04 -0.12279333D-03
 -0.18927279D-03 -0.26932483D-03 -0.34680891D-03 -0.36458354D-03 -0.25558424D-03
  0.29675617D-04  0.24024298D-03  0.22610129D-03 -0.11026038D-03  0.18025433D-03
  0.35759710D-04 -0.37977607D-05  0.31280836D-02  0.40921304D-02  0.44769340D-02
  0.36877523D-02  0.19717570D-02  0.54481559D-03 -0.44656087D-06 -0.43866775D-11
 -0.57386113D-11 -0.62782419D-11 -0.51715305D-11 -0.27650994D-11 -0.76402378D-12
  0.62623598D-15  0.16753637D-15  0.21916955D-15  0.23977917D-15  0.19751155D-15
  0.10560492D-15  0.29179664D-16 -0.23917260D-19 -0.36825215D-02 -0.48771544D-02
 -0.53879454D-02 -0.46147917D-02 -0.25175435D-02 -0.77382686D-03  0.33689712D-03
  0.49180511D-11  0.65134974D-11  0.71956649D-11  0.61631090D-11  0.33622092D-11
  0.10334549D-11 -0.44993010D-12 -0.16238575D-15 -0.21506470D-15 -0.23758872D-15
 -0.20349546D-15 -0.11101447D-15 -0.34122939D-16  0.14855933D-16 -0.84757333D-04
  0.13163976D-12  0.95173132D-17 -0.24261026D-03  0.16218392D-12 -0.58754395D-18
  0.51528559D-05 -0.51621566D-14  0.20506144D-19  0.74929259D-04 -0.94277436D-04
  0.19348177D-04  0.25029319D-12 -0.12378230D-18 -0.10329399D-17  0.24120299D-03
 -0.36559685D-03  0.12439386D-03  0.68758402D-12 -0.43444569D-18  0.27044016D-18
 -0.22948337D-04  0.23241322D-04 -0.29298482D-06 -0.36439208D-13 -0.20990531D-19
 -0.90785484D-19 -0.16162758D-04 -0.67405435D-13 -0.37528853D-18  0.28375432D-03
 -0.75726365D-13  0.31139982D-18 -0.23526605D-03  0.27794267D-12  0.81446578D-18
 -0.19148142D-19 -0.10418203D-04  0.48625073D-14  0.39335498D-19  0.16020373D-04
 -0.28583316D-14 -0.81557375D-19  0.15234237D-04 -0.11729190D-13 -0.36449119D-19
  0.27437366D-18 -0.28618291D+00 -0.53340812D+00 -0.90448343D+00 -0.13689778D+01
 -0.17080846D+01 -0.14670169D+01 -0.56321630D+00  0.25193011D-02 -0.17764829D-03
 -0.33318377D-03 -0.56800529D-03 -0.88768171D-03 -0.11869996D-02 -0.12674388D-02
 -0.77488724D-03  0.51122354D-03 -0.27021008D-01 -0.51594226D-03 -0.13250729D-03
 -0.23299201D-02 -0.22592388D-02 -0.15240691D-02  0.39873630D-02  0.38664008D-02
  0.26082512D-02  0.32596211D-16  0.31607360D-16  0.21322139D-16  0.41830088D-03
 -0.75915238D-03 -0.60837923D-17  0.17954370D-04  0.12858744D-03  0.20612906D-17
 -0.26101287D-04  0.27055474D-05  0.58866134D-19 -0.89805719D-04 -0.19485644D-03
  0.28466216D-03  0.39330583D-03 -0.15694750D-17 -0.17416208D-16 -0.23320873D-04
  0.10452910D-03 -0.81208229D-04 -0.30355690D-03 -0.32203257D-19  0.12517727D-17
  0.77743186D-05 -0.25900926D-04  0.18126607D-04 -0.38381605D-05  0.34995383D-18
 -0.79375714D-18  0.33817626D-04 -0.33748389D-05 -0.41887017D-18  0.12496226D-03
 -0.14570883D-03  0.11356758D-17 -0.22641514D-03  0.15583334D-03  0.12093474D-18
  0.13295543D-17 -0.22218095D-04  0.24088454D-05 -0.39715554D-19  0.26677494D-04
  0.81472901D-05  0.52567803D-20  0.39976791D-04 -0.15373826D-04  0.11388988D-18
 -0.48379249D-18 -0.28618291D+00 -0.53340811D+00 -0.90448342D+00 -0.13689778D+01
 -0.17080846D+01 -0.14670169D+01 -0.56321630D+00  0.25193011D-02 -0.17764829D-03
 -0.33318377D-03 -0.56800529D-03 -0.88768171D-03 -0.11869996D-02 -0.12674388D-02
 -0.77488724D-03  0.51122354D-03 -0.27021008D-01 -0.51594226D-03 -0.13250729D-03
 -0.23299201D-02 -0.22592387D-02 -0.15240691D-02 -0.39873630D-02 -0.38664008D-02
 -0.26082511D-02  0.23791341D-16  0.23069598D-16  0.15562614D-16  0.41830088D-03
  0.75915237D-03 -0.25214410D-17  0.17954371D-04 -0.12858744D-03 -0.20029554D-18
 -0.26101287D-04 -0.27055474D-05 -0.85242619D-19 -0.89805718D-04 -0.19485644D-03
  0.28466216D-03 -0.39330583D-03 -0.17353623D-16  0.19149016D-16 -0.23320873D-04
  0.10452910D-03 -0.81208228D-04  0.30355690D-03  0.62161353D-18 -0.33749366D-18
  0.77743186D-05 -0.25900926D-04  0.18126607D-04  0.38381605D-05 -0.23430838D-18
 -0.18536866D-18  0.33817626D-04  0.33748387D-05 -0.28684979D-18  0.12496226D-03
  0.14570883D-03 -0.20874134D-18 -0.22641514D-03 -0.15583334D-03  0.10692907D-17
 -0.13082220D-18 -0.22218095D-04 -0.24088454D-05 -0.84263307D-20  0.26677494D-04
 -0.81472901D-05  0.21163533D-19  0.39976791D-04  0.15373826D-04  0.41154588D-20
 -0.38463102D-18  0.29064770D+00  0.54172992D+00  0.91859446D+00  0.13903355D+01
  0.17347328D+01  0.14899041D+01  0.57200315D+00 -0.25586052D-02  0.14454728D-03
  0.27110200D-03  0.46216948D-03  0.72228093D-03  0.96582723D-03  0.10312783D-02
  0.63050334D-03 -0.41596781D-03  0.27404711D-01  0.69818057D-03  0.24976988D-03
 -0.46002168D-02 -0.44606629D-02 -0.30091368D-02  0.51931016D-13  0.50355617D-13
  0.33969602D-13  0.13676631D-16  0.13261732D-16  0.89462858D-17  0.67802722D-03
  0.49131765D-14 -0.31557436D-17 -0.65353686D-04 -0.85994014D-13  0.10359443D-17
 -0.24838718D-04  0.19410475D-13  0.48180915D-19  0.37668616D-03 -0.12728680D-04
 -0.36395748D-03 -0.13677211D-12 -0.27548987D-16  0.29223080D-17 -0.15470106D-03
  0.71614668D-04  0.83086394D-04  0.54850416D-13  0.74613820D-18  0.19303432D-18
  0.49274933D-05 -0.75682591D-05  0.26407659D-05  0.35990502D-13 -0.41847271D-18
 -0.24320324D-19  0.80131448D-04  0.38750021D-16 -0.55356820D-18 -0.45853057D-04
 -0.17630396D-12  0.16996612D-17 -0.19454129D-03  0.17618771D-12 -0.38956597D-19
  0.53730031D-18 -0.97858811D-05  0.83942312D-14 -0.14381260D-18  0.38076368D-04
  0.16858716D-13  0.23797657D-18 -0.87187252D-05 -0.42041409D-13  0.19346121D-18
 -0.68133056D-19
MO    4     MO 0.0        OCC NO =    2.0000000  ORB. ENERGY =  -20.350302
  0.55028447D-04  0.10295739D-03  0.17777701D-03  0.28751084D-03  0.43393920D-03
  0.59451013D-03  0.68703376D-03  0.57736605D-03  0.25360447D-03  0.28986573D-04
 -0.39067069D-06  0.24298625D-06  0.11952489D-07 -0.99865326D-04 -0.18678763D-03
 -0.32341269D-03 -0.52514661D-03 -0.80650249D-03 -0.11470317D-02 -0.14594136D-02
 -0.15124663D-02 -0.10093050D-02  0.99403673D-04  0.75928209D-03  0.38986029D-03
 -0.17101070D-05  0.67631715D-04  0.12638481D-03  0.21915574D-03  0.35538447D-03
  0.54778718D-03  0.77947123D-03  0.10037232D-02  0.10551659D-02  0.73970365D-03
 -0.85886213D-04 -0.69530347D-03 -0.65437504D-03  0.31911203D-03 -0.52177833D-03
 -0.10356468D-03  0.11018825D-04  0.10806451D-02  0.14136900D-02  0.15466264D-02
  0.12739914D-02  0.68117411D-03  0.18821502D-03 -0.15427139D-06  0.12839485D-11
  0.16796497D-11  0.18375956D-11  0.15136693D-11  0.80932443D-12  0.22362419D-12
 -0.18329470D-15  0.27117915D-15  0.35475408D-15  0.38811339D-15  0.31969782D-15
  0.17093513D-15  0.47231035D-16 -0.38713158D-19 -0.12721739D-02 -0.16848751D-02
 -0.18613343D-02 -0.15942385D-02 -0.86971745D-03 -0.26732834D-03  0.11638540D-03
 -0.13375691D-11 -0.17714848D-11 -0.19570149D-11 -0.16761892D-11 -0.91442464D-12
 -0.28107016D-12  0.12236811D-12 -0.37258925D-15 -0.49345952D-15 -0.54514022D-15
 -0.46691426D-15 -0.25471940D-15 -0.78294064D-16  0.34086494D-16 -0.29274897D-04
 -0.44008594D-13 -0.91096191D-19 -0.83849859D-04  0.27094082D-13 -0.76397541D-19
  0.17799204D-05  0.64791260D-15  0.58340694D-20  0.57231160D-04 -0.12334679D-05
 -0.55997692D-04 -0.78922858D-13 -0.54765394D-18 -0.69810082D-19  0.28480462D-03
  0.75269825D-04 -0.36007445D-03 -0.13357679D-12  0.73698663D-18  0.39560996D-18
 -0.84016896D-05  0.75559663D-05  0.84572325D-06 -0.11965351D-14 -0.80010667D-19
 -0.19478265D-20  0.23736118D-03  0.13471517D-13  0.12906166D-19 -0.63081144D-03
  0.19462712D-13  0.38601130D-18 -0.81272089D-04 -0.59877263D-13 -0.42472980D-18
  0.18006018D-18  0.17819507D-04 -0.12304839D-14 -0.21724245D-20 -0.58726432D-04
  0.42958827D-14 -0.97553707D-19  0.52679109D-05 -0.60443106D-15  0.10407098D-18
  0.10515863D-19  0.20542663D+00  0.38288880D+00  0.64925254D+00  0.98267396D+00
  0.12260902D+01  0.10530480D+01  0.40428558D+00 -0.18083942D-02  0.16626043D-03
  0.31182556D-03  0.53159422D-03  0.83077830D-03  0.11109089D-02  0.11861917D-02
  0.72521434D-03 -0.47845237D-03  0.19436998D-01  0.18222693D-03 -0.29334777D-04
  0.16984409D-02  0.16469164D-02  0.11110000D-02 -0.29592582D-02 -0.28694851D-02
 -0.19357377D-02 -0.27979368D-16 -0.27130575D-16 -0.18302126D-16 -0.42525266D-03
  0.72477155D-03  0.34640677D-17  0.81540300D-04 -0.86000509D-04 -0.50277807D-18
 -0.58035998D-05 -0.46299928D-05 -0.16340766D-19 -0.27260822D-04  0.15075535D-03
 -0.12349452D-03 -0.23522595D-03  0.95087997D-18  0.10765136D-16  0.64526759D-04
 -0.12215540D-03  0.57628642D-04  0.29475438D-03  0.80300982D-19 -0.12256961D-18
  0.19768286D-04  0.15981704D-04 -0.35749991D-04 -0.14932174D-04 -0.47753963D-19
  0.88119193D-19 -0.13845190D-04  0.69422769D-04  0.43768492D-18 -0.43155942D-04
  0.20164651D-04 -0.10731238D-17  0.84691511D-04 -0.22843296D-03 -0.23993097D-18
 -0.29890796D-18  0.41815429D-04 -0.16773544D-04  0.16891838D-19 -0.98589860D-04