 Molden2AIM, Version 4.0.0 (06/02/2016)           Time: Thu Jun 28 00:16:24 2018
GAUSSIAN             23 MOL ORBITALS    412 PRIMITIVES        4 NUCLEI
  S    1    (CENTRE  1)   2.22115385  0.00000000  0.00000000  CHARGE = 16.0
  S    2    (CENTRE  2)  -2.22115385  0.00000000  0.00000000  CHARGE = 16.0
  N    3    (CENTRE  3)   0.00000000 -2.23560459  0.00000000  CHARGE =  7.0
  N    4    (CENTRE  4)   0.00000000  2.23560459  0.00000000  CHARGE =  7.0
CENTRE ASSIGNMENTS    1  1  1  1  1  1  1  1  1  1  1  1  1  1  1  1  1  1  1  1
CENTRE ASSIGNMENTS    1  1  1  1  1  1  1  1  1  1  1  1  1  1  1  1  1  1  1  1
CENTRE ASSIGNMENTS    1  1  1  1  1  1  1  1  1  1  1  1  1  1  1  1  1  1  1  1
CENTRE ASSIGNMENTS    1  1  1  1  1  1  1  1  1  1  1  1  1  1  1  1  1  1  1  1
CENTRE ASSIGNMENTS    1  1  1  1  1  1  1  1  1  1  1  1  1  1  1  1  1  1  1  1
CENTRE ASSIGNMENTS    1  1  1  1  1  1  1  1  1  1  1  1  1  1  1  1  1  1  1  1
CENTRE ASSIGNMENTS    1  1  1  1  1  1  1  1  1  1  1  2  2  2  2  2  2  2  2  2
CENTRE ASSIGNMENTS    2  2  2  2  2  2  2  2  2  2  2  2  2  2  2  2  2  2  2  2
CENTRE ASSIGNMENTS    2  2  2  2  2  2  2  2  2  2  2  2  2  2  2  2  2  2  2  2
CENTRE ASSIGNMENTS    2  2  2  2  2  2  2  2  2  2  2  2  2  2  2  2  2  2  2  2
CENTRE ASSIGNMENTS    2  2  2  2  2  2  2  2  2  2  2  2  2  2  2  2  2  2  2  2
CENTRE ASSIGNMENTS    2  2  2  2  2  2  2  2  2  2  2  2  2  2  2  2  2  2  2  2
CENTRE ASSIGNMENTS    2  2  2  2  2  2  2  2  2  2  2  2  2  2  2  2  2  2  2  2
CENTRE ASSIGNMENTS    2  2  3  3  3  3  3  3  3  3  3  3  3  3  3  3  3  3  3  3
CENTRE ASSIGNMENTS    3  3  3  3  3  3  3  3  3  3  3  3  3  3  3  3  3  3  3  3
CENTRE ASSIGNMENTS    3  3  3  3  3  3  3  3  3  3  3  3  3  3  3  3  3  3  3  3
CENTRE ASSIGNMENTS    3  3  3  3  3  3  3  3  3  3  3  3  3  3  3  3  3  4  4  4
CENTRE ASSIGNMENTS    4  4  4  4  4  4  4  4  4  4  4  4  4  4  4  4  4  4  4  4
CENTRE ASSIGNMENTS    4  4  4  4  4  4  4  4  4  4  4  4  4  4  4  4  4  4  4  4
CENTRE ASSIGNMENTS    4  4  4  4  4  4  4  4  4  4  4  4  4  4  4  4  4  4  4  4
CENTRE ASSIGNMENTS    4  4  4  4  4  4  4  4  4  4  4  4
TYPE ASSIGNMENTS      1  1  1  1  1  1  1  1  1  1  1  1  1  1  1  1  1  1  1  1
TYPE ASSIGNMENTS      1  1  1  1  1  1  1  1  1  1  1  1  1  1  1  1  1  1  1  1
TYPE ASSIGNMENTS      1  1  2  2  2  2  2  2  2  3  3  3  3  3  3  3  4  4  4  4
TYPE ASSIGNMENTS      4  4  4  2  2  2  2  2  2  2  3  3  3  3  3  3  3  4  4  4
TYPE ASSIGNMENTS      4  4  4  4  2  3  4  2  3  4  2  3  4  5  6  7  8  9 10  5
TYPE ASSIGNMENTS      6  7  8  9 10  5  6  7  8  9 10 11 12 13 17 14 15 18 19 16
TYPE ASSIGNMENTS     20 11 12 13 17 14 15 18 19 16 20  1  1  1  1  1  1  1  1  1
TYPE ASSIGNMENTS      1  1  1  1  1  1  1  1  1  1  1  1  1  1  1  1  1  1  1  1
TYPE ASSIGNMENTS      1  1  1  1  1  1  1  1  1  1  1  1  1  2  2  2  2  2  2  2
TYPE ASSIGNMENTS      3  3  3  3  3  3  3  4  4  4  4  4  4  4  2  2  2  2  2  2
TYPE ASSIGNMENTS      2  3  3  3  3  3  3  3  4  4  4  4  4  4  4  2  3  4  2  3
TYPE ASSIGNMENTS      4  2  3  4  5  6  7  8  9 10  5  6  7  8  9 10  5  6  7  8
TYPE ASSIGNMENTS      9 10 11 12 13 17 14 15 18 19 16 20 11 12 13 17 14 15 18 19
TYPE ASSIGNMENTS     16 20  1  1  1  1  1  1  1  1  1  1  1  1  1  1  1  1  1  1
TYPE ASSIGNMENTS      1  2  2  2  3  3  3  4  4  4  2  3  4  2  3  4  2  3  4  5
TYPE ASSIGNMENTS      6  7  8  9 10  5  6  7  8  9 10  5  6  7  8  9 10 11 12 13
TYPE ASSIGNMENTS     17 14 15 18 19 16 20 11 12 13 17 14 15 18 19 16 20  1  1  1
TYPE ASSIGNMENTS      1  1  1  1  1  1  1  1  1  1  1  1  1  1  1  1  2  2  2  3
TYPE ASSIGNMENTS      3  3  4  4  4  2  3  4  2  3  4  2  3  4  5  6  7  8  9 10
TYPE ASSIGNMENTS      5  6  7  8  9 10  5  6  7  8  9 10 11 12 13 17 14 15 18 19
TYPE ASSIGNMENTS     16 20 11 12 13 17 14 15 18 19 16 20
EXPONENTS  0.3741000D+06 0.5605000D+05 0.1276000D+05 0.3615000D+04 0.1183000D+04
EXPONENTS  0.4288000D+03 0.1678000D+03 0.6947000D+02 0.2984000D+02 0.1272000D+02
EXPONENTS  0.5244000D+01 0.2219000D+01 0.3490000D+00 0.3741000D+06 0.5605000D+05
EXPONENTS  0.1276000D+05 0.3615000D+04 0.1183000D+04 0.4288000D+03 0.1678000D+03
EXPONENTS  0.6947000D+02 0.2984000D+02 0.1272000D+02 0.5244000D+01 0.2219000D+01
EXPONENTS  0.3490000D+00 0.3741000D+06 0.5605000D+05 0.1276000D+05 0.3615000D+04
EXPONENTS  0.1183000D+04 0.4288000D+03 0.1678000D+03 0.6947000D+02 0.2984000D+02
EXPONENTS  0.1272000D+02 0.5244000D+01 0.2219000D+01 0.3490000D+00 0.7767000D+00
EXPONENTS  0.1322000D+00 0.4970000D-01 0.5744000D+03 0.1358000D+03 0.4319000D+02
EXPONENTS  0.1587000D+02 0.6208000D+01 0.2483000D+01 0.3229000D+00 0.5744000D+03
EXPONENTS  0.1358000D+03 0.4319000D+02 0.1587000D+02 0.6208000D+01 0.2483000D+01
EXPONENTS  0.3229000D+00 0.5744000D+03 0.1358000D+03 0.4319000D+02 0.1587000D+02
EXPONENTS  0.6208000D+01 0.2483000D+01 0.3229000D+00 0.5744000D+03 0.1358000D+03
EXPONENTS  0.4319000D+02 0.1587000D+02 0.6208000D+01 0.2483000D+01 0.3229000D+00
EXPONENTS  0.5744000D+03 0.1358000D+03 0.4319000D+02 0.1587000D+02 0.6208000D+01
EXPONENTS  0.2483000D+01 0.3229000D+00 0.5744000D+03 0.1358000D+03 0.4319000D+02
EXPONENTS  0.1587000D+02 0.6208000D+01 0.2483000D+01 0.3229000D+00 0.8688000D+00
EXPONENTS  0.8688000D+00 0.8688000D+00 0.1098000D+00 0.1098000D+00 0.1098000D+00
EXPONENTS  0.3510000D-01 0.3510000D-01 0.3510000D-01 0.2690000D+00 0.2690000D+00
EXPONENTS  0.2690000D+00 0.2690000D+00 0.2690000D+00 0.2690000D+00 0.8190000D+00
EXPONENTS  0.8190000D+00 0.8190000D+00 0.8190000D+00 0.8190000D+00 0.8190000D+00
EXPONENTS  0.1010000D+00 0.1010000D+00 0.1010000D+00 0.1010000D+00 0.1010000D+00
EXPONENTS  0.1010000D+00 0.5570000D+00 0.5570000D+00 0.5570000D+00 0.5570000D+00
EXPONENTS  0.5570000D+00 0.5570000D+00 0.5570000D+00 0.5570000D+00 0.5570000D+00
EXPONENTS  0.5570000D+00 0.2180000D+00 0.2180000D+00 0.2180000D+00 0.2180000D+00
EXPONENTS  0.2180000D+00 0.2180000D+00 0.2180000D+00 0.2180000D+00 0.2180000D+00
EXPONENTS  0.2180000D+00 0.3741000D+06 0.5605000D+05 0.1276000D+05 0.3615000D+04
EXPONENTS  0.1183000D+04 0.4288000D+03 0.1678000D+03 0.6947000D+02 0.2984000D+02
EXPONENTS  0.1272000D+02 0.5244000D+01 0.2219000D+01 0.3490000D+00 0.3741000D+06
EXPONENTS  0.5605000D+05 0.1276000D+05 0.3615000D+04 0.1183000D+04 0.4288000D+03
EXPONENTS  0.1678000D+03 0.6947000D+02 0.2984000D+02 0.1272000D+02 0.5244000D+01
EXPONENTS  0.2219000D+01 0.3490000D+00 0.3741000D+06 0.5605000D+05 0.1276000D+05
EXPONENTS  0.3615000D+04 0.1183000D+04 0.4288000D+03 0.1678000D+03 0.6947000D+02
EXPONENTS  0.2984000D+02 0.1272000D+02 0.5244000D+01 0.2219000D+01 0.3490000D+00
EXPONENTS  0.7767000D+00 0.1322000D+00 0.4970000D-01 0.5744000D+03 0.1358000D+03
EXPONENTS  0.4319000D+02 0.1587000D+02 0.6208000D+01 0.2483000D+01 0.3229000D+00
EXPONENTS  0.5744000D+03 0.1358000D+03 0.4319000D+02 0.1587000D+02 0.6208000D+01
EXPONENTS  0.2483000D+01 0.3229000D+00 0.5744000D+03 0.1358000D+03 0.4319000D+02
EXPONENTS  0.1587000D+02 0.6208000D+01 0.2483000D+01 0.3229000D+00 0.5744000D+03
EXPONENTS  0.1358000D+03 0.4319000D+02 0.1587000D+02 0.6208000D+01 0.2483000D+01
EXPONENTS  0.3229000D+00 0.5744000D+03 0.1358000D+03 0.4319000D+02 0.1587000D+02
EXPONENTS  0.6208000D+01 0.2483000D+01 0.3229000D+00 0.5744000D+03 0.1358000D+03
EXPONENTS  0.4319000D+02 0.1587000D+02 0.6208000D+01 0.2483000D+01 0.3229000D+00
EXPONENTS  0.8688000D+00 0.8688000D+00 0.8688000D+00 0.1098000D+00 0.1098000D+00
EXPONENTS  0.1098000D+00 0.3510000D-01 0.3510000D-01 0.3510000D-01 0.2690000D+00
EXPONENTS  0.2690000D+00 0.2690000D+00 0.2690000D+00 0.2690000D+00 0.2690000D+00
EXPONENTS  0.8190000D+00 0.8190000D+00 0.8190000D+00 0.8190000D+00 0.8190000D+00
EXPONENTS  0.8190000D+00 0.1010000D+00 0.1010000D+00 0.1010000D+00 0.1010000D+00
EXPONENTS  0.1010000D+00 0.1010000D+00 0.5570000D+00 0.5570000D+00 0.5570000D+00
EXPONENTS  0.5570000D+00 0.5570000D+00 0.5570000D+00 0.5570000D+00 0.5570000D+00
EXPONENTS  0.5570000D+00 0.5570000D+00 0.2180000D+00 0.2180000D+00 0.2180000D+00
EXPONENTS  0.2180000D+00 0.2180000D+00 0.2180000D+00 0.2180000D+00 0.2180000D+00
EXPONENTS  0.2180000D+00 0.2180000D+00 0.1142000D+05 0.1712000D+04 0.3893000D+03
EXPONENTS  0.1100000D+03 0.3557000D+02 0.1254000D+02 0.4644000D+01 0.5118000D+00
EXPONENTS  0.1142000D+05 0.1712000D+04 0.3893000D+03 0.1100000D+03 0.3557000D+02
EXPONENTS  0.1254000D+02 0.4644000D+01 0.5118000D+00 0.1293000D+01 0.1787000D+00
EXPONENTS  0.5760000D-01 0.2663000D+02 0.5948000D+01 0.1742000D+01 0.2663000D+02
EXPONENTS  0.5948000D+01 0.1742000D+01 0.2663000D+02 0.5948000D+01 0.1742000D+01
EXPONENTS  0.5550000D+00 0.5550000D+00 0.5550000D+00 0.1725000D+00 0.1725000D+00
EXPONENTS  0.1725000D+00 0.4910000D-01 0.4910000D-01 0.4910000D-01 0.1654000D+01
EXPONENTS  0.1654000D+01 0.1654000D+01 0.1654000D+01 0.1654000D+01 0.1654000D+01
EXPONENTS  0.4690000D+00 0.4690000D+00 0.4690000D+00 0.4690000D+00 0.4690000D+00
EXPONENTS  0.4690000D+00 0.1510000D+00 0.1510000D+00 0.1510000D+00 0.1510000D+00
EXPONENTS  0.1510000D+00 0.1510000D+00 0.1093000D+01 0.1093000D+01 0.1093000D+01
EXPONENTS  0.1093000D+01 0.1093000D+01 0.1093000D+01 0.1093000D+01 0.1093000D+01
EXPONENTS  0.1093000D+01 0.1093000D+01 0.3640000D+00 0.3640000D+00 0.3640000D+00
EXPONENTS  0.3640000D+00 0.3640000D+00 0.3640000D+00 0.3640000D+00 0.3640000D+00
EXPONENTS  0.3640000D+00 0.3640000D+00 0.1142000D+05 0.1712000D+04 0.3893000D+03
EXPONENTS  0.1100000D+03 0.3557000D+02 0.1254000D+02 0.4644000D+01 0.5118000D+00
EXPONENTS  0.1142000D+05 0.1712000D+04 0.3893000D+03 0.1100000D+03 0.3557000D+02
EXPONENTS  0.1254000D+02 0.4644000D+01 0.5118000D+00 0.1293000D+01 0.1787000D+00
EXPONENTS  0.5760000D-01 0.2663000D+02 0.5948000D+01 0.1742000D+01 0.2663000D+02
EXPONENTS  0.5948000D+01 0.1742000D+01 0.2663000D+02 0.5948000D+01 0.1742000D+01
EXPONENTS  0.5550000D+00 0.5550000D+00 0.5550000D+00 0.1725000D+00 0.1725000D+00
EXPONENTS  0.1725000D+00 0.4910000D-01 0.4910000D-01 0.4910000D-01 0.1654000D+01
EXPONENTS  0.1654000D+01 0.1654000D+01 0.1654000D+01 0.1654000D+01 0.1654000D+01
EXPONENTS  0.4690000D+00 0.4690000D+00 0.4690000D+00 0.4690000D+00 0.4690000D+00
EXPONENTS  0.4690000D+00 0.1510000D+00 0.1510000D+00 0.1510000D+00 0.1510000D+00
EXPONENTS  0.1510000D+00 0.1510000D+00 0.1093000D+01 0.1093000D+01 0.1093000D+01
EXPONENTS  0.1093000D+01 0.1093000D+01 0.1093000D+01 0.1093000D+01 0.1093000D+01
EXPONENTS  0.1093000D+01 0.1093000D+01 0.3640000D+00 0.3640000D+00 0.3640000D+00
EXPONENTS  0.3640000D+00 0.3640000D+00 0.3640000D+00 0.3640000D+00 0.3640000D+00
EXPONENTS  0.3640000D+00 0.3640000D+00
MO    1     MO 0.0        OCC NO =    2.0000000  ORB. ENERGY =  -92.086564
  0.41328835D+00  0.77261856D+00  0.13353261D+01  0.21598300D+01  0.32644566D+01
  0.44956925D+01  0.52544222D+01  0.45402172D+01  0.21175735D+01  0.28752073D+00
  0.76990967D-03  0.15102445D-02  0.68948970D-04 -0.73485351D-05 -0.13723702D-04
 -0.23805885D-04 -0.38600419D-04 -0.59429740D-04 -0.84641299D-04 -0.10883772D-03
 -0.11424722D-03 -0.80780882D-04  0.17889265D-05  0.58042108D-04  0.31959560D-04
 -0.13515644D-06  0.38389266D-05  0.71640050D-05  0.12443019D-04  0.20154930D-04
  0.31133469D-04  0.44385437D-04  0.57730956D-04  0.61525637D-04  0.45632285D-04
 -0.14203636D-05 -0.41340473D-04 -0.40499395D-04  0.18915620D-04 -0.28979196D-03
  0.30629007D-04  0.96893130D-05 -0.13434652D-02 -0.17625532D-02 -0.19332522D-02
 -0.15907106D-02 -0.83865408D-03 -0.21817815D-03  0.24143637D-06  0.99756138D-15
  0.13087462D-14  0.14354951D-14  0.11811481D-14  0.62272465D-15  0.16200352D-15
 -0.17927341D-18 -0.78772940D-17 -0.10334581D-16 -0.11335460D-16 -0.93269960D-17
 -0.49173768D-17 -0.12792690D-17  0.14156416D-20  0.63063676D-03  0.82802990D-03
  0.93158947D-03  0.78493457D-03  0.43908139D-03  0.10928646D-03 -0.50124038D-04
 -0.92343071D-15 -0.12124701D-14 -0.13641107D-14 -0.11493664D-14 -0.64293944D-15
 -0.16002632D-15  0.73395779D-16 -0.60909420D-18 -0.79974439D-18 -0.89976636D-18
 -0.75812119D-18 -0.42408237D-18 -0.10555324D-18  0.48411801D-19  0.95107322D-04
 -0.77767835D-16 -0.88995593D-19 -0.95351259D-05  0.35849934D-16  0.21753381D-19
 -0.22211949D-06 -0.10472375D-16  0.34295342D-21  0.73781809D-05  0.17654659D-05
 -0.91436468D-05 -0.11223459D-15 -0.40373766D-19  0.36283274D-19 -0.81977576D-05
  0.78991490D-05  0.29860858D-06  0.96621695D-16  0.11401560D-18 -0.30953977D-18
  0.16819761D-06  0.62195305D-07 -0.23039292D-06 -0.52299093D-17 -0.49792584D-20
  0.83418316D-21 -0.14837998D-05  0.17244119D-17 -0.44562700D-20 -0.83909091D-05
  0.14983349D-16  0.74130743D-20  0.12842309D-04 -0.20156585D-16  0.59557358D-20
  0.84502822D-21 -0.29520693D-06 -0.48000328D-17 -0.18428733D-20 -0.30418657D-06
  0.19658071D-16  0.56572515D-20  0.11898074D-05 -0.52579730D-17 -0.12863168D-21
 -0.67181495D-20 -0.41328762D+00 -0.77261719D+00 -0.13353237D+01 -0.21598262D+01
 -0.32644509D+01 -0.44956845D+01 -0.52544129D+01 -0.45402091D+01 -0.21175697D+01
 -0.28752022D+00 -0.76990831D-03 -0.15102418D-02 -0.68948848D-04  0.73485087D-05
  0.13723653D-04  0.23805800D-04  0.38600281D-04  0.59429527D-04  0.84640995D-04
  0.10883733D-03  0.11424681D-03  0.80780592D-04 -0.17889200D-05 -0.58041899D-04
 -0.31959445D-04  0.13515595D-06 -0.38389121D-05 -0.71639779D-05 -0.12442972D-04
 -0.20154854D-04 -0.31133351D-04 -0.44385270D-04 -0.57730738D-04 -0.61525404D-04
 -0.45632113D-04  0.14203582D-05  0.41340317D-04  0.40499242D-04 -0.18915548D-04
  0.28979144D-03 -0.30628957D-04 -0.96893004D-05 -0.13434626D-02 -0.17625498D-02
 -0.19332484D-02 -0.15907074D-02 -0.83865242D-03 -0.21817772D-03  0.24143589D-06
  0.65451213D-14  0.85868428D-14  0.94184577D-14  0.77496563D-14  0.40857720D-14
  0.10629248D-14 -0.11762346D-17  0.20870495D-16  0.27380953D-16  0.30032732D-16
  0.24711408D-16  0.13028343D-16  0.33893591D-17 -0.37506714D-20  0.63063536D-03
  0.82802807D-03  0.93158741D-03  0.78493283D-03  0.43908042D-03  0.10928622D-03
 -0.50123927D-04 -0.57523716D-14 -0.75528989D-14 -0.84975205D-14 -0.71598035D-14
 -0.40050937D-14 -0.99685967D-15  0.45720788D-15 -0.23734720D-17 -0.31163832D-17
 -0.35061412D-17 -0.29541891D-17 -0.16525320D-17 -0.41131184D-18  0.18864743D-18
  0.95107167D-04 -0.28494458D-15 -0.82331298D-18 -0.95351132D-05  0.24562470D-15
  0.74392817D-20 -0.22211914D-06  0.17531387D-16  0.15555247D-20 -0.73781684D-05
 -0.17654671D-05  0.91436355D-05  0.29884466D-15  0.59635401D-19 -0.53731089D-19
  0.81977601D-05 -0.78991394D-05 -0.29862075D-06  0.32395547D-16 -0.40860917D-19
  0.44205448D-18 -0.16819735D-06 -0.62195837D-07  0.23039318D-06  0.32603957D-16
  0.33389787D-20 -0.98135279D-21 -0.14837983D-05 -0.15812459D-16 -0.17793164D-19
 -0.83908974D-05  0.11246101D-15  0.37258843D-19  0.12842292D-04 -0.65023630D-16
  0.16120647D-19  0.87459427D-20 -0.29520725D-06 -0.54360702D-17 -0.25200141D-20
 -0.30418664D-06  0.23501373D-16  0.40866215D-20  0.11898084D-05 -0.71931622D-17
  0.34734209D-20 -0.10661554D-19  0.63133890D-11  0.11764071D-10  0.19895993D-10
  0.29962263D-10  0.37095225D-10  0.31566363D-10  0.12011583D-10 -0.56255369D-13
 -0.41911562D-11 -0.78584570D-11 -0.13369574D-10 -0.20761536D-10 -0.27551766D-10
 -0.29035779D-10 -0.18004035D-10  0.11976291D-10  0.75334880D-11 -0.44809684D-10
 -0.10722907D-10  0.11870434D-04  0.11401410D-04  0.79954556D-05  0.12413447D-10
  0.11922967D-10  0.83612075D-11  0.81088599D-20  0.77884630D-20  0.54618079D-20
 -0.25313011D-04 -0.16843438D-10  0.16487531D-19 -0.19102349D-04 -0.26122438D-10
 -0.55620433D-19 -0.10637221D-05 -0.10511752D-11 -0.23527931D-20 -0.37850218D-11
  0.82123490D-11 -0.44273272D-11 -0.18042813D-04 -0.21969291D-19  0.91000940D-19
 -0.18977574D-11 -0.92391896D-11  0.11136947D-10 -0.28609861D-04  0.35042796D-19
 -0.51383558D-19  0.75695576D-12 -0.24319355D-11  0.16749797D-11 -0.41798612D-05
  0.12453105D-19 -0.18867619D-19  0.45684506D-05  0.13058046D-11 -0.15702436D-19
 -0.12945524D-04 -0.33471590D-11  0.13910117D-19 -0.75982805D-06 -0.57025488D-12
  0.33197192D-19 -0.61137135D-19 -0.13093586D-06 -0.10788568D-11  0.10348012D-19
 -0.14426346D-05 -0.57719594D-12 -0.10005586D-19  0.18354422D-05  0.38137663D-11
 -0.21038450D-19  0.28485587D-19  0.63136072D-11  0.11764477D-10  0.19896681D-10
  0.29963299D-10  0.37096507D-10  0.31567454D-10  0.12011998D-10 -0.56257313D-13
 -0.41913026D-11 -0.78587316D-11 -0.13370041D-10 -0.20762261D-10 -0.27552728D-10
 -0.29036794D-10 -0.18004664D-10  0.11976710D-10  0.75334890D-11 -0.44810981D-10
 -0.10723558D-10  0.11870434D-04  0.11401410D-04  0.79954556D-05 -0.12413540D-10
 -0.11923057D-10 -0.83612707D-11  0.67373156D-20  0.64711111D-20  0.45379898D-20
 -0.25313011D-04  0.16843498D-10  0.13662579D-19 -0.19102349D-04  0.26123148D-10
 -0.47253391D-19 -0.10637221D-05  0.10512475D-11 -0.24340090D-20 -0.37850718D-11
  0.82125690D-11 -0.44274972D-11  0.18042813D-04 -0.44090373D-19 -0.94788780D-19
 -0.18977869D-11 -0.92393224D-11  0.11137109D-10  0.28609861D-04  0.15331569D-19
  0.48675902D-19  0.75696503D-12 -0.24319952D-11  0.16750302D-11  0.41798612D-05
 -0.49229380D-20  0.16644337D-19  0.45684506D-05 -0.13059332D-11 -0.10117575D-19
 -0.12945524D-04  0.33474445D-11  0.38555931D-21 -0.75982805D-06  0.57035514D-12
  0.29967166D-19 -0.22979562D-19 -0.13093586D-06  0.10788786D-11  0.97902062D-20
 -0.14426346D-05  0.57721381D-12 -0.75100842D-20  0.18354422D-05 -0.38138498D-11
 -0.21860534D-19 -0.18372018D-19
MO    2     MO 0.0        OCC NO =    2.0000000  ORB. ENERGY =  -92.086563
  0.41329166D+00  0.77262474D+00  0.13353368D+01  0.21598473D+01  0.32644828D+01
  0.44957284D+01  0.52544642D+01  0.45402535D+01  0.21175904D+01  0.28752303D+00
  0.76991583D-03  0.15102566D-02  0.68949522D-04 -0.14901113D-04 -0.27828464D-04
 -0.48272777D-04 -0.78272638D-04 -0.12050964D-03 -0.17163279D-03 -0.22069749D-03
 -0.23166669D-03 -0.16380477D-03  0.36275252D-05  0.11769584D-03  0.64806526D-04
 -0.27406570D-06  0.81874007D-05  0.15278901D-04  0.26537622D-04  0.42985060D-04
  0.66399337D-04  0.94662232D-04  0.12312464D-03  0.13121768D-03  0.97321424D-04
 -0.30292545D-05 -0.88168140D-04 -0.86374346D-04  0.40341942D-04 -0.29227484D-03
  0.28069069D-04  0.72275324D-05 -0.14977405D-02 -0.19649540D-02 -0.21552550D-02
 -0.17733780D-02 -0.93495994D-03 -0.24323239D-03  0.26916143D-06 -0.10517633D-15
 -0.13798561D-15 -0.15134919D-15 -0.12453251D-15 -0.65656001D-16 -0.17080588D-16
  0.18901412D-19  0.46259246D-17  0.60689612D-17  0.66567254D-17  0.54772591D-17
  0.28877193D-17  0.75124809D-18 -0.83133260D-21  0.78833106D-03  0.10350835D-02
  0.11645387D-02  0.98121191D-03  0.54887619D-03  0.13661417D-03 -0.62657839D-04
 -0.66070270D-16 -0.86750667D-16 -0.97600350D-16 -0.82235674D-16 -0.46001483D-16
 -0.11449675D-16  0.52513729D-17  0.32064303D-19  0.42100625D-19  0.47366042D-19
  0.39909471D-19  0.22324799D-19  0.55565970D-20 -0.25485231D-20  0.87545971D-04
  0.32788331D-16 -0.80387603D-19 -0.71250251D-05 -0.87303375D-16 -0.13289815D-19
 -0.19829110D-06 -0.23511439D-17 -0.83842585D-22  0.70125839D-05 -0.65237561D-06
 -0.63602083D-05  0.63670077D-16  0.28247608D-21  0.51791502D-19  0.14748298D-05
  0.54003804D-05 -0.68752101D-05 -0.86802621D-16  0.85669940D-19 -0.32653285D-18
  0.14358595D-06 -0.29245478D-06  0.14886883D-06  0.20099628D-16  0.39655181D-20
  0.65117685D-22 -0.88007110D-06 -0.24665834D-17 -0.48666026D-21 -0.66132888D-05
 -0.62609915D-18 -0.79751138D-20  0.92535021D-05  0.80258494D-17  0.94350946D-20
  0.31009632D-20  0.18107138D-06  0.74197108D-18  0.49703868D-22  0.29107964D-07
 -0.10784543D-16 -0.17939862D-21 -0.57232209D-06  0.85586297D-17  0.30287019D-22
 -0.13389084D-19  0.41329239D+00  0.77262611D+00  0.13353391D+01  0.21598511D+01
  0.32644885D+01  0.44957364D+01  0.52544735D+01  0.45402615D+01  0.21175942D+01
  0.28752354D+00  0.76991720D-03  0.15102593D-02  0.68949644D-04 -0.14901126D-04
 -0.27828488D-04 -0.48272819D-04 -0.78272707D-04 -0.12050974D-03 -0.17163294D-03
 -0.22069768D-03 -0.23166690D-03 -0.16380491D-03  0.36275284D-05  0.11769595D-03
  0.64806582D-04 -0.27406594D-06  0.81874075D-05  0.15278914D-04  0.26537644D-04
  0.42985095D-04  0.66399392D-04  0.94662310D-04  0.12312474D-03  0.13121779D-03
  0.97321505D-04 -0.30292571D-05 -0.88168213D-04 -0.86374418D-04  0.40341976D-04
 -0.29227535D-03  0.28069124D-04  0.72275494D-05  0.14977429D-02  0.19649571D-02
  0.21552584D-02  0.17733808D-02  0.93496143D-03  0.24323277D-03 -0.26916186D-06
 -0.57828697D-15 -0.75868101D-15 -0.83215743D-15 -0.68471232D-15 -0.36099388D-15
 -0.93913545D-16  0.10392491D-18 -0.20653926D-16 -0.27096827D-16 -0.29721089D-16
 -0.24454983D-16 -0.12893151D-16 -0.33541884D-17  0.37117514D-20 -0.78833218D-03
 -0.10350850D-02 -0.11645404D-02 -0.98121330D-03 -0.54887696D-03 -0.13661436D-03
  0.62657928D-04  0.45241082D-15  0.59401816D-15  0.66831048D-15  0.56310211D-15
  0.31499143D-15  0.78400725D-16 -0.35958350D-16  0.23462172D-17  0.30805974D-17
  0.34658798D-17  0.29202658D-17  0.16335557D-17  0.40658870D-18 -0.18648117D-18
 -0.87546140D-04  0.92166472D-17  0.82495128D-18  0.71250421D-05  0.69313078D-17
 -0.42772331D-20  0.19829150D-06 -0.58635421D-18 -0.13272089D-20  0.70125971D-05
 -0.65237251D-06 -0.63602246D-05 -0.24671233D-16 -0.59763361D-19  0.65641349D-19
  0.14748152D-05  0.54003944D-05 -0.68752096D-05 -0.15906807D-17  0.44407788D-19
 -0.45769190D-18  0.14358627D-06 -0.29245469D-06  0.14886842D-06  0.47469230D-17
 -0.25051924D-20  0.39922764D-21  0.88007371D-06 -0.61895630D-18  0.17905946D-19
  0.66133038D-05 -0.17796269D-16 -0.38146441D-19 -0.92535249D-05  0.19653138D-16
 -0.15571397D-19 -0.10455325D-19 -0.18107084D-06  0.63056440D-17  0.27616138D-20
 -0.29107467D-07 -0.78477252D-17 -0.48912826D-20  0.57231998D-06 -0.11069207D-16
 -0.33935589D-20  0.15914418D-19  0.71312823D-05  0.13288095D-04  0.22473499D-04
  0.33843844D-04  0.41900875D-04  0.35655754D-04  0.13567672D-04 -0.63543196D-07
 -0.47342843D-05 -0.88768274D-05 -0.15102125D-04 -0.23452005D-04 -0.31122174D-04
 -0.32798500D-04 -0.20337162D-04  0.13528288D-04  0.85091440D-05 -0.50602197D-04
 -0.12210338D-04 -0.10543853D-10 -0.10127245D-10 -0.71019233D-11  0.14000984D-04
  0.13447778D-04  0.94305103D-05  0.53022527D-20  0.50927503D-20  0.35713881D-20
  0.22432190D-10 -0.19007217D-04 -0.11183117D-19  0.16918906D-10 -0.29482147D-04
  0.71189226D-19  0.92651070D-12 -0.11926212D-05  0.15451856D-20 -0.42475423D-05
  0.92366116D-05 -0.49890693D-05  0.15905112D-10  0.61330340D-19 -0.97964412D-19
 -0.21621400D-05 -0.10409173D-04  0.12571313D-04  0.25402476D-10 -0.38578786D-19
  0.57196347D-19  0.83800407D-06 -0.27348684D-05  0.18968643D-05  0.37191771D-11
 -0.69444592D-20  0.22188522D-19 -0.40484388D-11  0.14623368D-05  0.19131386D-19
  0.11463825D-10 -0.37368178D-05 -0.29234762D-19  0.68149164D-12 -0.65019254D-06
 -0.28159395D-19  0.43096641D-19  0.11158147D-12 -0.12095044D-05 -0.10022310D-19
  0.13048021D-11 -0.67810214D-06  0.15517543D-19 -0.16395466D-11  0.43066154D-05
  0.14549386D-19 -0.31580457D-19  0.71312823D-05  0.13288095D-04  0.22473499D-04
  0.33843844D-04  0.41900875D-04  0.35655754D-04  0.13567672D-04 -0.63543196D-07
 -0.47342843D-05 -0.88768274D-05 -0.15102125D-04 -0.23452005D-04 -0.31122174D-04
 -0.32798500D-04 -0.20337162D-04  0.13528288D-04  0.85091440D-05 -0.50602197D-04
 -0.12210338D-04 -0.10543874D-10 -0.10127265D-10 -0.71019371D-11 -0.14000984D-04
 -0.13447778D-04 -0.94305103D-05  0.28333222D-19  0.27213721D-19  0.19084139D-19
  0.22432227D-10  0.19007217D-04 -0.16687413D-19  0.16918962D-10  0.29482147D-04
  0.69894823D-21  0.92650901D-12  0.11926212D-05  0.15551131D-20 -0.42475423D-05
  0.92366116D-05 -0.49890693D-05 -0.15905086D-10  0.50874828D-19  0.88975926D-19
 -0.21621400D-05 -0.10409173D-04  0.12571313D-04 -0.25402506D-10 -0.36754029D-19
 -0.23575856D-19  0.83800407D-06 -0.27348684D-05  0.18968643D-05 -0.37191382D-11
 -0.48501504D-20 -0.16510468D-20 -0.40484889D-11 -0.14623368D-05  0.32423762D-21
  0.11464007D-10  0.37368178D-05  0.18709796D-19  0.68146024D-12  0.65019254D-06
 -0.19682509D-19 -0.23913065D-19  0.11160010D-12  0.12095044D-05 -0.59856055D-20
  0.13047400D-11  0.67810214D-06 -0.86149226D-21 -0.16395403D-11 -0.43066154D-05
  0.18818309D-19  0.32858870D-19
MO    3     MO 0.0        OCC NO =    2.0000000  ORB. ENERGY =  -15.640788
  0.19802422D-12  0.37019478D-12  0.63981216D-12  0.10348675D-11  0.15641416D-11
  0.21540796D-11  0.25176196D-11  0.21754133D-11  0.10146205D-11  0.13776355D-12
  0.36889684D-15  0.72362309D-15  0.33036417D-16 -0.34134838D-12 -0.63748264D-12
 -0.11058123D-11 -0.17930364D-11 -0.27605836D-11 -0.39316911D-11 -0.50556444D-11
 -0.53069222D-11 -0.37523701D-11  0.83097807D-13  0.26961264D-11  0.14845604D-11
 -0.62781806D-14  0.18885801D-12  0.35243698D-12  0.61214086D-12  0.99153237D-12
  0.15316273D-11  0.21835649D-11  0.28401047D-11  0.30267860D-11  0.22449042D-11
 -0.69875532D-13 -0.20337663D-11 -0.19923890D-11  0.93056383D-12 -0.12924088D-11
  0.13938752D-11  0.47148073D-12 -0.20687461D-10 -0.27140822D-10 -0.29769345D-10
 -0.24494689D-10 -0.12914085D-10 -0.33596344D-11  0.37177780D-14 -0.11055548D-01
 -0.14504277D-01 -0.15908981D-01 -0.13090162D-01 -0.69013922D-02 -0.17954161D-02
  0.19868109D-05  0.33533128D-14  0.43993638D-14  0.48254315D-14  0.39704415D-14
  0.20932953D-14  0.54457650D-15 -0.60262941D-18  0.20270114D-10  0.26614783D-10
  0.29943426D-10  0.25229600D-10  0.14113085D-10  0.35127180D-11 -0.16111017D-11
  0.10569086D-01  0.13877275D-01  0.15612870D-01  0.13155023D-01  0.73587356D-02
  0.18315743D-02 -0.84004823D-03 -0.10053439D-16 -0.13200227D-16 -0.14851145D-16
 -0.12513213D-16 -0.69997156D-17 -0.17422150D-17  0.79906373D-18  0.89147126D-12
  0.54594311D-03 -0.18310070D-16 -0.31180625D-12 -0.11826840D-03 -0.32419697D-18
 -0.21111411D-13 -0.27577878D-05 -0.93377269D-19  0.17728153D-12  0.20689666D-12
 -0.38417819D-12  0.55790840D-03 -0.12752427D-17 -0.14525176D-17  0.22316450D-12
  0.22378214D-12 -0.44694664D-12  0.55322872D-03  0.31823061D-17  0.42984625D-17
 -0.19780583D-14  0.12343475D-13 -0.10365417D-13  0.13675379D-04 -0.28473039D-18
  0.13287481D-18  0.72904674D-13  0.23599737D-04  0.89976012D-18 -0.80864727D-12
 -0.34975486D-03 -0.19624456D-17  0.58993325D-12  0.27895565D-03 -0.73683480D-18
  0.73276471D-18  0.24081421D-14  0.13027222D-04 -0.18165309D-18 -0.73402847D-13
 -0.54673223D-04  0.40281298D-18  0.66178420D-13  0.15591557D-04  0.14214628D-18
 -0.19132517D-18  0.19882290D-12  0.37168786D-12  0.64239268D-12  0.10390413D-11
  0.15704501D-11  0.21627675D-11  0.25277738D-11  0.21841873D-11  0.10187127D-11
  0.13831918D-12  0.37038468D-15  0.72654164D-15  0.33169661D-16 -0.34279964D-12
 -0.64019292D-12 -0.11105137D-11 -0.18006595D-11 -0.27723204D-11 -0.39484069D-11
 -0.50771387D-11 -0.53294849D-11 -0.37683235D-11  0.83451101D-13  0.27075891D-11
  0.14908720D-11 -0.63048726D-14  0.18969357D-12  0.35399627D-12  0.61484914D-12
  0.99591919D-12  0.15384037D-11  0.21932256D-11  0.28526701D-11  0.30401774D-11
  0.22548363D-11 -0.70184682D-13 -0.20427642D-11 -0.20012039D-11  0.93468091D-12
 -0.12917381D-11  0.13821474D-11  0.46326460D-12  0.20673205D-10  0.27122119D-10
  0.29748831D-10  0.24477809D-10  0.12905185D-10  0.33573192D-11 -0.37152160D-14
 -0.11055548D-01 -0.14504277D-01 -0.15908981D-01 -0.13090162D-01 -0.69013922D-02
 -0.17954161D-02  0.19868109D-05  0.63691484D-16  0.83559758D-16  0.91652319D-16
  0.75412980D-16  0.39759215D-16  0.10343468D-16 -0.11446102D-19 -0.20257461D-10
 -0.26598170D-10 -0.29924734D-10 -0.25213851D-10 -0.14104275D-10 -0.35105253D-11
  0.16100960D-11  0.10569086D-01  0.13877275D-01  0.15612870D-01  0.13155023D-01
  0.73587356D-02  0.18315743D-02 -0.84004823D-03 -0.10479656D-16 -0.13759852D-16
 -0.15480761D-16 -0.13043712D-16 -0.72964694D-17 -0.18160764D-17  0.83294014D-18
 -0.89037725D-12  0.54594311D-03  0.91720021D-19  0.30663145D-12 -0.11826840D-03
  0.67105017D-18  0.20817624D-13 -0.27577878D-05  0.92320581D-20  0.17758711D-12
  0.20549799D-12 -0.38308511D-12 -0.55790840D-03  0.12252195D-18  0.24734535D-18
  0.22292671D-12  0.22498436D-12 -0.44791107D-12 -0.55322872D-03 -0.93787087D-18
  0.54695743D-18 -0.21419193D-14  0.12123011D-13 -0.99810917D-14 -0.13675379D-04
  0.12162451D-18  0.11439395D-18 -0.72902329D-13  0.23599737D-04  0.39351213D-18
  0.80868497D-12 -0.34975486D-03 -0.65894237D-18 -0.58997798D-12  0.27895565D-03
 -0.52159402D-18 -0.16118341D-18 -0.22105344D-14  0.13027222D-04 -0.10419556D-18
  0.72504258D-13 -0.54673223D-04  0.12021098D-18 -0.65872655D-13  0.15591557D-04
  0.19237571D-18  0.87937836D-20  0.29087536D+00  0.54200340D+00  0.91666363D+00
  0.13804446D+01  0.17090800D+01  0.14543499D+01  0.55340699D+00 -0.25918410D-02
  0.15942223D-03  0.29891816D-03  0.50854873D-03  0.78972249D-03  0.10480077D-02
  0.11044562D-02  0.68483332D-03 -0.45555139D-03  0.25671739D-01 -0.36339085D-03
 -0.16809185D-03 -0.88663492D-15 -0.85160224D-15 -0.59720227D-15  0.64211000D-02
  0.61673898D-02  0.43249994D-02  0.72985892D-18  0.70102077D-18  0.49160415D-18
 -0.10694001D-15 -0.13136748D-02 -0.50752157D-18 -0.11241112D-14 -0.21231934D-03
 -0.67480227D-18 -0.15594872D-15 -0.12461419D-04 -0.11452342D-18  0.93120494D-04
  0.37583349D-03 -0.46895398D-03 -0.67290244D-15  0.55491714D-17 -0.90972233D-17
 -0.16323030D-03 -0.63172526D-04  0.22640283D-03  0.48081651D-15 -0.49027839D-18
  0.15863560D-17  0.11788148D-05 -0.32697118D-05  0.20908970D-05 -0.23829817D-16
  0.10996470D-19 -0.42151293D-18  0.30659592D-15 -0.33705278D-05  0.55366146D-18
 -0.59372755D-15 -0.14878217D-03 -0.15701721D-17 -0.32606021D-15  0.15889375D-03
 -0.90812302D-19  0.83193132D-18 -0.10403151D-15  0.36266469D-04 -0.73511240D-19
  0.50316670D-15 -0.11374416D-03 -0.37569381D-19 -0.19107217D-15  0.49447531D-05
  0.25810310D-18 -0.41535278D-18 -0.29087536D+00 -0.54200340D+00 -0.91666362D+00
 -0.13804446D+01 -0.17090800D+01 -0.14543499D+01 -0.55340698D+00  0.25918410D-02
 -0.15942223D-03 -0.29891816D-03 -0.50854873D-03 -0.78972249D-03 -0.10480077D-02
 -0.11044562D-02 -0.68483332D-03  0.45555139D-03 -0.25671739D-01  0.36339084D-03
  0.16809185D-03  0.16239934D-14  0.15598262D-14  0.10938578D-14  0.64211000D-02
  0.61673898D-02  0.43249994D-02 -0.90594819D-16 -0.87015240D-16 -0.61021093D-16