 Molden2AIM, Version 4.0.0 (06/02/2016)           Time: Wed Jun 27 22:19:20 2018
GAUSSIAN             31 MOL ORBITALS    524 PRIMITIVES        4 NUCLEI
  S    1    (CENTRE  1)  -2.73754797  0.00000000  0.00000000  CHARGE = 16.0
  S    2    (CENTRE  2)   0.00000000 -2.73754797  0.00000000  CHARGE = 16.0
  S    3    (CENTRE  3)   2.73754797  0.00000000  0.00000000  CHARGE = 16.0
  S    4    (CENTRE  4)   0.00000000  2.73754797  0.00000000  CHARGE = 16.0
CENTRE ASSIGNMENTS    1  1  1  1  1  1  1  1  1  1  1  1  1  1  1  1  1  1  1  1
CENTRE ASSIGNMENTS    1  1  1  1  1  1  1  1  1  1  1  1  1  1  1  1  1  1  1  1
CENTRE ASSIGNMENTS    1  1  1  1  1  1  1  1  1  1  1  1  1  1  1  1  1  1  1  1
CENTRE ASSIGNMENTS    1  1  1  1  1  1  1  1  1  1  1  1  1  1  1  1  1  1  1  1
CENTRE ASSIGNMENTS    1  1  1  1  1  1  1  1  1  1  1  1  1  1  1  1  1  1  1  1
CENTRE ASSIGNMENTS    1  1  1  1  1  1  1  1  1  1  1  1  1  1  1  1  1  1  1  1
CENTRE ASSIGNMENTS    1  1  1  1  1  1  1  1  1  1  1  2  2  2  2  2  2  2  2  2
CENTRE ASSIGNMENTS    2  2  2  2  2  2  2  2  2  2  2  2  2  2  2  2  2  2  2  2
CENTRE ASSIGNMENTS    2  2  2  2  2  2  2  2  2  2  2  2  2  2  2  2  2  2  2  2
CENTRE ASSIGNMENTS    2  2  2  2  2  2  2  2  2  2  2  2  2  2  2  2  2  2  2  2
CENTRE ASSIGNMENTS    2  2  2  2  2  2  2  2  2  2  2  2  2  2  2  2  2  2  2  2
CENTRE ASSIGNMENTS    2  2  2  2  2  2  2  2  2  2  2  2  2  2  2  2  2  2  2  2
CENTRE ASSIGNMENTS    2  2  2  2  2  2  2  2  2  2  2  2  2  2  2  2  2  2  2  2
CENTRE ASSIGNMENTS    2  2  3  3  3  3  3  3  3  3  3  3  3  3  3  3  3  3  3  3
CENTRE ASSIGNMENTS    3  3  3  3  3  3  3  3  3  3  3  3  3  3  3  3  3  3  3  3
CENTRE ASSIGNMENTS    3  3  3  3  3  3  3  3  3  3  3  3  3  3  3  3  3  3  3  3
CENTRE ASSIGNMENTS    3  3  3  3  3  3  3  3  3  3  3  3  3  3  3  3  3  3  3  3
CENTRE ASSIGNMENTS    3  3  3  3  3  3  3  3  3  3  3  3  3  3  3  3  3  3  3  3
CENTRE ASSIGNMENTS    3  3  3  3  3  3  3  3  3  3  3  3  3  3  3  3  3  3  3  3
CENTRE ASSIGNMENTS    3  3  3  3  3  3  3  3  3  3  3  3  3  4  4  4  4  4  4  4
CENTRE ASSIGNMENTS    4  4  4  4  4  4  4  4  4  4  4  4  4  4  4  4  4  4  4  4
CENTRE ASSIGNMENTS    4  4  4  4  4  4  4  4  4  4  4  4  4  4  4  4  4  4  4  4
CENTRE ASSIGNMENTS    4  4  4  4  4  4  4  4  4  4  4  4  4  4  4  4  4  4  4  4
CENTRE ASSIGNMENTS    4  4  4  4  4  4  4  4  4  4  4  4  4  4  4  4  4  4  4  4
CENTRE ASSIGNMENTS    4  4  4  4  4  4  4  4  4  4  4  4  4  4  4  4  4  4  4  4
CENTRE ASSIGNMENTS    4  4  4  4  4  4  4  4  4  4  4  4  4  4  4  4  4  4  4  4
CENTRE ASSIGNMENTS    4  4  4  4
TYPE ASSIGNMENTS      1  1  1  1  1  1  1  1  1  1  1  1  1  1  1  1  1  1  1  1
TYPE ASSIGNMENTS      1  1  1  1  1  1  1  1  1  1  1  1  1  1  1  1  1  1  1  1
TYPE ASSIGNMENTS      1  1  2  2  2  2  2  2  2  3  3  3  3  3  3  3  4  4  4  4
TYPE ASSIGNMENTS      4  4  4  2  2  2  2  2  2  2  3  3  3  3  3  3  3  4  4  4
TYPE ASSIGNMENTS      4  4  4  4  2  3  4  2  3  4  2  3  4  5  6  7  8  9 10  5
TYPE ASSIGNMENTS      6  7  8  9 10  5  6  7  8  9 10 11 12 13 17 14 15 18 19 16
TYPE ASSIGNMENTS     20 11 12 13 17 14 15 18 19 16 20  1  1  1  1  1  1  1  1  1
TYPE ASSIGNMENTS      1  1  1  1  1  1  1  1  1  1  1  1  1  1  1  1  1  1  1  1
TYPE ASSIGNMENTS      1  1  1  1  1  1  1  1  1  1  1  1  1  2  2  2  2  2  2  2
TYPE ASSIGNMENTS      3  3  3  3  3  3  3  4  4  4  4  4  4  4  2  2  2  2  2  2
TYPE ASSIGNMENTS      2  3  3  3  3  3  3  3  4  4  4  4  4  4  4  2  3  4  2  3
TYPE ASSIGNMENTS      4  2  3  4  5  6  7  8  9 10  5  6  7  8  9 10  5  6  7  8
TYPE ASSIGNMENTS      9 10 11 12 13 17 14 15 18 19 16 20 11 12 13 17 14 15 18 19
TYPE ASSIGNMENTS     16 20  1  1  1  1  1  1  1  1  1  1  1  1  1  1  1  1  1  1
TYPE ASSIGNMENTS      1  1  1  1  1  1  1  1  1  1  1  1  1  1  1  1  1  1  1  1
TYPE ASSIGNMENTS      1  1  1  1  2  2  2  2  2  2  2  3  3  3  3  3  3  3  4  4
TYPE ASSIGNMENTS      4  4  4  4  4  2  2  2  2  2  2  2  3  3  3  3  3  3  3  4
TYPE ASSIGNMENTS      4  4  4  4  4  4  2  3  4  2  3  4  2  3  4  5  6  7  8  9
TYPE ASSIGNMENTS     10  5  6  7  8  9 10  5  6  7  8  9 10 11 12 13 17 14 15 18
TYPE ASSIGNMENTS     19 16 20 11 12 13 17 14 15 18 19 16 20  1  1  1  1  1  1  1
TYPE ASSIGNMENTS      1  1  1  1  1  1  1  1  1  1  1  1  1  1  1  1  1  1  1  1
TYPE ASSIGNMENTS      1  1  1  1  1  1  1  1  1  1  1  1  1  1  1  2  2  2  2  2
TYPE ASSIGNMENTS      2  2  3  3  3  3  3  3  3  4  4  4  4  4  4  4  2  2  2  2
TYPE ASSIGNMENTS      2  2  2  3  3  3  3  3  3  3  4  4  4  4  4  4  4  2  3  4
TYPE ASSIGNMENTS      2  3  4  2  3  4  5  6  7  8  9 10  5  6  7  8  9 10  5  6
TYPE ASSIGNMENTS      7  8  9 10 11 12 13 17 14 15 18 19 16 20 11 12 13 17 14 15
TYPE ASSIGNMENTS     18 19 16 20
EXPONENTS  0.3741000D+06 0.5605000D+05 0.1276000D+05 0.3615000D+04 0.1183000D+04
EXPONENTS  0.4288000D+03 0.1678000D+03 0.6947000D+02 0.2984000D+02 0.1272000D+02
EXPONENTS  0.5244000D+01 0.2219000D+01 0.3490000D+00 0.3741000D+06 0.5605000D+05
EXPONENTS  0.1276000D+05 0.3615000D+04 0.1183000D+04 0.4288000D+03 0.1678000D+03
EXPONENTS  0.6947000D+02 0.2984000D+02 0.1272000D+02 0.5244000D+01 0.2219000D+01
EXPONENTS  0.3490000D+00 0.3741000D+06 0.5605000D+05 0.1276000D+05 0.3615000D+04
EXPONENTS  0.1183000D+04 0.4288000D+03 0.1678000D+03 0.6947000D+02 0.2984000D+02
EXPONENTS  0.1272000D+02 0.5244000D+01 0.2219000D+01 0.3490000D+00 0.7767000D+00
EXPONENTS  0.1322000D+00 0.4970000D-01 0.5744000D+03 0.1358000D+03 0.4319000D+02
EXPONENTS  0.1587000D+02 0.6208000D+01 0.2483000D+01 0.3229000D+00 0.5744000D+03
EXPONENTS  0.1358000D+03 0.4319000D+02 0.1587000D+02 0.6208000D+01 0.2483000D+01
EXPONENTS  0.3229000D+00 0.5744000D+03 0.1358000D+03 0.4319000D+02 0.1587000D+02
EXPONENTS  0.6208000D+01 0.2483000D+01 0.3229000D+00 0.5744000D+03 0.1358000D+03
EXPONENTS  0.4319000D+02 0.1587000D+02 0.6208000D+01 0.2483000D+01 0.3229000D+00
EXPONENTS  0.5744000D+03 0.1358000D+03 0.4319000D+02 0.1587000D+02 0.6208000D+01
EXPONENTS  0.2483000D+01 0.3229000D+00 0.5744000D+03 0.1358000D+03 0.4319000D+02
EXPONENTS  0.1587000D+02 0.6208000D+01 0.2483000D+01 0.3229000D+00 0.8688000D+00
EXPONENTS  0.8688000D+00 0.8688000D+00 0.1098000D+00 0.1098000D+00 0.1098000D+00
EXPONENTS  0.3510000D-01 0.3510000D-01 0.3510000D-01 0.2690000D+00 0.2690000D+00
EXPONENTS  0.2690000D+00 0.2690000D+00 0.2690000D+00 0.2690000D+00 0.8190000D+00
EXPONENTS  0.8190000D+00 0.8190000D+00 0.8190000D+00 0.8190000D+00 0.8190000D+00
EXPONENTS  0.1010000D+00 0.1010000D+00 0.1010000D+00 0.1010000D+00 0.1010000D+00
EXPONENTS  0.1010000D+00 0.5570000D+00 0.5570000D+00 0.5570000D+00 0.5570000D+00
EXPONENTS  0.5570000D+00 0.5570000D+00 0.5570000D+00 0.5570000D+00 0.5570000D+00
EXPONENTS  0.5570000D+00 0.2180000D+00 0.2180000D+00 0.2180000D+00 0.2180000D+00
EXPONENTS  0.2180000D+00 0.2180000D+00 0.2180000D+00 0.2180000D+00 0.2180000D+00
EXPONENTS  0.2180000D+00 0.3741000D+06 0.5605000D+05 0.1276000D+05 0.3615000D+04
EXPONENTS  0.1183000D+04 0.4288000D+03 0.1678000D+03 0.6947000D+02 0.2984000D+02
EXPONENTS  0.1272000D+02 0.5244000D+01 0.2219000D+01 0.3490000D+00 0.3741000D+06
EXPONENTS  0.5605000D+05 0.1276000D+05 0.3615000D+04 0.1183000D+04 0.4288000D+03
EXPONENTS  0.1678000D+03 0.6947000D+02 0.2984000D+02 0.1272000D+02 0.5244000D+01
EXPONENTS  0.2219000D+01 0.3490000D+00 0.3741000D+06 0.5605000D+05 0.1276000D+05
EXPONENTS  0.3615000D+04 0.1183000D+04 0.4288000D+03 0.1678000D+03 0.6947000D+02
EXPONENTS  0.2984000D+02 0.1272000D+02 0.5244000D+01 0.2219000D+01 0.3490000D+00
EXPONENTS  0.7767000D+00 0.1322000D+00 0.4970000D-01 0.5744000D+03 0.1358000D+03
EXPONENTS  0.4319000D+02 0.1587000D+02 0.6208000D+01 0.2483000D+01 0.3229000D+00
EXPONENTS  0.5744000D+03 0.1358000D+03 0.4319000D+02 0.1587000D+02 0.6208000D+01
EXPONENTS  0.2483000D+01 0.3229000D+00 0.5744000D+03 0.1358000D+03 0.4319000D+02
EXPONENTS  0.1587000D+02 0.6208000D+01 0.2483000D+01 0.3229000D+00 0.5744000D+03
EXPONENTS  0.1358000D+03 0.4319000D+02 0.1587000D+02 0.6208000D+01 0.2483000D+01
EXPONENTS  0.3229000D+00 0.5744000D+03 0.1358000D+03 0.4319000D+02 0.1587000D+02
EXPONENTS  0.6208000D+01 0.2483000D+01 0.3229000D+00 0.5744000D+03 0.1358000D+03
EXPONENTS  0.4319000D+02 0.1587000D+02 0.6208000D+01 0.2483000D+01 0.3229000D+00
EXPONENTS  0.8688000D+00 0.8688000D+00 0.8688000D+00 0.1098000D+00 0.1098000D+00
EXPONENTS  0.1098000D+00 0.3510000D-01 0.3510000D-01 0.3510000D-01 0.2690000D+00
EXPONENTS  0.2690000D+00 0.2690000D+00 0.2690000D+00 0.2690000D+00 0.2690000D+00
EXPONENTS  0.8190000D+00 0.8190000D+00 0.8190000D+00 0.8190000D+00 0.8190000D+00
EXPONENTS  0.8190000D+00 0.1010000D+00 0.1010000D+00 0.1010000D+00 0.1010000D+00
EXPONENTS  0.1010000D+00 0.1010000D+00 0.5570000D+00 0.5570000D+00 0.5570000D+00
EXPONENTS  0.5570000D+00 0.5570000D+00 0.5570000D+00 0.5570000D+00 0.5570000D+00
EXPONENTS  0.5570000D+00 0.5570000D+00 0.2180000D+00 0.2180000D+00 0.2180000D+00
EXPONENTS  0.2180000D+00 0.2180000D+00 0.2180000D+00 0.2180000D+00 0.2180000D+00
EXPONENTS  0.2180000D+00 0.2180000D+00 0.3741000D+06 0.5605000D+05 0.1276000D+05
EXPONENTS  0.3615000D+04 0.1183000D+04 0.4288000D+03 0.1678000D+03 0.6947000D+02
EXPONENTS  0.2984000D+02 0.1272000D+02 0.5244000D+01 0.2219000D+01 0.3490000D+00
EXPONENTS  0.3741000D+06 0.5605000D+05 0.1276000D+05 0.3615000D+04 0.1183000D+04
EXPONENTS  0.4288000D+03 0.1678000D+03 0.6947000D+02 0.2984000D+02 0.1272000D+02
EXPONENTS  0.5244000D+01 0.2219000D+01 0.3490000D+00 0.3741000D+06 0.5605000D+05
EXPONENTS  0.1276000D+05 0.3615000D+04 0.1183000D+04 0.4288000D+03 0.1678000D+03
EXPONENTS  0.6947000D+02 0.2984000D+02 0.1272000D+02 0.5244000D+01 0.2219000D+01
EXPONENTS  0.3490000D+00 0.7767000D+00 0.1322000D+00 0.4970000D-01 0.5744000D+03
EXPONENTS  0.1358000D+03 0.4319000D+02 0.1587000D+02 0.6208000D+01 0.2483000D+01
EXPONENTS  0.3229000D+00 0.5744000D+03 0.1358000D+03 0.4319000D+02 0.1587000D+02
EXPONENTS  0.6208000D+01 0.2483000D+01 0.3229000D+00 0.5744000D+03 0.1358000D+03
EXPONENTS  0.4319000D+02 0.1587000D+02 0.6208000D+01 0.2483000D+01 0.3229000D+00
EXPONENTS  0.5744000D+03 0.1358000D+03 0.4319000D+02 0.1587000D+02 0.6208000D+01
EXPONENTS  0.2483000D+01 0.3229000D+00 0.5744000D+03 0.1358000D+03 0.4319000D+02
EXPONENTS  0.1587000D+02 0.6208000D+01 0.2483000D+01 0.3229000D+00 0.5744000D+03
EXPONENTS  0.1358000D+03 0.4319000D+02 0.1587000D+02 0.6208000D+01 0.2483000D+01
EXPONENTS  0.3229000D+00 0.8688000D+00 0.8688000D+00 0.8688000D+00 0.1098000D+00
EXPONENTS  0.1098000D+00 0.1098000D+00 0.3510000D-01 0.3510000D-01 0.3510000D-01
EXPONENTS  0.2690000D+00 0.2690000D+00 0.2690000D+00 0.2690000D+00 0.2690000D+00
EXPONENTS  0.2690000D+00 0.8190000D+00 0.8190000D+00 0.8190000D+00 0.8190000D+00
EXPONENTS  0.8190000D+00 0.8190000D+00 0.1010000D+00 0.1010000D+00 0.1010000D+00
EXPONENTS  0.1010000D+00 0.1010000D+00 0.1010000D+00 0.5570000D+00 0.5570000D+00
EXPONENTS  0.5570000D+00 0.5570000D+00 0.5570000D+00 0.5570000D+00 0.5570000D+00
EXPONENTS  0.5570000D+00 0.5570000D+00 0.5570000D+00 0.2180000D+00 0.2180000D+00
EXPONENTS  0.2180000D+00 0.2180000D+00 0.2180000D+00 0.2180000D+00 0.2180000D+00
EXPONENTS  0.2180000D+00 0.2180000D+00 0.2180000D+00 0.3741000D+06 0.5605000D+05
EXPONENTS  0.1276000D+05 0.3615000D+04 0.1183000D+04 0.4288000D+03 0.1678000D+03
EXPONENTS  0.6947000D+02 0.2984000D+02 0.1272000D+02 0.5244000D+01 0.2219000D+01
EXPONENTS  0.3490000D+00 0.3741000D+06 0.5605000D+05 0.1276000D+05 0.3615000D+04
EXPONENTS  0.1183000D+04 0.4288000D+03 0.1678000D+03 0.6947000D+02 0.2984000D+02
EXPONENTS  0.1272000D+02 0.5244000D+01 0.2219000D+01 0.3490000D+00 0.3741000D+06
EXPONENTS  0.5605000D+05 0.1276000D+05 0.3615000D+04 0.1183000D+04 0.4288000D+03
EXPONENTS  0.1678000D+03 0.6947000D+02 0.2984000D+02 0.1272000D+02 0.5244000D+01
EXPONENTS  0.2219000D+01 0.3490000D+00 0.7767000D+00 0.1322000D+00 0.4970000D-01
EXPONENTS  0.5744000D+03 0.1358000D+03 0.4319000D+02 0.1587000D+02 0.6208000D+01
EXPONENTS  0.2483000D+01 0.3229000D+00 0.5744000D+03 0.1358000D+03 0.4319000D+02
EXPONENTS  0.1587000D+02 0.6208000D+01 0.2483000D+01 0.3229000D+00 0.5744000D+03
EXPONENTS  0.1358000D+03 0.4319000D+02 0.1587000D+02 0.6208000D+01 0.2483000D+01
EXPONENTS  0.3229000D+00 0.5744000D+03 0.1358000D+03 0.4319000D+02 0.1587000D+02
EXPONENTS  0.6208000D+01 0.2483000D+01 0.3229000D+00 0.5744000D+03 0.1358000D+03
EXPONENTS  0.4319000D+02 0.1587000D+02 0.6208000D+01 0.2483000D+01 0.3229000D+00
EXPONENTS  0.5744000D+03 0.1358000D+03 0.4319000D+02 0.1587000D+02 0.6208000D+01
EXPONENTS  0.2483000D+01 0.3229000D+00 0.8688000D+00 0.8688000D+00 0.8688000D+00
EXPONENTS  0.1098000D+00 0.1098000D+00 0.1098000D+00 0.3510000D-01 0.3510000D-01
EXPONENTS  0.3510000D-01 0.2690000D+00 0.2690000D+00 0.2690000D+00 0.2690000D+00
EXPONENTS  0.2690000D+00 0.2690000D+00 0.8190000D+00 0.8190000D+00 0.8190000D+00
EXPONENTS  0.8190000D+00 0.8190000D+00 0.8190000D+00 0.1010000D+00 0.1010000D+00
EXPONENTS  0.1010000D+00 0.1010000D+00 0.1010000D+00 0.1010000D+00 0.5570000D+00
EXPONENTS  0.5570000D+00 0.5570000D+00 0.5570000D+00 0.5570000D+00 0.5570000D+00
EXPONENTS  0.5570000D+00 0.5570000D+00 0.5570000D+00 0.5570000D+00 0.2180000D+00
EXPONENTS  0.2180000D+00 0.2180000D+00 0.2180000D+00 0.2180000D+00 0.2180000D+00
EXPONENTS  0.2180000D+00 0.2180000D+00 0.2180000D+00 0.2180000D+00
MO    1     MO 0.0        OCC NO =    2.0000000  ORB. ENERGY =  -92.539782
  0.29223763D+00  0.54632127D+00  0.94421372D+00  0.15272233D+01  0.23083086D+01
  0.31789198D+01  0.37154202D+01  0.32104033D+01  0.14973436D+01  0.20330691D+00
  0.54440580D-03  0.10678991D-02  0.48754056D-04 -0.34129310D-05 -0.63737939D-05
 -0.11056332D-04 -0.17927460D-04 -0.27601365D-04 -0.39310544D-04 -0.50548257D-04
 -0.53060628D-04 -0.37517624D-04  0.83084349D-06  0.26956898D-04  0.14843199D-04
 -0.62771639D-07  0.29184857D-05  0.54463261D-05  0.94596165D-05  0.15322480D-04
  0.23668747D-04  0.33743355D-04  0.43889083D-04  0.46773932D-04  0.34691252D-04
 -0.10798099D-05 -0.31428467D-04 -0.30789051D-04  0.14380313D-04 -0.18436945D-03
 -0.44500150D-05 -0.81912584D-06  0.77102293D-03  0.10115401D-02  0.11095053D-02
  0.91291855D-03  0.48130872D-03  0.12521378D-03 -0.13856181D-06 -0.25422857D-10
 -0.33353404D-10 -0.36583600D-10 -0.30101566D-10 -0.15870141D-10 -0.41286606D-11
  0.45687838D-14 -0.25363714D-16 -0.33275811D-16 -0.36498493D-16 -0.30031539D-16
 -0.15833221D-16 -0.41190558D-17  0.45581552D-20 -0.23079129D-03 -0.30303037D-03
 -0.34092960D-03 -0.28725896D-03 -0.16068864D-03 -0.39995074D-04  0.18343668D-04
  0.22106163D-10  0.29025526D-10  0.32655674D-10  0.27514874D-10  0.15391435D-10
  0.38308968D-11 -0.17570339D-11  0.93144160D-17  0.12229885D-16  0.13759445D-16
  0.11593373D-16  0.64851702D-17  0.16141457D-17 -0.74032498D-18 -0.47499472D-04
  0.27744907D-11  0.21486818D-17 -0.35902403D-05 -0.13314674D-11  0.14672979D-18
 -0.74806796D-07 -0.44688648D-13  0.10859933D-20  0.46898039D-06 -0.72999168D-06
  0.26101129D-06 -0.25221091D-11 -0.55316392D-19  0.33760564D-19 -0.87047889D-06
  0.22005203D-05 -0.13300414D-05  0.12806735D-11 -0.25055800D-18  0.11463454D-18
 -0.47239293D-06 -0.90414403D-07  0.56280733D-06 -0.30230814D-12  0.24072871D-19
 -0.64143088D-20  0.16042432D-05  0.15689671D-12 -0.17197989D-19 -0.19281288D-05
 -0.12005182D-11 -0.95504924D-20 -0.28846009D-05  0.72982804D-12  0.61144460D-19
  0.44193597D-19 -0.18253077D-06  0.42641392D-13  0.38084280D-20 -0.10723097D-05
 -0.37429825D-12  0.24536765D-20  0.16199020D-05  0.24637407D-12 -0.13878960D-19
  0.16637371D-20  0.29223764D+00  0.54632129D+00  0.94421375D+00  0.15272234D+01
  0.23083087D+01  0.31789199D+01  0.37154203D+01  0.32104034D+01  0.14973436D+01
  0.20330691D+00  0.54440582D-03  0.10678992D-02  0.48754058D-04 -0.34129307D-05
 -0.63737934D-05 -0.11056331D-04 -0.17927458D-04 -0.27601363D-04 -0.39310540D-04
 -0.50548252D-04 -0.53060623D-04 -0.37517620D-04  0.83084341D-06  0.26956895D-04
  0.14843198D-04 -0.62771633D-07  0.29184855D-05  0.54463258D-05  0.94596160D-05
  0.15322479D-04  0.23668746D-04  0.33743353D-04  0.43889080D-04  0.46773929D-04
  0.34691250D-04 -0.10798098D-05 -0.31428466D-04 -0.30789049D-04  0.14380312D-04
 -0.18436945D-03 -0.44500123D-05 -0.81912450D-06 -0.25118602D-10 -0.32954238D-10
 -0.36145777D-10 -0.29741318D-10 -0.15680211D-10 -0.40792498D-11  0.45141058D-14
  0.77102297D-03  0.10115402D-02  0.11095054D-02  0.91291860D-03  0.48130874D-03
  0.12521379D-03 -0.13856182D-06  0.15686337D-16  0.20579620D-16  0.22572707D-16
  0.18573181D-16  0.97921482D-17  0.25474541D-17 -0.28190177D-20  0.21815519D-10
  0.28643910D-10  0.32226330D-10  0.27153119D-10  0.15189074D-10  0.37805297D-11
 -0.17339331D-11 -0.23079131D-03 -0.30303040D-03 -0.34092963D-03 -0.28725899D-03
 -0.16068865D-03 -0.39995078D-04  0.18343670D-04 -0.19803376D-17 -0.26001953D-17
 -0.29253950D-17 -0.24648665D-17 -0.13788118D-17 -0.34318344D-18  0.15740046D-18
  0.27258338D-11 -0.47499475D-04 -0.90386551D-18 -0.14556698D-11 -0.35902392D-05
 -0.62167123D-19 -0.43943468D-13 -0.74806736D-07 -0.25670502D-20 -0.72999157D-06
  0.46898076D-06  0.26101081D-06 -0.25201796D-11 -0.95676984D-19  0.83332897D-19
  0.22005204D-05 -0.87047921D-06 -0.13300412D-05  0.13156454D-11 -0.99899295D-19
 -0.10490748D-18 -0.90414393D-07 -0.47239288D-06  0.56280727D-06 -0.31708218D-12
  0.16141009D-19 -0.23608955D-19  0.16217396D-12  0.16042432D-05 -0.27121335D-19
 -0.11947855D-11 -0.19281284D-05  0.43106145D-19  0.70826366D-12 -0.28846013D-05
  0.38257861D-19 -0.27769826D-19  0.37381464D-13 -0.18253076D-06 -0.85327375D-21
 -0.35904894D-12 -0.10723097D-05  0.53392249D-21  0.24690454D-12  0.16199019D-05
  0.20258988D-20 -0.15287342D-19  0.29223773D+00  0.54632146D+00  0.94421406D+00
  0.15272239D+01  0.23083095D+01  0.31789209D+01  0.37154215D+01  0.32104045D+01
  0.14973441D+01  0.20330698D+00  0.54440600D-03  0.10678995D-02  0.48754074D-04
 -0.34129324D-05 -0.63737966D-05 -0.11056336D-04 -0.17927467D-04 -0.27601377D-04
 -0.39310560D-04 -0.50548278D-04 -0.53060650D-04 -0.37517639D-04  0.83084383D-06
  0.26956909D-04  0.14843206D-04 -0.62771665D-07  0.29184868D-05  0.54463281D-05
  0.94596199D-05  0.15322485D-04  0.23668756D-04  0.33743368D-04  0.43889099D-04
  0.46773949D-04  0.34691265D-04 -0.10798103D-05 -0.31428479D-04 -0.30789062D-04
  0.14380318D-04 -0.18436952D-03 -0.44500112D-05 -0.81912527D-06 -0.77102327D-03
 -0.10115405D-02 -0.11095058D-02 -0.91291896D-03 -0.48130893D-03 -0.12521383D-03
  0.13856187D-06 -0.26272869D-10 -0.34468573D-10 -0.37806771D-10 -0.31108010D-10
 -0.16400758D-10 -0.42667021D-11  0.47215409D-14  0.26767586D-18  0.35117615D-18
  0.38518671D-18  0.31693773D-18  0.16709584D-18  0.43470439D-19 -0.48104473D-22
  0.23079143D-03  0.30303055D-03  0.34092980D-03  0.28725914D-03  0.16068873D-03
  0.39995098D-04 -0.18343679D-04  0.22819446D-10  0.29962071D-10  0.33709350D-10
  0.28402676D-10  0.15888059D-10  0.39545055D-11 -0.18137268D-11  0.12646546D-18
  0.16604992D-18  0.18681736D-18  0.15740775D-18  0.88051687D-19  0.21915886D-19
 -0.10051681D-19  0.47499494D-04  0.28517548D-11 -0.28786070D-19  0.35902406D-05
 -0.15148315D-11  0.50264329D-19  0.74806834D-07 -0.45731645D-13  0.23003348D-20
  0.46898098D-06 -0.72999111D-06  0.26101013D-06  0.26337257D-11 -0.11906705D-19
  0.24789142D-19 -0.87047913D-06  0.22005212D-05 -0.13300420D-05 -0.13721907D-11
 -0.14762115D-19  0.50033159D-20 -0.47239318D-06 -0.90414272D-07  0.56280745D-06
  0.33045416D-12 -0.14524902D-19  0.60368758D-20 -0.16042430D-05  0.16945747D-12
  0.22517044D-20  0.19281265D-05 -0.12500159D-11 -0.16352757D-19  0.28846027D-05
  0.74164350D-12  0.95976438D-20 -0.70420980D-20  0.18253087D-06  0.39250109D-13
 -0.18272902D-20  0.10723096D-05 -0.37570746D-12  0.63569529D-21 -0.16199022D-05
  0.25795713D-12  0.48461753D-20 -0.15174806D-19  0.29223775D+00  0.54632149D+00
  0.94421410D+00  0.15272239D+01  0.23083096D+01  0.31789210D+01  0.37154217D+01
  0.32104046D+01  0.14973442D+01  0.20330699D+00  0.54440602D-03  0.10678996D-02
  0.48754076D-04 -0.34129322D-05 -0.63737962D-05 -0.11056336D-04 -0.17927466D-04
 -0.27601375D-04 -0.39310558D-04 -0.50548274D-04 -0.53060646D-04 -0.37517637D-04
  0.83084378D-06  0.26956907D-04  0.14843205D-04 -0.62771661D-07  0.29184867D-05
  0.54463279D-05  0.94596196D-05  0.15322485D-04  0.23668755D-04  0.33743366D-04
  0.43889097D-04  0.46773947D-04  0.34691264D-04 -0.10798102D-05 -0.31428478D-04
 -0.30789061D-04  0.14380317D-04 -0.18436953D-03 -0.44500084D-05 -0.81912391D-06
 -0.24268316D-10 -0.31838709D-10 -0.34922211D-10 -0.28734549D-10 -0.15149422D-10
 -0.39411637D-11  0.43612994D-14 -0.77102333D-03 -0.10115406D-02 -0.11095059D-02
 -0.91291902D-03 -0.48130896D-03 -0.12521384D-03  0.13856188D-06  0.57686616D-17
  0.75681698D-17  0.83011288D-17  0.68303003D-17  0.36010694D-17  0.93682805D-18
 -0.10366958D-20  0.21101844D-10  0.27706850D-10  0.31172074D-10  0.26264829D-10
  0.14692177D-10  0.36568530D-11 -0.16772090D-11  0.23079146D-03  0.30303059D-03
  0.34092984D-03  0.28725917D-03  0.16068875D-03  0.39995103D-04 -0.18343681D-04
 -0.29229423D-17 -0.38378410D-17 -0.43178299D-17 -0.36380982D-17 -0.20351011D-17
 -0.50653252D-18  0.23232022D-18  0.26485558D-11  0.47499498D-04 -0.39891380D-18
 -0.12722998D-11  0.35902396D-05 -0.80918535D-19 -0.42899524D-13  0.74806775D-07
 -0.90926813D-21 -0.72999097D-06  0.46898137D-06  0.26100960D-06  0.24085557D-11
 -0.70685143D-19  0.12147088D-19  0.22005213D-05 -0.87047946D-06 -0.13300418D-05
 -0.12240989D-11  0.14306317D-18 -0.27345765D-18 -0.90414256D-07 -0.47239314D-06
  0.56280740D-06  0.28893124D-12 -0.12157766D-20  0.19125443D-19  0.14962309D-12
 -0.16042431D-05 -0.93526416D-20 -0.11453178D-11  0.19281260D-05  0.80019580D-20
  0.69644853D-12  0.28846032D-05  0.20055967D-19  0.39104455D-19  0.40770895D-13
  0.18253087D-06  0.19544032D-20 -0.35763078D-12  0.10723095D-05 -0.32111090D-20
  0.23531810D-12 -0.16199021D-05 -0.26521006D-20  0.20609802D-19
MO    2     MO 0.0        OCC NO =    2.0000000  ORB. ENERGY =  -92.539780
 -0.36174576D-12 -0.67626268D-12 -0.11687930D-11 -0.18904703D-11 -0.28573352D-11
 -0.39350194D-11 -0.45991254D-11 -0.39739913D-11 -0.18534837D-11 -0.25166304D-12
 -0.67389162D-15 -0.13218968D-14 -0.60350110D-16  0.65218656D-12  0.12179862D-11
  0.21127855D-11  0.34258086D-11  0.52744224D-11  0.75119622D-11  0.96594083D-11
  0.10139504D-10  0.71693481D-11 -0.15876821D-12 -0.51512693D-11 -0.28364287D-11
  0.11995209D-13 -0.36054326D-12 -0.67282706D-12 -0.11686201D-11 -0.18929052D-11
 -0.29239846D-11 -0.41685794D-11 -0.54219601D-11 -0.57783479D-11 -0.42856805D-11
  0.13339732D-12  0.38826033D-11  0.38036111D-11 -0.17765120D-11  0.57493120D-12
  0.92904305D-12  0.98363383D-12 -0.34600442D-11 -0.45393896D-11 -0.49790185D-11
 -0.40968153D-11 -0.21599220D-11 -0.56190963D-12  0.62181029D-15  0.19166484D-03
  0.25145384D-03  0.27580653D-03  0.22693799D-03  0.11964619D-03  0.31126285D-04
 -0.34444407D-07  0.10022737D-15  0.13149285D-15  0.14422761D-15  0.11867276D-15
  0.62566628D-16  0.16276879D-16 -0.18012027D-19  0.41487630D-11  0.54473510D-11
  0.61286372D-11  0.51638402D-11  0.28885798D-11  0.71896164D-12 -0.32975045D-12
 -0.16667710D-03 -0.21884805D-03 -0.24621881D-03 -0.20745797D-03 -0.11604908D-03
 -0.28884379D-04  0.13247768D-04  0.14623683D-15  0.19200985D-15  0.21602403D-15
  0.18201657D-15  0.10181752D-15  0.25342173D-16 -0.11623142D-16 -0.52810089D-12
 -0.20931372D-04  0.12149979D-16  0.12303068D-11  0.99655137D-05 -0.37123302D-17
  0.74341631D-13  0.30240117D-06  0.16540047D-17  0.49513719D-12 -0.29111180D-12
 -0.20402538D-12  0.18938342D-04 -0.14635404D-18  0.94235884D-16 -0.63763794D-12
  0.58104225D-13  0.57953372D-12 -0.94905910D-05  0.11479407D-18  0.35076405D-17
  0.16529156D-12 -0.10746821D-12 -0.57823348D-13  0.22569616D-05 -0.10382528D-18
  0.62490837D-19  0.36708796D-12 -0.12069535D-05 -0.14097006D-18 -0.76960373D-12
  0.91521476D-05  0.16443199D-18 -0.33166016D-12 -0.55312870D-05  0.25847818D-18
  0.99035420D-18  0.64825636D-13 -0.31226646D-06  0.62752622D-19 -0.14232797D-12
  0.27866049D-05 -0.73646527D-19 -0.52148934D-13 -0.18498055D-05 -0.11461134D-18
 -0.38818822D-18  0.41328741D+00  0.77261680D+00  0.13353231D+01  0.21598251D+01
  0.32644492D+01  0.44956822D+01  0.52544102D+01  0.45402069D+01  0.21175687D+01
  0.28752008D+00  0.76990792D-03  0.15102411D-02  0.68948813D-04 -0.59292489D-05
 -0.11073125D-04 -0.19208049D-04 -0.31145187D-04 -0.47951560D-04 -0.68293793D-04
 -0.87816952D-04 -0.92181668D-04 -0.65178971D-04  0.14434156D-05  0.46831933D-04
  0.25786934D-04 -0.10905250D-06  0.44184602D-05  0.82455005D-05  0.14321447D-04
  0.23197567D-04  0.35833452D-04  0.51085970D-04  0.66446160D-04  0.70813696D-04
  0.52521045D-04 -0.16347851D-05 -0.47581331D-04 -0.46613282D-04  0.21771167D-04
 -0.27612035D-03  0.12870048D-04  0.13618965D-05 -0.31801528D-10 -0.41721874D-10
 -0.45762536D-10 -0.37654140D-10 -0.19852007D-10 -0.51645540D-11  0.57151055D-14
  0.13418388D-02  0.17604194D-02  0.19309118D-02  0.15887848D-02  0.83763879D-03
  0.21791402D-03 -0.24114408D-06  0.25578071D-16  0.33557037D-16  0.36806954D-16
  0.30285345D-16  0.15967033D-16  0.41538673D-17 -0.45966777D-20  0.27618555D-10
  0.36263330D-10  0.40798692D-10  0.34375983D-10  0.19229443D-10  0.47861691D-11
 -0.21951678D-11 -0.55007094D-03 -0.72224649D-03 -0.81257600D-03 -0.68465672D-03
 -0.38298737D-03 -0.95324777D-04  0.43720536D-04  0.17372707D-17  0.22810470D-17
  0.25663317D-17  0.21623285D-17  0.12095762D-17  0.30106107D-18 -0.13808111D-18
  0.34635549D-11 -0.86887800D-04 -0.16429722D-17 -0.18236100D-11 -0.19930280D-05
  0.10185179D-18 -0.57276197D-13 -0.17374852D-06  0.13855140D-19  0.21731243D-05
  0.22401276D-05 -0.44132519D-05 -0.31967643D-11  0.28831220D-18 -0.91645377D-19
  0.34839452D-05 -0.89068934D-06 -0.25932558D-05  0.16589753D-11  0.37882884D-19
 -0.46402964D-18  0.47566447D-06 -0.99392908D-06  0.51826461D-06 -0.40741620D-12
 -0.24416100D-19  0.23657220D-19  0.20000964D-12 -0.70473737D-06  0.15229277D-18
 -0.14984752D-11  0.90918264D-05 -0.22221204D-18  0.89844633D-12 -0.69776143D-05
 -0.23466627D-18  0.33282228D-18  0.51340185D-13 -0.39253408D-06 -0.17858907D-19
 -0.46879043D-12  0.56588030D-06  0.57172332D-20  0.31476987D-12  0.61172195D-06
  0.47859487D-19  0.37250656D-19  0.13335990D-06  0.24930858D-06  0.43088307D-06
  0.69693403D-06  0.10533750D-05  0.14506702D-05  0.16954971D-05  0.14650374D-05
  0.68329868D-06  0.92777198D-07  0.24843448D-09  0.48732575D-09  0.22248456D-10
 -0.11250005D-11 -0.21009864D-11 -0.36444860D-11 -0.59094080D-11 -0.90982064D-11
 -0.12957890D-10 -0.16662164D-10 -0.17490314D-10 -0.12366891D-10  0.27386999D-12
  0.88857713D-11  0.48927468D-11 -0.20691343D-13  0.98976968D-12  0.18470566D-11
  0.32081163D-11  0.51964366D-11  0.80269738D-11  0.11443657D-10  0.14884460D-10
  0.15862822D-10  0.11765125D-10 -0.36620466D-12 -0.10658591D-10 -0.10441740D-10
  0.48769118D-11 -0.88498146D-10  0.58905904D-11  0.17912300D-11 -0.43115414D-09
 -0.56565075D-09 -0.62043266D-09 -0.51050183D-09 -0.26914666D-09 -0.70019239D-10
  0.77483427D-13  0.19166484D-03  0.25145384D-03  0.27580653D-03  0.22693798D-03
  0.11964619D-03  0.31126285D-04 -0.34444407D-07  0.37322038D-17  0.48964482D-17
  0.53706574D-17  0.44190620D-17  0.23298169D-17  0.60610823D-18 -0.67072055D-21
  0.17473788D-09  0.22943190D-09  0.25812636D-09  0.21749098D-09  0.12166140D-09
  0.30281275D-10 -0.13888452D-10 -0.16667710D-03 -0.21884805D-03 -0.24621881D-03
 -0.20745796D-03 -0.11604908D-03 -0.28884379D-04  0.13247768D-04 -0.32896749D-17
 -0.43193632D-17 -0.48595749D-17 -0.40945592D-17 -0.22904390D-17 -0.57008561D-18
  0.26146873D-18  0.28693248D-10 -0.20931372D-04 -0.14983833D-18 -0.90978784D-12
  0.99655135D-05 -0.38321433D-19 -0.31090222D-13  0.30240117D-06 -0.33212147D-20
  0.12606550D-11  0.43304645D-12 -0.16937015D-11 -0.18938342D-04 -0.63538088D-19
  0.25017657D-18 -0.96562709D-12  0.11789060D-11 -0.21327888D-12  0.94905909D-05
  0.65600960D-20 -0.24591611D-18 -0.14170148D-12  0.51500943D-13  0.90200532D-13
 -0.22569616D-05  0.87295810D-20 -0.14166911D-19 -0.12416631D-12 -0.12069535D-05
 -0.61075548D-19 -0.22282200D-11  0.91521475D-05  0.39371526D-19  0.26007190D-11
 -0.55312870D-05  0.14385512D-18 -0.40600124D-18  0.59152535D-13 -0.31226646D-06
  0.96090002D-20 -0.51781842D-13  0.27866049D-05 -0.42804316D-20 -0.12567576D-12
 -0.18498055D-05 -0.24546569D-19 -0.62473872D-20 -0.41328739D+00 -0.77261676D+00
 -0.13353230D+01 -0.21598250D+01 -0.32644490D+01 -0.44956820D+01 -0.52544100D+01
 -0.45402066D+01 -0.21175685D+01 -0.28752006D+00 -0.76990788D-03 -0.15102410D-02
 -0.68948810D-04  0.59292476D-05  0.11073122D-04  0.19208044D-04  0.31145179D-04
  0.47951549D-04  0.68293777D-04  0.87816932D-04  0.92181647D-04  0.65178957D-04
 -0.14434153D-05 -0.46831923D-04 -0.25786928D-04  0.10905248D-06 -0.44184593D-05
 -0.82454988D-05 -0.14321444D-04 -0.23197562D-04 -0.35833445D-04 -0.51085960D-04
 -0.66446146D-04 -0.70813681D-04 -0.52521034D-04  0.16347848D-05  0.47581321D-04
  0.46613272D-04 -0.21771163D-04  0.27612034D-03 -0.12870057D-04 -0.13618997D-05
 -0.31466553D-10 -0.41282404D-10 -0.45280505D-10 -0.37257517D-10 -0.19642900D-10
 -0.51101542D-11  0.56549066D-14  0.13418388D-02  0.17604195D-02  0.19309118D-02
  0.15887849D-02  0.83763880D-03  0.21791402D-03 -0.24114409D-06  0.10597742D-17
  0.13903660D-17  0.15250196D-17  0.12548103D-17  0.66156080D-18  0.17210685D-18
 -0.19045378D-21  0.27351155D-10  0.35912233D-10  0.40403684D-10  0.34043158D-10
  0.19043266D-10  0.47398300D-11 -0.21739144D-11 -0.55007099D-03 -0.72224656D-03
 -0.81257608D-03 -0.68465678D-03 -0.38298740D-03 -0.95324785D-04  0.43720540D-04
 -0.11192802D-16 -0.14696217D-16 -0.16534235D-16 -0.13931343D-16 -0.77929978D-17
 -0.19396613D-17  0.88962213D-18  0.34189801D-11 -0.86887804D-04  0.12288195D-17
 -0.16875097D-11 -0.19930239D-05  0.15570657D-18 -0.55696399D-13 -0.17374837D-06
  0.89268086D-20 -0.21731248D-05 -0.22401291D-05  0.44132539D-05  0.31205171D-11
 -0.80560699D-18 -0.81971391D-19 -0.34839452D-05  0.89069048D-06  0.25932548D-05
 -0.15942779D-11  0.21605826D-17  0.52742732D-18 -0.47566447D-06  0.99392881D-06