 Molden2AIM, Version 4.0.0 (06/02/2016)           Time: Wed Jun 27 23:59:51 2018
GAUSSIAN             18 MOL ORBITALS    317 PRIMITIVES        3 NUCLEI
  Se   1    (CENTRE  1)   0.00000000  0.00000000  0.78221622  CHARGE = 34.0
  H    2    (CENTRE  2)   0.00000000  1.98715284 -1.16693612  CHARGE =  1.0
  H    3    (CENTRE  3)   0.00000000 -1.98715284 -1.16693612  CHARGE =  1.0
CENTRE ASSIGNMENTS    1  1  1  1  1  1  1  1  1  1  1  1  1  1  1  1  1  1  1  1
CENTRE ASSIGNMENTS    1  1  1  1  1  1  1  1  1  1  1  1  1  1  1  1  1  1  1  1
CENTRE ASSIGNMENTS    1  1  1  1  1  1  1  1  1  1  1  1  1  1  1  1  1  1  1  1
CENTRE ASSIGNMENTS    1  1  1  1  1  1  1  1  1  1  1  1  1  1  1  1  1  1  1  1
CENTRE ASSIGNMENTS    1  1  1  1  1  1  1  1  1  1  1  1  1  1  1  1  1  1  1  1
CENTRE ASSIGNMENTS    1  1  1  1  1  1  1  1  1  1  1  1  1  1  1  1  1  1  1  1
CENTRE ASSIGNMENTS    1  1  1  1  1  1  1  1  1  1  1  1  1  1  1  1  1  1  1  1
CENTRE ASSIGNMENTS    1  1  1  1  1  1  1  1  1  1  1  1  1  1  1  1  1  1  1  1
CENTRE ASSIGNMENTS    1  1  1  1  1  1  1  1  1  1  1  1  1  1  1  1  1  1  1  1
CENTRE ASSIGNMENTS    1  1  1  1  1  1  1  1  1  1  1  1  1  1  1  1  1  1  1  1
CENTRE ASSIGNMENTS    1  1  1  1  1  1  1  1  1  1  1  1  1  1  1  1  1  1  1  1
CENTRE ASSIGNMENTS    1  1  1  1  1  1  1  1  1  1  1  1  1  1  1  1  1  1  1  1
CENTRE ASSIGNMENTS    1  1  1  1  1  1  1  1  1  1  1  1  1  1  1  1  1  1  1  1
CENTRE ASSIGNMENTS    1  1  1  2  2  2  2  2  2  2  2  2  2  2  2  2  2  2  2  2
CENTRE ASSIGNMENTS    2  2  2  2  2  2  2  2  2  2  3  3  3  3  3  3  3  3  3  3
CENTRE ASSIGNMENTS    3  3  3  3  3  3  3  3  3  3  3  3  3  3  3  3  3
TYPE ASSIGNMENTS      1  1  1  1  1  1  1  1  1  1  1  1  1  1  1  1  1  1  1  1
TYPE ASSIGNMENTS      1  1  1  1  1  1  1  1  1  1  1  1  1  1  1  1  1  1  1  1
TYPE ASSIGNMENTS      1  1  1  1  1  1  1  1  1  1  1  1  1  1  1  1  1  1  1  1
TYPE ASSIGNMENTS      1  1  1  1  1  1  1  1  1  1  1  1  1  1  1  2  2  2  2  2
TYPE ASSIGNMENTS      2  2  2  2  2  2  3  3  3  3  3  3  3  3  3  3  3  4  4  4
TYPE ASSIGNMENTS      4  4  4  4  4  4  4  4  2  2  2  2  2  2  2  2  2  2  2  3
TYPE ASSIGNMENTS      3  3  3  3  3  3  3  3  3  3  4  4  4  4  4  4  4  4  4  4
TYPE ASSIGNMENTS      4  2  2  2  2  2  2  2  2  2  2  2  3  3  3  3  3  3  3  3
TYPE ASSIGNMENTS      3  3  3  4  4  4  4  4  4  4  4  4  4  4  2  3  4  2  3  4
TYPE ASSIGNMENTS      2  3  4  5  5  5  5  5  5  5  6  6  6  6  6  6  6  7  7  7
TYPE ASSIGNMENTS      7  7  7  7  8  8  8  8  8  8  8  9  9  9  9  9  9  9 10 10
TYPE ASSIGNMENTS     10 10 10 10 10  5  6  7  8  9 10  5  6  7  8  9 10  5  6  7
TYPE ASSIGNMENTS      8  9 10 11 12 13 17 14 15 18 19 16 20 11 12 13 17 14 15 18
TYPE ASSIGNMENTS     19 16 20  1  1  1  1  1  1  2  3  4  2  3  4  2  3  4  5  6
TYPE ASSIGNMENTS      7  8  9 10  5  6  7  8  9 10  1  1  1  1  1  1  2  3  4  2
TYPE ASSIGNMENTS      3  4  2  3  4  5  6  7  8  9 10  5  6  7  8  9 10
EXPONENTS  0.9563600D+07 0.1432100D+07 0.3259100D+06 0.9231200D+05 0.3011600D+05
EXPONENTS  0.1087200D+05 0.4240100D+04 0.1758400D+04 0.7665900D+03 0.3484300D+03
EXPONENTS  0.1640300D+03 0.7914200D+02 0.3552400D+02 0.1730500D+02 0.8378400D+01
EXPONENTS  0.3740500D+01 0.1689000D+01 0.2552000D+00 0.9563600D+07 0.1432100D+07
EXPONENTS  0.3259100D+06 0.9231200D+05 0.3011600D+05 0.1087200D+05 0.4240100D+04
EXPONENTS  0.1758400D+04 0.7665900D+03 0.3484300D+03 0.1640300D+03 0.7914200D+02
EXPONENTS  0.3552400D+02 0.1730500D+02 0.8378400D+01 0.3740500D+01 0.1689000D+01
EXPONENTS  0.2552000D+00 0.9563600D+07 0.1432100D+07 0.3259100D+06 0.9231200D+05
EXPONENTS  0.3011600D+05 0.1087200D+05 0.4240100D+04 0.1758400D+04 0.7665900D+03
EXPONENTS  0.3484300D+03 0.1640300D+03 0.7914200D+02 0.3552400D+02 0.1730500D+02
EXPONENTS  0.8378400D+01 0.3740500D+01 0.1689000D+01 0.2552000D+00 0.9563600D+07
EXPONENTS  0.1432100D+07 0.3259100D+06 0.9231200D+05 0.3011600D+05 0.1087200D+05
EXPONENTS  0.4240100D+04 0.1758400D+04 0.7665900D+03 0.3484300D+03 0.1640300D+03
EXPONENTS  0.7914200D+02 0.3552400D+02 0.1730500D+02 0.8378400D+01 0.3740500D+01
EXPONENTS  0.1689000D+01 0.2552000D+00 0.5092700D+00 0.1065100D+00 0.3920100D-01
EXPONENTS  0.8004300D+04 0.1896900D+04 0.6147100D+03 0.2335000D+03 0.9785600D+02
EXPONENTS  0.4351400D+02 0.2006300D+02 0.9112700D+01 0.4106300D+01 0.1794900D+01
EXPONENTS  0.2461500D+00 0.8004300D+04 0.1896900D+04 0.6147100D+03 0.2335000D+03
EXPONENTS  0.9785600D+02 0.4351400D+02 0.2006300D+02 0.9112700D+01 0.4106300D+01
EXPONENTS  0.1794900D+01 0.2461500D+00 0.8004300D+04 0.1896900D+04 0.6147100D+03
EXPONENTS  0.2335000D+03 0.9785600D+02 0.4351400D+02 0.2006300D+02 0.9112700D+01
EXPONENTS  0.4106300D+01 0.1794900D+01 0.2461500D+00 0.8004300D+04 0.1896900D+04
EXPONENTS  0.6147100D+03 0.2335000D+03 0.9785600D+02 0.4351400D+02 0.2006300D+02
EXPONENTS  0.9112700D+01 0.4106300D+01 0.1794900D+01 0.2461500D+00 0.8004300D+04
EXPONENTS  0.1896900D+04 0.6147100D+03 0.2335000D+03 0.9785600D+02 0.4351400D+02
EXPONENTS  0.2006300D+02 0.9112700D+01 0.4106300D+01 0.1794900D+01 0.2461500D+00
EXPONENTS  0.8004300D+04 0.1896900D+04 0.6147100D+03 0.2335000D+03 0.9785600D+02
EXPONENTS  0.4351400D+02 0.2006300D+02 0.9112700D+01 0.4106300D+01 0.1794900D+01
EXPONENTS  0.2461500D+00 0.8004300D+04 0.1896900D+04 0.6147100D+03 0.2335000D+03
EXPONENTS  0.9785600D+02 0.4351400D+02 0.2006300D+02 0.9112700D+01 0.4106300D+01
EXPONENTS  0.1794900D+01 0.2461500D+00 0.8004300D+04 0.1896900D+04 0.6147100D+03
EXPONENTS  0.2335000D+03 0.9785600D+02 0.4351400D+02 0.2006300D+02 0.9112700D+01
EXPONENTS  0.4106300D+01 0.1794900D+01 0.2461500D+00 0.8004300D+04 0.1896900D+04
EXPONENTS  0.6147100D+03 0.2335000D+03 0.9785600D+02 0.4351400D+02 0.2006300D+02
EXPONENTS  0.9112700D+01 0.4106300D+01 0.1794900D+01 0.2461500D+00 0.6243200D+00
EXPONENTS  0.6243200D+00 0.6243200D+00 0.8891700D-01 0.8891700D-01 0.8891700D-01
EXPONENTS  0.3025100D-01 0.3025100D-01 0.3025100D-01 0.3618500D+03 0.1085500D+03
EXPONENTS  0.4143300D+02 0.1757900D+02 0.7862700D+01 0.3518000D+01 0.1534800D+01
EXPONENTS  0.3618500D+03 0.1085500D+03 0.4143300D+02 0.1757900D+02 0.7862700D+01
EXPONENTS  0.3518000D+01 0.1534800D+01 0.3618500D+03 0.1085500D+03 0.4143300D+02
EXPONENTS  0.1757900D+02 0.7862700D+01 0.3518000D+01 0.1534800D+01 0.3618500D+03
EXPONENTS  0.1085500D+03 0.4143300D+02 0.1757900D+02 0.7862700D+01 0.3518000D+01
EXPONENTS  0.1534800D+01 0.3618500D+03 0.1085500D+03 0.4143300D+02 0.1757900D+02
EXPONENTS  0.7862700D+01 0.3518000D+01 0.1534800D+01 0.3618500D+03 0.1085500D+03
EXPONENTS  0.4143300D+02 0.1757900D+02 0.7862700D+01 0.3518000D+01 0.1534800D+01
EXPONENTS  0.6081300D+00 0.6081300D+00 0.6081300D+00 0.6081300D+00 0.6081300D+00
EXPONENTS  0.6081300D+00 0.2220000D+00 0.2220000D+00 0.2220000D+00 0.2220000D+00
EXPONENTS  0.2220000D+00 0.2220000D+00 0.8370000D-01 0.8370000D-01 0.8370000D-01
EXPONENTS  0.8370000D-01 0.8370000D-01 0.8370000D-01 0.4620000D+00 0.4620000D+00
EXPONENTS  0.4620000D+00 0.4620000D+00 0.4620000D+00 0.4620000D+00 0.4620000D+00
EXPONENTS  0.4620000D+00 0.4620000D+00 0.4620000D+00 0.1880000D+00 0.1880000D+00
EXPONENTS  0.1880000D+00 0.1880000D+00 0.1880000D+00 0.1880000D+00 0.1880000D+00
EXPONENTS  0.1880000D+00 0.1880000D+00 0.1880000D+00 0.3387000D+02 0.5095000D+01
EXPONENTS  0.1159000D+01 0.3258000D+00 0.1027000D+00 0.2526000D-01 0.1407000D+01
EXPONENTS  0.1407000D+01 0.1407000D+01 0.3880000D+00 0.3880000D+00 0.3880000D+00
EXPONENTS  0.1020000D+00 0.1020000D+00 0.1020000D+00 0.1057000D+01 0.1057000D+01
EXPONENTS  0.1057000D+01 0.1057000D+01 0.1057000D+01 0.1057000D+01 0.2470000D+00
EXPONENTS  0.2470000D+00 0.2470000D+00 0.2470000D+00 0.2470000D+00 0.2470000D+00
EXPONENTS  0.3387000D+02 0.5095000D+01 0.1159000D+01 0.3258000D+00 0.1027000D+00
EXPONENTS  0.2526000D-01 0.1407000D+01 0.1407000D+01 0.1407000D+01 0.3880000D+00
EXPONENTS  0.3880000D+00 0.3880000D+00 0.1020000D+00 0.1020000D+00 0.1020000D+00
EXPONENTS  0.1057000D+01 0.1057000D+01 0.1057000D+01 0.1057000D+01 0.1057000D+01
EXPONENTS  0.1057000D+01 0.2470000D+00 0.2470000D+00 0.2470000D+00 0.2470000D+00
EXPONENTS  0.2470000D+00 0.2470000D+00
MO    1     MO 0.0        OCC NO =    2.0000000  ORB. ENERGY = -460.843316
  0.77217653D+00  0.14427758D+01  0.25023140D+01  0.40994295D+01  0.64193811D+01
  0.96401986D+01  0.13749683D+02  0.18166117D+02  0.20949999D+02  0.18855671D+02
  0.10578500D+02  0.25574090D+01  0.12141310D+00 -0.20777431D-02  0.58437960D-03
 -0.22773180D-03  0.21540828D-04  0.21239710D-05 -0.91672066D-07 -0.16881553D-06
 -0.29302136D-06 -0.47991410D-06 -0.75536270D-06 -0.11401200D-05 -0.16619628D-05
 -0.22822241D-05 -0.28983956D-05 -0.31213882D-05 -0.24901848D-05 -0.55778154D-06
  0.14914953D-05  0.13263486D-05  0.25904126D-06  0.71759759D-08  0.51965977D-09
  0.10612874D-10 -0.20946779D-06 -0.37817470D-06 -0.65833013D-06 -0.10780434D-05
 -0.16995968D-05 -0.25646448D-05 -0.37535485D-05 -0.51718966D-05 -0.66627885D-05
 -0.73336350D-05 -0.61737315D-05 -0.14701864D-05  0.49521530D-05  0.66171146D-05
  0.81292605D-06 -0.28404741D-05 -0.12538845D-05  0.62228033D-08  0.59120937D-07
  0.12808485D-06  0.21804768D-06  0.35593086D-06  0.56114027D-06  0.84679219D-06
  0.12393522D-05  0.17096087D-05  0.22052165D-05  0.24379022D-05  0.20647224D-05
  0.50153478D-06 -0.17400302D-05 -0.24558531D-05 -0.29301710D-06  0.13771130D-05
  0.11008026D-05 -0.41703608D-06 -0.42743450D-05 -0.22430299D-05 -0.74779833D-07
 -0.18782552D-16 -0.26919753D-16 -0.35548567D-16 -0.40861286D-16 -0.37589828D-16
 -0.24047243D-16 -0.83236835D-17 -0.93578106D-18 -0.11905416D-19 -0.20630029D-20
 -0.21081644D-22 -0.10571568D-14 -0.15151509D-14 -0.20008149D-14 -0.22998359D-14
 -0.21157052D-14 -0.13534746D-14 -0.46849006D-15 -0.52669485D-16 -0.67008423D-18
 -0.11611402D-18 -0.11865589D-20 -0.25136508D-03 -0.36026446D-03 -0.47574304D-03
 -0.54684264D-03 -0.50306104D-03 -0.32182193D-03 -0.11139505D-03 -0.12523468D-04
 -0.15932903D-06 -0.27608968D-07 -0.28213361D-09  0.50344470D-19  0.72617932D-19
  0.96717690D-19  0.11446183D-18  0.10999352D-18  0.75604477D-19  0.23803673D-19
 -0.11504100D-19 -0.11805992D-19 -0.29731868D-20  0.32416123D-23  0.47818699D-14
  0.68974705D-14  0.91865383D-14  0.10871930D-13  0.10447517D-13  0.71811416D-14
  0.22609448D-14 -0.10926942D-14 -0.11213687D-14 -0.28240226D-15  0.30789812D-18
 -0.11252138D-03 -0.16230322D-03 -0.21616689D-03 -0.25582557D-03 -0.24583876D-03
 -0.16897824D-03 -0.53201912D-04  0.25712004D-04  0.26386740D-04  0.66451603D-05
 -0.72450991D-08  0.72468430D-19  0.10505654D-18  0.13943628D-18  0.16640386D-18
  0.15987461D-18  0.11190370D-18  0.33788329D-19 -0.20683498D-19 -0.22244733D-19
 -0.59823363D-20  0.22300198D-20 -0.35893604D-14 -0.52034491D-14 -0.69062773D-14
 -0.82419812D-14 -0.79185874D-14 -0.55425890D-14 -0.16735355D-14  0.10244534D-14
  0.11017813D-14  0.29630504D-15 -0.11045285D-15  0.46847035D-04  0.67913538D-04
  0.90138236D-04  0.10757136D-03  0.10335054D-03  0.72339870D-04  0.21842381D-04
 -0.13370796D-04 -0.14380052D-04 -0.38672663D-05  0.14415907D-05 -0.61017675D-20
  0.42846853D-16 -0.18855527D-05 -0.15280151D-22 -0.14726367D-15  0.30902739D-06
  0.22137141D-22 -0.20532652D-17  0.15044594D-08 -0.41229284D-04 -0.42676248D-04
 -0.35705819D-04 -0.23040392D-04 -0.10350059D-04 -0.30220498D-05 -0.50983832D-06
  0.33186241D-04  0.34350931D-04  0.28740299D-04  0.18545654D-04  0.83309612D-05
  0.24325058D-05  0.41037864D-06  0.80430422D-05  0.83253173D-05  0.69655202D-05
  0.44947385D-05  0.20190980D-05  0.58954393D-06  0.99459675D-07  0.20465750D-16
  0.21184007D-16  0.17723965D-16  0.11436990D-16  0.51376523D-17  0.15001113D-17
  0.25307798D-18 -0.21326549D-17 -0.22075016D-17 -0.18469443D-17 -0.11918036D-17
 -0.53537445D-18 -0.15632067D-18 -0.26372256D-19 -0.19410288D-15 -0.20091503D-15
 -0.16809902D-15 -0.10847160D-15 -0.48726927D-16 -0.14227474D-16 -0.24002621D-17
  0.44288396D-06 -0.35759959D-06 -0.85284371D-07 -0.89716894D-19  0.68489994D-20
  0.13580809D-16  0.17033015D-06 -0.24882835D-08 -0.16784187D-06  0.10129205D-19
 -0.10089961D-20  0.80565508D-16  0.14528967D-07 -0.62302384D-08 -0.82987286D-08
 -0.46487812D-21 -0.47090279D-23  0.25802862D-16  0.66198079D-21  0.32531932D-17
 -0.12532808D-07 -0.11560608D-20  0.66596433D-17 -0.22990187D-06 -0.82988155D-21
 -0.16419223D-16  0.26750030D-06  0.69915737D-20 -0.84576223D-22  0.47886560D-18
  0.51084527D-08  0.12296262D-21  0.80396821D-17 -0.29729726D-07  0.13076605D-21
 -0.94762789D-17  0.14404368D-07 -0.10561419D-20 -0.66987921D-07 -0.12081547D-06
 -0.17814235D-06  0.82104428D-06  0.92698456D-06  0.11868631D-07  0.43450696D-20
  0.23683966D-06  0.12745035D-09 -0.28236958D-20 -0.74113281D-06  0.45146497D-06
 -0.52379873D-21 -0.16289316D-06  0.13237282D-06 -0.26442594D-06  0.14133757D-06
  0.12308837D-06 -0.12844943D-19  0.14833945D-19 -0.58694865D-06 -0.36081361D-07
  0.57990396D-07 -0.21909034D-07  0.43349242D-21 -0.11753289D-20 -0.95241892D-07
 -0.66987921D-07 -0.12081547D-06 -0.17814235D-06  0.82104428D-06  0.92698456D-06
  0.11868631D-07 -0.27057122D-20 -0.23683966D-06  0.12745044D-09  0.14975424D-20
  0.74113281D-06  0.45146497D-06  0.18439993D-21  0.16289316D-06  0.13237282D-06
 -0.26442594D-06  0.14133757D-06  0.12308837D-06 -0.96039060D-20 -0.11569782D-19
  0.58694865D-06 -0.36081361D-07  0.57990396D-07 -0.21909034D-07 -0.11484174D-21
  0.76063164D-21  0.95241892D-07
MO    2     MO 0.0        OCC NO =    2.0000000  ORB. ENERGY =  -60.645414
  0.30212684D-05  0.56450991D-05  0.97907173D-05  0.16039696D-04  0.25116890D-04
  0.37718871D-04  0.53797910D-04  0.71077938D-04  0.81970335D-04  0.73775930D-04
  0.41390131D-04  0.10006286D-04  0.47504884D-06 -0.81295136D-08  0.22864818D-08
 -0.89103833D-09  0.84282053D-10  0.83103879D-11 -0.24514320D+00 -0.45143501D+00
 -0.78357776D+00 -0.12833536D+01 -0.20199395D+01 -0.30488312D+01 -0.44443078D+01
 -0.61029683D+01 -0.77506920D+01 -0.83470036D+01 -0.66590826D+01 -0.14915814D+01
  0.39884551D+01  0.35468311D+01  0.69271050D+00  0.19189506D-01  0.13896388D-02
  0.28380226D-04  0.12712679D-04  0.22951565D-04  0.39954305D-04  0.65426861D-04
  0.10314917D-03  0.15564926D-03  0.22780428D-03  0.31388436D-03  0.40436716D-03
  0.44508109D-03  0.37468610D-03  0.89226168D-04 -0.30054804D-03 -0.40159519D-03
 -0.49336790D-04  0.17238945D-03  0.76098726D-04 -0.37766429D-06 -0.38854035D-05
 -0.84176836D-05 -0.14330004D-04 -0.23391629D-04 -0.36877906D-04 -0.55650833D-04
 -0.81449716D-04 -0.11235478D-03 -0.14492592D-03 -0.16021792D-03 -0.13569270D-03
 -0.32960658D-04  0.11435407D-03  0.16139765D-03  0.19256962D-04 -0.90503294D-04
 -0.72344290D-04  0.27407439D-04 -0.11970690D-03 -0.23160302D-04 -0.23341206D-06
 -0.10009057D-13 -0.14345300D-13 -0.18943520D-13 -0.21774621D-13 -0.20031290D-13
 -0.12814565D-13 -0.44356180D-14 -0.49866952D-15 -0.63442918D-17 -0.10993561D-17
 -0.11234223D-19  0.23486510D-13  0.33661616D-13  0.44451456D-13  0.51094707D-13
  0.47003937D-13  0.30069706D-13  0.10408292D-13  0.11701409D-14  0.14887044D-16
  0.25796674D-17  0.26361394D-19 -0.42269851D-01 -0.60582499D-01 -0.80001515D-01
 -0.91957708D-01 -0.84595343D-01 -0.54117959D-01 -0.18732324D-01 -0.21059612D-02
 -0.26792960D-04 -0.46427569D-05 -0.47443923D-07  0.12672333D-15  0.18278841D-15
  0.24345052D-15  0.28811473D-15  0.27686744D-15  0.19030592D-15  0.59916822D-16
 -0.28957259D-16 -0.29717157D-16 -0.74838830D-17  0.81595434D-20 -0.84520743D-13
 -0.12191451D-12 -0.16237436D-12 -0.19216408D-12 -0.18466246D-12 -0.12692847D-12
 -0.39962763D-13  0.19313643D-13  0.19820472D-13  0.49915305D-14 -0.54421762D-17
  0.19057493D-02  0.27488931D-02  0.36611700D-02  0.43328600D-02  0.41637158D-02
  0.28619464D-02  0.90106881D-03 -0.43547842D-03 -0.44690627D-03 -0.11254758D-03
  0.12270861D-06 -0.36712583D-16 -0.53221754D-16 -0.70638567D-16 -0.84300372D-16
 -0.80992645D-16 -0.56690534D-16 -0.17117203D-16  0.10478282D-16  0.11269205D-16
  0.30306578D-17 -0.11297304D-17  0.63974151D-13  0.92742494D-13  0.12309247D-12
  0.14689908D-12  0.14113514D-12  0.98787078D-13  0.29827880D-13 -0.18259113D-13
 -0.19637350D-13 -0.52811256D-14  0.19686314D-14 -0.46805977D-03 -0.67854016D-03
 -0.90059237D-03 -0.10747708D-02 -0.10325996D-02 -0.72276469D-03 -0.21823238D-03
  0.13359077D-03  0.14367449D-03  0.38638769D-04 -0.14403273D-04  0.34175038D-17
 -0.62747777D-15  0.37690218D-04  0.63510144D-19  0.19540785D-14  0.43529128D-05
 -0.92869213D-20  0.13683725D-16 -0.67897917D-07 -0.22937251D-02 -0.23742246D-02
 -0.19864360D-02 -0.12818153D-02 -0.57580895D-03 -0.16812689D-03 -0.28364038D-04
  0.19117658D-02  0.19788603D-02  0.16556475D-02  0.10683628D-02  0.47992318D-03
  0.14012980D-03  0.23640756D-04  0.38195932D-03  0.39536439D-03  0.33078844D-03
  0.21345247D-03  0.95885769D-04  0.27997093D-04  0.47232811D-05  0.67645139D-15
  0.70019183D-15  0.58582757D-15  0.37802514D-15  0.16981406D-15  0.49582957D-16
  0.83649487D-17 -0.56314735D-15 -0.58291132D-15 -0.48770280D-15 -0.31470680D-15
 -0.14137060D-15 -0.41277926D-16 -0.69638391D-17  0.93443274D-14  0.96722718D-14
  0.80924730D-14  0.52219431D-14  0.23457682D-14  0.68492635D-15  0.11555127D-15
  0.59099886D-05 -0.36712518D-05 -0.22387368D-05 -0.31701933D-17  0.19765586D-17
 -0.59061158D-15 -0.23006133D-05  0.14491745D-06  0.21556959D-05  0.36573967D-18
  0.10390897D-20 -0.12460149D-14  0.29363646D-06 -0.44197054D-07 -0.24943941D-06
 -0.18018793D-19  0.17978691D-19 -0.30849811D-15  0.87380100D-19 -0.66459232D-16
 -0.92311942D-06 -0.12271731D-18 -0.22607368D-15  0.37763393D-07 -0.13942299D-18
  0.42545138D-15  0.27315949D-05  0.28712139D-18  0.73559161D-20  0.57533422D-18
 -0.20449252D-07 -0.12486376D-19 -0.10047031D-15  0.34415766D-06 -0.95813718D-20
  0.98744310D-16 -0.28280991D-06 -0.38053645D-19 -0.61210113D-06 -0.11039496D-05
 -0.16277730D-05 -0.82674647D-05  0.86918459D-05 -0.41239273D-07 -0.98010374D-19
 -0.17016653D-05 -0.11986544D-05  0.20863150D-18  0.43596686D-05 -0.16529313D-06
  0.31995059D-19 -0.11661330D-05  0.82859479D-06 -0.44087691D-05  0.87807489D-06
  0.35306942D-05 -0.54754646D-18  0.61104967D-18 -0.13666109D-04  0.13257004D-06
 -0.66129425D-06  0.52872421D-06 -0.11659210D-18  0.93023253D-19 -0.30325774D-06
 -0.61210113D-06 -0.11039496D-05 -0.16277730D-05 -0.82674647D-05  0.86918459D-05
 -0.41239273D-07 -0.37619974D-18  0.17016653D-05 -0.11986544D-05  0.36048082D-18
 -0.43596686D-05 -0.16529313D-06  0.54958261D-19  0.11661330D-05  0.82859479D-06
 -0.44087691D-05  0.87807489D-06  0.35306942D-05 -0.23257946D-18 -0.36666354D-18
  0.13666109D-04  0.13257004D-06 -0.66129425D-06  0.52872421D-06  0.12686888D-18
  0.16180791D-18  0.30325775D-06
MO    3     MO 0.0        OCC NO =    2.0000000  ORB. ENERGY =  -54.246365
 -0.10641683D-16 -0.19883489D-16 -0.34485421D-16 -0.56495929D-16 -0.88468138D-16
 -0.13285555D-15 -0.18949006D-15 -0.25035475D-15 -0.28872057D-15 -0.25985778D-15
 -0.14578667D-15 -0.35244708D-16 -0.16732440D-17  0.28634235D-19 -0.80535763D-20
  0.31384659D-20 -0.29686304D-21 -0.29271321D-22 -0.10834652D-15 -0.19952181D-15
 -0.34631973D-15 -0.56720685D-15 -0.89275748D-15 -0.13474992D-14 -0.19642613D-14
 -0.26973435D-14 -0.34255918D-14 -0.36891451D-14 -0.29431306D-14 -0.65923779D-15
  0.17627870D-14  0.15676014D-14  0.30615891D-15  0.84812317D-17  0.61418196D-18
  0.12543276D-19 -0.41065324D-16 -0.74139640D-16 -0.12906300D-15 -0.21134610D-15
 -0.33319917D-15 -0.50278838D-15 -0.73586820D-15 -0.10139297D-14 -0.13062131D-14
 -0.14377299D-14 -0.12103354D-14 -0.28822418D-15  0.97084984D-15  0.12972589D-14
  0.15937091D-15 -0.55686361D-15 -0.24581906D-15  0.12199558D-17  0.16434919D-16
  0.35606070D-16  0.60614669D-16  0.98944556D-16  0.15599034D-15  0.23539818D-15
  0.34452522D-15  0.47525095D-15  0.61302403D-15  0.67770788D-15  0.57396833D-15
  0.13942072D-15 -0.48370776D-15 -0.68269803D-15 -0.81455277D-16  0.38282107D-15
  0.30601006D-15 -0.11593108D-15  0.14979778D-15 -0.43133982D-15 -0.11307477D-16
  0.36858502D-09  0.52826782D-09  0.69759793D-09  0.80185365D-09  0.73765523D-09
  0.47189826D-09  0.16334229D-09  0.18363579D-10  0.23362949D-12  0.40483953D-13
  0.41370195D-15  0.48617568D+02  0.69680250D+02  0.92015443D+02  0.10576711D+03
  0.97299132D+02  0.62244921D+02  0.21545381D+02  0.24222160D+01  0.30816492D-01
  0.53399656D-02  0.54568637D-04  0.38098826D-10  0.54604453D-10  0.72107275D-10
  0.82883678D-10  0.76247802D-10  0.48777808D-10  0.16883891D-10  0.18981531D-11
  0.24149134D-13  0.41846276D-14  0.42762341D-16  0.45766534D-15  0.66014619D-15
  0.87922931D-15  0.10405355D-14  0.99991558D-15  0.68729590D-15  0.21639151D-15
 -0.10458006D-15 -0.10732446D-15 -0.27028282D-16  0.29468451D-19 -0.23586428D-02
 -0.34021564D-02 -0.45312322D-02 -0.53625466D-02 -0.51532059D-02 -0.35420763D-02
 -0.11152042D-02  0.53896810D-03  0.55311173D-03  0.13929406D-03 -0.15186982D-06
 -0.10687396D-13 -0.15415726D-13 -0.20531753D-13 -0.24298574D-13 -0.23350017D-13
 -0.16049726D-13 -0.50531721D-14  0.24421525D-14  0.25062396D-14  0.63116414D-15
 -0.68814694D-18  0.34582387D-14  0.50133637D-14  0.66539864D-14  0.79408962D-14
  0.76293161D-14  0.53401146D-14  0.16124002D-14 -0.98702944D-15 -0.10615325D-14
 -0.28548082D-15  0.10641794D-15  0.97666880D-03  0.14158641D-02  0.18792054D-02
  0.22426519D-02  0.21546561D-02  0.15081444D-02  0.45537080D-03 -0.27875486D-03
 -0.29979588D-03 -0.80624917D-04  0.30054339D-04  0.96846492D-14  0.14039710D-13
  0.18634204D-13  0.22238139D-13  0.21365573D-13  0.14954762D-13  0.45154575D-14
 -0.27641336D-14 -0.29727763D-14 -0.79947680D-15  0.29801887D-15 -0.26460954D-14
 -0.43409575D-03 -0.24179973D-15 -0.36290978D-16  0.77720319D-05  0.58882704D-16
  0.36380564D-17  0.79240424D-06 -0.50864448D-18 -0.14673955D-13 -0.15188946D-13
 -0.12708093D-13 -0.82003289D-14 -0.36836999D-14 -0.10755807D-14 -0.18145706D-15
  0.57306209D-15  0.59317402D-15  0.49628927D-15  0.32024751D-15  0.14385956D-15
  0.42004663D-16  0.70864441D-17  0.14100893D-13  0.14595772D-13  0.12211804D-13
  0.78800814D-14  0.35398403D-14  0.10335761D-14  0.17437062D-15 -0.17112236D-14
 -0.17712799D-14 -0.14819719D-14 -0.95629271D-15 -0.42957976D-15 -0.12543034D-15
 -0.21160867D-16 -0.62283163D-13 -0.64469025D-13 -0.53939122D-13 -0.34806050D-13
 -0.15635354D-13 -0.45652702D-14 -0.77018906D-15 -0.85163533D-02 -0.88152395D-02
 -0.73754221D-02 -0.47592416D-02 -0.21379164D-02 -0.62423698D-03 -0.10531261D-03
  0.20737154D-15 -0.16613838D-15 -0.41233162D-16  0.56323445D-17  0.22167732D-15
  0.11176210D-03  0.20946703D-16  0.35364628D-16 -0.56311331D-16 -0.27397038D-18
 -0.88805387D-16 -0.30706424D-04  0.57924379D-17 -0.43654260D-17 -0.14270119D-17
  0.56993246D-19  0.49201675D-18 -0.24972028D-05 -0.11969332D-16  0.29280609D-05
  0.12390964D-16  0.21221102D-16  0.45330279D-05 -0.76186448D-16  0.14686895D-16
 -0.13317211D-04  0.39013556D-16 -0.88002322D-18 -0.37232603D-17 -0.73400527D-06
  0.37540251D-17  0.41925707D-17 -0.30330988D-05 -0.69719353D-17  0.69772103D-17
  0.52351146D-05 -0.42901400D-17 -0.17821759D-19 -0.20369671D-05 -0.36737541D-05
 -0.54169482D-05 -0.29774896D-04 -0.20347411D-04 -0.20949594D-05  0.95212743D-16
 -0.77098684D-05  0.17088808D-04 -0.97968994D-16 -0.69424931D-05 -0.91041233D-06
 -0.10858094D-16  0.53964319D-06 -0.25706381D-05 -0.26794473D-04  0.98476964D-05
  0.16946776D-04 -0.11337098D-15  0.11555603D-15 -0.84249432D-04 -0.35683949D-05
  0.44684601D-05 -0.90006522D-06  0.41302980D-16 -0.34502727D-16 -0.38443404D-05
  0.20369671D-05  0.36737541D-05  0.54169482D-05  0.29774896D-04  0.20347411D-04
  0.20949594D-05  0.95741266D-16 -0.77098684D-05 -0.17088808D-04 -0.97570531D-16
 -0.69424931D-05  0.91041233D-06 -0.10648001D-16  0.53964319D-06  0.25706381D-05
  0.26794473D-04 -0.98476964D-05 -0.16946776D-04  0.11502899D-15  0.11702513D-15
 -0.84249432D-04  0.35683949D-05 -0.44684601D-05  0.90006522D-06 -0.40913457D-16
 -0.34038346D-16 -0.38443404D-05
MO    4     MO 0.0        OCC NO =    2.0000000  ORB. ENERGY =  -54.245855
  0.41067323D-05  0.76732379D-05  0.13308270D-04  0.21802346D-04  0.34140742D-04
  0.51270291D-04  0.73126115D-04  0.96614412D-04  0.11142017D-03  0.10028172D-03
  0.56260540D-04  0.13601287D-04  0.64572166D-06 -0.11050239D-07  0.31079559D-08
 -0.12111655D-08  0.11456243D-09  0.11296096D-10 -0.21164505D-03 -0.38974766D-03
 -0.67650402D-03 -0.11079869D-02 -0.17439203D-02 -0.26322168D-02 -0.38370054D-02
 -0.52690145D-02 -0.66915813D-02 -0.72064086D-02 -0.57491374D-02 -0.12877609D-02
  0.34434437D-02  0.30621664D-02  0.59805352D-03  0.16567313D-04  0.11997485D-05
  0.24502146D-07 -0.36090340D-05 -0.65157767D-05 -0.11342727D-04 -0.18574193D-04
 -0.29283274D-04 -0.44187654D-04 -0.64671920D-04 -0.89109408D-04 -0.11479679D-03
 -0.12635517D-03 -0.10637056D-03 -0.25330638D-04  0.85323327D-04  0.11400985D-03
  0.14006343D-04 -0.48940067D-04 -0.21603856D-04  0.10721605D-06 -0.22042991D-05
 -0.47755894D-05 -0.81298153D-05 -0.13270731D-04 -0.20921877D-04 -0.31572287D-04
 -0.46208722D-04 -0.63742035D-04 -0.82220562D-04 -0.90896147D-04 -0.76982297D-04
 -0.18699511D-04  0.64876288D-04  0.91565440D-04  0.10925018D-04 -0.51345072D-04
 -0.41042956D-04  0.15549013D-04  0.39868321D-04 -0.28647875D-04 -0.10640013D-05
 -0.30589969D-11 -0.43842520D-11 -0.57895730D-11 -0.66548223D-11 -0.61220205D-11
 -0.39164242D-11 -0.13556263D-11 -0.15240482D-12 -0.19389607D-14 -0.33598839D-15
 -0.34334357D-17 -0.38100930D-10 -0.54607469D-10 -0.72111258D-10 -0.82888255D-10
 -0.76252014D-10 -0.48780502D-10 -0.16884824D-10 -0.18982579D-11 -0.24150468D-13
 -0.41848588D-14 -0.42764702D-16  0.48617431D+02  0.69680053D+02  0.92015184D+02
  0.10576681D+03  0.97298858D+02  0.62244745D+02  0.21545321D+02  0.24222092D+01
  0.30816405D-01  0.53399505D-02  0.54568483D-04  0.70252817D-16  0.10133415D-15
  0.13496398D-15  0.15972491D-15  0.15348964D-15  0.10550171D-15  0.33216659D-16
 -0.16053311D-16 -0.16474583D-16 -0.41489115D-17  0.45234838D-20  0.11950507D-13
  0.17237665D-13  0.22958339D-13  0.27170350D-13  0.26109686D-13  0.17946595D-13
  0.56503913D-14 -0.27307831D-14 -0.28024445D-14 -0.70575953D-15  0.76947696D-18
 -0.15445030D-02 -0.22278239D-02 -0.29671732D-02 -0.35115404D-02 -0.33744584D-02
 -0.23194473D-02 -0.73026580D-03  0.35293087D-03  0.36219250D-03  0.91213514D-04
 -0.99448458D-07 -0.32845717D-16 -0.47616009D-16 -0.63198343D-16 -0.75421176D-16
 -0.72461845D-16 -0.50719429D-16 -0.15314281D-16  0.93746246D-17  0.10082241D-16
  0.27114445D-17 -0.10107381D-17 -0.83270548D-14 -0.12071623D-13 -0.16022060D-13
 -0.19120796D-13 -0.18370546D-13 -0.12858403D-13 -0.38824805D-14  0.23766573D-14
  0.25560525D-14  0.68740611D-15 -0.25624258D-15  0.79829379D-03  0.11572761D-02
  0.15359946D-02  0.18330626D-02  0.17611380D-02  0.12327027D-02  0.37220364D-03
 -0.22784415D-03 -0.24504232D-03 -0.65899895D-04  0.24565331D-04  0.23302883D-16
  0.43748948D-15 -0.40886899D-03  0.35341193D-18 -0.11725557D-15  0.39757591D-07
 -0.33538572D-19 -0.16161926D-17  0.31464650D-06  0.27588481D-02  0.28556715D-02
  0.23892468D-02  0.15417426D-02  0.69257186D-03  0.20221977D-03  0.34115715D-04
  0.28236459D-02  0.29227433D-02  0.24453636D-02  0.15779539D-02  0.70883847D-03
  0.20696936D-03  0.34917000D-04 -0.55824941D-02 -0.57784148D-02 -0.48346104D-02
 -0.31196965D-02 -0.14014103D-02 -0.40918914D-03 -0.69032715D-04  0.72030893D-16
  0.74558858D-16  0.62380954D-16  0.40253429D-16  0.18082391D-16  0.52797654D-17
  0.89072878D-18 -0.10924767D-14 -0.11308178D-14 -0.94611819D-15 -0.61051490D-15
 -0.27425164D-15 -0.80077039D-16 -0.13509487D-16  0.62535419D-14  0.64730134D-14
  0.54157582D-14  0.34947020D-14  0.15698679D-14  0.45837602D-15  0.77330843D-16
 -0.29917152D-04  0.20885081D-06  0.29708301D-04  0.15472298D-17  0.39113809D-17
 -0.47703543D-17  0.69321866D-05  0.40389221D-05 -0.10971109D-04 -0.19026425D-18
  0.12299961D-18  0.17542955D-15  0.17722766D-06 -0.34676069D-06  0.16953302D-06
  0.10848695D-19  0.29655415D-19  0.19493894D-16  0.16357702D-18  0.49062634D-17
  0.28538447D-05 -0.19369109D-18  0.41338778D-16  0.29138135D-05 -0.29703998D-18
 -0.56057568D-16 -0.11475348D-04  0.25411287D-18  0.25729964D-19  0.32648908D-17
  0.22596759D-06 -0.46600302D-19  0.11046779D-16 -0.23733136D-05 -0.30589591D-19
 -0.20841452D-16  0.16954108D-05 -0.14953245D-19  0.10723775D-05  0.19340769D-05
  0.28517953D-05  0.16504088D-04  0.79103793D-05  0.29604451D-06 -0.87472107D-18
  0.20683471D-04 -0.33284881D-05  0.86687957D-18 -0.76116101D-05 -0.12756788D-04
  0.77339679D-19 -0.12618459D-05  0.65907905D-06  0.20483180D-04 -0.15556074D-04
 -0.49271064D-05 -0.59415682D-19 -0.47218402D-18  0.66244137D-04  0.96374973D-06
  0.24713754D-05 -0.34351252D-05 -0.30283744D-18  0.33534010D-18  0.48271390D-05
  0.10723775D-05  0.19340769D-05  0.28517953D-05  0.16504088D-04  0.79103793D-05
  0.29604451D-06 -0.66218748D-18 -0.20683471D-04 -0.33284881D-05  0.68305199D-18
  0.76116101D-05 -0.12756788D-04  0.85189252D-19  0.12618459D-05  0.65907905D-06
  0.20483180D-04 -0.15556074D-04 -0.49271064D-05 -0.24729864D-19 -0.37120039D-18
 -0.66244137D-04  0.96374973D-06  0.24713754D-05 -0.34351252D-05  0.25639196D-18
  0.27913767D-18 -0.48271390D-05
MO    5     MO 0.0        OCC NO =    2.0000000  ORB. ENERGY =  -54.245092
  0.19585786D-16  0.36595128D-16  0.63469666D-16  0.10397953D-15  0.16282368D-15
  0.24451775D-15  0.34875232D-15  0.46077247D-15  0.53138392D-15  0.47826258D-15
  0.26831720D-15  0.64867118D-16  0.30795692D-17 -0.52700685D-19  0.14822432D-19
 -0.57762781D-20  0.54636996D-21  0.53873228D-22 -0.94913364D-16 -0.17478444D-15
 -0.30338187D-15 -0.49688267D-15 -0.78207046D-15 -0.11804318D-14 -0.17207257D-14
 -0.23629179D-14 -0.30008757D-14 -0.32317527D-14 -0.25782316D-14 -0.57750331D-15
  0.15442309D-14  0.13732450D-14  0.26820032D-15  0.74297007D-17  0.53803366D-18
  0.10988119D-19  0.51323164D-16  0.92659220D-16  0.16130206D-15  0.26413893D-15
  0.41643006D-15  0.62838150D-15  0.91968309D-15  0.12672024D-14  0.16324963D-14
  0.17968651D-14  0.15126690D-14  0.36022062D-15 -0.12133616D-14 -0.16213054D-14
 -0.19918068D-15  0.69596436D-15  0.30722299D-15 -0.15246924D-17 -0.22868182D-16
 -0.49543661D-16 -0.84341593D-16 -0.13767528D-15 -0.21705098D-15 -0.32754213D-15