 Molden2AIM, Version 4.0.0 (06/02/2016)           Time: Wed Jun 27 21:02:25 2018
GAUSSIAN             26 MOL ORBITALS    431 PRIMITIVES        5 NUCLEI
  S    1    (CENTRE  1)   0.00000000  0.00000000  0.78486373  CHARGE = 16.0
  F    2    (CENTRE  2)   2.34123272  0.00000000 -1.12729722  CHARGE =  9.0
  F    3    (CENTRE  3)  -2.34123272  0.00000000 -1.12729722  CHARGE =  9.0
  F    4    (CENTRE  4)   0.00000000 -3.18646753  0.56143574  CHARGE =  9.0
  F    5    (CENTRE  5)   0.00000000  3.18646753  0.56143574  CHARGE =  9.0
CENTRE ASSIGNMENTS    1  1  1  1  1  1  1  1  1  1  1  1  1  1  1  1  1  1  1  1
CENTRE ASSIGNMENTS    1  1  1  1  1  1  1  1  1  1  1  1  1  1  1  1  1  1  1  1
CENTRE ASSIGNMENTS    1  1  1  1  1  1  1  1  1  1  1  1  1  1  1  1  1  1  1  1
CENTRE ASSIGNMENTS    1  1  1  1  1  1  1  1  1  1  1  1  1  1  1  1  1  1  1  1
CENTRE ASSIGNMENTS    1  1  1  1  1  1  1  1  1  1  1  1  1  1  1  1  1  1  1  1
CENTRE ASSIGNMENTS    1  1  1  1  1  1  1  1  1  1  1  1  1  1  1  1  1  1  1  1
CENTRE ASSIGNMENTS    1  1  1  1  1  1  1  1  1  1  1  2  2  2  2  2  2  2  2  2
CENTRE ASSIGNMENTS    2  2  2  2  2  2  2  2  2  2  2  2  2  2  2  2  2  2  2  2
CENTRE ASSIGNMENTS    2  2  2  2  2  2  2  2  2  2  2  2  2  2  2  2  2  2  2  2
CENTRE ASSIGNMENTS    2  2  2  2  2  2  2  2  2  2  2  2  2  2  2  2  2  2  2  2
CENTRE ASSIGNMENTS    2  2  2  2  2  2  3  3  3  3  3  3  3  3  3  3  3  3  3  3
CENTRE ASSIGNMENTS    3  3  3  3  3  3  3  3  3  3  3  3  3  3  3  3  3  3  3  3
CENTRE ASSIGNMENTS    3  3  3  3  3  3  3  3  3  3  3  3  3  3  3  3  3  3  3  3
CENTRE ASSIGNMENTS    3  3  3  3  3  3  3  3  3  3  3  3  3  3  3  3  3  3  3  3
CENTRE ASSIGNMENTS    3  4  4  4  4  4  4  4  4  4  4  4  4  4  4  4  4  4  4  4
CENTRE ASSIGNMENTS    4  4  4  4  4  4  4  4  4  4  4  4  4  4  4  4  4  4  4  4
CENTRE ASSIGNMENTS    4  4  4  4  4  4  4  4  4  4  4  4  4  4  4  4  4  4  4  4
CENTRE ASSIGNMENTS    4  4  4  4  4  4  4  4  4  4  4  4  4  4  4  4  5  5  5  5
CENTRE ASSIGNMENTS    5  5  5  5  5  5  5  5  5  5  5  5  5  5  5  5  5  5  5  5
CENTRE ASSIGNMENTS    5  5  5  5  5  5  5  5  5  5  5  5  5  5  5  5  5  5  5  5
CENTRE ASSIGNMENTS    5  5  5  5  5  5  5  5  5  5  5  5  5  5  5  5  5  5  5  5
CENTRE ASSIGNMENTS    5  5  5  5  5  5  5  5  5  5  5
TYPE ASSIGNMENTS      1  1  1  1  1  1  1  1  1  1  1  1  1  1  1  1  1  1  1  1
TYPE ASSIGNMENTS      1  1  1  1  1  1  1  1  1  1  1  1  1  1  1  1  1  1  1  1
TYPE ASSIGNMENTS      1  1  2  2  2  2  2  2  2  3  3  3  3  3  3  3  4  4  4  4
TYPE ASSIGNMENTS      4  4  4  2  2  2  2  2  2  2  3  3  3  3  3  3  3  4  4  4
TYPE ASSIGNMENTS      4  4  4  4  2  3  4  2  3  4  2  3  4  5  6  7  8  9 10  5
TYPE ASSIGNMENTS      6  7  8  9 10  5  6  7  8  9 10 11 12 13 17 14 15 18 19 16
TYPE ASSIGNMENTS     20 11 12 13 17 14 15 18 19 16 20  1  1  1  1  1  1  1  1  1
TYPE ASSIGNMENTS      1  1  1  1  1  1  1  1  1  1  2  2  2  3  3  3  4  4  4  2
TYPE ASSIGNMENTS      3  4  2  3  4  2  3  4  5  6  7  8  9 10  5  6  7  8  9 10
TYPE ASSIGNMENTS      5  6  7  8  9 10 11 12 13 17 14 15 18 19 16 20 11 12 13 17
TYPE ASSIGNMENTS     14 15 18 19 16 20  1  1  1  1  1  1  1  1  1  1  1  1  1  1
TYPE ASSIGNMENTS      1  1  1  1  1  2  2  2  3  3  3  4  4  4  2  3  4  2  3  4
TYPE ASSIGNMENTS      2  3  4  5  6  7  8  9 10  5  6  7  8  9 10  5  6  7  8  9
TYPE ASSIGNMENTS     10 11 12 13 17 14 15 18 19 16 20 11 12 13 17 14 15 18 19 16
TYPE ASSIGNMENTS     20  1  1  1  1  1  1  1  1  1  1  1  1  1  1  1  1  1  1  1
TYPE ASSIGNMENTS      2  2  2  3  3  3  4  4  4  2  3  4  2  3  4  2  3  4  5  6
TYPE ASSIGNMENTS      7  8  9 10  5  6  7  8  9 10  5  6  7  8  9 10 11 12 13 17
TYPE ASSIGNMENTS     14 15 18 19 16 20 11 12 13 17 14 15 18 19 16 20  1  1  1  1
TYPE ASSIGNMENTS      1  1  1  1  1  1  1  1  1  1  1  1  1  1  1  2  2  2  3  3
TYPE ASSIGNMENTS      3  4  4  4  2  3  4  2  3  4  2  3  4  5  6  7  8  9 10  5
TYPE ASSIGNMENTS      6  7  8  9 10  5  6  7  8  9 10 11 12 13 17 14 15 18 19 16
TYPE ASSIGNMENTS     20 11 12 13 17 14 15 18 19 16 20
EXPONENTS  0.3741000D+06 0.5605000D+05 0.1276000D+05 0.3615000D+04 0.1183000D+04
EXPONENTS  0.4288000D+03 0.1678000D+03 0.6947000D+02 0.2984000D+02 0.1272000D+02
EXPONENTS  0.5244000D+01 0.2219000D+01 0.3490000D+00 0.3741000D+06 0.5605000D+05
EXPONENTS  0.1276000D+05 0.3615000D+04 0.1183000D+04 0.4288000D+03 0.1678000D+03
EXPONENTS  0.6947000D+02 0.2984000D+02 0.1272000D+02 0.5244000D+01 0.2219000D+01
EXPONENTS  0.3490000D+00 0.3741000D+06 0.5605000D+05 0.1276000D+05 0.3615000D+04
EXPONENTS  0.1183000D+04 0.4288000D+03 0.1678000D+03 0.6947000D+02 0.2984000D+02
EXPONENTS  0.1272000D+02 0.5244000D+01 0.2219000D+01 0.3490000D+00 0.7767000D+00
EXPONENTS  0.1322000D+00 0.4970000D-01 0.5744000D+03 0.1358000D+03 0.4319000D+02
EXPONENTS  0.1587000D+02 0.6208000D+01 0.2483000D+01 0.3229000D+00 0.5744000D+03
EXPONENTS  0.1358000D+03 0.4319000D+02 0.1587000D+02 0.6208000D+01 0.2483000D+01
EXPONENTS  0.3229000D+00 0.5744000D+03 0.1358000D+03 0.4319000D+02 0.1587000D+02
EXPONENTS  0.6208000D+01 0.2483000D+01 0.3229000D+00 0.5744000D+03 0.1358000D+03
EXPONENTS  0.4319000D+02 0.1587000D+02 0.6208000D+01 0.2483000D+01 0.3229000D+00
EXPONENTS  0.5744000D+03 0.1358000D+03 0.4319000D+02 0.1587000D+02 0.6208000D+01
EXPONENTS  0.2483000D+01 0.3229000D+00 0.5744000D+03 0.1358000D+03 0.4319000D+02
EXPONENTS  0.1587000D+02 0.6208000D+01 0.2483000D+01 0.3229000D+00 0.8688000D+00
EXPONENTS  0.8688000D+00 0.8688000D+00 0.1098000D+00 0.1098000D+00 0.1098000D+00
EXPONENTS  0.3510000D-01 0.3510000D-01 0.3510000D-01 0.2690000D+00 0.2690000D+00
EXPONENTS  0.2690000D+00 0.2690000D+00 0.2690000D+00 0.2690000D+00 0.8190000D+00
EXPONENTS  0.8190000D+00 0.8190000D+00 0.8190000D+00 0.8190000D+00 0.8190000D+00
EXPONENTS  0.1010000D+00 0.1010000D+00 0.1010000D+00 0.1010000D+00 0.1010000D+00
EXPONENTS  0.1010000D+00 0.5570000D+00 0.5570000D+00 0.5570000D+00 0.5570000D+00
EXPONENTS  0.5570000D+00 0.5570000D+00 0.5570000D+00 0.5570000D+00 0.5570000D+00
EXPONENTS  0.5570000D+00 0.2180000D+00 0.2180000D+00 0.2180000D+00 0.2180000D+00
EXPONENTS  0.2180000D+00 0.2180000D+00 0.2180000D+00 0.2180000D+00 0.2180000D+00
EXPONENTS  0.2180000D+00 0.1950000D+05 0.2923000D+04 0.6645000D+03 0.1875000D+03
EXPONENTS  0.6062000D+02 0.2142000D+02 0.7950000D+01 0.8815000D+00 0.1950000D+05
EXPONENTS  0.2923000D+04 0.6645000D+03 0.1875000D+03 0.6062000D+02 0.2142000D+02
EXPONENTS  0.7950000D+01 0.8815000D+00 0.2257000D+01 0.3041000D+00 0.9158000D-01
EXPONENTS  0.4388000D+02 0.9926000D+01 0.2930000D+01 0.4388000D+02 0.9926000D+01
EXPONENTS  0.2930000D+01 0.4388000D+02 0.9926000D+01 0.2930000D+01 0.9132000D+00
EXPONENTS  0.9132000D+00 0.9132000D+00 0.2672000D+00 0.2672000D+00 0.2672000D+00
EXPONENTS  0.7361000D-01 0.7361000D-01 0.7361000D-01 0.3107000D+01 0.3107000D+01
EXPONENTS  0.3107000D+01 0.3107000D+01 0.3107000D+01 0.3107000D+01 0.8550000D+00
EXPONENTS  0.8550000D+00 0.8550000D+00 0.8550000D+00 0.8550000D+00 0.8550000D+00
EXPONENTS  0.2920000D+00 0.2920000D+00 0.2920000D+00 0.2920000D+00 0.2920000D+00
EXPONENTS  0.2920000D+00 0.1917000D+01 0.1917000D+01 0.1917000D+01 0.1917000D+01
EXPONENTS  0.1917000D+01 0.1917000D+01 0.1917000D+01 0.1917000D+01 0.1917000D+01
EXPONENTS  0.1917000D+01 0.7240000D+00 0.7240000D+00 0.7240000D+00 0.7240000D+00
EXPONENTS  0.7240000D+00 0.7240000D+00 0.7240000D+00 0.7240000D+00 0.7240000D+00
EXPONENTS  0.7240000D+00 0.1950000D+05 0.2923000D+04 0.6645000D+03 0.1875000D+03
EXPONENTS  0.6062000D+02 0.2142000D+02 0.7950000D+01 0.8815000D+00 0.1950000D+05
EXPONENTS  0.2923000D+04 0.6645000D+03 0.1875000D+03 0.6062000D+02 0.2142000D+02
EXPONENTS  0.7950000D+01 0.8815000D+00 0.2257000D+01 0.3041000D+00 0.9158000D-01
EXPONENTS  0.4388000D+02 0.9926000D+01 0.2930000D+01 0.4388000D+02 0.9926000D+01
EXPONENTS  0.2930000D+01 0.4388000D+02 0.9926000D+01 0.2930000D+01 0.9132000D+00
EXPONENTS  0.9132000D+00 0.9132000D+00 0.2672000D+00 0.2672000D+00 0.2672000D+00
EXPONENTS  0.7361000D-01 0.7361000D-01 0.7361000D-01 0.3107000D+01 0.3107000D+01
EXPONENTS  0.3107000D+01 0.3107000D+01 0.3107000D+01 0.3107000D+01 0.8550000D+00
EXPONENTS  0.8550000D+00 0.8550000D+00 0.8550000D+00 0.8550000D+00 0.8550000D+00
EXPONENTS  0.2920000D+00 0.2920000D+00 0.2920000D+00 0.2920000D+00 0.2920000D+00
EXPONENTS  0.2920000D+00 0.1917000D+01 0.1917000D+01 0.1917000D+01 0.1917000D+01
EXPONENTS  0.1917000D+01 0.1917000D+01 0.1917000D+01 0.1917000D+01 0.1917000D+01
EXPONENTS  0.1917000D+01 0.7240000D+00 0.7240000D+00 0.7240000D+00 0.7240000D+00
EXPONENTS  0.7240000D+00 0.7240000D+00 0.7240000D+00 0.7240000D+00 0.7240000D+00
EXPONENTS  0.7240000D+00 0.1950000D+05 0.2923000D+04 0.6645000D+03 0.1875000D+03
EXPONENTS  0.6062000D+02 0.2142000D+02 0.7950000D+01 0.8815000D+00 0.1950000D+05
EXPONENTS  0.2923000D+04 0.6645000D+03 0.1875000D+03 0.6062000D+02 0.2142000D+02
EXPONENTS  0.7950000D+01 0.8815000D+00 0.2257000D+01 0.3041000D+00 0.9158000D-01
EXPONENTS  0.4388000D+02 0.9926000D+01 0.2930000D+01 0.4388000D+02 0.9926000D+01
EXPONENTS  0.2930000D+01 0.4388000D+02 0.9926000D+01 0.2930000D+01 0.9132000D+00
EXPONENTS  0.9132000D+00 0.9132000D+00 0.2672000D+00 0.2672000D+00 0.2672000D+00
EXPONENTS  0.7361000D-01 0.7361000D-01 0.7361000D-01 0.3107000D+01 0.3107000D+01
EXPONENTS  0.3107000D+01 0.3107000D+01 0.3107000D+01 0.3107000D+01 0.8550000D+00
EXPONENTS  0.8550000D+00 0.8550000D+00 0.8550000D+00 0.8550000D+00 0.8550000D+00
EXPONENTS  0.2920000D+00 0.2920000D+00 0.2920000D+00 0.2920000D+00 0.2920000D+00
EXPONENTS  0.2920000D+00 0.1917000D+01 0.1917000D+01 0.1917000D+01 0.1917000D+01
EXPONENTS  0.1917000D+01 0.1917000D+01 0.1917000D+01 0.1917000D+01 0.1917000D+01
EXPONENTS  0.1917000D+01 0.7240000D+00 0.7240000D+00 0.7240000D+00 0.7240000D+00
EXPONENTS  0.7240000D+00 0.7240000D+00 0.7240000D+00 0.7240000D+00 0.7240000D+00
EXPONENTS  0.7240000D+00 0.1950000D+05 0.2923000D+04 0.6645000D+03 0.1875000D+03
EXPONENTS  0.6062000D+02 0.2142000D+02 0.7950000D+01 0.8815000D+00 0.1950000D+05
EXPONENTS  0.2923000D+04 0.6645000D+03 0.1875000D+03 0.6062000D+02 0.2142000D+02
EXPONENTS  0.7950000D+01 0.8815000D+00 0.2257000D+01 0.3041000D+00 0.9158000D-01
EXPONENTS  0.4388000D+02 0.9926000D+01 0.2930000D+01 0.4388000D+02 0.9926000D+01
EXPONENTS  0.2930000D+01 0.4388000D+02 0.9926000D+01 0.2930000D+01 0.9132000D+00
EXPONENTS  0.9132000D+00 0.9132000D+00 0.2672000D+00 0.2672000D+00 0.2672000D+00
EXPONENTS  0.7361000D-01 0.7361000D-01 0.7361000D-01 0.3107000D+01 0.3107000D+01
EXPONENTS  0.3107000D+01 0.3107000D+01 0.3107000D+01 0.3107000D+01 0.8550000D+00
EXPONENTS  0.8550000D+00 0.8550000D+00 0.8550000D+00 0.8550000D+00 0.8550000D+00
EXPONENTS  0.2920000D+00 0.2920000D+00 0.2920000D+00 0.2920000D+00 0.2920000D+00
EXPONENTS  0.2920000D+00 0.1917000D+01 0.1917000D+01 0.1917000D+01 0.1917000D+01
EXPONENTS  0.1917000D+01 0.1917000D+01 0.1917000D+01 0.1917000D+01 0.1917000D+01
EXPONENTS  0.1917000D+01 0.7240000D+00 0.7240000D+00 0.7240000D+00 0.7240000D+00
EXPONENTS  0.7240000D+00 0.7240000D+00 0.7240000D+00 0.7240000D+00 0.7240000D+00
EXPONENTS  0.7240000D+00
MO    1     MO 0.0        OCC NO =    2.0000000  ORB. ENERGY =  -92.329371
  0.58445404D+00  0.10926029D+01  0.18883589D+01  0.30543358D+01  0.46164497D+01
  0.63576087D+01  0.74305706D+01  0.64205736D+01  0.29945784D+01  0.40659905D+00
  0.10887721D-02  0.21357207D-02  0.97504573D-04  0.38070250D-04  0.71097814D-04
  0.12333016D-03  0.19997559D-03  0.30788518D-03  0.43849766D-03  0.56385107D-03
  0.59187583D-03  0.41849816D-03 -0.92678169D-05 -0.30069634D-03 -0.16557156D-03
  0.70019933D-06 -0.10481602D-04 -0.19560221D-04 -0.33973762D-04 -0.55029956D-04
 -0.85005177D-04 -0.12118765D-03 -0.15762555D-03 -0.16798635D-03 -0.12459198D-03
  0.38780857D-05  0.11287384D-03  0.11057741D-03 -0.51646208D-04 -0.31638071D-03
  0.59701395D-04  0.74583837D-05  0.16354162D-13  0.21455770D-13  0.23533709D-13
  0.19363909D-13  0.10209036D-13  0.26559086D-14 -0.29390336D-17 -0.13884862D-13
 -0.18216183D-13 -0.19980376D-13 -0.16440170D-13 -0.86675828D-14 -0.22548954D-14
  0.24952716D-17 -0.30071257D-02 -0.39451852D-02 -0.43272668D-02 -0.35605437D-02
 -0.18771891D-02 -0.48835587D-03  0.54041556D-06 -0.14614863D-13 -0.19189404D-13
 -0.21589374D-13 -0.18190680D-13 -0.10175611D-13 -0.25326889D-14  0.11616132D-14
  0.12271818D-13  0.16112972D-13  0.18128180D-13  0.15274362D-13  0.85442641D-14
  0.21266499D-14 -0.97538413D-15  0.10240573D-02  0.13445934D-02  0.15127583D-02
  0.12746132D-02  0.71300076D-03  0.17746444D-03 -0.81393742D-04 -0.81532961D-15
  0.82416478D-15  0.20241375D-03  0.88827926D-15 -0.61656354D-15 -0.14739829D-04
  0.64628458D-17  0.49089195D-17 -0.20046237D-06  0.67220224D-05 -0.12344463D-04
  0.56224403D-05 -0.30352634D-19 -0.10172452D-14  0.51074590D-17 -0.52383680D-06
  0.74267732D-05 -0.69029364D-05 -0.83658570D-19  0.60270494D-16  0.81350872D-16
  0.50196099D-06 -0.54840214D-06  0.46441151D-07 -0.84853373D-20 -0.14444661D-15
 -0.29689434D-17  0.27910443D-17 -0.15391856D-15  0.18069579D-05 -0.22835934D-15
  0.23958215D-15 -0.55086890D-05  0.21998620D-15  0.22217354D-15  0.87815202D-07
  0.78307740D-19 -0.21089701D-16 -0.62963270D-16  0.14879718D-05 -0.32353208D-16
  0.89137849D-16 -0.38643880D-05  0.95622311D-16  0.99751962D-16 -0.59952735D-06
  0.24449683D-19  0.12659618D-04  0.23598076D-04  0.40004541D-04  0.60578665D-04
  0.75753833D-04  0.65216994D-04  0.25071793D-04 -0.10864019D-06 -0.82294904D-05
 -0.15453525D-04 -0.26314689D-04 -0.41221804D-04 -0.55242067D-04 -0.59420291D-04
 -0.35675865D-04  0.23461950D-04 -0.40592269D-05 -0.50875279D-04 -0.16583988D-04
  0.75100376D-06  0.73446527D-06  0.48529226D-06  0.97736384D-17  0.95584049D-17
  0.63156423D-17 -0.88734579D-06 -0.86780480D-06 -0.57339532D-06  0.10870234D-04
 -0.74092376D-18 -0.12054182D-04  0.25740844D-04 -0.35166384D-16 -0.16750371D-04
  0.10379671D-05 -0.25876739D-16 -0.81581561D-06 -0.62696722D-05  0.16713300D-04
 -0.10443628D-04  0.17563873D-15  0.40979498D-04 -0.71270978D-16 -0.37881737D-05
  0.15919868D-05  0.21961869D-05 -0.77151971D-16  0.10330124D-04  0.29697641D-16
 -0.33420110D-05  0.25949462D-05  0.74706485D-06  0.57715845D-16  0.34802766D-05
 -0.24458247D-16 -0.13828009D-04 -0.43934172D-16  0.16228842D-04 -0.23089779D-04
  0.14229992D-15 -0.80397491D-04  0.64573806D-04 -0.10497405D-16  0.31710965D-04
 -0.67246790D-16  0.47829077D-05  0.13440299D-16 -0.37392174D-05  0.65055816D-05
 -0.43014230D-16  0.21092367D-04 -0.20854305D-04  0.26933333D-17 -0.98747153D-05
  0.17593261D-16  0.12659618D-04  0.23598076D-04  0.40004541D-04  0.60578665D-04
  0.75753833D-04  0.65216994D-04  0.25071793D-04 -0.10864019D-06 -0.82294904D-05
 -0.15453525D-04 -0.26314689D-04 -0.41221804D-04 -0.55242067D-04 -0.59420291D-04
 -0.35675865D-04  0.23461950D-04 -0.40592269D-05 -0.50875279D-04 -0.16583988D-04
 -0.75100376D-06 -0.73446527D-06 -0.48529226D-06  0.95730412D-17  0.93622253D-17
  0.61860181D-17 -0.88734579D-06 -0.86780480D-06 -0.57339532D-06 -0.10870234D-04
 -0.54006988D-18 -0.12054182D-04 -0.25740844D-04 -0.35307187D-16 -0.16750371D-04
 -0.10379671D-05 -0.25883411D-16 -0.81581561D-06 -0.62696722D-05  0.16713300D-04
 -0.10443628D-04 -0.17559637D-15 -0.40979498D-04 -0.71357555D-16 -0.37881737D-05
  0.15919868D-05  0.21961869D-05  0.77206400D-16 -0.10330124D-04  0.29761423D-16
 -0.33420110D-05  0.25949462D-05  0.74706485D-06 -0.57798086D-16 -0.34802766D-05
 -0.24535642D-16  0.13828009D-04 -0.44089891D-16  0.16228842D-04  0.23089779D-04
  0.14261761D-15 -0.80397491D-04 -0.64573806D-04 -0.10347936D-16  0.31710965D-04
  0.68396590D-16 -0.47829077D-05  0.13485720D-16 -0.37392174D-05 -0.65055816D-05
 -0.43101911D-16  0.21092367D-04  0.20854305D-04  0.26447500D-17 -0.98747153D-05
 -0.17930324D-16  0.17541586D-05  0.32698277D-05  0.55431618D-05  0.83939807D-05
  0.10496702D-04  0.90366830D-05  0.34740308D-05 -0.15053544D-07 -0.11040895D-05
 -0.20732845D-05 -0.35304460D-05 -0.55304227D-05 -0.74114171D-05 -0.79719784D-05
 -0.47863654D-05  0.31477152D-05  0.23551668D-06 -0.60863056D-05 -0.92678743D-06
 -0.10962992D-15 -0.10721567D-15 -0.70841925D-16 -0.55028682D-05 -0.53816849D-05
 -0.35559067D-05  0.28364861D-05  0.27740215D-05  0.18329133D-05  0.92613104D-16
 -0.48229655D-05 -0.56011472D-05 -0.12744464D-15 -0.28790033D-05  0.84873809D-05
  0.10724200D-16  0.18477677D-06  0.16589570D-06  0.68394948D-05 -0.14167269D-04
  0.73277745D-05  0.15761553D-15 -0.28186775D-15 -0.22524500D-04  0.11220618D-05
 -0.19564457D-05  0.83438390D-06 -0.52384197D-16  0.10055917D-15  0.45796055D-05
 -0.84600375D-06  0.66214960D-06  0.18385415D-06 -0.48688423D-16  0.10133317D-17
  0.74616672D-05 -0.20197184D-16 -0.24161411D-04  0.12903747D-04  0.15407497D-15
  0.43606893D-04  0.20934308D-04 -0.93483421D-16  0.28877339D-04 -0.59645551D-04
 -0.48604029D-15  0.12922956D-16  0.58238698D-05 -0.49388721D-05 -0.70252003D-16
 -0.11349965D-04 -0.65780558D-05  0.31483136D-16 -0.61216446D-05  0.21394672D-04
  0.17420092D-15  0.17541586D-05  0.32698277D-05  0.55431618D-05  0.83939807D-05
  0.10496702D-04  0.90366829D-05  0.34740308D-05 -0.15053544D-07 -0.11040895D-05
 -0.20732845D-05 -0.35304460D-05 -0.55304227D-05 -0.74114171D-05 -0.79719784D-05
 -0.47863653D-05  0.31477152D-05  0.23551668D-06 -0.60863056D-05 -0.92678743D-06
 -0.10975189D-15 -0.10733495D-15 -0.70920741D-16  0.55028682D-05  0.53816849D-05
  0.35559067D-05  0.28364861D-05  0.27740215D-05  0.18329133D-05  0.92699496D-16
  0.48229655D-05 -0.56011472D-05 -0.12746002D-15  0.28790033D-05  0.84873809D-05
  0.10724851D-16 -0.18477677D-06  0.16589570D-06  0.68394948D-05 -0.14167269D-04
  0.73277745D-05 -0.15719154D-15 -0.28176397D-15  0.22524500D-04  0.11220618D-05
 -0.19564457D-05  0.83438390D-06  0.52208874D-16  0.10050895D-15 -0.45796055D-05
 -0.84600375D-06  0.66214960D-06  0.18385415D-06  0.48735431D-16  0.10327843D-17
 -0.74616672D-05 -0.20268885D-16  0.24161411D-04  0.12903747D-04  0.15418580D-15
 -0.43606893D-04  0.20934308D-04 -0.93379140D-16 -0.28877339D-04 -0.59645551D-04
  0.48636862D-15  0.12934636D-16 -0.58238698D-05 -0.49388721D-05 -0.70258395D-16
  0.11349965D-04 -0.65780558D-05  0.31454486D-16  0.61216446D-05  0.21394672D-04
 -0.17427628D-15
MO    2     MO 0.0        OCC NO =    2.0000000  ORB. ENERGY =  -26.402667
  0.97400440D-15  0.18208446D-14  0.31469880D-14  0.50901119D-14  0.76934061D-14
  0.10595083D-13  0.12383195D-13  0.10700015D-13  0.49905251D-14  0.67760549D-15
  0.18144606D-17  0.35592215D-17  0.16249333D-18 -0.19164899D-14 -0.35791265D-14
 -0.62085486D-14 -0.10066947D-13 -0.15499211D-13 -0.22074358D-13 -0.28384759D-13
 -0.29795550D-13 -0.21067565D-13  0.46655005D-15  0.15137318D-13  0.83350181D-14
 -0.35248650D-16  0.11489673D-14  0.21441430D-14  0.37241197D-14  0.60322477D-14
  0.93180573D-14  0.13284291D-13  0.17278523D-13  0.18414248D-13  0.13657465D-13
 -0.42510616D-15 -0.12372952D-13 -0.12121222D-13  0.56613296D-14  0.33246531D-14
 -0.14212203D-13 -0.70264156D-14  0.78158142D-02  0.10253923D-01  0.11246990D-01
  0.92542018D-02  0.48789982D-02  0.12692847D-02 -0.14045930D-05  0.29539710D-14
  0.38754491D-14  0.42507770D-14  0.34976067D-14  0.18440074D-14  0.47972357D-15
 -0.53086304D-18  0.66455952D-13  0.87186590D-13  0.95630400D-13  0.78686209D-13
  0.41484925D-13  0.10792417D-13 -0.11942910D-16 -0.68989225D-02 -0.90583272D-02
 -0.10191229D-01 -0.85868809D-02 -0.48033808D-02 -0.11955517D-02  0.54833761D-03
 -0.18320984D-14 -0.24055563D-14 -0.27064131D-14 -0.22803576D-14 -0.12756001D-14
 -0.31749427D-15  0.14561817D-15 -0.58084623D-13 -0.76265463D-13 -0.85803788D-13
 -0.72296179D-13 -0.40441469D-13 -0.10065799D-13  0.46166606D-14 -0.50874223D-04
 -0.28023637D-15 -0.43827790D-14  0.15957275D-03  0.44630070D-15  0.20954317D-14
  0.94966719D-06  0.29982381D-17  0.22466773D-15 -0.80848595D-14  0.48694493D-14
  0.32154102D-14 -0.33938469D-16 -0.20939206D-03  0.16198219D-16  0.43192831D-14
 -0.30644843D-14 -0.12547988D-14 -0.13280431D-16 -0.23363628D-03 -0.29685312D-15
 -0.92940751D-15 -0.10530456D-15  0.10347121D-14 -0.56175050D-17 -0.25204366D-04
 -0.76629923D-17  0.24762970D-04  0.18766778D-16 -0.48159755D-15  0.33422005D-04
 -0.29570323D-16  0.36552668D-14 -0.10771091D-03 -0.26730013D-16 -0.22104742D-14
 -0.95200189D-17  0.11086549D-04  0.44958812D-16 -0.11820314D-14 -0.36175057D-04
 -0.67219042D-16  0.37711424D-14  0.29154112D-05 -0.67657394D-16 -0.22504813D-15
  0.14544497D-16 -0.42113231D+00 -0.78500887D+00 -0.13307830D+01 -0.20151977D+01
 -0.25200118D+01 -0.21694954D+01 -0.83403324D+00  0.36140026D-02 -0.30634354D-03
 -0.57525892D-03 -0.97956673D-03 -0.15344855D-02 -0.20563911D-02 -0.22119259D-02
 -0.13280374D-02  0.87337326D-03 -0.40559137D-01 -0.12355992D-02 -0.16590742D-03
  0.45534862D-02  0.44532101D-02  0.29424242D-02 -0.11509396D-15 -0.11255938D-15
 -0.74372741D-16 -0.36343707D-02 -0.35543351D-02 -0.23484995D-02 -0.75281732D-03
  0.64704794D-16  0.58310613D-03  0.42164379D-03  0.43363998D-18 -0.38060842D-03
  0.13479999D-04  0.13523207D-16 -0.12486697D-04  0.19323261D-03 -0.45602064D-03
  0.26278803D-03  0.43126450D-17 -0.82620198D-03 -0.19155937D-16  0.85686650D-04
 -0.37736906D-04 -0.47949744D-04 -0.69380954D-18 -0.14544213D-03  0.12051911D-17
 -0.49972795D-04  0.63455592D-04 -0.13482797D-04 -0.15307544D-16  0.21495519D-03
  0.14199325D-16  0.69272998D-05  0.29778598D-16 -0.11732869D-03  0.35463163D-03
 -0.17807142D-16  0.52240560D-03 -0.37541352D-03 -0.71528652D-16 -0.17041952D-03
 -0.33055178D-16 -0.11594871D-04 -0.11070191D-16  0.39831949D-04 -0.15725210D-03
  0.92794621D-17 -0.22927758D-03  0.19203671D-03  0.23931110D-16  0.10978174D-03
  0.11408802D-16  0.42113231D+00  0.78500887D+00  0.13307830D+01  0.20151977D+01
  0.25200118D+01  0.21694954D+01  0.83403324D+00 -0.36140026D-02  0.30634354D-03
  0.57525892D-03  0.97956673D-03  0.15344855D-02  0.20563911D-02  0.22119259D-02
  0.13280374D-02 -0.87337326D-03  0.40559137D-01  0.12355992D-02  0.16590742D-03
  0.45534862D-02  0.44532101D-02  0.29424242D-02 -0.10933786D-15 -0.10693004D-15
 -0.70653196D-16  0.36343707D-02  0.35543351D-02  0.23484995D-02 -0.75281732D-03
  0.69769629D-16 -0.58310613D-03  0.42164379D-03 -0.34092460D-16  0.38060842D-03
  0.13479999D-04  0.16371749D-16  0.12486697D-04 -0.19323261D-03  0.45602064D-03
 -0.26278803D-03  0.11323471D-15 -0.82620198D-03  0.58182105D-16 -0.85686650D-04
  0.37736906D-04  0.47949744D-04 -0.35556319D-16 -0.14544213D-03 -0.11145201D-16
  0.49972795D-04 -0.63455592D-04  0.13482797D-04  0.14235321D-16  0.21495519D-03
  0.43785711D-17  0.69272998D-05 -0.22560183D-18  0.11732869D-03  0.35463163D-03
 -0.91824202D-17 -0.52240560D-03 -0.37541353D-03  0.98592257D-17  0.17041952D-03
  0.15584335D-16 -0.11594871D-04 -0.26437318D-17 -0.39831949D-04 -0.15725210D-03
  0.73146171D-17  0.22927758D-03  0.19203671D-03  0.61657833D-18 -0.10978174D-03
 -0.13332268D-16 -0.58480622D-13 -0.10901041D-12 -0.18479945D-12 -0.27984083D-12
 -0.34994194D-12 -0.30126742D-12 -0.11581819D-12  0.50185919D-15 -0.17874582D-15
 -0.33565298D-15 -0.57155914D-15 -0.89534402D-15 -0.11998663D-14 -0.12906180D-14
 -0.77488535D-15  0.50959721D-15 -0.58791598D-14 -0.12720714D-14  0.42995288D-14
  0.15670780D-03  0.15325681D-03  0.10126325D-03  0.21786924D-14  0.21307136D-14
  0.14078526D-14 -0.19220614D-15 -0.18797341D-15 -0.12420198D-15 -0.11045316D-03
 -0.24112011D-14 -0.54462281D-15  0.81036454D-04 -0.68558603D-16  0.48736816D-15
 -0.35854894D-07  0.15014859D-15 -0.71805239D-16 -0.54881404D-15  0.12287718D-15
  0.42593686D-15  0.66834974D-04  0.92820693D-04 -0.62956751D-15 -0.34371376D-16
 -0.17983210D-15  0.21420348D-15 -0.88898904D-04 -0.38540213D-06 -0.28367762D-15
  0.87106048D-15 -0.63670260D-15 -0.23435788D-15  0.87076437D-04 -0.29776982D-04
  0.37016608D-15  0.17863273D-03  0.21483464D-15  0.64372444D-15 -0.57203097D-03
 -0.71834393D-14  0.26165673D-15  0.36132785D-04  0.65389354D-14 -0.21928301D-14
  0.11910308D-02 -0.48781352D-04 -0.40429662D-15 -0.29291867D-15  0.15272421D-03
  0.30474006D-14 -0.13366892D-15 -0.63801568D-05 -0.18345107D-14  0.10124249D-14
 -0.34340093D-03 -0.11473018D-13 -0.21386203D-13 -0.36254871D-13 -0.54900560D-13
 -0.68653343D-13 -0.59104133D-13 -0.22721787D-13  0.98457221D-16 -0.25589827D-15
 -0.48053162D-15 -0.81826248D-15 -0.12818033D-14 -0.17177673D-14 -0.18476903D-14
 -0.11093508D-14  0.72955578D-15 -0.14164160D-14 -0.20064016D-14  0.34642263D-14
  0.15670780D-03  0.15325681D-03  0.10126325D-03 -0.24722632D-14 -0.24178194D-14
 -0.15975555D-14 -0.46138133D-15 -0.45122086D-15 -0.29814070D-15 -0.11045316D-03
  0.23370960D-14 -0.42320783D-15  0.81036454D-04  0.66273858D-15  0.36811708D-15
 -0.35854894D-07 -0.31713467D-16 -0.62762815D-16 -0.66568919D-15  0.36808769D-15
  0.29760149D-15 -0.66834974D-04  0.92820693D-04  0.51423253D-15  0.65934532D-16
 -0.35085507D-15  0.28492054D-15  0.88898904D-04 -0.38540213D-06  0.35844488D-15
  0.88931897D-15 -0.67451113D-15 -0.21480784D-15 -0.87076437D-04 -0.29776982D-04
 -0.32281682D-15  0.17863273D-03 -0.11619168D-15  0.55896909D-15 -0.57203097D-03
  0.71137576D-14  0.25539741D-15  0.36132785D-04 -0.67651826D-14 -0.19323047D-14
 -0.11910308D-02 -0.48781352D-04  0.41597715D-15 -0.26561013D-15  0.15272421D-03
 -0.30781616D-14 -0.11759273D-15 -0.63801568D-05  0.18302302D-14  0.91442312D-15
  0.34340093D-03
MO    3     MO 0.0        OCC NO =    2.0000000  ORB. ENERGY =  -26.402656
  0.21878148D-04  0.40899926D-04  0.70687841D-04  0.11433441D-03  0.17280977D-03
  0.23798741D-03  0.27815210D-03  0.24034440D-03  0.11209748D-03  0.15220417D-04
  0.40756526D-07  0.79947455D-07  0.36499353D-08 -0.36158450D-04 -0.67527445D-04
 -0.11713680D-03 -0.18993327D-03 -0.29242390D-03 -0.41647731D-03 -0.53553576D-03
 -0.56215319D-03 -0.39748214D-03  0.88024084D-05  0.28559606D-03  0.15725694D-03
 -0.66503693D-06  0.20877172D-04  0.38959891D-04  0.67668667D-04  0.10960823D-03
  0.16931263D-03  0.24138060D-03  0.31395731D-03  0.33459386D-03  0.24816131D-03
 -0.77243400D-05 -0.22482122D-03 -0.22024720D-03  0.10286850D-03  0.61345688D-04
 -0.95746193D-03 -0.18673293D-04  0.13098005D-12  0.17183869D-12  0.18848085D-12
  0.15508503D-12  0.81763897D-13  0.21271101D-13 -0.23538642D-16  0.45039446D-15
  0.59089301D-15  0.64811957D-15  0.53328305D-15  0.28115737D-15  0.73143859D-16
 -0.80941138D-19  0.69321367D-02  0.90945858D-02  0.99753744D-02  0.82078962D-02
  0.43273652D-02  0.11257759D-02 -0.12457858D-05 -0.12284269D-12 -0.16129320D-12
 -0.18146572D-12 -0.15289859D-12 -0.85529327D-13 -0.21288075D-13  0.97637371D-14
 -0.20872777D-15 -0.27406083D-15 -0.30833691D-15 -0.25979716D-15 -0.14532689D-15
 -0.36171567D-16  0.16590023D-16 -0.59158511D-02 -0.77675485D-02 -0.87390158D-02
 -0.73632816D-02 -0.41189165D-02 -0.10251899D-02  0.47020150D-03  0.27187611D-15
 -0.14260754D-15 -0.19393010D-03 -0.11136977D-13  0.49529150D-15  0.24364159D-03
 -0.13630756D-14 -0.13094234D-16 -0.71296432D-06 -0.50217749D-04  0.94327468D-04
 -0.44109719D-04 -0.16365909D-16  0.30083935D-14  0.22547703D-17 -0.51986475D-04
  0.59357553D-04 -0.73710774D-05  0.13089805D-16 -0.12876998D-13 -0.20135472D-16
 -0.14111566D-04  0.28439734D-04 -0.14328168D-04 -0.14833427D-17  0.37064556D-14
 -0.15623431D-16 -0.92465294D-15 -0.70867428D-17  0.43855402D-04 -0.77743007D-15
  0.11667177D-16 -0.17357057D-03  0.35513889D-14  0.95930516D-17  0.42004360D-04
  0.11116338D-17  0.57420690D-15  0.47629901D-16  0.20777907D-05 -0.55790659D-16
 -0.70993662D-16  0.49962355D-04 -0.16668300D-14 -0.71896040D-16 -0.56195728D-04
  0.34732720D-17  0.42110155D+00  0.78495154D+00  0.13306858D+01  0.20150505D+01
  0.25198278D+01  0.21693370D+01  0.83397234D+00 -0.36137387D-02  0.32856571D-03
  0.61698821D-03  0.10506245D-02  0.16457971D-02  0.22055617D-02  0.23723790D-02
  0.14243732D-02 -0.93672777D-03  0.40551697D-01  0.14675776D-02  0.24704056D-03
 -0.44032002D-02 -0.43062336D-02 -0.28453106D-02 -0.83911260D-16 -0.82063379D-16
 -0.54222744D-16  0.35875402D-02  0.35085359D-02  0.23182380D-02  0.70402731D-03
  0.83914513D-16 -0.51849882D-03 -0.52648001D-03 -0.20163062D-16  0.33698669D-03
 -0.25246220D-04  0.32963758D-16  0.16511652D-04 -0.43704335D-03  0.46366972D-03
 -0.26626362D-04 -0.13059888D-15  0.77942811D-03  0.47053819D-16  0.13777237D-04
  0.27150927D-04 -0.40928164D-04  0.42927604D-16  0.14784522D-03 -0.12698549D-16
  0.61419047D-04 -0.54795322D-04 -0.66237249D-05 -0.31079881D-16 -0.16773948D-03
  0.18712185D-16 -0.55960573D-04  0.25631627D-16  0.15318047D-03  0.19794708D-04
 -0.35007426D-16 -0.55481443D-03  0.14808701D-03 -0.41887454D-16  0.95273007D-04
  0.41177234D-16 -0.68797116D-05 -0.96946877D-17 -0.57320533D-04  0.66045426D-04
  0.14359592D-16  0.23470013D-03 -0.45406291D-04  0.14724471D-16 -0.62738527D-04
 -0.10095173D-16  0.42110155D+00  0.78495154D+00  0.13306858D+01  0.20150505D+01
  0.25198278D+01  0.21693370D+01  0.83397234D+00 -0.36137387D-02  0.32856571D-03
  0.61698821D-03  0.10506245D-02  0.16457971D-02  0.22055617D-02  0.23723790D-02
  0.14243732D-02 -0.93672777D-03  0.40551697D-01  0.14675776D-02  0.24704056D-03
  0.44032002D-02  0.43062336D-02  0.28453106D-02 -0.10623053D-15 -0.10389114D-15
 -0.68645269D-16  0.35875402D-02  0.35085359D-02  0.23182380D-02 -0.70402731D-03
  0.72226736D-16 -0.51849882D-03  0.52648001D-03 -0.23832129D-16  0.33698669D-03
  0.25246220D-04  0.35794109D-16  0.16511652D-04 -0.43704335D-03  0.46366972D-03
 -0.26626362D-04  0.16725091D-15 -0.77942811D-03  0.10260970D-15  0.13777237D-04
  0.27150927D-04 -0.40928164D-04 -0.62725849D-16 -0.14784522D-03 -0.32078689D-16
  0.61419047D-04 -0.54795322D-04 -0.66237249D-05  0.34848640D-16  0.16773948D-03
  0.20262770D-16  0.55960573D-04  0.13490661D-16  0.15318047D-03 -0.19794708D-04
 -0.34464704D-16 -0.55481443D-03 -0.14808701D-03 -0.60072782D-17  0.95273007D-04
 -0.64584209D-16  0.68797116D-05 -0.52940389D-17 -0.57320533D-04 -0.66045426D-04
  0.12793401D-16  0.23470013D-03  0.45406291D-04  0.30887156D-17 -0.62738527D-04
  0.13483488D-16 -0.71944596D-04 -0.13410784D-03 -0.22734576D-03 -0.34426849D-03
 -0.43050896D-03 -0.37062811D-03 -0.14248298D-03  0.61740206D-06 -0.15639909D-04