 Molden2AIM, Version 4.0.0 (06/02/2016)           Time: Wed Jun 27 21:46:40 2018
GAUSSIAN             25 MOL ORBITALS    431 PRIMITIVES        5 NUCLEI
  Si   1    (CENTRE  1)   0.00000000  0.00000000  0.00000000  CHARGE = 14.0
  F    2    (CENTRE  2)   1.74550034  1.74550034  1.74550034  CHARGE =  9.0
  F    3    (CENTRE  3)  -1.74550034 -1.74550034  1.74550034  CHARGE =  9.0
  F    4    (CENTRE  4)  -1.74550034  1.74550034 -1.74550034  CHARGE =  9.0
  F    5    (CENTRE  5)   1.74550034 -1.74550034 -1.74550034  CHARGE =  9.0
CENTRE ASSIGNMENTS    1  1  1  1  1  1  1  1  1  1  1  1  1  1  1  1  1  1  1  1
CENTRE ASSIGNMENTS    1  1  1  1  1  1  1  1  1  1  1  1  1  1  1  1  1  1  1  1
CENTRE ASSIGNMENTS    1  1  1  1  1  1  1  1  1  1  1  1  1  1  1  1  1  1  1  1
CENTRE ASSIGNMENTS    1  1  1  1  1  1  1  1  1  1  1  1  1  1  1  1  1  1  1  1
CENTRE ASSIGNMENTS    1  1  1  1  1  1  1  1  1  1  1  1  1  1  1  1  1  1  1  1
CENTRE ASSIGNMENTS    1  1  1  1  1  1  1  1  1  1  1  1  1  1  1  1  1  1  1  1
CENTRE ASSIGNMENTS    1  1  1  1  1  1  1  1  1  1  1  2  2  2  2  2  2  2  2  2
CENTRE ASSIGNMENTS    2  2  2  2  2  2  2  2  2  2  2  2  2  2  2  2  2  2  2  2
CENTRE ASSIGNMENTS    2  2  2  2  2  2  2  2  2  2  2  2  2  2  2  2  2  2  2  2
CENTRE ASSIGNMENTS    2  2  2  2  2  2  2  2  2  2  2  2  2  2  2  2  2  2  2  2
CENTRE ASSIGNMENTS    2  2  2  2  2  2  3  3  3  3  3  3  3  3  3  3  3  3  3  3
CENTRE ASSIGNMENTS    3  3  3  3  3  3  3  3  3  3  3  3  3  3  3  3  3  3  3  3
CENTRE ASSIGNMENTS    3  3  3  3  3  3  3  3  3  3  3  3  3  3  3  3  3  3  3  3
CENTRE ASSIGNMENTS    3  3  3  3  3  3  3  3  3  3  3  3  3  3  3  3  3  3  3  3
CENTRE ASSIGNMENTS    3  4  4  4  4  4  4  4  4  4  4  4  4  4  4  4  4  4  4  4
CENTRE ASSIGNMENTS    4  4  4  4  4  4  4  4  4  4  4  4  4  4  4  4  4  4  4  4
CENTRE ASSIGNMENTS    4  4  4  4  4  4  4  4  4  4  4  4  4  4  4  4  4  4  4  4
CENTRE ASSIGNMENTS    4  4  4  4  4  4  4  4  4  4  4  4  4  4  4  4  5  5  5  5
CENTRE ASSIGNMENTS    5  5  5  5  5  5  5  5  5  5  5  5  5  5  5  5  5  5  5  5
CENTRE ASSIGNMENTS    5  5  5  5  5  5  5  5  5  5  5  5  5  5  5  5  5  5  5  5
CENTRE ASSIGNMENTS    5  5  5  5  5  5  5  5  5  5  5  5  5  5  5  5  5  5  5  5
CENTRE ASSIGNMENTS    5  5  5  5  5  5  5  5  5  5  5
TYPE ASSIGNMENTS      1  1  1  1  1  1  1  1  1  1  1  1  1  1  1  1  1  1  1  1
TYPE ASSIGNMENTS      1  1  1  1  1  1  1  1  1  1  1  1  1  1  1  1  1  1  1  1
TYPE ASSIGNMENTS      1  1  2  2  2  2  2  2  2  3  3  3  3  3  3  3  4  4  4  4
TYPE ASSIGNMENTS      4  4  4  2  2  2  2  2  2  2  3  3  3  3  3  3  3  4  4  4
TYPE ASSIGNMENTS      4  4  4  4  2  3  4  2  3  4  2  3  4  5  6  7  8  9 10  5
TYPE ASSIGNMENTS      6  7  8  9 10  5  6  7  8  9 10 11 12 13 17 14 15 18 19 16
TYPE ASSIGNMENTS     20 11 12 13 17 14 15 18 19 16 20  1  1  1  1  1  1  1  1  1
TYPE ASSIGNMENTS      1  1  1  1  1  1  1  1  1  1  2  2  2  3  3  3  4  4  4  2
TYPE ASSIGNMENTS      3  4  2  3  4  2  3  4  5  6  7  8  9 10  5  6  7  8  9 10
TYPE ASSIGNMENTS      5  6  7  8  9 10 11 12 13 17 14 15 18 19 16 20 11 12 13 17
TYPE ASSIGNMENTS     14 15 18 19 16 20  1  1  1  1  1  1  1  1  1  1  1  1  1  1
TYPE ASSIGNMENTS      1  1  1  1  1  2  2  2  3  3  3  4  4  4  2  3  4  2  3  4
TYPE ASSIGNMENTS      2  3  4  5  6  7  8  9 10  5  6  7  8  9 10  5  6  7  8  9
TYPE ASSIGNMENTS     10 11 12 13 17 14 15 18 19 16 20 11 12 13 17 14 15 18 19 16
TYPE ASSIGNMENTS     20  1  1  1  1  1  1  1  1  1  1  1  1  1  1  1  1  1  1  1
TYPE ASSIGNMENTS      2  2  2  3  3  3  4  4  4  2  3  4  2  3  4  2  3  4  5  6
TYPE ASSIGNMENTS      7  8  9 10  5  6  7  8  9 10  5  6  7  8  9 10 11 12 13 17
TYPE ASSIGNMENTS     14 15 18 19 16 20 11 12 13 17 14 15 18 19 16 20  1  1  1  1
TYPE ASSIGNMENTS      1  1  1  1  1  1  1  1  1  1  1  1  1  1  1  2  2  2  3  3
TYPE ASSIGNMENTS      3  4  4  4  2  3  4  2  3  4  2  3  4  5  6  7  8  9 10  5
TYPE ASSIGNMENTS      6  7  8  9 10  5  6  7  8  9 10 11 12 13 17 14 15 18 19 16
TYPE ASSIGNMENTS     20 11 12 13 17 14 15 18 19 16 20
EXPONENTS  0.2549000D+06 0.3819000D+05 0.8690000D+04 0.2462000D+04 0.8048000D+03
EXPONENTS  0.2913000D+03 0.1136000D+03 0.4675000D+02 0.1982000D+02 0.7708000D+01
EXPONENTS  0.3340000D+01 0.1402000D+01 0.2070000D+00 0.2549000D+06 0.3819000D+05
EXPONENTS  0.8690000D+04 0.2462000D+04 0.8048000D+03 0.2913000D+03 0.1136000D+03
EXPONENTS  0.4675000D+02 0.1982000D+02 0.7708000D+01 0.3340000D+01 0.1402000D+01
EXPONENTS  0.2070000D+00 0.2549000D+06 0.3819000D+05 0.8690000D+04 0.2462000D+04
EXPONENTS  0.8048000D+03 0.2913000D+03 0.1136000D+03 0.4675000D+02 0.1982000D+02
EXPONENTS  0.7708000D+01 0.3340000D+01 0.1402000D+01 0.2070000D+00 0.4387000D+00
EXPONENTS  0.7944000D-01 0.3300000D-01 0.4815000D+03 0.1139000D+03 0.3623000D+02
EXPONENTS  0.1334000D+02 0.5252000D+01 0.2120000D+01 0.2528000D+00 0.4815000D+03
EXPONENTS  0.1139000D+03 0.3623000D+02 0.1334000D+02 0.5252000D+01 0.2120000D+01
EXPONENTS  0.2528000D+00 0.4815000D+03 0.1139000D+03 0.3623000D+02 0.1334000D+02
EXPONENTS  0.5252000D+01 0.2120000D+01 0.2528000D+00 0.4815000D+03 0.1139000D+03
EXPONENTS  0.3623000D+02 0.1334000D+02 0.5252000D+01 0.2120000D+01 0.2528000D+00
EXPONENTS  0.4815000D+03 0.1139000D+03 0.3623000D+02 0.1334000D+02 0.5252000D+01
EXPONENTS  0.2120000D+01 0.2528000D+00 0.4815000D+03 0.1139000D+03 0.3623000D+02
EXPONENTS  0.1334000D+02 0.5252000D+01 0.2120000D+01 0.2528000D+00 0.8561000D+00
EXPONENTS  0.8561000D+00 0.8561000D+00 0.7889000D-01 0.7889000D-01 0.7889000D-01
EXPONENTS  0.2370000D-01 0.2370000D-01 0.2370000D-01 0.1590000D+00 0.1590000D+00
EXPONENTS  0.1590000D+00 0.1590000D+00 0.1590000D+00 0.1590000D+00 0.4810000D+00
EXPONENTS  0.4810000D+00 0.4810000D+00 0.4810000D+00 0.4810000D+00 0.4810000D+00
EXPONENTS  0.5560000D-01 0.5560000D-01 0.5560000D-01 0.5560000D-01 0.5560000D-01
EXPONENTS  0.5560000D-01 0.3360000D+00 0.3360000D+00 0.3360000D+00 0.3360000D+00
EXPONENTS  0.3360000D+00 0.3360000D+00 0.3360000D+00 0.3360000D+00 0.3360000D+00
EXPONENTS  0.3360000D+00 0.1250000D+00 0.1250000D+00 0.1250000D+00 0.1250000D+00
EXPONENTS  0.1250000D+00 0.1250000D+00 0.1250000D+00 0.1250000D+00 0.1250000D+00
EXPONENTS  0.1250000D+00 0.1950000D+05 0.2923000D+04 0.6645000D+03 0.1875000D+03
EXPONENTS  0.6062000D+02 0.2142000D+02 0.7950000D+01 0.8815000D+00 0.1950000D+05
EXPONENTS  0.2923000D+04 0.6645000D+03 0.1875000D+03 0.6062000D+02 0.2142000D+02
EXPONENTS  0.7950000D+01 0.8815000D+00 0.2257000D+01 0.3041000D+00 0.9158000D-01
EXPONENTS  0.4388000D+02 0.9926000D+01 0.2930000D+01 0.4388000D+02 0.9926000D+01
EXPONENTS  0.2930000D+01 0.4388000D+02 0.9926000D+01 0.2930000D+01 0.9132000D+00
EXPONENTS  0.9132000D+00 0.9132000D+00 0.2672000D+00 0.2672000D+00 0.2672000D+00
EXPONENTS  0.7361000D-01 0.7361000D-01 0.7361000D-01 0.3107000D+01 0.3107000D+01
EXPONENTS  0.3107000D+01 0.3107000D+01 0.3107000D+01 0.3107000D+01 0.8550000D+00
EXPONENTS  0.8550000D+00 0.8550000D+00 0.8550000D+00 0.8550000D+00 0.8550000D+00
EXPONENTS  0.2920000D+00 0.2920000D+00 0.2920000D+00 0.2920000D+00 0.2920000D+00
EXPONENTS  0.2920000D+00 0.1917000D+01 0.1917000D+01 0.1917000D+01 0.1917000D+01
EXPONENTS  0.1917000D+01 0.1917000D+01 0.1917000D+01 0.1917000D+01 0.1917000D+01
EXPONENTS  0.1917000D+01 0.7240000D+00 0.7240000D+00 0.7240000D+00 0.7240000D+00
EXPONENTS  0.7240000D+00 0.7240000D+00 0.7240000D+00 0.7240000D+00 0.7240000D+00
EXPONENTS  0.7240000D+00 0.1950000D+05 0.2923000D+04 0.6645000D+03 0.1875000D+03
EXPONENTS  0.6062000D+02 0.2142000D+02 0.7950000D+01 0.8815000D+00 0.1950000D+05
EXPONENTS  0.2923000D+04 0.6645000D+03 0.1875000D+03 0.6062000D+02 0.2142000D+02
EXPONENTS  0.7950000D+01 0.8815000D+00 0.2257000D+01 0.3041000D+00 0.9158000D-01
EXPONENTS  0.4388000D+02 0.9926000D+01 0.2930000D+01 0.4388000D+02 0.9926000D+01
EXPONENTS  0.2930000D+01 0.4388000D+02 0.9926000D+01 0.2930000D+01 0.9132000D+00
EXPONENTS  0.9132000D+00 0.9132000D+00 0.2672000D+00 0.2672000D+00 0.2672000D+00
EXPONENTS  0.7361000D-01 0.7361000D-01 0.7361000D-01 0.3107000D+01 0.3107000D+01
EXPONENTS  0.3107000D+01 0.3107000D+01 0.3107000D+01 0.3107000D+01 0.8550000D+00
EXPONENTS  0.8550000D+00 0.8550000D+00 0.8550000D+00 0.8550000D+00 0.8550000D+00
EXPONENTS  0.2920000D+00 0.2920000D+00 0.2920000D+00 0.2920000D+00 0.2920000D+00
EXPONENTS  0.2920000D+00 0.1917000D+01 0.1917000D+01 0.1917000D+01 0.1917000D+01
EXPONENTS  0.1917000D+01 0.1917000D+01 0.1917000D+01 0.1917000D+01 0.1917000D+01
EXPONENTS  0.1917000D+01 0.7240000D+00 0.7240000D+00 0.7240000D+00 0.7240000D+00
EXPONENTS  0.7240000D+00 0.7240000D+00 0.7240000D+00 0.7240000D+00 0.7240000D+00
EXPONENTS  0.7240000D+00 0.1950000D+05 0.2923000D+04 0.6645000D+03 0.1875000D+03
EXPONENTS  0.6062000D+02 0.2142000D+02 0.7950000D+01 0.8815000D+00 0.1950000D+05
EXPONENTS  0.2923000D+04 0.6645000D+03 0.1875000D+03 0.6062000D+02 0.2142000D+02
EXPONENTS  0.7950000D+01 0.8815000D+00 0.2257000D+01 0.3041000D+00 0.9158000D-01
EXPONENTS  0.4388000D+02 0.9926000D+01 0.2930000D+01 0.4388000D+02 0.9926000D+01
EXPONENTS  0.2930000D+01 0.4388000D+02 0.9926000D+01 0.2930000D+01 0.9132000D+00
EXPONENTS  0.9132000D+00 0.9132000D+00 0.2672000D+00 0.2672000D+00 0.2672000D+00
EXPONENTS  0.7361000D-01 0.7361000D-01 0.7361000D-01 0.3107000D+01 0.3107000D+01
EXPONENTS  0.3107000D+01 0.3107000D+01 0.3107000D+01 0.3107000D+01 0.8550000D+00
EXPONENTS  0.8550000D+00 0.8550000D+00 0.8550000D+00 0.8550000D+00 0.8550000D+00
EXPONENTS  0.2920000D+00 0.2920000D+00 0.2920000D+00 0.2920000D+00 0.2920000D+00
EXPONENTS  0.2920000D+00 0.1917000D+01 0.1917000D+01 0.1917000D+01 0.1917000D+01
EXPONENTS  0.1917000D+01 0.1917000D+01 0.1917000D+01 0.1917000D+01 0.1917000D+01
EXPONENTS  0.1917000D+01 0.7240000D+00 0.7240000D+00 0.7240000D+00 0.7240000D+00
EXPONENTS  0.7240000D+00 0.7240000D+00 0.7240000D+00 0.7240000D+00 0.7240000D+00
EXPONENTS  0.7240000D+00 0.1950000D+05 0.2923000D+04 0.6645000D+03 0.1875000D+03
EXPONENTS  0.6062000D+02 0.2142000D+02 0.7950000D+01 0.8815000D+00 0.1950000D+05
EXPONENTS  0.2923000D+04 0.6645000D+03 0.1875000D+03 0.6062000D+02 0.2142000D+02
EXPONENTS  0.7950000D+01 0.8815000D+00 0.2257000D+01 0.3041000D+00 0.9158000D-01
EXPONENTS  0.4388000D+02 0.9926000D+01 0.2930000D+01 0.4388000D+02 0.9926000D+01
EXPONENTS  0.2930000D+01 0.4388000D+02 0.9926000D+01 0.2930000D+01 0.9132000D+00
EXPONENTS  0.9132000D+00 0.9132000D+00 0.2672000D+00 0.2672000D+00 0.2672000D+00
EXPONENTS  0.7361000D-01 0.7361000D-01 0.7361000D-01 0.3107000D+01 0.3107000D+01
EXPONENTS  0.3107000D+01 0.3107000D+01 0.3107000D+01 0.3107000D+01 0.8550000D+00
EXPONENTS  0.8550000D+00 0.8550000D+00 0.8550000D+00 0.8550000D+00 0.8550000D+00
EXPONENTS  0.2920000D+00 0.2920000D+00 0.2920000D+00 0.2920000D+00 0.2920000D+00
EXPONENTS  0.2920000D+00 0.1917000D+01 0.1917000D+01 0.1917000D+01 0.1917000D+01
EXPONENTS  0.1917000D+01 0.1917000D+01 0.1917000D+01 0.1917000D+01 0.1917000D+01
EXPONENTS  0.1917000D+01 0.7240000D+00 0.7240000D+00 0.7240000D+00 0.7240000D+00
EXPONENTS  0.7240000D+00 0.7240000D+00 0.7240000D+00 0.7240000D+00 0.7240000D+00
EXPONENTS  0.7240000D+00
MO    1     MO 0.0        OCC NO =    2.0000000  ORB. ENERGY =  -68.963893
  0.50540598D+00  0.94539150D+00  0.16326486D+01  0.26371531D+01  0.39714984D+01
  0.54012190D+01  0.61487402D+01  0.49813228D+01  0.20220173D+01  0.18438017D+00
 -0.70857709D-02  0.23694307D-02  0.13296708D-03 -0.39973940D-05 -0.74820210D-05
 -0.12940443D-04 -0.21032351D-04 -0.32179325D-04 -0.45664687D-04 -0.57282557D-04
 -0.58404529D-04 -0.35884904D-04  0.78208213D-05  0.28646511D-04  0.13101906D-04
 -0.69545633D-07 -0.35061483D-05 -0.65577213D-05 -0.11356196D-04 -0.18438457D-04
 -0.28302659D-04 -0.40202665D-04 -0.51003457D-04 -0.52802359D-04 -0.34011135D-04
  0.83652156D-05  0.34099194D-04  0.29740430D-04 -0.15157271D-04 -0.44146036D-03
 -0.15450300D-03  0.40339147D-05  0.75097413D-14  0.99057358D-14  0.11002839D-13
  0.94168794D-14  0.53807292D-14  0.17461639D-14  0.12295244D-17 -0.16643535D-13
 -0.21953680D-13 -0.24385146D-13 -0.20870248D-13 -0.11925092D-13 -0.38699523D-14
 -0.27249451D-17 -0.21313314D-13 -0.28113360D-13 -0.31227036D-13 -0.26725942D-13
 -0.15270988D-13 -0.49557686D-14 -0.34894997D-17 -0.65284154D-14 -0.89275241D-14
 -0.97051180D-14 -0.89087908D-14 -0.48556527D-14 -0.20489922D-14  0.70667256D-15
  0.14801390D-13  0.20240710D-13  0.22003691D-13  0.20198238D-13  0.11008860D-13
  0.46455273D-14 -0.16021860D-14  0.18685123D-13  0.25551665D-13  0.27777234D-13
  0.25498048D-13  0.13897472D-13  0.58644661D-14 -0.20225832D-14 -0.27164607D-15
  0.20088206D-15  0.54772411D-15  0.69324942D-15 -0.82226328D-15 -0.14937644D-14
 -0.15272644D-17  0.64153902D-17  0.67454178D-17  0.68263007D-16 -0.85997968D-16
  0.17734962D-16 -0.12892040D-14 -0.59943604D-15  0.67960127D-15  0.49028994D-16
 -0.59318778D-16  0.10289784D-16 -0.13753456D-14 -0.11473117D-14  0.49402226D-15
  0.18053609D-16 -0.23859281D-16  0.58056721D-17 -0.58664853D-16 -0.16906678D-16
  0.40078697D-16 -0.12481161D-15  0.11641874D-15  0.23555790D-15  0.19513232D-15
 -0.19699699D-15 -0.32978989D-15  0.17930250D-15 -0.15225923D-15 -0.37688380D-15
 -0.25809965D-04 -0.21016106D-16  0.46599436D-17  0.26968341D-16  0.34026597D-16
 -0.93292056D-17 -0.44607241D-16  0.29021721D-16 -0.46506253D-17 -0.36297781D-16
 -0.30616105D-06 -0.81035673D-05 -0.15105401D-04 -0.25607368D-04 -0.38777101D-04
 -0.48490901D-04 -0.41746149D-04 -0.16048744D-04  0.69541834D-07  0.60097862D-05
  0.11285314D-04  0.19216944D-04  0.30103229D-04  0.40341868D-04  0.43393118D-04
  0.26053171D-04 -0.17133662D-04 -0.36578368D-05  0.21832500D-04  0.38013789D-04
  0.22942157D-04  0.22436929D-04  0.14825027D-04  0.22942157D-04  0.22436929D-04
  0.14825027D-04  0.22942157D-04  0.22436929D-04  0.14825027D-04  0.21693441D-06
  0.21693441D-06  0.21693441D-06 -0.15038153D-04 -0.15038153D-04 -0.15038153D-04
 -0.30336155D-05 -0.30336155D-05 -0.30336155D-05 -0.80610566D-16 -0.12547810D-17
  0.81865347D-16 -0.48779952D-04 -0.48779952D-04 -0.48779952D-04  0.47884426D-16
  0.11513588D-16 -0.59398013D-16  0.23171281D-04  0.23171281D-04  0.23171281D-04
 -0.10679238D-15 -0.22912700D-16  0.12970508D-15  0.69983260D-05  0.69983260D-05
  0.69983260D-05  0.18335084D-05  0.18335084D-05  0.18335084D-05 -0.27502625D-05
 -0.27502625D-05 -0.27502625D-05 -0.27502625D-05 -0.27502625D-05 -0.27502625D-05
 -0.26133864D-04  0.45064460D-05  0.45064460D-05  0.45064460D-05 -0.67596690D-05
 -0.67596690D-05 -0.67596690D-05 -0.67596690D-05 -0.67596690D-05 -0.67596690D-05
 -0.29938021D-04 -0.81035673D-05 -0.15105401D-04 -0.25607368D-04 -0.38777101D-04
 -0.48490901D-04 -0.41746149D-04 -0.16048744D-04  0.69541834D-07  0.60097862D-05
  0.11285314D-04  0.19216944D-04  0.30103229D-04  0.40341868D-04  0.43393118D-04
  0.26053171D-04 -0.17133662D-04 -0.36578368D-05  0.21832500D-04  0.38013789D-04
 -0.22942157D-04 -0.22436929D-04 -0.14825027D-04 -0.22942157D-04 -0.22436929D-04
 -0.14825027D-04  0.22942157D-04  0.22436929D-04  0.14825027D-04 -0.21693441D-06
 -0.21693441D-06  0.21693441D-06  0.15038153D-04  0.15038153D-04 -0.15038153D-04
  0.30336155D-05  0.30336155D-05 -0.30336155D-05  0.46909367D-16 -0.16989037D-15
  0.12298100D-15 -0.48779952D-04  0.48779952D-04  0.48779952D-04 -0.32169549D-16
  0.96464354D-16 -0.64294805D-16  0.23171281D-04 -0.23171281D-04 -0.23171281D-04
  0.68053246D-16 -0.15971417D-15  0.91660925D-16  0.69983260D-05 -0.69983260D-05
 -0.69983260D-05 -0.18335084D-05 -0.18335084D-05  0.18335084D-05  0.27502625D-05
  0.27502625D-05 -0.27502625D-05  0.27502625D-05  0.27502625D-05 -0.27502625D-05
 -0.26133864D-04 -0.45064460D-05 -0.45064460D-05  0.45064460D-05  0.67596690D-05
  0.67596690D-05 -0.67596690D-05  0.67596690D-05  0.67596690D-05 -0.67596690D-05
 -0.29938021D-04 -0.81035673D-05 -0.15105401D-04 -0.25607368D-04 -0.38777101D-04
 -0.48490901D-04 -0.41746149D-04 -0.16048744D-04  0.69541834D-07  0.60097862D-05
  0.11285314D-04  0.19216944D-04  0.30103229D-04  0.40341868D-04  0.43393118D-04
  0.26053171D-04 -0.17133662D-04 -0.36578368D-05  0.21832500D-04  0.38013789D-04
 -0.22942157D-04 -0.22436929D-04 -0.14825027D-04  0.22942157D-04  0.22436929D-04
  0.14825027D-04 -0.22942157D-04 -0.22436929D-04 -0.14825027D-04 -0.21693441D-06
  0.21693441D-06 -0.21693441D-06  0.15038153D-04 -0.15038153D-04  0.15038153D-04
  0.30336155D-05 -0.30336155D-05  0.30336155D-05  0.16856078D-15 -0.26220575D-16
 -0.14234021D-15  0.48779952D-04 -0.48779952D-04  0.48779952D-04 -0.79130804D-16
  0.23711680D-16  0.55419124D-16 -0.23171281D-04  0.23171281D-04 -0.23171281D-04
  0.11791894D-15  0.80875986D-17 -0.12600654D-15 -0.69983260D-05  0.69983260D-05
 -0.69983260D-05 -0.18335084D-05  0.18335084D-05 -0.18335084D-05  0.27502625D-05
 -0.27502625D-05  0.27502625D-05  0.27502625D-05 -0.27502625D-05  0.27502625D-05
 -0.26133864D-04 -0.45064460D-05  0.45064460D-05 -0.45064460D-05  0.67596690D-05
 -0.67596690D-05  0.67596690D-05  0.67596690D-05 -0.67596690D-05  0.67596690D-05
 -0.29938021D-04 -0.81035673D-05 -0.15105401D-04 -0.25607368D-04 -0.38777101D-04
 -0.48490901D-04 -0.41746149D-04 -0.16048744D-04  0.69541834D-07  0.60097862D-05
  0.11285314D-04  0.19216944D-04  0.30103229D-04  0.40341868D-04  0.43393118D-04
  0.26053171D-04 -0.17133662D-04 -0.36578368D-05  0.21832500D-04  0.38013789D-04
  0.22942157D-04  0.22436929D-04  0.14825027D-04 -0.22942157D-04 -0.22436929D-04
 -0.14825027D-04 -0.22942157D-04 -0.22436929D-04 -0.14825027D-04  0.21693441D-06
 -0.21693441D-06 -0.21693441D-06 -0.15038153D-04  0.15038153D-04  0.15038153D-04
 -0.30336155D-05  0.30336155D-05  0.30336155D-05  0.21484892D-15 -0.83987293D-16
 -0.13086163D-15  0.48779952D-04  0.48779952D-04 -0.48779952D-04 -0.82000079D-16
  0.40568828D-16  0.41431251D-16 -0.23171281D-04 -0.23171281D-04  0.23171281D-04
  0.47531976D-16  0.15793787D-16 -0.63325763D-16 -0.69983260D-05 -0.69983260D-05
  0.69983260D-05  0.18335084D-05 -0.18335084D-05 -0.18335084D-05 -0.27502625D-05
  0.27502625D-05  0.27502625D-05 -0.27502625D-05  0.27502625D-05  0.27502625D-05
 -0.26133864D-04  0.45064460D-05 -0.45064460D-05 -0.45064460D-05 -0.67596690D-05
  0.67596690D-05  0.67596690D-05 -0.67596690D-05  0.67596690D-05  0.67596690D-05
 -0.29938021D-04
MO    2     MO 0.0        OCC NO =    2.0000000  ORB. ENERGY =  -26.343488
  0.10241639D-12  0.19157585D-12  0.33084289D-12  0.53439751D-12  0.80479165D-12
  0.10945128D-11  0.12459919D-11  0.10094243D-11  0.40974527D-12  0.37363133D-13
 -0.14358735D-14  0.48014576D-15  0.26944692D-16 -0.21866025D-12 -0.40927177D-12
 -0.70785128D-12 -0.11504843D-11 -0.17602316D-11 -0.24978903D-11 -0.31333959D-11
 -0.31947686D-11 -0.19629293D-11  0.42780439D-12  0.15669842D-11  0.71668339D-12
 -0.38041947D-14  0.12700046D-12  0.23753521D-12  0.41134661D-12  0.66788181D-12
  0.10251851D-11  0.14562297D-11  0.18474583D-11  0.19126185D-11  0.12319587D-11
 -0.30300666D-12 -0.12351484D-11 -0.10772643D-11  0.54902997D-12 -0.96931385D-13
  0.19445637D-11 -0.13945534D-13  0.58810373D-02  0.77573912D-02  0.86165561D-02
  0.73745575D-02  0.42137629D-02  0.13674579D-02  0.96286659D-06 -0.60479848D-02
 -0.79776036D-02 -0.88611579D-02 -0.75839022D-02 -0.43333808D-02 -0.14062765D-02
 -0.99019989D-06  0.18062075D-04  0.23824808D-04  0.26463509D-04  0.22649034D-04
  0.12941476D-04  0.41997910D-05  0.29571941D-08 -0.50869807D-02 -0.69563807D-02
 -0.75622865D-02 -0.69417836D-02 -0.37835539D-02 -0.15965871D-02  0.55064353D-03
  0.52313870D-02  0.71538545D-02  0.77769604D-02  0.71388430D-02  0.38909593D-02
  0.16419101D-02 -0.56627488D-03 -0.15623337D-04 -0.21364713D-04 -0.23225594D-04
 -0.21319881D-04 -0.11620201D-04 -0.49035017D-05  0.16911582D-05  0.48494005D-04
 -0.49870625D-04  0.14893672D-06  0.44993100D-04 -0.46270339D-04  0.13818458D-06
 -0.26034756D-06  0.26773816D-06 -0.79958973D-09  0.60845250D-15  0.56827699D-15
 -0.11767295D-14  0.72279597D-07 -0.24202422D-04  0.23534343D-04  0.36520923D-15
  0.37707913D-15 -0.74228836D-15  0.66643603D-06 -0.22315238D-03  0.21699252D-03
  0.29228192D-15  0.26097265D-15 -0.55325457D-15 -0.54905575D-08  0.18384821D-05
 -0.17877330D-05  0.33996345D-04 -0.34961413D-04  0.10441093D-06 -0.50994517D-04
  0.52442120D-04 -0.15661639D-06 -0.50994517D-04  0.52442120D-04 -0.15661639D-06
 -0.68470422D-14  0.10885662D-05 -0.11194678D-05  0.33432482D-08 -0.16328493D-05
  0.16792017D-05 -0.50148723D-08 -0.16328493D-05  0.16792017D-05 -0.50148723D-08
  0.74747328D-13  0.52552695D-02  0.97960501D-02  0.16606713D-01  0.25147458D-01
  0.31446985D-01  0.27072925D-01  0.10407821D-01 -0.45098790D-04  0.38807348D-05
  0.72873327D-05  0.12409071D-04  0.19438736D-04  0.26050193D-04  0.28020495D-04
  0.16823468D-04 -0.11063821D-04  0.50683690D-03  0.15360145D-04  0.91839912D-06
 -0.12483276D-04 -0.12208371D-04 -0.80665868D-05 -0.60010567D-04 -0.58689024D-04
 -0.38778319D-04 -0.35842385D-04 -0.35053070D-04 -0.23161045D-04  0.23565417D-04
 -0.11707939D-04  0.62289741D-05 -0.77755033D-04  0.70530218D-04 -0.48745614D-05
 -0.76146056D-05  0.75817717D-05 -0.14576344D-06 -0.12045905D-03  0.12183392D-03
 -0.13748776D-05  0.13304683D-05 -0.22815061D-03  0.22312926D-03  0.40297198D-04
 -0.40757137D-04  0.45993819D-06 -0.14980590D-05  0.70432310D-04 -0.71020431D-04
  0.25818951D-04 -0.26113639D-04  0.29468852D-06  0.13779346D-05  0.52313512D-04
 -0.47852484D-04 -0.21930097D-04  0.17927445D-04 -0.23405804D-05 -0.15614616D-03
  0.15582165D-03  0.37526500D-03  0.22193646D-03 -0.20960398D-03 -0.36824325D-03
  0.11326936D-04  0.87433482D-05 -0.71965856D-05  0.90905663D-06  0.60977324D-04
 -0.60817095D-04 -0.14706790D-03 -0.87207368D-04  0.82406852D-04  0.14434073D-03
 -0.49580968D-05 -0.65303592D-02 -0.12172872D-01 -0.20636011D-01 -0.31249003D-01
 -0.39076988D-01 -0.33641647D-01 -0.12933077D-01  0.56041140D-04 -0.48223202D-05
 -0.90554633D-05 -0.15419892D-04 -0.24155170D-04 -0.32370770D-04 -0.34819127D-04
 -0.20905358D-04  0.13748243D-04 -0.62981109D-03 -0.19086987D-04 -0.11412318D-05
 -0.21197198D-04 -0.20730397D-04 -0.13697450D-04 -0.68724489D-04 -0.67211049D-04
 -0.44409182D-04  0.44700232D-04  0.43715851D-04  0.28884911D-04  0.25063799D-04
 -0.10209558D-04 -0.76205389D-05 -0.78883275D-04  0.69401976D-04  0.55537574D-05
 -0.76443896D-05  0.75519877D-05  0.12952887D-06  0.12070362D-03 -0.12158935D-03
  0.88572728D-06 -0.12089986D-06 -0.22799358D-03  0.22328628D-03 -0.40379016D-04
  0.40675319D-04 -0.29630260D-06  0.13812124D-05  0.70120801D-04 -0.71331940D-04
 -0.25871373D-04  0.26061218D-04 -0.18984501D-06 -0.20523905D-05  0.52684639D-04
 -0.47481356D-04 -0.22483351D-04  0.17374191D-04  0.27731352D-05 -0.15419051D-03
  0.15777730D-03 -0.37591383D-03  0.22164057D-03 -0.20989987D-03  0.36759442D-03
 -0.14075198D-04  0.89580572D-05 -0.69818766D-05 -0.10754954D-05  0.60214030D-04
 -0.61580389D-04  0.14731756D-03 -0.87088202D-04  0.82526019D-04 -0.14409108D-03
  0.61610828D-05  0.42170110D+00  0.78606911D+00  0.13325804D+01  0.20179195D+01
  0.25234154D+01  0.21724256D+01  0.83515970D+00 -0.36188837D-02  0.31140365D-03
  0.58476091D-03  0.99574698D-03  0.15598318D-02  0.20903581D-02  0.22484619D-02
  0.13499736D-02 -0.88779943D-03  0.40670355D-01  0.12325514D-02  0.73695569D-04
  0.29053231D-02  0.28413426D-02  0.18773952D-02 -0.29059883D-02 -0.28419931D-02
 -0.18778250D-02  0.28819640D-02  0.28184979D-02  0.18623007D-02 -0.47815900D-03
  0.47766535D-03 -0.49549545D-03  0.30003025D-03 -0.29795499D-03  0.37291072D-03
  0.23583715D-05 -0.21456972D-05  0.98272137D-05  0.38564420D-04  0.41955328D-04
 -0.80519748D-04 -0.51248050D-04 -0.17686643D-03  0.17055074D-03 -0.12900966D-04
 -0.14035328D-04  0.26936294D-04  0.10280892D-03 -0.31306902D-04  0.33286543D-04
 -0.82658207D-05 -0.89926210D-05  0.17258442D-04 -0.12289199D-03  0.17352424D-03
 -0.17212240D-03  0.16332378D-03 -0.16276597D-03  0.18291330D-03 -0.57070133D-04
  0.61436145D-04 -0.27957268D-03 -0.43290122D-03  0.42686178D-03 -0.26916723D-03
  0.90891271D-03 -0.63150749D-04  0.62927669D-04 -0.70985041D-04  0.21075008D-04
 -0.22779530D-04  0.10851670D-03  0.16837724D-03 -0.16600348D-03  0.10443842D-03
 -0.39785491D-03 -0.42042601D+00 -0.78369230D+00 -0.13285511D+01 -0.20118179D+01
 -0.25157854D+01 -0.21658569D+01 -0.83263445D+00  0.36079414D-02 -0.31046207D-03
 -0.58299278D-03 -0.99273617D-03 -0.15551153D-02 -0.20840375D-02 -0.22416633D-02
 -0.13458917D-02  0.88511501D-03 -0.40547381D-01 -0.12288246D-02 -0.73472738D-04
  0.28966092D-02  0.28328206D-02  0.18717643D-02 -0.28972744D-02 -0.28334711D-02
 -0.18721941D-02 -0.28731062D-02 -0.28098351D-02 -0.18565769D-02 -0.47666062D-03
  0.47616697D-03  0.49410388D-03  0.29890201D-03 -0.29682675D-03 -0.37223153D-03
  0.23285877D-05 -0.21159133D-05 -0.98434484D-05 -0.38808996D-04 -0.42199903D-04
  0.81008899D-04  0.52457617D-04 -0.17702346D-03  0.17070776D-03  0.12982784D-04
  0.14117145D-04 -0.27099930D-04 -0.10292576D-03 -0.30995393D-04  0.32975034D-04
  0.83182425D-05  0.90450428D-05 -0.17363285D-04  0.12221753D-03  0.17315311D-03
 -0.17175128D-03  0.16277053D-03 -0.16221272D-03 -0.18248075D-03 -0.55114486D-04
  0.59480498D-04  0.27892384D-03 -0.43319710D-03  0.42715766D-03  0.26851839D-03
 -0.90616445D-03 -0.62936040D-04  0.62712960D-04  0.70818602D-04  0.20311715D-04
 -0.22016236D-04 -0.10826705D-03  0.16849641D-03 -0.16612264D-03 -0.10418876D-03
  0.39665193D-03
MO    3     MO 0.0        OCC NO =    2.0000000  ORB. ENERGY =  -26.343488
 -0.12675193D-14 -0.23709692D-14 -0.40945572D-14 -0.66137772D-14 -0.99602124D-14
 -0.13545842D-13 -0.15420568D-13 -0.12492774D-13 -0.50710640D-14 -0.46241128D-15
  0.17770568D-16 -0.59423501D-17 -0.33347122D-18  0.24655329D-14  0.46147987D-14
  0.79814719D-14  0.12972440D-13  0.19847727D-13  0.28165296D-13  0.35331025D-13
  0.36023041D-13  0.22133273D-13 -0.48237657D-14 -0.17668740D-13 -0.80810596D-14
  0.42894707D-16 -0.14618625D-14 -0.27341932D-14 -0.47348817D-14 -0.76877778D-14
 -0.11800583D-13 -0.16762202D-13 -0.21265512D-13 -0.22015551D-13 -0.14180690D-13
  0.34878145D-14  0.14217405D-13  0.12400051D-13 -0.63197116D-14  0.11161483D-13
 -0.69587736D-13 -0.89917039D-15  0.60479801D-02  0.79775975D-02  0.88611511D-02
  0.75838964D-02  0.43333774D-02  0.14062754D-02  0.99019913D-06  0.58808989D-02
  0.77572087D-02  0.86163533D-02  0.73743839D-02  0.42136637D-02  0.13674257D-02
  0.96284392D-06 -0.44835648D-04 -0.59140530D-04 -0.65690601D-04 -0.56221895D-04
 -0.32124739D-04 -0.10425178D-04 -0.73406688D-08 -0.52313830D-02 -0.71538490D-02
 -0.77769544D-02 -0.71388375D-02 -0.38909563D-02 -0.16419088D-02  0.56627444D-03
 -0.50868610D-02 -0.69562170D-02 -0.75621086D-02 -0.69416202D-02 -0.37834649D-02
 -0.15965495D-02  0.55063057D-03  0.38781947D-04  0.53033814D-04  0.57653097D-04
  0.52922529D-04  0.28844927D-04  0.12172005D-04 -0.41979770D-05  0.49870587D-04
  0.48492864D-04 -0.36970690D-06  0.46270303D-04  0.44992041D-04 -0.34301685D-06
 -0.26773796D-06 -0.26034144D-06  0.19848288D-08 -0.52479642D-15 -0.65391993D-15
  0.11787164D-14 -0.17942032D-06  0.23533789D-04  0.24202404D-04 -0.28692074D-15
 -0.42504806D-15  0.71196881D-15 -0.16543000D-05  0.21698741D-03  0.22315221D-03
 -0.23845064D-15 -0.29500459D-15  0.53345523D-15  0.13629255D-07 -0.17876909D-05
 -0.18384807D-05  0.34961387D-04  0.33995545D-04 -0.25918015D-06 -0.52442080D-04
 -0.50993317D-04  0.38877022D-06 -0.52442080D-04 -0.50993317D-04  0.38877022D-06
 -0.98440493D-14  0.11194670D-05  0.10885406D-05 -0.82989728D-08 -0.16792004D-05
 -0.16328109D-05  0.12448459D-07 -0.16792004D-05 -0.16328109D-05  0.12448459D-07
 -0.16870211D-14 -0.41947592D+00 -0.78192129D+00 -0.13255488D+01 -0.20072716D+01
 -0.25101002D+01 -0.21609624D+01 -0.83075285D+00  0.35997881D-02 -0.30976048D-03
 -0.58167532D-03 -0.99049276D-03 -0.15516010D-02 -0.20793279D-02 -0.22365976D-02
 -0.13428502D-02  0.88311481D-03 -0.40455751D-01 -0.12260477D-02 -0.73306703D-04
  0.28907815D-02  0.28271212D-02  0.18679985D-02  0.28901158D-02  0.28264701D-02
  0.18675683D-02  0.28665067D-02  0.28033809D-02  0.18523123D-02 -0.47505052D-03
 -0.47554457D-03 -0.49306659D-03  0.29598614D-03  0.29806306D-03  0.37172367D-03
  0.20937268D-05  0.23065716D-05  0.98553628D-05 -0.42382045D-04 -0.38988421D-04
  0.81370466D-04 -0.53353473D-04  0.17081953D-03  0.17714028D-03  0.14178077D-04
  0.13042807D-04 -0.27220885D-04  0.10301113D-03  0.32744566D-04  0.30763338D-04
  0.90840828D-05  0.83567001D-05 -0.17440783D-04 -0.12171619D-03 -0.17147358D-03
 -0.17287654D-03  0.16180050D-03  0.16235876D-03  0.18215797D-03 -0.58032111D-04
 -0.53662601D-04 -0.26803005D-03 -0.42736939D-03 -0.43341366D-03 -0.27844384D-03
 -0.90411668D-03 -0.62552983D-04 -0.62776243D-04 -0.70694395D-04  0.21450942D-04
  0.19745055D-04  0.10400082D-03  0.16620801D-03  0.16858367D-03  0.10808237D-03
  0.39575556D-03  0.42264109D+00  0.78782130D+00  0.13355508D+01  0.20224175D+01
  0.25290402D+01  0.21772680D+01  0.83702131D+00 -0.36269503D-02  0.31209779D-03
  0.58606437D-03  0.99796655D-03  0.15633087D-02  0.20950176D-02  0.22534739D-02
  0.13529827D-02 -0.88977837D-03  0.40761011D-01  0.12352988D-02  0.73859840D-04
  0.29124121D-02  0.28482755D-02  0.18819760D-02  0.29117465D-02  0.28476244D-02
  0.18815459D-02 -0.28884946D-02 -0.28248846D-02 -0.18665207D-02 -0.47876996D-03
 -0.47926401D-03  0.49652088D-03  0.29878678D-03  0.30086371D-03 -0.37340965D-03
  0.21676596D-05  0.23805044D-05 -0.98150635D-05  0.41774934D-04  0.38381310D-04
 -0.80156244D-04  0.50350951D-04  0.17042975D-03  0.17675050D-03 -0.13974980D-04
 -0.12839710D-04  0.26814691D-04 -0.10272108D-03  0.33517827D-04  0.31536599D-04
 -0.89539558D-05 -0.82265731D-05  0.17180529D-04  0.12339039D-03 -0.17239484D-03
 -0.17379779D-03  0.16317385D-03  0.16373210D-03 -0.18323170D-03 -0.62886633D-04
 -0.58517122D-04  0.26964066D-03 -0.42663490D-03 -0.43267918D-03  0.28005444D-03
  0.91093872D-03 -0.63085957D-04 -0.63309217D-04  0.71107547D-04  0.23345673D-04
  0.21639785D-04 -0.10462054D-03  0.16591220D-03  0.16828786D-03 -0.10870210D-03
 -0.39874175D-03  0.43149540D-02  0.80432613D-02  0.13635305D-01  0.20647871D-01
  0.25820235D-01  0.22228817D-01  0.85455688D-02 -0.37029348D-04  0.31863622D-05