 Molden2AIM, Version 4.0.0 (06/02/2016)           Time: Wed Jun 27 23:09:18 2018
GAUSSIAN              8 MOL ORBITALS    185 PRIMITIVES        3 NUCLEI
  Si   1    (CENTRE  1)   0.00000000  0.00000000 -0.70267954  CHARGE = 14.0
  H    2    (CENTRE  2)  -2.07956990  0.00000000  1.33206039  CHARGE =  1.0
  H    3    (CENTRE  3)   2.07956990  0.00000000  1.33206039  CHARGE =  1.0
CENTRE ASSIGNMENTS    1  1  1  1  1  1  1  1  1  1  1  1  1  1  1  1  1  1  1  1
CENTRE ASSIGNMENTS    1  1  1  1  1  1  1  1  1  1  1  1  1  1  1  1  1  1  1  1
CENTRE ASSIGNMENTS    1  1  1  1  1  1  1  1  1  1  1  1  1  1  1  1  1  1  1  1
CENTRE ASSIGNMENTS    1  1  1  1  1  1  1  1  1  1  1  1  1  1  1  1  1  1  1  1
CENTRE ASSIGNMENTS    1  1  1  1  1  1  1  1  1  1  1  1  1  1  1  1  1  1  1  1
CENTRE ASSIGNMENTS    1  1  1  1  1  1  1  1  1  1  1  1  1  1  1  1  1  1  1  1
CENTRE ASSIGNMENTS    1  1  1  1  1  1  1  1  1  1  1  2  2  2  2  2  2  2  2  2
CENTRE ASSIGNMENTS    2  2  2  2  2  2  2  2  2  2  2  2  2  2  2  2  2  2  3  3
CENTRE ASSIGNMENTS    3  3  3  3  3  3  3  3  3  3  3  3  3  3  3  3  3  3  3  3
CENTRE ASSIGNMENTS    3  3  3  3  3
TYPE ASSIGNMENTS      1  1  1  1  1  1  1  1  1  1  1  1  1  1  1  1  1  1  1  1
TYPE ASSIGNMENTS      1  1  1  1  1  1  1  1  1  1  1  1  1  1  1  1  1  1  1  1
TYPE ASSIGNMENTS      1  1  2  2  2  2  2  2  2  3  3  3  3  3  3  3  4  4  4  4
TYPE ASSIGNMENTS      4  4  4  2  2  2  2  2  2  2  3  3  3  3  3  3  3  4  4  4
TYPE ASSIGNMENTS      4  4  4  4  2  3  4  2  3  4  2  3  4  5  6  7  8  9 10  5
TYPE ASSIGNMENTS      6  7  8  9 10  5  6  7  8  9 10 11 12 13 17 14 15 18 19 16
TYPE ASSIGNMENTS     20 11 12 13 17 14 15 18 19 16 20  1  1  1  1  1  1  2  3  4
TYPE ASSIGNMENTS      2  3  4  2  3  4  5  6  7  8  9 10  5  6  7  8  9 10  1  1
TYPE ASSIGNMENTS      1  1  1  1  2  3  4  2  3  4  2  3  4  5  6  7  8  9 10  5
TYPE ASSIGNMENTS      6  7  8  9 10
EXPONENTS  0.2549000D+06 0.3819000D+05 0.8690000D+04 0.2462000D+04 0.8048000D+03
EXPONENTS  0.2913000D+03 0.1136000D+03 0.4675000D+02 0.1982000D+02 0.7708000D+01
EXPONENTS  0.3340000D+01 0.1402000D+01 0.2070000D+00 0.2549000D+06 0.3819000D+05
EXPONENTS  0.8690000D+04 0.2462000D+04 0.8048000D+03 0.2913000D+03 0.1136000D+03
EXPONENTS  0.4675000D+02 0.1982000D+02 0.7708000D+01 0.3340000D+01 0.1402000D+01
EXPONENTS  0.2070000D+00 0.2549000D+06 0.3819000D+05 0.8690000D+04 0.2462000D+04
EXPONENTS  0.8048000D+03 0.2913000D+03 0.1136000D+03 0.4675000D+02 0.1982000D+02
EXPONENTS  0.7708000D+01 0.3340000D+01 0.1402000D+01 0.2070000D+00 0.4387000D+00
EXPONENTS  0.7944000D-01 0.3300000D-01 0.4815000D+03 0.1139000D+03 0.3623000D+02
EXPONENTS  0.1334000D+02 0.5252000D+01 0.2120000D+01 0.2528000D+00 0.4815000D+03
EXPONENTS  0.1139000D+03 0.3623000D+02 0.1334000D+02 0.5252000D+01 0.2120000D+01
EXPONENTS  0.2528000D+00 0.4815000D+03 0.1139000D+03 0.3623000D+02 0.1334000D+02
EXPONENTS  0.5252000D+01 0.2120000D+01 0.2528000D+00 0.4815000D+03 0.1139000D+03
EXPONENTS  0.3623000D+02 0.1334000D+02 0.5252000D+01 0.2120000D+01 0.2528000D+00
EXPONENTS  0.4815000D+03 0.1139000D+03 0.3623000D+02 0.1334000D+02 0.5252000D+01
EXPONENTS  0.2120000D+01 0.2528000D+00 0.4815000D+03 0.1139000D+03 0.3623000D+02
EXPONENTS  0.1334000D+02 0.5252000D+01 0.2120000D+01 0.2528000D+00 0.8561000D+00
EXPONENTS  0.8561000D+00 0.8561000D+00 0.7889000D-01 0.7889000D-01 0.7889000D-01
EXPONENTS  0.2370000D-01 0.2370000D-01 0.2370000D-01 0.1590000D+00 0.1590000D+00
EXPONENTS  0.1590000D+00 0.1590000D+00 0.1590000D+00 0.1590000D+00 0.4810000D+00
EXPONENTS  0.4810000D+00 0.4810000D+00 0.4810000D+00 0.4810000D+00 0.4810000D+00
EXPONENTS  0.5560000D-01 0.5560000D-01 0.5560000D-01 0.5560000D-01 0.5560000D-01
EXPONENTS  0.5560000D-01 0.3360000D+00 0.3360000D+00 0.3360000D+00 0.3360000D+00
EXPONENTS  0.3360000D+00 0.3360000D+00 0.3360000D+00 0.3360000D+00 0.3360000D+00
EXPONENTS  0.3360000D+00 0.1250000D+00 0.1250000D+00 0.1250000D+00 0.1250000D+00
EXPONENTS  0.1250000D+00 0.1250000D+00 0.1250000D+00 0.1250000D+00 0.1250000D+00
EXPONENTS  0.1250000D+00 0.3387000D+02 0.5095000D+01 0.1159000D+01 0.3258000D+00
EXPONENTS  0.1027000D+00 0.2526000D-01 0.1407000D+01 0.1407000D+01 0.1407000D+01
EXPONENTS  0.3880000D+00 0.3880000D+00 0.3880000D+00 0.1020000D+00 0.1020000D+00
EXPONENTS  0.1020000D+00 0.1057000D+01 0.1057000D+01 0.1057000D+01 0.1057000D+01
EXPONENTS  0.1057000D+01 0.1057000D+01 0.2470000D+00 0.2470000D+00 0.2470000D+00
EXPONENTS  0.2470000D+00 0.2470000D+00 0.2470000D+00 0.3387000D+02 0.5095000D+01
EXPONENTS  0.1159000D+01 0.3258000D+00 0.1027000D+00 0.2526000D-01 0.1407000D+01
EXPONENTS  0.1407000D+01 0.1407000D+01 0.3880000D+00 0.3880000D+00 0.3880000D+00
EXPONENTS  0.1020000D+00 0.1020000D+00 0.1020000D+00 0.1057000D+01 0.1057000D+01
EXPONENTS  0.1057000D+01 0.1057000D+01 0.1057000D+01 0.1057000D+01 0.2470000D+00
EXPONENTS  0.2470000D+00 0.2470000D+00 0.2470000D+00 0.2470000D+00 0.2470000D+00
MO    1     MO 0.0        OCC NO =    2.0000000  ORB. ENERGY =  -68.805569
  0.50541230D+00  0.94540332D+00  0.16326690D+01  0.26371861D+01  0.39715480D+01
  0.54012866D+01  0.61488171D+01  0.49813851D+01  0.20220426D+01  0.18438247D+00
 -0.70858595D-02  0.23694604D-02  0.13296875D-03 -0.17070469D-04 -0.31951217D-04
 -0.55260859D-04 -0.89816537D-04 -0.13741857D-03 -0.19500645D-03 -0.24461939D-03
 -0.24941066D-03 -0.15324287D-03  0.33398030D-04  0.12233204D-03  0.55950369D-04
 -0.29698762D-06  0.65163710D-05  0.12187889D-04  0.21106121D-04  0.34268895D-04
  0.52602061D-04  0.74718881D-04  0.94792753D-04  0.98136111D-04  0.63211580D-04
 -0.15547217D-04 -0.63375242D-04 -0.55274238D-04  0.28170629D-04 -0.43839124D-03
 -0.38742170D-04  0.15701710D-04 -0.93608703D-15 -0.12347470D-14 -0.13715006D-14
 -0.11738112D-14 -0.67070630D-15 -0.21765882D-15 -0.15325986D-18 -0.88961988D-17
 -0.11734545D-16 -0.13034197D-16 -0.11155435D-16 -0.63741260D-17 -0.20685428D-17
 -0.14565207D-20  0.68141015D-03  0.89881511D-03  0.99836279D-03  0.85445783D-03
  0.48823034D-03  0.15844139D-03  0.11156315D-06  0.77325925D-15  0.10574221D-14
  0.11495243D-14  0.10552032D-14  0.57512860D-15  0.24269322D-15 -0.83701949D-16
  0.14322554D-17  0.19585909D-17  0.21291856D-17  0.19544810D-17  0.10652715D-17
  0.44952412D-18 -0.15503542D-18 -0.57854430D-04 -0.79115189D-04 -0.86006180D-04
 -0.78949176D-04 -0.43030507D-04 -0.18158047D-04  0.62624903D-05  0.50722268D-16
  0.83453837D-18 -0.78347374D-04 -0.82064449D-16 -0.49293565D-20  0.14870305D-05
 -0.22182917D-17 -0.70865013D-21  0.56828428D-06  0.18545494D-08 -0.16123713D-05
  0.16105167D-05  0.70314443D-20 -0.45942352D-16 -0.27992869D-19 -0.49740731D-05
  0.10409897D-04 -0.54358237D-05 -0.38938837D-19 -0.87495818D-17  0.22774335D-19
  0.25669381D-07 -0.64135607D-07  0.38466227D-07 -0.15032352D-21 -0.60802066D-17
 -0.58080958D-21  0.23624437D-17  0.10713206D-19  0.57591459D-06  0.22405173D-17
 -0.15832176D-19 -0.13979766D-05 -0.93278486D-17 -0.16307441D-19 -0.32976716D-06
  0.30967852D-19  0.39585404D-18  0.72059353D-21  0.10537296D-07  0.13825446D-17
 -0.67510136D-21  0.31120290D-06 -0.25701067D-17 -0.14866792D-20 -0.34281479D-06
  0.79997456D-22 -0.19552081D-05 -0.35262983D-05 -0.51995248D-05 -0.63982820D-05
  0.72474229D-06 -0.34420090D-05  0.45695169D-05 -0.56055283D-19 -0.19025382D-06
  0.82545074D-06  0.57565510D-19 -0.54562253D-05  0.35657337D-06  0.17500129D-19
 -0.10725091D-05  0.73421024D-05 -0.15162460D-04  0.78203580D-05 -0.13413697D-19
 -0.45801070D-04  0.29986190D-19 -0.17573035D-06 -0.92379749D-06  0.10995278D-05
  0.27375213D-19 -0.38892824D-05 -0.27016538D-19 -0.19552081D-05 -0.35262983D-05
 -0.51995248D-05 -0.63982820D-05  0.72474229D-06 -0.34420090D-05 -0.45695169D-05
 -0.45100472D-19 -0.19025382D-06 -0.82545074D-06  0.48351655D-19 -0.54562253D-05
 -0.35657337D-06  0.13523893D-19 -0.10725091D-05  0.73421024D-05 -0.15162460D-04
  0.78203580D-05  0.52901776D-20  0.45801070D-04 -0.87985380D-21 -0.17573035D-06
 -0.92379749D-06  0.10995278D-05 -0.29629043D-19  0.38892824D-05 -0.21864161D-19
MO    2     MO 0.0        OCC NO =    2.0000000  ORB. ENERGY =   -6.150025
 -0.30545719D-03 -0.57137557D-03 -0.98673994D-03 -0.15938422D-02 -0.24002936D-02
 -0.32643879D-02 -0.37161747D-02 -0.30106111D-02 -0.12220665D-02 -0.11143566D-03
  0.42824971D-05 -0.14320362D-05 -0.80362626D-07 -0.13395219D+00 -0.25072161D+00
 -0.43363267D+00 -0.70479152D+00 -0.10783253D+01 -0.15302181D+01 -0.19195315D+01
 -0.19571287D+01 -0.12024988D+01  0.26207477D+00  0.95994109D+00  0.43904326D+00
 -0.23304657D-02 -0.27345838D-03 -0.51146264D-03 -0.88571471D-03 -0.14380883D-02
 -0.22074364D-02 -0.31355650D-02 -0.39779615D-02 -0.41182650D-02 -0.26526631D-02
  0.65243628D-03  0.26595311D-02  0.23195739D-02 -0.11821756D-02  0.19123074D-01
  0.68612190D-03 -0.13822327D-03 -0.66957716D-14 -0.88320678D-14 -0.98102578D-14
 -0.83961979D-14 -0.47975200D-14 -0.15568998D-14 -0.10962581D-17 -0.35011301D-15
 -0.46181710D-15 -0.51296535D-15 -0.43902604D-15 -0.25085595D-15 -0.81408224D-16
 -0.57321881D-19  0.22625569D-01  0.29844291D-01  0.33149676D-01  0.28371451D-01
  0.16211219D-01  0.52608939D-02  0.37043472D-05  0.59019659D-14  0.80708624D-14
  0.87738404D-14  0.80539267D-14  0.43897171D-14  0.18523763D-14 -0.63886212D-15
 -0.37587751D-16 -0.51400766D-16 -0.55877809D-16 -0.51292907D-16 -0.27956717D-16
 -0.11797198D-16  0.40687104D-17  0.58890073D-02  0.80531418D-02  0.87545763D-02
  0.80362432D-02  0.43800789D-02  0.18483092D-02 -0.63745942D-03 -0.17938359D-15
 -0.25887539D-16  0.25513415D-02 -0.53435291D-15  0.13336362D-18  0.65462865D-04
 -0.14351575D-15  0.15764128D-19 -0.56031932D-05  0.97893783D-05 -0.19428527D-04
  0.96391488D-05 -0.16623332D-18  0.53674650D-15  0.47511162D-18 -0.21272894D-03
  0.63121245D-03 -0.41848351D-03  0.40922492D-17 -0.21819888D-15  0.89143074D-18
  0.13567122D-06 -0.58172912D-06  0.44605790D-06 -0.56310992D-20 -0.42614049D-16
  0.22956167D-19 -0.59253926D-16 -0.64736500D-19  0.58521069D-05 -0.16452134D-15
  0.89669175D-19 -0.12704894D-03  0.34228312D-15  0.10454032D-18  0.10949262D-03
  0.93881123D-18 -0.47901888D-16 -0.24890355D-19 -0.48977961D-06 -0.64489207D-18
  0.49594153D-19  0.54218988D-05  0.14435056D-15  0.25076911D-19 -0.39525600D-05
 -0.10373558D-18  0.83571473D-05  0.15072459D-04  0.22224332D-04  0.61040569D-03
 -0.13990396D-03  0.29193205D-04 -0.34579083D-04  0.56724577D-18 -0.44057171D-04
  0.42185718D-03 -0.36110411D-18 -0.33042129D-03 -0.64547998D-05 -0.48904309D-18
  0.59076966D-05  0.16770943D-03 -0.24122477D-03  0.73515337D-04  0.14833425D-17
 -0.61153441D-03 -0.13756250D-17  0.17478929D-04 -0.86377502D-05 -0.88411783D-05
 -0.18206983D-18 -0.27342701D-04  0.37730402D-18  0.83571473D-05  0.15072459D-04
  0.22224332D-04  0.61040569D-03 -0.13990396D-03  0.29193205D-04  0.34579083D-04
  0.12103017D-17 -0.44057171D-04 -0.42185718D-03 -0.22404165D-17 -0.33042129D-03
  0.64547998D-05 -0.25332684D-18  0.59076966D-05  0.16770943D-03 -0.24122477D-03
  0.73515337D-04  0.20102456D-17  0.61153441D-03  0.23562360D-17  0.17478929D-04
 -0.86377502D-05 -0.88411783D-05  0.10284199D-17  0.27342701D-04  0.74100621D-18
MO    3     MO 0.0        OCC NO =    2.0000000  ORB. ENERGY =   -4.252841
 -0.10930128D-15 -0.20445445D-15 -0.35308365D-15 -0.57032213D-15 -0.85889339D-15
 -0.11680910D-14 -0.13297531D-14 -0.10772824D-14 -0.43729021D-15 -0.39874852D-16
  0.15323994D-17 -0.51242333D-18 -0.28756036D-19  0.21315866D-15  0.39897431D-15
  0.69004142D-15  0.11215376D-14  0.17159434D-14  0.24350422D-14  0.30545583D-14
  0.31143868D-14  0.19135412D-14 -0.41704064D-15 -0.15275581D-14 -0.69865132D-15
  0.37084795D-17 -0.11832177D-15 -0.22130302D-15 -0.38323687D-15 -0.62224150D-15
 -0.95512811D-15 -0.13567169D-14 -0.17212105D-14 -0.17819180D-14 -0.11477717D-14
  0.28230042D-15  0.11507434D-14  0.10036485D-14 -0.51151151D-15  0.11891182D-15
  0.55117772D-15 -0.85176130D-17 -0.76502420D-12 -0.10091063D-11 -0.11208693D-11
 -0.95930610D-12 -0.54813980D-12 -0.17788331D-12 -0.12525278D-15  0.61586589D+01
  0.81235885D+01  0.90233113D+01  0.77226826D+01  0.44126788D+01  0.14320105D+01
  0.10083199D-02  0.81570092D-13  0.10759515D-12  0.11951179D-12  0.10228524D-12
  0.58444966D-13  0.18966666D-13  0.13354977D-16 -0.81039000D-15 -0.11081979D-14
 -0.12047227D-14 -0.11058725D-14 -0.60274541D-15 -0.25434699D-15  0.87721190D-16
  0.31280855D-02  0.42776167D-02  0.46502002D-02  0.42686406D-02  0.23265825D-02
  0.98177312D-03 -0.33860164D-03  0.17161854D-14  0.23468615D-14  0.25512748D-14
  0.23419369D-14  0.12764507D-14  0.53863768D-15 -0.18576960D-15 -0.19180490D-13
  0.15933074D+00  0.21955689D-14 -0.31343370D-16 -0.31620313D-04  0.16503449D-15
 -0.83156053D-18 -0.13990141D-05 -0.15632851D-17  0.14534173D-16 -0.23396923D-16
  0.88627500D-17 -0.19502984D-15 -0.35932543D-17 -0.17224403D-03 -0.37636215D-16
  0.12179040D-15 -0.84154185D-16 -0.24992654D-15  0.11315229D-15  0.62991116D-03
  0.22523340D-17 -0.57436981D-17  0.34913641D-17 -0.14526100D-16 -0.35252509D-17
  0.10006441D-05 -0.20268762D-17  0.75547901D-04  0.21332463D-16 -0.29341983D-16
 -0.91196200D-04 -0.10357930D-15  0.35422612D-16 -0.13544750D-03  0.39581909D-16
 -0.15751296D-15  0.10480604D-18  0.37181429D-06 -0.26960648D-18  0.31347396D-17
 -0.93051099D-07  0.70421178D-17 -0.34491577D-17 -0.10223918D-05 -0.62332984D-17
 -0.48873387D-16 -0.21693951D-17 -0.39125935D-17 -0.57691168D-17  0.23853801D-15
 -0.26603600D-15  0.27159470D-18  0.37304399D-16  0.54250198D-04 -0.28762302D-15
  0.26286939D-15  0.20066261D-03 -0.15283428D-15  0.30426099D-16  0.51490227D-04
 -0.15478667D-17 -0.15750512D-15  0.45584181D-16  0.11192094D-15  0.40973938D-04
  0.61409351D-16 -0.70040200D-04  0.50350645D-16 -0.28529226D-16 -0.21821419D-16
  0.88596097D-04 -0.94956602D-16 -0.60541378D-04 -0.10838071D-15 -0.19546907D-15
 -0.28821903D-15  0.16587013D-15 -0.46084190D-15  0.33653300D-17 -0.52856443D-15
  0.54250198D-04  0.74979757D-16 -0.13760627D-16  0.20066261D-03 -0.89161440D-17
  0.79605909D-16  0.51490227D-04  0.12649077D-16  0.95007737D-16 -0.11018118D-15
  0.15173441D-16 -0.40973938D-04 -0.65732931D-16 -0.70040200D-04 -0.38084492D-16
  0.32552518D-16  0.55319733D-17 -0.88596097D-04  0.52867794D-16 -0.60541378D-04
MO    4     MO 0.0        OCC NO =    2.0000000  ORB. ENERGY =   -4.251322
  0.11196487D-15  0.20943685D-15  0.36168802D-15  0.58422044D-15  0.87982396D-15
  0.11965564D-14  0.13621582D-14  0.11035349D-14  0.44794663D-15  0.40846571D-16
 -0.15697428D-17  0.52491069D-18  0.29456798D-19 -0.22452730D-15 -0.42025328D-15
 -0.72684421D-15 -0.11813539D-14 -0.18074618D-14 -0.25649132D-14 -0.32174706D-14
 -0.32804900D-14 -0.20155983D-14  0.43928316D-15  0.16090292D-14  0.73591331D-15
 -0.39062682D-17  0.13787302D-15  0.25787069D-15  0.44656216D-15  0.72505943D-15
  0.11129516D-14  0.15808980D-14  0.20056199D-14  0.20763585D-14  0.13374272D-14
 -0.32894718D-15 -0.13408899D-14 -0.11694893D-14  0.59603264D-15  0.23906700D-16
  0.59949828D-14  0.12891312D-15  0.61805937D+01  0.81525216D+01  0.90554488D+01
  0.77501878D+01  0.44283950D+01  0.14371107D+01  0.10119111D-02  0.76518116D-12
  0.10093134D-11  0.11210992D-11  0.95950292D-12  0.54825226D-12  0.17791981D-12
  0.12527847D-15  0.47893842D-13  0.63174446D-13  0.70171291D-13  0.60056734D-13
  0.34315935D-13  0.11136269D-13  0.78413685D-17 -0.22754683D-02 -0.31116737D-02
 -0.33827027D-02 -0.31051442D-02 -0.16924297D-02 -0.71417282D-03  0.24630955D-03
 -0.14868266D-15 -0.20332163D-15 -0.22103109D-15 -0.20289499D-15 -0.11058601D-15
 -0.46665171D-16  0.16094251D-16 -0.10706639D-13 -0.14641192D-13 -0.15916450D-13
 -0.14610469D-13 -0.79632989D-14 -0.33603592D-14  0.11589471D-14  0.15455513D+00
  0.19578156D-13  0.27978056D-15 -0.52419844D-04  0.61778403D-18  0.14561558D-14
  0.16031353D-05 -0.18738489D-18 -0.11074860D-16  0.19102749D-15 -0.24647375D-15
  0.55446264D-16  0.20722686D-16 -0.87618990D-04 -0.12429098D-16 -0.13056715D-15
  0.12428032D-15  0.62868292D-17 -0.22132480D-16  0.11520036D-02  0.10373809D-15
  0.13057350D-16 -0.33219672D-16  0.20162322D-16 -0.27923320D-17 -0.33573692D-05
  0.26843822D-17 -0.33370444D-04  0.48368940D-17 -0.33750436D-16  0.21617041D-04
 -0.39468522D-17  0.31075555D-16  0.78494291D-04 -0.10563830D-16  0.70175753D-16
  0.24526484D-17  0.21635623D-05 -0.18579926D-18 -0.75262490D-17  0.27933440D-05
  0.33737245D-18  0.51305090D-16 -0.92840308D-05  0.22002534D-18 -0.28726343D-16
 -0.29010525D-18 -0.19126713D-03 -0.34495814D-03 -0.50864057D-03 -0.39319765D-04
  0.46091102D-05  0.63194493D-05 -0.37608420D-03  0.55680836D-17  0.49080554D-03
  0.23582569D-03  0.68457501D-17 -0.15332232D-03  0.32195565D-04  0.90016622D-19
 -0.19885314D-04  0.14849688D-03 -0.15368426D-03  0.51873778D-05 -0.86479736D-17
 -0.57775800D-03 -0.28668933D-16  0.31416297D-04 -0.31031779D-04 -0.38451871D-06
  0.13521491D-17 -0.67398679D-04  0.23905221D-17  0.19126713D-03  0.34495814D-03
  0.50864057D-03  0.39319765D-04 -0.46091102D-05 -0.63194493D-05 -0.37608420D-03
 -0.40789362D-17 -0.49080554D-03  0.23582569D-03  0.82994407D-17  0.15332232D-03
  0.32195565D-04  0.12452727D-17  0.19885314D-04 -0.14849688D-03  0.15368426D-03
 -0.51873778D-05  0.42525148D-16 -0.57775800D-03  0.26273549D-16 -0.31416297D-04
  0.31031779D-04  0.38451871D-06 -0.29037310D-17 -0.67398679D-04  0.35067694D-18
MO    5     MO 0.0        OCC NO =    2.0000000  ORB. ENERGY =   -4.250705
 -0.23039199D-03 -0.43096172D-03 -0.74425152D-03 -0.12021602D-02 -0.18104285D-02
 -0.24621743D-02 -0.28029358D-02 -0.22707624D-02 -0.92174731D-03 -0.84050676D-04
  0.32300862D-05 -0.10801175D-05 -0.60613749D-07  0.10784458D-02  0.20185536D-02
  0.34911661D-02  0.56742595D-02  0.86815706D-02  0.12319749D-01  0.15454102D-01
  0.15756795D-01  0.96812885D-02 -0.21099576D-02 -0.77284625D-02 -0.35347267D-02
  0.18762523D-04 -0.59054812D-04 -0.11045311D-03 -0.19127487D-03 -0.31056292D-03
 -0.47670779D-03 -0.67714216D-03 -0.85906223D-03 -0.88936152D-03 -0.57285689D-03
  0.14089713D-03  0.57434007D-03  0.50092448D-03 -0.25529719D-03  0.11101880D-02
 -0.67422456D-04 -0.42580892D-04 -0.44328363D-13 -0.58471396D-13 -0.64947357D-13
 -0.55585783D-13 -0.31761270D-13 -0.10307224D-13 -0.72576142D-17 -0.83643896D-13
 -0.11033061D-12 -0.12255020D-12 -0.10488570D-12 -0.59930847D-13 -0.19448866D-13
 -0.13694508D-16  0.61843527D+01  0.81574800D+01  0.90609564D+01  0.77549015D+01
  0.44310884D+01  0.14379848D+01  0.10125266D-02  0.75992805D-14  0.10391918D-13
  0.11297062D-13  0.10370112D-13  0.56521322D-14  0.23850912D-14 -0.82258904D-15
 -0.47151967D-16 -0.64479709D-16 -0.70095938D-16 -0.64344406D-16 -0.35070314D-16
 -0.14798999D-16  0.51039953D-17 -0.23091127D-03 -0.31576819D-03 -0.34327183D-03
 -0.31510559D-03 -0.17174534D-03 -0.72473236D-04  0.24995140D-04 -0.26072149D-15
 -0.21534593D-14  0.15288446D+00 -0.39063934D-15  0.51913945D-18 -0.73189901D-04
 -0.90023390D-17  0.64454665D-20 -0.72253155D-06  0.33383762D-04  0.35163057D-04
 -0.68546819D-04 -0.26773445D-18 -0.45294869D-15  0.26889507D-17 -0.22638592D-03
 -0.25688715D-03  0.48327307D-03  0.82582136D-18 -0.57816941D-15 -0.16518556D-16
  0.29803893D-06  0.60557814D-06 -0.90361707D-06 -0.12077168D-19 -0.28724073D-16
 -0.32313112D-19  0.47196488D-16 -0.81178531D-18 -0.34346917D-04  0.14230422D-15
  0.81360882D-18  0.28502584D-04 -0.28389369D-15  0.16217471D-17  0.74538167D-04
  0.64189951D-18  0.84780403D-17 -0.85211178D-20 -0.22693185D-06  0.11068956D-16
 -0.78312620D-20 -0.42221257D-06 -0.36503076D-16  0.33394615D-19  0.11030081D-05
 -0.10735173D-18  0.17002331D-03  0.30664404D-03  0.45214646D-03  0.15277210D-03
  0.95449958D-04  0.93130223D-05  0.44658108D-03 -0.13151320D-17 -0.28674521D-03
  0.23666411D-04 -0.91935530D-18  0.20918049D-04  0.20136415D-04 -0.80476830D-18
  0.16067446D-04 -0.81011856D-04  0.72010605D-04  0.90012503D-05  0.21272163D-17
  0.22223254D-03 -0.12362162D-17 -0.33692102D-05 -0.80972932D-06  0.41789395D-05
 -0.40846899D-18  0.25411954D-04  0.19493430D-18  0.17002331D-03  0.30664404D-03
  0.45214646D-03  0.15277210D-03  0.95449958D-04  0.93130223D-05 -0.44658108D-03
 -0.14134432D-17 -0.28674521D-03 -0.23666411D-04 -0.29034027D-17  0.20918049D-04
 -0.20136415D-04 -0.53097137D-18  0.16067446D-04 -0.81011856D-04  0.72010605D-04
  0.90012503D-05 -0.10485519D-19 -0.22223254D-03  0.15309842D-17 -0.33692102D-05
 -0.80972932D-06  0.41789395D-05  0.14161455D-17 -0.25411954D-04  0.39321995D-18
MO    6     MO 0.0        OCC NO =    2.0000000  ORB. ENERGY =   -0.671053
  0.11394084D-03  0.21313302D-03  0.36807115D-03  0.59453086D-03  0.89535124D-03
  0.12176735D-02  0.13861978D-02  0.11230103D-02  0.45585207D-03  0.41567438D-04
 -0.15974459D-05  0.53417440D-06  0.29976657D-07  0.91998999D-03  0.17219679D-02
  0.29782098D-02  0.48405417D-02  0.74059893D-02  0.10509611D-01  0.13183434D-01
  0.13441653D-01  0.82588188D-02 -0.17999420D-02 -0.65929211D-02 -0.30153700D-02
  0.16005749D-04  0.26734183D-01  0.50002255D-01  0.86590357D-01  0.14059220D+00
  0.21580618D+00  0.30654305D+00  0.38889848D+00  0.40261501D+00  0.25933299D+00
 -0.63784297D-01 -0.26000443D+00 -0.22676910D+00  0.11557334D+00  0.25422428D-01
  0.16931922D-01 -0.17355016D-02 -0.86261242D-14 -0.11378302D-13 -0.12638499D-13
 -0.10816774D-13 -0.61806175D-14 -0.20057451D-14 -0.14123030D-17  0.15168508D-14
  0.20008044D-14  0.22224021D-14  0.19020630D-14  0.10868235D-14  0.35269792D-15
  0.24834479D-18 -0.10091625D+00 -0.13311373D+00 -0.14785666D+00 -0.12654446D+00
 -0.72306487D-01 -0.23465031D-01 -0.16522406D-04  0.87360190D-14  0.11946394D-13
  0.12986933D-13  0.11921326D-13  0.64976065D-14  0.27418651D-14 -0.94563604D-15
 -0.42278922D-15 -0.57815882D-15 -0.62851687D-15 -0.57694562D-15 -0.31445879D-15
 -0.13269557D-15  0.45765093D-16 -0.23231598D+00 -0.31768911D+00 -0.34536006D+00
 -0.31702248D+00 -0.17279012D+00 -0.72914114D-01  0.25147193D-01  0.11849703D-14
  0.63541860D-16  0.13037789D-01  0.83781884D-15  0.11276339D-16 -0.63464143D-03
  0.84665677D-15 -0.23622722D-18 -0.83357812D-04  0.48049206D-03 -0.10375349D-02
  0.55704286D-03 -0.14074056D-16 -0.88698691D-15  0.35031154D-17  0.57098159D-02
 -0.10391492D-01  0.46816764D-02 -0.23386600D-16 -0.12981669D-15 -0.24177341D-17
 -0.39914629D-04  0.40860624D-04 -0.94599583D-06 -0.11741686D-17  0.45252800D-15
  0.10939818D-18  0.19665008D-17  0.36296031D-18 -0.58307348D-03  0.54601907D-15
 -0.63367652D-18  0.38851526D-02 -0.55191858D-15 -0.45520441D-18 -0.21359321D-02
 -0.37936558D-16 -0.44295718D-16 -0.33991064D-18  0.17364031D-04  0.96724067D-17
  0.70745776D-18 -0.67675879D-04  0.12321475D-15  0.31227417D-18  0.15583785D-04
 -0.86091140D-17  0.24572639D-01  0.44317766D-01  0.65346520D-01  0.48208383D-01
  0.12459548D-01  0.42056633D-03  0.11569467D-01 -0.15178824D-17 -0.96875606D-02
  0.41856535D-02  0.43762551D-17 -0.38179382D-02  0.25735699D-03 -0.30350578D-16
 -0.37006381D-03  0.18256364D-02 -0.24223024D-02  0.59666596D-03 -0.20743200D-16
 -0.76624944D-02 -0.14358000D-16 -0.16751227D-03  0.24870664D-03 -0.81194375D-04
  0.17173616D-16  0.94612172D-04  0.17359421D-16  0.24572639D-01  0.44317766D-01
  0.65346520D-01  0.48208383D-01  0.12459548D-01  0.42056633D-03 -0.11569467D-01
  0.54568879D-17 -0.96875606D-02 -0.41856535D-02 -0.90557479D-17 -0.38179382D-02
 -0.25735699D-03  0.18044406D-16 -0.37006381D-03  0.18256364D-02 -0.24223024D-02
  0.59666596D-03 -0.18679246D-16  0.76624944D-02  0.97097882D-17 -0.16751227D-03
  0.24870664D-03 -0.81194375D-04  0.10534018D-16 -0.94612172D-04 -0.12202925D-16
MO    7     MO 0.0        OCC NO =    2.0000000  ORB. ENERGY =   -0.453892
 -0.15238230D-14 -0.28504002D-14 -0.49225130D-14 -0.79511417D-14 -0.11974256D-13
 -0.16284931D-13 -0.18538743D-13 -0.15018924D-13 -0.60964781D-14 -0.55591495D-15
  0.21363935D-16 -0.71439460D-17 -0.40090206D-18  0.28054293D-14  0.52509911D-14
  0.90817911D-14  0.14760810D-13  0.22583919D-13  0.32048141D-13  0.40201732D-13
  0.40989148D-13  0.25184548D-13 -0.54887661D-14 -0.20104538D-13 -0.91951079D-14
  0.48808137D-16 -0.13769711D-14 -0.25754167D-14 -0.44599238D-14 -0.72413432D-14
 -0.11115315D-13 -0.15788810D-13 -0.20030609D-13 -0.20737093D-13 -0.13357207D-13
  0.32852747D-14  0.13391791D-13  0.11679972D-13 -0.59527216D-14  0.11044485D-13
 -0.10119073D-12 -0.80737423D-14 -0.94246603D-01 -0.12431613D+00 -0.13808468D+00
 -0.11818102D+00 -0.67527686D-01 -0.21914206D-01 -0.15430425D-04 -0.22974739D-14
 -0.30304864D-14 -0.33661260D-14 -0.28809294D-14 -0.16461399D-14 -0.53420828D-15
 -0.37615147D-18 -0.17186424D-12 -0.22669779D-12 -0.25180555D-12 -0.21551006D-12
 -0.12314072D-12 -0.39961847D-13 -0.28138290D-16 -0.82204344D+00 -0.11241338D+01
 -0.12220467D+01 -0.11217750D+01 -0.61141292D+00 -0.25800451D+00  0.88982625D-01
  0.39571060D-14  0.54112915D-14  0.58826189D-14  0.53999366D-14  0.29431847D-14
  0.12419674D-14 -0.42833950D-15  0.15512476D-12  0.21213112D-12  0.23060789D-12
  0.21168599D-12  0.11537746D-12  0.48687072D-13 -0.16791581D-13  0.42587357D-01
  0.80867041D-15  0.10021238D-13  0.85850408D-02 -0.99409920D-16 -0.26567593D-13
 -0.17997421D-03  0.94226336D-17 -0.15786775D-15 -0.39524866D-14  0.45092028D-14
 -0.55671623D-15  0.81976919D-17  0.91918238D-02 -0.26111534D-15 -0.46776435D-14
  0.41303998D-14  0.54724371D-15  0.88535219D-17  0.64145769D-01 -0.41562360D-15
 -0.25302203D-15  0.72512880D-15 -0.47210677D-15  0.60461258D-17  0.74310295D-04
 -0.28402409D-17 -0.10393904D-02  0.43775778D-16  0.28444014D-14 -0.32748810D-02
 -0.42207182D-16 -0.84077857D-14  0.63930523D-02 -0.89120153D-16 -0.12541855D-15
 -0.33970871D-16 -0.33636482D-04 -0.27002022D-17 -0.12191847D-15 -0.19720786D-04
  0.12556105D-16 -0.22112856D-15  0.12063023D-03 -0.44554986D-17  0.58688398D-15
 -0.98285824D-17 -0.34050789D-01 -0.61412001D-01 -0.90551960D-01 -0.65810812D-01
 -0.21977923D-01 -0.10515067D-02 -0.66290563D-02 -0.34630737D-16  0.10925060D-01
  0.15578450D-02  0.15369756D-15  0.24950481D-02 -0.70012066D-03  0.10708861D-15
  0.44278477D-03  0.15526860D-02 -0.12192783D-03 -0.14307582D-02  0.48707151D-16
  0.23195037D-02  0.60560125D-16  0.12671252D-03 -0.24591562D-03  0.11920310D-03
  0.72164035D-16 -0.83637819D-03 -0.77972817D-16  0.34050789D-01  0.61412001D-01
  0.90551960D-01  0.65810812D-01  0.21977923D-01  0.10515067D-02 -0.66290563D-02
  0.46096552D-17 -0.10925060D-01  0.15578450D-02  0.13966402D-15 -0.24950481D-02
 -0.70012066D-03  0.94863693D-16 -0.44278477D-03 -0.15526860D-02  0.12192783D-03
  0.14307582D-02 -0.19398767D-15  0.23195037D-02 -0.20679904D-15 -0.12671252D-03
  0.24591562D-03 -0.11920310D-03 -0.82146052D-16 -0.83637819D-03 -0.85719618D-16
MO    8     MO 0.0        OCC NO =    2.0000000  ORB. ENERGY =   -0.340234
 -0.45048535D-03 -0.84265924D-03 -0.14552346D-02 -0.23505833D-02 -0.35399300D-02
 -0.48142881D-02 -0.54805790D-02 -0.44400205D-02 -0.18022921D-02 -0.16434424D-03
  0.63157859D-05 -0.21119533D-05 -0.11851803D-06 -0.48577313D-06 -0.90923354D-06
 -0.15725544D-05 -0.25559029D-05 -0.39105106D-05 -0.55492848D-05 -0.69611169D-05
 -0.70974617D-05 -0.43608216D-05  0.95040539D-06  0.34811943D-05  0.15921757D-05
 -0.84513560D-08  0.17328308D-01  0.32409986D-01  0.56125314D-01  0.91127713D-01
  0.13987920D+00  0.19869216D+00  0.25207252D+00  0.26096317D+00  0.16809199D+00
 -0.41343099D-01 -0.16852720D+00 -0.14698504D+00  0.74911227D-01  0.20719053D-01
  0.45408680D-01  0.79153227D-03 -0.38644982D-13 -0.50974723D-13 -0.56620395D-13
 -0.48459078D-13 -0.27689128D-13 -0.89857255D-14 -0.63271087D-17 -0.14929700D-13
 -0.19693043D-13 -0.21874133D-13 -0.18721175D-13 -0.10697129D-13 -0.34714515D-14
 -0.24443492D-17  0.82745677D-01  0.10914581D+00  0.12123419D+00  0.10375938D+00
  0.59287273D-01  0.19240013D-01  0.13547448D-04  0.36575920D-13  0.50017100D-13
  0.54373626D-13  0.49912145D-13  0.27204146D-13  0.11479627D-13 -0.39591841D-14
  0.73258887D-14  0.10018059D-13  0.10890639D-13  0.99970369D-14  0.54487910D-14
  0.22992852D-14 -0.79299557D-15  0.94629139D+00  0.12940413D+01  0.14067532D+01
  0.12913259D+01  0.70382506D+00  0.29700066D+00 -0.10243192D+00 -0.23744935D-14
  0.25331093D-14 -0.56358523D-01 -0.83944869D-15 -0.25291095D-16 -0.15074671D-01
  0.16102313D-14 -0.19470140D-17 -0.24768390D-03 -0.94435476D-03  0.19985855D-02
 -0.10542308D-02  0.22015099D-16  0.17276990D-14 -0.11269033D-15 -0.74711715D-02
  0.15250167D-01 -0.77789955D-02  0.37668551D-16 -0.81221182D-15 -0.16386781D-15
 -0.80002884D-05  0.53986847D-04 -0.45986558D-04  0.73618083D-18  0.92530889D-15
 -0.23656067D-17 -0.14480785D-15  0.68671082D-16  0.98989860D-03 -0.44777528D-15
 -0.96493412D-16 -0.33536934D-02  0.88219883D-15 -0.10951983D-15  0.38399757D-03
  0.69809457D-17 -0.78703684D-16  0.23293106D-17  0.20599483D-04 -0.49220170D-15
 -0.16667772D-17  0.52576958D-04  0.72831275D-15 -0.53211545D-17 -0.11437541D-03
  0.67090835D-17 -0.18570136D-01 -0.33492005D-01 -0.49383942D-01 -0.40291217D-01
 -0.20415394D-01 -0.65967662D-04 -0.60440060D-02  0.17471096D-16 -0.39130247D-03
 -0.19021593D-02  0.28294991D-15 -0.20110921D-02 -0.55865882D-03  0.78489755D-16
  0.10110648D-02 -0.19880345D-02  0.11684133D-02  0.81962124D-03  0.14517439D-15
  0.30925449D-02  0.66544668D-16  0.25928904D-03 -0.42115687D-03  0.16186783D-03
  0.13569769D-15 -0.44405626D-03 -0.13263089D-15 -0.18570136D-01 -0.33492005D-01
 -0.49383942D-01 -0.40291217D-01 -0.20415394D-01 -0.65967662D-04  0.60440060D-02
  0.10436355D-15 -0.39130247D-03  0.19021593D-02  0.25711297D-15 -0.20110921D-02
  0.55865882D-03  0.42816530D-16  0.10110648D-02 -0.19880345D-02  0.11684133D-02
  0.81962124D-03 -0.34276005D-15 -0.30925449D-02 -0.38224099D-15  0.25928904D-03
 -0.42115687D-03  0.16186783D-03 -0.12692999D-15  0.44405626D-03 -0.98454018D-16
END DATA
RHF
