 Molden2AIM, Version 4.0.0 (06/02/2016)           Time: Wed Jun 27 21:20:57 2018
GAUSSIAN             13 MOL ORBITALS    287 PRIMITIVES        5 NUCLEI
  F    1    (CENTRE  1)  -0.00000378  0.00000000 -1.96355017  CHARGE =  9.0
  Si   2    (CENTRE  2)  -0.00000567  0.00000000  1.15305419  CHARGE = 14.0
  H    3    (CENTRE  3)   2.68633450  0.00000000  2.00580444  CHARGE =  1.0
  H    4    (CENTRE  4)  -1.34316253  2.32644750  2.00579499  CHARGE =  1.0
  H    5    (CENTRE  5)  -1.34316253 -2.32644750  2.00579499  CHARGE =  1.0
CENTRE ASSIGNMENTS    1  1  1  1  1  1  1  1  1  1  1  1  1  1  1  1  1  1  1  1
CENTRE ASSIGNMENTS    1  1  1  1  1  1  1  1  1  1  1  1  1  1  1  1  1  1  1  1
CENTRE ASSIGNMENTS    1  1  1  1  1  1  1  1  1  1  1  1  1  1  1  1  1  1  1  1
CENTRE ASSIGNMENTS    1  1  1  1  1  1  1  1  1  1  1  1  1  1  1  2  2  2  2  2
CENTRE ASSIGNMENTS    2  2  2  2  2  2  2  2  2  2  2  2  2  2  2  2  2  2  2  2
CENTRE ASSIGNMENTS    2  2  2  2  2  2  2  2  2  2  2  2  2  2  2  2  2  2  2  2
CENTRE ASSIGNMENTS    2  2  2  2  2  2  2  2  2  2  2  2  2  2  2  2  2  2  2  2
CENTRE ASSIGNMENTS    2  2  2  2  2  2  2  2  2  2  2  2  2  2  2  2  2  2  2  2
CENTRE ASSIGNMENTS    2  2  2  2  2  2  2  2  2  2  2  2  2  2  2  2  2  2  2  2
CENTRE ASSIGNMENTS    2  2  2  2  2  2  2  2  2  2  2  2  2  2  2  2  2  2  2  2
CENTRE ASSIGNMENTS    2  2  2  2  2  2  3  3  3  3  3  3  3  3  3  3  3  3  3  3
CENTRE ASSIGNMENTS    3  3  3  3  3  3  3  3  3  3  3  3  3  4  4  4  4  4  4  4
CENTRE ASSIGNMENTS    4  4  4  4  4  4  4  4  4  4  4  4  4  4  4  4  4  4  4  4
CENTRE ASSIGNMENTS    5  5  5  5  5  5  5  5  5  5  5  5  5  5  5  5  5  5  5  5
CENTRE ASSIGNMENTS    5  5  5  5  5  5  5
TYPE ASSIGNMENTS      1  1  1  1  1  1  1  1  1  1  1  1  1  1  1  1  1  1  1  2
TYPE ASSIGNMENTS      2  2  3  3  3  4  4  4  2  3  4  2  3  4  2  3  4  5  6  7
TYPE ASSIGNMENTS      8  9 10  5  6  7  8  9 10  5  6  7  8  9 10 11 12 13 17 14
TYPE ASSIGNMENTS     15 18 19 16 20 11 12 13 17 14 15 18 19 16 20  1  1  1  1  1
TYPE ASSIGNMENTS      1  1  1  1  1  1  1  1  1  1  1  1  1  1  1  1  1  1  1  1
TYPE ASSIGNMENTS      1  1  1  1  1  1  1  1  1  1  1  1  1  1  1  1  1  2  2  2
TYPE ASSIGNMENTS      2  2  2  2  3  3  3  3  3  3  3  4  4  4  4  4  4  4  2  2
TYPE ASSIGNMENTS      2  2  2  2  2  3  3  3  3  3  3  3  4  4  4  4  4  4  4  2
TYPE ASSIGNMENTS      3  4  2  3  4  2  3  4  5  6  7  8  9 10  5  6  7  8  9 10
TYPE ASSIGNMENTS      5  6  7  8  9 10 11 12 13 17 14 15 18 19 16 20 11 12 13 17
TYPE ASSIGNMENTS     14 15 18 19 16 20  1  1  1  1  1  1  2  3  4  2  3  4  2  3
TYPE ASSIGNMENTS      4  5  6  7  8  9 10  5  6  7  8  9 10  1  1  1  1  1  1  2
TYPE ASSIGNMENTS      3  4  2  3  4  2  3  4  5  6  7  8  9 10  5  6  7  8  9 10
TYPE ASSIGNMENTS      1  1  1  1  1  1  2  3  4  2  3  4  2  3  4  5  6  7  8  9
TYPE ASSIGNMENTS     10  5  6  7  8  9 10
EXPONENTS  0.1950000D+05 0.2923000D+04 0.6645000D+03 0.1875000D+03 0.6062000D+02
EXPONENTS  0.2142000D+02 0.7950000D+01 0.8815000D+00 0.1950000D+05 0.2923000D+04
EXPONENTS  0.6645000D+03 0.1875000D+03 0.6062000D+02 0.2142000D+02 0.7950000D+01
EXPONENTS  0.8815000D+00 0.2257000D+01 0.3041000D+00 0.9158000D-01 0.4388000D+02
EXPONENTS  0.9926000D+01 0.2930000D+01 0.4388000D+02 0.9926000D+01 0.2930000D+01
EXPONENTS  0.4388000D+02 0.9926000D+01 0.2930000D+01 0.9132000D+00 0.9132000D+00
EXPONENTS  0.9132000D+00 0.2672000D+00 0.2672000D+00 0.2672000D+00 0.7361000D-01
EXPONENTS  0.7361000D-01 0.7361000D-01 0.3107000D+01 0.3107000D+01 0.3107000D+01
EXPONENTS  0.3107000D+01 0.3107000D+01 0.3107000D+01 0.8550000D+00 0.8550000D+00
EXPONENTS  0.8550000D+00 0.8550000D+00 0.8550000D+00 0.8550000D+00 0.2920000D+00
EXPONENTS  0.2920000D+00 0.2920000D+00 0.2920000D+00 0.2920000D+00 0.2920000D+00
EXPONENTS  0.1917000D+01 0.1917000D+01 0.1917000D+01 0.1917000D+01 0.1917000D+01
EXPONENTS  0.1917000D+01 0.1917000D+01 0.1917000D+01 0.1917000D+01 0.1917000D+01
EXPONENTS  0.7240000D+00 0.7240000D+00 0.7240000D+00 0.7240000D+00 0.7240000D+00
EXPONENTS  0.7240000D+00 0.7240000D+00 0.7240000D+00 0.7240000D+00 0.7240000D+00
EXPONENTS  0.2549000D+06 0.3819000D+05 0.8690000D+04 0.2462000D+04 0.8048000D+03
EXPONENTS  0.2913000D+03 0.1136000D+03 0.4675000D+02 0.1982000D+02 0.7708000D+01
EXPONENTS  0.3340000D+01 0.1402000D+01 0.2070000D+00 0.2549000D+06 0.3819000D+05
EXPONENTS  0.8690000D+04 0.2462000D+04 0.8048000D+03 0.2913000D+03 0.1136000D+03
EXPONENTS  0.4675000D+02 0.1982000D+02 0.7708000D+01 0.3340000D+01 0.1402000D+01
EXPONENTS  0.2070000D+00 0.2549000D+06 0.3819000D+05 0.8690000D+04 0.2462000D+04
EXPONENTS  0.8048000D+03 0.2913000D+03 0.1136000D+03 0.4675000D+02 0.1982000D+02
EXPONENTS  0.7708000D+01 0.3340000D+01 0.1402000D+01 0.2070000D+00 0.4387000D+00
EXPONENTS  0.7944000D-01 0.3300000D-01 0.4815000D+03 0.1139000D+03 0.3623000D+02
EXPONENTS  0.1334000D+02 0.5252000D+01 0.2120000D+01 0.2528000D+00 0.4815000D+03
EXPONENTS  0.1139000D+03 0.3623000D+02 0.1334000D+02 0.5252000D+01 0.2120000D+01
EXPONENTS  0.2528000D+00 0.4815000D+03 0.1139000D+03 0.3623000D+02 0.1334000D+02
EXPONENTS  0.5252000D+01 0.2120000D+01 0.2528000D+00 0.4815000D+03 0.1139000D+03
EXPONENTS  0.3623000D+02 0.1334000D+02 0.5252000D+01 0.2120000D+01 0.2528000D+00
EXPONENTS  0.4815000D+03 0.1139000D+03 0.3623000D+02 0.1334000D+02 0.5252000D+01
EXPONENTS  0.2120000D+01 0.2528000D+00 0.4815000D+03 0.1139000D+03 0.3623000D+02
EXPONENTS  0.1334000D+02 0.5252000D+01 0.2120000D+01 0.2528000D+00 0.8561000D+00
EXPONENTS  0.8561000D+00 0.8561000D+00 0.7889000D-01 0.7889000D-01 0.7889000D-01
EXPONENTS  0.2370000D-01 0.2370000D-01 0.2370000D-01 0.1590000D+00 0.1590000D+00
EXPONENTS  0.1590000D+00 0.1590000D+00 0.1590000D+00 0.1590000D+00 0.4810000D+00
EXPONENTS  0.4810000D+00 0.4810000D+00 0.4810000D+00 0.4810000D+00 0.4810000D+00
EXPONENTS  0.5560000D-01 0.5560000D-01 0.5560000D-01 0.5560000D-01 0.5560000D-01
EXPONENTS  0.5560000D-01 0.3360000D+00 0.3360000D+00 0.3360000D+00 0.3360000D+00
EXPONENTS  0.3360000D+00 0.3360000D+00 0.3360000D+00 0.3360000D+00 0.3360000D+00
EXPONENTS  0.3360000D+00 0.1250000D+00 0.1250000D+00 0.1250000D+00 0.1250000D+00
EXPONENTS  0.1250000D+00 0.1250000D+00 0.1250000D+00 0.1250000D+00 0.1250000D+00
EXPONENTS  0.1250000D+00 0.3387000D+02 0.5095000D+01 0.1159000D+01 0.3258000D+00
EXPONENTS  0.1027000D+00 0.2526000D-01 0.1407000D+01 0.1407000D+01 0.1407000D+01
EXPONENTS  0.3880000D+00 0.3880000D+00 0.3880000D+00 0.1020000D+00 0.1020000D+00
EXPONENTS  0.1020000D+00 0.1057000D+01 0.1057000D+01 0.1057000D+01 0.1057000D+01
EXPONENTS  0.1057000D+01 0.1057000D+01 0.2470000D+00 0.2470000D+00 0.2470000D+00
EXPONENTS  0.2470000D+00 0.2470000D+00 0.2470000D+00 0.3387000D+02 0.5095000D+01
EXPONENTS  0.1159000D+01 0.3258000D+00 0.1027000D+00 0.2526000D-01 0.1407000D+01
EXPONENTS  0.1407000D+01 0.1407000D+01 0.3880000D+00 0.3880000D+00 0.3880000D+00
EXPONENTS  0.1020000D+00 0.1020000D+00 0.1020000D+00 0.1057000D+01 0.1057000D+01
EXPONENTS  0.1057000D+01 0.1057000D+01 0.1057000D+01 0.1057000D+01 0.2470000D+00
EXPONENTS  0.2470000D+00 0.2470000D+00 0.2470000D+00 0.2470000D+00 0.2470000D+00
EXPONENTS  0.3387000D+02 0.5095000D+01 0.1159000D+01 0.3258000D+00 0.1027000D+00
EXPONENTS  0.2526000D-01 0.1407000D+01 0.1407000D+01 0.1407000D+01 0.3880000D+00
EXPONENTS  0.3880000D+00 0.3880000D+00 0.1020000D+00 0.1020000D+00 0.1020000D+00
EXPONENTS  0.1057000D+01 0.1057000D+01 0.1057000D+01 0.1057000D+01 0.1057000D+01
EXPONENTS  0.1057000D+01 0.2470000D+00 0.2470000D+00 0.2470000D+00 0.2470000D+00
EXPONENTS  0.2470000D+00 0.2470000D+00
MO    1     MO 0.0        OCC NO =    2.0000000  ORB. ENERGY =  -68.830603
 -0.40590715D-05 -0.75662851D-05 -0.12826713D-04 -0.19423424D-04 -0.24289060D-04
 -0.20910618D-04 -0.80388051D-05  0.34833458D-07  0.32519481D-05  0.61065826D-05
  0.10398457D-04  0.16289121D-04  0.21829339D-04  0.23480397D-04  0.14097600D-04
 -0.92711747D-05 -0.29868098D-05  0.36254804D-05  0.33970234D-04  0.41774760D-10
  0.40854803D-10  0.26994495D-10  0.14177909D-15  0.13865685D-15  0.91616443D-16
 -0.31449299D-04 -0.30756727D-04 -0.20322270D-04 -0.13621280D-10  0.32312760D-16
 -0.76208764D-05  0.32063897D-11 -0.33761628D-16  0.10064377D-04  0.22821597D-10
 -0.18929307D-16  0.54751374D-05  0.30642163D-04  0.30641978D-04 -0.61284142D-04
  0.47276989D-16  0.15066554D-09  0.10187619D-15 -0.96595270D-05 -0.96594496D-05
  0.19318977D-04 -0.22601824D-16 -0.49669656D-10 -0.35092049D-16 -0.16753418D-05
 -0.16753779D-05  0.33507196D-05  0.14576744D-16  0.38093812D-11 -0.28409966D-17
 -0.18130123D-05 -0.69229703D-17 -0.89288627D-05  0.54389569D-05 -0.38013255D-16
  0.13393204D-04  0.80108051D-10  0.58782166D-16  0.13393384D-04 -0.39305486D-16
  0.50076194D-06  0.39948423D-17  0.13754231D-04 -0.15022283D-05  0.11900699D-16
 -0.20631323D-04 -0.57514381D-10 -0.23885226D-16 -0.20631372D-04  0.10089155D-16
  0.50541234D+00  0.94540338D+00  0.16326692D+01  0.26371863D+01  0.39715483D+01
  0.54012869D+01  0.61488175D+01  0.49813854D+01  0.20220428D+01  0.18438249D+00
 -0.70858600D-02  0.23694605D-02  0.13296875D-03 -0.18195345D-04 -0.34056675D-04
 -0.58902330D-04 -0.95735090D-04 -0.14647391D-03 -0.20785660D-03 -0.26073884D-03
 -0.26584583D-03 -0.16334097D-03  0.35598827D-04  0.13039324D-03  0.59637276D-04
 -0.31655793D-06  0.33166250D-05  0.62032466D-05  0.10742342D-04  0.17441775D-04
  0.26772772D-04  0.38029528D-04  0.48246488D-04  0.49948151D-04  0.32172678D-04
 -0.79130376D-05 -0.32255977D-04 -0.28132824D-04  0.14337952D-04 -0.45573837D-03
 -0.15914330D-03  0.17812146D-04 -0.54983124D-08 -0.72525574D-08 -0.80558096D-08
 -0.68946376D-08 -0.39395405D-08 -0.12784668D-08 -0.90020536D-12  0.34448516D-14
  0.45439367D-14  0.50471975D-14  0.43196897D-14  0.24682360D-14  0.80099637D-15
  0.56400467D-18 -0.48839476D-03 -0.64421786D-03 -0.71556779D-03 -0.61242517D-03
 -0.34993482D-03 -0.11356148D-03 -0.79961914D-07  0.22405440D-08  0.30639151D-08
  0.33307844D-08  0.30574859D-08  0.16664540D-08  0.70321156D-09 -0.24252914D-09
 -0.29967422D-14 -0.40980065D-14 -0.44549458D-14 -0.40894073D-14 -0.22288930D-14
 -0.94055005D-15  0.32438430D-15  0.15373752D-03  0.21023409D-03  0.22854563D-03
  0.20979294D-03  0.11434567D-03  0.48251676D-04 -0.16641418D-04  0.40704851D-09
 -0.55530536D-16  0.46838469D-04 -0.23128937D-09  0.20611343D-15  0.14620223D-05
  0.53601204D-11 -0.58943074D-17  0.15726052D-06 -0.24818922D-06 -0.24808716D-06
  0.49627639D-06  0.14481985D-16 -0.27267870D-10  0.26212247D-16 -0.15859011D-05
 -0.15862320D-05  0.31721331D-05 -0.12779507D-15 -0.11536106D-09  0.71544922D-16
  0.77546066D-08  0.77622184D-08 -0.15516825D-07  0.68108926D-17  0.49481491D-11
 -0.24085664D-17 -0.19449858D-05 -0.15383054D-18  0.24018747D-05  0.58349622D-05
 -0.25670894D-17 -0.36028088D-05 -0.48533950D-11  0.30285810D-17 -0.36028152D-05
 -0.13274288D-16 -0.88851185D-07 -0.65002960D-18  0.10123362D-06  0.26654849D-06
 -0.42976996D-17 -0.15185293D-06  0.50610883D-11  0.62477884D-17 -0.15184794D-06
  0.24460606D-16 -0.24859862D-05 -0.44835785D-05 -0.66110338D-05  0.72574058D-05
  0.41559081D-04 -0.22286659D-05 -0.33435873D-05  0.18958784D-16 -0.21645929D-05
 -0.18428950D-04 -0.28244884D-16 -0.45340555D-05 -0.82764441D-05 -0.54743712D-16
 -0.24951608D-05  0.25176177D-04 -0.14265068D-04 -0.10911110D-04  0.73735591D-18
  0.24094799D-04  0.31326852D-16  0.33704201D-05 -0.18800531D-05 -0.14903671D-05
  0.25142468D-16  0.22087818D-05 -0.17060639D-16 -0.24859732D-05 -0.44835551D-05
 -0.66109994D-05  0.72572420D-05  0.41558523D-04 -0.22286567D-05  0.16719573D-05
 -0.28957360D-05 -0.21647011D-05  0.92142500D-05 -0.15959978D-04 -0.45339013D-05
  0.41381332D-05 -0.71676338D-05 -0.24950254D-05 -0.44049191D-05  0.15316039D-04
 -0.10911120D-04 -0.34157029D-04 -0.12047183D-04  0.20866673D-04 -0.56746755D-06
  0.20578770D-05 -0.14904095D-05 -0.45470135D-05 -0.11043366D-05  0.19128127D-05
 -0.24859732D-05 -0.44835551D-05 -0.66109994D-05  0.72572420D-05  0.41558523D-04
 -0.22286567D-05  0.16719573D-05  0.28957360D-05 -0.21647011D-05  0.92142500D-05
  0.15959978D-04 -0.45339013D-05  0.41381332D-05  0.71676338D-05 -0.24950254D-05
 -0.44049191D-05  0.15316039D-04 -0.10911120D-04  0.34157029D-04 -0.12047183D-04
 -0.20866673D-04 -0.56746755D-06  0.20578770D-05 -0.14904095D-05  0.45470135D-05
 -0.11043366D-05 -0.19128127D-05
MO    2     MO 0.0        OCC NO =    2.0000000  ORB. ENERGY =  -26.278969
  0.59552181D+00  0.11100785D+01  0.18818559D+01  0.28496844D+01  0.35635404D+01
  0.30678763D+01  0.11794037D+01 -0.51105491D-02  0.44944380D-03  0.84397585D-03
  0.14371453D-02  0.22512796D-02  0.30169796D-02  0.32451683D-02  0.19483948D-02
 -0.12813464D-02  0.57427410D-01  0.19831839D-02  0.46893975D-03 -0.51574137D-08
 -0.50438379D-08 -0.33326770D-08  0.24774021D-16  0.24228452D-16  0.16008762D-16
  0.61699388D-02  0.60340654D-02  0.39869621D-02  0.11198686D-08 -0.82420863D-17
 -0.10125991D-02 -0.10555655D-08  0.67622226D-17  0.75000473D-03  0.10874433D-09
 -0.84889513D-17  0.53713939D-04  0.17304035D-03  0.17303973D-03 -0.34608008D-03
  0.30281063D-17 -0.49035683D-09  0.39116593D-16  0.19009102D-05  0.19017179D-05
 -0.38026281D-05  0.43233089D-17  0.59258935D-09 -0.22260291D-16 -0.77565048D-04
 -0.77565097D-04  0.15513014D-03 -0.14935606D-17 -0.90670699D-09  0.11534853D-16
 -0.39761892D-04 -0.15543165D-16 -0.39796589D-03  0.11928179D-03  0.45932472D-16
  0.59695172D-03  0.38873449D-08  0.69702251D-18  0.59694594D-03  0.23521771D-16
  0.10070068D-04  0.44752040D-17  0.17033067D-03 -0.30208881D-04 -0.12692294D-16
 -0.25549681D-03 -0.13241250D-08 -0.73331831D-18 -0.25549519D-03 -0.78893766D-17
 -0.34426510D-04 -0.64396804D-04 -0.11121039D-03 -0.17963376D-03 -0.27052475D-03
 -0.36791238D-03 -0.41883095D-03 -0.33931050D-03 -0.13773284D-03 -0.12559340D-04
  0.48265824D-06 -0.16139744D-06 -0.90572584D-08  0.74271359D-04  0.13901553D-03
  0.24043271D-03  0.39077991D-03  0.59789008D-03  0.84844734D-03  0.10643067D-02
  0.10851529D-02  0.66673953D-03 -0.14531042D-03 -0.53225058D-03 -0.24343268D-03
  0.12921540D-05 -0.44386607D-04 -0.83018450D-04 -0.14376546D-03 -0.23342440D-03
 -0.35830173D-03 -0.50895163D-03 -0.64568587D-03 -0.66845933D-03 -0.43056904D-03
  0.10590069D-03  0.43168382D-03  0.37650341D-03 -0.19188574D-03  0.14348640D-03
 -0.20901843D-02  0.69416133D-04  0.76094314D-08  0.10037232D-07  0.11148899D-07
  0.95418863D-08  0.54521572D-08  0.17693439D-08  0.12458461D-11  0.21743684D-14
  0.28681040D-14  0.31857590D-14  0.27265606D-14  0.15579348D-14  0.50558382D-15
  0.35599616D-18  0.50093552D-02  0.66075976D-02  0.73394178D-02  0.62815071D-02
  0.35892027D-02  0.11647745D-02  0.82015136D-06 -0.64140260D-08 -0.87710981D-08
 -0.95350671D-08 -0.87526930D-08 -0.47705731D-08 -0.20130902D-08  0.69429041D-09
 -0.18873993D-14 -0.25809943D-14 -0.28058008D-14 -0.25755784D-14 -0.14037948D-14
 -0.59237446D-15  0.20430277D-15 -0.43059232D-02 -0.58882945D-02 -0.64011693D-02
 -0.58759387D-02 -0.32026252D-02 -0.13514463D-02  0.46609744D-03 -0.58704102D-09
 -0.47954242D-16  0.26503504D-04 -0.19624505D-08  0.13560718D-15  0.18003814D-05
  0.42617468D-10  0.87043472D-18 -0.40825948D-06  0.21516346D-04  0.21514386D-04
 -0.43030733D-04 -0.36459126D-16 -0.10193203D-08  0.35547003D-16  0.75888330D-04
  0.75888078D-04 -0.15177641D-03 -0.87604667D-16  0.10654499D-08  0.52976088D-16
  0.59893941D-07  0.59866077D-07 -0.11976002D-06 -0.20336085D-17 -0.23008503D-10
  0.99518021D-18 -0.15756793D-04 -0.12638918D-17 -0.50988794D-07  0.47270428D-04
  0.97795527D-17  0.76377990D-07 -0.49277774D-10 -0.59878772D-17  0.76588392D-07
 -0.32908815D-16 -0.52890276D-05 -0.24051042D-17  0.11548626D-04  0.15867142D-04
  0.48546376D-17 -0.17322858D-04 -0.59235013D-10  0.23606749D-17 -0.17323021D-04
  0.30036859D-17 -0.87967978D-05 -0.15865387D-04 -0.23393504D-04  0.87712524D-04
  0.67991509D-03 -0.55719893D-05  0.42185560D-04  0.53257288D-17  0.33967486D-04
 -0.62740761D-04 -0.80425105D-17 -0.65944228D-04 -0.11212138D-03 -0.22879958D-16
 -0.21572574D-04 -0.22138899D-04 -0.34564850D-04  0.56703750D-04  0.92265195D-17
  0.11746479D-03  0.10421668D-17 -0.55177036D-05 -0.15438671D-05  0.70615708D-05
  0.17272769D-17  0.24531951D-05  0.18376486D-17 -0.87970491D-05 -0.15865840D-04
 -0.23394172D-04  0.87715787D-04  0.67991391D-03 -0.55717907D-05 -0.21092932D-04
  0.36533105D-04  0.33968305D-04  0.31370831D-04 -0.54335859D-04 -0.65945979D-04
  0.56060095D-04 -0.97100644D-04 -0.21571792D-04 -0.31458907D-04 -0.25245118D-04
  0.56704025D-04 -0.10761612D-04 -0.58732835D-04  0.10172961D-03 -0.25373265D-05
 -0.45243077D-05  0.70616342D-05  0.34412750D-05 -0.12264581D-05  0.21249176D-05
 -0.87970491D-05 -0.15865840D-04 -0.23394172D-04  0.87715787D-04  0.67991391D-03
 -0.55717907D-05 -0.21092932D-04 -0.36533105D-04  0.33968305D-04  0.31370831D-04
  0.54335859D-04 -0.65945979D-04  0.56060095D-04  0.97100644D-04 -0.21571792D-04
 -0.31458907D-04 -0.25245118D-04  0.56704025D-04  0.10761612D-04 -0.58732835D-04
 -0.10172961D-03 -0.25373265D-05 -0.45243077D-05  0.70616342D-05 -0.34412750D-05
 -0.12264581D-05 -0.21249176D-05
MO    3     MO 0.0        OCC NO =    2.0000000  ORB. ENERGY =   -6.172286
 -0.28730942D-04 -0.53555721D-04 -0.90790113D-04 -0.13748299D-03 -0.17192296D-03
 -0.14800965D-03 -0.56900314D-04  0.24655838D-06 -0.12050116D-03 -0.22627984D-03
 -0.38531554D-03 -0.60359452D-03 -0.80888766D-03 -0.87006775D-03 -0.52238753D-03
  0.34354402D-03  0.13763197D-03  0.14549078D-03 -0.26881570D-03 -0.16665069D-08
 -0.16298074D-08 -0.10768826D-08 -0.42945434D-14 -0.41999696D-14 -0.27750975D-14
  0.23561746D-02  0.23042873D-02  0.15225401D-02 -0.26117504D-10  0.43292970D-14
  0.70176088D-03 -0.29652732D-09 -0.58201527D-14  0.39361203D-04 -0.23598491D-09
  0.15748497D-14 -0.49494259D-04 -0.19430875D-03 -0.19430822D-03  0.38861697D-03
 -0.24999808D-14 -0.36175479D-09 -0.34303055D-14 -0.10923130D-03 -0.10923190D-03
  0.21846320D-03  0.14171434D-14 -0.37298031D-09  0.22024670D-14  0.11918379D-04
  0.11918781D-04 -0.23837160D-04 -0.64060599D-15 -0.44223876D-09 -0.35363449D-14
 -0.14990926D-04 -0.15020483D-14  0.51885894D-03  0.44971563D-04  0.21043346D-15
 -0.77828597D-03  0.12143627D-08  0.42957113D-14 -0.77829086D-03  0.19731538D-14
  0.49606170D-05  0.62019816D-15  0.74081008D-05 -0.14880435D-04  0.68111343D-16
 -0.11112885D-04 -0.14157790D-08 -0.19287058D-14 -0.11111417D-04 -0.25298538D-15
 -0.36629404D-03 -0.68517446D-03 -0.11832655D-02 -0.19112822D-02 -0.28783517D-02
 -0.39145448D-02 -0.44563123D-02 -0.36102241D-02 -0.14654613D-02 -0.13362991D-03
  0.51354273D-05 -0.17172499D-05 -0.96368171D-07 -0.13388063D+00 -0.25058768D+00
 -0.43340102D+00 -0.70441502D+00 -0.10777492D+01 -0.15294006D+01 -0.19185061D+01
 -0.19560832D+01 -0.12018564D+01  0.26193477D+00  0.95942829D+00  0.43880873D+00
 -0.23292208D-02 -0.24636672D-03 -0.46079178D-03 -0.79796650D-03 -0.12956161D-02
 -0.19887446D-02 -0.28249229D-02 -0.35838628D-02 -0.37102664D-02 -0.23898624D-02
  0.58779908D-03  0.23960500D-02  0.20897725D-02 -0.10650568D-02  0.19682085D-01
  0.14683490D-02 -0.19615223D-03 -0.30659671D-06 -0.40441686D-06 -0.44920779D-06
 -0.38445855D-06 -0.21967653D-06 -0.71289822D-07 -0.50197221D-10 -0.28039678D-12
 -0.36985781D-12 -0.41082117D-12 -0.35160502D-12 -0.20090428D-12 -0.65197819D-13
 -0.45907666D-16 -0.17196940D-01 -0.22683650D-01 -0.25195963D-01 -0.21564193D-01
 -0.12321607D-01 -0.39986300D-02 -0.28155508D-05 -0.69979231D-07 -0.95695699D-07
 -0.10403086D-06 -0.95494893D-07 -0.52048594D-07 -0.21963507D-07  0.75749472D-08
  0.23727132D-12  0.32446547D-12  0.35272665D-12  0.32378462D-12  0.17647577D-12
  0.74469384D-13 -0.25683587D-13 -0.67020307D-03 -0.91649408D-03 -0.99632138D-03
 -0.91457092D-03 -0.49847829D-03 -0.21034827D-03  0.72546566D-04 -0.28439939D-07
  0.11083024D-13 -0.13222440D-02  0.30173928D-08 -0.26864851D-13 -0.95577352D-06
 -0.48683374D-10 -0.40840469D-15 -0.15755422D-05 -0.37478806D-05 -0.37501456D-05
  0.74980262D-05  0.10047680D-13  0.64547707D-09 -0.83437985D-14 -0.11499700D-03
 -0.11500763D-03  0.23000463D-03  0.92515587D-14 -0.16628752D-08 -0.61871294D-14
 -0.41515165D-07 -0.41603913D-07  0.83119078D-07  0.88626927D-15 -0.39263512D-10
 -0.34964452D-15 -0.25022448D-04 -0.96752336D-15 -0.49239006D-05  0.75067841D-04
  0.11697652D-15  0.73866438D-05 -0.49541041D-09  0.27855936D-14  0.73850580D-05
  0.66580319D-14  0.45049243D-06 -0.18974307D-15 -0.89446601D-06 -0.13514224D-05
  0.42346095D-16  0.13417328D-05 -0.54885458D-10  0.52688312D-15  0.13416653D-05
  0.31072407D-15  0.46214457D-04  0.83349677D-04  0.12289905D-03  0.36086038D-03
 -0.32497699D-03  0.24860291D-04 -0.17449147D-03  0.39587294D-14 -0.30262716D-04
 -0.14241249D-03 -0.48804739D-14 -0.92415209D-04  0.66036326D-04  0.20382411D-14
  0.11984853D-04  0.24469491D-03 -0.15903035D-03 -0.85664563D-04  0.15932403D-14
  0.32294037D-03 -0.52396128D-15 -0.27201626D-04  0.11109705D-04  0.16091921D-04
  0.63508379D-15 -0.11903013D-05  0.72323569D-15  0.46214106D-04  0.83349044D-04
  0.12289812D-03  0.36087002D-03 -0.32496694D-03  0.24860368D-04  0.87244553D-04
 -0.15111707D-03 -0.30261632D-04  0.71210284D-04 -0.12333981D-03 -0.92418288D-04
 -0.33016943D-04  0.57188374D-04  0.11983284D-04 -0.58101520D-04  0.14376893D-03
 -0.85667412D-04 -0.34964140D-03 -0.16146988D-03  0.27967838D-03  0.15319445D-05
 -0.17624085D-04  0.16092140D-04  0.33177731D-04  0.59458928D-06 -0.10296850D-05
  0.46214106D-04  0.83349044D-04  0.12289812D-03  0.36087002D-03 -0.32496694D-03
  0.24860368D-04  0.87244553D-04  0.15111707D-03 -0.30261632D-04  0.71210284D-04
  0.12333981D-03 -0.92418288D-04 -0.33016943D-04 -0.57188374D-04  0.11983284D-04
 -0.58101519D-04  0.14376893D-03 -0.85667412D-04  0.34964140D-03 -0.16146988D-03
 -0.27967838D-03  0.15319445D-05 -0.17624085D-04  0.16092140D-04 -0.33177731D-04
  0.59458928D-06  0.10296850D-05
MO    4     MO 0.0        OCC NO =    2.0000000  ORB. ENERGY =   -4.279089
  0.65819215D-04  0.12268987D-03  0.20798949D-03  0.31495738D-03  0.39385531D-03
  0.33907274D-03  0.13035194D-03 -0.56483629D-06  0.57830911D-03  0.10859621D-02
  0.18492062D-02  0.28967705D-02  0.38820133D-02  0.41756287D-02  0.25070420D-02
 -0.16487363D-02 -0.69610877D-03 -0.41842161D-03 -0.12564769D-03 -0.22959442D-07
 -0.22453832D-07 -0.14836196D-07 -0.93706097D-15 -0.91642516D-15 -0.60552085D-15
 -0.97283117D-02 -0.95140764D-02 -0.62863525D-02 -0.66517464D-08  0.45227083D-16
 -0.27393658D-02 -0.49215131D-09 -0.96872043D-16 -0.22694011D-03 -0.12401678D-09
  0.22349784D-15  0.46386928D-05  0.14260663D-02  0.14260664D-02 -0.28521327D-02
 -0.38840264D-15 -0.13862975D-07  0.17129997D-15  0.31882194D-03  0.31882155D-03
 -0.63764349D-03  0.24784736D-15 -0.59674902D-08  0.22334592D-16 -0.16642542D-05
 -0.16643716D-05  0.33286258D-05 -0.15906325D-15 -0.38012787D-09 -0.18060677D-16
  0.14956113D-06 -0.90030407D-16 -0.52181063D-03 -0.43710837D-06  0.12406346D-15
  0.78271563D-03 -0.11575029D-07  0.14602776D-15  0.78271626D-03  0.60155265D-15
 -0.14214148D-06  0.24640587D-16  0.33291317D-04  0.42793369D-06 -0.46190005D-16
 -0.49936704D-04 -0.15092562D-08 -0.27731756D-16 -0.49937249D-04 -0.20803418D-15
  0.19998270D-03  0.37407936D-03  0.64601824D-03  0.10434879D-02  0.15714712D-02
  0.21371935D-02  0.24329781D-02  0.19710459D-02  0.80008647D-03  0.72956881D-04
 -0.28037492D-05  0.93755352D-06  0.52613379D-07 -0.78405024D-03 -0.14675262D-02
 -0.25381429D-02 -0.41252926D-02 -0.63116639D-02 -0.89566874D-02 -0.11235420D-01
 -0.11455484D-01 -0.70384775D-02  0.15339786D-02  0.56187365D-02  0.25698123D-02
 -0.13640704D-04  0.12794290D-03  0.23929790D-03  0.41439911D-03  0.67283799D-03
  0.10327927D-02  0.14670360D-02  0.18611678D-02  0.19268116D-02  0.12411008D-02
 -0.30525519D-03 -0.12443141D-02 -0.10852584D-02  0.55310419D-03 -0.65920784D-03
 -0.40182571D-03  0.47515988D-04 -0.11525331D-03 -0.15202505D-03 -0.16886249D-03
 -0.14452249D-03 -0.82578988D-04 -0.26798682D-04 -0.18869725D-07  0.82486573D-12
  0.10880404D-11  0.12085456D-11  0.10343447D-11  0.59101625D-12  0.19179766D-12
  0.13505027D-15  0.61670331D+01  0.81346345D+01  0.90355806D+01  0.77331834D+01
  0.44186789D+01  0.14339576D+01  0.10096909D-02 -0.12249965D-06 -0.16751669D-06
 -0.18210751D-06 -0.16716518D-06 -0.91111809D-07 -0.38447433D-07  0.13260054D-07
  0.16908050D-13  0.23121541D-13  0.25135444D-13  0.23073023D-13  0.12575734D-13
  0.53067184D-14 -0.18302228D-14  0.41858524D-02  0.57240994D-02  0.62226726D-02
  0.57120880D-02  0.31133199D-02  0.13137612D-02 -0.45310031D-03 -0.29027207D-05
  0.21648964D-13  0.15647483D+00  0.16196585D-08 -0.19427245D-14 -0.13591055D-03
  0.35023506D-10 -0.54221245D-16  0.43343382D-06 -0.12982562D-04 -0.12984992D-04
  0.25967554D-04  0.59826085D-15  0.35463385D-09 -0.41460084D-16  0.20702423D-03
  0.20702219D-03 -0.41404642D-03  0.55610729D-15 -0.27902955D-09 -0.51666050D-15
 -0.11114964D-05 -0.11115671D-05  0.22230635D-05  0.73779246D-16 -0.93269532D-11
  0.31963253D-16  0.35964919D-04 -0.76449894D-16  0.28865285D-04 -0.10789278D-03
  0.67714555D-16 -0.43296432D-04 -0.19756901D-08  0.16163513D-15 -0.43299422D-04
  0.17835151D-15 -0.11265789D-05 -0.17310433D-16  0.16482729D-06  0.33797302D-05
  0.57372406D-17 -0.24708224D-06  0.66186116D-11  0.46194057D-16 -0.24739964D-06
 -0.75898536D-16  0.95684186D-04  0.17257037D-03  0.25445491D-03  0.27800914D-04
  0.17985634D-03 -0.52776584D-05 -0.26418591D-03  0.22302515D-15  0.29812756D-04
 -0.11106445D-04 -0.25195919D-15  0.15917224D-03 -0.30631564D-04  0.87815676D-16
  0.24786067D-04  0.11874659D-04  0.50671955D-04 -0.62546613D-04 -0.18151347D-16
 -0.30150538D-03 -0.14653941D-16  0.13601029D-04  0.13778631D-04 -0.27379660D-04
  0.90213319D-16 -0.64823359D-04  0.49215851D-16  0.95690637D-04  0.17258200D-03
  0.25447206D-03  0.27818951D-04  0.17986465D-03 -0.52772023D-05  0.13209654D-03
 -0.22880903D-03  0.29808039D-04  0.55595115D-05 -0.96275089D-05  0.15916795D-03
  0.15316335D-04 -0.26529047D-04  0.24785874D-04  0.40972182D-04  0.21573867D-04
 -0.62546050D-04  0.33598799D-04  0.15075010D-03 -0.26110964D-03  0.13734030D-04
  0.13645511D-04 -0.27379541D-04  0.15334782D-06  0.32411105D-04 -0.56138133D-04
  0.95690637D-04  0.17258200D-03  0.25447206D-03  0.27818951D-04  0.17986465D-03
 -0.52772023D-05  0.13209654D-03  0.22880903D-03  0.29808039D-04  0.55595115D-05
  0.96275089D-05  0.15916795D-03  0.15316335D-04  0.26529047D-04  0.24785874D-04
  0.40972182D-04  0.21573867D-04 -0.62546050D-04 -0.33598799D-04  0.15075010D-03
  0.26110964D-03  0.13734030D-04  0.13645511D-04 -0.27379541D-04 -0.15334782D-06
  0.32411105D-04  0.56138133D-04
MO    5     MO 0.0        OCC NO =    2.0000000  ORB. ENERGY =   -4.278529
  0.26109825D-08  0.48669845D-08  0.82507352D-08  0.12494045D-07  0.15623847D-07
  0.13450677D-07  0.51709312D-08 -0.22406491D-10  0.94416625D-08  0.17729770D-07
  0.30190741D-07  0.47293617D-07  0.63379010D-07  0.68172671D-07  0.40930782D-07
 -0.26917804D-07 -0.12227664D-07 -0.11319422D-07 -0.41918073D-08  0.15513483D-02
  0.15171847D-02  0.10024681D-02  0.61639178D-11  0.60281769D-11  0.39830714D-11
 -0.17382141D-06 -0.16999354D-06 -0.11232192D-06  0.55072696D-03  0.21882321D-11
 -0.48695095D-07 -0.66955400D-04 -0.26617935D-12 -0.92439130D-08  0.26048685D-05
  0.10328927D-13 -0.27695134D-09  0.39598762D-05 -0.39132347D-05 -0.46641571D-07
 -0.30446178D-13  0.11719285D-02  0.46565035D-11 -0.16160130D-04  0.16173587D-04
 -0.13457040D-07  0.12832484D-12  0.39229823D-03  0.15587370D-11  0.11588066D-05
 -0.11573457D-05 -0.14609588D-08 -0.91522895D-14 -0.81626838D-04 -0.32442545D-12
 -0.35646503D-03 -0.14163047D-11 -0.69846310D-08 -0.35646653D-03 -0.14165079D-11
 -0.84582345D-05  0.14258616D-02  0.56654220D-11  0.84791884D-05  0.66834211D-13
  0.52613365D-04  0.20903986D-12 -0.87498519D-09  0.52613859D-04  0.20910495D-12
 -0.68790224D-05 -0.21045395D-03 -0.83622452D-12  0.68816474D-05  0.54859996D-13
  0.58809148D-08  0.11000596D-07  0.18997534D-07  0.30685970D-07  0.46212439D-07
  0.62848699D-07  0.71546872D-07  0.57962778D-07  0.23528237D-07  0.21454516D-08
 -0.82450181D-10  0.27570747D-10  0.15472078D-11 -0.27421179D-07 -0.51324898D-07
 -0.88768385D-07 -0.14427696D-06 -0.22074258D-06 -0.31324897D-06 -0.39294482D-06
 -0.40064129D-06 -0.24616197D-06  0.53648988D-07  0.19650830D-06  0.89875980D-07
 -0.47706663D-09  0.33516063D-08  0.62686739D-08  0.10855645D-07  0.17625738D-07
  0.27055151D-07  0.38430635D-07  0.48755357D-07  0.50474967D-07  0.32512012D-07
 -0.79964986D-08 -0.32596189D-07 -0.28429549D-07  0.14489178D-07 -0.22779051D-07
 -0.16527149D-10  0.11648180D-08  0.61682478D+01  0.81362367D+01  0.90373603D+01
  0.77347066D+01  0.44195492D+01  0.14342401D+01  0.10098898D-02  0.24508299D-07
  0.32327710D-07  0.35908144D-07  0.30732310D-07  0.17560195D-07  0.56986661D-08
  0.40125953D-11  0.11517315D-03  0.15191931D-03  0.16874504D-03  0.14442197D-03
  0.82521553D-04  0.26780043D-04  0.18856601D-07  0.86338148D-02  0.11806631D-01
  0.12834997D-01  0.11781856D-01  0.64215899D-02  0.27097876D-02 -0.93457288D-03
  0.34311522D-10  0.46920565D-10  0.51007381D-10  0.46822108D-10  0.25519950D-10
  0.10768929D-10 -0.37140730D-11  0.13305431D-06  0.18195006D-06  0.19779805D-06
  0.18156826D-06  0.98962076D-07  0.41760095D-07 -0.14402550D-07  0.15500499D+00
  0.61588185D-09  0.29161903D-05 -0.11535465D-03 -0.45859608D-12 -0.19692201D-08
 -0.19054816D-06 -0.73938153D-15  0.98556728D-11 -0.47667865D-04  0.47667884D-04
 -0.19133591D-10  0.37887611D-12 -0.72555542D-04 -0.28865737D-12 -0.22479762D-03
  0.22479870D-03 -0.10810028D-08  0.17865746D-11 -0.79312511D-03 -0.31516366D-11
 -0.83152573D-06  0.83152310D-06  0.26308826D-11  0.65941912D-14 -0.80780147D-06
 -0.32289159D-14 -0.32099887D-04 -0.12756351D-12  0.29070178D-09 -0.32103924D-04
 -0.12752772D-12 -0.69971965D-04  0.12840359D-03  0.51021824D-12  0.69971093D-04
  0.55634095D-12 -0.34351712D-06 -0.13557900D-14  0.11886077D-10 -0.34365307D-06
 -0.13817871D-14 -0.20500226D-05  0.13742044D-05  0.54491573D-14  0.20499870D-05
  0.16307873D-13  0.22745837D-03  0.41023053D-03  0.60488468D-03  0.87085689D-03
  0.36079560D-03  0.11336685D-04 -0.62702798D-03  0.60745716D-12 -0.29799958D-03