 Molden2AIM, Version 4.0.0 (06/02/2016)           Time: Thu Jun 28 00:16:32 2018
GAUSSIAN             33 MOL ORBITALS    551 PRIMITIVES        5 NUCLEI
  Si   1    (CENTRE  1)   0.00000000  0.00002079  0.95516585  CHARGE = 14.0
  H    2    (CENTRE  2)   0.00000000  0.00012094  3.74965505  CHARGE =  1.0
  Cl   3    (CENTRE  3)   0.00000000  3.67042072 -0.34577264  CHARGE = 17.0
  Cl   4    (CENTRE  4)   3.17854580 -1.83528123 -0.34591248  CHARGE = 17.0
  Cl   5    (CENTRE  5)  -3.17854580 -1.83528123 -0.34591248  CHARGE = 17.0
CENTRE ASSIGNMENTS    1  1  1  1  1  1  1  1  1  1  1  1  1  1  1  1  1  1  1  1
CENTRE ASSIGNMENTS    1  1  1  1  1  1  1  1  1  1  1  1  1  1  1  1  1  1  1  1
CENTRE ASSIGNMENTS    1  1  1  1  1  1  1  1  1  1  1  1  1  1  1  1  1  1  1  1
CENTRE ASSIGNMENTS    1  1  1  1  1  1  1  1  1  1  1  1  1  1  1  1  1  1  1  1
CENTRE ASSIGNMENTS    1  1  1  1  1  1  1  1  1  1  1  1  1  1  1  1  1  1  1  1
CENTRE ASSIGNMENTS    1  1  1  1  1  1  1  1  1  1  1  1  1  1  1  1  1  1  1  1
CENTRE ASSIGNMENTS    1  1  1  1  1  1  1  1  1  1  1  2  2  2  2  2  2  2  2  2
CENTRE ASSIGNMENTS    2  2  2  2  2  2  2  2  2  2  2  2  2  2  2  2  2  2  3  3
CENTRE ASSIGNMENTS    3  3  3  3  3  3  3  3  3  3  3  3  3  3  3  3  3  3  3  3
CENTRE ASSIGNMENTS    3  3  3  3  3  3  3  3  3  3  3  3  3  3  3  3  3  3  3  3
CENTRE ASSIGNMENTS    3  3  3  3  3  3  3  3  3  3  3  3  3  3  3  3  3  3  3  3
CENTRE ASSIGNMENTS    3  3  3  3  3  3  3  3  3  3  3  3  3  3  3  3  3  3  3  3
CENTRE ASSIGNMENTS    3  3  3  3  3  3  3  3  3  3  3  3  3  3  3  3  3  3  3  3
CENTRE ASSIGNMENTS    3  3  3  3  3  3  3  3  3  3  3  3  3  3  3  3  3  3  3  3
CENTRE ASSIGNMENTS    3  3  3  3  3  3  3  3  3  4  4  4  4  4  4  4  4  4  4  4
CENTRE ASSIGNMENTS    4  4  4  4  4  4  4  4  4  4  4  4  4  4  4  4  4  4  4  4
CENTRE ASSIGNMENTS    4  4  4  4  4  4  4  4  4  4  4  4  4  4  4  4  4  4  4  4
CENTRE ASSIGNMENTS    4  4  4  4  4  4  4  4  4  4  4  4  4  4  4  4  4  4  4  4
CENTRE ASSIGNMENTS    4  4  4  4  4  4  4  4  4  4  4  4  4  4  4  4  4  4  4  4
CENTRE ASSIGNMENTS    4  4  4  4  4  4  4  4  4  4  4  4  4  4  4  4  4  4  4  4
CENTRE ASSIGNMENTS    4  4  4  4  4  4  4  4  4  4  4  4  4  4  4  4  4  4  4  4
CENTRE ASSIGNMENTS    5  5  5  5  5  5  5  5  5  5  5  5  5  5  5  5  5  5  5  5
CENTRE ASSIGNMENTS    5  5  5  5  5  5  5  5  5  5  5  5  5  5  5  5  5  5  5  5
CENTRE ASSIGNMENTS    5  5  5  5  5  5  5  5  5  5  5  5  5  5  5  5  5  5  5  5
CENTRE ASSIGNMENTS    5  5  5  5  5  5  5  5  5  5  5  5  5  5  5  5  5  5  5  5
CENTRE ASSIGNMENTS    5  5  5  5  5  5  5  5  5  5  5  5  5  5  5  5  5  5  5  5
CENTRE ASSIGNMENTS    5  5  5  5  5  5  5  5  5  5  5  5  5  5  5  5  5  5  5  5
CENTRE ASSIGNMENTS    5  5  5  5  5  5  5  5  5  5  5
TYPE ASSIGNMENTS      1  1  1  1  1  1  1  1  1  1  1  1  1  1  1  1  1  1  1  1
TYPE ASSIGNMENTS      1  1  1  1  1  1  1  1  1  1  1  1  1  1  1  1  1  1  1  1
TYPE ASSIGNMENTS      1  1  2  2  2  2  2  2  2  3  3  3  3  3  3  3  4  4  4  4
TYPE ASSIGNMENTS      4  4  4  2  2  2  2  2  2  2  3  3  3  3  3  3  3  4  4  4
TYPE ASSIGNMENTS      4  4  4  4  2  3  4  2  3  4  2  3  4  5  6  7  8  9 10  5
TYPE ASSIGNMENTS      6  7  8  9 10  5  6  7  8  9 10 11 12 13 17 14 15 18 19 16
TYPE ASSIGNMENTS     20 11 12 13 17 14 15 18 19 16 20  1  1  1  1  1  1  2  3  4
TYPE ASSIGNMENTS      2  3  4  2  3  4  5  6  7  8  9 10  5  6  7  8  9 10  1  1
TYPE ASSIGNMENTS      1  1  1  1  1  1  1  1  1  1  1  1  1  1  1  1  1  1  1  1
TYPE ASSIGNMENTS      1  1  1  1  1  1  1  1  1  1  1  1  1  1  1  1  1  1  1  1
TYPE ASSIGNMENTS      2  2  2  2  2  2  2  3  3  3  3  3  3  3  4  4  4  4  4  4
TYPE ASSIGNMENTS      4  2  2  2  2  2  2  2  3  3  3  3  3  3  3  4  4  4  4  4
TYPE ASSIGNMENTS      4  4  2  3  4  2  3  4  2  3  4  5  6  7  8  9 10  5  6  7
TYPE ASSIGNMENTS      8  9 10  5  6  7  8  9 10 11 12 13 17 14 15 18 19 16 20 11
TYPE ASSIGNMENTS     12 13 17 14 15 18 19 16 20  1  1  1  1  1  1  1  1  1  1  1
TYPE ASSIGNMENTS      1  1  1  1  1  1  1  1  1  1  1  1  1  1  1  1  1  1  1  1
TYPE ASSIGNMENTS      1  1  1  1  1  1  1  1  1  1  1  2  2  2  2  2  2  2  3  3
TYPE ASSIGNMENTS      3  3  3  3  3  4  4  4  4  4  4  4  2  2  2  2  2  2  2  3
TYPE ASSIGNMENTS      3  3  3  3  3  3  4  4  4  4  4  4  4  2  3  4  2  3  4  2
TYPE ASSIGNMENTS      3  4  5  6  7  8  9 10  5  6  7  8  9 10  5  6  7  8  9 10
TYPE ASSIGNMENTS     11 12 13 17 14 15 18 19 16 20 11 12 13 17 14 15 18 19 16 20
TYPE ASSIGNMENTS      1  1  1  1  1  1  1  1  1  1  1  1  1  1  1  1  1  1  1  1
TYPE ASSIGNMENTS      1  1  1  1  1  1  1  1  1  1  1  1  1  1  1  1  1  1  1  1
TYPE ASSIGNMENTS      1  1  2  2  2  2  2  2  2  3  3  3  3  3  3  3  4  4  4  4
TYPE ASSIGNMENTS      4  4  4  2  2  2  2  2  2  2  3  3  3  3  3  3  3  4  4  4
TYPE ASSIGNMENTS      4  4  4  4  2  3  4  2  3  4  2  3  4  5  6  7  8  9 10  5
TYPE ASSIGNMENTS      6  7  8  9 10  5  6  7  8  9 10 11 12 13 17 14 15 18 19 16
TYPE ASSIGNMENTS     20 11 12 13 17 14 15 18 19 16 20
EXPONENTS  0.2549000D+06 0.3819000D+05 0.8690000D+04 0.2462000D+04 0.8048000D+03
EXPONENTS  0.2913000D+03 0.1136000D+03 0.4675000D+02 0.1982000D+02 0.7708000D+01
EXPONENTS  0.3340000D+01 0.1402000D+01 0.2070000D+00 0.2549000D+06 0.3819000D+05
EXPONENTS  0.8690000D+04 0.2462000D+04 0.8048000D+03 0.2913000D+03 0.1136000D+03
EXPONENTS  0.4675000D+02 0.1982000D+02 0.7708000D+01 0.3340000D+01 0.1402000D+01
EXPONENTS  0.2070000D+00 0.2549000D+06 0.3819000D+05 0.8690000D+04 0.2462000D+04
EXPONENTS  0.8048000D+03 0.2913000D+03 0.1136000D+03 0.4675000D+02 0.1982000D+02
EXPONENTS  0.7708000D+01 0.3340000D+01 0.1402000D+01 0.2070000D+00 0.4387000D+00
EXPONENTS  0.7944000D-01 0.3300000D-01 0.4815000D+03 0.1139000D+03 0.3623000D+02
EXPONENTS  0.1334000D+02 0.5252000D+01 0.2120000D+01 0.2528000D+00 0.4815000D+03
EXPONENTS  0.1139000D+03 0.3623000D+02 0.1334000D+02 0.5252000D+01 0.2120000D+01
EXPONENTS  0.2528000D+00 0.4815000D+03 0.1139000D+03 0.3623000D+02 0.1334000D+02
EXPONENTS  0.5252000D+01 0.2120000D+01 0.2528000D+00 0.4815000D+03 0.1139000D+03
EXPONENTS  0.3623000D+02 0.1334000D+02 0.5252000D+01 0.2120000D+01 0.2528000D+00
EXPONENTS  0.4815000D+03 0.1139000D+03 0.3623000D+02 0.1334000D+02 0.5252000D+01
EXPONENTS  0.2120000D+01 0.2528000D+00 0.4815000D+03 0.1139000D+03 0.3623000D+02
EXPONENTS  0.1334000D+02 0.5252000D+01 0.2120000D+01 0.2528000D+00 0.8561000D+00
EXPONENTS  0.8561000D+00 0.8561000D+00 0.7889000D-01 0.7889000D-01 0.7889000D-01
EXPONENTS  0.2370000D-01 0.2370000D-01 0.2370000D-01 0.1590000D+00 0.1590000D+00
EXPONENTS  0.1590000D+00 0.1590000D+00 0.1590000D+00 0.1590000D+00 0.4810000D+00
EXPONENTS  0.4810000D+00 0.4810000D+00 0.4810000D+00 0.4810000D+00 0.4810000D+00
EXPONENTS  0.5560000D-01 0.5560000D-01 0.5560000D-01 0.5560000D-01 0.5560000D-01
EXPONENTS  0.5560000D-01 0.3360000D+00 0.3360000D+00 0.3360000D+00 0.3360000D+00
EXPONENTS  0.3360000D+00 0.3360000D+00 0.3360000D+00 0.3360000D+00 0.3360000D+00
EXPONENTS  0.3360000D+00 0.1250000D+00 0.1250000D+00 0.1250000D+00 0.1250000D+00
EXPONENTS  0.1250000D+00 0.1250000D+00 0.1250000D+00 0.1250000D+00 0.1250000D+00
EXPONENTS  0.1250000D+00 0.3387000D+02 0.5095000D+01 0.1159000D+01 0.3258000D+00
EXPONENTS  0.1027000D+00 0.2526000D-01 0.1407000D+01 0.1407000D+01 0.1407000D+01
EXPONENTS  0.3880000D+00 0.3880000D+00 0.3880000D+00 0.1020000D+00 0.1020000D+00
EXPONENTS  0.1020000D+00 0.1057000D+01 0.1057000D+01 0.1057000D+01 0.1057000D+01
EXPONENTS  0.1057000D+01 0.1057000D+01 0.2470000D+00 0.2470000D+00 0.2470000D+00
EXPONENTS  0.2470000D+00 0.2470000D+00 0.2470000D+00 0.4561000D+06 0.6833000D+05
EXPONENTS  0.1555000D+05 0.4405000D+04 0.1439000D+04 0.5204000D+03 0.2031000D+03
EXPONENTS  0.8396000D+02 0.3620000D+02 0.1583000D+02 0.6334000D+01 0.2694000D+01
EXPONENTS  0.4313000D+00 0.4561000D+06 0.6833000D+05 0.1555000D+05 0.4405000D+04
EXPONENTS  0.1439000D+04 0.5204000D+03 0.2031000D+03 0.8396000D+02 0.3620000D+02
EXPONENTS  0.1583000D+02 0.6334000D+01 0.2694000D+01 0.4313000D+00 0.4561000D+06
EXPONENTS  0.6833000D+05 0.1555000D+05 0.4405000D+04 0.1439000D+04 0.5204000D+03
EXPONENTS  0.2031000D+03 0.8396000D+02 0.3620000D+02 0.1583000D+02 0.6334000D+01
EXPONENTS  0.2694000D+01 0.4313000D+00 0.9768000D+00 0.1625000D+00 0.5910000D-01
EXPONENTS  0.6633000D+03 0.1568000D+03 0.4998000D+02 0.1842000D+02 0.7240000D+01
EXPONENTS  0.2922000D+01 0.3818000D+00 0.6633000D+03 0.1568000D+03 0.4998000D+02
EXPONENTS  0.1842000D+02 0.7240000D+01 0.2922000D+01 0.3818000D+00 0.6633000D+03
EXPONENTS  0.1568000D+03 0.4998000D+02 0.1842000D+02 0.7240000D+01 0.2922000D+01
EXPONENTS  0.3818000D+00 0.6633000D+03 0.1568000D+03 0.4998000D+02 0.1842000D+02
EXPONENTS  0.7240000D+01 0.2922000D+01 0.3818000D+00 0.6633000D+03 0.1568000D+03
EXPONENTS  0.4998000D+02 0.1842000D+02 0.7240000D+01 0.2922000D+01 0.3818000D+00
EXPONENTS  0.6633000D+03 0.1568000D+03 0.4998000D+02 0.1842000D+02 0.7240000D+01
EXPONENTS  0.2922000D+01 0.3818000D+00 0.1022000D+01 0.1022000D+01 0.1022000D+01
EXPONENTS  0.1301000D+00 0.1301000D+00 0.1301000D+00 0.4190000D-01 0.4190000D-01
EXPONENTS  0.4190000D-01 0.1046000D+01 0.1046000D+01 0.1046000D+01 0.1046000D+01
EXPONENTS  0.1046000D+01 0.1046000D+01 0.3440000D+00 0.3440000D+00 0.3440000D+00
EXPONENTS  0.3440000D+00 0.3440000D+00 0.3440000D+00 0.1350000D+00 0.1350000D+00
EXPONENTS  0.1350000D+00 0.1350000D+00 0.1350000D+00 0.1350000D+00 0.7060000D+00
EXPONENTS  0.7060000D+00 0.7060000D+00 0.7060000D+00 0.7060000D+00 0.7060000D+00
EXPONENTS  0.7060000D+00 0.7060000D+00 0.7060000D+00 0.7060000D+00 0.3120000D+00
EXPONENTS  0.3120000D+00 0.3120000D+00 0.3120000D+00 0.3120000D+00 0.3120000D+00
EXPONENTS  0.3120000D+00 0.3120000D+00 0.3120000D+00 0.3120000D+00 0.4561000D+06
EXPONENTS  0.6833000D+05 0.1555000D+05 0.4405000D+04 0.1439000D+04 0.5204000D+03
EXPONENTS  0.2031000D+03 0.8396000D+02 0.3620000D+02 0.1583000D+02 0.6334000D+01
EXPONENTS  0.2694000D+01 0.4313000D+00 0.4561000D+06 0.6833000D+05 0.1555000D+05
EXPONENTS  0.4405000D+04 0.1439000D+04 0.5204000D+03 0.2031000D+03 0.8396000D+02
EXPONENTS  0.3620000D+02 0.1583000D+02 0.6334000D+01 0.2694000D+01 0.4313000D+00
EXPONENTS  0.4561000D+06 0.6833000D+05 0.1555000D+05 0.4405000D+04 0.1439000D+04
EXPONENTS  0.5204000D+03 0.2031000D+03 0.8396000D+02 0.3620000D+02 0.1583000D+02
EXPONENTS  0.6334000D+01 0.2694000D+01 0.4313000D+00 0.9768000D+00 0.1625000D+00
EXPONENTS  0.5910000D-01 0.6633000D+03 0.1568000D+03 0.4998000D+02 0.1842000D+02
EXPONENTS  0.7240000D+01 0.2922000D+01 0.3818000D+00 0.6633000D+03 0.1568000D+03
EXPONENTS  0.4998000D+02 0.1842000D+02 0.7240000D+01 0.2922000D+01 0.3818000D+00
EXPONENTS  0.6633000D+03 0.1568000D+03 0.4998000D+02 0.1842000D+02 0.7240000D+01
EXPONENTS  0.2922000D+01 0.3818000D+00 0.6633000D+03 0.1568000D+03 0.4998000D+02
EXPONENTS  0.1842000D+02 0.7240000D+01 0.2922000D+01 0.3818000D+00 0.6633000D+03
EXPONENTS  0.1568000D+03 0.4998000D+02 0.1842000D+02 0.7240000D+01 0.2922000D+01
EXPONENTS  0.3818000D+00 0.6633000D+03 0.1568000D+03 0.4998000D+02 0.1842000D+02
EXPONENTS  0.7240000D+01 0.2922000D+01 0.3818000D+00 0.1022000D+01 0.1022000D+01
EXPONENTS  0.1022000D+01 0.1301000D+00 0.1301000D+00 0.1301000D+00 0.4190000D-01
EXPONENTS  0.4190000D-01 0.4190000D-01 0.1046000D+01 0.1046000D+01 0.1046000D+01
EXPONENTS  0.1046000D+01 0.1046000D+01 0.1046000D+01 0.3440000D+00 0.3440000D+00
EXPONENTS  0.3440000D+00 0.3440000D+00 0.3440000D+00 0.3440000D+00 0.1350000D+00
EXPONENTS  0.1350000D+00 0.1350000D+00 0.1350000D+00 0.1350000D+00 0.1350000D+00
EXPONENTS  0.7060000D+00 0.7060000D+00 0.7060000D+00 0.7060000D+00 0.7060000D+00
EXPONENTS  0.7060000D+00 0.7060000D+00 0.7060000D+00 0.7060000D+00 0.7060000D+00
EXPONENTS  0.3120000D+00 0.3120000D+00 0.3120000D+00 0.3120000D+00 0.3120000D+00
EXPONENTS  0.3120000D+00 0.3120000D+00 0.3120000D+00 0.3120000D+00 0.3120000D+00
EXPONENTS  0.4561000D+06 0.6833000D+05 0.1555000D+05 0.4405000D+04 0.1439000D+04
EXPONENTS  0.5204000D+03 0.2031000D+03 0.8396000D+02 0.3620000D+02 0.1583000D+02
EXPONENTS  0.6334000D+01 0.2694000D+01 0.4313000D+00 0.4561000D+06 0.6833000D+05
EXPONENTS  0.1555000D+05 0.4405000D+04 0.1439000D+04 0.5204000D+03 0.2031000D+03
EXPONENTS  0.8396000D+02 0.3620000D+02 0.1583000D+02 0.6334000D+01 0.2694000D+01
EXPONENTS  0.4313000D+00 0.4561000D+06 0.6833000D+05 0.1555000D+05 0.4405000D+04
EXPONENTS  0.1439000D+04 0.5204000D+03 0.2031000D+03 0.8396000D+02 0.3620000D+02
EXPONENTS  0.1583000D+02 0.6334000D+01 0.2694000D+01 0.4313000D+00 0.9768000D+00
EXPONENTS  0.1625000D+00 0.5910000D-01 0.6633000D+03 0.1568000D+03 0.4998000D+02
EXPONENTS  0.1842000D+02 0.7240000D+01 0.2922000D+01 0.3818000D+00 0.6633000D+03
EXPONENTS  0.1568000D+03 0.4998000D+02 0.1842000D+02 0.7240000D+01 0.2922000D+01
EXPONENTS  0.3818000D+00 0.6633000D+03 0.1568000D+03 0.4998000D+02 0.1842000D+02
EXPONENTS  0.7240000D+01 0.2922000D+01 0.3818000D+00 0.6633000D+03 0.1568000D+03
EXPONENTS  0.4998000D+02 0.1842000D+02 0.7240000D+01 0.2922000D+01 0.3818000D+00
EXPONENTS  0.6633000D+03 0.1568000D+03 0.4998000D+02 0.1842000D+02 0.7240000D+01
EXPONENTS  0.2922000D+01 0.3818000D+00 0.6633000D+03 0.1568000D+03 0.4998000D+02
EXPONENTS  0.1842000D+02 0.7240000D+01 0.2922000D+01 0.3818000D+00 0.1022000D+01
EXPONENTS  0.1022000D+01 0.1022000D+01 0.1301000D+00 0.1301000D+00 0.1301000D+00
EXPONENTS  0.4190000D-01 0.4190000D-01 0.4190000D-01 0.1046000D+01 0.1046000D+01
EXPONENTS  0.1046000D+01 0.1046000D+01 0.1046000D+01 0.1046000D+01 0.3440000D+00
EXPONENTS  0.3440000D+00 0.3440000D+00 0.3440000D+00 0.3440000D+00 0.3440000D+00
EXPONENTS  0.1350000D+00 0.1350000D+00 0.1350000D+00 0.1350000D+00 0.1350000D+00
EXPONENTS  0.1350000D+00 0.7060000D+00 0.7060000D+00 0.7060000D+00 0.7060000D+00
EXPONENTS  0.7060000D+00 0.7060000D+00 0.7060000D+00 0.7060000D+00 0.7060000D+00
EXPONENTS  0.7060000D+00 0.3120000D+00 0.3120000D+00 0.3120000D+00 0.3120000D+00
EXPONENTS  0.3120000D+00 0.3120000D+00 0.3120000D+00 0.3120000D+00 0.3120000D+00
EXPONENTS  0.3120000D+00
MO    1     MO 0.0        OCC NO =    2.0000000  ORB. ENERGY = -104.855950
 -0.16752837D-05 -0.31337164D-05 -0.54117874D-05 -0.87414473D-05 -0.13164440D-04
 -0.17903576D-04 -0.20381406D-04 -0.16511734D-04 -0.67024390D-05 -0.61117025D-06
  0.23487408D-07 -0.78540202D-08 -0.44074981D-09  0.32098235D-05  0.60079058D-05
  0.10390904D-04  0.16888537D-04  0.25839323D-04  0.36667785D-04  0.45996691D-04
  0.46897612D-04  0.28814825D-04 -0.62799554D-05 -0.23002547D-04 -0.10520555D-04
  0.55843684D-07 -0.18466446D-05 -0.34538702D-05 -0.59811673D-05 -0.97113060D-05
 -0.14906658D-04 -0.21174243D-04 -0.26862886D-04 -0.27810345D-04 -0.17913241D-04
  0.44058549D-05  0.17959621D-04  0.15663914D-04 -0.79831461D-05  0.57933756D-06
  0.36883584D-04  0.18953411D-05  0.14580914D-12  0.19232977D-12  0.21363113D-12
  0.18283814D-12  0.10447224D-12  0.33903520D-13  0.23872447D-16  0.20158816D-04
  0.26590517D-04  0.29535533D-04  0.25278253D-04  0.14443791D-04  0.46873249D-05
  0.33004808D-08  0.48204130D-05  0.63583732D-05  0.70625907D-05  0.60445821D-05
  0.34538257D-05  0.11208417D-05  0.78921700D-09 -0.13116746D-12 -0.17936982D-12
 -0.19499306D-12 -0.17899343D-12 -0.97558688D-13 -0.41167893D-13  0.14198307D-13
 -0.18477657D-04 -0.25267958D-04 -0.27468816D-04 -0.25214936D-04 -0.13743164D-04
 -0.57993513D-05  0.20001259D-05 -0.42400292D-05 -0.57981854D-05 -0.63032115D-05
 -0.57860186D-05 -0.31536151D-05 -0.13307650D-05  0.45896471D-06  0.28547473D-13
  0.51402121D-05 -0.18753731D-05  0.33540657D-13  0.54133248D-05 -0.82387449D-06
  0.10683473D-15  0.39628116D-07  0.54365735D-08  0.17305518D-05 -0.24872977D-05
  0.75674593D-06  0.23240061D-13  0.11324139D-13  0.20371090D-05 -0.65010006D-06
  0.23765398D-06  0.41244608D-06 -0.54706066D-14  0.61340489D-14  0.11259307D-05
  0.40524786D-07 -0.47648673D-07  0.71238870D-08  0.34887385D-15  0.12469422D-16
 -0.75319184D-08 -0.24105612D-14 -0.10718447D-05 -0.21325405D-06 -0.23689882D-14
  0.15494192D-05 -0.23073293D-05  0.96006717D-14  0.16661149D-05  0.29470914D-05
 -0.30285641D-13 -0.12893462D-15  0.71864217D-07  0.27338364D-06 -0.29467615D-16
 -0.29239058D-06 -0.11827812D-05  0.41627148D-15  0.76797931D-07  0.36263027D-06
 -0.89165231D-14  0.41756882D-06  0.75310256D-06  0.11104493D-05 -0.47008940D-05
 -0.13021473D-04 -0.24541987D-06  0.14936070D-13  0.25973237D-05 -0.10057217D-06
 -0.22428500D-13 -0.38795491D-05  0.11256171D-05 -0.83142630D-14 -0.14127062D-05
  0.17793328D-05  0.96428471D-07  0.12708245D-06 -0.22351092D-06 -0.13974844D-15
  0.28105148D-13  0.47381054D-05  0.40088801D-06 -0.64092533D-06  0.24003732D-06
  0.61130718D-14  0.33717404D-14  0.60887704D-06  0.61582783D+00  0.11522162D+01
  0.19907744D+01  0.32272775D+01  0.49008783D+01  0.68116446D+01  0.80980627D+01
  0.72131314D+01  0.35808144D+01  0.57692657D+00  0.88573597D-02  0.15828015D-02
  0.59146822D-04 -0.19035438D-04 -0.35555464D-04 -0.61708233D-04 -0.10012738D-03
 -0.15498530D-03 -0.22184737D-03 -0.28958012D-03 -0.30859594D-03 -0.23068173D-03
 -0.12177279D-04  0.15647199D-03  0.92962337D-04 -0.34853907D-06  0.79341202D-05
  0.14807892D-04  0.25734813D-04  0.41708562D-04  0.64779926D-04  0.92799114D-04
  0.12253258D-03  0.13249407D-03  0.10387707D-03  0.51688885D-05 -0.89048911D-04
 -0.92182131D-04  0.41713718D-04 -0.30266576D-03 -0.28830575D-04 -0.84123660D-05
 -0.22511264D-13 -0.29652387D-13 -0.32713529D-13 -0.27172346D-13 -0.14431893D-13
 -0.37224063D-14  0.38265071D-17 -0.90308666D-03 -0.11895678D-02 -0.13123720D-02
 -0.10900758D-02 -0.57896572D-03 -0.14933215D-03  0.15350837D-06  0.32765557D-03
  0.43159592D-03  0.47615140D-03  0.39549847D-03  0.21005885D-03  0.54180304D-04
 -0.55695511D-07  0.10034270D-13  0.13174262D-13  0.14999866D-13  0.12701270D-13
  0.72757767D-14  0.16549868D-14 -0.77462490D-15  0.35234225D-03  0.46259954D-03
  0.52670361D-03  0.44599099D-03  0.25548081D-03  0.58113020D-04 -0.27200092D-04
 -0.13034766D-03 -0.17113693D-03 -0.19485198D-03 -0.16499266D-03 -0.94514146D-04
 -0.21498689D-04  0.10062570D-04  0.68608917D-14  0.60070648D-04 -0.21964473D-04
 -0.21538854D-13  0.11662650D-04 -0.49013854D-05 -0.35261366D-15  0.41636192D-06
 -0.19519566D-06 -0.29901451D-05  0.57004228D-05 -0.27102777D-05 -0.24747512D-13
  0.11549017D-14 -0.52777262D-05 -0.11953514D-05  0.17437826D-05 -0.54843121D-06
  0.15530625D-13 -0.12654702D-14 -0.23393404D-05  0.73030637D-06 -0.11901794D-05
  0.45987302D-06  0.75313752D-14 -0.13732042D-14  0.17752209D-05  0.73765025D-15
 -0.12732551D-05 -0.60682651D-06  0.99995291D-15  0.20304599D-05 -0.23580548D-05
 -0.32129037D-14  0.17893053D-05  0.41785343D-05 -0.56462188D-14  0.11831246D-14
  0.34237785D-06  0.14283533D-06 -0.64146308D-14 -0.42861973D-06  0.78273931D-06
  0.28652569D-14 -0.59851383D-06 -0.12112453D-05  0.39911220D-14 -0.22398254D-01
 -0.41907219D-01 -0.72406391D-01 -0.11737920D+00 -0.17824969D+00 -0.24774610D+00
 -0.29453438D+00 -0.26234857D+00 -0.13023768D+00 -0.20983378D-01 -0.32215074D-03
 -0.57568021D-04 -0.21512271D-05 -0.52670032D-06 -0.98380056D-06 -0.17074336D-05
 -0.27704708D-05 -0.42883598D-05 -0.61383974D-05 -0.80125261D-05 -0.85386836D-05
 -0.63828393D-05 -0.33693875D-06  0.43294957D-05  0.25722178D-05 -0.96438885D-08
  0.38017975D-06  0.70955073D-06  0.12331367D-05  0.19985519D-05  0.31040639D-05
  0.44466612D-05  0.58714017D-05  0.63487269D-05  0.49774842D-05  0.24767797D-06
 -0.42669624D-05 -0.44170971D-05  0.19987989D-05  0.10318611D-04 -0.96330454D-05
 -0.22197404D-05  0.61226395D-04  0.80648903D-04  0.88974634D-04  0.73903661D-04
  0.39252029D-04  0.10124243D-04 -0.10407378D-07 -0.39177396D-04 -0.51605424D-04
 -0.56932872D-04 -0.47289294D-04 -0.25116493D-04 -0.64782762D-05  0.66594477D-08
 -0.26241969D-04 -0.34566562D-04 -0.38135016D-04 -0.31675514D-04 -0.16823635D-04
 -0.43393063D-05  0.44606593D-08 -0.39288187D-04 -0.51582510D-04 -0.58730482D-04
 -0.49730560D-04 -0.28487579D-04 -0.64799360D-05  0.30329667D-05  0.24357983D-04
  0.31980245D-04  0.36411862D-04  0.30832069D-04  0.17661796D-04  0.40174459D-05
 -0.18803858D-05  0.17409280D-04  0.22857109D-04  0.26024500D-04  0.22036478D-04
  0.12623343D-04  0.28713725D-05 -0.13439604D-05 -0.39133909D-05  0.34464792D-05
  0.15087280D-05  0.12097544D-05 -0.44209914D-05  0.56832218D-06  0.43249487D-07
 -0.12064798D-06 -0.27066643D-07 -0.13502534D-05  0.18068028D-05 -0.45654936D-06
 -0.18600099D-05  0.10137056D-05 -0.35005443D-06  0.54886693D-06 -0.10479016D-05
  0.49903472D-06  0.18371388D-05 -0.25205007D-06 -0.94732438D-07  0.26845228D-06
 -0.54786459D-06  0.27941230D-06  0.88512397D-06 -0.38548329D-06 -0.38734507D-08
  0.15045382D-06  0.87993970D-07 -0.27061292D-07  0.14169556D-07  0.39302800D-07
 -0.70429425D-06 -0.46553101D-06 -0.30328471D-06  0.78547813D-06  0.92674481D-06
 -0.29170053D-06 -0.13615104D-06 -0.18042071D-07  0.88100723D-06 -0.96621956D-07
  0.50383193D-06 -0.59056307D-08  0.50507506D-06 -0.44970572D-06 -0.46233825D-06
 -0.22398258D-01 -0.41907227D-01 -0.72406405D-01 -0.11737923D+00 -0.17824972D+00
 -0.24774615D+00 -0.29453443D+00 -0.26234862D+00 -0.13023771D+00 -0.20983382D-01
 -0.32215080D-03 -0.57568032D-04 -0.21512275D-05 -0.52670019D-06 -0.98380032D-06
 -0.17074332D-05 -0.27704702D-05 -0.42883588D-05 -0.61383960D-05 -0.80125242D-05
 -0.85386815D-05 -0.63828378D-05 -0.33693867D-06  0.43294946D-05  0.25722172D-05
 -0.96438862D-08  0.38017970D-06  0.70955063D-06  0.12331365D-05  0.19985516D-05
  0.31040635D-05  0.44466606D-05  0.58714009D-05  0.63487260D-05  0.49774835D-05
  0.24767793D-06 -0.42669618D-05 -0.44170965D-05  0.19987987D-05  0.10318613D-04
 -0.96330452D-05 -0.22197404D-05 -0.61226401D-04 -0.80648911D-04 -0.88974642D-04
 -0.73903667D-04 -0.39252033D-04 -0.10124244D-04  0.10407379D-07 -0.39177400D-04
 -0.51605428D-04 -0.56932876D-04 -0.47289298D-04 -0.25116495D-04 -0.64782767D-05
  0.66594482D-08 -0.26241971D-04 -0.34566566D-04 -0.38135020D-04 -0.31675517D-04
 -0.16823637D-04 -0.43393067D-05  0.44606597D-08  0.39288189D-04  0.51582513D-04
  0.58730486D-04  0.49730563D-04  0.28487581D-04  0.64799364D-05 -0.30329668D-05
  0.24357984D-04  0.31980247D-04  0.36411864D-04  0.30832071D-04  0.17661797D-04
  0.40174462D-05 -0.18803859D-05  0.17409281D-04  0.22857110D-04  0.26024501D-04
  0.22036479D-04  0.12623344D-04  0.28713727D-05 -0.13439604D-05  0.39133913D-05
  0.34464794D-05  0.15087282D-05 -0.12097543D-05 -0.44209913D-05  0.56832222D-06
 -0.43249485D-07 -0.12064797D-06 -0.27066642D-07 -0.13502534D-05  0.18068028D-05
 -0.45654935D-06  0.18600098D-05 -0.10137056D-05 -0.35005445D-06  0.54886691D-06
 -0.10479016D-05  0.49903473D-06 -0.18371388D-05  0.25205006D-06 -0.94732444D-07
  0.26845228D-06 -0.54786459D-06  0.27941230D-06 -0.88512396D-06  0.38548331D-06
 -0.38734422D-08 -0.15045382D-06  0.87993973D-07 -0.27061288D-07 -0.14169559D-07
  0.39302780D-07 -0.70429427D-06  0.46553102D-06 -0.30328470D-06  0.78547814D-06
 -0.92674486D-06  0.29170053D-06 -0.13615104D-06 -0.18042072D-07 -0.88100723D-06
 -0.96621950D-07  0.50383194D-06  0.59056297D-08  0.50507506D-06 -0.44970572D-06
  0.46233826D-06
MO    2     MO 0.0        OCC NO =    2.0000000  ORB. ENERGY = -104.855948
 -0.45602725D-11 -0.85302569D-11 -0.14731370D-10 -0.23795003D-10 -0.35834785D-10
 -0.48735138D-10 -0.55480014D-10 -0.44946420D-10 -0.18244640D-10 -0.16636602D-11
  0.63934831D-13 -0.21379347D-13 -0.11997605D-14  0.87366679D-11  0.16352637D-10
  0.28282514D-10  0.45968114D-10  0.70330840D-10  0.99804323D-10  0.12519623D-09
  0.12764841D-09  0.78429719D-10 -0.17093116D-10 -0.62609553D-10 -0.28635405D-10
  0.15199830D-12 -0.50257986D-11 -0.93999979D-11 -0.16278249D-10 -0.26430135D-10
 -0.40569723D-10 -0.57627482D-10 -0.73109601D-10 -0.75688191D-10 -0.48752392D-10
  0.11990904D-10  0.48878617D-10  0.42630658D-10 -0.21726803D-10  0.16189915D-11
  0.10013080D-09  0.50834357D-11 -0.23861430D-04 -0.31474456D-04 -0.34960389D-04
 -0.29921165D-04 -0.17096713D-04 -0.55482562D-05 -0.39066873D-08 -0.21603987D-10
 -0.28496773D-10 -0.31652914D-10 -0.27090433D-10 -0.15479256D-10 -0.50233559D-11
 -0.35370899D-14  0.13368603D-10  0.17633877D-10  0.19586905D-10  0.16763630D-10
  0.95786036D-11  0.31084657D-11  0.21887604D-14  0.21871539D-04  0.29909048D-04
  0.32514147D-04  0.29846287D-04  0.16267438D-04  0.68645466D-05 -0.23674989D-05
  0.19820916D-10  0.27104847D-10  0.29465699D-10  0.27047971D-10  0.14742242D-10
  0.62209432D-11 -0.21455278D-11 -0.11748960D-10 -0.16066552D-10 -0.17465961D-10
 -0.16032838D-10 -0.87385480D-11 -0.36874994D-11  0.12717738D-11 -0.60826211D-05
 -0.55783938D-11 -0.51173074D-11 -0.64040180D-05 -0.58354247D-11 -0.22246859D-11
 -0.46880822D-07 -0.42052495D-13  0.11923521D-13 -0.33100636D-11  0.12477285D-11
  0.20623351D-11 -0.49914842D-05 -0.24107751D-05 -0.22245376D-11 -0.89829481D-13
 -0.10377278D-11  0.11275573D-11  0.10509893D-05 -0.13322415D-05 -0.12188927D-11
 -0.56170946D-13  0.36851575D-13  0.19319371D-13 -0.10441597D-06  0.88890410D-08
  0.51664168D-14  0.49277959D-06 -0.13347091D-11 -0.58289434D-12  0.49314137D-06
  0.58089484D-11  0.37197216D-11 -0.19714801D-05 -0.18048212D-11 -0.19710386D-11
  0.62180966D-05  0.22730862D-07  0.26786628D-12  0.74259704D-12  0.22683045D-07
 -0.72033710D-12 -0.27891443D-12 -0.90875631D-07 -0.83261758D-13 -0.19488767D-11
  0.18287191D-05  0.11356915D-11  0.20482664D-11  0.30201676D-11 -0.12774488D-10
 -0.35380889D-10 -0.64705302D-12 -0.30744994D-05 -0.28216967D-11 -0.27290281D-12
  0.45911647D-05  0.42098766D-11  0.30585519D-11  0.16717434D-05  0.15386571D-11
  0.48393895D-11  0.31942451D-12  0.28830283D-12 -0.60772734D-12  0.35723230D-07
 -0.56061276D-05 -0.51212926D-11 -0.88933922D-12  0.23847722D-12  0.65086200D-12
 -0.12331750D-05 -0.72078659D-06 -0.66700912D-12  0.57508261D-07  0.10759818D-06
  0.18590581D-06  0.30137501D-06  0.45766199D-06  0.63609635D-06  0.75622680D-06
  0.67358866D-06  0.33438958D-06  0.53875519D-07  0.82713273D-09  0.14780781D-09
  0.55233471D-11 -0.48619422D-11 -0.90814099D-11 -0.15761227D-10 -0.25574067D-10
 -0.39585618D-10 -0.56663216D-10 -0.73963196D-10 -0.78820128D-10 -0.58919646D-10
 -0.31102634D-11  0.39965341D-10  0.23744004D-10 -0.89022215D-13  0.24330445D-11
  0.45409270D-11  0.78917315D-11  0.12790175D-10  0.19865144D-10  0.28457393D-10
  0.37575335D-10  0.40630084D-10  0.31854512D-10  0.15850700D-11 -0.27307371D-10
 -0.28268191D-10  0.12791756D-10 -0.30007702D-10 -0.29735941D-10 -0.71559470D-11
  0.45253026D-05  0.59608391D-05  0.65762019D-05  0.54622916D-05  0.29011558D-05
  0.74829270D-06 -0.76921946D-09  0.16474235D-10  0.21700264D-10  0.23940475D-10
  0.19885316D-10  0.10561575D-10  0.27241382D-11 -0.28003214D-14 -0.56941798D-11
 -0.75005127D-11 -0.82748227D-11 -0.68731914D-11 -0.36505189D-11 -0.94157531D-12
  0.96790741D-15 -0.19794768D-05 -0.25989079D-05 -0.29590479D-05 -0.25056002D-05
 -0.14353043D-05 -0.32648193D-06  0.15281151D-06 -0.51735347D-10 -0.67924718D-10
 -0.77337289D-10 -0.65486040D-10 -0.37512925D-10 -0.85328889D-11  0.39938616D-11
  0.19928942D-10  0.26165240D-10  0.29791051D-10  0.25225839D-10  0.14450332D-10
  0.32869491D-11 -0.15384731D-11 -0.14042973D-05 -0.18113598D-11 -0.25499670D-12
  0.44043516D-05  0.10406052D-10  0.54229303D-12  0.11322886D-06  0.32372681D-12
 -0.10135040D-12 -0.19145363D-13  0.16770124D-11 -0.16578670D-11  0.50063343D-05
 -0.27818806D-06  0.16972484D-11  0.15063966D-12 -0.13125873D-11  0.11619476D-11
 -0.31443640D-05  0.28417220D-06 -0.87334764D-12  0.23368612D-12 -0.10282652D-11
  0.79457911D-12 -0.15705366D-05  0.26784640D-06 -0.51579742D-12 -0.12274982D-06
 -0.47144940D-13 -0.18180570D-12 -0.30902251D-06  0.44360414D-12  0.16312590D-11
  0.67727196D-06 -0.30216932D-12 -0.10858419D-11  0.11300004D-05 -0.25215786D-06
  0.20230988D-12 -0.19358896D-13  0.13502019D-05  0.15981019D-12 -0.90039536D-12
 -0.59372829D-06 -0.76673982D-12  0.95847205D-12 -0.81243746D-06 -0.43603052D+00
 -0.81581477D+00 -0.14095472D+01 -0.22850404D+01 -0.34700161D+01 -0.48229144D+01
 -0.57337495D+01 -0.51071830D+01 -0.25353586D+01 -0.40848689D+00 -0.62713618D-02
 -0.11206862D-02 -0.41878294D-04  0.12645103D-04  0.23619236D-04  0.40992330D-04
  0.66513892D-04  0.10295561D-03  0.14737160D-03  0.19236597D-03  0.20499804D-03
  0.15324019D-03  0.80892776D-05 -0.10394320D-03 -0.61754204D-04  0.23153197D-06
 -0.51608181D-05 -0.96319234D-05 -0.16739435D-04 -0.27129700D-04 -0.42136672D-04
 -0.60361998D-04 -0.79702394D-04 -0.86181930D-04 -0.67567750D-04 -0.33621489D-05
  0.57922645D-04  0.59960676D-04 -0.27133054D-04  0.21382871D-03  0.13113316D-04
  0.42300874D-05  0.57840136D-03  0.76188440D-03  0.84053698D-03  0.69816258D-03
  0.37081110D-03  0.95643000D-04 -0.98317753D-07 -0.33136957D-03 -0.43648809D-03
 -0.48154862D-03 -0.39998148D-03 -0.21243988D-03 -0.54794442D-04  0.56326824D-07
 -0.24182127D-03 -0.31853288D-03 -0.35141639D-03 -0.29189171D-03 -0.15503078D-03
 -0.39986959D-04  0.41105235D-07 -0.23630518D-03 -0.31025137D-03 -0.35324401D-03
 -0.29911252D-03 -0.17134317D-03 -0.38974627D-04  0.18242270D-04  0.13529923D-03
  0.17763797D-03  0.20225389D-03  0.17126029D-03  0.98104488D-04  0.22315368D-04
 -0.10444820D-04  0.10096092D-03  0.13255428D-03  0.15092280D-03  0.12779523D-03
  0.73206028D-04  0.16651832D-04 -0.77939737D-05 -0.38916248D-04  0.21660400D-04
  0.16039386D-04 -0.38712659D-05  0.47776884D-05  0.37368947D-05 -0.16016937D-06
  0.15784878D-06  0.11486441D-06 -0.11646417D-05 -0.37500617D-06  0.15396479D-05
  0.63741849D-05  0.36763864D-05 -0.22835886D-05 -0.16758333D-05  0.96029413D-06
  0.71553917D-06  0.14224004D-05  0.13543885D-05 -0.61782431D-06 -0.11487867D-07
  0.13484068D-06 -0.12335282D-06 -0.13167513D-05 -0.11797850D-05  0.83590564D-06
  0.23672407D-06  0.32492340D-06  0.39623629D-06  0.32887633D-06 -0.19650542D-05
 -0.17303660D-05 -0.10390485D-05  0.99028398D-06  0.54165714D-06  0.50663888D-05
  0.18677502D-06 -0.44990140D-07 -0.10996123D-06 -0.61395402D-06  0.50843616D-06
  0.47932735D-06  0.53628953D-07 -0.37346574D-06 -0.14944368D-06 -0.19021740D-05
  0.43603202D+00  0.81581757D+00  0.14095520D+01  0.22850483D+01  0.34700281D+01
  0.48229310D+01  0.57337691D+01  0.51072005D+01  0.25353673D+01  0.40848829D+00