 Molden2AIM, Version 4.0.0 (06/02/2016)           Time: Wed Jun 27 23:22:40 2018
GAUSSIAN             16 MOL ORBITALS    281 PRIMITIVES        3 NUCLEI
  S    1    (CENTRE  1)   0.00000000  0.00000000  0.72840438  CHARGE = 16.0
  O    2    (CENTRE  2)   0.00000000  2.38409549 -0.71405380  CHARGE =  8.0
  O    3    (CENTRE  3)   0.00000000 -2.38409549 -0.71405380  CHARGE =  8.0
CENTRE ASSIGNMENTS    1  1  1  1  1  1  1  1  1  1  1  1  1  1  1  1  1  1  1  1
CENTRE ASSIGNMENTS    1  1  1  1  1  1  1  1  1  1  1  1  1  1  1  1  1  1  1  1
CENTRE ASSIGNMENTS    1  1  1  1  1  1  1  1  1  1  1  1  1  1  1  1  1  1  1  1
CENTRE ASSIGNMENTS    1  1  1  1  1  1  1  1  1  1  1  1  1  1  1  1  1  1  1  1
CENTRE ASSIGNMENTS    1  1  1  1  1  1  1  1  1  1  1  1  1  1  1  1  1  1  1  1
CENTRE ASSIGNMENTS    1  1  1  1  1  1  1  1  1  1  1  1  1  1  1  1  1  1  1  1
CENTRE ASSIGNMENTS    1  1  1  1  1  1  1  1  1  1  1  2  2  2  2  2  2  2  2  2
CENTRE ASSIGNMENTS    2  2  2  2  2  2  2  2  2  2  2  2  2  2  2  2  2  2  2  2
CENTRE ASSIGNMENTS    2  2  2  2  2  2  2  2  2  2  2  2  2  2  2  2  2  2  2  2
CENTRE ASSIGNMENTS    2  2  2  2  2  2  2  2  2  2  2  2  2  2  2  2  2  2  2  2
CENTRE ASSIGNMENTS    2  2  2  2  2  2  3  3  3  3  3  3  3  3  3  3  3  3  3  3
CENTRE ASSIGNMENTS    3  3  3  3  3  3  3  3  3  3  3  3  3  3  3  3  3  3  3  3
CENTRE ASSIGNMENTS    3  3  3  3  3  3  3  3  3  3  3  3  3  3  3  3  3  3  3  3
CENTRE ASSIGNMENTS    3  3  3  3  3  3  3  3  3  3  3  3  3  3  3  3  3  3  3  3
CENTRE ASSIGNMENTS    3
TYPE ASSIGNMENTS      1  1  1  1  1  1  1  1  1  1  1  1  1  1  1  1  1  1  1  1
TYPE ASSIGNMENTS      1  1  1  1  1  1  1  1  1  1  1  1  1  1  1  1  1  1  1  1
TYPE ASSIGNMENTS      1  1  2  2  2  2  2  2  2  3  3  3  3  3  3  3  4  4  4  4
TYPE ASSIGNMENTS      4  4  4  2  2  2  2  2  2  2  3  3  3  3  3  3  3  4  4  4
TYPE ASSIGNMENTS      4  4  4  4  2  3  4  2  3  4  2  3  4  5  6  7  8  9 10  5
TYPE ASSIGNMENTS      6  7  8  9 10  5  6  7  8  9 10 11 12 13 17 14 15 18 19 16
TYPE ASSIGNMENTS     20 11 12 13 17 14 15 18 19 16 20  1  1  1  1  1  1  1  1  1
TYPE ASSIGNMENTS      1  1  1  1  1  1  1  1  1  1  2  2  2  3  3  3  4  4  4  2
TYPE ASSIGNMENTS      3  4  2  3  4  2  3  4  5  6  7  8  9 10  5  6  7  8  9 10
TYPE ASSIGNMENTS      5  6  7  8  9 10 11 12 13 17 14 15 18 19 16 20 11 12 13 17
TYPE ASSIGNMENTS     14 15 18 19 16 20  1  1  1  1  1  1  1  1  1  1  1  1  1  1
TYPE ASSIGNMENTS      1  1  1  1  1  2  2  2  3  3  3  4  4  4  2  3  4  2  3  4
TYPE ASSIGNMENTS      2  3  4  5  6  7  8  9 10  5  6  7  8  9 10  5  6  7  8  9
TYPE ASSIGNMENTS     10 11 12 13 17 14 15 18 19 16 20 11 12 13 17 14 15 18 19 16
TYPE ASSIGNMENTS     20
EXPONENTS  0.3741000D+06 0.5605000D+05 0.1276000D+05 0.3615000D+04 0.1183000D+04
EXPONENTS  0.4288000D+03 0.1678000D+03 0.6947000D+02 0.2984000D+02 0.1272000D+02
EXPONENTS  0.5244000D+01 0.2219000D+01 0.3490000D+00 0.3741000D+06 0.5605000D+05
EXPONENTS  0.1276000D+05 0.3615000D+04 0.1183000D+04 0.4288000D+03 0.1678000D+03
EXPONENTS  0.6947000D+02 0.2984000D+02 0.1272000D+02 0.5244000D+01 0.2219000D+01
EXPONENTS  0.3490000D+00 0.3741000D+06 0.5605000D+05 0.1276000D+05 0.3615000D+04
EXPONENTS  0.1183000D+04 0.4288000D+03 0.1678000D+03 0.6947000D+02 0.2984000D+02
EXPONENTS  0.1272000D+02 0.5244000D+01 0.2219000D+01 0.3490000D+00 0.7767000D+00
EXPONENTS  0.1322000D+00 0.4970000D-01 0.5744000D+03 0.1358000D+03 0.4319000D+02
EXPONENTS  0.1587000D+02 0.6208000D+01 0.2483000D+01 0.3229000D+00 0.5744000D+03
EXPONENTS  0.1358000D+03 0.4319000D+02 0.1587000D+02 0.6208000D+01 0.2483000D+01
EXPONENTS  0.3229000D+00 0.5744000D+03 0.1358000D+03 0.4319000D+02 0.1587000D+02
EXPONENTS  0.6208000D+01 0.2483000D+01 0.3229000D+00 0.5744000D+03 0.1358000D+03
EXPONENTS  0.4319000D+02 0.1587000D+02 0.6208000D+01 0.2483000D+01 0.3229000D+00
EXPONENTS  0.5744000D+03 0.1358000D+03 0.4319000D+02 0.1587000D+02 0.6208000D+01
EXPONENTS  0.2483000D+01 0.3229000D+00 0.5744000D+03 0.1358000D+03 0.4319000D+02
EXPONENTS  0.1587000D+02 0.6208000D+01 0.2483000D+01 0.3229000D+00 0.8688000D+00
EXPONENTS  0.8688000D+00 0.8688000D+00 0.1098000D+00 0.1098000D+00 0.1098000D+00
EXPONENTS  0.3510000D-01 0.3510000D-01 0.3510000D-01 0.2690000D+00 0.2690000D+00
EXPONENTS  0.2690000D+00 0.2690000D+00 0.2690000D+00 0.2690000D+00 0.8190000D+00
EXPONENTS  0.8190000D+00 0.8190000D+00 0.8190000D+00 0.8190000D+00 0.8190000D+00
EXPONENTS  0.1010000D+00 0.1010000D+00 0.1010000D+00 0.1010000D+00 0.1010000D+00
EXPONENTS  0.1010000D+00 0.5570000D+00 0.5570000D+00 0.5570000D+00 0.5570000D+00
EXPONENTS  0.5570000D+00 0.5570000D+00 0.5570000D+00 0.5570000D+00 0.5570000D+00
EXPONENTS  0.5570000D+00 0.2180000D+00 0.2180000D+00 0.2180000D+00 0.2180000D+00
EXPONENTS  0.2180000D+00 0.2180000D+00 0.2180000D+00 0.2180000D+00 0.2180000D+00
EXPONENTS  0.2180000D+00 0.1533000D+05 0.2299000D+04 0.5224000D+03 0.1473000D+03
EXPONENTS  0.4755000D+02 0.1676000D+02 0.6207000D+01 0.6882000D+00 0.1533000D+05
EXPONENTS  0.2299000D+04 0.5224000D+03 0.1473000D+03 0.4755000D+02 0.1676000D+02
EXPONENTS  0.6207000D+01 0.6882000D+00 0.1752000D+01 0.2384000D+00 0.7376000D-01
EXPONENTS  0.3446000D+02 0.7749000D+01 0.2280000D+01 0.3446000D+02 0.7749000D+01
EXPONENTS  0.2280000D+01 0.3446000D+02 0.7749000D+01 0.2280000D+01 0.7156000D+00
EXPONENTS  0.7156000D+00 0.7156000D+00 0.2140000D+00 0.2140000D+00 0.2140000D+00
EXPONENTS  0.5974000D-01 0.5974000D-01 0.5974000D-01 0.2314000D+01 0.2314000D+01
EXPONENTS  0.2314000D+01 0.2314000D+01 0.2314000D+01 0.2314000D+01 0.6450000D+00
EXPONENTS  0.6450000D+00 0.6450000D+00 0.6450000D+00 0.6450000D+00 0.6450000D+00
EXPONENTS  0.2140000D+00 0.2140000D+00 0.2140000D+00 0.2140000D+00 0.2140000D+00
EXPONENTS  0.2140000D+00 0.1428000D+01 0.1428000D+01 0.1428000D+01 0.1428000D+01
EXPONENTS  0.1428000D+01 0.1428000D+01 0.1428000D+01 0.1428000D+01 0.1428000D+01
EXPONENTS  0.1428000D+01 0.5000000D+00 0.5000000D+00 0.5000000D+00 0.5000000D+00
EXPONENTS  0.5000000D+00 0.5000000D+00 0.5000000D+00 0.5000000D+00 0.5000000D+00
EXPONENTS  0.5000000D+00 0.1533000D+05 0.2299000D+04 0.5224000D+03 0.1473000D+03
EXPONENTS  0.4755000D+02 0.1676000D+02 0.6207000D+01 0.6882000D+00 0.1533000D+05
EXPONENTS  0.2299000D+04 0.5224000D+03 0.1473000D+03 0.4755000D+02 0.1676000D+02
EXPONENTS  0.6207000D+01 0.6882000D+00 0.1752000D+01 0.2384000D+00 0.7376000D-01
EXPONENTS  0.3446000D+02 0.7749000D+01 0.2280000D+01 0.3446000D+02 0.7749000D+01
EXPONENTS  0.2280000D+01 0.3446000D+02 0.7749000D+01 0.2280000D+01 0.7156000D+00
EXPONENTS  0.7156000D+00 0.7156000D+00 0.2140000D+00 0.2140000D+00 0.2140000D+00
EXPONENTS  0.5974000D-01 0.5974000D-01 0.5974000D-01 0.2314000D+01 0.2314000D+01
EXPONENTS  0.2314000D+01 0.2314000D+01 0.2314000D+01 0.2314000D+01 0.6450000D+00
EXPONENTS  0.6450000D+00 0.6450000D+00 0.6450000D+00 0.6450000D+00 0.6450000D+00
EXPONENTS  0.2140000D+00 0.2140000D+00 0.2140000D+00 0.2140000D+00 0.2140000D+00
EXPONENTS  0.2140000D+00 0.1428000D+01 0.1428000D+01 0.1428000D+01 0.1428000D+01
EXPONENTS  0.1428000D+01 0.1428000D+01 0.1428000D+01 0.1428000D+01 0.1428000D+01
EXPONENTS  0.1428000D+01 0.5000000D+00 0.5000000D+00 0.5000000D+00 0.5000000D+00
EXPONENTS  0.5000000D+00 0.5000000D+00 0.5000000D+00 0.5000000D+00 0.5000000D+00
EXPONENTS  0.5000000D+00
MO    1     MO 0.0        OCC NO =    2.0000000  ORB. ENERGY =  -92.195948
  0.58446637D+00  0.10926259D+01  0.18883987D+01  0.30544002D+01  0.46165471D+01
  0.63577429D+01  0.74307274D+01  0.64207091D+01  0.29946416D+01  0.40660763D+00
  0.10887951D-02  0.21357658D-02  0.97506630D-04  0.12110215D-04  0.22616342D-04
  0.39231544D-04  0.63612592D-04  0.97938827D-04  0.13948689D-03  0.17936203D-03
  0.18827676D-03  0.13312501D-03 -0.29481091D-05 -0.95652041D-04 -0.52668610D-04
  0.22273466D-06 -0.25978953D-05 -0.48480569D-05 -0.84204946D-05 -0.13639333D-04
 -0.21068778D-04 -0.30036708D-04 -0.39067946D-04 -0.41635899D-04 -0.30880481D-04
  0.96119469D-06  0.27976107D-04  0.27406929D-04 -0.12800661D-04 -0.36631645D-03
  0.42532301D-04  0.64763431D-05  0.98727379D-17  0.12952494D-16  0.14206912D-16
  0.11689673D-16  0.61630265D-17  0.16033282D-17 -0.17742461D-20 -0.17320841D-13
 -0.22724000D-13 -0.24924765D-13 -0.20508491D-13 -0.10812482D-13 -0.28128968D-14
  0.31127571D-17 -0.16773215D-02 -0.22005545D-02 -0.24136729D-02 -0.19860083D-02
 -0.10470628D-02 -0.27239626D-03  0.30143424D-06 -0.26192891D-17 -0.34391425D-17
 -0.38692672D-17 -0.32601502D-17 -0.18236823D-17 -0.45391081D-18  0.20818537D-18
  0.15680710D-13  0.20588868D-13  0.23163865D-13  0.19517307D-13  0.10917708D-13
  0.27173953D-14 -0.12463284D-14  0.61740078D-03  0.81065099D-03  0.91203702D-03
  0.76846015D-03  0.42986583D-03  0.10699273D-03 -0.49072021D-04 -0.59354782D-18
  0.52693925D-15  0.12106873D-03  0.16928365D-19 -0.34250845D-15 -0.86778121D-05
  0.48793654D-21 -0.10304812D-16 -0.15915368D-06 -0.11663816D-04  0.12976381D-04
 -0.13125650D-05  0.10415228D-19 -0.47844550D-19  0.54835774D-15  0.22950543D-04
 -0.21315334D-04 -0.16352090D-05 -0.27116975D-19 -0.60728708D-19  0.32722579D-15
 -0.54721653D-06  0.62318091D-06 -0.75964377D-07  0.48341799D-21 -0.22337429D-20
  0.37937901D-16 -0.11121126D-19 -0.33837515D-16  0.25986558D-06 -0.66095946D-20
  0.17782017D-15  0.31302554D-05  0.39972973D-19 -0.76307627D-16 -0.39098521D-05
  0.54936628D-19 -0.50267844D-20  0.11158090D-16  0.10084051D-05  0.17068312D-19
  0.11027094D-16  0.16791465D-05 -0.19879590D-20 -0.44501363D-16 -0.47043618D-05
 -0.58175585D-20  0.13147288D-05  0.24504853D-05  0.41552111D-05  0.62891055D-05
  0.78469674D-05  0.67394985D-05  0.25874245D-05 -0.11573709D-07 -0.34287776D-06
 -0.64307575D-06 -0.10963032D-05 -0.17133085D-05 -0.22910199D-05 -0.24462751D-05
 -0.14956046D-05  0.98670909D-06 -0.31243037D-05 -0.42672881D-04 -0.85373895D-05
 -0.19048534D-20 -0.18470671D-20 -0.12460205D-20  0.14163231D-04  0.13733569D-04
  0.92645848D-05 -0.72482578D-05 -0.70283719D-05 -0.47412981D-05  0.14640889D-19
  0.15685426D-04 -0.11800831D-04 -0.62788432D-19  0.15321465D-04 -0.78422535D-05
 -0.14730797D-20  0.45382149D-06 -0.14801856D-06  0.14392268D-04 -0.19138989D-04
  0.47467206D-05  0.20461342D-19  0.27651866D-19  0.43944712D-04 -0.18313215D-05
  0.21818835D-05 -0.35056194D-06  0.26673551D-19 -0.16266113D-19 -0.59294289D-05
  0.36994921D-06 -0.10649876D-05  0.69503835D-06  0.29996858D-19 -0.22380184D-19
  0.12263310D-05 -0.28838524D-19 -0.39135107D-05 -0.46700453D-05  0.41510042D-19
  0.14426801D-04 -0.34524024D-05  0.45005531D-19 -0.26862688D-05  0.17462538D-04
 -0.11901358D-18  0.12757812D-19 -0.56874063D-06 -0.16773379D-05 -0.26715166D-19
  0.51624607D-05 -0.50213129D-05 -0.11558271D-19 -0.34562388D-05  0.10053326D-04
  0.49333509D-19  0.13147288D-05  0.24504853D-05  0.41552111D-05  0.62891055D-05
  0.78469674D-05  0.67394985D-05  0.25874245D-05 -0.11573709D-07 -0.34287777D-06
 -0.64307575D-06 -0.10963032D-05 -0.17133085D-05 -0.22910199D-05 -0.24462751D-05
 -0.14956046D-05  0.98670909D-06 -0.31243037D-05 -0.42672881D-04 -0.85373895D-05
 -0.29542197D-19 -0.28645994D-19 -0.19324418D-19 -0.14163231D-04 -0.13733569D-04
 -0.92645848D-05 -0.72482578D-05 -0.70283719D-05 -0.47412981D-05  0.20573225D-19
 -0.15685426D-04 -0.11800831D-04 -0.51666483D-19 -0.15321465D-04 -0.78422535D-05
 -0.12261974D-20 -0.45382149D-06 -0.14801856D-06  0.14392268D-04 -0.19138989D-04
  0.47467206D-05  0.65396444D-19  0.18091958D-20 -0.43944712D-04 -0.18313215D-05
  0.21818835D-05 -0.35056194D-06 -0.26096166D-19 -0.12893824D-19  0.59294289D-05
  0.36994921D-06 -0.10649876D-05  0.69503835D-06 -0.25438217D-19 -0.20174868D-19
 -0.12263310D-05 -0.31936019D-19  0.39135107D-05 -0.46700453D-05  0.60931874D-19
 -0.14426801D-04 -0.34524024D-05  0.34876182D-19  0.26862688D-05  0.17462538D-04
  0.14623043D-18  0.13946475D-19  0.56874063D-06 -0.16773379D-05 -0.33447959D-19
 -0.51624607D-05 -0.50213129D-05 -0.83914678D-20  0.34562388D-05  0.10053326D-04
 -0.46069750D-19
MO    2     MO 0.0        OCC NO =    2.0000000  ORB. ENERGY =  -20.632947
  0.26046906D-13  0.48693178D-13  0.84157014D-13  0.13612019D-12  0.20573770D-12
  0.28333458D-12  0.33115243D-12  0.28614068D-12  0.13345703D-12  0.18120582D-13
  0.48522454D-16  0.95180996D-16  0.43454100D-17 -0.45115376D-13 -0.84254886D-13
 -0.14615314D-12 -0.23698226D-12 -0.36486117D-12 -0.51964426D-12 -0.66819506D-12
 -0.70140597D-12 -0.49594373D-12  0.10982882D-13  0.35634198D-12  0.19621156D-12
 -0.82977538D-15  0.26889571D-13  0.50179917D-13  0.87156510D-13  0.14117421D-12
  0.21807284D-12  0.31089559D-12  0.40437361D-12  0.43095327D-12  0.31962908D-12
 -0.99488663D-14 -0.28956729D-12 -0.28367600D-12  0.13249352D-12 -0.21283192D-12
  0.32217849D-13  0.21592700D-13  0.16096396D-14  0.21117595D-14  0.23162783D-14
  0.19058705D-14  0.10048126D-14  0.26140475D-15 -0.28927101D-18  0.71841666D-02
  0.94252354D-02  0.10338047D-01  0.85063086D-02  0.44846941D-02  0.11667054D-02
 -0.12910785D-05 -0.10075627D-11 -0.13218674D-11 -0.14498870D-11 -0.11929900D-11
 -0.62896794D-12 -0.16362773D-12  0.18107077D-15 -0.32601265D-15 -0.42805660D-15
 -0.48159254D-15 -0.40577812D-15 -0.22698659D-15 -0.56496501D-16  0.25912018D-16
 -0.76311570D-02 -0.10019756D-01 -0.11272901D-01 -0.94982711D-02 -0.53131997D-02
 -0.13224446D-02  0.60653680D-03  0.12567533D-11  0.16501247D-11  0.18565015D-11
  0.15642429D-11  0.87501554D-12  0.21778959D-12 -0.99888799D-13 -0.45972426D-16
 -0.22025816D-03  0.62359197D-14 -0.96382895D-17 -0.15454321D-03  0.88763469D-14
  0.14693989D-17  0.19230063D-05 -0.12754082D-14 -0.44739652D-13  0.85083295D-13
 -0.40343644D-13  0.29916662D-16  0.12925285D-17 -0.43084714D-03 -0.12848567D-12
  0.13063621D-12 -0.21505412D-14 -0.13103830D-17 -0.77458421D-18 -0.79842279D-03
  0.66143692D-15  0.23444180D-14 -0.30058549D-14 -0.25842270D-18 -0.79324910D-19
  0.25068183D-04  0.42758175D-18  0.69560334D-04  0.53680206D-13 -0.68693236D-18
 -0.38366082D-03  0.86268152D-13 -0.59581288D-18  0.17497982D-03 -0.24730877D-12
  0.44500414D-17  0.17980371D-20 -0.25364135D-04  0.75841400D-14  0.81838431D-19
  0.80346216D-05  0.13638864D-14 -0.87232542D-19  0.68057782D-04 -0.24116306D-13
  0.10824255D-18  0.35234883D+00  0.65673289D+00  0.11136014D+01  0.16854876D+01
  0.21029964D+01  0.18061934D+01  0.69343277D+00 -0.31017673D-02  0.20455306D-03
  0.38364434D-03  0.65402950D-03  0.10221208D-02  0.13667703D-02  0.14593920D-02
  0.89224365D-03 -0.58864817D-03  0.33216542D-01  0.55600666D-03  0.42943447D-04
 -0.14389904D-16 -0.13953366D-16 -0.94128585D-17 -0.55139074D-02 -0.53466354D-02
 -0.36068086D-02  0.29068368D-02  0.28186539D-02  0.19014473D-02  0.22397973D-17
  0.10192304D-02 -0.53275164D-03  0.22101049D-17  0.33997851D-04  0.15564325D-03
 -0.97211199D-19 -0.67980788D-05  0.16286362D-05 -0.63797782D-03  0.47697469D-03
  0.16100313D-03 -0.52757279D-17  0.91968083D-17 -0.56925227D-03  0.10131636D-03
 -0.21638357D-03  0.11506721D-03 -0.34926285D-17 -0.31709661D-18  0.34441229D-03
 -0.86356744D-05 -0.19926114D-04  0.28561789D-04 -0.87515244D-18  0.53530405D-18
 -0.39323074D-04  0.34331424D-18  0.10285012D-03  0.82048150D-05 -0.10820883D-17
 -0.36980757D-03  0.82576796D-04  0.52145579D-19  0.61257219D-04 -0.10719124D-03
 -0.46187737D-17 -0.39892069D-19 -0.41806834D-05  0.75873383D-05  0.31917839D-18
  0.44995624D-04  0.44068323D-05 -0.19950218D-18 -0.32453574D-04 -0.27168847D-04
 -0.23416001D-17 -0.35234883D+00 -0.65673289D+00 -0.11136014D+01 -0.16854876D+01
 -0.21029964D+01 -0.18061934D+01 -0.69343277D+00  0.31017673D-02 -0.20455306D-03
 -0.38364434D-03 -0.65402950D-03 -0.10221208D-02 -0.13667703D-02 -0.14593920D-02
 -0.89224365D-03  0.58864817D-03 -0.33216542D-01 -0.55600666D-03 -0.42943447D-04
 -0.31890944D-16 -0.30923488D-16 -0.20860802D-16 -0.55139074D-02 -0.53466354D-02
 -0.36068086D-02 -0.29068368D-02 -0.28186539D-02 -0.19014473D-02 -0.20994734D-17
  0.10192304D-02  0.53275164D-03 -0.13426171D-18  0.33997851D-04 -0.15564325D-03
 -0.30114641D-18 -0.67980788D-05 -0.16286362D-05  0.63797782D-03 -0.47697469D-03
 -0.16100313D-03 -0.13441509D-16 -0.26663414D-16 -0.56925226D-03 -0.10131636D-03
  0.21638357D-03 -0.11506721D-03 -0.74452389D-18  0.45893266D-18  0.34441229D-03
  0.86356744D-05  0.19926114D-04 -0.28561789D-04  0.11940175D-18 -0.35530826D-18
 -0.39323074D-04  0.32857300D-18  0.10285012D-03 -0.82048150D-05 -0.31599634D-17
 -0.36980757D-03 -0.82576795D-04  0.21742443D-17  0.61257219D-04  0.10719124D-03
 -0.29005968D-18  0.15227630D-18 -0.41806833D-05 -0.75873383D-05 -0.10383886D-18
  0.44995624D-04 -0.44068324D-05 -0.35299005D-18 -0.32453574D-04  0.27168847D-04
  0.12852710D-18
MO    3     MO 0.0        OCC NO =    2.0000000  ORB. ENERGY =  -20.632919
  0.71932227D-04  0.13447312D-03  0.23241153D-03  0.37591523D-03  0.56817386D-03
  0.78246863D-03  0.91452442D-03  0.79021809D-03  0.36856053D-03  0.50042558D-04
  0.13400164D-06  0.26285582D-06  0.12000466D-07 -0.12548127D-03 -0.23434162D-03
 -0.40650179D-03 -0.65912860D-03 -0.10148035D-02 -0.14453082D-02 -0.18584787D-02
 -0.19508496D-02 -0.13793889D-02  0.30547145D-04  0.99110875D-03  0.54573138D-03
 -0.23078887D-05  0.74848392D-04  0.13967817D-03  0.24260427D-03  0.39296509D-03
  0.60701605D-03  0.86539259D-03  0.11255931D-02  0.11995788D-02  0.88970265D-03
 -0.27693140D-04 -0.80602426D-03 -0.78962558D-03  0.36880197D-03 -0.54038234D-03
 -0.67107069D-04  0.17258904D-04  0.82886241D-15  0.10874223D-14  0.11927366D-14
  0.98140255D-15  0.51741483D-15  0.13460688D-15 -0.14895624D-18 -0.27838278D-11
 -0.36522305D-11 -0.40059401D-11 -0.32961510D-11 -0.17377960D-11 -0.45209239D-12
  0.50028632D-15 -0.22682824D-02 -0.29758630D-02 -0.32640681D-02 -0.26857270D-02
 -0.14159684D-02 -0.36836804D-03  0.40763680D-06 -0.11030150D-17 -0.14482654D-17
 -0.16293963D-17 -0.13728895D-17 -0.76797516D-18 -0.19114745D-18  0.87669432D-19
  0.29456644D-11  0.38676753D-11  0.43513955D-11  0.36663797D-11  0.20509214D-11
  0.51047016D-12 -0.23412621D-12  0.29635415D-02  0.38911480D-02  0.43778039D-02
  0.36886307D-02  0.20633683D-02  0.51356817D-03 -0.23554711D-03  0.99829319D-18
  0.91580700D-13 -0.28706508D-05 -0.72746679D-19  0.24779588D-13  0.47936329D-04
  0.32034969D-20 -0.10110380D-14 -0.23458267D-05 -0.10045270D-03  0.19042926D-03
 -0.89976560D-04  0.17741260D-18  0.15383028D-18  0.16382063D-12 -0.34144376D-03
  0.35058862D-03 -0.91448689D-05  0.17344886D-18  0.66454456D-19  0.29702482D-12
  0.38854707D-05  0.28327549D-05 -0.67182256D-05  0.42174146D-19  0.15014646D-19
 -0.60414619D-14 -0.12181027D-18 -0.27206100D-13  0.13601831D-03  0.51892974D-18
  0.14453659D-12  0.22379655D-03 -0.15349893D-18 -0.62918284D-13 -0.63185149D-03
 -0.28256173D-18  0.41984281D-20  0.67953823D-14  0.17665924D-04  0.97569645D-20
  0.87772076D-15  0.23721345D-05 -0.22352249D-19 -0.21263868D-13 -0.55369908D-04
 -0.77819084D-19  0.35232729D+00  0.65669273D+00  0.11135333D+01  0.16853845D+01
  0.21028678D+01  0.18060830D+01  0.69339037D+00 -0.31015777D-02  0.22128492D-03
  0.41502535D-03  0.70752723D-03  0.11057273D-02  0.14785681D-02  0.15787661D-02
  0.96522661D-03 -0.63679790D-03  0.33212651D-01  0.49420707D-03 -0.17768103D-04
  0.17636753D-16  0.17101718D-16  0.11536718D-16 -0.54068918D-02 -0.52428662D-02
 -0.35368066D-02  0.30049897D-02  0.29138292D-02  0.19656520D-02  0.25904287D-17
  0.10392055D-02 -0.60911087D-03  0.70148719D-19 -0.14519715D-03 -0.12749457D-04
 -0.14426235D-20 -0.24526538D-05 -0.57136209D-06 -0.63361585D-03  0.29566808D-03
  0.33794777D-03 -0.10840858D-16 -0.66655875D-18 -0.69507978D-03  0.10739175D-03
 -0.13087881D-03  0.23487060D-04 -0.77803346D-18 -0.41396070D-18  0.48538244D-03
 -0.25720940D-04  0.34331206D-04 -0.86102653D-05 -0.14416851D-20  0.14659003D-19
 -0.22258673D-04  0.40080108D-18  0.12910194D-04  0.25439122D-04  0.56873346D-19
 -0.16938179D-03  0.27608854D-03 -0.12592766D-17  0.13065121D-03 -0.35240591D-03
 -0.10810349D-16  0.27067074D-19 -0.88212898D-05  0.18229677D-04 -0.29356967D-18
  0.10734440D-04 -0.44068234D-04  0.21236845D-18  0.15729429D-04 -0.10620798D-04
 -0.37154324D-18  0.35232729D+00  0.65669273D+00  0.11135333D+01  0.16853845D+01
  0.21028678D+01  0.18060830D+01  0.69339037D+00 -0.31015777D-02  0.22128492D-03
  0.41502535D-03  0.70752723D-03  0.11057273D-02  0.14785681D-02  0.15787661D-02
  0.96522662D-03 -0.63679790D-03  0.33212651D-01  0.49420707D-03 -0.17768103D-04
  0.18199051D-16  0.17646958D-16  0.11904534D-16  0.54068918D-02  0.52428662D-02
  0.35368066D-02  0.30049897D-02  0.29138292D-02  0.19656520D-02 -0.91484626D-18
 -0.10392055D-02 -0.60911087D-03  0.52264615D-18  0.14519715D-03 -0.12749456D-04
 -0.12581242D-20  0.24526538D-05 -0.57136209D-06 -0.63361585D-03  0.29566808D-03
  0.33794777D-03  0.15500257D-17  0.93065320D-17  0.69507978D-03  0.10739175D-03
 -0.13087881D-03  0.23487060D-04  0.25884803D-18  0.86056408D-18 -0.48538244D-03
 -0.25720940D-04  0.34331206D-04 -0.86102652D-05  0.19131586D-18  0.10035651D-18
  0.22258673D-04  0.80293904D-19 -0.12910194D-04  0.25439122D-04  0.92165540D-18
  0.16938179D-03  0.27608854D-03 -0.11625371D-17 -0.13065121D-03 -0.35240591D-03
 -0.10419826D-17 -0.10275121D-18  0.88212898D-05  0.18229677D-04  0.28984978D-18
 -0.10734440D-04 -0.44068234D-04  0.18403863D-19 -0.15729429D-04 -0.10620798D-04
  0.16437806D-18
MO    4     MO 0.0        OCC NO =    2.0000000  ORB. ENERGY =   -9.173010
  0.81447725D-04  0.15226179D-03  0.26315591D-03  0.42564288D-03  0.64333428D-03
  0.88597687D-03  0.10355016D-02  0.89475146D-03  0.41731527D-03  0.56662398D-04
  0.15172794D-06  0.29762750D-06  0.13587939D-07 -0.16162640D+00 -0.30184418D+00
 -0.52359543D+00 -0.84899189D+00 -0.13071197D+01 -0.18616320D+01 -0.23938171D+01
 -0.25127956D+01 -0.17767246D+01  0.39346310D-01  0.12765996D+01  0.70293037D+00
 -0.29726806D-02 -0.40546971D-05 -0.75666646D-05 -0.13142391D-04 -0.21287757D-04
 -0.32883354D-04 -0.46880162D-04 -0.60975778D-04 -0.64983743D-04 -0.48197090D-04
  0.15001965D-05  0.43664053D-04  0.42775702D-04 -0.19978790D-04  0.40245258D-01
 -0.19086190D-03 -0.81720547D-04  0.44036170D-15  0.57773057D-15  0.63368237D-15
  0.52140390D-15  0.27489445D-15  0.71514542D-16 -0.79138132D-19 -0.33232644D-12
 -0.43599419D-12 -0.47821917D-12 -0.39348631D-12 -0.20745377D-12 -0.53969665D-13
  0.59722936D-16 -0.51465663D-01 -0.67520147D-01 -0.74059310D-01 -0.60937174D-01
 -0.32127283D-01 -0.83580006D-02  0.92489798D-05  0.57786700D-16  0.75874289D-16
  0.85363691D-16  0.71925364D-16  0.40234040D-16  0.10014171D-16 -0.45929812D-17
  0.30145170D-12  0.39580792D-12  0.44531059D-12  0.37520784D-12  0.20988601D-12
  0.52240200D-13 -0.23959873D-13 -0.86318640D-02 -0.11333690D-01 -0.12751165D-01
 -0.10743821D-01 -0.60099428D-02 -0.14958625D-02  0.68607463D-03  0.18188328D-16
  0.77671011D-14 -0.25766219D-02 -0.43109645D-18  0.32467242D-14  0.91771161D-04
 -0.32274833D-19  0.12466211D-16  0.46233194D-05  0.63087057D-04 -0.10989753D-03
  0.46810474D-04 -0.34957582D-18  0.15314020D-17  0.67598764D-14  0.25847689D-03
  0.30840662D-03 -0.56688350D-03  0.92084432D-17 -0.41552106D-17  0.99728903D-14
  0.10512024D-04 -0.63893062D-05 -0.41227180D-05  0.39497727D-19  0.14557553D-18
 -0.77836893D-15  0.30563392D-18 -0.10978057D-14  0.63137043D-04 -0.22732673D-17
  0.42523520D-14  0.28229901D-04  0.13563656D-17 -0.95893486D-15 -0.21764103D-03
 -0.17928885D-17  0.11866620D-18  0.61709178D-15 -0.11487152D-04 -0.15587549D-18
 -0.85478645D-15 -0.20406336D-04 -0.20012309D-18 -0.99648889D-15  0.54867792D-04
 -0.27343882D-21 -0.47856457D-04 -0.89198279D-04 -0.15125073D-03 -0.22892502D-03
 -0.28563159D-03 -0.24531944D-03 -0.94182903D-04  0.42128590D-06 -0.64371794D-04
 -0.12073089D-03 -0.20581971D-03 -0.32165614D-03 -0.43011555D-03 -0.45926313D-03
 -0.28078447D-03  0.18524454D-03  0.61348297D-04  0.51055204D-03  0.82502429D-04
 -0.36574068D-18 -0.35464543D-18 -0.23924172D-18 -0.98420912D-03 -0.95435178D-03
 -0.64380007D-03  0.65665678D-03  0.63673619D-03  0.42953847D-03 -0.61225355D-18
 -0.51427025D-03  0.32836999D-03  0.12264731D-17 -0.20661735D-03  0.85817280D-04
  0.58973485D-19 -0.14826957D-05 -0.41774264D-05 -0.13284680D-03  0.13946539D-03
 -0.66185893D-05 -0.12370473D-17  0.15201941D-17 -0.56994474D-03 -0.56098309D-04
  0.10523976D-03 -0.49141456D-04  0.32266828D-18  0.43170409D-18 -0.11430268D-03
 -0.20904278D-05  0.16918424D-04 -0.14827996D-04 -0.73064181D-18  0.29700850D-18
 -0.94911061D-05  0.77310544D-18 -0.64826386D-04 -0.11827058D-03 -0.29082023D-17
  0.32187707D-03 -0.21770912D-03  0.58888593D-18 -0.12739791D-03  0.57252087D-03
  0.15911665D-18 -0.75456549D-19 -0.12854870D-04  0.14302242D-04  0.94443083D-19
 -0.44634488D-04  0.55131807D-04  0.13192657D-18  0.83199096D-04 -0.98038533D-04
 -0.59115701D-18 -0.47856457D-04 -0.89198279D-04 -0.15125073D-03 -0.22892502D-03
 -0.28563159D-03 -0.24531944D-03 -0.94182903D-04  0.42128590D-06 -0.64371794D-04
 -0.12073089D-03 -0.20581971D-03 -0.32165614D-03 -0.43011555D-03 -0.45926313D-03
 -0.28078447D-03  0.18524454D-03  0.61348298D-04  0.51055204D-03  0.82502429D-04
  0.19738697D-18  0.19139897D-18  0.12911661D-18  0.98420912D-03  0.95435178D-03
  0.64380007D-03  0.65665678D-03  0.63673619D-03  0.42953847D-03 -0.13337313D-18
  0.51427025D-03  0.32836999D-03  0.14652994D-17  0.20661735D-03  0.85817280D-04
  0.77652746D-19  0.14826957D-05 -0.41774264D-05 -0.13284680D-03  0.13946539D-03
 -0.66185893D-05 -0.31179549D-17 -0.23693205D-17  0.56994474D-03 -0.56098309D-04
  0.10523976D-03 -0.49141456D-04  0.10778030D-17  0.68831291D-18  0.11430268D-03
 -0.20904278D-05  0.16918424D-04 -0.14827996D-04  0.81541622D-18  0.29722024D-18
  0.94911061D-05  0.10521918D-17  0.64826386D-04 -0.11827058D-03 -0.28786469D-17
 -0.32187707D-03 -0.21770912D-03 -0.27792856D-18  0.12739791D-03  0.57252087D-03
 -0.19908888D-17 -0.43746790D-18  0.12854870D-04  0.14302242D-04  0.11088726D-17
  0.44634488D-04  0.55131807D-04  0.20353107D-18 -0.83199096D-04 -0.98038533D-04
  0.11114318D-17
MO    5     MO 0.0        OCC NO =    2.0000000  ORB. ENERGY =   -6.854485
  0.29907277D-16  0.55909917D-16  0.96629793D-16  0.15629435D-15  0.23622976D-15
  0.32532715D-15  0.38023201D-15  0.32854914D-15  0.15323649D-15  0.20806205D-16
  0.55713891D-19  0.10928762D-18  0.49894365D-20  0.52028208D-16  0.97164894D-16
  0.16854754D-15  0.27329401D-15  0.42076725D-15  0.59926707D-15  0.77057966D-15
  0.80887934D-15  0.57193501D-15 -0.12665740D-16 -0.41094270D-15 -0.22627620D-15
  0.95691823D-18  0.42901287D-16  0.80060148D-16  0.13905489D-15  0.22523808D-15
  0.34792691D-15  0.49602209D-15  0.64516271D-15  0.68756954D-15  0.50995603D-15
 -0.15873037D-16 -0.46199359D-15 -0.45259427D-15  0.21138836D-15 -0.35121446D-16
 -0.68473291D-15 -0.13430352D-15  0.96931662D+01  0.12716906D+02  0.13948508D+02
  0.11477053D+02  0.60509295D+01  0.15741659D+01 -0.17419750D-02  0.71995942D-11
  0.94454755D-11  0.10360247D-10  0.85245754D-11  0.44943247D-11  0.11692109D-11
 -0.12938510D-14 -0.92775417D-12 -0.12171629D-11 -0.13350422D-11 -0.10984939D-11
 -0.57914771D-12 -0.15066686D-12  0.16672824D-15  0.16742541D-01  0.21983058D-01
  0.24732423D-01  0.20838936D-01  0.11657009D-01  0.29014057D-02 -0.13307245D-02
  0.18533956D-13  0.24335197D-13  0.27378737D-13  0.23068656D-13  0.12904283D-13
  0.32118497D-14 -0.14731090D-14 -0.24991345D-14 -0.32813788D-14 -0.36917724D-14
 -0.31105974D-14 -0.17400246D-14 -0.43308857D-15  0.19863529D-15  0.75065767D-01
  0.55657372D-13 -0.69412163D-14 -0.10737131D-03 -0.27959928D-15  0.23811826D-15
 -0.82621607D-05 -0.39528073D-17  0.20646736D-17  0.70650993D-16  0.12477643D-16
 -0.83128636D-16 -0.19208526D-15  0.71258612D-03  0.10269883D-14 -0.14482987D-15
 -0.11908643D-15  0.26391630D-15 -0.32634788D-15 -0.18674187D-02 -0.26676969D-14
  0.91939490D-17  0.84802742D-17 -0.17674223D-16  0.10054729D-16  0.26652531D-04
  0.35600922D-16  0.84547266D-04  0.39360791D-16  0.12278344D-16 -0.10036752D-03
  0.11259346D-15  0.26832421D-16 -0.15327428D-03 -0.23067583D-15 -0.63667452D-16
  0.55661309D-15  0.58191866D-04 -0.11223013D-16 -0.71263972D-18 -0.16957658D-03
  0.83205107D-16 -0.42615357D-16 -0.49990151D-05 -0.49536069D-16  0.44753276D-16
 -0.41656796D-16 -0.29554633D-15 -0.55086033D-15 -0.93407660D-15 -0.14137684D-14
 -0.17639702D-14 -0.15150152D-14 -0.58164379D-15  0.26017284D-17  0.40580706D-17
  0.76110120D-17  0.12975107D-16  0.20277566D-16  0.27114970D-16  0.28952466D-16
  0.17700970D-16 -0.11678025D-16  0.28251493D-15  0.18027828D-14  0.35045703D-15
  0.72041399D-03  0.69855924D-03  0.47124394D-03 -0.90590808D-15 -0.87842611D-15
 -0.59258107D-15  0.51120774D-15  0.49569955D-15  0.33439599D-15  0.39416740D-04
 -0.98441162D-15  0.84222288D-15  0.62873507D-03 -0.79000571D-15  0.13262898D-15
  0.12859118D-04 -0.19329948D-16  0.39613528D-17  0.38822923D-15 -0.35768310D-15
 -0.30546137D-16 -0.47997646D-03  0.31592785D-03 -0.18331599D-14 -0.17929965D-15
  0.30736719D-15 -0.12806754D-15 -0.26766891D-03  0.12735314D-03 -0.29099823D-15
 -0.18365316D-16  0.67235602D-16 -0.48870286D-16 -0.30953654D-03  0.20594411D-03
 -0.26721058D-16  0.22783847D-03  0.75526559D-16 -0.20373108D-15 -0.45286220D-03
  0.14424840D-16 -0.30230791D-15 -0.23065322D-03 -0.24100452D-15  0.91350117D-15
  0.63925050D-03 -0.86189829D-04 -0.10696185D-16  0.15271845D-16  0.19517313D-03
 -0.51098185D-16  0.79432085D-16  0.63396362D-04  0.83186740D-16 -0.12524762D-15
 -0.25122800D-03 -0.64457697D-16 -0.12014085D-15 -0.20371908D-15 -0.30833832D-15
 -0.38471620D-15 -0.33041991D-15 -0.12685463D-15  0.56742853D-18  0.17975472D-15
  0.33713444D-15  0.57474031D-15  0.89820723D-15  0.12010742D-14  0.12824672D-14
  0.78407532D-15 -0.51728527D-15 -0.63822544D-16 -0.85379626D-15  0.13449185D-16
  0.72041399D-03  0.69855924D-03  0.47124394D-03 -0.11315862D-14 -0.10972580D-14
 -0.74020375D-15 -0.69735343D-15 -0.67619825D-15 -0.45615935D-15  0.39416740D-04
 -0.97474293D-15 -0.61185183D-15  0.62873507D-03 -0.19926779D-15 -0.25999602D-15
  0.12859118D-04  0.95564952D-17 -0.61137408D-17  0.55740242D-15 -0.66324251D-16
 -0.49107817D-15  0.47997646D-03  0.31592785D-03 -0.84114534D-15  0.14159666D-16
 -0.70494043D-16  0.56334377D-16  0.26766891D-03  0.12735314D-03 -0.49216849D-16