 Molden2AIM, Version 4.0.0 (06/02/2016)           Time: Wed Jun 27 22:24:25 2018
GAUSSIAN              8 MOL ORBITALS    204 PRIMITIVES        4 NUCLEI
  C    1    (CENTRE  1)  -0.23294654  0.00000000 -1.39350483  CHARGE =  6.0
  H    2    (CENTRE  2)   1.75072354 -0.00000189 -2.15559358  CHARGE =  1.0
  O    3    (CENTRE  3)   0.14562230  0.00000189  1.05241493  CHARGE =  8.0
  H    4    (CENTRE  4)  -1.48307974 -0.00000189  1.88799514  CHARGE =  1.0
CENTRE ASSIGNMENTS    1  1  1  1  1  1  1  1  1  1  1  1  1  1  1  1  1  1  1  1
CENTRE ASSIGNMENTS    1  1  1  1  1  1  1  1  1  1  1  1  1  1  1  1  1  1  1  1
CENTRE ASSIGNMENTS    1  1  1  1  1  1  1  1  1  1  1  1  1  1  1  1  1  1  1  1
CENTRE ASSIGNMENTS    1  1  1  1  1  1  1  1  1  1  1  1  1  1  1  2  2  2  2  2
CENTRE ASSIGNMENTS    2  2  2  2  2  2  2  2  2  2  2  2  2  2  2  2  2  2  2  2
CENTRE ASSIGNMENTS    2  2  3  3  3  3  3  3  3  3  3  3  3  3  3  3  3  3  3  3
CENTRE ASSIGNMENTS    3  3  3  3  3  3  3  3  3  3  3  3  3  3  3  3  3  3  3  3
CENTRE ASSIGNMENTS    3  3  3  3  3  3  3  3  3  3  3  3  3  3  3  3  3  3  3  3
CENTRE ASSIGNMENTS    3  3  3  3  3  3  3  3  3  3  3  3  3  3  3  3  3  4  4  4
CENTRE ASSIGNMENTS    4  4  4  4  4  4  4  4  4  4  4  4  4  4  4  4  4  4  4  4
CENTRE ASSIGNMENTS    4  4  4  4
TYPE ASSIGNMENTS      1  1  1  1  1  1  1  1  1  1  1  1  1  1  1  1  1  1  1  2
TYPE ASSIGNMENTS      2  2  3  3  3  4  4  4  2  3  4  2  3  4  2  3  4  5  6  7
TYPE ASSIGNMENTS      8  9 10  5  6  7  8  9 10  5  6  7  8  9 10 11 12 13 17 14
TYPE ASSIGNMENTS     15 18 19 16 20 11 12 13 17 14 15 18 19 16 20  1  1  1  1  1
TYPE ASSIGNMENTS      1  2  3  4  2  3  4  2  3  4  5  6  7  8  9 10  5  6  7  8
TYPE ASSIGNMENTS      9 10  1  1  1  1  1  1  1  1  1  1  1  1  1  1  1  1  1  1
TYPE ASSIGNMENTS      1  2  2  2  3  3  3  4  4  4  2  3  4  2  3  4  2  3  4  5
TYPE ASSIGNMENTS      6  7  8  9 10  5  6  7  8  9 10  5  6  7  8  9 10 11 12 13
TYPE ASSIGNMENTS     17 14 15 18 19 16 20 11 12 13 17 14 15 18 19 16 20  1  1  1
TYPE ASSIGNMENTS      1  1  1  2  3  4  2  3  4  2  3  4  5  6  7  8  9 10  5  6
TYPE ASSIGNMENTS      7  8  9 10
EXPONENTS  0.8236000D+04 0.1235000D+04 0.2808000D+03 0.7927000D+02 0.2559000D+02
EXPONENTS  0.8997000D+01 0.3319000D+01 0.3643000D+00 0.8236000D+04 0.1235000D+04
EXPONENTS  0.2808000D+03 0.7927000D+02 0.2559000D+02 0.8997000D+01 0.3319000D+01
EXPONENTS  0.3643000D+00 0.9059000D+00 0.1285000D+00 0.4402000D-01 0.1871000D+02
EXPONENTS  0.4133000D+01 0.1200000D+01 0.1871000D+02 0.4133000D+01 0.1200000D+01
EXPONENTS  0.1871000D+02 0.4133000D+01 0.1200000D+01 0.3827000D+00 0.3827000D+00
EXPONENTS  0.3827000D+00 0.1209000D+00 0.1209000D+00 0.1209000D+00 0.3569000D-01
EXPONENTS  0.3569000D-01 0.3569000D-01 0.1097000D+01 0.1097000D+01 0.1097000D+01
EXPONENTS  0.1097000D+01 0.1097000D+01 0.1097000D+01 0.3180000D+00 0.3180000D+00
EXPONENTS  0.3180000D+00 0.3180000D+00 0.3180000D+00 0.3180000D+00 0.1000000D+00
EXPONENTS  0.1000000D+00 0.1000000D+00 0.1000000D+00 0.1000000D+00 0.1000000D+00
EXPONENTS  0.7610000D+00 0.7610000D+00 0.7610000D+00 0.7610000D+00 0.7610000D+00
EXPONENTS  0.7610000D+00 0.7610000D+00 0.7610000D+00 0.7610000D+00 0.7610000D+00
EXPONENTS  0.2680000D+00 0.2680000D+00 0.2680000D+00 0.2680000D+00 0.2680000D+00
EXPONENTS  0.2680000D+00 0.2680000D+00 0.2680000D+00 0.2680000D+00 0.2680000D+00
EXPONENTS  0.3387000D+02 0.5095000D+01 0.1159000D+01 0.3258000D+00 0.1027000D+00
EXPONENTS  0.2526000D-01 0.1407000D+01 0.1407000D+01 0.1407000D+01 0.3880000D+00
EXPONENTS  0.3880000D+00 0.3880000D+00 0.1020000D+00 0.1020000D+00 0.1020000D+00
EXPONENTS  0.1057000D+01 0.1057000D+01 0.1057000D+01 0.1057000D+01 0.1057000D+01
EXPONENTS  0.1057000D+01 0.2470000D+00 0.2470000D+00 0.2470000D+00 0.2470000D+00
EXPONENTS  0.2470000D+00 0.2470000D+00 0.1533000D+05 0.2299000D+04 0.5224000D+03
EXPONENTS  0.1473000D+03 0.4755000D+02 0.1676000D+02 0.6207000D+01 0.6882000D+00
EXPONENTS  0.1533000D+05 0.2299000D+04 0.5224000D+03 0.1473000D+03 0.4755000D+02
EXPONENTS  0.1676000D+02 0.6207000D+01 0.6882000D+00 0.1752000D+01 0.2384000D+00
EXPONENTS  0.7376000D-01 0.3446000D+02 0.7749000D+01 0.2280000D+01 0.3446000D+02
EXPONENTS  0.7749000D+01 0.2280000D+01 0.3446000D+02 0.7749000D+01 0.2280000D+01
EXPONENTS  0.7156000D+00 0.7156000D+00 0.7156000D+00 0.2140000D+00 0.2140000D+00
EXPONENTS  0.2140000D+00 0.5974000D-01 0.5974000D-01 0.5974000D-01 0.2314000D+01
EXPONENTS  0.2314000D+01 0.2314000D+01 0.2314000D+01 0.2314000D+01 0.2314000D+01
EXPONENTS  0.6450000D+00 0.6450000D+00 0.6450000D+00 0.6450000D+00 0.6450000D+00
EXPONENTS  0.6450000D+00 0.2140000D+00 0.2140000D+00 0.2140000D+00 0.2140000D+00
EXPONENTS  0.2140000D+00 0.2140000D+00 0.1428000D+01 0.1428000D+01 0.1428000D+01
EXPONENTS  0.1428000D+01 0.1428000D+01 0.1428000D+01 0.1428000D+01 0.1428000D+01
EXPONENTS  0.1428000D+01 0.1428000D+01 0.5000000D+00 0.5000000D+00 0.5000000D+00
EXPONENTS  0.5000000D+00 0.5000000D+00 0.5000000D+00 0.5000000D+00 0.5000000D+00
EXPONENTS  0.5000000D+00 0.5000000D+00 0.3387000D+02 0.5095000D+01 0.1159000D+01
EXPONENTS  0.3258000D+00 0.1027000D+00 0.2526000D-01 0.1407000D+01 0.1407000D+01
EXPONENTS  0.1407000D+01 0.3880000D+00 0.3880000D+00 0.3880000D+00 0.1020000D+00
EXPONENTS  0.1020000D+00 0.1020000D+00 0.1057000D+01 0.1057000D+01 0.1057000D+01
EXPONENTS  0.1057000D+01 0.1057000D+01 0.1057000D+01 0.2470000D+00 0.2470000D+00
EXPONENTS  0.2470000D+00 0.2470000D+00 0.2470000D+00 0.2470000D+00
MO    1     MO 0.0        OCC NO =    2.0000000  ORB. ENERGY =  -20.642269
  0.15520182D-03  0.28933149D-03  0.48902118D-03  0.73515902D-03  0.90322780D-03
  0.76292027D-03  0.28774546D-03 -0.14240683D-05 -0.11772008D-03 -0.22040913D-03
 -0.37526540D-03 -0.58047851D-03 -0.76446977D-03 -0.79433306D-03 -0.50476300D-03
  0.33828043D-03 -0.14194892D-03 -0.56664641D-05  0.43279186D-04  0.91698348D-04
  0.85973030D-04  0.61217919D-04  0.64904275D-10  0.60851884D-10  0.43330166D-10
  0.11509478D-03  0.10790867D-03  0.76837403D-04  0.15738561D-04  0.69857389D-09
  0.81244342D-03 -0.10374273D-03  0.19086735D-10  0.10399513D-03 -0.29024756D-06
  0.15797606D-11  0.38983963D-05 -0.30861758D-03 -0.33531731D-03  0.64393488D-03
  0.25345849D-09  0.35616492D-03  0.16488073D-08 -0.16646950D-03 -0.90577548D-04
  0.25704705D-03  0.11492251D-09  0.18781394D-03  0.53246375D-09 -0.74092821D-05
 -0.38236212D-05  0.11232903D-04  0.12627480D-10 -0.16264492D-04 -0.34169614D-11
 -0.19765496D-04 -0.20630500D-09  0.14629843D-03 -0.14956381D-04 -0.23569826D-09
 -0.19234672D-03  0.74252868D-04  0.85461326D-09 -0.24654856D-03 -0.12075002D-09
 -0.15859843D-04 -0.12775949D-10  0.20001775D-04  0.28941671D-05 -0.50135176D-10
 -0.22453775D-04  0.44685363D-04  0.88463022D-10 -0.37551550D-04  0.10957951D-09
  0.76364413D-05  0.13772636D-04  0.20307744D-04  0.22695071D-03  0.14645277D-03
  0.85370338D-06  0.51213188D-05 -0.48954170D-10 -0.17385589D-05 -0.98691257D-04
  0.27908738D-09  0.15698102D-04 -0.18126845D-04  0.43373468D-10  0.35319104D-04
  0.84372292D-04  0.33967970D-04 -0.11834026D-03 -0.97408091D-10  0.90502512D-04
 -0.38921248D-09  0.99854332D-05  0.10129711D-04 -0.20115144D-04 -0.42878476D-10
 -0.98494551D-05 -0.24509815D-10  0.49812804D+00  0.92844658D+00  0.15743378D+01
  0.23828335D+01  0.29730805D+01  0.25534797D+01  0.98033050D+00 -0.43850785D-02
  0.33860678D-03  0.63506540D-03  0.10826473D-02  0.16919670D-02  0.22624822D-02
  0.24158036D-02  0.14769749D-02 -0.97441835D-03  0.47467388D-01 -0.25000212D-03
 -0.98785642D-04 -0.78292031D-02 -0.75916934D-02 -0.51213115D-02 -0.16302647D-07
 -0.15808084D-07 -0.10664040D-07 -0.41402276D-02 -0.40146281D-02 -0.27082444D-02
  0.13549163D-02  0.33014472D-08  0.10253230D-02  0.17880848D-03  0.28228822D-09
 -0.54028264D-04 -0.46424703D-05 -0.37286716D-11  0.50526197D-05  0.37668540D-03
 -0.99391621D-03  0.61723081D-03  0.37250644D-08 -0.42734496D-03  0.48061428D-10
 -0.24410680D-04  0.46982207D-03 -0.44541139D-03 -0.22443915D-08  0.42678777D-03
  0.17243526D-09 -0.11621534D-04 -0.27364167D-05  0.14357951D-04 -0.35299489D-10
  0.17998798D-04  0.81746495D-10  0.85335562D-06 -0.26851835D-09  0.90439313D-04
  0.54359868D-05  0.12148293D-09  0.14257194D-03 -0.79960536D-05  0.68407211D-09
 -0.41388988D-03  0.86179204D-09  0.17401686D-05 -0.13497024D-09  0.61976012D-04
 -0.95204203D-04  0.25874843D-09 -0.20897202D-03  0.89983697D-04  0.14616229D-09
  0.23043980D-04 -0.57929387D-09  0.12859873D-03  0.23193311D-03  0.34198523D-03
  0.72341090D-03 -0.66798166D-04 -0.50283272D-05  0.45146843D-03  0.12023506D-08
 -0.23957255D-03  0.50979346D-03  0.15408393D-08 -0.17678257D-03  0.18982927D-04
  0.32360718D-10  0.19975354D-04 -0.11491905D-03  0.63903708D-04  0.51015342D-04
 -0.14804095D-09  0.23768138D-03  0.33632698D-09  0.51742032D-04 -0.23483369D-04
 -0.28258662D-04  0.39852316D-09 -0.74081971D-04 -0.20481152D-09
MO    2     MO 0.0        OCC NO =    2.0000000  ORB. ENERGY =  -11.309298
  0.32714450D+00  0.60987174D+00  0.10307907D+01  0.15496160D+01  0.19038823D+01
  0.16081330D+01  0.60652859D+00 -0.30017439D-02 -0.11940703D-03 -0.22356764D-03
 -0.38064304D-03 -0.58879690D-03 -0.77542481D-03 -0.80571605D-03 -0.51199638D-03
  0.34312807D-03  0.27233328D-01  0.35466178D-03 -0.55092653D-04  0.57314386D-02
  0.53735880D-02  0.38263148D-02  0.73461058D-08  0.68874411D-08  0.49042684D-08
  0.56473368D-02  0.52947373D-02  0.37701683D-02 -0.89127282D-03 -0.13461714D-08
 -0.42833811D-03 -0.70941906D-04 -0.49996789D-09 -0.23692539D-03 -0.18425129D-05
 -0.11470373D-10 -0.75686389D-05  0.35887375D-03 -0.15568505D-02  0.11979767D-02
 -0.13050497D-08 -0.90142203D-04  0.47633506D-08 -0.64132916D-04  0.20149295D-03
 -0.13736004D-03 -0.39228667D-09 -0.18383656D-03 -0.94939904D-09  0.80202397D-06
  0.83371582D-05 -0.91391822D-05 -0.17034753D-10 -0.35830178D-04 -0.73304792D-10
  0.63177046D-04  0.20764436D-09  0.28382704D-03 -0.20050398D-03 -0.12219255D-08
 -0.84141695D-03  0.10972847D-04  0.59899238D-09 -0.10064173D-04  0.33278953D-09
 -0.17136983D-04  0.79251395D-10 -0.50060303D-04  0.74726141D-04  0.10885101D-09
  0.89414047D-04 -0.23315191D-04 -0.34660519D-09  0.60766863D-04 -0.15785002D-09
  0.90703757D-04  0.16358796D-03  0.24121035D-03  0.61689184D-03 -0.46321200D-03
 -0.42418027D-05  0.21586136D-03 -0.37557087D-09  0.25172421D-04  0.40815296D-04
  0.87871344D-09  0.17207177D-03  0.12034510D-03 -0.43191722D-10 -0.10975156D-04
 -0.65519596D-03  0.23467288D-03  0.42052308D-03  0.98631430D-09  0.40733405D-03
  0.47190512D-09 -0.41012789D-04  0.32555812D-04  0.84569772D-05 -0.92594790D-10
 -0.10614618D-05  0.26775707D-10  0.11151132D-03  0.20784275D-03  0.35243243D-03
  0.53342291D-03  0.66555604D-03  0.57162388D-03  0.21945752D-03 -0.98164696D-06
 -0.17931991D-03 -0.33631893D-03 -0.57335005D-03 -0.89603453D-03 -0.11981689D-02
 -0.12793650D-02 -0.78217870D-03  0.51603400D-03  0.23383137D-03  0.50395728D-03
  0.21460394D-03 -0.35915253D-03 -0.34825714D-03 -0.23493221D-03 -0.13762054D-08
 -0.13344563D-08 -0.90021633D-09 -0.16269644D-02 -0.15776081D-02 -0.10642451D-02
 -0.97640172D-04 -0.42343870D-09 -0.71075104D-03  0.12202546D-03  0.33496281D-09
 -0.65075109D-04  0.11532072D-04  0.54362464D-11 -0.16432712D-04 -0.82823365D-03
 -0.45212020D-03  0.12803538D-02  0.29696337D-10  0.84407866D-03  0.25901746D-08
  0.34137622D-03  0.19778042D-03 -0.53915664D-03  0.18177443D-09 -0.39138716D-03
 -0.95003697D-09  0.57833935D-04  0.30175570D-04 -0.88009505D-04 -0.78422759D-11
 -0.74720812D-04 -0.39529088D-09 -0.44743056D-04  0.19563578D-09  0.31954603D-06
  0.42238168D-04 -0.56224000D-09  0.25067185D-03  0.91990999D-04 -0.24667325D-10
 -0.25163049D-03  0.81536186D-09 -0.17890842D-03 -0.28266569D-09  0.22037975D-03
 -0.76820176D-04 -0.89943422D-09 -0.39117928D-03  0.61354543D-03  0.17474313D-08
 -0.26995996D-03  0.54611582D-09 -0.16044996D-04 -0.28937812D-04 -0.42668787D-04
  0.44404337D-04 -0.11938350D-03  0.88620015D-05  0.10321267D-04  0.15183064D-09
  0.41270029D-03  0.18144010D-03  0.38372647D-09  0.21291068D-03 -0.27581232D-06
  0.24739202D-10  0.52207985D-04  0.20235063D-03 -0.54081971D-04 -0.14826866D-03
  0.11353295D-08  0.34131263D-03  0.13234689D-08  0.23288044D-04  0.48350334D-05
 -0.28123077D-04  0.18297699D-09  0.93306138D-05  0.12103242D-09
MO    3     MO 0.0        OCC NO =    2.0000000  ORB. ENERGY =   -1.456147
 -0.35117152D-02 -0.65466355D-02 -0.11064967D-01 -0.16634270D-01 -0.20437123D-01
 -0.17262417D-01 -0.65107487D-02  0.32222059D-04 -0.19536701D-01 -0.36578869D-01
 -0.62278655D-01 -0.96335609D-01 -0.12687061D+00 -0.13182669D+00 -0.83769942D-01
  0.56140667D-01  0.23059479D-01  0.80886530D-02  0.22815331D-03  0.24902944D-01
  0.23348093D-01  0.16625233D-01  0.98967168D-07  0.92788011D-07  0.66070591D-07
  0.15065754D+00  0.14125102D+00  0.10057914D+00  0.11725747D-01  0.18029644D-07
  0.31189964D-01 -0.40045022D-03 -0.94063578D-09  0.26057115D-03 -0.31755082D-04
 -0.12425042D-10 -0.27617333D-04 -0.11071398D-01 -0.17007250D-01  0.28078648D-01
  0.39797598D-08  0.11538254D-01  0.67763052D-07 -0.91496719D-03 -0.27075303D-02
  0.36224975D-02 -0.21761236D-08  0.81808653D-03  0.10351277D-07 -0.55731783D-04
  0.65831321D-04 -0.10099538D-04 -0.29284714D-10 -0.24653920D-03 -0.36958089D-09
 -0.42746578D-03 -0.20435282D-08  0.41600340D-02 -0.22300656D-02 -0.97467042D-08
 -0.81129368D-02  0.35124630D-02  0.15877289D-07 -0.43671653D-02  0.16625855D-07
 -0.18372712D-04 -0.42115861D-10  0.11511066D-03 -0.15665762D-03 -0.40259462D-09
 -0.35179462D-03  0.21177575D-03  0.52894220D-09  0.64626354D-05 -0.35292346D-09
  0.35343978D-02  0.63744321D-02  0.93990963D-02 -0.58252631D-03 -0.20485563D-02
 -0.25178257D-04 -0.28444519D-02  0.50045054D-08  0.35136496D-02  0.43944912D-02
 -0.35531981D-08 -0.94870436D-03  0.82099837D-03 -0.31253319D-09 -0.69820450D-04
 -0.15070981D-02  0.12268793D-03  0.13844102D-02 -0.14904644D-09 -0.15297369D-02
  0.30879340D-08 -0.48656720D-03  0.51075978D-03 -0.24192574D-04  0.19227217D-08
  0.69981071D-03 -0.48292742D-09 -0.37356979D-02 -0.69628602D-02 -0.11806704D-01
 -0.17869996D-01 -0.22296538D-01 -0.19149752D-01 -0.73519622D-02  0.32885778D-04
 -0.95656365D-01 -0.17940588D+00 -0.30584770D+00 -0.47798042D+00 -0.63915090D+00
 -0.68246415D+00 -0.41724520D+00  0.27527304D+00  0.13860430D+00  0.62113451D-01
  0.16290580D-02 -0.17049478D+00 -0.16532258D+00 -0.11152564D+00 -0.49760617D-06
 -0.48251060D-06 -0.32549880D-06 -0.17508234D+00 -0.16977098D+00 -0.11452650D+00
 -0.46360864D-01 -0.13053843D-06 -0.47418735D-01 -0.61800013D-03 -0.64508374D-08
  0.44518561D-03  0.12399555D-04 -0.27769977D-09  0.28791370D-03  0.26967261D-02
 -0.28807171D-01  0.26110445D-01  0.15043155D-06 -0.63703382D-02  0.28035961D-07
 -0.19391696D-02 -0.77235031D-02  0.96626727D-02  0.37572376D-07  0.77201138D-03
  0.13926226D-07 -0.17552358D-03  0.49156049D-03 -0.31603691D-03 -0.16620436D-08
 -0.93224236D-03 -0.23472205D-08 -0.17401699D-03  0.28619564D-07 -0.11867265D-01
  0.97864504D-02 -0.42400478D-07  0.23562851D-01 -0.92643994D-02 -0.43458215D-07
  0.12038944D-01  0.25057451D-07  0.64836202D-03  0.12596980D-08 -0.65253221D-03
  0.19044347D-03  0.20939217D-08  0.17406400D-02 -0.21355295D-02 -0.58730157D-08
  0.21695669D-03  0.16912817D-08  0.19529307D-01  0.35221910D-01  0.51934685D-01
  0.20248707D-01 -0.33241957D-02 -0.12660845D-03  0.22194762D-01  0.49920925D-07
 -0.14610579D-01  0.33730212D-02  0.10596148D-07 -0.51199905D-02 -0.69545999D-03
 -0.10497358D-08  0.30661098D-03  0.14862913D-02 -0.17411836D-02  0.25489231D-03
  0.16200563D-07 -0.76293792D-02 -0.19773853D-07 -0.17239977D-03 -0.10889511D-03
  0.28129489D-03 -0.90082985D-13 -0.41624239D-03 -0.88565330D-09
MO    4     MO 0.0        OCC NO =    2.0000000  ORB. ENERGY =   -0.900403
 -0.28953939D-02 -0.53976725D-02 -0.91230174D-02 -0.13714884D-01 -0.16850319D-01
 -0.14232788D-01 -0.53680840D-02  0.26566948D-04 -0.41169967D-01 -0.77083168D-01
 -0.13124069D+00 -0.20300939D+00 -0.26735623D+00 -0.27780024D+00 -0.17652958D+00
  0.11830602D+00  0.50329320D-01  0.30846004D-01  0.54969157D-03  0.14392329D+00
  0.13493723D+00  0.96083348D-01  0.64680059D-07  0.60641667D-07  0.43180479D-07
  0.69777598D-01  0.65420933D-01  0.46583602D-01  0.44439193D-01  0.15308073D-07
  0.14440863D-01  0.50200550D-02 -0.10177372D-08 -0.24864121D-02  0.44692151D-05
 -0.94173480D-11 -0.70747876D-04  0.84993558D-02 -0.18104035D-01  0.96046787D-02
 -0.81214755D-08  0.11770905D-01  0.77730336D-07  0.41467128D-02 -0.44790644D-02
  0.33235160D-03 -0.36476426D-08  0.12191374D-03  0.17673211D-07  0.24269544D-03
 -0.17601569D-04 -0.22509387D-03 -0.11869609D-09 -0.14915581D-03  0.28727101D-10
 -0.45686536D-03 -0.30762828D-08  0.35463888D-02 -0.45578973D-02 -0.12695212D-07
 -0.68199131D-02  0.59284933D-02  0.21924061D-07 -0.38192534D-02  0.32603750D-07
  0.27525235D-03  0.60553375D-10  0.77351845D-04 -0.65500817D-03 -0.11840917D-08
 -0.27775712D-03 -0.17074889D-03  0.10024315D-08  0.45701581D-04  0.23008759D-08
  0.21621983D-01  0.38996137D-01  0.57499781D-01  0.21986564D-01 -0.74491296D-02
 -0.22319995D-03 -0.17611560D-01  0.22701490D-07  0.98124123D-02  0.30681256D-02
 -0.48501686D-08 -0.15833992D-02  0.17623546D-02 -0.32354305D-08 -0.95036502D-03
  0.10605636D-02 -0.16586160D-02  0.59805240D-03 -0.95189689D-08 -0.56318609D-02
  0.72348346D-08 -0.44981199D-03  0.47993775D-03 -0.30125761D-04  0.26813484D-08
  0.66948899D-03 -0.34261270D-08  0.26579927D-03  0.49541564D-03  0.84006077D-03
  0.12714711D-02  0.15864247D-02  0.13625273D-02  0.52310071D-03 -0.23398616D-05
  0.21512494D-01  0.40347216D-01  0.68783158D-01  0.10749469D+00  0.14374088D+00
  0.15348175D+00  0.93835730D-01 -0.61907116D-01 -0.35155576D-01 -0.19208777D-01
 -0.18621218D-02  0.42863756D+00  0.41563424D+00  0.28038441D+00  0.34532942D-06
  0.33485338D-06  0.22589011D-06 -0.99042393D+00 -0.96037805D+00 -0.64786536D+00
  0.10079124D+00  0.77655692D-07 -0.23436734D+00  0.73879152D-02 -0.76844920D-09
 -0.20677088D-01  0.29955778D-03  0.21277197D-09 -0.34668181D-04 -0.53066608D-01
 -0.21858827D-02  0.55252490D-01 -0.19827415D-06  0.65737329D-01  0.22534591D-06
 -0.15058307D-01 -0.13002874D-02  0.16358594D-01 -0.48519393D-07  0.12948662D-01
  0.47975994D-07 -0.22396500D-03 -0.43844883D-04  0.26780989D-03  0.17200008D-08
 -0.53129722D-03 -0.44355695D-09 -0.37219259D-03 -0.74135628D-08 -0.94196704D-02
 -0.81769726D-02  0.46352629D-07  0.56803569D-02  0.92935504D-02 -0.24111941D-07
  0.22578654D-01 -0.81003812D-07  0.10902437D-02 -0.72431839D-09 -0.78137007D-03
 -0.31333939D-03  0.10312858D-07  0.16933320D-02 -0.29573916D-02 -0.81399030D-08
  0.65077825D-03 -0.24443332D-08 -0.28977071D-01 -0.52261342D-01 -0.77059318D-01
 -0.51056533D-01  0.10948902D-02  0.17715459D-03 -0.30161963D-01 -0.78654561D-07
  0.62842525D-02 -0.12501376D-01 -0.32268995D-07 -0.67757811D-03  0.44095978D-03
  0.12662329D-08 -0.88845194D-03 -0.99765376D-02  0.48112433D-02  0.51652942D-02
 -0.73825975D-07  0.65203944D-02  0.15911587D-07 -0.48350585D-03 -0.26287512D-03
  0.74638096D-03 -0.21061727D-08 -0.64445929D-03 -0.17473567D-08
MO    5     MO 0.0        OCC NO =    2.0000000  ORB. ENERGY =   -0.691476
  0.16447918D-03  0.30662659D-03  0.51825295D-03  0.77910394D-03  0.95721921D-03
  0.80852465D-03  0.30494575D-03 -0.15091935D-05  0.21701446D-01  0.40631954D-01
  0.69179379D-01  0.10700998D+00  0.14092838D+00  0.14643361D+00  0.93051987D-01
 -0.62361278D-01 -0.28138633D-01 -0.23291905D-01 -0.15197012D-02  0.17199043D+00
  0.16125196D+00  0.11482100D+00  0.18495323D-06  0.17340541D-06  0.12347498D-06
 -0.45404494D-01 -0.42569599D-01 -0.30312091D-01  0.40467484D-01  0.46010024D-07
 -0.15462019D-01  0.33070262D-02  0.62041383D-08 -0.62933578D-03 -0.75851382D-04
  0.60962720D-10 -0.13721849D-05  0.11148775D-01  0.18078454D-02 -0.12956620D-01
  0.35854700D-07  0.32752991D-01  0.49743536D-07  0.27015970D-02  0.15559452D-02
 -0.42575422D-02  0.64297237D-08  0.76256677D-02  0.78836599D-08 -0.51211815D-04
  0.16815803D-03 -0.11694621D-03 -0.44035693D-09  0.27069298D-03  0.43823662D-09
 -0.23311020D-02 -0.37023095D-08 -0.25454186D-02 -0.36868612D-03  0.27557097D-08
  0.61727868D-02  0.73619921D-02  0.83512188D-08  0.14634690D-02  0.12791989D-07
 -0.13003271D-03  0.13054115D-09 -0.42803025D-03  0.12026639D-03 -0.48645574D-10
  0.11129123D-02  0.26983175D-03 -0.34297788D-09  0.17117839D-03  0.12423863D-08
  0.20595691D-02  0.37145177D-02  0.54770542D-02  0.68681687D-02  0.20930380D-02
  0.15629044D-03 -0.14429338D-02  0.10893700D-07  0.45125608D-02 -0.91780756D-03
  0.36579170D-08 -0.14803694D-02 -0.33313811D-03  0.20250538D-09 -0.61453629D-03
  0.43378985D-03 -0.64719557D-03  0.21340572D-03 -0.68687219D-08 -0.14624136D-02
  0.69068191D-08  0.13798907D-03  0.25023401D-03 -0.38822309D-03 -0.44664684D-09
  0.41389202D-03 -0.50899096D-08  0.17552760D-02  0.32716086D-02  0.55475641D-02
  0.83964967D-02  0.10476376D-01  0.89978101D-02  0.34544343D-02 -0.15451896D-04
 -0.35617137D-01 -0.66800823D-01 -0.11388076D+00 -0.17797346D+00 -0.23798443D+00
 -0.25411188D+00 -0.15535902D+00  0.10249645D+00  0.57614452D-01  0.78630921D-01
  0.69233389D-02  0.13885601D+01  0.13464362D+01  0.90829791D+00  0.26221796D-05
  0.25426321D-05  0.17152446D-05  0.42397722D+00  0.41111528D+00  0.27733594D+00
  0.32649951D+00  0.61579924D-06  0.10326910D+00  0.33409054D-01  0.56840127D-07
  0.15145171D-01  0.43780864D-03  0.36887565D-10  0.39524153D-04 -0.37897744D-01
  0.37812070D-01  0.85674649D-04 -0.34174698D-06 -0.26237580D-01 -0.67531909D-07
 -0.83155606D-02  0.55227235D-02  0.27928372D-02 -0.64263454D-07 -0.18951830D-01
 -0.49054843D-07  0.10002022D-02 -0.70300901D-03 -0.29719323D-03  0.80816711D-08
 -0.20234963D-02 -0.65388198D-08 -0.87916338D-03 -0.37723966D-07  0.45537095D-02
 -0.15115060D-01  0.82876192D-07 -0.83677504D-02  0.17752550D-01  0.30295707D-07
 -0.52933782D-02  0.25238946D-07 -0.47034806D-03 -0.18557906D-09 -0.53051418D-03
  0.27787832D-03 -0.20223614D-08  0.22363217D-02  0.11331659D-02  0.25790985D-08
 -0.64477921D-03  0.16240447D-07 -0.22967072D-01 -0.41422060D-01 -0.61076803D-01
 -0.63620903D-01 -0.53627571D-02 -0.26547596D-04 -0.11127868D-01 -0.31462201D-07
  0.20185180D-01 -0.11235045D-01 -0.27721827D-07  0.12923155D-01 -0.18340184D-04
  0.58911241D-09 -0.21888108D-04 -0.21650027D-02  0.34472942D-02 -0.12822915D-02
 -0.30326850D-07  0.13166816D-01  0.30887266D-07  0.32585540D-03 -0.13089296D-03
 -0.19496244D-03  0.16444259D-08  0.63578000D-03  0.13207158D-08
MO    6     MO 0.0        OCC NO =    2.0000000  ORB. ENERGY =   -0.634912
  0.86672813D-03  0.16157783D-02  0.27309500D-02  0.41055123D-02  0.50440963D-02
  0.42605457D-02  0.16069211D-02 -0.79527420D-05 -0.22581673D-01 -0.42280017D-01
 -0.71985347D-01 -0.11135039D+00 -0.14664454D+00 -0.15237307D+00 -0.96826247D-01
  0.64890699D-01  0.27482846D-01  0.39048900D-01  0.21875527D-02  0.16718662D+00
  0.15674808D+00  0.11161397D+00 -0.11457645D-05 -0.10742270D-05 -0.76491362D-06
 -0.41015630D+00 -0.38454760D+00 -0.27382080D+00  0.44995293D-01 -0.29139616D-06
 -0.95416805D-01  0.88841298D-02 -0.30290755D-07 -0.10112144D-01  0.79283496D-04
 -0.31232695D-10 -0.21754310D-04  0.38478797D-01  0.20458721D-02 -0.40524669D-01
 -0.12051632D-06 -0.48748758D-01 -0.28260708D-06  0.86314622D-02 -0.60118152D-03
 -0.80302807D-02 -0.28138011D-07 -0.11089592D-01 -0.58400790D-07  0.52652551D-03
 -0.23750822D-03 -0.28901729D-03 -0.12812109D-08 -0.63957266D-03  0.16945261D-09
  0.24427792D-02  0.16797930D-07 -0.16300236D-02 -0.20148685D-02  0.14179165D-07
  0.12981121D-02 -0.53134691D-02 -0.64572955D-07  0.35919587D-02 -0.27482633D-07
  0.54998532D-03  0.15374678D-08  0.89103166D-04 -0.44053140D-03 -0.79658689D-09
 -0.62720889D-03 -0.12094246D-02 -0.38158164D-08  0.35989939D-03 -0.44368793D-08
  0.36754575D-01  0.66288389D-01  0.97742191D-01  0.56426264D-01 -0.35445110D-02
 -0.18865002D-03 -0.27128277D-01  0.55327007D-08  0.48239024D-02 -0.40852140D-02
 -0.54591853D-08 -0.15019781D-02  0.15404114D-02 -0.10263446D-08 -0.43535944D-03
  0.61701192D-02 -0.16326223D-02 -0.45374969D-02  0.12738171D-08 -0.92716718D-03
 -0.80106427D-08  0.13028517D-03 -0.21698917D-03  0.86703999D-04 -0.23637415D-10
  0.47175389D-04  0.27518240D-08 -0.67680799D-03 -0.12614830D-02 -0.21390572D-02
 -0.32375627D-02 -0.40395330D-02 -0.34694201D-02 -0.13319779D-02  0.59580187D-05
  0.91249037D-02  0.17113983D-01  0.29175589D-01  0.45595767D-01  0.60970228D-01
  0.65101989D-01  0.39802080D-01 -0.26258995D-01 -0.11500687D-01 -0.97159951D-02
  0.39929430D-03 -0.12724274D+00 -0.12338266D+00 -0.83233214D-01 -0.53995460D-05
 -0.52357433D-05 -0.35320015D-05  0.94610821D+00  0.91740671D+00  0.61887714D+00
 -0.26596993D-01 -0.13294291D-05  0.23002188D+00 -0.38945108D-02 -0.18984362D-06
  0.29353452D-01 -0.21354874D-03 -0.23308943D-08  0.18212601D-03  0.30254515D-01
  0.64858202D-02 -0.36740335D-01  0.26640141D-06 -0.83012722D-01  0.57957094D-07
  0.95158916D-02  0.31403416D-02 -0.12656233D-01  0.71422218D-07 -0.22161164D-01
  0.42522686D-07  0.46708915D-03  0.24614126D-03 -0.71323041D-03  0.35732164D-08
 -0.47306586D-03  0.46985005D-08 -0.15701426D-02  0.42078935D-07  0.79639961D-02
 -0.53246977D-04 -0.17057006D-07 -0.56682028D-02  0.47636748D-02 -0.10917980D-06
 -0.18223786D-01  0.11585672D-06 -0.98100412D-03  0.10595937D-08  0.81819735D-03
  0.58797233D-03 -0.47729423D-08 -0.25737307D-03  0.23550400D-02  0.15941611D-08
 -0.21972190D-02 -0.32098031D-08  0.17371538D-01  0.31330284D-01  0.46196485D-01
  0.31747861D-01  0.36537806D-02 -0.92993157D-04  0.16110284D-01 -0.29780219D-07
  0.25478695D-02  0.71560928D-02 -0.25311316D-07  0.42103621D-02  0.38579948D-03
 -0.38231364D-08  0.51727107D-03  0.68671382D-02 -0.31488667D-02 -0.37182714D-02
  0.44558156D-09 -0.19256553D-02  0.18006817D-07  0.64617906D-03  0.70227152D-04
 -0.71640621D-03 -0.46660644D-08  0.42826164D-03  0.53261214D-08
MO    7     MO 0.0        OCC NO =    2.0000000  ORB. ENERGY =   -0.593428
  0.34742772D-08  0.64768426D-08  0.10947005D-07  0.16456934D-07  0.20219245D-07
  0.17078385D-07  0.64413384D-08 -0.31878543D-10 -0.11027135D-06 -0.20646275D-06
 -0.35152050D-06 -0.54374876D-06 -0.71609799D-06 -0.74407168D-06 -0.47282415D-06
  0.31687575D-06  0.13552782D-06  0.20598749D-06  0.12241035D-07  0.46339598D-07
  0.43446319D-07  0.30936367D-07  0.20860442D+00  0.19557990D+00  0.13926454D+00
 -0.18190155D-05 -0.17054426D-05 -0.12143768D-05  0.25647876D-07  0.55018649D-01
 -0.43464085D-06  0.34383037D-07  0.51467506D-02 -0.54705343D-07  0.91337651D-09
 -0.50382835D-04 -0.49869390D-09  0.11459292D-06  0.70225073D-07 -0.18481799D-06
  0.13602859D-01 -0.28491953D-06  0.60729225D-01  0.25686029D-07  0.99288669D-08
 -0.35614896D-07  0.30873302D-02 -0.67373733D-07  0.13205650D-01  0.31891100D-08
 -0.96538338D-09 -0.22237266D-08 -0.19694755D-04 -0.16329912D-08  0.10401513D-03
  0.15928329D-07 -0.33318816D-02 -0.13196466D-07  0.12764357D-08 -0.48299523D-02
 -0.36488288D-08 -0.49061424D-07  0.14825597D-01  0.43238226D-07  0.60319017D-02
  0.17273227D-08 -0.22758059D-03  0.78534445D-09 -0.12780337D-09 -0.35269713D-03
 -0.60711943D-08 -0.50541648D-08  0.10354389D-02  0.37151609D-08  0.12498123D-02
  0.11442398D-06  0.20636835D-06  0.30429002D-06  0.16092983D-06 -0.37372101D-07
 -0.18283113D-08 -0.79748993D-07  0.42468831D-02 -0.12911481D-07 -0.77569364D-08
  0.26737630D-02 -0.12550565D-08  0.71972715D-08  0.16083677D-03 -0.34684272D-08
  0.16797120D-07  0.18282571D-08 -0.18625377D-07 -0.31667441D-02  0.13901688D-07
  0.15083684D-02  0.51675985D-09 -0.31163807D-08  0.25996209D-08 -0.24064539D-03
 -0.25914952D-08 -0.42958997D-03 -0.19032991D-08 -0.35475046D-08 -0.60153924D-08
 -0.91045767D-08 -0.11359853D-07 -0.97565991D-08 -0.37457481D-08  0.16754961D-10
  0.18372232D-07  0.34457576D-07  0.58742613D-07  0.91803269D-07  0.12275846D-06
  0.13107742D-06  0.80138164D-07 -0.52870293D-07 -0.19992662D-07  0.17171444D-07
  0.56273695D-08 -0.32821827D-05 -0.31826132D-05 -0.21469721D-05  0.16026483D+01
  0.15540298D+01  0.10483393D+01  0.30370383D-05  0.29449055D-05  0.19866159D-05
 -0.80391301D-06  0.39693446D+00  0.74575692D-06 -0.14023166D-06  0.60083337D-01
  0.10755602D-06 -0.27524653D-08  0.10110031D-02  0.51916892D-09  0.20736070D-06
 -0.10185081D-06 -0.10550988D-06 -0.58641086D-01 -0.14801774D-06 -0.61732947D-01
  0.64640630D-07 -0.34270316D-07 -0.30370314D-07 -0.15467997D-01 -0.55162183D-07
 -0.25380731D-01  0.57955902D-08 -0.22125658D-08 -0.35830244D-08 -0.51443326D-03
 -0.17462041D-08 -0.17531599D-02 -0.19757354D-07 -0.12471000D-01  0.16746794D-07
  0.11174454D-06  0.28881640D-02 -0.35573525D-08 -0.52472475D-07  0.34524837D-01
 -0.46683028D-07 -0.76468236D-02 -0.30421696D-08 -0.39347971D-03  0.54395578D-09
  0.57595210D-08 -0.11927450D-02 -0.22097606D-09  0.33669878D-08  0.23731841D-02
 -0.14108913D-08  0.21304294D-02  0.37866428D-07  0.68293662D-07  0.10069896D-06
  0.32220189D-07  0.12763976D-07  0.27925335D-09 -0.14242568D-07  0.20841478D-01
  0.23685250D-07 -0.25570490D-07  0.12751373D-01  0.29422183D-07 -0.77485888D-09
  0.95275065D-03  0.13055983D-08 -0.16419069D-07  0.26151993D-07 -0.97329240D-08
  0.13795392D-01  0.22259725D-07 -0.71324327D-02 -0.21263886D-08  0.41564274D-08
 -0.20300389D-08  0.18643058D-02  0.53610363D-08 -0.10419770D-02
MO    8     MO 0.0        OCC NO =    2.0000000  ORB. ENERGY =   -0.372763
 -0.13371511D-02 -0.24927537D-02 -0.42131929D-02 -0.63338090D-02 -0.77818162D-02
 -0.65729878D-02 -0.24790892D-02  0.12269151D-04  0.28383217D-01  0.53142338D-01
  0.90479378D-01  0.13995784D+00  0.18431955D+00  0.19151982D+00  0.12170225D+00
 -0.81562017D-01 -0.38313104D-01 -0.47880539D-01 -0.46242104D-02  0.53870086D+00
  0.50506629D+00  0.35963729D+00  0.26567235D-06  0.24908472D-06  0.17736316D-06
  0.20059990D+00  0.18807515D+00  0.13392071D+00  0.14090518D+00  0.67114753D-07
  0.48634235D-01  0.25623589D-01  0.11761235D-07  0.44532202D-02  0.71402549D-03
  0.46538501D-10  0.45231086D-04  0.16290005D-01 -0.21771635D-01  0.54816299D-02
 -0.18823936D-07 -0.92071367D-02  0.96983958D-07  0.34235700D-02 -0.46233261D-02
  0.11997561D-02 -0.44009194D-08 -0.46495883D-02  0.20402840D-07  0.29068710D-03