 Molden2AIM, Version 4.0.0 (06/02/2016)           Time: Fri Jun 29 23:21:48 2018
GAUSSIAN              8 MOL ORBITALS    158 PRIMITIVES        2 NUCLEI
  P    1    (CENTRE  1)   0.00000000  0.00000000  2.82600605  CHARGE = 15.0
  H    2    (CENTRE  2)   0.00000000  0.00000000  0.12933664  CHARGE =  1.0
CENTRE ASSIGNMENTS    1  1  1  1  1  1  1  1  1  1  1  1  1  1  1  1  1  1  1  1
CENTRE ASSIGNMENTS    1  1  1  1  1  1  1  1  1  1  1  1  1  1  1  1  1  1  1  1
CENTRE ASSIGNMENTS    1  1  1  1  1  1  1  1  1  1  1  1  1  1  1  1  1  1  1  1
CENTRE ASSIGNMENTS    1  1  1  1  1  1  1  1  1  1  1  1  1  1  1  1  1  1  1  1
CENTRE ASSIGNMENTS    1  1  1  1  1  1  1  1  1  1  1  1  1  1  1  1  1  1  1  1
CENTRE ASSIGNMENTS    1  1  1  1  1  1  1  1  1  1  1  1  1  1  1  1  1  1  1  1
CENTRE ASSIGNMENTS    1  1  1  1  1  1  1  1  1  1  1  2  2  2  2  2  2  2  2  2
CENTRE ASSIGNMENTS    2  2  2  2  2  2  2  2  2  2  2  2  2  2  2  2  2  2
TYPE ASSIGNMENTS      1  1  1  1  1  1  1  1  1  1  1  1  1  1  1  1  1  1  1  1
TYPE ASSIGNMENTS      1  1  1  1  1  1  1  1  1  1  1  1  1  1  1  1  1  1  1  1
TYPE ASSIGNMENTS      1  1  2  2  2  2  2  2  2  3  3  3  3  3  3  3  4  4  4  4
TYPE ASSIGNMENTS      4  4  4  2  2  2  2  2  2  2  3  3  3  3  3  3  3  4  4  4
TYPE ASSIGNMENTS      4  4  4  4  2  3  4  2  3  4  2  3  4  5  6  7  8  9 10  5
TYPE ASSIGNMENTS      6  7  8  9 10  5  6  7  8  9 10 11 12 13 17 14 15 18 19 16
TYPE ASSIGNMENTS     20 11 12 13 17 14 15 18 19 16 20  1  1  1  1  1  1  2  3  4
TYPE ASSIGNMENTS      2  3  4  2  3  4  5  6  7  8  9 10  5  6  7  8  9 10
EXPONENTS  0.3124000D+06 0.4680000D+05 0.1065000D+05 0.3018000D+04 0.9868000D+03
EXPONENTS  0.3574000D+03 0.1396000D+03 0.5763000D+02 0.2460000D+02 0.1012000D+02
EXPONENTS  0.4283000D+01 0.1805000D+01 0.2782000D+00 0.3124000D+06 0.4680000D+05
EXPONENTS  0.1065000D+05 0.3018000D+04 0.9868000D+03 0.3574000D+03 0.1396000D+03
EXPONENTS  0.5763000D+02 0.2460000D+02 0.1012000D+02 0.4283000D+01 0.1805000D+01
EXPONENTS  0.2782000D+00 0.3124000D+06 0.4680000D+05 0.1065000D+05 0.3018000D+04
EXPONENTS  0.9868000D+03 0.3574000D+03 0.1396000D+03 0.5763000D+02 0.2460000D+02
EXPONENTS  0.1012000D+02 0.4283000D+01 0.1805000D+01 0.2782000D+00 0.6158000D+00
EXPONENTS  0.1055000D+00 0.4090000D-01 0.5049000D+03 0.1194000D+03 0.3796000D+02
EXPONENTS  0.1395000D+02 0.5457000D+01 0.2177000D+01 0.2877000D+00 0.5049000D+03
EXPONENTS  0.1194000D+03 0.3796000D+02 0.1395000D+02 0.5457000D+01 0.2177000D+01
EXPONENTS  0.2877000D+00 0.5049000D+03 0.1194000D+03 0.3796000D+02 0.1395000D+02
EXPONENTS  0.5457000D+01 0.2177000D+01 0.2877000D+00 0.5049000D+03 0.1194000D+03
EXPONENTS  0.3796000D+02 0.1395000D+02 0.5457000D+01 0.2177000D+01 0.2877000D+00
EXPONENTS  0.5049000D+03 0.1194000D+03 0.3796000D+02 0.1395000D+02 0.5457000D+01
EXPONENTS  0.2177000D+01 0.2877000D+00 0.5049000D+03 0.1194000D+03 0.3796000D+02
EXPONENTS  0.1395000D+02 0.5457000D+01 0.2177000D+01 0.2877000D+00 0.8010000D+00
EXPONENTS  0.8010000D+00 0.8010000D+00 0.9714000D-01 0.9714000D-01 0.9714000D-01
EXPONENTS  0.3070000D-01 0.3070000D-01 0.3070000D-01 0.2160000D+00 0.2160000D+00
EXPONENTS  0.2160000D+00 0.2160000D+00 0.2160000D+00 0.2160000D+00 0.6520000D+00
EXPONENTS  0.6520000D+00 0.6520000D+00 0.6520000D+00 0.6520000D+00 0.6520000D+00
EXPONENTS  0.7750000D-01 0.7750000D-01 0.7750000D-01 0.7750000D-01 0.7750000D-01
EXPONENTS  0.7750000D-01 0.4520000D+00 0.4520000D+00 0.4520000D+00 0.4520000D+00
EXPONENTS  0.4520000D+00 0.4520000D+00 0.4520000D+00 0.4520000D+00 0.4520000D+00
EXPONENTS  0.4520000D+00 0.1650000D+00 0.1650000D+00 0.1650000D+00 0.1650000D+00
EXPONENTS  0.1650000D+00 0.1650000D+00 0.1650000D+00 0.1650000D+00 0.1650000D+00
EXPONENTS  0.1650000D+00 0.3387000D+02 0.5095000D+01 0.1159000D+01 0.3258000D+00
EXPONENTS  0.1027000D+00 0.2526000D-01 0.1407000D+01 0.1407000D+01 0.1407000D+01
EXPONENTS  0.3880000D+00 0.3880000D+00 0.3880000D+00 0.1020000D+00 0.1020000D+00
EXPONENTS  0.1020000D+00 0.1057000D+01 0.1057000D+01 0.1057000D+01 0.1057000D+01
EXPONENTS  0.1057000D+01 0.1057000D+01 0.2470000D+00 0.2470000D+00 0.2470000D+00
EXPONENTS  0.2470000D+00 0.2470000D+00 0.2470000D+00
MO    1     MO 0.0        OCC NO =    2.0000000  ORB. ENERGY =  -77.603840
  0.54385514D+00  0.10175447D+01  0.17569993D+01  0.28415166D+01  0.42886920D+01
  0.58756407D+01  0.67900669D+01  0.57062031D+01  0.25064144D+01  0.28647903D+00
 -0.38610623D-02  0.24014728D-02  0.11812840D-03 -0.91546458D-03 -0.17122806D-02
 -0.29647214D-02 -0.48140145D-02 -0.73932013D-02 -0.10514829D-01 -0.13378432D-01
 -0.13864765D-01 -0.92522902D-02  0.91123262D-03  0.69603324D-02  0.35738459D-02
 -0.15676536D-04  0.36997745D-03  0.69138465D-03  0.11988855D-02  0.19441211D-02
  0.29966548D-02  0.42640761D-02  0.54908401D-02  0.57722563D-02  0.40465286D-02
 -0.46983818D-03 -0.38036387D-02 -0.35797408D-02  0.17456937D-02 -0.22836957D-02
 -0.69831004D-03 -0.19441263D-05 -0.10699831D-17 -0.13997421D-17 -0.15313669D-17
 -0.12614217D-17 -0.67445342D-18 -0.18635803D-18  0.15274930D-21  0.28312260D-18
  0.37037839D-18  0.40520694D-18  0.33377817D-18  0.17846357D-18  0.49311216D-19
 -0.40418189D-22 -0.75048772D-02 -0.98178116D-02 -0.10741030D-01 -0.88476305D-02
 -0.47306261D-02 -0.13071179D-02  0.10713858D-05 -0.85684882D-19 -0.11348159D-18
 -0.12536667D-18 -0.10737694D-18 -0.58578183D-19 -0.18005397D-19  0.78389196D-20
 -0.19755435D-17 -0.26164221D-17 -0.28904436D-17 -0.24756738D-17 -0.13505737D-17
 -0.41513095D-18  0.18073348D-18  0.62398741D-02  0.82641281D-02  0.91296416D-02
  0.78195659D-02  0.42658691D-02  0.13112163D-02 -0.57085767D-03  0.70181903D-19
 -0.15595055D-18  0.28406049D-03  0.30534252D-20  0.22827130D-20  0.21643363D-03
  0.13622860D-21  0.18159177D-20  0.22918530D-06 -0.12692201D-04 -0.12580513D-04
  0.25272714D-04 -0.67201636D-07 -0.10164615D-19 -0.71200254D-19 -0.15082341D-03
 -0.15583015D-03  0.30665356D-03  0.30018036D-05  0.33769687D-19  0.21445172D-19
  0.90181051D-05  0.90006518D-05 -0.18018757D-04  0.10491042D-07 -0.52178600D-21
 -0.23122794D-20  0.48827134D-21 -0.16477950D-19 -0.83823997D-04 -0.40600535D-20
 -0.12183647D-19  0.12566371D-03  0.25952395D-20  0.61617497D-19  0.12580828D-03
 -0.88409033D-07 -0.28450928D-21 -0.16540279D-20  0.71052454D-05 -0.33177911D-21
 -0.17203199D-20 -0.10652455D-04  0.11853070D-20  0.66824036D-20 -0.10663281D-04
  0.66965054D-08  0.48194545D-04  0.86920847D-04  0.12816474D-03 -0.42944578D-03
  0.50550253D-03 -0.51981251D-05  0.19830976D-19  0.15619918D-18  0.97037758D-04
 -0.16851722D-19 -0.14500477D-18 -0.55353688D-03 -0.50068756D-20 -0.28040690D-19
  0.36312421D-04  0.11922090D-03  0.11927791D-03 -0.23849881D-03 -0.33870515D-07
  0.11573571D-19 -0.22564952D-19  0.42426267D-04  0.42405333D-04 -0.84831599D-04
  0.12529264D-07 -0.11781651D-19 -0.89276868D-19
MO    2     MO 0.0        OCC NO =    2.0000000  ORB. ENERGY =   -6.776009
 -0.15381866D-02 -0.28779239D-02 -0.49693247D-02 -0.80366675D-02 -0.12129717D-01
 -0.16618087D-01 -0.19204360D-01 -0.16138866D-01 -0.70888971D-02 -0.81024925D-03
  0.10920251D-04 -0.67920907D-05 -0.33410281D-06 -0.14543720D+00 -0.27202505D+00
 -0.47099668D+00 -0.76478851D+00 -0.11745364D+01 -0.16704604D+01 -0.21253926D+01
 -0.22026550D+01 -0.14698845D+01  0.14476488D+00  0.11057678D+01  0.56776652D+00
 -0.24904858D-02 -0.51475130D-03 -0.96192659D-03 -0.16680148D-02 -0.27048644D-02
 -0.41692594D-02 -0.59326283D-02 -0.76394307D-02 -0.80309663D-02 -0.56299536D-02
  0.65368799D-03  0.52920197D-02  0.49805096D-02 -0.24287915D-02  0.36917322D-01
  0.12793781D-02 -0.39717348D-04  0.35334573D-15  0.46224365D-15  0.50571075D-15
  0.41656544D-15  0.22272803D-15  0.61541917D-16 -0.50443145D-19  0.11957204D-15
  0.15642305D-15  0.17113230D-15  0.14096557D-15  0.75371071D-16  0.20825758D-16
 -0.17069939D-19 -0.34571836D-01 -0.45226559D-01 -0.49479440D-01 -0.40757340D-01
 -0.21792020D-01 -0.60213464D-02  0.49354272D-05 -0.73870906D-17 -0.97835088D-17
 -0.10808149D-16 -0.92572126D-17 -0.50501598D-17 -0.15522867D-17  0.67581128D-18
  0.23803704D-16  0.31525773D-16  0.34827511D-16  0.29829869D-16  0.16273323D-16
  0.50019927D-17 -0.21776925D-17 -0.99887733D-02 -0.13229193D-01 -0.14614705D-01
 -0.12517539D-01 -0.68287914D-02 -0.20989914D-02  0.91382738D-03 -0.79785936D-18
  0.93931819D-17 -0.15074168D-02  0.28613076D-19  0.88596989D-19 -0.31913080D-03
  0.25806209D-20 -0.19989165D-19  0.26528884D-05 -0.48957755D-04  0.81952572D-04
 -0.32994817D-04 -0.78402967D-04 -0.31814137D-18  0.40372224D-18  0.95372493D-03
 -0.43700448D-03 -0.51672045D-03  0.83304372D-03  0.33332751D-17  0.17583178D-17
 -0.81341593D-05 -0.15362002D-04  0.23496161D-04  0.43256594D-05 -0.21157675D-20
  0.20985863D-19  0.65041834D-19 -0.32585019D-19  0.87194719D-04  0.54293401D-19
  0.51852131D-18 -0.11510547D-03 -0.24941890D-18 -0.42076625D-18 -0.14647868D-03
  0.17822500D-04 -0.55590186D-20  0.16456141D-19 -0.69973771D-05 -0.16001721D-19
  0.17886976D-20  0.12508979D-04  0.32678777D-19 -0.51157121D-19  0.84831526D-05
  0.24412018D-05 -0.46519150D-04 -0.83899202D-04 -0.12370932D-03  0.71630942D-03
 -0.76030454D-03  0.17486057D-04 -0.52647218D-19 -0.10295435D-17 -0.21446457D-03
 -0.50409719D-19  0.11157582D-17  0.82674906D-03 -0.76450187D-19  0.20619395D-18
 -0.75259890D-04 -0.24573262D-03 -0.22647856D-03  0.47221118D-03 -0.11331273D-04
  0.71389311D-18  0.29386402D-18 -0.42293799D-04 -0.58257567D-04  0.10055137D-03
  0.96259936D-05  0.14099491D-20  0.75125208D-18
MO    3     MO 0.0        OCC NO =    2.0000000  ORB. ENERGY =   -4.863637
 -0.70410630D-16 -0.13173722D-15 -0.22747128D-15 -0.36787917D-15 -0.55523886D-15
 -0.76069441D-15 -0.87908131D-15 -0.73875803D-15 -0.32449490D-15 -0.37089232D-16
  0.49987544D-18 -0.31090856D-18 -0.15293586D-19  0.28393392D-15  0.53106866D-15
  0.91951669D-15  0.14930802D-14  0.22930222D-14  0.32612040D-14  0.41493583D-14
  0.43001959D-14  0.28696239D-14 -0.28262136D-15 -0.21587667D-14 -0.11084384D-14
  0.48621217D-17 -0.72879978D-16 -0.13619235D-15 -0.23616236D-15 -0.38296253D-15
 -0.59029580D-15 -0.83995868D-15 -0.10816127D-14 -0.11370474D-14 -0.79710511D-15
  0.92551036D-16  0.74925945D-15  0.70515495D-15 -0.34387532D-15 -0.18030827D-15
  0.72119162D-15  0.76131740D-16  0.76745489D+01  0.10039775D+02  0.10983865D+02
  0.90476595D+01  0.48375771D+01  0.13366695D+01 -0.10956079D-02  0.21236246D+01
  0.27781062D+01  0.30393456D+01  0.25035780D+01  0.13386060D+01  0.36986984D+00
 -0.30316569D-03 -0.14013328D-11 -0.18332108D-11 -0.20055968D-11 -0.16520557D-11
 -0.88331649D-12 -0.24406892D-12  0.20005233D-15 -0.87082615D-02 -0.11533276D-01
 -0.12741171D-01 -0.10912852D-01 -0.59533738D-02 -0.18299110D-02  0.79667918D-03
 -0.24085129D-02 -0.31898494D-02 -0.35239267D-02 -0.30182540D-02 -0.16465718D-02
 -0.50611299D-03  0.22034387D-03  0.38606953D-14  0.51131289D-14  0.56486339D-14
  0.48380722D-14  0.26393515D-14  0.81126743D-15 -0.35319743D-15  0.84148895D-01
  0.23284721D-01 -0.14540501D-13  0.49993713D-04  0.13826939D-04 -0.34805945D-15
 -0.16131253D-05 -0.44795423D-06 -0.42272524D-17 -0.69089359D-16 -0.55333600D-16
  0.12442296D-15 -0.15813211D-16  0.82707221D-04  0.22706235D-04  0.89520719D-16
 -0.15689676D-15  0.67376038D-16  0.16436799D-15 -0.91307543D-03 -0.25254030D-03
 -0.14023321D-16 -0.13487404D-16  0.27510725D-16 -0.40879088D-18 -0.81179155D-05
 -0.22280245D-05  0.41431781D-04 -0.37840773D-04 -0.15399091D-16 -0.10766801D-03
  0.11775754D-03 -0.54773988D-16 -0.16627334D-04 -0.42352175D-05  0.10097126D-15
 -0.11247478D-15 -0.30637913D-05  0.22338139D-05 -0.18843116D-16  0.62648235D-05
 -0.75020757D-05  0.34045202D-16  0.29265504D-05  0.80063393D-06  0.22484147D-16
  0.99278838D-17  0.11862566D-15  0.21394626D-15  0.31546363D-15 -0.70897251D-15
 -0.75481616D-15 -0.32983914D-17  0.65968460D-04  0.17684203D-04 -0.68604360D-17
  0.29077588D-04  0.82239755D-05 -0.19301963D-15 -0.18611489D-04 -0.51207473D-05
 -0.31042750D-16  0.39477794D-15  0.25984269D-15 -0.65462062D-15 -0.20785960D-15
 -0.16968807D-03 -0.46325848D-04 -0.47291282D-16 -0.60238756D-16  0.10753004D-15
  0.20643124D-16 -0.22221927D-04 -0.60446151D-05
MO    4     MO 0.0        OCC NO =    2.0000000  ORB. ENERGY =   -4.851997
 -0.11122921D-03 -0.20810817D-03 -0.35934135D-03 -0.58114675D-03 -0.87712293D-03
 -0.12016855D-02 -0.13887039D-02 -0.11670322D-02 -0.51261166D-03 -0.58590668D-04
  0.78966414D-06 -0.49114902D-06 -0.24159611D-07 -0.62922263D-03 -0.11768950D-02
 -0.20377302D-02 -0.33087974D-02 -0.50815397D-02 -0.72271160D-02 -0.91953443D-02
 -0.95296139D-02 -0.63593399D-02  0.62631389D-03  0.47840176D-02  0.24563973D-02
 -0.10774891D-04 -0.18578033D-03 -0.34717161D-03 -0.60200788D-03 -0.97622017D-03
 -0.15047390D-02 -0.21411614D-02 -0.27571683D-02 -0.28984784D-02 -0.20319223D-02
  0.23592436D-03  0.19099576D-02  0.17975296D-02 -0.87658191D-03  0.59011874D-03
 -0.27469479D-02 -0.16369007D-03  0.12619140D-11  0.16508243D-11  0.18060597D-11
  0.14876924D-11  0.79543518D-12  0.21978646D-12 -0.18014909D-15  0.65511436D-12
  0.85701461D-12  0.93760402D-12  0.77232574D-12  0.41294495D-12  0.11410070D-12
 -0.93523216D-16  0.80093137D+01  0.10477711D+02  0.11462983D+02  0.94423195D+01
  0.50485928D+01  0.13949752D+01 -0.11433985D-02 -0.13412077D-14 -0.17763038D-14
 -0.19623386D-14 -0.16807490D-14 -0.91691216D-15 -0.28183476D-15  0.12270098D-15
 -0.11036736D-14 -0.14617122D-14 -0.16147993D-14 -0.13830805D-14 -0.75452275D-15
 -0.23192051D-15  0.10097007D-15 -0.41204432D-01 -0.54571406D-01 -0.60286745D-01
 -0.51635781D-01 -0.28169272D-01 -0.86584957D-02  0.37696059D-02  0.13921220D-13
  0.69935940D-14  0.82710258D-01  0.82376347D-17  0.25441916D-17  0.80711406D-03
 -0.29476535D-18  0.91278678D-19  0.37321091D-05  0.28005245D-03  0.26634171D-03
 -0.54639416D-03  0.79529278D-05  0.15604047D-16 -0.35076197D-18  0.71837269D-03
  0.73821826D-03 -0.14565910D-02 -0.11823092D-04 -0.15768577D-15 -0.69487287D-16
  0.11888599D-04  0.12538159D-04 -0.24426759D-04 -0.36793619D-06 -0.13237753D-17
 -0.63834382D-18  0.53187767D-17 -0.10951132D-16  0.44214899D-03 -0.11824107D-16
  0.24928751D-16 -0.53352779D-03 -0.41322231D-17  0.79246439D-17 -0.79291918D-03
  0.15641032D-03 -0.40600384D-18  0.37758006D-18  0.18071062D-04  0.86385052D-18
 -0.16848147D-17 -0.33223508D-04  0.35416101D-18  0.55207456D-18 -0.20989677D-04
 -0.73525517D-05 -0.26889315D-03 -0.48495987D-03 -0.71507304D-03  0.27068174D-02
  0.26317382D-02  0.46321789D-04  0.95885500D-17  0.13135418D-16 -0.15898777D-03
  0.73301675D-17 -0.10184968D-16  0.26222638D-02 -0.25295850D-17 -0.31424105D-17
  0.58762455D-03 -0.40642892D-03 -0.43872702D-03  0.84515594D-03  0.18985570D-04
 -0.27101201D-16 -0.20095316D-16 -0.10719043D-03 -0.10539477D-03  0.21258520D-03
 -0.11619597D-05 -0.23594839D-17 -0.86432216D-17
MO    5     MO 0.0        OCC NO =    2.0000000  ORB. ENERGY =   -4.846316
 -0.31843777D-16 -0.59579226D-16 -0.10287573D-15 -0.16637633D-15 -0.25111127D-15
 -0.34403020D-15 -0.39757164D-15 -0.33410930D-15 -0.14675544D-15 -0.16773905D-16
  0.22607272D-18 -0.14061091D-18 -0.69166479D-20  0.81299824D-16  0.15206281D-15
  0.26328853D-15  0.42751903D-15  0.65656933D-15  0.93379231D-15  0.11881007D-14
  0.12312906D-14  0.82166976D-15 -0.80923995D-16 -0.61812746D-15 -0.31738316D-15
  0.13921889D-17 -0.20256118D-16 -0.37853034D-16 -0.65638503D-16 -0.10643985D-15
 -0.16406566D-15 -0.23345647D-15 -0.30062131D-15 -0.31602873D-15 -0.22154583D-15
  0.25723453D-16  0.20824770D-15  0.19598938D-15 -0.95576032D-16  0.65233869D-16
  0.97803128D-15  0.10736948D-15 -0.21310229D+01 -0.27877847D+01 -0.30499341D+01
 -0.25123001D+01 -0.13432695D+01 -0.37115840D+00  0.30422187D-03  0.77012830D+01
  0.10074748D+02  0.11022127D+02  0.90791767D+01  0.48544286D+01  0.13413257D+01
 -0.10994245D-02 -0.29962328D-12 -0.39196443D-12 -0.42882282D-12 -0.35323111D-12
 -0.18886461D-12 -0.52185125D-13  0.42773803D-16  0.50614280D-02  0.67033867D-02
  0.74054415D-02  0.63427833D-02  0.34602283D-02  0.10635835D-02 -0.46304699D-03
 -0.18288581D-01 -0.24221510D-01 -0.26758262D-01 -0.22918533D-01 -0.12502927D-01
 -0.38430720D-02  0.16731390D-02  0.52328429D-14  0.69304097D-14  0.76562410D-14
  0.65575938D-14  0.35774155D-14  0.10996037D-14 -0.47872897D-15 -0.21927107D-01
  0.79241580D-01 -0.28306135D-14 -0.10383144D-06  0.31731752D-06 -0.34362654D-15
 -0.13193764D-05  0.47633095D-05 -0.42037611D-17 -0.69513883D-16 -0.75171037D-16
  0.14468492D-15  0.11082924D-16  0.31707812D-04 -0.11525834D-03 -0.29619932D-16
  0.15858696D-15 -0.12896702D-15 -0.10196156D-15  0.22108010D-03 -0.79836088D-03
 -0.10139117D-16 -0.69337942D-17  0.17072911D-16 -0.20476706D-17  0.19340368D-05
 -0.69125536D-05 -0.46100137D-04 -0.11680724D-03 -0.43095551D-16  0.20195666D-03
  0.11900642D-03 -0.60313379D-16 -0.63656248D-04  0.23141531D-03  0.18960003D-15
 -0.96167687D-16  0.33453236D-05 -0.49222670D-06 -0.93088084D-17 -0.68113491D-05
 -0.10134961D-04  0.26811645D-16 -0.32246218D-05  0.11611641D-04  0.11147797D-17
  0.73627294D-17  0.65728041D-16  0.11854323D-15  0.17479192D-15 -0.50520105D-15
 -0.10400092D-14 -0.34264403D-16 -0.76806161D-04  0.27551931D-03  0.45553353D-15
  0.89815106D-04 -0.32396183D-03 -0.64369939D-15  0.16859891D-04 -0.60805584D-04
 -0.19865765D-15 -0.36844436D-15  0.16613669D-15  0.20230767D-15  0.66823136D-15
  0.94821083D-04 -0.34041601D-03  0.57251954D-16 -0.46166907D-17 -0.52635263D-16
 -0.62259118D-17  0.58115053D-04 -0.20966751D-03
MO    6     MO 0.0        OCC NO =    2.0000000  ORB. ENERGY =   -0.626545
  0.53013271D-03  0.99187028D-03  0.17126671D-02  0.27698201D-02  0.41804807D-02
  0.57273879D-02  0.66187414D-02  0.55622254D-02  0.24431731D-02  0.27925066D-03
 -0.37636408D-05  0.23408794D-05  0.11514781D-06  0.45786306D-03  0.85638491D-03
  0.14827842D-02  0.24076949D-02  0.36976568D-02  0.52589168D-02  0.66911269D-02
  0.69343631D-02  0.46274668D-02 -0.45574648D-03 -0.34811605D-02 -0.17874335D-02
  0.78405073D-05  0.36337829D-01  0.67905265D-01  0.11775014D+00  0.19094444D+00
  0.29432045D+00  0.41880192D+00  0.53929019D+00  0.56692985D+00  0.39743521D+00
 -0.46145784D-01 -0.37357945D+00 -0.35158902D+00  0.17145563D+00  0.30666720D-01
  0.41256071D-01 -0.83924678D-03 -0.71737761D-15 -0.93846683D-15 -0.10267156D-14
 -0.84572897D-15 -0.45219198D-15 -0.12494503D-15  0.10241183D-18 -0.79766819D-15
 -0.10435022D-14 -0.11416280D-14 -0.94038493D-15 -0.50280237D-15 -0.13892917D-15
  0.11387400D-18  0.99861676D-01  0.13063813D+00  0.14292269D+00  0.11772867D+00
  0.62946834D-01  0.17392821D-01 -0.14256114D-04 -0.16086223D-15 -0.21304694D-15
 -0.23535963D-15 -0.20158624D-15 -0.10997292D-15 -0.33802794D-16  0.14716553D-16
 -0.36654665D-15 -0.48545667D-15 -0.53629921D-15 -0.45934191D-15 -0.25058839D-15
 -0.77024302D-16  0.33533684D-16  0.29543705D+00  0.39127866D+00  0.43225781D+00
  0.37023014D+00  0.20197455D+00  0.62081681D-01 -0.27028190D-01 -0.27004858D-16
  0.24963189D-16 -0.30511976D-01  0.26218177D-17  0.18840365D-17 -0.15529913D-02
  0.67963744D-19  0.30367677D-18  0.13382166D-03 -0.49431225D-03 -0.14920359D-02
  0.19863481D-02  0.60246994D-03  0.64461161D-18 -0.13835502D-17 -0.51218145D-02
 -0.11002969D-01  0.16124784D-01  0.35413442D-02  0.26578570D-16 -0.42880410D-17
 -0.81317620D-04  0.17163076D-03 -0.90313142D-04 -0.15337996D-03 -0.13343987D-17
  0.98019938D-18  0.12068470D-17 -0.10724047D-17 -0.19618120D-02  0.45738629D-18
  0.12726687D-17  0.28369778D-02 -0.40779273D-17  0.19445453D-17  0.30484581D-02
 -0.17942134D-03 -0.44704802D-18  0.15274458D-18  0.41275814D-05  0.90577281D-20
  0.16053122D-18  0.76020089D-04  0.13320863D-17 -0.61876497D-18 -0.88402833D-04
  0.10378092D-03  0.27653363D-01  0.49873979D-01  0.73539153D-01  0.46281186D-01
  0.47319597D-02  0.36708086D-03 -0.15642512D-16  0.19939495D-17  0.20387064D-01
 -0.15727617D-16 -0.16037692D-17  0.50831433D-02 -0.25605450D-17  0.16780001D-17
 -0.66256910D-03 -0.12781552D-02 -0.34090452D-02  0.46872004D-02  0.12604754D-02
 -0.21195458D-16 -0.58287871D-17  0.22937305D-03 -0.48293455D-04 -0.18107959D-03
  0.17304132D-03 -0.16375031D-17 -0.17379977D-18
MO    7     MO 0.0        OCC NO =    2.0000000  ORB. ENERGY =   -0.361446
 -0.79495901D-04 -0.14873563D-03 -0.25682251D-03 -0.41534760D-03 -0.62688280D-03
 -0.85884884D-03 -0.99251151D-03 -0.83408195D-03 -0.36636534D-03 -0.41874954D-04
  0.56437570D-06 -0.35102591D-06 -0.17266958D-07 -0.20817715D-03 -0.38937356D-03
 -0.67417927D-03 -0.10947095D-02 -0.16812181D-02 -0.23910780D-02 -0.30422627D-02
 -0.31528552D-02 -0.21039759D-02  0.20721480D-03  0.15827834D-02  0.81269452D-03
 -0.35648529D-05  0.16955082D-01  0.31684319D-01  0.54941732D-01  0.89093895D-01
  0.13732872D+00  0.19541126D+00  0.25163059D+00  0.26452715D+00  0.18544164D+00
 -0.21531434D-01 -0.17431064D+00 -0.16405000D+00  0.80000495D-01  0.15946372D-01
  0.39044392D-01  0.29174187D-02  0.10500808D-14  0.13737061D-14  0.15028827D-14
  0.12379586D-14  0.66190822D-15  0.18289166D-15 -0.14990808D-18  0.50404433D-15
  0.65938618D-15  0.72139158D-15  0.59422664D-15  0.31771943D-15  0.87788961D-16
 -0.71956668D-19 -0.18802383D+00 -0.24597106D+00 -0.26910096D+00 -0.22166457D+00
 -0.11851899D+00 -0.32747947D-01  0.26842021D-04  0.14130409D-14  0.18714402D-14
  0.20674386D-14  0.17707675D-14  0.96602068D-15  0.29692943D-15 -0.12927268D-15
  0.15935851D-14  0.21105540D-14  0.23315952D-14  0.19970184D-14  0.10894491D-14
  0.33486809D-15 -0.14578984D-15 -0.13093591D+01 -0.17341234D+01 -0.19157405D+01
 -0.16408376D+01 -0.89513899D+00 -0.27514226D+00  0.11978730D+00 -0.76016169D-16
  0.87693279D-17  0.12933080D+00 -0.70092057D-17 -0.27607066D-16  0.12595083D-01
 -0.15220439D-17 -0.64801114D-19 -0.51721367D-04  0.26121495D-02  0.10232506D-02
 -0.36354002D-02  0.95742021D-03 -0.21964451D-17  0.21285130D-17  0.20319114D-01
  0.14966609D-01 -0.35285723D-01  0.31433493D-02 -0.22159680D-16  0.45434273D-16
 -0.39457902D-04  0.12109680D-03 -0.81638900D-04 -0.95583672D-04 -0.11994054D-17
  0.23034999D-17 -0.37312739D-17  0.14734405D-17  0.21734878D-02 -0.48909197D-17
 -0.99643326D-17 -0.60480240D-03  0.16084741D-16  0.55440112D-17 -0.59156611D-02
  0.31976851D-02 -0.12976205D-18 -0.19623094D-18 -0.92314904D-04 -0.17096169D-18
  0.36604987D-18  0.12118225D-03  0.56024784D-18  0.22264295D-18  0.15576246D-03
 -0.21347108D-04 -0.38134338D-01 -0.68776850D-01 -0.10141142D+00 -0.79614307D-01
 -0.23622952D-01 -0.53042181D-03  0.16742722D-16 -0.10579168D-16 -0.15647934D-01
  0.17274328D-16 -0.12780800D-16 -0.15509398D-02 -0.24527127D-17  0.27475489D-17
 -0.64097395D-03  0.96939038D-03  0.29709348D-02 -0.39403252D-02 -0.11691086D-02
  0.14109276D-16 -0.48225034D-17 -0.81764867D-03 -0.15744586D-03  0.97509453D-03
 -0.40792894D-03 -0.14149977D-17 -0.19210103D-17
MO    8     MO 0.0        OCC NO =    2.0000000  ORB. ENERGY =   -0.227228
 -0.38528782D-16 -0.72086768D-16 -0.12447256D-15 -0.20130393D-15 -0.30382737D-15
 -0.41625290D-15 -0.48103435D-15 -0.40424929D-15 -0.17756400D-15 -0.20295272D-16
  0.27353245D-18 -0.17012954D-18 -0.83686686D-20  0.70337944D-16  0.13155976D-15
  0.22778861D-15  0.36987546D-15  0.56804228D-15  0.80788652D-15  0.10279058D-14
  0.10652723D-14  0.71088176D-15 -0.70012790D-16 -0.53478363D-15 -0.27458951D-15
  0.12044762D-17 -0.28086701D-16 -0.52486210D-16 -0.91012949D-16 -0.14758723D-15
 -0.22748994D-15 -0.32370576D-15 -0.41683510D-15 -0.43819870D-15 -0.30719073D-15
  0.35667592D-16  0.28875182D-15  0.27175470D-15 -0.13252369D-15  0.36662548D-17
 -0.13811798D-15 -0.27541577D-16  0.44467934D-01  0.58172545D-01  0.63642802D-01
  0.52424023D-01  0.28029929D-01  0.77449413D-02 -0.63481805D-05 -0.16009782D+00
 -0.20943851D+00 -0.22913306D+00 -0.18874211D+00 -0.10091610D+00 -0.27884098D-01
  0.22855343D-04  0.85411414D-15  0.11173443D-14  0.12224138D-14  0.10069300D-14
  0.53838252D-15  0.14876031D-15 -0.12193215D-18  0.46115837D+00  0.61076102D+00
  0.67472685D+00  0.57790561D+00  0.31526938D+00  0.96905541D-01 -0.42189279D-01
 -0.16672866D+01 -0.22081648D+01 -0.24394289D+01 -0.20893783D+01 -0.11398349D+01
 -0.35035537D+00  0.15253246D+00 -0.21346398D-14 -0.28271303D-14 -0.31232195D-14
 -0.26750470D-14 -0.14593394D-14 -0.44856266D-15  0.19528848D-15 -0.46639511D-01
  0.16852930D+00  0.24836252D-15 -0.88621914D-02  0.31996890D-01 -0.68967699D-16
 -0.20172752D-03  0.72835812D-03  0.61576286D-18 -0.23192475D-17 -0.84976000D-17
  0.10816847D-16  0.24530848D-17  0.54074631D-03 -0.19525987D-02  0.98543676D-16
 -0.30057417D-17 -0.95537934D-16 -0.10485501D-15  0.31354759D-02 -0.11564591D-01
 -0.53574329D-17 -0.97299722D-17  0.15087405D-16 -0.55595159D-17  0.85801418D-04
 -0.30188469D-03 -0.15457622D-02 -0.18885965D-02  0.15876593D-16  0.49833880D-02
  0.43348543D-02 -0.49910950D-16 -0.34610152D-03  0.13309353D-02  0.22811696D-17
  0.49180557D-16 -0.10814067D-03 -0.96755215D-04 -0.17873046D-16  0.31934126D-03
  0.31525672D-03  0.27573646D-16  0.50807466D-05 -0.24991080D-04  0.26045491D-16
  0.71997603D-17  0.26559426D-16  0.47901019D-16  0.70630024D-16 -0.43674263D-15
  0.95946164D-16  0.37007865D-16 -0.33393075D-02  0.12033389D-01  0.78413006D-16
 -0.31853385D-02  0.11529037D-01  0.34811155D-16 -0.82048415D-04  0.31621470D-03
  0.17584175D-15  0.24085638D-15 -0.31956879D-16 -0.20889950D-15  0.14755562D-15
 -0.19599478D-02  0.70752316D-02 -0.26138608D-16 -0.48976137D-16  0.75114745D-16
 -0.51384440D-16 -0.38781133D-03  0.14038287D-02
END DATA
RHF
