 Molden2AIM, Version 4.0.0 (06/02/2016)           Time: Sun Jul  1 16:13:06 2018
GAUSSIAN              6 MOL ORBITALS    150 PRIMITIVES        2 NUCLEI
  C    1    (CENTRE  1)   0.00000000  0.00000000  2.77888762  CHARGE =  6.0
  B    2    (CENTRE  2)   0.00000000  0.00000000  0.17645507  CHARGE =  5.0
CENTRE ASSIGNMENTS    1  1  1  1  1  1  1  1  1  1  1  1  1  1  1  1  1  1  1  1
CENTRE ASSIGNMENTS    1  1  1  1  1  1  1  1  1  1  1  1  1  1  1  1  1  1  1  1
CENTRE ASSIGNMENTS    1  1  1  1  1  1  1  1  1  1  1  1  1  1  1  1  1  1  1  1
CENTRE ASSIGNMENTS    1  1  1  1  1  1  1  1  1  1  1  1  1  1  1  2  2  2  2  2
CENTRE ASSIGNMENTS    2  2  2  2  2  2  2  2  2  2  2  2  2  2  2  2  2  2  2  2
CENTRE ASSIGNMENTS    2  2  2  2  2  2  2  2  2  2  2  2  2  2  2  2  2  2  2  2
CENTRE ASSIGNMENTS    2  2  2  2  2  2  2  2  2  2  2  2  2  2  2  2  2  2  2  2
CENTRE ASSIGNMENTS    2  2  2  2  2  2  2  2  2  2
TYPE ASSIGNMENTS      1  1  1  1  1  1  1  1  1  1  1  1  1  1  1  1  1  1  1  2
TYPE ASSIGNMENTS      2  2  3  3  3  4  4  4  2  3  4  2  3  4  2  3  4  5  6  7
TYPE ASSIGNMENTS      8  9 10  5  6  7  8  9 10  5  6  7  8  9 10 11 12 13 17 14
TYPE ASSIGNMENTS     15 18 19 16 20 11 12 13 17 14 15 18 19 16 20  1  1  1  1  1
TYPE ASSIGNMENTS      1  1  1  1  1  1  1  1  1  1  1  1  1  1  2  2  2  3  3  3
TYPE ASSIGNMENTS      4  4  4  2  3  4  2  3  4  2  3  4  5  6  7  8  9 10  5  6
TYPE ASSIGNMENTS      7  8  9 10  5  6  7  8  9 10 11 12 13 17 14 15 18 19 16 20
TYPE ASSIGNMENTS     11 12 13 17 14 15 18 19 16 20
EXPONENTS  0.8236000D+04 0.1235000D+04 0.2808000D+03 0.7927000D+02 0.2559000D+02
EXPONENTS  0.8997000D+01 0.3319000D+01 0.3643000D+00 0.8236000D+04 0.1235000D+04
EXPONENTS  0.2808000D+03 0.7927000D+02 0.2559000D+02 0.8997000D+01 0.3319000D+01
EXPONENTS  0.3643000D+00 0.9059000D+00 0.1285000D+00 0.4402000D-01 0.1871000D+02
EXPONENTS  0.4133000D+01 0.1200000D+01 0.1871000D+02 0.4133000D+01 0.1200000D+01
EXPONENTS  0.1871000D+02 0.4133000D+01 0.1200000D+01 0.3827000D+00 0.3827000D+00
EXPONENTS  0.3827000D+00 0.1209000D+00 0.1209000D+00 0.1209000D+00 0.3569000D-01
EXPONENTS  0.3569000D-01 0.3569000D-01 0.1097000D+01 0.1097000D+01 0.1097000D+01
EXPONENTS  0.1097000D+01 0.1097000D+01 0.1097000D+01 0.3180000D+00 0.3180000D+00
EXPONENTS  0.3180000D+00 0.3180000D+00 0.3180000D+00 0.3180000D+00 0.1000000D+00
EXPONENTS  0.1000000D+00 0.1000000D+00 0.1000000D+00 0.1000000D+00 0.1000000D+00
EXPONENTS  0.7610000D+00 0.7610000D+00 0.7610000D+00 0.7610000D+00 0.7610000D+00
EXPONENTS  0.7610000D+00 0.7610000D+00 0.7610000D+00 0.7610000D+00 0.7610000D+00
EXPONENTS  0.2680000D+00 0.2680000D+00 0.2680000D+00 0.2680000D+00 0.2680000D+00
EXPONENTS  0.2680000D+00 0.2680000D+00 0.2680000D+00 0.2680000D+00 0.2680000D+00
EXPONENTS  0.5473000D+04 0.8209000D+03 0.1868000D+03 0.5283000D+02 0.1708000D+02
EXPONENTS  0.5999000D+01 0.2208000D+01 0.2415000D+00 0.5473000D+04 0.8209000D+03
EXPONENTS  0.1868000D+03 0.5283000D+02 0.1708000D+02 0.5999000D+01 0.2208000D+01
EXPONENTS  0.2415000D+00 0.5879000D+00 0.8610000D-01 0.2914000D-01 0.1205000D+02
EXPONENTS  0.2613000D+01 0.7475000D+00 0.1205000D+02 0.2613000D+01 0.7475000D+00
EXPONENTS  0.1205000D+02 0.2613000D+01 0.7475000D+00 0.2385000D+00 0.2385000D+00
EXPONENTS  0.2385000D+00 0.7698000D-01 0.7698000D-01 0.7698000D-01 0.2096000D-01
EXPONENTS  0.2096000D-01 0.2096000D-01 0.6610000D+00 0.6610000D+00 0.6610000D+00
EXPONENTS  0.6610000D+00 0.6610000D+00 0.6610000D+00 0.1990000D+00 0.1990000D+00
EXPONENTS  0.1990000D+00 0.1990000D+00 0.1990000D+00 0.1990000D+00 0.6040000D-01
EXPONENTS  0.6040000D-01 0.6040000D-01 0.6040000D-01 0.6040000D-01 0.6040000D-01
EXPONENTS  0.4900000D+00 0.4900000D+00 0.4900000D+00 0.4900000D+00 0.4900000D+00
EXPONENTS  0.4900000D+00 0.4900000D+00 0.4900000D+00 0.4900000D+00 0.4900000D+00
EXPONENTS  0.1630000D+00 0.1630000D+00 0.1630000D+00 0.1630000D+00 0.1630000D+00
EXPONENTS  0.1630000D+00 0.1630000D+00 0.1630000D+00 0.1630000D+00 0.1630000D+00
MO    1     MO 0.0        OCC NO =    2.0000000  ORB. ENERGY =  -10.363540
  0.32685942D+00  0.60934027D+00  0.10298924D+01  0.15482656D+01  0.19022232D+01
  0.16067316D+01  0.60600004D+00 -0.29991280D-02 -0.50656927D-03 -0.94845751D-03
 -0.16148301D-02 -0.24978966D-02 -0.32896419D-02 -0.34181487D-02 -0.21720800D-02
  0.14556775D-02  0.30575353D-01  0.27582642D-02  0.12867500D-03 -0.31872286D-03
 -0.29882294D-03 -0.21277974D-03  0.42201443D-03  0.39566535D-03  0.28173730D-03
 -0.13196314D-02 -0.12372384D-02 -0.88098742D-03  0.51429057D-04 -0.68096165D-04
 -0.21889774D-02 -0.41853214D-05  0.55416447D-05  0.22454762D-04 -0.38400613D-07
  0.50843842D-07  0.26085816D-04 -0.10443541D-02 -0.10388139D-02  0.20831680D-02
 -0.19483869D-04 -0.11719182D-04  0.15516276D-04 -0.33154654D-05 -0.73775270D-05
  0.10692992D-04  0.14282369D-04  0.12552856D-04 -0.16620825D-04  0.30167739D-04
  0.30171137D-04 -0.60338876D-04 -0.11941946D-07  0.22044892D-07 -0.29182352D-07
 -0.60164191D-05  0.77927274D-05 -0.38648024D-03 -0.52749204D-05  0.75047911D-05
  0.58024038D-03  0.23324178D-04 -0.30882973D-04  0.57920035D-03  0.36583756D-05
  0.11568863D-06 -0.16045387D-06  0.69954784D-04  0.14674378D-06 -0.17245924D-06
 -0.10524577D-03 -0.49380967D-06  0.65382084D-06 -0.10461859D-03 -0.22053100D-05
 -0.29707847D-03 -0.55358627D-03 -0.93294598D-03 -0.13919477D-02 -0.16860373D-02
 -0.14029086D-02 -0.52104756D-03  0.27661319D-05  0.21087591D-03  0.39389211D-03
  0.67040636D-03  0.10253125D-02  0.13334798D-02  0.13497838D-02  0.88876420D-03
 -0.60751937D-03  0.85114804D-03 -0.13817333D-02 -0.92875772D-04 -0.24794034D-04
 -0.22345756D-04 -0.16224468D-04  0.32829242D-04  0.29587530D-04  0.21482466D-04
  0.67612685D-03  0.60936295D-03  0.44243702D-03 -0.95893053D-05  0.12697087D-04
 -0.17882895D-02  0.14031876D-05 -0.18579084D-05 -0.54460473D-03  0.41831940D-08
 -0.55385752D-08 -0.60370698D-05  0.55462662D-03  0.55302798D-03 -0.11076546D-02
  0.56207780D-05 -0.50139875D-04  0.66389112D-04  0.24058001D-03  0.24094601D-03
 -0.48152602D-03 -0.12869461D-05 -0.47053333D-05  0.62302835D-05  0.14356249D-04
  0.14348774D-04 -0.28705022D-04  0.26282298D-07  0.36481273D-06 -0.48303817D-06
  0.66959478D-05 -0.88439393D-05 -0.45555241D-03  0.66018976D-05 -0.88074772D-05
  0.68378534D-03 -0.26689741D-04  0.35339295D-04  0.68287188D-03  0.32116810D-05
  0.64815556D-07 -0.87211122D-07 -0.24755055D-04  0.70748649D-07 -0.89513112D-07
  0.37016426D-04 -0.26519532D-06  0.35114648D-06  0.37248740D-04 -0.81685207D-06
MO    2     MO 0.0        OCC NO =    2.0000000  ORB. ENERGY =   -6.856602
  0.57485595D-03  0.10716622D-02  0.18112979D-02  0.27229740D-02  0.33454882D-02
  0.28257996D-02  0.10657876D-02 -0.52746425D-05 -0.25107409D-03 -0.47008992D-03
 -0.80036831D-03 -0.12380481D-02 -0.16304658D-02 -0.16941584D-02 -0.10765616D-02
  0.72148654D-03 -0.12972883D-03  0.49875734D-02  0.13035817D-02  0.55529723D-04
  0.52062645D-04  0.37071705D-04 -0.73525808D-04 -0.68935119D-04 -0.49085911D-04
  0.10244492D-02  0.96048626D-03  0.68392344D-03  0.92206065D-04 -0.12208800D-03
 -0.26443422D-02  0.57561120D-04 -0.76215264D-04 -0.16918592D-02  0.25541555D-05
 -0.33818930D-05 -0.83512154D-04 -0.91651821D-04 -0.87192129D-04  0.17884395D-03
 -0.15679983D-04 -0.49960033D-04  0.66151158D-04 -0.44442220D-03 -0.44359533D-03
  0.88801753D-03 -0.29072091D-05 -0.95981862D-04  0.12708740D-03 -0.40115995D-04
 -0.40173919D-04  0.80289914D-04  0.20364775D-06 -0.11074012D-04  0.14662825D-04
 -0.83581782D-05  0.10931607D-04  0.16595508D-03 -0.77801393D-05  0.10707602D-04
 -0.24620394D-03  0.32854674D-04 -0.43502423D-04 -0.25166128D-03  0.19187447D-04
 -0.44029318D-05  0.58272219D-05 -0.97530428D-04 -0.43918221D-05  0.58229133D-05
  0.14637026D-03  0.17600618D-04 -0.23304579D-04  0.14622102D-03  0.52469545D-06
 -0.25181085D+00 -0.46923302D+00 -0.79078743D+00 -0.11798483D+01 -0.14291257D+01
 -0.11891391D+01 -0.44165243D+00  0.23446399D-02  0.86950924D-03  0.16241439D-02
  0.27643011D-02  0.42276935D-02  0.54983663D-02  0.55655930D-02  0.36646608D-02
 -0.25049979D-02 -0.22366936D-01 -0.42839585D-02 -0.35121839D-03  0.54837688D-03
  0.49422761D-03  0.35884129D-03 -0.72609200D-03 -0.65439431D-03 -0.47513271D-03
  0.89769288D-03  0.80905053D-03  0.58742315D-03 -0.14618871D-03  0.19356494D-03
 -0.32312613D-02 -0.18740024D-04  0.24813194D-04 -0.67991518D-03 -0.60182076D-06
  0.79685549D-06 -0.98935439D-05  0.81788400D-03  0.81439082D-03 -0.16322748D-02
  0.12279933D-04 -0.43539073D-04  0.57649527D-04  0.18489678D-03  0.18616431D-03
 -0.37106109D-03 -0.44564645D-05 -0.44886326D-04  0.59432870D-04  0.74753498D-05
  0.74615239D-05 -0.14936874D-04  0.48608201D-07 -0.27206815D-05  0.36023858D-05
  0.12366384D-04 -0.16170534D-04 -0.35954724D-03  0.11497228D-04 -0.15833837D-04
  0.54015674D-03 -0.48596380D-04  0.64345437D-04  0.53848498D-03  0.58774490D-05
  0.12535121D-05 -0.16600182D-05 -0.23278920D-05  0.12546805D-05 -0.16604647D-05
  0.34404562D-05 -0.50152167D-05  0.66405193D-05  0.35432197D-05 -0.36129051D-06
MO    3     MO 0.0        OCC NO =    2.0000000  ORB. ENERGY =   -0.478553
 -0.71297613D-02 -0.13291496D-01 -0.22464970D-01 -0.33772208D-01 -0.41493060D-01
 -0.35047522D-01 -0.13218636D-01  0.65419767D-04 -0.52569714D-01 -0.98427091D-01
 -0.16758054D+00 -0.25922162D+00 -0.34138575D+00 -0.35472166D+00 -0.22540969D+00
  0.15106434D+00  0.69649167D-01  0.22536364D-01 -0.32463026D-02 -0.94288024D-02
 -0.88401016D-02 -0.62946789D-02  0.12484480D-01  0.11704993D-01  0.83346525D-02
 -0.19077228D+00 -0.17886114D+00 -0.12735979D+00 -0.23308080D-02  0.30861716D-02
 -0.35093338D-01 -0.15749124D-03  0.20853072D-03  0.59029970D-02  0.62450327D-05
 -0.82688784D-05  0.56652738D-03 -0.10586559D-01 -0.10326432D-01  0.20912991D-01
 -0.91457484D-03 -0.98498786D-03  0.13041984D-02 -0.32546119D-03 -0.24701760D-03
  0.57247879D-03 -0.27580323D-03 -0.28936889D-03  0.38314808D-03  0.36251830D-03
  0.35721481D-03 -0.71973311D-03  0.18646710D-04  0.31702586D-04 -0.41976607D-04
 -0.24410362D-03  0.33620232D-03 -0.26329852D-02 -0.29959316D-03  0.35771349D-03
  0.40415464D-02  0.10319040D-02 -0.13663204D-02  0.38574093D-02  0.64740656D-03
 -0.73931795D-05  0.89043649D-05  0.13592249D-03 -0.36136585D-05  0.74393150D-05
 -0.19432351D-03  0.25793197D-04 -0.34152410D-04 -0.21344395D-03  0.67226881D-04
 -0.61575006D-02 -0.11474099D-01 -0.19337031D-01 -0.28850691D-01 -0.34946240D-01
 -0.29077876D-01 -0.10799674D-01  0.57333199D-04 -0.26517356D-01 -0.49531391D-01
 -0.84302678D-01 -0.12893164D+00 -0.16768325D+00 -0.16973346D+00 -0.11176088D+00
  0.76394726D-01  0.29155215D-01  0.17775950D-01  0.91500782D-03 -0.45798742D-02
 -0.41276362D-02 -0.29969316D-02  0.60641137D-02  0.54653150D-02  0.39681731D-02
  0.14405117D+00  0.12982689D+00  0.94262744D-01 -0.14672238D-02  0.19427201D-02
  0.25247536D-01 -0.72976899D-04  0.96627413D-04  0.20872613D-03 -0.25864643D-06
  0.34248071D-06 -0.40855550D-04 -0.91624804D-02 -0.90816318D-02  0.18244112D-01
 -0.28426418D-03 -0.60679118D-03  0.80343915D-03 -0.76443539D-04 -0.80987467D-04
  0.15743101D-03  0.15976530D-04 -0.35168130D-03  0.46565376D-03  0.76065474D-04
  0.74770970D-04 -0.15083644D-03  0.45514631D-05 -0.13613860D-04  0.18025830D-04
 -0.38666401D-04  0.53557839D-04  0.22943039D-02 -0.48747580D-04  0.57463791D-04
 -0.34829258D-02  0.16474678D-03 -0.21813731D-03 -0.33999858D-02 -0.29161477D-03
  0.81665584D-05 -0.11567302D-04 -0.22844921D-03  0.11387529D-04 -0.12815572D-04
  0.34374912D-03 -0.35887204D-04  0.47517479D-04  0.34159851D-03  0.75615572D-05
MO    4     MO 0.0        OCC NO =    2.0000000  ORB. ENERGY =   -0.115551
 -0.71874891D-03 -0.13399114D-02 -0.22646863D-02 -0.34045653D-02 -0.41829019D-02
 -0.35331293D-02 -0.13325664D-02  0.65949454D-05 -0.32738696D-01 -0.61297169D-01
 -0.10436367D+00 -0.16143474D+00 -0.21260387D+00 -0.22090904D+00 -0.14037778D+00
  0.94077921D-01  0.44553302D-01  0.51348584D-01  0.76429591D-02  0.37263684D-01
  0.34937073D-01  0.24877277D-01 -0.49340035D-01 -0.46259419D-01 -0.32939462D-01
  0.36634690D+00  0.34347351D+00  0.24457360D+00  0.85043353D-02 -0.11260407D-01
  0.90013475D-01  0.14628693D-02 -0.19369538D-02  0.12393215D-01  0.74374031D-04
 -0.98477057D-04  0.62132760D-03  0.59720034D-02  0.61437292D-02 -0.12115733D-01
 -0.60376264D-03 -0.47142563D-02  0.62420415D-02  0.73423735D-04  0.15540859D-03
 -0.22883233D-03 -0.28825458D-03 -0.11212199D-02  0.14845822D-02 -0.99797074D-04
 -0.98628364D-04  0.19842544D-03 -0.41091487D-05 -0.74588302D-04  0.98760732D-04
  0.24316498D-03 -0.35780930D-03  0.16144506D-02  0.39624095D-03 -0.41713343D-03
 -0.24646964D-02 -0.11257359D-02  0.14905613D-02 -0.23786554D-02 -0.30251741D-03
  0.14975847D-04 -0.29065719D-04 -0.36891951D-04  0.54427109D-04 -0.44356103D-04
  0.58953968D-04 -0.99354649D-04  0.13155326D-03  0.51721885D-04  0.25427866D-04
  0.28606863D-02  0.53307016D-02  0.89837066D-02  0.13403616D-01  0.16235521D-01
  0.13509163D-01  0.50173734D-02 -0.26636181D-04  0.33039260D-01  0.61713563D-01
  0.10503680D+00  0.16064219D+00  0.20892470D+00  0.21147915D+00  0.13924830D+00
 -0.95183895D-01 -0.35604213D-01 -0.37722075D-01 -0.30321364D-02  0.12008554D-01
  0.10822774D-01  0.78580356D-02 -0.15900264D-01 -0.14330198D-01 -0.10404653D-01
  0.35386509D-01  0.31892281D-01  0.23155864D-01  0.36182854D-02 -0.47908915D-02
  0.14858403D-01  0.37557282D-03 -0.49728770D-03  0.37712488D-02  0.38562120D-05
 -0.51059499D-05  0.10013781D-03  0.18062526D-02  0.16005701D-02 -0.34068227D-02
  0.72317338D-03  0.62282265D-03 -0.82466666D-03 -0.32888750D-04 -0.98494893D-04
  0.13138364D-03  0.23066804D-03 -0.13604765D-03  0.18013788D-03 -0.64099501D-05
 -0.77817464D-05  0.14191696D-04  0.48231364D-05 -0.12684911D-04  0.16795799D-04
 -0.16843927D-03  0.21765022D-03 -0.58640449D-03 -0.14547641D-03  0.20875156D-03
  0.89048838D-03  0.65079424D-03 -0.86170221D-03  0.86872509D-03  0.76518992D-04
  0.13681158D-05 -0.43796119D-06  0.90387659D-04 -0.44984803D-05  0.18357248D-05
 -0.12972218D-03  0.39413290D-06 -0.52184118D-06 -0.14144080D-03  0.41202219D-04
MO    5     MO 0.0        OCC NO =    2.0000000  ORB. ENERGY =   -0.049617
  0.18559450D-09  0.34599034D-09  0.58478462D-09  0.87912284D-09  0.10801040D-08
  0.91232048D-09  0.34409372D-09 -0.17029390D-11 -0.30477526D-09 -0.57063545D-09
 -0.97155568D-09 -0.15028489D-08 -0.19791991D-08 -0.20565147D-08 -0.13068228D-08
  0.87580223D-09 -0.91177348D-10 -0.14234449D-08  0.66923017D-09 -0.40545290D+00
 -0.38013787D+00 -0.27068081D+00 -0.30621507D+00 -0.28709609D+00 -0.20442952D+00
 -0.63883432D-07 -0.59894779D-07 -0.42648650D-07 -0.10341311D+00 -0.78101929D-01
 -0.14921781D-07 -0.18301803D-01 -0.13822292D-01 -0.23143631D-08 -0.12638261D-02
 -0.95449458D-03 -0.20838929D-09  0.80006239D-03 -0.80006290D-03  0.51369930D-09
 -0.45510642D-03  0.33605956D-01  0.25380629D-01  0.46953919D-03 -0.46953876D-03
 -0.43542529D-09 -0.26709032D-03  0.49249399D-02  0.37195229D-02  0.10245982D-03
 -0.10245969D-03 -0.12771568D-09 -0.58282696D-04  0.90178829D-05  0.68108095D-05
  0.22407080D-02  0.14424458D-02 -0.66759716D-09  0.27883237D-02  0.28553528D-02
  0.26418589D-02 -0.95104478D-02 -0.71826901D-02 -0.26418569D-02 -0.15027811D-02
 -0.17310680D-04 -0.50305738D-04  0.99259334D-11  0.64296129D-04  0.16025541D-03
  0.10001166D-03 -0.12364088D-04 -0.93381915D-05 -0.10001169D-03 -0.56890333D-04
 -0.28178249D-10 -0.52508322D-10 -0.88491045D-10 -0.13202791D-09 -0.15992266D-09
 -0.13306757D-09 -0.49421986D-10  0.26237093D-12  0.22662973D-08  0.42331845D-08
  0.72049013D-08  0.11019101D-07  0.14330995D-07  0.14506216D-07  0.95516074D-08
 -0.65290507D-08 -0.16156978D-08 -0.63352976D-08 -0.18374646D-08 -0.19035959D+00
 -0.17156261D+00 -0.12456558D+00 -0.14376757D+00 -0.12957129D+00 -0.94077161D-01
  0.46335808D-07  0.41760396D-07  0.30320755D-07 -0.46934899D-01 -0.35447207D-01
  0.10162231D-07 -0.71642700D-02 -0.54107576D-02  0.12991472D-08 -0.27231868D-03
 -0.20566660D-03  0.47150273D-10  0.82849664D-03 -0.82849824D-03  0.16000304D-08
 -0.47127586D-03 -0.22571374D-01 -0.17046848D-01  0.32472529D-03 -0.32472493D-03
 -0.36540587D-09 -0.18471519D-03 -0.22487495D-02 -0.16983488D-02  0.47326822D-04
 -0.47326773D-04 -0.48246814D-10 -0.26921217D-04  0.69229961D-04  0.52285479D-04
  0.12140727D-02  0.83151736D-03  0.46009562D-09  0.14012556D-02  0.13144910D-02
 -0.87770782D-03 -0.50434737D-02 -0.38090431D-02  0.87770644D-03  0.49927278D-03
 -0.25076321D-05 -0.10465272D-04 -0.37763626D-10  0.16279988D-04  0.38009417D-04
 -0.11852534D-04 -0.87570918D-05 -0.66136012D-05  0.11852647D-04  0.67421424D-05
MO    6     MO 0.0        OCC NO =    2.0000000  ORB. ENERGY =   -0.046617
  0.27803111D-03  0.51831320D-03  0.87604062D-03  0.13169760D-02  0.16180572D-02
  0.13667080D-02  0.51547196D-03 -0.25510995D-05  0.54421113D-03  0.10189349D-02
  0.17348239D-02  0.26835088D-02  0.35340867D-02  0.36721425D-02  0.23334817D-02
 -0.15638452D-02 -0.21196627D-02  0.49879155D-02 -0.59373839D-03  0.27108208D+00
  0.25415668D+00  0.18097470D+00 -0.35893409D+00 -0.33652353D+00 -0.23962480D+00
  0.18068053D+00  0.16939948D+00  0.12062252D+00  0.69287837D-01 -0.91742574D-01
  0.39942734D-01  0.12302981D-01 -0.16290120D-01  0.54244992D-02  0.83856022D-03
 -0.11103200D-02  0.59197095D-03  0.33808227D-02  0.29508012D-02 -0.63316238D-02
  0.15119567D-02 -0.22840862D-01  0.30243105D-01 -0.28520609D-03 -0.52998456D-03
  0.81519066D-03  0.86063194D-03 -0.37911283D-02  0.50197547D-02 -0.11447558D-03
 -0.16525406D-03  0.27972964D-03  0.17853462D-03 -0.87191788D-04  0.11544896D-03
 -0.16049726D-02  0.18304667D-02  0.17149692D-02 -0.34650922D-03  0.13427377D-02
 -0.19887588D-02  0.51614270D-02 -0.68341379D-02 -0.31561487D-02  0.41044780D-02
 -0.51159117D-04  0.25250847D-04 -0.73648881D-05  0.13031574D-03 -0.45084370D-04
  0.27579142D-04  0.23161613D-04 -0.30668170D-04 -0.54844779D-05  0.11625007D-03
 -0.71830072D-03 -0.13385064D-02 -0.22557534D-02 -0.33655656D-02 -0.40766394D-02
 -0.33920677D-02 -0.12598316D-02  0.66881810D-05 -0.75085566D-02 -0.14025126D-01
 -0.23870835D-01 -0.36507808D-01 -0.47480570D-01 -0.48061100D-01 -0.31645797D-01
  0.21631648D-01  0.56491496D-02  0.18044469D-01  0.56739614D-02  0.12918019D+00
  0.11642434D+00  0.84531619D-01 -0.17104478D+00 -0.15415503D+00 -0.11192655D+00
 -0.13620749D+00 -0.12275774D+00 -0.89130077D-01  0.31556607D-01 -0.41783441D-01
 -0.31911086D-01  0.48162898D-02 -0.63771485D-02 -0.42017658D-02  0.19003081D-03
 -0.25161593D-03 -0.18321705D-03  0.28414693D-02  0.24382685D-02 -0.52797378D-02
  0.14176288D-02  0.15919425D-01 -0.21078573D-01 -0.35018713D-03 -0.49581809D-03
  0.84600522D-03  0.51203246D-03  0.18985596D-02 -0.25138411D-02 -0.70181585D-04
 -0.93520735D-04  0.16370232D-03  0.82059529D-04 -0.17689777D-04  0.23422752D-04
 -0.82988442D-03  0.99666297D-03 -0.12070493D-02 -0.39349467D-03  0.82752670D-03
  0.16166799D-02  0.28831479D-02 -0.38175156D-02  0.20044680D-02 -0.13634483D-02
 -0.11762254D-04  0.48361575D-05  0.80516109D-04  0.34101366D-04 -0.12939029D-04
 -0.12485656D-03  0.11853960D-05 -0.15694435D-05 -0.11669177D-03 -0.28706643D-04
END DATA
RHF
