 Molden2AIM, Version 4.0.0 (06/02/2016)           Time: Sun Jul  1 16:09:10 2018
GAUSSIAN             32 MOL ORBITALS    526 PRIMITIVES        2 NUCLEI
  Ge   1    (CENTRE  1)   0.00000000  0.00000000  2.03873859  CHARGE = 32.0
  Ge   2    (CENTRE  2)   0.00000000  0.00000000 -2.03873859  CHARGE = 32.0
CENTRE ASSIGNMENTS    1  1  1  1  1  1  1  1  1  1  1  1  1  1  1  1  1  1  1  1
CENTRE ASSIGNMENTS    1  1  1  1  1  1  1  1  1  1  1  1  1  1  1  1  1  1  1  1
CENTRE ASSIGNMENTS    1  1  1  1  1  1  1  1  1  1  1  1  1  1  1  1  1  1  1  1
CENTRE ASSIGNMENTS    1  1  1  1  1  1  1  1  1  1  1  1  1  1  1  1  1  1  1  1
CENTRE ASSIGNMENTS    1  1  1  1  1  1  1  1  1  1  1  1  1  1  1  1  1  1  1  1
CENTRE ASSIGNMENTS    1  1  1  1  1  1  1  1  1  1  1  1  1  1  1  1  1  1  1  1
CENTRE ASSIGNMENTS    1  1  1  1  1  1  1  1  1  1  1  1  1  1  1  1  1  1  1  1
CENTRE ASSIGNMENTS    1  1  1  1  1  1  1  1  1  1  1  1  1  1  1  1  1  1  1  1
CENTRE ASSIGNMENTS    1  1  1  1  1  1  1  1  1  1  1  1  1  1  1  1  1  1  1  1
CENTRE ASSIGNMENTS    1  1  1  1  1  1  1  1  1  1  1  1  1  1  1  1  1  1  1  1
CENTRE ASSIGNMENTS    1  1  1  1  1  1  1  1  1  1  1  1  1  1  1  1  1  1  1  1
CENTRE ASSIGNMENTS    1  1  1  1  1  1  1  1  1  1  1  1  1  1  1  1  1  1  1  1
CENTRE ASSIGNMENTS    1  1  1  1  1  1  1  1  1  1  1  1  1  1  1  1  1  1  1  1
CENTRE ASSIGNMENTS    1  1  1  2  2  2  2  2  2  2  2  2  2  2  2  2  2  2  2  2
CENTRE ASSIGNMENTS    2  2  2  2  2  2  2  2  2  2  2  2  2  2  2  2  2  2  2  2
CENTRE ASSIGNMENTS    2  2  2  2  2  2  2  2  2  2  2  2  2  2  2  2  2  2  2  2
CENTRE ASSIGNMENTS    2  2  2  2  2  2  2  2  2  2  2  2  2  2  2  2  2  2  2  2
CENTRE ASSIGNMENTS    2  2  2  2  2  2  2  2  2  2  2  2  2  2  2  2  2  2  2  2
CENTRE ASSIGNMENTS    2  2  2  2  2  2  2  2  2  2  2  2  2  2  2  2  2  2  2  2
CENTRE ASSIGNMENTS    2  2  2  2  2  2  2  2  2  2  2  2  2  2  2  2  2  2  2  2
CENTRE ASSIGNMENTS    2  2  2  2  2  2  2  2  2  2  2  2  2  2  2  2  2  2  2  2
CENTRE ASSIGNMENTS    2  2  2  2  2  2  2  2  2  2  2  2  2  2  2  2  2  2  2  2
CENTRE ASSIGNMENTS    2  2  2  2  2  2  2  2  2  2  2  2  2  2  2  2  2  2  2  2
CENTRE ASSIGNMENTS    2  2  2  2  2  2  2  2  2  2  2  2  2  2  2  2  2  2  2  2
CENTRE ASSIGNMENTS    2  2  2  2  2  2  2  2  2  2  2  2  2  2  2  2  2  2  2  2
CENTRE ASSIGNMENTS    2  2  2  2  2  2  2  2  2  2  2  2  2  2  2  2  2  2  2  2
CENTRE ASSIGNMENTS    2  2  2  2  2  2
TYPE ASSIGNMENTS      1  1  1  1  1  1  1  1  1  1  1  1  1  1  1  1  1  1  1  1
TYPE ASSIGNMENTS      1  1  1  1  1  1  1  1  1  1  1  1  1  1  1  1  1  1  1  1
TYPE ASSIGNMENTS      1  1  1  1  1  1  1  1  1  1  1  1  1  1  1  1  1  1  1  1
TYPE ASSIGNMENTS      1  1  1  1  1  1  1  1  1  1  1  1  1  1  1  2  2  2  2  2
TYPE ASSIGNMENTS      2  2  2  2  2  2  3  3  3  3  3  3  3  3  3  3  3  4  4  4
TYPE ASSIGNMENTS      4  4  4  4  4  4  4  4  2  2  2  2  2  2  2  2  2  2  2  3
TYPE ASSIGNMENTS      3  3  3  3  3  3  3  3  3  3  4  4  4  4  4  4  4  4  4  4
TYPE ASSIGNMENTS      4  2  2  2  2  2  2  2  2  2  2  2  3  3  3  3  3  3  3  3
TYPE ASSIGNMENTS      3  3  3  4  4  4  4  4  4  4  4  4  4  4  2  3  4  2  3  4
TYPE ASSIGNMENTS      2  3  4  5  5  5  5  5  5  5  6  6  6  6  6  6  6  7  7  7
TYPE ASSIGNMENTS      7  7  7  7  8  8  8  8  8  8  8  9  9  9  9  9  9  9 10 10
TYPE ASSIGNMENTS     10 10 10 10 10  5  6  7  8  9 10  5  6  7  8  9 10  5  6  7
TYPE ASSIGNMENTS      8  9 10 11 12 13 17 14 15 18 19 16 20 11 12 13 17 14 15 18
TYPE ASSIGNMENTS     19 16 20  1  1  1  1  1  1  1  1  1  1  1  1  1  1  1  1  1
TYPE ASSIGNMENTS      1  1  1  1  1  1  1  1  1  1  1  1  1  1  1  1  1  1  1  1
TYPE ASSIGNMENTS      1  1  1  1  1  1  1  1  1  1  1  1  1  1  1  1  1  1  1  1
TYPE ASSIGNMENTS      1  1  1  1  1  1  1  1  1  1  1  1  1  1  1  1  1  1  2  2
TYPE ASSIGNMENTS      2  2  2  2  2  2  2  2  2  3  3  3  3  3  3  3  3  3  3  3
TYPE ASSIGNMENTS      4  4  4  4  4  4  4  4  4  4  4  2  2  2  2  2  2  2  2  2
TYPE ASSIGNMENTS      2  2  3  3  3  3  3  3  3  3  3  3  3  4  4  4  4  4  4  4
TYPE ASSIGNMENTS      4  4  4  4  2  2  2  2  2  2  2  2  2  2  2  3  3  3  3  3
TYPE ASSIGNMENTS      3  3  3  3  3  3  4  4  4  4  4  4  4  4  4  4  4  2  3  4
TYPE ASSIGNMENTS      2  3  4  2  3  4  5  5  5  5  5  5  5  6  6  6  6  6  6  6
TYPE ASSIGNMENTS      7  7  7  7  7  7  7  8  8  8  8  8  8  8  9  9  9  9  9  9
TYPE ASSIGNMENTS      9 10 10 10 10 10 10 10  5  6  7  8  9 10  5  6  7  8  9 10
TYPE ASSIGNMENTS      5  6  7  8  9 10 11 12 13 17 14 15 18 19 16 20 11 12 13 17
TYPE ASSIGNMENTS     14 15 18 19 16 20
EXPONENTS  0.7447967D+07 0.1115318D+07 0.2538426D+06 0.7191529D+05 0.2347018D+05
EXPONENTS  0.8477492D+04 0.3308391D+04 0.1372605D+04 0.5982201D+03 0.2713860D+03
EXPONENTS  0.1269780D+03 0.6022207D+02 0.2801858D+02 0.1351752D+02 0.6309406D+01
EXPONENTS  0.2904534D+01 0.1287556D+01 0.1677320D+00 0.7447967D+07 0.1115318D+07
EXPONENTS  0.2538426D+06 0.7191529D+05 0.2347018D+05 0.8477492D+04 0.3308391D+04
EXPONENTS  0.1372605D+04 0.5982201D+03 0.2713860D+03 0.1269780D+03 0.6022207D+02
EXPONENTS  0.2801858D+02 0.1351752D+02 0.6309406D+01 0.2904534D+01 0.1287556D+01
EXPONENTS  0.1677320D+00 0.7447967D+07 0.1115318D+07 0.2538426D+06 0.7191529D+05
EXPONENTS  0.2347018D+05 0.8477492D+04 0.3308391D+04 0.1372605D+04 0.5982201D+03
EXPONENTS  0.2713860D+03 0.1269780D+03 0.6022207D+02 0.2801858D+02 0.1351752D+02
EXPONENTS  0.6309406D+01 0.2904534D+01 0.1287556D+01 0.1677320D+00 0.7447967D+07
EXPONENTS  0.1115318D+07 0.2538426D+06 0.7191529D+05 0.2347018D+05 0.8477492D+04
EXPONENTS  0.3308391D+04 0.1372605D+04 0.5982201D+03 0.2713860D+03 0.1269780D+03
EXPONENTS  0.6022207D+02 0.2801858D+02 0.1351752D+02 0.6309406D+01 0.2904534D+01
EXPONENTS  0.1287556D+01 0.1677320D+00 0.3365520D+00 0.7106900D-01 0.2737000D-01
EXPONENTS  0.6979598D+04 0.1654165D+04 0.5360286D+03 0.2035371D+03 0.8523753D+02
EXPONENTS  0.3784196D+02 0.1740651D+02 0.7881492D+01 0.3533213D+01 0.1521473D+01
EXPONENTS  0.1990930D+00 0.6979598D+04 0.1654165D+04 0.5360286D+03 0.2035371D+03
EXPONENTS  0.8523753D+02 0.3784196D+02 0.1740651D+02 0.7881492D+01 0.3533213D+01
EXPONENTS  0.1521473D+01 0.1990930D+00 0.6979598D+04 0.1654165D+04 0.5360286D+03
EXPONENTS  0.2035371D+03 0.8523753D+02 0.3784196D+02 0.1740651D+02 0.7881492D+01
EXPONENTS  0.3533213D+01 0.1521473D+01 0.1990930D+00 0.6979598D+04 0.1654165D+04
EXPONENTS  0.5360286D+03 0.2035371D+03 0.8523753D+02 0.3784196D+02 0.1740651D+02
EXPONENTS  0.7881492D+01 0.3533213D+01 0.1521473D+01 0.1990930D+00 0.6979598D+04
EXPONENTS  0.1654165D+04 0.5360286D+03 0.2035371D+03 0.8523753D+02 0.3784196D+02
EXPONENTS  0.1740651D+02 0.7881492D+01 0.3533213D+01 0.1521473D+01 0.1990930D+00
EXPONENTS  0.6979598D+04 0.1654165D+04 0.5360286D+03 0.2035371D+03 0.8523753D+02
EXPONENTS  0.3784196D+02 0.1740651D+02 0.7881492D+01 0.3533213D+01 0.1521473D+01
EXPONENTS  0.1990930D+00 0.6979598D+04 0.1654165D+04 0.5360286D+03 0.2035371D+03
EXPONENTS  0.8523753D+02 0.3784196D+02 0.1740651D+02 0.7881492D+01 0.3533213D+01
EXPONENTS  0.1521473D+01 0.1990930D+00 0.6979598D+04 0.1654165D+04 0.5360286D+03
EXPONENTS  0.2035371D+03 0.8523753D+02 0.3784196D+02 0.1740651D+02 0.7881492D+01
EXPONENTS  0.3533213D+01 0.1521473D+01 0.1990930D+00 0.6979598D+04 0.1654165D+04
EXPONENTS  0.5360286D+03 0.2035371D+03 0.8523753D+02 0.3784196D+02 0.1740651D+02
EXPONENTS  0.7881492D+01 0.3533213D+01 0.1521473D+01 0.1990930D+00 0.5627040D+00
EXPONENTS  0.5627040D+00 0.5627040D+00 0.6703100D-01 0.6703100D-01 0.6703100D-01
EXPONENTS  0.2136800D-01 0.2136800D-01 0.2136800D-01 0.2822391D+03 0.8454996D+02
EXPONENTS  0.3207366D+02 0.1349750D+02 0.5958550D+01 0.2610788D+01 0.1103987D+01
EXPONENTS  0.2822391D+03 0.8454996D+02 0.3207366D+02 0.1349750D+02 0.5958550D+01
EXPONENTS  0.2610788D+01 0.1103987D+01 0.2822391D+03 0.8454996D+02 0.3207366D+02
EXPONENTS  0.1349750D+02 0.5958550D+01 0.2610788D+01 0.1103987D+01 0.2822391D+03
EXPONENTS  0.8454996D+02 0.3207366D+02 0.1349750D+02 0.5958550D+01 0.2610788D+01
EXPONENTS  0.1103987D+01 0.2822391D+03 0.8454996D+02 0.3207366D+02 0.1349750D+02
EXPONENTS  0.5958550D+01 0.2610788D+01 0.1103987D+01 0.2822391D+03 0.8454996D+02
EXPONENTS  0.3207366D+02 0.1349750D+02 0.5958550D+01 0.2610788D+01 0.1103987D+01
EXPONENTS  0.4240490D+00 0.4240490D+00 0.4240490D+00 0.4240490D+00 0.4240490D+00
EXPONENTS  0.4240490D+00 0.1520000D+00 0.1520000D+00 0.1520000D+00 0.1520000D+00
EXPONENTS  0.1520000D+00 0.1520000D+00 0.5280000D-01 0.5280000D-01 0.5280000D-01
EXPONENTS  0.5280000D-01 0.5280000D-01 0.5280000D-01 0.3458000D+00 0.3458000D+00
EXPONENTS  0.3458000D+00 0.3458000D+00 0.3458000D+00 0.3458000D+00 0.3458000D+00
EXPONENTS  0.3458000D+00 0.3458000D+00 0.3458000D+00 0.1323000D+00 0.1323000D+00
EXPONENTS  0.1323000D+00 0.1323000D+00 0.1323000D+00 0.1323000D+00 0.1323000D+00
EXPONENTS  0.1323000D+00 0.1323000D+00 0.1323000D+00 0.7447967D+07 0.1115318D+07
EXPONENTS  0.2538426D+06 0.7191529D+05 0.2347018D+05 0.8477492D+04 0.3308391D+04
EXPONENTS  0.1372605D+04 0.5982201D+03 0.2713860D+03 0.1269780D+03 0.6022207D+02
EXPONENTS  0.2801858D+02 0.1351752D+02 0.6309406D+01 0.2904534D+01 0.1287556D+01
EXPONENTS  0.1677320D+00 0.7447967D+07 0.1115318D+07 0.2538426D+06 0.7191529D+05
EXPONENTS  0.2347018D+05 0.8477492D+04 0.3308391D+04 0.1372605D+04 0.5982201D+03
EXPONENTS  0.2713860D+03 0.1269780D+03 0.6022207D+02 0.2801858D+02 0.1351752D+02
EXPONENTS  0.6309406D+01 0.2904534D+01 0.1287556D+01 0.1677320D+00 0.7447967D+07
EXPONENTS  0.1115318D+07 0.2538426D+06 0.7191529D+05 0.2347018D+05 0.8477492D+04
EXPONENTS  0.3308391D+04 0.1372605D+04 0.5982201D+03 0.2713860D+03 0.1269780D+03
EXPONENTS  0.6022207D+02 0.2801858D+02 0.1351752D+02 0.6309406D+01 0.2904534D+01
EXPONENTS  0.1287556D+01 0.1677320D+00 0.7447967D+07 0.1115318D+07 0.2538426D+06
EXPONENTS  0.7191529D+05 0.2347018D+05 0.8477492D+04 0.3308391D+04 0.1372605D+04
EXPONENTS  0.5982201D+03 0.2713860D+03 0.1269780D+03 0.6022207D+02 0.2801858D+02
EXPONENTS  0.1351752D+02 0.6309406D+01 0.2904534D+01 0.1287556D+01 0.1677320D+00
EXPONENTS  0.3365520D+00 0.7106900D-01 0.2737000D-01 0.6979598D+04 0.1654165D+04
EXPONENTS  0.5360286D+03 0.2035371D+03 0.8523753D+02 0.3784196D+02 0.1740651D+02
EXPONENTS  0.7881492D+01 0.3533213D+01 0.1521473D+01 0.1990930D+00 0.6979598D+04
EXPONENTS  0.1654165D+04 0.5360286D+03 0.2035371D+03 0.8523753D+02 0.3784196D+02
EXPONENTS  0.1740651D+02 0.7881492D+01 0.3533213D+01 0.1521473D+01 0.1990930D+00
EXPONENTS  0.6979598D+04 0.1654165D+04 0.5360286D+03 0.2035371D+03 0.8523753D+02
EXPONENTS  0.3784196D+02 0.1740651D+02 0.7881492D+01 0.3533213D+01 0.1521473D+01
EXPONENTS  0.1990930D+00 0.6979598D+04 0.1654165D+04 0.5360286D+03 0.2035371D+03
EXPONENTS  0.8523753D+02 0.3784196D+02 0.1740651D+02 0.7881492D+01 0.3533213D+01
EXPONENTS  0.1521473D+01 0.1990930D+00 0.6979598D+04 0.1654165D+04 0.5360286D+03
EXPONENTS  0.2035371D+03 0.8523753D+02 0.3784196D+02 0.1740651D+02 0.7881492D+01
EXPONENTS  0.3533213D+01 0.1521473D+01 0.1990930D+00 0.6979598D+04 0.1654165D+04
EXPONENTS  0.5360286D+03 0.2035371D+03 0.8523753D+02 0.3784196D+02 0.1740651D+02
EXPONENTS  0.7881492D+01 0.3533213D+01 0.1521473D+01 0.1990930D+00 0.6979598D+04
EXPONENTS  0.1654165D+04 0.5360286D+03 0.2035371D+03 0.8523753D+02 0.3784196D+02
EXPONENTS  0.1740651D+02 0.7881492D+01 0.3533213D+01 0.1521473D+01 0.1990930D+00
EXPONENTS  0.6979598D+04 0.1654165D+04 0.5360286D+03 0.2035371D+03 0.8523753D+02
EXPONENTS  0.3784196D+02 0.1740651D+02 0.7881492D+01 0.3533213D+01 0.1521473D+01
EXPONENTS  0.1990930D+00 0.6979598D+04 0.1654165D+04 0.5360286D+03 0.2035371D+03
EXPONENTS  0.8523753D+02 0.3784196D+02 0.1740651D+02 0.7881492D+01 0.3533213D+01
EXPONENTS  0.1521473D+01 0.1990930D+00 0.5627040D+00 0.5627040D+00 0.5627040D+00
EXPONENTS  0.6703100D-01 0.6703100D-01 0.6703100D-01 0.2136800D-01 0.2136800D-01
EXPONENTS  0.2136800D-01 0.2822391D+03 0.8454996D+02 0.3207366D+02 0.1349750D+02
EXPONENTS  0.5958550D+01 0.2610788D+01 0.1103987D+01 0.2822391D+03 0.8454996D+02
EXPONENTS  0.3207366D+02 0.1349750D+02 0.5958550D+01 0.2610788D+01 0.1103987D+01
EXPONENTS  0.2822391D+03 0.8454996D+02 0.3207366D+02 0.1349750D+02 0.5958550D+01
EXPONENTS  0.2610788D+01 0.1103987D+01 0.2822391D+03 0.8454996D+02 0.3207366D+02
EXPONENTS  0.1349750D+02 0.5958550D+01 0.2610788D+01 0.1103987D+01 0.2822391D+03
EXPONENTS  0.8454996D+02 0.3207366D+02 0.1349750D+02 0.5958550D+01 0.2610788D+01
EXPONENTS  0.1103987D+01 0.2822391D+03 0.8454996D+02 0.3207366D+02 0.1349750D+02
EXPONENTS  0.5958550D+01 0.2610788D+01 0.1103987D+01 0.4240490D+00 0.4240490D+00
EXPONENTS  0.4240490D+00 0.4240490D+00 0.4240490D+00 0.4240490D+00 0.1520000D+00
EXPONENTS  0.1520000D+00 0.1520000D+00 0.1520000D+00 0.1520000D+00 0.1520000D+00
EXPONENTS  0.5280000D-01 0.5280000D-01 0.5280000D-01 0.5280000D-01 0.5280000D-01
EXPONENTS  0.5280000D-01 0.3458000D+00 0.3458000D+00 0.3458000D+00 0.3458000D+00
EXPONENTS  0.3458000D+00 0.3458000D+00 0.3458000D+00 0.3458000D+00 0.3458000D+00
EXPONENTS  0.3458000D+00 0.1323000D+00 0.1323000D+00 0.1323000D+00 0.1323000D+00
EXPONENTS  0.1323000D+00 0.1323000D+00 0.1323000D+00 0.1323000D+00 0.1323000D+00
EXPONENTS  0.1323000D+00
MO    1     MO 0.0        OCC NO =    2.0000000  ORB. ENERGY = -401.154716
  0.74997456D+00  0.14003851D+01  0.24270184D+01  0.39749636D+01  0.62171506D+01
  0.93084265D+01  0.13195791D+02  0.17201557D+02  0.19305588D+02  0.16413083D+02
  0.81885549D+01  0.15224122D+01  0.35768432D-01  0.51852986D-02 -0.13742209D-02
  0.28547696D-03 -0.78362078D-04 -0.49559862D-05  0.44085326D-04  0.82592393D-04
  0.14291875D-03  0.23403859D-03  0.36774017D-03  0.55439944D-03  0.80436995D-03
  0.10968877D-02  0.13687690D-02  0.14281990D-02  0.10342937D-02  0.73069680D-04
 -0.74907977D-03 -0.52810112D-03 -0.74772652D-04 -0.67735696D-06 -0.34007092D-06
 -0.11561285D-07 -0.35220360D-04 -0.65001169D-04 -0.11237120D-03 -0.18418839D-03
 -0.28954720D-03 -0.43694835D-03 -0.63563443D-03 -0.87201179D-03 -0.11023609D-02
 -0.11830907D-02 -0.90283583D-03 -0.70462014D-04  0.91075137D-03  0.96781401D-03
 -0.11862062D-04 -0.44071221D-03 -0.15942639D-03  0.73594918D-06  0.12653371D-04
  0.27413819D-04  0.46671777D-04  0.76392358D-04  0.11999269D-03  0.18116923D-03
  0.26353985D-03  0.36200599D-03  0.45818725D-03  0.49404719D-03  0.37921155D-03
  0.30839344D-04 -0.40261288D-03 -0.45059220D-03  0.14276813D-04  0.26698580D-03
  0.18245538D-03 -0.72002343D-04  0.69491015D-04  0.21329691D-04 -0.18694087D-05
  0.89464924D-06  0.12809888D-05  0.16873287D-05  0.19318834D-05  0.17677247D-05
  0.11251359D-05  0.38853838D-06  0.43382498D-07  0.54924300D-09  0.99679238D-10
  0.78250246D-12  0.19026749D-05  0.27243137D-05  0.35884879D-05  0.41085891D-05
  0.37594683D-05  0.23928572D-05  0.82631516D-06  0.92262740D-07  0.11680901D-08
  0.21199055D-09  0.16641693D-11  0.73311992D-04  0.10497057D-03  0.13826807D-03
  0.15830810D-03  0.14485612D-03  0.92199213D-04  0.31838760D-04  0.35549769D-05
  0.45007694D-07  0.81682107D-08  0.64122129D-10  0.19774155D-06  0.28499825D-06
  0.37853542D-06  0.44608070D-06  0.42592377D-06  0.29084638D-06  0.92124491D-07
 -0.43425358D-07 -0.45017840D-07 -0.11844048D-07  0.78589564D-11  0.42077025D-06
  0.60644202D-06  0.80547789D-06  0.94920612D-06  0.90631459D-06  0.61888615D-06
  0.19602985D-06 -0.92403943D-07 -0.95792554D-07 -0.25202711D-07  0.16722915D-10
 -0.83221076D-03 -0.11994374D-02 -0.15930959D-02 -0.18773655D-02 -0.17925335D-02
 -0.12240497D-02 -0.38771312D-03  0.18275901D-03  0.18946110D-03  0.49846603D-04
 -0.33075032D-07 -0.38144504D-07 -0.54630027D-07 -0.73061964D-07 -0.85834589D-07
 -0.82939148D-07 -0.56540516D-07 -0.18075387D-07  0.10719844D-07  0.10402407D-07
  0.35153436D-08 -0.13149512D-08 -0.81214825D-07 -0.11631474D-06 -0.15555884D-06
 -0.18275349D-06 -0.17658870D-06 -0.12038243D-06 -0.38484953D-07  0.22824002D-07
  0.22148135D-07  0.74846436D-08 -0.27997096D-08  0.59690827D-03  0.85488371D-03
  0.11433178D-02  0.13431916D-02  0.12978820D-02  0.88478021D-03  0.28285460D-03
 -0.16775060D-03 -0.16278315D-03 -0.55010224D-04  0.20577152D-04  0.47325045D-08
  0.10076659D-07 -0.11975344D-04 -0.16721930D-09 -0.35578485D-09 -0.50219013D-05
 -0.65914859D-11 -0.14032923D-10 -0.21814586D-07 -0.82629416D-04 -0.83116502D-04
 -0.66420715D-04 -0.40675507D-04 -0.17065128D-04 -0.46525748D-05 -0.76118454D-06
 -0.63208343D-04 -0.63580944D-04 -0.50809306D-04 -0.31115207D-04 -0.13054170D-04
 -0.35590417D-05 -0.58227705D-06  0.14583776D-03  0.14669745D-03  0.11723002D-03
  0.71790714D-04  0.30119298D-04  0.82116165D-05  0.13434616D-05  0.23434866D-04
  0.23573010D-04  0.18837850D-04  0.11536146D-04  0.48399105D-05  0.13195357D-05
  0.21588265D-06  0.35951906D-06  0.36163836D-06  0.28899530D-06  0.17697838D-06
  0.74250055D-07  0.20243267D-07  0.33118998D-08  0.76484029D-06  0.76934889D-06
  0.61480816D-06  0.37650353D-06  0.15795945D-06  0.43065494D-07  0.70457305D-08
  0.34036715D-05  0.33174990D-05 -0.67211706D-05 -0.10398114D-06 -0.19460924D-08
 -0.41401832D-08  0.33240001D-06  0.33903254D-06 -0.67143256D-06  0.80032410D-08
  0.59300946D-09  0.12620981D-08 -0.21440053D-06 -0.21474738D-06  0.42914792D-06
 -0.41853039D-09  0.18217024D-10  0.38766520D-10  0.11450775D-10  0.23946140D-10
  0.16489990D-05  0.10650792D-10  0.24141021D-10 -0.24752339D-05 -0.45003118D-10
 -0.95979440D-10 -0.24717630D-05  0.41883706D-08  0.18885478D-10  0.40124833D-10
 -0.14866329D-06  0.18772227D-10  0.40154577D-10  0.22329034D-06 -0.75428662D-10
 -0.16052908D-09  0.22269953D-06 -0.71291855D-09 -0.53872634D-01 -0.10059333D+00
 -0.17433908D+00 -0.28553203D+00 -0.44659419D+00 -0.66864863D+00 -0.94788817D+00
 -0.12356329D+01 -0.13867709D+01 -0.11789947D+01 -0.58820532D+00 -0.10935885D+00
 -0.25693401D-02 -0.37247357D-03  0.98713881D-04 -0.20506557D-04  0.56289531D-05
  0.35600146D-06 -0.60837601D-05 -0.11397722D-04 -0.19722740D-04 -0.32297246D-04
 -0.50748019D-04 -0.76506935D-04 -0.11100278D-03 -0.15137013D-03 -0.18888965D-03
 -0.19709098D-03 -0.14273219D-03 -0.10083591D-04  0.10337275D-03  0.72877776D-04
  0.10318601D-04  0.93475031D-07  0.46929671D-07  0.15954534D-08  0.69012144D-05
  0.12736582D-04  0.22018449D-04  0.36090589D-04  0.56735006D-04  0.85617359D-04
  0.12454868D-03  0.17086538D-03  0.21600089D-03  0.23181939D-03  0.17690516D-03
  0.13806601D-04 -0.17845617D-03 -0.18963724D-03  0.23242985D-05  0.86354865D-04
  0.31238628D-04 -0.14420475D-06 -0.28626754D-05 -0.62020520D-05 -0.10558937D-04
 -0.17282867D-04 -0.27146926D-04 -0.40987394D-04 -0.59622771D-04 -0.81899570D-04
 -0.10365944D-03 -0.11177233D-03 -0.85792124D-04 -0.69770364D-05  0.91086398D-04
  0.10194115D-03 -0.32299600D-05 -0.60402376D-04 -0.41278370D-04  0.16289678D-04
 -0.15848907D-04 -0.11465266D-04  0.21252700D-05 -0.59861935D-07 -0.85712324D-07
 -0.11290096D-06 -0.12926438D-06 -0.11828034D-06 -0.75284045D-07 -0.25997517D-07
 -0.29027692D-08 -0.36750435D-10 -0.66696441D-11 -0.52358074D-13 -0.12739506D-06
 -0.18240851D-06 -0.24026995D-06 -0.27509373D-06 -0.25171808D-06 -0.16021559D-06
 -0.55326564D-07 -0.61775224D-08 -0.78210364D-10 -0.14193990D-10 -0.11142573D-12
  0.10302851D-03  0.14751967D-03  0.19431410D-03  0.22247722D-03  0.20357257D-03
  0.12957154D-03  0.44744386D-04  0.49959626D-05  0.63251257D-07  0.11479140D-07
  0.90113600D-10 -0.33044020D-07 -0.47625236D-07 -0.63255964D-07 -0.74543259D-07
 -0.71174893D-07 -0.48602501D-07 -0.15394658D-07  0.72566863D-08  0.75228015D-08
  0.19792247D-08 -0.13132876D-11 -0.70320996D-07 -0.10135129D-06 -0.13461505D-06
 -0.15863555D-06 -0.15146733D-06 -0.10343101D-06 -0.32761380D-07  0.15442958D-07
  0.16009278D-07  0.42119892D-08 -0.27948079D-11 -0.49477749D-03 -0.71310617D-03
 -0.94714950D-03 -0.11161574D-02 -0.10657219D-02 -0.72773904D-03 -0.23050859D-03
  0.10865642D-03  0.11264104D-03  0.29635494D-04 -0.19664227D-07  0.16511996D-07
  0.23648251D-07  0.31627069D-07  0.37156084D-07  0.35902705D-07  0.24475264D-07
  0.78244753D-08 -0.46404069D-08 -0.45029947D-08 -0.15217222D-08  0.56921619D-09
  0.35138275D-07  0.50324547D-07  0.67303834D-07  0.79069828D-07  0.76402581D-07
  0.52084468D-07  0.16650837D-07 -0.98749957D-08 -0.95825763D-08 -0.32382938D-08
  0.12113178D-08  0.35924193D-03  0.51450128D-03  0.68809181D-03  0.80838338D-03
  0.78111434D-03  0.53249412D-03  0.17023257D-03 -0.10095864D-03 -0.97969044D-04
 -0.33107229D-04  0.12384107D-04 -0.76827823D-09 -0.16347307D-08 -0.99782008D-05
  0.24733880D-09  0.52637055D-09  0.48375219D-06  0.91352564D-12  0.19415840D-11
  0.20548778D-06  0.26042191D-04  0.26195705D-04  0.20933719D-04  0.12819640D-04
  0.53783912D-05  0.14663451D-05  0.23990141D-06  0.24638673D-04  0.24783914D-04
  0.19805517D-04  0.12128738D-04  0.50885281D-05  0.13873179D-05  0.22697216D-06
 -0.50680865D-04 -0.50979619D-04 -0.40739236D-04 -0.24948377D-04 -0.10466919D-04
 -0.28536630D-05 -0.46687357D-06 -0.16936003D-05 -0.17035838D-05 -0.13613813D-05
 -0.83369887D-06 -0.34977260D-06 -0.95360737D-07 -0.15601494D-07  0.31680608D-07
  0.31867360D-07  0.25466096D-07  0.15595231D-07  0.65428711D-08  0.17838247D-08
  0.29184266D-09  0.67412339D-07  0.67809723D-07  0.54188641D-07  0.33184684D-07
  0.13922405D-07  0.37957541D-08  0.62100439D-09 -0.11113894D-05 -0.11043780D-05
  0.22157675D-05  0.84605594D-08 -0.46560180D-09 -0.99089437D-09 -0.18256881D-05
 -0.18277319D-05  0.36534200D-05 -0.24661365D-08  0.51360258D-09  0.10931906D-08
 -0.71972150D-07 -0.71903322D-07  0.14387547D-06  0.83052952D-10  0.26590416D-10
  0.56581707D-10  0.10930376D-11  0.37311297D-11  0.91530022D-06  0.34992226D-11
  0.31105749D-11 -0.13735180D-05 -0.67783355D-11 -0.14303964D-10 -0.13723826D-05
  0.13700475D-08 -0.23290487D-10 -0.49494129D-10  0.44421003D-06 -0.23155896D-10
 -0.49528494D-10 -0.66589930D-06  0.93027358D-10  0.19801088D-09 -0.66673079D-06
 -0.10033240D-08
MO    2     MO 0.0        OCC NO =    2.0000000  ORB. ENERGY = -401.154715
  0.53875421D-01  0.10059853D+00  0.17434810D+00  0.28554680D+00  0.44661729D+00
  0.66868321D+00  0.94793720D+00  0.12356968D+01  0.13868426D+01  0.11790557D+01
  0.58823575D+00  0.10936451D+00  0.25694730D-02  0.37249283D-03 -0.98718987D-04
  0.20507618D-04 -0.56292442D-05 -0.35601987D-06  0.21967163D-06  0.41154749D-06
  0.71214616D-06  0.11661848D-05  0.18324030D-05  0.27625026D-05  0.40080742D-05
  0.54656533D-05  0.68204034D-05  0.71165360D-05  0.51537555D-05  0.36409702D-06
 -0.37325702D-05 -0.26314614D-05 -0.37258271D-06 -0.33751845D-08 -0.16945306D-08
 -0.57608427D-10  0.18864888D-05  0.34816218D-05  0.60188764D-05  0.98655811D-05
  0.15508857D-04  0.23404024D-04  0.34046137D-04  0.46707087D-04  0.59045151D-04
  0.63369235D-04  0.48358098D-04  0.37741180D-05 -0.48782074D-04 -0.51838489D-04
  0.63536107D-06  0.23605625D-04  0.85392681D-05 -0.39419241D-07 -0.10650468D-05
 -0.23074483D-05 -0.39284097D-05 -0.64300204D-05 -0.10099904D-04 -0.15249194D-04
 -0.22182410D-04 -0.30470403D-04 -0.38566075D-04 -0.41584442D-04 -0.31918612D-04
 -0.25957781D-05  0.33888325D-04  0.37926792D-04 -0.12016935D-05 -0.22472459D-04
 -0.15357450D-04  0.60605086D-05 -0.59778389D-05 -0.85039201D-05  0.18773459D-05
  0.68687475D-07  0.98349029D-07  0.12954613D-06  0.14832203D-06  0.13571860D-06
  0.86383291D-07  0.29830373D-07  0.33307291D-08  0.42168610D-10  0.76529604D-11
  0.60077309D-13  0.14607747D-06  0.20915862D-06  0.27550541D-06  0.31543607D-06
  0.28863239D-06  0.18371111D-06  0.63440174D-07  0.70834527D-08  0.89679871D-10
  0.16275530D-10  0.12776625D-12 -0.93510008D-04 -0.13389076D-03 -0.17636199D-03
 -0.20192320D-03 -0.18476509D-03 -0.11760080D-03 -0.40610583D-04 -0.45344002D-05
 -0.57407658D-07 -0.10418615D-07 -0.81788268D-10 -0.48490749D-08 -0.69888088D-08
 -0.92825543D-08 -0.10938919D-07 -0.10444625D-07 -0.71322185D-08 -0.22591032D-08
  0.10648891D-08  0.11039404D-08  0.29044315D-09 -0.19271958D-12 -0.10287489D-07
 -0.14827013D-07 -0.19693277D-07 -0.23207315D-07 -0.22158652D-07 -0.15131261D-07
 -0.47927698D-08  0.22592010D-08  0.23420498D-08  0.61618572D-09 -0.40886162D-12
  0.37972718D-03  0.54728803D-03  0.72690940D-03  0.85661798D-03  0.81791021D-03
  0.55851832D-03  0.17690856D-03 -0.83390612D-04 -0.86448689D-04 -0.22744371D-04
  0.15091716D-07  0.11187041D-07  0.16021925D-07  0.21427653D-07  0.25173616D-07
  0.24324439D-07  0.16582234D-07  0.53011596D-08 -0.31439217D-08 -0.30508236D-08
 -0.10309819D-08  0.38564962D-09  0.23783491D-07  0.34062384D-07  0.45554887D-07
  0.53518750D-07  0.51713412D-07  0.35253594D-07  0.11270190D-07 -0.66839329D-08
 -0.64860076D-08 -0.21918529D-08  0.81988562D-09 -0.27676659D-03 -0.39638126D-03
 -0.53011860D-03 -0.62279344D-03 -0.60178487D-03 -0.41024327D-03 -0.13115031D-03
  0.77780397D-04  0.75477156D-04  0.25506419D-04 -0.95409439D-05 -0.92920116D-10
 -0.19637157D-09  0.83523076D-05  0.22593263D-09  0.48052010D-09 -0.12139993D-05
 -0.31154129D-13 -0.65739842D-13 -0.21076980D-06  0.14379497D-04  0.14464261D-04
  0.11558795D-04  0.70785120D-05  0.29697408D-05  0.80965940D-06  0.13246433D-06
  0.15766093D-04  0.15859032D-04  0.12673395D-04  0.77610840D-05  0.32561091D-05
  0.88773383D-06  0.14523770D-06 -0.30145590D-04 -0.30323293D-04 -0.24232189D-04
 -0.14839596D-04 -0.62258499D-05 -0.16973932D-05 -0.27770203D-06  0.16731682D-05
  0.16830312D-05  0.13449572D-05  0.82364089D-06  0.34555284D-06  0.94210278D-07
  0.15413273D-07  0.19899747D-07  0.20017053D-07  0.15996185D-07  0.97959341D-08
  0.41098164D-08  0.11204855D-08  0.18331704D-09  0.42343052D-07  0.42592656D-07
  0.34036980D-07  0.20843970D-07  0.87449436D-08  0.23841898D-08  0.39006540D-09
 -0.63138027D-06 -0.63674063D-06  0.12681209D-05 -0.64681281D-08  0.18975804D-09
  0.40342624D-09 -0.17966246D-05 -0.17977317D-05  0.35943564D-05 -0.13359543D-08
 -0.43385069D-09 -0.92248197D-09 -0.10368122D-06 -0.10366176D-06  0.20734298D-06
  0.23473262D-10 -0.24244838D-10 -0.51569561D-10  0.27189516D-11  0.72039861D-11
 -0.68665683D-06  0.50380468D-11  0.66031651D-11  0.10303082D-05 -0.13194902D-10
 -0.28215123D-10  0.10296623D-05 -0.77943855D-09 -0.20830907D-10 -0.44222124D-10
 -0.47028752D-06 -0.20711192D-10 -0.44253304D-10  0.70505389D-06  0.83203912D-10
  0.17691968D-09  0.70580868D-06  0.91079062D-09  0.74997476D+00  0.14003855D+01
  0.24270190D+01  0.39749646D+01  0.62171522D+01  0.93084289D+01  0.13195794D+02
  0.17201562D+02  0.19305593D+02  0.16413087D+02  0.81885571D+01  0.15224126D+01
  0.35768442D-01  0.51853000D-02 -0.13742213D-02  0.28547704D-03 -0.78362099D-04
 -0.49559876D-05  0.43664091D-04  0.81803222D-04  0.14155316D-03  0.23180235D-03
  0.36422641D-03  0.54910215D-03  0.79668419D-03  0.10864069D-02  0.13556904D-02
  0.14145526D-02  0.10244111D-02  0.72371499D-04 -0.74192230D-03 -0.52305511D-03
 -0.74058199D-04 -0.67088481D-06 -0.33682154D-06 -0.11450817D-07 -0.34589119D-04
 -0.63836178D-04 -0.11035721D-03 -0.18088725D-03 -0.28435776D-03 -0.42911709D-03
 -0.62424220D-03 -0.85638306D-03 -0.10826037D-02 -0.11618866D-02 -0.88665465D-03
 -0.69199150D-04  0.89442832D-03  0.95046825D-03 -0.11649462D-04 -0.43281350D-03
 -0.15656906D-03  0.72275905D-06  0.12371232D-04  0.26802560D-04  0.45631114D-04
  0.74689000D-04  0.11731716D-03  0.17712961D-03  0.25766357D-03  0.35393417D-03
  0.44797082D-03  0.48303118D-03  0.37075608D-03  0.30151704D-04 -0.39363562D-03
 -0.44054512D-03  0.13958476D-04  0.26103268D-03  0.17838708D-03 -0.70396872D-04
  0.67923133D-04  0.19895249D-04 -0.15818803D-05  0.89478381D-06  0.12811814D-05
  0.16875825D-05  0.19321740D-05  0.17679906D-05  0.11253052D-05  0.38859683D-06
  0.43389024D-07  0.54932562D-09  0.99694232D-10  0.78262017D-12  0.19042742D-05
  0.27266036D-05  0.35915042D-05  0.41120426D-05  0.37626283D-05  0.23948685D-05
  0.82700972D-06  0.92340292D-07  0.11690719D-08  0.21216874D-09  0.16655681D-11
 -0.59193791D-04 -0.84755654D-04 -0.11164083D-03 -0.12782161D-03 -0.11696017D-03
 -0.74443769D-04 -0.25707349D-04 -0.28703702D-05 -0.36340249D-07 -0.65952015D-08
 -0.51773685D-10  0.19514143D-06  0.28125079D-06  0.37355804D-06  0.44021515D-06
  0.42032326D-06  0.28702202D-06  0.90913139D-07 -0.42854355D-07 -0.44425897D-07
 -0.11688310D-07  0.77556185D-11  0.41508849D-06  0.59825310D-06  0.79460134D-06
  0.93638877D-06  0.89407642D-06  0.61052919D-06  0.19338281D-06 -0.91156191D-07
 -0.94499045D-07 -0.24862393D-07  0.16497101D-10  0.76939098D-03  0.11088974D-02
  0.14728404D-02  0.17356518D-02  0.16572233D-02  0.11316518D-02  0.35844643D-03
 -0.16896337D-03 -0.17515955D-03 -0.46083911D-04  0.30578350D-07 -0.36224289D-07
 -0.51879922D-07 -0.69383985D-07 -0.81513629D-07 -0.78763946D-07 -0.53694236D-07
 -0.17165463D-07  0.10180201D-07  0.98787439D-08  0.33383793D-08 -0.12487559D-08
 -0.77007461D-07 -0.11028901D-06 -0.14750005D-06 -0.17328588D-06 -0.16744046D-06
 -0.11414598D-06 -0.36491225D-07  0.21641596D-07  0.21000743D-07  0.70968988D-08
 -0.26546696D-08 -0.55122092D-03 -0.78945092D-03 -0.10558083D-02 -0.12403837D-02
 -0.11985421D-02 -0.81705913D-03 -0.26120491D-03  0.15491097D-03  0.15032373D-03
  0.50799741D-04 -0.19002177D-04  0.46800368D-08  0.99490035D-08  0.10658566D-04
 -0.13323030D-09 -0.28340153D-09  0.51438674D-05 -0.65388394D-11 -0.13902728D-10
  0.51716408D-07 -0.79725742D-04 -0.80195711D-04 -0.64086630D-04 -0.39246132D-04
 -0.16465443D-04 -0.44890790D-05 -0.73443581D-06 -0.60305895D-04 -0.60661387D-04
 -0.48476207D-04 -0.29686436D-04 -0.12454739D-04 -0.33956150D-05 -0.55553962D-06
  0.14003164D-03  0.14085710D-03  0.11256284D-03  0.68932568D-04  0.28920182D-04
  0.78846940D-05  0.12899754D-05  0.23433569D-04  0.23571705D-04  0.18836807D-04
  0.11535508D-04  0.48396426D-05  0.13194627D-05  0.21587070D-06 -0.35861934D-06
 -0.36073334D-06 -0.28827207D-06 -0.17653548D-06 -0.74064240D-07 -0.20192607D-07
 -0.33036116D-08 -0.76298461D-06 -0.76748227D-06 -0.61331649D-06 -0.37559004D-06
 -0.15757620D-06 -0.42961007D-07 -0.70286360D-08  0.32784817D-05  0.31924282D-05
 -0.64709099D-05 -0.10384002D-06  0.18985692D-08  0.40392580D-08  0.72192054D-07
  0.78598217D-07 -0.15079027D-06  0.77302569D-08 -0.52546703D-09 -0.11174201D-08
 -0.22701873D-06 -0.22735923D-06  0.45437796D-06 -0.41088556D-09 -0.14575771D-10