 Molden2AIM, Version 4.0.0 (06/02/2016)           Time: Sun Jul  1 16:16:23 2018
GAUSSIAN              8 MOL ORBITALS    150 PRIMITIVES        2 NUCLEI
  O    1    (CENTRE  1)   0.00000000  0.00000000  1.12663015  CHARGE =  8.0
  O    2    (CENTRE  2)   0.00000000  0.00000000 -1.12663015  CHARGE =  8.0
CENTRE ASSIGNMENTS    1  1  1  1  1  1  1  1  1  1  1  1  1  1  1  1  1  1  1  1
CENTRE ASSIGNMENTS    1  1  1  1  1  1  1  1  1  1  1  1  1  1  1  1  1  1  1  1
CENTRE ASSIGNMENTS    1  1  1  1  1  1  1  1  1  1  1  1  1  1  1  1  1  1  1  1
CENTRE ASSIGNMENTS    1  1  1  1  1  1  1  1  1  1  1  1  1  1  1  2  2  2  2  2
CENTRE ASSIGNMENTS    2  2  2  2  2  2  2  2  2  2  2  2  2  2  2  2  2  2  2  2
CENTRE ASSIGNMENTS    2  2  2  2  2  2  2  2  2  2  2  2  2  2  2  2  2  2  2  2
CENTRE ASSIGNMENTS    2  2  2  2  2  2  2  2  2  2  2  2  2  2  2  2  2  2  2  2
CENTRE ASSIGNMENTS    2  2  2  2  2  2  2  2  2  2
TYPE ASSIGNMENTS      1  1  1  1  1  1  1  1  1  1  1  1  1  1  1  1  1  1  1  2
TYPE ASSIGNMENTS      2  2  3  3  3  4  4  4  2  3  4  2  3  4  2  3  4  5  6  7
TYPE ASSIGNMENTS      8  9 10  5  6  7  8  9 10  5  6  7  8  9 10 11 12 13 17 14
TYPE ASSIGNMENTS     15 18 19 16 20 11 12 13 17 14 15 18 19 16 20  1  1  1  1  1
TYPE ASSIGNMENTS      1  1  1  1  1  1  1  1  1  1  1  1  1  1  2  2  2  3  3  3
TYPE ASSIGNMENTS      4  4  4  2  3  4  2  3  4  2  3  4  5  6  7  8  9 10  5  6
TYPE ASSIGNMENTS      7  8  9 10  5  6  7  8  9 10 11 12 13 17 14 15 18 19 16 20
TYPE ASSIGNMENTS     11 12 13 17 14 15 18 19 16 20
EXPONENTS  0.1533000D+05 0.2299000D+04 0.5224000D+03 0.1473000D+03 0.4755000D+02
EXPONENTS  0.1676000D+02 0.6207000D+01 0.6882000D+00 0.1533000D+05 0.2299000D+04
EXPONENTS  0.5224000D+03 0.1473000D+03 0.4755000D+02 0.1676000D+02 0.6207000D+01
EXPONENTS  0.6882000D+00 0.1752000D+01 0.2384000D+00 0.7376000D-01 0.3446000D+02
EXPONENTS  0.7749000D+01 0.2280000D+01 0.3446000D+02 0.7749000D+01 0.2280000D+01
EXPONENTS  0.3446000D+02 0.7749000D+01 0.2280000D+01 0.7156000D+00 0.7156000D+00
EXPONENTS  0.7156000D+00 0.2140000D+00 0.2140000D+00 0.2140000D+00 0.5974000D-01
EXPONENTS  0.5974000D-01 0.5974000D-01 0.2314000D+01 0.2314000D+01 0.2314000D+01
EXPONENTS  0.2314000D+01 0.2314000D+01 0.2314000D+01 0.6450000D+00 0.6450000D+00
EXPONENTS  0.6450000D+00 0.6450000D+00 0.6450000D+00 0.6450000D+00 0.2140000D+00
EXPONENTS  0.2140000D+00 0.2140000D+00 0.2140000D+00 0.2140000D+00 0.2140000D+00
EXPONENTS  0.1428000D+01 0.1428000D+01 0.1428000D+01 0.1428000D+01 0.1428000D+01
EXPONENTS  0.1428000D+01 0.1428000D+01 0.1428000D+01 0.1428000D+01 0.1428000D+01
EXPONENTS  0.5000000D+00 0.5000000D+00 0.5000000D+00 0.5000000D+00 0.5000000D+00
EXPONENTS  0.5000000D+00 0.5000000D+00 0.5000000D+00 0.5000000D+00 0.5000000D+00
EXPONENTS  0.1533000D+05 0.2299000D+04 0.5224000D+03 0.1473000D+03 0.4755000D+02
EXPONENTS  0.1676000D+02 0.6207000D+01 0.6882000D+00 0.1533000D+05 0.2299000D+04
EXPONENTS  0.5224000D+03 0.1473000D+03 0.4755000D+02 0.1676000D+02 0.6207000D+01
EXPONENTS  0.6882000D+00 0.1752000D+01 0.2384000D+00 0.7376000D-01 0.3446000D+02
EXPONENTS  0.7749000D+01 0.2280000D+01 0.3446000D+02 0.7749000D+01 0.2280000D+01
EXPONENTS  0.3446000D+02 0.7749000D+01 0.2280000D+01 0.7156000D+00 0.7156000D+00
EXPONENTS  0.7156000D+00 0.2140000D+00 0.2140000D+00 0.2140000D+00 0.5974000D-01
EXPONENTS  0.5974000D-01 0.5974000D-01 0.2314000D+01 0.2314000D+01 0.2314000D+01
EXPONENTS  0.2314000D+01 0.2314000D+01 0.2314000D+01 0.6450000D+00 0.6450000D+00
EXPONENTS  0.6450000D+00 0.6450000D+00 0.6450000D+00 0.6450000D+00 0.2140000D+00
EXPONENTS  0.2140000D+00 0.2140000D+00 0.2140000D+00 0.2140000D+00 0.2140000D+00
EXPONENTS  0.1428000D+01 0.1428000D+01 0.1428000D+01 0.1428000D+01 0.1428000D+01
EXPONENTS  0.1428000D+01 0.1428000D+01 0.1428000D+01 0.1428000D+01 0.1428000D+01
EXPONENTS  0.5000000D+00 0.5000000D+00 0.5000000D+00 0.5000000D+00 0.5000000D+00
EXPONENTS  0.5000000D+00 0.5000000D+00 0.5000000D+00 0.5000000D+00 0.5000000D+00
MO    1     MO 0.0        OCC NO =    2.0000000  ORB. ENERGY =  -19.834044
  0.35188797D+00  0.65587391D+00  0.11121448D+01  0.16832830D+01  0.21002457D+01
  0.18038310D+01  0.69252579D+00 -0.30977103D-02  0.44277840D-04  0.83044186D-04
  0.14157213D-03  0.22124968D-03  0.29585298D-03  0.31590201D-03  0.19313630D-03
 -0.12741960D-03  0.36318742D-01  0.43499716D-03 -0.47571965D-04 -0.44296781D-15
 -0.42952977D-15 -0.28975825D-15 -0.47619447D-15 -0.46174845D-15 -0.31149278D-15
 -0.72226634D-02 -0.70035539D-02 -0.47245561D-02 -0.84338616D-17 -0.19320541D-17
  0.62774716D-05  0.56240182D-17  0.16669518D-16  0.14209465D-03 -0.46695494D-18
  0.46252523D-18  0.40081690D-05 -0.13923416D-02 -0.13268198D-02  0.27191614D-02
 -0.77884678D-04 -0.15790162D-16 -0.21310017D-16  0.17331529D-03  0.23904794D-03
 -0.41236323D-03 -0.78193841D-04 -0.10743546D-16  0.22401603D-17  0.19305020D-04
  0.17158077D-04 -0.36463097D-04  0.25539840D-05  0.10688581D-17 -0.96900043D-17
  0.13741461D-17  0.10180220D-16  0.30819127D-03  0.12920081D-17  0.86780720D-17
 -0.51451601D-03 -0.54144464D-17 -0.39218731D-16 -0.41005780D-03 -0.12425635D-03
 -0.43154477D-18  0.12841805D-17  0.14578655D-03 -0.39478702D-18  0.13363500D-17
 -0.22329616D-03  0.16894213D-17 -0.51888915D-17 -0.21406348D-03 -0.10982827D-04
  0.35188797D+00  0.65587391D+00  0.11121448D+01  0.16832830D+01  0.21002457D+01
  0.18038310D+01  0.69252579D+00 -0.30977103D-02  0.44277840D-04  0.83044186D-04
  0.14157213D-03  0.22124968D-03  0.29585299D-03  0.31590201D-03  0.19313630D-03
 -0.12741960D-03  0.36318742D-01  0.43499716D-03 -0.47571965D-04 -0.89825614D-17
 -0.87100630D-17 -0.58757570D-17  0.75557236D-16  0.73265103D-16  0.49424206D-16
  0.72226634D-02  0.70035539D-02  0.47245561D-02 -0.88712523D-16 -0.86538331D-17
 -0.62774717D-05 -0.15960856D-18 -0.17390754D-16 -0.14209465D-03 -0.13562690D-17
 -0.15798402D-18 -0.40081690D-05 -0.13923416D-02 -0.13268198D-02  0.27191614D-02
 -0.77884678D-04 -0.33903379D-16 -0.31571235D-16  0.17331529D-03  0.23904794D-03
 -0.41236323D-03 -0.78193841D-04 -0.87500642D-17  0.85579045D-18  0.19305020D-04
  0.17158077D-04 -0.36463097D-04  0.25539840D-05 -0.32479897D-17 -0.98285291D-17
 -0.68166795D-17 -0.15306023D-16 -0.30819127D-03 -0.62694885D-17 -0.16562868D-16
  0.51451601D-03  0.26719527D-16  0.62480936D-16  0.41005780D-03  0.12425635D-03
  0.25818064D-17  0.41287266D-17 -0.14578655D-03  0.25698489D-17  0.41471640D-17
  0.22329616D-03 -0.10315268D-16 -0.16533344D-16  0.21406348D-03  0.10982827D-04
MO    2     MO 0.0        OCC NO =    2.0000000  ORB. ENERGY =  -19.833459
  0.35133633D+00  0.65484572D+00  0.11104014D+01  0.16806442D+01  0.20969533D+01
  0.18010032D+01  0.69144014D+00 -0.30928542D-02  0.45320134D-03  0.84999035D-03
  0.14490472D-02  0.22645787D-02  0.30281733D-02  0.32333830D-02  0.19768270D-02
 -0.13041904D-02  0.36669247D-01 -0.91889219D-03 -0.55150077D-03 -0.57951511D-15
 -0.56193472D-15 -0.37907784D-15  0.48247850D-15  0.46784185D-15  0.31560335D-15
 -0.69743505D-02 -0.67627740D-02 -0.45621274D-02 -0.18776664D-16  0.17060825D-17
  0.24095408D-02 -0.47910224D-17 -0.17494913D-16  0.72854783D-03  0.32187929D-18
 -0.47457318D-18  0.46569926D-04 -0.22483494D-03 -0.87608413D-04  0.31244336D-03
 -0.16317908D-03  0.14538497D-16  0.21334848D-16  0.43373264D-03  0.53550910D-03
 -0.96924174D-03 -0.12107004D-03  0.15899707D-16 -0.83580156D-18  0.45298620D-04
  0.43135764D-04 -0.88434384D-04  0.25729674D-05 -0.83902317D-18  0.10110678D-16
 -0.21709382D-18 -0.97504009D-17  0.57776705D-04  0.93693590D-18 -0.98933430D-17
 -0.93808800D-04 -0.28565445D-18  0.39144546D-16 -0.79521313D-04 -0.16994793D-04
  0.73417638D-18 -0.11359295D-17  0.84606905D-04  0.68827988D-18 -0.11348396D-17
 -0.12147914D-03 -0.28908090D-17  0.45426280D-17 -0.13234158D-03  0.12921867D-04
 -0.35133633D+00 -0.65484572D+00 -0.11104014D+01 -0.16806442D+01 -0.20969533D+01
 -0.18010032D+01 -0.69144014D+00  0.30928542D-02 -0.45320134D-03 -0.84999035D-03
 -0.14490472D-02 -0.22645787D-02 -0.30281733D-02 -0.32333830D-02 -0.19768270D-02
  0.13041904D-02 -0.36669247D-01  0.91889219D-03  0.55150077D-03  0.46523160D-17
  0.45111815D-17  0.30432164D-17 -0.76136026D-16 -0.73826335D-16 -0.49802809D-16
 -0.69743505D-02 -0.67627740D-02 -0.45621274D-02  0.90295342D-16  0.95286989D-17
  0.24095408D-02  0.77715111D-18  0.18194334D-16  0.72854783D-03  0.13955839D-17
  0.15733339D-18  0.46569926D-04  0.22483494D-03  0.87608413D-04 -0.31244336D-03
  0.16317908D-03  0.27109768D-16  0.29437632D-16 -0.43373264D-03 -0.53550910D-03
  0.96924174D-03  0.12107004D-03  0.13935466D-16  0.47107088D-18 -0.45298620D-04
 -0.43135764D-04  0.88434384D-04 -0.25729674D-05  0.36431378D-17  0.10263413D-16
  0.69980792D-17  0.15500447D-16  0.57776705D-04  0.62756701D-17  0.16401187D-16
 -0.93808800D-04 -0.27269908D-16 -0.62902527D-16 -0.79521313D-04 -0.16994793D-04
 -0.31741957D-17 -0.43266198D-17  0.84606905D-04 -0.31618933D-17 -0.43272559D-17
 -0.12147914D-03  0.12684480D-16  0.17307115D-16 -0.13234158D-03  0.12921867D-04
MO    3     MO 0.0        OCC NO =    2.0000000  ORB. ENERGY =   -1.461609
 -0.56314104D-02 -0.10496224D-01 -0.17798119D-01 -0.26938282D-01 -0.33611110D-01
 -0.28867461D-01 -0.11082780D-01  0.49573954D-04 -0.69507468D-01 -0.13036298D+00
 -0.22224030D+00 -0.34731833D+00 -0.46443079D+00 -0.49590380D+00 -0.30318586D+00
  0.20002362D+00  0.10639609D+00  0.36314709D-01  0.13200510D-04  0.31404035D-15
  0.30451350D-15  0.20542301D-15 -0.43404818D-15 -0.42088073D-15 -0.28392365D-15
 -0.46594537D+00 -0.45181028D+00 -0.30478854D+00  0.92415107D-16 -0.75266389D-16
 -0.10595075D+00  0.28619935D-16 -0.49012061D-16 -0.56676529D-02 -0.37060964D-17
 -0.20168759D-17  0.11630395D-03 -0.31713295D-01 -0.39536671D-01  0.71249966D-01
  0.93063431D-02  0.11208713D-16  0.14244748D-16 -0.68307203D-02 -0.93986288D-02
  0.16229349D-01  0.30546187D-02 -0.25413370D-16  0.12269909D-16 -0.22993418D-03
 -0.24176156D-03  0.47169574D-03  0.14068352D-04  0.20621154D-17  0.26177040D-16
  0.25444176D-19 -0.45160713D-17 -0.18972622D-01 -0.12450822D-16  0.45081178D-18
  0.24671201D-01  0.12374490D-16  0.13097402D-16  0.32246664D-01 -0.90113218D-02
 -0.57547920D-18  0.50684579D-17 -0.10375947D-02 -0.12366695D-17  0.52232510D-17
  0.10896097D-02  0.29631071D-17 -0.20428625D-16  0.20231743D-02 -0.11105091D-02
 -0.56314104D-02 -0.10496224D-01 -0.17798119D-01 -0.26938282D-01 -0.33611110D-01
 -0.28867461D-01 -0.11082780D-01  0.49573954D-04 -0.69507468D-01 -0.13036298D+00
 -0.22224030D+00 -0.34731833D+00 -0.46443079D+00 -0.49590380D+00 -0.30318586D+00
  0.20002362D+00  0.10639609D+00  0.36314709D-01  0.13200510D-04  0.47844136D-16
  0.46392718D-16  0.31296253D-16 -0.13220008D-15 -0.12818961D-15 -0.86475951D-16
  0.46594537D+00  0.45181028D+00  0.30478854D+00  0.18234913D-16 -0.26816287D-16
  0.10595075D+00 -0.43605129D-17  0.42850822D-16  0.56676529D-02  0.86787538D-18
  0.28173851D-18 -0.11630395D-03 -0.31713295D-01 -0.39536671D-01  0.71249966D-01
  0.93063431D-02  0.61342368D-16 -0.33788014D-16 -0.68307203D-02 -0.93986288D-02
  0.16229349D-01  0.30546187D-02 -0.20325155D-16  0.12839142D-16 -0.22993418D-03
 -0.24176156D-03  0.47169574D-03  0.14068352D-04  0.43281020D-17  0.23125969D-16
 -0.14232602D-17  0.54440606D-18  0.18972622D-01 -0.81410269D-17  0.64460511D-17
 -0.24671201D-01  0.12410808D-16 -0.80792693D-17 -0.32246664D-01  0.90113218D-02
  0.32814696D-17 -0.74452475D-18  0.10375947D-02  0.38251864D-17 -0.14465991D-17
 -0.10896097D-02 -0.13669595D-16  0.36801733D-17 -0.20231743D-02  0.11105091D-02
MO    4     MO 0.0        OCC NO =    2.0000000  ORB. ENERGY =   -0.931365
  0.67118457D-03  0.12510017D-02  0.21212843D-02  0.32106627D-02  0.40059696D-02
  0.34405936D-02  0.13209108D-02 -0.59085150D-05  0.78940336D-01  0.14805456D+00
  0.25240056D+00  0.39445295D+00  0.52745875D+00  0.56320298D+00  0.34433126D+00
 -0.22716885D+00 -0.12726708D+00 -0.10158981D+00 -0.72482911D-02 -0.27302885D-15
 -0.26474614D-15 -0.17859618D-15 -0.21784291D-15 -0.21123434D-15 -0.14249744D-15
 -0.40539638D+00 -0.39309812D+00 -0.26518167D+00 -0.75064143D-16 -0.68676073D-16
 -0.81854619D-01  0.13799741D-16 -0.31608176D-16  0.67168598D-02 -0.17798470D-17
 -0.24949761D-17  0.42535041D-03 -0.17908616D-01 -0.11504906D-01  0.29413521D-01
 -0.76176114D-02  0.21960266D-16  0.79025851D-17 -0.24682462D-02 -0.86411432D-03
  0.33323606D-02 -0.19081642D-02 -0.18593935D-16  0.15581839D-16  0.90187686D-03
  0.72107254D-03 -0.16229494D-02  0.21507405D-03 -0.57853513D-18  0.18669699D-16
 -0.19763462D-17 -0.75016063D-18 -0.92938615D-03  0.10813867D-17 -0.49500929D-17
 -0.14983792D-02  0.48476519D-17  0.72005748D-17  0.42865377D-02 -0.68813735D-02
  0.12722509D-18  0.40185240D-17  0.91371814D-04 -0.45133853D-18  0.35026569D-17
 -0.25057975D-04  0.69663276D-19 -0.15558229D-16 -0.24905747D-03  0.26645413D-03
 -0.67118457D-03 -0.12510017D-02 -0.21212843D-02 -0.32106627D-02 -0.40059696D-02
 -0.34405936D-02 -0.13209108D-02  0.59085150D-05 -0.78940336D-01 -0.14805456D+00
 -0.25240056D+00 -0.39445295D+00 -0.52745875D+00 -0.56320298D+00 -0.34433126D+00
  0.22716885D+00  0.12726708D+00  0.10158981D+00  0.72482911D-02 -0.24677713D-16
 -0.23929081D-16 -0.16142417D-16 -0.13199547D-15 -0.12799121D-15 -0.86342112D-16
 -0.40539638D+00 -0.39309812D+00 -0.26518167D+00 -0.10944997D-17 -0.32453549D-16
 -0.81854619D-01 -0.30947517D-17  0.30058899D-16  0.67168598D-02 -0.88754232D-18
 -0.12289291D-17  0.42535041D-03  0.17908616D-01  0.11504906D-01 -0.29413521D-01
  0.76176114D-02  0.33807871D-17 -0.36217277D-16  0.24682462D-02  0.86411432D-03
 -0.33323606D-02  0.19081642D-02 -0.34707886D-16  0.16302107D-16 -0.90187686D-03
 -0.72107254D-03  0.16229494D-02 -0.21507405D-03  0.16984542D-17  0.15213885D-16
  0.27258342D-17  0.14618070D-17 -0.92938615D-03 -0.35078948D-17  0.23362438D-17
 -0.14983792D-02 -0.46696078D-17 -0.67216647D-17  0.42865377D-02 -0.68813735D-02
  0.43813215D-17 -0.10616812D-17  0.91371814D-04  0.44146802D-17 -0.15740860D-17
 -0.25057975D-04 -0.17558645D-16  0.47591295D-17 -0.24905747D-03  0.26645413D-03
MO    5     MO 0.0        OCC NO =    2.0000000  ORB. ENERGY =   -0.636056
  0.22439146D-03  0.41823682D-03  0.70919106D-03  0.10733937D-02  0.13392819D-02
  0.11502646D-02  0.44160894D-03 -0.19753439D-05 -0.27507077D-01 -0.51590204D-01
 -0.87949988D-01 -0.13744871D+00 -0.18379512D+00 -0.19625034D+00 -0.11998361D+00
  0.79157896D-01  0.46191581D-01  0.48349491D-01  0.26103861D-02  0.11075468D-15
  0.10739478D-15  0.72447884D-16 -0.25525663D-14 -0.24751307D-14 -0.16697085D-14
  0.12711246D+01  0.12325632D+01  0.83147988D+00 -0.80001894D-16 -0.62797105D-15
  0.29537546D+00  0.31487913D-16 -0.84584802D-16  0.33107633D-01 -0.12919199D-16
 -0.40186376D-17  0.81012644D-04  0.42572772D-01  0.40089235D-01 -0.82662007D-01
  0.29543060D-02 -0.71956530D-17  0.25304119D-15  0.83659875D-02  0.77473920D-02
 -0.16113379D-01  0.73583820D-03  0.47051006D-17  0.67004522D-16  0.59375180D-03
  0.56451165D-03 -0.11582634D-02  0.34781107D-04 -0.56309772D-17  0.99971920D-17
  0.25132527D-17  0.35375655D-16  0.21296644D-01 -0.33747337D-16  0.52662858D-18
 -0.24131379D-01  0.26207579D-16 -0.10665359D-15 -0.39758554D-01  0.18589139D-01
  0.22625394D-17  0.20600390D-17  0.18060573D-03 -0.12861702D-17 -0.11717087D-17
 -0.17443117D-04 -0.55014480D-17 -0.50084084D-17 -0.52437407D-03  0.60300895D-03
  0.22439146D-03  0.41823682D-03  0.70919106D-03  0.10733937D-02  0.13392819D-02
  0.11502646D-02  0.44160894D-03 -0.19753439D-05 -0.27507077D-01 -0.51590204D-01
 -0.87949988D-01 -0.13744871D+00 -0.18379512D+00 -0.19625034D+00 -0.11998361D+00
  0.79157896D-01  0.46191581D-01  0.48349491D-01  0.26103861D-02  0.24792401D-15
  0.24040289D-15  0.16217437D-15 -0.28538185D-14 -0.27672440D-14 -0.18667665D-14
 -0.12711246D+01 -0.12325632D+01 -0.83147988D+00  0.33853018D-16 -0.68507966D-15
 -0.29537546D+00  0.23355841D-16 -0.89329682D-16 -0.33107633D-01 -0.53767239D-17
  0.99901003D-18 -0.81012644D-04  0.42572772D-01  0.40089235D-01 -0.82662007D-01
  0.29543060D-02 -0.12998273D-16 -0.26989886D-15  0.83659875D-02  0.77473920D-02
 -0.16113379D-01  0.73583820D-03 -0.21160288D-17 -0.81615031D-16  0.59375180D-03
  0.56451165D-03 -0.11582634D-02  0.34781107D-04 -0.68758779D-17  0.26349077D-17
  0.92431977D-17  0.34515368D-16 -0.21296644D-01 -0.35362465D-16  0.76800557D-17
  0.24131379D-01  0.76328716D-17 -0.11122616D-15  0.39758554D-01 -0.18589139D-01
  0.18454068D-17  0.23487119D-17 -0.18060573D-03 -0.17995963D-17 -0.13777199D-17
  0.17443118D-04 -0.37366241D-17 -0.56684157D-17  0.52437407D-03 -0.60300895D-03
MO    6     MO 0.0        OCC NO =    2.0000000  ORB. ENERGY =   -0.634576
 -0.91793158D-17 -0.17109063D-16 -0.29011303D-16 -0.43909958D-16 -0.54786807D-16
 -0.47054561D-16 -0.18065161D-16  0.80806573D-19  0.64952909D-16  0.12182079D-15
  0.20767774D-15  0.32455989D-15  0.43399841D-15  0.46340912D-15  0.28331925D-15
 -0.18691683D-15 -0.10975240D-15  0.13774565D-15 -0.10736635D-16  0.53924531D+00
  0.52288656D+00  0.35273619D+00 -0.11578090D+01 -0.11226853D+01 -0.75735684D+00
 -0.24548976D-14 -0.23804249D-14 -0.16058206D-14  0.12813578D+00 -0.27511920D+00
 -0.63997317D-15  0.15648886D-01 -0.33599593D-01 -0.17833505D-15  0.84289504D-04
 -0.18097456D-03  0.83154581D-17 -0.49895715D-16 -0.87828151D-16  0.13772387D-15
  0.24155471D-15 -0.48798167D-01  0.10477426D+00 -0.58564182D-16 -0.39330002D-16
  0.97894184D-16 -0.14984645D-16 -0.14202600D-01  0.30494362D-01 -0.12923739D-16
  0.60526918D-17  0.68710470D-17  0.28530592D-17 -0.14723936D-03  0.31615107D-03
 -0.70490302D-04  0.12872854D-01 -0.10936616D-15 -0.21127994D-01  0.71992599D-02
 -0.19964061D-17  0.21339465D-01 -0.45817823D-01  0.33009487D-15  0.30604720D-16
  0.33359676D-03  0.63112341D-03 -0.84761770D-17 -0.18966916D-02  0.30225362D-04
  0.13186693D-16  0.89590137D-03 -0.19235956D-02  0.12241838D-16 -0.75736901D-16
  0.14998059D-17  0.27954452D-17  0.47401489D-17  0.71744361D-17  0.89516016D-17
  0.76882319D-17  0.29516617D-17 -0.13202964D-19  0.72217308D-16  0.13544535D-15
  0.23090463D-15  0.36085899D-15  0.48253723D-15  0.51523726D-15  0.31500596D-15
 -0.20782180D-15 -0.10591054D-15 -0.30112276D-15 -0.23242294D-17  0.53924531D+00
  0.52288656D+00  0.35273619D+00 -0.11578090D+01 -0.11226853D+01 -0.75735684D+00
  0.25683068D-14  0.24903937D-14  0.16800049D-14  0.12813578D+00 -0.27511920D+00
  0.49341070D-15  0.15648886D-01 -0.33599593D-01 -0.42964460D-16  0.84289504D-04
 -0.18097456D-03  0.11897490D-18 -0.20399682D-15  0.17125113D-16  0.18687171D-15
  0.82164661D-16  0.48798167D-01 -0.10477426D+00  0.26501423D-16 -0.99132051D-17
 -0.16588218D-16 -0.26524245D-16  0.14202600D-01 -0.30494362D-01  0.12946475D-16
  0.52993139D-17 -0.18245789D-16 -0.33570876D-18  0.14723936D-03 -0.31615107D-03
 -0.70490302D-04  0.12872854D-01  0.76637123D-16 -0.21127994D-01  0.71992599D-02
  0.18689648D-16  0.21339465D-01 -0.45817823D-01 -0.24860102D-15  0.34966594D-15
  0.33359676D-03  0.63112341D-03 -0.10288376D-16 -0.18966916D-02  0.30225362D-04
 -0.44587226D-17  0.89590137D-03 -0.19235956D-02  0.35323851D-16 -0.62612820D-16
MO    7     MO 0.0        OCC NO =    2.0000000  ORB. ENERGY =   -0.599736
 -0.69650381D-17 -0.12981935D-16 -0.22013060D-16 -0.33317792D-16 -0.41570877D-16
 -0.35703839D-16 -0.13707398D-16  0.61314032D-19  0.15953500D-16  0.29921186D-16
  0.51009062D-16  0.79717235D-16  0.10659713D-15  0.11382089D-15  0.69587857D-16
 -0.45909842D-16 -0.15597224D-16 -0.13644658D-15 -0.16573249D-15 -0.11003112D+01
 -0.10669318D+01 -0.71974587D+00 -0.51246604D+00 -0.49691967D+00 -0.33521907D+00
 -0.98094048D-15 -0.95118229D-15 -0.64166196D-15 -0.26983458D+00 -0.12567448D+00
 -0.17597053D-15 -0.35100072D-01 -0.16347736D-01  0.23915201D-16 -0.26468332D-03
 -0.12326972D-03  0.19292095D-16 -0.21661106D-15  0.10123352D-15  0.11537753D-15
 -0.12260671D-15  0.11744016D+00  0.54697384D-01 -0.12745932D-16 -0.31483091D-16
  0.44229023D-16  0.42088358D-16  0.39275344D-01  0.18292375D-01 -0.35369918D-18
  0.11357749D-16 -0.11004050D-16 -0.13264344D-16  0.18275568D-02  0.85117866D-03
  0.88883082D-02  0.97241560D-02  0.31763129D-17  0.14235572D-01 -0.10123198D-01
  0.10816590D-15 -0.40900497D-01 -0.19049271D-01 -0.11769484D-15  0.45123748D-15
  0.55648492D-03  0.90260749D-03 -0.40214790D-17  0.11726032D-02 -0.13841441D-02
  0.16402195D-16 -0.28420580D-02 -0.13236784D-02 -0.43377578D-17 -0.73009914D-16
 -0.10667241D-16 -0.19882365D-16 -0.33713903D-16 -0.51027562D-16 -0.63667499D-16
 -0.54681891D-16 -0.20993441D-16  0.93904951D-19  0.37646433D-16  0.70606819D-16
  0.12036915D-15  0.18811355D-15  0.25154366D-15  0.26858998D-15  0.16421065D-15
 -0.10833621D-15 -0.80032384D-16  0.33606116D-16  0.17640639D-15 -0.11003112D+01
 -0.10669318D+01 -0.71974587D+00 -0.51246604D+00 -0.49691967D+00 -0.33521907D+00
  0.13272488D-14  0.12869849D-14  0.86819241D-15 -0.26983458D+00 -0.12567448D+00
  0.25366708D-15 -0.35100072D-01 -0.16347736D-01  0.12981097D-15 -0.26468332D-03
 -0.12326972D-03  0.14743323D-16  0.60774374D-16 -0.15041697D-15  0.89642599D-16
  0.99472840D-16 -0.11744016D+00 -0.54697384D-01  0.23611200D-17  0.65151430D-17
 -0.88762630D-17 -0.39331422D-16 -0.39275344D-01 -0.18292375D-01  0.73551123D-17
 -0.20093831D-16  0.12738719D-16  0.24212012D-17 -0.18275568D-02 -0.85117866D-03
  0.88883082D-02  0.97241560D-02  0.74170826D-17  0.14235572D-01 -0.10123198D-01
 -0.37640637D-16 -0.40900497D-01 -0.19049271D-01  0.15389389D-16  0.20226544D-15
  0.55648492D-03  0.90260749D-03  0.75080314D-17  0.11726032D-02 -0.13841441D-02
 -0.10186570D-16 -0.28420580D-02 -0.13236784D-02 -0.12337524D-16 -0.91527266D-16
MO    8     MO 0.0        OCC NO =    2.0000000  ORB. ENERGY =   -0.344018
  0.14438600D-17  0.26911693D-17  0.45633314D-17  0.69068146D-17  0.86176881D-17
  0.74014448D-17  0.28415586D-17 -0.12710466D-19  0.19355350D-18  0.36301439D-18
  0.61885996D-18  0.96715766D-18  0.12932741D-17  0.13809152D-17  0.84426447D-18
 -0.55699442D-18  0.16780356D-16 -0.11876812D-15 -0.39375109D-16  0.62029470D+00
  0.60147720D+00  0.40575297D+00 -0.13318223D+01 -0.12914196D+01 -0.87118406D+00
  0.80835849D-16  0.78383582D-16  0.52877101D-16  0.14696462D+00 -0.31554465D+00
  0.62648034D-16  0.27614186D-01 -0.59289812D-01  0.70149285D-16  0.11670785D-02
 -0.25058063D-02  0.50220935D-17  0.21316326D-16 -0.17257680D-16 -0.40586465D-17
  0.45695205D-16  0.98072933D-02 -0.21056991D-01  0.99971479D-19  0.30419605D-16
 -0.30519576D-16  0.29336159D-16  0.64775518D-02 -0.13907799D-01  0.81936711D-17
 -0.18977383D-17 -0.62959328D-17  0.71037631D-21  0.18757362D-05 -0.40266623D-05
  0.60411662D-02  0.11521153D-02  0.11660325D-16 -0.17336309D-01 -0.51465007D-02
 -0.30759171D-16 -0.78718970D-03  0.16901548D-02 -0.42218036D-17  0.29293873D-16
  0.69385644D-03 -0.41334310D-03  0.36878564D-17 -0.10879315D-02 -0.89339320D-03
  0.15489473D-17 -0.99363780D-03  0.21334225D-02 -0.12612517D-16 -0.44105318D-16
 -0.82794498D-17 -0.15431829D-16 -0.26167269D-16 -0.39605381D-16 -0.49415952D-16
 -0.42441712D-16 -0.16294199D-16  0.72884950D-19  0.46055049D-17  0.86377386D-17
  0.14725451D-16  0.23013013D-16  0.30772784D-16  0.32858158D-16  0.20088834D-16
 -0.13253392D-16 -0.61856010D-17  0.11532132D-15  0.49179236D-16 -0.62029470D+00
 -0.60147720D+00 -0.40575297D+00  0.13318223D+01  0.12914196D+01  0.87118406D+00
 -0.11928916D-15 -0.11567036D-15 -0.78030544D-16 -0.14696462D+00  0.31554465D+00
  0.13713134D-16 -0.27614186D-01  0.59289812D-01  0.59079243D-16 -0.11670785D-02
  0.25058063D-02  0.49755067D-18 -0.37056420D-17  0.19999626D-16 -0.16293984D-16
 -0.75524892D-16  0.98072933D-02 -0.21056991D-01 -0.13086228D-17 -0.27323079D-16
  0.28631701D-16 -0.98246991D-16  0.64775518D-02 -0.13907799D-01 -0.65785926D-17
 -0.37829568D-17  0.10361549D-16 -0.21901966D-17  0.18757362D-05 -0.40266623D-05
 -0.60411662D-02 -0.11521153D-02  0.19091215D-16  0.17336309D-01  0.51465007D-02
 -0.29569194D-17  0.78718970D-03 -0.16901548D-02 -0.54316724D-16 -0.21012280D-16
 -0.69385644D-03  0.41334310D-03  0.56590719D-17  0.10879315D-02  0.89339320D-03
 -0.67056710D-17  0.99363780D-03 -0.21334225D-02 -0.10271545D-16 -0.95128711D-16
END DATA
RHF
