 Molden2AIM, Version 4.0.0 (06/02/2016)           Time: Sun Jul  1 16:15:13 2018
GAUSSIAN             34 MOL ORBITALS    526 PRIMITIVES        2 NUCLEI
  Se   1    (CENTRE  1)   0.00000000  0.00000000  2.04500114  CHARGE = 34.0
  Se   2    (CENTRE  2)   0.00000000  0.00000000 -2.04500114  CHARGE = 34.0
CENTRE ASSIGNMENTS    1  1  1  1  1  1  1  1  1  1  1  1  1  1  1  1  1  1  1  1
CENTRE ASSIGNMENTS    1  1  1  1  1  1  1  1  1  1  1  1  1  1  1  1  1  1  1  1
CENTRE ASSIGNMENTS    1  1  1  1  1  1  1  1  1  1  1  1  1  1  1  1  1  1  1  1
CENTRE ASSIGNMENTS    1  1  1  1  1  1  1  1  1  1  1  1  1  1  1  1  1  1  1  1
CENTRE ASSIGNMENTS    1  1  1  1  1  1  1  1  1  1  1  1  1  1  1  1  1  1  1  1
CENTRE ASSIGNMENTS    1  1  1  1  1  1  1  1  1  1  1  1  1  1  1  1  1  1  1  1
CENTRE ASSIGNMENTS    1  1  1  1  1  1  1  1  1  1  1  1  1  1  1  1  1  1  1  1
CENTRE ASSIGNMENTS    1  1  1  1  1  1  1  1  1  1  1  1  1  1  1  1  1  1  1  1
CENTRE ASSIGNMENTS    1  1  1  1  1  1  1  1  1  1  1  1  1  1  1  1  1  1  1  1
CENTRE ASSIGNMENTS    1  1  1  1  1  1  1  1  1  1  1  1  1  1  1  1  1  1  1  1
CENTRE ASSIGNMENTS    1  1  1  1  1  1  1  1  1  1  1  1  1  1  1  1  1  1  1  1
CENTRE ASSIGNMENTS    1  1  1  1  1  1  1  1  1  1  1  1  1  1  1  1  1  1  1  1
CENTRE ASSIGNMENTS    1  1  1  1  1  1  1  1  1  1  1  1  1  1  1  1  1  1  1  1
CENTRE ASSIGNMENTS    1  1  1  2  2  2  2  2  2  2  2  2  2  2  2  2  2  2  2  2
CENTRE ASSIGNMENTS    2  2  2  2  2  2  2  2  2  2  2  2  2  2  2  2  2  2  2  2
CENTRE ASSIGNMENTS    2  2  2  2  2  2  2  2  2  2  2  2  2  2  2  2  2  2  2  2
CENTRE ASSIGNMENTS    2  2  2  2  2  2  2  2  2  2  2  2  2  2  2  2  2  2  2  2
CENTRE ASSIGNMENTS    2  2  2  2  2  2  2  2  2  2  2  2  2  2  2  2  2  2  2  2
CENTRE ASSIGNMENTS    2  2  2  2  2  2  2  2  2  2  2  2  2  2  2  2  2  2  2  2
CENTRE ASSIGNMENTS    2  2  2  2  2  2  2  2  2  2  2  2  2  2  2  2  2  2  2  2
CENTRE ASSIGNMENTS    2  2  2  2  2  2  2  2  2  2  2  2  2  2  2  2  2  2  2  2
CENTRE ASSIGNMENTS    2  2  2  2  2  2  2  2  2  2  2  2  2  2  2  2  2  2  2  2
CENTRE ASSIGNMENTS    2  2  2  2  2  2  2  2  2  2  2  2  2  2  2  2  2  2  2  2
CENTRE ASSIGNMENTS    2  2  2  2  2  2  2  2  2  2  2  2  2  2  2  2  2  2  2  2
CENTRE ASSIGNMENTS    2  2  2  2  2  2  2  2  2  2  2  2  2  2  2  2  2  2  2  2
CENTRE ASSIGNMENTS    2  2  2  2  2  2  2  2  2  2  2  2  2  2  2  2  2  2  2  2
CENTRE ASSIGNMENTS    2  2  2  2  2  2
TYPE ASSIGNMENTS      1  1  1  1  1  1  1  1  1  1  1  1  1  1  1  1  1  1  1  1
TYPE ASSIGNMENTS      1  1  1  1  1  1  1  1  1  1  1  1  1  1  1  1  1  1  1  1
TYPE ASSIGNMENTS      1  1  1  1  1  1  1  1  1  1  1  1  1  1  1  1  1  1  1  1
TYPE ASSIGNMENTS      1  1  1  1  1  1  1  1  1  1  1  1  1  1  1  2  2  2  2  2
TYPE ASSIGNMENTS      2  2  2  2  2  2  3  3  3  3  3  3  3  3  3  3  3  4  4  4
TYPE ASSIGNMENTS      4  4  4  4  4  4  4  4  2  2  2  2  2  2  2  2  2  2  2  3
TYPE ASSIGNMENTS      3  3  3  3  3  3  3  3  3  3  4  4  4  4  4  4  4  4  4  4
TYPE ASSIGNMENTS      4  2  2  2  2  2  2  2  2  2  2  2  3  3  3  3  3  3  3  3
TYPE ASSIGNMENTS      3  3  3  4  4  4  4  4  4  4  4  4  4  4  2  3  4  2  3  4
TYPE ASSIGNMENTS      2  3  4  5  5  5  5  5  5  5  6  6  6  6  6  6  6  7  7  7
TYPE ASSIGNMENTS      7  7  7  7  8  8  8  8  8  8  8  9  9  9  9  9  9  9 10 10
TYPE ASSIGNMENTS     10 10 10 10 10  5  6  7  8  9 10  5  6  7  8  9 10  5  6  7
TYPE ASSIGNMENTS      8  9 10 11 12 13 17 14 15 18 19 16 20 11 12 13 17 14 15 18
TYPE ASSIGNMENTS     19 16 20  1  1  1  1  1  1  1  1  1  1  1  1  1  1  1  1  1
TYPE ASSIGNMENTS      1  1  1  1  1  1  1  1  1  1  1  1  1  1  1  1  1  1  1  1
TYPE ASSIGNMENTS      1  1  1  1  1  1  1  1  1  1  1  1  1  1  1  1  1  1  1  1
TYPE ASSIGNMENTS      1  1  1  1  1  1  1  1  1  1  1  1  1  1  1  1  1  1  2  2
TYPE ASSIGNMENTS      2  2  2  2  2  2  2  2  2  3  3  3  3  3  3  3  3  3  3  3
TYPE ASSIGNMENTS      4  4  4  4  4  4  4  4  4  4  4  2  2  2  2  2  2  2  2  2
TYPE ASSIGNMENTS      2  2  3  3  3  3  3  3  3  3  3  3  3  4  4  4  4  4  4  4
TYPE ASSIGNMENTS      4  4  4  4  2  2  2  2  2  2  2  2  2  2  2  3  3  3  3  3
TYPE ASSIGNMENTS      3  3  3  3  3  3  4  4  4  4  4  4  4  4  4  4  4  2  3  4
TYPE ASSIGNMENTS      2  3  4  2  3  4  5  5  5  5  5  5  5  6  6  6  6  6  6  6
TYPE ASSIGNMENTS      7  7  7  7  7  7  7  8  8  8  8  8  8  8  9  9  9  9  9  9
TYPE ASSIGNMENTS      9 10 10 10 10 10 10 10  5  6  7  8  9 10  5  6  7  8  9 10
TYPE ASSIGNMENTS      5  6  7  8  9 10 11 12 13 17 14 15 18 19 16 20 11 12 13 17
TYPE ASSIGNMENTS     14 15 18 19 16 20
EXPONENTS  0.9563600D+07 0.1432100D+07 0.3259100D+06 0.9231200D+05 0.3011600D+05
EXPONENTS  0.1087200D+05 0.4240100D+04 0.1758400D+04 0.7665900D+03 0.3484300D+03
EXPONENTS  0.1640300D+03 0.7914200D+02 0.3552400D+02 0.1730500D+02 0.8378400D+01
EXPONENTS  0.3740500D+01 0.1689000D+01 0.2552000D+00 0.9563600D+07 0.1432100D+07
EXPONENTS  0.3259100D+06 0.9231200D+05 0.3011600D+05 0.1087200D+05 0.4240100D+04
EXPONENTS  0.1758400D+04 0.7665900D+03 0.3484300D+03 0.1640300D+03 0.7914200D+02
EXPONENTS  0.3552400D+02 0.1730500D+02 0.8378400D+01 0.3740500D+01 0.1689000D+01
EXPONENTS  0.2552000D+00 0.9563600D+07 0.1432100D+07 0.3259100D+06 0.9231200D+05
EXPONENTS  0.3011600D+05 0.1087200D+05 0.4240100D+04 0.1758400D+04 0.7665900D+03
EXPONENTS  0.3484300D+03 0.1640300D+03 0.7914200D+02 0.3552400D+02 0.1730500D+02
EXPONENTS  0.8378400D+01 0.3740500D+01 0.1689000D+01 0.2552000D+00 0.9563600D+07
EXPONENTS  0.1432100D+07 0.3259100D+06 0.9231200D+05 0.3011600D+05 0.1087200D+05
EXPONENTS  0.4240100D+04 0.1758400D+04 0.7665900D+03 0.3484300D+03 0.1640300D+03
EXPONENTS  0.7914200D+02 0.3552400D+02 0.1730500D+02 0.8378400D+01 0.3740500D+01
EXPONENTS  0.1689000D+01 0.2552000D+00 0.5092700D+00 0.1065100D+00 0.3920100D-01
EXPONENTS  0.8004300D+04 0.1896900D+04 0.6147100D+03 0.2335000D+03 0.9785600D+02
EXPONENTS  0.4351400D+02 0.2006300D+02 0.9112700D+01 0.4106300D+01 0.1794900D+01
EXPONENTS  0.2461500D+00 0.8004300D+04 0.1896900D+04 0.6147100D+03 0.2335000D+03
EXPONENTS  0.9785600D+02 0.4351400D+02 0.2006300D+02 0.9112700D+01 0.4106300D+01
EXPONENTS  0.1794900D+01 0.2461500D+00 0.8004300D+04 0.1896900D+04 0.6147100D+03
EXPONENTS  0.2335000D+03 0.9785600D+02 0.4351400D+02 0.2006300D+02 0.9112700D+01
EXPONENTS  0.4106300D+01 0.1794900D+01 0.2461500D+00 0.8004300D+04 0.1896900D+04
EXPONENTS  0.6147100D+03 0.2335000D+03 0.9785600D+02 0.4351400D+02 0.2006300D+02
EXPONENTS  0.9112700D+01 0.4106300D+01 0.1794900D+01 0.2461500D+00 0.8004300D+04
EXPONENTS  0.1896900D+04 0.6147100D+03 0.2335000D+03 0.9785600D+02 0.4351400D+02
EXPONENTS  0.2006300D+02 0.9112700D+01 0.4106300D+01 0.1794900D+01 0.2461500D+00
EXPONENTS  0.8004300D+04 0.1896900D+04 0.6147100D+03 0.2335000D+03 0.9785600D+02
EXPONENTS  0.4351400D+02 0.2006300D+02 0.9112700D+01 0.4106300D+01 0.1794900D+01
EXPONENTS  0.2461500D+00 0.8004300D+04 0.1896900D+04 0.6147100D+03 0.2335000D+03
EXPONENTS  0.9785600D+02 0.4351400D+02 0.2006300D+02 0.9112700D+01 0.4106300D+01
EXPONENTS  0.1794900D+01 0.2461500D+00 0.8004300D+04 0.1896900D+04 0.6147100D+03
EXPONENTS  0.2335000D+03 0.9785600D+02 0.4351400D+02 0.2006300D+02 0.9112700D+01
EXPONENTS  0.4106300D+01 0.1794900D+01 0.2461500D+00 0.8004300D+04 0.1896900D+04
EXPONENTS  0.6147100D+03 0.2335000D+03 0.9785600D+02 0.4351400D+02 0.2006300D+02
EXPONENTS  0.9112700D+01 0.4106300D+01 0.1794900D+01 0.2461500D+00 0.6243200D+00
EXPONENTS  0.6243200D+00 0.6243200D+00 0.8891700D-01 0.8891700D-01 0.8891700D-01
EXPONENTS  0.3025100D-01 0.3025100D-01 0.3025100D-01 0.3618500D+03 0.1085500D+03
EXPONENTS  0.4143300D+02 0.1757900D+02 0.7862700D+01 0.3518000D+01 0.1534800D+01
EXPONENTS  0.3618500D+03 0.1085500D+03 0.4143300D+02 0.1757900D+02 0.7862700D+01
EXPONENTS  0.3518000D+01 0.1534800D+01 0.3618500D+03 0.1085500D+03 0.4143300D+02
EXPONENTS  0.1757900D+02 0.7862700D+01 0.3518000D+01 0.1534800D+01 0.3618500D+03
EXPONENTS  0.1085500D+03 0.4143300D+02 0.1757900D+02 0.7862700D+01 0.3518000D+01
EXPONENTS  0.1534800D+01 0.3618500D+03 0.1085500D+03 0.4143300D+02 0.1757900D+02
EXPONENTS  0.7862700D+01 0.3518000D+01 0.1534800D+01 0.3618500D+03 0.1085500D+03
EXPONENTS  0.4143300D+02 0.1757900D+02 0.7862700D+01 0.3518000D+01 0.1534800D+01
EXPONENTS  0.6081300D+00 0.6081300D+00 0.6081300D+00 0.6081300D+00 0.6081300D+00
EXPONENTS  0.6081300D+00 0.2220000D+00 0.2220000D+00 0.2220000D+00 0.2220000D+00
EXPONENTS  0.2220000D+00 0.2220000D+00 0.8370000D-01 0.8370000D-01 0.8370000D-01
EXPONENTS  0.8370000D-01 0.8370000D-01 0.8370000D-01 0.4620000D+00 0.4620000D+00
EXPONENTS  0.4620000D+00 0.4620000D+00 0.4620000D+00 0.4620000D+00 0.4620000D+00
EXPONENTS  0.4620000D+00 0.4620000D+00 0.4620000D+00 0.1880000D+00 0.1880000D+00
EXPONENTS  0.1880000D+00 0.1880000D+00 0.1880000D+00 0.1880000D+00 0.1880000D+00
EXPONENTS  0.1880000D+00 0.1880000D+00 0.1880000D+00 0.9563600D+07 0.1432100D+07
EXPONENTS  0.3259100D+06 0.9231200D+05 0.3011600D+05 0.1087200D+05 0.4240100D+04
EXPONENTS  0.1758400D+04 0.7665900D+03 0.3484300D+03 0.1640300D+03 0.7914200D+02
EXPONENTS  0.3552400D+02 0.1730500D+02 0.8378400D+01 0.3740500D+01 0.1689000D+01
EXPONENTS  0.2552000D+00 0.9563600D+07 0.1432100D+07 0.3259100D+06 0.9231200D+05
EXPONENTS  0.3011600D+05 0.1087200D+05 0.4240100D+04 0.1758400D+04 0.7665900D+03
EXPONENTS  0.3484300D+03 0.1640300D+03 0.7914200D+02 0.3552400D+02 0.1730500D+02
EXPONENTS  0.8378400D+01 0.3740500D+01 0.1689000D+01 0.2552000D+00 0.9563600D+07
EXPONENTS  0.1432100D+07 0.3259100D+06 0.9231200D+05 0.3011600D+05 0.1087200D+05
EXPONENTS  0.4240100D+04 0.1758400D+04 0.7665900D+03 0.3484300D+03 0.1640300D+03
EXPONENTS  0.7914200D+02 0.3552400D+02 0.1730500D+02 0.8378400D+01 0.3740500D+01
EXPONENTS  0.1689000D+01 0.2552000D+00 0.9563600D+07 0.1432100D+07 0.3259100D+06
EXPONENTS  0.9231200D+05 0.3011600D+05 0.1087200D+05 0.4240100D+04 0.1758400D+04
EXPONENTS  0.7665900D+03 0.3484300D+03 0.1640300D+03 0.7914200D+02 0.3552400D+02
EXPONENTS  0.1730500D+02 0.8378400D+01 0.3740500D+01 0.1689000D+01 0.2552000D+00
EXPONENTS  0.5092700D+00 0.1065100D+00 0.3920100D-01 0.8004300D+04 0.1896900D+04
EXPONENTS  0.6147100D+03 0.2335000D+03 0.9785600D+02 0.4351400D+02 0.2006300D+02
EXPONENTS  0.9112700D+01 0.4106300D+01 0.1794900D+01 0.2461500D+00 0.8004300D+04
EXPONENTS  0.1896900D+04 0.6147100D+03 0.2335000D+03 0.9785600D+02 0.4351400D+02
EXPONENTS  0.2006300D+02 0.9112700D+01 0.4106300D+01 0.1794900D+01 0.2461500D+00
EXPONENTS  0.8004300D+04 0.1896900D+04 0.6147100D+03 0.2335000D+03 0.9785600D+02
EXPONENTS  0.4351400D+02 0.2006300D+02 0.9112700D+01 0.4106300D+01 0.1794900D+01
EXPONENTS  0.2461500D+00 0.8004300D+04 0.1896900D+04 0.6147100D+03 0.2335000D+03
EXPONENTS  0.9785600D+02 0.4351400D+02 0.2006300D+02 0.9112700D+01 0.4106300D+01
EXPONENTS  0.1794900D+01 0.2461500D+00 0.8004300D+04 0.1896900D+04 0.6147100D+03
EXPONENTS  0.2335000D+03 0.9785600D+02 0.4351400D+02 0.2006300D+02 0.9112700D+01
EXPONENTS  0.4106300D+01 0.1794900D+01 0.2461500D+00 0.8004300D+04 0.1896900D+04
EXPONENTS  0.6147100D+03 0.2335000D+03 0.9785600D+02 0.4351400D+02 0.2006300D+02
EXPONENTS  0.9112700D+01 0.4106300D+01 0.1794900D+01 0.2461500D+00 0.8004300D+04
EXPONENTS  0.1896900D+04 0.6147100D+03 0.2335000D+03 0.9785600D+02 0.4351400D+02
EXPONENTS  0.2006300D+02 0.9112700D+01 0.4106300D+01 0.1794900D+01 0.2461500D+00
EXPONENTS  0.8004300D+04 0.1896900D+04 0.6147100D+03 0.2335000D+03 0.9785600D+02
EXPONENTS  0.4351400D+02 0.2006300D+02 0.9112700D+01 0.4106300D+01 0.1794900D+01
EXPONENTS  0.2461500D+00 0.8004300D+04 0.1896900D+04 0.6147100D+03 0.2335000D+03
EXPONENTS  0.9785600D+02 0.4351400D+02 0.2006300D+02 0.9112700D+01 0.4106300D+01
EXPONENTS  0.1794900D+01 0.2461500D+00 0.6243200D+00 0.6243200D+00 0.6243200D+00
EXPONENTS  0.8891700D-01 0.8891700D-01 0.8891700D-01 0.3025100D-01 0.3025100D-01
EXPONENTS  0.3025100D-01 0.3618500D+03 0.1085500D+03 0.4143300D+02 0.1757900D+02
EXPONENTS  0.7862700D+01 0.3518000D+01 0.1534800D+01 0.3618500D+03 0.1085500D+03
EXPONENTS  0.4143300D+02 0.1757900D+02 0.7862700D+01 0.3518000D+01 0.1534800D+01
EXPONENTS  0.3618500D+03 0.1085500D+03 0.4143300D+02 0.1757900D+02 0.7862700D+01
EXPONENTS  0.3518000D+01 0.1534800D+01 0.3618500D+03 0.1085500D+03 0.4143300D+02
EXPONENTS  0.1757900D+02 0.7862700D+01 0.3518000D+01 0.1534800D+01 0.3618500D+03
EXPONENTS  0.1085500D+03 0.4143300D+02 0.1757900D+02 0.7862700D+01 0.3518000D+01
EXPONENTS  0.1534800D+01 0.3618500D+03 0.1085500D+03 0.4143300D+02 0.1757900D+02
EXPONENTS  0.7862700D+01 0.3518000D+01 0.1534800D+01 0.6081300D+00 0.6081300D+00
EXPONENTS  0.6081300D+00 0.6081300D+00 0.6081300D+00 0.6081300D+00 0.2220000D+00
EXPONENTS  0.2220000D+00 0.2220000D+00 0.2220000D+00 0.2220000D+00 0.2220000D+00
EXPONENTS  0.8370000D-01 0.8370000D-01 0.8370000D-01 0.8370000D-01 0.8370000D-01
EXPONENTS  0.8370000D-01 0.4620000D+00 0.4620000D+00 0.4620000D+00 0.4620000D+00
EXPONENTS  0.4620000D+00 0.4620000D+00 0.4620000D+00 0.4620000D+00 0.4620000D+00
EXPONENTS  0.4620000D+00 0.1880000D+00 0.1880000D+00 0.1880000D+00 0.1880000D+00
EXPONENTS  0.1880000D+00 0.1880000D+00 0.1880000D+00 0.1880000D+00 0.1880000D+00
EXPONENTS  0.1880000D+00
MO    1     MO 0.0        OCC NO =    2.0000000  ORB. ENERGY = -456.511671
  0.54315563D+00  0.10148610D+01  0.17601492D+01  0.28835741D+01  0.45154480D+01
  0.67809988D+01  0.96716459D+01  0.12778204D+02  0.14736410D+02  0.13263241D+02
  0.74410082D+01  0.17989035D+01  0.85403023D-01 -0.14615024D-02  0.41105765D-03
 -0.16018851D-03  0.15152004D-04  0.14940195D-05  0.34349395D-04  0.63254945D-04
  0.10979469D-03  0.17982314D-03  0.28303335D-03  0.42720136D-03  0.62273515D-03
  0.85514618D-03  0.10860248D-02  0.11695798D-02  0.93306876D-03  0.20899996D-03
 -0.55886120D-03 -0.49698096D-03 -0.97062398D-04 -0.26888281D-05 -0.19471579D-06
 -0.39766291D-08 -0.25765643D-04 -0.46517482D-04 -0.80978078D-04 -0.13260502D-03
 -0.20905937D-03 -0.31546483D-03 -0.46170626D-03 -0.63617055D-03 -0.81955812D-03
 -0.90207578D-03 -0.75940153D-03 -0.18084068D-03  0.60914094D-03  0.81393999D-03
  0.99994191D-04 -0.34939329D-03 -0.15423441D-03  0.76543763D-06  0.86814565D-05
  0.18808279D-04  0.32018631D-04  0.52265718D-04  0.82399148D-04  0.12434494D-03
  0.18198938D-03  0.25104294D-03  0.32381914D-03  0.35798725D-03  0.30318866D-03
  0.73646539D-04 -0.25551010D-03 -0.36062320D-03 -0.43027315D-04  0.20221848D-03
  0.16164442D-03 -0.61238552D-04  0.55127357D-04  0.48255205D-04  0.12323683D-04
  0.10220112D-13  0.14647790D-13  0.19342969D-13  0.22233767D-13  0.20453676D-13
  0.13084777D-13  0.45291488D-14  0.50918463D-15  0.64780696D-17  0.11225375D-17
  0.11471112D-19 -0.81014434D-15 -0.11611247D-14 -0.15333098D-14 -0.17624623D-14
 -0.16213551D-14 -0.10372253D-14 -0.35902390D-15 -0.40362871D-16 -0.51351411D-18
 -0.88983121D-19 -0.90931066D-21 -0.90818118D-04 -0.13016343D-03 -0.17188580D-03
 -0.19757406D-03 -0.18175578D-03 -0.11627415D-03 -0.40246994D-04 -0.45247246D-05
 -0.57565525D-07 -0.99751108D-08 -0.10193478D-09  0.87275277D-16  0.12588771D-15
  0.16766614D-15  0.19842671D-15  0.19068062D-15  0.13106507D-15  0.41265151D-16
 -0.19943075D-16 -0.20466422D-16 -0.51542047D-17  0.56195369D-20 -0.97931466D-15
 -0.14125842D-14 -0.18813794D-14 -0.22265434D-14 -0.21396246D-14 -0.14706793D-14
 -0.46303568D-15  0.22378096D-15  0.22965344D-15  0.57835258D-16 -0.63056745D-19
 -0.24746312D-03 -0.35694605D-03 -0.47540596D-03 -0.56262547D-03 -0.54066194D-03
 -0.37162611D-03 -0.11700453D-03  0.56547234D-04  0.58031150D-04  0.14614397D-04
 -0.15933815D-07  0.10873245D-15  0.15762803D-15  0.20921178D-15  0.24967425D-15
  0.23987768D-15  0.16790159D-15  0.50696393D-16 -0.31033755D-16 -0.33376250D-16
 -0.89759652D-17  0.33459471D-17  0.58447642D-16  0.84730786D-16  0.11245893D-15
  0.13420897D-15  0.12894296D-15  0.90253199D-16  0.27251151D-16 -0.16681770D-16
 -0.17940946D-16 -0.48249072D-17  0.17985680D-17  0.15659012D-03  0.22700666D-03
  0.30129457D-03  0.35956624D-03  0.34545780D-03  0.24180204D-03  0.73009979D-04
 -0.44692999D-04 -0.48066522D-04 -0.12926660D-04  0.48186372D-05 -0.33405015D-16
 -0.68361226D-17 -0.64355032D-05 -0.15725038D-17  0.94344818D-19 -0.16702305D-04
 -0.16505745D-20  0.24286821D-19 -0.68441991D-06 -0.33587127D-04 -0.34765886D-04
 -0.29087478D-04 -0.18769683D-04 -0.84315982D-05 -0.24618902D-05 -0.41533597D-06
 -0.53924598D-04 -0.55817112D-04 -0.46700349D-04 -0.30134987D-04 -0.13537048D-04
 -0.39525989D-05 -0.66682766D-06  0.87511726D-04  0.90582998D-04  0.75787827D-04
  0.48904670D-04  0.21968646D-04  0.64144891D-05  0.10821636D-05  0.42952818D-04
  0.44460271D-04  0.37198452D-04  0.24003565D-04  0.10782729D-04  0.31483825D-05
  0.53115142D-06  0.24167829D-16  0.25016013D-16  0.20930078D-16  0.13505844D-16
  0.60670097D-17  0.17714686D-17  0.29885762D-18 -0.62595809D-16 -0.64792644D-16
 -0.54209883D-16 -0.34980768D-16 -0.15713839D-16 -0.45881867D-17 -0.77405522D-18
  0.15460069D-05  0.16817687D-05 -0.32277757D-05 -0.28672990D-06 -0.23651506D-17
  0.46723205D-18 -0.45275152D-06 -0.46346491D-06  0.91621643D-06  0.22626750D-07
  0.24406679D-17  0.84110398D-19 -0.72236503D-06 -0.72141928D-06  0.14437843D-05
 -0.19974230D-08  0.41775304D-18 -0.53190663D-19  0.98695442D-18  0.15743510D-18
  0.16558464D-05  0.98746756D-18  0.15661399D-18 -0.24843885D-05 -0.39483308D-17
 -0.62891930D-18 -0.24831508D-05 -0.26142995D-08  0.90981177D-19 -0.29259404D-20
 -0.26602731D-06  0.90933461D-19 -0.28642917D-20  0.39870323D-06 -0.36387699D-18
  0.11642113D-19  0.39937869D-06 -0.14265853D-08 -0.54883601D+00 -0.10254745D+01
 -0.17785571D+01 -0.29137308D+01 -0.45626711D+01 -0.68519152D+01 -0.97727930D+01
 -0.12911839D+02 -0.14890525D+02 -0.13401950D+02 -0.75188271D+01 -0.18177167D+01
 -0.86296177D-01  0.14767870D-02 -0.41535654D-03  0.16186378D-03 -0.15310466D-04
 -0.15096442D-05 -0.34667323D-04 -0.63840415D-04 -0.11081092D-03 -0.18148753D-03
 -0.28565303D-03 -0.43115542D-03 -0.62849901D-03 -0.86306117D-03 -0.10960767D-02
 -0.11804051D-02 -0.94170499D-03 -0.21093441D-03  0.56403386D-03  0.50158088D-03
  0.97960780D-04  0.27137152D-05  0.19651802D-06  0.40134357D-08  0.25976546D-04
  0.46898248D-04  0.81640919D-04  0.13369045D-03  0.21077061D-03  0.31804705D-03
  0.46548553D-03  0.64137789D-03  0.82626657D-03  0.90945967D-03  0.76561756D-03
  0.18232094D-03 -0.61412702D-03 -0.82060245D-03 -0.10081269D-03  0.35225323D-03
  0.15549688D-03 -0.77170307D-06 -0.87474282D-05 -0.18951206D-04 -0.32261945D-04
 -0.52662893D-04 -0.83025311D-04 -0.12528986D-03 -0.18337234D-03 -0.25295065D-03
 -0.32627989D-03 -0.36070765D-03 -0.30549263D-03 -0.74206190D-04  0.25745176D-03
  0.36336363D-03  0.43354286D-04 -0.20375517D-03 -0.16287278D-03  0.61703913D-04
 -0.55614767D-04 -0.48330190D-04 -0.12322870D-04  0.65580771D-14  0.93992454D-14
  0.12412064D-13  0.14267042D-13  0.13124787D-13  0.83962857D-14  0.29062801D-14
  0.32673538D-15  0.41568705D-17  0.72031382D-18  0.73608234D-20  0.31131934D-14
  0.44619281D-14  0.58921472D-14  0.67727262D-14  0.62304847D-14  0.39858118D-14
  0.13796440D-14  0.15510498D-15  0.19733134D-17  0.34194111D-18  0.34942661D-20
 -0.91654115D-04 -0.13136160D-03 -0.17346804D-03 -0.19939276D-03 -0.18342888D-03
 -0.11734448D-03 -0.40617475D-04 -0.45663755D-05 -0.58095426D-07 -0.10066933D-07
 -0.10287310D-09  0.25172715D-15  0.36309658D-15  0.48359767D-15  0.57232005D-15
  0.54997808D-15  0.37802959D-15  0.11902063D-15 -0.57521598D-16 -0.59031084D-16
 -0.14866218D-16  0.16208370D-19 -0.70229553D-15 -0.10130060D-14 -0.13491929D-14
 -0.15967201D-14 -0.15343881D-14 -0.10546677D-14 -0.33205659D-15  0.16047995D-15
  0.16469128D-15  0.41475376D-16 -0.45219858D-19 -0.25067372D-03 -0.36157709D-03
 -0.48157390D-03 -0.56992499D-03 -0.54767652D-03 -0.37644761D-03 -0.11852255D-03
  0.57280881D-04  0.58784049D-04  0.14804005D-04 -0.16140541D-07 -0.17099874D-15
 -0.24789465D-15 -0.32901815D-15 -0.39265168D-15 -0.37724505D-15 -0.26405143D-15
 -0.79727982D-16  0.48805419D-16  0.52489357D-16  0.14116105D-16 -0.52620235D-17
  0.76375574D-17  0.11072068D-16  0.14695401D-16  0.17537555D-16  0.16849427D-16
  0.11793701D-16  0.35610031D-17 -0.21798651D-17 -0.23444060D-17 -0.63048746D-18
  0.23502516D-18  0.15879640D-03  0.23020507D-03  0.30553966D-03  0.36463235D-03
  0.35032512D-03  0.24520891D-03  0.74038652D-04 -0.45322700D-04 -0.48743755D-04
 -0.13108790D-04  0.48865294D-05  0.10165837D-16 -0.47630300D-17 -0.64522844D-05
  0.32375467D-17 -0.31107504D-18 -0.16730269D-04 -0.14717736D-18 -0.58394291D-19
 -0.68498664D-06  0.33775782D-04  0.34961162D-04  0.29250859D-04  0.18875110D-04
  0.84789576D-05  0.24757184D-05  0.41766887D-06  0.54324392D-04  0.56230937D-04
  0.47046583D-04  0.30358406D-04  0.13637411D-04  0.39819032D-05  0.67177148D-06
 -0.88100175D-04 -0.91192099D-04 -0.76297442D-04 -0.49233516D-04 -0.22116368D-04
 -0.64576216D-05 -0.10894403D-05 -0.43398742D-04 -0.44921845D-04 -0.37584636D-04
 -0.24252763D-04 -0.10894673D-04 -0.31810681D-05 -0.53666569D-06  0.79076591D-17
  0.81851828D-17  0.68482743D-17  0.44190816D-17  0.19851119D-17  0.57962054D-18
  0.97785537D-19  0.15146463D-16  0.15678037D-16  0.13117300D-16  0.84643833D-17
  0.38023167D-17  0.11102149D-17  0.18730006D-18 -0.15637070D-05 -0.17008322D-05
  0.32645391D-05  0.28960948D-06 -0.31346990D-17  0.42121141D-18  0.45934423D-06
  0.47016035D-06 -0.92950458D-06 -0.22843728D-07  0.23515810D-17 -0.36845337D-18
  0.72529409D-06  0.72434173D-06 -0.14496358D-05  0.20113836D-08  0.53026554D-18
  0.60795370D-21 -0.49545985D-18 -0.16562066D-18  0.16649047D-05 -0.49567659D-18
 -0.16558555D-18 -0.24979958D-05  0.19820562D-17  0.66244754D-18 -0.24967184D-05
 -0.26978624D-08 -0.16768134D-18  0.59219886D-19 -0.27301125D-06 -0.16768109D-18
  0.59210383D-19  0.40917973D-06  0.67072511D-18 -0.23687004D-18  0.40985402D-06
 -0.14241013D-08
MO    2     MO 0.0        OCC NO =    2.0000000  ORB. ENERGY = -456.511671
  0.54883787D+00  0.10254780D+01  0.17785631D+01  0.29137407D+01  0.45626865D+01
  0.68519385D+01  0.97728261D+01  0.12911883D+02  0.14890575D+02  0.13401995D+02
  0.75188526D+01  0.18177228D+01  0.86296470D-01 -0.14767920D-02  0.41535795D-03
 -0.16186433D-03  0.15310518D-04  0.15096493D-05  0.30738761D-04  0.56605907D-04
  0.98253634D-04  0.16092105D-03  0.25328232D-03  0.38229613D-03  0.55727640D-03
  0.76525757D-03  0.97186737D-03  0.10466395D-02  0.83498933D-03  0.18703095D-03
 -0.50011655D-03 -0.44474085D-03 -0.86859693D-04 -0.24061922D-05 -0.17424826D-06
 -0.35586261D-08 -0.20406571D-04 -0.36842175D-04 -0.64135211D-04 -0.10502411D-03
 -0.16557650D-03 -0.24985038D-03 -0.36567462D-03 -0.50385158D-03 -0.64909584D-03
 -0.71445041D-03 -0.60145139D-03 -0.14322710D-03  0.48244394D-03  0.64464624D-03
  0.79196108D-04 -0.27672196D-03 -0.12215474D-03  0.60623202D-06  0.63865226D-05
  0.13836330D-04  0.23554539D-04  0.38449330D-04  0.60617019D-04  0.91474487D-04
  0.13388067D-03  0.18468000D-03  0.23821789D-03  0.26335369D-03  0.22304105D-03
  0.54178153D-04 -0.18796627D-03 -0.26529284D-03 -0.31653089D-04  0.14876224D-03
  0.11891389D-03 -0.45050205D-04  0.47137787D-04  0.74587215D-05 -0.14109791D-07
 -0.10226324D-13 -0.14656694D-13 -0.19354727D-13 -0.22247283D-13 -0.20466109D-13
 -0.13092731D-13 -0.45319020D-14 -0.50949415D-15 -0.64820075D-17 -0.11232199D-17
 -0.11478085D-19  0.81995544D-15  0.11751863D-14  0.15518786D-14  0.17838062D-14
  0.16409902D-14  0.10497864D-14  0.36337179D-15  0.40851678D-16  0.51973292D-18
  0.90060734D-19  0.92032269D-21 -0.80830493D-04 -0.11584884D-03 -0.15298284D-03
 -0.17584606D-03 -0.16176739D-03 -0.10348703D-03 -0.35820874D-04 -0.40271228D-05
 -0.51234819D-07 -0.88781087D-08 -0.90724609D-10 -0.86659660D-16 -0.12499973D-15
 -0.16648347D-15 -0.19702706D-15 -0.18933561D-15 -0.13014057D-15 -0.40974077D-16
  0.19802402D-16  0.20322057D-16  0.51178482D-17 -0.55798981D-20  0.97124077D-15
  0.14009383D-14  0.18658685D-14  0.22081868D-14  0.21219846D-14  0.14585544D-14
  0.45921821D-15 -0.22193602D-15 -0.22776007D-15 -0.57358439D-16  0.62536878D-19
 -0.30989838D-03 -0.44700399D-03 -0.59535148D-03 -0.70457658D-03 -0.67707163D-03
 -0.46538785D-03 -0.14652492D-03  0.70814173D-04  0.72672482D-04  0.18301628D-04
 -0.19953937D-07 -0.10734855D-15 -0.15562180D-15 -0.20654902D-15 -0.24649650D-15
 -0.23682462D-15 -0.16576461D-15 -0.50051150D-16  0.30638771D-16  0.32951451D-16
  0.88617229D-17 -0.33033612D-17 -0.58436111D-16 -0.84714070D-16 -0.11243674D-15
 -0.13418249D-15 -0.12891752D-15 -0.90235393D-16 -0.27245775D-16  0.16678479D-16
  0.17937406D-16  0.48239553D-17 -0.17982132D-17  0.21288754D-03  0.30862030D-03
  0.40961626D-03  0.48883781D-03  0.46965709D-03  0.32873493D-03  0.99258591D-04
 -0.60761065D-04 -0.65347441D-04 -0.17574064D-04  0.65510379D-05  0.33055588D-16
  0.68236707D-17 -0.16465320D-05  0.15551327D-17 -0.91417447D-19 -0.27748193D-05
  0.17473735D-20 -0.24219150D-19 -0.58035775D-07 -0.18308771D-04 -0.18951327D-04
 -0.15855955D-04 -0.10231593D-04 -0.45961716D-05 -0.13420077D-05 -0.22640493D-06
 -0.38709707D-04 -0.40068246D-04 -0.33523789D-04 -0.21632363D-04 -0.97175533D-05
 -0.28373683D-05 -0.47868142D-06  0.57018478D-04  0.59019573D-04  0.49379743D-04
  0.31863957D-04  0.14313725D-04  0.41793760D-05  0.70508635D-06  0.43086856D-04
  0.44599014D-04  0.37314534D-04  0.24078470D-04  0.10816378D-04  0.31582073D-05
  0.53280893D-06 -0.25872194D-16 -0.26780193D-16 -0.22406110D-16 -0.14458303D-16
 -0.64948676D-17 -0.18963962D-17 -0.31993366D-18  0.61410853D-16  0.63566101D-16
  0.53183674D-16  0.34318572D-16  0.15416372D-16  0.45013310D-17  0.75940214D-18
  0.17094128D-05  0.18411755D-05 -0.35505883D-05 -0.27828387D-06  0.23534301D-17
 -0.47360973D-18 -0.63606293D-06 -0.64599385D-06  0.12820568D-05  0.20974177D-07
 -0.24190564D-17 -0.79297093D-19 -0.28530693D-06 -0.28466662D-06  0.56997355D-06
 -0.13523242D-08 -0.41330902D-18  0.52530054D-19 -0.97718726D-18 -0.15538737D-18
  0.87932174D-06 -0.97751619D-18 -0.15521080D-18 -0.13208874D-05  0.39090780D-17
  0.62137291D-18 -0.13170778D-05 -0.80458788D-08 -0.90114008D-19  0.30078542D-20
 -0.67269832D-06 -0.90091479D-19  0.29695998D-20  0.10091022D-05  0.36043350D-18
 -0.11993162D-19  0.10089927D-05  0.23134091D-09  0.54315751D+00  0.10148645D+01
  0.17601553D+01  0.28835841D+01  0.45154637D+01  0.67810223D+01  0.96716794D+01
  0.12778248D+02  0.14736461D+02  0.13263287D+02  0.74410340D+01  0.17989098D+01
  0.85403319D-01 -0.14615075D-02  0.41105908D-03 -0.16018907D-03  0.15152057D-04
  0.14940247D-05  0.30379748D-04  0.55944778D-04  0.97106080D-04  0.15904157D-03
  0.25032411D-03  0.37783110D-03  0.55076769D-03  0.75631974D-03  0.96051644D-03
  0.10344153D-02  0.82523707D-03  0.18484652D-03 -0.49427544D-03 -0.43954650D-03
 -0.85845215D-04 -0.23780891D-05 -0.17221312D-06 -0.35170631D-08 -0.20137417D-04
 -0.36356242D-04 -0.63289295D-04 -0.10363889D-03 -0.16339261D-03 -0.24655496D-03
 -0.36085153D-03 -0.49720599D-03 -0.64053453D-03 -0.70502710D-03 -0.59351849D-03
 -0.14133799D-03  0.47608070D-03  0.63614362D-03  0.78151544D-04 -0.27307211D-03
 -0.12054357D-03  0.59823607D-06  0.62958605D-05  0.13639912D-04  0.23220163D-04
  0.37903510D-04  0.59756509D-04  0.90175930D-04  0.13198013D-03  0.18205831D-03
  0.23483619D-03  0.25961516D-03  0.21987479D-03  0.53409049D-04 -0.18529793D-03
 -0.26152678D-03 -0.31203747D-04  0.14665043D-03  0.11722580D-03 -0.44410679D-04
  0.46561725D-04  0.69563019D-05 -0.14231644D-06 -0.63682761D-14 -0.91272166D-14
 -0.12052840D-13 -0.13854132D-13 -0.12744935D-13 -0.81532841D-14 -0.28221679D-14
 -0.31727915D-15 -0.40365642D-17 -0.69946681D-18 -0.71477896D-20 -0.30964512D-14
 -0.44379326D-14 -0.58604603D-14 -0.67363037D-14 -0.61969783D-14 -0.39643768D-14
 -0.13722246D-14 -0.15427085D-15 -0.19627013D-17 -0.34010222D-18 -0.34754746D-20
  0.79881308D-04  0.11448844D-03  0.15118638D-03  0.17378112D-03  0.15986777D-03
  0.10227179D-03  0.35400233D-04  0.39798327D-05  0.50633173D-07  0.87738539D-08
  0.89659239D-10 -0.24906142D-15 -0.35925148D-15 -0.47847649D-15 -0.56625933D-15
 -0.54415395D-15 -0.37402635D-15 -0.11776024D-15  0.56912459D-16  0.58405959D-16
  0.14708788D-16 -0.16036728D-19  0.69495152D-15  0.10024128D-14  0.13350842D-14
  0.15800230D-14  0.15183428D-14  0.10436389D-14  0.32858423D-15 -0.15880179D-15
 -0.16296908D-15 -0.41041661D-16  0.44746987D-19  0.30730713D-03  0.44326632D-03
  0.59037339D-03  0.69868519D-03  0.67141023D-03  0.46149646D-03  0.14529974D-03
 -0.70222052D-04 -0.72064824D-04 -0.18148597D-04  0.19787090D-07  0.16920870D-15
  0.24529965D-15  0.32557393D-15  0.38854134D-15  0.37329599D-15  0.26128729D-15
  0.78893376D-16 -0.48294516D-16 -0.51939889D-16 -0.13968335D-16  0.52069397D-17
 -0.75028019D-17 -0.10876714D-16 -0.14436118D-16 -0.17228126D-16 -0.16552139D-16
 -0.11585615D-16 -0.34981735D-17  0.21414040D-17  0.23030418D-17  0.61936327D-18
 -0.23087843D-18 -0.21124693D-03 -0.30624193D-03 -0.40645958D-03 -0.48507062D-03
 -0.46603771D-03 -0.32620155D-03 -0.98493661D-04  0.60292814D-04  0.64843845D-04
  0.17438631D-04 -0.65005527D-05 -0.10063826D-16  0.47116153D-17  0.15794914D-05
 -0.32045172D-17  0.30801225D-18  0.26009093D-05  0.14566987D-18  0.57814196D-19
  0.50912386D-07 -0.17958361D-04 -0.18588619D-04 -0.15552489D-04 -0.10035772D-04
 -0.45082058D-05 -0.13163231D-05 -0.22207178D-06 -0.38146614D-04 -0.39485391D-04
 -0.33036133D-04 -0.21317687D-04 -0.95761964D-05 -0.27960944D-05 -0.47171826D-06
  0.56104975D-04  0.58074010D-04  0.48588622D-04  0.31353459D-04  0.14084402D-04
  0.41124175D-05  0.69379004D-06  0.42637670D-04  0.44134063D-04  0.36925524D-04
  0.23827449D-04  0.10703616D-04  0.31252826D-05  0.52725432D-06 -0.79060735D-17
 -0.81835415D-17 -0.68469011D-17 -0.44181955D-17 -0.19847138D-17 -0.57950431D-18
 -0.97765929D-19 -0.14896957D-16 -0.15419774D-16 -0.12901220D-16 -0.83249504D-17
 -0.37396815D-17 -0.10919265D-17 -0.18421469D-18  0.16932366D-05  0.18235799D-05
 -0.35168165D-05 -0.27528584D-06  0.31068563D-17 -0.42168239D-18 -0.63131847D-06
 -0.64113740D-06  0.12724559D-05  0.20737647D-07 -0.23301267D-17  0.36794200D-18
 -0.27777647D-06 -0.27714604D-06  0.55492251D-06 -0.13314711D-08 -0.52476023D-18