 Molden2AIM, Version 4.0.0 (06/02/2016)           Time: Tue Jul  3 03:51:59 2018
GAUSSIAN             23 MOL ORBITALS    450 PRIMITIVES        6 NUCLEI
  B    1    (CENTRE  1)  -1.62729230  0.00000000  0.00000000  CHARGE =  5.0
  B    2    (CENTRE  2)   1.62729230  0.00000000  0.00000000  CHARGE =  5.0
  F    3    (CENTRE  3)  -2.94555579 -2.13878258  0.00000000  CHARGE =  9.0
  F    4    (CENTRE  4)   2.94555579 -2.13878258  0.00000000  CHARGE =  9.0
  F    5    (CENTRE  5)  -2.94555579  2.13878258  0.00000000  CHARGE =  9.0
  F    6    (CENTRE  6)   2.94555579  2.13878258  0.00000000  CHARGE =  9.0
CENTRE ASSIGNMENTS    1  1  1  1  1  1  1  1  1  1  1  1  1  1  1  1  1  1  1  1
CENTRE ASSIGNMENTS    1  1  1  1  1  1  1  1  1  1  1  1  1  1  1  1  1  1  1  1
CENTRE ASSIGNMENTS    1  1  1  1  1  1  1  1  1  1  1  1  1  1  1  1  1  1  1  1
CENTRE ASSIGNMENTS    1  1  1  1  1  1  1  1  1  1  1  1  1  1  1  2  2  2  2  2
CENTRE ASSIGNMENTS    2  2  2  2  2  2  2  2  2  2  2  2  2  2  2  2  2  2  2  2
CENTRE ASSIGNMENTS    2  2  2  2  2  2  2  2  2  2  2  2  2  2  2  2  2  2  2  2
CENTRE ASSIGNMENTS    2  2  2  2  2  2  2  2  2  2  2  2  2  2  2  2  2  2  2  2
CENTRE ASSIGNMENTS    2  2  2  2  2  2  2  2  2  2  3  3  3  3  3  3  3  3  3  3
CENTRE ASSIGNMENTS    3  3  3  3  3  3  3  3  3  3  3  3  3  3  3  3  3  3  3  3
CENTRE ASSIGNMENTS    3  3  3  3  3  3  3  3  3  3  3  3  3  3  3  3  3  3  3  3
CENTRE ASSIGNMENTS    3  3  3  3  3  3  3  3  3  3  3  3  3  3  3  3  3  3  3  3
CENTRE ASSIGNMENTS    3  3  3  3  3  4  4  4  4  4  4  4  4  4  4  4  4  4  4  4
CENTRE ASSIGNMENTS    4  4  4  4  4  4  4  4  4  4  4  4  4  4  4  4  4  4  4  4
CENTRE ASSIGNMENTS    4  4  4  4  4  4  4  4  4  4  4  4  4  4  4  4  4  4  4  4
CENTRE ASSIGNMENTS    4  4  4  4  4  4  4  4  4  4  4  4  4  4  4  4  4  4  4  4
CENTRE ASSIGNMENTS    5  5  5  5  5  5  5  5  5  5  5  5  5  5  5  5  5  5  5  5
CENTRE ASSIGNMENTS    5  5  5  5  5  5  5  5  5  5  5  5  5  5  5  5  5  5  5  5
CENTRE ASSIGNMENTS    5  5  5  5  5  5  5  5  5  5  5  5  5  5  5  5  5  5  5  5
CENTRE ASSIGNMENTS    5  5  5  5  5  5  5  5  5  5  5  5  5  5  5  6  6  6  6  6
CENTRE ASSIGNMENTS    6  6  6  6  6  6  6  6  6  6  6  6  6  6  6  6  6  6  6  6
CENTRE ASSIGNMENTS    6  6  6  6  6  6  6  6  6  6  6  6  6  6  6  6  6  6  6  6
CENTRE ASSIGNMENTS    6  6  6  6  6  6  6  6  6  6  6  6  6  6  6  6  6  6  6  6
CENTRE ASSIGNMENTS    6  6  6  6  6  6  6  6  6  6
TYPE ASSIGNMENTS      1  1  1  1  1  1  1  1  1  1  1  1  1  1  1  1  1  1  1  2
TYPE ASSIGNMENTS      2  2  3  3  3  4  4  4  2  3  4  2  3  4  2  3  4  5  6  7
TYPE ASSIGNMENTS      8  9 10  5  6  7  8  9 10  5  6  7  8  9 10 11 12 13 17 14
TYPE ASSIGNMENTS     15 18 19 16 20 11 12 13 17 14 15 18 19 16 20  1  1  1  1  1
TYPE ASSIGNMENTS      1  1  1  1  1  1  1  1  1  1  1  1  1  1  2  2  2  3  3  3
TYPE ASSIGNMENTS      4  4  4  2  3  4  2  3  4  2  3  4  5  6  7  8  9 10  5  6
TYPE ASSIGNMENTS      7  8  9 10  5  6  7  8  9 10 11 12 13 17 14 15 18 19 16 20
TYPE ASSIGNMENTS     11 12 13 17 14 15 18 19 16 20  1  1  1  1  1  1  1  1  1  1
TYPE ASSIGNMENTS      1  1  1  1  1  1  1  1  1  2  2  2  3  3  3  4  4  4  2  3
TYPE ASSIGNMENTS      4  2  3  4  2  3  4  5  6  7  8  9 10  5  6  7  8  9 10  5
TYPE ASSIGNMENTS      6  7  8  9 10 11 12 13 17 14 15 18 19 16 20 11 12 13 17 14
TYPE ASSIGNMENTS     15 18 19 16 20  1  1  1  1  1  1  1  1  1  1  1  1  1  1  1
TYPE ASSIGNMENTS      1  1  1  1  2  2  2  3  3  3  4  4  4  2  3  4  2  3  4  2
TYPE ASSIGNMENTS      3  4  5  6  7  8  9 10  5  6  7  8  9 10  5  6  7  8  9 10
TYPE ASSIGNMENTS     11 12 13 17 14 15 18 19 16 20 11 12 13 17 14 15 18 19 16 20
TYPE ASSIGNMENTS      1  1  1  1  1  1  1  1  1  1  1  1  1  1  1  1  1  1  1  2
TYPE ASSIGNMENTS      2  2  3  3  3  4  4  4  2  3  4  2  3  4  2  3  4  5  6  7
TYPE ASSIGNMENTS      8  9 10  5  6  7  8  9 10  5  6  7  8  9 10 11 12 13 17 14
TYPE ASSIGNMENTS     15 18 19 16 20 11 12 13 17 14 15 18 19 16 20  1  1  1  1  1
TYPE ASSIGNMENTS      1  1  1  1  1  1  1  1  1  1  1  1  1  1  2  2  2  3  3  3
TYPE ASSIGNMENTS      4  4  4  2  3  4  2  3  4  2  3  4  5  6  7  8  9 10  5  6
TYPE ASSIGNMENTS      7  8  9 10  5  6  7  8  9 10 11 12 13 17 14 15 18 19 16 20
TYPE ASSIGNMENTS     11 12 13 17 14 15 18 19 16 20
EXPONENTS  0.5473000D+04 0.8209000D+03 0.1868000D+03 0.5283000D+02 0.1708000D+02
EXPONENTS  0.5999000D+01 0.2208000D+01 0.2415000D+00 0.5473000D+04 0.8209000D+03
EXPONENTS  0.1868000D+03 0.5283000D+02 0.1708000D+02 0.5999000D+01 0.2208000D+01
EXPONENTS  0.2415000D+00 0.5879000D+00 0.8610000D-01 0.2914000D-01 0.1205000D+02
EXPONENTS  0.2613000D+01 0.7475000D+00 0.1205000D+02 0.2613000D+01 0.7475000D+00
EXPONENTS  0.1205000D+02 0.2613000D+01 0.7475000D+00 0.2385000D+00 0.2385000D+00
EXPONENTS  0.2385000D+00 0.7698000D-01 0.7698000D-01 0.7698000D-01 0.2096000D-01
EXPONENTS  0.2096000D-01 0.2096000D-01 0.6610000D+00 0.6610000D+00 0.6610000D+00
EXPONENTS  0.6610000D+00 0.6610000D+00 0.6610000D+00 0.1990000D+00 0.1990000D+00
EXPONENTS  0.1990000D+00 0.1990000D+00 0.1990000D+00 0.1990000D+00 0.6040000D-01
EXPONENTS  0.6040000D-01 0.6040000D-01 0.6040000D-01 0.6040000D-01 0.6040000D-01
EXPONENTS  0.4900000D+00 0.4900000D+00 0.4900000D+00 0.4900000D+00 0.4900000D+00
EXPONENTS  0.4900000D+00 0.4900000D+00 0.4900000D+00 0.4900000D+00 0.4900000D+00
EXPONENTS  0.1630000D+00 0.1630000D+00 0.1630000D+00 0.1630000D+00 0.1630000D+00
EXPONENTS  0.1630000D+00 0.1630000D+00 0.1630000D+00 0.1630000D+00 0.1630000D+00
EXPONENTS  0.5473000D+04 0.8209000D+03 0.1868000D+03 0.5283000D+02 0.1708000D+02
EXPONENTS  0.5999000D+01 0.2208000D+01 0.2415000D+00 0.5473000D+04 0.8209000D+03
EXPONENTS  0.1868000D+03 0.5283000D+02 0.1708000D+02 0.5999000D+01 0.2208000D+01
EXPONENTS  0.2415000D+00 0.5879000D+00 0.8610000D-01 0.2914000D-01 0.1205000D+02
EXPONENTS  0.2613000D+01 0.7475000D+00 0.1205000D+02 0.2613000D+01 0.7475000D+00
EXPONENTS  0.1205000D+02 0.2613000D+01 0.7475000D+00 0.2385000D+00 0.2385000D+00
EXPONENTS  0.2385000D+00 0.7698000D-01 0.7698000D-01 0.7698000D-01 0.2096000D-01
EXPONENTS  0.2096000D-01 0.2096000D-01 0.6610000D+00 0.6610000D+00 0.6610000D+00
EXPONENTS  0.6610000D+00 0.6610000D+00 0.6610000D+00 0.1990000D+00 0.1990000D+00
EXPONENTS  0.1990000D+00 0.1990000D+00 0.1990000D+00 0.1990000D+00 0.6040000D-01
EXPONENTS  0.6040000D-01 0.6040000D-01 0.6040000D-01 0.6040000D-01 0.6040000D-01
EXPONENTS  0.4900000D+00 0.4900000D+00 0.4900000D+00 0.4900000D+00 0.4900000D+00
EXPONENTS  0.4900000D+00 0.4900000D+00 0.4900000D+00 0.4900000D+00 0.4900000D+00
EXPONENTS  0.1630000D+00 0.1630000D+00 0.1630000D+00 0.1630000D+00 0.1630000D+00
EXPONENTS  0.1630000D+00 0.1630000D+00 0.1630000D+00 0.1630000D+00 0.1630000D+00
EXPONENTS  0.1950000D+05 0.2923000D+04 0.6645000D+03 0.1875000D+03 0.6062000D+02
EXPONENTS  0.2142000D+02 0.7950000D+01 0.8815000D+00 0.1950000D+05 0.2923000D+04
EXPONENTS  0.6645000D+03 0.1875000D+03 0.6062000D+02 0.2142000D+02 0.7950000D+01
EXPONENTS  0.8815000D+00 0.2257000D+01 0.3041000D+00 0.9158000D-01 0.4388000D+02
EXPONENTS  0.9926000D+01 0.2930000D+01 0.4388000D+02 0.9926000D+01 0.2930000D+01
EXPONENTS  0.4388000D+02 0.9926000D+01 0.2930000D+01 0.9132000D+00 0.9132000D+00
EXPONENTS  0.9132000D+00 0.2672000D+00 0.2672000D+00 0.2672000D+00 0.7361000D-01
EXPONENTS  0.7361000D-01 0.7361000D-01 0.3107000D+01 0.3107000D+01 0.3107000D+01
EXPONENTS  0.3107000D+01 0.3107000D+01 0.3107000D+01 0.8550000D+00 0.8550000D+00
EXPONENTS  0.8550000D+00 0.8550000D+00 0.8550000D+00 0.8550000D+00 0.2920000D+00
EXPONENTS  0.2920000D+00 0.2920000D+00 0.2920000D+00 0.2920000D+00 0.2920000D+00
EXPONENTS  0.1917000D+01 0.1917000D+01 0.1917000D+01 0.1917000D+01 0.1917000D+01
EXPONENTS  0.1917000D+01 0.1917000D+01 0.1917000D+01 0.1917000D+01 0.1917000D+01
EXPONENTS  0.7240000D+00 0.7240000D+00 0.7240000D+00 0.7240000D+00 0.7240000D+00
EXPONENTS  0.7240000D+00 0.7240000D+00 0.7240000D+00 0.7240000D+00 0.7240000D+00
EXPONENTS  0.1950000D+05 0.2923000D+04 0.6645000D+03 0.1875000D+03 0.6062000D+02
EXPONENTS  0.2142000D+02 0.7950000D+01 0.8815000D+00 0.1950000D+05 0.2923000D+04
EXPONENTS  0.6645000D+03 0.1875000D+03 0.6062000D+02 0.2142000D+02 0.7950000D+01
EXPONENTS  0.8815000D+00 0.2257000D+01 0.3041000D+00 0.9158000D-01 0.4388000D+02
EXPONENTS  0.9926000D+01 0.2930000D+01 0.4388000D+02 0.9926000D+01 0.2930000D+01
EXPONENTS  0.4388000D+02 0.9926000D+01 0.2930000D+01 0.9132000D+00 0.9132000D+00
EXPONENTS  0.9132000D+00 0.2672000D+00 0.2672000D+00 0.2672000D+00 0.7361000D-01
EXPONENTS  0.7361000D-01 0.7361000D-01 0.3107000D+01 0.3107000D+01 0.3107000D+01
EXPONENTS  0.3107000D+01 0.3107000D+01 0.3107000D+01 0.8550000D+00 0.8550000D+00
EXPONENTS  0.8550000D+00 0.8550000D+00 0.8550000D+00 0.8550000D+00 0.2920000D+00
EXPONENTS  0.2920000D+00 0.2920000D+00 0.2920000D+00 0.2920000D+00 0.2920000D+00
EXPONENTS  0.1917000D+01 0.1917000D+01 0.1917000D+01 0.1917000D+01 0.1917000D+01
EXPONENTS  0.1917000D+01 0.1917000D+01 0.1917000D+01 0.1917000D+01 0.1917000D+01
EXPONENTS  0.7240000D+00 0.7240000D+00 0.7240000D+00 0.7240000D+00 0.7240000D+00
EXPONENTS  0.7240000D+00 0.7240000D+00 0.7240000D+00 0.7240000D+00 0.7240000D+00
EXPONENTS  0.1950000D+05 0.2923000D+04 0.6645000D+03 0.1875000D+03 0.6062000D+02
EXPONENTS  0.2142000D+02 0.7950000D+01 0.8815000D+00 0.1950000D+05 0.2923000D+04
EXPONENTS  0.6645000D+03 0.1875000D+03 0.6062000D+02 0.2142000D+02 0.7950000D+01
EXPONENTS  0.8815000D+00 0.2257000D+01 0.3041000D+00 0.9158000D-01 0.4388000D+02
EXPONENTS  0.9926000D+01 0.2930000D+01 0.4388000D+02 0.9926000D+01 0.2930000D+01
EXPONENTS  0.4388000D+02 0.9926000D+01 0.2930000D+01 0.9132000D+00 0.9132000D+00
EXPONENTS  0.9132000D+00 0.2672000D+00 0.2672000D+00 0.2672000D+00 0.7361000D-01
EXPONENTS  0.7361000D-01 0.7361000D-01 0.3107000D+01 0.3107000D+01 0.3107000D+01
EXPONENTS  0.3107000D+01 0.3107000D+01 0.3107000D+01 0.8550000D+00 0.8550000D+00
EXPONENTS  0.8550000D+00 0.8550000D+00 0.8550000D+00 0.8550000D+00 0.2920000D+00
EXPONENTS  0.2920000D+00 0.2920000D+00 0.2920000D+00 0.2920000D+00 0.2920000D+00
EXPONENTS  0.1917000D+01 0.1917000D+01 0.1917000D+01 0.1917000D+01 0.1917000D+01
EXPONENTS  0.1917000D+01 0.1917000D+01 0.1917000D+01 0.1917000D+01 0.1917000D+01
EXPONENTS  0.7240000D+00 0.7240000D+00 0.7240000D+00 0.7240000D+00 0.7240000D+00
EXPONENTS  0.7240000D+00 0.7240000D+00 0.7240000D+00 0.7240000D+00 0.7240000D+00
EXPONENTS  0.1950000D+05 0.2923000D+04 0.6645000D+03 0.1875000D+03 0.6062000D+02
EXPONENTS  0.2142000D+02 0.7950000D+01 0.8815000D+00 0.1950000D+05 0.2923000D+04
EXPONENTS  0.6645000D+03 0.1875000D+03 0.6062000D+02 0.2142000D+02 0.7950000D+01
EXPONENTS  0.8815000D+00 0.2257000D+01 0.3041000D+00 0.9158000D-01 0.4388000D+02
EXPONENTS  0.9926000D+01 0.2930000D+01 0.4388000D+02 0.9926000D+01 0.2930000D+01
EXPONENTS  0.4388000D+02 0.9926000D+01 0.2930000D+01 0.9132000D+00 0.9132000D+00
EXPONENTS  0.9132000D+00 0.2672000D+00 0.2672000D+00 0.2672000D+00 0.7361000D-01
EXPONENTS  0.7361000D-01 0.7361000D-01 0.3107000D+01 0.3107000D+01 0.3107000D+01
EXPONENTS  0.3107000D+01 0.3107000D+01 0.3107000D+01 0.8550000D+00 0.8550000D+00
EXPONENTS  0.8550000D+00 0.8550000D+00 0.8550000D+00 0.8550000D+00 0.2920000D+00
EXPONENTS  0.2920000D+00 0.2920000D+00 0.2920000D+00 0.2920000D+00 0.2920000D+00
EXPONENTS  0.1917000D+01 0.1917000D+01 0.1917000D+01 0.1917000D+01 0.1917000D+01
EXPONENTS  0.1917000D+01 0.1917000D+01 0.1917000D+01 0.1917000D+01 0.1917000D+01
EXPONENTS  0.7240000D+00 0.7240000D+00 0.7240000D+00 0.7240000D+00 0.7240000D+00
EXPONENTS  0.7240000D+00 0.7240000D+00 0.7240000D+00 0.7240000D+00 0.7240000D+00
MO    1     MO 0.0        OCC NO =    2.0000000  ORB. ENERGY =  -25.325155
  0.69471903D-12  0.12945634D-11  0.21816974D-11  0.32550746D-11  0.39428040D-11
  0.32807067D-11  0.12184715D-11 -0.64686092D-14 -0.56111228D-12 -0.10480936D-11
 -0.17838606D-11 -0.27282180D-11 -0.35482094D-11 -0.35915922D-11 -0.23648813D-11
  0.16165269D-11 -0.49037154D-12  0.59061113D-14 -0.27615252D-13 -0.33541878D-12
 -0.30229797D-12 -0.21948793D-12  0.52327168D-04  0.47160141D-04  0.34241321D-04
 -0.78654427D-16 -0.70887725D-16 -0.51469085D-16 -0.94080438D-12  0.45177561D-03
  0.91007723D-17 -0.10112315D-11  0.39776668D-03 -0.31192261D-17 -0.75382762D-15
 -0.38095294D-05 -0.21878961D-18 -0.17171369D-12  0.16836993D-11 -0.15119856D-11
 -0.76211790D-03 -0.26659338D-16 -0.23788167D-18 -0.31684771D-13  0.83005535D-13
 -0.51320764D-13  0.56113020D-04  0.73527330D-17  0.58146871D-17 -0.19615855D-13
  0.30945946D-13 -0.11330091D-13  0.11749192D-04  0.71533592D-19 -0.87433913D-18
  0.40204238D-12  0.31485486D-04  0.29821117D-16 -0.18076037D-11  0.11548406D-03
 -0.23245833D-16  0.60147660D-12 -0.20994052D-03 -0.66217518D-16  0.45508217D-16
  0.52714398D-13 -0.31965771D-06  0.69779870D-19 -0.22014941D-12  0.21328443D-04
 -0.17536913D-18  0.62006217D-13 -0.20369470D-04 -0.33970478D-19 -0.70118639D-19
 -0.38820716D-12 -0.72339862D-12 -0.12191268D-11 -0.18189271D-11 -0.22032285D-11
 -0.18332502D-11 -0.68087867D-12  0.36146417D-14  0.29515151D-12  0.55130930D-12
  0.93833121D-12  0.14350740D-11  0.18663989D-11  0.18892188D-11  0.12439548D-11
 -0.85031173D-12 -0.99281581D-13  0.78624013D-12  0.69591519D-13  0.11334617D-12
  0.10215385D-12  0.74170318D-13 -0.52327163D-04 -0.47160136D-04 -0.34241317D-04
 -0.47377601D-18 -0.42699317D-18 -0.31002473D-18 -0.44628089D-12 -0.45177558D-03
  0.26394946D-18 -0.82583790D-12 -0.39776667D-03  0.60489688D-19 -0.33236370D-15
  0.38095293D-05 -0.76892591D-20 -0.18069279D-14 -0.44025512D-12  0.44206205D-12
 -0.76211785D-03 -0.16020523D-18  0.44833289D-18 -0.57885686D-13  0.11276367D-12
 -0.54877987D-13  0.56113032D-04 -0.78435836D-18  0.40436830D-18  0.19482884D-13
 -0.27837402D-13  0.83545180D-14  0.11749193D-04 -0.70243634D-20  0.10270585D-18
  0.16386027D-12 -0.31485487D-04  0.78878042D-19 -0.73061567D-12 -0.11548405D-03
  0.22781665D-19  0.23903487D-12  0.20994051D-03 -0.25941579D-18 -0.10058638D-17
  0.37356953D-13  0.31965771D-06 -0.23703005D-19 -0.14661803D-12 -0.21328443D-04
  0.16961570D-18  0.34547171D-13  0.20369470D-04 -0.98506689D-19 -0.49860553D-19
 -0.29711743D+00 -0.55383976D+00 -0.93889456D+00 -0.14217631D+01 -0.17779197D+01
 -0.15306233D+01 -0.58842746D+00  0.25497525D-02 -0.33645045D-03 -0.63179435D-03
 -0.10758368D-02 -0.16852920D-02 -0.22584896D-02 -0.24293100D-02 -0.14585546D-02
  0.95920685D-03 -0.31179110D-01 -0.32567413D-03  0.60497152D-03 -0.17606140D-02
 -0.17218421D-02 -0.11376939D-02 -0.30746171D-02 -0.30069084D-02 -0.19867915D-02
  0.79370784D-17  0.77622894D-17  0.51288728D-17  0.29790384D-03  0.61992313D-03
 -0.14512895D-17  0.71242282D-04  0.35561767D-04  0.85397537D-18  0.47624319D-04
  0.35841182D-04 -0.45337867D-19  0.87110881D-04 -0.45015453D-03  0.36304365D-03
 -0.83477866D-03 -0.10679821D-16  0.62854619D-17 -0.62262164D-04  0.21753985D-03
 -0.15527768D-03  0.36169923D-03  0.39694941D-18  0.91676673D-18  0.32145778D-04
 -0.29294876D-04 -0.28509024D-05 -0.16519788D-04  0.31898279D-19  0.48647310D-18
 -0.11202980D-03  0.11581693D-03 -0.97994364D-18  0.21696286D-03 -0.97665192D-04
 -0.12785529D-18  0.11912653D-03 -0.24978560D-03  0.30676862D-17  0.66061138D-17
  0.20299225D-04 -0.61903473D-06  0.52311573D-18  0.17034521D-04  0.12432422D-04
 -0.57361937D-18 -0.77932197D-04 -0.10575318D-04 -0.99572782D-18 -0.18714058D-17
  0.29711741D+00  0.55383972D+00  0.93889449D+00  0.14217630D+01  0.17779196D+01
  0.15306231D+01  0.58842742D+00 -0.25497523D-02  0.33645042D-03  0.63179431D-03
  0.10758367D-02  0.16852919D-02  0.22584894D-02  0.24293099D-02  0.14585545D-02
 -0.95920677D-03  0.31179107D-01  0.32567411D-03 -0.60497150D-03 -0.17606139D-02
 -0.17218420D-02 -0.11376938D-02  0.30746169D-02  0.30069082D-02  0.19867914D-02
 -0.29655840D-17 -0.29002764D-17 -0.19163352D-17  0.29790382D-03 -0.61992309D-03
 -0.62162807D-18  0.71242285D-04 -0.35561762D-04  0.59178517D-18  0.47624318D-04
 -0.35841180D-04  0.13887611D-18 -0.87110870D-04  0.45015450D-03 -0.36304363D-03
 -0.83477861D-03 -0.28535474D-17 -0.10723028D-17  0.62262158D-04 -0.21753983D-03
  0.15527767D-03  0.36169922D-03  0.43035241D-18 -0.30041876D-18 -0.32145780D-04
  0.29294876D-04  0.28509048D-05 -0.16519784D-04 -0.41485485D-18  0.22993181D-18
 -0.11202980D-03 -0.11581692D-03  0.38931639D-18  0.21696285D-03  0.97665200D-04
 -0.14483502D-17  0.11912654D-03  0.24978557D-03  0.28040107D-18  0.18242031D-17
  0.20299228D-04  0.61903562D-06 -0.55922992D-19  0.17034517D-04 -0.12432430D-04
  0.51005391D-18 -0.77932200D-04  0.10575323D-04 -0.34228494D-18 -0.82497455D-18
  0.29711743D+00  0.55383977D+00  0.93889457D+00  0.14217631D+01  0.17779197D+01
  0.15306233D+01  0.58842747D+00 -0.25497525D-02  0.33645045D-03  0.63179436D-03
  0.10758368D-02  0.16852920D-02  0.22584896D-02  0.24293101D-02  0.14585546D-02
 -0.95920686D-03  0.31179110D-01  0.32567413D-03 -0.60497152D-03  0.17606141D-02
  0.17218421D-02  0.11376939D-02 -0.30746172D-02 -0.30069084D-02 -0.19867915D-02
 -0.10528385D-16 -0.10296530D-16 -0.68033528D-17 -0.29790384D-03  0.61992314D-03
 -0.22930468D-17 -0.71242282D-04  0.35561767D-04 -0.21262575D-17 -0.47624319D-04
  0.35841182D-04  0.38975461D-18 -0.87110881D-04  0.45015454D-03 -0.36304366D-03
 -0.83477867D-03 -0.12945296D-16  0.19538826D-16  0.62262164D-04 -0.21753985D-03
  0.15527768D-03  0.36169924D-03  0.10959925D-17 -0.24232637D-17 -0.32145778D-04
  0.29294876D-04  0.28509022D-05 -0.16519788D-04 -0.45434639D-18  0.13608074D-17
  0.11202979D-03  0.11581693D-03 -0.40883727D-18 -0.21696286D-03 -0.97665191D-04
  0.44434248D-17 -0.11912653D-03 -0.24978560D-03 -0.32169130D-17  0.18065417D-16
 -0.20299225D-04 -0.61903467D-06 -0.10091085D-18 -0.17034522D-04  0.12432423D-04
  0.43344254D-19  0.77932197D-04 -0.10575319D-04  0.25938829D-18 -0.35784014D-17
 -0.29711741D+00 -0.55383972D+00 -0.93889449D+00 -0.14217630D+01 -0.17779196D+01
 -0.15306231D+01 -0.58842742D+00  0.25497523D-02 -0.33645042D-03 -0.63179431D-03
 -0.10758368D-02 -0.16852919D-02 -0.22584894D-02 -0.24293099D-02 -0.14585545D-02
  0.95920678D-03 -0.31179108D-01 -0.32567411D-03  0.60497150D-03  0.17606139D-02
  0.17218420D-02  0.11376938D-02  0.30746169D-02  0.30069082D-02  0.19867914D-02
 -0.23029617D-17 -0.22522462D-17 -0.14881543D-17 -0.29790382D-03 -0.61992309D-03
 -0.35412980D-19 -0.71242284D-04 -0.35561762D-04 -0.60641492D-19 -0.47624318D-04
 -0.35841180D-04 -0.10962670D-18  0.87110871D-04 -0.45015450D-03  0.36304363D-03
 -0.83477862D-03  0.54610193D-17  0.25536038D-17 -0.62262159D-04  0.21753983D-03
 -0.15527767D-03  0.36169922D-03 -0.11211526D-17 -0.11945677D-17  0.32145780D-04
 -0.29294876D-04 -0.28509047D-05 -0.16519784D-04  0.10709519D-18  0.72366656D-19
  0.11202980D-03 -0.11581692D-03 -0.25569678D-18 -0.21696285D-03  0.97665199D-04
  0.11598367D-17 -0.11912654D-03  0.24978557D-03 -0.39274638D-18 -0.22746236D-18
 -0.20299227D-04  0.61903557D-06 -0.64940409D-20 -0.17034517D-04 -0.12432430D-04
 -0.47069465D-18  0.77932200D-04  0.10575323D-04  0.49017677D-18 -0.94199717D-19
MO    2     MO 0.0        OCC NO =    2.0000000  ORB. ENERGY =  -25.325153
  0.68383107D-12  0.12742744D-11  0.21475049D-11  0.32040596D-11  0.38810106D-11
  0.32292900D-11  0.11993751D-11 -0.63672301D-14 -0.55994758D-12 -0.10459181D-11
 -0.17801579D-11 -0.27225551D-11 -0.35408444D-11 -0.35841372D-11 -0.23599726D-11
  0.16131715D-11 -0.63364249D-12  0.42403139D-12 -0.16435185D-13 -0.44971016D-12
 -0.40530369D-12 -0.29427676D-12  0.70524872D-04  0.63560919D-04  0.46149349D-04
 -0.48831142D-16 -0.44009329D-16 -0.31953627D-16 -0.97184222D-12  0.26658568D-03
 -0.18236548D-16 -0.90842283D-12  0.10727182D-03  0.23981927D-17 -0.86703662D-15
 -0.75795037D-06 -0.12161831D-18 -0.20850251D-12  0.18628435D-11 -0.16543410D-11
 -0.64913221D-03 -0.42232484D-17 -0.36285590D-16 -0.53209815D-13  0.13675589D-12
 -0.83546077D-13 -0.15964740D-03  0.22860236D-17  0.20239296D-17 -0.10999913D-13
  0.20685501D-13 -0.96855880D-14 -0.82999034D-05 -0.36303905D-18 -0.59656368D-18
  0.41651891D-12 -0.15052433D-04 -0.12511904D-16 -0.18850121D-11  0.17586248D-03
  0.37674766D-16  0.63545536D-12 -0.13070518D-03 -0.13905499D-18 -0.27379662D-16
  0.48937808D-13 -0.10015381D-06 -0.67927403D-20 -0.21269302D-12  0.79844215D-06
  0.73595011D-19  0.65879596D-13 -0.49798074D-06 -0.53216790D-19 -0.38969489D-18
 -0.18979193D-12 -0.35366483D-12 -0.59602305D-12 -0.88926150D-12 -0.10771439D-11
 -0.89626399D-12 -0.33287711D-12  0.17671746D-14  0.12931825D-12  0.24155171D-12
  0.41112223D-12  0.62876608D-12  0.81774759D-12  0.82774593D-12  0.54502872D-12
 -0.37255720D-12 -0.33016936D-12  0.70354600D-12  0.86708472D-13  0.29197751D-12
  0.26314630D-12  0.19106128D-12  0.70524876D-04  0.63560923D-04  0.46149352D-04
  0.58758825D-18  0.52956706D-18  0.38450003D-18 -0.20130268D-12  0.26658571D-03
 -0.74081092D-19 -0.61994691D-12  0.10727185D-03  0.49634454D-18 -0.31337750D-15
 -0.75795066D-06  0.15686867D-19 -0.71251278D-13  0.17788629D-12 -0.10663501D-12
  0.64913227D-03  0.97925002D-18 -0.55265048D-18 -0.94292072D-13  0.17182275D-12
 -0.77530682D-13  0.15964740D-03  0.13498912D-18  0.72922130D-19  0.13797283D-13
 -0.18813996D-13  0.50167129D-14  0.82999025D-05 -0.46368206D-19 -0.36376429D-19
  0.27113208D-13 -0.15052431D-04  0.47308738D-19 -0.12411484D-12  0.17586249D-03
 -0.63050703D-18  0.42775212D-13 -0.13070520D-03  0.48858082D-18  0.16494774D-17
  0.24900947D-13 -0.10015383D-06 -0.10889511D-19 -0.95733963D-13  0.79844382D-06
 -0.13416155D-18  0.21031123D-13 -0.49798233D-06  0.16683009D-18 -0.16567440D-18
 -0.29711539D+00 -0.55383596D+00 -0.93888812D+00 -0.14217533D+01 -0.17779075D+01
 -0.15306128D+01 -0.58842342D+00  0.25497350D-02 -0.33832447D-03 -0.63531343D-03
 -0.10818292D-02 -0.16946790D-02 -0.22710693D-02 -0.24428412D-02 -0.14666787D-02
  0.96454960D-03 -0.31168668D-01 -0.29377316D-03  0.32649282D-03 -0.17437466D-02
 -0.17053461D-02 -0.11267943D-02 -0.30280185D-02 -0.29613359D-02 -0.19566798D-02
 -0.25091386D-16 -0.24538827D-16 -0.16213841D-16  0.30449472D-03  0.57852570D-03
  0.10839746D-17 -0.33463392D-04  0.61191341D-04  0.76817622D-18  0.92712392D-05
  0.24448556D-04  0.19543039D-18  0.13668113D-03 -0.46724173D-03  0.33056060D-03
 -0.67225519D-03  0.14512983D-16 -0.10152435D-16 -0.74826982D-04  0.21725208D-03
 -0.14242510D-03  0.26345388D-03  0.94601228D-18 -0.15429653D-17 -0.27103256D-04
 -0.45383363D-05  0.31641593D-04 -0.43265166D-04  0.19703332D-18  0.79743391D-18
  0.43663510D-04  0.10419392D-03  0.81506271D-18  0.32464936D-04  0.11086149D-03
  0.84233080D-18 -0.16345547D-03 -0.42344326D-03 -0.32875189D-17  0.47804772D-18
 -0.31361937D-04  0.11575278D-04 -0.77555187D-18  0.60287805D-04 -0.95777032D-04
  0.81225827D-18  0.33798007D-04  0.61051197D-04  0.15143973D-17  0.13524699D-17
 -0.29711542D+00 -0.55383601D+00 -0.93888819D+00 -0.14217534D+01 -0.17779077D+01
 -0.15306129D+01 -0.58842347D+00  0.25497352D-02 -0.33832449D-03 -0.63531348D-03
 -0.10818293D-02 -0.16946792D-02 -0.22710695D-02 -0.24428414D-02 -0.14666788D-02
  0.96454968D-03 -0.31168670D-01 -0.29377319D-03  0.32649287D-03  0.17437468D-02
  0.17053463D-02  0.11267944D-02 -0.30280187D-02 -0.29613362D-02 -0.19566800D-02
  0.23141835D-17  0.22632209D-17  0.14954057D-17 -0.30449474D-03  0.57852575D-03
  0.87325299D-18  0.33463387D-04  0.61191344D-04 -0.45741477D-18 -0.92712430D-05
  0.24448558D-04 -0.11581224D-18  0.13668113D-03 -0.46724177D-03  0.33056063D-03
  0.67225526D-03 -0.23154869D-17  0.67908978D-18 -0.74826987D-04  0.21725210D-03
 -0.14242511D-03 -0.26345392D-03  0.64539383D-18  0.28988303D-18 -0.27103254D-04
 -0.45383386D-05  0.31641593D-04  0.43265168D-04  0.27248974D-18  0.15462499D-18
 -0.43663502D-04  0.10419393D-03 -0.73234029D-18 -0.32464952D-04  0.11086148D-03
  0.30508087D-17  0.16345546D-03 -0.42344328D-03 -0.85378777D-18 -0.57670845D-18
  0.31361936D-04  0.11575278D-04  0.90103706D-19 -0.60287807D-04 -0.95777031D-04
 -0.96681602D-18 -0.33798001D-04  0.61051196D-04  0.69650490D-18  0.63380782D-18
  0.29711540D+00  0.55383597D+00  0.93888813D+00  0.14217533D+01  0.17779075D+01
  0.15306128D+01  0.58842343D+00 -0.25497350D-02  0.33832447D-03  0.63531344D-03
  0.10818292D-02  0.16946791D-02  0.22710693D-02  0.24428413D-02  0.14666787D-02
 -0.96454961D-03  0.31168668D-01  0.29377317D-03 -0.32649282D-03  0.17437467D-02
  0.17053462D-02  0.11267943D-02 -0.30280185D-02 -0.29613359D-02 -0.19566799D-02
  0.41185408D-16  0.40278429D-16  0.26613661D-16 -0.30449472D-03  0.57852571D-03
 -0.30675896D-18  0.33463393D-04  0.61191341D-04  0.30896397D-17 -0.92712392D-05
  0.24448556D-04 -0.43898906D-18 -0.13668113D-03  0.46724174D-03 -0.33056061D-03
 -0.67225520D-03  0.21767877D-16 -0.19505492D-16  0.74826982D-04 -0.21725208D-03
  0.14242510D-03  0.26345389D-03 -0.32741314D-17  0.20062493D-17  0.27103257D-04
  0.45383363D-05 -0.31641593D-04 -0.43265166D-04  0.12441401D-17 -0.16155096D-17
 -0.43663511D-04  0.10419392D-03  0.55352159D-18 -0.32464936D-04  0.11086149D-03
 -0.20029505D-17  0.16345547D-03 -0.42344326D-03  0.34238572D-18 -0.60442517D-17
  0.31361938D-04  0.11575278D-04 -0.19586882D-18 -0.60287806D-04 -0.95777032D-04
 -0.68353885D-18 -0.33798007D-04  0.61051197D-04  0.12711453D-17 -0.36054952D-18
  0.29711542D+00  0.55383601D+00  0.93888820D+00  0.14217534D+01  0.17779077D+01
  0.15306129D+01  0.58842347D+00 -0.25497352D-02  0.33832450D-03  0.63531348D-03
  0.10818293D-02  0.16946792D-02  0.22710695D-02  0.24428414D-02  0.14666788D-02
 -0.96454968D-03  0.31168670D-01  0.29377319D-03 -0.32649287D-03 -0.17437468D-02
 -0.17053463D-02 -0.11267944D-02 -0.30280187D-02 -0.29613362D-02 -0.19566800D-02
  0.21548070D-17  0.21073542D-17  0.13924180D-17  0.30449474D-03  0.57852575D-03
  0.37686031D-18 -0.33463387D-04  0.61191343D-04 -0.14721333D-18  0.92712429D-05
  0.24448558D-04  0.32068695D-19 -0.13668113D-03  0.46724177D-03 -0.33056064D-03
  0.67225526D-03 -0.32352514D-17 -0.56736556D-17  0.74826987D-04 -0.21725210D-03
  0.14242511D-03 -0.26345392D-03  0.91460047D-18  0.20772336D-17  0.27103254D-04
  0.45383386D-05 -0.31641593D-04  0.43265168D-04  0.11152947D-18 -0.42123475D-18
  0.43663502D-04  0.10419393D-03  0.12391040D-17  0.32464953D-04  0.11086148D-03
 -0.16800588D-17 -0.16345546D-03 -0.42344328D-03 -0.20372533D-17  0.14731461D-17
 -0.31361936D-04  0.11575278D-04 -0.20194600D-18  0.60287807D-04 -0.95777031D-04
  0.49288152D-18  0.33798001D-04  0.61051196D-04  0.11295649D-18 -0.41425970D-18
MO    3     MO 0.0        OCC NO =    2.0000000  ORB. ENERGY =  -25.325144
  0.16587745D-03  0.30910177D-03  0.52092198D-03  0.77721132D-03  0.94141986D-03
  0.78333147D-03  0.29093338D-03 -0.15445041D-05 -0.13086674D-03 -0.24444412D-03
 -0.41604512D-03 -0.63629511D-03 -0.82753953D-03 -0.83765760D-03 -0.55155505D-03
  0.37701831D-03 -0.57828713D-04 -0.56433549D-04 -0.20098040D-04 -0.29793795D-04
 -0.26851817D-04 -0.19496161D-04 -0.36427127D-12 -0.32830144D-12 -0.23836814D-12
  0.55667120D-16  0.50170290D-16  0.36426884D-16 -0.22222987D-03 -0.21055144D-11
 -0.40344295D-16 -0.29084641D-03 -0.14623204D-11  0.96623689D-17 -0.24443603D-06
  0.13493514D-13  0.35543362D-19 -0.26037717D-04  0.31999431D-03 -0.29395659D-03
  0.42086297D-11 -0.15604572D-18  0.52918452D-19  0.75709741D-05 -0.65479425D-05
 -0.10230316D-05  0.19323636D-12  0.26198820D-18 -0.14623068D-18 -0.47498390D-05
  0.75428183D-05 -0.27929794D-05 -0.88052442D-14  0.41699208D-19  0.50551683D-20
  0.84365783D-04 -0.69515493D-13 -0.13592827D-19 -0.38182246D-03 -0.82775446D-12
  0.19767283D-18  0.12872511D-03  0.10363009D-11 -0.15689435D-18 -0.71121030D-19
  0.14036614D-04  0.62383532D-15 -0.11786054D-19 -0.58581915D-04 -0.66531601D-13
  0.68304216D-19  0.16472071D-04  0.64660095D-13 -0.32946054D-19  0.39028838D-20
 -0.16587745D-03 -0.30910176D-03 -0.52092196D-03 -0.77721129D-03 -0.94141983D-03
 -0.78333144D-03 -0.29093337D-03  0.15445041D-05  0.13086674D-03  0.24444411D-03
  0.41604511D-03  0.63629508D-03  0.82753950D-03  0.83765757D-03  0.55155503D-03
 -0.37701830D-03  0.57828702D-04  0.56433563D-04  0.20098040D-04 -0.29793787D-04
 -0.26851810D-04 -0.19496155D-04 -0.63676832D-14 -0.57389086D-14 -0.41668198D-14
  0.24106071D-19  0.21725726D-19  0.15774286D-19 -0.22222986D-03  0.70909326D-12
 -0.16384784D-18 -0.29084641D-03  0.89994914D-12 -0.32423899D-18 -0.24443602D-06
 -0.95236246D-14 -0.18271917D-19  0.26037714D-04 -0.31999429D-03  0.29395657D-03
  0.79283586D-12  0.57657178D-20 -0.15823714D-18 -0.75709757D-05  0.65479461D-05
  0.10230297D-05 -0.64486299D-12  0.29122820D-18  0.18626045D-18  0.47498390D-05
 -0.75428183D-05  0.27929793D-05 -0.52284843D-13  0.51814489D-19 -0.14015286D-19
  0.84365779D-04  0.14889177D-12  0.12524681D-19 -0.38182244D-03 -0.98539255D-13
 -0.28768510D-18  0.12872510D-03 -0.34813605D-12  0.25011105D-18  0.45990098D-19
  0.14036614D-04 -0.11261002D-15  0.17526143D-19 -0.58581913D-04  0.62526112D-13
 -0.83856774D-19  0.16472071D-04 -0.62188282D-13  0.31278347D-19 -0.28559337D-19
  0.29709240D+00  0.55379310D+00  0.93881545D+00  0.14216433D+01  0.17777699D+01
  0.15304943D+01  0.58837788D+00 -0.25495377D-02  0.35478039D-03  0.66621474D-03
  0.11344488D-02  0.17771073D-02  0.23815329D-02  0.25616597D-02  0.15380171D-02
 -0.10114648D-02  0.31168390D-01  0.25921566D-03 -0.42275987D-03  0.18818409D-02
  0.18403993D-02  0.12160296D-02  0.29627887D-02  0.28975426D-02  0.19145289D-02
  0.46993398D-17  0.45958517D-17  0.30366735D-17 -0.42816391D-03 -0.59455638D-03
 -0.12999801D-18  0.48575225D-04 -0.52533673D-04 -0.18207583D-19 -0.72753296D-05
 -0.25772981D-04 -0.49029658D-19 -0.73359204D-04  0.39426368D-03 -0.32090448D-03
  0.88094299D-03 -0.33752679D-17 -0.38990782D-17  0.29045736D-04 -0.16277098D-03
  0.13372524D-03 -0.41339696D-03 -0.88621252D-19 -0.17052355D-18  0.26091491D-04
 -0.19043700D-05 -0.24187121D-04  0.11564629D-05  0.62020215D-19 -0.90728127D-19
 -0.65866464D-04  0.49221982D-04 -0.24355351D-18  0.59124177D-04 -0.13970326D-03
 -0.12303631D-17  0.13847521D-03 -0.79626848D-05  0.19610236D-17 -0.30177550D-17
  0.48602542D-04 -0.10430720D-04  0.14513301D-18 -0.13345026D-03 -0.10557078D-04