 Molden2AIM, Version 4.0.0 (06/02/2016)           Time: Tue Jul  3 04:07:24 2018
GAUSSIAN             26 MOL ORBITALS    440 PRIMITIVES        4 NUCLEI
  Br   1    (CENTRE  1)  -5.25971630 -1.37428443  0.00000756  CHARGE = 35.0
  O    2    (CENTRE  2)  -6.51248566  1.52672296 -0.00000756  CHARGE =  8.0
  O    3    (CENTRE  3)  -1.76703944 -0.78091231  0.00001323  CHARGE =  8.0
  H    4    (CENTRE  4)  -0.99505986 -2.44711218 -0.00001323  CHARGE =  1.0
CENTRE ASSIGNMENTS    1  1  1  1  1  1  1  1  1  1  1  1  1  1  1  1  1  1  1  1
CENTRE ASSIGNMENTS    1  1  1  1  1  1  1  1  1  1  1  1  1  1  1  1  1  1  1  1
CENTRE ASSIGNMENTS    1  1  1  1  1  1  1  1  1  1  1  1  1  1  1  1  1  1  1  1
CENTRE ASSIGNMENTS    1  1  1  1  1  1  1  1  1  1  1  1  1  1  1  1  1  1  1  1
CENTRE ASSIGNMENTS    1  1  1  1  1  1  1  1  1  1  1  1  1  1  1  1  1  1  1  1
CENTRE ASSIGNMENTS    1  1  1  1  1  1  1  1  1  1  1  1  1  1  1  1  1  1  1  1
CENTRE ASSIGNMENTS    1  1  1  1  1  1  1  1  1  1  1  1  1  1  1  1  1  1  1  1
CENTRE ASSIGNMENTS    1  1  1  1  1  1  1  1  1  1  1  1  1  1  1  1  1  1  1  1
CENTRE ASSIGNMENTS    1  1  1  1  1  1  1  1  1  1  1  1  1  1  1  1  1  1  1  1
CENTRE ASSIGNMENTS    1  1  1  1  1  1  1  1  1  1  1  1  1  1  1  1  1  1  1  1
CENTRE ASSIGNMENTS    1  1  1  1  1  1  1  1  1  1  1  1  1  1  1  1  1  1  1  1
CENTRE ASSIGNMENTS    1  1  1  1  1  1  1  1  1  1  1  1  1  1  1  1  1  1  1  1
CENTRE ASSIGNMENTS    1  1  1  1  1  1  1  1  1  1  1  1  1  1  1  1  1  1  1  1
CENTRE ASSIGNMENTS    1  1  1  2  2  2  2  2  2  2  2  2  2  2  2  2  2  2  2  2
CENTRE ASSIGNMENTS    2  2  2  2  2  2  2  2  2  2  2  2  2  2  2  2  2  2  2  2
CENTRE ASSIGNMENTS    2  2  2  2  2  2  2  2  2  2  2  2  2  2  2  2  2  2  2  2
CENTRE ASSIGNMENTS    2  2  2  2  2  2  2  2  2  2  2  2  2  2  2  2  2  2  3  3
CENTRE ASSIGNMENTS    3  3  3  3  3  3  3  3  3  3  3  3  3  3  3  3  3  3  3  3
CENTRE ASSIGNMENTS    3  3  3  3  3  3  3  3  3  3  3  3  3  3  3  3  3  3  3  3
CENTRE ASSIGNMENTS    3  3  3  3  3  3  3  3  3  3  3  3  3  3  3  3  3  3  3  3
CENTRE ASSIGNMENTS    3  3  3  3  3  3  3  3  3  3  3  3  3  4  4  4  4  4  4  4
CENTRE ASSIGNMENTS    4  4  4  4  4  4  4  4  4  4  4  4  4  4  4  4  4  4  4  4
TYPE ASSIGNMENTS      1  1  1  1  1  1  1  1  1  1  1  1  1  1  1  1  1  1  1  1
TYPE ASSIGNMENTS      1  1  1  1  1  1  1  1  1  1  1  1  1  1  1  1  1  1  1  1
TYPE ASSIGNMENTS      1  1  1  1  1  1  1  1  1  1  1  1  1  1  1  1  1  1  1  1
TYPE ASSIGNMENTS      1  1  1  1  1  1  1  1  1  1  1  1  1  1  1  2  2  2  2  2
TYPE ASSIGNMENTS      2  2  2  2  2  2  3  3  3  3  3  3  3  3  3  3  3  4  4  4
TYPE ASSIGNMENTS      4  4  4  4  4  4  4  4  2  2  2  2  2  2  2  2  2  2  2  3
TYPE ASSIGNMENTS      3  3  3  3  3  3  3  3  3  3  4  4  4  4  4  4  4  4  4  4
TYPE ASSIGNMENTS      4  2  2  2  2  2  2  2  2  2  2  2  3  3  3  3  3  3  3  3
TYPE ASSIGNMENTS      3  3  3  4  4  4  4  4  4  4  4  4  4  4  2  3  4  2  3  4
TYPE ASSIGNMENTS      2  3  4  5  5  5  5  5  5  5  6  6  6  6  6  6  6  7  7  7
TYPE ASSIGNMENTS      7  7  7  7  8  8  8  8  8  8  8  9  9  9  9  9  9  9 10 10
TYPE ASSIGNMENTS     10 10 10 10 10  5  6  7  8  9 10  5  6  7  8  9 10  5  6  7
TYPE ASSIGNMENTS      8  9 10 11 12 13 17 14 15 18 19 16 20 11 12 13 17 14 15 18
TYPE ASSIGNMENTS     19 16 20  1  1  1  1  1  1  1  1  1  1  1  1  1  1  1  1  1
TYPE ASSIGNMENTS      1  1  2  2  2  3  3  3  4  4  4  2  3  4  2  3  4  2  3  4
TYPE ASSIGNMENTS      5  6  7  8  9 10  5  6  7  8  9 10  5  6  7  8  9 10 11 12
TYPE ASSIGNMENTS     13 17 14 15 18 19 16 20 11 12 13 17 14 15 18 19 16 20  1  1
TYPE ASSIGNMENTS      1  1  1  1  1  1  1  1  1  1  1  1  1  1  1  1  1  2  2  2
TYPE ASSIGNMENTS      3  3  3  4  4  4  2  3  4  2  3  4  2  3  4  5  6  7  8  9
TYPE ASSIGNMENTS     10  5  6  7  8  9 10  5  6  7  8  9 10 11 12 13 17 14 15 18
TYPE ASSIGNMENTS     19 16 20 11 12 13 17 14 15 18 19 16 20  1  1  1  1  1  1  2
TYPE ASSIGNMENTS      3  4  2  3  4  2  3  4  5  6  7  8  9 10  5  6  7  8  9 10
EXPONENTS  0.1063900D+08 0.1593400D+07 0.3626100D+06 0.1027000D+06 0.3350100D+05
EXPONENTS  0.1209300D+05 0.4715900D+04 0.1955600D+04 0.8526100D+03 0.3876700D+03
EXPONENTS  0.1826800D+03 0.8824500D+02 0.3926300D+02 0.1923400D+02 0.9405700D+01
EXPONENTS  0.4160100D+01 0.1899500D+01 0.3011400D+00 0.1063900D+08 0.1593400D+07
EXPONENTS  0.3626100D+06 0.1027000D+06 0.3350100D+05 0.1209300D+05 0.4715900D+04
EXPONENTS  0.1955600D+04 0.8526100D+03 0.3876700D+03 0.1826800D+03 0.8824500D+02
EXPONENTS  0.3926300D+02 0.1923400D+02 0.9405700D+01 0.4160100D+01 0.1899500D+01
EXPONENTS  0.3011400D+00 0.1063900D+08 0.1593400D+07 0.3626100D+06 0.1027000D+06
EXPONENTS  0.3350100D+05 0.1209300D+05 0.4715900D+04 0.1955600D+04 0.8526100D+03
EXPONENTS  0.3876700D+03 0.1826800D+03 0.8824500D+02 0.3926300D+02 0.1923400D+02
EXPONENTS  0.9405700D+01 0.4160100D+01 0.1899500D+01 0.3011400D+00 0.1063900D+08
EXPONENTS  0.1593400D+07 0.3626100D+06 0.1027000D+06 0.3350100D+05 0.1209300D+05
EXPONENTS  0.4715900D+04 0.1955600D+04 0.8526100D+03 0.3876700D+03 0.1826800D+03
EXPONENTS  0.8824500D+02 0.3926300D+02 0.1923400D+02 0.9405700D+01 0.4160100D+01
EXPONENTS  0.1899500D+01 0.3011400D+00 0.6047200D+00 0.1251500D+00 0.4559300D-01
EXPONENTS  0.8676500D+04 0.2055900D+04 0.6662300D+03 0.2531000D+03 0.1061200D+03
EXPONENTS  0.4724200D+02 0.2182500D+02 0.9968400D+01 0.4517100D+01 0.1998200D+01
EXPONENTS  0.2814500D+00 0.8676500D+04 0.2055900D+04 0.6662300D+03 0.2531000D+03
EXPONENTS  0.1061200D+03 0.4724200D+02 0.2182500D+02 0.9968400D+01 0.4517100D+01
EXPONENTS  0.1998200D+01 0.2814500D+00 0.8676500D+04 0.2055900D+04 0.6662300D+03
EXPONENTS  0.2531000D+03 0.1061200D+03 0.4724200D+02 0.2182500D+02 0.9968400D+01
EXPONENTS  0.4517100D+01 0.1998200D+01 0.2814500D+00 0.8676500D+04 0.2055900D+04
EXPONENTS  0.6662300D+03 0.2531000D+03 0.1061200D+03 0.4724200D+02 0.2182500D+02
EXPONENTS  0.9968400D+01 0.4517100D+01 0.1998200D+01 0.2814500D+00 0.8676500D+04
EXPONENTS  0.2055900D+04 0.6662300D+03 0.2531000D+03 0.1061200D+03 0.4724200D+02
EXPONENTS  0.2182500D+02 0.9968400D+01 0.4517100D+01 0.1998200D+01 0.2814500D+00
EXPONENTS  0.8676500D+04 0.2055900D+04 0.6662300D+03 0.2531000D+03 0.1061200D+03
EXPONENTS  0.4724200D+02 0.2182500D+02 0.9968400D+01 0.4517100D+01 0.1998200D+01
EXPONENTS  0.2814500D+00 0.8676500D+04 0.2055900D+04 0.6662300D+03 0.2531000D+03
EXPONENTS  0.1061200D+03 0.4724200D+02 0.2182500D+02 0.9968400D+01 0.4517100D+01
EXPONENTS  0.1998200D+01 0.2814500D+00 0.8676500D+04 0.2055900D+04 0.6662300D+03
EXPONENTS  0.2531000D+03 0.1061200D+03 0.4724200D+02 0.2182500D+02 0.9968400D+01
EXPONENTS  0.4517100D+01 0.1998200D+01 0.2814500D+00 0.8676500D+04 0.2055900D+04
EXPONENTS  0.6662300D+03 0.2531000D+03 0.1061200D+03 0.4724200D+02 0.2182500D+02
EXPONENTS  0.9968400D+01 0.4517100D+01 0.1998200D+01 0.2814500D+00 0.7098800D+00
EXPONENTS  0.7098800D+00 0.7098800D+00 0.1020400D+00 0.1020400D+00 0.1020400D+00
EXPONENTS  0.3514200D-01 0.3514200D-01 0.3514200D-01 0.4038300D+03 0.1211700D+03
EXPONENTS  0.4634500D+02 0.1972100D+02 0.8862400D+01 0.3996200D+01 0.1763600D+01
EXPONENTS  0.4038300D+03 0.1211700D+03 0.4634500D+02 0.1972100D+02 0.8862400D+01
EXPONENTS  0.3996200D+01 0.1763600D+01 0.4038300D+03 0.1211700D+03 0.4634500D+02
EXPONENTS  0.1972100D+02 0.8862400D+01 0.3996200D+01 0.1763600D+01 0.4038300D+03
EXPONENTS  0.1211700D+03 0.4634500D+02 0.1972100D+02 0.8862400D+01 0.3996200D+01
EXPONENTS  0.1763600D+01 0.4038300D+03 0.1211700D+03 0.4634500D+02 0.1972100D+02
EXPONENTS  0.8862400D+01 0.3996200D+01 0.1763600D+01 0.4038300D+03 0.1211700D+03
EXPONENTS  0.4634500D+02 0.1972100D+02 0.8862400D+01 0.3996200D+01 0.1763600D+01
EXPONENTS  0.7061900D+00 0.7061900D+00 0.7061900D+00 0.7061900D+00 0.7061900D+00
EXPONENTS  0.7061900D+00 0.2639000D+00 0.2639000D+00 0.2639000D+00 0.2639000D+00
EXPONENTS  0.2639000D+00 0.2639000D+00 0.1047000D+00 0.1047000D+00 0.1047000D+00
EXPONENTS  0.1047000D+00 0.1047000D+00 0.1047000D+00 0.5515000D+00 0.5515000D+00
EXPONENTS  0.5515000D+00 0.5515000D+00 0.5515000D+00 0.5515000D+00 0.5515000D+00
EXPONENTS  0.5515000D+00 0.5515000D+00 0.5515000D+00 0.2580000D+00 0.2580000D+00
EXPONENTS  0.2580000D+00 0.2580000D+00 0.2580000D+00 0.2580000D+00 0.2580000D+00
EXPONENTS  0.2580000D+00 0.2580000D+00 0.2580000D+00 0.1533000D+05 0.2299000D+04
EXPONENTS  0.5224000D+03 0.1473000D+03 0.4755000D+02 0.1676000D+02 0.6207000D+01
EXPONENTS  0.6882000D+00 0.1533000D+05 0.2299000D+04 0.5224000D+03 0.1473000D+03
EXPONENTS  0.4755000D+02 0.1676000D+02 0.6207000D+01 0.6882000D+00 0.1752000D+01
EXPONENTS  0.2384000D+00 0.7376000D-01 0.3446000D+02 0.7749000D+01 0.2280000D+01
EXPONENTS  0.3446000D+02 0.7749000D+01 0.2280000D+01 0.3446000D+02 0.7749000D+01
EXPONENTS  0.2280000D+01 0.7156000D+00 0.7156000D+00 0.7156000D+00 0.2140000D+00
EXPONENTS  0.2140000D+00 0.2140000D+00 0.5974000D-01 0.5974000D-01 0.5974000D-01
EXPONENTS  0.2314000D+01 0.2314000D+01 0.2314000D+01 0.2314000D+01 0.2314000D+01
EXPONENTS  0.2314000D+01 0.6450000D+00 0.6450000D+00 0.6450000D+00 0.6450000D+00
EXPONENTS  0.6450000D+00 0.6450000D+00 0.2140000D+00 0.2140000D+00 0.2140000D+00
EXPONENTS  0.2140000D+00 0.2140000D+00 0.2140000D+00 0.1428000D+01 0.1428000D+01
EXPONENTS  0.1428000D+01 0.1428000D+01 0.1428000D+01 0.1428000D+01 0.1428000D+01
EXPONENTS  0.1428000D+01 0.1428000D+01 0.1428000D+01 0.5000000D+00 0.5000000D+00
EXPONENTS  0.5000000D+00 0.5000000D+00 0.5000000D+00 0.5000000D+00 0.5000000D+00
EXPONENTS  0.5000000D+00 0.5000000D+00 0.5000000D+00 0.1533000D+05 0.2299000D+04
EXPONENTS  0.5224000D+03 0.1473000D+03 0.4755000D+02 0.1676000D+02 0.6207000D+01
EXPONENTS  0.6882000D+00 0.1533000D+05 0.2299000D+04 0.5224000D+03 0.1473000D+03
EXPONENTS  0.4755000D+02 0.1676000D+02 0.6207000D+01 0.6882000D+00 0.1752000D+01
EXPONENTS  0.2384000D+00 0.7376000D-01 0.3446000D+02 0.7749000D+01 0.2280000D+01
EXPONENTS  0.3446000D+02 0.7749000D+01 0.2280000D+01 0.3446000D+02 0.7749000D+01
EXPONENTS  0.2280000D+01 0.7156000D+00 0.7156000D+00 0.7156000D+00 0.2140000D+00
EXPONENTS  0.2140000D+00 0.2140000D+00 0.5974000D-01 0.5974000D-01 0.5974000D-01
EXPONENTS  0.2314000D+01 0.2314000D+01 0.2314000D+01 0.2314000D+01 0.2314000D+01
EXPONENTS  0.2314000D+01 0.6450000D+00 0.6450000D+00 0.6450000D+00 0.6450000D+00
EXPONENTS  0.6450000D+00 0.6450000D+00 0.2140000D+00 0.2140000D+00 0.2140000D+00
EXPONENTS  0.2140000D+00 0.2140000D+00 0.2140000D+00 0.1428000D+01 0.1428000D+01
EXPONENTS  0.1428000D+01 0.1428000D+01 0.1428000D+01 0.1428000D+01 0.1428000D+01
EXPONENTS  0.1428000D+01 0.1428000D+01 0.1428000D+01 0.5000000D+00 0.5000000D+00
EXPONENTS  0.5000000D+00 0.5000000D+00 0.5000000D+00 0.5000000D+00 0.5000000D+00
EXPONENTS  0.5000000D+00 0.5000000D+00 0.5000000D+00 0.3387000D+02 0.5095000D+01
EXPONENTS  0.1159000D+01 0.3258000D+00 0.1027000D+00 0.2526000D-01 0.1407000D+01
EXPONENTS  0.1407000D+01 0.1407000D+01 0.3880000D+00 0.3880000D+00 0.3880000D+00
EXPONENTS  0.1020000D+00 0.1020000D+00 0.1020000D+00 0.1057000D+01 0.1057000D+01
EXPONENTS  0.1057000D+01 0.1057000D+01 0.1057000D+01 0.1057000D+01 0.2470000D+00
EXPONENTS  0.2470000D+00 0.2470000D+00 0.2470000D+00 0.2470000D+00 0.2470000D+00
MO    1     MO 0.0        OCC NO =    2.0000000  ORB. ENERGY = -485.657634
  0.78330530D+00  0.14734927D+01  0.25506885D+01  0.41810664D+01  0.65497216D+01
  0.98447893D+01  0.14070677D+02  0.18679173D+02  0.21754434D+02  0.19981237D+02
  0.11683815D+02  0.30658916D+01  0.16761110D+00 -0.59991280D-02  0.16765669D-02
 -0.49782930D-03  0.84871277D-04  0.69243288D-05  0.51500632D-04  0.94622619D-04
  0.16362432D-03  0.26795769D-03  0.42188733D-03  0.63709121D-03  0.92995861D-03
  0.12806095D-02  0.16362761D-02  0.17837327D-02  0.14682866D-02  0.40259423D-03
 -0.81205866D-03 -0.79138663D-03 -0.17317769D-03 -0.58341970D-05 -0.19764395D-06
  0.50278072D-09 -0.33956150D-04 -0.66567656D-04 -0.11659160D-03 -0.19047273D-03
 -0.30042138D-03 -0.45332245D-03 -0.66466078D-03 -0.91767416D-03 -0.11897691D-02
 -0.13230933D-02 -0.11491879D-02 -0.33381854D-03  0.84155249D-03  0.12262013D-02
  0.21109494D-03 -0.51498126D-03 -0.24511809D-03  0.11837501D-05  0.12327615D-04
  0.26710964D-04  0.45471181D-04  0.74221212D-04  0.11700246D-03  0.17659050D-03
  0.25891046D-03  0.35792532D-03  0.46455116D-03  0.51898488D-03  0.45334505D-03
  0.13428124D-03 -0.34905410D-03 -0.53696319D-03 -0.93984954D-04  0.29647034D-03
  0.25165849D-03 -0.93891532D-04  0.83430879D-04  0.57722250D-05  0.13295113D-05
  0.10573080D-03  0.15170497D-03  0.20086545D-03  0.23194268D-03  0.21502154D-03
  0.13920886D-03  0.49135616D-04  0.57591179D-05  0.83726915D-07  0.12260875D-07
  0.12606083D-09  0.35567640D-04  0.51033265D-04  0.67570757D-04  0.78025079D-04
  0.72332838D-04  0.46829598D-04  0.16529128D-04  0.19373564D-05  0.28165576D-07
  0.41245350D-08  0.42406626D-10 -0.52413477D-09 -0.75204060D-09 -0.99574174D-09
 -0.11497996D-08 -0.10659171D-08 -0.69009417D-09 -0.24357790D-09 -0.28549430D-10
 -0.41505587D-12 -0.60780312D-13 -0.62491600D-15  0.31211980D-03  0.45054851D-03
  0.60192204D-03  0.71510185D-03  0.69298851D-03  0.48171541D-03  0.15674557D-03
 -0.70547947D-04 -0.76215320D-04 -0.19621401D-04  0.19138865D-07  0.11509117D-02
  0.16613543D-02  0.22195297D-02  0.26368694D-02  0.25553285D-02  0.17762793D-02
  0.57798424D-03 -0.26013878D-03 -0.28103667D-03 -0.72352030D-04  0.70572724D-07
 -0.47256402D-08 -0.68215159D-08 -0.91133821D-08 -0.10826978D-07 -0.10492171D-07
 -0.72933973D-08 -0.23732015D-08  0.10681290D-08  0.11539357D-08  0.29707722D-09
 -0.28977139D-12 -0.20405929D-03 -0.29650720D-03 -0.39420976D-03 -0.47302443D-03
 -0.45765323D-03 -0.32488050D-03 -0.10097368D-03  0.57972716D-04  0.66597781D-04
  0.17685626D-04 -0.63810290D-05 -0.82034378D-03 -0.11919959D-02 -0.15847724D-02
 -0.19016171D-02 -0.18398230D-02 -0.13060601D-02 -0.40592676D-03  0.23305754D-03
  0.26773138D-03  0.71098420D-04 -0.25652532D-04  0.33490119D-08  0.48662629D-08
  0.64697529D-08  0.77632556D-08  0.75109842D-08  0.53319242D-08  0.16571754D-08
 -0.95144560D-09 -0.10929998D-08 -0.29025570D-09  0.10472516D-09  0.64969702D-05
  0.12142014D-04 -0.42333663D-10  0.22251482D-05  0.20390937D-05 -0.16313604D-10
  0.99891160D-07 -0.23781960D-07 -0.71927819D-12  0.83586982D-04  0.87464770D-04
  0.74524665D-04  0.49080126D-04  0.22619569D-04  0.67734665D-05  0.11524479D-05
  0.74464247D-04  0.77918811D-04  0.66390998D-04  0.43723491D-04  0.20150855D-04
  0.60342062D-05  0.10266690D-05 -0.15805123D-03 -0.16538358D-03 -0.14091566D-03
 -0.92803617D-04 -0.42770424D-04 -0.12807673D-04 -0.21791169D-05 -0.91007164D-04
 -0.95229191D-04 -0.81140368D-04 -0.53437066D-04 -0.24627553D-04 -0.73747606D-05
 -0.12547530D-05  0.12787928D-08  0.13381189D-08  0.11401489D-08  0.75087425D-09
  0.34605558D-09  0.10362690D-09  0.17631239D-10 -0.19665601D-08 -0.20577933D-08
 -0.17533500D-08 -0.11547135D-08 -0.53217309D-09 -0.15936009D-09 -0.27113769D-10
 -0.14327222D-05 -0.43574964D-05  0.57902186D-05  0.48494903D-05 -0.48448638D-10
  0.83688321D-10 -0.23697057D-05 -0.15491496D-05  0.39188553D-05  0.52478294D-05
 -0.38951519D-10  0.60836437D-10  0.31641964D-06  0.34155917D-06 -0.65797881D-06
 -0.33211182D-06  0.55247455D-12 -0.73087480D-11 -0.51087782D-05 -0.23976938D-05
 -0.35915690D-10  0.11952670D-04 -0.44020644D-06 -0.16355465D-10  0.33736649D-05
  0.76332878D-05  0.12410253D-09 -0.16821648D-09  0.39539997D-06  0.41206990D-06
  0.66673327D-11 -0.32436555D-06 -0.34614849D-06 -0.30422607D-11 -0.86183438D-06
 -0.89006120D-06 -0.16959737D-10  0.32578010D-10 -0.64387256D-05 -0.12000956D-04
 -0.20349645D-04 -0.30800136D-04 -0.38429576D-04 -0.33005881D-04 -0.12671600D-04
  0.56680842D-07  0.43743382D-05  0.82041797D-05  0.13986328D-04  0.21857908D-04
  0.29228188D-04  0.31208890D-04  0.19080504D-04 -0.12588157D-04  0.58735712D-07
  0.15294517D-04  0.66081112D-06 -0.60304526D-05 -0.58475105D-05 -0.39446960D-05
  0.11439812D-04  0.11092770D-04  0.74831170D-05 -0.62904262D-10 -0.60995975D-10
 -0.41147524D-10  0.27801183D-05 -0.40831313D-05  0.24212082D-10  0.46608888D-05
 -0.15375567D-04  0.87607152D-10 -0.58814279D-07 -0.13998201D-06 -0.42819154D-12
  0.52666470D-05 -0.14255119D-04  0.89884718D-05  0.17587116D-04 -0.90124742D-10
  0.26848941D-09 -0.30224171D-05  0.84990438D-05 -0.54766267D-05 -0.11022692D-04
  0.58478606D-10 -0.15677898D-09 -0.15525306D-05  0.36983221D-05 -0.21457915D-05
 -0.43429807D-05  0.19133547D-10 -0.66787744D-10  0.10780935D-05  0.22427015D-05
  0.41183716D-10 -0.57360581D-05 -0.14701265D-05  0.16318326D-10  0.25017775D-05
 -0.52579781D-05 -0.13986947D-09  0.33510104D-10 -0.17058147D-05 -0.24848802D-05
 -0.33272921D-10  0.74953695D-05  0.16175802D-05 -0.13504638D-10 -0.23779254D-05
  0.58370605D-05  0.11332340D-09 -0.86778266D-10 -0.38993288D-05 -0.72678472D-05
 -0.12323861D-04 -0.18652737D-04 -0.23273170D-04 -0.19988549D-04 -0.76739927D-05
  0.34326240D-07  0.26273069D-05  0.49275792D-05  0.84004424D-05  0.13128256D-04
  0.17554980D-04  0.18744626D-04  0.11460097D-04 -0.75606758D-05  0.10436192D-05
  0.69489677D-05 -0.24155155D-05  0.67390828D-06  0.65346434D-06  0.44082318D-06
  0.14328288D-05  0.13893620D-05  0.93725538D-06  0.70934988D-10  0.68783077D-10
  0.46400658D-10  0.55746888D-05 -0.13726395D-05 -0.63935824D-10 -0.10285106D-04
 -0.25513152D-05  0.42677918D-10 -0.22877660D-06  0.21498362D-06  0.90771443D-11
 -0.16146091D-04  0.64615742D-05  0.96845172D-05 -0.51559793D-05 -0.71614104D-10
 -0.46757773D-10  0.52869605D-05 -0.14942187D-05 -0.37927417D-05  0.87116499D-07
  0.15623109D-10  0.35177481D-10  0.28359896D-05 -0.14512115D-05 -0.13847782D-05
  0.42054265D-05  0.45165142D-10 -0.20576511D-10  0.44014139D-05 -0.15043939D-05
 -0.47527191D-10 -0.63740384D-06  0.97427843D-05  0.90777542D-10 -0.12566838D-04
 -0.52296026D-05  0.51804031D-10  0.38173806D-09 -0.31309319D-05  0.11160128D-05
  0.12927201D-10  0.30744441D-05 -0.53640619D-05 -0.51986451D-10  0.63183517D-05
  0.20160235D-05  0.13204847D-10 -0.11567946D-09  0.78418749D-08  0.14143144D-07
  0.20854058D-07  0.57836302D-06  0.55503857D-06 -0.28329597D-07 -0.63161232D-05
 -0.22233998D-05 -0.13865498D-10  0.48375118D-05 -0.16966444D-05 -0.90763269D-10
  0.11326986D-05  0.46440689D-06 -0.12177445D-10  0.62502970D-06 -0.12461224D-05
  0.62109266D-06  0.10382706D-05  0.20035314D-11 -0.10178982D-09 -0.93840126D-06
  0.12570633D-06  0.81269493D-06  0.93248956D-08  0.21509223D-10 -0.39009198D-10
MO    2     MO 0.0        OCC NO =    2.0000000  ORB. ENERGY =  -63.645963
  0.43984658D-03  0.82740500D-03  0.14322788D-02  0.23477791D-02  0.36778414D-02
  0.55281088D-02  0.79010561D-02  0.10488848D-01  0.12215689D-01  0.11219992D-01
  0.65607705D-02  0.17215790D-02  0.94118051D-04 -0.33686685D-05  0.94143655D-06
 -0.27954428D-06  0.47657460D-07  0.38881932D-08 -0.25301199D+00 -0.46486142D+00
 -0.80385252D+00 -0.13164209D+01 -0.20726455D+01 -0.31298978D+01 -0.45686949D+01
 -0.62913704D+01 -0.80386870D+01 -0.87631108D+01 -0.72133895D+01 -0.19778624D+01
  0.39894768D+01  0.38879194D+01  0.85078628D+00  0.28662207D-01  0.97098398D-03
 -0.24700580D-05  0.98526923D-03  0.19315224D-02  0.33830135D-02  0.55267433D-02
  0.87170054D-02  0.13153572D-01  0.19285750D-01  0.26627168D-01  0.34522255D-01
  0.38390779D-01  0.33344755D-01  0.96860550D-02 -0.24418427D-01 -0.35579369D-01
 -0.61251156D-02  0.14942659D-01  0.71123291D-02 -0.34347609D-04 -0.37408252D-03
 -0.81054649D-03 -0.13798269D-02 -0.22522490D-02 -0.35504496D-02 -0.53586539D-02
 -0.78566599D-02 -0.10861275D-01 -0.14096845D-01 -0.15748641D-01 -0.13756794D-01
 -0.40747758D-02  0.10592076D-01  0.16294194D-01  0.28519815D-02 -0.89964179D-02
 -0.76365983D-02  0.28491466D-02 -0.29558699D-02 -0.30328274D-03 -0.59730856D-04
  0.44913150D-01  0.64442418D-01  0.85325187D-01  0.98526416D-01  0.91338520D-01
  0.59134223D-01  0.20872209D-01  0.24464029D-02  0.35566170D-04  0.52082697D-05
  0.53549101D-07  0.70619381D-01  0.10132631D+00  0.13416142D+00  0.15491843D+00
  0.14361651D+00  0.92979947D-01  0.32818507D-01  0.38466120D-02  0.55922618D-04
  0.81892450D-05  0.84198156D-07 -0.36563390D-06 -0.52461991D-06 -0.69462465D-06
 -0.80209466D-06 -0.74357865D-06 -0.48140637D-06 -0.16991877D-06 -0.19915945D-07
 -0.28954098D-09 -0.42400054D-10 -0.43593840D-12 -0.83228502D-02 -0.12014130D-01
 -0.16050590D-01 -0.19068594D-01 -0.18478929D-01 -0.12845213D-01 -0.41797091D-02
  0.18812008D-02  0.20323245D-02  0.52321571D-03 -0.51034861D-06 -0.33297557D-01
 -0.48065406D-01 -0.64214233D-01 -0.76288479D-01 -0.73929384D-01 -0.51390352D-01
 -0.16721928D-01  0.75261945D-02  0.81308010D-02  0.20932498D-02 -0.20417719D-05
  0.13821441D-06  0.19951409D-06  0.26654606D-06  0.31666490D-06  0.30687256D-06
  0.21331557D-06  0.69410841D-07 -0.31240387D-07 -0.33750041D-07 -0.86888446D-08
  0.84751656D-11  0.54352040D-02  0.78975925D-02  0.10499941D-01  0.12599202D-01
  0.12189784D-01  0.86533272D-02  0.26894758D-02 -0.15441274D-02 -0.17738596D-02
 -0.47106400D-03  0.16996136D-03  0.24089421D-01  0.35002998D-01  0.46536891D-01
  0.55841048D-01  0.54026461D-01  0.38352497D-01  0.11920052D-01 -0.68437421D-02
 -0.78619405D-02 -0.20878074D-02  0.75328742D-03 -0.99789956D-07 -0.14499923D-06
 -0.19277816D-06 -0.23132045D-06 -0.22380356D-06 -0.15887447D-06 -0.49378584D-07
  0.28350068D-07  0.32567934D-07  0.86487013D-08 -0.31204784D-08 -0.17481387D-03
 -0.31316717D-03  0.10513006D-08 -0.80621689D-04 -0.82999428D-04  0.60657355D-09
 -0.37763515D-05  0.43558273D-06  0.26196591D-10  0.35580019D-02  0.37230656D-02
  0.31722512D-02  0.20891672D-02  0.96283498D-03  0.28832249D-03  0.49055628D-04
 -0.16658235D-02 -0.17431048D-02 -0.14852186D-02 -0.97812870D-03 -0.45079040D-03
 -0.13498991D-03 -0.22967389D-04 -0.18921785D-02 -0.19799609D-02 -0.16870326D-02
 -0.11110385D-02 -0.51204458D-03 -0.15333258D-03 -0.26088238D-04  0.30099057D-02
  0.31495420D-02  0.26835784D-02  0.17673393D-02  0.81451404D-03  0.24390755D-03
  0.41498802D-04  0.19858919D-07  0.20780219D-07  0.17705859D-07  0.11660647D-07
  0.53740449D-08  0.16092665D-08  0.27380304D-09 -0.59623877D-08 -0.62389963D-08
 -0.53159588D-08 -0.35009607D-08 -0.16134886D-08 -0.48316176D-09 -0.82205878D-10
  0.18421846D-04  0.13837975D-03 -0.15680159D-03 -0.16231370D-03  0.13047183D-08
 -0.24223896D-08  0.65006211D-04  0.43512113D-04 -0.10851832D-03 -0.15008280D-03
  0.10761264D-08 -0.17166221D-08 -0.11642901D-04 -0.11597788D-04  0.23240689D-04
  0.12508774D-04 -0.25364177D-10  0.26230797D-09  0.15281916D-03  0.74663711D-04
  0.11157416D-08 -0.35702556D-03  0.76303909D-05  0.43415587D-09 -0.10143191D-03
 -0.23162152D-03 -0.37813808D-08  0.51227349D-08 -0.16274785D-04 -0.14588076D-04
 -0.23423795D-09  0.19382204D-04  0.10960004D-04  0.87800748D-10  0.29442151D-04
  0.32804224D-04  0.61491310D-09 -0.11225422D-08  0.18303214D-03  0.34114836D-03
  0.57847458D-03  0.87554822D-03  0.10924285D-02  0.93825042D-03  0.36021258D-03
 -0.16112530D-05 -0.12506994D-03 -0.23457178D-03 -0.39989346D-03 -0.62495564D-03
 -0.83568477D-03 -0.89231651D-03 -0.54554482D-03  0.35991733D-03  0.67662871D-05
 -0.40016191D-03  0.63182500D-05  0.16330021D-03  0.15834628D-03  0.10681946D-03
 -0.29466829D-03 -0.28572912D-03 -0.19275117D-03  0.16375207D-08  0.15878442D-08
  0.10711503D-08 -0.74428654D-04  0.94865323D-04 -0.58612149D-09 -0.13061330D-03
  0.44730396D-03 -0.25739682D-08  0.29945550D-05  0.21635472D-05  0.25216391D-10
 -0.14638507D-03  0.40101340D-03 -0.25462833D-03 -0.50083560D-03  0.25279612D-08
 -0.76570458D-08  0.85100847D-04 -0.24201904D-03  0.15691819D-03  0.31523956D-03
 -0.16635551D-08  0.45194060D-08  0.48693453D-04 -0.11523089D-03  0.66537432D-04
  0.13504329D-03 -0.59711443D-09  0.20839817D-08 -0.55689452D-04 -0.95693813D-04
 -0.16093154D-08  0.27085413D-03  0.58357022D-04 -0.58359559D-09 -0.10378577D-03
  0.22872442D-03  0.54115417D-08 -0.23212682D-08  0.55750834D-04  0.79652671D-04
  0.10750363D-08 -0.24412975D-03 -0.50010770D-04  0.42582418D-09  0.76877250D-04
 -0.18894724D-03 -0.36509330D-08  0.28452714D-08  0.92486945D-04  0.17238377D-03
  0.29230575D-03  0.44241837D-03  0.55200895D-03  0.47410207D-03  0.18201700D-03
 -0.81417322D-06 -0.63061090D-04 -0.11827264D-03 -0.20162892D-03 -0.31510675D-03
 -0.42135777D-03 -0.44991186D-03 -0.27506729D-03  0.18147269D-03 -0.12185786D-04
 -0.15379083D-03  0.10170856D-03 -0.11875913D-04 -0.11515640D-04 -0.77683830D-05
 -0.37068049D-04 -0.35943538D-04 -0.24247299D-04 -0.21112898D-08 -0.20472409D-08
 -0.13810566D-08 -0.15879919D-03  0.42781517D-04  0.20086590D-08  0.27095866D-03
  0.71456528D-04 -0.15033939D-08  0.45313030D-05 -0.74780857D-05 -0.30127899D-09
  0.40957082D-03 -0.16192019D-03 -0.24765063D-03  0.11333210D-03  0.19383546D-08
  0.11262984D-08 -0.13758550D-03  0.32547823D-04  0.10503768D-03  0.14748709D-04
 -0.39545738D-09 -0.11046150D-08 -0.81987364D-04  0.42438695D-04  0.39548669D-04
 -0.12571830D-03 -0.13661018D-08  0.68289339D-09 -0.13372409D-03  0.49144714D-04
  0.13381259D-08  0.23558536D-04 -0.29973576D-03 -0.29021080D-08  0.37761373D-03
  0.15230162D-03 -0.11122697D-08 -0.11740713D-07  0.91516126D-04 -0.31859074D-04
 -0.37611976D-09 -0.90740238D-04  0.15666301D-03  0.15442080D-08 -0.18380814D-03
 -0.61085792D-04 -0.41584875D-09  0.35568573D-08  0.97562923D-06  0.17595875D-05
  0.25945107D-05 -0.20001791D-04 -0.11289173D-04  0.19911681D-05  0.18068925D-03
  0.74260646D-04  0.54994409D-09 -0.14552627D-03  0.50638548D-04  0.29172808D-08
 -0.38709842D-04 -0.13962866D-04  0.42322611D-09 -0.24537246D-04  0.40174484D-04
 -0.15637238D-04 -0.45401542D-04 -0.26232671D-09  0.32230018D-08  0.31177629D-04
 -0.49178082D-05 -0.26259821D-04  0.14860226D-05 -0.66321199D-09  0.12476925D-08
MO    3     MO 0.0        OCC NO =    2.0000000  ORB. ENERGY =  -57.279420
 -0.23466679D-05 -0.44143682D-05 -0.76414890D-05 -0.12525863D-04 -0.19622006D-04
 -0.29493546D-04 -0.42153687D-04 -0.55960067D-04 -0.65173098D-04 -0.59860860D-04
 -0.35002999D-04 -0.91849622D-05 -0.50213830D-06  0.17972509D-07 -0.50227490D-08
  0.14914237D-08 -0.25426191D-09 -0.20744275D-10  0.21677678D-03  0.39828611D-03
  0.68872847D-03  0.11278891D-02  0.17758107D-02  0.26816482D-02  0.39143875D-02
  0.53903493D-02  0.68874233D-02  0.75080984D-02  0.61803211D-02  0.16946021D-02
 -0.34181223D-02 -0.33311095D-02 -0.72894059D-03 -0.24557337D-04 -0.83192413D-06
  0.21163077D-08  0.40986637D-06  0.80350226D-06  0.14073143D-05  0.22990936D-05
  0.36262244D-05  0.54718107D-05  0.80227617D-05  0.11076750D-04  0.14361061D-04
  0.15970345D-04  0.13871228D-04  0.40293435D-05 -0.10157926D-04 -0.14800814D-04
 -0.25480131D-05  0.62160609D-05  0.29586883D-05 -0.14288409D-07  0.21366155D-05
  0.46295299D-05  0.78810405D-05  0.12863980D-04  0.20278803D-04  0.30606570D-04
  0.44874220D-04  0.62035424D-04  0.80515756D-04  0.89950180D-04  0.78573518D-04
  0.23273553D-04 -0.60497868D-04 -0.93066169D-04 -0.16289421D-04  0.51384080D-04
  0.43617313D-04 -0.16273230D-04 -0.11875754D-03  0.23269916D-03  0.17943143D-04
  0.51991595D+02  0.74598733D+02  0.98772689D+02  0.11405447D+03  0.10573374D+03
  0.68453951D+02  0.24161731D+02  0.28319632D+01  0.41171503D-01  0.60291084D-02
  0.61988597D-04  0.15912891D+01  0.22832181D+01  0.30231021D+01  0.34908264D+01
  0.32361567D+01  0.20951468D+01  0.73950989D+00  0.86676935D-01  0.12601222D-02
  0.18453087D-03  0.18972639D-05  0.11704844D-03  0.16794379D-03  0.22236650D-03
  0.25677031D-03  0.23803789D-03  0.15411007D-03  0.54395194D-04  0.63755858D-05
  0.92689217D-07  0.13573304D-07  0.13955465D-09 -0.26477636D-01 -0.38220772D-01
 -0.51062038D-01 -0.60663267D-01 -0.58787356D-01 -0.40864711D-01 -0.13296985D-01
  0.59846985D-02  0.64654711D-02  0.16645157D-02 -0.16235814D-05  0.45047738D-02
  0.65026927D-02  0.86874420D-02  0.10320948D-01  0.10001789D-01  0.69525195D-02
  0.22622832D-02 -0.10182069D-02 -0.11000032D-02 -0.28319246D-03  0.27622809D-06
 -0.80293932D-07 -0.11590521D-06 -0.15484659D-06 -0.18396250D-06 -0.17827377D-06
 -0.12392301D-06 -0.40323359D-07  0.18148711D-07  0.19606663D-07  0.50476754D-08
 -0.49235413D-11  0.22377602D-01  0.32515649D-01  0.43229932D-01  0.51872926D-01
  0.50187285D-01  0.35627129D-01  0.11073001D-01 -0.63574188D-02 -0.73032629D-02
 -0.19394456D-02  0.69975804D-03 -0.30837594D-02 -0.44808392D-02 -0.59573277D-02
 -0.71483808D-02 -0.69160901D-02 -0.49096187D-02 -0.15259218D-02  0.87608805D-03
  0.10064307D-02  0.26726651D-03 -0.96430592D-04  0.65034320D-07  0.94497752D-07
  0.12563586D-06  0.15075433D-06  0.14585548D-06  0.10354041D-06  0.32180620D-07
 -0.18476082D-07 -0.21224916D-07 -0.56364631D-08  0.20336535D-08 -0.15703281D-02
  0.47147466D-04 -0.39617761D-08  0.73749230D-04 -0.86470518D-05  0.10760320D-09
  0.11196085D-05  0.48526010D-07  0.63328486D-12  0.57833361D-02  0.60516380D-02
  0.51563195D-02  0.33958262D-02  0.15650352D-02  0.46865232D-03  0.79737220D-04
 -0.28009159D-02 -0.29308567D-02 -0.24972467D-02 -0.16446258D-02 -0.75795905D-03
 -0.22697206D-03 -0.38617373D-04 -0.29824202D-02 -0.31207814D-02 -0.26590728D-02
 -0.17512004D-02 -0.80707615D-03 -0.24168026D-03 -0.41119847D-04  0.12744927D-01
  0.13336193D-01  0.11363151D-01  0.74834937D-02  0.34489194D-02  0.10327845D-02
  0.17571953D-03 -0.40801399D-07 -0.42694268D-07 -0.36377801D-07 -0.23957532D-07
 -0.11041313D-07 -0.33063392D-08 -0.56254558D-09  0.25911296D-07  0.27113380D-07
  0.23102051D-07  0.15214447D-07  0.70118857D-08  0.20997205D-08  0.35724964D-09
 -0.14216361D-03  0.92295414D-04  0.49868193D-04 -0.18938358D-03 -0.19510497D-10
 -0.75605563D-09  0.17356129D-03 -0.12185679D-03 -0.51704504D-04  0.18190076D-03
  0.11168350D-09  0.10557426D-08  0.69944666D-05 -0.40397079D-05 -0.29547588D-05
  0.28035396D-06 -0.97178929D-11 -0.34201317D-10  0.18527707D-04 -0.70448357D-05
 -0.22242774D-09  0.74936326D-05  0.43462403D-05  0.25514202D-09 -0.63076754D-04
  0.16788267D-04  0.41214119D-09  0.21760167D-09  0.14271370D-04 -0.11562205D-04
 -0.73455164D-10 -0.11658968D-04  0.34790350D-04  0.94399014D-10 -0.31155141D-04
 -0.10373547D-06  0.12596648D-09 -0.34983910D-09 -0.25971547D-04 -0.48407621D-04