 Molden2AIM, Version 4.0.0 (06/02/2016)           Time: Tue Jul  3 04:11:21 2018
GAUSSIAN             40 MOL ORBITALS    674 PRIMITIVES        6 NUCLEI
  C    1    (CENTRE  1)   0.00000000  0.00000000  1.27228079  CHARGE =  6.0
  C    2    (CENTRE  2)   0.00000000  0.00000000 -1.27228079  CHARGE =  6.0
  Cl   3    (CENTRE  3)   0.00000000 -2.74217969  3.00936618  CHARGE = 17.0
  Cl   4    (CENTRE  4)   0.00000000  2.74217969 -3.00936618  CHARGE = 17.0
  Cl   5    (CENTRE  5)   0.00000189 -2.74217969 -3.00936618  CHARGE = 17.0
  Cl   6    (CENTRE  6)   0.00000189  2.74217969  3.00936618  CHARGE = 17.0
CENTRE ASSIGNMENTS    1  1  1  1  1  1  1  1  1  1  1  1  1  1  1  1  1  1  1  1
CENTRE ASSIGNMENTS    1  1  1  1  1  1  1  1  1  1  1  1  1  1  1  1  1  1  1  1
CENTRE ASSIGNMENTS    1  1  1  1  1  1  1  1  1  1  1  1  1  1  1  1  1  1  1  1
CENTRE ASSIGNMENTS    1  1  1  1  1  1  1  1  1  1  1  1  1  1  1  2  2  2  2  2
CENTRE ASSIGNMENTS    2  2  2  2  2  2  2  2  2  2  2  2  2  2  2  2  2  2  2  2
CENTRE ASSIGNMENTS    2  2  2  2  2  2  2  2  2  2  2  2  2  2  2  2  2  2  2  2
CENTRE ASSIGNMENTS    2  2  2  2  2  2  2  2  2  2  2  2  2  2  2  2  2  2  2  2
CENTRE ASSIGNMENTS    2  2  2  2  2  2  2  2  2  2  3  3  3  3  3  3  3  3  3  3
CENTRE ASSIGNMENTS    3  3  3  3  3  3  3  3  3  3  3  3  3  3  3  3  3  3  3  3
CENTRE ASSIGNMENTS    3  3  3  3  3  3  3  3  3  3  3  3  3  3  3  3  3  3  3  3
CENTRE ASSIGNMENTS    3  3  3  3  3  3  3  3  3  3  3  3  3  3  3  3  3  3  3  3
CENTRE ASSIGNMENTS    3  3  3  3  3  3  3  3  3  3  3  3  3  3  3  3  3  3  3  3
CENTRE ASSIGNMENTS    3  3  3  3  3  3  3  3  3  3  3  3  3  3  3  3  3  3  3  3
CENTRE ASSIGNMENTS    3  3  3  3  3  3  3  3  3  3  3  3  3  3  3  3  3  3  3  3
CENTRE ASSIGNMENTS    3  4  4  4  4  4  4  4  4  4  4  4  4  4  4  4  4  4  4  4
CENTRE ASSIGNMENTS    4  4  4  4  4  4  4  4  4  4  4  4  4  4  4  4  4  4  4  4
CENTRE ASSIGNMENTS    4  4  4  4  4  4  4  4  4  4  4  4  4  4  4  4  4  4  4  4
CENTRE ASSIGNMENTS    4  4  4  4  4  4  4  4  4  4  4  4  4  4  4  4  4  4  4  4
CENTRE ASSIGNMENTS    4  4  4  4  4  4  4  4  4  4  4  4  4  4  4  4  4  4  4  4
CENTRE ASSIGNMENTS    4  4  4  4  4  4  4  4  4  4  4  4  4  4  4  4  4  4  4  4
CENTRE ASSIGNMENTS    4  4  4  4  4  4  4  4  4  4  4  4  5  5  5  5  5  5  5  5
CENTRE ASSIGNMENTS    5  5  5  5  5  5  5  5  5  5  5  5  5  5  5  5  5  5  5  5
CENTRE ASSIGNMENTS    5  5  5  5  5  5  5  5  5  5  5  5  5  5  5  5  5  5  5  5
CENTRE ASSIGNMENTS    5  5  5  5  5  5  5  5  5  5  5  5  5  5  5  5  5  5  5  5
CENTRE ASSIGNMENTS    5  5  5  5  5  5  5  5  5  5  5  5  5  5  5  5  5  5  5  5
CENTRE ASSIGNMENTS    5  5  5  5  5  5  5  5  5  5  5  5  5  5  5  5  5  5  5  5
CENTRE ASSIGNMENTS    5  5  5  5  5  5  5  5  5  5  5  5  5  5  5  5  5  5  5  5
CENTRE ASSIGNMENTS    5  5  5  6  6  6  6  6  6  6  6  6  6  6  6  6  6  6  6  6
CENTRE ASSIGNMENTS    6  6  6  6  6  6  6  6  6  6  6  6  6  6  6  6  6  6  6  6
CENTRE ASSIGNMENTS    6  6  6  6  6  6  6  6  6  6  6  6  6  6  6  6  6  6  6  6
CENTRE ASSIGNMENTS    6  6  6  6  6  6  6  6  6  6  6  6  6  6  6  6  6  6  6  6
CENTRE ASSIGNMENTS    6  6  6  6  6  6  6  6  6  6  6  6  6  6  6  6  6  6  6  6
CENTRE ASSIGNMENTS    6  6  6  6  6  6  6  6  6  6  6  6  6  6  6  6  6  6  6  6
CENTRE ASSIGNMENTS    6  6  6  6  6  6  6  6  6  6  6  6  6  6
TYPE ASSIGNMENTS      1  1  1  1  1  1  1  1  1  1  1  1  1  1  1  1  1  1  1  2
TYPE ASSIGNMENTS      2  2  3  3  3  4  4  4  2  3  4  2  3  4  2  3  4  5  6  7
TYPE ASSIGNMENTS      8  9 10  5  6  7  8  9 10  5  6  7  8  9 10 11 12 13 17 14
TYPE ASSIGNMENTS     15 18 19 16 20 11 12 13 17 14 15 18 19 16 20  1  1  1  1  1
TYPE ASSIGNMENTS      1  1  1  1  1  1  1  1  1  1  1  1  1  1  2  2  2  3  3  3
TYPE ASSIGNMENTS      4  4  4  2  3  4  2  3  4  2  3  4  5  6  7  8  9 10  5  6
TYPE ASSIGNMENTS      7  8  9 10  5  6  7  8  9 10 11 12 13 17 14 15 18 19 16 20
TYPE ASSIGNMENTS     11 12 13 17 14 15 18 19 16 20  1  1  1  1  1  1  1  1  1  1
TYPE ASSIGNMENTS      1  1  1  1  1  1  1  1  1  1  1  1  1  1  1  1  1  1  1  1
TYPE ASSIGNMENTS      1  1  1  1  1  1  1  1  1  1  1  1  2  2  2  2  2  2  2  3
TYPE ASSIGNMENTS      3  3  3  3  3  3  4  4  4  4  4  4  4  2  2  2  2  2  2  2
TYPE ASSIGNMENTS      3  3  3  3  3  3  3  4  4  4  4  4  4  4  2  3  4  2  3  4
TYPE ASSIGNMENTS      2  3  4  5  6  7  8  9 10  5  6  7  8  9 10  5  6  7  8  9
TYPE ASSIGNMENTS     10 11 12 13 17 14 15 18 19 16 20 11 12 13 17 14 15 18 19 16
TYPE ASSIGNMENTS     20  1  1  1  1  1  1  1  1  1  1  1  1  1  1  1  1  1  1  1
TYPE ASSIGNMENTS      1  1  1  1  1  1  1  1  1  1  1  1  1  1  1  1  1  1  1  1
TYPE ASSIGNMENTS      1  1  1  2  2  2  2  2  2  2  3  3  3  3  3  3  3  4  4  4
TYPE ASSIGNMENTS      4  4  4  4  2  2  2  2  2  2  2  3  3  3  3  3  3  3  4  4
TYPE ASSIGNMENTS      4  4  4  4  4  2  3  4  2  3  4  2  3  4  5  6  7  8  9 10
TYPE ASSIGNMENTS      5  6  7  8  9 10  5  6  7  8  9 10 11 12 13 17 14 15 18 19
TYPE ASSIGNMENTS     16 20 11 12 13 17 14 15 18 19 16 20  1  1  1  1  1  1  1  1
TYPE ASSIGNMENTS      1  1  1  1  1  1  1  1  1  1  1  1  1  1  1  1  1  1  1  1
TYPE ASSIGNMENTS      1  1  1  1  1  1  1  1  1  1  1  1  1  1  2  2  2  2  2  2
TYPE ASSIGNMENTS      2  3  3  3  3  3  3  3  4  4  4  4  4  4  4  2  2  2  2  2
TYPE ASSIGNMENTS      2  2  3  3  3  3  3  3  3  4  4  4  4  4  4  4  2  3  4  2
TYPE ASSIGNMENTS      3  4  2  3  4  5  6  7  8  9 10  5  6  7  8  9 10  5  6  7
TYPE ASSIGNMENTS      8  9 10 11 12 13 17 14 15 18 19 16 20 11 12 13 17 14 15 18
TYPE ASSIGNMENTS     19 16 20  1  1  1  1  1  1  1  1  1  1  1  1  1  1  1  1  1
TYPE ASSIGNMENTS      1  1  1  1  1  1  1  1  1  1  1  1  1  1  1  1  1  1  1  1
TYPE ASSIGNMENTS      1  1  1  1  1  2  2  2  2  2  2  2  3  3  3  3  3  3  3  4
TYPE ASSIGNMENTS      4  4  4  4  4  4  2  2  2  2  2  2  2  3  3  3  3  3  3  3
TYPE ASSIGNMENTS      4  4  4  4  4  4  4  2  3  4  2  3  4  2  3  4  5  6  7  8
TYPE ASSIGNMENTS      9 10  5  6  7  8  9 10  5  6  7  8  9 10 11 12 13 17 14 15
TYPE ASSIGNMENTS     18 19 16 20 11 12 13 17 14 15 18 19 16 20
EXPONENTS  0.8236000D+04 0.1235000D+04 0.2808000D+03 0.7927000D+02 0.2559000D+02
EXPONENTS  0.8997000D+01 0.3319000D+01 0.3643000D+00 0.8236000D+04 0.1235000D+04
EXPONENTS  0.2808000D+03 0.7927000D+02 0.2559000D+02 0.8997000D+01 0.3319000D+01
EXPONENTS  0.3643000D+00 0.9059000D+00 0.1285000D+00 0.4402000D-01 0.1871000D+02
EXPONENTS  0.4133000D+01 0.1200000D+01 0.1871000D+02 0.4133000D+01 0.1200000D+01
EXPONENTS  0.1871000D+02 0.4133000D+01 0.1200000D+01 0.3827000D+00 0.3827000D+00
EXPONENTS  0.3827000D+00 0.1209000D+00 0.1209000D+00 0.1209000D+00 0.3569000D-01
EXPONENTS  0.3569000D-01 0.3569000D-01 0.1097000D+01 0.1097000D+01 0.1097000D+01
EXPONENTS  0.1097000D+01 0.1097000D+01 0.1097000D+01 0.3180000D+00 0.3180000D+00
EXPONENTS  0.3180000D+00 0.3180000D+00 0.3180000D+00 0.3180000D+00 0.1000000D+00
EXPONENTS  0.1000000D+00 0.1000000D+00 0.1000000D+00 0.1000000D+00 0.1000000D+00
EXPONENTS  0.7610000D+00 0.7610000D+00 0.7610000D+00 0.7610000D+00 0.7610000D+00
EXPONENTS  0.7610000D+00 0.7610000D+00 0.7610000D+00 0.7610000D+00 0.7610000D+00
EXPONENTS  0.2680000D+00 0.2680000D+00 0.2680000D+00 0.2680000D+00 0.2680000D+00
EXPONENTS  0.2680000D+00 0.2680000D+00 0.2680000D+00 0.2680000D+00 0.2680000D+00
EXPONENTS  0.8236000D+04 0.1235000D+04 0.2808000D+03 0.7927000D+02 0.2559000D+02
EXPONENTS  0.8997000D+01 0.3319000D+01 0.3643000D+00 0.8236000D+04 0.1235000D+04
EXPONENTS  0.2808000D+03 0.7927000D+02 0.2559000D+02 0.8997000D+01 0.3319000D+01
EXPONENTS  0.3643000D+00 0.9059000D+00 0.1285000D+00 0.4402000D-01 0.1871000D+02
EXPONENTS  0.4133000D+01 0.1200000D+01 0.1871000D+02 0.4133000D+01 0.1200000D+01
EXPONENTS  0.1871000D+02 0.4133000D+01 0.1200000D+01 0.3827000D+00 0.3827000D+00
EXPONENTS  0.3827000D+00 0.1209000D+00 0.1209000D+00 0.1209000D+00 0.3569000D-01
EXPONENTS  0.3569000D-01 0.3569000D-01 0.1097000D+01 0.1097000D+01 0.1097000D+01
EXPONENTS  0.1097000D+01 0.1097000D+01 0.1097000D+01 0.3180000D+00 0.3180000D+00
EXPONENTS  0.3180000D+00 0.3180000D+00 0.3180000D+00 0.3180000D+00 0.1000000D+00
EXPONENTS  0.1000000D+00 0.1000000D+00 0.1000000D+00 0.1000000D+00 0.1000000D+00
EXPONENTS  0.7610000D+00 0.7610000D+00 0.7610000D+00 0.7610000D+00 0.7610000D+00
EXPONENTS  0.7610000D+00 0.7610000D+00 0.7610000D+00 0.7610000D+00 0.7610000D+00
EXPONENTS  0.2680000D+00 0.2680000D+00 0.2680000D+00 0.2680000D+00 0.2680000D+00
EXPONENTS  0.2680000D+00 0.2680000D+00 0.2680000D+00 0.2680000D+00 0.2680000D+00
EXPONENTS  0.4561000D+06 0.6833000D+05 0.1555000D+05 0.4405000D+04 0.1439000D+04
EXPONENTS  0.5204000D+03 0.2031000D+03 0.8396000D+02 0.3620000D+02 0.1583000D+02
EXPONENTS  0.6334000D+01 0.2694000D+01 0.4313000D+00 0.4561000D+06 0.6833000D+05
EXPONENTS  0.1555000D+05 0.4405000D+04 0.1439000D+04 0.5204000D+03 0.2031000D+03
EXPONENTS  0.8396000D+02 0.3620000D+02 0.1583000D+02 0.6334000D+01 0.2694000D+01
EXPONENTS  0.4313000D+00 0.4561000D+06 0.6833000D+05 0.1555000D+05 0.4405000D+04
EXPONENTS  0.1439000D+04 0.5204000D+03 0.2031000D+03 0.8396000D+02 0.3620000D+02
EXPONENTS  0.1583000D+02 0.6334000D+01 0.2694000D+01 0.4313000D+00 0.9768000D+00
EXPONENTS  0.1625000D+00 0.5910000D-01 0.6633000D+03 0.1568000D+03 0.4998000D+02
EXPONENTS  0.1842000D+02 0.7240000D+01 0.2922000D+01 0.3818000D+00 0.6633000D+03
EXPONENTS  0.1568000D+03 0.4998000D+02 0.1842000D+02 0.7240000D+01 0.2922000D+01
EXPONENTS  0.3818000D+00 0.6633000D+03 0.1568000D+03 0.4998000D+02 0.1842000D+02
EXPONENTS  0.7240000D+01 0.2922000D+01 0.3818000D+00 0.6633000D+03 0.1568000D+03
EXPONENTS  0.4998000D+02 0.1842000D+02 0.7240000D+01 0.2922000D+01 0.3818000D+00
EXPONENTS  0.6633000D+03 0.1568000D+03 0.4998000D+02 0.1842000D+02 0.7240000D+01
EXPONENTS  0.2922000D+01 0.3818000D+00 0.6633000D+03 0.1568000D+03 0.4998000D+02
EXPONENTS  0.1842000D+02 0.7240000D+01 0.2922000D+01 0.3818000D+00 0.1022000D+01
EXPONENTS  0.1022000D+01 0.1022000D+01 0.1301000D+00 0.1301000D+00 0.1301000D+00
EXPONENTS  0.4190000D-01 0.4190000D-01 0.4190000D-01 0.1046000D+01 0.1046000D+01
EXPONENTS  0.1046000D+01 0.1046000D+01 0.1046000D+01 0.1046000D+01 0.3440000D+00
EXPONENTS  0.3440000D+00 0.3440000D+00 0.3440000D+00 0.3440000D+00 0.3440000D+00
EXPONENTS  0.1350000D+00 0.1350000D+00 0.1350000D+00 0.1350000D+00 0.1350000D+00
EXPONENTS  0.1350000D+00 0.7060000D+00 0.7060000D+00 0.7060000D+00 0.7060000D+00
EXPONENTS  0.7060000D+00 0.7060000D+00 0.7060000D+00 0.7060000D+00 0.7060000D+00
EXPONENTS  0.7060000D+00 0.3120000D+00 0.3120000D+00 0.3120000D+00 0.3120000D+00
EXPONENTS  0.3120000D+00 0.3120000D+00 0.3120000D+00 0.3120000D+00 0.3120000D+00
EXPONENTS  0.3120000D+00 0.4561000D+06 0.6833000D+05 0.1555000D+05 0.4405000D+04
EXPONENTS  0.1439000D+04 0.5204000D+03 0.2031000D+03 0.8396000D+02 0.3620000D+02
EXPONENTS  0.1583000D+02 0.6334000D+01 0.2694000D+01 0.4313000D+00 0.4561000D+06
EXPONENTS  0.6833000D+05 0.1555000D+05 0.4405000D+04 0.1439000D+04 0.5204000D+03
EXPONENTS  0.2031000D+03 0.8396000D+02 0.3620000D+02 0.1583000D+02 0.6334000D+01
EXPONENTS  0.2694000D+01 0.4313000D+00 0.4561000D+06 0.6833000D+05 0.1555000D+05
EXPONENTS  0.4405000D+04 0.1439000D+04 0.5204000D+03 0.2031000D+03 0.8396000D+02
EXPONENTS  0.3620000D+02 0.1583000D+02 0.6334000D+01 0.2694000D+01 0.4313000D+00
EXPONENTS  0.9768000D+00 0.1625000D+00 0.5910000D-01 0.6633000D+03 0.1568000D+03
EXPONENTS  0.4998000D+02 0.1842000D+02 0.7240000D+01 0.2922000D+01 0.3818000D+00
EXPONENTS  0.6633000D+03 0.1568000D+03 0.4998000D+02 0.1842000D+02 0.7240000D+01
EXPONENTS  0.2922000D+01 0.3818000D+00 0.6633000D+03 0.1568000D+03 0.4998000D+02
EXPONENTS  0.1842000D+02 0.7240000D+01 0.2922000D+01 0.3818000D+00 0.6633000D+03
EXPONENTS  0.1568000D+03 0.4998000D+02 0.1842000D+02 0.7240000D+01 0.2922000D+01
EXPONENTS  0.3818000D+00 0.6633000D+03 0.1568000D+03 0.4998000D+02 0.1842000D+02
EXPONENTS  0.7240000D+01 0.2922000D+01 0.3818000D+00 0.6633000D+03 0.1568000D+03
EXPONENTS  0.4998000D+02 0.1842000D+02 0.7240000D+01 0.2922000D+01 0.3818000D+00
EXPONENTS  0.1022000D+01 0.1022000D+01 0.1022000D+01 0.1301000D+00 0.1301000D+00
EXPONENTS  0.1301000D+00 0.4190000D-01 0.4190000D-01 0.4190000D-01 0.1046000D+01
EXPONENTS  0.1046000D+01 0.1046000D+01 0.1046000D+01 0.1046000D+01 0.1046000D+01
EXPONENTS  0.3440000D+00 0.3440000D+00 0.3440000D+00 0.3440000D+00 0.3440000D+00
EXPONENTS  0.3440000D+00 0.1350000D+00 0.1350000D+00 0.1350000D+00 0.1350000D+00
EXPONENTS  0.1350000D+00 0.1350000D+00 0.7060000D+00 0.7060000D+00 0.7060000D+00
EXPONENTS  0.7060000D+00 0.7060000D+00 0.7060000D+00 0.7060000D+00 0.7060000D+00
EXPONENTS  0.7060000D+00 0.7060000D+00 0.3120000D+00 0.3120000D+00 0.3120000D+00
EXPONENTS  0.3120000D+00 0.3120000D+00 0.3120000D+00 0.3120000D+00 0.3120000D+00
EXPONENTS  0.3120000D+00 0.3120000D+00 0.4561000D+06 0.6833000D+05 0.1555000D+05
EXPONENTS  0.4405000D+04 0.1439000D+04 0.5204000D+03 0.2031000D+03 0.8396000D+02
EXPONENTS  0.3620000D+02 0.1583000D+02 0.6334000D+01 0.2694000D+01 0.4313000D+00
EXPONENTS  0.4561000D+06 0.6833000D+05 0.1555000D+05 0.4405000D+04 0.1439000D+04
EXPONENTS  0.5204000D+03 0.2031000D+03 0.8396000D+02 0.3620000D+02 0.1583000D+02
EXPONENTS  0.6334000D+01 0.2694000D+01 0.4313000D+00 0.4561000D+06 0.6833000D+05
EXPONENTS  0.1555000D+05 0.4405000D+04 0.1439000D+04 0.5204000D+03 0.2031000D+03
EXPONENTS  0.8396000D+02 0.3620000D+02 0.1583000D+02 0.6334000D+01 0.2694000D+01
EXPONENTS  0.4313000D+00 0.9768000D+00 0.1625000D+00 0.5910000D-01 0.6633000D+03
EXPONENTS  0.1568000D+03 0.4998000D+02 0.1842000D+02 0.7240000D+01 0.2922000D+01
EXPONENTS  0.3818000D+00 0.6633000D+03 0.1568000D+03 0.4998000D+02 0.1842000D+02
EXPONENTS  0.7240000D+01 0.2922000D+01 0.3818000D+00 0.6633000D+03 0.1568000D+03
EXPONENTS  0.4998000D+02 0.1842000D+02 0.7240000D+01 0.2922000D+01 0.3818000D+00
EXPONENTS  0.6633000D+03 0.1568000D+03 0.4998000D+02 0.1842000D+02 0.7240000D+01
EXPONENTS  0.2922000D+01 0.3818000D+00 0.6633000D+03 0.1568000D+03 0.4998000D+02
EXPONENTS  0.1842000D+02 0.7240000D+01 0.2922000D+01 0.3818000D+00 0.6633000D+03
EXPONENTS  0.1568000D+03 0.4998000D+02 0.1842000D+02 0.7240000D+01 0.2922000D+01
EXPONENTS  0.3818000D+00 0.1022000D+01 0.1022000D+01 0.1022000D+01 0.1301000D+00
EXPONENTS  0.1301000D+00 0.1301000D+00 0.4190000D-01 0.4190000D-01 0.4190000D-01
EXPONENTS  0.1046000D+01 0.1046000D+01 0.1046000D+01 0.1046000D+01 0.1046000D+01
EXPONENTS  0.1046000D+01 0.3440000D+00 0.3440000D+00 0.3440000D+00 0.3440000D+00
EXPONENTS  0.3440000D+00 0.3440000D+00 0.1350000D+00 0.1350000D+00 0.1350000D+00
EXPONENTS  0.1350000D+00 0.1350000D+00 0.1350000D+00 0.7060000D+00 0.7060000D+00
EXPONENTS  0.7060000D+00 0.7060000D+00 0.7060000D+00 0.7060000D+00 0.7060000D+00
EXPONENTS  0.7060000D+00 0.7060000D+00 0.7060000D+00 0.3120000D+00 0.3120000D+00
EXPONENTS  0.3120000D+00 0.3120000D+00 0.3120000D+00 0.3120000D+00 0.3120000D+00
EXPONENTS  0.3120000D+00 0.3120000D+00 0.3120000D+00 0.4561000D+06 0.6833000D+05
EXPONENTS  0.1555000D+05 0.4405000D+04 0.1439000D+04 0.5204000D+03 0.2031000D+03
EXPONENTS  0.8396000D+02 0.3620000D+02 0.1583000D+02 0.6334000D+01 0.2694000D+01
EXPONENTS  0.4313000D+00 0.4561000D+06 0.6833000D+05 0.1555000D+05 0.4405000D+04
EXPONENTS  0.1439000D+04 0.5204000D+03 0.2031000D+03 0.8396000D+02 0.3620000D+02
EXPONENTS  0.1583000D+02 0.6334000D+01 0.2694000D+01 0.4313000D+00 0.4561000D+06
EXPONENTS  0.6833000D+05 0.1555000D+05 0.4405000D+04 0.1439000D+04 0.5204000D+03
EXPONENTS  0.2031000D+03 0.8396000D+02 0.3620000D+02 0.1583000D+02 0.6334000D+01
EXPONENTS  0.2694000D+01 0.4313000D+00 0.9768000D+00 0.1625000D+00 0.5910000D-01
EXPONENTS  0.6633000D+03 0.1568000D+03 0.4998000D+02 0.1842000D+02 0.7240000D+01
EXPONENTS  0.2922000D+01 0.3818000D+00 0.6633000D+03 0.1568000D+03 0.4998000D+02
EXPONENTS  0.1842000D+02 0.7240000D+01 0.2922000D+01 0.3818000D+00 0.6633000D+03
EXPONENTS  0.1568000D+03 0.4998000D+02 0.1842000D+02 0.7240000D+01 0.2922000D+01
EXPONENTS  0.3818000D+00 0.6633000D+03 0.1568000D+03 0.4998000D+02 0.1842000D+02
EXPONENTS  0.7240000D+01 0.2922000D+01 0.3818000D+00 0.6633000D+03 0.1568000D+03
EXPONENTS  0.4998000D+02 0.1842000D+02 0.7240000D+01 0.2922000D+01 0.3818000D+00
EXPONENTS  0.6633000D+03 0.1568000D+03 0.4998000D+02 0.1842000D+02 0.7240000D+01
EXPONENTS  0.2922000D+01 0.3818000D+00 0.1022000D+01 0.1022000D+01 0.1022000D+01
EXPONENTS  0.1301000D+00 0.1301000D+00 0.1301000D+00 0.4190000D-01 0.4190000D-01
EXPONENTS  0.4190000D-01 0.1046000D+01 0.1046000D+01 0.1046000D+01 0.1046000D+01
EXPONENTS  0.1046000D+01 0.1046000D+01 0.3440000D+00 0.3440000D+00 0.3440000D+00
EXPONENTS  0.3440000D+00 0.3440000D+00 0.3440000D+00 0.1350000D+00 0.1350000D+00
EXPONENTS  0.1350000D+00 0.1350000D+00 0.1350000D+00 0.1350000D+00 0.7060000D+00
EXPONENTS  0.7060000D+00 0.7060000D+00 0.7060000D+00 0.7060000D+00 0.7060000D+00
EXPONENTS  0.7060000D+00 0.7060000D+00 0.7060000D+00 0.7060000D+00 0.3120000D+00
EXPONENTS  0.3120000D+00 0.3120000D+00 0.3120000D+00 0.3120000D+00 0.3120000D+00
EXPONENTS  0.3120000D+00 0.3120000D+00 0.3120000D+00 0.3120000D+00
MO    1     MO 0.0        OCC NO =    2.0000000  ORB. ENERGY = -102.812956
  0.28795934D-10  0.53682167D-10  0.90732320D-10  0.13640040D-09  0.16758365D-09
  0.14155118D-09  0.53387897D-10 -0.26421968D-12 -0.21711400D-10 -0.40650592D-10
 -0.69211111D-10 -0.10705906D-09 -0.14099302D-09 -0.14650078D-09 -0.93094669D-10
  0.62389883D-10  0.56745396D-10  0.22152112D-09 -0.11747208D-12 -0.56763325D-10
 -0.53219225D-10 -0.37895259D-10  0.14734866D-04  0.13814873D-04  0.98370129D-05
  0.30487834D-11  0.28584282D-11  0.20353712D-11  0.39386435D-10 -0.29659570D-03
 -0.16662683D-10 -0.11230477D-09 -0.17551271D-03  0.39765860D-10 -0.37970591D-11
 -0.11563650D-04  0.59887369D-13 -0.20097251D-10  0.16881712D-10  0.32155393D-11
  0.44366879D-10  0.27365288D-10 -0.20456709D-03  0.22206280D-10 -0.23227076D-10
  0.10207956D-11 -0.25208260D-10 -0.77980147D-11  0.51306364D-03  0.95817889D-12
  0.48919607D-11 -0.58501396D-11 -0.11014890D-09 -0.20406621D-10 -0.50670274D-04
 -0.28624384D-10  0.27508424D-04 -0.18251433D-11  0.74757098D-10  0.37101352D-05
  0.29457427D-11  0.11116054D-10 -0.86235409D-04  0.25296872D-11  0.14972747D-09
  0.18249006D-11  0.48912861D-04  0.84241904D-11  0.57740182D-11 -0.56597747D-04
  0.11408302D-11 -0.11248720D-10 -0.90140836D-04 -0.26413402D-10  0.41394180D-10
  0.23646283D-10  0.44082047D-10  0.74506425D-10  0.11200756D-09  0.13761423D-09
  0.11623722D-09  0.43840402D-10 -0.21696860D-12 -0.18244868D-10 -0.34160149D-10
 -0.58160577D-10 -0.89965569D-10 -0.11848149D-09 -0.12310986D-09 -0.78230788D-10
  0.52428455D-10  0.55669173D-10  0.18339267D-09  0.30863925D-10 -0.56763317D-10
 -0.53219217D-10 -0.37895253D-10 -0.14734859D-04 -0.13814867D-04 -0.98370083D-05
 -0.17247820D-11 -0.16170928D-11 -0.11514664D-11  0.39386470D-10  0.29659570D-03
 -0.19812151D-10 -0.11230477D-09  0.17551277D-03 -0.77709036D-10 -0.37970585D-11
  0.11563651D-04  0.10614345D-11 -0.24795816D-10  0.18617327D-10  0.61784891D-11
 -0.44366731D-10 -0.27364943D-10 -0.20456710D-03  0.25039181D-10 -0.14706354D-10
 -0.10332826D-10  0.25208292D-10  0.77980448D-11  0.51306363D-03  0.76542221D-12
  0.66592067D-11 -0.74246290D-11  0.11014890D-09  0.20406624D-10 -0.50670284D-04
 -0.28624387D-10 -0.27508426D-04  0.22678160D-11  0.74757103D-10 -0.37101257D-05
 -0.30038903D-11  0.11116057D-10  0.86235402D-04 -0.37995577D-11  0.14972747D-09
  0.18248998D-11 -0.48912861D-04 -0.13609962D-10  0.57740158D-11  0.56597746D-04
 -0.45408363D-11 -0.11248715D-10  0.90140839D-04  0.45370724D-10  0.41394185D-10
  0.30852567D+00  0.57725271D+00  0.99736480D+00  0.16168447D+01  0.24553076D+01
  0.34125888D+01  0.40570758D+01  0.36137311D+01  0.17939643D+01  0.28903639D+00
  0.44374786D-02  0.79297306D-03  0.29632166D-04 -0.34570380D-03 -0.64572505D-03
 -0.11206871D-02 -0.18184198D-02 -0.28146979D-02 -0.40289843D-02 -0.52590830D-02
 -0.56044305D-02 -0.41894256D-02 -0.22115233D-03  0.28416977D-02  0.16882949D-02
 -0.63298403D-05  0.15099310D-03  0.28180686D-03  0.48975553D-03  0.79374963D-03
  0.12328174D-02  0.17660466D-02  0.23318999D-02  0.25214755D-02  0.19768695D-02
  0.98368373D-04 -0.16946770D-02 -0.17543048D-02  0.79384776D-03 -0.97323064D-03
 -0.39688823D-03 -0.14520381D-03  0.14058729D-08  0.18518502D-08  0.20430246D-08
  0.16969668D-08  0.90130027D-09  0.23247163D-09 -0.23897293D-12  0.31001627D-02
  0.40836101D-02  0.45051785D-02  0.37420686D-02  0.19875036D-02  0.51263514D-03
 -0.52697150D-06 -0.30851374D-02 -0.40638184D-02 -0.44833437D-02 -0.37239323D-02
 -0.19778709D-02 -0.51015060D-03  0.52441747D-06 -0.11965327D-08 -0.15709597D-08
 -0.17886532D-08 -0.15145581D-08 -0.86759718D-09 -0.19734826D-09  0.92369845D-10
 -0.25458907D-02 -0.33425679D-02 -0.38057594D-02 -0.32225608D-02 -0.18460069D-02
 -0.41990252D-03  0.19653749D-03  0.25990269D-02  0.34123318D-02  0.38851908D-02
  0.32898200D-02  0.18845355D-02  0.42866645D-03 -0.20063949D-03 -0.10078824D-09
 -0.12203297D-03  0.13303606D-03 -0.92307593D-10 -0.15627109D-03  0.83535687D-04
 -0.23164585D-11 -0.55411357D-05  0.34791974D-05 -0.39567570D-04  0.50097202D-04
 -0.10529632D-04 -0.21564900D-10  0.73867851D-11 -0.10689411D-03 -0.17440469D-04
 -0.41341592D-05  0.21574628D-04  0.28250011D-10 -0.12151497D-10 -0.52776608D-04
  0.91468856D-05 -0.12714745D-04  0.35678590D-05 -0.16986914D-10  0.24051832D-10
  0.28923465D-04 -0.54697560D-11  0.32050249D-05  0.10801556D-04  0.57786040D-13
 -0.32164778D-04  0.20805603D-04  0.16351482D-10  0.22549703D-04 -0.53210272D-04
 -0.35466086D-10  0.18824280D-11 -0.22070023D-05 -0.47693941D-05  0.62989133D-11
  0.69616987D-05 -0.12438871D-05 -0.11946197D-10 -0.34069190D-06  0.15552069D-04
  0.14722883D-10  0.30852575D+00  0.57725286D+00  0.99736506D+00  0.16168451D+01
  0.24553083D+01  0.34125897D+01  0.40570769D+01  0.36137320D+01  0.17939648D+01
  0.28903647D+00  0.44374797D-02  0.79297327D-03  0.29632174D-04 -0.34570388D-03
 -0.64572522D-03 -0.11206874D-02 -0.18184203D-02 -0.28146986D-02 -0.40289853D-02
 -0.52590844D-02 -0.56044320D-02 -0.41894267D-02 -0.22115239D-03  0.28416985D-02
  0.16882954D-02 -0.63298419D-05  0.15099314D-03  0.28180694D-03  0.48975565D-03
  0.79374983D-03  0.12328178D-02  0.17660470D-02  0.23319005D-02  0.25214762D-02
  0.19768700D-02  0.98368398D-04 -0.16946774D-02 -0.17543053D-02  0.79384797D-03
 -0.97323088D-03 -0.39688837D-03 -0.14520385D-03  0.14058730D-08  0.18518503D-08
  0.20430247D-08  0.16969668D-08  0.90130030D-09  0.23247164D-09 -0.23897294D-12
 -0.31001632D-02 -0.40836106D-02 -0.45051792D-02 -0.37420692D-02 -0.19875038D-02
 -0.51263522D-03  0.52697157D-06  0.30851376D-02  0.40638187D-02  0.44833440D-02
  0.37239325D-02  0.19778710D-02  0.51015063D-03 -0.52441751D-06 -0.11965327D-08
 -0.15709598D-08 -0.17886533D-08 -0.15145581D-08 -0.86759721D-09 -0.19734826D-09
  0.92369849D-10  0.25458910D-02  0.33425683D-02  0.38057599D-02  0.32225612D-02
  0.18460071D-02  0.41990258D-03 -0.19653751D-03 -0.25990270D-02 -0.34123320D-02
 -0.38851910D-02 -0.32898202D-02 -0.18845357D-02 -0.42866648D-03  0.20063950D-03
 -0.10078824D-09  0.12203298D-03 -0.13303607D-03 -0.92307592D-10  0.15627114D-03
 -0.83535714D-04 -0.23164587D-11  0.55411367D-05 -0.34791985D-05 -0.39567584D-04
  0.50097215D-04 -0.10529631D-04  0.21564899D-10 -0.73867901D-11 -0.10689413D-03
 -0.17440463D-04 -0.41341631D-05  0.21574627D-04 -0.28250013D-10  0.12151501D-10
 -0.52776603D-04  0.91468889D-05 -0.12714749D-04  0.35678602D-05  0.16986914D-10
 -0.24051832D-10  0.28923475D-04 -0.54697568D-11 -0.32050276D-05 -0.10801559D-04
  0.57786972D-13  0.32164787D-04 -0.20805609D-04  0.16351484D-10 -0.22549704D-04
  0.53210285D-04 -0.35466080D-10  0.18824281D-11  0.22070040D-05  0.47693946D-05
  0.62989132D-11 -0.69617053D-05  0.12438915D-05 -0.11946198D-10  0.34069331D-06
 -0.15552075D-04  0.14722879D-10 -0.30852546D+00 -0.57725232D+00 -0.99736413D+00
 -0.16168436D+01 -0.24553059D+01 -0.34125865D+01 -0.40570731D+01 -0.36137287D+01
 -0.17939631D+01 -0.28903620D+00 -0.44374756D-02 -0.79297253D-03 -0.29632146D-04
  0.34570359D-03  0.64572466D-03  0.11206865D-02  0.18184187D-02  0.28146962D-02
  0.40289818D-02  0.52590798D-02  0.56044271D-02  0.41894230D-02  0.22115220D-03
 -0.28416960D-02 -0.16882939D-02  0.63298364D-05 -0.15099301D-03 -0.28180669D-03
 -0.48975523D-03 -0.79374915D-03 -0.12328167D-02 -0.17660455D-02 -0.23318985D-02
 -0.25214740D-02 -0.19768683D-02 -0.98368314D-04  0.16946760D-02  0.17543038D-02
 -0.79384728D-03  0.97323004D-03  0.39688806D-03  0.14520378D-03  0.36357579D-08
  0.47891092D-08  0.52835093D-08  0.43885618D-08  0.23308718D-08  0.60119983D-09
 -0.61801298D-12 -0.31001613D-02 -0.40836082D-02 -0.45051765D-02 -0.37420669D-02
 -0.19875026D-02 -0.51263491D-03  0.52697126D-06 -0.30851358D-02 -0.40638163D-02
 -0.44833414D-02 -0.37239304D-02 -0.19778699D-02 -0.51015034D-03  0.52441720D-06
 -0.29980293D-08 -0.39361927D-08 -0.44816450D-08 -0.37948729D-08 -0.21738493D-08
 -0.49447530D-09  0.23144165D-09  0.25458895D-02  0.33425663D-02  0.38057577D-02
  0.32225593D-02  0.18460060D-02  0.41990233D-03 -0.19653740D-03  0.25990256D-02
  0.34123301D-02  0.38851888D-02  0.32898183D-02  0.18845346D-02  0.42866624D-03
 -0.20063939D-03 -0.19485925D-09  0.12203294D-03  0.13303600D-03  0.93305051D-11
  0.15627103D-03  0.83535626D-04 -0.11076542D-11  0.55411348D-05  0.34791953D-05
  0.39567531D-04 -0.50097166D-04  0.10529636D-04  0.42084808D-10 -0.61928686D-10
 -0.10689405D-03  0.17440475D-04  0.41341531D-05 -0.21574629D-04  0.11973220D-09
  0.16843938D-09 -0.52776580D-04 -0.91468788D-05  0.12714738D-04 -0.35678591D-05
 -0.77255977D-11  0.22691056D-11  0.28923442D-04 -0.30361500D-10 -0.32050223D-05
  0.10801543D-04  0.64895249D-10  0.32164753D-04  0.20805578D-04  0.26189252D-10
 -0.22549686D-04 -0.53210207D-04  0.14180503D-09 -0.67452695D-11  0.22069982D-05
 -0.47693931D-05 -0.64455513D-11 -0.69616854D-05 -0.12438749D-05  0.26681360D-10
  0.34069069D-06  0.15552054D-04  0.39807169D-10 -0.30852544D+00 -0.57725228D+00
 -0.99736406D+00 -0.16168435D+01 -0.24553058D+01 -0.34125863D+01 -0.40570728D+01
 -0.36137284D+01 -0.17939630D+01 -0.28903618D+00 -0.44374753D-02 -0.79297247D-03
 -0.29632144D-04  0.34570357D-03  0.64572463D-03  0.11206864D-02  0.18184186D-02
  0.28146960D-02  0.40289816D-02  0.52590796D-02  0.56044268D-02  0.41894228D-02
  0.22115219D-03 -0.28416958D-02 -0.16882938D-02  0.63298361D-05 -0.15099300D-03
 -0.28180668D-03 -0.48975521D-03 -0.79374911D-03 -0.12328166D-02 -0.17660454D-02
 -0.23318984D-02 -0.25214739D-02 -0.19768682D-02 -0.98368309D-04  0.16946759D-02
  0.17543037D-02 -0.79384725D-03  0.97322998D-03  0.39688800D-03  0.14520377D-03
  0.36357583D-08  0.47891096D-08  0.52835098D-08  0.43885622D-08  0.23308720D-08
  0.60119989D-09 -0.61801304D-12  0.31001614D-02  0.40836083D-02  0.45051766D-02
  0.37420670D-02  0.19875027D-02  0.51263492D-03 -0.52697127D-06  0.30851360D-02
  0.40638165D-02  0.44833416D-02  0.37239306D-02  0.19778700D-02  0.51015036D-03
 -0.52441723D-06 -0.29980296D-08 -0.39361931D-08 -0.44816454D-08 -0.37948733D-08
 -0.21738495D-08 -0.49447535D-09  0.23144168D-09 -0.25458896D-02 -0.33425665D-02
 -0.38057578D-02 -0.32225594D-02 -0.18460061D-02 -0.41990234D-03  0.19653741D-03
 -0.25990257D-02 -0.34123303D-02 -0.38851890D-02 -0.32898185D-02 -0.18845347D-02
 -0.42866626D-03  0.20063940D-03 -0.19485926D-09 -0.12203294D-03 -0.13303601D-03
  0.93305242D-11 -0.15627101D-03 -0.83535619D-04 -0.11076540D-11 -0.55411346D-05
 -0.34791956D-05  0.39567532D-04 -0.50097168D-04  0.10529637D-04 -0.42084798D-10
  0.61928691D-10 -0.10689405D-03  0.17440476D-04  0.41341523D-05 -0.21574628D-04
 -0.11973223D-09 -0.16843939D-09 -0.52776587D-04 -0.91468779D-05  0.12714737D-04
 -0.35678586D-05  0.77255919D-11 -0.22691073D-11  0.28923440D-04 -0.30361501D-10
  0.32050221D-05 -0.10801543D-04  0.64895245D-10 -0.32164749D-04 -0.20805578D-04
  0.26189256D-10  0.22549683D-04  0.53210206D-04  0.14180503D-09 -0.67452703D-11
 -0.22069981D-05  0.47693923D-05 -0.64455445D-11  0.69616845D-05  0.12438755D-05
  0.26681355D-10 -0.34069014D-06 -0.15552052D-04  0.39807175D-10
MO    2     MO 0.0        OCC NO =    2.0000000  ORB. ENERGY = -102.812956
 -0.52967538D-04 -0.98743533D-04 -0.16689397D-03 -0.25089630D-03 -0.30825509D-03
 -0.26037070D-03 -0.98202250D-04  0.48600841D-06  0.35655356D-04  0.66758077D-04
  0.11366134D-03  0.17581681D-03  0.23154455D-03  0.24058962D-03  0.15288390D-03
 -0.10245924D-03 -0.11096137D-04 -0.39118727D-03  0.31552534D-03 -0.10951947D-09
 -0.10268147D-09 -0.73115322D-10 -0.23337802D-10 -0.21880673D-10 -0.15580343D-10
 -0.13637285D-04 -0.12785821D-04 -0.91042665D-05  0.28366306D-09 -0.34245036D-10
  0.37535078D-03  0.18196957D-11 -0.21004505D-09  0.39080027D-03  0.15978594D-11
 -0.54792614D-11 -0.11314819D-04 -0.48343569D-04  0.17878410D-04  0.30465159D-04
  0.10944201D-09  0.12891145D-09 -0.15458434D-10  0.29133710D-04  0.87636376D-04
 -0.11677009D-03 -0.64623237D-10 -0.30800254D-09  0.10678644D-11 -0.19268065D-05
  0.18008092D-04 -0.16081285D-04  0.12519542D-10  0.13625836D-10 -0.36571304D-10
 -0.46064237D-10  0.51065805D-11 -0.45790218D-05  0.86849832D-10 -0.33139384D-10
  0.69247456D-06  0.51342881D-10  0.17819643D-10  0.13044591D-04  0.50411339D-10
  0.26999163D-10  0.39903161D-11  0.53375835D-04 -0.15600001D-09  0.28049324D-11
  0.34943852D-04  0.75002523D-10 -0.14775881D-10 -0.19507136D-03 -0.76403088D-10
  0.52967538D-04  0.98743533D-04  0.16689397D-03  0.25089630D-03  0.30825509D-03
  0.26037070D-03  0.98202249D-04 -0.48600841D-06 -0.35655356D-04 -0.66758076D-04
 -0.11366134D-03 -0.17581681D-03 -0.23154455D-03 -0.24058962D-03 -0.15288390D-03
  0.10245924D-03  0.11096136D-04  0.39118727D-03 -0.31552534D-03  0.10951937D-09
  0.10268137D-09  0.73115250D-10 -0.24765710D-10 -0.23219427D-10 -0.16533615D-10
 -0.13637285D-04 -0.12785821D-04 -0.91042665D-05 -0.28366303D-09 -0.54267544D-11
  0.37535078D-03 -0.18197128D-11 -0.19300504D-09  0.39080027D-03 -0.15978598D-11
 -0.43690840D-11 -0.11314819D-04  0.48343569D-04 -0.17878410D-04 -0.30465159D-04