 Molden2AIM, Version 4.0.0 (06/02/2016)           Time: Tue Jul  3 01:45:51 2018
GAUSSIAN             37 MOL ORBITALS    656 PRIMITIVES        8 NUCLEI
  C    1    (CENTRE  1)  -0.16771508 -1.20151244  0.00000000  CHARGE =  6.0
  C    2    (CENTRE  2)   1.18544410  1.39604462  0.00000000  CHARGE =  6.0
  F    3    (CENTRE  3)   0.55955924  2.71293051  2.05242398  CHARGE =  9.0
  F    4    (CENTRE  4)   0.55955924  2.71293051 -2.05242398  CHARGE =  9.0
  F    5    (CENTRE  5)   3.68088791  1.02168799  0.00000000  CHARGE =  9.0
  F    6    (CENTRE  6)   0.55966129 -2.48907733 -2.05429103  CHARGE =  9.0
  F    7    (CENTRE  7)   0.55966129 -2.48907733  2.05429103  CHARGE =  9.0
  Cl   8    (CENTRE  8)  -3.47664631 -0.84631762  0.00000000  CHARGE = 17.0
CENTRE ASSIGNMENTS    1  1  1  1  1  1  1  1  1  1  1  1  1  1  1  1  1  1  1  1
CENTRE ASSIGNMENTS    1  1  1  1  1  1  1  1  1  1  1  1  1  1  1  1  1  1  1  1
CENTRE ASSIGNMENTS    1  1  1  1  1  1  1  1  1  1  1  1  1  1  1  1  1  1  1  1
CENTRE ASSIGNMENTS    1  1  1  1  1  1  1  1  1  1  1  1  1  1  1  2  2  2  2  2
CENTRE ASSIGNMENTS    2  2  2  2  2  2  2  2  2  2  2  2  2  2  2  2  2  2  2  2
CENTRE ASSIGNMENTS    2  2  2  2  2  2  2  2  2  2  2  2  2  2  2  2  2  2  2  2
CENTRE ASSIGNMENTS    2  2  2  2  2  2  2  2  2  2  2  2  2  2  2  2  2  2  2  2
CENTRE ASSIGNMENTS    2  2  2  2  2  2  2  2  2  2  3  3  3  3  3  3  3  3  3  3
CENTRE ASSIGNMENTS    3  3  3  3  3  3  3  3  3  3  3  3  3  3  3  3  3  3  3  3
CENTRE ASSIGNMENTS    3  3  3  3  3  3  3  3  3  3  3  3  3  3  3  3  3  3  3  3
CENTRE ASSIGNMENTS    3  3  3  3  3  3  3  3  3  3  3  3  3  3  3  3  3  3  3  3
CENTRE ASSIGNMENTS    3  3  3  3  3  4  4  4  4  4  4  4  4  4  4  4  4  4  4  4
CENTRE ASSIGNMENTS    4  4  4  4  4  4  4  4  4  4  4  4  4  4  4  4  4  4  4  4
CENTRE ASSIGNMENTS    4  4  4  4  4  4  4  4  4  4  4  4  4  4  4  4  4  4  4  4
CENTRE ASSIGNMENTS    4  4  4  4  4  4  4  4  4  4  4  4  4  4  4  4  4  4  4  4
CENTRE ASSIGNMENTS    5  5  5  5  5  5  5  5  5  5  5  5  5  5  5  5  5  5  5  5
CENTRE ASSIGNMENTS    5  5  5  5  5  5  5  5  5  5  5  5  5  5  5  5  5  5  5  5
CENTRE ASSIGNMENTS    5  5  5  5  5  5  5  5  5  5  5  5  5  5  5  5  5  5  5  5
CENTRE ASSIGNMENTS    5  5  5  5  5  5  5  5  5  5  5  5  5  5  5  6  6  6  6  6
CENTRE ASSIGNMENTS    6  6  6  6  6  6  6  6  6  6  6  6  6  6  6  6  6  6  6  6
CENTRE ASSIGNMENTS    6  6  6  6  6  6  6  6  6  6  6  6  6  6  6  6  6  6  6  6
CENTRE ASSIGNMENTS    6  6  6  6  6  6  6  6  6  6  6  6  6  6  6  6  6  6  6  6
CENTRE ASSIGNMENTS    6  6  6  6  6  6  6  6  6  6  7  7  7  7  7  7  7  7  7  7
CENTRE ASSIGNMENTS    7  7  7  7  7  7  7  7  7  7  7  7  7  7  7  7  7  7  7  7
CENTRE ASSIGNMENTS    7  7  7  7  7  7  7  7  7  7  7  7  7  7  7  7  7  7  7  7
CENTRE ASSIGNMENTS    7  7  7  7  7  7  7  7  7  7  7  7  7  7  7  7  7  7  7  7
CENTRE ASSIGNMENTS    7  7  7  7  7  8  8  8  8  8  8  8  8  8  8  8  8  8  8  8
CENTRE ASSIGNMENTS    8  8  8  8  8  8  8  8  8  8  8  8  8  8  8  8  8  8  8  8
CENTRE ASSIGNMENTS    8  8  8  8  8  8  8  8  8  8  8  8  8  8  8  8  8  8  8  8
CENTRE ASSIGNMENTS    8  8  8  8  8  8  8  8  8  8  8  8  8  8  8  8  8  8  8  8
CENTRE ASSIGNMENTS    8  8  8  8  8  8  8  8  8  8  8  8  8  8  8  8  8  8  8  8
CENTRE ASSIGNMENTS    8  8  8  8  8  8  8  8  8  8  8  8  8  8  8  8  8  8  8  8
CENTRE ASSIGNMENTS    8  8  8  8  8  8  8  8  8  8  8  8  8  8  8  8
TYPE ASSIGNMENTS      1  1  1  1  1  1  1  1  1  1  1  1  1  1  1  1  1  1  1  2
TYPE ASSIGNMENTS      2  2  3  3  3  4  4  4  2  3  4  2  3  4  2  3  4  5  6  7
TYPE ASSIGNMENTS      8  9 10  5  6  7  8  9 10  5  6  7  8  9 10 11 12 13 17 14
TYPE ASSIGNMENTS     15 18 19 16 20 11 12 13 17 14 15 18 19 16 20  1  1  1  1  1
TYPE ASSIGNMENTS      1  1  1  1  1  1  1  1  1  1  1  1  1  1  2  2  2  3  3  3
TYPE ASSIGNMENTS      4  4  4  2  3  4  2  3  4  2  3  4  5  6  7  8  9 10  5  6
TYPE ASSIGNMENTS      7  8  9 10  5  6  7  8  9 10 11 12 13 17 14 15 18 19 16 20
TYPE ASSIGNMENTS     11 12 13 17 14 15 18 19 16 20  1  1  1  1  1  1  1  1  1  1
TYPE ASSIGNMENTS      1  1  1  1  1  1  1  1  1  2  2  2  3  3  3  4  4  4  2  3
TYPE ASSIGNMENTS      4  2  3  4  2  3  4  5  6  7  8  9 10  5  6  7  8  9 10  5
TYPE ASSIGNMENTS      6  7  8  9 10 11 12 13 17 14 15 18 19 16 20 11 12 13 17 14
TYPE ASSIGNMENTS     15 18 19 16 20  1  1  1  1  1  1  1  1  1  1  1  1  1  1  1
TYPE ASSIGNMENTS      1  1  1  1  2  2  2  3  3  3  4  4  4  2  3  4  2  3  4  2
TYPE ASSIGNMENTS      3  4  5  6  7  8  9 10  5  6  7  8  9 10  5  6  7  8  9 10
TYPE ASSIGNMENTS     11 12 13 17 14 15 18 19 16 20 11 12 13 17 14 15 18 19 16 20
TYPE ASSIGNMENTS      1  1  1  1  1  1  1  1  1  1  1  1  1  1  1  1  1  1  1  2
TYPE ASSIGNMENTS      2  2  3  3  3  4  4  4  2  3  4  2  3  4  2  3  4  5  6  7
TYPE ASSIGNMENTS      8  9 10  5  6  7  8  9 10  5  6  7  8  9 10 11 12 13 17 14
TYPE ASSIGNMENTS     15 18 19 16 20 11 12 13 17 14 15 18 19 16 20  1  1  1  1  1
TYPE ASSIGNMENTS      1  1  1  1  1  1  1  1  1  1  1  1  1  1  2  2  2  3  3  3
TYPE ASSIGNMENTS      4  4  4  2  3  4  2  3  4  2  3  4  5  6  7  8  9 10  5  6
TYPE ASSIGNMENTS      7  8  9 10  5  6  7  8  9 10 11 12 13 17 14 15 18 19 16 20
TYPE ASSIGNMENTS     11 12 13 17 14 15 18 19 16 20  1  1  1  1  1  1  1  1  1  1
TYPE ASSIGNMENTS      1  1  1  1  1  1  1  1  1  2  2  2  3  3  3  4  4  4  2  3
TYPE ASSIGNMENTS      4  2  3  4  2  3  4  5  6  7  8  9 10  5  6  7  8  9 10  5
TYPE ASSIGNMENTS      6  7  8  9 10 11 12 13 17 14 15 18 19 16 20 11 12 13 17 14
TYPE ASSIGNMENTS     15 18 19 16 20  1  1  1  1  1  1  1  1  1  1  1  1  1  1  1
TYPE ASSIGNMENTS      1  1  1  1  1  1  1  1  1  1  1  1  1  1  1  1  1  1  1  1
TYPE ASSIGNMENTS      1  1  1  1  1  1  1  2  2  2  2  2  2  2  3  3  3  3  3  3
TYPE ASSIGNMENTS      3  4  4  4  4  4  4  4  2  2  2  2  2  2  2  3  3  3  3  3
TYPE ASSIGNMENTS      3  3  4  4  4  4  4  4  4  2  3  4  2  3  4  2  3  4  5  6
TYPE ASSIGNMENTS      7  8  9 10  5  6  7  8  9 10  5  6  7  8  9 10 11 12 13 17
TYPE ASSIGNMENTS     14 15 18 19 16 20 11 12 13 17 14 15 18 19 16 20
EXPONENTS  0.8236000D+04 0.1235000D+04 0.2808000D+03 0.7927000D+02 0.2559000D+02
EXPONENTS  0.8997000D+01 0.3319000D+01 0.3643000D+00 0.8236000D+04 0.1235000D+04
EXPONENTS  0.2808000D+03 0.7927000D+02 0.2559000D+02 0.8997000D+01 0.3319000D+01
EXPONENTS  0.3643000D+00 0.9059000D+00 0.1285000D+00 0.4402000D-01 0.1871000D+02
EXPONENTS  0.4133000D+01 0.1200000D+01 0.1871000D+02 0.4133000D+01 0.1200000D+01
EXPONENTS  0.1871000D+02 0.4133000D+01 0.1200000D+01 0.3827000D+00 0.3827000D+00
EXPONENTS  0.3827000D+00 0.1209000D+00 0.1209000D+00 0.1209000D+00 0.3569000D-01
EXPONENTS  0.3569000D-01 0.3569000D-01 0.1097000D+01 0.1097000D+01 0.1097000D+01
EXPONENTS  0.1097000D+01 0.1097000D+01 0.1097000D+01 0.3180000D+00 0.3180000D+00
EXPONENTS  0.3180000D+00 0.3180000D+00 0.3180000D+00 0.3180000D+00 0.1000000D+00
EXPONENTS  0.1000000D+00 0.1000000D+00 0.1000000D+00 0.1000000D+00 0.1000000D+00
EXPONENTS  0.7610000D+00 0.7610000D+00 0.7610000D+00 0.7610000D+00 0.7610000D+00
EXPONENTS  0.7610000D+00 0.7610000D+00 0.7610000D+00 0.7610000D+00 0.7610000D+00
EXPONENTS  0.2680000D+00 0.2680000D+00 0.2680000D+00 0.2680000D+00 0.2680000D+00
EXPONENTS  0.2680000D+00 0.2680000D+00 0.2680000D+00 0.2680000D+00 0.2680000D+00
EXPONENTS  0.8236000D+04 0.1235000D+04 0.2808000D+03 0.7927000D+02 0.2559000D+02
EXPONENTS  0.8997000D+01 0.3319000D+01 0.3643000D+00 0.8236000D+04 0.1235000D+04
EXPONENTS  0.2808000D+03 0.7927000D+02 0.2559000D+02 0.8997000D+01 0.3319000D+01
EXPONENTS  0.3643000D+00 0.9059000D+00 0.1285000D+00 0.4402000D-01 0.1871000D+02
EXPONENTS  0.4133000D+01 0.1200000D+01 0.1871000D+02 0.4133000D+01 0.1200000D+01
EXPONENTS  0.1871000D+02 0.4133000D+01 0.1200000D+01 0.3827000D+00 0.3827000D+00
EXPONENTS  0.3827000D+00 0.1209000D+00 0.1209000D+00 0.1209000D+00 0.3569000D-01
EXPONENTS  0.3569000D-01 0.3569000D-01 0.1097000D+01 0.1097000D+01 0.1097000D+01
EXPONENTS  0.1097000D+01 0.1097000D+01 0.1097000D+01 0.3180000D+00 0.3180000D+00
EXPONENTS  0.3180000D+00 0.3180000D+00 0.3180000D+00 0.3180000D+00 0.1000000D+00
EXPONENTS  0.1000000D+00 0.1000000D+00 0.1000000D+00 0.1000000D+00 0.1000000D+00
EXPONENTS  0.7610000D+00 0.7610000D+00 0.7610000D+00 0.7610000D+00 0.7610000D+00
EXPONENTS  0.7610000D+00 0.7610000D+00 0.7610000D+00 0.7610000D+00 0.7610000D+00
EXPONENTS  0.2680000D+00 0.2680000D+00 0.2680000D+00 0.2680000D+00 0.2680000D+00
EXPONENTS  0.2680000D+00 0.2680000D+00 0.2680000D+00 0.2680000D+00 0.2680000D+00
EXPONENTS  0.1950000D+05 0.2923000D+04 0.6645000D+03 0.1875000D+03 0.6062000D+02
EXPONENTS  0.2142000D+02 0.7950000D+01 0.8815000D+00 0.1950000D+05 0.2923000D+04
EXPONENTS  0.6645000D+03 0.1875000D+03 0.6062000D+02 0.2142000D+02 0.7950000D+01
EXPONENTS  0.8815000D+00 0.2257000D+01 0.3041000D+00 0.9158000D-01 0.4388000D+02
EXPONENTS  0.9926000D+01 0.2930000D+01 0.4388000D+02 0.9926000D+01 0.2930000D+01
EXPONENTS  0.4388000D+02 0.9926000D+01 0.2930000D+01 0.9132000D+00 0.9132000D+00
EXPONENTS  0.9132000D+00 0.2672000D+00 0.2672000D+00 0.2672000D+00 0.7361000D-01
EXPONENTS  0.7361000D-01 0.7361000D-01 0.3107000D+01 0.3107000D+01 0.3107000D+01
EXPONENTS  0.3107000D+01 0.3107000D+01 0.3107000D+01 0.8550000D+00 0.8550000D+00
EXPONENTS  0.8550000D+00 0.8550000D+00 0.8550000D+00 0.8550000D+00 0.2920000D+00
EXPONENTS  0.2920000D+00 0.2920000D+00 0.2920000D+00 0.2920000D+00 0.2920000D+00
EXPONENTS  0.1917000D+01 0.1917000D+01 0.1917000D+01 0.1917000D+01 0.1917000D+01
EXPONENTS  0.1917000D+01 0.1917000D+01 0.1917000D+01 0.1917000D+01 0.1917000D+01
EXPONENTS  0.7240000D+00 0.7240000D+00 0.7240000D+00 0.7240000D+00 0.7240000D+00
EXPONENTS  0.7240000D+00 0.7240000D+00 0.7240000D+00 0.7240000D+00 0.7240000D+00
EXPONENTS  0.1950000D+05 0.2923000D+04 0.6645000D+03 0.1875000D+03 0.6062000D+02
EXPONENTS  0.2142000D+02 0.7950000D+01 0.8815000D+00 0.1950000D+05 0.2923000D+04
EXPONENTS  0.6645000D+03 0.1875000D+03 0.6062000D+02 0.2142000D+02 0.7950000D+01
EXPONENTS  0.8815000D+00 0.2257000D+01 0.3041000D+00 0.9158000D-01 0.4388000D+02
EXPONENTS  0.9926000D+01 0.2930000D+01 0.4388000D+02 0.9926000D+01 0.2930000D+01
EXPONENTS  0.4388000D+02 0.9926000D+01 0.2930000D+01 0.9132000D+00 0.9132000D+00
EXPONENTS  0.9132000D+00 0.2672000D+00 0.2672000D+00 0.2672000D+00 0.7361000D-01
EXPONENTS  0.7361000D-01 0.7361000D-01 0.3107000D+01 0.3107000D+01 0.3107000D+01
EXPONENTS  0.3107000D+01 0.3107000D+01 0.3107000D+01 0.8550000D+00 0.8550000D+00
EXPONENTS  0.8550000D+00 0.8550000D+00 0.8550000D+00 0.8550000D+00 0.2920000D+00
EXPONENTS  0.2920000D+00 0.2920000D+00 0.2920000D+00 0.2920000D+00 0.2920000D+00
EXPONENTS  0.1917000D+01 0.1917000D+01 0.1917000D+01 0.1917000D+01 0.1917000D+01
EXPONENTS  0.1917000D+01 0.1917000D+01 0.1917000D+01 0.1917000D+01 0.1917000D+01
EXPONENTS  0.7240000D+00 0.7240000D+00 0.7240000D+00 0.7240000D+00 0.7240000D+00
EXPONENTS  0.7240000D+00 0.7240000D+00 0.7240000D+00 0.7240000D+00 0.7240000D+00
EXPONENTS  0.1950000D+05 0.2923000D+04 0.6645000D+03 0.1875000D+03 0.6062000D+02
EXPONENTS  0.2142000D+02 0.7950000D+01 0.8815000D+00 0.1950000D+05 0.2923000D+04
EXPONENTS  0.6645000D+03 0.1875000D+03 0.6062000D+02 0.2142000D+02 0.7950000D+01
EXPONENTS  0.8815000D+00 0.2257000D+01 0.3041000D+00 0.9158000D-01 0.4388000D+02
EXPONENTS  0.9926000D+01 0.2930000D+01 0.4388000D+02 0.9926000D+01 0.2930000D+01
EXPONENTS  0.4388000D+02 0.9926000D+01 0.2930000D+01 0.9132000D+00 0.9132000D+00
EXPONENTS  0.9132000D+00 0.2672000D+00 0.2672000D+00 0.2672000D+00 0.7361000D-01
EXPONENTS  0.7361000D-01 0.7361000D-01 0.3107000D+01 0.3107000D+01 0.3107000D+01
EXPONENTS  0.3107000D+01 0.3107000D+01 0.3107000D+01 0.8550000D+00 0.8550000D+00
EXPONENTS  0.8550000D+00 0.8550000D+00 0.8550000D+00 0.8550000D+00 0.2920000D+00
EXPONENTS  0.2920000D+00 0.2920000D+00 0.2920000D+00 0.2920000D+00 0.2920000D+00
EXPONENTS  0.1917000D+01 0.1917000D+01 0.1917000D+01 0.1917000D+01 0.1917000D+01
EXPONENTS  0.1917000D+01 0.1917000D+01 0.1917000D+01 0.1917000D+01 0.1917000D+01
EXPONENTS  0.7240000D+00 0.7240000D+00 0.7240000D+00 0.7240000D+00 0.7240000D+00
EXPONENTS  0.7240000D+00 0.7240000D+00 0.7240000D+00 0.7240000D+00 0.7240000D+00
EXPONENTS  0.1950000D+05 0.2923000D+04 0.6645000D+03 0.1875000D+03 0.6062000D+02
EXPONENTS  0.2142000D+02 0.7950000D+01 0.8815000D+00 0.1950000D+05 0.2923000D+04
EXPONENTS  0.6645000D+03 0.1875000D+03 0.6062000D+02 0.2142000D+02 0.7950000D+01
EXPONENTS  0.8815000D+00 0.2257000D+01 0.3041000D+00 0.9158000D-01 0.4388000D+02
EXPONENTS  0.9926000D+01 0.2930000D+01 0.4388000D+02 0.9926000D+01 0.2930000D+01
EXPONENTS  0.4388000D+02 0.9926000D+01 0.2930000D+01 0.9132000D+00 0.9132000D+00
EXPONENTS  0.9132000D+00 0.2672000D+00 0.2672000D+00 0.2672000D+00 0.7361000D-01
EXPONENTS  0.7361000D-01 0.7361000D-01 0.3107000D+01 0.3107000D+01 0.3107000D+01
EXPONENTS  0.3107000D+01 0.3107000D+01 0.3107000D+01 0.8550000D+00 0.8550000D+00
EXPONENTS  0.8550000D+00 0.8550000D+00 0.8550000D+00 0.8550000D+00 0.2920000D+00
EXPONENTS  0.2920000D+00 0.2920000D+00 0.2920000D+00 0.2920000D+00 0.2920000D+00
EXPONENTS  0.1917000D+01 0.1917000D+01 0.1917000D+01 0.1917000D+01 0.1917000D+01
EXPONENTS  0.1917000D+01 0.1917000D+01 0.1917000D+01 0.1917000D+01 0.1917000D+01
EXPONENTS  0.7240000D+00 0.7240000D+00 0.7240000D+00 0.7240000D+00 0.7240000D+00
EXPONENTS  0.7240000D+00 0.7240000D+00 0.7240000D+00 0.7240000D+00 0.7240000D+00
EXPONENTS  0.1950000D+05 0.2923000D+04 0.6645000D+03 0.1875000D+03 0.6062000D+02
EXPONENTS  0.2142000D+02 0.7950000D+01 0.8815000D+00 0.1950000D+05 0.2923000D+04
EXPONENTS  0.6645000D+03 0.1875000D+03 0.6062000D+02 0.2142000D+02 0.7950000D+01
EXPONENTS  0.8815000D+00 0.2257000D+01 0.3041000D+00 0.9158000D-01 0.4388000D+02
EXPONENTS  0.9926000D+01 0.2930000D+01 0.4388000D+02 0.9926000D+01 0.2930000D+01
EXPONENTS  0.4388000D+02 0.9926000D+01 0.2930000D+01 0.9132000D+00 0.9132000D+00
EXPONENTS  0.9132000D+00 0.2672000D+00 0.2672000D+00 0.2672000D+00 0.7361000D-01
EXPONENTS  0.7361000D-01 0.7361000D-01 0.3107000D+01 0.3107000D+01 0.3107000D+01
EXPONENTS  0.3107000D+01 0.3107000D+01 0.3107000D+01 0.8550000D+00 0.8550000D+00
EXPONENTS  0.8550000D+00 0.8550000D+00 0.8550000D+00 0.8550000D+00 0.2920000D+00
EXPONENTS  0.2920000D+00 0.2920000D+00 0.2920000D+00 0.2920000D+00 0.2920000D+00
EXPONENTS  0.1917000D+01 0.1917000D+01 0.1917000D+01 0.1917000D+01 0.1917000D+01
EXPONENTS  0.1917000D+01 0.1917000D+01 0.1917000D+01 0.1917000D+01 0.1917000D+01
EXPONENTS  0.7240000D+00 0.7240000D+00 0.7240000D+00 0.7240000D+00 0.7240000D+00
EXPONENTS  0.7240000D+00 0.7240000D+00 0.7240000D+00 0.7240000D+00 0.7240000D+00
EXPONENTS  0.4561000D+06 0.6833000D+05 0.1555000D+05 0.4405000D+04 0.1439000D+04
EXPONENTS  0.5204000D+03 0.2031000D+03 0.8396000D+02 0.3620000D+02 0.1583000D+02
EXPONENTS  0.6334000D+01 0.2694000D+01 0.4313000D+00 0.4561000D+06 0.6833000D+05
EXPONENTS  0.1555000D+05 0.4405000D+04 0.1439000D+04 0.5204000D+03 0.2031000D+03
EXPONENTS  0.8396000D+02 0.3620000D+02 0.1583000D+02 0.6334000D+01 0.2694000D+01
EXPONENTS  0.4313000D+00 0.4561000D+06 0.6833000D+05 0.1555000D+05 0.4405000D+04
EXPONENTS  0.1439000D+04 0.5204000D+03 0.2031000D+03 0.8396000D+02 0.3620000D+02
EXPONENTS  0.1583000D+02 0.6334000D+01 0.2694000D+01 0.4313000D+00 0.9768000D+00
EXPONENTS  0.1625000D+00 0.5910000D-01 0.6633000D+03 0.1568000D+03 0.4998000D+02
EXPONENTS  0.1842000D+02 0.7240000D+01 0.2922000D+01 0.3818000D+00 0.6633000D+03
EXPONENTS  0.1568000D+03 0.4998000D+02 0.1842000D+02 0.7240000D+01 0.2922000D+01
EXPONENTS  0.3818000D+00 0.6633000D+03 0.1568000D+03 0.4998000D+02 0.1842000D+02
EXPONENTS  0.7240000D+01 0.2922000D+01 0.3818000D+00 0.6633000D+03 0.1568000D+03
EXPONENTS  0.4998000D+02 0.1842000D+02 0.7240000D+01 0.2922000D+01 0.3818000D+00
EXPONENTS  0.6633000D+03 0.1568000D+03 0.4998000D+02 0.1842000D+02 0.7240000D+01
EXPONENTS  0.2922000D+01 0.3818000D+00 0.6633000D+03 0.1568000D+03 0.4998000D+02
EXPONENTS  0.1842000D+02 0.7240000D+01 0.2922000D+01 0.3818000D+00 0.1022000D+01
EXPONENTS  0.1022000D+01 0.1022000D+01 0.1301000D+00 0.1301000D+00 0.1301000D+00
EXPONENTS  0.4190000D-01 0.4190000D-01 0.4190000D-01 0.1046000D+01 0.1046000D+01
EXPONENTS  0.1046000D+01 0.1046000D+01 0.1046000D+01 0.1046000D+01 0.3440000D+00
EXPONENTS  0.3440000D+00 0.3440000D+00 0.3440000D+00 0.3440000D+00 0.3440000D+00
EXPONENTS  0.1350000D+00 0.1350000D+00 0.1350000D+00 0.1350000D+00 0.1350000D+00
EXPONENTS  0.1350000D+00 0.7060000D+00 0.7060000D+00 0.7060000D+00 0.7060000D+00
EXPONENTS  0.7060000D+00 0.7060000D+00 0.7060000D+00 0.7060000D+00 0.7060000D+00
EXPONENTS  0.7060000D+00 0.3120000D+00 0.3120000D+00 0.3120000D+00 0.3120000D+00
EXPONENTS  0.3120000D+00 0.3120000D+00 0.3120000D+00 0.3120000D+00 0.3120000D+00
EXPONENTS  0.3120000D+00
MO    1     MO 0.0        OCC NO =    2.0000000  ORB. ENERGY = -102.820106
  0.55833039D-04  0.10408548D-03  0.17592280D-03  0.26446959D-03  0.32493145D-03
  0.27445655D-03  0.10351491D-03 -0.51230108D-06 -0.39782270D-04 -0.74484961D-04
 -0.12681702D-03 -0.19616665D-03 -0.25834457D-03 -0.26843656D-03 -0.17057938D-03
  0.11431834D-03  0.20780472D-04  0.41402717D-03  0.50637166D-04 -0.44292849D-04
 -0.41527362D-04 -0.29569955D-04  0.56920564D-05  0.53366647D-05  0.38000232D-05
 -0.71085101D-17 -0.66646801D-17 -0.47456492D-17 -0.77604220D-04  0.83643843D-05
  0.29638007D-16 -0.62000353D-03 -0.18734020D-04 -0.17012895D-16 -0.96465757D-05
 -0.24333860D-05  0.96688275D-18  0.16910796D-03 -0.10558259D-03 -0.63525369D-04
 -0.54302076D-04  0.18755181D-16 -0.32059729D-16 -0.20104935D-03  0.98929907D-04
  0.10211944D-03  0.97491651D-04 -0.99870162D-17 -0.25409858D-16  0.33298230D-04
 -0.16503646D-04 -0.16794584D-04 -0.22807079D-04  0.30929597D-17 -0.58826351D-17
  0.14589948D-04  0.15274501D-04 -0.60506035D-17 -0.30010678D-04 -0.49068501D-05
 -0.11817630D-16 -0.13759166D-04 -0.40916651D-04  0.29969440D-16  0.36048770D-17
  0.57896076D-04  0.42859996D-04 -0.53795660D-17 -0.59914753D-04 -0.12630249D-04
 -0.40472478D-17 -0.11377348D-03 -0.11594974D-03  0.20185946D-16 -0.67156753D-17
 -0.16170242D-04 -0.30145008D-04 -0.50950373D-04 -0.76595100D-04 -0.94105930D-04
 -0.79487502D-04 -0.29979761D-04  0.14837151D-06  0.11094673D-04  0.20772729D-04
  0.35367348D-04  0.54707910D-04  0.72048393D-04  0.74862895D-04  0.47572009D-04
 -0.31881654D-04 -0.15351190D-04  0.42567906D-03  0.79043190D-04 -0.23755961D-04
 -0.22272723D-04 -0.15859506D-04 -0.94000377D-05 -0.88131329D-05 -0.62754756D-05
 -0.85960314D-17 -0.80593259D-17 -0.57387201D-17  0.96117269D-04  0.10338839D-03
  0.39364963D-16 -0.42775613D-04 -0.14553723D-03  0.16420861D-16 -0.65826663D-06
 -0.48004205D-05 -0.15474949D-17  0.60619746D-04 -0.33502639D-04 -0.27117107D-04
 -0.24567109D-04 -0.15008912D-16  0.16252765D-16 -0.98836740D-04  0.25260797D-04
  0.73575943D-04 -0.12849608D-03 -0.13247287D-16  0.14909583D-16 -0.39342271D-05
  0.50128394D-05 -0.10786123D-05  0.59023992D-05 -0.51278003D-17 -0.28904972D-17
  0.10908346D-04 -0.31534866D-04  0.13548394D-17  0.10748902D-04  0.40124825D-04
 -0.77110512D-17 -0.43473939D-04  0.54479772D-04  0.36465331D-17 -0.27798710D-16
  0.11589900D-04 -0.35817375D-05  0.48792911D-17  0.18863739D-05  0.59811285D-04
 -0.11431014D-16 -0.36656075D-04 -0.49066073D-04 -0.32068595D-17 -0.87710122D-17
  0.29657127D-04  0.55282169D-04  0.93716867D-04  0.14191496D-03  0.17746515D-03
  0.15278096D-03  0.58734581D-04 -0.25450655D-06 -0.19668129D-04 -0.36933263D-04
 -0.62890978D-04 -0.98518344D-04 -0.13202617D-03 -0.14201195D-03 -0.85263788D-04
  0.56073054D-04 -0.10915711D-04 -0.94726096D-04 -0.10214113D-04  0.39755339D-04
  0.38879853D-04  0.25689563D-04 -0.18983113D-04 -0.18565070D-04 -0.12266727D-04
 -0.15498699D-04 -0.15157389D-04 -0.10015128D-04 -0.36875866D-04  0.12956303D-04
  0.13445145D-04  0.63469510D-04  0.77087873D-04  0.66535035D-04 -0.42741847D-05
 -0.54130488D-06 -0.12851316D-05 -0.42798665D-04  0.36988821D-04  0.58098442D-05
 -0.39766816D-04  0.21462661D-04 -0.23697540D-04  0.24505474D-04 -0.15889505D-04
 -0.86159690D-05  0.28994279D-04  0.53334224D-05 -0.70466403D-05  0.14652070D-04
 -0.48585792D-05 -0.97934905D-05 -0.16984681D-04 -0.23360906D-04 -0.36439081D-04
  0.45037402D-05 -0.57466786D-05 -0.10864614D-04  0.17225271D-04 -0.14342427D-04
  0.27354212D-04 -0.30736492D-04  0.31582463D-04  0.52396306D-05 -0.51033564D-04
  0.12473734D-05  0.27283813D-05  0.47495269D-05 -0.12881570D-04 -0.44712724D-05
 -0.18299672D-04  0.91394497D-05 -0.37138716D-05  0.40510916D-05  0.63677421D-05
  0.29657127D-04  0.55282169D-04  0.93716867D-04  0.14191496D-03  0.17746515D-03
  0.15278096D-03  0.58734581D-04 -0.25450655D-06 -0.19668129D-04 -0.36933263D-04
 -0.62890978D-04 -0.98518344D-04 -0.13202617D-03 -0.14201195D-03 -0.85263788D-04
  0.56073054D-04 -0.10915711D-04 -0.94726096D-04 -0.10214113D-04  0.39755339D-04
  0.38879853D-04  0.25689563D-04 -0.18983113D-04 -0.18565070D-04 -0.12266727D-04
  0.15498699D-04  0.15157389D-04  0.10015128D-04 -0.36875866D-04  0.12956303D-04
 -0.13445145D-04  0.63469510D-04  0.77087873D-04 -0.66535035D-04 -0.42741847D-05
 -0.54130488D-06  0.12851316D-05 -0.42798665D-04  0.36988821D-04  0.58098442D-05
 -0.39766816D-04 -0.21462661D-04  0.23697540D-04  0.24505474D-04 -0.15889505D-04
 -0.86159690D-05  0.28994279D-04 -0.53334224D-05  0.70466403D-05  0.14652070D-04
 -0.48585792D-05 -0.97934905D-05 -0.16984681D-04  0.23360906D-04  0.36439081D-04
  0.45037402D-05 -0.57466786D-05  0.10864614D-04  0.17225271D-04 -0.14342427D-04
 -0.27354212D-04 -0.30736492D-04  0.31582463D-04 -0.52396306D-05  0.51033564D-04
  0.12473734D-05  0.27283813D-05 -0.47495269D-05 -0.12881570D-04 -0.44712724D-05
  0.18299672D-04  0.91394497D-05 -0.37138716D-05 -0.40510916D-05 -0.63677421D-05
  0.19734356D-04  0.36785695D-04  0.62360797D-04  0.94432626D-04  0.11808833D-03
  0.10166305D-03  0.39082989D-04 -0.16935299D-06 -0.13114141D-04 -0.24626034D-04
 -0.41933890D-04 -0.65689190D-04 -0.88031242D-04 -0.94689470D-04 -0.56851434D-04
  0.37387895D-04 -0.97737331D-05  0.62104965D-05 -0.26019627D-04  0.32923553D-04
  0.32198516D-04  0.21274921D-04  0.12435331D-04  0.12161482D-04  0.80356055D-05
 -0.63606851D-17 -0.62206111D-17 -0.41102208D-17 -0.50140833D-04 -0.10299533D-04
  0.21132074D-17  0.21175469D-04 -0.21133466D-04  0.16290278D-16  0.74932225D-06
  0.56224531D-05  0.21994047D-17  0.49906239D-04 -0.16361437D-04 -0.33544802D-04
  0.42934627D-04  0.23071100D-16  0.21762769D-16 -0.13365673D-04  0.40707302D-05
  0.92949426D-05 -0.12877303D-04 -0.96950766D-17 -0.10019173D-16 -0.94733036D-05
 -0.23375694D-05  0.11810873D-04  0.64638066D-05 -0.67144777D-17  0.93837829D-17
 -0.22529414D-04  0.28463294D-04  0.96062336D-17 -0.34762570D-04 -0.70549128D-04
 -0.92836993D-17  0.10235081D-03 -0.14840754D-04 -0.19535002D-16  0.39287879D-16
  0.14249224D-04 -0.86400970D-05 -0.31227591D-17  0.62010704D-05  0.17763400D-04
  0.38857934D-17 -0.48948741D-04  0.81568909D-05  0.54824840D-17 -0.16629854D-16
 -0.16351871D-04 -0.30480597D-04 -0.51672105D-04 -0.78246795D-04 -0.97847892D-04
 -0.84237921D-04 -0.32384132D-04  0.14032575D-06  0.10496281D-04  0.19710156D-04
  0.33562996D-04  0.52576235D-04  0.70458340D-04  0.75787445D-04  0.45502682D-04
 -0.29924478D-04  0.16131036D-04 -0.52027905D-04  0.83389777D-04 -0.77508313D-05
 -0.75801437D-05 -0.50085214D-05 -0.14223775D-05 -0.13910541D-05 -0.91912828D-06
  0.34788175D-04  0.34022075D-04  0.22479823D-04 -0.78114968D-05 -0.52158771D-05
 -0.45713038D-04  0.26654530D-03 -0.15329506D-04  0.27526091D-04 -0.93960959D-05
  0.53997222D-05  0.62069961D-05  0.12376414D-03 -0.46397083D-04 -0.77367061D-04
 -0.12157010D-03 -0.17646503D-03 -0.42770215D-04 -0.50779747D-04  0.22331363D-04
  0.28448385D-04  0.61938344D-04  0.90845573D-04  0.15508141D-04 -0.53368202D-04
  0.21997760D-04  0.31370443D-04  0.65717105D-04  0.80013984D-04 -0.31851482D-04
  0.31558441D-04 -0.82589198D-04 -0.80917434D-04 -0.70358945D-04  0.10522176D-03
  0.24526123D-03 -0.24316378D-04  0.14254583D-03 -0.25089269D-05 -0.46736431D-04
 -0.12538159D-04  0.33279262D-04  0.37360985D-04  0.19375663D-04 -0.57397776D-04
 -0.11298697D-03  0.18238814D-04 -0.42440011D-04  0.90401462D-06  0.58855571D-04
 -0.16351871D-04 -0.30480597D-04 -0.51672105D-04 -0.78246795D-04 -0.97847892D-04
 -0.84237921D-04 -0.32384132D-04  0.14032575D-06  0.10496281D-04  0.19710156D-04
  0.33562996D-04  0.52576235D-04  0.70458340D-04  0.75787445D-04  0.45502682D-04
 -0.29924478D-04  0.16131036D-04 -0.52027905D-04  0.83389777D-04 -0.77508313D-05
 -0.75801437D-05 -0.50085214D-05 -0.14223775D-05 -0.13910541D-05 -0.91912828D-06
 -0.34788175D-04 -0.34022075D-04 -0.22479823D-04 -0.78114968D-05 -0.52158771D-05
  0.45713038D-04  0.26654530D-03 -0.15329506D-04 -0.27526091D-04 -0.93960959D-05
  0.53997222D-05 -0.62069961D-05  0.12376414D-03 -0.46397083D-04 -0.77367061D-04
 -0.12157010D-03  0.17646503D-03  0.42770215D-04 -0.50779747D-04  0.22331363D-04
  0.28448385D-04  0.61938344D-04 -0.90845573D-04 -0.15508141D-04 -0.53368202D-04
  0.21997760D-04  0.31370443D-04  0.65717105D-04 -0.80013984D-04  0.31851482D-04
  0.31558441D-04 -0.82589198D-04  0.80917434D-04 -0.70358945D-04  0.10522176D-03
 -0.24526123D-03 -0.24316378D-04  0.14254583D-03  0.25089269D-05  0.46736431D-04
 -0.12538159D-04  0.33279262D-04 -0.37360985D-04  0.19375663D-04 -0.57397776D-04
  0.11298697D-03  0.18238814D-04 -0.42440011D-04 -0.90401462D-06 -0.58855571D-04
  0.61707031D+00  0.11545409D+01  0.19947909D+01  0.32337888D+01  0.49107662D+01
  0.68253875D+01  0.81144012D+01  0.72276844D+01  0.35880390D+01  0.57809056D+00
  0.88752300D-02  0.15859949D-02  0.59266154D-04 -0.72759210D-03 -0.13590376D-02
 -0.23586756D-02 -0.38271720D-02 -0.59240077D-02 -0.84796788D-02 -0.11068630D-01
 -0.11795472D-01 -0.88173546D-02 -0.46545249D-03  0.59808334D-02  0.35533022D-02
 -0.13322219D-04  0.32291784D-03  0.60267963D-03  0.10474042D-02  0.16975340D-02
  0.26365361D-02  0.37769140D-02  0.49870630D-02  0.53924945D-02  0.42277856D-02
  0.21037321D-03 -0.36242811D-02 -0.37518029D-02  0.16977439D-02 -0.19130233D-02
 -0.11419962D-02 -0.31977586D-03  0.55452953D-02  0.73043985D-02  0.80584627D-02
  0.66934795D-02  0.35550696D-02  0.91695615D-03 -0.94259975D-06 -0.75239249D-03
 -0.99106977D-03 -0.10933821D-02 -0.90817954D-03 -0.48235622D-03 -0.12441374D-03
  0.12789309D-06 -0.11393259D-15 -0.15007479D-15 -0.16556765D-15 -0.13752296D-15
 -0.73041787D-16 -0.18839607D-16  0.19366476D-19 -0.45446980D-02 -0.59668554D-02
 -0.67937038D-02 -0.57526293D-02 -0.32953276D-02 -0.74957270D-03  0.35084127D-03
  0.63418342D-03  0.83263635D-03  0.94801774D-03  0.80274248D-03  0.45984180D-03
  0.10459806D-03 -0.48957647D-04  0.10835581D-15  0.14226324D-15  0.16197716D-15
  0.13715561D-15  0.78568013D-16  0.17871497D-16 -0.83648442D-17 -0.15364929D-03
  0.29381442D-04  0.86869743D-17 -0.47625425D-03  0.44535110D-04  0.12651861D-16
 -0.14384801D-04  0.14702420D-05  0.17714350D-18  0.14640691D-03 -0.74270041D-04
 -0.72136873D-04 -0.29488497D-04  0.95588709D-18  0.14114003D-16  0.23504718D-04
 -0.84521877D-05 -0.15052530D-04 -0.22897172D-04 -0.14274164D-17 -0.60814455D-17
 -0.53735573D-04  0.26488442D-04  0.27247131D-04  0.16224076D-04  0.56702826D-17
  0.82906843D-18  0.52736505D-04  0.51236693D-05  0.18412857D-17 -0.73316493D-04
 -0.34071673D-04 -0.90773757D-17 -0.84893021D-04  0.18700665D-04  0.35535186D-17
  0.10618276D-17 -0.95482969D-05 -0.16841623D-05 -0.54611629D-18  0.15134430D-04
  0.30883922D-05  0.38441297D-17  0.13510461D-04  0.19640947D-05 -0.22057809D-17
 -0.16463302D-17
MO    2     MO 0.0        OCC NO =    2.0000000  ORB. ENERGY =  -25.361751
 -0.98613453D-16 -0.18383790D-15 -0.31071843D-15 -0.46711158D-15 -0.57390055D-15
 -0.48475076D-15 -0.18283015D-15  0.90483662D-18  0.65274026D-16  0.12221357D-15
  0.20807906D-15  0.32186667D-15  0.42388708D-15  0.44044583D-15  0.27988355D-15
 -0.18757145D-15 -0.12825141D-14  0.12329378D-13 -0.30713765D-13  0.15906119D-14
  0.14912998D-14  0.10618943D-14 -0.27262688D-14 -0.25560503D-14 -0.18200601D-14
 -0.22655373D-04 -0.21240853D-04 -0.15124752D-04 -0.80404422D-15  0.13795439D-13
  0.31618091D-04 -0.64459785D-14  0.74091051D-14  0.13221403D-03 -0.15299460D-15
 -0.20106952D-14 -0.10680273D-05 -0.42561995D-14  0.17115744D-14  0.25446251D-14
 -0.13671784D-14  0.10312147D-04 -0.85277730D-05  0.12967235D-14  0.51347865D-14
 -0.64315100D-14  0.81725172D-15  0.37923576D-05  0.24165436D-03 -0.15035116D-14
  0.10923176D-14  0.41119398D-15 -0.27390787D-14 -0.63509693D-06  0.24827710D-04
  0.65838088D-15  0.11366379D-14 -0.24636475D-04 -0.90665690D-15 -0.68428012D-15
 -0.26853824D-04 -0.10684857D-14 -0.27256336D-14  0.10076325D-03  0.69720761D-04
 -0.11867998D-14 -0.60584449D-15 -0.14306552D-04  0.29731299D-14  0.87423614D-17
  0.25076709D-04  0.58726965D-15  0.18087911D-14  0.17842947D-04  0.53254190D-04
  0.62338315D-14  0.11621279D-13  0.19642009D-13  0.29528374D-13  0.36279019D-13
  0.30643431D-13  0.11557575D-13 -0.57199083D-16 -0.46664579D-14 -0.87370815D-14
 -0.14875629D-13 -0.23010336D-13 -0.30303803D-13 -0.31487592D-13 -0.20008951D-13
  0.13409534D-13 -0.15522981D-13 -0.51845728D-14  0.21938467D-13  0.74590244D-14
  0.69933095D-14  0.49796530D-14 -0.86449285D-14 -0.81051700D-14 -0.57713639D-14
 -0.52668838D-03 -0.49380383D-03 -0.35161774D-03 -0.14667973D-13  0.17195471D-13
  0.16092406D-02  0.13492984D-14  0.17122569D-13 -0.22197337D-03  0.56277499D-15
 -0.14015206D-14  0.68807325D-06 -0.12732900D-13  0.83529209D-15  0.11897608D-13
 -0.14845729D-13 -0.67594958D-03  0.13912965D-02 -0.17468220D-13 -0.89101363D-14
  0.26378356D-13  0.35733477D-14 -0.50249444D-03  0.10318468D-02 -0.34356838D-14
  0.14146180D-14  0.20210658D-14 -0.25079011D-14  0.48896138D-04 -0.20200704D-05
  0.43443860D-14 -0.97983163D-14  0.68639970D-04  0.33149737D-14 -0.10034797D-13
 -0.50585548D-03 -0.16348132D-13  0.39429746D-13  0.29993558D-03 -0.92633918D-03
 -0.20244714D-14 -0.24728887D-14  0.23129110D-04  0.52455743D-14 -0.43667133D-15
 -0.85182180D-04  0.82784000D-15  0.78553374D-14  0.15794850D-04 -0.20364145D-03