 Molden2AIM, Version 4.0.0 (06/02/2016)           Time: Tue Jul  3 02:26:51 2018
GAUSSIAN              7 MOL ORBITALS    177 PRIMITIVES        3 NUCLEI
  H    1    (CENTRE  1)   0.00000000  0.00000000 -3.08736084  CHARGE =  1.0
  C    2    (CENTRE  2)   0.00000000  0.00000000 -1.04820840  CHARGE =  6.0
  C    3    (CENTRE  3)   0.00000000  0.00000000  1.32055195  CHARGE =  6.0
CENTRE ASSIGNMENTS    1  1  1  1  1  1  1  1  1  1  1  1  1  1  1  1  1  1  1  1
CENTRE ASSIGNMENTS    1  1  1  1  1  1  1  2  2  2  2  2  2  2  2  2  2  2  2  2
CENTRE ASSIGNMENTS    2  2  2  2  2  2  2  2  2  2  2  2  2  2  2  2  2  2  2  2
CENTRE ASSIGNMENTS    2  2  2  2  2  2  2  2  2  2  2  2  2  2  2  2  2  2  2  2
CENTRE ASSIGNMENTS    2  2  2  2  2  2  2  2  2  2  2  2  2  2  2  2  2  2  2  2
CENTRE ASSIGNMENTS    2  2  3  3  3  3  3  3  3  3  3  3  3  3  3  3  3  3  3  3
CENTRE ASSIGNMENTS    3  3  3  3  3  3  3  3  3  3  3  3  3  3  3  3  3  3  3  3
CENTRE ASSIGNMENTS    3  3  3  3  3  3  3  3  3  3  3  3  3  3  3  3  3  3  3  3
CENTRE ASSIGNMENTS    3  3  3  3  3  3  3  3  3  3  3  3  3  3  3  3  3
TYPE ASSIGNMENTS      1  1  1  1  1  1  2  3  4  2  3  4  2  3  4  5  6  7  8  9
TYPE ASSIGNMENTS     10  5  6  7  8  9 10  1  1  1  1  1  1  1  1  1  1  1  1  1
TYPE ASSIGNMENTS      1  1  1  1  1  1  2  2  2  3  3  3  4  4  4  2  3  4  2  3
TYPE ASSIGNMENTS      4  2  3  4  5  6  7  8  9 10  5  6  7  8  9 10  5  6  7  8
TYPE ASSIGNMENTS      9 10 11 12 13 17 14 15 18 19 16 20 11 12 13 17 14 15 18 19
TYPE ASSIGNMENTS     16 20  1  1  1  1  1  1  1  1  1  1  1  1  1  1  1  1  1  1
TYPE ASSIGNMENTS      1  2  2  2  3  3  3  4  4  4  2  3  4  2  3  4  2  3  4  5
TYPE ASSIGNMENTS      6  7  8  9 10  5  6  7  8  9 10  5  6  7  8  9 10 11 12 13
TYPE ASSIGNMENTS     17 14 15 18 19 16 20 11 12 13 17 14 15 18 19 16 20
EXPONENTS  0.3387000D+02 0.5095000D+01 0.1159000D+01 0.3258000D+00 0.1027000D+00
EXPONENTS  0.2526000D-01 0.1407000D+01 0.1407000D+01 0.1407000D+01 0.3880000D+00
EXPONENTS  0.3880000D+00 0.3880000D+00 0.1020000D+00 0.1020000D+00 0.1020000D+00
EXPONENTS  0.1057000D+01 0.1057000D+01 0.1057000D+01 0.1057000D+01 0.1057000D+01
EXPONENTS  0.1057000D+01 0.2470000D+00 0.2470000D+00 0.2470000D+00 0.2470000D+00
EXPONENTS  0.2470000D+00 0.2470000D+00 0.8236000D+04 0.1235000D+04 0.2808000D+03
EXPONENTS  0.7927000D+02 0.2559000D+02 0.8997000D+01 0.3319000D+01 0.3643000D+00
EXPONENTS  0.8236000D+04 0.1235000D+04 0.2808000D+03 0.7927000D+02 0.2559000D+02
EXPONENTS  0.8997000D+01 0.3319000D+01 0.3643000D+00 0.9059000D+00 0.1285000D+00
EXPONENTS  0.4402000D-01 0.1871000D+02 0.4133000D+01 0.1200000D+01 0.1871000D+02
EXPONENTS  0.4133000D+01 0.1200000D+01 0.1871000D+02 0.4133000D+01 0.1200000D+01
EXPONENTS  0.3827000D+00 0.3827000D+00 0.3827000D+00 0.1209000D+00 0.1209000D+00
EXPONENTS  0.1209000D+00 0.3569000D-01 0.3569000D-01 0.3569000D-01 0.1097000D+01
EXPONENTS  0.1097000D+01 0.1097000D+01 0.1097000D+01 0.1097000D+01 0.1097000D+01
EXPONENTS  0.3180000D+00 0.3180000D+00 0.3180000D+00 0.3180000D+00 0.3180000D+00
EXPONENTS  0.3180000D+00 0.1000000D+00 0.1000000D+00 0.1000000D+00 0.1000000D+00
EXPONENTS  0.1000000D+00 0.1000000D+00 0.7610000D+00 0.7610000D+00 0.7610000D+00
EXPONENTS  0.7610000D+00 0.7610000D+00 0.7610000D+00 0.7610000D+00 0.7610000D+00
EXPONENTS  0.7610000D+00 0.7610000D+00 0.2680000D+00 0.2680000D+00 0.2680000D+00
EXPONENTS  0.2680000D+00 0.2680000D+00 0.2680000D+00 0.2680000D+00 0.2680000D+00
EXPONENTS  0.2680000D+00 0.2680000D+00 0.8236000D+04 0.1235000D+04 0.2808000D+03
EXPONENTS  0.7927000D+02 0.2559000D+02 0.8997000D+01 0.3319000D+01 0.3643000D+00
EXPONENTS  0.8236000D+04 0.1235000D+04 0.2808000D+03 0.7927000D+02 0.2559000D+02
EXPONENTS  0.8997000D+01 0.3319000D+01 0.3643000D+00 0.9059000D+00 0.1285000D+00
EXPONENTS  0.4402000D-01 0.1871000D+02 0.4133000D+01 0.1200000D+01 0.1871000D+02
EXPONENTS  0.4133000D+01 0.1200000D+01 0.1871000D+02 0.4133000D+01 0.1200000D+01
EXPONENTS  0.3827000D+00 0.3827000D+00 0.3827000D+00 0.1209000D+00 0.1209000D+00
EXPONENTS  0.1209000D+00 0.3569000D-01 0.3569000D-01 0.3569000D-01 0.1097000D+01
EXPONENTS  0.1097000D+01 0.1097000D+01 0.1097000D+01 0.1097000D+01 0.1097000D+01
EXPONENTS  0.3180000D+00 0.3180000D+00 0.3180000D+00 0.3180000D+00 0.3180000D+00
EXPONENTS  0.3180000D+00 0.1000000D+00 0.1000000D+00 0.1000000D+00 0.1000000D+00
EXPONENTS  0.1000000D+00 0.1000000D+00 0.7610000D+00 0.7610000D+00 0.7610000D+00
EXPONENTS  0.7610000D+00 0.7610000D+00 0.7610000D+00 0.7610000D+00 0.7610000D+00
EXPONENTS  0.7610000D+00 0.7610000D+00 0.2680000D+00 0.2680000D+00 0.2680000D+00
EXPONENTS  0.2680000D+00 0.2680000D+00 0.2680000D+00 0.2680000D+00 0.2680000D+00
EXPONENTS  0.2680000D+00 0.2680000D+00
MO    1     MO 0.0        OCC NO =    2.0000000  ORB. ENERGY =  -10.304889
 -0.65584245D-04 -0.11828389D-03 -0.17440952D-03 -0.18920047D-02 -0.38316049D-02
 -0.19155791D-04 -0.19627734D-15 -0.23469800D-16 -0.19650161D-02  0.72619473D-16
  0.39322805D-16 -0.13746537D-02 -0.11472602D-16 -0.44494722D-17 -0.92898485D-03
  0.86211083D-03  0.86211083D-03 -0.17242217D-02  0.72865843D-18  0.83336218D-17
  0.18504906D-17  0.10297153D-03  0.10297153D-03 -0.20594306D-03  0.20138447D-20
  0.17286223D-17 -0.15913444D-17  0.96488327D-01  0.17987618D+00  0.30402243D+00
  0.45704530D+00  0.56153296D+00  0.47430435D+00  0.17889015D+00 -0.88533733D-03
 -0.17159203D-03 -0.32127442D-03 -0.54699720D-03 -0.84612149D-03 -0.11143122D-02
 -0.11578418D-02 -0.73575648D-03  0.49308688D-03  0.10582212D-01 -0.57738970D-02
 -0.61715873D-03  0.72765391D-17  0.68222180D-17  0.48578256D-17 -0.85546867D-17
 -0.80205625D-17 -0.57111183D-17  0.18710763D-02  0.17542530D-02  0.12491326D-02
 -0.61860440D-17  0.46822364D-17 -0.58402602D-02 -0.23914477D-17  0.17456497D-17
 -0.51049341D-02  0.33876075D-18 -0.79890998D-19 -0.43347311D-04 -0.41916454D-03
 -0.41916454D-03  0.83832908D-03 -0.11405592D-18 -0.59897007D-17  0.20282707D-17
  0.80740728D-03  0.80740728D-03 -0.16148146D-02  0.19507616D-19  0.26746804D-17
 -0.16591132D-17  0.11439631D-03  0.11439631D-03 -0.22879261D-03  0.49300155D-21
  0.58946986D-20 -0.61707118D-18  0.17869564D-17  0.16060162D-18 -0.15060550D-02
  0.16616916D-17  0.17208535D-18  0.22590825D-02 -0.70225608D-17 -0.65389022D-18
  0.22590825D-02 -0.14802208D-18  0.83187687D-18 -0.14076489D-19 -0.21218343D-03
  0.83230193D-18 -0.99540715D-20  0.31827514D-03 -0.33279325D-17  0.52183537D-19
  0.31827514D-03  0.32339585D-19  0.31300758D+00  0.58351729D+00  0.98624701D+00
  0.14826523D+01  0.18216097D+01  0.15386406D+01  0.58031862D+00 -0.28720292D-02
 -0.11309361D-02 -0.21174692D-02 -0.36051725D-02 -0.55766537D-02 -0.73442567D-02
 -0.76311532D-02 -0.48492553D-02  0.32498581D-02  0.30630008D-01  0.11280667D-01
  0.59182972D-03 -0.15988266D-16 -0.14990016D-16 -0.10673784D-16  0.76166589D-17
  0.71411018D-17  0.50848899D-17 -0.42606518D-02 -0.39946319D-02 -0.28444159D-02
  0.79449666D-17 -0.27278057D-17 -0.45039790D-02  0.61215466D-18  0.46388239D-18
 -0.20843895D-02 -0.21835703D-18  0.70961083D-19 -0.14264330D-04 -0.17696886D-02
 -0.17696886D-02  0.35393772D-02  0.34823347D-18 -0.79087394D-17 -0.43690599D-17
 -0.14460741D-03 -0.14460741D-03  0.28921482D-03 -0.18620051D-18 -0.22163388D-17
  0.18778228D-17 -0.13794825D-04 -0.13794825D-04  0.27589650D-04  0.12035425D-20
  0.23312000D-18  0.85539348D-19 -0.33043428D-17 -0.33023756D-18 -0.50164197D-03
 -0.30289716D-17 -0.20486939D-18  0.75246296D-03  0.12942000D-16  0.11955821D-17
  0.75246296D-03  0.21432049D-18  0.25093980D-18  0.19633859D-18  0.76572281D-04
  0.23669821D-18  0.19962241D-18 -0.11485842D-03 -0.98951761D-18 -0.78863817D-18
 -0.11485842D-03  0.43148759D-19
MO    2     MO 0.0        OCC NO =    2.0000000  ORB. ENERGY =  -10.301120
  0.27201424D-03  0.49058888D-03  0.72337302D-03  0.15282139D-02  0.11423576D-02
  0.63374934D-04  0.39744662D-16  0.43501396D-16  0.20379208D-03 -0.16239811D-16
 -0.45573665D-17 -0.30084428D-03  0.15163841D-17  0.75291778D-18  0.10256769D-03
  0.92510385D-03  0.92510385D-03 -0.18502077D-02  0.11113061D-20  0.23785908D-17
 -0.20293010D-17  0.49054848D-04  0.49054848D-04 -0.98109697D-04 -0.71413999D-20
 -0.74998615D-18  0.40483625D-18  0.31319405D+00  0.58386491D+00  0.98683456D+00
  0.14835356D+01  0.18226949D+01  0.15395572D+01  0.58066433D+00 -0.28737402D-02
 -0.13342335D-02 -0.24981060D-02 -0.42532392D-02 -0.65791144D-02 -0.86644622D-02
 -0.90029312D-02 -0.57209586D-02  0.38340534D-02  0.30771368D-01  0.68976222D-02
  0.97650371D-03  0.11011885D-16  0.10324342D-16  0.73515466D-17  0.52362965D-18
  0.49093608D-18  0.34957574D-18 -0.38793006D-02 -0.36370909D-02 -0.25898254D-02
 -0.44683815D-17 -0.54615035D-18  0.59238018D-02 -0.14883492D-17 -0.83879867D-18
  0.27576907D-02 -0.11460484D-18  0.32043104D-19  0.75661337D-04 -0.26192605D-02
 -0.26192605D-02  0.52385209D-02  0.18687470D-18  0.38724156D-17 -0.29963380D-17
 -0.16566313D-03 -0.16566313D-03  0.33132626D-03 -0.49484198D-19 -0.45434558D-17
  0.19024544D-18 -0.15127953D-04 -0.15127953D-04  0.30255906D-04 -0.24007440D-21
 -0.13061707D-17  0.12344510D-18  0.15140238D-17 -0.43229851D-18  0.86331275D-03
  0.12208080D-17 -0.41372826D-18 -0.12949691D-02 -0.57628793D-17  0.17106238D-17
 -0.12949691D-02  0.37456606D-19  0.36400642D-18  0.27951545D-19  0.16143055D-03
  0.36591251D-18  0.35465590D-19 -0.24214582D-03 -0.14579318D-17 -0.11932022D-18
 -0.24214582D-03 -0.31535016D-19 -0.97571396D-01 -0.18189527D+00 -0.30743504D+00
 -0.46217558D+00 -0.56783609D+00 -0.47962836D+00 -0.18089817D+00  0.89527514D-03
  0.75428142D-03  0.14122528D-02  0.24044812D-02  0.37193669D-02  0.48982753D-02
  0.50896218D-02  0.32342262D-02 -0.21675032D-02 -0.86970070D-02 -0.82238936D-02
 -0.12950454D-02  0.16236581D-17  0.15222827D-17  0.10839560D-17 -0.23359318D-17
 -0.21900845D-17 -0.15594706D-17 -0.45243638D-03 -0.42418787D-03 -0.30204703D-03
  0.42246196D-17  0.96437770D-18  0.49307336D-02  0.34024524D-17  0.11117058D-18
  0.26388614D-02  0.10593451D-18 -0.10771231D-19  0.70525053D-04  0.12344261D-02
  0.12344261D-02 -0.24688521D-02 -0.23348098D-18  0.73621603D-18  0.18043554D-17
  0.80351910D-03  0.80351910D-03 -0.16070382D-02  0.35302294D-19 -0.42005827D-17
 -0.55874047D-18  0.62444073D-04  0.62444073D-04 -0.12488815D-03  0.22245778D-21
 -0.32927962D-18 -0.94623592D-19 -0.90993502D-18  0.69920088D-20  0.10108891D-02
 -0.96143275D-18 -0.36863184D-19 -0.15163337D-02  0.36912378D-17  0.15887158D-19
 -0.15163337D-02  0.11268618D-18  0.49453424D-21 -0.59112711D-19  0.15086774D-03
  0.16230911D-20 -0.57363858D-19 -0.22630161D-03 -0.31066939D-20  0.23470199D-18
 -0.22630161D-03 -0.11320529D-19
MO    3     MO 0.0        OCC NO =    2.0000000  ORB. ENERGY =   -0.585683
  0.15101504D-01  0.27236184D-01  0.40159737D-01  0.10459498D-02  0.20665682D-02
  0.39920274D-03 -0.88575635D-16 -0.17141440D-15  0.93035181D-02  0.61498898D-16
  0.49050057D-16 -0.15188344D-01  0.83631701D-16  0.57681288D-17 -0.15695092D-02
  0.26456089D-02  0.26456089D-02 -0.52912179D-02  0.85240717D-16  0.32605329D-16
  0.21336547D-16  0.10397395D-02  0.10397395D-02 -0.20794790D-02 -0.27770901D-17
  0.46658964D-16 -0.88512352D-17 -0.82557940D-02 -0.15390677D-01 -0.26012956D-01
 -0.39105993D-01 -0.48046231D-01 -0.40582723D-01 -0.15306310D-01  0.75751781D-04
 -0.48424218D-01 -0.90665415D-01 -0.15436563D+00 -0.23878015D+00 -0.31446506D+00
 -0.32674934D+00 -0.20763454D+00  0.13915184D+00  0.58469119D-01  0.36118842D-01
  0.22329160D-03  0.54638931D-16  0.51227471D-16  0.36477011D-16  0.16437786D-15
  0.15411469D-15  0.10973884D-15  0.17497831D+00  0.16405329D+00  0.11681571D+00
 -0.10859446D-16  0.31094275D-16 -0.55743963D-03  0.31314639D-17  0.30925857D-16
  0.32301088D-02  0.10557411D-16  0.58125374D-18  0.21470853D-03 -0.18658464D-01
 -0.18658464D-01  0.37316928D-01  0.10483223D-16 -0.61379167D-16 -0.23644818D-16
 -0.25991558D-02 -0.25991558D-02  0.51983115D-02  0.13562794D-17  0.10696647D-15
 -0.91230596D-17  0.17652988D-03  0.17652988D-03 -0.35305977D-03 -0.49299263D-18
  0.30767276D-16  0.12869306D-16 -0.13500999D-16 -0.46742013D-17 -0.76849276D-04
 -0.13248673D-16 -0.66836635D-17  0.11527391D-03  0.53751669D-16  0.20706267D-16
  0.11527391D-03  0.40496875D-17  0.14945693D-17 -0.52130209D-17 -0.35985332D-03
  0.12309480D-17 -0.47474263D-17  0.53977998D-03 -0.57146561D-17  0.20386489D-16
  0.53977998D-03 -0.51094922D-17 -0.72716765D-02 -0.13556058D-01 -0.22912127D-01
 -0.34444432D-01 -0.42318964D-01 -0.35745130D-01 -0.13481748D-01  0.66721923D-04
 -0.38908759D-01 -0.72849474D-01 -0.12403246D+00 -0.19185936D+00 -0.25267203D+00
 -0.26254242D+00 -0.16683392D+00  0.11180822D+00  0.48568256D-01  0.99850020D-02
 -0.16195816D-02 -0.35613739D-16 -0.33390144D-16 -0.23775772D-16  0.10940252D-15
  0.10257181D-15  0.73037242D-16 -0.24286822D+00 -0.22770440D+00 -0.16213910D+00
 -0.50816254D-16  0.25605899D-16 -0.53323878D-01 -0.66312422D-16 -0.35477358D-16
  0.16943090D-02 -0.82849909D-17 -0.15059650D-17  0.12053547D-03 -0.16805000D-01
 -0.16805000D-01  0.33610000D-01  0.52665021D-17 -0.11596458D-17  0.15544099D-16
 -0.22179532D-02 -0.22179532D-02  0.44359063D-02  0.50835231D-17  0.55202379D-16
 -0.10158487D-16  0.12121287D-03  0.12121287D-03 -0.24242575D-03 -0.22153250D-18
  0.10042983D-16  0.10555859D-16  0.48611037D-17  0.93054742D-17 -0.44085275D-02
  0.82633387D-17  0.77506174D-17  0.66127913D-02 -0.22846650D-16 -0.35667040D-16
  0.66127913D-02 -0.10671065D-16  0.22268194D-17 -0.19502408D-17 -0.14228685D-03
  0.16760255D-17 -0.17556067D-17  0.21343028D-03 -0.83564839D-17  0.76063291D-17
  0.21343028D-03 -0.14185227D-17
MO    4     MO 0.0        OCC NO =    2.0000000  ORB. ENERGY =   -0.371545
  0.44835216D-01  0.80862159D-01  0.11923121D+00  0.66183601D-01 -0.18893297D-02
 -0.12820807D-03  0.91895789D-16 -0.27575709D-15  0.31836913D-01  0.61884935D-16
 -0.29862302D-16  0.57592474D-02 -0.42185312D-16  0.50867760D-17 -0.16375200D-02
 -0.45679238D-02 -0.45679238D-02  0.91358477D-02 -0.19048922D-15 -0.57934040D-17
 -0.34135714D-16 -0.36007801D-03 -0.36007801D-03  0.72015602D-03  0.35215122D-17
 -0.26926498D-16  0.96773005D-17 -0.17739990D-02 -0.33071375D-02 -0.55896449D-02
 -0.84030673D-02 -0.10324139D-01 -0.87203859D-02 -0.32890087D-02  0.16277488D-04
 -0.19712674D-01 -0.36908345D-01 -0.62839616D-01 -0.97203330D-01 -0.12801337D+00
 -0.13301409D+00 -0.84524482D-01  0.56646342D-01  0.21984002D-01  0.47546387D-01
  0.53986438D-02 -0.81804932D-16 -0.76697324D-16 -0.54613064D-16 -0.26956675D-15
 -0.25273596D-15 -0.17996306D-15 -0.47687223D+00 -0.44709802D+00 -0.31836043D+00
  0.12293366D-16 -0.61914495D-16 -0.92139347D-01  0.30828819D-16 -0.22522229D-17
 -0.11866208D-01 -0.64686878D-17 -0.24934472D-18  0.53982952D-04 -0.47783055D-02
 -0.47783055D-02  0.95566110D-02 -0.24315593D-17 -0.57018670D-17  0.38909555D-16
 -0.38432163D-02 -0.38432163D-02  0.76864326D-02  0.47721699D-17 -0.33543086D-16
  0.21689440D-16 -0.29610078D-03 -0.29610078D-03  0.59220155D-03  0.60523629D-18
 -0.57791356D-18  0.51469256D-17 -0.29741591D-17  0.99704396D-17 -0.25348610D-02
 -0.27195363D-17  0.10017817D-16  0.38022915D-02  0.11642014D-16 -0.39929136D-16
  0.38022915D-02 -0.21259471D-17 -0.46906180D-17  0.12628473D-17 -0.71535568D-03
 -0.51623282D-17  0.99815567D-18  0.10730335D-02  0.19234182D-16 -0.47866975D-17
  0.10730335D-02  0.39257023D-17  0.30639803D-02  0.57119559D-02  0.96542117D-02
  0.14513443D-01  0.17831441D-01  0.15061503D-01  0.56806446D-02 -0.28113827D-04
  0.29357817D-01  0.54967097D-01  0.93586186D-01  0.14476360D+00  0.19064857D+00
  0.19809607D+00  0.12588116D+00 -0.84362627D-01 -0.37048381D-01 -0.29753324D-01
 -0.39569727D-02 -0.16724840D-16 -0.15680601D-16 -0.11165522D-16 -0.13306338D-15
 -0.12475538D-15 -0.88833260D-16  0.11233670D+00  0.10532279D+00  0.74996104D-01
 -0.18189842D-16 -0.41525624D-16  0.29407100D-01 -0.12898231D-16 -0.14385175D-16
  0.45728001D-02  0.33075954D-17 -0.42853764D-18  0.15223472D-03  0.99580231D-02
  0.99580231D-02 -0.19916046D-01 -0.44733744D-17  0.76731655D-17 -0.62088753D-17
  0.14809097D-02  0.14809097D-02 -0.29618194D-02 -0.72072569D-17  0.10319603D-16
  0.14863899D-16  0.13248591D-03  0.13248591D-03 -0.26497182D-03 -0.46684579D-19
  0.96856437D-18 -0.12029536D-17  0.58308303D-17 -0.35308172D-17  0.33997311D-02
  0.30800944D-17 -0.32715098D-17 -0.50995966D-02 -0.20572585D-16  0.13863961D-16
 -0.50995966D-02  0.55722469D-17 -0.11572671D-17  0.91675481D-18 -0.11466164D-04
 -0.61787212D-18  0.10500770D-17  0.17199246D-04  0.40896734D-17 -0.38003414D-17
  0.17199246D-04  0.28314809D-17
MO    5     MO 0.0        OCC NO =    2.0000000  ORB. ENERGY =   -0.089457
  0.10701710D-01  0.19300975D-01  0.28459276D-01  0.19325286D-01 -0.62574987D-02
  0.10475732D-02  0.76279023D-16  0.14293976D-15  0.51800636D-02 -0.17049920D-15
 -0.10981694D-15  0.12275360D-02 -0.43666994D-16 -0.30986741D-16 -0.27701312D-02
 -0.17615620D-02 -0.17615620D-02  0.35231240D-02  0.16252632D-15  0.12298570D-15
  0.98507672D-16 -0.23909654D-03 -0.23909654D-03  0.47819308D-03 -0.33906029D-16
  0.33583806D-16  0.14413007D-16  0.66442425D-03  0.12386379D-02  0.20935162D-02
  0.31472406D-02  0.38667487D-02  0.32660874D-02  0.12318480D-02 -0.60964846D-05
  0.20018789D-01  0.37481489D-01  0.63815442D-01  0.98712786D-01  0.13000127D+00
  0.13507964D+00  0.85837049D-01 -0.57525994D-01 -0.28271638D-01 -0.11232002D-01
  0.12821650D-02 -0.14736574D-14 -0.13816474D-14 -0.98381529D-15 -0.24924306D-14
 -0.23368121D-14 -0.16639495D-14 -0.25904621D+00 -0.24287229D+00 -0.17293954D+00
 -0.38069318D-15 -0.61852924D-15 -0.46700206D-01 -0.65401600D-16 -0.18692656D-15
 -0.14157333D-01 -0.10700203D-16 -0.33551228D-17 -0.10021744D-03  0.45093845D-02
  0.45093845D-02 -0.90187691D-02 -0.44965698D-17 -0.16139378D-15 -0.20499311D-15
 -0.14812844D-02 -0.14812844D-02  0.29625689D-02 -0.94237141D-17  0.49770964D-16
 -0.24392697D-17 -0.89036373D-04 -0.89036373D-04  0.17807275D-03 -0.36444940D-17
 -0.15259524D-16 -0.30512821D-16  0.56198602D-17  0.83125800D-17 -0.17989876D-02
  0.10031727D-16  0.10811558D-16  0.26984814D-02 -0.26891307D-16 -0.35749298D-16
  0.26984814D-02 -0.19242438D-16  0.10493225D-17 -0.30810140D-18 -0.29975254D-03
  0.67842885D-18 -0.42534317D-18  0.44962881D-03 -0.38263963D-17  0.13496474D-17
  0.44962881D-03 -0.13672525D-16 -0.13537183D-02 -0.25236387D-02 -0.42653940D-02
 -0.64122844D-02 -0.78782323D-02 -0.66544266D-02 -0.25098049D-02  0.12421164D-04
 -0.33379982D-01 -0.62497858D-01 -0.10640795D+00 -0.16459692D+00 -0.21676835D+00
 -0.22523621D+00 -0.14312750D+00  0.95920721D-01  0.42566248D-01  0.68497596D-01
  0.92358869D-02 -0.10681853D-14 -0.10014916D-14 -0.71312171D-15 -0.18970867D-14
 -0.17786393D-14 -0.12664972D-14  0.54145941D+00  0.50765262D+00  0.36147891D+00
 -0.31584001D-15 -0.50222399D-15  0.12705321D+00 -0.11594460D-16  0.20335245D-16
  0.16681823D-01  0.28019984D-17 -0.16117563D-17  0.12409574D-02  0.15773462D-01
  0.15773462D-01 -0.31546925D-01 -0.84192099D-17  0.16802468D-15  0.30725315D-15
  0.14696148D-02  0.14696148D-02 -0.29392295D-02  0.23055056D-16  0.25247756D-16
  0.66167134D-16 -0.28265425D-04 -0.28265425D-04  0.56530849D-04  0.91674092D-18
 -0.72134538D-17 -0.12291433D-16  0.16719786D-16  0.11958328D-16  0.16993133D-02
  0.16966507D-16  0.97768393D-17 -0.25489700D-02 -0.67125866D-16 -0.45651822D-16
 -0.25489700D-02  0.31136331D-16  0.25275219D-18  0.69699333D-18 -0.18993871D-03
 -0.24410812D-18  0.94687158D-18  0.28490806D-03 -0.51414844D-18 -0.30378516D-17
  0.28490806D-03 -0.91056134D-17
MO    6     MO 0.0        OCC NO =    2.0000000  ORB. ENERGY =   -0.075919
  0.22752158D-16  0.41034454D-16  0.60505279D-16 -0.18409936D-14 -0.20730733D-14
  0.20993108D-16  0.98830328D-02 -0.48624497D-02 -0.38825252D-15  0.70796597D-02
 -0.34831909D-02 -0.94269874D-15  0.31354791D-03 -0.15426550D-03 -0.35501372D-15
  0.51409411D-15 -0.14464793D-15 -0.36944618D-15  0.37577201D-15  0.22873476D-02
 -0.11253745D-02 -0.77873044D-16  0.73890067D-16  0.39829772D-17 -0.98126441D-16
  0.13149039D-03 -0.64693241D-04  0.83144309D-16  0.15499990D-15  0.26197713D-15
  0.39383744D-15  0.48387480D-15  0.40870962D-15  0.15415023D-15 -0.76289810D-18
 -0.74377999D-16 -0.13925908D-15 -0.23710050D-15 -0.36675842D-15 -0.48300794D-15
 -0.50187619D-15 -0.31891979D-15  0.21373263D-15 -0.23295336D-18 -0.12208939D-14
 -0.94721607D-15  0.44821714D+00  0.42023206D+00  0.29923026D+00 -0.22052272D+00
 -0.20675407D+00 -0.14722121D+00 -0.10892870D-15 -0.10212758D-15 -0.72720922D-16
  0.11570909D+00 -0.56928843D-01 -0.19495229D-14  0.19211165D-01 -0.94518884D-02
 -0.19427231D-14  0.12747772D-02 -0.62719009D-03 -0.64972032D-16 -0.13060231D-15
  0.55251630D-16  0.75350675D-16  0.10634110D-15  0.32181715D-01 -0.15833396D-01
 -0.14165296D-15 -0.12362151D-15  0.26527447D-15 -0.75852400D-16  0.30030647D-02
 -0.14775071D-02 -0.12488211D-17  0.33935883D-16 -0.32687062D-16  0.24619391D-16
 -0.77358825D-03  0.38060523D-03 -0.40442217D-02  0.19897561D-02 -0.17586235D-15
 -0.40442288D-02  0.19897596D-02  0.12118962D-15  0.16176894D-01 -0.79590280D-02
  0.40639744D-15 -0.48884819D-15  0.67352773D-04 -0.33137548D-04 -0.37740830D-16
  0.67353041D-04 -0.33137680D-04  0.50844717D-16 -0.26941136D-03  0.13255032D-03
  0.62377775D-16 -0.32054995D-16  0.66678716D-16  0.12430429D-15  0.21009614D-15
  0.31584332D-15  0.38805001D-15  0.32777027D-15  0.12362289D-15 -0.61181656D-18
 -0.54705850D-16 -0.10242661D-15 -0.17439007D-15 -0.26975492D-15 -0.35525775D-15
 -0.36913555D-15 -0.23456907D-15  0.15720274D-15 -0.36423672D-16  0.36681705D-14
  0.11256103D-14  0.37637389D+00  0.35287445D+00  0.25126763D+00 -0.18517586D+00
 -0.17361414D+00 -0.12362361D+00  0.53701839D-15  0.50348888D-15  0.35851407D-15
  0.94853988D-01 -0.46668139D-01 -0.65231184D-15  0.16229837D-01 -0.79850760D-02
 -0.11174046D-14  0.57283064D-03 -0.28183253D-03 -0.70446837D-16 -0.14023079D-15
  0.86018593D-16  0.54212193D-16 -0.90539808D-15 -0.51388395D-01  0.25283078D-01
 -0.15601487D-15 -0.11280281D-15  0.26881769D-15  0.22647748D-15 -0.93444244D-02
  0.45974545D-02 -0.22243124D-16 -0.34869829D-16  0.57112953D-16 -0.24635479D-16
 -0.37528977D-03  0.18464247D-03 -0.22960005D-02  0.11296317D-02 -0.12409141D-15
 -0.22960023D-02  0.11296326D-02  0.10532760D-15  0.91840039D-02 -0.45185277D-02
  0.26694664D-15 -0.88361781D-15 -0.19906457D-05  0.97939720D-06 -0.66822317D-17
 -0.19905356D-05  0.97934304D-06 -0.60222023D-17  0.79624727D-05 -0.39175346D-05
  0.26068897D-16 -0.52258434D-16
MO    7     MO 0.0        OCC NO =    2.0000000  ORB. ENERGY =   -0.075919
  0.11296477D-15  0.20373662D-15  0.30040953D-15 -0.87630736D-15 -0.97484361D-15
  0.11399196D-15  0.48624497D-02  0.98830328D-02  0.80631719D-16  0.34831909D-02
  0.70796597D-02 -0.56060505D-15  0.15426550D-03  0.31354791D-03 -0.11742962D-15
 -0.11470301D-15  0.18253735D-15 -0.67834341D-16 -0.24195471D-15  0.11253745D-02
  0.22873476D-02 -0.22170564D-16  0.95014822D-16 -0.72844258D-16 -0.71481897D-16
  0.64693241D-04  0.13149039D-03 -0.11111596D-15 -0.20714541D-15 -0.35011223D-15
 -0.52633337D-15 -0.64666135D-15 -0.54620889D-15 -0.20600990D-15  0.10195545D-17
  0.19343969D-15  0.36218014D-15  0.61664268D-15  0.95385246D-15  0.12561901D-14
  0.13052620D-14  0.82943541D-15 -0.55586833D-15 -0.74415988D-16  0.15231929D-14
 -0.26055377D-16  0.22052272D+00  0.20675407D+00  0.14722121D+00  0.44821714D+00
  0.42023206D+00  0.29923026D+00 -0.15518624D-14 -0.14549696D-14 -0.10360250D-14
  0.56928843D-01  0.11570909D+00 -0.59916975D-15  0.94518884D-02  0.19211165D-01
 -0.78048381D-16  0.62719009D-03  0.12747772D-02  0.11366340D-15 -0.19256998D-15
 -0.17199516D-15  0.36456514D-15 -0.87456423D-16  0.15833396D-01  0.32181715D-01
 -0.21216212D-15 -0.13346655D-15  0.34562868D-15  0.97081133D-17  0.14775071D-02
  0.30030647D-02 -0.42855880D-16 -0.43346833D-16  0.86202713D-16 -0.23588830D-17
 -0.38060523D-03 -0.77358825D-03 -0.19897561D-02 -0.40442217D-02  0.41051971D-16
 -0.19897596D-02 -0.40442288D-02  0.45590786D-16  0.79590280D-02  0.16176894D-01
 -0.16874670D-15  0.14114228D-15  0.33137548D-04  0.67352773D-04 -0.21332867D-16
  0.33137680D-04  0.67353041D-04 -0.55042555D-16 -0.13255032D-03 -0.26941136D-03
  0.11904116D-15 -0.74435315D-16 -0.14158042D-15 -0.26393810D-15 -0.44610188D-15
 -0.67063725D-15 -0.82395535D-15 -0.69596201D-15 -0.26249126D-15  0.12990839D-17
 -0.96261107D-16 -0.18023116D-15 -0.30685898D-15 -0.47466418D-15 -0.62511602D-15
 -0.64953559D-15 -0.41275071D-15  0.27661593D-15  0.22617526D-15 -0.78409515D-15
  0.14317586D-15  0.18517586D+00  0.17361414D+00  0.12362361D+00  0.37637389D+00
  0.35287445D+00  0.25126763D+00  0.29955842D-14  0.28085506D-14  0.19998554D-14
  0.46668139D-01  0.94853988D-01  0.12008793D-14  0.79850760D-02  0.16229837D-01
  0.18460177D-16  0.28183253D-03  0.57283064D-03 -0.98590638D-16 -0.19970134D-15
  0.62855895D-15 -0.42885762D-15  0.10693741D-15 -0.25283078D-01 -0.51388395D-01
  0.85192142D-16 -0.86192058D-16  0.99991659D-18  0.42772550D-16 -0.45974545D-02
 -0.93444244D-02 -0.21509867D-16 -0.30226100D-16  0.51735967D-16  0.51385520D-17
 -0.18464247D-03 -0.37528977D-03 -0.11296317D-02 -0.22960005D-02  0.16700017D-15
 -0.11296326D-02 -0.22960023D-02 -0.52368848D-15  0.45185277D-02  0.91840039D-02
  0.22687959D-16  0.20106561D-15 -0.97939720D-06 -0.19906457D-05 -0.26728927D-16
 -0.97934304D-06 -0.19905356D-05 -0.15673082D-17  0.39175346D-05  0.79624727D-05
  0.81754088D-16 -0.47189160D-16
END DATA
RHF
