 Molden2AIM, Version 4.0.0 (06/02/2016)           Time: Tue Jul  3 04:01:23 2018
GAUSSIAN              7 MOL ORBITALS    204 PRIMITIVES        4 NUCLEI
  C    1    (CENTRE  1)   0.00000000  0.00000000  1.14227519  CHARGE =  6.0
  C    2    (CENTRE  2)   0.00000000  0.00000000 -1.14227519  CHARGE =  6.0
  H    3    (CENTRE  3)   0.00000000  0.00000000  3.16775924  CHARGE =  1.0
  H    4    (CENTRE  4)   0.00000000  0.00000000 -3.16775924  CHARGE =  1.0
CENTRE ASSIGNMENTS    1  1  1  1  1  1  1  1  1  1  1  1  1  1  1  1  1  1  1  1
CENTRE ASSIGNMENTS    1  1  1  1  1  1  1  1  1  1  1  1  1  1  1  1  1  1  1  1
CENTRE ASSIGNMENTS    1  1  1  1  1  1  1  1  1  1  1  1  1  1  1  1  1  1  1  1
CENTRE ASSIGNMENTS    1  1  1  1  1  1  1  1  1  1  1  1  1  1  1  2  2  2  2  2
CENTRE ASSIGNMENTS    2  2  2  2  2  2  2  2  2  2  2  2  2  2  2  2  2  2  2  2
CENTRE ASSIGNMENTS    2  2  2  2  2  2  2  2  2  2  2  2  2  2  2  2  2  2  2  2
CENTRE ASSIGNMENTS    2  2  2  2  2  2  2  2  2  2  2  2  2  2  2  2  2  2  2  2
CENTRE ASSIGNMENTS    2  2  2  2  2  2  2  2  2  2  3  3  3  3  3  3  3  3  3  3
CENTRE ASSIGNMENTS    3  3  3  3  3  3  3  3  3  3  3  3  3  3  3  3  3  4  4  4
CENTRE ASSIGNMENTS    4  4  4  4  4  4  4  4  4  4  4  4  4  4  4  4  4  4  4  4
CENTRE ASSIGNMENTS    4  4  4  4
TYPE ASSIGNMENTS      1  1  1  1  1  1  1  1  1  1  1  1  1  1  1  1  1  1  1  2
TYPE ASSIGNMENTS      2  2  3  3  3  4  4  4  2  3  4  2  3  4  2  3  4  5  6  7
TYPE ASSIGNMENTS      8  9 10  5  6  7  8  9 10  5  6  7  8  9 10 11 12 13 17 14
TYPE ASSIGNMENTS     15 18 19 16 20 11 12 13 17 14 15 18 19 16 20  1  1  1  1  1
TYPE ASSIGNMENTS      1  1  1  1  1  1  1  1  1  1  1  1  1  1  2  2  2  3  3  3
TYPE ASSIGNMENTS      4  4  4  2  3  4  2  3  4  2  3  4  5  6  7  8  9 10  5  6
TYPE ASSIGNMENTS      7  8  9 10  5  6  7  8  9 10 11 12 13 17 14 15 18 19 16 20
TYPE ASSIGNMENTS     11 12 13 17 14 15 18 19 16 20  1  1  1  1  1  1  2  3  4  2
TYPE ASSIGNMENTS      3  4  2  3  4  5  6  7  8  9 10  5  6  7  8  9 10  1  1  1
TYPE ASSIGNMENTS      1  1  1  2  3  4  2  3  4  2  3  4  5  6  7  8  9 10  5  6
TYPE ASSIGNMENTS      7  8  9 10
EXPONENTS  0.8236000D+04 0.1235000D+04 0.2808000D+03 0.7927000D+02 0.2559000D+02
EXPONENTS  0.8997000D+01 0.3319000D+01 0.3643000D+00 0.8236000D+04 0.1235000D+04
EXPONENTS  0.2808000D+03 0.7927000D+02 0.2559000D+02 0.8997000D+01 0.3319000D+01
EXPONENTS  0.3643000D+00 0.9059000D+00 0.1285000D+00 0.4402000D-01 0.1871000D+02
EXPONENTS  0.4133000D+01 0.1200000D+01 0.1871000D+02 0.4133000D+01 0.1200000D+01
EXPONENTS  0.1871000D+02 0.4133000D+01 0.1200000D+01 0.3827000D+00 0.3827000D+00
EXPONENTS  0.3827000D+00 0.1209000D+00 0.1209000D+00 0.1209000D+00 0.3569000D-01
EXPONENTS  0.3569000D-01 0.3569000D-01 0.1097000D+01 0.1097000D+01 0.1097000D+01
EXPONENTS  0.1097000D+01 0.1097000D+01 0.1097000D+01 0.3180000D+00 0.3180000D+00
EXPONENTS  0.3180000D+00 0.3180000D+00 0.3180000D+00 0.3180000D+00 0.1000000D+00
EXPONENTS  0.1000000D+00 0.1000000D+00 0.1000000D+00 0.1000000D+00 0.1000000D+00
EXPONENTS  0.7610000D+00 0.7610000D+00 0.7610000D+00 0.7610000D+00 0.7610000D+00
EXPONENTS  0.7610000D+00 0.7610000D+00 0.7610000D+00 0.7610000D+00 0.7610000D+00
EXPONENTS  0.2680000D+00 0.2680000D+00 0.2680000D+00 0.2680000D+00 0.2680000D+00
EXPONENTS  0.2680000D+00 0.2680000D+00 0.2680000D+00 0.2680000D+00 0.2680000D+00
EXPONENTS  0.8236000D+04 0.1235000D+04 0.2808000D+03 0.7927000D+02 0.2559000D+02
EXPONENTS  0.8997000D+01 0.3319000D+01 0.3643000D+00 0.8236000D+04 0.1235000D+04
EXPONENTS  0.2808000D+03 0.7927000D+02 0.2559000D+02 0.8997000D+01 0.3319000D+01
EXPONENTS  0.3643000D+00 0.9059000D+00 0.1285000D+00 0.4402000D-01 0.1871000D+02
EXPONENTS  0.4133000D+01 0.1200000D+01 0.1871000D+02 0.4133000D+01 0.1200000D+01
EXPONENTS  0.1871000D+02 0.4133000D+01 0.1200000D+01 0.3827000D+00 0.3827000D+00
EXPONENTS  0.3827000D+00 0.1209000D+00 0.1209000D+00 0.1209000D+00 0.3569000D-01
EXPONENTS  0.3569000D-01 0.3569000D-01 0.1097000D+01 0.1097000D+01 0.1097000D+01
EXPONENTS  0.1097000D+01 0.1097000D+01 0.1097000D+01 0.3180000D+00 0.3180000D+00
EXPONENTS  0.3180000D+00 0.3180000D+00 0.3180000D+00 0.3180000D+00 0.1000000D+00
EXPONENTS  0.1000000D+00 0.1000000D+00 0.1000000D+00 0.1000000D+00 0.1000000D+00
EXPONENTS  0.7610000D+00 0.7610000D+00 0.7610000D+00 0.7610000D+00 0.7610000D+00
EXPONENTS  0.7610000D+00 0.7610000D+00 0.7610000D+00 0.7610000D+00 0.7610000D+00
EXPONENTS  0.2680000D+00 0.2680000D+00 0.2680000D+00 0.2680000D+00 0.2680000D+00
EXPONENTS  0.2680000D+00 0.2680000D+00 0.2680000D+00 0.2680000D+00 0.2680000D+00
EXPONENTS  0.3387000D+02 0.5095000D+01 0.1159000D+01 0.3258000D+00 0.1027000D+00
EXPONENTS  0.2526000D-01 0.1407000D+01 0.1407000D+01 0.1407000D+01 0.3880000D+00
EXPONENTS  0.3880000D+00 0.3880000D+00 0.1020000D+00 0.1020000D+00 0.1020000D+00
EXPONENTS  0.1057000D+01 0.1057000D+01 0.1057000D+01 0.1057000D+01 0.1057000D+01
EXPONENTS  0.1057000D+01 0.2470000D+00 0.2470000D+00 0.2470000D+00 0.2470000D+00
EXPONENTS  0.2470000D+00 0.2470000D+00 0.3387000D+02 0.5095000D+01 0.1159000D+01
EXPONENTS  0.3258000D+00 0.1027000D+00 0.2526000D-01 0.1407000D+01 0.1407000D+01
EXPONENTS  0.1407000D+01 0.3880000D+00 0.3880000D+00 0.3880000D+00 0.1020000D+00
EXPONENTS  0.1020000D+00 0.1020000D+00 0.1057000D+01 0.1057000D+01 0.1057000D+01
EXPONENTS  0.1057000D+01 0.1057000D+01 0.1057000D+01 0.2470000D+00 0.2470000D+00
EXPONENTS  0.2470000D+00 0.2470000D+00 0.2470000D+00 0.2470000D+00
MO    1     MO 0.0        OCC NO =    2.0000000  ORB. ENERGY =  -10.581455
  0.23171048D+00  0.43196102D+00  0.73009023D+00  0.10975648D+01  0.13484851D+01
  0.11390113D+01  0.42959314D+00 -0.21260804D-02 -0.10075943D-02 -0.18865345D-02
 -0.32119864D-02 -0.49684546D-02 -0.65432799D-02 -0.67988870D-02 -0.43203875D-02
  0.28954232D-02  0.24336682D-01  0.15820279D-02 -0.23311181D-03 -0.14167306D-16
 -0.13282750D-16 -0.94581092D-17 -0.12678008D-16 -0.11886438D-16 -0.84638522D-17
 -0.11192113D-02 -0.10493318D-02 -0.74718672D-03  0.68111134D-17  0.84793761D-17
  0.38775466D-03  0.22176728D-17  0.20021952D-17  0.12449043D-02  0.13579048D-18
  0.46067681D-19 -0.90107187D-05 -0.17669656D-02 -0.17669656D-02  0.35339312D-02
  0.16737923D-18 -0.46766428D-18  0.19552179D-17  0.68970218D-03  0.68970218D-03
 -0.13794044D-02  0.16991136D-18 -0.45685066D-17 -0.73737003D-18  0.77097437D-04
  0.77097437D-04 -0.15419487D-03 -0.13317423D-19 -0.67961950D-18 -0.94336580D-18
 -0.88110148D-20 -0.14426174D-17  0.69158934D-03  0.15978100D-19 -0.14395353D-17
 -0.10373840D-02  0.10454945D-19  0.57673875D-17 -0.10373840D-02 -0.32333756D-18
 -0.20762338D-18 -0.45100819D-18  0.11762510D-03 -0.19289668D-18 -0.44619343D-18
 -0.17643766D-03  0.81576682D-18  0.17992180D-17 -0.17643766D-03 -0.10927222D-18
  0.23171048D+00  0.43196102D+00  0.73009023D+00  0.10975648D+01  0.13484851D+01
  0.11390113D+01  0.42959314D+00 -0.21260804D-02 -0.10075943D-02 -0.18865345D-02
 -0.32119864D-02 -0.49684546D-02 -0.65432799D-02 -0.67988870D-02 -0.43203875D-02
  0.28954232D-02  0.24336682D-01  0.15820279D-02 -0.23311180D-03  0.45447872D-17
  0.42610269D-17  0.30341050D-17 -0.61288678D-17 -0.57462032D-17 -0.40916390D-17
  0.11192113D-02  0.10493318D-02  0.74718672D-03 -0.44978448D-17 -0.34364632D-17
 -0.38775466D-03 -0.34370704D-17 -0.18924939D-17 -0.12449043D-02 -0.13398124D-18
 -0.92325022D-19  0.90107189D-05 -0.17669656D-02 -0.17669656D-02  0.35339312D-02
  0.13098206D-17  0.14828705D-17 -0.33761319D-17  0.68970218D-03  0.68970218D-03
 -0.13794044D-02 -0.10801303D-18 -0.30811614D-17 -0.38479169D-17  0.77097437D-04
  0.77097437D-04 -0.15419487D-03  0.90325800D-20 -0.42897511D-18 -0.73607244D-18
  0.73902189D-19  0.84278626D-18 -0.69158934D-03 -0.91545315D-20  0.58390827D-18
  0.10373840D-02 -0.21255204D-18 -0.31122671D-17  0.10373840D-02  0.59804242D-18
  0.23553579D-18 -0.53656857D-19 -0.11762510D-03  0.24320006D-18 -0.46809771D-19
  0.17643766D-03 -0.94980744D-18  0.20778034D-18  0.17643766D-03 -0.79352912D-19
  0.68081544D-04  0.12278787D-03  0.18105064D-03  0.90348674D-04 -0.97881164D-03
  0.33355820D-04 -0.14667676D-17  0.12837314D-17  0.13838212D-02  0.11417023D-17
 -0.55774711D-17  0.64777816D-03  0.47957790D-18  0.10924702D-17  0.43721940D-03
  0.10198479D-02  0.10198479D-02 -0.20396959D-02  0.13289904D-18 -0.39582330D-17
  0.69330054D-17  0.10122750D-03  0.10122750D-03 -0.20245500D-03  0.31007350D-19
 -0.90741764D-18  0.22134266D-18  0.68081544D-04  0.12278787D-03  0.18105064D-03
  0.90348672D-04 -0.97881164D-03  0.33355820D-04 -0.47896158D-18  0.16488812D-17
 -0.13838212D-02  0.10082519D-17 -0.26100519D-17 -0.64777816D-03  0.40416991D-18
 -0.85983843D-18 -0.43721941D-03  0.10198479D-02  0.10198479D-02 -0.20396959D-02
 -0.58181144D-20  0.20600291D-18  0.12036838D-17  0.10122750D-03  0.10122750D-03
 -0.20245500D-03 -0.31944653D-19  0.46276647D-18 -0.13796512D-17
MO    2     MO 0.0        OCC NO =    2.0000000  ORB. ENERGY =  -10.578564
  0.23283963D+00  0.43406601D+00  0.73364802D+00  0.11029133D+01  0.13550564D+01
  0.11445618D+01  0.43168658D+00 -0.21364410D-02 -0.16882811D-02 -0.31609950D-02
 -0.53818644D-02 -0.83249259D-02 -0.10963635D-01 -0.11391919D-01 -0.72390529D-02
  0.48514449D-02  0.23912964D-01  0.10383757D-01 -0.30418487D-02  0.21210306D-16
  0.19886010D-16  0.14160024D-16 -0.22819201D-15 -0.21394451D-15 -0.15234124D-15
  0.26789798D-02  0.25117138D-02  0.17884899D-02 -0.10588990D-16 -0.81187287D-17
 -0.10810981D-01 -0.40229479D-17 -0.62891626D-18 -0.10010099D-01 -0.17765026D-18
 -0.33923919D-19  0.17767786D-03 -0.26461125D-02 -0.26461125D-02  0.52922249D-02
 -0.21680314D-18 -0.92892247D-18  0.22317496D-17 -0.22000402D-03 -0.22000402D-03
  0.44000804D-03  0.88898528D-19  0.57695850D-17 -0.13249435D-17 -0.10093273D-04
 -0.10093273D-04  0.20186546D-04 -0.25303437D-20  0.11208815D-17  0.52763795D-18
  0.17749332D-18  0.11614771D-17 -0.16141264D-02  0.19305713D-18  0.11641290D-17
  0.24211896D-02 -0.72553708D-18 -0.46485603D-17  0.24211896D-02 -0.94060503D-19
  0.31716273D-18  0.39676181D-18 -0.56984053D-03  0.32244086D-18  0.39914984D-18
  0.85476080D-03 -0.12739291D-17 -0.15894353D-17  0.85476080D-03 -0.19645165D-20
 -0.23283963D+00 -0.43406601D+00 -0.73364802D+00 -0.11029133D+01 -0.13550564D+01
 -0.11445618D+01 -0.43168658D+00  0.21364410D-02  0.16882811D-02  0.31609950D-02
  0.53818644D-02  0.83249259D-02  0.10963635D-01  0.11391919D-01  0.72390529D-02
 -0.48514449D-02 -0.23912964D-01 -0.10383757D-01  0.30418487D-02 -0.51851684D-17
 -0.48614250D-17 -0.34616242D-17  0.63605796D-17  0.59634476D-17  0.42463300D-17
  0.26789798D-02  0.25117138D-02  0.17884899D-02  0.61220343D-17  0.22575268D-17
 -0.10810981D-01  0.51669426D-17  0.47874987D-18 -0.10010099D-01  0.17227510D-18
  0.77625654D-19  0.17767786D-03  0.26461125D-02  0.26461125D-02 -0.52922249D-02
 -0.91381222D-18 -0.16069818D-17  0.37542098D-17  0.22000402D-03  0.22000402D-03
 -0.44000805D-03  0.10579177D-19  0.44019266D-17  0.20435066D-17  0.10093273D-04
  0.10093273D-04 -0.20186547D-04 -0.20805302D-20  0.89601643D-18  0.33129456D-18
 -0.20829464D-18 -0.63604259D-18 -0.16141264D-02 -0.14206328D-18 -0.49489138D-18
  0.24211896D-02  0.76694718D-18  0.24030191D-17  0.24211896D-02 -0.12886876D-18
 -0.32751330D-18  0.11472629D-18 -0.56984053D-03 -0.33283260D-18  0.11187115D-18
  0.85476080D-03  0.13153725D-17 -0.45605003D-18  0.85476080D-03 -0.17351509D-19
  0.26860893D-03  0.48444727D-03  0.71431721D-03  0.70780822D-02  0.10170737D-01
 -0.11134982D-03  0.13835380D-17 -0.16712469D-17 -0.14440072D-02 -0.18218562D-18
  0.59185127D-17 -0.18059309D-02 -0.72518188D-18 -0.69047584D-18 -0.15704732D-02
  0.31277558D-03  0.31277558D-03 -0.62555117D-03  0.73094250D-19  0.24673332D-17
 -0.58781912D-17 -0.17437945D-04 -0.17437945D-04  0.34875890D-04 -0.19351237D-19
  0.80885952D-18 -0.47048209D-18 -0.26860893D-03 -0.48444727D-03 -0.71431721D-03
 -0.70780822D-02 -0.10170737D-01  0.11134982D-03  0.69332803D-18 -0.14373409D-17
 -0.14440072D-02 -0.15140314D-17  0.24191838D-17 -0.18059309D-02 -0.87171618D-19
  0.51039482D-18 -0.15704732D-02 -0.31277558D-03 -0.31277558D-03  0.62555117D-03
  0.57849729D-19 -0.69275078D-18 -0.11078270D-17  0.17437945D-04  0.17437945D-04
 -0.34875890D-04 -0.54530938D-20 -0.44524279D-18  0.11770995D-17
MO    3     MO 0.0        OCC NO =    2.0000000  ORB. ENERGY =   -0.873614
 -0.76594699D-02 -0.14278993D-01 -0.24134014D-01 -0.36281329D-01 -0.44575804D-01
 -0.37651393D-01 -0.14200720D-01  0.70280156D-04 -0.45767074D-01 -0.85690403D-01
 -0.14589524D+00 -0.22567776D+00 -0.29720967D+00 -0.30881988D+00 -0.19624117D+00
  0.13151627D+00  0.54589293D-01  0.29500499D-01 -0.19907966D-03 -0.53800450D-15
 -0.50441342D-15 -0.35917240D-15 -0.56365138D-15 -0.52845900D-15 -0.37629429D-15
 -0.20862254D+00 -0.19559690D+00 -0.13927664D+00 -0.49490477D-16 -0.83431107D-16
 -0.14531416D-01 -0.29527967D-16  0.80879792D-17  0.21073067D-03 -0.18766421D-17
  0.15438726D-17 -0.13758583D-03 -0.19269321D-01 -0.19269321D-01  0.38538643D-01
  0.31543048D-17  0.77946774D-17 -0.17352517D-17 -0.40942735D-02 -0.40942735D-02
  0.81885470D-02 -0.25490880D-17  0.24619223D-17  0.15000431D-16 -0.14059532D-04
 -0.14059532D-04  0.28119064D-04 -0.14064984D-17  0.84022475D-17 -0.11279407D-16
  0.79055021D-17  0.85365592D-17 -0.84320973D-03  0.36337806D-17  0.66975451D-17
  0.12648146D-02 -0.27350287D-16 -0.32307223D-16  0.12648146D-02  0.82947570D-17
  0.13604003D-17  0.13255372D-17  0.11756475D-03  0.26760657D-17  0.19003211D-17
 -0.17634712D-03 -0.67572666D-17 -0.58769327D-17 -0.17634712D-03 -0.26494231D-17
 -0.76594699D-02 -0.14278993D-01 -0.24134014D-01 -0.36281329D-01 -0.44575804D-01
 -0.37651393D-01 -0.14200720D-01  0.70280156D-04 -0.45767074D-01 -0.85690403D-01
 -0.14589524D+00 -0.22567776D+00 -0.29720967D+00 -0.30881988D+00 -0.19624117D+00
  0.13151627D+00  0.54589293D-01  0.29500499D-01 -0.19907967D-03 -0.96473397D-16
 -0.90449941D-16 -0.64405747D-16 -0.10814518D-15 -0.10139298D-15 -0.72197840D-16
  0.20862254D+00  0.19559690D+00  0.13927664D+00 -0.11076602D-16  0.56787374D-17
  0.14531416D-01  0.28270230D-16 -0.40361003D-16 -0.21073066D-03  0.17545126D-17
 -0.18663379D-17  0.13758583D-03 -0.19269321D-01 -0.19269321D-01  0.38538643D-01
 -0.57059650D-18 -0.27258857D-16 -0.41006589D-16 -0.40942735D-02 -0.40942735D-02
  0.81885470D-02 -0.39879430D-17  0.20142166D-16  0.28765511D-16 -0.14059532D-04
 -0.14059532D-04  0.28119064D-04  0.10134040D-17  0.30187439D-17 -0.30390089D-17
  0.29180324D-17  0.20448510D-17  0.84320973D-03 -0.15777271D-17 -0.22696554D-17
 -0.12648146D-02 -0.71763701D-17 -0.38648976D-17 -0.12648146D-02 -0.44429439D-17
 -0.94074667D-18  0.15368480D-17 -0.11756475D-03 -0.47794762D-18  0.15826074D-17
  0.17634712D-03  0.33001876D-17 -0.61931515D-17  0.17634712D-03  0.14640369D-17
  0.11312178D-01  0.20401978D-01  0.30082705D-01 -0.64321195D-02 -0.54885981D-02
  0.10204443D-03  0.20346820D-17  0.48255303D-17 -0.65766223D-02  0.22470807D-16
  0.64624002D-17  0.13904171D-01 -0.40277330D-17  0.13457016D-16  0.19861575D-02
  0.25503858D-02  0.25503858D-02 -0.51007715D-02  0.19732816D-17 -0.31635168D-16
 -0.11672580D-16  0.76843277D-03  0.76843277D-03 -0.15368655D-02  0.14180409D-17
 -0.11310647D-16 -0.47064404D-17  0.11312178D-01  0.20401978D-01  0.30082705D-01
 -0.64321195D-02 -0.54885981D-02  0.10204443D-03  0.83389472D-18 -0.83082576D-17
  0.65766223D-02  0.40537186D-17  0.24094579D-16 -0.13904171D-01 -0.34925473D-17
  0.67435600D-17 -0.19861575D-02  0.25503858D-02  0.25503858D-02 -0.51007715D-02
  0.26666200D-18  0.85022959D-17  0.56673745D-17  0.76843277D-03  0.76843277D-03
 -0.15368655D-02 -0.15823984D-18 -0.46523654D-18  0.11403138D-16
MO    4     MO 0.0        OCC NO =    2.0000000  ORB. ENERGY =   -0.656947
  0.30599364D-02  0.57044172D-02  0.96414700D-02  0.14494288D-01  0.17807907D-01
  0.15041624D-01  0.56731472D-02 -0.28076722D-04  0.31562924D-01  0.59095752D-01
  0.10061557D+00  0.15563699D+00  0.20496845D+00  0.21297534D+00  0.13533627D+00
 -0.90699221D-01 -0.36591142D-01 -0.86314513D-01 -0.20320746D-01  0.26370283D-15
  0.24723817D-15  0.17604830D-15 -0.14289142D-15 -0.13396979D-15 -0.95394471D-16
 -0.24320928D+00 -0.22802416D+00 -0.16236678D+00 -0.73244824D-16  0.73814494D-16
 -0.47382047D-01 -0.25143702D-16 -0.12183363D-16  0.18286524D-02 -0.12430280D-17
  0.15712043D-17  0.13259125D-02  0.99179070D-02  0.99179070D-02 -0.19835814D-01
  0.15162993D-16 -0.91214529D-17 -0.61477234D-16  0.48363734D-02  0.48363734D-02
 -0.96727469D-02 -0.14735129D-17  0.58391699D-17  0.62308168D-16  0.67409058D-03
  0.67409058D-03 -0.13481812D-02  0.35481088D-18  0.16630062D-16 -0.18693425D-16
  0.80813905D-17  0.96701760D-17  0.25828003D-03  0.94005789D-17  0.99147548D-17
 -0.38742004D-03 -0.33644750D-16 -0.38925283D-16 -0.38742004D-03 -0.34410206D-17
  0.29741553D-17  0.31304922D-17 -0.13217265D-02  0.27044926D-17  0.31588475D-17
  0.19825898D-02 -0.11626958D-16 -0.12550324D-16  0.19825898D-02  0.32523990D-17
 -0.30599364D-02 -0.57044172D-02 -0.96414700D-02 -0.14494288D-01 -0.17807907D-01
 -0.15041624D-01 -0.56731472D-02  0.28076722D-04 -0.31562924D-01 -0.59095752D-01
 -0.10061557D+00 -0.15563699D+00 -0.20496845D+00 -0.21297534D+00 -0.13533627D+00
  0.90699221D-01  0.36591142D-01  0.86314513D-01  0.20320746D-01  0.63714316D-16
  0.59736222D-16  0.42535748D-16 -0.47896662D-16 -0.44906165D-16 -0.31975865D-16
 -0.24320928D+00 -0.22802416D+00 -0.16236678D+00  0.51935218D-16  0.64734177D-16
 -0.47382047D-01  0.66875070D-16 -0.64699543D-16  0.18286524D-02  0.43609879D-17
 -0.45671560D-17  0.13259125D-02 -0.99179070D-02 -0.99179070D-02  0.19835814D-01
 -0.47492437D-17  0.26498117D-16 -0.20604246D-16 -0.48363734D-02 -0.48363734D-02
  0.96727469D-02 -0.23138468D-17  0.20240588D-16  0.85832353D-16 -0.67409058D-03
 -0.67409058D-03  0.13481812D-02  0.84037046D-19  0.19515862D-17  0.23864083D-17
 -0.26721770D-17 -0.26386916D-17  0.25828003D-03 -0.43448720D-17 -0.25563162D-17
 -0.38742004D-03  0.12361403D-16  0.10472391D-16 -0.38742004D-03  0.45736910D-18
 -0.22327382D-17  0.24475622D-17 -0.13217265D-02 -0.23291068D-17  0.23057007D-17
  0.19825898D-02  0.90273213D-17 -0.96483875D-17  0.19825898D-02  0.19678737D-17
 -0.32936448D-01 -0.59402240D-01 -0.87588568D-01 -0.32970840D-01  0.94805009D-02
 -0.11021909D-02  0.24267875D-16  0.11022866D-16  0.25427816D-01  0.41439189D-16
 -0.44513270D-17  0.12998843D-02 -0.14105067D-16  0.22360071D-16 -0.90298959D-03
  0.25981339D-02  0.25981339D-02 -0.51962678D-02 -0.43793518D-17 -0.57272597D-16
 -0.95769931D-18  0.17693097D-03  0.17693097D-03 -0.35386195D-03 -0.11210656D-17
 -0.51950811D-17 -0.56497114D-17  0.32936448D-01  0.59402240D-01  0.87588568D-01
  0.32970840D-01 -0.94805009D-02  0.11021909D-02  0.12064607D-16 -0.16660207D-16
  0.25427816D-01 -0.15487025D-16  0.47739472D-16  0.12998843D-02 -0.19597591D-16
  0.25734205D-16 -0.90298959D-03 -0.25981339D-02 -0.25981339D-02  0.51962678D-02
  0.16001084D-17  0.64733991D-17  0.10379701D-16 -0.17693097D-03 -0.17693097D-03
  0.35386195D-03  0.78965757D-18 -0.13736214D-16  0.23605270D-16
MO    5     MO 0.0        OCC NO =    2.0000000  ORB. ENERGY =   -0.577057
  0.75994673D-04  0.14167135D-03  0.23944954D-03  0.35997109D-03  0.44226607D-03
  0.37356440D-03  0.14089475D-03 -0.69729597D-06 -0.68893261D-03 -0.12898992D-02
 -0.21961638D-02 -0.33971314D-02 -0.44739026D-02 -0.46486713D-02 -0.29540220D-02
  0.19797168D-02 -0.59004173D-03  0.24029080D-01  0.88151266D-03  0.78299548D-15
  0.73410803D-15  0.52272865D-15  0.18780087D-15  0.17607525D-15  0.12537607D-15
  0.48862118D+00  0.45811341D+00  0.32620404D+00  0.18531068D-15  0.16064019D-16
  0.95855218D-01  0.33841333D-16  0.89214467D-17  0.15170552D-01  0.27416985D-17
 -0.24629205D-17  0.86605020D-04  0.42913169D-02  0.42913169D-02 -0.85826338D-02
  0.25132053D-15  0.26235299D-15  0.14170494D-15 -0.14742981D-02 -0.14742981D-02
  0.29485961D-02 -0.70523233D-17 -0.55750162D-16  0.91985040D-17  0.23321941D-04
  0.23321941D-04 -0.46643882D-04 -0.29918929D-17 -0.29933120D-18  0.64179353D-18
 -0.46799454D-17 -0.14290563D-16  0.33812353D-02 -0.43447612D-17 -0.14956632D-16
 -0.50718530D-02  0.18384598D-16  0.57828321D-16 -0.50718530D-02 -0.66319087D-17
 -0.85843166D-18 -0.31117124D-17  0.61762906D-03 -0.73357347D-18 -0.31729526D-17
 -0.92644360D-03  0.33088684D-17  0.12508090D-16 -0.92644360D-03 -0.18067606D-16
  0.75994673D-04  0.14167135D-03  0.23944954D-03  0.35997109D-03  0.44226607D-03
  0.37356440D-03  0.14089475D-03 -0.69729596D-06 -0.68893261D-03 -0.12898992D-02
 -0.21961638D-02 -0.33971314D-02 -0.44739026D-02 -0.46486713D-02 -0.29540220D-02
  0.19797168D-02 -0.59004173D-03  0.24029080D-01  0.88151265D-03  0.24798498D-15
  0.23250168D-15  0.16555504D-15  0.36447215D-16  0.34171581D-16  0.24332201D-16
 -0.48862118D+00 -0.45811341D+00 -0.32620404D+00  0.14350079D-16 -0.30627797D-16
 -0.95855218D-01 -0.26406507D-16  0.15156088D-16 -0.15170552D-01  0.18948826D-18
  0.51490105D-18 -0.86605021D-04  0.42913169D-02  0.42913169D-02 -0.85826338D-02
  0.20555755D-16  0.64476387D-16  0.11514944D-16 -0.14742981D-02 -0.14742981D-02
  0.29485961D-02 -0.29075919D-16 -0.23086412D-16 -0.27988270D-16  0.23321941D-04
  0.23321941D-04 -0.46643882D-04  0.26300579D-17 -0.59463415D-18  0.22671395D-17
 -0.18708916D-18  0.13626015D-16 -0.33812353D-02  0.13705889D-18  0.13549630D-16
  0.50718530D-02  0.42420860D-18 -0.54427674D-16  0.50718530D-02  0.39916293D-16
  0.49273377D-17  0.74706631D-18 -0.61762906D-03  0.46999342D-17  0.80926404D-18
  0.92644360D-03 -0.19481947D-16 -0.30504630D-17  0.92644360D-03 -0.28184860D-16
  0.33403700D-01  0.60244949D-01  0.88831142D-01  0.53344171D-01 -0.51122063D-02
 -0.12037304D-03  0.18013006D-17  0.88494449D-17 -0.25206281D-01  0.63019230D-17
 -0.44433693D-16 -0.85473558D-02 -0.16473843D-16  0.28355053D-17  0.16161749D-02
 -0.42867376D-02 -0.42867376D-02  0.85734752D-02  0.90629667D-17 -0.14382071D-16
  0.65872078D-16 -0.42485906D-03 -0.42485906D-03  0.84971812D-03  0.72068300D-18
  0.42665640D-17  0.85341435D-17  0.33403700D-01  0.60244949D-01  0.88831142D-01
  0.53344171D-01 -0.51122063D-02 -0.12037304D-03  0.14302602D-16  0.90862890D-17
  0.25206281D-01  0.51678005D-16  0.53180144D-18  0.85473558D-02  0.91879981D-17
 -0.74350379D-17 -0.16161749D-02 -0.42867376D-02 -0.42867376D-02  0.85734752D-02
  0.10928007D-16  0.46880491D-16  0.21518888D-16 -0.42485906D-03 -0.42485906D-03
  0.84971812D-03 -0.12291788D-16  0.42582497D-17 -0.89081857D-17
MO    6     MO 0.0        OCC NO =    2.0000000  ORB. ENERGY =   -0.354566
  0.17464734D-15  0.32558235D-15  0.55029152D-15  0.82726841D-15  0.10163948D-14
  0.85850791D-15  0.32379760D-15 -0.16024924D-17 -0.17808433D-15 -0.33343005D-15
 -0.56769318D-15 -0.87813503D-15 -0.11564729D-14 -0.12016495D-14 -0.76359429D-15
  0.51174314D-15  0.32675497D-16  0.91981114D-15 -0.43705032D-15  0.27218586D+00
  0.25519154D+00  0.18171158D+00  0.41178786D+00  0.38607729D+00  0.27491003D+00
  0.22897947D-15  0.21468281D-15  0.15286695D-15  0.70429730D-01  0.10655259D+00
  0.49901585D-16  0.10187222D-01  0.15412169D-01 -0.11312660D-14  0.14158304D-03
  0.21419987D-03  0.29530302D-16  0.88174781D-16 -0.15203296D-15  0.63858182D-16
  0.16010132D-15 -0.26257124D-01 -0.39724198D-01 -0.73344799D-16 -0.30515752D-17
  0.76396375D-16 -0.12527138D-16 -0.40067090D-02 -0.60617187D-02  0.65552022D-17
 -0.34447884D-17 -0.31104138D-17 -0.14710199D-16  0.36704919D-03  0.55530586D-03
 -0.23947410D-02 -0.36229849D-02 -0.15876413D-15 -0.23947419D-02 -0.36229863D-02
  0.30971334D-15  0.95789648D-02  0.14491941D-01  0.16657906D-15 -0.18627284D-15
  0.13935382D-03  0.21082731D-03 -0.12141702D-17  0.13935388D-03  0.21082739D-03
 -0.73561565D-18 -0.55741535D-03 -0.84330933D-03  0.43781262D-17  0.94120220D-16
 -0.32334343D-15 -0.60278567D-15 -0.10188140D-14 -0.15316111D-14 -0.18817612D-14
 -0.15894482D-14 -0.59948137D-15  0.29668668D-17  0.21576856D-15  0.40398682D-15
  0.68782213D-15  0.10639563D-14  0.14011930D-14  0.14559292D-14  0.92517767D-15
 -0.62003256D-15 -0.75170165D-16 -0.29939904D-14  0.16318646D-15  0.27218586D+00
  0.25519154D+00  0.18171158D+00  0.41178786D+00  0.38607729D+00  0.27491003D+00
 -0.10706013D-15 -0.10037568D-15 -0.71473462D-16  0.70429730D-01  0.10655259D+00
  0.61461013D-15  0.10187222D-01  0.15412169D-01 -0.16415775D-15  0.14158304D-03
  0.21419987D-03  0.18329290D-16  0.37446493D-15  0.15122359D-15 -0.52568852D-15
 -0.69003132D-16  0.26257124D-01  0.39724198D-01  0.96545046D-16  0.79146181D-16
 -0.17569123D-15  0.71551141D-17  0.40067090D-02  0.60617187D-02 -0.26424438D-17
 -0.12142747D-16  0.14785191D-16 -0.10845607D-16 -0.36704919D-03 -0.55530586D-03
 -0.23947410D-02 -0.36229849D-02 -0.72718171D-16 -0.23947419D-02 -0.36229863D-02
  0.20979985D-15  0.95789648D-02  0.14491941D-01  0.83546591D-17  0.66729541D-16
  0.13935382D-03  0.21082731D-03  0.53337963D-16  0.13935388D-03  0.21082739D-03
 -0.76711818D-16 -0.55741535D-03 -0.84330933D-03 -0.83302070D-16  0.31879958D-16
  0.20847253D-16  0.37598879D-16  0.55439525D-16  0.47845082D-16  0.93095618D-15
  0.11775190D-16  0.49065421D-02  0.74230692D-02 -0.25549949D-15  0.47050242D-02
  0.71181944D-02  0.22521846D-15 -0.38971913D-03 -0.58960303D-03 -0.47439017D-16
 -0.14395964D-15 -0.63691644D-16  0.20765128D-15 -0.14839011D-15 -0.21484780D-02
 -0.32504155D-02  0.54622788D-16  0.74896199D-16 -0.12951899D-15 -0.28922171D-16
 -0.15107737D-03 -0.22856377D-03 -0.12052948D-15 -0.21737989D-15 -0.32052652D-15
  0.11341562D-14  0.73626803D-15  0.71106054D-16  0.49065421D-02  0.74230692D-02
 -0.45305901D-16  0.47050242D-02  0.71181944D-02  0.69569275D-15 -0.38971913D-03
 -0.58960303D-03  0.30264689D-15 -0.11567653D-15 -0.32182519D-15  0.43750172D-15
 -0.14004835D-15  0.21484780D-02  0.32504155D-02 -0.53035254D-16 -0.43638928D-16
  0.96674183D-16  0.21895394D-16  0.15107737D-03  0.22856377D-03
MO    7     MO 0.0        OCC NO =    2.0000000  ORB. ENERGY =   -0.354566
 -0.12646947D-15 -0.23576785D-15 -0.39848919D-15 -0.59905979D-15 -0.73601417D-15
 -0.62168162D-15 -0.23447544D-15  0.11604320D-17  0.84544281D-16  0.15829357D-15
  0.26950834D-15  0.41688843D-15  0.54902740D-15  0.57047463D-15  0.36251102D-15
 -0.24294646D-15  0.16204888D-15  0.14220616D-14  0.35717633D-15  0.41178786D+00
  0.38607729D+00  0.27491003D+00 -0.27218586D+00 -0.25519154D+00 -0.18171158D+00
 -0.30252865D-15 -0.28363984D-15 -0.20196846D-15  0.10655259D+00 -0.70429730D-01
 -0.36322171D-15  0.15412169D-01 -0.10187222D-01  0.22644824D-15  0.21419987D-03
 -0.14158304D-03 -0.10516040D-16  0.11982950D-15  0.44977914D-17 -0.12432729D-15
 -0.53494521D-15 -0.39724198D-01  0.26257124D-01  0.98530135D-16  0.96133219D-16
 -0.19466335D-15 -0.92877800D-17 -0.60617187D-02  0.40067090D-02 -0.14608074D-16
  0.15368210D-16 -0.76013667D-18  0.45192556D-16  0.55530586D-03 -0.36704919D-03
 -0.36229849D-02  0.23947410D-02 -0.90615790D-16 -0.36229863D-02  0.23947419D-02
  0.22047121D-15  0.14491941D-01 -0.95789648D-02  0.51376164D-16 -0.19317977D-15
  0.21082731D-03 -0.13935382D-03  0.37579645D-16  0.21082739D-03 -0.13935388D-03
 -0.17671545D-16 -0.84330933D-03  0.55741535D-03 -0.95067389D-16 -0.11013690D-15
  0.19337385D-15  0.36049283D-15  0.60929639D-15  0.91597205D-15  0.11253775D-14
  0.95056120D-15  0.35851671D-15 -0.17743192D-17 -0.12032610D-15 -0.22528843D-15
 -0.38357282D-15 -0.59332883D-15 -0.78139319D-15 -0.81191758D-15 -0.51593717D-15
  0.34576910D-15 -0.34971295D-16 -0.14614955D-14 -0.42505131D-15  0.41178786D+00
  0.38607729D+00  0.27491003D+00 -0.27218586D+00 -0.25519154D+00 -0.18171158D+00
  0.63373020D-15  0.59416234D-15  0.42307898D-15  0.10655259D+00 -0.70429730D-01
  0.79885964D-15  0.15412169D-01 -0.10187222D-01 -0.22884159D-15  0.21419987D-03
 -0.14158304D-03  0.12019789D-16  0.20221296D-15  0.35142980D-16 -0.23735594D-15
 -0.17751808D-15  0.39724198D-01 -0.26257124D-01  0.95977362D-16  0.15009782D-15
 -0.24607518D-15 -0.11821243D-15  0.60617187D-02 -0.40067090D-02  0.44410922D-16
  0.25184894D-16 -0.69595816D-16  0.45368853D-17 -0.55530586D-03  0.36704919D-03
 -0.36229849D-02  0.23947410D-02  0.26550335D-15 -0.36229863D-02  0.23947419D-02
 -0.56233208D-15  0.14491941D-01 -0.95789648D-02 -0.23417798D-15  0.41619044D-15
  0.21082731D-03 -0.13935382D-03 -0.23233151D-16  0.21082739D-03 -0.13935388D-03
  0.10066669D-15 -0.84330933D-03  0.55741535D-03 -0.30967236D-16 -0.50946445D-16
 -0.51297562D-16 -0.92517265D-16 -0.13641665D-15  0.22433598D-15 -0.61047015D-15
 -0.64632112D-16  0.74230692D-02 -0.49065421D-02 -0.21791421D-15  0.71181944D-02
 -0.47050242D-02 -0.34536864D-15 -0.58960303D-03  0.38971913D-03  0.14787954D-15
 -0.15302049D-15  0.99378953D-16  0.53641535D-16  0.33821821D-15 -0.32504155D-02
  0.21484780D-02  0.12260124D-17 -0.91256851D-17  0.78996726D-17 -0.16165231D-16
 -0.22856377D-03  0.15107737D-03 -0.75977246D-16 -0.13702809D-15 -0.20204784D-15
  0.72214277D-15  0.73758067D-15  0.62731245D-16  0.74230692D-02 -0.49065421D-02
 -0.41578616D-15  0.71181944D-02 -0.47050242D-02  0.64640209D-15 -0.58960303D-03
  0.38971913D-03  0.96775134D-16 -0.17846369D-15  0.17139579D-16  0.16132411D-15
  0.51575789D-15  0.32504155D-02 -0.21484780D-02  0.27406743D-16 -0.85411252D-16
  0.58004510D-16 -0.16497130D-17  0.22856377D-03 -0.15107737D-03
END DATA
RHF
