 Molden2AIM, Version 4.0.0 (06/02/2016)           Time: Tue Jul  3 03:35:23 2018
GAUSSIAN             21 MOL ORBITALS    456 PRIMITIVES        8 NUCLEI
  C    1    (CENTRE  1)   0.00000000 -0.00054991 -0.03831231  CHARGE =  6.0
  C    2    (CENTRE  2)   0.00000000 -0.00042141  2.79237837  CHARGE =  6.0
  H    3    (CENTRE  3)   1.69379743  0.97824129  3.46718446  CHARGE =  1.0
  H    4    (CENTRE  4)  -1.69379743  0.97824129  3.46718446  CHARGE =  1.0
  H    5    (CENTRE  5)   0.00000000 -1.95576260  3.46959386  CHARGE =  1.0
  F    6    (CENTRE  6)   0.00000000  2.36770778 -0.99042436  CHARGE =  9.0
  F    7    (CENTRE  7)  -2.05038875 -1.18370744 -0.99285077  CHARGE =  9.0
  F    8    (CENTRE  8)   2.05038875 -1.18370744 -0.99285077  CHARGE =  9.0
CENTRE ASSIGNMENTS    1  1  1  1  1  1  1  1  1  1  1  1  1  1  1  1  1  1  1  1
CENTRE ASSIGNMENTS    1  1  1  1  1  1  1  1  1  1  1  1  1  1  1  1  1  1  1  1
CENTRE ASSIGNMENTS    1  1  1  1  1  1  1  1  1  1  1  1  1  1  1  1  1  1  1  1
CENTRE ASSIGNMENTS    1  1  1  1  1  1  1  1  1  1  1  1  1  1  1  2  2  2  2  2
CENTRE ASSIGNMENTS    2  2  2  2  2  2  2  2  2  2  2  2  2  2  2  2  2  2  2  2
CENTRE ASSIGNMENTS    2  2  2  2  2  2  2  2  2  2  2  2  2  2  2  2  2  2  2  2
CENTRE ASSIGNMENTS    2  2  2  2  2  2  2  2  2  2  2  2  2  2  2  2  2  2  2  2
CENTRE ASSIGNMENTS    2  2  2  2  2  2  2  2  2  2  3  3  3  3  3  3  3  3  3  3
CENTRE ASSIGNMENTS    3  3  3  3  3  3  3  3  3  3  3  3  3  3  3  3  3  4  4  4
CENTRE ASSIGNMENTS    4  4  4  4  4  4  4  4  4  4  4  4  4  4  4  4  4  4  4  4
CENTRE ASSIGNMENTS    4  4  4  4  5  5  5  5  5  5  5  5  5  5  5  5  5  5  5  5
CENTRE ASSIGNMENTS    5  5  5  5  5  5  5  5  5  5  5  6  6  6  6  6  6  6  6  6
CENTRE ASSIGNMENTS    6  6  6  6  6  6  6  6  6  6  6  6  6  6  6  6  6  6  6  6
CENTRE ASSIGNMENTS    6  6  6  6  6  6  6  6  6  6  6  6  6  6  6  6  6  6  6  6
CENTRE ASSIGNMENTS    6  6  6  6  6  6  6  6  6  6  6  6  6  6  6  6  6  6  6  6
CENTRE ASSIGNMENTS    6  6  6  6  6  6  7  7  7  7  7  7  7  7  7  7  7  7  7  7
CENTRE ASSIGNMENTS    7  7  7  7  7  7  7  7  7  7  7  7  7  7  7  7  7  7  7  7
CENTRE ASSIGNMENTS    7  7  7  7  7  7  7  7  7  7  7  7  7  7  7  7  7  7  7  7
CENTRE ASSIGNMENTS    7  7  7  7  7  7  7  7  7  7  7  7  7  7  7  7  7  7  7  7
CENTRE ASSIGNMENTS    7  8  8  8  8  8  8  8  8  8  8  8  8  8  8  8  8  8  8  8
CENTRE ASSIGNMENTS    8  8  8  8  8  8  8  8  8  8  8  8  8  8  8  8  8  8  8  8
CENTRE ASSIGNMENTS    8  8  8  8  8  8  8  8  8  8  8  8  8  8  8  8  8  8  8  8
CENTRE ASSIGNMENTS    8  8  8  8  8  8  8  8  8  8  8  8  8  8  8  8
TYPE ASSIGNMENTS      1  1  1  1  1  1  1  1  1  1  1  1  1  1  1  1  1  1  1  2
TYPE ASSIGNMENTS      2  2  3  3  3  4  4  4  2  3  4  2  3  4  2  3  4  5  6  7
TYPE ASSIGNMENTS      8  9 10  5  6  7  8  9 10  5  6  7  8  9 10 11 12 13 17 14
TYPE ASSIGNMENTS     15 18 19 16 20 11 12 13 17 14 15 18 19 16 20  1  1  1  1  1
TYPE ASSIGNMENTS      1  1  1  1  1  1  1  1  1  1  1  1  1  1  2  2  2  3  3  3
TYPE ASSIGNMENTS      4  4  4  2  3  4  2  3  4  2  3  4  5  6  7  8  9 10  5  6
TYPE ASSIGNMENTS      7  8  9 10  5  6  7  8  9 10 11 12 13 17 14 15 18 19 16 20
TYPE ASSIGNMENTS     11 12 13 17 14 15 18 19 16 20  1  1  1  1  1  1  2  3  4  2
TYPE ASSIGNMENTS      3  4  2  3  4  5  6  7  8  9 10  5  6  7  8  9 10  1  1  1
TYPE ASSIGNMENTS      1  1  1  2  3  4  2  3  4  2  3  4  5  6  7  8  9 10  5  6
TYPE ASSIGNMENTS      7  8  9 10  1  1  1  1  1  1  2  3  4  2  3  4  2  3  4  5
TYPE ASSIGNMENTS      6  7  8  9 10  5  6  7  8  9 10  1  1  1  1  1  1  1  1  1
TYPE ASSIGNMENTS      1  1  1  1  1  1  1  1  1  1  2  2  2  3  3  3  4  4  4  2
TYPE ASSIGNMENTS      3  4  2  3  4  2  3  4  5  6  7  8  9 10  5  6  7  8  9 10
TYPE ASSIGNMENTS      5  6  7  8  9 10 11 12 13 17 14 15 18 19 16 20 11 12 13 17
TYPE ASSIGNMENTS     14 15 18 19 16 20  1  1  1  1  1  1  1  1  1  1  1  1  1  1
TYPE ASSIGNMENTS      1  1  1  1  1  2  2  2  3  3  3  4  4  4  2  3  4  2  3  4
TYPE ASSIGNMENTS      2  3  4  5  6  7  8  9 10  5  6  7  8  9 10  5  6  7  8  9
TYPE ASSIGNMENTS     10 11 12 13 17 14 15 18 19 16 20 11 12 13 17 14 15 18 19 16
TYPE ASSIGNMENTS     20  1  1  1  1  1  1  1  1  1  1  1  1  1  1  1  1  1  1  1
TYPE ASSIGNMENTS      2  2  2  3  3  3  4  4  4  2  3  4  2  3  4  2  3  4  5  6
TYPE ASSIGNMENTS      7  8  9 10  5  6  7  8  9 10  5  6  7  8  9 10 11 12 13 17
TYPE ASSIGNMENTS     14 15 18 19 16 20 11 12 13 17 14 15 18 19 16 20
EXPONENTS  0.8236000D+04 0.1235000D+04 0.2808000D+03 0.7927000D+02 0.2559000D+02
EXPONENTS  0.8997000D+01 0.3319000D+01 0.3643000D+00 0.8236000D+04 0.1235000D+04
EXPONENTS  0.2808000D+03 0.7927000D+02 0.2559000D+02 0.8997000D+01 0.3319000D+01
EXPONENTS  0.3643000D+00 0.9059000D+00 0.1285000D+00 0.4402000D-01 0.1871000D+02
EXPONENTS  0.4133000D+01 0.1200000D+01 0.1871000D+02 0.4133000D+01 0.1200000D+01
EXPONENTS  0.1871000D+02 0.4133000D+01 0.1200000D+01 0.3827000D+00 0.3827000D+00
EXPONENTS  0.3827000D+00 0.1209000D+00 0.1209000D+00 0.1209000D+00 0.3569000D-01
EXPONENTS  0.3569000D-01 0.3569000D-01 0.1097000D+01 0.1097000D+01 0.1097000D+01
EXPONENTS  0.1097000D+01 0.1097000D+01 0.1097000D+01 0.3180000D+00 0.3180000D+00
EXPONENTS  0.3180000D+00 0.3180000D+00 0.3180000D+00 0.3180000D+00 0.1000000D+00
EXPONENTS  0.1000000D+00 0.1000000D+00 0.1000000D+00 0.1000000D+00 0.1000000D+00
EXPONENTS  0.7610000D+00 0.7610000D+00 0.7610000D+00 0.7610000D+00 0.7610000D+00
EXPONENTS  0.7610000D+00 0.7610000D+00 0.7610000D+00 0.7610000D+00 0.7610000D+00
EXPONENTS  0.2680000D+00 0.2680000D+00 0.2680000D+00 0.2680000D+00 0.2680000D+00
EXPONENTS  0.2680000D+00 0.2680000D+00 0.2680000D+00 0.2680000D+00 0.2680000D+00
EXPONENTS  0.8236000D+04 0.1235000D+04 0.2808000D+03 0.7927000D+02 0.2559000D+02
EXPONENTS  0.8997000D+01 0.3319000D+01 0.3643000D+00 0.8236000D+04 0.1235000D+04
EXPONENTS  0.2808000D+03 0.7927000D+02 0.2559000D+02 0.8997000D+01 0.3319000D+01
EXPONENTS  0.3643000D+00 0.9059000D+00 0.1285000D+00 0.4402000D-01 0.1871000D+02
EXPONENTS  0.4133000D+01 0.1200000D+01 0.1871000D+02 0.4133000D+01 0.1200000D+01
EXPONENTS  0.1871000D+02 0.4133000D+01 0.1200000D+01 0.3827000D+00 0.3827000D+00
EXPONENTS  0.3827000D+00 0.1209000D+00 0.1209000D+00 0.1209000D+00 0.3569000D-01
EXPONENTS  0.3569000D-01 0.3569000D-01 0.1097000D+01 0.1097000D+01 0.1097000D+01
EXPONENTS  0.1097000D+01 0.1097000D+01 0.1097000D+01 0.3180000D+00 0.3180000D+00
EXPONENTS  0.3180000D+00 0.3180000D+00 0.3180000D+00 0.3180000D+00 0.1000000D+00
EXPONENTS  0.1000000D+00 0.1000000D+00 0.1000000D+00 0.1000000D+00 0.1000000D+00
EXPONENTS  0.7610000D+00 0.7610000D+00 0.7610000D+00 0.7610000D+00 0.7610000D+00
EXPONENTS  0.7610000D+00 0.7610000D+00 0.7610000D+00 0.7610000D+00 0.7610000D+00
EXPONENTS  0.2680000D+00 0.2680000D+00 0.2680000D+00 0.2680000D+00 0.2680000D+00
EXPONENTS  0.2680000D+00 0.2680000D+00 0.2680000D+00 0.2680000D+00 0.2680000D+00
EXPONENTS  0.3387000D+02 0.5095000D+01 0.1159000D+01 0.3258000D+00 0.1027000D+00
EXPONENTS  0.2526000D-01 0.1407000D+01 0.1407000D+01 0.1407000D+01 0.3880000D+00
EXPONENTS  0.3880000D+00 0.3880000D+00 0.1020000D+00 0.1020000D+00 0.1020000D+00
EXPONENTS  0.1057000D+01 0.1057000D+01 0.1057000D+01 0.1057000D+01 0.1057000D+01
EXPONENTS  0.1057000D+01 0.2470000D+00 0.2470000D+00 0.2470000D+00 0.2470000D+00
EXPONENTS  0.2470000D+00 0.2470000D+00 0.3387000D+02 0.5095000D+01 0.1159000D+01
EXPONENTS  0.3258000D+00 0.1027000D+00 0.2526000D-01 0.1407000D+01 0.1407000D+01
EXPONENTS  0.1407000D+01 0.3880000D+00 0.3880000D+00 0.3880000D+00 0.1020000D+00
EXPONENTS  0.1020000D+00 0.1020000D+00 0.1057000D+01 0.1057000D+01 0.1057000D+01
EXPONENTS  0.1057000D+01 0.1057000D+01 0.1057000D+01 0.2470000D+00 0.2470000D+00
EXPONENTS  0.2470000D+00 0.2470000D+00 0.2470000D+00 0.2470000D+00 0.3387000D+02
EXPONENTS  0.5095000D+01 0.1159000D+01 0.3258000D+00 0.1027000D+00 0.2526000D-01
EXPONENTS  0.1407000D+01 0.1407000D+01 0.1407000D+01 0.3880000D+00 0.3880000D+00
EXPONENTS  0.3880000D+00 0.1020000D+00 0.1020000D+00 0.1020000D+00 0.1057000D+01
EXPONENTS  0.1057000D+01 0.1057000D+01 0.1057000D+01 0.1057000D+01 0.1057000D+01
EXPONENTS  0.2470000D+00 0.2470000D+00 0.2470000D+00 0.2470000D+00 0.2470000D+00
EXPONENTS  0.2470000D+00 0.1950000D+05 0.2923000D+04 0.6645000D+03 0.1875000D+03
EXPONENTS  0.6062000D+02 0.2142000D+02 0.7950000D+01 0.8815000D+00 0.1950000D+05
EXPONENTS  0.2923000D+04 0.6645000D+03 0.1875000D+03 0.6062000D+02 0.2142000D+02
EXPONENTS  0.7950000D+01 0.8815000D+00 0.2257000D+01 0.3041000D+00 0.9158000D-01
EXPONENTS  0.4388000D+02 0.9926000D+01 0.2930000D+01 0.4388000D+02 0.9926000D+01
EXPONENTS  0.2930000D+01 0.4388000D+02 0.9926000D+01 0.2930000D+01 0.9132000D+00
EXPONENTS  0.9132000D+00 0.9132000D+00 0.2672000D+00 0.2672000D+00 0.2672000D+00
EXPONENTS  0.7361000D-01 0.7361000D-01 0.7361000D-01 0.3107000D+01 0.3107000D+01
EXPONENTS  0.3107000D+01 0.3107000D+01 0.3107000D+01 0.3107000D+01 0.8550000D+00
EXPONENTS  0.8550000D+00 0.8550000D+00 0.8550000D+00 0.8550000D+00 0.8550000D+00
EXPONENTS  0.2920000D+00 0.2920000D+00 0.2920000D+00 0.2920000D+00 0.2920000D+00
EXPONENTS  0.2920000D+00 0.1917000D+01 0.1917000D+01 0.1917000D+01 0.1917000D+01
EXPONENTS  0.1917000D+01 0.1917000D+01 0.1917000D+01 0.1917000D+01 0.1917000D+01
EXPONENTS  0.1917000D+01 0.7240000D+00 0.7240000D+00 0.7240000D+00 0.7240000D+00
EXPONENTS  0.7240000D+00 0.7240000D+00 0.7240000D+00 0.7240000D+00 0.7240000D+00
EXPONENTS  0.7240000D+00 0.1950000D+05 0.2923000D+04 0.6645000D+03 0.1875000D+03
EXPONENTS  0.6062000D+02 0.2142000D+02 0.7950000D+01 0.8815000D+00 0.1950000D+05
EXPONENTS  0.2923000D+04 0.6645000D+03 0.1875000D+03 0.6062000D+02 0.2142000D+02
EXPONENTS  0.7950000D+01 0.8815000D+00 0.2257000D+01 0.3041000D+00 0.9158000D-01
EXPONENTS  0.4388000D+02 0.9926000D+01 0.2930000D+01 0.4388000D+02 0.9926000D+01
EXPONENTS  0.2930000D+01 0.4388000D+02 0.9926000D+01 0.2930000D+01 0.9132000D+00
EXPONENTS  0.9132000D+00 0.9132000D+00 0.2672000D+00 0.2672000D+00 0.2672000D+00
EXPONENTS  0.7361000D-01 0.7361000D-01 0.7361000D-01 0.3107000D+01 0.3107000D+01
EXPONENTS  0.3107000D+01 0.3107000D+01 0.3107000D+01 0.3107000D+01 0.8550000D+00
EXPONENTS  0.8550000D+00 0.8550000D+00 0.8550000D+00 0.8550000D+00 0.8550000D+00
EXPONENTS  0.2920000D+00 0.2920000D+00 0.2920000D+00 0.2920000D+00 0.2920000D+00
EXPONENTS  0.2920000D+00 0.1917000D+01 0.1917000D+01 0.1917000D+01 0.1917000D+01
EXPONENTS  0.1917000D+01 0.1917000D+01 0.1917000D+01 0.1917000D+01 0.1917000D+01
EXPONENTS  0.1917000D+01 0.7240000D+00 0.7240000D+00 0.7240000D+00 0.7240000D+00
EXPONENTS  0.7240000D+00 0.7240000D+00 0.7240000D+00 0.7240000D+00 0.7240000D+00
EXPONENTS  0.7240000D+00 0.1950000D+05 0.2923000D+04 0.6645000D+03 0.1875000D+03
EXPONENTS  0.6062000D+02 0.2142000D+02 0.7950000D+01 0.8815000D+00 0.1950000D+05
EXPONENTS  0.2923000D+04 0.6645000D+03 0.1875000D+03 0.6062000D+02 0.2142000D+02
EXPONENTS  0.7950000D+01 0.8815000D+00 0.2257000D+01 0.3041000D+00 0.9158000D-01
EXPONENTS  0.4388000D+02 0.9926000D+01 0.2930000D+01 0.4388000D+02 0.9926000D+01
EXPONENTS  0.2930000D+01 0.4388000D+02 0.9926000D+01 0.2930000D+01 0.9132000D+00
EXPONENTS  0.9132000D+00 0.9132000D+00 0.2672000D+00 0.2672000D+00 0.2672000D+00
EXPONENTS  0.7361000D-01 0.7361000D-01 0.7361000D-01 0.3107000D+01 0.3107000D+01
EXPONENTS  0.3107000D+01 0.3107000D+01 0.3107000D+01 0.3107000D+01 0.8550000D+00
EXPONENTS  0.8550000D+00 0.8550000D+00 0.8550000D+00 0.8550000D+00 0.8550000D+00
EXPONENTS  0.2920000D+00 0.2920000D+00 0.2920000D+00 0.2920000D+00 0.2920000D+00
EXPONENTS  0.2920000D+00 0.1917000D+01 0.1917000D+01 0.1917000D+01 0.1917000D+01
EXPONENTS  0.1917000D+01 0.1917000D+01 0.1917000D+01 0.1917000D+01 0.1917000D+01
EXPONENTS  0.1917000D+01 0.7240000D+00 0.7240000D+00 0.7240000D+00 0.7240000D+00
EXPONENTS  0.7240000D+00 0.7240000D+00 0.7240000D+00 0.7240000D+00 0.7240000D+00
EXPONENTS  0.7240000D+00
MO    1     MO 0.0        OCC NO =    2.0000000  ORB. ENERGY =  -25.321323
  0.14536095D-11  0.27098587D-11  0.45801386D-11  0.68854486D-11  0.84595691D-11
  0.71454585D-11  0.26950040D-11 -0.13337725D-13 -0.10320301D-11 -0.19322860D-11
 -0.32898822D-11 -0.50889476D-11 -0.67019649D-11 -0.69637708D-11 -0.44251638D-11
  0.29656418D-11 -0.27101532D-11  0.31562666D-11  0.20466216D-11 -0.53335180D-03
 -0.50005121D-03 -0.35606625D-03  0.29573405D-11  0.27726947D-11  0.19743238D-11
  0.17052698D-11  0.15987989D-11  0.11384400D-11  0.13483192D-02 -0.74959939D-11
 -0.46843313D-11 -0.18586454D-03  0.11453874D-11  0.85585935D-12  0.10948985D-05
 -0.88187873D-14  0.99681260D-13  0.36849492D-11 -0.20667252D-11 -0.16182241D-11
 -0.10254540D-02 -0.79048937D-03  0.44432867D-11  0.33867888D-11 -0.15698898D-11
 -0.18168990D-11 -0.88988032D-03 -0.81301616D-03  0.44769097D-11 -0.14045331D-12
  0.94463263D-13  0.45990051D-13  0.38682003D-04 -0.13117439D-04  0.60053082D-13
  0.53998648D-04  0.13019232D-11  0.13678390D-11  0.53140806D-04 -0.51094980D-11
 -0.54849681D-11 -0.21513675D-03  0.12037283D-11  0.13814510D-11  0.12318796D-02
  0.27286481D-04  0.22668805D-13 -0.96271746D-13  0.26909071D-04 -0.67928095D-12
 -0.49146379D-12 -0.10876851D-03  0.61127454D-12  0.78027903D-12  0.22579601D-03
  0.22924319D-13  0.42736143D-13  0.72231610D-13  0.10858777D-12  0.13341262D-12
  0.11268829D-12  0.42501875D-13 -0.21034415D-15 -0.97487980D-14 -0.18252826D-13
 -0.31076998D-13 -0.48071390D-13 -0.63308330D-13 -0.65781410D-13 -0.41801133D-13
  0.28014147D-13 -0.13952315D-13 -0.28744013D-11 -0.10552027D-11 -0.18989537D-04
 -0.17803898D-04 -0.12677436D-04  0.10767013D-12  0.10094759D-12  0.71880700D-13
  0.49233078D-12  0.46159140D-12  0.32868058D-12 -0.10536168D-03  0.58085841D-12
 -0.20960462D-11  0.96761737D-04 -0.61326151D-12  0.61857064D-12  0.16214725D-05
 -0.82649676D-14  0.95813454D-13  0.19156477D-12 -0.13665379D-12 -0.54910988D-13
 -0.57435740D-04  0.52616546D-05 -0.21395012D-13 -0.68697627D-13 -0.11551812D-11
  0.12238788D-11 -0.19808942D-03 -0.42258148D-03  0.23329401D-11  0.51796013D-13
 -0.38483674D-13 -0.13312339D-13 -0.17118496D-04 -0.39465423D-04  0.21749877D-12
 -0.32551741D-04  0.27621696D-12  0.63438536D-13 -0.32412982D-04 -0.10845314D-12
 -0.21113189D-12  0.13006820D-03 -0.72019773D-12  0.20816286D-13  0.40182082D-04
 -0.15422233D-04  0.13706996D-12 -0.19558931D-12 -0.15154147D-04 -0.69074260D-13
  0.50425663D-12  0.61420846D-04 -0.34213563D-12  0.82511299D-13 -0.78375923D-04
 -0.15742656D-05 -0.28392529D-05 -0.41864768D-05  0.34492867D-03  0.32482096D-04
 -0.54784965D-05 -0.11196151D-04 -0.66545127D-06  0.46974637D-04 -0.16547051D-03
 -0.85273989D-04 -0.59499618D-04 -0.70755819D-06 -0.31316172D-05  0.21306205D-04
  0.16133170D-04  0.58055625D-06 -0.16713726D-04  0.43346306D-04  0.63772589D-04
  0.36244062D-04  0.47625720D-05 -0.49959752D-05  0.23340316D-06  0.12129088D-04
 -0.76906646D-05  0.18771242D-04  0.15742656D-05  0.28392528D-05  0.41864766D-05
 -0.34492867D-03 -0.32482096D-04  0.54784965D-05 -0.11196151D-04  0.66545128D-06
 -0.46974637D-04 -0.16547051D-03  0.85273989D-04  0.59499617D-04 -0.70755808D-06
  0.31316171D-05 -0.21306205D-04 -0.16133170D-04 -0.58055635D-06  0.16713727D-04
  0.43346306D-04  0.63772588D-04 -0.36244061D-04 -0.47625720D-05  0.49959751D-05
 -0.23340306D-06  0.12129088D-04 -0.76906646D-05 -0.18771241D-04 -0.44502116D-13
 -0.80261399D-13 -0.11834539D-12  0.31775201D-11  0.24415679D-12 -0.77378334D-13
 -0.98043633D-05  0.15437794D-12  0.64025116D-12 -0.19070899D-04  0.16742079D-11
 -0.14200968D-11  0.46750269D-05  0.77661406D-13  0.78550677D-13 -0.21636176D-12
  0.18540423D-12  0.30957530D-13  0.15796350D-04  0.16978083D-05 -0.10594709D-11
 -0.12211444D-12  0.67923547D-13  0.54190896D-13 -0.48212909D-05 -0.40087320D-04
 -0.13814235D-12 -0.90742525D-09 -0.16914800D-08 -0.28674744D-08 -0.43422014D-08
 -0.54299380D-08 -0.46746709D-08 -0.17971141D-08  0.77871897D-11 -0.11859476D-11
 -0.22269995D-11 -0.37921962D-11 -0.59404528D-11 -0.79609057D-11 -0.85630274D-11
 -0.51412304D-11  0.33810894D-11 -0.95614440D-10  0.99811443D-12 -0.18956273D-12
 -0.89537180D-04 -0.87565406D-04 -0.57858166D-04  0.12842635D-10  0.12559817D-10
  0.82988021D-11 -0.49946841D-11 -0.48846919D-11 -0.32275225D-11  0.48695711D-04
 -0.33836890D-11  0.12783667D-11  0.19733400D-03 -0.23811637D-11 -0.16996196D-12
 -0.27076019D-05 -0.81222397D-13 -0.13969506D-14  0.14224514D-11 -0.23959055D-11
  0.97345405D-12 -0.65450021D-04 -0.17814642D-03  0.20272970D-11 -0.66859057D-12
  0.13109035D-11 -0.64231289D-12 -0.56396437D-04  0.86055514D-04 -0.78315288D-12
 -0.19160353D-12  0.62354702D-12 -0.43194350D-12 -0.12270509D-03  0.11487523D-04
 -0.43242234D-12 -0.62330855D-04  0.37756840D-12  0.11025931D-11  0.42115387D-03
 -0.26803816D-11 -0.57522215D-12 -0.23416131D-03  0.15476764D-11 -0.27325573D-11
  0.14099107D-03 -0.22217392D-05 -0.40711541D-12 -0.48124178D-12 -0.50873573D-04
  0.12059549D-11  0.22634038D-12  0.57538791D-04  0.15391370D-13  0.12173850D-11
 -0.10168838D-03 -0.42018120D+00 -0.78323596D+00 -0.13277775D+01 -0.20106465D+01
 -0.25143205D+01 -0.21645957D+01 -0.83214961D+00  0.36058405D-02 -0.47985302D-03
 -0.90107898D-03 -0.15343821D-02 -0.24036005D-02 -0.32211074D-02 -0.34647353D-02
 -0.20802225D-02  0.13680419D-02 -0.44151873D-01 -0.27851438D-04  0.15902668D-03
 -0.47936290D-02 -0.46880645D-02 -0.30976024D-02 -0.27142941D-02 -0.26545204D-02
 -0.17539539D-02 -0.22863424D-02 -0.22359930D-02 -0.14774151D-02  0.10739480D-02
  0.59156299D-03  0.51783538D-03  0.47168999D-03  0.15864834D-03  0.13033309D-03
  0.17872318D-04  0.11902071D-04  0.68044365D-05 -0.55490400D-03  0.18371286D-03
  0.37119114D-03 -0.13440035D-02 -0.10412738D-02 -0.49798051D-03  0.31081293D-03
 -0.11195043D-03 -0.19886250D-03  0.67539852D-03  0.52951573D-03  0.25582809D-03
  0.92382684D-04 -0.39314786D-04 -0.53067898D-04  0.10555189D-03  0.11036586D-03
  0.57170766D-04  0.90443099D-04  0.54218963D-04  0.13055401D-03 -0.15151614D-03
 -0.22818529D-03 -0.27822957D-03 -0.11981316D-03  0.65528405D-04 -0.11343246D-03
 -0.14580727D-03  0.37036250D-05 -0.74136864D-04 -0.98087597D-04  0.27986467D-04
  0.27802958D-03  0.25670461D-03 -0.39097342D-04 -0.55618988D-04  0.37558183D-04
  0.27803276D-03  0.42018120D+00  0.78323597D+00  0.13277775D+01  0.20106465D+01
  0.25143205D+01  0.21645957D+01  0.83214963D+00 -0.36058405D-02  0.47985302D-03
  0.90107900D-03  0.15343821D-02  0.24036005D-02  0.32211075D-02  0.34647354D-02
  0.20802226D-02 -0.13680419D-02  0.44151874D-01  0.27851441D-04 -0.15902668D-03
 -0.47936291D-02 -0.46880645D-02 -0.30976025D-02  0.27142942D-02  0.26545204D-02
  0.17539539D-02  0.22863425D-02  0.22359930D-02  0.14774151D-02  0.10739480D-02
 -0.59156300D-03 -0.51783539D-03  0.47169000D-03 -0.15864835D-03 -0.13033309D-03
  0.17872318D-04 -0.11902071D-04 -0.68044366D-05  0.55490401D-03 -0.18371287D-03
 -0.37119114D-03 -0.13440036D-02 -0.10412738D-02  0.49798052D-03 -0.31081293D-03
  0.11195043D-03  0.19886250D-03  0.67539853D-03  0.52951574D-03 -0.25582810D-03
 -0.92382684D-04  0.39314786D-04  0.53067898D-04  0.10555189D-03  0.11036586D-03
 -0.57170767D-04  0.90443097D-04 -0.54218963D-04 -0.13055401D-03 -0.15151614D-03
  0.22818529D-03  0.27822957D-03 -0.11981315D-03 -0.65528404D-04  0.11343246D-03
 -0.14580727D-03  0.37036254D-05  0.74136865D-04  0.98087598D-04  0.27986467D-04
 -0.27802958D-03 -0.25670461D-03 -0.39097344D-04  0.55618988D-04 -0.37558183D-04
  0.27803276D-03
MO    2     MO 0.0        OCC NO =    2.0000000  ORB. ENERGY =  -25.321313
  0.17275247D-03  0.32204988D-03  0.54432103D-03  0.81829280D-03  0.10053673D-02
  0.84919336D-03  0.32028449D-03 -0.15851058D-05 -0.12253931D-03 -0.22943225D-03
 -0.39062803D-03 -0.60424217D-03 -0.79576568D-03 -0.82685151D-03 -0.52542702D-03
  0.35212897D-03 -0.32926853D-03  0.43629070D-03  0.26570740D-03  0.40527572D-11
  0.37997174D-11  0.27056252D-11  0.41426067D-03  0.38839571D-03  0.27656088D-03
  0.20771695D-03  0.19474784D-03  0.13867207D-03 -0.10247926D-10 -0.10474843D-02
 -0.56913062D-03  0.15274543D-11  0.14468553D-03  0.99998909D-04 -0.10950950D-13
 -0.84183250D-06  0.13023255D-04  0.49589794D-03 -0.30174331D-03 -0.19415463D-03
  0.78705159D-11  0.60816844D-11  0.61344295D-03  0.45610042D-03 -0.23620416D-03
 -0.21989626D-03  0.67455504D-11  0.61436810D-11  0.63114197D-03 -0.17631015D-04
  0.12466884D-04  0.51641310D-05 -0.31635035D-12  0.83976461D-13  0.10276936D-04
 -0.41216223D-12  0.14990165D-03  0.16337755D-03 -0.40633524D-12 -0.61751444D-03
 -0.72365455D-03  0.16428219D-11  0.16780950D-03  0.23352190D-03 -0.93990431D-11
 -0.21475116D-12  0.63997146D-06 -0.10343682D-04 -0.19327978D-12 -0.86750109D-04
 -0.72324541D-04  0.83753327D-12  0.84830195D-04  0.10335559D-03 -0.17091205D-11
  0.21082286D-05  0.39302175D-05  0.66427599D-05  0.99862441D-05  0.12269255D-04
  0.10363347D-04  0.39086732D-05 -0.19344242D-07 -0.71648750D-06 -0.13414907D-05
 -0.22840026D-05 -0.35330048D-05 -0.46528430D-05 -0.48346020D-05 -0.30721725D-05
  0.20588986D-05 -0.31641899D-05 -0.35269912D-03 -0.13732839D-03  0.14865086D-12
  0.13936963D-12  0.99239477D-13  0.14920519D-04  0.13988935D-04  0.99609549D-05
  0.58113656D-04  0.54485246D-04  0.38796741D-04  0.78949842D-12  0.81441870D-04
 -0.24687895D-03 -0.80940983D-12 -0.75353419D-04  0.77222609D-04 -0.11385776D-13
 -0.12517117D-05  0.12486497D-04  0.25890209D-04 -0.18698697D-04 -0.71915120D-05
  0.45270723D-12 -0.32665016D-13 -0.40596863D-05  0.36542414D-05 -0.15007429D-03
  0.14642005D-03  0.14877335D-11  0.32010929D-11  0.32915942D-03  0.76643348D-05
 -0.55940547D-05 -0.20702801D-05  0.12562445D-12  0.29617181D-12  0.30684159D-04
  0.24897367D-12  0.36291482D-04  0.66170850D-05  0.24288858D-12 -0.79147831D-05
 -0.25495331D-04 -0.98980959D-12 -0.10095966D-03  0.56440758D-05 -0.32099156D-12
  0.11910946D-12  0.17988475D-04 -0.23542816D-04  0.10795732D-12 -0.63072568D-05
  0.65953585D-04 -0.46528571D-12 -0.47658169D-04  0.46748623D-05  0.59477600D-12
 -0.33649448D-05 -0.60688165D-05 -0.89484664D-05 -0.36287282D-04  0.65947919D-05
 -0.30709022D-05 -0.82633414D-05  0.29761113D-05  0.18784056D-04  0.15548797D-04
  0.23449552D-04 -0.95594040D-04 -0.61358660D-05 -0.72454272D-05 -0.18021323D-04
 -0.18318940D-04 -0.50698668D-05  0.23388806D-04 -0.15337547D-05  0.31999552D-04
  0.17567015D-04 -0.74434871D-06 -0.54883910D-05  0.62327397D-05  0.17211674D-05
 -0.24314293D-05  0.29885009D-04 -0.33649448D-05 -0.60688165D-05 -0.89484665D-05
 -0.36287277D-04  0.65947921D-05 -0.30709022D-05  0.82633416D-05  0.29761113D-05
  0.18784057D-04 -0.15548795D-04  0.23449551D-04 -0.95594041D-04  0.61358660D-05
 -0.72454273D-05 -0.18021323D-04 -0.18318939D-04 -0.50698668D-05  0.23388806D-04
  0.15337540D-05 -0.31999553D-04  0.17567016D-04 -0.74434864D-06 -0.54883911D-05
  0.62327397D-05 -0.17211676D-05  0.24314294D-05  0.29885009D-04 -0.54438377D-05
 -0.98181854D-05 -0.14476909D-04  0.42803402D-03  0.50076883D-04 -0.10413713D-04
  0.65172484D-13  0.19088386D-04  0.81887008D-04  0.15948538D-12  0.22497922D-03
 -0.17541105D-03 -0.34994614D-13  0.11799721D-04  0.10637473D-04 -0.26860360D-04
  0.26087490D-04  0.77286991D-06 -0.11889768D-12 -0.16745586D-13 -0.13495212D-03
 -0.15556820D-04  0.89752316D-05  0.65815889D-05  0.37779568D-13  0.30950322D-12
 -0.16445974D-04 -0.16087477D+00 -0.29987753D+00 -0.50836614D+00 -0.76981616D+00
 -0.96265781D+00 -0.82875871D+00 -0.31860510D+00  0.13805681D-02 -0.20161339D-03
 -0.37859424D-03 -0.64468070D-03 -0.10098885D-02 -0.13533694D-02 -0.14557313D-02
 -0.87401914D-03  0.57479176D-03 -0.16935827D-01  0.11199418D-03  0.34988457D-05
  0.67760759D-12  0.66268543D-12  0.43786428D-12  0.22241794D-02  0.21751989D-02
  0.14372459D-02 -0.88121732D-03 -0.86181129D-03 -0.56943516D-03 -0.36610477D-12
 -0.55921416D-03  0.21749487D-03 -0.15230143D-11 -0.34216871D-03 -0.68864526D-05
  0.28990604D-13 -0.13827804D-04  0.60827568D-06  0.24096933D-03 -0.40556807D-03
  0.16459875D-03  0.51118356D-12  0.13960146D-11  0.38549132D-03 -0.11670279D-03
  0.21926007D-03 -0.10255727D-03  0.42812694D-12 -0.67215518D-12 -0.16698900D-03
 -0.29405340D-04  0.87801064D-04 -0.58395724D-04  0.94341943D-12 -0.82684101D-13
 -0.65070643D-04  0.47186274D-12  0.53133133D-04  0.14832924D-03 -0.32369861D-11
 -0.35033422D-03 -0.85495917D-04  0.18213978D-11  0.19093482D-03 -0.35949181D-03
 -0.10464460D-11  0.18545132D-13 -0.62203637D-04 -0.69789756D-04  0.39293579D-12
  0.17564838D-03  0.25387157D-04 -0.44857119D-12  0.10962530D-04  0.18398211D-03
  0.76537105D-12  0.40451242D+00  0.75402868D+00  0.12782640D+01  0.19356684D+01
  0.24205601D+01  0.20838768D+01  0.80111832D+00 -0.34713768D-02  0.44415358D-03
  0.83404176D-03  0.14202293D-02  0.22247808D-02  0.29814679D-02  0.32069708D-02
  0.19254610D-02 -0.12662642D-02  0.42474130D-01  0.14951080D-03 -0.21058401D-03
  0.44641147D-02  0.43658067D-02  0.28846730D-02  0.26453985D-02  0.25871420D-02
  0.17094341D-02  0.21924832D-02  0.21442007D-02  0.14167640D-02 -0.92811182D-03
 -0.57336942D-03 -0.47852198D-03 -0.20608522D-03 -0.27226822D-03 -0.18209415D-03
 -0.13955054D-04 -0.59259810D-05 -0.85498269D-05  0.54145641D-03 -0.20595922D-03
 -0.33549719D-03  0.12050830D-02  0.94655691D-03  0.68419519D-03 -0.25037146D-03
  0.85038677D-04  0.16533278D-03 -0.65603794D-03 -0.50941777D-03 -0.36073036D-03
  0.55728338D-05 -0.18643828D-04  0.13070994D-04 -0.12324628D-03 -0.84456043D-04
 -0.57627666D-04  0.12170261D-03 -0.16312213D-04 -0.27440354D-04 -0.20323423D-03
 -0.38918609D-04  0.25947582D-05 -0.16187360D-03  0.87855247D-04  0.79726304D-04
  0.52924362D-04 -0.28715493D-04  0.58404712D-04  0.62198324D-04  0.41036267D-05
 -0.17805642D-03 -0.14212121D-03  0.82042853D-04  0.28422845D-05 -0.44473763D-04
 -0.30482072D-03  0.40451242D+00  0.75402867D+00  0.12782640D+01  0.19356684D+01
  0.24205601D+01  0.20838768D+01  0.80111831D+00 -0.34713768D-02  0.44415357D-03
  0.83404175D-03  0.14202293D-02  0.22247807D-02  0.29814679D-02  0.32069707D-02
  0.19254610D-02 -0.12662642D-02  0.42474130D-01  0.14951079D-03 -0.21058401D-03
 -0.44641146D-02 -0.43658066D-02 -0.28846730D-02  0.26453985D-02  0.25871419D-02
  0.17094341D-02  0.21924832D-02  0.21442006D-02  0.14167640D-02  0.92811180D-03
 -0.57336941D-03 -0.47852197D-03  0.20608522D-03 -0.27226822D-03 -0.18209415D-03
  0.13955053D-04 -0.59259808D-05 -0.85498268D-05  0.54145640D-03 -0.20595922D-03
 -0.33549718D-03 -0.12050830D-02 -0.94655689D-03  0.68419518D-03 -0.25037145D-03
  0.85038675D-04  0.16533278D-03  0.65603793D-03  0.50941776D-03 -0.36073036D-03
  0.55728352D-05 -0.18643829D-04  0.13070994D-04  0.12324627D-03  0.84456041D-04
 -0.57627665D-04 -0.12170261D-03 -0.16312212D-04 -0.27440352D-04  0.20323423D-03
 -0.38918612D-04  0.25947540D-05  0.16187360D-03  0.87855248D-04  0.79726302D-04
 -0.52924360D-04  0.28715493D-04  0.58404711D-04  0.62198323D-04 -0.41036271D-05
 -0.17805642D-03 -0.14212121D-03 -0.82042852D-04  0.28422837D-05 -0.44473762D-04
  0.30482071D-03
MO    3     MO 0.0        OCC NO =    2.0000000  ORB. ENERGY =  -25.321279
  0.21316720D-03  0.39739213D-03  0.67166271D-03  0.10097291D-02  0.12405688D-02
  0.10478587D-02  0.39521374D-03 -0.19559349D-05 -0.15120538D-03 -0.28310417D-03
 -0.48200908D-03 -0.74559475D-03 -0.98192206D-03 -0.10202799D-02 -0.64834209D-03
  0.43450379D-03 -0.40615709D-03  0.53662559D-03  0.32761175D-03  0.29465319D-12
  0.27625609D-12  0.19671079D-12 -0.33599850D-03 -0.31501995D-03 -0.22431297D-03
  0.25557644D-03  0.23961916D-03  0.17062311D-03 -0.74509736D-12  0.84938198D-03
 -0.70074833D-03  0.13138548D-12 -0.11713499D-03  0.12213901D-03 -0.12029956D-14
  0.69245133D-06  0.16063772D-04 -0.20301676D-03  0.44344390D-03 -0.24042715D-03
  0.58659219D-12  0.45609140D-12 -0.49660629D-03 -0.14441144D-03  0.41640458D-03
 -0.27199315D-03  0.48714905D-12  0.43977354D-12 -0.51018380D-03  0.90443166D-05
 -0.15334966D-04  0.62906497D-05 -0.26825679D-13  0.34223603D-14 -0.83383021D-05
 -0.30270180D-13  0.27127088D-03  0.20135068D-03 -0.30007027D-13 -0.67663188D-03
  0.85003552D-04  0.12081757D-12 -0.13718076D-03 -0.68905558D-03 -0.69049042D-12
 -0.17162668D-13  0.44080425D-04 -0.12867339D-04 -0.11497857D-13 -0.63730617D-04
  0.90276259D-04  0.62985862D-13 -0.68510659D-04 -0.51674243D-04 -0.12246113D-12
  0.27622280D-05  0.51494210D-05  0.87034287D-05  0.13084104D-04  0.16075334D-04
  0.13578189D-04  0.51211934D-05 -0.25345072D-07 -0.10071006D-05 -0.18856100D-05
 -0.32104124D-05 -0.49660198D-05 -0.65400734D-05 -0.67955552D-05 -0.43182702D-05
  0.28940043D-05 -0.33168058D-05 -0.43638292D-03 -0.16933633D-03  0.12518373D-13
  0.11736770D-13  0.83572795D-14 -0.11830248D-04 -0.11091610D-04 -0.78978869D-05
  0.71630442D-04  0.67158092D-04  0.47820562D-04  0.51647138D-13 -0.65919855D-04
 -0.30556241D-03 -0.74175876D-13  0.60661247D-04  0.95030198D-04 -0.59172631D-15
  0.10188489D-05  0.15400835D-04 -0.13748079D-04  0.22322281D-04 -0.85742024D-05
  0.35567274D-13 -0.12497741D-14  0.28513336D-05 -0.15276040D-03 -0.28705756D-04
  0.18146616D-03  0.10195420D-12  0.22928614D-12 -0.26536362D-03 -0.41298238D-05
  0.66474030D-05 -0.25175793D-05  0.77882552D-14  0.20842998D-13 -0.24856081D-04
  0.18343167D-13 -0.64929592D-05  0.82169648D-05  0.16796479D-13 -0.61943748D-04
  0.16530283D-06 -0.71825979D-13  0.81422625D-04 -0.24816197D-04 -0.27320768D-13
  0.90335721D-14 -0.19911194D-05 -0.29112428D-04  0.62034063D-14 -0.32444790D-04
  0.18844947D-04 -0.33304122D-13  0.38418148D-04  0.68492336D-04  0.42882607D-13
 -0.56194721D-05 -0.10134949D-04 -0.14943977D-04  0.27296987D-03  0.38760291D-04
 -0.87931656D-05 -0.11615632D-04 -0.12928110D-04  0.66344578D-04 -0.11586018D-03
 -0.78761014D-04 -0.17299877D-03 -0.12631257D-04 -0.43288157D-05 -0.28517106D-05
  0.48170467D-05 -0.18526239D-04  0.13709193D-04  0.23394042D-04  0.97141507D-04
  0.56621083D-04 -0.43281531D-06 -0.75445093D-05  0.79773246D-05  0.17668479D-04
  0.26790994D-04 -0.98325186D-05 -0.56194721D-05 -0.10134949D-04 -0.14943977D-04
  0.27296987D-03  0.38760291D-04 -0.87931656D-05  0.11615632D-04 -0.12928110D-04
  0.66344578D-04  0.11586018D-03 -0.78761014D-04 -0.17299877D-03  0.12631257D-04