 Molden2AIM, Version 4.0.0 (06/02/2016)           Time: Tue Jul  3 02:32:20 2018
GAUSSIAN             21 MOL ORBITALS    518 PRIMITIVES       10 NUCLEI
  C    1    (CENTRE  1)  -5.94748779  5.31484339  0.80794863  CHARGE =  6.0
  C    2    (CENTRE  2) -11.46882533  5.27454687 -2.25794871  CHARGE =  6.0
  O    3    (CENTRE  3) -10.99190192  5.77979349  0.33875797  CHARGE =  8.0
  H    4    (CENTRE  4)  -9.76981036  5.57910836 -3.42113183  CHARGE =  1.0
  H    5    (CENTRE  5) -12.93529060  6.62197451 -2.83907918  CHARGE =  1.0
  H    6    (CENTRE  6) -12.15389829  3.33198022 -2.53715385  CHARGE =  1.0
  S    7    (CENTRE  7)  -8.87316366  3.79798479  1.67971519  CHARGE = 16.0
  H    8    (CENTRE  8)  -4.45504068  4.21524955  1.74705558  CHARGE =  1.0
  H    9    (CENTRE  9)  -5.89951520  7.26357432  1.51248577  CHARGE =  1.0
  H   10    (CENTRE 10)  -5.61902882  5.25995629 -1.23889311  CHARGE =  1.0
CENTRE ASSIGNMENTS    1  1  1  1  1  1  1  1  1  1  1  1  1  1  1  1  1  1  1  1
CENTRE ASSIGNMENTS    1  1  1  1  1  1  1  1  1  1  1  1  1  1  1  1  1  1  1  1
CENTRE ASSIGNMENTS    1  1  1  1  1  1  1  1  1  1  1  1  1  1  1  1  1  1  1  1
CENTRE ASSIGNMENTS    1  1  1  1  1  1  1  1  1  1  1  1  1  1  1  2  2  2  2  2
CENTRE ASSIGNMENTS    2  2  2  2  2  2  2  2  2  2  2  2  2  2  2  2  2  2  2  2
CENTRE ASSIGNMENTS    2  2  2  2  2  2  2  2  2  2  2  2  2  2  2  2  2  2  2  2
CENTRE ASSIGNMENTS    2  2  2  2  2  2  2  2  2  2  2  2  2  2  2  2  2  2  2  2
CENTRE ASSIGNMENTS    2  2  2  2  2  2  2  2  2  2  3  3  3  3  3  3  3  3  3  3
CENTRE ASSIGNMENTS    3  3  3  3  3  3  3  3  3  3  3  3  3  3  3  3  3  3  3  3
CENTRE ASSIGNMENTS    3  3  3  3  3  3  3  3  3  3  3  3  3  3  3  3  3  3  3  3
CENTRE ASSIGNMENTS    3  3  3  3  3  3  3  3  3  3  3  3  3  3  3  3  3  3  3  3
CENTRE ASSIGNMENTS    3  3  3  3  3  4  4  4  4  4  4  4  4  4  4  4  4  4  4  4
CENTRE ASSIGNMENTS    4  4  4  4  4  4  4  4  4  4  4  4  5  5  5  5  5  5  5  5
CENTRE ASSIGNMENTS    5  5  5  5  5  5  5  5  5  5  5  5  5  5  5  5  5  5  5  6
CENTRE ASSIGNMENTS    6  6  6  6  6  6  6  6  6  6  6  6  6  6  6  6  6  6  6  6
CENTRE ASSIGNMENTS    6  6  6  6  6  6  7  7  7  7  7  7  7  7  7  7  7  7  7  7
CENTRE ASSIGNMENTS    7  7  7  7  7  7  7  7  7  7  7  7  7  7  7  7  7  7  7  7
CENTRE ASSIGNMENTS    7  7  7  7  7  7  7  7  7  7  7  7  7  7  7  7  7  7  7  7
CENTRE ASSIGNMENTS    7  7  7  7  7  7  7  7  7  7  7  7  7  7  7  7  7  7  7  7
CENTRE ASSIGNMENTS    7  7  7  7  7  7  7  7  7  7  7  7  7  7  7  7  7  7  7  7
CENTRE ASSIGNMENTS    7  7  7  7  7  7  7  7  7  7  7  7  7  7  7  7  7  7  7  7
CENTRE ASSIGNMENTS    7  7  7  7  7  7  7  7  7  7  7  7  7  7  7  7  7  8  8  8
CENTRE ASSIGNMENTS    8  8  8  8  8  8  8  8  8  8  8  8  8  8  8  8  8  8  8  8
CENTRE ASSIGNMENTS    8  8  8  8  9  9  9  9  9  9  9  9  9  9  9  9  9  9  9  9
CENTRE ASSIGNMENTS    9  9  9  9  9  9  9  9  9  9  9 10 10 10 10 10 10 10 10 10
CENTRE ASSIGNMENTS   10 10 10 10 10 10 10 10 10 10 10 10 10 10 10 10 10 10
TYPE ASSIGNMENTS      1  1  1  1  1  1  1  1  1  1  1  1  1  1  1  1  1  1  1  2
TYPE ASSIGNMENTS      2  2  3  3  3  4  4  4  2  3  4  2  3  4  2  3  4  5  6  7
TYPE ASSIGNMENTS      8  9 10  5  6  7  8  9 10  5  6  7  8  9 10 11 12 13 17 14
TYPE ASSIGNMENTS     15 18 19 16 20 11 12 13 17 14 15 18 19 16 20  1  1  1  1  1
TYPE ASSIGNMENTS      1  1  1  1  1  1  1  1  1  1  1  1  1  1  2  2  2  3  3  3
TYPE ASSIGNMENTS      4  4  4  2  3  4  2  3  4  2  3  4  5  6  7  8  9 10  5  6
TYPE ASSIGNMENTS      7  8  9 10  5  6  7  8  9 10 11 12 13 17 14 15 18 19 16 20
TYPE ASSIGNMENTS     11 12 13 17 14 15 18 19 16 20  1  1  1  1  1  1  1  1  1  1
TYPE ASSIGNMENTS      1  1  1  1  1  1  1  1  1  2  2  2  3  3  3  4  4  4  2  3
TYPE ASSIGNMENTS      4  2  3  4  2  3  4  5  6  7  8  9 10  5  6  7  8  9 10  5
TYPE ASSIGNMENTS      6  7  8  9 10 11 12 13 17 14 15 18 19 16 20 11 12 13 17 14
TYPE ASSIGNMENTS     15 18 19 16 20  1  1  1  1  1  1  2  3  4  2  3  4  2  3  4
TYPE ASSIGNMENTS      5  6  7  8  9 10  5  6  7  8  9 10  1  1  1  1  1  1  2  3
TYPE ASSIGNMENTS      4  2  3  4  2  3  4  5  6  7  8  9 10  5  6  7  8  9 10  1
TYPE ASSIGNMENTS      1  1  1  1  1  2  3  4  2  3  4  2  3  4  5  6  7  8  9 10
TYPE ASSIGNMENTS      5  6  7  8  9 10  1  1  1  1  1  1  1  1  1  1  1  1  1  1
TYPE ASSIGNMENTS      1  1  1  1  1  1  1  1  1  1  1  1  1  1  1  1  1  1  1  1
TYPE ASSIGNMENTS      1  1  1  1  1  1  1  1  2  2  2  2  2  2  2  3  3  3  3  3
TYPE ASSIGNMENTS      3  3  4  4  4  4  4  4  4  2  2  2  2  2  2  2  3  3  3  3
TYPE ASSIGNMENTS      3  3  3  4  4  4  4  4  4  4  2  3  4  2  3  4  2  3  4  5
TYPE ASSIGNMENTS      6  7  8  9 10  5  6  7  8  9 10  5  6  7  8  9 10 11 12 13
TYPE ASSIGNMENTS     17 14 15 18 19 16 20 11 12 13 17 14 15 18 19 16 20  1  1  1
TYPE ASSIGNMENTS      1  1  1  2  3  4  2  3  4  2  3  4  5  6  7  8  9 10  5  6
TYPE ASSIGNMENTS      7  8  9 10  1  1  1  1  1  1  2  3  4  2  3  4  2  3  4  5
TYPE ASSIGNMENTS      6  7  8  9 10  5  6  7  8  9 10  1  1  1  1  1  1  2  3  4
TYPE ASSIGNMENTS      2  3  4  2  3  4  5  6  7  8  9 10  5  6  7  8  9 10
EXPONENTS  0.8236000D+04 0.1235000D+04 0.2808000D+03 0.7927000D+02 0.2559000D+02
EXPONENTS  0.8997000D+01 0.3319000D+01 0.3643000D+00 0.8236000D+04 0.1235000D+04
EXPONENTS  0.2808000D+03 0.7927000D+02 0.2559000D+02 0.8997000D+01 0.3319000D+01
EXPONENTS  0.3643000D+00 0.9059000D+00 0.1285000D+00 0.4402000D-01 0.1871000D+02
EXPONENTS  0.4133000D+01 0.1200000D+01 0.1871000D+02 0.4133000D+01 0.1200000D+01
EXPONENTS  0.1871000D+02 0.4133000D+01 0.1200000D+01 0.3827000D+00 0.3827000D+00
EXPONENTS  0.3827000D+00 0.1209000D+00 0.1209000D+00 0.1209000D+00 0.3569000D-01
EXPONENTS  0.3569000D-01 0.3569000D-01 0.1097000D+01 0.1097000D+01 0.1097000D+01
EXPONENTS  0.1097000D+01 0.1097000D+01 0.1097000D+01 0.3180000D+00 0.3180000D+00
EXPONENTS  0.3180000D+00 0.3180000D+00 0.3180000D+00 0.3180000D+00 0.1000000D+00
EXPONENTS  0.1000000D+00 0.1000000D+00 0.1000000D+00 0.1000000D+00 0.1000000D+00
EXPONENTS  0.7610000D+00 0.7610000D+00 0.7610000D+00 0.7610000D+00 0.7610000D+00
EXPONENTS  0.7610000D+00 0.7610000D+00 0.7610000D+00 0.7610000D+00 0.7610000D+00
EXPONENTS  0.2680000D+00 0.2680000D+00 0.2680000D+00 0.2680000D+00 0.2680000D+00
EXPONENTS  0.2680000D+00 0.2680000D+00 0.2680000D+00 0.2680000D+00 0.2680000D+00
EXPONENTS  0.8236000D+04 0.1235000D+04 0.2808000D+03 0.7927000D+02 0.2559000D+02
EXPONENTS  0.8997000D+01 0.3319000D+01 0.3643000D+00 0.8236000D+04 0.1235000D+04
EXPONENTS  0.2808000D+03 0.7927000D+02 0.2559000D+02 0.8997000D+01 0.3319000D+01
EXPONENTS  0.3643000D+00 0.9059000D+00 0.1285000D+00 0.4402000D-01 0.1871000D+02
EXPONENTS  0.4133000D+01 0.1200000D+01 0.1871000D+02 0.4133000D+01 0.1200000D+01
EXPONENTS  0.1871000D+02 0.4133000D+01 0.1200000D+01 0.3827000D+00 0.3827000D+00
EXPONENTS  0.3827000D+00 0.1209000D+00 0.1209000D+00 0.1209000D+00 0.3569000D-01
EXPONENTS  0.3569000D-01 0.3569000D-01 0.1097000D+01 0.1097000D+01 0.1097000D+01
EXPONENTS  0.1097000D+01 0.1097000D+01 0.1097000D+01 0.3180000D+00 0.3180000D+00
EXPONENTS  0.3180000D+00 0.3180000D+00 0.3180000D+00 0.3180000D+00 0.1000000D+00
EXPONENTS  0.1000000D+00 0.1000000D+00 0.1000000D+00 0.1000000D+00 0.1000000D+00
EXPONENTS  0.7610000D+00 0.7610000D+00 0.7610000D+00 0.7610000D+00 0.7610000D+00
EXPONENTS  0.7610000D+00 0.7610000D+00 0.7610000D+00 0.7610000D+00 0.7610000D+00
EXPONENTS  0.2680000D+00 0.2680000D+00 0.2680000D+00 0.2680000D+00 0.2680000D+00
EXPONENTS  0.2680000D+00 0.2680000D+00 0.2680000D+00 0.2680000D+00 0.2680000D+00
EXPONENTS  0.1533000D+05 0.2299000D+04 0.5224000D+03 0.1473000D+03 0.4755000D+02
EXPONENTS  0.1676000D+02 0.6207000D+01 0.6882000D+00 0.1533000D+05 0.2299000D+04
EXPONENTS  0.5224000D+03 0.1473000D+03 0.4755000D+02 0.1676000D+02 0.6207000D+01
EXPONENTS  0.6882000D+00 0.1752000D+01 0.2384000D+00 0.7376000D-01 0.3446000D+02
EXPONENTS  0.7749000D+01 0.2280000D+01 0.3446000D+02 0.7749000D+01 0.2280000D+01
EXPONENTS  0.3446000D+02 0.7749000D+01 0.2280000D+01 0.7156000D+00 0.7156000D+00
EXPONENTS  0.7156000D+00 0.2140000D+00 0.2140000D+00 0.2140000D+00 0.5974000D-01
EXPONENTS  0.5974000D-01 0.5974000D-01 0.2314000D+01 0.2314000D+01 0.2314000D+01
EXPONENTS  0.2314000D+01 0.2314000D+01 0.2314000D+01 0.6450000D+00 0.6450000D+00
EXPONENTS  0.6450000D+00 0.6450000D+00 0.6450000D+00 0.6450000D+00 0.2140000D+00
EXPONENTS  0.2140000D+00 0.2140000D+00 0.2140000D+00 0.2140000D+00 0.2140000D+00
EXPONENTS  0.1428000D+01 0.1428000D+01 0.1428000D+01 0.1428000D+01 0.1428000D+01
EXPONENTS  0.1428000D+01 0.1428000D+01 0.1428000D+01 0.1428000D+01 0.1428000D+01
EXPONENTS  0.5000000D+00 0.5000000D+00 0.5000000D+00 0.5000000D+00 0.5000000D+00
EXPONENTS  0.5000000D+00 0.5000000D+00 0.5000000D+00 0.5000000D+00 0.5000000D+00
EXPONENTS  0.3387000D+02 0.5095000D+01 0.1159000D+01 0.3258000D+00 0.1027000D+00
EXPONENTS  0.2526000D-01 0.1407000D+01 0.1407000D+01 0.1407000D+01 0.3880000D+00
EXPONENTS  0.3880000D+00 0.3880000D+00 0.1020000D+00 0.1020000D+00 0.1020000D+00
EXPONENTS  0.1057000D+01 0.1057000D+01 0.1057000D+01 0.1057000D+01 0.1057000D+01
EXPONENTS  0.1057000D+01 0.2470000D+00 0.2470000D+00 0.2470000D+00 0.2470000D+00
EXPONENTS  0.2470000D+00 0.2470000D+00 0.3387000D+02 0.5095000D+01 0.1159000D+01
EXPONENTS  0.3258000D+00 0.1027000D+00 0.2526000D-01 0.1407000D+01 0.1407000D+01
EXPONENTS  0.1407000D+01 0.3880000D+00 0.3880000D+00 0.3880000D+00 0.1020000D+00
EXPONENTS  0.1020000D+00 0.1020000D+00 0.1057000D+01 0.1057000D+01 0.1057000D+01
EXPONENTS  0.1057000D+01 0.1057000D+01 0.1057000D+01 0.2470000D+00 0.2470000D+00
EXPONENTS  0.2470000D+00 0.2470000D+00 0.2470000D+00 0.2470000D+00 0.3387000D+02
EXPONENTS  0.5095000D+01 0.1159000D+01 0.3258000D+00 0.1027000D+00 0.2526000D-01
EXPONENTS  0.1407000D+01 0.1407000D+01 0.1407000D+01 0.3880000D+00 0.3880000D+00
EXPONENTS  0.3880000D+00 0.1020000D+00 0.1020000D+00 0.1020000D+00 0.1057000D+01
EXPONENTS  0.1057000D+01 0.1057000D+01 0.1057000D+01 0.1057000D+01 0.1057000D+01
EXPONENTS  0.2470000D+00 0.2470000D+00 0.2470000D+00 0.2470000D+00 0.2470000D+00
EXPONENTS  0.2470000D+00 0.3741000D+06 0.5605000D+05 0.1276000D+05 0.3615000D+04
EXPONENTS  0.1183000D+04 0.4288000D+03 0.1678000D+03 0.6947000D+02 0.2984000D+02
EXPONENTS  0.1272000D+02 0.5244000D+01 0.2219000D+01 0.3490000D+00 0.3741000D+06
EXPONENTS  0.5605000D+05 0.1276000D+05 0.3615000D+04 0.1183000D+04 0.4288000D+03
EXPONENTS  0.1678000D+03 0.6947000D+02 0.2984000D+02 0.1272000D+02 0.5244000D+01
EXPONENTS  0.2219000D+01 0.3490000D+00 0.3741000D+06 0.5605000D+05 0.1276000D+05
EXPONENTS  0.3615000D+04 0.1183000D+04 0.4288000D+03 0.1678000D+03 0.6947000D+02
EXPONENTS  0.2984000D+02 0.1272000D+02 0.5244000D+01 0.2219000D+01 0.3490000D+00
EXPONENTS  0.7767000D+00 0.1322000D+00 0.4970000D-01 0.5744000D+03 0.1358000D+03
EXPONENTS  0.4319000D+02 0.1587000D+02 0.6208000D+01 0.2483000D+01 0.3229000D+00
EXPONENTS  0.5744000D+03 0.1358000D+03 0.4319000D+02 0.1587000D+02 0.6208000D+01
EXPONENTS  0.2483000D+01 0.3229000D+00 0.5744000D+03 0.1358000D+03 0.4319000D+02
EXPONENTS  0.1587000D+02 0.6208000D+01 0.2483000D+01 0.3229000D+00 0.5744000D+03
EXPONENTS  0.1358000D+03 0.4319000D+02 0.1587000D+02 0.6208000D+01 0.2483000D+01
EXPONENTS  0.3229000D+00 0.5744000D+03 0.1358000D+03 0.4319000D+02 0.1587000D+02
EXPONENTS  0.6208000D+01 0.2483000D+01 0.3229000D+00 0.5744000D+03 0.1358000D+03
EXPONENTS  0.4319000D+02 0.1587000D+02 0.6208000D+01 0.2483000D+01 0.3229000D+00
EXPONENTS  0.8688000D+00 0.8688000D+00 0.8688000D+00 0.1098000D+00 0.1098000D+00
EXPONENTS  0.1098000D+00 0.3510000D-01 0.3510000D-01 0.3510000D-01 0.2690000D+00
EXPONENTS  0.2690000D+00 0.2690000D+00 0.2690000D+00 0.2690000D+00 0.2690000D+00
EXPONENTS  0.8190000D+00 0.8190000D+00 0.8190000D+00 0.8190000D+00 0.8190000D+00
EXPONENTS  0.8190000D+00 0.1010000D+00 0.1010000D+00 0.1010000D+00 0.1010000D+00
EXPONENTS  0.1010000D+00 0.1010000D+00 0.5570000D+00 0.5570000D+00 0.5570000D+00
EXPONENTS  0.5570000D+00 0.5570000D+00 0.5570000D+00 0.5570000D+00 0.5570000D+00
EXPONENTS  0.5570000D+00 0.5570000D+00 0.2180000D+00 0.2180000D+00 0.2180000D+00
EXPONENTS  0.2180000D+00 0.2180000D+00 0.2180000D+00 0.2180000D+00 0.2180000D+00
EXPONENTS  0.2180000D+00 0.2180000D+00 0.3387000D+02 0.5095000D+01 0.1159000D+01
EXPONENTS  0.3258000D+00 0.1027000D+00 0.2526000D-01 0.1407000D+01 0.1407000D+01
EXPONENTS  0.1407000D+01 0.3880000D+00 0.3880000D+00 0.3880000D+00 0.1020000D+00
EXPONENTS  0.1020000D+00 0.1020000D+00 0.1057000D+01 0.1057000D+01 0.1057000D+01
EXPONENTS  0.1057000D+01 0.1057000D+01 0.1057000D+01 0.2470000D+00 0.2470000D+00
EXPONENTS  0.2470000D+00 0.2470000D+00 0.2470000D+00 0.2470000D+00 0.3387000D+02
EXPONENTS  0.5095000D+01 0.1159000D+01 0.3258000D+00 0.1027000D+00 0.2526000D-01
EXPONENTS  0.1407000D+01 0.1407000D+01 0.1407000D+01 0.3880000D+00 0.3880000D+00
EXPONENTS  0.3880000D+00 0.1020000D+00 0.1020000D+00 0.1020000D+00 0.1057000D+01
EXPONENTS  0.1057000D+01 0.1057000D+01 0.1057000D+01 0.1057000D+01 0.1057000D+01
EXPONENTS  0.2470000D+00 0.2470000D+00 0.2470000D+00 0.2470000D+00 0.2470000D+00
EXPONENTS  0.2470000D+00 0.3387000D+02 0.5095000D+01 0.1159000D+01 0.3258000D+00
EXPONENTS  0.1027000D+00 0.2526000D-01 0.1407000D+01 0.1407000D+01 0.1407000D+01
EXPONENTS  0.3880000D+00 0.3880000D+00 0.3880000D+00 0.1020000D+00 0.1020000D+00
EXPONENTS  0.1020000D+00 0.1057000D+01 0.1057000D+01 0.1057000D+01 0.1057000D+01
EXPONENTS  0.1057000D+01 0.1057000D+01 0.2470000D+00 0.2470000D+00 0.2470000D+00
EXPONENTS  0.2470000D+00 0.2470000D+00 0.2470000D+00
MO    1     MO 0.0        OCC NO =    2.0000000  ORB. ENERGY =  -90.056867
  0.20392046D-04  0.38015411D-04  0.64252741D-04  0.96592916D-04  0.11867556D-03
  0.10024048D-03  0.37807021D-04 -0.18710906D-06 -0.14697335D-04 -0.27518049D-04
 -0.46851833D-04 -0.72472662D-04 -0.95443946D-04 -0.99172374D-04 -0.63019592D-04
  0.42234265D-04  0.18559044D-04  0.47000976D-03  0.80790198D-04 -0.98185002D-04
 -0.92054681D-04 -0.65548417D-04 -0.28662027D-04 -0.26872472D-04 -0.19134801D-04
  0.95040078D-05  0.89106114D-05  0.63448861D-05  0.35592834D-05 -0.52055234D-04
  0.43205949D-04 -0.21935410D-03 -0.49924279D-04  0.19256219D-04 -0.62280268D-05
 -0.42442725D-05  0.30031733D-05  0.74987802D-04 -0.25044252D-04 -0.49943550D-04
  0.12653307D-03 -0.97688573D-04 -0.26150014D-04 -0.12219340D-03  0.45453208D-04
  0.76740194D-04 -0.19079578D-03  0.13354457D-03  0.18786167D-04  0.10367414D-04
 -0.61097324D-05 -0.42576812D-05  0.12122658D-04 -0.57104090D-05  0.17192846D-04
  0.10845780D-04 -0.12369484D-04 -0.68979210D-05  0.93656615D-05  0.70303440D-04
 -0.18514748D-04 -0.41903001D-04 -0.33194987D-04  0.39208511D-04 -0.10370942D-03
  0.10411000D-04 -0.49833638D-05 -0.69313761D-05  0.51504924D-05  0.54262916D-04
 -0.28321647D-04 -0.36383492D-04 -0.39312824D-04  0.49115775D-04 -0.87581052D-04
 -0.80047918D-05 -0.14922752D-04 -0.25222080D-04 -0.37917048D-04 -0.46585474D-04
 -0.39348880D-04 -0.14840950D-04  0.73448689D-07  0.51732252D-05  0.96859098D-05
  0.16491090D-04  0.25509209D-04  0.33594731D-04  0.34907077D-04  0.22181881D-04
 -0.14865781D-04 -0.28822520D-04  0.18459927D-03  0.34648223D-04  0.33522534D-04
  0.31429507D-04  0.22379681D-04 -0.16721899D-04 -0.15677843D-04 -0.11163558D-04
  0.40421448D-04  0.37897677D-04  0.26985404D-04 -0.19942692D-03  0.12294612D-03
 -0.14920464D-03  0.89728860D-04 -0.10194053D-03  0.46447895D-04  0.61527629D-05
 -0.55542603D-05  0.15113539D-05 -0.89713115D-05  0.35351785D-04 -0.26380474D-04
 -0.58493672D-04 -0.74625674D-04  0.60859619D-04  0.25083214D-04  0.84956873D-05
 -0.33578901D-04 -0.44902432D-04  0.83216194D-04 -0.76305474D-04 -0.25547791D-05
  0.36627023D-05 -0.11079232D-05 -0.10502873D-04  0.98686439D-05 -0.11063870D-04
  0.55536886D-05 -0.16194835D-04  0.21366835D-04 -0.23148190D-04  0.35991658D-04
 -0.35425571D-04  0.64871246D-05  0.12592846D-04 -0.28674934D-04  0.12074790D-03
 -0.75732791D-05  0.15368730D-05 -0.44800569D-05 -0.13958580D-04  0.78354722D-05
  0.14516166D-04  0.36678417D-04 -0.12446091D-04 -0.10759949D-05 -0.60748281D-04
  0.42244952D-04  0.78739156D-04  0.13351552D-03  0.20208196D-03  0.25213928D-03
  0.21655402D-03  0.83139297D-04 -0.37188718D-06 -0.29684551D-04 -0.55674111D-04
 -0.94912155D-04 -0.14832922D-03 -0.19834443D-03 -0.21178561D-03 -0.12948157D-03
  0.85424077D-04  0.16250161D-04  0.79828343D-04  0.10452590D-03  0.26088672D-04
  0.25297236D-04  0.17065366D-04 -0.19410856D-04 -0.18822001D-04 -0.12697211D-04
 -0.23394984D-04 -0.22685265D-04 -0.15303346D-04  0.49000905D-04 -0.51289806D-04
  0.73405352D-04 -0.12866707D-03  0.14010730D-03 -0.12658265D-03 -0.28943045D-05
 -0.33578258D-06 -0.64031027D-05 -0.10599677D-04  0.37600400D-04 -0.27000722D-04
 -0.35290103D-03  0.23698495D-03 -0.14914626D-03  0.76995946D-05 -0.11859834D-04
  0.41602395D-05  0.15717165D-03 -0.10324102D-03  0.60258762D-04 -0.22501359D-04
 -0.27077956D-04  0.49579315D-04  0.10893293D-03 -0.41584596D-05  0.46663374D-04
 -0.41254647D-04  0.23920988D-04 -0.66955956D-06  0.10870602D-03 -0.14312439D-03
  0.46911193D-04  0.15057924D-04  0.71361424D-04 -0.44902515D-04 -0.78804931D-04
  0.29821253D-04 -0.25373188D-04  0.21631417D-04 -0.75763525D-04  0.98070490D-04
 -0.57665733D-04 -0.13700236D-04 -0.21950927D-04 -0.72285184D-05  0.14948323D-03
  0.54758828D-05  0.98759801D-05  0.14562127D-04 -0.56868045D-04 -0.86790266D-05
 -0.72844454D-05  0.20986344D-05  0.53651677D-05 -0.12384856D-04  0.17475057D-04
 -0.38138089D-04  0.11212209D-04 -0.82404685D-05 -0.47277639D-06 -0.65546055D-06
 -0.29064389D-05  0.19887933D-04 -0.16981494D-04  0.28262540D-04 -0.63781412D-05
  0.48992134D-05 -0.41579839D-05 -0.80345760D-07  0.42383296D-05  0.11358019D-04
 -0.85220726D-05 -0.86667425D-05  0.52459382D-05  0.94612656D-05  0.13950631D-04
 -0.22165263D-03  0.46666616D-04  0.13272251D-04 -0.15855417D-04  0.29949424D-04
  0.64901177D-04 -0.13150248D-03  0.12251449D-03 -0.14004953D-03  0.56050461D-06
 -0.90312717D-05  0.53485308D-05 -0.18456848D-04 -0.17689504D-04  0.36146352D-04
  0.11375699D-03 -0.43095235D-04  0.48071572D-04 -0.45871347D-05 -0.22365254D-05
  0.68236601D-05  0.20672107D-04 -0.14259946D-04  0.22492872D-04  0.73336071D-05
  0.13226462D-04  0.19502411D-04 -0.12073904D-03 -0.11987200D-03 -0.93817518D-05
  0.88300084D-05 -0.17819225D-04  0.63060860D-05 -0.13513504D-04 -0.30805981D-04
 -0.22861167D-04 -0.25845985D-04 -0.44310626D-05 -0.11047245D-04  0.14658318D-04
 -0.12409252D-04 -0.22490666D-05  0.44182804D-05 -0.61824106D-04 -0.52653483D-05
 -0.17474768D-05  0.10314249D-05  0.71605196D-06  0.12573315D-04 -0.20655909D-06
  0.27938240D-05  0.58495022D+00  0.10935304D+01  0.18899620D+01  0.30569288D+01
  0.46203688D+01  0.63630060D+01  0.74368788D+01  0.64260244D+01  0.29971207D+01
  0.40694424D+00  0.10896964D-02  0.21375339D-02  0.97587350D-04 -0.82579658D-03
 -0.15422103D-02 -0.26752024D-02 -0.43377481D-02 -0.66784571D-02 -0.95116230D-02
 -0.12230713D-01 -0.12838609D-01 -0.90778061D-02  0.20103182D-03  0.65225210D-02
  0.35914771D-02 -0.15188296D-04  0.38085477D-03  0.71073134D-03  0.12344553D-02
  0.19995436D-02  0.30887098D-02  0.44034198D-02  0.57274108D-02  0.61038761D-02
  0.45271179D-02 -0.14091237D-03 -0.41013330D-02 -0.40178908D-02  0.18765933D-02
 -0.19909442D-02 -0.78556409D-03 -0.29385695D-03 -0.22825137D-04 -0.29945337D-04
 -0.32845471D-04 -0.27025774D-04 -0.14248522D-04 -0.37067921D-05  0.41019434D-08
  0.59753101D-02  0.78392814D-02  0.85984969D-02  0.70749795D-02  0.37300691D-02
  0.97038768D-03 -0.10738329D-05 -0.47586777D-02 -0.62431260D-02 -0.68477577D-02
 -0.56344435D-02 -0.29705901D-02 -0.77280713D-03  0.85518988D-06  0.23761888D-04
  0.31199504D-04  0.35101546D-04  0.29575706D-04  0.16544235D-04  0.41178265D-05
 -0.18886336D-05 -0.47698770D-02 -0.62628776D-02 -0.70461596D-02 -0.59369222D-02
 -0.33210310D-02 -0.82659786D-03  0.37911761D-03  0.38585096D-02  0.50662466D-02
  0.56998690D-02  0.48025706D-02  0.26864907D-02  0.66866205D-03 -0.30668064D-03
  0.26932976D-04 -0.20325998D-03  0.16202742D-03 -0.15879745D-03 -0.23515148D-03
  0.20154686D-03 -0.71553474D-05 -0.75106634D-05  0.71087615D-05 -0.44719757D-05
  0.12166891D-04 -0.76949157D-05 -0.23632536D-04 -0.91213391D-05 -0.62846174D-05
  0.12115554D-03 -0.45119582D-04 -0.76035961D-04 -0.56237760D-05  0.95822417D-04
 -0.22992001D-03 -0.11806062D-04  0.38069520D-05  0.79991105D-05 -0.17991625D-04
  0.60880039D-05  0.37468399D-04  0.29415707D-04 -0.37945477D-04  0.35134294D-04
 -0.42265156D-04  0.12313259D-03 -0.70709344D-04 -0.45981966D-04 -0.92961554D-05
 -0.34693537D-04  0.52062357D-04 -0.10935143D-04  0.91222602D-05 -0.44397296D-05
  0.11898410D-04 -0.26243119D-04  0.10313172D-04  0.20907019D-04 -0.11236617D-05
  0.30060170D-05 -0.13385364D-04 -0.95948532D-05 -0.17304713D-04 -0.25515789D-04
 -0.14041314D-03  0.17608285D-03 -0.36541711D-05  0.58533426D-05 -0.34495695D-04
  0.21283287D-04  0.15979399D-03  0.78728977D-04 -0.47071279D-04 -0.28166945D-04
 -0.36813699D-05 -0.18669285D-06 -0.81437080D-04  0.48441447D-04  0.32995634D-04
 -0.25510960D-04  0.99461371D-05 -0.68061207D-04 -0.12069032D-04  0.51437012D-05
  0.69253313D-05  0.29187889D-05 -0.96896099D-06  0.31324756D-05 -0.35221240D-05
 -0.63522958D-05 -0.93664564D-05 -0.13819533D-03  0.21122530D-04  0.50944623D-05
 -0.18794517D-04  0.20494485D-04  0.11051558D-04  0.12446514D-03  0.25024462D-04
 -0.30586420D-04 -0.13713730D-04  0.49045125D-05 -0.10183751D-04 -0.31688673D-04
  0.11850873D-04  0.19837799D-04 -0.10543038D-03 -0.18824164D-04  0.43969734D-04
 -0.17042300D-05 -0.28204785D-05  0.45247085D-05 -0.10269295D-04  0.90044651D-05
 -0.50451623D-05 -0.24725227D-05 -0.44592965D-05 -0.65752301D-05 -0.13434704D-03
  0.77787821D-04  0.88632241D-05 -0.15937698D-04 -0.14326829D-04 -0.31737823D-04
  0.15429791D-03  0.66454792D-04  0.85712139D-05 -0.13995576D-04  0.20871761D-04
  0.73278149D-05 -0.52019545D-04  0.99395861D-05  0.42079958D-04 -0.24267154D-04
  0.11764034D-03  0.47383051D-04 -0.43279022D-05  0.37932687D-05  0.53463352D-06
 -0.16607914D-04  0.15674842D-04  0.53445316D-05
MO    2     MO 0.0        OCC NO =    2.0000000  ORB. ENERGY =  -19.699290
  0.19041513D-04  0.35497710D-04  0.59997383D-04  0.90195720D-04  0.11081586D-03
  0.93601712D-04  0.35303122D-04 -0.17471712D-06 -0.13022342D-04 -0.24381933D-04
 -0.41512327D-04 -0.64213258D-04 -0.84566601D-04 -0.87870116D-04 -0.55837514D-04
  0.37421003D-04  0.35695295D-04 -0.60142345D-03 -0.67025734D-04  0.60377225D-04
  0.56607486D-04  0.40307902D-04 -0.16079285D-04 -0.15075352D-04 -0.10734549D-04
  0.29853862D-04  0.27989893D-04  0.19930471D-04 -0.23203805D-03  0.14180412D-04
 -0.63248719D-04  0.96595084D-04  0.57477981D-04 -0.21782333D-04  0.75810951D-05
  0.10953968D-04 -0.14528908D-05  0.19685477D-04  0.16271186D-05 -0.21312595D-04
  0.68345531D-04 -0.79532565D-04 -0.36258266D-04  0.70798240D-04 -0.54873868D-04
 -0.15924372D-04  0.49072707D-04  0.30712248D-04  0.58723350D-04  0.19141993D-05
 -0.80190381D-05  0.61048388D-05  0.10130819D-04  0.24960098D-04  0.25796105D-04
 -0.94803153D-05 -0.19931009D-04  0.20498955D-04  0.27706483D-05  0.66029200D-04
 -0.58180275D-04  0.25670298D-04 -0.62361723D-05 -0.33165885D-05  0.72734612D-04
  0.12442436D-04  0.45955954D-07  0.83103035D-05  0.79514378D-05 -0.28034730D-04
  0.45289562D-04 -0.45278747D-04  0.27896862D-04 -0.70220472D-04 -0.56629361D-04
  0.17750610D-03  0.33091173D-03  0.55929912D-03  0.84080978D-03  0.10330320D-02
  0.87256064D-03  0.32909777D-03 -0.16287232D-05 -0.12696367D-03 -0.23771604D-03
 -0.40473190D-03 -0.62605871D-03 -0.82449730D-03 -0.85670551D-03 -0.54439789D-03
  0.36484281D-03 -0.24115136D-03 -0.10061723D-03  0.14193893D-03 -0.13445450D-03
 -0.12605964D-03 -0.89761972D-04 -0.60067980D-04 -0.56317549D-04 -0.40101450D-04
 -0.49597823D-03 -0.46501112D-03 -0.33111562D-03  0.45735522D-03  0.23052315D-03
  0.17005283D-02  0.86300537D-04 -0.27274528D-04  0.22176381D-03  0.19079491D-05
  0.30349592D-06  0.42383076D-05 -0.38684516D-03 -0.39508897D-03  0.78193412D-03
  0.74757242D-04  0.46186278D-03  0.50560961D-03 -0.25374959D-03 -0.25445228D-03
  0.50820187D-03  0.18739560D-03  0.23255492D-03  0.24850715D-03 -0.10511203D-04
  0.33382102D-05  0.71729925D-05  0.24884540D-04  0.13698637D-04 -0.74038120D-07
 -0.96998483D-04 -0.47668657D-04  0.20603621D-03  0.45890859D-04 -0.14517130D-03
 -0.29244082D-03  0.24510459D-03  0.28817727D-03 -0.32566782D-03  0.70535097D-04
 -0.16441548D-04  0.44138868D-05  0.12013105D-04  0.45252659D-04 -0.31069916D-04
 -0.55734364D-05  0.40719859D-05  0.17828255D-04 -0.30465878D-04  0.22597022D-04
  0.49736331D+00  0.92702121D+00  0.15719208D+01  0.23791754D+01  0.29685162D+01
  0.25495595D+01  0.97882548D+00 -0.43783464D-02  0.25050222D-03  0.46982313D-03
  0.80094544D-03  0.12517218D-02  0.16737906D-02  0.17872181D-02  0.10926701D-02
 -0.72087737D-03  0.51794530D-01 -0.15074803D-02 -0.89410715D-03  0.36076579D-02
  0.34982146D-02  0.23598749D-02 -0.60697424D-02 -0.58856084D-02 -0.39703967D-02
 -0.49925201D-02 -0.48410651D-02 -0.32657539D-02 -0.48465378D-03  0.96745362D-03
  0.12146112D-02 -0.31469623D-03  0.57315958D-03  0.48976984D-03 -0.30685379D-04
  0.37975986D-04  0.54127634D-04 -0.46549485D-03 -0.64026739D-03  0.11057622D-02
 -0.13428812D-02  0.18737260D-02 -0.97226216D-04  0.28539163D-03  0.38533610D-03
 -0.67072774D-03  0.68260079D-03 -0.10091170D-02 -0.37978456D-04  0.60619575D-04
  0.40642342D-04 -0.10126192D-03  0.99590108D-04 -0.13329498D-03 -0.28459226D-04
 -0.12784291D-03  0.23954437D-04  0.57450960D-04  0.92761822D-04 -0.93186423D-04
 -0.30230278D-05  0.29076692D-03  0.21323113D-04 -0.16932985D-03 -0.21456127D-03
  0.19851380D-04 -0.97887701D-04  0.18697172D-03 -0.16830352D-03  0.10273427D-03
 -0.32345991D-03  0.10874938D-03  0.19092883D-03 -0.23745526D-03  0.45528907D-03
 -0.20223428D-05 -0.36473785D-05 -0.53780575D-05  0.37229013D-03  0.12687911D-03
  0.24289865D-05 -0.73532363D-05  0.22054523D-05 -0.26211351D-07 -0.12261940D-03
 -0.55037267D-04  0.19167670D-03 -0.33617739D-04 -0.24643139D-04  0.24932341D-04
  0.84634469D-04  0.19013645D-05 -0.86535834D-04  0.34535589D-04 -0.23353071D-04
 -0.10523151D-03 -0.15616243D-04  0.31553052D-06  0.15300712D-04  0.14928821D-04
 -0.63885920D-04 -0.14708600D-04  0.52963140D-06  0.95521204D-06  0.14084596D-05
  0.65887677D-03  0.33417370D-03 -0.95111108D-05  0.39299030D-04 -0.39482655D-04
 -0.18088877D-05  0.26121800D-03 -0.20895119D-03  0.19123413D-03  0.40321513D-04
 -0.39807289D-04  0.51549338D-04  0.58729197D-04  0.80303428D-04 -0.13903263D-03
 -0.14666615D-03 -0.38515489D-04 -0.40907536D-04  0.81587160D-05 -0.43763174D-06
 -0.77210843D-05 -0.25354260D-04  0.14808309D-04 -0.22372848D-04  0.20768632D-06
  0.37457082D-06  0.55230446D-06  0.38527100D-03  0.25778410D-04 -0.35254748D-05
  0.96843938D-05  0.37931105D-06 -0.89381799D-05  0.96560776D-04  0.23316030D-03
  0.94958105D-04  0.15883714D-04  0.29797831D-04  0.25268776D-04  0.20373357D-04
  0.78732872D-04 -0.99106229D-04  0.39661108D-04 -0.42603174D-05 -0.12179021D-03
 -0.41335050D-05  0.17171933D-04 -0.13038428D-04  0.26737568D-04  0.56252731D-05
  0.40695422D-04  0.31310958D-04  0.58534017D-04  0.10116506D-03  0.16362994D-03
  0.24731707D-03  0.34059619D-03  0.39807798D-03  0.34396941D-03  0.16042856D-03
  0.21782732D-04  0.58328790D-07  0.11441697D-06  0.52236128D-08 -0.43432292D-04
 -0.81111655D-04 -0.14070072D-03 -0.22814135D-03 -0.35124957D-03 -0.50025829D-03
 -0.64326722D-03 -0.67523917D-03 -0.47744194D-03  0.10573152D-04  0.34304820D-03
  0.18889165D-03 -0.79881959D-06  0.16798268D-04  0.31348054D-04  0.54447817D-04
  0.88193383D-04  0.13623297D-03  0.19422056D-03  0.25261751D-03  0.26922217D-03
  0.19967648D-03 -0.62151875D-05 -0.18089649D-03 -0.17721613D-03  0.82770442D-04
 -0.46510054D-03  0.95735117D-03  0.22419258D-03 -0.83090413D-02 -0.10901010D-01
 -0.11956746D-01 -0.98382002D-02 -0.51868937D-02 -0.13493846D-02  0.14932316D-05
  0.78834871D-02  0.10342706D-01  0.11344372D-01  0.93343289D-02  0.49212428D-02
  0.12802748D-02 -0.14167546D-05 -0.48448813D-02 -0.63562204D-02 -0.69718050D-02
 -0.57365116D-02 -0.30244024D-02 -0.78680655D-03  0.87068167D-06  0.75516528D-02
  0.99153661D-02  0.11155455D-01  0.93993146D-02  0.52578448D-02  0.13086669D-02
 -0.60021768D-03 -0.71928193D-02 -0.94442155D-02 -0.10625379D-01 -0.89526854D-02
 -0.50080067D-02 -0.12464827D-02  0.57169701D-03  0.44176306D-02  0.58003759D-02
  0.65258139D-02  0.54984916D-02  0.30757791D-02  0.76555516D-03 -0.35112049D-03
  0.50140369D-03 -0.46057074D-03  0.28711262D-03 -0.96721014D-04  0.18425700D-03
 -0.13028584D-03  0.43792598D-05  0.21052819D-05 -0.67265115D-05  0.78291272D-04
  0.82625720D-05 -0.86553844D-04 -0.47072643D-03  0.33306230D-03 -0.26376305D-03
  0.27418960D-04  0.42929599D-04 -0.70348559D-04 -0.19604193D-03  0.51289522D-04
 -0.13086902D-03  0.38442565D-05 -0.19272475D-05 -0.19170090D-05 -0.78668909D-05
  0.20117067D-04 -0.16759331D-04  0.58423651D-04 -0.71403162D-04  0.11155578D-03
 -0.25616995D-03  0.28885122D-03 -0.18190026D-03  0.80898991D-04 -0.74641736D-04
 -0.15276707D-03  0.62626267D-03  0.22262629D-04 -0.45686449D-05  0.53172461D-05
 -0.35565404D-04 -0.94928942D-06  0.22392797D-05 -0.31222485D-04  0.14655224D-04
 -0.18191018D-04  0.69244957D-04 -0.11340119D-04 -0.20452372D-04 -0.30157010D-04
  0.18004897D-03  0.10823900D-03  0.12057348D-04 -0.40246909D-06  0.39697278D-04
 -0.38183972D-04 -0.21933381D-03 -0.12267606D-04 -0.19907188D-05 -0.31736645D-04
 -0.23288087D-04 -0.19622164D-04  0.66552586D-04 -0.35779773D-04 -0.30772813D-04
 -0.58027337D-04  0.54663520D-04 -0.35907726D-04  0.38856830D-05 -0.61717378D-05
  0.22860549D-05 -0.12439687D-04  0.74649005D-05 -0.51395896D-06 -0.45756796D-05
 -0.82524266D-05 -0.12168198D-04  0.24373093D-03  0.32378045D-04 -0.19980473D-04
  0.29112360D-04 -0.28549159D-05 -0.21782067D-04 -0.27731762D-04 -0.83818632D-04
 -0.13167362D-04 -0.41283497D-04  0.10849418D-05 -0.27342908D-04  0.22063323D-04
  0.25438744D-05 -0.24607198D-04 -0.12880146D-04  0.61285871D-04  0.46430096D-04
  0.39954250D-05 -0.52515146D-06 -0.34702736D-05  0.21308354D-05  0.11591867D-04