 Molden2AIM, Version 4.0.0 (06/02/2016)           Time: Tue Jul  3 03:15:24 2018
GAUSSIAN             20 MOL ORBITALS    564 PRIMITIVES       12 NUCLEI
  H    1    (CENTRE  1)   2.19421392 -3.27228566  0.00000000  CHARGE =  1.0
  H    2    (CENTRE  2)   3.84906598 -0.43672138  0.00000000  CHARGE =  1.0
  H    3    (CENTRE  3)  -2.36021880 -2.81012857  1.66318387  CHARGE =  1.0
  H    4    (CENTRE  4)  -2.36021880 -2.81012857 -1.66318387  CHARGE =  1.0
  H    5    (CENTRE  5)  -6.46761223 -1.13459534  0.00000000  CHARGE =  1.0
  H    6    (CENTRE  6)  -4.82254139  1.28666161 -1.66894753  CHARGE =  1.0
  H    7    (CENTRE  7)  -4.82254139  1.28666161  1.66894753  CHARGE =  1.0
  C    8    (CENTRE  8)   0.00572209  0.00052534  0.00000000  CHARGE =  6.0
  C    9    (CENTRE  9)  -2.40274330 -1.55948704  0.00000000  CHARGE =  6.0
  C   10    (CENTRE 10)  -4.77176822  0.05960196  0.00000000  CHARGE =  6.0
  O   11    (CENTRE 11)   0.01928088  2.30624255  0.00000000  CHARGE =  8.0
  N   12    (CENTRE 12)   2.18861466 -1.37044828  0.00000000  CHARGE =  7.0
CENTRE ASSIGNMENTS    1  1  1  1  1  1  1  1  1  1  1  1  1  1  1  1  1  1  1  1
CENTRE ASSIGNMENTS    1  1  1  1  1  1  1  2  2  2  2  2  2  2  2  2  2  2  2  2
CENTRE ASSIGNMENTS    2  2  2  2  2  2  2  2  2  2  2  2  2  2  3  3  3  3  3  3
CENTRE ASSIGNMENTS    3  3  3  3  3  3  3  3  3  3  3  3  3  3  3  3  3  3  3  3
CENTRE ASSIGNMENTS    3  4  4  4  4  4  4  4  4  4  4  4  4  4  4  4  4  4  4  4
CENTRE ASSIGNMENTS    4  4  4  4  4  4  4  4  5  5  5  5  5  5  5  5  5  5  5  5
CENTRE ASSIGNMENTS    5  5  5  5  5  5  5  5  5  5  5  5  5  5  5  6  6  6  6  6
CENTRE ASSIGNMENTS    6  6  6  6  6  6  6  6  6  6  6  6  6  6  6  6  6  6  6  6
CENTRE ASSIGNMENTS    6  6  7  7  7  7  7  7  7  7  7  7  7  7  7  7  7  7  7  7
CENTRE ASSIGNMENTS    7  7  7  7  7  7  7  7  7  8  8  8  8  8  8  8  8  8  8  8
CENTRE ASSIGNMENTS    8  8  8  8  8  8  8  8  8  8  8  8  8  8  8  8  8  8  8  8
CENTRE ASSIGNMENTS    8  8  8  8  8  8  8  8  8  8  8  8  8  8  8  8  8  8  8  8
CENTRE ASSIGNMENTS    8  8  8  8  8  8  8  8  8  8  8  8  8  8  8  8  8  8  8  8
CENTRE ASSIGNMENTS    8  8  8  8  9  9  9  9  9  9  9  9  9  9  9  9  9  9  9  9
CENTRE ASSIGNMENTS    9  9  9  9  9  9  9  9  9  9  9  9  9  9  9  9  9  9  9  9
CENTRE ASSIGNMENTS    9  9  9  9  9  9  9  9  9  9  9  9  9  9  9  9  9  9  9  9
CENTRE ASSIGNMENTS    9  9  9  9  9  9  9  9  9  9  9  9  9  9  9  9  9  9  9 10
CENTRE ASSIGNMENTS   10 10 10 10 10 10 10 10 10 10 10 10 10 10 10 10 10 10 10 10
CENTRE ASSIGNMENTS   10 10 10 10 10 10 10 10 10 10 10 10 10 10 10 10 10 10 10 10
CENTRE ASSIGNMENTS   10 10 10 10 10 10 10 10 10 10 10 10 10 10 10 10 10 10 10 10
CENTRE ASSIGNMENTS   10 10 10 10 10 10 10 10 10 10 10 10 10 10 11 11 11 11 11 11
CENTRE ASSIGNMENTS   11 11 11 11 11 11 11 11 11 11 11 11 11 11 11 11 11 11 11 11
CENTRE ASSIGNMENTS   11 11 11 11 11 11 11 11 11 11 11 11 11 11 11 11 11 11 11 11
CENTRE ASSIGNMENTS   11 11 11 11 11 11 11 11 11 11 11 11 11 11 11 11 11 11 11 11
CENTRE ASSIGNMENTS   11 11 11 11 11 11 11 11 11 12 12 12 12 12 12 12 12 12 12 12
CENTRE ASSIGNMENTS   12 12 12 12 12 12 12 12 12 12 12 12 12 12 12 12 12 12 12 12
CENTRE ASSIGNMENTS   12 12 12 12 12 12 12 12 12 12 12 12 12 12 12 12 12 12 12 12
CENTRE ASSIGNMENTS   12 12 12 12 12 12 12 12 12 12 12 12 12 12 12 12 12 12 12 12
CENTRE ASSIGNMENTS   12 12 12 12
TYPE ASSIGNMENTS      1  1  1  1  1  1  2  3  4  2  3  4  2  3  4  5  6  7  8  9
TYPE ASSIGNMENTS     10  5  6  7  8  9 10  1  1  1  1  1  1  2  3  4  2  3  4  2
TYPE ASSIGNMENTS      3  4  5  6  7  8  9 10  5  6  7  8  9 10  1  1  1  1  1  1
TYPE ASSIGNMENTS      2  3  4  2  3  4  2  3  4  5  6  7  8  9 10  5  6  7  8  9
TYPE ASSIGNMENTS     10  1  1  1  1  1  1  2  3  4  2  3  4  2  3  4  5  6  7  8
TYPE ASSIGNMENTS      9 10  5  6  7  8  9 10  1  1  1  1  1  1  2  3  4  2  3  4
TYPE ASSIGNMENTS      2  3  4  5  6  7  8  9 10  5  6  7  8  9 10  1  1  1  1  1
TYPE ASSIGNMENTS      1  2  3  4  2  3  4  2  3  4  5  6  7  8  9 10  5  6  7  8
TYPE ASSIGNMENTS      9 10  1  1  1  1  1  1  2  3  4  2  3  4  2  3  4  5  6  7
TYPE ASSIGNMENTS      8  9 10  5  6  7  8  9 10  1  1  1  1  1  1  1  1  1  1  1
TYPE ASSIGNMENTS      1  1  1  1  1  1  1  1  2  2  2  3  3  3  4  4  4  2  3  4
TYPE ASSIGNMENTS      2  3  4  2  3  4  5  6  7  8  9 10  5  6  7  8  9 10  5  6
TYPE ASSIGNMENTS      7  8  9 10 11 12 13 17 14 15 18 19 16 20 11 12 13 17 14 15
TYPE ASSIGNMENTS     18 19 16 20  1  1  1  1  1  1  1  1  1  1  1  1  1  1  1  1
TYPE ASSIGNMENTS      1  1  1  2  2  2  3  3  3  4  4  4  2  3  4  2  3  4  2  3
TYPE ASSIGNMENTS      4  5  6  7  8  9 10  5  6  7  8  9 10  5  6  7  8  9 10 11
TYPE ASSIGNMENTS     12 13 17 14 15 18 19 16 20 11 12 13 17 14 15 18 19 16 20  1
TYPE ASSIGNMENTS      1  1  1  1  1  1  1  1  1  1  1  1  1  1  1  1  1  1  2  2
TYPE ASSIGNMENTS      2  3  3  3  4  4  4  2  3  4  2  3  4  2  3  4  5  6  7  8
TYPE ASSIGNMENTS      9 10  5  6  7  8  9 10  5  6  7  8  9 10 11 12 13 17 14 15
TYPE ASSIGNMENTS     18 19 16 20 11 12 13 17 14 15 18 19 16 20  1  1  1  1  1  1
TYPE ASSIGNMENTS      1  1  1  1  1  1  1  1  1  1  1  1  1  2  2  2  3  3  3  4
TYPE ASSIGNMENTS      4  4  2  3  4  2  3  4  2  3  4  5  6  7  8  9 10  5  6  7
TYPE ASSIGNMENTS      8  9 10  5  6  7  8  9 10 11 12 13 17 14 15 18 19 16 20 11
TYPE ASSIGNMENTS     12 13 17 14 15 18 19 16 20  1  1  1  1  1  1  1  1  1  1  1
TYPE ASSIGNMENTS      1  1  1  1  1  1  1  1  2  2  2  3  3  3  4  4  4  2  3  4
TYPE ASSIGNMENTS      2  3  4  2  3  4  5  6  7  8  9 10  5  6  7  8  9 10  5  6
TYPE ASSIGNMENTS      7  8  9 10 11 12 13 17 14 15 18 19 16 20 11 12 13 17 14 15
TYPE ASSIGNMENTS     18 19 16 20
EXPONENTS  0.3387000D+02 0.5095000D+01 0.1159000D+01 0.3258000D+00 0.1027000D+00
EXPONENTS  0.2526000D-01 0.1407000D+01 0.1407000D+01 0.1407000D+01 0.3880000D+00
EXPONENTS  0.3880000D+00 0.3880000D+00 0.1020000D+00 0.1020000D+00 0.1020000D+00
EXPONENTS  0.1057000D+01 0.1057000D+01 0.1057000D+01 0.1057000D+01 0.1057000D+01
EXPONENTS  0.1057000D+01 0.2470000D+00 0.2470000D+00 0.2470000D+00 0.2470000D+00
EXPONENTS  0.2470000D+00 0.2470000D+00 0.3387000D+02 0.5095000D+01 0.1159000D+01
EXPONENTS  0.3258000D+00 0.1027000D+00 0.2526000D-01 0.1407000D+01 0.1407000D+01
EXPONENTS  0.1407000D+01 0.3880000D+00 0.3880000D+00 0.3880000D+00 0.1020000D+00
EXPONENTS  0.1020000D+00 0.1020000D+00 0.1057000D+01 0.1057000D+01 0.1057000D+01
EXPONENTS  0.1057000D+01 0.1057000D+01 0.1057000D+01 0.2470000D+00 0.2470000D+00
EXPONENTS  0.2470000D+00 0.2470000D+00 0.2470000D+00 0.2470000D+00 0.3387000D+02
EXPONENTS  0.5095000D+01 0.1159000D+01 0.3258000D+00 0.1027000D+00 0.2526000D-01
EXPONENTS  0.1407000D+01 0.1407000D+01 0.1407000D+01 0.3880000D+00 0.3880000D+00
EXPONENTS  0.3880000D+00 0.1020000D+00 0.1020000D+00 0.1020000D+00 0.1057000D+01
EXPONENTS  0.1057000D+01 0.1057000D+01 0.1057000D+01 0.1057000D+01 0.1057000D+01
EXPONENTS  0.2470000D+00 0.2470000D+00 0.2470000D+00 0.2470000D+00 0.2470000D+00
EXPONENTS  0.2470000D+00 0.3387000D+02 0.5095000D+01 0.1159000D+01 0.3258000D+00
EXPONENTS  0.1027000D+00 0.2526000D-01 0.1407000D+01 0.1407000D+01 0.1407000D+01
EXPONENTS  0.3880000D+00 0.3880000D+00 0.3880000D+00 0.1020000D+00 0.1020000D+00
EXPONENTS  0.1020000D+00 0.1057000D+01 0.1057000D+01 0.1057000D+01 0.1057000D+01
EXPONENTS  0.1057000D+01 0.1057000D+01 0.2470000D+00 0.2470000D+00 0.2470000D+00
EXPONENTS  0.2470000D+00 0.2470000D+00 0.2470000D+00 0.3387000D+02 0.5095000D+01
EXPONENTS  0.1159000D+01 0.3258000D+00 0.1027000D+00 0.2526000D-01 0.1407000D+01
EXPONENTS  0.1407000D+01 0.1407000D+01 0.3880000D+00 0.3880000D+00 0.3880000D+00
EXPONENTS  0.1020000D+00 0.1020000D+00 0.1020000D+00 0.1057000D+01 0.1057000D+01
EXPONENTS  0.1057000D+01 0.1057000D+01 0.1057000D+01 0.1057000D+01 0.2470000D+00
EXPONENTS  0.2470000D+00 0.2470000D+00 0.2470000D+00 0.2470000D+00 0.2470000D+00
EXPONENTS  0.3387000D+02 0.5095000D+01 0.1159000D+01 0.3258000D+00 0.1027000D+00
EXPONENTS  0.2526000D-01 0.1407000D+01 0.1407000D+01 0.1407000D+01 0.3880000D+00
EXPONENTS  0.3880000D+00 0.3880000D+00 0.1020000D+00 0.1020000D+00 0.1020000D+00
EXPONENTS  0.1057000D+01 0.1057000D+01 0.1057000D+01 0.1057000D+01 0.1057000D+01
EXPONENTS  0.1057000D+01 0.2470000D+00 0.2470000D+00 0.2470000D+00 0.2470000D+00
EXPONENTS  0.2470000D+00 0.2470000D+00 0.3387000D+02 0.5095000D+01 0.1159000D+01
EXPONENTS  0.3258000D+00 0.1027000D+00 0.2526000D-01 0.1407000D+01 0.1407000D+01
EXPONENTS  0.1407000D+01 0.3880000D+00 0.3880000D+00 0.3880000D+00 0.1020000D+00
EXPONENTS  0.1020000D+00 0.1020000D+00 0.1057000D+01 0.1057000D+01 0.1057000D+01
EXPONENTS  0.1057000D+01 0.1057000D+01 0.1057000D+01 0.2470000D+00 0.2470000D+00
EXPONENTS  0.2470000D+00 0.2470000D+00 0.2470000D+00 0.2470000D+00 0.8236000D+04
EXPONENTS  0.1235000D+04 0.2808000D+03 0.7927000D+02 0.2559000D+02 0.8997000D+01
EXPONENTS  0.3319000D+01 0.3643000D+00 0.8236000D+04 0.1235000D+04 0.2808000D+03
EXPONENTS  0.7927000D+02 0.2559000D+02 0.8997000D+01 0.3319000D+01 0.3643000D+00
EXPONENTS  0.9059000D+00 0.1285000D+00 0.4402000D-01 0.1871000D+02 0.4133000D+01
EXPONENTS  0.1200000D+01 0.1871000D+02 0.4133000D+01 0.1200000D+01 0.1871000D+02
EXPONENTS  0.4133000D+01 0.1200000D+01 0.3827000D+00 0.3827000D+00 0.3827000D+00
EXPONENTS  0.1209000D+00 0.1209000D+00 0.1209000D+00 0.3569000D-01 0.3569000D-01
EXPONENTS  0.3569000D-01 0.1097000D+01 0.1097000D+01 0.1097000D+01 0.1097000D+01
EXPONENTS  0.1097000D+01 0.1097000D+01 0.3180000D+00 0.3180000D+00 0.3180000D+00
EXPONENTS  0.3180000D+00 0.3180000D+00 0.3180000D+00 0.1000000D+00 0.1000000D+00
EXPONENTS  0.1000000D+00 0.1000000D+00 0.1000000D+00 0.1000000D+00 0.7610000D+00
EXPONENTS  0.7610000D+00 0.7610000D+00 0.7610000D+00 0.7610000D+00 0.7610000D+00
EXPONENTS  0.7610000D+00 0.7610000D+00 0.7610000D+00 0.7610000D+00 0.2680000D+00
EXPONENTS  0.2680000D+00 0.2680000D+00 0.2680000D+00 0.2680000D+00 0.2680000D+00
EXPONENTS  0.2680000D+00 0.2680000D+00 0.2680000D+00 0.2680000D+00 0.8236000D+04
EXPONENTS  0.1235000D+04 0.2808000D+03 0.7927000D+02 0.2559000D+02 0.8997000D+01
EXPONENTS  0.3319000D+01 0.3643000D+00 0.8236000D+04 0.1235000D+04 0.2808000D+03
EXPONENTS  0.7927000D+02 0.2559000D+02 0.8997000D+01 0.3319000D+01 0.3643000D+00
EXPONENTS  0.9059000D+00 0.1285000D+00 0.4402000D-01 0.1871000D+02 0.4133000D+01
EXPONENTS  0.1200000D+01 0.1871000D+02 0.4133000D+01 0.1200000D+01 0.1871000D+02
EXPONENTS  0.4133000D+01 0.1200000D+01 0.3827000D+00 0.3827000D+00 0.3827000D+00
EXPONENTS  0.1209000D+00 0.1209000D+00 0.1209000D+00 0.3569000D-01 0.3569000D-01
EXPONENTS  0.3569000D-01 0.1097000D+01 0.1097000D+01 0.1097000D+01 0.1097000D+01
EXPONENTS  0.1097000D+01 0.1097000D+01 0.3180000D+00 0.3180000D+00 0.3180000D+00
EXPONENTS  0.3180000D+00 0.3180000D+00 0.3180000D+00 0.1000000D+00 0.1000000D+00
EXPONENTS  0.1000000D+00 0.1000000D+00 0.1000000D+00 0.1000000D+00 0.7610000D+00
EXPONENTS  0.7610000D+00 0.7610000D+00 0.7610000D+00 0.7610000D+00 0.7610000D+00
EXPONENTS  0.7610000D+00 0.7610000D+00 0.7610000D+00 0.7610000D+00 0.2680000D+00
EXPONENTS  0.2680000D+00 0.2680000D+00 0.2680000D+00 0.2680000D+00 0.2680000D+00
EXPONENTS  0.2680000D+00 0.2680000D+00 0.2680000D+00 0.2680000D+00 0.8236000D+04
EXPONENTS  0.1235000D+04 0.2808000D+03 0.7927000D+02 0.2559000D+02 0.8997000D+01
EXPONENTS  0.3319000D+01 0.3643000D+00 0.8236000D+04 0.1235000D+04 0.2808000D+03
EXPONENTS  0.7927000D+02 0.2559000D+02 0.8997000D+01 0.3319000D+01 0.3643000D+00
EXPONENTS  0.9059000D+00 0.1285000D+00 0.4402000D-01 0.1871000D+02 0.4133000D+01
EXPONENTS  0.1200000D+01 0.1871000D+02 0.4133000D+01 0.1200000D+01 0.1871000D+02
EXPONENTS  0.4133000D+01 0.1200000D+01 0.3827000D+00 0.3827000D+00 0.3827000D+00
EXPONENTS  0.1209000D+00 0.1209000D+00 0.1209000D+00 0.3569000D-01 0.3569000D-01
EXPONENTS  0.3569000D-01 0.1097000D+01 0.1097000D+01 0.1097000D+01 0.1097000D+01
EXPONENTS  0.1097000D+01 0.1097000D+01 0.3180000D+00 0.3180000D+00 0.3180000D+00
EXPONENTS  0.3180000D+00 0.3180000D+00 0.3180000D+00 0.1000000D+00 0.1000000D+00
EXPONENTS  0.1000000D+00 0.1000000D+00 0.1000000D+00 0.1000000D+00 0.7610000D+00
EXPONENTS  0.7610000D+00 0.7610000D+00 0.7610000D+00 0.7610000D+00 0.7610000D+00
EXPONENTS  0.7610000D+00 0.7610000D+00 0.7610000D+00 0.7610000D+00 0.2680000D+00
EXPONENTS  0.2680000D+00 0.2680000D+00 0.2680000D+00 0.2680000D+00 0.2680000D+00
EXPONENTS  0.2680000D+00 0.2680000D+00 0.2680000D+00 0.2680000D+00 0.1533000D+05
EXPONENTS  0.2299000D+04 0.5224000D+03 0.1473000D+03 0.4755000D+02 0.1676000D+02
EXPONENTS  0.6207000D+01 0.6882000D+00 0.1533000D+05 0.2299000D+04 0.5224000D+03
EXPONENTS  0.1473000D+03 0.4755000D+02 0.1676000D+02 0.6207000D+01 0.6882000D+00
EXPONENTS  0.1752000D+01 0.2384000D+00 0.7376000D-01 0.3446000D+02 0.7749000D+01
EXPONENTS  0.2280000D+01 0.3446000D+02 0.7749000D+01 0.2280000D+01 0.3446000D+02
EXPONENTS  0.7749000D+01 0.2280000D+01 0.7156000D+00 0.7156000D+00 0.7156000D+00
EXPONENTS  0.2140000D+00 0.2140000D+00 0.2140000D+00 0.5974000D-01 0.5974000D-01
EXPONENTS  0.5974000D-01 0.2314000D+01 0.2314000D+01 0.2314000D+01 0.2314000D+01
EXPONENTS  0.2314000D+01 0.2314000D+01 0.6450000D+00 0.6450000D+00 0.6450000D+00
EXPONENTS  0.6450000D+00 0.6450000D+00 0.6450000D+00 0.2140000D+00 0.2140000D+00
EXPONENTS  0.2140000D+00 0.2140000D+00 0.2140000D+00 0.2140000D+00 0.1428000D+01
EXPONENTS  0.1428000D+01 0.1428000D+01 0.1428000D+01 0.1428000D+01 0.1428000D+01
EXPONENTS  0.1428000D+01 0.1428000D+01 0.1428000D+01 0.1428000D+01 0.5000000D+00
EXPONENTS  0.5000000D+00 0.5000000D+00 0.5000000D+00 0.5000000D+00 0.5000000D+00
EXPONENTS  0.5000000D+00 0.5000000D+00 0.5000000D+00 0.5000000D+00 0.1142000D+05
EXPONENTS  0.1712000D+04 0.3893000D+03 0.1100000D+03 0.3557000D+02 0.1254000D+02
EXPONENTS  0.4644000D+01 0.5118000D+00 0.1142000D+05 0.1712000D+04 0.3893000D+03
EXPONENTS  0.1100000D+03 0.3557000D+02 0.1254000D+02 0.4644000D+01 0.5118000D+00
EXPONENTS  0.1293000D+01 0.1787000D+00 0.5760000D-01 0.2663000D+02 0.5948000D+01
EXPONENTS  0.1742000D+01 0.2663000D+02 0.5948000D+01 0.1742000D+01 0.2663000D+02
EXPONENTS  0.5948000D+01 0.1742000D+01 0.5550000D+00 0.5550000D+00 0.5550000D+00
EXPONENTS  0.1725000D+00 0.1725000D+00 0.1725000D+00 0.4910000D-01 0.4910000D-01
EXPONENTS  0.4910000D-01 0.1654000D+01 0.1654000D+01 0.1654000D+01 0.1654000D+01
EXPONENTS  0.1654000D+01 0.1654000D+01 0.4690000D+00 0.4690000D+00 0.4690000D+00
EXPONENTS  0.4690000D+00 0.4690000D+00 0.4690000D+00 0.1510000D+00 0.1510000D+00
EXPONENTS  0.1510000D+00 0.1510000D+00 0.1510000D+00 0.1510000D+00 0.1093000D+01
EXPONENTS  0.1093000D+01 0.1093000D+01 0.1093000D+01 0.1093000D+01 0.1093000D+01
EXPONENTS  0.1093000D+01 0.1093000D+01 0.1093000D+01 0.1093000D+01 0.3640000D+00
EXPONENTS  0.3640000D+00 0.3640000D+00 0.3640000D+00 0.3640000D+00 0.3640000D+00
EXPONENTS  0.3640000D+00 0.3640000D+00 0.3640000D+00 0.3640000D+00
MO    1     MO 0.0        OCC NO =    2.0000000  ORB. ENERGY =  -19.628122
 -0.12710908D-04 -0.22924646D-04 -0.33802377D-04  0.47632102D-04  0.95361962D-03
 -0.47073828D-05 -0.15270395D-03  0.29714769D-03  0.38719756D-15 -0.55721365D-03
  0.39029347D-03 -0.18326443D-15 -0.87056574D-04  0.18598588D-03 -0.19589113D-16
 -0.95686043D-04  0.27283763D-03 -0.17715158D-03 -0.40891553D-03 -0.77150157D-16
 -0.11043587D-15 -0.24774638D-04  0.54877088D-04 -0.30102449D-04 -0.10819724D-03
  0.12567023D-15 -0.11761132D-16 -0.47731481D-04 -0.86085692D-04 -0.12693330D-03
 -0.23107885D-03 -0.75387113D-03 -0.20700293D-04 -0.67238556D-04 -0.39242670D-04
  0.57291047D-16 -0.16447806D-03 -0.35277487D-03 -0.12940900D-15  0.10660701D-03
  0.28409042D-04 -0.59037645D-16  0.18558492D-03  0.83913401D-04 -0.26949832D-03
  0.13784412D-03 -0.41654493D-17  0.78643065D-16 -0.40639916D-05  0.28269118D-04
 -0.24205127D-04  0.10573064D-03  0.89593207D-16 -0.53609793D-16  0.61717673D-05
  0.11131036D-04  0.16412707D-04  0.50786826D-03  0.23144369D-03  0.96267911D-05
  0.33572028D-04 -0.79048130D-06 -0.82088889D-04 -0.85274828D-04  0.19198879D-03
 -0.17884905D-03  0.52205718D-05  0.14410025D-04 -0.22057491D-04 -0.28155348D-04
 -0.36147921D-04  0.64303269D-04 -0.51181879D-04  0.34171098D-05 -0.10783745D-03
 -0.84226836D-05 -0.67465368D-05  0.15169220D-04 -0.42199856D-04  0.18965165D-04
 -0.53190896D-04  0.61717673D-05  0.11131036D-04  0.16412707D-04  0.50786826D-03
  0.23144369D-03  0.96267911D-05  0.33572028D-04 -0.79048130D-06  0.82088889D-04
 -0.85274828D-04  0.19198879D-03  0.17884905D-03  0.52205718D-05  0.14410025D-04
  0.22057491D-04 -0.28155348D-04 -0.36147921D-04  0.64303269D-04 -0.51181879D-04
 -0.34171098D-05  0.10783745D-03 -0.84226836D-05 -0.67465368D-05  0.15169220D-04
 -0.42199856D-04 -0.18965165D-04  0.53190896D-04 -0.71733711D-05 -0.12937470D-04
 -0.19076292D-04 -0.83394602D-03 -0.70987688D-03 -0.11928496D-04 -0.24369778D-04
  0.33092078D-04 -0.10528529D-15 -0.79078851D-04 -0.26702099D-03  0.34058739D-16
 -0.88085960D-04 -0.46312323D-04 -0.35680086D-15  0.41481600D-04 -0.96272053D-05
 -0.31854394D-04  0.99347431D-06 -0.59875882D-16  0.88378144D-16  0.27134721D-04
 -0.25509778D-04 -0.16249435D-05  0.18549439D-04 -0.42278187D-16 -0.22223324D-16
 -0.36265711D-05 -0.65406703D-05 -0.96442146D-05  0.25146933D-03 -0.13292097D-03
  0.39255412D-05 -0.32627688D-04  0.39151012D-05  0.13565021D-04 -0.25300479D-04
 -0.91963881D-04  0.78359182D-04 -0.15837706D-04  0.10607457D-04 -0.23131199D-04
  0.19534384D-04 -0.83231137D-05 -0.11211270D-04  0.17543898D-04  0.21031499D-04
 -0.38612168D-05 -0.21821094D-05  0.25243332D-05 -0.34222381D-06  0.37216774D-04
  0.50110735D-05 -0.12225413D-04 -0.36265711D-05 -0.65406703D-05 -0.96442146D-05
  0.25146933D-03 -0.13292097D-03  0.39255412D-05 -0.32627688D-04  0.39151012D-05
 -0.13565021D-04 -0.25300479D-04 -0.91963881D-04 -0.78359182D-04 -0.15837706D-04
  0.10607457D-04  0.23131199D-04  0.19534384D-04 -0.83231137D-05 -0.11211270D-04
  0.17543898D-04 -0.21031499D-04  0.38612168D-05 -0.21821094D-05  0.25243332D-05
 -0.34222381D-06  0.37216774D-04 -0.50110735D-05  0.12225413D-04  0.42984431D-03
  0.80132753D-03  0.13543847D-02  0.20360838D-02  0.25015642D-02  0.21129709D-02
  0.79693488D-03 -0.39440752D-05 -0.33274245D-03 -0.62299885D-03 -0.10607088D-02
 -0.16407553D-02 -0.21608170D-02 -0.22452273D-02 -0.14267411D-02  0.95616873D-03
  0.78841738D-03 -0.60601204D-04 -0.25985167D-03 -0.14762737D-03 -0.13841004D-03
 -0.98556194D-04  0.62671593D-03  0.58758602D-03  0.41839625D-03  0.62686807D-16
  0.58772866D-16  0.41849782D-16  0.41910444D-03  0.24480136D-02 -0.86562809D-16
 -0.48812409D-03 -0.56280233D-03 -0.15437509D-14  0.42106476D-04 -0.19466490D-05
 -0.51975534D-16 -0.63516991D-03  0.10790250D-02 -0.44385509D-03  0.12500208D-03
 -0.61166036D-16 -0.90220547D-16  0.14530623D-03 -0.32111972D-03  0.17581348D-03
  0.36900599D-03  0.88967232D-16 -0.24071424D-15  0.19327839D-03 -0.23235208D-03
  0.39073690D-04  0.87053742D-04  0.13756627D-15  0.14313616D-15  0.10632618D-03
 -0.19901637D-03 -0.51259754D-16 -0.24114182D-03  0.68582151D-03  0.10882885D-15
 -0.77836719D-04 -0.88772389D-04  0.44950411D-16 -0.43740019D-16  0.29828176D-04
 -0.24422475D-03  0.53857527D-16 -0.13765766D-03  0.64716459D-03 -0.12067182D-16
  0.48173130D-04  0.85509661D-04 -0.14950540D-15  0.40196880D-16  0.10313349D-03
  0.19226428D-03  0.32496050D-03  0.48852208D-03  0.60020582D-03  0.50696976D-03
  0.19121034D-03 -0.94631066D-06 -0.73406191D-04 -0.13743955D-03 -0.23400260D-03
 -0.36196643D-03 -0.47669706D-03 -0.49531878D-03 -0.31475285D-03  0.21094004D-03
  0.73056718D-04 -0.12390719D-02  0.26615495D-03 -0.13183608D-03 -0.12360470D-03
 -0.88013913D-04 -0.14019165D-03 -0.13143858D-03 -0.93592099D-04 -0.33380644D-15
 -0.31296475D-15 -0.22284955D-15  0.64905403D-03  0.71095192D-03  0.10372211D-14
 -0.63543995D-03 -0.15289097D-03  0.14548697D-14  0.54316363D-05  0.13732681D-04
  0.13925458D-15 -0.46400194D-04  0.23387540D-03 -0.18747520D-03  0.20856633D-03
  0.51024474D-16 -0.28101367D-15  0.35600868D-03 -0.25453068D-03 -0.10147800D-03
  0.50633835D-03  0.30590817D-15 -0.11369078D-14  0.60585895D-04 -0.26067215D-04
 -0.34518679D-04 -0.88007042D-04  0.64738301D-15  0.10645660D-15  0.77278837D-05
 -0.79122451D-04  0.40127078D-16  0.71221379D-04  0.10442917D-03 -0.35754113D-15
 -0.94405030D-04  0.13293818D-03  0.23715989D-15 -0.15175131D-15 -0.80798282D-04
 -0.98618896D-04 -0.30400370D-16  0.13630712D-03  0.20030660D-03 -0.12094945D-15
  0.10608773D-03  0.95550093D-04  0.21215056D-15 -0.96523220D-17 -0.75584281D-04
 -0.14090628D-03 -0.23815644D-03 -0.35802714D-03 -0.43987771D-03 -0.37154705D-03
 -0.14013388D-03  0.69353038D-06  0.56865029D-04  0.10646928D-03  0.18127305D-03
  0.28040185D-03  0.36927937D-03  0.38370492D-03  0.24382725D-03 -0.16340735D-03
 -0.16629190D-03 -0.16140034D-03  0.27632614D-04 -0.12444268D-03 -0.11667292D-03
 -0.83078073D-04 -0.21162202D-04 -0.19840909D-04 -0.14127910D-04  0.26522611D-15
  0.24866633D-15  0.17706524D-15  0.78246240D-04  0.10971440D-03 -0.15128067D-14
 -0.46773484D-03  0.55418043D-04 -0.19145585D-14 -0.21468933D-05 -0.25115052D-05
 -0.90326654D-16 -0.10037234D-03  0.55019952D-04  0.45352385D-04 -0.72352444D-04
 -0.13927895D-16 -0.20906865D-15  0.41891528D-03 -0.23907418D-03 -0.17984109D-03
  0.36628446D-03  0.14155596D-15 -0.15307414D-14  0.25057294D-05  0.36238348D-05
 -0.61295642D-05  0.26264146D-04 -0.13772497D-15 -0.57383922D-15  0.10171833D-03
  0.83484727D-05 -0.38764270D-16 -0.18691683D-03  0.59876168D-04  0.38430163D-15
 -0.11823815D-03 -0.84921586D-04 -0.26800882D-15  0.21380833D-18 -0.83265683D-05
  0.46434193D-04  0.96834394D-18 -0.59656245D-04 -0.13119634D-03  0.77366848D-16
  0.84635950D-04 -0.81062345D-05 -0.80271880D-16 -0.10938300D-15  0.49743153D+00
  0.92714837D+00  0.15721364D+01  0.23795017D+01  0.29689234D+01  0.25499092D+01
  0.97895974D+00 -0.43789470D-02  0.17792158D-03  0.33369634D-03  0.56887910D-03
  0.88904731D-03  0.11888256D-02  0.12693886D-02  0.77607932D-03 -0.51201000D-03
  0.51934555D-01  0.16341635D-02  0.70039919D-03  0.13975169D-03  0.13551213D-03
  0.91415680D-04 -0.85154675D-02 -0.82571390D-02 -0.55702172D-02  0.12941158D-16
  0.12548570D-16  0.84651912D-17  0.79404687D-05  0.91021535D-03  0.41640590D-17
  0.75411016D-04  0.10142449D-02  0.55414318D-15 -0.25792052D-04 -0.16266058D-04
 -0.17813832D-16 -0.87688833D-03  0.24112840D-02 -0.15343957D-02 -0.13630967D-03
  0.28505389D-17  0.26568174D-15  0.32111385D-03 -0.94431761D-03  0.62320377D-03
  0.78782377D-04  0.63752026D-17 -0.17169729D-15  0.77207327D-04 -0.27338448D-03
  0.19617715D-03 -0.46809320D-04 -0.51205962D-16 -0.25627267D-15  0.31753884D-04
  0.34533414D-04  0.67298682D-16 -0.66292212D-04 -0.77195009D-04  0.64600754D-16
 -0.28969440D-04 -0.26405234D-04 -0.26649680D-15 -0.21272212D-15 -0.62449399D-05
  0.19959875D-03 -0.35923613D-16  0.16814646D-04 -0.13675681D-03 -0.29281406D-16
  0.19201737D-05 -0.46203944D-03  0.13705225D-15  0.86540355D-16  0.12995892D-03
  0.24215931D-03  0.40955210D-03  0.61676277D-03  0.76359232D-03  0.64978260D-03
  0.24725427D-03 -0.11579972D-05 -0.89169848D-04 -0.16719430D-03 -0.28444725D-03
 -0.44171654D-03 -0.58618354D-03 -0.61775699D-03 -0.38304874D-03  0.25480417D-03
  0.34960440D-04  0.33592453D-03 -0.26149890D-03  0.31574482D-03  0.30326912D-03
  0.21267324D-03 -0.21405589D-03 -0.20559812D-03 -0.14417959D-03  0.51730627D-16
  0.49686649D-16  0.34843708D-16 -0.10174777D-02  0.78457685D-03  0.58150424D-18
  0.11882261D-04 -0.11575732D-03  0.38541799D-15  0.24332396D-04 -0.20414026D-04
  0.44672917D-16 -0.16073567D-03  0.22535568D-03 -0.64620017D-04 -0.50039033D-03
  0.27962115D-16  0.35082534D-16  0.35077620D-03 -0.45908011D-03  0.10830390D-03
 -0.41587034D-03 -0.20401456D-17 -0.62000760D-16  0.12158246D-03 -0.88026888D-04
 -0.33555573D-04  0.81188072D-04 -0.10294839D-15  0.94976447D-16 -0.62259406D-04
  0.19630652D-03 -0.22376035D-16 -0.35248545D-04 -0.43612394D-03  0.81010070D-16
  0.22202676D-03 -0.15279561D-03 -0.13881966D-16 -0.11106524D-15 -0.14547304D-03
 -0.16551796D-03 -0.56523833D-17  0.57028139D-03  0.39693401D-03 -0.18450455D-16
 -0.13386227D-03  0.99619856D-04  0.35407605D-16  0.14874774D-15
MO    2     MO 0.0        OCC NO =    2.0000000  ORB. ENERGY =  -14.806844
  0.22743840D-03  0.41019452D-03  0.60483158D-03 -0.10449078D-02 -0.53308810D-03
  0.20230643D-05 -0.78368377D-04 -0.16274619D-02 -0.25936854D-17  0.42042484D-03
 -0.17491519D-02  0.99406272D-16  0.22937233D-03 -0.11899838D-03  0.20487108D-16
  0.10068190D-02 -0.25817257D-02  0.15749067D-02  0.14106248D-03 -0.40786340D-16
 -0.38076155D-16  0.32078491D-04 -0.12377013D-03  0.91691639D-04  0.10621228D-03
  0.54731499D-16  0.35933398D-16  0.22961426D-03  0.41411878D-03  0.61061789D-03
  0.54076847D-04 -0.79571166D-03  0.14888180D-05  0.13265831D-02  0.76660900D-03
  0.37692048D-16  0.13727430D-02  0.52355580D-03  0.54226523D-16  0.27178244D-03
 -0.25008624D-04 -0.82116212D-16 -0.17408882D-02  0.23264081D-03  0.15082474D-02
 -0.30066803D-02 -0.97323779D-16 -0.37957565D-17 -0.15062236D-03  0.34480405D-04
  0.11614196D-03 -0.13086685D-03  0.39017753D-16 -0.11515255D-16 -0.95647692D-05
 -0.17250455D-04 -0.25435786D-04  0.77546324D-03  0.14404429D-02  0.22216414D-04
 -0.40982344D-04  0.47966769D-04 -0.64243109D-04  0.18906935D-03  0.26902403D-03
 -0.11358786D-03  0.12858673D-04  0.17929764D-03 -0.14015770D-03  0.11305865D-03
 -0.41024409D-04 -0.72034242D-04  0.18937872D-03 -0.15659974D-03 -0.20603193D-03
  0.15964207D-04 -0.37043523D-06 -0.15593771D-04  0.61151406D-04  0.57477204D-04
 -0.31955498D-04 -0.95647692D-05 -0.17250455D-04 -0.25435786D-04  0.77546324D-03
  0.14404429D-02  0.22216414D-04 -0.40982344D-04  0.47966769D-04  0.64243109D-04
  0.18906935D-03  0.26902403D-03  0.11358786D-03  0.12858673D-04  0.17929764D-03
  0.14015770D-03  0.11305865D-03 -0.41024409D-04 -0.72034242D-04  0.18937872D-03
  0.15659974D-03  0.20603193D-03  0.15964207D-04 -0.37043523D-06 -0.15593771D-04
  0.61151406D-04 -0.57477204D-04  0.31955498D-04 -0.10553413D-04 -0.19033515D-04
 -0.28064906D-04  0.71371779D-04 -0.13897324D-02 -0.78087038D-05  0.58904465D-04
  0.70337494D-04 -0.30876540D-15  0.33377318D-03 -0.20327175D-03 -0.60542214D-16
 -0.11758856D-03 -0.11809761D-03 -0.76006642D-15  0.15293906D-03 -0.71095786D-04
 -0.81843275D-04  0.24203415D-04 -0.87649495D-16 -0.16602262D-15  0.34129869D-04
 -0.31002963D-04 -0.31269057D-05  0.56707545D-04 -0.20191251D-15 -0.88948606D-16
 -0.81768584D-05 -0.14747301D-04 -0.21744887D-04  0.93223354D-03  0.27774079D-03
 -0.10288622D-04 -0.39233140D-04  0.71733589D-06  0.49411181D-04  0.98173972D-04
 -0.32241566D-03  0.29816424D-03 -0.28639075D-05 -0.25049635D-04  0.46563267D-04
 -0.57264313D-05 -0.14729395D-04  0.20455827D-04 -0.30431288D-04  0.10743408D-04
 -0.15788974D-03 -0.14973340D-04  0.34475519D-05  0.11525788D-04  0.17975280D-05
  0.34352096D-04 -0.28125831D-04 -0.81768584D-05 -0.14747301D-04 -0.21744887D-04
  0.93223354D-03  0.27774079D-03 -0.10288622D-04 -0.39233140D-04  0.71733589D-06
 -0.49411181D-04  0.98173972D-04 -0.32241566D-03 -0.29816424D-03 -0.28639075D-05
 -0.25049635D-04 -0.46563267D-04 -0.57264313D-05 -0.14729395D-04  0.20455827D-04
 -0.30431288D-04 -0.10743408D-04  0.15788974D-03 -0.14973340D-04  0.34475519D-05
  0.11525788D-04  0.17975280D-05 -0.34352096D-04  0.28125831D-04  0.35050335D-03
  0.65341794D-03  0.11043914D-02  0.16602621D-02  0.20398238D-02  0.17229573D-02
  0.64983609D-03 -0.32160751D-05 -0.26862824D-03 -0.50295682D-03 -0.85632703D-03
 -0.13246077D-02 -0.17444617D-02 -0.18126075D-02 -0.11518307D-02  0.77193014D-03
  0.86352441D-03 -0.16530809D-03 -0.72462357D-03  0.52954229D-03  0.49647955D-03
  0.35352302D-03 -0.35808208D-03 -0.33572471D-03 -0.23905599D-03  0.49971527D-16
  0.46851483D-16  0.33361047D-16  0.18065945D-02 -0.88317244D-03  0.89465997D-16
 -0.98797373D-03  0.32796686D-03 -0.30251191D-15  0.39255301D-04  0.12095598D-04
  0.11271368D-15  0.43147064D-03 -0.19215468D-03 -0.23931596D-03 -0.74773390D-03
 -0.28430455D-15 -0.20093635D-15 -0.46600490D-03  0.14157504D-03  0.32442986D-03
 -0.18348994D-03  0.43791364D-15  0.11273308D-15  0.12303790D-03 -0.14025181D-03
  0.17213907D-04  0.19335730D-03  0.15798275D-15  0.50843711D-16 -0.68297668D-04
 -0.16094331D-03 -0.19759710D-16  0.34785515D-04  0.71816285D-03  0.54735112D-17
  0.17010749D-03 -0.23533292D-03  0.53805619D-16 -0.99722730D-16 -0.39643156D-05
 -0.69466738D-04 -0.20256089D-16 -0.18568770D-03  0.34269473D-03  0.10145306D-15
  0.19758065D-03 -0.13429451D-03 -0.40684789D-16 -0.15599640D-15  0.13313725D-03
  0.24819810D-03  0.41949851D-03  0.63064367D-03  0.77481861D-03  0.65445818D-03
  0.24683755D-03 -0.12216128D-05 -0.96974517D-04 -0.18156689D-03 -0.30913317D-03
 -0.47818201D-03 -0.62974889D-03 -0.65434943D-03 -0.41580969D-03  0.27866598D-03
  0.15190109D-03 -0.22513412D-02  0.60608992D-03 -0.23627455D-03 -0.22152241D-03
 -0.15773715D-03 -0.13129880D-03 -0.12310097D-03 -0.87655222D-04 -0.49361885D-15
 -0.46279905D-15 -0.32954050D-15  0.10872558D-02  0.40969734D-03  0.21658665D-14
 -0.14906668D-02  0.59800289D-03  0.30723221D-14 -0.14468261D-04  0.34495531D-04
 -0.20420707D-15  0.22264883D-03 -0.88681414D-04 -0.13396742D-03 -0.16388145D-03
  0.22446172D-15 -0.74946689D-15  0.62756880D-04  0.90600654D-04 -0.15335753D-03
  0.11085518D-02  0.35727953D-15 -0.17803437D-14  0.17018677D-03 -0.40482195D-04
 -0.12970458D-03 -0.23442554D-03  0.37300486D-15 -0.10024222D-15  0.34104088D-04
 -0.15278602D-04  0.80030159D-16  0.11094051D-03 -0.25099667D-04 -0.69353683D-15
 -0.21325278D-03  0.70935473D-04  0.45344636D-15 -0.19175365D-15 -0.15823014D-03
 -0.79861628D-04 -0.58958844D-16  0.46838852D-03  0.61708615D-04 -0.78631348D-17
  0.63018983D-05  0.17787627D-03  0.18473967D-15  0.18883614D-16  0.42395381D-04
  0.79034630D-04  0.13358245D-03  0.20081817D-03  0.24672833D-03  0.20840152D-03
  0.78601385D-04 -0.38900264D-06 -0.29588457D-04 -0.55398927D-04 -0.94321414D-04
 -0.14590089D-03 -0.19214633D-03 -0.19965235D-03 -0.12687010D-03  0.85025394D-04
  0.58296227D-04 -0.32804564D-02 -0.14620820D-03 -0.26044872D-03 -0.24418723D-03