 Molden2AIM, Version 4.0.0 (06/02/2016)           Time: Tue Jul  3 03:10:25 2018
GAUSSIAN             15 MOL ORBITALS    462 PRIMITIVES       10 NUCLEI
  C    1    (CENTRE  1)   0.00000000  0.00000000  0.59438690  CHARGE =  6.0
  C    2    (CENTRE  2)   0.00000000 -1.45175942 -1.76370596  CHARGE =  6.0
  C    3    (CENTRE  3)   0.00000000  1.45175942 -1.76370596  CHARGE =  6.0
  C    4    (CENTRE  4)   0.00000000  0.00000000  3.09642586  CHARGE =  6.0
  H    5    (CENTRE  5)  -1.73473268 -2.40977308 -2.33789546  CHARGE =  1.0
  H    6    (CENTRE  6)   1.73473268 -2.40977308 -2.33789546  CHARGE =  1.0
  H    7    (CENTRE  7)   1.73473268  2.40977308 -2.33789546  CHARGE =  1.0
  H    8    (CENTRE  8)  -1.73473268  2.40977308 -2.33789546  CHARGE =  1.0
  H    9    (CENTRE  9)   0.00000000 -1.76444106  4.16423072  CHARGE =  1.0
  H   10    (CENTRE 10)   0.00000000  1.76444106  4.16423072  CHARGE =  1.0
CENTRE ASSIGNMENTS    1  1  1  1  1  1  1  1  1  1  1  1  1  1  1  1  1  1  1  1
CENTRE ASSIGNMENTS    1  1  1  1  1  1  1  1  1  1  1  1  1  1  1  1  1  1  1  1
CENTRE ASSIGNMENTS    1  1  1  1  1  1  1  1  1  1  1  1  1  1  1  1  1  1  1  1
CENTRE ASSIGNMENTS    1  1  1  1  1  1  1  1  1  1  1  1  1  1  1  2  2  2  2  2
CENTRE ASSIGNMENTS    2  2  2  2  2  2  2  2  2  2  2  2  2  2  2  2  2  2  2  2
CENTRE ASSIGNMENTS    2  2  2  2  2  2  2  2  2  2  2  2  2  2  2  2  2  2  2  2
CENTRE ASSIGNMENTS    2  2  2  2  2  2  2  2  2  2  2  2  2  2  2  2  2  2  2  2
CENTRE ASSIGNMENTS    2  2  2  2  2  2  2  2  2  2  3  3  3  3  3  3  3  3  3  3
CENTRE ASSIGNMENTS    3  3  3  3  3  3  3  3  3  3  3  3  3  3  3  3  3  3  3  3
CENTRE ASSIGNMENTS    3  3  3  3  3  3  3  3  3  3  3  3  3  3  3  3  3  3  3  3
CENTRE ASSIGNMENTS    3  3  3  3  3  3  3  3  3  3  3  3  3  3  3  3  3  3  3  3
CENTRE ASSIGNMENTS    3  3  3  3  3  4  4  4  4  4  4  4  4  4  4  4  4  4  4  4
CENTRE ASSIGNMENTS    4  4  4  4  4  4  4  4  4  4  4  4  4  4  4  4  4  4  4  4
CENTRE ASSIGNMENTS    4  4  4  4  4  4  4  4  4  4  4  4  4  4  4  4  4  4  4  4
CENTRE ASSIGNMENTS    4  4  4  4  4  4  4  4  4  4  4  4  4  4  4  4  4  4  4  4
CENTRE ASSIGNMENTS    5  5  5  5  5  5  5  5  5  5  5  5  5  5  5  5  5  5  5  5
CENTRE ASSIGNMENTS    5  5  5  5  5  5  5  6  6  6  6  6  6  6  6  6  6  6  6  6
CENTRE ASSIGNMENTS    6  6  6  6  6  6  6  6  6  6  6  6  6  6  7  7  7  7  7  7
CENTRE ASSIGNMENTS    7  7  7  7  7  7  7  7  7  7  7  7  7  7  7  7  7  7  7  7
CENTRE ASSIGNMENTS    7  8  8  8  8  8  8  8  8  8  8  8  8  8  8  8  8  8  8  8
CENTRE ASSIGNMENTS    8  8  8  8  8  8  8  8  9  9  9  9  9  9  9  9  9  9  9  9
CENTRE ASSIGNMENTS    9  9  9  9  9  9  9  9  9  9  9  9  9  9  9 10 10 10 10 10
CENTRE ASSIGNMENTS   10 10 10 10 10 10 10 10 10 10 10 10 10 10 10 10 10 10 10 10
CENTRE ASSIGNMENTS   10 10
TYPE ASSIGNMENTS      1  1  1  1  1  1  1  1  1  1  1  1  1  1  1  1  1  1  1  2
TYPE ASSIGNMENTS      2  2  3  3  3  4  4  4  2  3  4  2  3  4  2  3  4  5  6  7
TYPE ASSIGNMENTS      8  9 10  5  6  7  8  9 10  5  6  7  8  9 10 11 12 13 17 14
TYPE ASSIGNMENTS     15 18 19 16 20 11 12 13 17 14 15 18 19 16 20  1  1  1  1  1
TYPE ASSIGNMENTS      1  1  1  1  1  1  1  1  1  1  1  1  1  1  2  2  2  3  3  3
TYPE ASSIGNMENTS      4  4  4  2  3  4  2  3  4  2  3  4  5  6  7  8  9 10  5  6
TYPE ASSIGNMENTS      7  8  9 10  5  6  7  8  9 10 11 12 13 17 14 15 18 19 16 20
TYPE ASSIGNMENTS     11 12 13 17 14 15 18 19 16 20  1  1  1  1  1  1  1  1  1  1
TYPE ASSIGNMENTS      1  1  1  1  1  1  1  1  1  2  2  2  3  3  3  4  4  4  2  3
TYPE ASSIGNMENTS      4  2  3  4  2  3  4  5  6  7  8  9 10  5  6  7  8  9 10  5
TYPE ASSIGNMENTS      6  7  8  9 10 11 12 13 17 14 15 18 19 16 20 11 12 13 17 14
TYPE ASSIGNMENTS     15 18 19 16 20  1  1  1  1  1  1  1  1  1  1  1  1  1  1  1
TYPE ASSIGNMENTS      1  1  1  1  2  2  2  3  3  3  4  4  4  2  3  4  2  3  4  2
TYPE ASSIGNMENTS      3  4  5  6  7  8  9 10  5  6  7  8  9 10  5  6  7  8  9 10
TYPE ASSIGNMENTS     11 12 13 17 14 15 18 19 16 20 11 12 13 17 14 15 18 19 16 20
TYPE ASSIGNMENTS      1  1  1  1  1  1  2  3  4  2  3  4  2  3  4  5  6  7  8  9
TYPE ASSIGNMENTS     10  5  6  7  8  9 10  1  1  1  1  1  1  2  3  4  2  3  4  2
TYPE ASSIGNMENTS      3  4  5  6  7  8  9 10  5  6  7  8  9 10  1  1  1  1  1  1
TYPE ASSIGNMENTS      2  3  4  2  3  4  2  3  4  5  6  7  8  9 10  5  6  7  8  9
TYPE ASSIGNMENTS     10  1  1  1  1  1  1  2  3  4  2  3  4  2  3  4  5  6  7  8
TYPE ASSIGNMENTS      9 10  5  6  7  8  9 10  1  1  1  1  1  1  2  3  4  2  3  4
TYPE ASSIGNMENTS      2  3  4  5  6  7  8  9 10  5  6  7  8  9 10  1  1  1  1  1
TYPE ASSIGNMENTS      1  2  3  4  2  3  4  2  3  4  5  6  7  8  9 10  5  6  7  8
TYPE ASSIGNMENTS      9 10
EXPONENTS  0.8236000D+04 0.1235000D+04 0.2808000D+03 0.7927000D+02 0.2559000D+02
EXPONENTS  0.8997000D+01 0.3319000D+01 0.3643000D+00 0.8236000D+04 0.1235000D+04
EXPONENTS  0.2808000D+03 0.7927000D+02 0.2559000D+02 0.8997000D+01 0.3319000D+01
EXPONENTS  0.3643000D+00 0.9059000D+00 0.1285000D+00 0.4402000D-01 0.1871000D+02
EXPONENTS  0.4133000D+01 0.1200000D+01 0.1871000D+02 0.4133000D+01 0.1200000D+01
EXPONENTS  0.1871000D+02 0.4133000D+01 0.1200000D+01 0.3827000D+00 0.3827000D+00
EXPONENTS  0.3827000D+00 0.1209000D+00 0.1209000D+00 0.1209000D+00 0.3569000D-01
EXPONENTS  0.3569000D-01 0.3569000D-01 0.1097000D+01 0.1097000D+01 0.1097000D+01
EXPONENTS  0.1097000D+01 0.1097000D+01 0.1097000D+01 0.3180000D+00 0.3180000D+00
EXPONENTS  0.3180000D+00 0.3180000D+00 0.3180000D+00 0.3180000D+00 0.1000000D+00
EXPONENTS  0.1000000D+00 0.1000000D+00 0.1000000D+00 0.1000000D+00 0.1000000D+00
EXPONENTS  0.7610000D+00 0.7610000D+00 0.7610000D+00 0.7610000D+00 0.7610000D+00
EXPONENTS  0.7610000D+00 0.7610000D+00 0.7610000D+00 0.7610000D+00 0.7610000D+00
EXPONENTS  0.2680000D+00 0.2680000D+00 0.2680000D+00 0.2680000D+00 0.2680000D+00
EXPONENTS  0.2680000D+00 0.2680000D+00 0.2680000D+00 0.2680000D+00 0.2680000D+00
EXPONENTS  0.8236000D+04 0.1235000D+04 0.2808000D+03 0.7927000D+02 0.2559000D+02
EXPONENTS  0.8997000D+01 0.3319000D+01 0.3643000D+00 0.8236000D+04 0.1235000D+04
EXPONENTS  0.2808000D+03 0.7927000D+02 0.2559000D+02 0.8997000D+01 0.3319000D+01
EXPONENTS  0.3643000D+00 0.9059000D+00 0.1285000D+00 0.4402000D-01 0.1871000D+02
EXPONENTS  0.4133000D+01 0.1200000D+01 0.1871000D+02 0.4133000D+01 0.1200000D+01
EXPONENTS  0.1871000D+02 0.4133000D+01 0.1200000D+01 0.3827000D+00 0.3827000D+00
EXPONENTS  0.3827000D+00 0.1209000D+00 0.1209000D+00 0.1209000D+00 0.3569000D-01
EXPONENTS  0.3569000D-01 0.3569000D-01 0.1097000D+01 0.1097000D+01 0.1097000D+01
EXPONENTS  0.1097000D+01 0.1097000D+01 0.1097000D+01 0.3180000D+00 0.3180000D+00
EXPONENTS  0.3180000D+00 0.3180000D+00 0.3180000D+00 0.3180000D+00 0.1000000D+00
EXPONENTS  0.1000000D+00 0.1000000D+00 0.1000000D+00 0.1000000D+00 0.1000000D+00
EXPONENTS  0.7610000D+00 0.7610000D+00 0.7610000D+00 0.7610000D+00 0.7610000D+00
EXPONENTS  0.7610000D+00 0.7610000D+00 0.7610000D+00 0.7610000D+00 0.7610000D+00
EXPONENTS  0.2680000D+00 0.2680000D+00 0.2680000D+00 0.2680000D+00 0.2680000D+00
EXPONENTS  0.2680000D+00 0.2680000D+00 0.2680000D+00 0.2680000D+00 0.2680000D+00
EXPONENTS  0.8236000D+04 0.1235000D+04 0.2808000D+03 0.7927000D+02 0.2559000D+02
EXPONENTS  0.8997000D+01 0.3319000D+01 0.3643000D+00 0.8236000D+04 0.1235000D+04
EXPONENTS  0.2808000D+03 0.7927000D+02 0.2559000D+02 0.8997000D+01 0.3319000D+01
EXPONENTS  0.3643000D+00 0.9059000D+00 0.1285000D+00 0.4402000D-01 0.1871000D+02
EXPONENTS  0.4133000D+01 0.1200000D+01 0.1871000D+02 0.4133000D+01 0.1200000D+01
EXPONENTS  0.1871000D+02 0.4133000D+01 0.1200000D+01 0.3827000D+00 0.3827000D+00
EXPONENTS  0.3827000D+00 0.1209000D+00 0.1209000D+00 0.1209000D+00 0.3569000D-01
EXPONENTS  0.3569000D-01 0.3569000D-01 0.1097000D+01 0.1097000D+01 0.1097000D+01
EXPONENTS  0.1097000D+01 0.1097000D+01 0.1097000D+01 0.3180000D+00 0.3180000D+00
EXPONENTS  0.3180000D+00 0.3180000D+00 0.3180000D+00 0.3180000D+00 0.1000000D+00
EXPONENTS  0.1000000D+00 0.1000000D+00 0.1000000D+00 0.1000000D+00 0.1000000D+00
EXPONENTS  0.7610000D+00 0.7610000D+00 0.7610000D+00 0.7610000D+00 0.7610000D+00
EXPONENTS  0.7610000D+00 0.7610000D+00 0.7610000D+00 0.7610000D+00 0.7610000D+00
EXPONENTS  0.2680000D+00 0.2680000D+00 0.2680000D+00 0.2680000D+00 0.2680000D+00
EXPONENTS  0.2680000D+00 0.2680000D+00 0.2680000D+00 0.2680000D+00 0.2680000D+00
EXPONENTS  0.8236000D+04 0.1235000D+04 0.2808000D+03 0.7927000D+02 0.2559000D+02
EXPONENTS  0.8997000D+01 0.3319000D+01 0.3643000D+00 0.8236000D+04 0.1235000D+04
EXPONENTS  0.2808000D+03 0.7927000D+02 0.2559000D+02 0.8997000D+01 0.3319000D+01
EXPONENTS  0.3643000D+00 0.9059000D+00 0.1285000D+00 0.4402000D-01 0.1871000D+02
EXPONENTS  0.4133000D+01 0.1200000D+01 0.1871000D+02 0.4133000D+01 0.1200000D+01
EXPONENTS  0.1871000D+02 0.4133000D+01 0.1200000D+01 0.3827000D+00 0.3827000D+00
EXPONENTS  0.3827000D+00 0.1209000D+00 0.1209000D+00 0.1209000D+00 0.3569000D-01
EXPONENTS  0.3569000D-01 0.3569000D-01 0.1097000D+01 0.1097000D+01 0.1097000D+01
EXPONENTS  0.1097000D+01 0.1097000D+01 0.1097000D+01 0.3180000D+00 0.3180000D+00
EXPONENTS  0.3180000D+00 0.3180000D+00 0.3180000D+00 0.3180000D+00 0.1000000D+00
EXPONENTS  0.1000000D+00 0.1000000D+00 0.1000000D+00 0.1000000D+00 0.1000000D+00
EXPONENTS  0.7610000D+00 0.7610000D+00 0.7610000D+00 0.7610000D+00 0.7610000D+00
EXPONENTS  0.7610000D+00 0.7610000D+00 0.7610000D+00 0.7610000D+00 0.7610000D+00
EXPONENTS  0.2680000D+00 0.2680000D+00 0.2680000D+00 0.2680000D+00 0.2680000D+00
EXPONENTS  0.2680000D+00 0.2680000D+00 0.2680000D+00 0.2680000D+00 0.2680000D+00
EXPONENTS  0.3387000D+02 0.5095000D+01 0.1159000D+01 0.3258000D+00 0.1027000D+00
EXPONENTS  0.2526000D-01 0.1407000D+01 0.1407000D+01 0.1407000D+01 0.3880000D+00
EXPONENTS  0.3880000D+00 0.3880000D+00 0.1020000D+00 0.1020000D+00 0.1020000D+00
EXPONENTS  0.1057000D+01 0.1057000D+01 0.1057000D+01 0.1057000D+01 0.1057000D+01
EXPONENTS  0.1057000D+01 0.2470000D+00 0.2470000D+00 0.2470000D+00 0.2470000D+00
EXPONENTS  0.2470000D+00 0.2470000D+00 0.3387000D+02 0.5095000D+01 0.1159000D+01
EXPONENTS  0.3258000D+00 0.1027000D+00 0.2526000D-01 0.1407000D+01 0.1407000D+01
EXPONENTS  0.1407000D+01 0.3880000D+00 0.3880000D+00 0.3880000D+00 0.1020000D+00
EXPONENTS  0.1020000D+00 0.1020000D+00 0.1057000D+01 0.1057000D+01 0.1057000D+01
EXPONENTS  0.1057000D+01 0.1057000D+01 0.1057000D+01 0.2470000D+00 0.2470000D+00
EXPONENTS  0.2470000D+00 0.2470000D+00 0.2470000D+00 0.2470000D+00 0.3387000D+02
EXPONENTS  0.5095000D+01 0.1159000D+01 0.3258000D+00 0.1027000D+00 0.2526000D-01
EXPONENTS  0.1407000D+01 0.1407000D+01 0.1407000D+01 0.3880000D+00 0.3880000D+00
EXPONENTS  0.3880000D+00 0.1020000D+00 0.1020000D+00 0.1020000D+00 0.1057000D+01
EXPONENTS  0.1057000D+01 0.1057000D+01 0.1057000D+01 0.1057000D+01 0.1057000D+01
EXPONENTS  0.2470000D+00 0.2470000D+00 0.2470000D+00 0.2470000D+00 0.2470000D+00
EXPONENTS  0.2470000D+00 0.3387000D+02 0.5095000D+01 0.1159000D+01 0.3258000D+00
EXPONENTS  0.1027000D+00 0.2526000D-01 0.1407000D+01 0.1407000D+01 0.1407000D+01
EXPONENTS  0.3880000D+00 0.3880000D+00 0.3880000D+00 0.1020000D+00 0.1020000D+00
EXPONENTS  0.1020000D+00 0.1057000D+01 0.1057000D+01 0.1057000D+01 0.1057000D+01
EXPONENTS  0.1057000D+01 0.1057000D+01 0.2470000D+00 0.2470000D+00 0.2470000D+00
EXPONENTS  0.2470000D+00 0.2470000D+00 0.2470000D+00 0.3387000D+02 0.5095000D+01
EXPONENTS  0.1159000D+01 0.3258000D+00 0.1027000D+00 0.2526000D-01 0.1407000D+01
EXPONENTS  0.1407000D+01 0.1407000D+01 0.3880000D+00 0.3880000D+00 0.3880000D+00
EXPONENTS  0.1020000D+00 0.1020000D+00 0.1020000D+00 0.1057000D+01 0.1057000D+01
EXPONENTS  0.1057000D+01 0.1057000D+01 0.1057000D+01 0.1057000D+01 0.2470000D+00
EXPONENTS  0.2470000D+00 0.2470000D+00 0.2470000D+00 0.2470000D+00 0.2470000D+00
EXPONENTS  0.3387000D+02 0.5095000D+01 0.1159000D+01 0.3258000D+00 0.1027000D+00
EXPONENTS  0.2526000D-01 0.1407000D+01 0.1407000D+01 0.1407000D+01 0.3880000D+00
EXPONENTS  0.3880000D+00 0.3880000D+00 0.1020000D+00 0.1020000D+00 0.1020000D+00
EXPONENTS  0.1057000D+01 0.1057000D+01 0.1057000D+01 0.1057000D+01 0.1057000D+01
EXPONENTS  0.1057000D+01 0.2470000D+00 0.2470000D+00 0.2470000D+00 0.2470000D+00
EXPONENTS  0.2470000D+00 0.2470000D+00
MO    1     MO 0.0        OCC NO =    2.0000000  ORB. ENERGY =  -10.584537
  0.32827999D+00  0.61198853D+00  0.10343684D+01  0.15549946D+01  0.19104905D+01
  0.16137146D+01  0.60863379D+00 -0.30121626D-02 -0.20061119D-02 -0.37560745D-02
 -0.63950382D-02 -0.98921517D-02 -0.13027616D-01 -0.13536527D-01 -0.86018554D-02
  0.57647635D-02  0.33821654D-01 -0.36477459D-02  0.60775730D-03 -0.81986894D-15
 -0.76867924D-15 -0.54734541D-15  0.61906930D-14  0.58041682D-14  0.41329135D-14
 -0.31072111D-02 -0.29132079D-02 -0.20743776D-02  0.26604515D-14 -0.16024983D-14
  0.52920751D-02  0.61722145D-14 -0.11012646D-12  0.10858589D-02  0.52487971D-15
  0.27173580D-13  0.39701195D-03 -0.25743388D-02 -0.16234083D-02  0.41977471D-02
  0.86598986D-15  0.75131693D-15 -0.23247285D-13  0.80869181D-03 -0.12203337D-04
 -0.79648847D-03  0.39995326D-14 -0.43245320D-14  0.33019516D-13  0.37955375D-04
  0.13100951D-03 -0.16896489D-03  0.44582841D-14 -0.14071744D-14 -0.33431080D-12
 -0.40545749D-15 -0.32872197D-14  0.74135707D-03  0.92445446D-15  0.41710030D-14
 -0.10606144D-02  0.29191800D-15  0.56906560D-14 -0.11634568D-02 -0.16075130D-14
 -0.56014751D-15  0.65881174D-15 -0.79664133D-04 -0.22786386D-15 -0.15157766D-14
  0.32463152D-03  0.19083064D-14 -0.46065863D-15 -0.85639118D-04 -0.42071773D-14
  0.94399111D-02  0.17598141D-01  0.29743958D-01  0.44714911D-01  0.54937435D-01
  0.46403446D-01  0.17501673D-01 -0.86616755D-04 -0.20368807D-03 -0.38136834D-03
 -0.64931222D-03 -0.10043873D-02 -0.13227427D-02 -0.13744144D-02 -0.87337865D-03
  0.58531806D-03  0.12523638D-02  0.32818520D-03  0.80780443D-03 -0.12189977D-14
 -0.11428878D-14 -0.81380421D-15  0.22226904D-03  0.20839135D-03  0.14838706D-03
  0.20294243D-03  0.19027142D-03  0.13548459D-03  0.49888995D-14  0.89126277D-03
  0.17948683D-02 -0.11429932D-13  0.71269154D-03  0.57578914D-03  0.30449704D-15
  0.37073393D-04  0.39665540D-04 -0.34383228D-03  0.29367055D-04  0.31446522D-03
 -0.19906127D-14 -0.20909537D-14  0.17257008D-02 -0.27888950D-04  0.66232215D-04
 -0.38343265D-04  0.51142348D-14  0.92041171D-15 -0.21660768D-03 -0.63869979D-04
  0.47022788D-04  0.16847191D-04  0.89134604D-14  0.69090776D-14  0.67729721D-04
 -0.40569049D-16  0.40197304D-04 -0.38563372D-03  0.17354654D-14  0.11542184D-03
  0.55722799D-03 -0.16137583D-14 -0.23601375D-03  0.59967316D-03 -0.44548713D-15
 -0.83432815D-15 -0.47177149D-05 -0.83828193D-04  0.10313996D-14  0.16391043D-03
  0.40437929D-03  0.14715849D-14 -0.14975729D-03 -0.15289471D-03  0.47780574D-15
  0.94399111D-02  0.17598141D-01  0.29743958D-01  0.44714911D-01  0.54937435D-01
  0.46403446D-01  0.17501673D-01 -0.86616755D-04 -0.20368807D-03 -0.38136834D-03
 -0.64931222D-03 -0.10043873D-02 -0.13227427D-02 -0.13744144D-02 -0.87337865D-03
  0.58531806D-03  0.12523638D-02  0.32818520D-03  0.80780443D-03 -0.74208442D-14
 -0.69575132D-14 -0.49541639D-14 -0.22226904D-03 -0.20839135D-03 -0.14838706D-03
  0.20294243D-03  0.19027142D-03  0.13548459D-03  0.33413669D-13 -0.89126277D-03
  0.17948683D-02  0.38199574D-13 -0.71269154D-03  0.57578914D-03 -0.51837776D-15
 -0.37073393D-04  0.39665540D-04 -0.34383228D-03  0.29367055D-04  0.31446522D-03
  0.16560167D-14 -0.96607152D-15 -0.17257008D-02 -0.27888950D-04  0.66232215D-04
 -0.38343265D-04  0.30918658D-13 -0.17789757D-13  0.21660768D-03 -0.63869979D-04
  0.47022788D-04  0.16847191D-04  0.14227061D-13 -0.99712211D-14 -0.67729721D-04
  0.16009155D-14 -0.40197304D-04 -0.38563372D-03 -0.66486791D-15 -0.11542184D-03
  0.55722799D-03 -0.41378786D-14  0.23601375D-03  0.59967316D-03 -0.55197802D-14
  0.14017701D-14  0.47177149D-05 -0.83828193D-04 -0.69650339D-15 -0.16391043D-03
  0.40437929D-03 -0.35088069D-14  0.14975729D-03 -0.15289471D-03 -0.58443268D-15
  0.98794449D-02  0.18417532D-01  0.31128873D-01  0.46796892D-01  0.57495389D-01
  0.48564048D-01  0.18316572D-01 -0.90649737D-04 -0.37000594D-03 -0.69276786D-03
 -0.11794966D-02 -0.18245018D-02 -0.24028047D-02 -0.24966680D-02 -0.15865204D-02
  0.10632491D-02  0.32401376D-02 -0.72573030D-02 -0.29843643D-02  0.15413769D-14
  0.14451388D-14  0.10290249D-14 -0.15661494D-14 -0.14683646D-14 -0.10455631D-14
 -0.15031961D-02 -0.14093419D-02 -0.10035354D-02 -0.23597543D-14 -0.11796264D-13
  0.13843503D-02  0.10454756D-14  0.34399817D-13 -0.46562626D-03 -0.12150625D-15
  0.10298543D-14  0.12725807D-03  0.51184112D-04  0.48780675D-03 -0.53899086D-03
 -0.10403245D-14  0.56628052D-16  0.64046674D-14  0.13666573D-02  0.73083841D-03
 -0.20974957D-02  0.17922342D-14  0.84893045D-15  0.99657854D-14  0.13520697D-03
 -0.16327190D-03  0.28064928D-04 -0.10283787D-14 -0.36930302D-15 -0.23818032D-12
 -0.10705740D-15  0.46040469D-14  0.10057667D-02  0.43947097D-15 -0.95464208D-14
 -0.15404527D-02 -0.11829877D-15 -0.42657201D-14 -0.14768473D-02 -0.10175618D-14
 -0.99835306D-17 -0.14884053D-14  0.45950432D-03 -0.15069007D-15  0.27906445D-14
  0.52655915D-04  0.18064066D-15  0.16745713D-14 -0.14311689D-02 -0.10557959D-14
  0.45493940D-04  0.82050195D-04  0.12098296D-03  0.90577908D-03  0.34516434D-03
  0.54891820D-04  0.23196463D-03  0.14022946D-03  0.82861825D-04  0.23109447D-03
  0.72782343D-04 -0.46138088D-03 -0.10800438D-04  0.68421852D-04 -0.22115461D-04
  0.25042407D-03  0.19450214D-04 -0.26987428D-03  0.61521961D-04 -0.38905074D-03
 -0.53973742D-03  0.10804156D-04  0.30907558D-04 -0.41711715D-04  0.43714690D-05
  0.26918693D-04 -0.13469850D-03  0.45493940D-04  0.82050195D-04  0.12098296D-03
  0.90577908D-03  0.34516434D-03  0.54891820D-04 -0.23196463D-03  0.14022946D-03
  0.82861825D-04 -0.23109447D-03  0.72782343D-04 -0.46138088D-03  0.10800438D-04
  0.68421852D-04 -0.22115461D-04  0.25042407D-03  0.19450214D-04 -0.26987428D-03
 -0.61521961D-04  0.38905074D-03 -0.53973742D-03  0.10804156D-04  0.30907558D-04
 -0.41711715D-04 -0.43714690D-05 -0.26918693D-04 -0.13469850D-03  0.45493940D-04
  0.82050195D-04  0.12098296D-03  0.90577908D-03  0.34516434D-03  0.54891820D-04
 -0.23196463D-03 -0.14022946D-03  0.82861825D-04 -0.23109447D-03 -0.72782343D-04
 -0.46138088D-03  0.10800438D-04 -0.68421852D-04 -0.22115461D-04  0.25042407D-03
  0.19450214D-04 -0.26987428D-03  0.61521961D-04  0.38905074D-03  0.53973742D-03
  0.10804156D-04  0.30907558D-04 -0.41711715D-04  0.43714690D-05 -0.26918693D-04
  0.13469850D-03  0.45493940D-04  0.82050195D-04  0.12098296D-03  0.90577908D-03
  0.34516434D-03  0.54891820D-04  0.23196463D-03 -0.14022946D-03  0.82861825D-04
  0.23109447D-03 -0.72782343D-04 -0.46138088D-03 -0.10800438D-04 -0.68421852D-04
 -0.22115461D-04  0.25042407D-03  0.19450214D-04 -0.26987428D-03 -0.61521961D-04
 -0.38905074D-03  0.53973742D-03  0.10804156D-04  0.30907558D-04 -0.41711715D-04
 -0.43714690D-05  0.26918693D-04  0.13469850D-03  0.72146215D-04  0.13011867D-03
  0.19185990D-03  0.33046551D-02  0.24825144D-02 -0.68002901D-04  0.79258179D-15
  0.29489693D-03 -0.40174982D-03 -0.72521432D-15  0.60316830D-03  0.63240015D-03
 -0.34438435D-15  0.12061365D-03 -0.12205027D-03  0.24700661D-03  0.15630937D-03
 -0.40331598D-03  0.27474853D-15 -0.30743725D-15  0.11442492D-03  0.17931689D-03
  0.17901899D-04 -0.19721879D-03 -0.41803658D-15 -0.26590185D-15  0.11840725D-03
  0.72146215D-04  0.13011867D-03  0.19185990D-03  0.33046551D-02  0.24825144D-02
 -0.68002901D-04  0.60001849D-15 -0.29489693D-03 -0.40174982D-03 -0.24719681D-15
 -0.60316830D-03  0.63240015D-03  0.74374541D-15 -0.12061365D-03 -0.12205027D-03
  0.24700661D-03  0.15630937D-03 -0.40331598D-03  0.54951920D-15 -0.10549662D-14
 -0.11442492D-03  0.17931689D-03  0.17901899D-04 -0.19721879D-03 -0.21646505D-15
  0.78341730D-15 -0.11840725D-03
MO    2     MO 0.0        OCC NO =    2.0000000  ORB. ENERGY =  -10.575045
 -0.12847515D-01 -0.23950689D-01 -0.40480884D-01 -0.60856028D-01 -0.74768662D-01
 -0.63154088D-01 -0.23819398D-01  0.11788353D-03 -0.15550245D-03 -0.29114965D-03
 -0.49570719D-03 -0.76678364D-03 -0.10098271D-02 -0.10492750D-02 -0.66676717D-03
  0.44685185D-03 -0.47082368D-03  0.33766995D-02 -0.57846410D-03  0.35680111D-15
  0.33452372D-15  0.23820082D-15 -0.93629432D-13 -0.87783544D-13 -0.62507113D-13
 -0.31122875D-03 -0.29179674D-03 -0.20777666D-03  0.10491867D-14  0.12646607D-11
 -0.38539152D-02  0.15745714D-14  0.27355540D-11  0.91996126D-02  0.23087845D-15
  0.13561739D-12 -0.56024776D-04  0.26078791D-03 -0.44497514D-03  0.18418724D-03
  0.11745527D-14  0.78054953D-16 -0.44136935D-12  0.68563914D-05  0.39771985D-03
 -0.40457624D-03 -0.52024516D-14 -0.23982677D-14 -0.79227563D-12  0.18987144D-05
 -0.18415517D-03  0.18225645D-03 -0.90254430D-14 -0.89807779D-15 -0.28586876D-11
 -0.11779977D-15 -0.15533696D-12 -0.37240605D-03  0.43522970D-15 -0.20400419D-13
 -0.24322251D-03 -0.81830402D-16  0.48641129D-12  0.13604406D-02 -0.10718508D-15
 -0.25765813D-15  0.13300944D-12  0.85769441D-04  0.18005136D-15 -0.23986783D-13
 -0.21635526D-03  0.59292301D-15 -0.37504154D-12 -0.40953065D-04  0.41220794D-14
  0.23234474D+00  0.43314342D+00  0.73208869D+00  0.11005691D+01  0.13521763D+01
  0.11421291D+01  0.43076906D+00 -0.21319001D-02 -0.14994984D-02 -0.28075341D-02
 -0.47800671D-02 -0.73940370D-02 -0.97376866D-02 -0.10118080D-01 -0.64295857D-02
  0.43089588D-02  0.23366391D-01  0.26813300D-02  0.47936358D-04 -0.23800185D-14
 -0.22314186D-14 -0.15889030D-14  0.15807109D-02  0.14820170D-02  0.10552844D-02
  0.51823720D-03  0.48588031D-03  0.34597573D-03  0.11805278D-13  0.54097725D-03
 -0.43993618D-03  0.24755971D-13  0.90818897D-03  0.12564465D-02 -0.93255370D-15
  0.66099175D-05  0.93942681D-05  0.67292435D-03  0.73303733D-03 -0.14059617D-02
 -0.28756860D-14  0.97006108D-15  0.25615180D-02  0.42822290D-03 -0.55001532D-03
  0.12179242D-03 -0.81581439D-14 -0.82570243D-14 -0.79399081D-03  0.83172728D-05
 -0.32698648D-04  0.24381376D-04 -0.10256216D-13 -0.13630858D-13 -0.45074236D-05
  0.56464714D-15  0.21901727D-03  0.32912742D-03 -0.13413385D-14 -0.10380625D-02
 -0.10085214D-02 -0.35260289D-15  0.38101073D-03  0.21139136D-04  0.33173393D-14
  0.95520635D-15 -0.23599800D-03 -0.93761666D-04  0.97628925D-15  0.76343277D-03
  0.30191543D-03 -0.38419083D-14 -0.55438779D-04 -0.20630435D-04 -0.41916798D-14
  0.23234474D+00  0.43314342D+00  0.73208869D+00  0.11005691D+01  0.13521763D+01
  0.11421291D+01  0.43076906D+00 -0.21319001D-02 -0.14994984D-02 -0.28075341D-02
 -0.47800671D-02 -0.73940370D-02 -0.97376866D-02 -0.10118080D-01 -0.64295857D-02
  0.43089588D-02  0.23366391D-01  0.26813300D-02  0.47936354D-04 -0.29728869D-14
 -0.27872705D-14 -0.19847026D-14 -0.15807109D-02 -0.14820170D-02 -0.10552844D-02
  0.51823720D-03  0.48588031D-03  0.34597573D-03  0.94852751D-14 -0.54097725D-03
 -0.43993618D-03 -0.98674626D-14 -0.90818897D-03  0.12564465D-02  0.96501421D-15
 -0.66099173D-05  0.93942679D-05  0.67292435D-03  0.73303733D-03 -0.14059617D-02
 -0.12806625D-15 -0.18698841D-14 -0.25615180D-02  0.42822290D-03 -0.55001532D-03
  0.12179242D-03  0.66879698D-14 -0.21445998D-14  0.79399081D-03  0.83172731D-05
 -0.32698649D-04  0.24381376D-04 -0.79943063D-14  0.12293432D-13  0.45074239D-05
  0.82465033D-17 -0.21901727D-03  0.32912742D-03  0.19279509D-14  0.10380625D-02
 -0.10085214D-02 -0.19526904D-14 -0.38101073D-03  0.21139135D-04 -0.73452382D-15
 -0.73709036D-15  0.23599800D-03 -0.93761666D-04 -0.20186778D-15 -0.76343277D-03
  0.30191543D-03  0.24131389D-14  0.55438779D-04 -0.20630435D-04 -0.55405999D-14
 -0.82997348D-03 -0.15472593D-02 -0.26151408D-02 -0.39314132D-02 -0.48301953D-02
 -0.40798721D-02 -0.15387777D-02  0.76154965D-05  0.33915576D-05  0.63500659D-05
  0.10811531D-04  0.16723794D-04  0.22024648D-04  0.22885020D-04  0.14542403D-04
 -0.97459803D-05 -0.33700864D-03 -0.12063280D-01  0.65418787D-03  0.62443164D-15
  0.58544436D-15  0.41687126D-15 -0.13279165D-12 -0.12450061D-12 -0.88651851D-13
  0.42572764D-03  0.39914672D-03  0.28421625D-03 -0.75001077D-15  0.45388890D-12
 -0.19071564D-02  0.12704433D-14 -0.31454330D-12  0.38944683D-02 -0.61503530D-16
  0.14889838D-13  0.16644648D-05 -0.12461140D-03 -0.26416093D-03  0.38877233D-03
  0.91137813D-15  0.42702900D-15  0.22486748D-12  0.58813430D-04 -0.85053738D-03
  0.79172395D-03 -0.17120861D-14 -0.46370814D-15 -0.73515904D-12 -0.38059056D-04
  0.10439793D-03 -0.66338871D-04  0.29344056D-14 -0.31123613D-15 -0.13576545D-11
 -0.11365266D-15  0.60066333D-13 -0.33043118D-04  0.82240626D-16 -0.11694441D-12
 -0.66888815D-04  0.25871736D-15 -0.63254585D-13  0.16601817D-03  0.14394579D-14
  0.27684119D-16  0.44578495D-14 -0.99109677D-04 -0.20075679D-15  0.88761210D-13
  0.10900868D-03  0.11770443D-15 -0.10213476D-12  0.18832036D-03  0.24551884D-15
  0.10160579D-03  0.18325022D-03  0.27020234D-03  0.55931441D-03  0.71646430D-03
 -0.15577171D-05 -0.66927305D-03 -0.23767912D-03 -0.25410920D-03 -0.63778285D-03
 -0.94585945D-03 -0.16416831D-03  0.99073816D-04 -0.34764393D-04  0.59546995D-04
 -0.54108920D-03 -0.94945375D-04  0.63603457D-03 -0.18422430D-02 -0.79886313D-03
 -0.63665660D-03 -0.48701791D-04 -0.93737993D-04  0.14243978D-03 -0.17452168D-03
 -0.14033601D-03 -0.80816346D-04  0.10160579D-03  0.18325022D-03  0.27020234D-03
  0.55931441D-03  0.71646430D-03 -0.15577171D-05  0.66927305D-03 -0.23767912D-03
 -0.25410920D-03  0.63778285D-03 -0.94585945D-03 -0.16416831D-03 -0.99073816D-04
 -0.34764393D-04  0.59546995D-04 -0.54108920D-03 -0.94945375D-04  0.63603457D-03
  0.18422430D-02  0.79886313D-03 -0.63665660D-03 -0.48701791D-04 -0.93737993D-04
  0.14243978D-03  0.17452168D-03  0.14033601D-03 -0.80816346D-04  0.10160579D-03
  0.18325022D-03  0.27020234D-03  0.55931442D-03  0.71646430D-03 -0.15577172D-05
  0.66927305D-03  0.23767912D-03 -0.25410920D-03  0.63778285D-03  0.94585945D-03
 -0.16416831D-03 -0.99073816D-04  0.34764393D-04  0.59546995D-04 -0.54108920D-03
 -0.94945375D-04  0.63603457D-03 -0.18422430D-02  0.79886313D-03  0.63665660D-03
 -0.48701791D-04 -0.93737993D-04  0.14243978D-03 -0.17452168D-03  0.14033601D-03
  0.80816347D-04  0.10160579D-03  0.18325022D-03  0.27020234D-03  0.55931442D-03
  0.71646430D-03 -0.15577172D-05 -0.66927305D-03  0.23767912D-03 -0.25410920D-03
 -0.63778285D-03  0.94585945D-03 -0.16416831D-03  0.99073816D-04  0.34764393D-04
  0.59546995D-04 -0.54108920D-03 -0.94945375D-04  0.63603457D-03  0.18422430D-02
 -0.79886313D-03  0.63665660D-03 -0.48701791D-04 -0.93737993D-04  0.14243978D-03
  0.17452168D-03 -0.14033601D-03  0.80816347D-04 -0.43238652D-04 -0.77982689D-04
 -0.11498543D-03  0.11010212D-02 -0.14574976D-02 -0.12966827D-04  0.17298115D-15
  0.20565865D-04  0.14473344D-03 -0.32182417D-16  0.47611855D-03 -0.80927807D-03
  0.20390280D-14 -0.14908931D-03 -0.60005079D-05 -0.19316542D-03  0.28366659D-04
  0.16479876D-03 -0.66088505D-15 -0.13077800D-14 -0.29294450D-03 -0.82532701D-05
 -0.46374793D-05  0.12890749D-04  0.29890830D-15  0.71603336D-15 -0.13977624D-03
 -0.43238652D-04 -0.77982689D-04 -0.11498543D-03  0.11010212D-02 -0.14574976D-02
 -0.12966827D-04  0.48668542D-15 -0.20565865D-04  0.14473344D-03  0.58212427D-16
 -0.47611855D-03 -0.80927807D-03 -0.17702283D-14  0.14908931D-03 -0.60005088D-05
 -0.19316542D-03  0.28366659D-04  0.16479876D-03 -0.86780193D-15  0.37764236D-15
  0.29294450D-03 -0.82532700D-05 -0.46374793D-05  0.12890749D-04  0.29510345D-15
 -0.51843914D-15  0.13977624D-03
MO    3     MO 0.0        OCC NO =    2.0000000  ORB. ENERGY =  -10.574703
 -0.12261599D-11 -0.22858408D-11 -0.38634737D-11 -0.58080664D-11 -0.71358807D-11
 -0.60273920D-11 -0.22733105D-11  0.11250741D-13  0.10656935D-13  0.19953145D-13
  0.33971936D-13  0.52549419D-13  0.69205737D-13  0.71909193D-13  0.45695064D-13
 -0.30623769D-13 -0.16723367D-12  0.18360550D-11  0.51393533D-12 -0.11663392D-14
 -0.10935172D-14 -0.77864938D-15 -0.92193311D-03 -0.86437089D-03 -0.61548357D-03
  0.10728660D-12  0.10058801D-12  0.71624656D-13  0.21109512D-14 -0.17897288D-02
 -0.84213775D-12  0.15065465D-14 -0.53504673D-03 -0.21815659D-12 -0.14981602D-16
 -0.65646592D-04 -0.34615491D-12  0.91558836D-13 -0.62510689D-13 -0.29048147D-13
  0.61118894D-16  0.19863717D-14  0.87641362D-03 -0.16183905D-12 -0.41954996D-13
  0.20379405D-12 -0.33312758D-13 -0.52464599D-14  0.14849591D-02 -0.20115160D-13
 -0.38739988D-13  0.58855148D-13 -0.41516375D-13 -0.86377836D-16 -0.65588700D-04
  0.17878917D-15 -0.99833730D-04 -0.74704676D-13  0.36974540D-15 -0.53406645D-03
  0.22285589D-13 -0.90611292D-15  0.83356764D-03  0.20182844D-12  0.11352904D-13
 -0.14189657D-15 -0.58669582D-03 -0.11153875D-14  0.15447554D-15 -0.63973528D-04
  0.43589823D-13  0.27121416D-15  0.18240610D-02 -0.40243660D-13  0.29828511D-13
  0.23268135D+00  0.43377093D+00  0.73314929D+00  0.11021635D+01  0.13541353D+01
  0.11437837D+01  0.43139313D+00 -0.21349887D-02 -0.15834118D-02 -0.29646466D-02
 -0.50475644D-02 -0.78078147D-02 -0.10282617D-01 -0.10684298D-01 -0.67893917D-02
  0.45500925D-02  0.23852657D-01 -0.13713375D-01 -0.14561194D-02 -0.17948128D-13
 -0.16827511D-13 -0.11982190D-13  0.10073745D-02  0.94447765D-03  0.67252435D-03
  0.74252023D-03  0.69615991D-03  0.49570733D-03  0.82065474D-13 -0.15998927D-02
  0.55379782D-03  0.16271407D-12 -0.21181555D-02 -0.38648682D-03 -0.32349036D-14
 -0.86868780D-04 -0.26179847D-04  0.63863732D-03 -0.33487046D-03 -0.30376686D-03
 -0.28831578D-14  0.68298515D-14  0.22334805D-02  0.51902154D-03 -0.26137812D-03
 -0.25764342D-03 -0.10004746D-12 -0.61525791D-13 -0.97587700D-03  0.13399009D-03
 -0.11756061D-03 -0.16429482D-04 -0.79469143D-13 -0.72557432D-13 -0.11519376D-03
  0.51408887D-14  0.49236452D-03  0.43399063D-03 -0.98641540D-14 -0.19246732D-02
 -0.79495225D-03 -0.55585120D-14  0.44757964D-03 -0.50701964D-03  0.23381947D-13
  0.71339033D-14 -0.28418515D-03 -0.42505230D-03 -0.16842913D-14  0.11570661D-02
  0.11132115D-02 -0.19717419D-13 -0.30451068D-03  0.16194538D-03 -0.96277210D-14
 -0.23268135D+00 -0.43377093D+00 -0.73314929D+00 -0.11021635D+01 -0.13541353D+01
 -0.11437837D+01 -0.43139313D+00  0.21349887D-02  0.15834118D-02  0.29646466D-02