 Molden2AIM, Version 4.0.0 (06/02/2016)           Time: Tue Jul  3 03:43:03 2018
GAUSSIAN             16 MOL ORBITALS    516 PRIMITIVES       12 NUCLEI
  C    1    (CENTRE  1)  -3.50635092  0.03224818 -0.52656841  CHARGE =  6.0
  C    2    (CENTRE  2)  -1.34741441 -0.55505981  0.63736872  CHARGE =  6.0
  H    3    (CENTRE  3)  -5.16168675 -1.18999456 -0.41459268  CHARGE =  1.0
  H    4    (CENTRE  4)  -3.69257776  1.76562592 -1.63298982  CHARGE =  1.0
  H    5    (CENTRE  5)  -1.24662776 -2.31821396  1.72040477  CHARGE =  1.0
  C    6    (CENTRE  6)   1.02157460  0.98924328  0.57297252  CHARGE =  6.0
  H    7    (CENTRE  7)   0.68762787  2.73158022 -0.51131643  CHARGE =  1.0
  H    8    (CENTRE  8)   1.50371177  1.57356927  2.51437887  CHARGE =  1.0
  C    9    (CENTRE  9)   3.25192575 -0.46495955 -0.54661084  CHARGE =  6.0
  H   10    (CENTRE 10)   2.86381569 -1.01278171 -2.51100193  CHARGE =  1.0
  H   11    (CENTRE 11)   4.98053194  0.68394858 -0.52270958  CHARGE =  1.0
  H   12    (CENTRE 12)   3.62747669 -2.20105661  0.53146280  CHARGE =  1.0
CENTRE ASSIGNMENTS    1  1  1  1  1  1  1  1  1  1  1  1  1  1  1  1  1  1  1  1
CENTRE ASSIGNMENTS    1  1  1  1  1  1  1  1  1  1  1  1  1  1  1  1  1  1  1  1
CENTRE ASSIGNMENTS    1  1  1  1  1  1  1  1  1  1  1  1  1  1  1  1  1  1  1  1
CENTRE ASSIGNMENTS    1  1  1  1  1  1  1  1  1  1  1  1  1  1  1  2  2  2  2  2
CENTRE ASSIGNMENTS    2  2  2  2  2  2  2  2  2  2  2  2  2  2  2  2  2  2  2  2
CENTRE ASSIGNMENTS    2  2  2  2  2  2  2  2  2  2  2  2  2  2  2  2  2  2  2  2
CENTRE ASSIGNMENTS    2  2  2  2  2  2  2  2  2  2  2  2  2  2  2  2  2  2  2  2
CENTRE ASSIGNMENTS    2  2  2  2  2  2  2  2  2  2  3  3  3  3  3  3  3  3  3  3
CENTRE ASSIGNMENTS    3  3  3  3  3  3  3  3  3  3  3  3  3  3  3  3  3  4  4  4
CENTRE ASSIGNMENTS    4  4  4  4  4  4  4  4  4  4  4  4  4  4  4  4  4  4  4  4
CENTRE ASSIGNMENTS    4  4  4  4  5  5  5  5  5  5  5  5  5  5  5  5  5  5  5  5
CENTRE ASSIGNMENTS    5  5  5  5  5  5  5  5  5  5  5  6  6  6  6  6  6  6  6  6
CENTRE ASSIGNMENTS    6  6  6  6  6  6  6  6  6  6  6  6  6  6  6  6  6  6  6  6
CENTRE ASSIGNMENTS    6  6  6  6  6  6  6  6  6  6  6  6  6  6  6  6  6  6  6  6
CENTRE ASSIGNMENTS    6  6  6  6  6  6  6  6  6  6  6  6  6  6  6  6  6  6  6  6
CENTRE ASSIGNMENTS    6  6  6  6  6  6  7  7  7  7  7  7  7  7  7  7  7  7  7  7
CENTRE ASSIGNMENTS    7  7  7  7  7  7  7  7  7  7  7  7  7  8  8  8  8  8  8  8
CENTRE ASSIGNMENTS    8  8  8  8  8  8  8  8  8  8  8  8  8  8  8  8  8  8  8  8
CENTRE ASSIGNMENTS    9  9  9  9  9  9  9  9  9  9  9  9  9  9  9  9  9  9  9  9
CENTRE ASSIGNMENTS    9  9  9  9  9  9  9  9  9  9  9  9  9  9  9  9  9  9  9  9
CENTRE ASSIGNMENTS    9  9  9  9  9  9  9  9  9  9  9  9  9  9  9  9  9  9  9  9
CENTRE ASSIGNMENTS    9  9  9  9  9  9  9  9  9  9  9  9  9  9  9 10 10 10 10 10
CENTRE ASSIGNMENTS   10 10 10 10 10 10 10 10 10 10 10 10 10 10 10 10 10 10 10 10
CENTRE ASSIGNMENTS   10 10 11 11 11 11 11 11 11 11 11 11 11 11 11 11 11 11 11 11
CENTRE ASSIGNMENTS   11 11 11 11 11 11 11 11 11 12 12 12 12 12 12 12 12 12 12 12
CENTRE ASSIGNMENTS   12 12 12 12 12 12 12 12 12 12 12 12 12 12 12 12
TYPE ASSIGNMENTS      1  1  1  1  1  1  1  1  1  1  1  1  1  1  1  1  1  1  1  2
TYPE ASSIGNMENTS      2  2  3  3  3  4  4  4  2  3  4  2  3  4  2  3  4  5  6  7
TYPE ASSIGNMENTS      8  9 10  5  6  7  8  9 10  5  6  7  8  9 10 11 12 13 17 14
TYPE ASSIGNMENTS     15 18 19 16 20 11 12 13 17 14 15 18 19 16 20  1  1  1  1  1
TYPE ASSIGNMENTS      1  1  1  1  1  1  1  1  1  1  1  1  1  1  2  2  2  3  3  3
TYPE ASSIGNMENTS      4  4  4  2  3  4  2  3  4  2  3  4  5  6  7  8  9 10  5  6
TYPE ASSIGNMENTS      7  8  9 10  5  6  7  8  9 10 11 12 13 17 14 15 18 19 16 20
TYPE ASSIGNMENTS     11 12 13 17 14 15 18 19 16 20  1  1  1  1  1  1  2  3  4  2
TYPE ASSIGNMENTS      3  4  2  3  4  5  6  7  8  9 10  5  6  7  8  9 10  1  1  1
TYPE ASSIGNMENTS      1  1  1  2  3  4  2  3  4  2  3  4  5  6  7  8  9 10  5  6
TYPE ASSIGNMENTS      7  8  9 10  1  1  1  1  1  1  2  3  4  2  3  4  2  3  4  5
TYPE ASSIGNMENTS      6  7  8  9 10  5  6  7  8  9 10  1  1  1  1  1  1  1  1  1
TYPE ASSIGNMENTS      1  1  1  1  1  1  1  1  1  1  2  2  2  3  3  3  4  4  4  2
TYPE ASSIGNMENTS      3  4  2  3  4  2  3  4  5  6  7  8  9 10  5  6  7  8  9 10
TYPE ASSIGNMENTS      5  6  7  8  9 10 11 12 13 17 14 15 18 19 16 20 11 12 13 17
TYPE ASSIGNMENTS     14 15 18 19 16 20  1  1  1  1  1  1  2  3  4  2  3  4  2  3
TYPE ASSIGNMENTS      4  5  6  7  8  9 10  5  6  7  8  9 10  1  1  1  1  1  1  2
TYPE ASSIGNMENTS      3  4  2  3  4  2  3  4  5  6  7  8  9 10  5  6  7  8  9 10
TYPE ASSIGNMENTS      1  1  1  1  1  1  1  1  1  1  1  1  1  1  1  1  1  1  1  2
TYPE ASSIGNMENTS      2  2  3  3  3  4  4  4  2  3  4  2  3  4  2  3  4  5  6  7
TYPE ASSIGNMENTS      8  9 10  5  6  7  8  9 10  5  6  7  8  9 10 11 12 13 17 14
TYPE ASSIGNMENTS     15 18 19 16 20 11 12 13 17 14 15 18 19 16 20  1  1  1  1  1
TYPE ASSIGNMENTS      1  2  3  4  2  3  4  2  3  4  5  6  7  8  9 10  5  6  7  8
TYPE ASSIGNMENTS      9 10  1  1  1  1  1  1  2  3  4  2  3  4  2  3  4  5  6  7
TYPE ASSIGNMENTS      8  9 10  5  6  7  8  9 10  1  1  1  1  1  1  2  3  4  2  3
TYPE ASSIGNMENTS      4  2  3  4  5  6  7  8  9 10  5  6  7  8  9 10
EXPONENTS  0.8236000D+04 0.1235000D+04 0.2808000D+03 0.7927000D+02 0.2559000D+02
EXPONENTS  0.8997000D+01 0.3319000D+01 0.3643000D+00 0.8236000D+04 0.1235000D+04
EXPONENTS  0.2808000D+03 0.7927000D+02 0.2559000D+02 0.8997000D+01 0.3319000D+01
EXPONENTS  0.3643000D+00 0.9059000D+00 0.1285000D+00 0.4402000D-01 0.1871000D+02
EXPONENTS  0.4133000D+01 0.1200000D+01 0.1871000D+02 0.4133000D+01 0.1200000D+01
EXPONENTS  0.1871000D+02 0.4133000D+01 0.1200000D+01 0.3827000D+00 0.3827000D+00
EXPONENTS  0.3827000D+00 0.1209000D+00 0.1209000D+00 0.1209000D+00 0.3569000D-01
EXPONENTS  0.3569000D-01 0.3569000D-01 0.1097000D+01 0.1097000D+01 0.1097000D+01
EXPONENTS  0.1097000D+01 0.1097000D+01 0.1097000D+01 0.3180000D+00 0.3180000D+00
EXPONENTS  0.3180000D+00 0.3180000D+00 0.3180000D+00 0.3180000D+00 0.1000000D+00
EXPONENTS  0.1000000D+00 0.1000000D+00 0.1000000D+00 0.1000000D+00 0.1000000D+00
EXPONENTS  0.7610000D+00 0.7610000D+00 0.7610000D+00 0.7610000D+00 0.7610000D+00
EXPONENTS  0.7610000D+00 0.7610000D+00 0.7610000D+00 0.7610000D+00 0.7610000D+00
EXPONENTS  0.2680000D+00 0.2680000D+00 0.2680000D+00 0.2680000D+00 0.2680000D+00
EXPONENTS  0.2680000D+00 0.2680000D+00 0.2680000D+00 0.2680000D+00 0.2680000D+00
EXPONENTS  0.8236000D+04 0.1235000D+04 0.2808000D+03 0.7927000D+02 0.2559000D+02
EXPONENTS  0.8997000D+01 0.3319000D+01 0.3643000D+00 0.8236000D+04 0.1235000D+04
EXPONENTS  0.2808000D+03 0.7927000D+02 0.2559000D+02 0.8997000D+01 0.3319000D+01
EXPONENTS  0.3643000D+00 0.9059000D+00 0.1285000D+00 0.4402000D-01 0.1871000D+02
EXPONENTS  0.4133000D+01 0.1200000D+01 0.1871000D+02 0.4133000D+01 0.1200000D+01
EXPONENTS  0.1871000D+02 0.4133000D+01 0.1200000D+01 0.3827000D+00 0.3827000D+00
EXPONENTS  0.3827000D+00 0.1209000D+00 0.1209000D+00 0.1209000D+00 0.3569000D-01
EXPONENTS  0.3569000D-01 0.3569000D-01 0.1097000D+01 0.1097000D+01 0.1097000D+01
EXPONENTS  0.1097000D+01 0.1097000D+01 0.1097000D+01 0.3180000D+00 0.3180000D+00
EXPONENTS  0.3180000D+00 0.3180000D+00 0.3180000D+00 0.3180000D+00 0.1000000D+00
EXPONENTS  0.1000000D+00 0.1000000D+00 0.1000000D+00 0.1000000D+00 0.1000000D+00
EXPONENTS  0.7610000D+00 0.7610000D+00 0.7610000D+00 0.7610000D+00 0.7610000D+00
EXPONENTS  0.7610000D+00 0.7610000D+00 0.7610000D+00 0.7610000D+00 0.7610000D+00
EXPONENTS  0.2680000D+00 0.2680000D+00 0.2680000D+00 0.2680000D+00 0.2680000D+00
EXPONENTS  0.2680000D+00 0.2680000D+00 0.2680000D+00 0.2680000D+00 0.2680000D+00
EXPONENTS  0.3387000D+02 0.5095000D+01 0.1159000D+01 0.3258000D+00 0.1027000D+00
EXPONENTS  0.2526000D-01 0.1407000D+01 0.1407000D+01 0.1407000D+01 0.3880000D+00
EXPONENTS  0.3880000D+00 0.3880000D+00 0.1020000D+00 0.1020000D+00 0.1020000D+00
EXPONENTS  0.1057000D+01 0.1057000D+01 0.1057000D+01 0.1057000D+01 0.1057000D+01
EXPONENTS  0.1057000D+01 0.2470000D+00 0.2470000D+00 0.2470000D+00 0.2470000D+00
EXPONENTS  0.2470000D+00 0.2470000D+00 0.3387000D+02 0.5095000D+01 0.1159000D+01
EXPONENTS  0.3258000D+00 0.1027000D+00 0.2526000D-01 0.1407000D+01 0.1407000D+01
EXPONENTS  0.1407000D+01 0.3880000D+00 0.3880000D+00 0.3880000D+00 0.1020000D+00
EXPONENTS  0.1020000D+00 0.1020000D+00 0.1057000D+01 0.1057000D+01 0.1057000D+01
EXPONENTS  0.1057000D+01 0.1057000D+01 0.1057000D+01 0.2470000D+00 0.2470000D+00
EXPONENTS  0.2470000D+00 0.2470000D+00 0.2470000D+00 0.2470000D+00 0.3387000D+02
EXPONENTS  0.5095000D+01 0.1159000D+01 0.3258000D+00 0.1027000D+00 0.2526000D-01
EXPONENTS  0.1407000D+01 0.1407000D+01 0.1407000D+01 0.3880000D+00 0.3880000D+00
EXPONENTS  0.3880000D+00 0.1020000D+00 0.1020000D+00 0.1020000D+00 0.1057000D+01
EXPONENTS  0.1057000D+01 0.1057000D+01 0.1057000D+01 0.1057000D+01 0.1057000D+01
EXPONENTS  0.2470000D+00 0.2470000D+00 0.2470000D+00 0.2470000D+00 0.2470000D+00
EXPONENTS  0.2470000D+00 0.8236000D+04 0.1235000D+04 0.2808000D+03 0.7927000D+02
EXPONENTS  0.2559000D+02 0.8997000D+01 0.3319000D+01 0.3643000D+00 0.8236000D+04
EXPONENTS  0.1235000D+04 0.2808000D+03 0.7927000D+02 0.2559000D+02 0.8997000D+01
EXPONENTS  0.3319000D+01 0.3643000D+00 0.9059000D+00 0.1285000D+00 0.4402000D-01
EXPONENTS  0.1871000D+02 0.4133000D+01 0.1200000D+01 0.1871000D+02 0.4133000D+01
EXPONENTS  0.1200000D+01 0.1871000D+02 0.4133000D+01 0.1200000D+01 0.3827000D+00
EXPONENTS  0.3827000D+00 0.3827000D+00 0.1209000D+00 0.1209000D+00 0.1209000D+00
EXPONENTS  0.3569000D-01 0.3569000D-01 0.3569000D-01 0.1097000D+01 0.1097000D+01
EXPONENTS  0.1097000D+01 0.1097000D+01 0.1097000D+01 0.1097000D+01 0.3180000D+00
EXPONENTS  0.3180000D+00 0.3180000D+00 0.3180000D+00 0.3180000D+00 0.3180000D+00
EXPONENTS  0.1000000D+00 0.1000000D+00 0.1000000D+00 0.1000000D+00 0.1000000D+00
EXPONENTS  0.1000000D+00 0.7610000D+00 0.7610000D+00 0.7610000D+00 0.7610000D+00
EXPONENTS  0.7610000D+00 0.7610000D+00 0.7610000D+00 0.7610000D+00 0.7610000D+00
EXPONENTS  0.7610000D+00 0.2680000D+00 0.2680000D+00 0.2680000D+00 0.2680000D+00
EXPONENTS  0.2680000D+00 0.2680000D+00 0.2680000D+00 0.2680000D+00 0.2680000D+00
EXPONENTS  0.2680000D+00 0.3387000D+02 0.5095000D+01 0.1159000D+01 0.3258000D+00
EXPONENTS  0.1027000D+00 0.2526000D-01 0.1407000D+01 0.1407000D+01 0.1407000D+01
EXPONENTS  0.3880000D+00 0.3880000D+00 0.3880000D+00 0.1020000D+00 0.1020000D+00
EXPONENTS  0.1020000D+00 0.1057000D+01 0.1057000D+01 0.1057000D+01 0.1057000D+01
EXPONENTS  0.1057000D+01 0.1057000D+01 0.2470000D+00 0.2470000D+00 0.2470000D+00
EXPONENTS  0.2470000D+00 0.2470000D+00 0.2470000D+00 0.3387000D+02 0.5095000D+01
EXPONENTS  0.1159000D+01 0.3258000D+00 0.1027000D+00 0.2526000D-01 0.1407000D+01
EXPONENTS  0.1407000D+01 0.1407000D+01 0.3880000D+00 0.3880000D+00 0.3880000D+00
EXPONENTS  0.1020000D+00 0.1020000D+00 0.1020000D+00 0.1057000D+01 0.1057000D+01
EXPONENTS  0.1057000D+01 0.1057000D+01 0.1057000D+01 0.1057000D+01 0.2470000D+00
EXPONENTS  0.2470000D+00 0.2470000D+00 0.2470000D+00 0.2470000D+00 0.2470000D+00
EXPONENTS  0.8236000D+04 0.1235000D+04 0.2808000D+03 0.7927000D+02 0.2559000D+02
EXPONENTS  0.8997000D+01 0.3319000D+01 0.3643000D+00 0.8236000D+04 0.1235000D+04
EXPONENTS  0.2808000D+03 0.7927000D+02 0.2559000D+02 0.8997000D+01 0.3319000D+01
EXPONENTS  0.3643000D+00 0.9059000D+00 0.1285000D+00 0.4402000D-01 0.1871000D+02
EXPONENTS  0.4133000D+01 0.1200000D+01 0.1871000D+02 0.4133000D+01 0.1200000D+01
EXPONENTS  0.1871000D+02 0.4133000D+01 0.1200000D+01 0.3827000D+00 0.3827000D+00
EXPONENTS  0.3827000D+00 0.1209000D+00 0.1209000D+00 0.1209000D+00 0.3569000D-01
EXPONENTS  0.3569000D-01 0.3569000D-01 0.1097000D+01 0.1097000D+01 0.1097000D+01
EXPONENTS  0.1097000D+01 0.1097000D+01 0.1097000D+01 0.3180000D+00 0.3180000D+00
EXPONENTS  0.3180000D+00 0.3180000D+00 0.3180000D+00 0.3180000D+00 0.1000000D+00
EXPONENTS  0.1000000D+00 0.1000000D+00 0.1000000D+00 0.1000000D+00 0.1000000D+00
EXPONENTS  0.7610000D+00 0.7610000D+00 0.7610000D+00 0.7610000D+00 0.7610000D+00
EXPONENTS  0.7610000D+00 0.7610000D+00 0.7610000D+00 0.7610000D+00 0.7610000D+00
EXPONENTS  0.2680000D+00 0.2680000D+00 0.2680000D+00 0.2680000D+00 0.2680000D+00
EXPONENTS  0.2680000D+00 0.2680000D+00 0.2680000D+00 0.2680000D+00 0.2680000D+00
EXPONENTS  0.3387000D+02 0.5095000D+01 0.1159000D+01 0.3258000D+00 0.1027000D+00
EXPONENTS  0.2526000D-01 0.1407000D+01 0.1407000D+01 0.1407000D+01 0.3880000D+00
EXPONENTS  0.3880000D+00 0.3880000D+00 0.1020000D+00 0.1020000D+00 0.1020000D+00
EXPONENTS  0.1057000D+01 0.1057000D+01 0.1057000D+01 0.1057000D+01 0.1057000D+01
EXPONENTS  0.1057000D+01 0.2470000D+00 0.2470000D+00 0.2470000D+00 0.2470000D+00
EXPONENTS  0.2470000D+00 0.2470000D+00 0.3387000D+02 0.5095000D+01 0.1159000D+01
EXPONENTS  0.3258000D+00 0.1027000D+00 0.2526000D-01 0.1407000D+01 0.1407000D+01
EXPONENTS  0.1407000D+01 0.3880000D+00 0.3880000D+00 0.3880000D+00 0.1020000D+00
EXPONENTS  0.1020000D+00 0.1020000D+00 0.1057000D+01 0.1057000D+01 0.1057000D+01
EXPONENTS  0.1057000D+01 0.1057000D+01 0.1057000D+01 0.2470000D+00 0.2470000D+00
EXPONENTS  0.2470000D+00 0.2470000D+00 0.2470000D+00 0.2470000D+00 0.3387000D+02
EXPONENTS  0.5095000D+01 0.1159000D+01 0.3258000D+00 0.1027000D+00 0.2526000D-01
EXPONENTS  0.1407000D+01 0.1407000D+01 0.1407000D+01 0.3880000D+00 0.3880000D+00
EXPONENTS  0.3880000D+00 0.1020000D+00 0.1020000D+00 0.1020000D+00 0.1057000D+01
EXPONENTS  0.1057000D+01 0.1057000D+01 0.1057000D+01 0.1057000D+01 0.1057000D+01
EXPONENTS  0.2470000D+00 0.2470000D+00 0.2470000D+00 0.2470000D+00 0.2470000D+00
EXPONENTS  0.2470000D+00
MO    1     MO 0.0        OCC NO =    2.0000000  ORB. ENERGY =  -10.570077
  0.15351920D-01  0.28619469D-01  0.48371944D-01  0.72718877D-01  0.89343542D-01
  0.75464904D-01  0.28462585D-01 -0.14086292D-03 -0.43910267D-03 -0.82213874D-03
 -0.13997616D-02 -0.21652183D-02 -0.28515163D-02 -0.29629081D-02 -0.18827951D-02
  0.12618055D-02  0.39661020D-02 -0.11349055D-01 -0.46792343D-03  0.11378932D-02
  0.10668472D-02  0.75965879D-03 -0.24625303D-03 -0.23087787D-03 -0.16439880D-03
  0.53817607D-03  0.50457427D-03  0.35928694D-03 -0.16544946D-04  0.28163661D-03
 -0.60889490D-04 -0.15676611D-02  0.49957286D-03 -0.78827800D-03 -0.11193761D-04
  0.34545958D-04 -0.30600326D-04 -0.23376743D-03  0.24925541D-03 -0.15487985D-04
  0.46159122D-03 -0.57755721D-03  0.93013421D-04 -0.17546177D-02  0.71169705D-03
  0.10429207D-02 -0.86670624D-03 -0.18400183D-02  0.53855046D-03  0.17510607D-03
 -0.68276348D-04 -0.10682973D-03  0.52108449D-03 -0.16853710D-03  0.31971020D-03
 -0.32237488D-03 -0.32716200D-03  0.40242138D-03  0.11713207D-02  0.12236660D-02
 -0.17622104D-02 -0.20419606D-03 -0.24217997D-03  0.55494622D-03  0.81232773D-03
 -0.12278022D-03 -0.77028890D-04  0.50282251D-04  0.41733715D-03  0.40506177D-03
 -0.44678120D-03 -0.48996499D-04 -0.17397510D-03  0.29593444D-03 -0.68765064D-04
  0.32786757D+00  0.61121970D+00  0.10330690D+01  0.15530411D+01  0.19080904D+01
  0.16116874D+01  0.60786917D+00 -0.30083785D-02 -0.20818264D-02 -0.38978359D-02
 -0.66363991D-02 -0.10265500D-01 -0.13519303D-01 -0.14047422D-01 -0.89265058D-02
  0.59823366D-02  0.33070345D-01 -0.38224682D-02 -0.83687006D-03  0.91207151D-03
  0.85512501D-03  0.60889995D-03 -0.58409938D-04 -0.54763030D-04 -0.38994540D-04
  0.42690034D-03  0.40024621D-03  0.28499914D-03 -0.28336828D-02  0.84615309D-04
 -0.12738686D-02 -0.15956742D-02  0.15326974D-02 -0.13359150D-02 -0.91673575D-04
 -0.54441692D-04  0.15771357D-04  0.15091877D-02 -0.14358104D-04 -0.14948296D-02
  0.49116174D-03  0.30913800D-02 -0.35367869D-02 -0.77772348D-03  0.87197136D-04
  0.69052635D-03 -0.19844607D-02  0.33317672D-03 -0.31584030D-03  0.84451570D-03
 -0.69956198D-03 -0.14495372D-03  0.15639017D-03  0.57521052D-03  0.88329132D-03
 -0.22360077D-03 -0.40230263D-03 -0.55308957D-04  0.79884982D-03  0.16212206D-02
 -0.14807259D-02 -0.12804751D-03 -0.41431267D-03  0.16466527D-02  0.50053517D-03
  0.21434864D-03  0.20797356D-03 -0.42634186D-04 -0.69512404D-03 -0.92467262D-03
  0.92898308D-03  0.52078112D-04  0.30075193D-03 -0.80108053D-03 -0.93727307D-04
  0.46441315D-04  0.83758823D-04  0.12350234D-03  0.40422954D-02 -0.40952980D-02
  0.19272942D-04  0.48838869D-03  0.23540100D-03  0.58567797D-04  0.10105496D-02
  0.11646583D-02 -0.35089658D-03 -0.40689305D-03 -0.24369951D-03  0.19326207D-04
 -0.32623776D-04  0.10391008D-03 -0.71286299D-04  0.55286220D-03 -0.41411812D-03
  0.15773776D-03 -0.10698758D-03  0.84950505D-04  0.22037075D-04  0.12816208D-03
 -0.21635463D-03  0.31184120D-04  0.71199950D-04  0.12841204D-03  0.18934348D-03
  0.13769145D-02  0.41836092D-02 -0.50318690D-04  0.27928942D-03 -0.37210658D-03
  0.34627658D-03 -0.57498742D-03 -0.18060190D-03 -0.10308074D-03 -0.10442762D-03
 -0.46727874D-03  0.22983007D-03 -0.12919248D-03  0.12459800D-03  0.45944772D-05
  0.17691785D-03 -0.25970855D-03 -0.26973405D-04 -0.26784902D-04  0.15025016D-04
  0.11759885D-04  0.17388837D-03 -0.18251651D-03  0.12761715D-03  0.11006588D-03
  0.19850835D-03  0.29270045D-03  0.17944698D-02  0.10771268D-01 -0.36606333D-04
  0.76979580D-04 -0.88866980D-03  0.58108306D-03 -0.81499054D-04 -0.13246091D-02
  0.70232530D-03 -0.30751544D-03  0.80610263D-03 -0.58640643D-03  0.98896457D-03
 -0.12046180D-02  0.21565343D-03  0.84012722D-04 -0.73143654D-04  0.26724908D-02
 -0.45957740D-04 -0.10104241D-03  0.14700015D-03 -0.11309900D-03 -0.16213437D-03
  0.42484328D-03  0.20123162D-01  0.37514149D-01  0.63405521D-01  0.95319267D-01
  0.11711073D+00  0.98918736D-01  0.37308508D-01 -0.18464189D-03 -0.30127485D-03
 -0.56408158D-03 -0.96039715D-03 -0.14855884D-02 -0.19564676D-02 -0.20328952D-02
 -0.12918136D-02  0.86574345D-03  0.23285095D-02  0.89232541D-03  0.55688684D-03
 -0.89014234D-04 -0.83456503D-04 -0.59426002D-04 -0.19540783D-03 -0.18320726D-03
 -0.13045449D-03  0.44206226D-04  0.41446147D-04  0.29512126D-04 -0.27412762D-02
 -0.13011914D-02 -0.81613097D-04 -0.82046077D-04 -0.11418669D-03 -0.14801772D-03
 -0.81504820D-04 -0.22802971D-04  0.15057686D-05  0.67989580D-03 -0.27541308D-03
 -0.40448272D-03  0.12981010D-02  0.67905472D-04 -0.25156780D-03 -0.21979777D-03
  0.41905891D-04  0.17789188D-03 -0.64084303D-03  0.91879543D-04  0.23127479D-03
  0.27709708D-03 -0.24009450D-03 -0.37002582D-04 -0.60224634D-04  0.21760392D-03
  0.63527855D-03  0.95364364D-04 -0.20459133D-03  0.47143598D-04  0.22794557D-03
  0.91306895D-03 -0.35345145D-03 -0.51403866D-03 -0.29929497D-03  0.21202066D-03
 -0.15173243D-04  0.49506548D-04  0.17456045D-04  0.93114911D-04  0.20847462D-03
  0.30010077D-04  0.47682240D-03 -0.35699427D-03 -0.82378212D-04 -0.75616713D-03
 -0.56152233D-04 -0.28684146D-04 -0.51733039D-04 -0.76280336D-04 -0.99778627D-03
  0.42826888D-02  0.25200197D-04  0.41684744D-04 -0.66280297D-04 -0.48260224D-04
  0.20487733D-03 -0.11241492D-04  0.20901617D-03  0.28260999D-03 -0.32678336D-03
  0.19982636D-03 -0.14211386D-04 -0.92592499D-04  0.10680388D-03 -0.73422028D-03
  0.38272048D-03 -0.10583114D-03 -0.65080043D-04  0.30407077D-05  0.62039336D-04
 -0.24168085D-03 -0.86083481D-05 -0.83068024D-04  0.41780728D-05  0.75353263D-05
  0.11110834D-04 -0.37539585D-05 -0.33856681D-02  0.22380523D-04  0.10366089D-03
 -0.17820807D-03  0.35269561D-04  0.44636774D-03  0.72805742D-03 -0.48034193D-03
  0.75745519D-04 -0.15098218D-04  0.44760085D-03 -0.38148280D-03 -0.43993860D-04
  0.42547666D-03 -0.39536962D-03 -0.52622700D-03 -0.34540276D-03 -0.16645425D-03
  0.55787318D-04  0.11066693D-03 -0.14993931D-03  0.11735882D-03 -0.74863901D-04
  0.25392433D-03  0.47337269D-03  0.80008323D-03  0.12027872D-02  0.14777630D-02
  0.12482071D-02  0.47077779D-03 -0.23299056D-05 -0.31437150D-04 -0.58860264D-04
 -0.10021464D-03 -0.15501680D-03 -0.20415168D-03 -0.21212667D-03 -0.13479698D-03
  0.90337799D-04  0.13419050D-03 -0.23901109D-02  0.41471754D-03  0.16872118D-04
  0.15818683D-04  0.11263845D-04 -0.53596324D-04 -0.50249961D-04 -0.35780966D-04
 -0.61169794D-04 -0.57350570D-04 -0.40837022D-04 -0.18864154D-03 -0.31692799D-03
  0.26652757D-03  0.79140668D-03 -0.16682003D-03 -0.53135648D-03 -0.37960224D-04
 -0.19603515D-05  0.12220332D-04  0.91803406D-04 -0.87810162D-04 -0.39932443D-05
  0.42160281D-03 -0.40477790D-05 -0.69954987D-04 -0.61433670D-03  0.55036193D-03
  0.63974765D-04 -0.14422301D-02  0.24593107D-04 -0.21041522D-03 -0.24181356D-04
  0.32268019D-05  0.20954554D-04 -0.35190265D-04  0.23629702D-04 -0.97567616D-04
  0.17030438D-03 -0.13281973D-04 -0.15448164D-04 -0.43388741D-03  0.43066109D-05
 -0.18414439D-03 -0.77025720D-04  0.35539308D-04  0.23048888D-03 -0.36389985D-03
  0.31096741D-04  0.40735242D-04  0.64198722D-05 -0.26175474D-03 -0.47329788D-04
 -0.10718291D-04  0.16846452D-03 -0.74875938D-04 -0.85413261D-05 -0.15633576D-03
  0.16784884D-06  0.30272229D-06  0.44636384D-06  0.33040813D-03 -0.72687284D-03
 -0.23852925D-05 -0.31397055D-04 -0.42143439D-04  0.20479471D-04 -0.20820601D-03
  0.19028646D-03  0.13622111D-03  0.50089340D-05 -0.94311208D-04 -0.66003664D-04
  0.76135434D-04 -0.74663534D-04 -0.14718995D-05  0.38746016D-04 -0.62798068D-04
  0.63591461D-04 -0.76894390D-04  0.29753181D-04  0.47141209D-04 -0.37882041D-04
 -0.42213021D-04  0.47381931D-04  0.18875634D-04  0.34042983D-04  0.50196358D-04
  0.18406282D-02 -0.79528435D-03  0.56854266D-04 -0.11424830D-03 -0.12305633D-04
 -0.11731475D-04 -0.68115815D-03 -0.34012144D-03  0.17573731D-03  0.15640692D-03
  0.46804678D-04 -0.30421223D-04  0.73315734D-04 -0.12675892D-03  0.53443190D-04
  0.95907819D-04 -0.21302077D-03 -0.35769490D-04 -0.73729790D-05  0.54411082D-05
  0.19318708D-05  0.75714047D-04  0.30794288D-04 -0.24290473D-04 -0.62122193D-05
 -0.11203993D-04 -0.16520282D-04 -0.69160803D-03  0.37632300D-05 -0.67353773D-06
 -0.39485909D-04 -0.99282800D-05  0.24513583D-05 -0.83685282D-04 -0.50572933D-03
  0.28341413D-03 -0.69465515D-04  0.72436482D-04 -0.18548494D-04  0.18840790D-03
 -0.10476802D-03 -0.83639885D-04 -0.29743071D-04 -0.10203037D-03  0.12490903D-03
 -0.17622957D-04 -0.11930555D-04  0.29553512D-04 -0.96486870D-04 -0.47295702D-04
  0.95892137D-04
MO    2     MO 0.0        OCC NO =    2.0000000  ORB. ENERGY =  -10.566389
 -0.12045617D-02 -0.22455769D-02 -0.37954205D-02 -0.57057603D-02 -0.70101857D-02
 -0.59212225D-02 -0.22332673D-02  0.11052564D-04 -0.80560426D-04 -0.15083454D-03
 -0.25680870D-03 -0.39724402D-03 -0.52315639D-03 -0.54359300D-03 -0.34542895D-03
  0.23149845D-03  0.12136650D-03 -0.19399367D-02  0.12543822D-02 -0.14751093D-03
 -0.13830087D-03 -0.98478460D-04  0.13078030D-03  0.12261484D-03  0.87309071D-04
 -0.63429721D-04 -0.59469395D-04 -0.42345752D-04  0.18211635D-02 -0.91278847D-03
  0.11010296D-02 -0.13576597D-02  0.99172884D-03 -0.11702097D-02  0.58754231D-04
  0.45530556D-05  0.13357558D-04  0.11623346D-03 -0.12272303D-03  0.64895615D-05
  0.34086886D-04  0.14092228D-03  0.17858449D-03  0.37745373D-03 -0.62197338D-03
  0.24451965D-03 -0.16161674D-02  0.86867680D-03  0.47617302D-03 -0.53251944D-04
  0.91526466D-04 -0.38274522D-04  0.16297372D-03 -0.11993740D-03 -0.99839646D-04
 -0.34458906D-04  0.28858217D-04 -0.75367391D-04  0.50423919D-05 -0.73544220D-04
 -0.13780038D-04  0.98334327D-04 -0.13030431D-04  0.23988221D-03 -0.20628803D-03
  0.49913381D-04  0.12237855D-03  0.81007148D-04 -0.28860183D-03 -0.64105320D-03
  0.28857151D-03  0.13886169D-03  0.27391754D-03 -0.53159295D-03  0.21321395D-03
 -0.19665726D-01 -0.36661384D-01 -0.61964197D-01 -0.93152485D-01 -0.11444859D+00
 -0.96670131D-01 -0.36460417D-01  0.18044464D-03 -0.56948277D-04 -0.10662514D-03
 -0.18153843D-03 -0.28081235D-03 -0.36981998D-03 -0.38426665D-03 -0.24418421D-03
  0.16364658D-03 -0.12432765D-02 -0.18752456D-03 -0.12820844D-02  0.11016134D-03
  0.10328326D-03  0.73543833D-04  0.16450115D-03  0.15423028D-03  0.10982115D-03
 -0.77669967D-06 -0.72820531D-06 -0.51852556D-06  0.25719418D-02 -0.11353032D-03
  0.92312471D-03 -0.22074318D-02  0.18487888D-02 -0.18203152D-02  0.63452086D-04
 -0.28536117D-04  0.51814801D-04 -0.13511062D-03  0.16694923D-03 -0.31838604D-04
  0.49012986D-03 -0.37294310D-03  0.54369824D-04 -0.22151793D-03  0.66289940D-04
  0.15522799D-03 -0.31330055D-03 -0.51305380D-03  0.20481480D-03  0.56780161D-04
 -0.95527303D-04  0.38747142D-04 -0.17146920D-03  0.87762960D-04  0.13077182D-03
 -0.50031034D-04  0.15869067D-03 -0.10629427D-03 -0.24484495D-03 -0.67921356D-03
  0.15733752D-03  0.39493805D-03  0.20314156D-03  0.16154529D-03 -0.14531638D-03
  0.31947150D-04  0.24039523D-03  0.14422226D-03 -0.53477337D-03 -0.12343561D-02
  0.45708741D-03  0.43893192D-03  0.51317037D-03 -0.88975418D-03  0.32102328D-03
 -0.49409407D-04 -0.89111900D-04 -0.13139544D-03  0.27162632D-03 -0.86361327D-03
  0.43814094D-04 -0.34259724D-04  0.13566193D-04 -0.12572329D-04  0.10209166D-02
  0.14436532D-03  0.26185029D-03 -0.36775015D-04  0.36948714D-04 -0.45730678D-04
  0.33421417D-03 -0.17019779D-03 -0.16401638D-03  0.86473273D-04  0.38639417D-03
 -0.96025270D-04  0.52882869D-04  0.61426024D-07 -0.52944295D-04  0.54473349D-04
  0.61488588D-04 -0.96925961D-04 -0.36059846D-04 -0.65035418D-04 -0.95894686D-04
 -0.79068917D-03 -0.20527112D-02 -0.53177379D-05 -0.50142485D-04  0.34488041D-04
 -0.10488301D-04  0.76765630D-03 -0.65569770D-03  0.62894877D-03 -0.11481263D-03
  0.84622046D-04 -0.99813118D-04 -0.82173656D-04  0.97398432D-04 -0.15224776D-04
 -0.43919929D-03  0.43031439D-03 -0.62120085D-03 -0.23047957D-04  0.53612930D-04
 -0.30564973D-04 -0.83383136D-04  0.10637572D-03 -0.20370736D-03  0.91226727D-04
  0.16453116D-03  0.24260110D-03  0.32630060D-02  0.38862769D-02 -0.15306687D-04
 -0.20117260D-03  0.40178518D-03 -0.26901092D-03  0.29653347D-03 -0.20751458D-03
  0.17466196D-03 -0.63182333D-04  0.37130576D-03 -0.26292082D-03 -0.17650307D-03
 -0.61766942D-04  0.23827001D-03 -0.47300489D-03 -0.16106524D-03  0.34646574D-03
 -0.67214426D-05 -0.67227092D-04  0.73948535D-04 -0.11746344D-03 -0.47048469D-04
  0.18054311D-03  0.32831471D+00  0.61205326D+00  0.10344778D+01  0.15551590D+01
  0.19106926D+01  0.16138853D+01  0.60869816D+00 -0.30124812D-02 -0.21620828D-02
 -0.40481012D-02 -0.68922386D-02 -0.10661245D-01 -0.14040485D-01 -0.14588963D-01
 -0.92706311D-02  0.62129614D-02  0.32824560D-01 -0.59814844D-02 -0.80975015D-03
 -0.49457244D-05 -0.46369310D-05 -0.33017711D-05 -0.12563697D-04 -0.11779264D-04
 -0.83875380D-05 -0.20245475D-04 -0.18981420D-04 -0.13515901D-04 -0.69767454D-03
 -0.75560754D-03  0.10985973D-03 -0.46111983D-04 -0.33693498D-03  0.81983242D-03
 -0.26459794D-04  0.53270720D-04  0.17481339D-04 -0.41076077D-03  0.12545031D-03
  0.28531046D-03 -0.20996401D-03  0.68389826D-03 -0.53445456D-03  0.26048007D-03
 -0.20393779D-03 -0.56542282D-04  0.45845000D-03 -0.52414419D-03  0.66654988D-03
 -0.12547611D-03  0.77072972D-04  0.48403142D-04  0.98005898D-04 -0.15402255D-03
  0.32442288D-04 -0.93007126D-04  0.50153142D-04  0.59495209D-03 -0.37844634D-03
 -0.11623347D-02 -0.28202653D-03  0.65746772D-03  0.10118753D-02 -0.15028297D-02
  0.11523228D-02 -0.29862011D-05  0.21919675D-04 -0.29832710D-03  0.27486586D-03
  0.43110365D-03  0.31695368D-03 -0.26590726D-03 -0.49686267D-03  0.57802762D-03
 -0.10625106D-02  0.33478771D-04  0.60380343D-04  0.89030781D-04  0.33773555D-02
  0.17925382D-02 -0.55053372D-04 -0.19277594D-03  0.85002734D-03 -0.41356902D-03
 -0.60258525D-03 -0.19243473D-03 -0.32883911D-03 -0.18001854D-03 -0.23921122D-03
  0.12085004D-04  0.70354715D-03 -0.78755352D-03  0.84006363D-04  0.90157785D-03
 -0.55628397D-03  0.19069534D-02  0.80015950D-04 -0.86040559D-04  0.60246090D-05
  0.74303223D-04 -0.63798106D-04  0.23204935D-03  0.27434249D-04  0.49478798D-04
  0.72956459D-04  0.24237050D-02 -0.25833598D-03 -0.41089993D-04  0.30083426D-03
  0.34050354D-03  0.10040972D-02  0.13831733D-03 -0.91775570D-04  0.48096645D-03
  0.10681020D-03  0.64364398D-05  0.12937525D-03  0.61968484D-03  0.58901059D-03
 -0.12086954D-02 -0.15937751D-03 -0.11635771D-02 -0.12689427D-02  0.11024503D-03
  0.45450211D-04 -0.15569524D-03  0.76260545D-04 -0.14950749D-03 -0.97404672D-04
  0.57165252D-02  0.10656903D-01  0.18012043D-01  0.27078000D-01  0.33268452D-01
  0.28100526D-01  0.10598485D-01 -0.52452492D-04 -0.14912498D-03 -0.27920902D-03
 -0.47537725D-03 -0.73533632D-03 -0.96841207D-03 -0.10062422D-02 -0.63942173D-03
  0.42852557D-03  0.91085023D-03  0.22611772D-02  0.56622922D-03 -0.11060518D-03
 -0.10369939D-03 -0.73840144D-04  0.78422712D-04  0.73526277D-04  0.52355090D-04
  0.82377593D-04  0.77234230D-04  0.54995373D-04 -0.13593568D-02  0.90424208D-03
  0.67689899D-03 -0.78100222D-03  0.49020317D-03  0.34211739D-05 -0.49232837D-04
  0.23463713D-04  0.12609510D-04  0.14138793D-03 -0.49227928D-04 -0.92160004D-04
 -0.69095801D-03 -0.50239052D-03  0.26172539D-03 -0.10924224D-03  0.46997000D-04
  0.62245241D-04  0.91141681D-03  0.50286839D-03 -0.35574895D-03 -0.19515428D-04
 -0.26568939D-04  0.46084368D-04 -0.10158745D-04 -0.31480801D-04  0.13077328D-03
  0.32374707D-05  0.25905976D-03  0.18483240D-03  0.17775429D-03 -0.82070212D-03
 -0.55562067D-03 -0.18746670D-03  0.43522824D-04  0.11234597D-05  0.11315042D-02
 -0.31320674D-04  0.65290946D-04  0.25169164D-05  0.18737603D-03 -0.15649075D-03
 -0.10471748D-03 -0.93414006D-04 -0.39382093D-04  0.97166733D-04  0.43714691D-03
  0.73184773D-05  0.13199175D-04  0.19462176D-04 -0.13410584D-03 -0.11353051D-02
  0.95332484D-05  0.41019757D-04  0.82586851D-04  0.63947730D-06  0.52375477D-03
 -0.35884991D-03  0.20721691D-03 -0.33898788D-04 -0.27577890D-04 -0.13669900D-03
  0.15968172D-04 -0.13245410D-03  0.11648593D-03  0.31567945D-03  0.83295592D-03
 -0.37888791D-03 -0.36354657D-04 -0.16608894D-04  0.52963551D-04  0.10162894D-03
  0.84958055D-04 -0.54578214D-04  0.96323765D-05  0.17372388D-04  0.25615575D-04
 -0.31327995D-03  0.50963143D-03  0.40328004D-04 -0.12849004D-03 -0.92703425D-05
  0.27200229D-04  0.40444723D-03 -0.62104856D-03 -0.42295437D-03 -0.53302792D-04
 -0.51963050D-04 -0.35864696D-04 -0.35125930D-03  0.37465560D-03 -0.23396310D-04
  0.65704072D-03  0.48740528D-03  0.12050120D-03 -0.25940570D-04  0.23193915D-04