 Molden2AIM, Version 4.0.0 (06/02/2016)           Time: Tue Jul  3 03:34:56 2018
GAUSSIAN             16 MOL ORBITALS    516 PRIMITIVES       12 NUCLEI
  C    1    (CENTRE  1)   0.00000000  2.03567912  0.24745019  CHARGE =  6.0
  C    2    (CENTRE  2)   0.00000000 -2.03567912  0.24745019  CHARGE =  6.0
  C    3    (CENTRE  3)  -2.03567912  0.00000000 -0.24745019  CHARGE =  6.0
  C    4    (CENTRE  4)   2.03567912  0.00000000 -0.24745019  CHARGE =  6.0
  H    5    (CENTRE  5)   0.00000000  3.72697833 -0.95355580  CHARGE =  1.0
  H    6    (CENTRE  6)   0.00000000  2.63501521  2.23552333  CHARGE =  1.0
  H    7    (CENTRE  7)   0.00000000 -3.72697833 -0.95355580  CHARGE =  1.0
  H    8    (CENTRE  8)   0.00000000 -2.63501521  2.23552333  CHARGE =  1.0
  H    9    (CENTRE  9)  -3.72697833  0.00000000  0.95355580  CHARGE =  1.0
  H   10    (CENTRE 10)  -2.63501521  0.00000000 -2.23552333  CHARGE =  1.0
  H   11    (CENTRE 11)   3.72697833  0.00000000  0.95355580  CHARGE =  1.0
  H   12    (CENTRE 12)   2.63501521  0.00000000 -2.23552333  CHARGE =  1.0
CENTRE ASSIGNMENTS    1  1  1  1  1  1  1  1  1  1  1  1  1  1  1  1  1  1  1  1
CENTRE ASSIGNMENTS    1  1  1  1  1  1  1  1  1  1  1  1  1  1  1  1  1  1  1  1
CENTRE ASSIGNMENTS    1  1  1  1  1  1  1  1  1  1  1  1  1  1  1  1  1  1  1  1
CENTRE ASSIGNMENTS    1  1  1  1  1  1  1  1  1  1  1  1  1  1  1  2  2  2  2  2
CENTRE ASSIGNMENTS    2  2  2  2  2  2  2  2  2  2  2  2  2  2  2  2  2  2  2  2
CENTRE ASSIGNMENTS    2  2  2  2  2  2  2  2  2  2  2  2  2  2  2  2  2  2  2  2
CENTRE ASSIGNMENTS    2  2  2  2  2  2  2  2  2  2  2  2  2  2  2  2  2  2  2  2
CENTRE ASSIGNMENTS    2  2  2  2  2  2  2  2  2  2  3  3  3  3  3  3  3  3  3  3
CENTRE ASSIGNMENTS    3  3  3  3  3  3  3  3  3  3  3  3  3  3  3  3  3  3  3  3
CENTRE ASSIGNMENTS    3  3  3  3  3  3  3  3  3  3  3  3  3  3  3  3  3  3  3  3
CENTRE ASSIGNMENTS    3  3  3  3  3  3  3  3  3  3  3  3  3  3  3  3  3  3  3  3
CENTRE ASSIGNMENTS    3  3  3  3  3  4  4  4  4  4  4  4  4  4  4  4  4  4  4  4
CENTRE ASSIGNMENTS    4  4  4  4  4  4  4  4  4  4  4  4  4  4  4  4  4  4  4  4
CENTRE ASSIGNMENTS    4  4  4  4  4  4  4  4  4  4  4  4  4  4  4  4  4  4  4  4
CENTRE ASSIGNMENTS    4  4  4  4  4  4  4  4  4  4  4  4  4  4  4  4  4  4  4  4
CENTRE ASSIGNMENTS    5  5  5  5  5  5  5  5  5  5  5  5  5  5  5  5  5  5  5  5
CENTRE ASSIGNMENTS    5  5  5  5  5  5  5  6  6  6  6  6  6  6  6  6  6  6  6  6
CENTRE ASSIGNMENTS    6  6  6  6  6  6  6  6  6  6  6  6  6  6  7  7  7  7  7  7
CENTRE ASSIGNMENTS    7  7  7  7  7  7  7  7  7  7  7  7  7  7  7  7  7  7  7  7
CENTRE ASSIGNMENTS    7  8  8  8  8  8  8  8  8  8  8  8  8  8  8  8  8  8  8  8
CENTRE ASSIGNMENTS    8  8  8  8  8  8  8  8  9  9  9  9  9  9  9  9  9  9  9  9
CENTRE ASSIGNMENTS    9  9  9  9  9  9  9  9  9  9  9  9  9  9  9 10 10 10 10 10
CENTRE ASSIGNMENTS   10 10 10 10 10 10 10 10 10 10 10 10 10 10 10 10 10 10 10 10
CENTRE ASSIGNMENTS   10 10 11 11 11 11 11 11 11 11 11 11 11 11 11 11 11 11 11 11
CENTRE ASSIGNMENTS   11 11 11 11 11 11 11 11 11 12 12 12 12 12 12 12 12 12 12 12
CENTRE ASSIGNMENTS   12 12 12 12 12 12 12 12 12 12 12 12 12 12 12 12
TYPE ASSIGNMENTS      1  1  1  1  1  1  1  1  1  1  1  1  1  1  1  1  1  1  1  2
TYPE ASSIGNMENTS      2  2  3  3  3  4  4  4  2  3  4  2  3  4  2  3  4  5  6  7
TYPE ASSIGNMENTS      8  9 10  5  6  7  8  9 10  5  6  7  8  9 10 11 12 13 17 14
TYPE ASSIGNMENTS     15 18 19 16 20 11 12 13 17 14 15 18 19 16 20  1  1  1  1  1
TYPE ASSIGNMENTS      1  1  1  1  1  1  1  1  1  1  1  1  1  1  2  2  2  3  3  3
TYPE ASSIGNMENTS      4  4  4  2  3  4  2  3  4  2  3  4  5  6  7  8  9 10  5  6
TYPE ASSIGNMENTS      7  8  9 10  5  6  7  8  9 10 11 12 13 17 14 15 18 19 16 20
TYPE ASSIGNMENTS     11 12 13 17 14 15 18 19 16 20  1  1  1  1  1  1  1  1  1  1
TYPE ASSIGNMENTS      1  1  1  1  1  1  1  1  1  2  2  2  3  3  3  4  4  4  2  3
TYPE ASSIGNMENTS      4  2  3  4  2  3  4  5  6  7  8  9 10  5  6  7  8  9 10  5
TYPE ASSIGNMENTS      6  7  8  9 10 11 12 13 17 14 15 18 19 16 20 11 12 13 17 14
TYPE ASSIGNMENTS     15 18 19 16 20  1  1  1  1  1  1  1  1  1  1  1  1  1  1  1
TYPE ASSIGNMENTS      1  1  1  1  2  2  2  3  3  3  4  4  4  2  3  4  2  3  4  2
TYPE ASSIGNMENTS      3  4  5  6  7  8  9 10  5  6  7  8  9 10  5  6  7  8  9 10
TYPE ASSIGNMENTS     11 12 13 17 14 15 18 19 16 20 11 12 13 17 14 15 18 19 16 20
TYPE ASSIGNMENTS      1  1  1  1  1  1  2  3  4  2  3  4  2  3  4  5  6  7  8  9
TYPE ASSIGNMENTS     10  5  6  7  8  9 10  1  1  1  1  1  1  2  3  4  2  3  4  2
TYPE ASSIGNMENTS      3  4  5  6  7  8  9 10  5  6  7  8  9 10  1  1  1  1  1  1
TYPE ASSIGNMENTS      2  3  4  2  3  4  2  3  4  5  6  7  8  9 10  5  6  7  8  9
TYPE ASSIGNMENTS     10  1  1  1  1  1  1  2  3  4  2  3  4  2  3  4  5  6  7  8
TYPE ASSIGNMENTS      9 10  5  6  7  8  9 10  1  1  1  1  1  1  2  3  4  2  3  4
TYPE ASSIGNMENTS      2  3  4  5  6  7  8  9 10  5  6  7  8  9 10  1  1  1  1  1
TYPE ASSIGNMENTS      1  2  3  4  2  3  4  2  3  4  5  6  7  8  9 10  5  6  7  8
TYPE ASSIGNMENTS      9 10  1  1  1  1  1  1  2  3  4  2  3  4  2  3  4  5  6  7
TYPE ASSIGNMENTS      8  9 10  5  6  7  8  9 10  1  1  1  1  1  1  2  3  4  2  3
TYPE ASSIGNMENTS      4  2  3  4  5  6  7  8  9 10  5  6  7  8  9 10
EXPONENTS  0.8236000D+04 0.1235000D+04 0.2808000D+03 0.7927000D+02 0.2559000D+02
EXPONENTS  0.8997000D+01 0.3319000D+01 0.3643000D+00 0.8236000D+04 0.1235000D+04
EXPONENTS  0.2808000D+03 0.7927000D+02 0.2559000D+02 0.8997000D+01 0.3319000D+01
EXPONENTS  0.3643000D+00 0.9059000D+00 0.1285000D+00 0.4402000D-01 0.1871000D+02
EXPONENTS  0.4133000D+01 0.1200000D+01 0.1871000D+02 0.4133000D+01 0.1200000D+01
EXPONENTS  0.1871000D+02 0.4133000D+01 0.1200000D+01 0.3827000D+00 0.3827000D+00
EXPONENTS  0.3827000D+00 0.1209000D+00 0.1209000D+00 0.1209000D+00 0.3569000D-01
EXPONENTS  0.3569000D-01 0.3569000D-01 0.1097000D+01 0.1097000D+01 0.1097000D+01
EXPONENTS  0.1097000D+01 0.1097000D+01 0.1097000D+01 0.3180000D+00 0.3180000D+00
EXPONENTS  0.3180000D+00 0.3180000D+00 0.3180000D+00 0.3180000D+00 0.1000000D+00
EXPONENTS  0.1000000D+00 0.1000000D+00 0.1000000D+00 0.1000000D+00 0.1000000D+00
EXPONENTS  0.7610000D+00 0.7610000D+00 0.7610000D+00 0.7610000D+00 0.7610000D+00
EXPONENTS  0.7610000D+00 0.7610000D+00 0.7610000D+00 0.7610000D+00 0.7610000D+00
EXPONENTS  0.2680000D+00 0.2680000D+00 0.2680000D+00 0.2680000D+00 0.2680000D+00
EXPONENTS  0.2680000D+00 0.2680000D+00 0.2680000D+00 0.2680000D+00 0.2680000D+00
EXPONENTS  0.8236000D+04 0.1235000D+04 0.2808000D+03 0.7927000D+02 0.2559000D+02
EXPONENTS  0.8997000D+01 0.3319000D+01 0.3643000D+00 0.8236000D+04 0.1235000D+04
EXPONENTS  0.2808000D+03 0.7927000D+02 0.2559000D+02 0.8997000D+01 0.3319000D+01
EXPONENTS  0.3643000D+00 0.9059000D+00 0.1285000D+00 0.4402000D-01 0.1871000D+02
EXPONENTS  0.4133000D+01 0.1200000D+01 0.1871000D+02 0.4133000D+01 0.1200000D+01
EXPONENTS  0.1871000D+02 0.4133000D+01 0.1200000D+01 0.3827000D+00 0.3827000D+00
EXPONENTS  0.3827000D+00 0.1209000D+00 0.1209000D+00 0.1209000D+00 0.3569000D-01
EXPONENTS  0.3569000D-01 0.3569000D-01 0.1097000D+01 0.1097000D+01 0.1097000D+01
EXPONENTS  0.1097000D+01 0.1097000D+01 0.1097000D+01 0.3180000D+00 0.3180000D+00
EXPONENTS  0.3180000D+00 0.3180000D+00 0.3180000D+00 0.3180000D+00 0.1000000D+00
EXPONENTS  0.1000000D+00 0.1000000D+00 0.1000000D+00 0.1000000D+00 0.1000000D+00
EXPONENTS  0.7610000D+00 0.7610000D+00 0.7610000D+00 0.7610000D+00 0.7610000D+00
EXPONENTS  0.7610000D+00 0.7610000D+00 0.7610000D+00 0.7610000D+00 0.7610000D+00
EXPONENTS  0.2680000D+00 0.2680000D+00 0.2680000D+00 0.2680000D+00 0.2680000D+00
EXPONENTS  0.2680000D+00 0.2680000D+00 0.2680000D+00 0.2680000D+00 0.2680000D+00
EXPONENTS  0.8236000D+04 0.1235000D+04 0.2808000D+03 0.7927000D+02 0.2559000D+02
EXPONENTS  0.8997000D+01 0.3319000D+01 0.3643000D+00 0.8236000D+04 0.1235000D+04
EXPONENTS  0.2808000D+03 0.7927000D+02 0.2559000D+02 0.8997000D+01 0.3319000D+01
EXPONENTS  0.3643000D+00 0.9059000D+00 0.1285000D+00 0.4402000D-01 0.1871000D+02
EXPONENTS  0.4133000D+01 0.1200000D+01 0.1871000D+02 0.4133000D+01 0.1200000D+01
EXPONENTS  0.1871000D+02 0.4133000D+01 0.1200000D+01 0.3827000D+00 0.3827000D+00
EXPONENTS  0.3827000D+00 0.1209000D+00 0.1209000D+00 0.1209000D+00 0.3569000D-01
EXPONENTS  0.3569000D-01 0.3569000D-01 0.1097000D+01 0.1097000D+01 0.1097000D+01
EXPONENTS  0.1097000D+01 0.1097000D+01 0.1097000D+01 0.3180000D+00 0.3180000D+00
EXPONENTS  0.3180000D+00 0.3180000D+00 0.3180000D+00 0.3180000D+00 0.1000000D+00
EXPONENTS  0.1000000D+00 0.1000000D+00 0.1000000D+00 0.1000000D+00 0.1000000D+00
EXPONENTS  0.7610000D+00 0.7610000D+00 0.7610000D+00 0.7610000D+00 0.7610000D+00
EXPONENTS  0.7610000D+00 0.7610000D+00 0.7610000D+00 0.7610000D+00 0.7610000D+00
EXPONENTS  0.2680000D+00 0.2680000D+00 0.2680000D+00 0.2680000D+00 0.2680000D+00
EXPONENTS  0.2680000D+00 0.2680000D+00 0.2680000D+00 0.2680000D+00 0.2680000D+00
EXPONENTS  0.8236000D+04 0.1235000D+04 0.2808000D+03 0.7927000D+02 0.2559000D+02
EXPONENTS  0.8997000D+01 0.3319000D+01 0.3643000D+00 0.8236000D+04 0.1235000D+04
EXPONENTS  0.2808000D+03 0.7927000D+02 0.2559000D+02 0.8997000D+01 0.3319000D+01
EXPONENTS  0.3643000D+00 0.9059000D+00 0.1285000D+00 0.4402000D-01 0.1871000D+02
EXPONENTS  0.4133000D+01 0.1200000D+01 0.1871000D+02 0.4133000D+01 0.1200000D+01
EXPONENTS  0.1871000D+02 0.4133000D+01 0.1200000D+01 0.3827000D+00 0.3827000D+00
EXPONENTS  0.3827000D+00 0.1209000D+00 0.1209000D+00 0.1209000D+00 0.3569000D-01
EXPONENTS  0.3569000D-01 0.3569000D-01 0.1097000D+01 0.1097000D+01 0.1097000D+01
EXPONENTS  0.1097000D+01 0.1097000D+01 0.1097000D+01 0.3180000D+00 0.3180000D+00
EXPONENTS  0.3180000D+00 0.3180000D+00 0.3180000D+00 0.3180000D+00 0.1000000D+00
EXPONENTS  0.1000000D+00 0.1000000D+00 0.1000000D+00 0.1000000D+00 0.1000000D+00
EXPONENTS  0.7610000D+00 0.7610000D+00 0.7610000D+00 0.7610000D+00 0.7610000D+00
EXPONENTS  0.7610000D+00 0.7610000D+00 0.7610000D+00 0.7610000D+00 0.7610000D+00
EXPONENTS  0.2680000D+00 0.2680000D+00 0.2680000D+00 0.2680000D+00 0.2680000D+00
EXPONENTS  0.2680000D+00 0.2680000D+00 0.2680000D+00 0.2680000D+00 0.2680000D+00
EXPONENTS  0.3387000D+02 0.5095000D+01 0.1159000D+01 0.3258000D+00 0.1027000D+00
EXPONENTS  0.2526000D-01 0.1407000D+01 0.1407000D+01 0.1407000D+01 0.3880000D+00
EXPONENTS  0.3880000D+00 0.3880000D+00 0.1020000D+00 0.1020000D+00 0.1020000D+00
EXPONENTS  0.1057000D+01 0.1057000D+01 0.1057000D+01 0.1057000D+01 0.1057000D+01
EXPONENTS  0.1057000D+01 0.2470000D+00 0.2470000D+00 0.2470000D+00 0.2470000D+00
EXPONENTS  0.2470000D+00 0.2470000D+00 0.3387000D+02 0.5095000D+01 0.1159000D+01
EXPONENTS  0.3258000D+00 0.1027000D+00 0.2526000D-01 0.1407000D+01 0.1407000D+01
EXPONENTS  0.1407000D+01 0.3880000D+00 0.3880000D+00 0.3880000D+00 0.1020000D+00
EXPONENTS  0.1020000D+00 0.1020000D+00 0.1057000D+01 0.1057000D+01 0.1057000D+01
EXPONENTS  0.1057000D+01 0.1057000D+01 0.1057000D+01 0.2470000D+00 0.2470000D+00
EXPONENTS  0.2470000D+00 0.2470000D+00 0.2470000D+00 0.2470000D+00 0.3387000D+02
EXPONENTS  0.5095000D+01 0.1159000D+01 0.3258000D+00 0.1027000D+00 0.2526000D-01
EXPONENTS  0.1407000D+01 0.1407000D+01 0.1407000D+01 0.3880000D+00 0.3880000D+00
EXPONENTS  0.3880000D+00 0.1020000D+00 0.1020000D+00 0.1020000D+00 0.1057000D+01
EXPONENTS  0.1057000D+01 0.1057000D+01 0.1057000D+01 0.1057000D+01 0.1057000D+01
EXPONENTS  0.2470000D+00 0.2470000D+00 0.2470000D+00 0.2470000D+00 0.2470000D+00
EXPONENTS  0.2470000D+00 0.3387000D+02 0.5095000D+01 0.1159000D+01 0.3258000D+00
EXPONENTS  0.1027000D+00 0.2526000D-01 0.1407000D+01 0.1407000D+01 0.1407000D+01
EXPONENTS  0.3880000D+00 0.3880000D+00 0.3880000D+00 0.1020000D+00 0.1020000D+00
EXPONENTS  0.1020000D+00 0.1057000D+01 0.1057000D+01 0.1057000D+01 0.1057000D+01
EXPONENTS  0.1057000D+01 0.1057000D+01 0.2470000D+00 0.2470000D+00 0.2470000D+00
EXPONENTS  0.2470000D+00 0.2470000D+00 0.2470000D+00 0.3387000D+02 0.5095000D+01
EXPONENTS  0.1159000D+01 0.3258000D+00 0.1027000D+00 0.2526000D-01 0.1407000D+01
EXPONENTS  0.1407000D+01 0.1407000D+01 0.3880000D+00 0.3880000D+00 0.3880000D+00
EXPONENTS  0.1020000D+00 0.1020000D+00 0.1020000D+00 0.1057000D+01 0.1057000D+01
EXPONENTS  0.1057000D+01 0.1057000D+01 0.1057000D+01 0.1057000D+01 0.2470000D+00
EXPONENTS  0.2470000D+00 0.2470000D+00 0.2470000D+00 0.2470000D+00 0.2470000D+00
EXPONENTS  0.3387000D+02 0.5095000D+01 0.1159000D+01 0.3258000D+00 0.1027000D+00
EXPONENTS  0.2526000D-01 0.1407000D+01 0.1407000D+01 0.1407000D+01 0.3880000D+00
EXPONENTS  0.3880000D+00 0.3880000D+00 0.1020000D+00 0.1020000D+00 0.1020000D+00
EXPONENTS  0.1057000D+01 0.1057000D+01 0.1057000D+01 0.1057000D+01 0.1057000D+01
EXPONENTS  0.1057000D+01 0.2470000D+00 0.2470000D+00 0.2470000D+00 0.2470000D+00
EXPONENTS  0.2470000D+00 0.2470000D+00 0.3387000D+02 0.5095000D+01 0.1159000D+01
EXPONENTS  0.3258000D+00 0.1027000D+00 0.2526000D-01 0.1407000D+01 0.1407000D+01
EXPONENTS  0.1407000D+01 0.3880000D+00 0.3880000D+00 0.3880000D+00 0.1020000D+00
EXPONENTS  0.1020000D+00 0.1020000D+00 0.1057000D+01 0.1057000D+01 0.1057000D+01
EXPONENTS  0.1057000D+01 0.1057000D+01 0.1057000D+01 0.2470000D+00 0.2470000D+00
EXPONENTS  0.2470000D+00 0.2470000D+00 0.2470000D+00 0.2470000D+00 0.3387000D+02
EXPONENTS  0.5095000D+01 0.1159000D+01 0.3258000D+00 0.1027000D+00 0.2526000D-01
EXPONENTS  0.1407000D+01 0.1407000D+01 0.1407000D+01 0.3880000D+00 0.3880000D+00
EXPONENTS  0.3880000D+00 0.1020000D+00 0.1020000D+00 0.1020000D+00 0.1057000D+01
EXPONENTS  0.1057000D+01 0.1057000D+01 0.1057000D+01 0.1057000D+01 0.1057000D+01
EXPONENTS  0.2470000D+00 0.2470000D+00 0.2470000D+00 0.2470000D+00 0.2470000D+00
EXPONENTS  0.2470000D+00
MO    1     MO 0.0        OCC NO =    2.0000000  ORB. ENERGY =  -10.557507
  0.16437086D+00  0.30642465D+00  0.51791164D+00  0.77859084D+00  0.95658881D+00
  0.80799217D+00  0.30474492D+00 -0.15081996D-02 -0.10172258D-02 -0.19045677D-02
 -0.32426895D-02 -0.50159475D-02 -0.66058265D-02 -0.68638768D-02 -0.43616856D-02
  0.29231003D-02  0.16267080D-01 -0.12097602D-02  0.16964523D-04 -0.66328587D-13
 -0.62187266D-13 -0.44281038D-13 -0.34165309D-03 -0.32032149D-03 -0.22808798D-03
 -0.22153573D-03 -0.20770383D-03 -0.14789750D-03  0.13435687D-12  0.36845707D-04
  0.19748716D-03  0.46012170D-12 -0.62824959D-04 -0.79406676D-04 -0.28345625D-13
 -0.49678493D-05 -0.37827289D-05 -0.83432404D-03  0.46969194D-03  0.36463211D-03
 -0.24280611D-13 -0.50094659D-13  0.33156624D-03  0.12836573D-03 -0.13341929D-03
  0.50535601D-05  0.78628253D-14  0.10747542D-12 -0.19093906D-02 -0.94115473D-05
  0.87559777D-04 -0.78148229D-04 -0.29727190D-13  0.34936749D-13 -0.27964854D-03
  0.69414339D-14 -0.22876680D-03  0.16404507D-03 -0.13514196D-13 -0.18017281D-03
  0.25744656D-03 -0.73101053D-14  0.86647321D-03 -0.74958177D-03  0.20538132D-13
 -0.12382094D-13 -0.18125277D-03 -0.31004289D-03  0.37075084D-14  0.28250575D-03
 -0.60810769D-04  0.33438772D-13  0.26125257D-03  0.99093943D-03 -0.77890255D-13
  0.16437086D+00  0.30642465D+00  0.51791164D+00  0.77859084D+00  0.95658881D+00
  0.80799217D+00  0.30474492D+00 -0.15081996D-02 -0.10172258D-02 -0.19045677D-02
 -0.32426895D-02 -0.50159475D-02 -0.66058265D-02 -0.68638768D-02 -0.43616856D-02
  0.29231003D-02  0.16267080D-01 -0.12097602D-02  0.16964525D-04 -0.70144035D-13
 -0.65764491D-13 -0.46828235D-13  0.34165309D-03  0.32032149D-03  0.22808798D-03
 -0.22153573D-03 -0.20770383D-03 -0.14789750D-03  0.14003753D-12 -0.36845707D-04
  0.19748716D-03  0.49029337D-12  0.62824957D-04 -0.79406677D-04 -0.25064095D-13
  0.49678495D-05 -0.37827289D-05 -0.83432404D-03  0.46969194D-03  0.36463211D-03
  0.21771076D-13 -0.46786362D-13 -0.33156624D-03  0.12836573D-03 -0.13341929D-03
  0.50535599D-05  0.42779542D-14  0.10110997D-12  0.19093906D-02 -0.94115474D-05
  0.87559777D-04 -0.78148229D-04  0.33647302D-13  0.28090454D-13  0.27964854D-03
  0.59601359D-14  0.22876680D-03  0.16404507D-03 -0.73885255D-14  0.18017281D-03
  0.25744656D-03 -0.10491882D-13 -0.86647321D-03 -0.74958177D-03 -0.24428855D-13
 -0.11300471D-13  0.18125277D-03 -0.31004289D-03  0.11999453D-14 -0.28250575D-03
 -0.60810769D-04  0.32701469D-13 -0.26125257D-03  0.99093943D-03  0.75995837D-13
  0.16437086D+00  0.30642465D+00  0.51791164D+00  0.77859084D+00  0.95658881D+00
  0.80799217D+00  0.30474492D+00 -0.15081996D-02 -0.10172258D-02 -0.19045677D-02
 -0.32426895D-02 -0.50159475D-02 -0.66058265D-02 -0.68638768D-02 -0.43616856D-02
  0.29231003D-02  0.16267080D-01 -0.12097603D-02  0.16964540D-04  0.34165309D-03
  0.32032149D-03  0.22808798D-03  0.96752939D-13  0.90712030D-13  0.64592370D-13
  0.22153573D-03  0.20770383D-03  0.14789750D-03 -0.36845707D-04 -0.85348991D-13
 -0.19748716D-03  0.62824945D-04 -0.42849081D-12  0.79406673D-04  0.49678503D-05
  0.27712470D-13  0.37827291D-05  0.46969194D-03 -0.83432404D-03  0.36463211D-03
  0.36902284D-13  0.33156624D-03 -0.42145893D-13 -0.13341929D-03  0.12836573D-03
  0.50535600D-05 -0.51222653D-13 -0.19093906D-02  0.76805556D-13  0.87559775D-04
 -0.94115473D-05 -0.78148228D-04 -0.26321602D-13 -0.27964854D-03  0.37867945D-13
  0.22876680D-03 -0.16007120D-13 -0.16404507D-03  0.18017281D-03  0.76590496D-14
  0.74958177D-03 -0.86647321D-03  0.40362310D-13 -0.25744656D-03 -0.54124311D-13
  0.18125277D-03  0.11435597D-13  0.31004289D-03 -0.28250575D-03 -0.28136227D-13
 -0.99093943D-03 -0.26125257D-03 -0.61705627D-14  0.60810769D-04  0.74443394D-13
  0.16437086D+00  0.30642465D+00  0.51791164D+00  0.77859084D+00  0.95658881D+00
  0.80799217D+00  0.30474492D+00 -0.15081996D-02 -0.10172258D-02 -0.19045677D-02
 -0.32426895D-02 -0.50159475D-02 -0.66058265D-02 -0.68638768D-02 -0.43616856D-02
  0.29231003D-02  0.16267080D-01 -0.12097603D-02  0.16964542D-04 -0.34165309D-03
 -0.32032149D-03 -0.22808798D-03  0.93286735D-13  0.87462243D-13  0.62278328D-13
  0.22153573D-03  0.20770383D-03  0.14789750D-03  0.36845707D-04 -0.77411971D-13
 -0.19748716D-03 -0.62824943D-04 -0.39086251D-12  0.79406675D-04 -0.49678504D-05
  0.31068565D-13  0.37827291D-05  0.46969194D-03 -0.83432404D-03  0.36463211D-03
 -0.37092806D-13 -0.33156624D-03 -0.43413457D-13 -0.13341929D-03  0.12836573D-03
  0.50535598D-05  0.41408743D-13  0.19093906D-02  0.79597956D-13  0.87559775D-04
 -0.94115474D-05 -0.78148228D-04  0.20718816D-13  0.27964854D-03  0.32705875D-13
 -0.22876680D-03 -0.17542291D-13 -0.16404507D-03 -0.18017281D-03  0.12794686D-13
  0.74958177D-03  0.86647321D-03  0.39832187D-13 -0.25744656D-03  0.49811135D-13
 -0.18125277D-03  0.12393283D-13  0.31004289D-03  0.28250575D-03 -0.28941272D-13
 -0.99093943D-03  0.26125257D-03 -0.82385758D-14  0.60810769D-04 -0.71927091D-13
  0.82925768D-04  0.14956004D-03  0.22052619D-03 -0.24283863D-05 -0.12378290D-02
  0.90884445D-06  0.17492972D-13  0.30574408D-03 -0.48426215D-03 -0.73033157D-13
  0.18130295D-02  0.50729884D-03 -0.68883368D-14  0.11082777D-03 -0.79699311D-04
  0.44158563D-03 -0.10103235D-02  0.56873791D-03  0.23271577D-13 -0.19345198D-13
  0.91944144D-03  0.12914384D-03 -0.17422258D-03  0.45078733D-04  0.40763911D-14
 -0.94965350D-15  0.67967556D-04  0.40317631D-04  0.72714508D-04  0.10721750D-03
  0.11661959D-02  0.14773971D-02 -0.56427166D-05  0.17203100D-13  0.30357750D-03
  0.48774799D-03 -0.94776635D-13 -0.53773452D-03  0.40561161D-03 -0.57324305D-13
  0.60976691D-04 -0.11478186D-03  0.45464255D-03  0.28359271D-03 -0.73823526D-03
  0.10317053D-12  0.39472730D-13 -0.94960077D-03  0.12251259D-03 -0.69159295D-04
 -0.53353292D-04 -0.76139472D-14  0.21217193D-13 -0.67094293D-04  0.82925768D-04
  0.14956004D-03  0.22052619D-03 -0.24283879D-05 -0.12378290D-02  0.90884452D-06
  0.16158189D-13 -0.30574408D-03 -0.48426215D-03 -0.68519455D-13 -0.18130295D-02
  0.50729884D-03 -0.78782469D-14 -0.11082778D-03 -0.79699311D-04  0.44158563D-03
 -0.10103235D-02  0.56873791D-03 -0.23877405D-13 -0.17667034D-13 -0.91944144D-03
  0.12914384D-03 -0.17422258D-03  0.45078733D-04 -0.23370487D-14  0.86079981D-15
 -0.67967556D-04  0.40317631D-04  0.72714508D-04  0.10721750D-03  0.11661959D-02
  0.14773971D-02 -0.56427166D-05  0.17929266D-13 -0.30357750D-03  0.48774799D-03
 -0.93062312D-13  0.53773452D-03  0.40561161D-03 -0.53256235D-13 -0.60976691D-04
 -0.11478187D-03  0.45464255D-03  0.28359271D-03 -0.73823526D-03 -0.10276492D-12
  0.37678136D-13  0.94960077D-03  0.12251259D-03 -0.69159295D-04 -0.53353292D-04
  0.70974676D-14  0.20043215D-13  0.67094293D-04  0.82925768D-04  0.14956004D-03
  0.22052619D-03 -0.24283843D-05 -0.12378290D-02  0.90884488D-06 -0.30574408D-03
 -0.28326850D-13  0.48426215D-03 -0.18130295D-02  0.66351004D-13 -0.50729884D-03
 -0.11082778D-03  0.97891780D-14  0.79699309D-04 -0.10103235D-02  0.44158563D-03
  0.56873790D-03 -0.12191011D-13  0.91944144D-03 -0.15948374D-13 -0.17422258D-03
  0.12914384D-03  0.45078733D-04  0.12511420D-14  0.67967556D-04 -0.11429944D-13
  0.40317631D-04  0.72714508D-04  0.10721750D-03  0.11661959D-02  0.14773971D-02
 -0.56427162D-05 -0.30357750D-03 -0.67709632D-14 -0.48774799D-03  0.53773452D-03
  0.29567389D-13 -0.40561161D-03 -0.60976692D-04  0.59974496D-13  0.11478187D-03
  0.28359271D-03  0.45464255D-03 -0.73823526D-03  0.73169120D-13 -0.94960077D-03
 -0.54165595D-14 -0.69159296D-04  0.12251259D-03 -0.53353292D-04 -0.13218018D-13
 -0.67094293D-04  0.11969438D-13  0.82925768D-04  0.14956004D-03  0.22052619D-03
 -0.24283854D-05 -0.12378291D-02  0.90884494D-06  0.30574408D-03 -0.26663051D-13
  0.48426215D-03  0.18130295D-02  0.64695813D-13 -0.50729884D-03  0.11082778D-03
  0.13505052D-13  0.79699310D-04 -0.10103235D-02  0.44158563D-03  0.56873790D-03
  0.14329558D-13 -0.91944144D-03 -0.16966288D-13 -0.17422258D-03  0.12914384D-03
  0.45078733D-04 -0.20717257D-14 -0.67967556D-04 -0.10908266D-13  0.40317631D-04
  0.72714508D-04  0.10721750D-03  0.11661959D-02  0.14773971D-02 -0.56427162D-05
  0.30357750D-03 -0.40300154D-14 -0.48774799D-03 -0.53773452D-03  0.29447587D-13
 -0.40561161D-03  0.60976692D-04  0.56761308D-13  0.11478187D-03  0.28359271D-03
  0.45464255D-03 -0.73823526D-03 -0.70557240D-13  0.94960077D-03 -0.48044736D-14
 -0.69159296D-04  0.12251259D-03 -0.53353292D-04  0.13221701D-13  0.67094293D-04
  0.12918527D-13
MO    2     MO 0.0        OCC NO =    2.0000000  ORB. ENERGY =  -10.557178
 -0.29823503D-13 -0.55597790D-13 -0.93970060D-13 -0.14126778D-12 -0.17356379D-12
 -0.14660237D-12 -0.55293019D-13  0.27364824D-15  0.44093339D-13  0.82556642D-13
  0.14055975D-12  0.21742456D-12  0.28634049D-12  0.29752611D-12  0.18906449D-12
 -0.12670662D-12 -0.41294251D-12  0.12943716D-10 -0.39937883D-11 -0.54756052D-03
 -0.51337279D-03 -0.36555201D-03  0.63113948D-13  0.59173338D-13  0.42134942D-13
  0.36361036D-13  0.34090782D-13  0.24274668D-13 -0.17109737D-02  0.14347479D-12
  0.63029171D-13 -0.18656042D-02 -0.42422938D-11 -0.11126530D-11 -0.53090973D-04
  0.20342970D-12  0.51439305D-13 -0.79440074D-13 -0.44490921D-13  0.12393099D-12
  0.16402423D-02  0.12892579D-03 -0.79749754D-13 -0.19214044D-12  0.18816634D-12
  0.39740932D-14 -0.95874302D-03 -0.10980552D-03 -0.12969962D-12 -0.65521465D-14
  0.46849979D-12 -0.46194765D-12  0.94141427D-04  0.12852969D-03  0.14167980D-12
  0.25008857D-03 -0.47540730D-13  0.69823674D-13 -0.13481618D-03 -0.10234444D-12
 -0.92681829D-13 -0.61544953D-03  0.24496663D-12 -0.11678919D-12  0.46109631D-03
  0.22901310D-05  0.69056332D-14  0.38459210D-13  0.61284367D-03 -0.16222169D-12
 -0.15039474D-13 -0.61971406D-03  0.14150479D-12 -0.10033816D-12  0.25971282D-04
  0.10990065D-11  0.20487980D-11  0.34628295D-11  0.52057670D-11  0.63958862D-11
  0.54023484D-11  0.20375670D-11 -0.10084033D-13  0.37529905D-13  0.70267824D-13
  0.11963698D-12  0.18506022D-12  0.24371780D-12  0.25323841D-12  0.16092164D-12
 -0.10784594D-12 -0.31339991D-12  0.13082633D-10 -0.40645064D-11 -0.54756052D-03
 -0.51337279D-03 -0.36555201D-03 -0.54627478D-13 -0.51216733D-13 -0.36469365D-13
  0.29277138D-13  0.27449178D-13  0.19545450D-13 -0.17109737D-02 -0.18132619D-12
  0.91901354D-13 -0.18656042D-02  0.42967234D-11 -0.10779700D-11 -0.53090973D-04
 -0.20834691D-12  0.52067716D-13 -0.89408259D-13 -0.42875804D-13  0.13228406D-12
 -0.16402423D-02  0.12892579D-03  0.87129235D-13 -0.20538430D-12  0.18339833D-12
  0.21985963D-13  0.95874302D-03 -0.10980552D-03  0.12026432D-12 -0.39958443D-14
  0.46654227D-12 -0.46254642D-12 -0.94141427D-04  0.12852969D-03 -0.15406932D-12
  0.25008857D-03  0.49431545D-13  0.77375610D-13 -0.13481618D-03  0.11022593D-12
 -0.97345131D-13 -0.61544953D-03 -0.25852057D-12 -0.13478170D-12 -0.46109631D-03
  0.22901310D-05 -0.65745300D-14  0.39986523D-13  0.61284367D-03  0.16219682D-12
 -0.19203145D-13 -0.61971406D-03 -0.14247323D-12 -0.10075642D-12 -0.25971282D-04
  0.23290268D+00  0.43418355D+00  0.73384669D+00  0.11032120D+01  0.13554233D+01
  0.11448717D+01  0.43180348D+00 -0.21370195D-02 -0.17479152D-02 -0.32726488D-02
 -0.55719646D-02 -0.86189820D-02 -0.11350896D-01 -0.11794308D-01 -0.74947533D-02
  0.50228094D-02  0.24037202D-01 -0.12996634D-01 -0.79643674D-03  0.42434068D-04
  0.39784636D-04  0.28329031D-04 -0.32831443D-14 -0.30781565D-14 -0.21918308D-14
  0.71978371D-04  0.67484298D-04  0.48052840D-04  0.19519438D-02  0.25506478D-14
  0.18840280D-03 -0.43567358D-03  0.13854992D-13 -0.10857135D-02 -0.28916490D-04
 -0.15430646D-14  0.30978664D-05  0.10797194D-02 -0.11129202D-02  0.33200849D-04
 -0.21141605D-15 -0.55846934D-04  0.29115054D-15 -0.78694694D-03  0.76119807D-03
  0.25748868D-04  0.63887219D-15  0.88288762D-03 -0.23832632D-14 -0.90435595D-04
 -0.43854944D-04  0.13429054D-03  0.11288943D-14 -0.28862284D-04 -0.20925787D-14
 -0.12824824D-03 -0.20382745D-15 -0.46431885D-03  0.86330529D-03  0.18532444D-14
  0.11869212D-02 -0.47856057D-03 -0.12417620D-14  0.20603536D-03  0.32460519D-14
 -0.12449702D-03 -0.27165286D-15  0.32582630D-03 -0.75348686D-03 -0.65823356D-16
 -0.10936797D-02  0.11269779D-02  0.88078193D-15  0.11620081D-03 -0.29712980D-14
 -0.23290268D+00 -0.43418355D+00 -0.73384669D+00 -0.11032120D+01 -0.13554233D+01
 -0.11448717D+01 -0.43180348D+00  0.21370195D-02  0.17479152D-02  0.32726488D-02
  0.55719646D-02  0.86189820D-02  0.11350896D-01  0.11794308D-01  0.74947533D-02
 -0.50228094D-02 -0.24037202D-01  0.12996634D-01  0.79643675D-03  0.42434067D-04
  0.39784635D-04  0.28329030D-04 -0.29773892D-14 -0.27914917D-14 -0.19877084D-14
 -0.71978371D-04 -0.67484298D-04 -0.48052840D-04  0.19519438D-02  0.14778236D-14
 -0.18840280D-03 -0.43567357D-03  0.16965697D-13  0.10857135D-02 -0.28916491D-04
 -0.73847689D-15 -0.30978663D-05 -0.10797194D-02  0.11129202D-02 -0.33200850D-04
  0.16905533D-14 -0.55846934D-04  0.79290870D-15  0.78694693D-03 -0.76119807D-03
 -0.25748868D-04 -0.12256071D-14  0.88288762D-03 -0.37423636D-14  0.90435594D-04
  0.43854944D-04 -0.13429054D-03 -0.18963483D-14 -0.28862283D-04 -0.24271268D-14
 -0.12824824D-03 -0.21758234D-15  0.46431885D-03  0.86330529D-03  0.15950400D-14
 -0.11869212D-02 -0.47856057D-03 -0.94229302D-15 -0.20603536D-03 -0.37953107D-14
 -0.12449702D-03 -0.31656261D-15 -0.32582630D-03 -0.75348686D-03 -0.11611715D-15
  0.10936797D-02  0.11269779D-02  0.10658050D-14 -0.11620081D-03  0.30218518D-14
  0.24811753D-13  0.44749018D-13  0.65982401D-13 -0.15457914D-11  0.14642897D-12
 -0.79915964D-13  0.15811149D-03 -0.13300163D-13 -0.10419268D-12  0.27449320D-03
  0.65330688D-12 -0.23492335D-12  0.91713232D-04 -0.14664499D-12 -0.47879692D-12
  0.55213350D-13 -0.79934599D-13  0.24721249D-13 -0.10385724D-02 -0.71846268D-05
  0.12864340D-12  0.36376490D-13 -0.27596852D-13 -0.87796381D-14 -0.10428914D-03
 -0.22674791D-03  0.20908580D-13  0.22998836D-13  0.41479348D-13  0.61161275D-13
 -0.12020639D-11  0.34385101D-11 -0.74281422D-13 -0.23611760D-03 -0.83081775D-13
  0.44349679D-13  0.13264347D-02  0.27310035D-12  0.54485193D-12  0.99707762D-04
 -0.31487069D-12  0.66110431D-14  0.65073954D-13  0.45672751D-13 -0.11074671D-12
 -0.61823627D-03 -0.97409276D-03 -0.11100986D-12  0.28646566D-13  0.15055353D-13
 -0.43701919D-13 -0.12507182D-03 -0.13538399D-03  0.53034193D-15  0.25885333D-13
  0.46685264D-13  0.68837394D-13 -0.15652256D-11  0.28356757D-12 -0.82616892D-13
  0.15811149D-03  0.76978836D-14 -0.11011263D-12  0.27449320D-03 -0.67323899D-12
 -0.24376230D-12  0.91713232D-04  0.15825625D-12 -0.47365830D-12  0.62423940D-13
 -0.87863529D-13  0.25439589D-13  0.10385724D-02 -0.71846268D-05 -0.14618753D-12
  0.38050390D-13 -0.29219881D-13 -0.88305088D-14  0.10428914D-03 -0.22674791D-03
 -0.24945868D-13  0.24611887D-13  0.44388553D-13  0.65450895D-13 -0.12838512D-11
  0.33440773D-11 -0.77385866D-13 -0.23611760D-03  0.86831535D-13  0.56320033D-13
  0.13264347D-02 -0.29755884D-12  0.58727670D-12  0.99707762D-04  0.30709634D-12
  0.27476674D-13  0.76576913D-13  0.50677429D-13 -0.12725434D-12  0.61823627D-03
 -0.97409276D-03  0.12761574D-12  0.29827514D-13  0.14975763D-13 -0.44803277D-13
  0.12507182D-03 -0.13538399D-03  0.42301202D-14  0.37988181D-04  0.68513249D-04
  0.10102275D-03  0.60751950D-02  0.26240159D-02 -0.38122448D-04 -0.47914906D-03
 -0.14374089D-15  0.15287666D-03  0.10839017D-02 -0.13202391D-14 -0.21796933D-04
  0.26502623D-03 -0.92937882D-16 -0.33098378D-03 -0.43282385D-03  0.52141195D-03
 -0.88588091D-04  0.61244452D-15  0.14711018D-02 -0.33799900D-16 -0.12134293D-03
  0.13215028D-03 -0.10807353D-04  0.57510552D-17  0.17101071D-03  0.25342633D-15
  0.26933508D-04  0.48575690D-04  0.71624827D-04  0.34826688D-02 -0.77539554D-03
 -0.68836313D-05 -0.24058625D-03  0.16139205D-15 -0.55944322D-03 -0.21117739D-03
 -0.15827739D-14  0.88068106D-04 -0.16786026D-03 -0.28043789D-14 -0.70053933D-04
 -0.85224505D-06  0.68817650D-03 -0.68732426D-03 -0.19205833D-14 -0.12119900D-02
 -0.32763836D-15 -0.32998023D-04  0.16058890D-03 -0.12759088D-03  0.13131272D-15
 -0.61154393D-04  0.24594756D-15 -0.37988181D-04 -0.68513249D-04 -0.10102275D-03
 -0.60751950D-02 -0.26240159D-02  0.38122448D-04 -0.47914906D-03 -0.16332621D-15
 -0.15287666D-03  0.10839017D-02 -0.69935103D-15  0.21796932D-04  0.26502623D-03
  0.74709926D-15  0.33098378D-03  0.43282386D-03 -0.52141195D-03  0.88588090D-04
 -0.11333806D-14  0.14711018D-02 -0.46125507D-15  0.12134293D-03 -0.13215028D-03