 Molden2AIM, Version 4.0.0 (06/02/2016)           Time: Tue Jul  3 01:39:41 2018
GAUSSIAN             26 MOL ORBITALS    521 PRIMITIVES        7 NUCLEI
  N    1    (CENTRE  1)  -1.88400592  1.28903699 -0.30117699  CHARGE =  7.0
  H    2    (CENTRE  2)  -1.94439401  2.48606322  1.20876143  CHARGE =  1.0
  Br   3    (CENTRE  3)   1.42587017 -0.12368257  0.00284593  CHARGE = 35.0
  C    4    (CENTRE  4)  -3.79056573 -0.67009121  0.04824282  CHARGE =  6.0
  H    5    (CENTRE  5)  -5.63598155  0.28710987 -0.02464770  CHARGE =  1.0
  H    6    (CENTRE  6)  -3.69045182 -2.00522996 -1.53270017  CHARGE =  1.0
  H    7    (CENTRE  7)  -3.64121122 -1.72362487  1.83840872  CHARGE =  1.0
CENTRE ASSIGNMENTS    1  1  1  1  1  1  1  1  1  1  1  1  1  1  1  1  1  1  1  1
CENTRE ASSIGNMENTS    1  1  1  1  1  1  1  1  1  1  1  1  1  1  1  1  1  1  1  1
CENTRE ASSIGNMENTS    1  1  1  1  1  1  1  1  1  1  1  1  1  1  1  1  1  1  1  1
CENTRE ASSIGNMENTS    1  1  1  1  1  1  1  1  1  1  1  1  1  1  1  2  2  2  2  2
CENTRE ASSIGNMENTS    2  2  2  2  2  2  2  2  2  2  2  2  2  2  2  2  2  2  2  2
CENTRE ASSIGNMENTS    2  2  3  3  3  3  3  3  3  3  3  3  3  3  3  3  3  3  3  3
CENTRE ASSIGNMENTS    3  3  3  3  3  3  3  3  3  3  3  3  3  3  3  3  3  3  3  3
CENTRE ASSIGNMENTS    3  3  3  3  3  3  3  3  3  3  3  3  3  3  3  3  3  3  3  3
CENTRE ASSIGNMENTS    3  3  3  3  3  3  3  3  3  3  3  3  3  3  3  3  3  3  3  3
CENTRE ASSIGNMENTS    3  3  3  3  3  3  3  3  3  3  3  3  3  3  3  3  3  3  3  3
CENTRE ASSIGNMENTS    3  3  3  3  3  3  3  3  3  3  3  3  3  3  3  3  3  3  3  3
CENTRE ASSIGNMENTS    3  3  3  3  3  3  3  3  3  3  3  3  3  3  3  3  3  3  3  3
CENTRE ASSIGNMENTS    3  3  3  3  3  3  3  3  3  3  3  3  3  3  3  3  3  3  3  3
CENTRE ASSIGNMENTS    3  3  3  3  3  3  3  3  3  3  3  3  3  3  3  3  3  3  3  3
CENTRE ASSIGNMENTS    3  3  3  3  3  3  3  3  3  3  3  3  3  3  3  3  3  3  3  3
CENTRE ASSIGNMENTS    3  3  3  3  3  3  3  3  3  3  3  3  3  3  3  3  3  3  3  3
CENTRE ASSIGNMENTS    3  3  3  3  3  3  3  3  3  3  3  3  3  3  3  3  3  3  3  3
CENTRE ASSIGNMENTS    3  3  3  3  3  3  3  3  3  3  3  3  3  3  3  3  3  3  3  3
CENTRE ASSIGNMENTS    3  3  3  3  3  4  4  4  4  4  4  4  4  4  4  4  4  4  4  4
CENTRE ASSIGNMENTS    4  4  4  4  4  4  4  4  4  4  4  4  4  4  4  4  4  4  4  4
CENTRE ASSIGNMENTS    4  4  4  4  4  4  4  4  4  4  4  4  4  4  4  4  4  4  4  4
CENTRE ASSIGNMENTS    4  4  4  4  4  4  4  4  4  4  4  4  4  4  4  4  4  4  4  4
CENTRE ASSIGNMENTS    5  5  5  5  5  5  5  5  5  5  5  5  5  5  5  5  5  5  5  5
CENTRE ASSIGNMENTS    5  5  5  5  5  5  5  6  6  6  6  6  6  6  6  6  6  6  6  6
CENTRE ASSIGNMENTS    6  6  6  6  6  6  6  6  6  6  6  6  6  6  7  7  7  7  7  7
CENTRE ASSIGNMENTS    7  7  7  7  7  7  7  7  7  7  7  7  7  7  7  7  7  7  7  7
CENTRE ASSIGNMENTS    7
TYPE ASSIGNMENTS      1  1  1  1  1  1  1  1  1  1  1  1  1  1  1  1  1  1  1  2
TYPE ASSIGNMENTS      2  2  3  3  3  4  4  4  2  3  4  2  3  4  2  3  4  5  6  7
TYPE ASSIGNMENTS      8  9 10  5  6  7  8  9 10  5  6  7  8  9 10 11 12 13 17 14
TYPE ASSIGNMENTS     15 18 19 16 20 11 12 13 17 14 15 18 19 16 20  1  1  1  1  1
TYPE ASSIGNMENTS      1  2  3  4  2  3  4  2  3  4  5  6  7  8  9 10  5  6  7  8
TYPE ASSIGNMENTS      9 10  1  1  1  1  1  1  1  1  1  1  1  1  1  1  1  1  1  1
TYPE ASSIGNMENTS      1  1  1  1  1  1  1  1  1  1  1  1  1  1  1  1  1  1  1  1
TYPE ASSIGNMENTS      1  1  1  1  1  1  1  1  1  1  1  1  1  1  1  1  1  1  1  1
TYPE ASSIGNMENTS      1  1  1  1  1  1  1  1  1  1  1  1  1  1  1  1  1  2  2  2
TYPE ASSIGNMENTS      2  2  2  2  2  2  2  2  3  3  3  3  3  3  3  3  3  3  3  4
TYPE ASSIGNMENTS      4  4  4  4  4  4  4  4  4  4  2  2  2  2  2  2  2  2  2  2
TYPE ASSIGNMENTS      2  3  3  3  3  3  3  3  3  3  3  3  4  4  4  4  4  4  4  4
TYPE ASSIGNMENTS      4  4  4  2  2  2  2  2  2  2  2  2  2  2  3  3  3  3  3  3
TYPE ASSIGNMENTS      3  3  3  3  3  4  4  4  4  4  4  4  4  4  4  4  2  3  4  2
TYPE ASSIGNMENTS      3  4  2  3  4  5  5  5  5  5  5  5  6  6  6  6  6  6  6  7
TYPE ASSIGNMENTS      7  7  7  7  7  7  8  8  8  8  8  8  8  9  9  9  9  9  9  9
TYPE ASSIGNMENTS     10 10 10 10 10 10 10  5  6  7  8  9 10  5  6  7  8  9 10  5
TYPE ASSIGNMENTS      6  7  8  9 10 11 12 13 17 14 15 18 19 16 20 11 12 13 17 14
TYPE ASSIGNMENTS     15 18 19 16 20  1  1  1  1  1  1  1  1  1  1  1  1  1  1  1
TYPE ASSIGNMENTS      1  1  1  1  2  2  2  3  3  3  4  4  4  2  3  4  2  3  4  2
TYPE ASSIGNMENTS      3  4  5  6  7  8  9 10  5  6  7  8  9 10  5  6  7  8  9 10
TYPE ASSIGNMENTS     11 12 13 17 14 15 18 19 16 20 11 12 13 17 14 15 18 19 16 20
TYPE ASSIGNMENTS      1  1  1  1  1  1  2  3  4  2  3  4  2  3  4  5  6  7  8  9
TYPE ASSIGNMENTS     10  5  6  7  8  9 10  1  1  1  1  1  1  2  3  4  2  3  4  2
TYPE ASSIGNMENTS      3  4  5  6  7  8  9 10  5  6  7  8  9 10  1  1  1  1  1  1
TYPE ASSIGNMENTS      2  3  4  2  3  4  2  3  4  5  6  7  8  9 10  5  6  7  8  9
TYPE ASSIGNMENTS     10
EXPONENTS  0.1142000D+05 0.1712000D+04 0.3893000D+03 0.1100000D+03 0.3557000D+02
EXPONENTS  0.1254000D+02 0.4644000D+01 0.5118000D+00 0.1142000D+05 0.1712000D+04
EXPONENTS  0.3893000D+03 0.1100000D+03 0.3557000D+02 0.1254000D+02 0.4644000D+01
EXPONENTS  0.5118000D+00 0.1293000D+01 0.1787000D+00 0.5760000D-01 0.2663000D+02
EXPONENTS  0.5948000D+01 0.1742000D+01 0.2663000D+02 0.5948000D+01 0.1742000D+01
EXPONENTS  0.2663000D+02 0.5948000D+01 0.1742000D+01 0.5550000D+00 0.5550000D+00
EXPONENTS  0.5550000D+00 0.1725000D+00 0.1725000D+00 0.1725000D+00 0.4910000D-01
EXPONENTS  0.4910000D-01 0.4910000D-01 0.1654000D+01 0.1654000D+01 0.1654000D+01
EXPONENTS  0.1654000D+01 0.1654000D+01 0.1654000D+01 0.4690000D+00 0.4690000D+00
EXPONENTS  0.4690000D+00 0.4690000D+00 0.4690000D+00 0.4690000D+00 0.1510000D+00
EXPONENTS  0.1510000D+00 0.1510000D+00 0.1510000D+00 0.1510000D+00 0.1510000D+00
EXPONENTS  0.1093000D+01 0.1093000D+01 0.1093000D+01 0.1093000D+01 0.1093000D+01
EXPONENTS  0.1093000D+01 0.1093000D+01 0.1093000D+01 0.1093000D+01 0.1093000D+01
EXPONENTS  0.3640000D+00 0.3640000D+00 0.3640000D+00 0.3640000D+00 0.3640000D+00
EXPONENTS  0.3640000D+00 0.3640000D+00 0.3640000D+00 0.3640000D+00 0.3640000D+00
EXPONENTS  0.3387000D+02 0.5095000D+01 0.1159000D+01 0.3258000D+00 0.1027000D+00
EXPONENTS  0.2526000D-01 0.1407000D+01 0.1407000D+01 0.1407000D+01 0.3880000D+00
EXPONENTS  0.3880000D+00 0.3880000D+00 0.1020000D+00 0.1020000D+00 0.1020000D+00
EXPONENTS  0.1057000D+01 0.1057000D+01 0.1057000D+01 0.1057000D+01 0.1057000D+01
EXPONENTS  0.1057000D+01 0.2470000D+00 0.2470000D+00 0.2470000D+00 0.2470000D+00
EXPONENTS  0.2470000D+00 0.2470000D+00 0.1063900D+08 0.1593400D+07 0.3626100D+06
EXPONENTS  0.1027000D+06 0.3350100D+05 0.1209300D+05 0.4715900D+04 0.1955600D+04
EXPONENTS  0.8526100D+03 0.3876700D+03 0.1826800D+03 0.8824500D+02 0.3926300D+02
EXPONENTS  0.1923400D+02 0.9405700D+01 0.4160100D+01 0.1899500D+01 0.3011400D+00
EXPONENTS  0.1063900D+08 0.1593400D+07 0.3626100D+06 0.1027000D+06 0.3350100D+05
EXPONENTS  0.1209300D+05 0.4715900D+04 0.1955600D+04 0.8526100D+03 0.3876700D+03
EXPONENTS  0.1826800D+03 0.8824500D+02 0.3926300D+02 0.1923400D+02 0.9405700D+01
EXPONENTS  0.4160100D+01 0.1899500D+01 0.3011400D+00 0.1063900D+08 0.1593400D+07
EXPONENTS  0.3626100D+06 0.1027000D+06 0.3350100D+05 0.1209300D+05 0.4715900D+04
EXPONENTS  0.1955600D+04 0.8526100D+03 0.3876700D+03 0.1826800D+03 0.8824500D+02
EXPONENTS  0.3926300D+02 0.1923400D+02 0.9405700D+01 0.4160100D+01 0.1899500D+01
EXPONENTS  0.3011400D+00 0.1063900D+08 0.1593400D+07 0.3626100D+06 0.1027000D+06
EXPONENTS  0.3350100D+05 0.1209300D+05 0.4715900D+04 0.1955600D+04 0.8526100D+03
EXPONENTS  0.3876700D+03 0.1826800D+03 0.8824500D+02 0.3926300D+02 0.1923400D+02
EXPONENTS  0.9405700D+01 0.4160100D+01 0.1899500D+01 0.3011400D+00 0.6047200D+00
EXPONENTS  0.1251500D+00 0.4559300D-01 0.8676500D+04 0.2055900D+04 0.6662300D+03
EXPONENTS  0.2531000D+03 0.1061200D+03 0.4724200D+02 0.2182500D+02 0.9968400D+01
EXPONENTS  0.4517100D+01 0.1998200D+01 0.2814500D+00 0.8676500D+04 0.2055900D+04
EXPONENTS  0.6662300D+03 0.2531000D+03 0.1061200D+03 0.4724200D+02 0.2182500D+02
EXPONENTS  0.9968400D+01 0.4517100D+01 0.1998200D+01 0.2814500D+00 0.8676500D+04
EXPONENTS  0.2055900D+04 0.6662300D+03 0.2531000D+03 0.1061200D+03 0.4724200D+02
EXPONENTS  0.2182500D+02 0.9968400D+01 0.4517100D+01 0.1998200D+01 0.2814500D+00
EXPONENTS  0.8676500D+04 0.2055900D+04 0.6662300D+03 0.2531000D+03 0.1061200D+03
EXPONENTS  0.4724200D+02 0.2182500D+02 0.9968400D+01 0.4517100D+01 0.1998200D+01
EXPONENTS  0.2814500D+00 0.8676500D+04 0.2055900D+04 0.6662300D+03 0.2531000D+03
EXPONENTS  0.1061200D+03 0.4724200D+02 0.2182500D+02 0.9968400D+01 0.4517100D+01
EXPONENTS  0.1998200D+01 0.2814500D+00 0.8676500D+04 0.2055900D+04 0.6662300D+03
EXPONENTS  0.2531000D+03 0.1061200D+03 0.4724200D+02 0.2182500D+02 0.9968400D+01
EXPONENTS  0.4517100D+01 0.1998200D+01 0.2814500D+00 0.8676500D+04 0.2055900D+04
EXPONENTS  0.6662300D+03 0.2531000D+03 0.1061200D+03 0.4724200D+02 0.2182500D+02
EXPONENTS  0.9968400D+01 0.4517100D+01 0.1998200D+01 0.2814500D+00 0.8676500D+04
EXPONENTS  0.2055900D+04 0.6662300D+03 0.2531000D+03 0.1061200D+03 0.4724200D+02
EXPONENTS  0.2182500D+02 0.9968400D+01 0.4517100D+01 0.1998200D+01 0.2814500D+00
EXPONENTS  0.8676500D+04 0.2055900D+04 0.6662300D+03 0.2531000D+03 0.1061200D+03
EXPONENTS  0.4724200D+02 0.2182500D+02 0.9968400D+01 0.4517100D+01 0.1998200D+01
EXPONENTS  0.2814500D+00 0.7098800D+00 0.7098800D+00 0.7098800D+00 0.1020400D+00
EXPONENTS  0.1020400D+00 0.1020400D+00 0.3514200D-01 0.3514200D-01 0.3514200D-01
EXPONENTS  0.4038300D+03 0.1211700D+03 0.4634500D+02 0.1972100D+02 0.8862400D+01
EXPONENTS  0.3996200D+01 0.1763600D+01 0.4038300D+03 0.1211700D+03 0.4634500D+02
EXPONENTS  0.1972100D+02 0.8862400D+01 0.3996200D+01 0.1763600D+01 0.4038300D+03
EXPONENTS  0.1211700D+03 0.4634500D+02 0.1972100D+02 0.8862400D+01 0.3996200D+01
EXPONENTS  0.1763600D+01 0.4038300D+03 0.1211700D+03 0.4634500D+02 0.1972100D+02
EXPONENTS  0.8862400D+01 0.3996200D+01 0.1763600D+01 0.4038300D+03 0.1211700D+03
EXPONENTS  0.4634500D+02 0.1972100D+02 0.8862400D+01 0.3996200D+01 0.1763600D+01
EXPONENTS  0.4038300D+03 0.1211700D+03 0.4634500D+02 0.1972100D+02 0.8862400D+01
EXPONENTS  0.3996200D+01 0.1763600D+01 0.7061900D+00 0.7061900D+00 0.7061900D+00
EXPONENTS  0.7061900D+00 0.7061900D+00 0.7061900D+00 0.2639000D+00 0.2639000D+00
EXPONENTS  0.2639000D+00 0.2639000D+00 0.2639000D+00 0.2639000D+00 0.1047000D+00
EXPONENTS  0.1047000D+00 0.1047000D+00 0.1047000D+00 0.1047000D+00 0.1047000D+00
EXPONENTS  0.5515000D+00 0.5515000D+00 0.5515000D+00 0.5515000D+00 0.5515000D+00
EXPONENTS  0.5515000D+00 0.5515000D+00 0.5515000D+00 0.5515000D+00 0.5515000D+00
EXPONENTS  0.2580000D+00 0.2580000D+00 0.2580000D+00 0.2580000D+00 0.2580000D+00
EXPONENTS  0.2580000D+00 0.2580000D+00 0.2580000D+00 0.2580000D+00 0.2580000D+00
EXPONENTS  0.8236000D+04 0.1235000D+04 0.2808000D+03 0.7927000D+02 0.2559000D+02
EXPONENTS  0.8997000D+01 0.3319000D+01 0.3643000D+00 0.8236000D+04 0.1235000D+04
EXPONENTS  0.2808000D+03 0.7927000D+02 0.2559000D+02 0.8997000D+01 0.3319000D+01
EXPONENTS  0.3643000D+00 0.9059000D+00 0.1285000D+00 0.4402000D-01 0.1871000D+02
EXPONENTS  0.4133000D+01 0.1200000D+01 0.1871000D+02 0.4133000D+01 0.1200000D+01
EXPONENTS  0.1871000D+02 0.4133000D+01 0.1200000D+01 0.3827000D+00 0.3827000D+00
EXPONENTS  0.3827000D+00 0.1209000D+00 0.1209000D+00 0.1209000D+00 0.3569000D-01
EXPONENTS  0.3569000D-01 0.3569000D-01 0.1097000D+01 0.1097000D+01 0.1097000D+01
EXPONENTS  0.1097000D+01 0.1097000D+01 0.1097000D+01 0.3180000D+00 0.3180000D+00
EXPONENTS  0.3180000D+00 0.3180000D+00 0.3180000D+00 0.3180000D+00 0.1000000D+00
EXPONENTS  0.1000000D+00 0.1000000D+00 0.1000000D+00 0.1000000D+00 0.1000000D+00
EXPONENTS  0.7610000D+00 0.7610000D+00 0.7610000D+00 0.7610000D+00 0.7610000D+00
EXPONENTS  0.7610000D+00 0.7610000D+00 0.7610000D+00 0.7610000D+00 0.7610000D+00
EXPONENTS  0.2680000D+00 0.2680000D+00 0.2680000D+00 0.2680000D+00 0.2680000D+00
EXPONENTS  0.2680000D+00 0.2680000D+00 0.2680000D+00 0.2680000D+00 0.2680000D+00
EXPONENTS  0.3387000D+02 0.5095000D+01 0.1159000D+01 0.3258000D+00 0.1027000D+00
EXPONENTS  0.2526000D-01 0.1407000D+01 0.1407000D+01 0.1407000D+01 0.3880000D+00
EXPONENTS  0.3880000D+00 0.3880000D+00 0.1020000D+00 0.1020000D+00 0.1020000D+00
EXPONENTS  0.1057000D+01 0.1057000D+01 0.1057000D+01 0.1057000D+01 0.1057000D+01
EXPONENTS  0.1057000D+01 0.2470000D+00 0.2470000D+00 0.2470000D+00 0.2470000D+00
EXPONENTS  0.2470000D+00 0.2470000D+00 0.3387000D+02 0.5095000D+01 0.1159000D+01
EXPONENTS  0.3258000D+00 0.1027000D+00 0.2526000D-01 0.1407000D+01 0.1407000D+01
EXPONENTS  0.1407000D+01 0.3880000D+00 0.3880000D+00 0.3880000D+00 0.1020000D+00
EXPONENTS  0.1020000D+00 0.1020000D+00 0.1057000D+01 0.1057000D+01 0.1057000D+01
EXPONENTS  0.1057000D+01 0.1057000D+01 0.1057000D+01 0.2470000D+00 0.2470000D+00
EXPONENTS  0.2470000D+00 0.2470000D+00 0.2470000D+00 0.2470000D+00 0.3387000D+02
EXPONENTS  0.5095000D+01 0.1159000D+01 0.3258000D+00 0.1027000D+00 0.2526000D-01
EXPONENTS  0.1407000D+01 0.1407000D+01 0.1407000D+01 0.3880000D+00 0.3880000D+00
EXPONENTS  0.3880000D+00 0.1020000D+00 0.1020000D+00 0.1020000D+00 0.1057000D+01
EXPONENTS  0.1057000D+01 0.1057000D+01 0.1057000D+01 0.1057000D+01 0.1057000D+01
EXPONENTS  0.2470000D+00 0.2470000D+00 0.2470000D+00 0.2470000D+00 0.2470000D+00
EXPONENTS  0.2470000D+00
MO    1     MO 0.0        OCC NO =    2.0000000  ORB. ENERGY = -485.525915
 -0.34180237D-05 -0.63689839D-05 -0.10771548D-04 -0.16221355D-04 -0.20083090D-04
 -0.17089803D-04 -0.65029854D-05  0.30456255D-07  0.23754894D-05  0.44540649D-05
  0.75776896D-05  0.11767352D-04  0.15615960D-04  0.16457079D-04  0.10204439D-04
 -0.67879965D-05 -0.12402936D-05  0.18852610D-04 -0.10620049D-04 -0.59712185D-06
 -0.57352840D-06 -0.40219770D-06  0.12325952D-05  0.11838929D-05  0.83022744D-06
 -0.19759883D-05 -0.18979132D-05 -0.13309477D-05 -0.44182814D-05  0.30763687D-05
  0.36631183D-05 -0.73318527D-06 -0.88803177D-05  0.52319950D-05 -0.20300870D-06
  0.60626322D-06 -0.50460287D-06 -0.10151713D-04  0.21770255D-05  0.79746880D-05
  0.88383712D-05 -0.16602015D-05 -0.77179323D-06  0.35121782D-05 -0.23667710D-07
 -0.34885105D-05 -0.18387097D-05 -0.41058169D-06  0.26074789D-05 -0.33876739D-06
  0.95359394D-06 -0.61482655D-06 -0.16380025D-05 -0.54899445D-07 -0.14891707D-05
 -0.16751759D-06  0.91707512D-06  0.94596948D-06 -0.66232404D-06 -0.24127998D-05
 -0.30016841D-05  0.11648768D-05 -0.33842559D-06  0.16377563D-06  0.29108535D-05
  0.12602301D-05  0.36700237D-06 -0.72872539D-06 -0.15178841D-05 -0.29371316D-05
  0.20690149D-05 -0.22628061D-05  0.18361245D-05  0.11716124D-06 -0.22324720D-05
  0.36991961D-06  0.66716524D-06  0.98373476D-06 -0.63220265D-05 -0.38677144D-05
 -0.23406576D-06  0.33265932D-05 -0.27900368D-05  0.84865357D-06  0.50151874D-06
  0.49444946D-05  0.41597052D-05 -0.93653673D-06  0.15329877D-05  0.12947717D-05
 -0.16396149D-08  0.98269575D-06 -0.98105613D-06 -0.14591806D-05 -0.68289619D-06
 -0.39464838D-05 -0.36224003D-06  0.52546044D-08  0.35698542D-06  0.14984716D-05
 -0.78939867D-06 -0.75498391D-06  0.78330557D+00  0.14734932D+01  0.25506893D+01
  0.41810679D+01  0.65497238D+01  0.98447927D+01  0.14070682D+02  0.18679180D+02
  0.21754442D+02  0.19981244D+02  0.11683819D+02  0.30658927D+01  0.16761116D+00
 -0.59991300D-02  0.16765675D-02 -0.49782947D-03  0.84871306D-04  0.69243312D-05
  0.50483737D-04  0.92754268D-04  0.16039351D-03  0.26266678D-03  0.41355705D-03
  0.62451166D-03  0.91159631D-03  0.12553235D-02  0.16039673D-02  0.17485123D-02
  0.14392949D-02  0.39464489D-03 -0.79602433D-03 -0.77576047D-03 -0.16975825D-03
 -0.57189990D-05 -0.19374141D-06  0.49285317D-09 -0.33317385D-04 -0.65315420D-04
 -0.11439834D-03 -0.18688966D-03 -0.29477001D-03 -0.44479478D-03 -0.65215753D-03
 -0.90041135D-03 -0.11673878D-02 -0.12982039D-02 -0.11275700D-02 -0.32753892D-03
  0.82572165D-03  0.12031346D-02  0.20712393D-03 -0.50529370D-03 -0.24050706D-03
  0.11614820D-05  0.11967537D-04  0.25930764D-04  0.44143013D-04  0.72053284D-04
  0.11358493D-03  0.17143247D-03  0.25134794D-03  0.34747068D-03  0.45098208D-03
  0.50382585D-03  0.44010329D-03  0.13035902D-03 -0.33885858D-03 -0.52127903D-03
 -0.91239748D-04  0.28781074D-03  0.24430779D-03 -0.91149054D-04  0.76517623D-04
  0.33189800D-04  0.83140542D-05 -0.32390261D-04 -0.46474289D-04 -0.61534429D-04
 -0.71054832D-04 -0.65871098D-04 -0.42646149D-04 -0.15052525D-04 -0.17642857D-05
 -0.25649448D-07 -0.37560762D-08 -0.38618297D-10  0.49424430D-04  0.70915306D-04
  0.93895636D-04  0.10842286D-03  0.10051298D-03  0.65073933D-04  0.22968708D-04
  0.26921307D-05  0.39138597D-07  0.57314119D-08  0.58927815D-10 -0.11213142D-04
 -0.16088873D-04 -0.21302523D-04 -0.24598379D-04 -0.22803829D-04 -0.14763614D-04
 -0.52110137D-05 -0.61077574D-06 -0.88795488D-08 -0.13003111D-08 -0.13369217D-10
 -0.80523069D-03 -0.11623598D-02 -0.15528849D-02 -0.18448748D-02 -0.17878251D-02
 -0.12427665D-02 -0.40438431D-03  0.18200503D-03  0.19662615D-03  0.50620801D-04
 -0.49375918D-07  0.19429241D-03  0.28046333D-03  0.37469230D-03  0.44514595D-03
  0.43138055D-03  0.29986451D-03  0.97573034D-04 -0.43915608D-04 -0.47443509D-04
 -0.12214186D-04  0.11913811D-07  0.85194549D-05  0.12297931D-04  0.16429742D-04
  0.19519037D-04  0.18915443D-04  0.13148646D-04  0.42784433D-05 -0.19256390D-05
 -0.20803326D-05 -0.53557525D-06  0.52240421D-09  0.56477756D-03  0.82064684D-03
  0.10910595D-02  0.13091959D-02  0.12666528D-02  0.89917600D-03  0.27946616D-03
 -0.16045184D-03 -0.18432354D-03 -0.48948737D-04  0.17660857D-04 -0.13344382D-03
 -0.19389979D-03 -0.25779203D-03 -0.30933259D-03 -0.29928065D-03 -0.21245441D-03
 -0.66031365D-04  0.37911044D-04  0.43551374D-04  0.11565450D-04 -0.41728505D-05
 -0.64933784D-05 -0.94351668D-05 -0.12544164D-04 -0.15052128D-04 -0.14563001D-04
 -0.10338035D-04 -0.32130872D-05  0.18447520D-05  0.21192105D-05  0.56277497D-06
 -0.20305096D-06 -0.10253965D-04  0.22908654D-05  0.26902088D-06 -0.13503733D-04
  0.24218865D-05  0.30810522D-06 -0.51580914D-06  0.53264825D-07  0.44329231D-07
  0.13274044D-03  0.13889856D-03  0.11834901D-03  0.77941770D-04  0.35921041D-04
  0.10756614D-04  0.18301467D-05 -0.40384198D-04 -0.42257712D-04 -0.36005832D-04
 -0.23712562D-04 -0.10928414D-04 -0.32725313D-05 -0.55679345D-06 -0.92356238D-04
 -0.96640852D-04 -0.82343178D-04 -0.54229208D-04 -0.24992627D-04 -0.74840827D-05
 -0.12733532D-05 -0.13718199D-03 -0.14354617D-03 -0.12230902D-03 -0.80549737D-04
 -0.37122976D-04 -0.11116535D-04 -0.18913842D-05  0.15171704D-04  0.15875553D-04
  0.13526821D-04  0.89084344D-05  0.41056322D-05  0.12294382D-05  0.20917849D-06
 -0.92192504D-05 -0.96469522D-05 -0.82197196D-05 -0.54133068D-05 -0.24948319D-05
 -0.74708146D-06 -0.12710958D-06 -0.57072648D-05  0.16496079D-05  0.40576569D-05
  0.50315204D-05 -0.47595839D-06  0.38797327D-06 -0.44479998D-06  0.41045198D-06
  0.34348003D-07  0.10316804D-05  0.16701526D-06 -0.15782763D-06  0.16959730D-05
 -0.63701941D-06 -0.10589536D-05 -0.84429102D-06 -0.10960465D-06  0.85663509D-07
  0.24917830D-05  0.92863714D-06 -0.16682841D-08 -0.85544873D-06 -0.41699425D-05
  0.17153525D-06 -0.66199004D-05  0.13840310D-05 -0.16653039D-06 -0.31416590D-06
 -0.78683687D-06 -0.12729884D-06 -0.15630960D-07  0.25715206D-06  0.58164876D-06
 -0.88707690D-07  0.21033585D-05 -0.19975223D-06  0.13560057D-06  0.42031947D-07
  0.26311416D-06  0.49050462D-06  0.82903922D-06  0.12463175D-05  0.15312451D-05
  0.12933812D-05  0.48781582D-06 -0.24142277D-08 -0.21105628D-06 -0.39516396D-06
 -0.67280045D-06 -0.10407200D-05 -0.13705916D-05 -0.14241325D-05 -0.90497226D-06
  0.60649136D-06  0.15681329D-05 -0.12145317D-04 -0.14033957D-05 -0.11700940D-06
 -0.10970375D-06 -0.78115606D-07  0.22050803D-05  0.20674030D-05  0.14721141D-05
 -0.52563402D-06 -0.49281531D-06 -0.35091386D-06  0.31103782D-05 -0.75236822D-05
  0.21846309D-05 -0.94911635D-05 -0.19971286D-05 -0.21025207D-05 -0.30126367D-06
  0.16985431D-07  0.89159275D-07  0.17123994D-05 -0.23953535D-05  0.68295413D-06
  0.16109691D-05  0.74292255D-06  0.73319368D-06 -0.12088712D-05  0.52144158D-06
  0.68742963D-06 -0.24286405D-05  0.46120939D-06  0.24433387D-06 -0.24086025D-05
  0.17996078D-05  0.60899468D-06 -0.15417695D-06 -0.88405648D-06 -0.34544046D-06
  0.98801568D-06 -0.38075709D-06  0.23967458D-06 -0.24139741D-05  0.21099521D-06
 -0.10620213D-06 -0.55007292D-06  0.93127606D-06 -0.61282161D-06  0.16052175D-05
 -0.10329763D-05 -0.75336724D-07  0.97602582D-07  0.18670462D-05 -0.76104725D-06
  0.47513321D-06  0.12318826D-05  0.98705742D-06 -0.76794096D-06  0.35771632D-06
 -0.21932702D-06 -0.39556531D-06 -0.58326082D-06  0.34602674D-05  0.63275890D-05
 -0.20199723D-06 -0.13218798D-05 -0.23511814D-05  0.23796619D-06  0.56786823D-05
  0.23473908D-05  0.68335600D-07 -0.12855860D-05 -0.25415757D-05 -0.31962445D-06
  0.17934173D-05 -0.17061331D-05 -0.87284208D-07 -0.91999410D-06  0.39988201D-06
  0.13224985D-06  0.44201194D-06 -0.11319452D-06 -0.32881742D-06 -0.24243521D-06
  0.21412455D-06  0.56379132D-06 -0.29018015D-06 -0.52335185D-06 -0.77168200D-06
  0.31573346D-05 -0.68224042D-05  0.47103245D-07 -0.45756765D-07  0.23275866D-06
  0.39100337D-06 -0.11454500D-05  0.14431631D-05 -0.16873235D-05 -0.31371067D-06
  0.23965812D-06 -0.15199493D-05  0.11194119D-05  0.82761000D-06 -0.19470219D-05
  0.16388498D-05 -0.12616157D-05  0.25978064D-06  0.18873604D-06  0.44135329D-07
 -0.23287136D-06 -0.12307711D-05 -0.55452031D-06 -0.35066826D-06 -0.30148407D-06
 -0.54373894D-06 -0.80174276D-06  0.52274061D-05 -0.27017036D-05 -0.13870713D-06
  0.34637115D-06  0.84486606D-06 -0.82261614D-06 -0.89477568D-06 -0.12668635D-05
  0.10577103D-05  0.11438636D-05  0.11106313D-05  0.97612538D-06  0.15630639D-05
 -0.47635130D-06 -0.10867126D-05  0.19708253D-05  0.31663490D-06  0.51184815D-06
  0.12811131D-06  0.24836906D-07 -0.15294821D-06 -0.13060525D-05  0.75558406D-06
  0.75936886D-06
MO    2     MO 0.0        OCC NO =    2.0000000  ORB. ENERGY =  -63.518692
  0.80794556D-04  0.15054876D-03  0.25461569D-03  0.38343712D-03  0.47472003D-03
  0.40396532D-03  0.15371626D-03 -0.71991882D-06 -0.56564973D-04 -0.10605985D-03
 -0.18043937D-03 -0.28020329D-03 -0.37184606D-03 -0.39187470D-03 -0.24298732D-03
  0.16163526D-03  0.40436047D-04 -0.50061901D-03  0.37507847D-03 -0.31297191D-05
 -0.30060578D-05 -0.21080552D-05 -0.28129860D-04 -0.27018394D-04 -0.18947163D-04
  0.55128466D-04  0.52950232D-04  0.37132358D-04  0.13448379D-03 -0.88494702D-04
 -0.10853568D-03  0.83487311D-04  0.26103080D-03 -0.15042363D-03  0.10160186D-04
 -0.21839292D-04  0.17330857D-04  0.25867954D-03 -0.51509945D-04 -0.20716959D-03
 -0.20709369D-03  0.34990920D-04  0.18922595D-04 -0.84726019D-04 -0.68950679D-05
  0.91621087D-04  0.23047512D-04  0.19622055D-04 -0.75126130D-04  0.17685316D-04
 -0.33749334D-04  0.16064018D-04  0.41668468D-04  0.45393771D-05  0.45130867D-04
  0.94392905D-05 -0.21925854D-04 -0.30508817D-04  0.22468679D-04  0.56075906D-04
  0.99534904D-04 -0.50786551D-04  0.97016565D-05 -0.80084536D-05 -0.10545187D-03
 -0.35389510D-04 -0.82087977D-05  0.21338463D-04  0.43233461D-04  0.77535588D-04
 -0.61031281D-04  0.62935069D-04 -0.52909195D-04 -0.29841072D-05  0.66829748D-04
 -0.95385109D-05 -0.17203097D-04 -0.25365957D-04  0.17059629D-03  0.14174510D-03
  0.83541961D-05 -0.91613281D-04  0.77179971D-04 -0.26945932D-04 -0.19160483D-04
 -0.14646765D-03 -0.12016396D-03  0.31027947D-04 -0.53031220D-04 -0.45036508D-04
 -0.55924117D-05 -0.24941040D-04  0.30533452D-04  0.49356931D-04  0.13250259D-04
  0.11540405D-03  0.12360148D-04  0.24630830D-07 -0.12384779D-04 -0.48336069D-04
  0.23140859D-04  0.25268240D-04  0.42869015D-03  0.80641838D-03  0.13959500D-02
  0.22882291D-02  0.35845552D-02  0.53878917D-02  0.77006507D-02  0.10222805D-01
  0.11905845D-01  0.10935404D-01  0.63943606D-02  0.16779122D-02  0.91730805D-04
 -0.32832244D-05  0.91755760D-06 -0.27245381D-06  0.46448658D-07  0.37895716D-08
 -0.25299158D+00 -0.46482392D+00 -0.80378768D+00 -0.13163147D+01 -0.20724783D+01
 -0.31296453D+01 -0.45683264D+01 -0.62908629D+01 -0.80380386D+01 -0.87624039D+01
 -0.72128076D+01 -0.19777029D+01  0.39891549D+01  0.38876057D+01  0.85071765D+00
  0.28659895D-01  0.97090565D-03 -0.24698587D-05  0.96017555D-03  0.18823287D-02
  0.32968520D-02  0.53859834D-02  0.84949932D-02  0.12818565D-01  0.18794564D-01
  0.25949004D-01  0.33643013D-01  0.37413010D-01  0.32495502D-01  0.94393622D-02
 -0.23796518D-01 -0.34673203D-01 -0.59691159D-02  0.14562087D-01  0.69311862D-02
 -0.33472815D-04 -0.36161731D-03 -0.78353739D-03 -0.13338481D-02 -0.21771994D-02
 -0.34321412D-02 -0.51800923D-02 -0.75948596D-02 -0.10499354D-01 -0.13627108D-01
 -0.15223863D-01 -0.13298389D-01 -0.39389958D-02  0.10239126D-01  0.15751237D-01
  0.27569475D-02 -0.86966384D-02 -0.73821308D-02  0.27542070D-02 -0.27338196D-02
 -0.11622378D-02 -0.28815908D-03 -0.49109084D-01 -0.70462841D-01 -0.93296548D-01
 -0.10773108D+00 -0.99871666D-01 -0.64658738D-01 -0.22822160D-01 -0.26749539D-02
 -0.38888879D-04 -0.56948435D-05 -0.58551835D-07  0.20143525D-01  0.28902391D-01
  0.38268303D-01  0.44189047D-01  0.40965280D-01  0.26521669D-01  0.93611751D-02
  0.10972104D-02  0.15951409D-04  0.23359063D-05  0.24016744D-07 -0.22076728D-02
 -0.31676195D-02 -0.41940967D-02 -0.48429934D-02 -0.44896776D-02 -0.29066992D-02
 -0.10259581D-02 -0.12025113D-03 -0.17482289D-05 -0.25600866D-06 -0.26321666D-08
  0.21835376D-01  0.31519617D-01  0.42109455D-01  0.50027324D-01  0.48480312D-01
  0.33700001D-01  0.10965657D-01 -0.49354159D-02 -0.53318957D-02 -0.13726802D-02
  0.13389228D-05 -0.45538821D-02 -0.65735812D-02 -0.87821473D-02 -0.10433461D-01
 -0.10110823D-01 -0.70283117D-02 -0.22869452D-02  0.10293068D-02  0.11119948D-02
  0.28627965D-03 -0.27923937D-06 -0.47405641D-03 -0.68430588D-03 -0.91421629D-03
 -0.10861170D-02 -0.10525306D-02 -0.73164305D-03 -0.23806963D-03  0.10715023D-03
  0.11575799D-03  0.29801541D-04 -0.29068651D-07 -0.15547121D-01 -0.22590657D-01
 -0.30034541D-01 -0.36039370D-01 -0.34868250D-01 -0.24752397D-01 -0.76931073D-02
  0.44168969D-02  0.50740340D-02  0.13474543D-02 -0.48616572D-03  0.31879715D-02
  0.46322640D-02  0.61586488D-02  0.73899522D-02  0.71498114D-02  0.50755336D-02
  0.15774886D-02 -0.90569444D-03 -0.10404419D-02 -0.27629848D-03  0.99689353D-04
  0.35357759D-03  0.51376392D-03  0.68305509D-03  0.81961883D-03  0.79298484D-03
  0.56292690D-03  0.17495910D-03 -0.10045048D-03 -0.11539530D-03 -0.30644236D-04
  0.11056536D-04  0.25072699D-03 -0.41495303D-04 -0.11718117D-04  0.46155480D-03
 -0.87770901D-04 -0.92750881D-05  0.17692986D-04 -0.21258618D-05 -0.14543519D-05
  0.75987427D-03  0.79512655D-03  0.67749038D-03  0.44617863D-03  0.20563045D-03
  0.61576370D-04  0.10476697D-04 -0.40254138D-03 -0.42121618D-03 -0.35889873D-03
 -0.23636195D-03 -0.10893219D-03 -0.32619919D-04 -0.55500027D-05 -0.35733289D-03
 -0.37391036D-03 -0.31859164D-03 -0.20981668D-03 -0.96698262D-04 -0.28956451D-04
 -0.49266947D-05 -0.26829276D-02 -0.28073947D-02 -0.23920505D-02 -0.15753461D-02
 -0.72603013D-03 -0.21741090D-03 -0.36990621D-04  0.96080116D-03  0.10053749D-02
  0.85663322D-03  0.56415774D-03  0.26000350D-03  0.77858470D-04  0.13246959D-04
 -0.15186599D-03 -0.15891140D-03 -0.13540102D-03 -0.89171805D-04 -0.41096630D-04
 -0.12306452D-04 -0.20938385D-05  0.16100451D-03 -0.45460265D-04 -0.11554424D-03
 -0.12980300D-03  0.80865663D-05 -0.99477778D-05 -0.22960880D-05 -0.73899638D-05
  0.96860518D-05 -0.10208987D-04 -0.78596854D-05  0.61872237D-05 -0.56831113D-04
  0.21349580D-04  0.35481533D-04  0.29786112D-04  0.34898377D-05 -0.29391747D-05
 -0.74146663D-04 -0.25437193D-04 -0.10845058D-05  0.24632780D-04  0.11489224D-03
 -0.18988747D-05  0.19780721D-03 -0.38580661D-04  0.51523922D-05  0.49341505D-05
  0.26383046D-04  0.50007730D-05  0.45916517D-06 -0.88274581D-05 -0.22647820D-04
  0.29992068D-05 -0.70321681D-04  0.76455008D-05 -0.43767023D-05 -0.11366836D-05
 -0.62258837D-05 -0.11606463D-04 -0.19616967D-04 -0.29490727D-04 -0.36232765D-04
 -0.30604363D-04 -0.11542840D-04  0.57126157D-07  0.51277685D-05  0.96008006D-05
  0.16346185D-04  0.25285062D-04  0.33299537D-04  0.34600352D-04  0.21986970D-04
 -0.14735156D-04 -0.50908974D-04  0.39435019D-03  0.46199295D-04  0.30321144D-05
  0.28428000D-05  0.20242429D-05 -0.61938242D-04 -0.58071039D-04 -0.41350039D-04
  0.15364318D-04  0.14405025D-04  0.10257236D-04 -0.93959267D-04  0.20774562D-03
 -0.63537193D-04  0.30594923D-03  0.63506633D-04  0.60077386D-04  0.97376621D-05
 -0.14500466D-06 -0.32571681D-05 -0.49018685D-04  0.68066369D-04 -0.19047684D-04
 -0.57405058D-04 -0.20724314D-04 -0.21760210D-04  0.29113274D-04 -0.17072463D-04
 -0.12040811D-04  0.89045036D-04 -0.15660772D-04 -0.31743462D-05  0.79766418D-04
 -0.61423272D-04 -0.18343146D-04  0.50977277D-05  0.25525750D-04  0.12021118D-04
 -0.33629776D-04  0.96687365D-05 -0.62915246D-05  0.80736536D-04  0.81892981D-05
  0.22455280D-05  0.20152793D-04 -0.37195508D-04  0.16629046D-04 -0.46979687D-04
  0.34506409D-04  0.34470270D-05 -0.22262862D-05 -0.59909402D-04  0.22047324D-04
 -0.15166920D-04 -0.43609825D-04 -0.32388405D-04  0.21845778D-04 -0.11230523D-04
  0.64707745D-05  0.11670308D-04  0.17207863D-04 -0.78279281D-04 -0.21702305D-03
  0.64968733D-05  0.38008539D-04  0.73995076D-04 -0.74354910D-05 -0.16621092D-03
 -0.78630612D-04 -0.75634928D-06  0.41506259D-04  0.86080452D-04  0.82284230D-05
 -0.51435849D-04  0.50857412D-04  0.57843699D-06  0.36028085D-04 -0.13281581D-04
 -0.48566538D-05 -0.13163116D-04  0.37057994D-05  0.94573161D-05  0.83808200D-05
 -0.67675781D-05 -0.17188580D-04  0.92841673D-05  0.16744378D-04  0.24689576D-04
 -0.12366790D-03  0.21435169D-03 -0.15044588D-05  0.16193628D-05 -0.85494936D-05
 -0.17991777D-04  0.42202078D-04 -0.53888047D-04  0.44263005D-04  0.76539611D-05
 -0.11463199D-04  0.52147159D-04 -0.31173108D-04 -0.24981164D-04  0.56154272D-04
 -0.50439098D-04  0.41849379D-04 -0.15595501D-04 -0.73086618D-05 -0.86543225D-06