 Molden2AIM, Version 4.0.0 (06/02/2016)           Time: Tue Jul  3 02:31:07 2018
GAUSSIAN              5 MOL ORBITALS    183 PRIMITIVES        5 NUCLEI
  C    1    (CENTRE  1)   0.00000000  0.00000000  0.00000000  CHARGE =  6.0
  H    2    (CENTRE  2)   1.19584515  1.19584515  1.19584515  CHARGE =  1.0
  H    3    (CENTRE  3)   1.19584515 -1.19584515 -1.19584515  CHARGE =  1.0
  H    4    (CENTRE  4)  -1.19584515  1.19584515 -1.19584515  CHARGE =  1.0
  H    5    (CENTRE  5)  -1.19584515 -1.19584515  1.19584515  CHARGE =  1.0
CENTRE ASSIGNMENTS    1  1  1  1  1  1  1  1  1  1  1  1  1  1  1  1  1  1  1  1
CENTRE ASSIGNMENTS    1  1  1  1  1  1  1  1  1  1  1  1  1  1  1  1  1  1  1  1
CENTRE ASSIGNMENTS    1  1  1  1  1  1  1  1  1  1  1  1  1  1  1  1  1  1  1  1
CENTRE ASSIGNMENTS    1  1  1  1  1  1  1  1  1  1  1  1  1  1  1  2  2  2  2  2
CENTRE ASSIGNMENTS    2  2  2  2  2  2  2  2  2  2  2  2  2  2  2  2  2  2  2  2
CENTRE ASSIGNMENTS    2  2  3  3  3  3  3  3  3  3  3  3  3  3  3  3  3  3  3  3
CENTRE ASSIGNMENTS    3  3  3  3  3  3  3  3  3  4  4  4  4  4  4  4  4  4  4  4
CENTRE ASSIGNMENTS    4  4  4  4  4  4  4  4  4  4  4  4  4  4  4  4  5  5  5  5
CENTRE ASSIGNMENTS    5  5  5  5  5  5  5  5  5  5  5  5  5  5  5  5  5  5  5  5
CENTRE ASSIGNMENTS    5  5  5
TYPE ASSIGNMENTS      1  1  1  1  1  1  1  1  1  1  1  1  1  1  1  1  1  1  1  2
TYPE ASSIGNMENTS      2  2  3  3  3  4  4  4  2  3  4  2  3  4  2  3  4  5  6  7
TYPE ASSIGNMENTS      8  9 10  5  6  7  8  9 10  5  6  7  8  9 10 11 12 13 17 14
TYPE ASSIGNMENTS     15 18 19 16 20 11 12 13 17 14 15 18 19 16 20  1  1  1  1  1
TYPE ASSIGNMENTS      1  2  3  4  2  3  4  2  3  4  5  6  7  8  9 10  5  6  7  8
TYPE ASSIGNMENTS      9 10  1  1  1  1  1  1  2  3  4  2  3  4  2  3  4  5  6  7
TYPE ASSIGNMENTS      8  9 10  5  6  7  8  9 10  1  1  1  1  1  1  2  3  4  2  3
TYPE ASSIGNMENTS      4  2  3  4  5  6  7  8  9 10  5  6  7  8  9 10  1  1  1  1
TYPE ASSIGNMENTS      1  1  2  3  4  2  3  4  2  3  4  5  6  7  8  9 10  5  6  7
TYPE ASSIGNMENTS      8  9 10
EXPONENTS  0.8236000D+04 0.1235000D+04 0.2808000D+03 0.7927000D+02 0.2559000D+02
EXPONENTS  0.8997000D+01 0.3319000D+01 0.3643000D+00 0.8236000D+04 0.1235000D+04
EXPONENTS  0.2808000D+03 0.7927000D+02 0.2559000D+02 0.8997000D+01 0.3319000D+01
EXPONENTS  0.3643000D+00 0.9059000D+00 0.1285000D+00 0.4402000D-01 0.1871000D+02
EXPONENTS  0.4133000D+01 0.1200000D+01 0.1871000D+02 0.4133000D+01 0.1200000D+01
EXPONENTS  0.1871000D+02 0.4133000D+01 0.1200000D+01 0.3827000D+00 0.3827000D+00
EXPONENTS  0.3827000D+00 0.1209000D+00 0.1209000D+00 0.1209000D+00 0.3569000D-01
EXPONENTS  0.3569000D-01 0.3569000D-01 0.1097000D+01 0.1097000D+01 0.1097000D+01
EXPONENTS  0.1097000D+01 0.1097000D+01 0.1097000D+01 0.3180000D+00 0.3180000D+00
EXPONENTS  0.3180000D+00 0.3180000D+00 0.3180000D+00 0.3180000D+00 0.1000000D+00
EXPONENTS  0.1000000D+00 0.1000000D+00 0.1000000D+00 0.1000000D+00 0.1000000D+00
EXPONENTS  0.7610000D+00 0.7610000D+00 0.7610000D+00 0.7610000D+00 0.7610000D+00
EXPONENTS  0.7610000D+00 0.7610000D+00 0.7610000D+00 0.7610000D+00 0.7610000D+00
EXPONENTS  0.2680000D+00 0.2680000D+00 0.2680000D+00 0.2680000D+00 0.2680000D+00
EXPONENTS  0.2680000D+00 0.2680000D+00 0.2680000D+00 0.2680000D+00 0.2680000D+00
EXPONENTS  0.3387000D+02 0.5095000D+01 0.1159000D+01 0.3258000D+00 0.1027000D+00
EXPONENTS  0.2526000D-01 0.1407000D+01 0.1407000D+01 0.1407000D+01 0.3880000D+00
EXPONENTS  0.3880000D+00 0.3880000D+00 0.1020000D+00 0.1020000D+00 0.1020000D+00
EXPONENTS  0.1057000D+01 0.1057000D+01 0.1057000D+01 0.1057000D+01 0.1057000D+01
EXPONENTS  0.1057000D+01 0.2470000D+00 0.2470000D+00 0.2470000D+00 0.2470000D+00
EXPONENTS  0.2470000D+00 0.2470000D+00 0.3387000D+02 0.5095000D+01 0.1159000D+01
EXPONENTS  0.3258000D+00 0.1027000D+00 0.2526000D-01 0.1407000D+01 0.1407000D+01
EXPONENTS  0.1407000D+01 0.3880000D+00 0.3880000D+00 0.3880000D+00 0.1020000D+00
EXPONENTS  0.1020000D+00 0.1020000D+00 0.1057000D+01 0.1057000D+01 0.1057000D+01
EXPONENTS  0.1057000D+01 0.1057000D+01 0.1057000D+01 0.2470000D+00 0.2470000D+00
EXPONENTS  0.2470000D+00 0.2470000D+00 0.2470000D+00 0.2470000D+00 0.3387000D+02
EXPONENTS  0.5095000D+01 0.1159000D+01 0.3258000D+00 0.1027000D+00 0.2526000D-01
EXPONENTS  0.1407000D+01 0.1407000D+01 0.1407000D+01 0.3880000D+00 0.3880000D+00
EXPONENTS  0.3880000D+00 0.1020000D+00 0.1020000D+00 0.1020000D+00 0.1057000D+01
EXPONENTS  0.1057000D+01 0.1057000D+01 0.1057000D+01 0.1057000D+01 0.1057000D+01
EXPONENTS  0.2470000D+00 0.2470000D+00 0.2470000D+00 0.2470000D+00 0.2470000D+00
EXPONENTS  0.2470000D+00 0.3387000D+02 0.5095000D+01 0.1159000D+01 0.3258000D+00
EXPONENTS  0.1027000D+00 0.2526000D-01 0.1407000D+01 0.1407000D+01 0.1407000D+01
EXPONENTS  0.3880000D+00 0.3880000D+00 0.3880000D+00 0.1020000D+00 0.1020000D+00
EXPONENTS  0.1020000D+00 0.1057000D+01 0.1057000D+01 0.1057000D+01 0.1057000D+01
EXPONENTS  0.1057000D+01 0.1057000D+01 0.2470000D+00 0.2470000D+00 0.2470000D+00
EXPONENTS  0.2470000D+00 0.2470000D+00 0.2470000D+00
MO    1     MO 0.0        OCC NO =    2.0000000  ORB. ENERGY =  -10.544512
  0.32862920D+00  0.61263955D+00  0.10354688D+01  0.15566487D+01  0.19125228D+01
  0.16154313D+01  0.60928124D+00 -0.30153668D-02 -0.19378225D-02 -0.36282150D-02
 -0.61773466D-02 -0.95554158D-02 -0.12584147D-01 -0.13075734D-01 -0.83090422D-02
  0.55685268D-02  0.31500899D-01  0.18164561D-02  0.12234855D-03 -0.25499825D-14
 -0.23907707D-14 -0.17023712D-14  0.72577867D-14  0.68046363D-14  0.48453064D-14
  0.22016584D-15  0.20641947D-15  0.14698296D-15  0.14051798D-13 -0.31295002D-13
  0.55543776D-14  0.16050341D-13 -0.19336349D-13  0.13879573D-13  0.42537355D-15
 -0.27098454D-15  0.25596489D-15  0.69106940D-16  0.32161662D-15 -0.39072356D-15
 -0.18504280D-14 -0.74925984D-14  0.28061609D-14  0.22148437D-15 -0.87973967D-15
  0.65825530D-15  0.72846154D-14 -0.25103993D-13  0.95694736D-14  0.23506837D-15
  0.74701206D-17 -0.24253849D-15  0.21873921D-14 -0.27783549D-14  0.18840083D-14
 -0.89547005D-15  0.28778655D-14 -0.28998583D-15  0.12731398D-14 -0.46548789D-14
  0.31335953D-15  0.14132704D-14 -0.39787177D-14  0.55659797D-15  0.63260984D-02
 -0.20224957D-15  0.90020616D-15 -0.20972198D-15  0.77737078D-16 -0.12926421D-14
 -0.93067773D-17  0.52901162D-15 -0.14079764D-14  0.63847272D-15 -0.77249028D-03
  0.26100920D-04  0.47074084D-04  0.69410709D-04 -0.40231746D-03 -0.45635458D-03
 -0.10404041D-04  0.86450347D-03  0.86450347D-03  0.86450347D-03  0.82138132D-03
  0.82138132D-03  0.82138132D-03  0.10598786D-03  0.10598786D-03  0.10598786D-03
 -0.13885148D-15  0.58646111D-16  0.80205374D-16 -0.18065851D-02 -0.18065851D-02
 -0.18065851D-02 -0.43705451D-15  0.83875333D-15 -0.40169882D-15 -0.19110937D-03
 -0.19110937D-03 -0.19110937D-03  0.26100920D-04  0.47074084D-04  0.69410709D-04
 -0.40231746D-03 -0.45635458D-03 -0.10404041D-04  0.86450347D-03 -0.86450347D-03
 -0.86450347D-03  0.82138132D-03 -0.82138132D-03 -0.82138132D-03  0.10598786D-03
 -0.10598786D-03 -0.10598786D-03  0.55020223D-15 -0.84036116D-15  0.29015892D-15
  0.18065851D-02  0.18065851D-02 -0.18065851D-02  0.20857066D-15 -0.97942389D-15
  0.77085323D-15  0.19110937D-03  0.19110937D-03 -0.19110937D-03  0.26100920D-04
  0.47074084D-04  0.69410709D-04 -0.40231746D-03 -0.45635458D-03 -0.10404041D-04
 -0.86450347D-03  0.86450347D-03 -0.86450347D-03 -0.82138132D-03  0.82138132D-03
 -0.82138132D-03 -0.10598786D-03  0.10598786D-03 -0.10598786D-03  0.41466909D-16
  0.10520668D-15 -0.14667359D-15  0.18065851D-02 -0.18065851D-02  0.18065851D-02
 -0.41783641D-15  0.32818613D-15  0.89650280D-16  0.19110937D-03 -0.19110937D-03
  0.19110937D-03  0.26100920D-04  0.47074084D-04  0.69410709D-04 -0.40231746D-03
 -0.45635458D-03 -0.10404041D-04 -0.86450347D-03 -0.86450347D-03  0.86450347D-03
 -0.82138132D-03 -0.82138132D-03  0.82138132D-03 -0.10598786D-03 -0.10598786D-03
  0.10598786D-03 -0.55844448D-16 -0.24788772D-15  0.30373217D-15 -0.18065851D-02
  0.18065851D-02  0.18065851D-02  0.67698697D-15 -0.53868683D-15 -0.13830014D-15
 -0.19110937D-03  0.19110937D-03  0.19110937D-03
MO    2     MO 0.0        OCC NO =    2.0000000  ORB. ENERGY =   -0.800247
 -0.70530673D-02 -0.13148521D-01 -0.22223317D-01 -0.33408925D-01 -0.41046724D-01
 -0.34670520D-01 -0.13076445D-01  0.64716054D-04 -0.53602715D-01 -0.10036120D+00
 -0.17087352D+00 -0.26431536D+00 -0.34809403D+00 -0.36169199D+00 -0.22983902D+00
  0.15403277D+00  0.63763780D-01  0.35020168D-01  0.44732314D-03 -0.68476029D-13
 -0.64200630D-13 -0.45714673D-13 -0.47184957D-13 -0.44238896D-13 -0.31500730D-13
 -0.20459949D-13 -0.19182503D-13 -0.13659085D-13  0.33639975D-12  0.21765550D-12
  0.10265697D-12  0.41363354D-12  0.22738088D-12  0.14130234D-12  0.13634628D-13
  0.52696498D-14  0.40725194D-14  0.15453244D-14 -0.32448190D-15 -0.12208425D-14
  0.10392178D-13  0.24310890D-13  0.30986687D-13 -0.44827855D-14  0.13248274D-14
  0.31579582D-14  0.97672656D-13  0.20971753D-12  0.33337308D-12 -0.17173606D-14
  0.99743169D-15  0.71992889D-15  0.20130882D-13  0.31407735D-13  0.57707821D-13
 -0.29437459D-13 -0.18475818D-13 -0.87878204D-14  0.44168154D-13  0.28262313D-13
  0.12668114D-13  0.44144224D-13  0.27165141D-13  0.13695347D-13  0.15217214D-01
 -0.14566050D-13 -0.97816072D-14 -0.35402912D-14  0.20800347D-13  0.15553747D-13
  0.37257489D-14  0.22897804D-13  0.13791075D-13  0.68951246D-14  0.87966943D-03
  0.20746239D-01  0.37416697D-01  0.55170898D-01  0.28208456D-01  0.44272026D-03
 -0.22587150D-04 -0.10121382D-01 -0.10121382D-01 -0.10121382D-01 -0.12697256D-02
 -0.12697256D-02 -0.12697256D-02  0.26775438D-03  0.26775438D-03  0.26775438D-03
 -0.58237138D-14  0.45092936D-15  0.53727844D-14  0.30757487D-02  0.30757487D-02
  0.30757487D-02 -0.44636803D-14  0.37933910D-15  0.40843412D-14 -0.43978571D-03
 -0.43978571D-03 -0.43978571D-03  0.20746239D-01  0.37416697D-01  0.55170898D-01
  0.28208456D-01  0.44272027D-03 -0.22587150D-04 -0.10121382D-01  0.10121382D-01
  0.10121382D-01 -0.12697256D-02  0.12697256D-02  0.12697256D-02  0.26775438D-03
 -0.26775438D-03 -0.26775438D-03 -0.11524650D-13  0.76044995D-14  0.39201501D-14
 -0.30757487D-02 -0.30757487D-02  0.30757487D-02 -0.11575762D-13  0.65905876D-14
  0.49851741D-14  0.43978571D-03  0.43978571D-03 -0.43978571D-03  0.20746239D-01
  0.37416697D-01  0.55170898D-01  0.28208456D-01  0.44272027D-03 -0.22587150D-04
  0.10121382D-01 -0.10121382D-01  0.10121382D-01  0.12697256D-02 -0.12697256D-02
  0.12697256D-02 -0.26775438D-03  0.26775438D-03 -0.26775438D-03  0.90894598D-14
 -0.93999105D-14  0.31045073D-15 -0.30757487D-02  0.30757487D-02 -0.30757487D-02
  0.92138070D-14 -0.96650089D-14  0.45120190D-15  0.43978571D-03 -0.43978571D-03
  0.43978571D-03  0.20746239D-01  0.37416697D-01  0.55170898D-01  0.28208456D-01
  0.44272027D-03 -0.22587150D-04  0.10121382D-01  0.10121382D-01 -0.10121382D-01
  0.12697256D-02  0.12697256D-02 -0.12697256D-02 -0.26775438D-03 -0.26775438D-03
  0.26775438D-03  0.44999189D-14  0.25628991D-14 -0.70628180D-14  0.30757487D-02
 -0.30757487D-02 -0.30757487D-02  0.47655001D-14  0.31145199D-14 -0.78800200D-14
 -0.43978571D-03  0.43978571D-03  0.43978571D-03
MO    3     MO 0.0        OCC NO =    2.0000000  ORB. ENERGY =   -0.459472
 -0.13115390D-14 -0.24450070D-14 -0.41324925D-14 -0.62124899D-14 -0.76327616D-14
 -0.64470874D-14 -0.24316042D-14  0.12034145D-16  0.68246234D-15  0.12777848D-14
  0.21755380D-14  0.33652265D-14  0.44318849D-14  0.46050123D-14  0.29262786D-14
 -0.19611239D-14  0.18101426D-13 -0.26648814D-12 -0.43442573D-13  0.16609612D+00
  0.15572567D+00  0.11088596D+00  0.40697790D+00  0.38156765D+00  0.27169890D+00
  0.29232542D+00  0.27407367D+00  0.19515678D+00  0.40760799D-01  0.99874362D-01
  0.71738085D-01  0.71137717D-02  0.17430557D-01  0.12520078D-01  0.10608674D-03
  0.25993959D-03  0.18671026D-03  0.61242090D-16 -0.50917988D-15  0.44793779D-15
  0.27917652D-01  0.38867188D-01  0.15862506D-01 -0.51487439D-15  0.92509331D-15
 -0.41021893D-15  0.67565625D-02  0.94065428D-02  0.38390052D-02 -0.11175164D-14
 -0.14574118D-14  0.25749281D-14  0.63738020D-03  0.88736605D-03  0.36215249D-03
 -0.22877044D-03 -0.56054597D-03 -0.40263081D-03  0.34315566D-03  0.84081896D-03
  0.60394621D-03  0.34315566D-03  0.84081896D-03  0.60394621D-03 -0.25710708D-13
 -0.11387922D-03 -0.27903317D-03 -0.20042486D-03  0.17081883D-03  0.41854975D-03
  0.30063729D-03  0.17081883D-03  0.41854975D-03  0.30063729D-03 -0.21286137D-13
  0.42341697D-01  0.76364994D-01  0.11260014D+00  0.68500954D-01 -0.22915116D-02
 -0.46243788D-03 -0.17551749D-01 -0.12485476D-01 -0.14896869D-01 -0.19016369D-02
  0.10356411D-02 -0.36241481D-03  0.12588344D-02  0.13493998D-02  0.13062934D-02
  0.10007330D-02 -0.96917490D-03 -0.31558056D-04  0.46718270D-02  0.56162763D-02
  0.36320137D-02  0.37818620D-04 -0.36626012D-04 -0.11926080D-05 -0.16298733D-03
 -0.78792464D-04 -0.25568362D-03 -0.26088413D-01 -0.47051527D-01 -0.69377448D-01
 -0.42206177D-01  0.14118919D-02  0.28492647D-03  0.16460103D-01 -0.44070973D-02
 -0.68184908D-02  0.44449276D-02  0.25430553D-02  0.11449994D-02 -0.67469365D-03
  0.89015488D-03  0.84704847D-03 -0.28118236D-02  0.18747202D-02  0.93710340D-03
  0.38028456D-02  0.47472949D-02 -0.26600139D-04 -0.10626140D-03  0.70847405D-04
  0.35414000D-04 -0.18020274D-04  0.66174594D-04  0.35466142D-03 -0.25170010D-02
 -0.45395150D-02 -0.66935123D-02 -0.40720373D-02  0.13621884D-03  0.27489607D-04
  0.22423402D-02  0.98106659D-02  0.48972198D-02  0.17919127D-02  0.51960703D-02
  0.33311348D-02  0.13356707D-03  0.81894154D-04  0.18102607D-03  0.12180843D-02
 -0.34684596D-02  0.22503753D-02  0.25426008D-02  0.32179073D-02  0.15027875D-02
  0.46032527D-04 -0.13107628D-03  0.85043755D-04  0.19221897D-03  0.32131334D-03
  0.99522675D-04 -0.13736283D-01 -0.24773953D-01 -0.36529179D-01 -0.22222740D-01
  0.74340082D-03  0.15002180D-03 -0.33339855D-02  0.17322877D-02  0.12975598D-01
  0.75137802D-03  0.36886561D-02  0.48385490D-02  0.45057368D-03  0.54113909D-03
 -0.27821887D-03  0.59300639D-03  0.25629143D-02 -0.31559206D-02  0.16736194D-02
  0.40868886D-02  0.21026261D-02  0.22410258D-04  0.96854890D-04 -0.11926515D-03
  0.33718603D-03  0.17634628D-03 -0.54487489D-06
MO    4     MO 0.0        OCC NO =    2.0000000  ORB. ENERGY =   -0.459472
 -0.13271407D-14 -0.24740920D-14 -0.41816513D-14 -0.62863916D-14 -0.77235584D-14
 -0.65237798D-14 -0.24605297D-14  0.12177299D-16  0.11039565D-14  0.20669548D-14
  0.35191674D-14  0.54436169D-14  0.71690520D-14  0.74491042D-14  0.47335713D-14
 -0.31723294D-14 -0.19883446D-13  0.30371307D-12  0.32482626D-13 -0.55968364D-01
 -0.52473899D-01 -0.37364542D-01 -0.29097162D+00 -0.27280439D+00 -0.19425298D+00
  0.43689374D+00  0.40961565D+00  0.29167075D+00 -0.13734910D-01 -0.71405856D-01
  0.10721586D+00 -0.23970828D-02 -0.12462095D-01  0.18711830D-01 -0.35747380D-04
 -0.18584558D-03  0.27904704D-03  0.36719180D-15 -0.14634050D-14  0.10962132D-14
  0.41724210D-01 -0.27788361D-01 -0.53450886D-02 -0.25602353D-14  0.53388536D-14
 -0.27786183D-14  0.10097992D-01 -0.67252719D-02 -0.12936054D-02 -0.22562784D-14
  0.24860648D-14 -0.22978638D-15  0.95259393D-03 -0.63442841D-03 -0.12203224D-03
  0.77087333D-04  0.40076617D-03 -0.60175019D-03 -0.11563100D-03 -0.60114925D-03
  0.90262528D-03 -0.11563100D-03 -0.60114925D-03  0.90262528D-03  0.27095453D-13
  0.38373164D-04  0.19949666D-03 -0.29954414D-03 -0.57559746D-04 -0.29924500D-03
  0.44931621D-03 -0.57559746D-04 -0.29924500D-03  0.44931621D-03  0.26053470D-13
  0.44011984D-02  0.79377425D-02  0.11704197D-01  0.71203165D-02 -0.23819066D-03
 -0.48068003D-04 -0.33646675D-02 -0.83073025D-02  0.70013057D-02 -0.10906603D-02
 -0.39562566D-02  0.49192300D-02  0.10331545D-03  0.14960216D-04  0.28861904D-03
  0.70291490D-03  0.26247488D-02 -0.33276637D-02  0.38342202D-02 -0.21615675D-02
 -0.22572921D-03  0.26563801D-04  0.99191675D-04 -0.12575548D-03  0.28157687D-03
 -0.25292994D-03 -0.80355656D-04 -0.98779653D-02 -0.17815317D-01 -0.26268675D-01
 -0.15980702D-01  0.53459056D-03  0.10788291D-03  0.37325124D-02 -0.11029423D-01
  0.42791854D-02  0.23366366D-03 -0.44642004D-02  0.44112861D-02 -0.30014968D-03
  0.16970909D-03  0.44336792D-03 -0.92643078D-04 -0.29298847D-02  0.30225278D-02
  0.41270354D-02 -0.18687524D-02 -0.98916427D-03 -0.35010672D-05 -0.11072304D-03
  0.11422411D-03  0.23272823D-03 -0.30177857D-03  0.47003730D-04 -0.32874136D-01
 -0.59289859D-01 -0.87422862D-01 -0.53184209D-01  0.17791319D-02  0.35903724D-03
 -0.17516586D-01  0.10219676D-01 -0.71506131D-02 -0.37313888D-02 -0.49914801D-03
  0.22785015D-02  0.90783301D-03 -0.10382736D-02  0.10931366D-02 -0.22892734D-02
  0.54796823D-03  0.17413052D-02  0.53565250D-02 -0.41544922D-02  0.12965756D-02
 -0.86513751D-04  0.20708224D-04  0.65805527D-04  0.27619701D-04  0.79537980D-04
 -0.33431282D-03  0.38350903D-01  0.69167433D-01  0.10198734D+00  0.62044595D-01
 -0.20755318D-02 -0.41885214D-03  0.17884431D-01  0.12941796D-01 -0.98727333D-02
  0.28743921D-02  0.87958627D-05  0.17705577D-02 -0.11046672D-02 -0.11930225D-02
  0.12478855D-02  0.16790016D-02 -0.24283232D-03 -0.14361693D-02  0.56493402D-02
 -0.44473074D-02 -0.25114691D-02  0.63451017D-04 -0.91768570D-05 -0.54274160D-04
 -0.21228935D-04  0.12838662D-03  0.30096090D-03
MO    5     MO 0.0        OCC NO =    2.0000000  ORB. ENERGY =   -0.459472
 -0.15096657D-14 -0.28143600D-14 -0.47567642D-14 -0.71509748D-14 -0.87857987D-14
 -0.74210115D-14 -0.27989325D-14  0.13852073D-16  0.14168495D-14  0.26527892D-14
  0.45166007D-14  0.69864945D-14  0.92009674D-14  0.95603945D-14  0.60752015D-14
 -0.40714588D-14 -0.54971805D-13  0.70692051D-12  0.78704018D-13  0.49794850D+00
  0.46685837D+00  0.33243097D+00 -0.16845649D+00 -0.15793867D+00 -0.11246174D+00
 -0.48402378D-01 -0.45380306D-01 -0.32313481D-01  0.12219899D+00 -0.41340045D-01
 -0.11878180D-01  0.21326759D-01 -0.72148645D-02 -0.20730374D-02  0.31804314D-03
 -0.10759432D-03 -0.30914932D-04  0.87559078D-15 -0.46252079D-15 -0.41306999D-15
 -0.46225221D-02 -0.16087926D-01  0.47555059D-01 -0.23682621D-14  0.78679355D-15
  0.15814685D-14 -0.11187316D-02 -0.38935608D-02  0.11509160D-01 -0.20946163D-14
  0.68122632D-15  0.14133899D-14 -0.10553553D-03 -0.36729899D-03  0.10857164D-02
 -0.68584320D-03  0.23202146D-03  0.66666416D-04  0.10287648D-02 -0.34803219D-03
 -0.99999624D-04  0.10287648D-02 -0.34803219D-03 -0.99999624D-04  0.76166209D-13
 -0.34140465D-03  0.11549754D-03  0.33185755D-04  0.51210697D-03 -0.17324632D-03
 -0.49778632D-04  0.51210697D-03 -0.17324632D-03 -0.49778632D-04  0.65484681D-13
  0.13752969D-01  0.24804046D-01  0.36573552D-01  0.22249734D-01 -0.74430385D-03
 -0.15020404D-03  0.36373059D-02 -0.10378655D-01 -0.78536536D-02  0.47963911D-02
 -0.33296564D-02 -0.18657337D-02  0.57581318D-03  0.32526189D-03  0.37039918D-03
 -0.33059334D-02  0.21438621D-02  0.11620712D-02  0.33658772D-03 -0.65235751D-03
  0.48371507D-02 -0.12493427D-03  0.81018525D-04  0.43915742D-04 -0.15821034D-03
 -0.24637189D-03  0.24300158D-03  0.34973627D-01  0.63076376D-01  0.93006079D-01
  0.56580792D-01 -0.18927553D-02 -0.38196697D-03 -0.69100081D-02  0.13839949D-01
  0.16364951D-01  0.28282769D-02  0.11895017D-02  0.26534245D-02  0.11754138D-02
 -0.10515332D-02 -0.10063959D-02 -0.21236328D-02  0.57092094D-03  0.15527119D-02
 -0.22685783D-02 -0.32575235D-02  0.59717125D-02 -0.80254039D-04  0.21575628D-04
  0.58678411D-04  0.27639420D-03  0.18823265D-03  0.53729294D-04 -0.30237227D-01
 -0.54534084D-01 -0.80410475D-01 -0.48918183D-01  0.16364237D-02  0.33023804D-03
 -0.45558730D-02  0.11485814D-01 -0.16046833D-01  0.32675552D-02  0.75022336D-03
 -0.33945695D-02  0.10415844D-02 -0.91770379D-03  0.83617039D-03  0.23875194D-02
 -0.30703430D-03 -0.20804851D-02  0.12179181D-02 -0.30042921D-02  0.57184810D-02
  0.90226559D-04 -0.11603109D-04 -0.78623450D-04 -0.30523750D-03  0.14598753D-03
  0.95974413D-04 -0.18489369D-01 -0.33346338D-01 -0.49169156D-01 -0.29912344D-01
  0.10006354D-02  0.20193297D-03  0.12831708D-02 -0.12732791D-01  0.81717720D-02
  0.43571127D-02 -0.37689348D-02  0.11245886D-02  0.70964260D-03  0.45909131D-03
 -0.54062472D-03  0.30420467D-02 -0.24077488D-02 -0.63429794D-03 -0.13872479D-02
 -0.39912604D-03  0.50903821D-02  0.11496175D-03 -0.90991044D-04 -0.23970703D-04
  0.12936704D-03 -0.28861701D-03  0.20075646D-03
END DATA
RHF
