 Molden2AIM, Version 4.0.0 (06/02/2016)           Time: Tue Jul  3 04:08:35 2018
GAUSSIAN             15 MOL ORBITALS    281 PRIMITIVES        3 NUCLEI
  Cl   1    (CENTRE  1)   0.00000000  0.00000000 -0.00164028  CHARGE = 17.0
  C    2    (CENTRE  2)   0.00000000  0.00000000  3.09182060  CHARGE =  6.0
  N    3    (CENTRE  3)   0.00000000  0.00000000  5.28772015  CHARGE =  7.0
CENTRE ASSIGNMENTS    1  1  1  1  1  1  1  1  1  1  1  1  1  1  1  1  1  1  1  1
CENTRE ASSIGNMENTS    1  1  1  1  1  1  1  1  1  1  1  1  1  1  1  1  1  1  1  1
CENTRE ASSIGNMENTS    1  1  1  1  1  1  1  1  1  1  1  1  1  1  1  1  1  1  1  1
CENTRE ASSIGNMENTS    1  1  1  1  1  1  1  1  1  1  1  1  1  1  1  1  1  1  1  1
CENTRE ASSIGNMENTS    1  1  1  1  1  1  1  1  1  1  1  1  1  1  1  1  1  1  1  1
CENTRE ASSIGNMENTS    1  1  1  1  1  1  1  1  1  1  1  1  1  1  1  1  1  1  1  1
CENTRE ASSIGNMENTS    1  1  1  1  1  1  1  1  1  1  1  2  2  2  2  2  2  2  2  2
CENTRE ASSIGNMENTS    2  2  2  2  2  2  2  2  2  2  2  2  2  2  2  2  2  2  2  2
CENTRE ASSIGNMENTS    2  2  2  2  2  2  2  2  2  2  2  2  2  2  2  2  2  2  2  2
CENTRE ASSIGNMENTS    2  2  2  2  2  2  2  2  2  2  2  2  2  2  2  2  2  2  2  2
CENTRE ASSIGNMENTS    2  2  2  2  2  2  3  3  3  3  3  3  3  3  3  3  3  3  3  3
CENTRE ASSIGNMENTS    3  3  3  3  3  3  3  3  3  3  3  3  3  3  3  3  3  3  3  3
CENTRE ASSIGNMENTS    3  3  3  3  3  3  3  3  3  3  3  3  3  3  3  3  3  3  3  3
CENTRE ASSIGNMENTS    3  3  3  3  3  3  3  3  3  3  3  3  3  3  3  3  3  3  3  3
CENTRE ASSIGNMENTS    3
TYPE ASSIGNMENTS      1  1  1  1  1  1  1  1  1  1  1  1  1  1  1  1  1  1  1  1
TYPE ASSIGNMENTS      1  1  1  1  1  1  1  1  1  1  1  1  1  1  1  1  1  1  1  1
TYPE ASSIGNMENTS      1  1  2  2  2  2  2  2  2  3  3  3  3  3  3  3  4  4  4  4
TYPE ASSIGNMENTS      4  4  4  2  2  2  2  2  2  2  3  3  3  3  3  3  3  4  4  4
TYPE ASSIGNMENTS      4  4  4  4  2  3  4  2  3  4  2  3  4  5  6  7  8  9 10  5
TYPE ASSIGNMENTS      6  7  8  9 10  5  6  7  8  9 10 11 12 13 17 14 15 18 19 16
TYPE ASSIGNMENTS     20 11 12 13 17 14 15 18 19 16 20  1  1  1  1  1  1  1  1  1
TYPE ASSIGNMENTS      1  1  1  1  1  1  1  1  1  1  2  2  2  3  3  3  4  4  4  2
TYPE ASSIGNMENTS      3  4  2  3  4  2  3  4  5  6  7  8  9 10  5  6  7  8  9 10
TYPE ASSIGNMENTS      5  6  7  8  9 10 11 12 13 17 14 15 18 19 16 20 11 12 13 17
TYPE ASSIGNMENTS     14 15 18 19 16 20  1  1  1  1  1  1  1  1  1  1  1  1  1  1
TYPE ASSIGNMENTS      1  1  1  1  1  2  2  2  3  3  3  4  4  4  2  3  4  2  3  4
TYPE ASSIGNMENTS      2  3  4  5  6  7  8  9 10  5  6  7  8  9 10  5  6  7  8  9
TYPE ASSIGNMENTS     10 11 12 13 17 14 15 18 19 16 20 11 12 13 17 14 15 18 19 16
TYPE ASSIGNMENTS     20
EXPONENTS  0.4561000D+06 0.6833000D+05 0.1555000D+05 0.4405000D+04 0.1439000D+04
EXPONENTS  0.5204000D+03 0.2031000D+03 0.8396000D+02 0.3620000D+02 0.1583000D+02
EXPONENTS  0.6334000D+01 0.2694000D+01 0.4313000D+00 0.4561000D+06 0.6833000D+05
EXPONENTS  0.1555000D+05 0.4405000D+04 0.1439000D+04 0.5204000D+03 0.2031000D+03
EXPONENTS  0.8396000D+02 0.3620000D+02 0.1583000D+02 0.6334000D+01 0.2694000D+01
EXPONENTS  0.4313000D+00 0.4561000D+06 0.6833000D+05 0.1555000D+05 0.4405000D+04
EXPONENTS  0.1439000D+04 0.5204000D+03 0.2031000D+03 0.8396000D+02 0.3620000D+02
EXPONENTS  0.1583000D+02 0.6334000D+01 0.2694000D+01 0.4313000D+00 0.9768000D+00
EXPONENTS  0.1625000D+00 0.5910000D-01 0.6633000D+03 0.1568000D+03 0.4998000D+02
EXPONENTS  0.1842000D+02 0.7240000D+01 0.2922000D+01 0.3818000D+00 0.6633000D+03
EXPONENTS  0.1568000D+03 0.4998000D+02 0.1842000D+02 0.7240000D+01 0.2922000D+01
EXPONENTS  0.3818000D+00 0.6633000D+03 0.1568000D+03 0.4998000D+02 0.1842000D+02
EXPONENTS  0.7240000D+01 0.2922000D+01 0.3818000D+00 0.6633000D+03 0.1568000D+03
EXPONENTS  0.4998000D+02 0.1842000D+02 0.7240000D+01 0.2922000D+01 0.3818000D+00
EXPONENTS  0.6633000D+03 0.1568000D+03 0.4998000D+02 0.1842000D+02 0.7240000D+01
EXPONENTS  0.2922000D+01 0.3818000D+00 0.6633000D+03 0.1568000D+03 0.4998000D+02
EXPONENTS  0.1842000D+02 0.7240000D+01 0.2922000D+01 0.3818000D+00 0.1022000D+01
EXPONENTS  0.1022000D+01 0.1022000D+01 0.1301000D+00 0.1301000D+00 0.1301000D+00
EXPONENTS  0.4190000D-01 0.4190000D-01 0.4190000D-01 0.1046000D+01 0.1046000D+01
EXPONENTS  0.1046000D+01 0.1046000D+01 0.1046000D+01 0.1046000D+01 0.3440000D+00
EXPONENTS  0.3440000D+00 0.3440000D+00 0.3440000D+00 0.3440000D+00 0.3440000D+00
EXPONENTS  0.1350000D+00 0.1350000D+00 0.1350000D+00 0.1350000D+00 0.1350000D+00
EXPONENTS  0.1350000D+00 0.7060000D+00 0.7060000D+00 0.7060000D+00 0.7060000D+00
EXPONENTS  0.7060000D+00 0.7060000D+00 0.7060000D+00 0.7060000D+00 0.7060000D+00
EXPONENTS  0.7060000D+00 0.3120000D+00 0.3120000D+00 0.3120000D+00 0.3120000D+00
EXPONENTS  0.3120000D+00 0.3120000D+00 0.3120000D+00 0.3120000D+00 0.3120000D+00
EXPONENTS  0.3120000D+00 0.8236000D+04 0.1235000D+04 0.2808000D+03 0.7927000D+02
EXPONENTS  0.2559000D+02 0.8997000D+01 0.3319000D+01 0.3643000D+00 0.8236000D+04
EXPONENTS  0.1235000D+04 0.2808000D+03 0.7927000D+02 0.2559000D+02 0.8997000D+01
EXPONENTS  0.3319000D+01 0.3643000D+00 0.9059000D+00 0.1285000D+00 0.4402000D-01
EXPONENTS  0.1871000D+02 0.4133000D+01 0.1200000D+01 0.1871000D+02 0.4133000D+01
EXPONENTS  0.1200000D+01 0.1871000D+02 0.4133000D+01 0.1200000D+01 0.3827000D+00
EXPONENTS  0.3827000D+00 0.3827000D+00 0.1209000D+00 0.1209000D+00 0.1209000D+00
EXPONENTS  0.3569000D-01 0.3569000D-01 0.3569000D-01 0.1097000D+01 0.1097000D+01
EXPONENTS  0.1097000D+01 0.1097000D+01 0.1097000D+01 0.1097000D+01 0.3180000D+00
EXPONENTS  0.3180000D+00 0.3180000D+00 0.3180000D+00 0.3180000D+00 0.3180000D+00
EXPONENTS  0.1000000D+00 0.1000000D+00 0.1000000D+00 0.1000000D+00 0.1000000D+00
EXPONENTS  0.1000000D+00 0.7610000D+00 0.7610000D+00 0.7610000D+00 0.7610000D+00
EXPONENTS  0.7610000D+00 0.7610000D+00 0.7610000D+00 0.7610000D+00 0.7610000D+00
EXPONENTS  0.7610000D+00 0.2680000D+00 0.2680000D+00 0.2680000D+00 0.2680000D+00
EXPONENTS  0.2680000D+00 0.2680000D+00 0.2680000D+00 0.2680000D+00 0.2680000D+00
EXPONENTS  0.2680000D+00 0.1142000D+05 0.1712000D+04 0.3893000D+03 0.1100000D+03
EXPONENTS  0.3557000D+02 0.1254000D+02 0.4644000D+01 0.5118000D+00 0.1142000D+05
EXPONENTS  0.1712000D+04 0.3893000D+03 0.1100000D+03 0.3557000D+02 0.1254000D+02
EXPONENTS  0.4644000D+01 0.5118000D+00 0.1293000D+01 0.1787000D+00 0.5760000D-01
EXPONENTS  0.2663000D+02 0.5948000D+01 0.1742000D+01 0.2663000D+02 0.5948000D+01
EXPONENTS  0.1742000D+01 0.2663000D+02 0.5948000D+01 0.1742000D+01 0.5550000D+00
EXPONENTS  0.5550000D+00 0.5550000D+00 0.1725000D+00 0.1725000D+00 0.1725000D+00
EXPONENTS  0.4910000D-01 0.4910000D-01 0.4910000D-01 0.1654000D+01 0.1654000D+01
EXPONENTS  0.1654000D+01 0.1654000D+01 0.1654000D+01 0.1654000D+01 0.4690000D+00
EXPONENTS  0.4690000D+00 0.4690000D+00 0.4690000D+00 0.4690000D+00 0.4690000D+00
EXPONENTS  0.1510000D+00 0.1510000D+00 0.1510000D+00 0.1510000D+00 0.1510000D+00
EXPONENTS  0.1510000D+00 0.1093000D+01 0.1093000D+01 0.1093000D+01 0.1093000D+01
EXPONENTS  0.1093000D+01 0.1093000D+01 0.1093000D+01 0.1093000D+01 0.1093000D+01
EXPONENTS  0.1093000D+01 0.3640000D+00 0.3640000D+00 0.3640000D+00 0.3640000D+00
EXPONENTS  0.3640000D+00 0.3640000D+00 0.3640000D+00 0.3640000D+00 0.3640000D+00
EXPONENTS  0.3640000D+00
MO    1     MO 0.0        OCC NO =    2.0000000  ORB. ENERGY = -102.865989
  0.61703311D+00  0.11544713D+01  0.19946707D+01  0.32335938D+01  0.49104702D+01
  0.68249761D+01  0.81139120D+01  0.72272487D+01  0.35878227D+01  0.57805571D+00
  0.88746950D-02  0.15858993D-02  0.59262582D-04 -0.66156676D-03 -0.12357117D-02
 -0.21446376D-02 -0.34798753D-02 -0.53864336D-02 -0.77101904D-02 -0.10064207D-01
 -0.10725092D-01 -0.80172238D-02 -0.42321500D-03  0.54381027D-02  0.32308578D-02
 -0.12113295D-04  0.28782874D-03  0.53719088D-03  0.93359046D-03  0.15130755D-02
  0.23500431D-02  0.33665046D-02  0.44451556D-02  0.48065318D-02  0.37683833D-02
  0.18751350D-03 -0.32304572D-02 -0.33441221D-02  0.15132626D-02 -0.18487248D-02
 -0.78762543D-03 -0.23302370D-03  0.14306527D-17  0.18844907D-17  0.20790347D-17
  0.17268773D-17  0.91718648D-18  0.23656915D-18 -0.24318504D-21  0.88791533D-17
  0.11695838D-16  0.12903249D-16  0.10717631D-16  0.56923944D-17  0.14682346D-17
 -0.15092952D-20  0.60204043D-02  0.79302236D-02  0.87488944D-02  0.72669624D-02
  0.38596603D-02  0.99551897D-03 -0.10233597D-05 -0.96060904D-18 -0.12612092D-17
 -0.14359795D-17 -0.12159285D-17 -0.69653064D-18 -0.15843656D-18  0.74157028D-19
 -0.31411286D-17 -0.41240716D-17 -0.46955589D-17 -0.39760064D-17 -0.22776095D-17
 -0.51807715D-18  0.24248862D-18 -0.47377344D-02 -0.62202980D-02 -0.70822669D-02
 -0.59969727D-02 -0.34352969D-02 -0.78141085D-03  0.36574328D-03 -0.10668515D-18
 -0.62810245D-18 -0.22731490D-03 -0.11850220D-20 -0.24742981D-19 -0.39584570D-03
 -0.25793070D-21  0.95759074D-21 -0.86729851D-05 -0.83304005D-04 -0.83304005D-04
  0.16660801D-03  0.79819146D-19 -0.24663735D-18 -0.33675587D-19 -0.24642713D-05
 -0.24642713D-05  0.49285427D-05 -0.80372260D-20  0.67131413D-19  0.92329624D-19
  0.28367960D-04  0.28367960D-04 -0.56735920D-04  0.53457377D-21 -0.21494425D-20
 -0.51787657D-20 -0.22409688D-20 -0.15050106D-19  0.80883065D-04  0.10764314D-19
 -0.11381315D-19 -0.12132460D-03 -0.40414074D-20  0.56531632D-19 -0.12132460D-03
 -0.10190946D-20 -0.27525976D-20 -0.27899936D-20 -0.24838457D-04 -0.36150124D-20
 -0.35747635D-20  0.37257685D-04  0.11872805D-19  0.11944744D-19  0.37257685D-04
 -0.79843811D-22  0.62124728D-04  0.11581462D-03  0.19574711D-03  0.29427202D-03
  0.36154718D-03  0.30538439D-03  0.11517976D-03 -0.57003104D-06 -0.46724204D-04
 -0.87482453D-04 -0.14894636D-03 -0.23039737D-03 -0.30342523D-03 -0.31527825D-03
 -0.20034518D-03  0.13426668D-03  0.13385864D-03  0.53160040D-03  0.56955631D-04
  0.28336278D-19  0.26567062D-19  0.18917331D-19  0.73347565D-19  0.68768005D-19
  0.48966916D-19 -0.11736352D-03 -0.11003576D-03 -0.78352017D-04  0.10754512D-20
 -0.20181663D-19  0.81986275D-04 -0.36013994D-20 -0.10295444D-19 -0.31276249D-03
  0.54607551D-21 -0.32033011D-21 -0.10023631D-04 -0.32795437D-04 -0.32795437D-04
  0.65590873D-04 -0.75284285D-21 -0.10646326D-19 -0.50035318D-19  0.26961643D-04
  0.26961643D-04 -0.53923286D-04 -0.21659128D-21  0.45946117D-19  0.57970771D-19
  0.51587394D-06  0.51587394D-06 -0.10317479D-05 -0.20348571D-21 -0.11889360D-20
 -0.81797726D-20 -0.54112824D-20  0.50062534D-20  0.73263337D-04 -0.61420280D-20
  0.51867720D-20 -0.10989501D-03  0.22375875D-19 -0.20205532D-19 -0.10989501D-03
 -0.76679621D-21  0.50292276D-20  0.11800546D-19  0.32769697D-04  0.52331432D-20
  0.11742644D-19 -0.49154545D-04 -0.20320826D-19 -0.47144283D-19 -0.49154545D-04
 -0.18604504D-20 -0.10554824D-03 -0.19667360D-03 -0.33262436D-03 -0.50091385D-03
 -0.62016384D-03 -0.52773144D-03 -0.20081155D-03  0.94048615D-06  0.71798488D-04
  0.13462284D-03  0.22903350D-03  0.35566484D-03  0.47198793D-03  0.49741049D-03
  0.30842624D-03 -0.20516525D-03  0.69625305D-05  0.23781123D-03  0.46594186D-04
 -0.39258762D-20 -0.37707572D-20 -0.26443152D-20 -0.37326474D-19 -0.35851632D-19
 -0.25141639D-19  0.71325539D-04  0.68507328D-04  0.48042067D-04  0.10962369D-19
  0.61374350D-19  0.35570884D-04 -0.22218689D-20  0.16904774D-19  0.86144402D-05
 -0.27134698D-21  0.15694606D-20  0.19670187D-05  0.45477111D-05  0.45477111D-05
 -0.90954223D-05 -0.29309291D-20 -0.34737166D-19 -0.82843045D-19  0.24278750D-04
  0.24278750D-04 -0.48557499D-04  0.19857300D-20  0.25272458D-19  0.66749536D-20
  0.86357567D-05  0.86357567D-05 -0.17271513D-04  0.46859005D-21  0.46968964D-20
  0.69964480D-20 -0.24665565D-20 -0.21216718D-19  0.44674897D-05 -0.17775160D-20
 -0.21726067D-19 -0.67012346D-05  0.91771856D-20  0.85376219D-19 -0.67012346D-05
  0.16814733D-20  0.36836505D-20  0.67849520D-20  0.21257333D-04  0.34565517D-20
  0.68893506D-20 -0.31885999D-04 -0.14507503D-19 -0.27244207D-19 -0.31885999D-04
 -0.17455901D-20
MO    2     MO 0.0        OCC NO =    2.0000000  ORB. ENERGY =  -14.822279
 -0.10620107D-03 -0.19870260D-03 -0.34331408D-03 -0.55655217D-03 -0.84516886D-03
 -0.11746853D-02 -0.13965314D-02 -0.12439228D-02 -0.61752050D-03 -0.99492447D-04
 -0.15274741D-05 -0.27295812D-06 -0.10200019D-07  0.18316870D-03  0.34213284D-03
  0.59378814D-03  0.96347683D-03  0.14913477D-02  0.21347288D-02  0.27864878D-02
  0.29694678D-02  0.22197374D-02  0.11717600D-03 -0.15056534D-02 -0.89453110D-03
  0.33538210D-05 -0.97556364D-04 -0.18207490D-03 -0.31643015D-03 -0.51284018D-03
 -0.79652109D-03 -0.11410395D-02 -0.15066363D-02 -0.16291207D-02 -0.12772518D-02
 -0.63555626D-04  0.10949277D-02  0.11334531D-02 -0.51290358D-03  0.41235663D-03
 -0.25314664D-03 -0.63649668D-04  0.29376226D-14  0.38695082D-14  0.42689741D-14
  0.35458737D-14  0.18832996D-14  0.48575791D-15 -0.49934262D-18 -0.36158304D-15
 -0.47628601D-15 -0.52545505D-15 -0.43645082D-15 -0.23180963D-15 -0.59790466D-16
  0.61462566D-19 -0.74038692D-02 -0.97525573D-02 -0.10759355D-01 -0.89368814D-02
 -0.47465948D-02 -0.12242853D-02  0.12585236D-05 -0.91374955D-15 -0.11996862D-14
 -0.13659310D-14 -0.11566142D-14 -0.66255317D-15 -0.15070786D-15  0.70539573D-16
  0.72795715D-15  0.95575437D-15  0.10881967D-14  0.92144024D-15  0.52783645D-15
  0.12006448D-15 -0.56196784D-16  0.72613481D-02  0.95336178D-02  0.10854725D-01
  0.91913355D-02  0.52651509D-02  0.11976392D-02 -0.56056104D-03 -0.56943384D-15
  0.36340625D-16  0.21782709D-03 -0.72069053D-18  0.90895321D-18 -0.43028540D-04
  0.57725068D-19  0.44305718D-19 -0.20265429D-05  0.21373941D-03  0.21373941D-03
 -0.42747882D-03 -0.34319075D-19 -0.30589289D-17  0.47906707D-18  0.98511754D-04
  0.98511754D-04 -0.19702351D-03  0.81010752D-20  0.33548187D-17 -0.10742883D-18
 -0.12000126D-04 -0.12000126D-04  0.24000251D-04  0.18915721D-20  0.23135691D-19
  0.40181888D-18 -0.16556444D-18  0.17332263D-18 -0.33350057D-03 -0.16719432D-18
  0.16988832D-18  0.50025085D-03  0.66388764D-18 -0.68985620D-18  0.50025085D-03
 -0.12621531D-19 -0.24904390D-18 -0.71592056D-19 -0.30362444D-05 -0.24891242D-18
 -0.70083397D-19  0.45543665D-05  0.99604410D-18  0.28485957D-18  0.45543665D-05
  0.12323097D-19 -0.20784921D-03 -0.38747819D-03 -0.65490639D-03 -0.98453883D-03
 -0.12096197D-02 -0.10217172D-02 -0.38535414D-03  0.19071392D-05  0.16194647D-03
  0.30321490D-03  0.51624931D-03  0.79855918D-03  0.10516743D-02  0.10927570D-02
  0.69439803D-03 -0.46536941D-03  0.87960050D-03 -0.17681203D-02 -0.63695549D-04
  0.11132542D-17  0.10437465D-17  0.74320972D-18  0.89062024D-18  0.83501309D-18
  0.59457906D-18  0.22102116D-02  0.20722139D-02  0.14755397D-02  0.21135062D-17
 -0.40929175D-18 -0.31165156D-02  0.16292143D-20 -0.78056547D-18 -0.10840888D-02
  0.14688019D-18 -0.33531472D-19 -0.12126096D-04  0.86000036D-03  0.86000036D-03
 -0.17200007D-02 -0.55422307D-19  0.23135929D-17 -0.68792988D-18  0.40815995D-03
  0.40815995D-03 -0.81631990D-03  0.26163545D-19  0.41973250D-17  0.24833096D-18
  0.29005934D-04  0.29005934D-04 -0.58011869D-04 -0.10547111D-20 -0.26772122D-18
  0.22942675D-18 -0.17533662D-18  0.57929320D-20 -0.14164012D-02 -0.18031134D-18
  0.44350430D-19  0.21246018D-02  0.70632118D-18 -0.61729226D-19  0.21246018D-02
  0.18278965D-19  0.36035188D-18  0.35403167D-19 -0.10437255D-03  0.36645080D-18
  0.29371575D-19  0.15655883D-03 -0.14475064D-17 -0.13558108D-18  0.15655883D-03
  0.23769699D-19  0.41150624D+00  0.76678128D+00  0.12968194D+01  0.19529381D+01
  0.24178641D+01  0.20574932D+01  0.78291413D+00 -0.36667209D-02 -0.59017152D-03
 -0.11065771D-02 -0.18826169D-02 -0.29235053D-02 -0.38796615D-02 -0.40886307D-02
 -0.25352119D-02  0.16864239D-02  0.40821797D-01  0.34497352D-02  0.12147327D-03
  0.48604836D-18  0.46684364D-18  0.32738299D-18  0.77014944D-17  0.73971933D-17
  0.51874225D-17 -0.70410769D-02 -0.67628702D-02 -0.47425914D-02 -0.36481453D-18
 -0.73229200D-18 -0.27443247D-02  0.26568009D-18  0.35254409D-18 -0.14070981D-03
 -0.28663743D-18 -0.96846014D-20  0.17385804D-04 -0.21008058D-02 -0.21008058D-02
  0.42016116D-02  0.90444282D-18 -0.43946055D-17  0.54424881D-18 -0.74341737D-04
 -0.74341737D-04  0.14868347D-03 -0.11767825D-18  0.34113249D-17 -0.58802697D-18
  0.50195636D-04  0.50195636D-04 -0.10039127D-03  0.42419150D-20  0.84698869D-18
 -0.97473598D-19 -0.83240140D-18  0.53687327D-19 -0.78380552D-03 -0.41343676D-18
 -0.30568668D-18  0.11757083D-02  0.29106409D-17  0.14462470D-18  0.11757083D-02
  0.82365829D-19  0.56314726D-18 -0.46863724D-19  0.10794150D-03  0.53669614D-18
 -0.47078707D-19 -0.16191225D-03 -0.22261379D-17  0.18766988D-18 -0.16191225D-03
  0.24602452D-19
MO    3     MO 0.0        OCC NO =    2.0000000  ORB. ENERGY =  -10.679950
  0.13403679D-03  0.25078334D-03  0.43329806D-03  0.70242670D-03  0.10666910D-02
  0.14825750D-02  0.17625678D-02  0.15699598D-02  0.77937508D-03  0.12556981D-03
  0.19278311D-05  0.34450152D-06  0.12873484D-07 -0.24463171D-03 -0.45693691D-03
 -0.79303616D-03 -0.12867754D-02 -0.19917755D-02 -0.28510457D-02 -0.37215052D-02
 -0.39658848D-02 -0.29645794D-02 -0.15649488D-03  0.20108815D-02  0.11946946D-02
 -0.44792092D-05  0.10023604D-03  0.18707613D-03  0.32512185D-03  0.52692688D-03
  0.81839994D-03  0.11723815D-02  0.15480206D-02  0.16738694D-02  0.13123353D-02
  0.65301372D-04 -0.11250032D-02 -0.11645868D-02  0.52699202D-03 -0.15649271D-02
  0.38359242D-02  0.54296121D-03  0.18096759D-14  0.23837493D-14  0.26298339D-14
  0.21843794D-14  0.11601769D-14  0.29924348D-15 -0.30761212D-18 -0.18780089D-14
 -0.24737593D-14 -0.27291360D-14 -0.22668611D-14 -0.12039850D-14 -0.31054286D-15
  0.31922750D-18  0.59889256D-01  0.78887591D-01  0.87031494D-01  0.72289659D-01
  0.38394794D-01  0.99031374D-02 -0.10180089D-04 -0.89096643D-16 -0.11697736D-15
 -0.13318733D-15 -0.11277756D-15 -0.64603329D-16 -0.14695016D-16  0.68780762D-17
  0.12510248D-14  0.16425038D-14  0.18701114D-14  0.15835336D-14  0.90710899D-15
  0.20633582D-15 -0.96576521D-16 -0.54755087D-01 -0.71889415D-01 -0.81851388D-01
 -0.69308393D-01 -0.39702516D-01 -0.90309450D-02  0.42269793D-02 -0.54944442D-15
 -0.59973703D-18 -0.26278327D-02  0.13022866D-17 -0.89695418D-18  0.12290912D-02
 -0.33911248D-19 -0.29995940D-19  0.92265598D-05 -0.46757595D-03 -0.46757595D-03
  0.93515190D-03 -0.49067250D-19  0.45335473D-17  0.10315398D-17 -0.71827843D-03
 -0.71827843D-03  0.14365569D-02 -0.30319174D-20 -0.53730179D-17 -0.96062472D-18
 -0.50388478D-04 -0.50388478D-04  0.10077696D-03  0.90453701D-21 -0.88776627D-19
 -0.27253991D-18  0.23388865D-18 -0.12146652D-18  0.63309255D-03  0.22282953D-18
 -0.12261878D-18 -0.94963883D-03 -0.92449547D-18  0.48701835D-18 -0.94963883D-03
  0.51826744D-20  0.38863825D-18  0.12578187D-18  0.12185749D-03  0.39292591D-18
  0.13034570D-18 -0.18278623D-03 -0.15588407D-17 -0.50769129D-18 -0.18278623D-03
 -0.31569080D-20  0.32788631D+00  0.61125464D+00  0.10331280D+01  0.15531298D+01
  0.19081994D+01  0.16117795D+01  0.60790391D+00 -0.30085504D-02 -0.14840396D-02
 -0.27785903D-02 -0.47307878D-02 -0.73178094D-02 -0.96372975D-02 -0.10013769D-01
 -0.63633010D-02  0.42645363D-02  0.33809907D-01  0.18915020D-02  0.41625676D-03
 -0.88316702D-18 -0.82802522D-18 -0.58960329D-18  0.10460008D-16  0.98069219D-17
  0.69831126D-17 -0.49388156D-02 -0.46304535D-02 -0.32971588D-02 -0.33461232D-17
 -0.12241224D-17  0.10487951D-01  0.29942051D-18  0.66599689D-18  0.20455918D-02
 -0.40095425D-18  0.58913448D-19  0.46553541D-04 -0.29817960D-02 -0.29817960D-02
  0.59635920D-02 -0.66031403D-18 -0.41958457D-17  0.13018156D-17  0.41607315D-03
  0.41607315D-03 -0.83214630D-03  0.20181838D-19 -0.67300194D-17 -0.17761137D-17
  0.17257301D-04  0.17257301D-04 -0.34514602D-04 -0.21160824D-20  0.44506562D-18
 -0.14120832D-18  0.43545483D-18  0.46507509D-18  0.21139842D-02  0.55505056D-18
  0.45025054D-18 -0.31709763D-02 -0.18614150D-17 -0.18454758D-17 -0.31709763D-02
 -0.10178652D-18 -0.61567731D-18 -0.16192413D-18  0.72453828D-04 -0.61008760D-18
 -0.17139123D-18 -0.10868074D-03  0.24571195D-17  0.65716361D-18 -0.10868074D-03
 -0.30795555D-19 -0.86800689D-03 -0.16174030D-02 -0.27354340D-02 -0.41194120D-02
 -0.51000993D-02 -0.43399543D-02 -0.16514327D-02  0.77343638D-05  0.42068894D-03
  0.78879569D-03  0.13419762D-02  0.20839473D-02  0.27655193D-02  0.29144777D-02
  0.18071621D-02 -0.12021249D-02  0.65920535D-03 -0.65753578D-02 -0.14960988D-02
 -0.35748839D-17 -0.34336333D-17 -0.24079007D-17 -0.19326035D-17 -0.18562426D-17
 -0.13017254D-17 -0.26047824D-02 -0.25018624D-02 -0.17544786D-02  0.29185090D-17
  0.60156641D-18  0.61103630D-02 -0.11238179D-17  0.21794274D-18  0.31825327D-02
  0.68314726D-18 -0.71070835D-19  0.13159298D-03  0.70969786D-03  0.70969786D-03
 -0.14193957D-02 -0.14829261D-18  0.68974226D-17  0.22691050D-17  0.15082165D-02
  0.15082165D-02 -0.30164331D-02 -0.78147248D-20 -0.62468814D-17 -0.39996028D-18
  0.13935090D-03  0.13935090D-03 -0.27870180D-03  0.93434642D-20 -0.14119491D-17
 -0.50698593D-19  0.71578865D-18  0.26283031D-18  0.90561710D-03  0.73947336D-18
  0.19788046D-18 -0.13584256D-02 -0.28868393D-17 -0.98637140D-18 -0.13584256D-02
  0.21830367D-18 -0.85477454D-18  0.28760223D-19  0.36032772D-03 -0.86024821D-18
  0.28162246D-19 -0.54049158D-03  0.34245718D-17 -0.11444292D-18 -0.54049158D-03
 -0.36686383D-19
MO    4     MO 0.0        OCC NO =    2.0000000  ORB. ENERGY =   -9.986372
 -0.18466519D-02 -0.34550927D-02 -0.59696348D-02 -0.96774742D-02 -0.14696017D-01
 -0.20425735D-01 -0.24283252D-01 -0.21629653D-01 -0.10737608D-01 -0.17300006D-02
 -0.26560118D-04 -0.47462669D-05 -0.17736059D-06 -0.17011896D+00 -0.31775779D+00
 -0.55148406D+00 -0.89483450D+00 -0.13850975D+01 -0.19826413D+01 -0.25879662D+01
 -0.27579098D+01 -0.20615936D+01 -0.10882786D+00  0.13983840D+01  0.83080076D+00
 -0.31148800D-02 -0.75137291D-03 -0.14023293D-02 -0.24371249D-02 -0.39498624D-02
 -0.61347548D-02 -0.87882133D-02 -0.11604017D-01 -0.12547384D-01 -0.98373119D-02
 -0.48950139D-03  0.84330635D-02  0.87297840D-02 -0.39503508D-02  0.65620282D-01
  0.25127162D-02  0.40168729D-03  0.18890862D-14  0.24883505D-14  0.27452336D-14
  0.22802320D-14  0.12110866D-14  0.31237457D-15 -0.32111044D-18  0.33393988D-15
  0.43987376D-15  0.48528381D-15  0.40308398D-15  0.21408769D-15  0.55219462D-16
 -0.56763729D-19  0.60866926D-01  0.80175402D-01  0.88452250D-01  0.73469761D-01
  0.39021575D-01  0.10064802D-01 -0.10346275D-04 -0.66294762D-17 -0.87040163D-17
 -0.99101629D-17 -0.83915189D-17 -0.48069851D-17 -0.10934223D-17  0.51178183D-18
  0.37065890D-16  0.48664797D-16  0.55408452D-16  0.46917601D-16  0.26876208D-16
  0.61134050D-17 -0.28614100D-17  0.96504641D-02  0.12670352D-01  0.14426128D-01
  0.12215453D-01  0.69974815D-02  0.15916843D-02 -0.74499584D-03  0.25630401D-16
  0.13443505D-16  0.21504643D-02 -0.21690251D-18  0.27322538D-18  0.86888872D-03
  0.46042504D-20 -0.37917134D-20  0.16868671D-04 -0.66145777D-03 -0.66145777D-03
  0.13229155D-02 -0.10959960D-17  0.49876399D-17  0.29576181D-17  0.89262628D-04
  0.89262628D-04 -0.17852526D-03  0.48321775D-19  0.11079761D-18 -0.12483641D-17
 -0.59838343D-04 -0.59838343D-04  0.11967669D-03  0.34198622D-20 -0.43720397D-19
  0.74959412D-19 -0.46056805D-19 -0.87545613D-19 -0.15186674D-04 -0.81177418D-19
  0.31458779D-18  0.22780011D-04  0.21934783D-18 -0.51950947D-19  0.22780011D-04
 -0.46051345D-18 -0.74733393D-21  0.58900485D-19  0.14135674D-04 -0.19389678D-19
  0.40195537D-19 -0.21203510D-04  0.21631680D-19 -0.21689699D-18 -0.21203510D-04
  0.11787191D-18 -0.49000946D-04 -0.91348904D-04 -0.15439574D-03 -0.23210737D-03
 -0.28517072D-03 -0.24087226D-03 -0.90848155D-04  0.44961259D-06 -0.40331017D-04
 -0.75512389D-04 -0.12856630D-03 -0.19887252D-03 -0.26190812D-03 -0.27213931D-03
 -0.17293231D-03  0.11589522D-03 -0.21831528D-03 -0.12253945D-02 -0.56786015D-04
  0.57133712D-18  0.53566487D-18  0.38142530D-18 -0.64411448D-18 -0.60389827D-18
 -0.43001154D-18 -0.26177888D-03 -0.24543434D-03 -0.17476387D-03 -0.13875662D-18
  0.11213206D-18 -0.44346600D-04 -0.83837510D-19 -0.24513952D-19  0.93728888D-03
 -0.45800707D-20 -0.35536125D-20  0.13653899D-04 -0.16638920D-03 -0.16638920D-03
  0.33277840D-03  0.31603980D-19 -0.43810541D-18  0.24526633D-18 -0.82255625D-04
 -0.82255625D-04  0.16451125D-03 -0.25674340D-19 -0.59398792D-19 -0.86971816D-18
  0.20799151D-05  0.20799151D-05 -0.41598302D-05 -0.12082140D-20 -0.12254982D-18
  0.67885175D-19  0.19416398D-20  0.61898160D-19  0.11774159D-03  0.33438934D-19
  0.26504482D-19 -0.17661239D-03 -0.39263853D-19 -0.21219896D-18 -0.17661239D-03
 -0.52575539D-19  0.86217460D-19 -0.98760540D-19 -0.28243313D-04  0.84715227D-19
 -0.86945106D-19  0.42364970D-04 -0.34336761D-18  0.38322673D-18  0.42364970D-04
  0.46717803D-19 -0.16505308D-04 -0.30755212D-04 -0.52014773D-04 -0.78331366D-04
 -0.96979313D-04 -0.82525018D-04 -0.31402292D-04  0.14707033D-06  0.16403871D-04
  0.30757412D-04  0.52327509D-04  0.81259097D-04  0.10783555D-03  0.11364386D-03
  0.70466446D-04 -0.46874307D-04 -0.41263381D-04 -0.71707875D-03 -0.14865398D-03
 -0.48339757D-18 -0.46429758D-18 -0.32559751D-18  0.13397121D-18  0.12867775D-18
  0.90237720D-19  0.11049188D-04  0.10612613D-04  0.74422966D-05  0.55008010D-18
 -0.26473424D-18  0.31329544D-03  0.34514551D-18  0.14957564D-19 -0.64504999D-04
  0.18443395D-19 -0.50870590D-20  0.47928960D-05  0.16872065D-03  0.16872065D-03
 -0.33744130D-03  0.59646740D-19 -0.11952658D-18  0.53019178D-18 -0.15576715D-04
 -0.15576715D-04  0.31153431D-04 -0.43788963D-19 -0.27613156D-18 -0.35218258D-18
 -0.27266381D-04 -0.27266381D-04  0.54532763D-04 -0.38122509D-20  0.37259698D-19
 -0.10537523D-18 -0.18848544D-18  0.74004020D-19  0.11280318D-03 -0.19838972D-18
  0.78330977D-19 -0.16920477D-03  0.76384604D-18 -0.30034304D-18 -0.16920477D-03
 -0.33328484D-19  0.45859113D-19 -0.63424968D-19 -0.35151360D-04  0.49894759D-19
 -0.70144187D-19  0.52727040D-04 -0.18747210D-18  0.26041909D-18  0.52727040D-04
  0.21079046D-19
MO    5     MO 0.0        OCC NO =    2.0000000  ORB. ENERGY =   -7.632080
  0.40679944D-04  0.76112331D-04  0.13150525D-03  0.21318534D-03  0.32373895D-03
  0.44995907D-03  0.53493642D-03  0.47648022D-03  0.23653905D-03  0.38110230D-04
  0.58509355D-06  0.10455564D-06  0.39070812D-08  0.97288491D-03  0.18172093D-02
  0.31538549D-02  0.51174248D-02  0.79211658D-02  0.11338429D-01  0.14800192D-01
  0.15772074D-01  0.11789946D-01  0.62237028D-03 -0.79971492D-02 -0.47512254D-02
  0.17813533D-04  0.15633446D-03  0.29177575D-03  0.50708057D-03  0.82182844D-03
  0.12764282D-02  0.18285203D-02  0.24143906D-02  0.26106725D-02  0.20468011D-02
  0.10184814D-03 -0.17546260D-02 -0.18163632D-02  0.82193004D-03  0.76600340D-04
 -0.77879526D-03  0.32484925D-03  0.41018737D-11  0.54030882D-11  0.59608721D-11
  0.49511895D-11  0.26296970D-11  0.67827556D-12 -0.69724422D-15 -0.49190052D-12
 -0.64794337D-12 -0.71483333D-12 -0.59375125D-12 -0.31535571D-12 -0.81339437D-13
  0.83614176D-16  0.11490276D+02  0.15135272D+02  0.16697750D+02  0.13869401D+02
  0.73663758D+01  0.19000032D+01 -0.19531387D-02  0.49366412D-14  0.64814480D-14
  0.73796054D-14  0.62487468D-14  0.35795227D-14  0.81421724D-15 -0.38109848D-15
 -0.70565599D-15 -0.92647458D-15 -0.10548595D-14 -0.89321167D-15 -0.51166604D-15
 -0.11638627D-15  0.54475180D-16  0.18577850D-01  0.24391355D-01  0.27771352D-01
  0.23515640D-01  0.13470664D-01  0.30641087D-02 -0.14341715D-02  0.32391175D-13
 -0.38723566D-14  0.94322086D-01  0.10926569D-15 -0.13929999D-16  0.22074493D-03
 -0.54956077D-17  0.72208263D-18  0.53753389D-05 -0.11879985D-02 -0.11879985D-02
  0.23759970D-02 -0.62670429D-18  0.10350265D-14 -0.10482175D-15  0.23072840D-03
  0.23072840D-03 -0.46145679D-03  0.53151442D-20 -0.24766291D-15  0.30829589D-16
 -0.24995220D-05 -0.24995220D-05  0.49990440D-05  0.28297358D-20  0.18575478D-16
 -0.22711097D-17 -0.42265429D-16  0.45314833D-17  0.45619726D-03 -0.42346223D-16
  0.45740066D-17 -0.68429590D-03  0.16914251D-15 -0.18168456D-16 -0.68429590D-03
 -0.79652674D-18  0.14932547D-16 -0.18399973D-17 -0.11602541D-03  0.14940375D-16
 -0.18392923D-17  0.17403812D-03 -0.59738015D-16  0.73592841D-17  0.17403812D-03
  0.73643402D-19  0.11012798D-03  0.20530359D-03  0.34699924D-03  0.52165352D-03
  0.64091162D-03  0.54135232D-03  0.20417818D-03 -0.10104892D-05 -0.13830171D-03
 -0.25894444D-03 -0.44087506D-03 -0.68196669D-03 -0.89812614D-03 -0.93321059D-03
 -0.59301343D-03  0.39742381D-03 -0.73643720D-04  0.36852055D-03 -0.49826314D-04
 -0.55413824D-16 -0.51953982D-16 -0.36994330D-16  0.87940160D-17  0.82449490D-17
  0.58708948D-17 -0.89128238D-03 -0.83563388D-03 -0.59502111D-03 -0.18310147D-16
  0.20781108D-17 -0.51323822D-03 -0.17812379D-16  0.16451315D-17  0.45856767D-03
  0.33106617D-17 -0.44288403D-18  0.30677242D-04 -0.15586874D-03 -0.15586874D-03
  0.31173748D-03  0.13444791D-19 -0.50598060D-16  0.41034588D-17 -0.18427299D-03
 -0.18427299D-03  0.36854599D-03 -0.16712836D-19 -0.23309399D-15  0.29049872D-16
 -0.28545828D-04 -0.28545828D-04  0.57091656D-04 -0.17193360D-20  0.19494737D-16
 -0.26541671D-17  0.40324672D-16 -0.46801130D-17  0.49600461D-03  0.40340068D-16
 -0.46854609D-17 -0.74400691D-03 -0.16131408D-15  0.18725800D-16 -0.74400691D-03
 -0.35642693D-19 -0.15347069D-16  0.22605218D-17  0.67146897D-04 -0.15348545D-16
  0.22629440D-17 -0.10072034D-03  0.61389752D-16 -0.90445092D-17 -0.10072034D-03
  0.12034639D-19 -0.32543613D-03 -0.60640231D-03 -0.10255783D-02 -0.15444641D-02
 -0.19121468D-02 -0.16271506D-02 -0.61916083D-03  0.28997943D-05  0.24016075D-03
  0.45030366D-03  0.76610050D-03  0.11896732D-02  0.15787655D-02  0.16638021D-02
  0.10316635D-02 -0.68626293D-03 -0.31227199D-03 -0.83065073D-03 -0.59493354D-04
 -0.50128838D-16 -0.48148150D-16 -0.33764806D-16  0.45728800D-17  0.43921966D-17
  0.30801114D-17  0.38383032D-03  0.36866443D-03  0.25853295D-03  0.55248716D-16
 -0.38605954D-17  0.52175303D-03  0.13966314D-16 -0.86664039D-18 -0.23327794D-03
 -0.56589515D-17  0.76802474D-18 -0.29880425D-04  0.31142327D-03  0.31142327D-03
 -0.62284653D-03  0.14259493D-19  0.89428563D-16 -0.12816201D-16 -0.41088714D-04
 -0.41088714D-04  0.82177428D-04 -0.90768812D-20 -0.16049395D-15  0.18951732D-16