 Molden2AIM, Version 4.0.0 (06/02/2016)           Time: Tue Jul  3 03:52:06 2018
GAUSSIAN             17 MOL ORBITALS    316 PRIMITIVES        4 NUCLEI
  S    1    (CENTRE  1)   0.14114931  1.96162831 -0.54347956  CHARGE = 16.0
  S    2    (CENTRE  2)  -0.14114931 -1.96162831 -0.54347956  CHARGE = 16.0
  H    3    (CENTRE  3)   1.97476947  2.18870158  1.24126283  CHARGE =  1.0
  H    4    (CENTRE  4)  -1.97476947 -2.18870158  1.24126283  CHARGE =  1.0
CENTRE ASSIGNMENTS    1  1  1  1  1  1  1  1  1  1  1  1  1  1  1  1  1  1  1  1
CENTRE ASSIGNMENTS    1  1  1  1  1  1  1  1  1  1  1  1  1  1  1  1  1  1  1  1
CENTRE ASSIGNMENTS    1  1  1  1  1  1  1  1  1  1  1  1  1  1  1  1  1  1  1  1
CENTRE ASSIGNMENTS    1  1  1  1  1  1  1  1  1  1  1  1  1  1  1  1  1  1  1  1
CENTRE ASSIGNMENTS    1  1  1  1  1  1  1  1  1  1  1  1  1  1  1  1  1  1  1  1
CENTRE ASSIGNMENTS    1  1  1  1  1  1  1  1  1  1  1  1  1  1  1  1  1  1  1  1
CENTRE ASSIGNMENTS    1  1  1  1  1  1  1  1  1  1  1  2  2  2  2  2  2  2  2  2
CENTRE ASSIGNMENTS    2  2  2  2  2  2  2  2  2  2  2  2  2  2  2  2  2  2  2  2
CENTRE ASSIGNMENTS    2  2  2  2  2  2  2  2  2  2  2  2  2  2  2  2  2  2  2  2
CENTRE ASSIGNMENTS    2  2  2  2  2  2  2  2  2  2  2  2  2  2  2  2  2  2  2  2
CENTRE ASSIGNMENTS    2  2  2  2  2  2  2  2  2  2  2  2  2  2  2  2  2  2  2  2
CENTRE ASSIGNMENTS    2  2  2  2  2  2  2  2  2  2  2  2  2  2  2  2  2  2  2  2
CENTRE ASSIGNMENTS    2  2  2  2  2  2  2  2  2  2  2  2  2  2  2  2  2  2  2  2
CENTRE ASSIGNMENTS    2  2  3  3  3  3  3  3  3  3  3  3  3  3  3  3  3  3  3  3
CENTRE ASSIGNMENTS    3  3  3  3  3  3  3  3  3  4  4  4  4  4  4  4  4  4  4  4
CENTRE ASSIGNMENTS    4  4  4  4  4  4  4  4  4  4  4  4  4  4  4  4
TYPE ASSIGNMENTS      1  1  1  1  1  1  1  1  1  1  1  1  1  1  1  1  1  1  1  1
TYPE ASSIGNMENTS      1  1  1  1  1  1  1  1  1  1  1  1  1  1  1  1  1  1  1  1
TYPE ASSIGNMENTS      1  1  2  2  2  2  2  2  2  3  3  3  3  3  3  3  4  4  4  4
TYPE ASSIGNMENTS      4  4  4  2  2  2  2  2  2  2  3  3  3  3  3  3  3  4  4  4
TYPE ASSIGNMENTS      4  4  4  4  2  3  4  2  3  4  2  3  4  5  6  7  8  9 10  5
TYPE ASSIGNMENTS      6  7  8  9 10  5  6  7  8  9 10 11 12 13 17 14 15 18 19 16
TYPE ASSIGNMENTS     20 11 12 13 17 14 15 18 19 16 20  1  1  1  1  1  1  1  1  1
TYPE ASSIGNMENTS      1  1  1  1  1  1  1  1  1  1  1  1  1  1  1  1  1  1  1  1
TYPE ASSIGNMENTS      1  1  1  1  1  1  1  1  1  1  1  1  1  2  2  2  2  2  2  2
TYPE ASSIGNMENTS      3  3  3  3  3  3  3  4  4  4  4  4  4  4  2  2  2  2  2  2
TYPE ASSIGNMENTS      2  3  3  3  3  3  3  3  4  4  4  4  4  4  4  2  3  4  2  3
TYPE ASSIGNMENTS      4  2  3  4  5  6  7  8  9 10  5  6  7  8  9 10  5  6  7  8
TYPE ASSIGNMENTS      9 10 11 12 13 17 14 15 18 19 16 20 11 12 13 17 14 15 18 19
TYPE ASSIGNMENTS     16 20  1  1  1  1  1  1  2  3  4  2  3  4  2  3  4  5  6  7
TYPE ASSIGNMENTS      8  9 10  5  6  7  8  9 10  1  1  1  1  1  1  2  3  4  2  3
TYPE ASSIGNMENTS      4  2  3  4  5  6  7  8  9 10  5  6  7  8  9 10
EXPONENTS  0.3741000D+06 0.5605000D+05 0.1276000D+05 0.3615000D+04 0.1183000D+04
EXPONENTS  0.4288000D+03 0.1678000D+03 0.6947000D+02 0.2984000D+02 0.1272000D+02
EXPONENTS  0.5244000D+01 0.2219000D+01 0.3490000D+00 0.3741000D+06 0.5605000D+05
EXPONENTS  0.1276000D+05 0.3615000D+04 0.1183000D+04 0.4288000D+03 0.1678000D+03
EXPONENTS  0.6947000D+02 0.2984000D+02 0.1272000D+02 0.5244000D+01 0.2219000D+01
EXPONENTS  0.3490000D+00 0.3741000D+06 0.5605000D+05 0.1276000D+05 0.3615000D+04
EXPONENTS  0.1183000D+04 0.4288000D+03 0.1678000D+03 0.6947000D+02 0.2984000D+02
EXPONENTS  0.1272000D+02 0.5244000D+01 0.2219000D+01 0.3490000D+00 0.7767000D+00
EXPONENTS  0.1322000D+00 0.4970000D-01 0.5744000D+03 0.1358000D+03 0.4319000D+02
EXPONENTS  0.1587000D+02 0.6208000D+01 0.2483000D+01 0.3229000D+00 0.5744000D+03
EXPONENTS  0.1358000D+03 0.4319000D+02 0.1587000D+02 0.6208000D+01 0.2483000D+01
EXPONENTS  0.3229000D+00 0.5744000D+03 0.1358000D+03 0.4319000D+02 0.1587000D+02
EXPONENTS  0.6208000D+01 0.2483000D+01 0.3229000D+00 0.5744000D+03 0.1358000D+03
EXPONENTS  0.4319000D+02 0.1587000D+02 0.6208000D+01 0.2483000D+01 0.3229000D+00
EXPONENTS  0.5744000D+03 0.1358000D+03 0.4319000D+02 0.1587000D+02 0.6208000D+01
EXPONENTS  0.2483000D+01 0.3229000D+00 0.5744000D+03 0.1358000D+03 0.4319000D+02
EXPONENTS  0.1587000D+02 0.6208000D+01 0.2483000D+01 0.3229000D+00 0.8688000D+00
EXPONENTS  0.8688000D+00 0.8688000D+00 0.1098000D+00 0.1098000D+00 0.1098000D+00
EXPONENTS  0.3510000D-01 0.3510000D-01 0.3510000D-01 0.2690000D+00 0.2690000D+00
EXPONENTS  0.2690000D+00 0.2690000D+00 0.2690000D+00 0.2690000D+00 0.8190000D+00
EXPONENTS  0.8190000D+00 0.8190000D+00 0.8190000D+00 0.8190000D+00 0.8190000D+00
EXPONENTS  0.1010000D+00 0.1010000D+00 0.1010000D+00 0.1010000D+00 0.1010000D+00
EXPONENTS  0.1010000D+00 0.5570000D+00 0.5570000D+00 0.5570000D+00 0.5570000D+00
EXPONENTS  0.5570000D+00 0.5570000D+00 0.5570000D+00 0.5570000D+00 0.5570000D+00
EXPONENTS  0.5570000D+00 0.2180000D+00 0.2180000D+00 0.2180000D+00 0.2180000D+00
EXPONENTS  0.2180000D+00 0.2180000D+00 0.2180000D+00 0.2180000D+00 0.2180000D+00
EXPONENTS  0.2180000D+00 0.3741000D+06 0.5605000D+05 0.1276000D+05 0.3615000D+04
EXPONENTS  0.1183000D+04 0.4288000D+03 0.1678000D+03 0.6947000D+02 0.2984000D+02
EXPONENTS  0.1272000D+02 0.5244000D+01 0.2219000D+01 0.3490000D+00 0.3741000D+06
EXPONENTS  0.5605000D+05 0.1276000D+05 0.3615000D+04 0.1183000D+04 0.4288000D+03
EXPONENTS  0.1678000D+03 0.6947000D+02 0.2984000D+02 0.1272000D+02 0.5244000D+01
EXPONENTS  0.2219000D+01 0.3490000D+00 0.3741000D+06 0.5605000D+05 0.1276000D+05
EXPONENTS  0.3615000D+04 0.1183000D+04 0.4288000D+03 0.1678000D+03 0.6947000D+02
EXPONENTS  0.2984000D+02 0.1272000D+02 0.5244000D+01 0.2219000D+01 0.3490000D+00
EXPONENTS  0.7767000D+00 0.1322000D+00 0.4970000D-01 0.5744000D+03 0.1358000D+03
EXPONENTS  0.4319000D+02 0.1587000D+02 0.6208000D+01 0.2483000D+01 0.3229000D+00
EXPONENTS  0.5744000D+03 0.1358000D+03 0.4319000D+02 0.1587000D+02 0.6208000D+01
EXPONENTS  0.2483000D+01 0.3229000D+00 0.5744000D+03 0.1358000D+03 0.4319000D+02
EXPONENTS  0.1587000D+02 0.6208000D+01 0.2483000D+01 0.3229000D+00 0.5744000D+03
EXPONENTS  0.1358000D+03 0.4319000D+02 0.1587000D+02 0.6208000D+01 0.2483000D+01
EXPONENTS  0.3229000D+00 0.5744000D+03 0.1358000D+03 0.4319000D+02 0.1587000D+02
EXPONENTS  0.6208000D+01 0.2483000D+01 0.3229000D+00 0.5744000D+03 0.1358000D+03
EXPONENTS  0.4319000D+02 0.1587000D+02 0.6208000D+01 0.2483000D+01 0.3229000D+00
EXPONENTS  0.8688000D+00 0.8688000D+00 0.8688000D+00 0.1098000D+00 0.1098000D+00
EXPONENTS  0.1098000D+00 0.3510000D-01 0.3510000D-01 0.3510000D-01 0.2690000D+00
EXPONENTS  0.2690000D+00 0.2690000D+00 0.2690000D+00 0.2690000D+00 0.2690000D+00
EXPONENTS  0.8190000D+00 0.8190000D+00 0.8190000D+00 0.8190000D+00 0.8190000D+00
EXPONENTS  0.8190000D+00 0.1010000D+00 0.1010000D+00 0.1010000D+00 0.1010000D+00
EXPONENTS  0.1010000D+00 0.1010000D+00 0.5570000D+00 0.5570000D+00 0.5570000D+00
EXPONENTS  0.5570000D+00 0.5570000D+00 0.5570000D+00 0.5570000D+00 0.5570000D+00
EXPONENTS  0.5570000D+00 0.5570000D+00 0.2180000D+00 0.2180000D+00 0.2180000D+00
EXPONENTS  0.2180000D+00 0.2180000D+00 0.2180000D+00 0.2180000D+00 0.2180000D+00
EXPONENTS  0.2180000D+00 0.2180000D+00 0.3387000D+02 0.5095000D+01 0.1159000D+01
EXPONENTS  0.3258000D+00 0.1027000D+00 0.2526000D-01 0.1407000D+01 0.1407000D+01
EXPONENTS  0.1407000D+01 0.3880000D+00 0.3880000D+00 0.3880000D+00 0.1020000D+00
EXPONENTS  0.1020000D+00 0.1020000D+00 0.1057000D+01 0.1057000D+01 0.1057000D+01
EXPONENTS  0.1057000D+01 0.1057000D+01 0.1057000D+01 0.2470000D+00 0.2470000D+00
EXPONENTS  0.2470000D+00 0.2470000D+00 0.2470000D+00 0.2470000D+00 0.3387000D+02
EXPONENTS  0.5095000D+01 0.1159000D+01 0.3258000D+00 0.1027000D+00 0.2526000D-01
EXPONENTS  0.1407000D+01 0.1407000D+01 0.1407000D+01 0.3880000D+00 0.3880000D+00
EXPONENTS  0.3880000D+00 0.1020000D+00 0.1020000D+00 0.1020000D+00 0.1057000D+01
EXPONENTS  0.1057000D+01 0.1057000D+01 0.1057000D+01 0.1057000D+01 0.1057000D+01
EXPONENTS  0.2470000D+00 0.2470000D+00 0.2470000D+00 0.2470000D+00 0.2470000D+00
EXPONENTS  0.2470000D+00
MO    1     MO 0.0        OCC NO =    2.0000000  ORB. ENERGY =  -90.057567
  0.41357350D+00  0.77315162D+00  0.13362474D+01  0.21613202D+01  0.32667089D+01
  0.44987942D+01  0.52580474D+01  0.45433497D+01  0.21190345D+01  0.28771910D+00
  0.77044087D-03  0.15112865D-02  0.68996541D-04 -0.49785343D-03 -0.92976249D-03
 -0.16128169D-02 -0.26151268D-02 -0.40262855D-02 -0.57343349D-02 -0.73736104D-02
 -0.77400967D-02 -0.54727968D-02  0.12119738D-03  0.39322753D-02  0.21652175D-02
 -0.91566680D-05  0.22165162D-03  0.41363472D-03  0.71843400D-03  0.11637037D-02
  0.17975816D-02  0.25627227D-02  0.33332651D-02  0.35523621D-02  0.26347131D-02
 -0.82008834D-04 -0.23869128D-02 -0.23383507D-02  0.10921485D-02 -0.13680474D-02
 -0.17589671D-03 -0.47716228D-04  0.43560072D-02  0.57148442D-02  0.62683131D-02
  0.51576673D-02  0.27192242D-02  0.70741362D-03 -0.78282529D-06 -0.19286265D-02
 -0.25302530D-02 -0.27753018D-02 -0.22835623D-02 -0.12039392D-02 -0.31320808D-03
  0.34659668D-06  0.48199336D-02  0.63234903D-02  0.69359051D-02  0.57069726D-02
  0.30088288D-02  0.78275505D-03 -0.86619827D-06 -0.36925747D-02 -0.48483730D-02
 -0.54547466D-02 -0.45960364D-02 -0.25709583D-02 -0.63990629D-03  0.29349186D-03
  0.13789337D-02  0.18105483D-02  0.20369890D-02  0.17163172D-02  0.96008379D-03
  0.23896290D-03 -0.10959990D-03 -0.40496483D-02 -0.53172128D-02 -0.59822230D-02
 -0.50404751D-02 -0.28195711D-02 -0.70178551D-03  0.32187265D-03 -0.17908840D-03
  0.58675224D-04 -0.20779774D-03 -0.49455145D-04  0.30819116D-04 -0.58420247D-04
 -0.91062509D-06  0.60206032D-06 -0.16745993D-05  0.31774529D-04 -0.60742968D-04
  0.28968439D-04  0.42704938D-05  0.12455507D-03 -0.34675982D-05 -0.11278119D-04
  0.31994454D-04 -0.20716336D-04  0.54387510D-04  0.18883879D-03  0.39190957D-04
  0.19900585D-05 -0.29731249D-05  0.98306649D-06 -0.57256168D-05 -0.16202886D-04
 -0.41280389D-06 -0.12884849D-04 -0.15021241D-04 -0.18080444D-04 -0.68213998D-04
  0.25921323D-04  0.11934493D-03  0.10686855D-03  0.19142399D-04 -0.65103596D-04
  0.58545217D-04  0.82900071D-06  0.12038225D-04  0.24856005D-05 -0.11963546D-05
 -0.19403560D-04 -0.26106867D-05 -0.12906475D-05 -0.16711115D-04 -0.48461148D-05
 -0.24505121D-04  0.41357583D+00  0.77315598D+00  0.13362549D+01  0.21613324D+01
  0.32667273D+01  0.44988196D+01  0.52580771D+01  0.45433753D+01  0.21190464D+01
  0.28772072D+00  0.77044521D-03  0.15112950D-02  0.68996930D-04 -0.49785645D-03
 -0.92976812D-03 -0.16128267D-02 -0.26151427D-02 -0.40263099D-02 -0.57343696D-02
 -0.73736550D-02 -0.77401435D-02 -0.54728300D-02  0.12119811D-03  0.39322991D-02
  0.21652306D-02 -0.91567234D-05  0.22165299D-03  0.41363727D-03  0.71843843D-03
  0.11637109D-02  0.17975927D-02  0.25627385D-02  0.33332856D-02  0.35523840D-02
  0.26347293D-02 -0.82009340D-04 -0.23869275D-02 -0.23383651D-02  0.10921552D-02
 -0.13680548D-02 -0.17590077D-03 -0.47717556D-04 -0.43560273D-02 -0.57148706D-02
 -0.62683420D-02 -0.51576912D-02 -0.27192368D-02 -0.70741689D-03  0.78282891D-06
  0.19286240D-02  0.25302497D-02  0.27752982D-02  0.22835594D-02  0.12039377D-02
  0.31320768D-03 -0.34659623D-06  0.48199541D-02  0.63235174D-02  0.69359347D-02
  0.57069970D-02  0.30088417D-02  0.78275839D-03 -0.86620197D-06  0.36925916D-02
  0.48483953D-02  0.54547716D-02  0.45960575D-02  0.25709701D-02  0.63990923D-03
 -0.29349321D-03 -0.13789294D-02 -0.18105427D-02 -0.20369827D-02 -0.17163119D-02
 -0.96008081D-03 -0.23896216D-03  0.10959956D-03 -0.40496654D-02 -0.53172354D-02
 -0.59822483D-02 -0.50404965D-02 -0.28195831D-02 -0.70178849D-03  0.32187402D-03
  0.17908913D-03 -0.58675106D-04 -0.20779848D-03  0.49455238D-04 -0.30820862D-04
 -0.58420529D-04  0.91062428D-06 -0.60212507D-06 -0.16746036D-05  0.31774804D-04
 -0.60743535D-04  0.28968730D-04  0.42703631D-05 -0.12455545D-03  0.34675887D-05
 -0.11278129D-04  0.31994524D-04 -0.20716395D-04  0.54387889D-04 -0.18883994D-03
 -0.39191078D-04  0.19901165D-05 -0.29732557D-05  0.98313913D-06 -0.57256532D-05
  0.16202968D-04  0.41277706D-06  0.12884896D-04  0.15021315D-04 -0.18080522D-04
  0.68214390D-04 -0.25921424D-04  0.11934543D-03 -0.10686908D-03 -0.19142520D-04
 -0.65103867D-04  0.58545330D-04 -0.82899672D-06 -0.12038285D-04  0.24856120D-05
  0.11962950D-05  0.19403643D-04 -0.26107281D-05  0.12906951D-05  0.16711213D-04
 -0.48461079D-05 -0.24505132D-04  0.21572215D-04  0.38906378D-04  0.57367431D-04
 -0.34164493D-03  0.16466904D-03  0.37490977D-05  0.24846444D-04  0.63993196D-05
  0.13779360D-04  0.26437915D-03  0.79043344D-04  0.25883345D-03 -0.10767316D-04
 -0.22703867D-05 -0.43369098D-05 -0.54350501D-04  0.93376204D-04 -0.39025703D-04
 -0.74807451D-04 -0.30631831D-03 -0.59019198D-04 -0.16970783D-04  0.34659454D-04
 -0.17688671D-04 -0.93897085D-05 -0.65915614D-04 -0.18956351D-04  0.21572293D-04
  0.38906519D-04  0.57367640D-04 -0.34164584D-03  0.16466929D-03  0.37490839D-05
 -0.24846414D-04 -0.63993156D-05  0.13779342D-04 -0.26438038D-03 -0.79043514D-04
  0.25883463D-03  0.10767216D-04  0.22703632D-05 -0.43368555D-05 -0.54350821D-04
  0.93376822D-04 -0.39026001D-04 -0.74807567D-04  0.30631978D-03  0.59019414D-04
 -0.16970853D-04  0.34659550D-04 -0.17688698D-04 -0.93898545D-05  0.65916026D-04
  0.18956456D-04
MO    2     MO 0.0        OCC NO =    2.0000000  ORB. ENERGY =  -90.057566
  0.41359516D+00  0.77319212D+00  0.13363174D+01  0.21614334D+01  0.32668800D+01
  0.44990299D+01  0.52583229D+01  0.45435877D+01  0.21191455D+01  0.28773417D+00
  0.77048122D-03  0.15113657D-02  0.69000155D-04 -0.53428705D-03 -0.99780382D-03
 -0.17308451D-02 -0.28065055D-02 -0.43209347D-02 -0.61539816D-02 -0.79132215D-02
 -0.83065279D-02 -0.58733038D-02  0.13006677D-03  0.42200447D-02  0.23236711D-02
 -0.98267659D-05  0.24237940D-03  0.45231582D-03  0.78561844D-03  0.12725276D-02
  0.19656827D-02  0.28023760D-02  0.36449758D-02  0.38845616D-02  0.28810986D-02
 -0.89677900D-04 -0.26101252D-02 -0.25570218D-02  0.11942809D-02 -0.13166850D-02
 -0.71982204D-03 -0.23540791D-03  0.35713397D-02  0.46854033D-02  0.51391732D-02
  0.42285932D-02  0.22293980D-02  0.57998398D-03 -0.64181140D-06  0.44269168D-03
  0.58078737D-03  0.63703523D-03  0.52416268D-03  0.27634893D-03  0.71892930D-04
 -0.79556857D-07  0.36507057D-02  0.47895271D-02  0.52533812D-02  0.43225653D-02
  0.22789419D-02  0.59287297D-03 -0.65607439D-06 -0.30097244D-02 -0.39517865D-02
 -0.44460263D-02 -0.37461133D-02 -0.20955232D-02 -0.52157147D-03  0.23921781D-03
 -0.75752853D-03 -0.99463957D-03 -0.11190366D-02 -0.94287293D-03 -0.52742990D-03
 -0.13127623D-03  0.60209603D-04 -0.30441391D-02 -0.39969731D-02 -0.44968643D-02
 -0.37889482D-02 -0.21194845D-02 -0.52753537D-03  0.24195314D-03 -0.12923318D-03
 -0.20899446D-04 -0.13182809D-03 -0.16338934D-04  0.30955526D-03 -0.50024787D-04
  0.14445577D-06  0.11480998D-04 -0.76208848D-06  0.48807962D-04 -0.10049496D-03
  0.51686999D-04 -0.23177983D-04  0.68944447D-04  0.16854104D-05 -0.18531520D-05
  0.12415591D-04 -0.10562439D-04  0.67214876D-04  0.20445830D-03  0.21425738D-04
  0.10297573D-04 -0.23177320D-04  0.12879747D-04 -0.64538934D-05 -0.14602077D-04
  0.47587123D-05 -0.82056250D-05 -0.13096757D-04 -0.13709733D-04 -0.69463696D-04
  0.17786461D-04  0.89130860D-04  0.94080571D-04  0.21503810D-04 -0.48001661D-04
  0.20079734D-04 -0.70806290D-06  0.10711203D-04  0.20325165D-05  0.10556164D-04
 -0.14809060D-04 -0.73356524D-05 -0.84319752D-05 -0.17324549D-04  0.12381030D-05
 -0.19147296D-05 -0.41359283D+00 -0.77318776D+00 -0.13363099D+01 -0.21614212D+01
 -0.32668616D+01 -0.44990045D+01 -0.52582932D+01 -0.45435620D+01 -0.21191335D+01
 -0.28773255D+00 -0.77047688D-03 -0.15113571D-02 -0.68999766D-04  0.53428424D-03
  0.99779858D-03  0.17308360D-02  0.28064908D-02  0.43209120D-02  0.61539493D-02
  0.79131800D-02  0.83064842D-02  0.58732730D-02 -0.13006609D-03 -0.42200225D-02
 -0.23236589D-02  0.98267143D-05 -0.24237815D-03 -0.45231349D-03 -0.78561439D-03
 -0.12725210D-02 -0.19656725D-02 -0.28023615D-02 -0.36449570D-02 -0.38845416D-02
 -0.28810837D-02  0.89677438D-04  0.26101118D-02  0.25570087D-02 -0.11942747D-02
  0.13166773D-02  0.71982104D-03  0.23540764D-03  0.35713152D-02  0.46853710D-02
  0.51391379D-02  0.42285641D-02  0.22293826D-02  0.57997999D-03 -0.64180699D-06
  0.44270255D-03  0.58080164D-03  0.63705088D-03  0.52417556D-03  0.27635572D-03
  0.71894696D-04 -0.79558811D-07 -0.36506785D-02 -0.47894914D-02 -0.52533421D-02
 -0.43225331D-02 -0.22789249D-02 -0.59286856D-03  0.65606950D-06 -0.30097036D-02
 -0.39517592D-02 -0.44459955D-02 -0.37460874D-02 -0.20955087D-02 -0.52156786D-03
  0.23921615D-03 -0.75753631D-03 -0.99464978D-03 -0.11190481D-02 -0.94288261D-03
 -0.52743531D-03 -0.13127757D-03  0.60210221D-04  0.30441162D-02  0.39969432D-02
  0.44968305D-02  0.37889197D-02  0.21194686D-02  0.52753141D-03 -0.24195132D-03
 -0.12923217D-03 -0.20899777D-04  0.13182692D-03 -0.16338655D-04  0.30955509D-03
  0.50024457D-04  0.14446091D-06  0.11480995D-04  0.76207904D-06 -0.48807783D-04
  0.10049462D-03 -0.51686836D-04  0.23178007D-04  0.68943744D-04  0.16854300D-05
  0.18530884D-05 -0.12415410D-04  0.10562322D-04 -0.67214569D-04  0.20445724D-03
  0.21425517D-04 -0.10297562D-04  0.23177303D-04 -0.12879741D-04  0.64538611D-05
 -0.14601986D-04  0.47587146D-05 -0.82055523D-05 -0.13096672D-04  0.13709631D-04
 -0.69463312D-04  0.17786315D-04 -0.89130187D-04  0.94079968D-04  0.21503702D-04
  0.48001294D-04 -0.20079404D-04 -0.70806757D-06  0.10711135D-04 -0.20325024D-05
  0.10556171D-04 -0.14808950D-04  0.73356376D-05 -0.84319679D-05 -0.17324455D-04
 -0.12381303D-05  0.19145914D-05  0.13911541D-04  0.25090038D-04  0.36995246D-04
 -0.16177249D-03  0.43655768D-04 -0.24540963D-05 -0.52110461D-05 -0.71014332D-06
 -0.32124305D-05  0.21850804D-03  0.30111300D-04  0.20814770D-03  0.17829073D-04
  0.41636564D-05  0.96307651D-05 -0.56708508D-04  0.10952980D-03 -0.52821288D-04
 -0.20631143D-04 -0.26116236D-03 -0.38347795D-04 -0.12280044D-04  0.17052820D-04
 -0.47727759D-05 -0.25881520D-04 -0.72992056D-04 -0.18603278D-04 -0.13911420D-04
 -0.25089819D-04 -0.36994923D-04  0.16177056D-03 -0.43654839D-04  0.24541175D-05
 -0.52111862D-05 -0.71017941D-06  0.32125082D-05  0.21850655D-03  0.30110854D-04
 -0.20814624D-03  0.17829134D-04  0.41636692D-05 -0.96307896D-05  0.56708201D-04
 -0.10952927D-03  0.52821067D-04  0.20630721D-04 -0.26116063D-03 -0.38347463D-04
  0.12279949D-04 -0.17052625D-04  0.47726762D-05  0.25881467D-04 -0.72991684D-04
 -0.18603171D-04
MO    3     MO 0.0        OCC NO =    2.0000000  ORB. ENERGY =   -8.372635
 -0.12431400D-02 -0.23239781D-02 -0.40165597D-02 -0.64966050D-02 -0.98192381D-02
 -0.13522702D-01 -0.15804904D-01 -0.13656629D-01 -0.63695004D-02 -0.86484055D-03
 -0.23158299D-05 -0.45427010D-05 -0.20739327D-06 -0.11224333D+00 -0.20961920D+00
 -0.36361693D+00 -0.58959228D+00 -0.90774444D+00 -0.12928320D+01 -0.16624141D+01
 -0.17450401D+01 -0.12338670D+01  0.27324502D-01  0.88654940D+00  0.48815816D+00
 -0.20644126D-02 -0.54349568D-03 -0.10142433D-02 -0.17616193D-02 -0.28534324D-02
 -0.44077180D-02 -0.62838642D-02 -0.81732547D-02 -0.87104864D-02 -0.64603866D-02
  0.20108785D-03  0.58527737D-02  0.57336982D-02 -0.26779771D-02  0.35095235D-01
  0.13059191D-02  0.15172257D-03  0.16335690D-01  0.21431535D-01  0.23507128D-01
  0.19342037D-01  0.10197505D-01  0.26529087D-02 -0.29357140D-05 -0.35877988D-01
 -0.47069967D-01 -0.51628580D-01 -0.42480813D-01 -0.22396725D-01 -0.58265693D-02
  0.64476929D-05  0.19539504D-01  0.25634765D-01  0.28117430D-01  0.23135467D-01
  0.12197476D-01  0.31732066D-02 -0.35114767D-05  0.47009585D-02  0.61723871D-02
  0.69443517D-02  0.58511413D-02  0.32730464D-02  0.81465459D-03 -0.37363985D-03
 -0.24543093D-02 -0.32225230D-02 -0.36255557D-02 -0.30548048D-02 -0.17088150D-02
 -0.42532057D-03  0.19507251D-03  0.56540255D-02  0.74237699D-02  0.83522417D-02
  0.70373951D-02  0.39366201D-02  0.97981674D-03 -0.44939117D-03  0.70907810D-03
 -0.98277674D-03  0.88127055D-03  0.26314252D-03 -0.36579073D-04  0.26512825D-03
  0.28620143D-05 -0.77539571D-06  0.48291263D-05 -0.14706857D-04  0.23362683D-04
 -0.86558262D-05 -0.58775073D-04 -0.14738820D-03 -0.14502620D-05 -0.18556965D-03
  0.38892190D-03 -0.20335225D-03  0.29963159D-03  0.56587963D-03  0.94047528D-04
  0.23647335D-06 -0.22297189D-05  0.19932456D-05  0.10096039D-04  0.57643192D-04
  0.17371175D-05  0.99883594D-05 -0.20494627D-05  0.14939371D-04  0.18093691D-04
 -0.47874308D-05 -0.73913753D-04 -0.48058769D-04  0.10935819D-04  0.29095639D-04
 -0.52457887D-04 -0.34189410D-05 -0.16281060D-04 -0.50828183D-05  0.49695503D-05
  0.28256367D-04  0.11913204D-04  0.52872726D-05  0.20586813D-04  0.33352512D-05
  0.30507064D-04 -0.12431400D-02 -0.23239781D-02 -0.40165597D-02 -0.64966051D-02
 -0.98192381D-02 -0.13522702D-01 -0.15804904D-01 -0.13656629D-01 -0.63695005D-02
 -0.86484056D-03 -0.23158299D-05 -0.45427010D-05 -0.20739328D-06 -0.11224333D+00
 -0.20961920D+00 -0.36361693D+00 -0.58959228D+00 -0.90774444D+00 -0.12928320D+01
 -0.16624141D+01 -0.17450401D+01 -0.12338670D+01  0.27324502D-01  0.88654941D+00
  0.48815816D+00 -0.20644126D-02 -0.54349569D-03 -0.10142434D-02 -0.17616193D-02
 -0.28534324D-02 -0.44077180D-02 -0.62838643D-02 -0.81732548D-02 -0.87104864D-02
 -0.64603866D-02  0.20108785D-03  0.58527738D-02  0.57336982D-02 -0.26779771D-02
  0.35095235D-01  0.13059191D-02  0.15172257D-03 -0.16335690D-01 -0.21431536D-01
 -0.23507128D-01 -0.19342037D-01 -0.10197505D-01 -0.26529087D-02  0.29357140D-05
  0.35877989D-01  0.47069967D-01  0.51628580D-01  0.42480814D-01  0.22396725D-01
  0.58265693D-02 -0.64476930D-05  0.19539504D-01  0.25634765D-01  0.28117430D-01
  0.23135467D-01  0.12197476D-01  0.31732067D-02 -0.35114767D-05 -0.47009585D-02
 -0.61723871D-02 -0.69443517D-02 -0.58511413D-02 -0.32730464D-02 -0.81465459D-03
  0.37363985D-03  0.24543093D-02  0.32225231D-02  0.36255557D-02  0.30548048D-02
  0.17088150D-02  0.42532057D-03 -0.19507251D-03  0.56540255D-02  0.74237699D-02
  0.83522417D-02  0.70373951D-02  0.39366202D-02  0.97981674D-03 -0.44939117D-03
 -0.70907810D-03  0.98277675D-03  0.88127056D-03 -0.26314252D-03  0.36579074D-04
  0.26512825D-03 -0.28620143D-05  0.77539576D-06  0.48291264D-05 -0.14706856D-04
  0.23362682D-04 -0.86558260D-05 -0.58775073D-04  0.14738820D-03  0.14502622D-05
 -0.18556965D-03  0.38892190D-03 -0.20335226D-03  0.29963159D-03 -0.56587964D-03
 -0.94047529D-04  0.23647334D-06 -0.22297189D-05  0.19932455D-05  0.10096039D-04
 -0.57643192D-04 -0.17371175D-05 -0.99883593D-05  0.20494624D-05  0.14939371D-04
 -0.18093691D-04  0.47874313D-05 -0.73913753D-04  0.48058769D-04 -0.10935819D-04
  0.29095639D-04 -0.52457887D-04  0.34189410D-05  0.16281060D-04 -0.50828183D-05
 -0.49695502D-05 -0.28256367D-04  0.11913204D-04 -0.52872727D-05 -0.20586813D-04
  0.33352512D-05  0.30507064D-04  0.22687394D-04  0.40917650D-04  0.60333051D-04
  0.26509662D-03 -0.88944797D-03 -0.13204640D-04 -0.12150027D-04 -0.32494786D-04
  0.70727173D-05 -0.24037482D-03 -0.51579268D-04 -0.23834867D-03  0.10531131D-03
  0.19390172D-04  0.89652744D-04  0.68347200D-05 -0.29845466D-05 -0.38501735D-05
  0.37668817D-04 -0.19112133D-04 -0.84050749D-06  0.22988694D-04 -0.49155348D-04
  0.26166655D-04  0.40883741D-05  0.93518327D-04  0.27150635D-04  0.22687395D-04
  0.40917650D-04  0.60333052D-04  0.26509662D-03 -0.88944797D-03 -0.13204640D-04
  0.12150027D-04  0.32494786D-04  0.70727175D-05  0.24037482D-03  0.51579267D-04
 -0.23834867D-03 -0.10531131D-03 -0.19390172D-04  0.89652745D-04  0.68347200D-05
 -0.29845465D-05 -0.38501735D-05  0.37668818D-04  0.19112133D-04  0.84050718D-06
  0.22988694D-04 -0.49155348D-04  0.26166655D-04  0.40883743D-05 -0.93518327D-04
 -0.27150635D-04
MO    4     MO 0.0        OCC NO =    2.0000000  ORB. ENERGY =   -8.372525
 -0.12581417D-02 -0.23520227D-02 -0.40650296D-02 -0.65750030D-02 -0.99377321D-02
 -0.13685888D-01 -0.15995630D-01 -0.13821431D-01 -0.64463646D-02 -0.87527705D-03
 -0.23437763D-05 -0.45975202D-05 -0.20989600D-06 -0.11222286D+00 -0.20958098D+00
 -0.36355063D+00 -0.58948478D+00 -0.90757893D+00 -0.12925963D+01 -0.16621110D+01
 -0.17447219D+01 -0.12336420D+01  0.27319520D-01  0.88638776D+00  0.48806916D+00
 -0.20640362D-02 -0.55796568D-03 -0.10412465D-02 -0.18085205D-02 -0.29294020D-02
 -0.45250688D-02 -0.64511654D-02 -0.83908589D-02 -0.89423938D-02 -0.66323875D-02
  0.20644160D-03  0.60085976D-02  0.58863518D-02 -0.27492754D-02  0.35228575D-01
  0.14870712D-02  0.26901935D-03  0.17029767D-01  0.22342127D-01  0.24505908D-01
  0.20163850D-01  0.10630780D-01  0.27656266D-02 -0.30604478D-05 -0.33408968D-01
 -0.43830747D-01 -0.48075649D-01 -0.39557406D-01 -0.20855447D-01 -0.54256015D-02
  0.60039812D-05  0.20858917D-01  0.27365764D-01  0.30016072D-01  0.24697699D-01
  0.13021116D-01  0.33874788D-02 -0.37485907D-05  0.40777243D-02  0.53540768D-02
  0.60236974D-02  0.50754205D-02  0.28391191D-02  0.70665096D-03 -0.32410418D-03
 -0.48756029D-02 -0.64016963D-02 -0.72023399D-02 -0.60685159D-02 -0.33946427D-02
 -0.84491967D-03  0.38752087D-03  0.45314526D-02  0.59498248D-02  0.66939541D-02
  0.56401624D-02  0.31550278D-02  0.78527999D-03 -0.36016724D-03  0.67032051D-03
 -0.11841404D-02  0.78468328D-03  0.18388186D-03 -0.23803750D-03  0.22585798D-03
  0.47932212D-05 -0.70429225D-05  0.45173881D-05  0.40480357D-04 -0.77475222D-04
  0.36994865D-04 -0.33369113D-04 -0.11936073D-03 -0.32902201D-04 -0.15624075D-03
  0.32845461D-03 -0.17221386D-03  0.22739509D-03  0.55232799D-03  0.14642883D-03
 -0.29593151D-05  0.11053783D-04 -0.80944681D-05  0.62026252D-05  0.49209575D-04
 -0.99993250D-05 -0.21196524D-05  0.51643632D-04  0.96931304D-05  0.70992552D-04
 -0.71189047D-04 -0.35052450D-04 -0.64633595D-04 -0.83741848D-04  0.59730587D-05
  0.21699732D-04 -0.36610252D-06  0.36738709D-05 -0.32945236D-05 -0.12567380D-04
 -0.88063763D-05  0.98518341D-05  0.13665688D-04 -0.22152364D-05  0.31736683D-07
 -0.47412773D-05  0.12581417D-02  0.23520227D-02  0.40650296D-02  0.65750030D-02
  0.99377320D-02  0.13685888D-01  0.15995630D-01  0.13821431D-01  0.64463646D-02
  0.87527704D-03  0.23437763D-05  0.45975202D-05  0.20989600D-06  0.11222286D+00
  0.20958098D+00  0.36355063D+00  0.58948478D+00  0.90757892D+00  0.12925962D+01
  0.16621110D+01  0.17447219D+01  0.12336420D+01 -0.27319520D-01 -0.88638775D+00
 -0.48806915D+00  0.20640362D-02  0.55796567D-03  0.10412465D-02  0.18085205D-02
  0.29294020D-02  0.45250687D-02  0.64511654D-02  0.83908589D-02  0.89423937D-02
  0.66323875D-02 -0.20644159D-03 -0.60085975D-02 -0.58863517D-02  0.27492754D-02
 -0.35228575D-01 -0.14870712D-02 -0.26901935D-03  0.17029767D-01  0.22342127D-01
  0.24505908D-01  0.20163849D-01  0.10630780D-01  0.27656266D-02 -0.30604477D-05
 -0.33408968D-01 -0.43830747D-01 -0.48075648D-01 -0.39557405D-01 -0.20855446D-01
 -0.54256014D-02  0.60039811D-05 -0.20858917D-01 -0.27365764D-01 -0.30016072D-01
 -0.24697699D-01 -0.13021116D-01 -0.33874788D-02  0.37485907D-05  0.40777243D-02
  0.53540768D-02  0.60236974D-02  0.50754205D-02  0.28391191D-02  0.70665095D-03
 -0.32410418D-03 -0.48756029D-02 -0.64016962D-02 -0.72023399D-02 -0.60685159D-02
 -0.33946427D-02 -0.84491966D-03  0.38752087D-03 -0.45314525D-02 -0.59498248D-02
 -0.66939540D-02 -0.56401624D-02 -0.31550278D-02 -0.78527998D-03  0.36016724D-03
  0.67032050D-03 -0.11841403D-02 -0.78468327D-03  0.18388186D-03 -0.23803750D-03
 -0.22585798D-03  0.47932212D-05 -0.70429225D-05 -0.45173880D-05 -0.40480357D-04
  0.77475222D-04 -0.36994865D-04  0.33369113D-04 -0.11936073D-03 -0.32902201D-04
  0.15624074D-03 -0.32845461D-03  0.17221386D-03 -0.22739509D-03  0.55232799D-03
  0.14642883D-03  0.29593152D-05 -0.11053783D-04  0.80944681D-05 -0.62026251D-05
  0.49209574D-04 -0.99993250D-05 -0.21196524D-05  0.51643632D-04 -0.96931303D-05
  0.70992552D-04 -0.71189047D-04  0.35052450D-04 -0.64633595D-04 -0.83741848D-04
 -0.59730585D-05 -0.21699732D-04 -0.36610250D-06  0.36738710D-05  0.32945236D-05
 -0.12567380D-04 -0.88063764D-05 -0.98518340D-05  0.13665688D-04 -0.22152365D-05
 -0.31736694D-07  0.47412774D-05  0.20908733D-04  0.37709761D-04  0.55603020D-04
  0.13316255D-03 -0.60916388D-03 -0.16404154D-04  0.43222666D-04 -0.28944211D-04
  0.39884068D-04 -0.23468273D-03  0.13224561D-04 -0.22443536D-03  0.48502852D-04
  0.15461719D-04  0.61577313D-04 -0.43646544D-05  0.56885552D-05 -0.13239008D-05
  0.23793104D-04 -0.12269577D-04  0.54722730D-04  0.14619182D-04 -0.16938743D-04
  0.23195615D-05  0.28998774D-04  0.10157645D-03  0.10063290D-04 -0.20908733D-04
 -0.37709760D-04 -0.55603020D-04 -0.13316255D-03  0.60916388D-03  0.16404154D-04
  0.43222667D-04 -0.28944211D-04 -0.39884068D-04 -0.23468273D-03  0.13224561D-04
  0.22443536D-03  0.48502851D-04  0.15461719D-04 -0.61577312D-04  0.43646544D-05
 -0.56885551D-05  0.13239008D-05 -0.23793104D-04 -0.12269577D-04  0.54722730D-04
 -0.14619181D-04  0.16938743D-04 -0.23195614D-05 -0.28998774D-04  0.10157645D-03
  0.10063290D-04
MO    5     MO 0.0        OCC NO =    2.0000000  ORB. ENERGY =   -6.224157
 -0.52157120D-04 -0.97504705D-04 -0.16851857D-03 -0.27257123D-03 -0.41197545D-03
 -0.56735780D-03 -0.66310973D-03 -0.57297684D-03 -0.26723844D-03 -0.36285206D-04
 -0.97162843D-07 -0.19059333D-06 -0.87013817D-08  0.42749330D-03  0.79836195D-03
  0.13848823D-02  0.22455388D-02  0.34572627D-02  0.49239186D-02  0.63315201D-02
  0.66462121D-02  0.46993429D-02 -0.10406892D-03 -0.33765386D-02 -0.18592138D-02
  0.78625836D-05 -0.17936246D-04 -0.33471689D-04 -0.58136317D-04 -0.94167934D-04
 -0.14546190D-03 -0.20737779D-03 -0.26973077D-03 -0.28746029D-03 -0.21320332D-03
  0.66362277D-05  0.19315110D-03  0.18922141D-03 -0.88377623D-04  0.62508785D-04
 -0.27079010D-03  0.24353502D-04 -0.24213422D+01 -0.31766691D+01 -0.34843218D+01
 -0.28669552D+01 -0.15115155D+01 -0.39322489D+00  0.43514343D-03 -0.61297122D+01
 -0.80418487D+01 -0.88206822D+01 -0.72577971D+01 -0.38264542D+01 -0.99546252D+00
  0.11015808D-02 -0.18568745D+01 -0.24361182D+01 -0.26720504D+01 -0.21986054D+01