 Molden2AIM, Version 4.0.0 (06/02/2016)           Time: Tue Jul  3 04:13:26 2018
GAUSSIAN             25 MOL ORBITALS    512 PRIMITIVES        8 NUCLEI
  P    1    (CENTRE  1)  -2.31202700  1.30191548 -0.16594630  CHARGE = 15.0
  O    2    (CENTRE  2)   0.66468282  1.98295576  0.09448631  CHARGE =  8.0
  O    3    (CENTRE  3)  -3.23637520  3.40013697 -2.19947302  CHARGE =  8.0
  O    4    (CENTRE  4)  -3.42955434  2.45622066  2.44396201  CHARGE =  8.0
  H    5    (CENTRE  5)   1.64401449  0.92649492 -1.02461328  CHARGE =  1.0
  H    6    (CENTRE  6)  -4.81605774  2.88451575 -2.95197141  CHARGE =  1.0
  H    7    (CENTRE  7)  -3.51618316  1.15061644  3.71497857  CHARGE =  1.0
  O    8    (CENTRE  8)  -2.95069207 -1.38766180 -0.73789648  CHARGE =  8.0
CENTRE ASSIGNMENTS    1  1  1  1  1  1  1  1  1  1  1  1  1  1  1  1  1  1  1  1
CENTRE ASSIGNMENTS    1  1  1  1  1  1  1  1  1  1  1  1  1  1  1  1  1  1  1  1
CENTRE ASSIGNMENTS    1  1  1  1  1  1  1  1  1  1  1  1  1  1  1  1  1  1  1  1
CENTRE ASSIGNMENTS    1  1  1  1  1  1  1  1  1  1  1  1  1  1  1  1  1  1  1  1
CENTRE ASSIGNMENTS    1  1  1  1  1  1  1  1  1  1  1  1  1  1  1  1  1  1  1  1
CENTRE ASSIGNMENTS    1  1  1  1  1  1  1  1  1  1  1  1  1  1  1  1  1  1  1  1
CENTRE ASSIGNMENTS    1  1  1  1  1  1  1  1  1  1  1  2  2  2  2  2  2  2  2  2
CENTRE ASSIGNMENTS    2  2  2  2  2  2  2  2  2  2  2  2  2  2  2  2  2  2  2  2
CENTRE ASSIGNMENTS    2  2  2  2  2  2  2  2  2  2  2  2  2  2  2  2  2  2  2  2
CENTRE ASSIGNMENTS    2  2  2  2  2  2  2  2  2  2  2  2  2  2  2  2  2  2  2  2
CENTRE ASSIGNMENTS    2  2  2  2  2  2  3  3  3  3  3  3  3  3  3  3  3  3  3  3
CENTRE ASSIGNMENTS    3  3  3  3  3  3  3  3  3  3  3  3  3  3  3  3  3  3  3  3
CENTRE ASSIGNMENTS    3  3  3  3  3  3  3  3  3  3  3  3  3  3  3  3  3  3  3  3
CENTRE ASSIGNMENTS    3  3  3  3  3  3  3  3  3  3  3  3  3  3  3  3  3  3  3  3
CENTRE ASSIGNMENTS    3  4  4  4  4  4  4  4  4  4  4  4  4  4  4  4  4  4  4  4
CENTRE ASSIGNMENTS    4  4  4  4  4  4  4  4  4  4  4  4  4  4  4  4  4  4  4  4
CENTRE ASSIGNMENTS    4  4  4  4  4  4  4  4  4  4  4  4  4  4  4  4  4  4  4  4
CENTRE ASSIGNMENTS    4  4  4  4  4  4  4  4  4  4  4  4  4  4  4  4  5  5  5  5
CENTRE ASSIGNMENTS    5  5  5  5  5  5  5  5  5  5  5  5  5  5  5  5  5  5  5  5
CENTRE ASSIGNMENTS    5  5  5  6  6  6  6  6  6  6  6  6  6  6  6  6  6  6  6  6
CENTRE ASSIGNMENTS    6  6  6  6  6  6  6  6  6  6  7  7  7  7  7  7  7  7  7  7
CENTRE ASSIGNMENTS    7  7  7  7  7  7  7  7  7  7  7  7  7  7  7  7  7  8  8  8
CENTRE ASSIGNMENTS    8  8  8  8  8  8  8  8  8  8  8  8  8  8  8  8  8  8  8  8
CENTRE ASSIGNMENTS    8  8  8  8  8  8  8  8  8  8  8  8  8  8  8  8  8  8  8  8
CENTRE ASSIGNMENTS    8  8  8  8  8  8  8  8  8  8  8  8  8  8  8  8  8  8  8  8
CENTRE ASSIGNMENTS    8  8  8  8  8  8  8  8  8  8  8  8
TYPE ASSIGNMENTS      1  1  1  1  1  1  1  1  1  1  1  1  1  1  1  1  1  1  1  1
TYPE ASSIGNMENTS      1  1  1  1  1  1  1  1  1  1  1  1  1  1  1  1  1  1  1  1
TYPE ASSIGNMENTS      1  1  2  2  2  2  2  2  2  3  3  3  3  3  3  3  4  4  4  4
TYPE ASSIGNMENTS      4  4  4  2  2  2  2  2  2  2  3  3  3  3  3  3  3  4  4  4
TYPE ASSIGNMENTS      4  4  4  4  2  3  4  2  3  4  2  3  4  5  6  7  8  9 10  5
TYPE ASSIGNMENTS      6  7  8  9 10  5  6  7  8  9 10 11 12 13 17 14 15 18 19 16
TYPE ASSIGNMENTS     20 11 12 13 17 14 15 18 19 16 20  1  1  1  1  1  1  1  1  1
TYPE ASSIGNMENTS      1  1  1  1  1  1  1  1  1  1  2  2  2  3  3  3  4  4  4  2
TYPE ASSIGNMENTS      3  4  2  3  4  2  3  4  5  6  7  8  9 10  5  6  7  8  9 10
TYPE ASSIGNMENTS      5  6  7  8  9 10 11 12 13 17 14 15 18 19 16 20 11 12 13 17
TYPE ASSIGNMENTS     14 15 18 19 16 20  1  1  1  1  1  1  1  1  1  1  1  1  1  1
TYPE ASSIGNMENTS      1  1  1  1  1  2  2  2  3  3  3  4  4  4  2  3  4  2  3  4
TYPE ASSIGNMENTS      2  3  4  5  6  7  8  9 10  5  6  7  8  9 10  5  6  7  8  9
TYPE ASSIGNMENTS     10 11 12 13 17 14 15 18 19 16 20 11 12 13 17 14 15 18 19 16
TYPE ASSIGNMENTS     20  1  1  1  1  1  1  1  1  1  1  1  1  1  1  1  1  1  1  1
TYPE ASSIGNMENTS      2  2  2  3  3  3  4  4  4  2  3  4  2  3  4  2  3  4  5  6
TYPE ASSIGNMENTS      7  8  9 10  5  6  7  8  9 10  5  6  7  8  9 10 11 12 13 17
TYPE ASSIGNMENTS     14 15 18 19 16 20 11 12 13 17 14 15 18 19 16 20  1  1  1  1
TYPE ASSIGNMENTS      1  1  2  3  4  2  3  4  2  3  4  5  6  7  8  9 10  5  6  7
TYPE ASSIGNMENTS      8  9 10  1  1  1  1  1  1  2  3  4  2  3  4  2  3  4  5  6
TYPE ASSIGNMENTS      7  8  9 10  5  6  7  8  9 10  1  1  1  1  1  1  2  3  4  2
TYPE ASSIGNMENTS      3  4  2  3  4  5  6  7  8  9 10  5  6  7  8  9 10  1  1  1
TYPE ASSIGNMENTS      1  1  1  1  1  1  1  1  1  1  1  1  1  1  1  1  2  2  2  3
TYPE ASSIGNMENTS      3  3  4  4  4  2  3  4  2  3  4  2  3  4  5  6  7  8  9 10
TYPE ASSIGNMENTS      5  6  7  8  9 10  5  6  7  8  9 10 11 12 13 17 14 15 18 19
TYPE ASSIGNMENTS     16 20 11 12 13 17 14 15 18 19 16 20
EXPONENTS  0.3124000D+06 0.4680000D+05 0.1065000D+05 0.3018000D+04 0.9868000D+03
EXPONENTS  0.3574000D+03 0.1396000D+03 0.5763000D+02 0.2460000D+02 0.1012000D+02
EXPONENTS  0.4283000D+01 0.1805000D+01 0.2782000D+00 0.3124000D+06 0.4680000D+05
EXPONENTS  0.1065000D+05 0.3018000D+04 0.9868000D+03 0.3574000D+03 0.1396000D+03
EXPONENTS  0.5763000D+02 0.2460000D+02 0.1012000D+02 0.4283000D+01 0.1805000D+01
EXPONENTS  0.2782000D+00 0.3124000D+06 0.4680000D+05 0.1065000D+05 0.3018000D+04
EXPONENTS  0.9868000D+03 0.3574000D+03 0.1396000D+03 0.5763000D+02 0.2460000D+02
EXPONENTS  0.1012000D+02 0.4283000D+01 0.1805000D+01 0.2782000D+00 0.6158000D+00
EXPONENTS  0.1055000D+00 0.4090000D-01 0.5049000D+03 0.1194000D+03 0.3796000D+02
EXPONENTS  0.1395000D+02 0.5457000D+01 0.2177000D+01 0.2877000D+00 0.5049000D+03
EXPONENTS  0.1194000D+03 0.3796000D+02 0.1395000D+02 0.5457000D+01 0.2177000D+01
EXPONENTS  0.2877000D+00 0.5049000D+03 0.1194000D+03 0.3796000D+02 0.1395000D+02
EXPONENTS  0.5457000D+01 0.2177000D+01 0.2877000D+00 0.5049000D+03 0.1194000D+03
EXPONENTS  0.3796000D+02 0.1395000D+02 0.5457000D+01 0.2177000D+01 0.2877000D+00
EXPONENTS  0.5049000D+03 0.1194000D+03 0.3796000D+02 0.1395000D+02 0.5457000D+01
EXPONENTS  0.2177000D+01 0.2877000D+00 0.5049000D+03 0.1194000D+03 0.3796000D+02
EXPONENTS  0.1395000D+02 0.5457000D+01 0.2177000D+01 0.2877000D+00 0.8010000D+00
EXPONENTS  0.8010000D+00 0.8010000D+00 0.9714000D-01 0.9714000D-01 0.9714000D-01
EXPONENTS  0.3070000D-01 0.3070000D-01 0.3070000D-01 0.2160000D+00 0.2160000D+00
EXPONENTS  0.2160000D+00 0.2160000D+00 0.2160000D+00 0.2160000D+00 0.6520000D+00
EXPONENTS  0.6520000D+00 0.6520000D+00 0.6520000D+00 0.6520000D+00 0.6520000D+00
EXPONENTS  0.7750000D-01 0.7750000D-01 0.7750000D-01 0.7750000D-01 0.7750000D-01
EXPONENTS  0.7750000D-01 0.4520000D+00 0.4520000D+00 0.4520000D+00 0.4520000D+00
EXPONENTS  0.4520000D+00 0.4520000D+00 0.4520000D+00 0.4520000D+00 0.4520000D+00
EXPONENTS  0.4520000D+00 0.1650000D+00 0.1650000D+00 0.1650000D+00 0.1650000D+00
EXPONENTS  0.1650000D+00 0.1650000D+00 0.1650000D+00 0.1650000D+00 0.1650000D+00
EXPONENTS  0.1650000D+00 0.1533000D+05 0.2299000D+04 0.5224000D+03 0.1473000D+03
EXPONENTS  0.4755000D+02 0.1676000D+02 0.6207000D+01 0.6882000D+00 0.1533000D+05
EXPONENTS  0.2299000D+04 0.5224000D+03 0.1473000D+03 0.4755000D+02 0.1676000D+02
EXPONENTS  0.6207000D+01 0.6882000D+00 0.1752000D+01 0.2384000D+00 0.7376000D-01
EXPONENTS  0.3446000D+02 0.7749000D+01 0.2280000D+01 0.3446000D+02 0.7749000D+01
EXPONENTS  0.2280000D+01 0.3446000D+02 0.7749000D+01 0.2280000D+01 0.7156000D+00
EXPONENTS  0.7156000D+00 0.7156000D+00 0.2140000D+00 0.2140000D+00 0.2140000D+00
EXPONENTS  0.5974000D-01 0.5974000D-01 0.5974000D-01 0.2314000D+01 0.2314000D+01
EXPONENTS  0.2314000D+01 0.2314000D+01 0.2314000D+01 0.2314000D+01 0.6450000D+00
EXPONENTS  0.6450000D+00 0.6450000D+00 0.6450000D+00 0.6450000D+00 0.6450000D+00
EXPONENTS  0.2140000D+00 0.2140000D+00 0.2140000D+00 0.2140000D+00 0.2140000D+00
EXPONENTS  0.2140000D+00 0.1428000D+01 0.1428000D+01 0.1428000D+01 0.1428000D+01
EXPONENTS  0.1428000D+01 0.1428000D+01 0.1428000D+01 0.1428000D+01 0.1428000D+01
EXPONENTS  0.1428000D+01 0.5000000D+00 0.5000000D+00 0.5000000D+00 0.5000000D+00
EXPONENTS  0.5000000D+00 0.5000000D+00 0.5000000D+00 0.5000000D+00 0.5000000D+00
EXPONENTS  0.5000000D+00 0.1533000D+05 0.2299000D+04 0.5224000D+03 0.1473000D+03
EXPONENTS  0.4755000D+02 0.1676000D+02 0.6207000D+01 0.6882000D+00 0.1533000D+05
EXPONENTS  0.2299000D+04 0.5224000D+03 0.1473000D+03 0.4755000D+02 0.1676000D+02
EXPONENTS  0.6207000D+01 0.6882000D+00 0.1752000D+01 0.2384000D+00 0.7376000D-01
EXPONENTS  0.3446000D+02 0.7749000D+01 0.2280000D+01 0.3446000D+02 0.7749000D+01
EXPONENTS  0.2280000D+01 0.3446000D+02 0.7749000D+01 0.2280000D+01 0.7156000D+00
EXPONENTS  0.7156000D+00 0.7156000D+00 0.2140000D+00 0.2140000D+00 0.2140000D+00
EXPONENTS  0.5974000D-01 0.5974000D-01 0.5974000D-01 0.2314000D+01 0.2314000D+01
EXPONENTS  0.2314000D+01 0.2314000D+01 0.2314000D+01 0.2314000D+01 0.6450000D+00
EXPONENTS  0.6450000D+00 0.6450000D+00 0.6450000D+00 0.6450000D+00 0.6450000D+00
EXPONENTS  0.2140000D+00 0.2140000D+00 0.2140000D+00 0.2140000D+00 0.2140000D+00
EXPONENTS  0.2140000D+00 0.1428000D+01 0.1428000D+01 0.1428000D+01 0.1428000D+01
EXPONENTS  0.1428000D+01 0.1428000D+01 0.1428000D+01 0.1428000D+01 0.1428000D+01
EXPONENTS  0.1428000D+01 0.5000000D+00 0.5000000D+00 0.5000000D+00 0.5000000D+00
EXPONENTS  0.5000000D+00 0.5000000D+00 0.5000000D+00 0.5000000D+00 0.5000000D+00
EXPONENTS  0.5000000D+00 0.1533000D+05 0.2299000D+04 0.5224000D+03 0.1473000D+03
EXPONENTS  0.4755000D+02 0.1676000D+02 0.6207000D+01 0.6882000D+00 0.1533000D+05
EXPONENTS  0.2299000D+04 0.5224000D+03 0.1473000D+03 0.4755000D+02 0.1676000D+02
EXPONENTS  0.6207000D+01 0.6882000D+00 0.1752000D+01 0.2384000D+00 0.7376000D-01
EXPONENTS  0.3446000D+02 0.7749000D+01 0.2280000D+01 0.3446000D+02 0.7749000D+01
EXPONENTS  0.2280000D+01 0.3446000D+02 0.7749000D+01 0.2280000D+01 0.7156000D+00
EXPONENTS  0.7156000D+00 0.7156000D+00 0.2140000D+00 0.2140000D+00 0.2140000D+00
EXPONENTS  0.5974000D-01 0.5974000D-01 0.5974000D-01 0.2314000D+01 0.2314000D+01
EXPONENTS  0.2314000D+01 0.2314000D+01 0.2314000D+01 0.2314000D+01 0.6450000D+00
EXPONENTS  0.6450000D+00 0.6450000D+00 0.6450000D+00 0.6450000D+00 0.6450000D+00
EXPONENTS  0.2140000D+00 0.2140000D+00 0.2140000D+00 0.2140000D+00 0.2140000D+00
EXPONENTS  0.2140000D+00 0.1428000D+01 0.1428000D+01 0.1428000D+01 0.1428000D+01
EXPONENTS  0.1428000D+01 0.1428000D+01 0.1428000D+01 0.1428000D+01 0.1428000D+01
EXPONENTS  0.1428000D+01 0.5000000D+00 0.5000000D+00 0.5000000D+00 0.5000000D+00
EXPONENTS  0.5000000D+00 0.5000000D+00 0.5000000D+00 0.5000000D+00 0.5000000D+00
EXPONENTS  0.5000000D+00 0.3387000D+02 0.5095000D+01 0.1159000D+01 0.3258000D+00
EXPONENTS  0.1027000D+00 0.2526000D-01 0.1407000D+01 0.1407000D+01 0.1407000D+01
EXPONENTS  0.3880000D+00 0.3880000D+00 0.3880000D+00 0.1020000D+00 0.1020000D+00
EXPONENTS  0.1020000D+00 0.1057000D+01 0.1057000D+01 0.1057000D+01 0.1057000D+01
EXPONENTS  0.1057000D+01 0.1057000D+01 0.2470000D+00 0.2470000D+00 0.2470000D+00
EXPONENTS  0.2470000D+00 0.2470000D+00 0.2470000D+00 0.3387000D+02 0.5095000D+01
EXPONENTS  0.1159000D+01 0.3258000D+00 0.1027000D+00 0.2526000D-01 0.1407000D+01
EXPONENTS  0.1407000D+01 0.1407000D+01 0.3880000D+00 0.3880000D+00 0.3880000D+00
EXPONENTS  0.1020000D+00 0.1020000D+00 0.1020000D+00 0.1057000D+01 0.1057000D+01
EXPONENTS  0.1057000D+01 0.1057000D+01 0.1057000D+01 0.1057000D+01 0.2470000D+00
EXPONENTS  0.2470000D+00 0.2470000D+00 0.2470000D+00 0.2470000D+00 0.2470000D+00
EXPONENTS  0.3387000D+02 0.5095000D+01 0.1159000D+01 0.3258000D+00 0.1027000D+00
EXPONENTS  0.2526000D-01 0.1407000D+01 0.1407000D+01 0.1407000D+01 0.3880000D+00
EXPONENTS  0.3880000D+00 0.3880000D+00 0.1020000D+00 0.1020000D+00 0.1020000D+00
EXPONENTS  0.1057000D+01 0.1057000D+01 0.1057000D+01 0.1057000D+01 0.1057000D+01
EXPONENTS  0.1057000D+01 0.2470000D+00 0.2470000D+00 0.2470000D+00 0.2470000D+00
EXPONENTS  0.2470000D+00 0.2470000D+00 0.1533000D+05 0.2299000D+04 0.5224000D+03
EXPONENTS  0.1473000D+03 0.4755000D+02 0.1676000D+02 0.6207000D+01 0.6882000D+00
EXPONENTS  0.1533000D+05 0.2299000D+04 0.5224000D+03 0.1473000D+03 0.4755000D+02
EXPONENTS  0.1676000D+02 0.6207000D+01 0.6882000D+00 0.1752000D+01 0.2384000D+00
EXPONENTS  0.7376000D-01 0.3446000D+02 0.7749000D+01 0.2280000D+01 0.3446000D+02
EXPONENTS  0.7749000D+01 0.2280000D+01 0.3446000D+02 0.7749000D+01 0.2280000D+01
EXPONENTS  0.7156000D+00 0.7156000D+00 0.7156000D+00 0.2140000D+00 0.2140000D+00
EXPONENTS  0.2140000D+00 0.5974000D-01 0.5974000D-01 0.5974000D-01 0.2314000D+01
EXPONENTS  0.2314000D+01 0.2314000D+01 0.2314000D+01 0.2314000D+01 0.2314000D+01
EXPONENTS  0.6450000D+00 0.6450000D+00 0.6450000D+00 0.6450000D+00 0.6450000D+00
EXPONENTS  0.6450000D+00 0.2140000D+00 0.2140000D+00 0.2140000D+00 0.2140000D+00
EXPONENTS  0.2140000D+00 0.2140000D+00 0.1428000D+01 0.1428000D+01 0.1428000D+01
EXPONENTS  0.1428000D+01 0.1428000D+01 0.1428000D+01 0.1428000D+01 0.1428000D+01
EXPONENTS  0.1428000D+01 0.1428000D+01 0.5000000D+00 0.5000000D+00 0.5000000D+00
EXPONENTS  0.5000000D+00 0.5000000D+00 0.5000000D+00 0.5000000D+00 0.5000000D+00
EXPONENTS  0.5000000D+00 0.5000000D+00
MO    1     MO 0.0        OCC NO =    2.0000000  ORB. ENERGY =  -78.306161
  0.54412839D+00  0.10180560D+01  0.17578821D+01  0.28429443D+01  0.42908468D+01
  0.58785928D+01  0.67934784D+01  0.57090701D+01  0.25076737D+01  0.28662297D+00
 -0.38630022D-02  0.24026794D-02  0.11818775D-03 -0.14068876D-02 -0.26314358D-02
 -0.45561890D-02 -0.73981858D-02 -0.11361885D-01 -0.16159208D-01 -0.20559997D-01
 -0.21307395D-01 -0.14218936D-01  0.14003839D-02  0.10696651D-01  0.54922926D-02
 -0.24091728D-04  0.72412156D-03  0.13531812D-02  0.23464642D-02  0.38050426D-02
  0.58650665D-02  0.83456692D-02  0.10746697D-01  0.11297486D-01  0.79198843D-02
 -0.91956944D-03 -0.74444990D-02 -0.70062851D-02  0.34166796D-02 -0.20045370D-02
 -0.85882490D-03  0.52615761D-04  0.19007511D-03  0.24865452D-03  0.27203676D-03
  0.22408286D-03  0.11981199D-03  0.33105217D-04 -0.27134859D-07  0.78269795D-03
  0.10239183D-02  0.11202025D-02  0.92273626D-03  0.49336602D-03  0.13632182D-03
 -0.11173687D-06  0.16215663D-03  0.21213182D-03  0.23207964D-03  0.19116928D-03
  0.10221385D-03  0.28242679D-04 -0.23149255D-07 -0.68871439D-04 -0.91213762D-04
 -0.10076670D-03 -0.86306989D-04 -0.47083729D-04 -0.14472304D-04  0.63007343D-05
 -0.27484532D-03 -0.36400685D-03 -0.40212978D-03 -0.34442539D-03 -0.18789708D-03
 -0.57754636D-04  0.25144346D-04 -0.54703794D-04 -0.72450045D-04 -0.80037837D-04
 -0.68552651D-04 -0.37398066D-04 -0.11495185D-04  0.50046010D-05 -0.25281089D-04
 -0.10501734D-03 -0.22259597D-04  0.57107952D-05  0.27213380D-04  0.52677571D-05
 -0.32178859D-07 -0.82673045D-07  0.11083669D-07 -0.31015906D-04  0.63496585D-04
 -0.32480679D-04  0.47801654D-04  0.95348480D-05  0.42616220D-04 -0.41259010D-04
  0.84241287D-04 -0.42982277D-04  0.62668287D-04  0.13241681D-04  0.56153909D-04
 -0.13768879D-05  0.27273851D-05 -0.13504972D-05  0.21292748D-05  0.52296438D-06
  0.18576845D-05  0.84883091D-04 -0.79188567D-04  0.28810775D-04 -0.12759629D-03
  0.75056115D-04  0.46055884D-04 -0.12705298D-03  0.16250958D-03 -0.13248821D-03
 -0.15457726D-04 -0.29067050D-04  0.24658933D-04 -0.23965212D-04  0.43998549D-04
 -0.31539294D-04  0.28865085D-04  0.43202600D-04 -0.42437505D-04  0.43030550D-04
 -0.17568472D-04  0.32697254D-04  0.60943475D-04  0.10333994D-03  0.15640981D-03
  0.19515378D-03  0.16761107D-03  0.64349149D-04 -0.28783769D-06 -0.23927867D-04
 -0.44877308D-04 -0.76505971D-04 -0.11956394D-03 -0.15987977D-03 -0.17071432D-03
 -0.10437139D-03  0.68857903D-04  0.35307762D-04  0.30365717D-03 -0.97054195D-04
 -0.15548915D-03 -0.15077217D-03 -0.10171001D-03 -0.17912421D-04 -0.17369023D-04
 -0.11717041D-04 -0.17546513D-04 -0.17014215D-04 -0.11477689D-04  0.10648068D-03
 -0.18517155D-04 -0.11389856D-04  0.21892166D-03 -0.28726625D-04 -0.13315861D-03
  0.14067349D-04  0.41777439D-05  0.29450991D-06  0.21270899D-03 -0.91841702D-04
 -0.12086729D-03  0.23921676D-03  0.91091922D-04  0.63199123D-04 -0.14448982D-03
  0.59703813D-04  0.84786003D-04 -0.18214235D-03 -0.10482613D-03  0.13213184D-04
 -0.10934971D-03  0.29643136D-04  0.79706571D-04 -0.40712131D-04  0.85770204D-06
  0.28241874D-04 -0.11782586D-03  0.46488605D-04  0.21044224D-04  0.72480306D-04
 -0.10244006D-03 -0.98026648D-04  0.28099728D-03 -0.37025757D-04  0.34893975D-04
  0.15896737D-04  0.71216133D-04 -0.24755135D-04 -0.90462486D-05 -0.69390323D-04
  0.98475782D-04  0.50919729D-04 -0.14425808D-03 -0.24210377D-04 -0.23780983D-04
  0.37902008D-04  0.32464208D-04  0.60509107D-04  0.10260340D-03  0.15529502D-03
  0.19376284D-03  0.16641644D-03  0.63890508D-04 -0.28578616D-06 -0.23762209D-04
 -0.44566611D-04 -0.75976302D-04 -0.11873617D-03 -0.15877289D-03 -0.16953242D-03
 -0.10364880D-03  0.68381183D-04  0.34794266D-04  0.31136440D-03 -0.95594897D-04
  0.48941273D-04  0.47456572D-04  0.32013923D-04 -0.93932450D-04 -0.91082880D-04
 -0.61443973D-04  0.11644680D-03  0.11291422D-03  0.76171268D-04 -0.60501578D-04
  0.35267223D-04 -0.84743197D-04 -0.22280622D-03  0.70737634D-04 -0.12410790D-03
 -0.51109552D-05  0.10560344D-04 -0.88013873D-05 -0.10195295D-03  0.96379350D-04
  0.55736005D-05 -0.11654220D-03  0.11872303D-03 -0.37372247D-03  0.97699919D-04
 -0.74187700D-04 -0.23512220D-04  0.11179416D-03 -0.33835489D-04  0.25316906D-03
  0.51638887D-04 -0.20114410D-04 -0.31524477D-04  0.10286579D-03 -0.10437418D-03
  0.10780193D-03 -0.95463876D-04  0.22168981D-04 -0.73357951D-05  0.10381848D-03
  0.63258286D-04 -0.13245955D-03  0.18257315D-03 -0.12976523D-03  0.15446693D-03
 -0.21229244D-03  0.42680782D-04 -0.11226104D-04  0.21476840D-04 -0.58574911D-04
 -0.67378178D-04  0.47821841D-04 -0.69467434D-04  0.10105649D-03 -0.11225236D-03
  0.15384546D-03  0.32624650D-04  0.60808150D-04  0.10311047D-03  0.15606251D-03
  0.19472044D-03  0.16723889D-03  0.64206262D-04 -0.28719855D-06 -0.23871398D-04
 -0.44771398D-04 -0.76325419D-04 -0.11928177D-03 -0.15950246D-03 -0.17031144D-03
 -0.10412507D-03  0.68695400D-04  0.34908831D-04  0.30804020D-03 -0.96881690D-04
  0.69917656D-04  0.67796607D-04  0.45735190D-04 -0.46519144D-04 -0.45107921D-04
 -0.30429537D-04 -0.13374010D-03 -0.12968291D-03 -0.87483322D-04 -0.45370545D-04
 -0.66890840D-05  0.99894858D-04 -0.63318582D-05 -0.61927079D-04  0.25508005D-03
 -0.41489045D-05  0.57916850D-05  0.12838713D-04 -0.98205162D-04 -0.28747722D-04
  0.12695288D-03 -0.14121735D-03 -0.21526884D-03  0.29402648D-03  0.36377729D-04
  0.36172616D-04 -0.72550346D-04  0.87867719D-04  0.14481546D-03 -0.25291069D-03
  0.31381128D-04  0.45591777D-04 -0.76972906D-04 -0.19894702D-04  0.11359750D-03
 -0.99242300D-04 -0.80854130D-04  0.52670229D-04 -0.12042401D-04 -0.68618677D-06
  0.77441854D-04 -0.26909006D-04  0.24324858D-03 -0.23545254D-03  0.63036209D-04
  0.90208894D-04  0.43243201D-04 -0.37936750D-04  0.14080102D-04  0.11917289D-04
 -0.19737980D-04 -0.30434913D-04 -0.14164689D-03  0.13354823D-03 -0.11805392D-04
 -0.11857126D-03  0.64363978D-05  0.11608309D-04  0.17116444D-04 -0.22644842D-03
  0.14923090D-03 -0.28403752D-05  0.97615519D-04  0.34243341D-04 -0.65646435D-04
  0.34934965D-04 -0.79396452D-04 -0.41749234D-07 -0.33624995D-04  0.58617579D-06
  0.95950866D-05 -0.17364559D-04 -0.15512465D-05  0.18915806D-04  0.41892205D-04
 -0.23988555D-05 -0.90133696D-04  0.18305107D-04 -0.49636190D-05 -0.13341488D-04
  0.36354557D-04  0.19081450D-04  0.13658738D-04  0.67703034D-05  0.12210521D-04
  0.18004406D-04 -0.23974790D-03  0.14599540D-03 -0.28728036D-05 -0.96833782D-04
  0.71835924D-04 -0.29281487D-04 -0.31142881D-04 -0.51553385D-04 -0.66390553D-04
  0.22610712D-04 -0.15343188D-04  0.21279896D-04 -0.38836635D-05  0.66609739D-05
 -0.27773104D-05 -0.74117938D-04 -0.72822630D-04  0.24386129D-04 -0.15002145D-04
  0.17914157D-04 -0.29120127D-05 -0.33833841D-05  0.55279430D-05 -0.41551992D-04
  0.66127840D-05  0.11926428D-04  0.17585512D-04 -0.23448699D-03  0.14830053D-03
 -0.28980583D-05  0.25300090D-04  0.10942030D-04  0.12005649D-03 -0.54075235D-04
 -0.65082988D-04  0.26750263D-04  0.72132212D-05  0.17018312D-06 -0.34163932D-04
  0.32351435D-04 -0.29416208D-04 -0.29352267D-05  0.13385101D-04  0.69376525D-04
  0.51232514D-04 -0.12090808D-04  0.51116916D-05  0.69791165D-05 -0.19066595D-04
 -0.21791822D-04  0.40473653D-04  0.55878132D-05  0.10414965D-04  0.17660330D-04
  0.26729731D-04  0.33350901D-04  0.28643976D-04  0.10996979D-04 -0.49190163D-07
 -0.66533181D-05 -0.12478463D-04 -0.21273044D-04 -0.33245627D-04 -0.44455738D-04
 -0.47468364D-04 -0.29021227D-04  0.19146443D-04  0.82729813D-04  0.77336763D-04
 -0.70249097D-04  0.46472276D-04  0.45062476D-04  0.30398880D-04  0.19468692D-03
  0.18878083D-03  0.12735043D-03  0.40900731D-04  0.39659950D-04  0.26754368D-04
 -0.43045951D-04 -0.18009992D-03 -0.37874261D-04 -0.83278431D-04 -0.35733020D-03
 -0.77028218D-04 -0.23391639D-05 -0.10096272D-04 -0.21455700D-05 -0.13910740D-03
  0.28271013D-03 -0.14360273D-03  0.21107007D-03  0.45248926D-04  0.18955625D-03
  0.10876829D-03 -0.22125481D-03  0.11248652D-03 -0.16550032D-03 -0.35303177D-04
 -0.14843528D-03  0.46176267D-04 -0.93863706D-04  0.47687439D-04 -0.70146926D-04
 -0.15125953D-04 -0.63413774D-04 -0.82204385D-04  0.75581423D-04 -0.55548524D-04
  0.13094399D-03 -0.89590068D-04  0.38819273D-04  0.11566917D-03 -0.13715420D-03
  0.12782630D-03 -0.21723334D-04  0.39916199D-04 -0.62384866D-04  0.32780481D-04
 -0.10456061D-03  0.86173539D-04 -0.22463246D-05 -0.15187992D-04  0.10098106D-03
 -0.96095119D-04 -0.29693098D-04
MO    2     MO 0.0        OCC NO =    2.0000000  ORB. ENERGY =  -19.721746
  0.37532474D-04  0.70222691D-04  0.12125385D-03  0.19609845D-03  0.29597076D-03
  0.40548910D-03  0.46859538D-03  0.39379589D-03  0.17297241D-03  0.19770461D-04
 -0.26645923D-06  0.16573019D-06  0.81522649D-08 -0.68475402D-04 -0.12807607D-03
 -0.22175679D-03 -0.36008119D-03 -0.55300057D-03 -0.78649375D-03 -0.10006870D-02
 -0.10370640D-02 -0.69205768D-03  0.68158857D-04  0.52062261D-03  0.26731841D-03
 -0.11725818D-05  0.39146934D-04  0.73154699D-04  0.12685284D-03  0.20570545D-03
  0.31707296D-03  0.45117751D-03  0.58098015D-03  0.61075650D-03  0.42815903D-03
 -0.49713095D-04 -0.40245910D-03 -0.37876869D-03  0.18471005D-03 -0.17506060D-03
  0.19410631D-03  0.50366727D-04 -0.31050476D-02 -0.40619949D-02 -0.44439648D-02
 -0.36605948D-02 -0.19572365D-02 -0.54080344D-03  0.44327228D-06  0.56821803D-02
  0.74333763D-02  0.81323742D-02  0.66988214D-02  0.35817070D-02  0.98966039D-03
 -0.81118017D-06 -0.10253049D-01 -0.13412944D-01 -0.14674231D-01 -0.12087498D-01
 -0.64629093D-02 -0.17857645D-02  0.14637110D-05  0.28288886D-02  0.37465976D-02
  0.41389839D-02  0.35450524D-02  0.19339602D-02  0.59444866D-03 -0.25880213D-03
 -0.52611686D-02 -0.69679244D-02 -0.76976846D-02 -0.65930904D-02 -0.35967803D-02
 -0.11055560D-02  0.48132035D-03  0.95142252D-02  0.12600699D-01  0.13920387D-01
  0.11922854D-01  0.65043682D-02  0.19992723D-02 -0.87041314D-03  0.20389818D-03
 -0.20381024D-03  0.37018894D-03 -0.19655632D-03  0.56848337D-04 -0.11047619D-03
 -0.14621184D-05  0.14850824D-05 -0.11865793D-05 -0.14730629D-03  0.12965036D-03
  0.17655925D-04 -0.26881385D-03  0.32972167D-03 -0.62529713D-03 -0.13722445D-03
  0.14338870D-03 -0.61642492D-05 -0.14098078D-03  0.21491349D-03 -0.62527795D-03
 -0.97294183D-05  0.53167313D-05  0.44126870D-05 -0.17755130D-04  0.17394147D-04
 -0.81311926D-05  0.16561879D-04  0.38257841D-05  0.25831964D-04 -0.14324509D-03
 -0.19065003D-03  0.93483506D-04  0.93559454D-04  0.17917267D-03 -0.17097940D-03
  0.52785091D-03 -0.31287100D-05 -0.88177624D-05 -0.58902277D-05 -0.11422560D-04
 -0.17702011D-04 -0.10515209D-05  0.20808690D-04  0.44155298D-04  0.18722204D-04
  0.11753661D-03 -0.95053666D-01 -0.17716780D+00 -0.30041789D+00 -0.45469647D+00
 -0.56732844D+00 -0.48725947D+00 -0.18706838D+00  0.83676836D-03 -0.47010168D-04
 -0.88168736D-04 -0.15030837D-03 -0.23490272D-03 -0.31410969D-03 -0.33539592D-03
 -0.20505449D-03  0.13528250D-03 -0.99156583D-02  0.22048457D-03  0.17282271D-03
  0.67962397D-03  0.65900664D-03  0.44456199D-03  0.94213481D-03  0.91355385D-03
  0.61627803D-03  0.93025307D-03  0.90203256D-03  0.60850584D-03 -0.31454861D-03
 -0.28372248D-04 -0.44619323D-04 -0.15251002D-03  0.74019093D-04 -0.15085024D-03
 -0.19132997D-04  0.28248825D-05 -0.15047314D-04 -0.24222874D-03  0.16323237D-03
  0.78996369D-04  0.36867997D-03  0.23683247D-03 -0.51272065D-03  0.14245363D-03
 -0.94223501D-04 -0.48230128D-04 -0.62713597D-04  0.86888902D-04  0.71208594D-04
  0.19370560D-05 -0.80167045D-05  0.60796485D-05 -0.19704715D-04  0.33407455D-04
 -0.16299078D-04  0.32157713D-04 -0.80042701D-04  0.38184840D-04 -0.68835331D-05
  0.76827885D-04 -0.18465106D-03 -0.89589607D-04  0.16330022D-03  0.70096544D-04
 -0.60756402D-04 -0.28519771D-04  0.17241473D-04 -0.28352871D-05  0.31023126D-04
  0.81490932D-05  0.34144949D-05  0.54536186D-04 -0.59873512D-04  0.50913664D-05
 -0.15691762D-05  0.46250106D+00  0.86204246D+00  0.14617384D+01  0.22124091D+01
  0.27604407D+01  0.23708504D+01  0.91021556D+00 -0.40714500D-02  0.16693254D-03
  0.31308611D-03  0.53374318D-03  0.83413669D-03  0.11153997D-02  0.11909868D-02
  0.72814599D-03 -0.48038650D-03  0.48132752D-01 -0.60818341D-03 -0.35030874D-03
 -0.33788054D-02 -0.32763047D-02 -0.22101758D-02 -0.59376096D-02 -0.57574840D-02
 -0.38839647D-02  0.17289177D-02  0.16764686D-02  0.11309358D-02 -0.35814201D-03
  0.75447311D-03 -0.78017657D-03 -0.76040581D-05  0.49673488D-03 -0.39835276D-03
 -0.16890147D-04  0.23552272D-04 -0.36793769D-04  0.78788332D-03 -0.57383929D-03
 -0.21404403D-03  0.61305152D-03  0.29007252D-02 -0.10248119D-02  0.72323219D-04
  0.20966108D-04 -0.93289326D-04  0.27956325D-03 -0.62689870D-03  0.75355197D-03
  0.18291964D-04 -0.15528099D-04 -0.27638650D-05  0.42438781D-04 -0.62139476D-04
  0.12606779D-03 -0.24071011D-03  0.21094270D-03  0.21100367D-03  0.52455501D-03
 -0.63452961D-03 -0.93250460D-03  0.19757533D-03  0.17015057D-05  0.29949360D-03
 -0.79538339D-03  0.11099705D-03 -0.72861442D-04 -0.39182925D-04 -0.23978887D-03
  0.83366666D-04  0.33498425D-03 -0.93202272D-04  0.13521766D-03 -0.21743547D-03
  0.36477792D-03 -0.15647142D+00 -0.29164260D+00 -0.49452922D+00 -0.74849300D+00
 -0.93390073D+00 -0.80209618D+00 -0.30794032D+00  0.13774359D-02 -0.52340942D-04
 -0.98166734D-04 -0.16735276D-03 -0.26153979D-03 -0.34972853D-03 -0.37342854D-03
 -0.22830689D-03  0.15062302D-03 -0.16280943D-01  0.15737135D-03  0.57883961D-04
 -0.68451288D-03 -0.66374723D-03 -0.44775996D-03  0.22168365D-02  0.21495857D-02
  0.14500978D-02  0.42591398D-03  0.41299329D-03  0.27860284D-03  0.14812935D-03
 -0.68140475D-04 -0.40334474D-03 -0.83160437D-05 -0.73296437D-04 -0.27884061D-03
 -0.38843005D-05  0.26095427D-05 -0.25375036D-04  0.47309332D-03 -0.36154334D-04
 -0.43693898D-03  0.18343171D-04  0.36591272D-03  0.52355298D-03 -0.96177716D-04
 -0.83288660D-04  0.17946638D-03 -0.32028472D-04 -0.12003190D-03  0.15890299D-03
 -0.33691305D-04 -0.29726835D-04  0.63418140D-04 -0.79706605D-05 -0.28220148D-04
  0.59943910D-04  0.10445553D-04 -0.10026926D-03 -0.38491342D-04  0.52853946D-04
 -0.26206987D-03  0.41647631D-03 -0.84190606D-04  0.56287765D-03 -0.30100229D-03
 -0.38749451D-04 -0.17494616D-04  0.58334241D-04  0.76549585D-05 -0.13621700D-04
  0.76195803D-04 -0.76556871D-04  0.66105548D-04 -0.25119853D-03  0.53591996D-04
  0.28603588D-04 -0.33434659D-04 -0.60300785D-04 -0.88913472D-04  0.47561309D-04
  0.75267488D-04  0.41699905D-05  0.24209259D-04  0.10216163D-04  0.41319381D-04
 -0.49095189D-04  0.88393509D-05  0.65640410D-04 -0.22181229D-04  0.79535181D-05
  0.15647472D-04 -0.89879794D-05 -0.44564645D-05  0.13444444D-04 -0.19788196D-03
 -0.27363225D-03  0.27635599D-03  0.10510342D-04 -0.12721515D-04  0.22111731D-05
 -0.25326416D-05  0.10581654D-05 -0.21186269D-05  0.16979334D-03  0.30622929D-03
  0.45153491D-03  0.35396649D-04 -0.23949285D-03 -0.17975181D-04 -0.12744012D-03
  0.22015313D-04 -0.44427763D-04 -0.22519636D-03  0.26795029D-04 -0.13066374D-03
 -0.51595184D-04  0.68674041D-05 -0.37610753D-04 -0.79591155D-03  0.50129569D-03
  0.29461586D-03 -0.79660245D-03 -0.14016681D-02 -0.39019262D-03 -0.28172162D-05
  0.14402007D-04 -0.11584791D-04  0.11687797D-04 -0.12941398D-04  0.27860377D-04
 -0.64363366D-04 -0.11608198D-03 -0.17116281D-03  0.16322997D-03  0.77691659D-04
  0.71638903D-05 -0.22131727D-04  0.11668977D-04 -0.12720481D-03  0.15664045D-04
  0.58087735D-04 -0.17231352D-03  0.48943992D-05  0.11514897D-04 -0.30719599D-05
 -0.23694865D-03  0.68584977D-04  0.16836367D-03  0.12893999D-04 -0.57682133D-04
 -0.72833883D-03  0.93928050D-05 -0.85994902D-05 -0.79331487D-06  0.84406931D-06
 -0.12663956D-07 -0.25351526D-04 -0.21404974D-04 -0.39896117D-04 -0.67650596D-04
 -0.10239233D-03 -0.12775573D-03 -0.10972513D-03 -0.42125612D-04  0.18843045D-06
  0.48976406D-05  0.91856462D-05  0.15659513D-04  0.24472771D-04  0.32724758D-04
  0.34942412D-04  0.21363105D-04 -0.14094079D-04 -0.53872626D-05  0.48912081D-04
 -0.20677988D-04 -0.15032575D-04 -0.14576541D-04 -0.98332485D-05 -0.19232149D-04
 -0.18648716D-04 -0.12580313D-04 -0.57658338D-05 -0.55909192D-05 -0.37716011D-05
  0.16033505D-04 -0.18402294D-04  0.44274118D-04 -0.52177963D-04  0.13690529D-03
 -0.33656195D-03 -0.77550774D-05  0.30877786D-05 -0.68270187D-05  0.75146663D-05
 -0.74897072D-04  0.67382406D-04 -0.22712098D-04  0.42062711D-04  0.23915611D-03
  0.21333936D-06  0.28849744D-04 -0.29063084D-04  0.14616341D-04 -0.16157135D-04
 -0.13650291D-03 -0.21501366D-04  0.45590259D-04 -0.24088893D-04 -0.12636239D-04
 -0.33712545D-05 -0.12119518D-03  0.94631104D-05  0.92564608D-05  0.30466124D-04
 -0.20154082D-04 -0.17744204D-04  0.35098555D-04 -0.82352496D-05 -0.10025178D-04
 -0.12649693D-03  0.19972619D-04 -0.98304546D-05  0.10453103D-04  0.86609426D-05
  0.15097132D-04 -0.12088609D-04  0.16983951D-04  0.14394232D-04 -0.19270700D-04
 -0.42966779D-04  0.23590304D-04