 Molden2AIM, Version 4.0.0 (06/02/2016)           Time: Tue Jul  3 03:35:51 2018
GAUSSIAN             11 MOL ORBITALS    252 PRIMITIVES        4 NUCLEI
  C    1    (CENTRE  1)   0.00000000  0.00000000 -2.43893156  CHARGE =  6.0
  C    2    (CENTRE  2)   0.00000000  0.00000000 -0.16487482  CHARGE =  6.0
  H    3    (CENTRE  3)   0.00000000  0.00000000 -4.45953067  CHARGE =  1.0
  F    4    (CENTRE  4)   0.00000000  0.00000000  2.25075641  CHARGE =  9.0
CENTRE ASSIGNMENTS    1  1  1  1  1  1  1  1  1  1  1  1  1  1  1  1  1  1  1  1
CENTRE ASSIGNMENTS    1  1  1  1  1  1  1  1  1  1  1  1  1  1  1  1  1  1  1  1
CENTRE ASSIGNMENTS    1  1  1  1  1  1  1  1  1  1  1  1  1  1  1  1  1  1  1  1
CENTRE ASSIGNMENTS    1  1  1  1  1  1  1  1  1  1  1  1  1  1  1  2  2  2  2  2
CENTRE ASSIGNMENTS    2  2  2  2  2  2  2  2  2  2  2  2  2  2  2  2  2  2  2  2
CENTRE ASSIGNMENTS    2  2  2  2  2  2  2  2  2  2  2  2  2  2  2  2  2  2  2  2
CENTRE ASSIGNMENTS    2  2  2  2  2  2  2  2  2  2  2  2  2  2  2  2  2  2  2  2
CENTRE ASSIGNMENTS    2  2  2  2  2  2  2  2  2  2  3  3  3  3  3  3  3  3  3  3
CENTRE ASSIGNMENTS    3  3  3  3  3  3  3  3  3  3  3  3  3  3  3  3  3  4  4  4
CENTRE ASSIGNMENTS    4  4  4  4  4  4  4  4  4  4  4  4  4  4  4  4  4  4  4  4
CENTRE ASSIGNMENTS    4  4  4  4  4  4  4  4  4  4  4  4  4  4  4  4  4  4  4  4
CENTRE ASSIGNMENTS    4  4  4  4  4  4  4  4  4  4  4  4  4  4  4  4  4  4  4  4
CENTRE ASSIGNMENTS    4  4  4  4  4  4  4  4  4  4  4  4
TYPE ASSIGNMENTS      1  1  1  1  1  1  1  1  1  1  1  1  1  1  1  1  1  1  1  2
TYPE ASSIGNMENTS      2  2  3  3  3  4  4  4  2  3  4  2  3  4  2  3  4  5  6  7
TYPE ASSIGNMENTS      8  9 10  5  6  7  8  9 10  5  6  7  8  9 10 11 12 13 17 14
TYPE ASSIGNMENTS     15 18 19 16 20 11 12 13 17 14 15 18 19 16 20  1  1  1  1  1
TYPE ASSIGNMENTS      1  1  1  1  1  1  1  1  1  1  1  1  1  1  2  2  2  3  3  3
TYPE ASSIGNMENTS      4  4  4  2  3  4  2  3  4  2  3  4  5  6  7  8  9 10  5  6
TYPE ASSIGNMENTS      7  8  9 10  5  6  7  8  9 10 11 12 13 17 14 15 18 19 16 20
TYPE ASSIGNMENTS     11 12 13 17 14 15 18 19 16 20  1  1  1  1  1  1  2  3  4  2
TYPE ASSIGNMENTS      3  4  2  3  4  5  6  7  8  9 10  5  6  7  8  9 10  1  1  1
TYPE ASSIGNMENTS      1  1  1  1  1  1  1  1  1  1  1  1  1  1  1  1  2  2  2  3
TYPE ASSIGNMENTS      3  3  4  4  4  2  3  4  2  3  4  2  3  4  5  6  7  8  9 10
TYPE ASSIGNMENTS      5  6  7  8  9 10  5  6  7  8  9 10 11 12 13 17 14 15 18 19
TYPE ASSIGNMENTS     16 20 11 12 13 17 14 15 18 19 16 20
EXPONENTS  0.8236000D+04 0.1235000D+04 0.2808000D+03 0.7927000D+02 0.2559000D+02
EXPONENTS  0.8997000D+01 0.3319000D+01 0.3643000D+00 0.8236000D+04 0.1235000D+04
EXPONENTS  0.2808000D+03 0.7927000D+02 0.2559000D+02 0.8997000D+01 0.3319000D+01
EXPONENTS  0.3643000D+00 0.9059000D+00 0.1285000D+00 0.4402000D-01 0.1871000D+02
EXPONENTS  0.4133000D+01 0.1200000D+01 0.1871000D+02 0.4133000D+01 0.1200000D+01
EXPONENTS  0.1871000D+02 0.4133000D+01 0.1200000D+01 0.3827000D+00 0.3827000D+00
EXPONENTS  0.3827000D+00 0.1209000D+00 0.1209000D+00 0.1209000D+00 0.3569000D-01
EXPONENTS  0.3569000D-01 0.3569000D-01 0.1097000D+01 0.1097000D+01 0.1097000D+01
EXPONENTS  0.1097000D+01 0.1097000D+01 0.1097000D+01 0.3180000D+00 0.3180000D+00
EXPONENTS  0.3180000D+00 0.3180000D+00 0.3180000D+00 0.3180000D+00 0.1000000D+00
EXPONENTS  0.1000000D+00 0.1000000D+00 0.1000000D+00 0.1000000D+00 0.1000000D+00
EXPONENTS  0.7610000D+00 0.7610000D+00 0.7610000D+00 0.7610000D+00 0.7610000D+00
EXPONENTS  0.7610000D+00 0.7610000D+00 0.7610000D+00 0.7610000D+00 0.7610000D+00
EXPONENTS  0.2680000D+00 0.2680000D+00 0.2680000D+00 0.2680000D+00 0.2680000D+00
EXPONENTS  0.2680000D+00 0.2680000D+00 0.2680000D+00 0.2680000D+00 0.2680000D+00
EXPONENTS  0.8236000D+04 0.1235000D+04 0.2808000D+03 0.7927000D+02 0.2559000D+02
EXPONENTS  0.8997000D+01 0.3319000D+01 0.3643000D+00 0.8236000D+04 0.1235000D+04
EXPONENTS  0.2808000D+03 0.7927000D+02 0.2559000D+02 0.8997000D+01 0.3319000D+01
EXPONENTS  0.3643000D+00 0.9059000D+00 0.1285000D+00 0.4402000D-01 0.1871000D+02
EXPONENTS  0.4133000D+01 0.1200000D+01 0.1871000D+02 0.4133000D+01 0.1200000D+01
EXPONENTS  0.1871000D+02 0.4133000D+01 0.1200000D+01 0.3827000D+00 0.3827000D+00
EXPONENTS  0.3827000D+00 0.1209000D+00 0.1209000D+00 0.1209000D+00 0.3569000D-01
EXPONENTS  0.3569000D-01 0.3569000D-01 0.1097000D+01 0.1097000D+01 0.1097000D+01
EXPONENTS  0.1097000D+01 0.1097000D+01 0.1097000D+01 0.3180000D+00 0.3180000D+00
EXPONENTS  0.3180000D+00 0.3180000D+00 0.3180000D+00 0.3180000D+00 0.1000000D+00
EXPONENTS  0.1000000D+00 0.1000000D+00 0.1000000D+00 0.1000000D+00 0.1000000D+00
EXPONENTS  0.7610000D+00 0.7610000D+00 0.7610000D+00 0.7610000D+00 0.7610000D+00
EXPONENTS  0.7610000D+00 0.7610000D+00 0.7610000D+00 0.7610000D+00 0.7610000D+00
EXPONENTS  0.2680000D+00 0.2680000D+00 0.2680000D+00 0.2680000D+00 0.2680000D+00
EXPONENTS  0.2680000D+00 0.2680000D+00 0.2680000D+00 0.2680000D+00 0.2680000D+00
EXPONENTS  0.3387000D+02 0.5095000D+01 0.1159000D+01 0.3258000D+00 0.1027000D+00
EXPONENTS  0.2526000D-01 0.1407000D+01 0.1407000D+01 0.1407000D+01 0.3880000D+00
EXPONENTS  0.3880000D+00 0.3880000D+00 0.1020000D+00 0.1020000D+00 0.1020000D+00
EXPONENTS  0.1057000D+01 0.1057000D+01 0.1057000D+01 0.1057000D+01 0.1057000D+01
EXPONENTS  0.1057000D+01 0.2470000D+00 0.2470000D+00 0.2470000D+00 0.2470000D+00
EXPONENTS  0.2470000D+00 0.2470000D+00 0.1950000D+05 0.2923000D+04 0.6645000D+03
EXPONENTS  0.1875000D+03 0.6062000D+02 0.2142000D+02 0.7950000D+01 0.8815000D+00
EXPONENTS  0.1950000D+05 0.2923000D+04 0.6645000D+03 0.1875000D+03 0.6062000D+02
EXPONENTS  0.2142000D+02 0.7950000D+01 0.8815000D+00 0.2257000D+01 0.3041000D+00
EXPONENTS  0.9158000D-01 0.4388000D+02 0.9926000D+01 0.2930000D+01 0.4388000D+02
EXPONENTS  0.9926000D+01 0.2930000D+01 0.4388000D+02 0.9926000D+01 0.2930000D+01
EXPONENTS  0.9132000D+00 0.9132000D+00 0.9132000D+00 0.2672000D+00 0.2672000D+00
EXPONENTS  0.2672000D+00 0.7361000D-01 0.7361000D-01 0.7361000D-01 0.3107000D+01
EXPONENTS  0.3107000D+01 0.3107000D+01 0.3107000D+01 0.3107000D+01 0.3107000D+01
EXPONENTS  0.8550000D+00 0.8550000D+00 0.8550000D+00 0.8550000D+00 0.8550000D+00
EXPONENTS  0.8550000D+00 0.2920000D+00 0.2920000D+00 0.2920000D+00 0.2920000D+00
EXPONENTS  0.2920000D+00 0.2920000D+00 0.1917000D+01 0.1917000D+01 0.1917000D+01
EXPONENTS  0.1917000D+01 0.1917000D+01 0.1917000D+01 0.1917000D+01 0.1917000D+01
EXPONENTS  0.1917000D+01 0.1917000D+01 0.7240000D+00 0.7240000D+00 0.7240000D+00
EXPONENTS  0.7240000D+00 0.7240000D+00 0.7240000D+00 0.7240000D+00 0.7240000D+00
EXPONENTS  0.7240000D+00 0.7240000D+00
MO    1     MO 0.0        OCC NO =    2.0000000  ORB. ENERGY =  -25.376834
  0.16027155D-03  0.29878262D-03  0.50499525D-03  0.75917328D-03  0.93273209D-03
  0.78784136D-03  0.29714478D-03 -0.14705861D-05 -0.11938187D-03 -0.22352053D-03
 -0.38056283D-03 -0.58867284D-03 -0.77526142D-03 -0.80554627D-03 -0.51188849D-03
  0.34305576D-03  0.25770409D-03 -0.60190080D-03 -0.36868766D-03  0.96929118D-16
  0.90877209D-16  0.64709987D-16  0.35461008D-15  0.33246949D-15  0.23673808D-15
  0.27673368D-03  0.25945541D-03  0.18474771D-03 -0.61601386D-16  0.96366328D-17
  0.13765044D-02 -0.27313645D-17  0.18395368D-17 -0.13367739D-03  0.44343674D-19
  0.22614267D-19 -0.46343048D-04 -0.16494937D-03 -0.16494937D-03  0.32989874D-03
  0.54959014D-20  0.29027726D-17 -0.38403835D-18 -0.44626180D-04 -0.44626180D-04
  0.89252360D-04  0.11031332D-19 -0.77269535D-17  0.90038219D-18 -0.67524256D-05
 -0.67524256D-05  0.13504851D-04  0.44547342D-21 -0.16767138D-17 -0.17904874D-19
 -0.60209546D-18 -0.13898197D-17  0.85967794D-04 -0.60377377D-18 -0.13904636D-17
 -0.12895169D-03  0.24100602D-17  0.55599228D-17 -0.12895169D-03  0.29877950D-19
  0.23947566D-18 -0.58455933D-18  0.28005720D-04  0.24073299D-18 -0.58448901D-18
 -0.42008580D-04 -0.95915997D-18  0.23381670D-17 -0.42008580D-04  0.30014952D-20
  0.14122369D-03  0.26327306D-03  0.44497785D-03  0.66894747D-03  0.82187925D-03
  0.69420842D-03  0.26182987D-03 -0.12958107D-05 -0.10874097D-03 -0.20359741D-03
 -0.34664201D-03 -0.53620249D-03 -0.70615981D-03 -0.73374528D-03 -0.46626219D-03
  0.31247807D-03 -0.28690423D-03  0.95404591D-03  0.56774079D-03 -0.36474210D-17
 -0.34196891D-17 -0.24350223D-17  0.17999079D-17  0.16875281D-17  0.12016205D-17
 -0.59866524D-03 -0.56128672D-03 -0.39966958D-03  0.30674466D-17 -0.51539872D-17
  0.28152339D-02  0.49515923D-17 -0.39963506D-18 -0.37696530D-04  0.69373814D-19
 -0.27206742D-19 -0.13847829D-04 -0.50558751D-03 -0.50558751D-03  0.10111750D-02
  0.28406249D-19  0.12826911D-16  0.15889455D-17 -0.10792153D-03 -0.10792153D-03
  0.21584307D-03  0.83073802D-20 -0.77499805D-17  0.62784179D-17 -0.26813236D-05
 -0.26813236D-05  0.53626473D-05 -0.49450702D-21 -0.69138042D-18  0.12978089D-18
  0.89547161D-19  0.18919655D-18  0.72556493D-03  0.85124454D-19  0.18253724D-18
 -0.10883474D-02 -0.35376594D-18 -0.75012689D-18 -0.10883474D-02  0.54348571D-19
 -0.10613849D-18 -0.68736627D-19  0.44947757D-04 -0.10745493D-18 -0.68249064D-19
 -0.67421635D-04  0.42587039D-18  0.27445894D-18 -0.67421635D-04  0.14979720D-19
  0.85112505D-05  0.15350391D-04  0.22634142D-04  0.47454456D-03  0.66639879D-04
 -0.41231324D-04 -0.19478879D-17  0.17942477D-17 -0.39280383D-05 -0.26955760D-17
 -0.75598851D-17  0.46292557D-03 -0.23054463D-17 -0.63577066D-18  0.80364107D-04
 -0.47270286D-04 -0.47270286D-04  0.94540573D-04  0.53502787D-20 -0.46712151D-17
 -0.57658915D-17 -0.30504154D-04 -0.30504154D-04  0.61008309D-04 -0.32964283D-21
 -0.22210931D-17 -0.14901156D-17  0.59432502D+00  0.11078476D+01  0.18780740D+01
  0.28439576D+01  0.35563789D+01  0.30617110D+01  0.11770335D+01 -0.51002788D-02
  0.61642554D-03  0.11575380D-02  0.19710876D-02  0.30876970D-02  0.41378773D-02
  0.44508449D-02  0.26722814D-02 -0.17574047D-02  0.62459373D-01 -0.45978108D-03
 -0.56661362D-03  0.17492411D-17  0.17107196D-17  0.11303448D-17  0.13586687D-17
  0.13287483D-17  0.87796017D-18 -0.10520195D-01 -0.10288521D-01 -0.67980610D-02
 -0.10251474D-18  0.13731562D-18  0.25517974D-02  0.19154005D-17 -0.24638640D-17
  0.91511813D-03  0.23562519D-19 -0.52627199D-19  0.50739144D-04 -0.10621221D-02
 -0.10621221D-02  0.21242442D-02  0.58391814D-18 -0.52112553D-17 -0.25212512D-17
  0.66484313D-03  0.66484313D-03 -0.13296863D-02 -0.12791023D-18  0.57272361D-18
  0.60322670D-18  0.95211619D-04  0.95211619D-04 -0.19042324D-03 -0.71658709D-20
 -0.13272203D-17  0.19748666D-17  0.49410645D-18 -0.16623568D-17  0.14868666D-03
  0.51700143D-18 -0.13889065D-17 -0.22302999D-03 -0.19993208D-17  0.63759769D-17
 -0.22302999D-03 -0.13140778D-17 -0.28745349D-18  0.59863791D-18  0.28572384D-03
 -0.31553106D-18  0.60642293D-18 -0.42858576D-03  0.11778915D-17 -0.24023367D-17
 -0.42858576D-03  0.38684344D-19
MO    2     MO 0.0        OCC NO =    2.0000000  ORB. ENERGY =  -10.671983
  0.47292353D-02  0.88163699D-02  0.14901218D-01  0.22401412D-01  0.27522723D-01
  0.23247340D-01  0.87680412D-02 -0.43393525D-04  0.54131606D-03  0.10135145D-02
  0.17255951D-02  0.26692332D-02  0.35152862D-02  0.36526076D-02  0.23210681D-02
 -0.15555259D-02  0.64207422D-03 -0.37989931D-02  0.21598073D-02  0.40152425D-15
  0.37645451D-15  0.26805804D-15 -0.18948348D-15 -0.17765280D-15 -0.12649938D-15
  0.19524337D-02  0.18305307D-02  0.13034469D-02 -0.31246263D-16 -0.14234773D-16
 -0.77525350D-02  0.15762378D-17  0.13427085D-17 -0.69176101D-02  0.16163896D-18
 -0.60261112D-19  0.12833162D-03  0.77352448D-03  0.77352448D-03 -0.15470490D-02
 -0.16927894D-18 -0.16327421D-17 -0.11490465D-17  0.65637638D-03  0.65637638D-03
 -0.13127528D-02  0.36845563D-19  0.50721375D-17  0.11504122D-16  0.60651430D-04
  0.60651430D-04 -0.12130286D-03 -0.49758282D-22 -0.10661656D-17 -0.25356181D-18
 -0.38286953D-17 -0.18324002D-18 -0.14346688D-02 -0.38283339D-17 -0.25611672D-18
  0.21520032D-02  0.15314420D-16  0.80583677D-18  0.21520032D-02 -0.22596667D-18
 -0.84537778D-18  0.37275615D-18 -0.47138324D-03 -0.85382155D-18  0.36140072D-18
  0.70707486D-03  0.33899549D-17 -0.14796692D-17  0.70707486D-03  0.25782162D-19
  0.32876730D+00  0.61289699D+00  0.10359039D+01  0.15573029D+01  0.19133265D+01
  0.16161101D+01  0.60953727D+00 -0.30166339D-02 -0.21335186D-02 -0.39946199D-02
 -0.68011822D-02 -0.10520395D-01 -0.13854990D-01 -0.14396222D-01 -0.91481527D-02
  0.61308792D-02  0.34513303D-01  0.83934931D-02 -0.27615132D-02  0.15347136D-16
  0.14388915D-16  0.10245765D-16  0.33932045D-16  0.31813449D-16  0.22653071D-16
  0.65015476D-02  0.60956141D-02  0.43404404D-02 -0.19392796D-16 -0.60870794D-17
 -0.78575911D-02  0.45904164D-19 -0.72850163D-18 -0.43749352D-02 -0.35342270D-19
  0.80796711D-19  0.13506490D-03 -0.33492692D-02 -0.33492692D-02  0.66985383D-02
 -0.61366966D-18  0.15000422D-16 -0.25629904D-17  0.43268544D-03  0.43268544D-03
 -0.86537088D-03 -0.77490673D-19  0.10243943D-16  0.82227915D-17  0.83863126D-04
  0.83863126D-04 -0.16772625D-03 -0.17397691D-20 -0.19341330D-18  0.28193450D-18
  0.13294958D-17 -0.19479817D-18 -0.10938184D-02  0.13081864D-17  0.27778375D-18
  0.16407275D-02 -0.52966736D-17  0.30661076D-18  0.16407275D-02  0.83621873D-19
  0.37426677D-18  0.54165003D-18 -0.31917723D-03  0.33514858D-18  0.53351415D-18
  0.47876584D-03 -0.14579489D-17 -0.21584642D-17  0.47876584D-03  0.25060655D-19
 -0.11701584D-03 -0.21104289D-03 -0.31118262D-03 -0.46524808D-02 -0.69805589D-02
  0.95871921D-04 -0.12357671D-17 -0.59068031D-17 -0.16609698D-02 -0.11267788D-16
  0.10484951D-16 -0.16740997D-02 -0.27767128D-17 -0.16012948D-18 -0.12513688D-02
  0.43060941D-03  0.43060941D-03 -0.86121882D-03 -0.60968008D-19 -0.18014260D-16
  0.56324288D-18  0.80503706D-04  0.80503706D-04 -0.16100741D-03  0.10200266D-19
 -0.37603676D-17  0.19533365D-17  0.40629134D-03  0.75734466D-03  0.12838854D-02
  0.19441809D-02  0.24312050D-02  0.20930410D-02  0.80464138D-03 -0.34866428D-05
 -0.35404674D-03 -0.66483706D-03 -0.11321029D-02 -0.17734324D-02 -0.23766081D-02
 -0.25563624D-02 -0.15348367D-02  0.10093732D-02  0.16889674D-04  0.47888324D-02
  0.36390513D-02 -0.19957959D-18 -0.19518448D-18 -0.12896664D-18 -0.24329253D-17
 -0.23793478D-17 -0.15721357D-17 -0.33058065D-03 -0.32330065D-03 -0.21361841D-03
 -0.87203872D-18  0.94419217D-18 -0.34102394D-02  0.10405818D-17 -0.53336119D-18
 -0.97193191D-03  0.26855698D-18 -0.15492746D-18 -0.32884866D-03 -0.14018215D-02
 -0.14018215D-02  0.28036431D-02  0.24927988D-18 -0.28677944D-17  0.10342082D-16
  0.10077142D-03  0.10077142D-03 -0.20154285D-03 -0.23924217D-19  0.15135474D-17
 -0.45729471D-17  0.14799106D-03  0.14799106D-03 -0.29598212D-03  0.50653414D-20
 -0.69327838D-18  0.11814275D-17 -0.21750935D-18 -0.43467750D-17 -0.14205231D-02
 -0.26452868D-18 -0.45130588D-17  0.21307847D-02  0.91705672D-18  0.17553384D-16
  0.21307847D-02  0.74033078D-20 -0.13624233D-18  0.14585655D-17  0.11835231D-02
 -0.11672014D-18  0.14814517D-17 -0.17752847D-02  0.52544712D-18 -0.58571483D-17
 -0.17752847D-02  0.10021014D-19
MO    3     MO 0.0        OCC NO =    2.0000000  ORB. ENERGY =  -10.586213
  0.32857526D+00  0.61253899D+00  0.10352988D+01  0.15563932D+01  0.19122089D+01
  0.16151661D+01  0.60918123D+00 -0.30148719D-02 -0.20113873D-02 -0.37659517D-02
 -0.64118549D-02 -0.99181646D-02 -0.13061874D-01 -0.13572124D-01 -0.86244753D-02
  0.57799228D-02  0.34446638D-01  0.56980087D-02 -0.87402211D-03 -0.79533080D-17
 -0.74567318D-17 -0.53096372D-17  0.16161333D-16  0.15152277D-16  0.10789324D-16
  0.66508442D-03  0.62355892D-03  0.44401110D-03  0.12763758D-17 -0.52141740D-18
  0.54359691D-02  0.17669679D-18  0.10707022D-18  0.46081817D-02  0.28504653D-20
 -0.16838975D-20  0.26783841D-04 -0.31797009D-02 -0.31797009D-02  0.63594018D-02
 -0.19398789D-17  0.43276035D-18  0.12994712D-17  0.46681751D-03  0.46681751D-03
 -0.93363502D-03  0.19065750D-18 -0.30203328D-18  0.12659877D-19  0.55167411D-04
  0.55167411D-04 -0.11033482D-03 -0.14667713D-20  0.63897681D-19  0.10768461D-18
 -0.39547037D-19  0.10884908D-18  0.30316790D-03 -0.66468811D-19 -0.43524115D-19
 -0.45475184D-03  0.18510992D-18 -0.28302312D-18 -0.45475184D-03 -0.20994656D-18
 -0.75975085D-21  0.29214877D-19  0.28743415D-03 -0.30843349D-19  0.11729630D-20
 -0.43115123D-03  0.33122602D-19 -0.88817595D-19 -0.43115123D-03  0.68234465D-19
 -0.63981113D-02 -0.11927534D-01 -0.20159634D-01 -0.30306533D-01 -0.37235078D-01
 -0.31450976D-01 -0.11862151D-01  0.58706447D-04  0.46671835D-03  0.87384401D-03
  0.14877942D-02  0.23013914D-02  0.30308515D-02  0.31492488D-02  0.20012063D-02
 -0.13411619D-02  0.97533126D-04 -0.86349460D-02  0.35271218D-03 -0.26704649D-18
 -0.25037306D-18 -0.17828053D-18 -0.61738927D-18 -0.57884168D-18 -0.41216976D-18
 -0.25182007D-02 -0.23609732D-02 -0.16811536D-02  0.70046596D-19  0.24963320D-18
  0.52372230D-02 -0.20267861D-18 -0.29896637D-18  0.50027712D-02 -0.50499112D-20
  0.40867087D-20 -0.50053228D-04  0.48121735D-03  0.48121735D-03 -0.96243470D-03
 -0.12569148D-18  0.21544847D-18 -0.30581386D-19  0.85262322D-03  0.85262322D-03
 -0.17052464D-02 -0.10925057D-18 -0.19157776D-18 -0.16435026D-18  0.49637298D-04
  0.49637298D-04 -0.99274597D-04 -0.24731228D-20  0.37596578D-19  0.69066865D-19
  0.69963626D-19 -0.53445723D-19  0.15812259D-02  0.48028940D-19  0.38137569D-19
 -0.23718389D-02 -0.25791982D-18  0.12219960D-18 -0.23718389D-02  0.18019101D-18
  0.50912349D-20  0.18275666D-19  0.45593999D-03 -0.56942916D-20  0.23044035D-19
 -0.68390998D-03 -0.95794130D-20 -0.77871033D-19 -0.68390998D-03  0.81924797D-19
  0.21846137D-03  0.39400408D-03  0.58095879D-03  0.43213356D-02  0.47150870D-02
  0.84159717D-04  0.19537606D-18  0.65909217D-19 -0.36153692D-03 -0.22634978D-18
  0.36708710D-18  0.16623703D-03  0.53471822D-19  0.15400810D-18  0.42395817D-03
  0.10884384D-02  0.10884384D-02 -0.21768768D-02  0.52467387D-20  0.27787412D-19
  0.73276832D-18  0.10200465D-03  0.10200465D-03 -0.20400931D-03  0.12268280D-19
 -0.25655204D-19  0.10859840D-18 -0.29346697D-03 -0.54703515D-03 -0.92735906D-03
 -0.14042949D-02 -0.17560757D-02 -0.15118176D-02 -0.58119789D-03  0.25184256D-05
  0.19888319D-03  0.37346741D-03  0.63595060D-03  0.99621284D-03  0.13350424D-02
  0.14360181D-02  0.86218339D-03 -0.56700807D-03  0.35930506D-03 -0.23140952D-02
 -0.19875442D-02  0.89280133D-19  0.87314021D-19  0.57692065D-19  0.19632767D-19
  0.19200418D-19  0.12686528D-19 -0.13652406D-02 -0.13351755D-02 -0.88220688D-03
  0.11199707D-18  0.56236272D-19  0.19988143D-02  0.93502985D-19  0.14340491D-18
  0.22750584D-03 -0.98940827D-20 -0.35380554D-19  0.29187637D-03 -0.34649841D-03
 -0.34649841D-03  0.69299683D-03 -0.24147833D-19  0.18536976D-18 -0.16157950D-18
  0.61401094D-03  0.61401094D-03 -0.12280219D-02 -0.44229476D-20 -0.18415538D-18
  0.40191922D-19 -0.35959684D-04 -0.35959684D-04  0.71919368D-04 -0.27355947D-19
 -0.73028781D-19 -0.74147549D-19 -0.22663300D-19  0.93799627D-20 -0.16608041D-03
  0.80436581D-19  0.12422355D-18  0.24912061D-03 -0.12446681D-19 -0.15236344D-18
  0.24912061D-03 -0.39272879D-18 -0.35501799D-19 -0.84226947D-20  0.38171381D-03
 -0.29826922D-19 -0.18504096D-19 -0.57257072D-03  0.13633232D-18  0.43772180D-19
 -0.57257072D-03  0.13988358D-18
MO    4     MO 0.0        OCC NO =    2.0000000  ORB. ENERGY =   -1.476020
 -0.41520558D-03 -0.77403760D-03 -0.13082599D-02 -0.19667432D-02 -0.24163712D-02
 -0.20410118D-02 -0.76979455D-03  0.38097562D-05 -0.54871295D-03 -0.10273638D-02
 -0.17491747D-02 -0.27057073D-02 -0.35633214D-02 -0.37025192D-02 -0.23527847D-02
  0.15767816D-02  0.39599412D-02 -0.26756769D-01  0.33388699D-02 -0.31008449D-16
 -0.29072392D-16 -0.20701275D-16  0.13182951D-15  0.12359854D-15  0.88009524D-16
  0.86549807D-02  0.81145945D-02  0.57780747D-02  0.36585914D-16 -0.22319579D-16
 -0.18029361D-01  0.11541162D-16 -0.41268889D-17 -0.13378287D-01  0.47167881D-17
  0.60222528D-18  0.27345247D-03  0.10737601D-02  0.10737601D-02 -0.21475203D-02
 -0.15236385D-15 -0.12350067D-16 -0.18586717D-15  0.19343829D-02  0.19343829D-02
 -0.38687658D-02 -0.30020097D-17 -0.12349894D-17  0.57348154D-17  0.25964342D-03
  0.25964342D-03 -0.51928684D-03  0.45876301D-18  0.45030414D-17  0.10359150D-16
  0.26534522D-17 -0.76028162D-19 -0.33548783D-02  0.27195262D-17 -0.79264652D-20
  0.50323174D-02 -0.10679883D-16  0.23601095D-18  0.50323174D-02 -0.22290794D-19
  0.54958923D-18  0.16912707D-17  0.12454870D-03  0.67488116D-18  0.14855313D-17
 -0.18682305D-03 -0.23236488D-17 -0.65593435D-17 -0.18682305D-03  0.29079923D-17
 -0.38321245D-02 -0.71439514D-02 -0.12074536D-01 -0.18151983D-01 -0.22301809D-01
 -0.18837443D-01 -0.71047903D-02  0.35162004D-04 -0.16091835D-01 -0.30128992D-01
 -0.51297186D-01 -0.79348947D-01 -0.10449977D+00 -0.10858196D+00 -0.68998959D-01
  0.46241498D-01  0.20826001D-01  0.33031937D-01 -0.54862677D-02  0.42999149D-16
  0.40314436D-16  0.28706280D-16 -0.10605488D-16 -0.99433189D-17 -0.70802354D-17
  0.14803145D+00  0.13878889D+00  0.98825958D-01  0.43333176D-16  0.25568370D-16
  0.97873614D-02 -0.13223151D-16 -0.25890405D-16 -0.96725968D-02 -0.14544692D-17
  0.11171377D-17  0.28046965D-03 -0.17380061D-01 -0.17380061D-01  0.34760123D-01
 -0.40992177D-17  0.23359597D-17  0.43021710D-16 -0.31334795D-02 -0.31334795D-02
  0.62669590D-02 -0.30852593D-18  0.11157197D-16  0.54984124D-17  0.11287572D-03
  0.11287572D-03 -0.22575144D-03 -0.54619782D-18  0.44468240D-17  0.28272016D-17
 -0.92815680D-17 -0.57325466D-17  0.16978880D-02 -0.71031828D-17 -0.49759643D-17
 -0.25468320D-02  0.34947887D-16  0.22173604D-16 -0.25468320D-02  0.16562574D-17
  0.34094384D-19  0.21705874D-18  0.10234909D-02 -0.85136182D-18  0.42628433D-18
 -0.15352364D-02  0.74907867D-18 -0.10774605D-17 -0.15352364D-02  0.64670690D-17
  0.11769828D-05  0.21227369D-05  0.31299743D-05 -0.18719556D-02 -0.81659360D-02
  0.33919604D-03 -0.11391918D-17 -0.52498860D-17 -0.28306635D-02  0.24619103D-17
  0.18532642D-16 -0.39299646D-02  0.32034535D-17  0.16299942D-16 -0.18602515D-02
  0.13137132D-02  0.13137132D-02 -0.26274264D-02 -0.85479515D-18  0.19305107D-17
  0.69994434D-17  0.28316357D-03  0.28316357D-03 -0.56632714D-03  0.34678261D-18
 -0.89779989D-18  0.36909377D-17 -0.54463695D-02 -0.10152269D-01 -0.17210591D-01
 -0.26061908D-01 -0.32590507D-01 -0.28057391D-01 -0.10786285D-01  0.46738740D-04
 -0.12375812D+00 -0.23239584D+00 -0.39573003D+00 -0.61990875D+00 -0.83075065D+00
 -0.89358434D+00 -0.53650686D+00  0.35282949D+00  0.20212731D+00  0.90341972D-01
  0.82816090D-02  0.21034362D-15  0.20571147D-15  0.13592227D-15  0.26542058D-15
  0.25957553D-15  0.17151253D-15 -0.35225627D+00 -0.34449894D+00 -0.22762501D+00
  0.56735149D-16  0.81074881D-16 -0.90987811D-01 -0.11056742D-16  0.14825571D-16
 -0.97895338D-02 -0.21564457D-18 -0.20260025D-17 -0.69013860D-03 -0.19365646D-01
 -0.19365646D-01  0.38731291D-01  0.38190630D-16 -0.38509481D-15 -0.52463833D-16
 -0.10589563D-01 -0.10589563D-01  0.21179126D-01 -0.15157835D-17  0.39445220D-16
 -0.18214014D-16 -0.57510023D-03 -0.57510023D-03  0.11502005D-02 -0.20001605D-17
  0.82157184D-17 -0.21015244D-17 -0.21179277D-17 -0.10433857D-16 -0.11234287D-01
 -0.12741567D-16 -0.13043728D-16  0.16851431D-01  0.19095350D-16  0.44345299D-16
  0.16851431D-01 -0.68528910D-17  0.28805158D-17  0.40717417D-17 -0.34472332D-02
  0.33505538D-17  0.38913206D-17  0.51708499D-02 -0.11992101D-16 -0.16106546D-16
  0.51708499D-02  0.37052106D-17
MO    5     MO 0.0        OCC NO =    2.0000000  ORB. ENERGY =   -0.893496
 -0.77236757D-02 -0.14398688D-01 -0.24336318D-01 -0.36585458D-01 -0.44949463D-01
 -0.37967007D-01 -0.14319758D-01  0.70869282D-04 -0.44578499D-01 -0.83465015D-01
 -0.14210633D+00 -0.21981688D+00 -0.28949110D+00 -0.30079980D+00 -0.19114477D+00
  0.12810078D+00  0.53372218D-01  0.36638950D-01  0.33168308D-02 -0.33649101D-15
 -0.31548171D-15 -0.22464177D-15  0.16908170D-14  0.15852484D-14  0.11287913D-14
  0.22038677D+00  0.20662660D+00  0.14713045D+00  0.12155362D-15  0.32375049D-15
  0.13838454D-01  0.43611500D-17  0.24637603D-16  0.61536760D-03 -0.22211762D-17
  0.19874965D-17  0.40205905D-03 -0.20009487D-01 -0.20009487D-01  0.40018974D-01
 -0.12546155D-15  0.56442210D-16  0.10237137D-15 -0.36535855D-02 -0.36535855D-02
  0.73071709D-02  0.62732553D-17 -0.53576945D-16  0.42417258D-16 -0.21464733D-04
 -0.21464733D-04  0.42929466D-04 -0.21074050D-18 -0.13786378D-16  0.12547959D-16
  0.55411867D-17 -0.12278540D-16  0.45254959D-03  0.13245060D-16 -0.11306211D-16
 -0.67882438D-03 -0.29868620D-16  0.48141830D-16 -0.67882438D-03  0.13335474D-17
  0.10153126D-16 -0.15175644D-17 -0.40207851D-03  0.80075216D-17 -0.39364270D-17
  0.60311776D-03 -0.38466899D-16  0.84891202D-17  0.60311776D-03 -0.22573990D-17
 -0.69416551D-02 -0.12940823D-01 -0.21872271D-01 -0.32881188D-01 -0.40398339D-01
 -0.34122855D-01 -0.12869885D-01  0.63693782D-04 -0.45380553D-01 -0.84966713D-01
 -0.14466310D+00 -0.22377182D+00 -0.29469961D+00 -0.30621177D+00 -0.19458383D+00
  0.13040556D+00  0.58588282D-01  0.11466984D-01 -0.48230483D-02  0.37805931D-15
  0.35445464D-15  0.25239282D-15  0.52817924D-15  0.49520161D-15  0.35261305D-15
 -0.24290769D+00 -0.22774140D+00 -0.16216544D+00  0.21879474D-15  0.10587739D-15
 -0.31282290D-01  0.46065751D-16 -0.32659472D-16  0.20630168D-03  0.15121221D-17
 -0.84922017D-18  0.13947675D-03 -0.16870388D-01 -0.16870388D-01  0.33740776D-01
 -0.66522193D-17 -0.56848626D-16 -0.14129275D-15 -0.21788078D-02 -0.21788078D-02
  0.43576157D-02  0.13790405D-17 -0.12063576D-15  0.12151593D-16  0.18669096D-03
  0.18669096D-03 -0.37338192D-03 -0.67833693D-19 -0.15752335D-17  0.48306437D-17
 -0.11611379D-16 -0.12726028D-16 -0.21370209D-02 -0.23788639D-17 -0.69471047D-17
  0.32055314D-02  0.37213002D-16  0.45125188D-16  0.32055314D-02 -0.20182054D-17
 -0.19530106D-18  0.16454464D-17 -0.11159222D-03 -0.28609359D-17  0.21956466D-17
  0.16738833D-03  0.34468390D-17 -0.71319857D-17  0.16738833D-03 -0.17336110D-17
  0.10201549D-01  0.18398914D-01  0.27129189D-01 -0.10256804D-01 -0.63021865D-02
  0.39063665D-03 -0.11783306D-16  0.21547338D-16  0.48922556D-02  0.91238754D-16
 -0.51376070D-17 -0.15156787D-01 -0.10916965D-16  0.10706551D-16 -0.21349194D-02
  0.30381705D-02  0.30381705D-02 -0.60763410D-02 -0.17251583D-17  0.47765010D-16
  0.32438660D-17  0.82690860D-03  0.82690860D-03 -0.16538172D-02 -0.74105371D-18
  0.11095942D-16 -0.36030836D-17  0.54577461D-03  0.10173475D-02  0.17246542D-02
  0.26116347D-02  0.32658583D-02  0.28115998D-02  0.10808816D-02 -0.46836370D-05
  0.23454057D-01  0.44042564D-01  0.74996892D-01  0.11748219D+00  0.15743995D+00
  0.16934790D+00  0.10167625D+00 -0.66866582D-01 -0.41346294D-01 -0.34730230D-01
 -0.80389764D-03  0.22769964D-15  0.22268528D-15  0.14713758D-15  0.27458498D-15
  0.26853811D-15  0.17743448D-15 -0.51177885D+00 -0.50050853D+00 -0.33070715D+00
  0.53804719D-16  0.50424467D-16 -0.11265680D+00  0.21198595D-16  0.89927394D-17
 -0.58622124D-02 -0.23786092D-17  0.61556072D-19  0.23372657D-03 -0.13149894D-01
 -0.13149894D-01  0.26299789D-01 -0.63906529D-17  0.30814768D-16 -0.71314011D-16
 -0.19120095D-02 -0.19120095D-02  0.38240190D-02  0.13110534D-17 -0.32647715D-16
 -0.26368771D-17  0.76961139D-03  0.76961139D-03 -0.15392228D-02  0.22572472D-17
 -0.13876745D-16 -0.42807277D-17  0.68695414D-17 -0.21084642D-17 -0.61319115D-02
  0.84769378D-17 -0.26980589D-17  0.91978673D-02 -0.29085562D-16  0.90234516D-17
  0.91978673D-02  0.80255191D-17 -0.43784660D-17 -0.80959488D-18  0.10007861D-02
 -0.36446095D-17 -0.46864683D-18 -0.15011792D-02  0.16780008D-16  0.28974315D-17
 -0.15011792D-02 -0.54400436D-17
MO    6     MO 0.0        OCC NO =    2.0000000  ORB. ENERGY =   -0.741232
  0.28930575D-02  0.53933170D-02  0.91156558D-02  0.13703817D-01  0.16836722D-01
  0.14221303D-01  0.53637524D-02 -0.26545510D-04  0.23572888D-01  0.44135884D-01
  0.75145119D-01  0.11623807D+00  0.15308145D+00  0.15906143D+00  0.10107640D+00
 -0.67739053D-01 -0.27058340D-01 -0.70475773D-01 -0.19083638D-02  0.19737563D-15
  0.18505220D-15  0.13176819D-15 -0.35982437D-15 -0.33735821D-15 -0.24021915D-15
 -0.17118216D-01 -0.16049416D-01 -0.11428140D-01 -0.23970809D-16  0.59670239D-16
 -0.64278007D-02  0.36748671D-16 -0.10251687D-16 -0.17578059D-01  0.17010531D-17
  0.55307047D-18 -0.52928872D-04  0.99785446D-02  0.99785446D-02 -0.19957089D-01
 -0.30242122D-15  0.41048685D-15 -0.59259369D-16  0.31296656D-02  0.31296656D-02
 -0.62593312D-02  0.11661596D-16  0.47029030D-18  0.37494888D-16  0.41348148D-03
  0.41348148D-03 -0.82696297D-03 -0.12969348D-17 -0.48372069D-17  0.79896114D-17
 -0.10124236D-17  0.60526638D-18 -0.24072149D-02 -0.40891901D-17  0.54664690D-18
  0.36108224D-02  0.71264607D-17 -0.23624460D-17  0.36108224D-02 -0.17651191D-17
 -0.35256518D-17  0.44062219D-17  0.73382447D-03 -0.26446312D-17  0.52316629D-17
 -0.11007367D-02  0.13221587D-16 -0.18450328D-16 -0.11007367D-02  0.15195153D-17
 -0.12597447D-02 -0.23484505D-02 -0.39692951D-02 -0.59671508D-02 -0.73313342D-02
 -0.61924837D-02 -0.23355770D-02  0.11558901D-04 -0.16441673D-01 -0.30783999D-01
 -0.52412392D-01 -0.81074001D-01 -0.10677161D+00 -0.11094254D+00 -0.70499004D-01
  0.47246793D-01  0.21233926D-01  0.74641112D-01  0.20579446D-02 -0.49206491D-17
 -0.46134214D-17 -0.32850308D-17  0.18054041D-15  0.16926811D-15  0.12052898D-15
  0.36441296D+00  0.34166032D+00  0.24328250D+00 -0.84075214D-17  0.95471872D-16
  0.68802781D-01 -0.67148957D-17 -0.97229360D-17 -0.13123910D-01  0.86639543D-18
 -0.30202832D-18 -0.22526247D-04 -0.10587613D-01 -0.10587613D-01  0.21175226D-01
 -0.12288249D-16  0.90038911D-16  0.48253054D-16 -0.55562483D-02 -0.55562483D-02
  0.11112497D-01  0.64762939D-18  0.51022159D-16 -0.15097206D-16 -0.44260153D-03
 -0.44260153D-03  0.88520307D-03  0.20652088D-18  0.71998914D-17  0.54411561D-17
 -0.80317635D-17 -0.46874957D-17  0.28020363D-02 -0.60304544D-17 -0.52714613D-17
 -0.42030545D-02  0.30125745D-16  0.19333948D-16 -0.42030545D-02 -0.11297071D-16
 -0.36471943D-18  0.13192460D-17  0.13445462D-02 -0.70802378D-18  0.13731173D-17
 -0.20168193D-02  0.18021821D-17 -0.53308552D-17 -0.20168193D-02  0.77362023D-17
 -0.11499652D-01 -0.20740095D-01 -0.30581258D-01 -0.59677962D-02 -0.82324343D-02