 Molden2AIM, Version 4.0.0 (06/02/2016)           Time: Tue Jul  3 03:40:53 2018
GAUSSIAN             11 MOL ORBITALS    252 PRIMITIVES        4 NUCLEI
  C    1    (CENTRE  1)   0.00101856  0.08443296  0.00000000  CHARGE =  6.0
  O    2    (CENTRE  2)  -0.93354549  2.08332290  0.00000000  CHARGE =  8.0
  N    3    (CENTRE  3)   0.69812908 -2.11044236  0.00000000  CHARGE =  7.0
  H    4    (CENTRE  4)   2.53854280 -2.61494821  0.00000000  CHARGE =  1.0
CENTRE ASSIGNMENTS    1  1  1  1  1  1  1  1  1  1  1  1  1  1  1  1  1  1  1  1
CENTRE ASSIGNMENTS    1  1  1  1  1  1  1  1  1  1  1  1  1  1  1  1  1  1  1  1
CENTRE ASSIGNMENTS    1  1  1  1  1  1  1  1  1  1  1  1  1  1  1  1  1  1  1  1
CENTRE ASSIGNMENTS    1  1  1  1  1  1  1  1  1  1  1  1  1  1  1  2  2  2  2  2
CENTRE ASSIGNMENTS    2  2  2  2  2  2  2  2  2  2  2  2  2  2  2  2  2  2  2  2
CENTRE ASSIGNMENTS    2  2  2  2  2  2  2  2  2  2  2  2  2  2  2  2  2  2  2  2
CENTRE ASSIGNMENTS    2  2  2  2  2  2  2  2  2  2  2  2  2  2  2  2  2  2  2  2
CENTRE ASSIGNMENTS    2  2  2  2  2  2  2  2  2  2  3  3  3  3  3  3  3  3  3  3
CENTRE ASSIGNMENTS    3  3  3  3  3  3  3  3  3  3  3  3  3  3  3  3  3  3  3  3
CENTRE ASSIGNMENTS    3  3  3  3  3  3  3  3  3  3  3  3  3  3  3  3  3  3  3  3
CENTRE ASSIGNMENTS    3  3  3  3  3  3  3  3  3  3  3  3  3  3  3  3  3  3  3  3
CENTRE ASSIGNMENTS    3  3  3  3  3  4  4  4  4  4  4  4  4  4  4  4  4  4  4  4
CENTRE ASSIGNMENTS    4  4  4  4  4  4  4  4  4  4  4  4
TYPE ASSIGNMENTS      1  1  1  1  1  1  1  1  1  1  1  1  1  1  1  1  1  1  1  2
TYPE ASSIGNMENTS      2  2  3  3  3  4  4  4  2  3  4  2  3  4  2  3  4  5  6  7
TYPE ASSIGNMENTS      8  9 10  5  6  7  8  9 10  5  6  7  8  9 10 11 12 13 17 14
TYPE ASSIGNMENTS     15 18 19 16 20 11 12 13 17 14 15 18 19 16 20  1  1  1  1  1
TYPE ASSIGNMENTS      1  1  1  1  1  1  1  1  1  1  1  1  1  1  2  2  2  3  3  3
TYPE ASSIGNMENTS      4  4  4  2  3  4  2  3  4  2  3  4  5  6  7  8  9 10  5  6
TYPE ASSIGNMENTS      7  8  9 10  5  6  7  8  9 10 11 12 13 17 14 15 18 19 16 20
TYPE ASSIGNMENTS     11 12 13 17 14 15 18 19 16 20  1  1  1  1  1  1  1  1  1  1
TYPE ASSIGNMENTS      1  1  1  1  1  1  1  1  1  2  2  2  3  3  3  4  4  4  2  3
TYPE ASSIGNMENTS      4  2  3  4  2  3  4  5  6  7  8  9 10  5  6  7  8  9 10  5
TYPE ASSIGNMENTS      6  7  8  9 10 11 12 13 17 14 15 18 19 16 20 11 12 13 17 14
TYPE ASSIGNMENTS     15 18 19 16 20  1  1  1  1  1  1  2  3  4  2  3  4  2  3  4
TYPE ASSIGNMENTS      5  6  7  8  9 10  5  6  7  8  9 10
EXPONENTS  0.8236000D+04 0.1235000D+04 0.2808000D+03 0.7927000D+02 0.2559000D+02
EXPONENTS  0.8997000D+01 0.3319000D+01 0.3643000D+00 0.8236000D+04 0.1235000D+04
EXPONENTS  0.2808000D+03 0.7927000D+02 0.2559000D+02 0.8997000D+01 0.3319000D+01
EXPONENTS  0.3643000D+00 0.9059000D+00 0.1285000D+00 0.4402000D-01 0.1871000D+02
EXPONENTS  0.4133000D+01 0.1200000D+01 0.1871000D+02 0.4133000D+01 0.1200000D+01
EXPONENTS  0.1871000D+02 0.4133000D+01 0.1200000D+01 0.3827000D+00 0.3827000D+00
EXPONENTS  0.3827000D+00 0.1209000D+00 0.1209000D+00 0.1209000D+00 0.3569000D-01
EXPONENTS  0.3569000D-01 0.3569000D-01 0.1097000D+01 0.1097000D+01 0.1097000D+01
EXPONENTS  0.1097000D+01 0.1097000D+01 0.1097000D+01 0.3180000D+00 0.3180000D+00
EXPONENTS  0.3180000D+00 0.3180000D+00 0.3180000D+00 0.3180000D+00 0.1000000D+00
EXPONENTS  0.1000000D+00 0.1000000D+00 0.1000000D+00 0.1000000D+00 0.1000000D+00
EXPONENTS  0.7610000D+00 0.7610000D+00 0.7610000D+00 0.7610000D+00 0.7610000D+00
EXPONENTS  0.7610000D+00 0.7610000D+00 0.7610000D+00 0.7610000D+00 0.7610000D+00
EXPONENTS  0.2680000D+00 0.2680000D+00 0.2680000D+00 0.2680000D+00 0.2680000D+00
EXPONENTS  0.2680000D+00 0.2680000D+00 0.2680000D+00 0.2680000D+00 0.2680000D+00
EXPONENTS  0.1533000D+05 0.2299000D+04 0.5224000D+03 0.1473000D+03 0.4755000D+02
EXPONENTS  0.1676000D+02 0.6207000D+01 0.6882000D+00 0.1533000D+05 0.2299000D+04
EXPONENTS  0.5224000D+03 0.1473000D+03 0.4755000D+02 0.1676000D+02 0.6207000D+01
EXPONENTS  0.6882000D+00 0.1752000D+01 0.2384000D+00 0.7376000D-01 0.3446000D+02
EXPONENTS  0.7749000D+01 0.2280000D+01 0.3446000D+02 0.7749000D+01 0.2280000D+01
EXPONENTS  0.3446000D+02 0.7749000D+01 0.2280000D+01 0.7156000D+00 0.7156000D+00
EXPONENTS  0.7156000D+00 0.2140000D+00 0.2140000D+00 0.2140000D+00 0.5974000D-01
EXPONENTS  0.5974000D-01 0.5974000D-01 0.2314000D+01 0.2314000D+01 0.2314000D+01
EXPONENTS  0.2314000D+01 0.2314000D+01 0.2314000D+01 0.6450000D+00 0.6450000D+00
EXPONENTS  0.6450000D+00 0.6450000D+00 0.6450000D+00 0.6450000D+00 0.2140000D+00
EXPONENTS  0.2140000D+00 0.2140000D+00 0.2140000D+00 0.2140000D+00 0.2140000D+00
EXPONENTS  0.1428000D+01 0.1428000D+01 0.1428000D+01 0.1428000D+01 0.1428000D+01
EXPONENTS  0.1428000D+01 0.1428000D+01 0.1428000D+01 0.1428000D+01 0.1428000D+01
EXPONENTS  0.5000000D+00 0.5000000D+00 0.5000000D+00 0.5000000D+00 0.5000000D+00
EXPONENTS  0.5000000D+00 0.5000000D+00 0.5000000D+00 0.5000000D+00 0.5000000D+00
EXPONENTS  0.1142000D+05 0.1712000D+04 0.3893000D+03 0.1100000D+03 0.3557000D+02
EXPONENTS  0.1254000D+02 0.4644000D+01 0.5118000D+00 0.1142000D+05 0.1712000D+04
EXPONENTS  0.3893000D+03 0.1100000D+03 0.3557000D+02 0.1254000D+02 0.4644000D+01
EXPONENTS  0.5118000D+00 0.1293000D+01 0.1787000D+00 0.5760000D-01 0.2663000D+02
EXPONENTS  0.5948000D+01 0.1742000D+01 0.2663000D+02 0.5948000D+01 0.1742000D+01
EXPONENTS  0.2663000D+02 0.5948000D+01 0.1742000D+01 0.5550000D+00 0.5550000D+00
EXPONENTS  0.5550000D+00 0.1725000D+00 0.1725000D+00 0.1725000D+00 0.4910000D-01
EXPONENTS  0.4910000D-01 0.4910000D-01 0.1654000D+01 0.1654000D+01 0.1654000D+01
EXPONENTS  0.1654000D+01 0.1654000D+01 0.1654000D+01 0.4690000D+00 0.4690000D+00
EXPONENTS  0.4690000D+00 0.4690000D+00 0.4690000D+00 0.4690000D+00 0.1510000D+00
EXPONENTS  0.1510000D+00 0.1510000D+00 0.1510000D+00 0.1510000D+00 0.1510000D+00
EXPONENTS  0.1093000D+01 0.1093000D+01 0.1093000D+01 0.1093000D+01 0.1093000D+01
EXPONENTS  0.1093000D+01 0.1093000D+01 0.1093000D+01 0.1093000D+01 0.1093000D+01
EXPONENTS  0.3640000D+00 0.3640000D+00 0.3640000D+00 0.3640000D+00 0.3640000D+00
EXPONENTS  0.3640000D+00 0.3640000D+00 0.3640000D+00 0.3640000D+00 0.3640000D+00
EXPONENTS  0.3387000D+02 0.5095000D+01 0.1159000D+01 0.3258000D+00 0.1027000D+00
EXPONENTS  0.2526000D-01 0.1407000D+01 0.1407000D+01 0.1407000D+01 0.3880000D+00
EXPONENTS  0.3880000D+00 0.3880000D+00 0.1020000D+00 0.1020000D+00 0.1020000D+00
EXPONENTS  0.1057000D+01 0.1057000D+01 0.1057000D+01 0.1057000D+01 0.1057000D+01
EXPONENTS  0.1057000D+01 0.2470000D+00 0.2470000D+00 0.2470000D+00 0.2470000D+00
EXPONENTS  0.2470000D+00 0.2470000D+00
MO    1     MO 0.0        OCC NO =    2.0000000  ORB. ENERGY =  -19.731620
  0.31864892D-03  0.59403403D-03  0.10040222D-02  0.15093742D-02  0.18544406D-02
  0.15663715D-02  0.59077771D-03 -0.29237919D-05 -0.24718514D-03 -0.46280857D-03
 -0.78797119D-03 -0.12188716D-02 -0.16052110D-02 -0.16679171D-02 -0.10598864D-02
  0.71031124D-03  0.58456959D-03 -0.40068471D-03  0.24004938D-04 -0.89220290D-03
 -0.83649693D-03 -0.59563565D-03  0.16450514D-02  0.15423402D-02  0.10982381D-02
 -0.28421693D-16 -0.26647144D-16 -0.18974354D-16  0.86154737D-03 -0.16061130D-02
 -0.95777051D-18  0.17767301D-03 -0.39027049D-03 -0.76703113D-19  0.26590096D-05
 -0.41360684D-05 -0.40126369D-20 -0.18499049D-03  0.45434110D-03 -0.26935061D-03
 -0.63878795D-03  0.52572286D-18 -0.11206384D-17  0.77268105D-04 -0.10888046D-03
  0.31612357D-04 -0.10501427D-03  0.11848497D-18 -0.78199118D-19  0.65597288D-05
 -0.20601037D-04  0.14041308D-04  0.33791305D-04 -0.29612638D-19  0.59722289D-19
 -0.55473757D-03 -0.55230518D-03  0.32052317D-18  0.23894337D-02  0.15086139D-03
  0.65788282D-19 -0.72522103D-03  0.15060542D-02 -0.10273578D-17  0.11236022D-17
 -0.22306088D-04 -0.12159661D-04  0.35111424D-19  0.10309131D-03 -0.18816916D-04
  0.21619010D-19 -0.36173046D-04  0.55295901D-04 -0.12695328D-18  0.56682263D-19
  0.49750026D+00  0.92727648D+00  0.15723537D+01  0.23798305D+01  0.29693336D+01
  0.25502616D+01  0.97909501D+00 -0.43795521D-02  0.13482809D-03  0.25287343D-03
  0.43109376D-03  0.67371563D-03  0.90088617D-03  0.96193640D-03  0.58810905D-03
 -0.38799863D-03  0.51680765D-01  0.17361984D-02  0.11988540D-03  0.38647932D-02
  0.37475494D-02  0.25280747D-02 -0.81732803D-02 -0.79253325D-02 -0.53463825D-02
 -0.18137909D-16 -0.17587671D-16 -0.11864539D-16  0.19100766D-03 -0.45176228D-03
  0.13377814D-17  0.35852683D-04  0.27844227D-04 -0.11470807D-18 -0.20790251D-05
  0.31336746D-05 -0.14387591D-19 -0.73119169D-03  0.22439642D-02 -0.15127725D-02
 -0.34055568D-02 -0.32153651D-17  0.32769083D-17  0.38599214D-04 -0.14647944D-03
  0.10788023D-03  0.17440975D-03  0.70584371D-18 -0.11292107D-17  0.31703785D-04
 -0.71360283D-04  0.39656498D-04  0.70685806D-04  0.10604126D-19  0.28886558D-19
 -0.16846610D-03 -0.22786205D-03  0.24216449D-18  0.69074558D-03  0.21047784D-03
 -0.79732288D-18 -0.18534727D-03  0.47310832D-03  0.70829417D-19 -0.89278400D-18
  0.62996567D-04  0.87523186D-04 -0.11346763D-18 -0.27738735D-03 -0.55642136D-04
  0.83930075D-19  0.88397645D-04 -0.20692742D-03  0.25647282D-18 -0.22977185D-18
 -0.33766486D-03 -0.62918875D-03 -0.10641159D-02 -0.16024996D-02 -0.19839985D-02
 -0.16882932D-02 -0.64242669D-03  0.30087583D-05  0.24273095D-03  0.45512280D-03
  0.77429929D-03  0.12024050D-02  0.15956614D-02  0.16816081D-02  0.10427043D-02
 -0.69360731D-03 -0.53870646D-04 -0.70399287D-04 -0.11368723D-03  0.26644225D-04
  0.25591460D-04  0.17946498D-04  0.56305022D-04  0.54080300D-04  0.37924840D-04
 -0.52956255D-18 -0.50863850D-18 -0.35669242D-18  0.56645009D-03 -0.15730124D-02
  0.11195278D-18  0.11772724D-04 -0.53620050D-04  0.19759621D-18  0.28792216D-06
 -0.96172335D-05  0.23294328D-19  0.41841178D-03 -0.97644288D-03  0.55803110D-03
  0.79977771D-03  0.16270166D-18  0.51481401D-18  0.42998237D-03 -0.51466558D-03
  0.84683212D-04 -0.13078472D-03 -0.19773051D-18  0.17159620D-18 -0.74927616D-05
  0.14189754D-04 -0.66969929D-05 -0.26287826D-05 -0.12456731D-20  0.32271325D-19
  0.20925288D-04 -0.45802667D-03 -0.17449396D-18  0.54688585D-04  0.69560885D-03
 -0.45906615D-18 -0.11746445D-03  0.67847116D-03  0.98254805D-18 -0.92163580D-19
  0.79930083D-05 -0.35194802D-04  0.17099339D-19 -0.19333316D-04  0.90382261D-04
  0.60563727D-19 -0.46457090D-05  0.15202146D-04 -0.11186174D-18 -0.57733334D-19
 -0.29699514D-05 -0.53564297D-05 -0.78980525D-05 -0.45627855D-03 -0.36350076D-04
 -0.43882825D-05  0.74325655D-04 -0.73782720D-05  0.40692839D-19  0.41293154D-03
 -0.25568788D-03  0.30093253D-19  0.26299618D-04 -0.21272198D-04  0.95393410D-21
 -0.13020677D-03  0.53594264D-04  0.76612506D-04  0.23066605D-03 -0.50890841D-19
 -0.87262708D-20 -0.25901871D-04 -0.46895596D-05  0.30591430D-04  0.48952784D-04
 -0.11853360D-19  0.35509514D-20
MO    2     MO 0.0        OCC NO =    2.0000000  ORB. ENERGY =  -14.817428
  0.23524364D-03  0.43854762D-03  0.74122274D-03  0.11143006D-02  0.13690470D-02
  0.11563791D-02  0.43614363D-03 -0.21584992D-05 -0.17764322D-03 -0.33260415D-03
 -0.56628703D-03 -0.87595993D-03 -0.11536084D-02 -0.11986730D-02 -0.76170290D-03
  0.51047557D-03  0.11162644D-02 -0.16946597D-02 -0.62856281D-04  0.71612216D-03
  0.67141004D-03  0.47808395D-03 -0.23704173D-02 -0.22224169D-02 -0.15824933D-02
 -0.24261155D-16 -0.22746375D-16 -0.16196774D-16 -0.17550655D-02  0.51646600D-02
  0.87052740D-17 -0.48266692D-03  0.12891667D-02  0.80339832D-18 -0.11541864D-05
 -0.40241153D-05  0.34326543D-19  0.92179467D-04 -0.12274555D-03  0.30566086D-04
 -0.92845394D-04 -0.13797020D-17  0.28102206D-17  0.19613796D-03 -0.58335144D-03
  0.38721348D-03  0.41676500D-03 -0.96865516D-18  0.10307037D-17  0.35380387D-04
 -0.77897556D-04  0.42517169D-04  0.68653298D-04  0.10413054D-18 -0.19809456D-18
  0.88057356D-03  0.15257145D-02 -0.17261086D-19 -0.37314510D-02 -0.14089444D-02
 -0.16887435D-18  0.10897303D-02 -0.31681992D-02  0.22065761D-18 -0.18715815D-18
  0.15663714D-04  0.74630141D-04 -0.59690805D-19 -0.89996457D-04 -0.28721850D-04
 -0.76051748D-19  0.43005314D-04 -0.19516857D-03  0.25512416D-18  0.28745686D-18
 -0.63118534D-03 -0.11764483D-02 -0.19948665D-02 -0.30193233D-02 -0.37672339D-02
 -0.32355515D-02 -0.12421911D-02  0.55563972D-05  0.44455075D-03  0.83376595D-03
  0.14213882D-02  0.22213530D-02  0.29703722D-02  0.31716650D-02  0.19390938D-02
 -0.12792963D-02  0.18208941D-03 -0.15633019D-02 -0.41798175D-03  0.53188376D-03
  0.51574833D-03  0.34792078D-03 -0.36376477D-03 -0.35272946D-03 -0.23794921D-03
  0.75561909D-18  0.73269634D-18  0.49427262D-18 -0.15918081D-02  0.25005877D-02
  0.89558605D-18 -0.27679629D-03  0.62085671D-03 -0.10775624D-17 -0.16768820D-04
  0.70377481D-04 -0.18681785D-20  0.27769370D-03 -0.71931442D-03  0.44162073D-03
  0.13183804D-02  0.57708863D-17 -0.90004026D-17  0.41520738D-04 -0.65349468D-03
  0.61197394D-03  0.15722913D-02 -0.14974022D-17  0.17523996D-17  0.64279354D-05
 -0.53323323D-04  0.46895387D-04  0.54695820D-04 -0.41315604D-18  0.53351820D-18
  0.32435026D-03 -0.43448731D-04 -0.46605637D-17 -0.14493904D-02  0.82952373D-03
  0.50727429D-17  0.47633964D-03 -0.69917754D-03  0.89089481D-17 -0.35684531D-17
  0.24529699D-04  0.45107578D-04  0.10504535D-17 -0.20567721D-03  0.31503229D-04
 -0.89452238D-18  0.13208811D-03 -0.16682596D-03 -0.22568381D-17  0.15888204D-17
  0.41193421D+00  0.76757875D+00  0.12981681D+01  0.19549692D+01  0.24203787D+01
  0.20596330D+01  0.78372837D+00 -0.36705343D-02 -0.96215653D-03 -0.18040525D-02
 -0.30692301D-02 -0.47661902D-02 -0.63250116D-02 -0.66656940D-02 -0.41331555D-02
  0.27493766D-02  0.40897773D-01  0.45307815D-02  0.18384071D-03  0.26597082D-02
  0.25546180D-02  0.17914744D-02  0.47661345D-02  0.45778152D-02  0.32102800D-02
  0.25919962D-17  0.24895814D-17  0.17458663D-17 -0.94035556D-05  0.30196389D-02
  0.33913292D-17 -0.31669059D-03  0.61582511D-03 -0.10241034D-17 -0.61000611D-05
  0.10816927D-04 -0.17663547D-18  0.56907464D-03  0.25048074D-02 -0.30738820D-02
 -0.50531757D-02 -0.14062039D-17 -0.20855480D-17 -0.55701630D-04  0.39490822D-03
 -0.33920659D-03 -0.36707253D-03  0.48338061D-18  0.21699623D-17  0.35115524D-05
 -0.41240796D-04  0.37729243D-04  0.11170184D-03  0.18087783D-19 -0.39179279D-18
  0.96134525D-03  0.87705250D-03 -0.39970655D-18 -0.21137678D-02 -0.17987425D-02
  0.26494556D-17 -0.77026796D-03 -0.83241496D-03 -0.14503359D-17 -0.38271380D-17
 -0.14692843D-03 -0.11246898D-03 -0.17261299D-18  0.31068074D-03  0.32428758D-03
 -0.65604669D-18  0.13010456D-03  0.13119370D-04  0.11738857D-17  0.34902026D-18
  0.16438209D-03  0.29646988D-03  0.43714466D-03 -0.63437190D-03  0.10332752D-03
 -0.40101634D-05  0.10379380D-02 -0.46738601D-03 -0.30472520D-18  0.10120912D-02
 -0.28633197D-03 -0.48981008D-19  0.10372132D-04 -0.14051673D-04  0.53983652D-19
 -0.17478514D-02  0.62252485D-03  0.11253265D-02  0.18334573D-02  0.39693770D-18
 -0.30263648D-18 -0.77523441D-04  0.43081347D-04  0.34442094D-04  0.15944852D-04
  0.21020595D-19  0.16822730D-18
MO    3     MO 0.0        OCC NO =    2.0000000  ORB. ENERGY =  -10.730083
  0.32875489D+00  0.61287385D+00  0.10358648D+01  0.15572441D+01  0.19132543D+01
  0.16160491D+01  0.60951426D+00 -0.30165201D-02 -0.21125361D-02 -0.39553340D-02
 -0.67342946D-02 -0.10416930D-01 -0.13718730D-01 -0.14254639D-01 -0.90581834D-02
  0.60705839D-02  0.34682971D-01  0.31830396D-02  0.10279010D-02 -0.98685042D-03
 -0.92523500D-03 -0.65882244D-03  0.88535061D-03  0.83007248D-03  0.59106105D-03
  0.24820326D-17  0.23270633D-17  0.16570077D-17 -0.87851232D-03 -0.65860920D-03
 -0.77705989D-18  0.10959502D-03 -0.71902098D-03 -0.33251195D-19  0.31494348D-04
 -0.67602269D-04  0.48669591D-20 -0.22560446D-02  0.62012222D-02 -0.39451776D-02
 -0.80171373D-02  0.13420166D-18 -0.22906575D-18  0.10029940D-03 -0.56233004D-03
  0.46203064D-03  0.11526215D-02  0.87251489D-19 -0.19397000D-18  0.21881272D-04
 -0.46114060D-04  0.24232788D-04  0.71300004D-04  0.94342511D-20 -0.21354300D-19
  0.14944034D-03 -0.25271336D-03  0.17988640D-18 -0.96931571D-03  0.11016440D-02
 -0.99407631D-19  0.52099469D-03 -0.34350392D-03 -0.44025157D-18  0.58470597D-18
 -0.10117192D-04 -0.10331669D-04  0.43243804D-20  0.45797552D-04  0.18010556D-04
  0.20317124D-19 -0.15445976D-04  0.12984452D-04 -0.33290266D-19  0.40208187D-19
  0.32764900D-03  0.61069558D-03  0.10355374D-02  0.15673340D-02  0.19555753D-02
  0.16795783D-02  0.64482278D-03 -0.28843319D-05 -0.38752822D-03 -0.72681878D-03
 -0.12390667D-02 -0.19364201D-02 -0.25893626D-02 -0.27648355D-02 -0.16903662D-02
  0.11152010D-02  0.10285527D-02 -0.91497368D-03 -0.62018642D-03  0.13544930D-02
  0.13134026D-02  0.88601365D-03 -0.32461259D-02 -0.31476502D-02 -0.21233862D-02
  0.34276609D-19  0.33236781D-19  0.22421336D-19 -0.41047408D-03  0.13716459D-02
  0.32187146D-18 -0.70224727D-03  0.17874162D-02  0.27413702D-18 -0.51800649D-04
  0.11220800D-03  0.46230392D-20 -0.48415557D-03  0.12971454D-02 -0.81298988D-03
 -0.17410217D-02 -0.15644342D-18 -0.71881747D-20  0.82519932D-03 -0.21207090D-02
  0.12955097D-02  0.26528789D-02  0.37022834D-18 -0.44028614D-18  0.10728961D-03
 -0.34696672D-03  0.23967711D-03  0.51238040D-03  0.54183576D-19 -0.11773119D-18
  0.40259952D-03  0.63763483D-03  0.93041988D-19 -0.16244633D-02 -0.60086925D-03
 -0.77363246D-19  0.41666470D-03 -0.13120352D-02 -0.20176272D-18  0.61711032D-19
  0.29727084D-03  0.39221251D-03 -0.68036838D-19 -0.13125800D-02 -0.22286165D-03
  0.95223091D-20  0.42076749D-03 -0.95377587D-03  0.19458821D-18 -0.31966051D-18
  0.17044430D-03  0.31759786D-03  0.53713761D-03  0.80889947D-03  0.10014700D-02
  0.85220579D-03  0.32428002D-03 -0.15187417D-05 -0.27702340D-03 -0.51942146D-03
 -0.88369046D-03 -0.13722780D-02 -0.18210927D-02 -0.19191817D-02 -0.11900151D-02
  0.79159850D-03  0.14274087D-02 -0.42054353D-02 -0.17198005D-02 -0.51182590D-03
 -0.49160266D-03 -0.34474572D-03  0.24316805D-02  0.23356000D-02  0.16378840D-02
  0.28270833D-18  0.27153798D-18  0.19042117D-18 -0.23790582D-03 -0.82387862D-03
  0.24750765D-18  0.42064025D-03 -0.17368282D-02 -0.13809879D-18  0.41423278D-04
 -0.11815769D-03 -0.15083475D-19 -0.79576208D-04  0.36384586D-03 -0.28426965D-03
 -0.10753352D-02  0.86144424D-19  0.11475994D-18  0.17718491D-03 -0.14672848D-02
  0.12900999D-02  0.33056104D-02 -0.42107225D-18  0.54582934D-18  0.14233704D-04
 -0.13935239D-03  0.12511869D-03  0.34858988D-03 -0.34057582D-19 -0.17165678D-19
 -0.64827598D-03 -0.10018700D-02 -0.21360055D-18  0.24494523D-02  0.11928170D-02
 -0.11128454D-18 -0.50462434D-03  0.18127930D-02  0.75208618D-18 -0.52105826D-18
 -0.21954742D-03 -0.26786869D-03  0.22636733D-19  0.81334430D-03  0.38979013D-03
 -0.14648852D-18 -0.15470203D-03  0.41381595D-03  0.78578315D-19  0.36911128D-20
  0.98009030D-04  0.17676332D-03  0.26063742D-03  0.17170126D-02  0.51009740D-03
 -0.77050290D-04 -0.49942053D-03 -0.38250157D-03 -0.44013320D-19 -0.96665307D-03
  0.56187260D-04  0.37537879D-18 -0.79034622D-04 -0.82785820D-04  0.38687365D-19
  0.49890830D-03 -0.59442921D-03  0.95520906D-04  0.35073637D-03 -0.35552245D-18
  0.72387800D-19  0.66781016D-04 -0.82765573D-04  0.15984557D-04 -0.36428784D-04
 -0.87780981D-19  0.46004770D-19
MO    4     MO 0.0        OCC NO =    2.0000000  ORB. ENERGY =   -1.274828
 -0.61275992D-02 -0.11423238D-01 -0.19307285D-01 -0.29025173D-01 -0.35660779D-01
 -0.30121229D-01 -0.11360619D-01  0.56224338D-04 -0.32813748D-01 -0.61437691D-01
 -0.10460292D+00 -0.16180482D+00 -0.21309126D+00 -0.22141546D+00 -0.14069959D+00
  0.94293592D-01  0.45131821D-01  0.18912225D-01  0.45682101D-02 -0.99748340D-01
 -0.93520409D-01 -0.66592103D-01  0.20812686D+00  0.19513216D+00  0.13894573D+00
 -0.38073594D-15 -0.35696415D-15 -0.25417974D-15 -0.16704745D-01  0.25359238D-01
  0.26264555D-17  0.15292651D-02 -0.52405871D-02 -0.14500355D-16  0.18064536D-03
 -0.34971380D-03  0.21085729D-17 -0.11454686D-01  0.35413084D-01 -0.23958398D-01
 -0.51525695D-01 -0.47904976D-17 -0.99089621D-18 -0.14418975D-02  0.35291333D-02
 -0.20872358D-02 -0.30344090D-02  0.51081901D-17 -0.12645133D-16  0.42981208D-04
 -0.13069831D-03  0.87717106D-04  0.30168714D-03  0.22885521D-17 -0.36537680D-17
  0.17825602D-02  0.37158601D-03  0.19191094D-17 -0.85950134D-02  0.31684303D-02
  0.39542394D-17  0.32473327D-02 -0.42831883D-02 -0.97115675D-17  0.17315188D-17
 -0.10679019D-04 -0.43108962D-04  0.12143949D-17  0.19765774D-04  0.11601707D-03
  0.14007452D-17  0.12271281D-04  0.13309818D-04 -0.50439298D-17  0.55474994D-17
 -0.71546366D-02 -0.13335322D-01 -0.22612288D-01 -0.34224751D-01 -0.42702496D-01
 -0.36675749D-01 -0.14080533D-01  0.62983089D-04 -0.87830826D-01 -0.16472889D+00
 -0.28082665D+00 -0.43887739D+00 -0.58686269D+00 -0.62663253D+00 -0.38311084D+00
  0.25275327D+00  0.13324315D+00  0.56336048D-01  0.67847642D-04  0.19039261D+00
  0.18461679D+00  0.12454139D+00 -0.41094896D+00 -0.39848225D+00 -0.26881377D+00
 -0.10485608D-16 -0.10167513D-16 -0.68589442D-17  0.45365899D-01 -0.96534296D-01
  0.50969272D-17  0.10546611D-02 -0.18146720D-02  0.22978279D-16 -0.21937108D-03
  0.37038854D-03  0.56290690D-18 -0.13492422D-01  0.43953137D-01 -0.30460715D-01
 -0.68076177D-01 -0.54773105D-16  0.55625639D-16 -0.27942707D-02  0.10716042D-01
 -0.79217710D-02 -0.18365649D-01  0.14898077D-16 -0.18664675D-16  0.23216239D-03
 -0.83596973D-03  0.60380734D-03  0.12959924D-02  0.30301695D-18 -0.34666283D-17
 -0.55345119D-02 -0.59033547D-02 -0.16643945D-17  0.25394295D-01  0.21988295D-04
 -0.20882217D-18 -0.87907591D-02  0.17688076D-01  0.52020056D-17  0.71190821D-17
 -0.21194180D-03 -0.12105324D-03  0.12043883D-17  0.10558692D-02 -0.32842915D-03
 -0.40471528D-18 -0.42004384D-03  0.69158887D-03 -0.32084495D-17 -0.22126003D-17
 -0.10664467D-02 -0.19871665D-02 -0.33607967D-02 -0.50611736D-02 -0.62660612D-02
 -0.53321353D-02 -0.20289758D-02  0.95025595D-05 -0.77194400D-02 -0.14474022D-01
 -0.24624618D-01 -0.38239432D-01 -0.50745950D-01 -0.53479266D-01 -0.33160556D-01
  0.22058415D-01  0.12665934D-01 -0.15583989D-01 -0.80962803D-02 -0.11128593D-01
 -0.10688880D-01 -0.74957806D-02  0.46999456D-01  0.45142416D-01  0.31656978D-01
  0.36048714D-16  0.34624359D-16  0.24280990D-16 -0.58911543D-03  0.50898810D-02
  0.68337215D-17  0.30452121D-02 -0.83434039D-02 -0.86715168D-17  0.22313585D-03
 -0.65878378D-03 -0.22748016D-17 -0.51756881D-03  0.40989498D-02 -0.35813810D-02
 -0.60267755D-02 -0.50606219D-17  0.26736531D-16  0.20802556D-03 -0.23999744D-02
  0.21919489D-02  0.57730023D-02  0.46732188D-17 -0.68849956D-17  0.13859218D-03
 -0.58949641D-03  0.45090422D-03  0.99727279D-03 -0.69893502D-18 -0.60215587D-18
 -0.55191422D-03 -0.63584199D-03  0.87584219D-18  0.26102542D-02  0.52063185D-03
 -0.11197184D-16 -0.95451150D-03  0.13868941D-02  0.85696578D-17 -0.36863061D-17
 -0.46043150D-03 -0.29408564D-03  0.15272832D-17  0.18050446D-02 -0.21475399D-04
  0.21970928D-17 -0.42375015D-03  0.90373231D-03 -0.67789426D-17  0.77246611D-17
  0.14520352D-02  0.26188052D-02  0.38614268D-02  0.35420068D-02  0.62414982D-03
 -0.41972869D-03 -0.16015971D-02 -0.14618408D-03 -0.31988453D-18 -0.16838891D-02
  0.17396857D-02  0.56589352D-17  0.16562883D-04 -0.23759716D-03 -0.12465256D-17
  0.34261819D-03 -0.38131394D-03  0.38695744D-04 -0.33612221D-03 -0.31217848D-17
  0.34587940D-17  0.62291646D-04 -0.31858461D-04 -0.30433185D-04 -0.36175011D-03
 -0.13865880D-17 -0.62512606D-17
MO    5     MO 0.0        OCC NO =    2.0000000  ORB. ENERGY =   -1.086628
 -0.39159394D-02 -0.73002013D-02 -0.12338626D-01 -0.18548997D-01 -0.22789586D-01
 -0.19249448D-01 -0.72601837D-02  0.35931054D-04 -0.26729505D-01 -0.50046067D-01
 -0.85207711D-01 -0.13180337D+00 -0.17358041D+00 -0.18036116D+00 -0.11461142D+00
  0.76809909D-01  0.35701018D-01  0.12351782D-01  0.30973249D-02  0.12005554D+00
  0.11255970D+00  0.80149214D-01 -0.30727909D+00 -0.28809368D+00 -0.20513986D+00
  0.55389378D-15  0.51931063D-15  0.36978011D-15  0.13703360D-01 -0.42406321D-01
 -0.17117298D-16 -0.13666429D-02  0.16707713D-02  0.49839134D-16  0.92248226D-04
 -0.15477816D-03 -0.49245472D-19 -0.95304411D-02  0.23788609D-01 -0.14258168D-01
 -0.25815481D-01 -0.10017017D-16  0.15675729D-15 -0.36613006D-03  0.12308923D-02
 -0.86476221D-03 -0.12108507D-02 -0.74113425D-17 -0.84503503D-17  0.63070995D-04
 -0.18434736D-03  0.12127636D-03  0.36091245D-03 -0.20285445D-17 -0.10047504D-17
 -0.11354498D-02 -0.36456317D-02 -0.27647731D-17  0.50044866D-02  0.45378741D-02
 -0.22385067D-17 -0.15981373D-02  0.63990211D-02  0.10532826D-16  0.89709323D-17
  0.70961814D-04  0.20457970D-03 -0.41056040D-17 -0.43264190D-03 -0.90452428D-04
 -0.11239389D-17  0.21975646D-03 -0.52328667D-03  0.13440751D-16 -0.16892496D-16
  0.15437251D-02  0.28773049D-02  0.48789558D-02  0.73845269D-02  0.92137335D-02
  0.79133682D-02  0.30380959D-02 -0.13589590D-04  0.20699336D-01  0.38822118D-01
  0.66183200D-01  0.10343146D+00  0.13830757D+00  0.14768024D+00  0.90288802D-01
 -0.59567068D-01 -0.30683426D-01 -0.26430034D-01 -0.43060489D-02 -0.29670421D-01
 -0.28770327D-01 -0.19408293D-01  0.46175433D-01  0.44774637D-01  0.30204706D-01
  0.52342482D-16  0.50754601D-16  0.34238754D-16 -0.92263005D-02  0.17437137D-01
  0.18466712D-17 -0.31092547D-02  0.70867183D-02 -0.36791862D-16 -0.27096998D-03
  0.52063295D-03 -0.15009062D-17  0.13272865D-02 -0.60943776D-02  0.47670910D-02
  0.12012244D-01  0.51317041D-16 -0.45513403D-16  0.23418680D-02 -0.63389185D-02
  0.39970506D-02  0.84562825D-02 -0.99630083D-17  0.58479199D-17  0.27240747D-03
 -0.91473693D-03  0.64232946D-03  0.11277625D-02 -0.53826230D-18  0.13605272D-16
  0.20600817D-02  0.22426397D-02  0.50253259D-18 -0.85144884D-02 -0.13729858D-02
 -0.73755406D-17  0.23342432D-02 -0.53549332D-02  0.58679428D-17  0.16198023D-16
  0.46444267D-03  0.75644930D-03 -0.13039223D-17 -0.20674518D-02 -0.54417829D-03
 -0.14104142D-17  0.67412379D-03 -0.17251696D-02  0.53221811D-17 -0.44860206D-17
 -0.77558963D-02 -0.14451971D-01 -0.24441906D-01 -0.36808155D-01 -0.45570884D-01
 -0.38778766D-01 -0.14756036D-01  0.69108811D-04 -0.67105498D-01 -0.12582344D+00
 -0.21406310D+00 -0.33241740D+00 -0.44113722D+00 -0.46489807D+00 -0.28826646D+00
  0.19175496D+00  0.91250279D-01  0.43253116D-01 -0.33255456D-02  0.98555528D-02
  0.94661407D-02  0.66383113D-02  0.27945832D+00  0.26841637D+00  0.18823209D+00
  0.11457534D-15  0.11004825D-15  0.77173426D-16  0.63779926D-02  0.68585529D-01
  0.24598589D-16  0.18762135D-02  0.17701000D-02 -0.26173021D-16  0.12935286D-03
 -0.41293883D-03 -0.91081441D-18 -0.45283347D-02  0.34047642D-01 -0.29519307D-01
 -0.39121383D-01  0.15003674D-16  0.18260727D-16 -0.15832511D-02  0.83549940D-02
 -0.67717429D-02 -0.96402066D-02 -0.14098156D-16 -0.13460717D-16 -0.13762723D-03
 -0.14595935D-03  0.28358658D-03  0.49998934D-03  0.41577113D-17 -0.54724390D-17
  0.47343854D-02  0.73485750D-02  0.27630301D-18 -0.14403534D-01 -0.93674140D-02
  0.45148481D-17  0.20037746D-03 -0.12678311D-01 -0.53437571D-17 -0.13636459D-16
 -0.62879758D-05  0.81086972D-03 -0.59843378D-18  0.22186754D-03 -0.19937671D-02
 -0.53857696D-17 -0.20300361D-03 -0.43884204D-03  0.71810710D-17 -0.63796656D-18
  0.16853788D-01  0.30396501D-01  0.44819623D-01  0.16567804D-01  0.47868381D-03
 -0.33498556D-03 -0.16327073D-01  0.72803152D-02  0.31535961D-17 -0.81113579D-03
  0.51792124D-02  0.88149288D-17  0.35740464D-03  0.15846521D-03  0.32600547D-17
  0.11998842D-02  0.43974894D-05 -0.12042817D-02 -0.44903658D-02 -0.23367677D-17
 -0.14234748D-17 -0.50330094D-03  0.46794342D-03  0.35357517D-04 -0.70293957D-03
 -0.28361928D-17  0.49267698D-17
MO    6     MO 0.0        OCC NO =    2.0000000  ORB. ENERGY =   -0.700653
 -0.16914683D-02 -0.31532814D-02 -0.53296011D-02 -0.80121362D-02 -0.98438350D-02
 -0.83146924D-02 -0.31359960D-02  0.15520219D-04 -0.32678770D-01 -0.61184969D-01
 -0.10417264D+00 -0.16113924D+00 -0.21221471D+00 -0.22050468D+00 -0.14012082D+00
  0.93905718D-01  0.45107018D-01  0.16888561D-01  0.21369752D-02 -0.40923779D-01
 -0.38368644D-01 -0.27320760D-01 -0.18747033D+00 -0.17576535D+00 -0.12515540D+00
  0.10223583D-14  0.95852591D-15  0.68252755D-15 -0.17388658D-01 -0.38136194D-01
  0.10189665D-15 -0.88736137D-03 -0.26123579D-02 -0.81612319D-16  0.52659060D-04
 -0.96238056D-04 -0.29884806D-17 -0.10479468D-01  0.21727695D-01 -0.11248227D-01
 -0.85054527D-02  0.37215323D-15 -0.31445618D-15 -0.13523223D-02  0.16653830D-02
 -0.31306065D-03  0.19724820D-02 -0.12844907D-16 -0.36685073D-16 -0.13525878D-03
  0.12664038D-03  0.86183997D-05  0.73952926D-04  0.79054753D-19  0.41593657D-17
 -0.36769235D-03 -0.63743231D-02 -0.11575615D-16 -0.98859282D-04  0.12309341D-01
 -0.14618010D-18  0.12019363D-02  0.68136288D-02  0.34873025D-16 -0.42539225D-16
 -0.22914304D-04 -0.21129991D-03  0.47315312D-17  0.16367764D-03  0.39904050D-03
 -0.17041078D-17 -0.94934726D-04  0.23485924D-03 -0.12490486D-16  0.23841100D-16
  0.34479583D-03  0.64265506D-03  0.10897300D-02  0.16493572D-02  0.20579162D-02
  0.17674756D-02  0.67856823D-03 -0.30352773D-05  0.23867836D-01  0.44764717D-01
  0.76314030D-01  0.11926397D+00  0.15947866D+00  0.17028603D+00  0.10410954D+00
 -0.68685149D-01 -0.38307095D-01 -0.32308340D-01 -0.22808167D-02  0.27849928D-01
  0.27005062D-01  0.18217455D-01 -0.37374294D+00 -0.36240493D+00 -0.24447623D+00
  0.12744676D-14  0.12358049D-14  0.83366668D-15  0.64426870D-02 -0.82442051D-01
  0.27847577D-15 -0.56751002D-03 -0.69506856D-02  0.12957792D-15 -0.96698906D-04
  0.86718719D-05  0.41704119D-17 -0.12040070D-01  0.21682281D-01 -0.96422116D-02
 -0.10533897D-01 -0.32508722D-15 -0.29948023D-15 -0.83182846D-03  0.19837438D-02
 -0.11519153D-02 -0.15385252D-02  0.55139630D-16 -0.33846173D-17  0.15407408D-03
 -0.26996208D-03  0.11588800D-03  0.38122041D-03  0.11892291D-16 -0.52082156D-16
 -0.53361278D-03 -0.21707347D-02 -0.66426644D-17  0.21493146D-02  0.32963429D-02
 -0.52247293D-16 -0.54847631D-03  0.32158613D-02  0.72175286D-16  0.51742930D-16
  0.70649087D-04  0.27667148D-03 -0.16234049D-17 -0.43227168D-04 -0.91782463D-03
  0.62801871D-17 -0.16872009D-03  0.87810180D-04 -0.14099725D-17 -0.13385083D-16
  0.91750657D-03  0.17096384D-02  0.28914271D-02  0.43543290D-02  0.53909418D-02