 Molden2AIM, Version 4.0.0 (06/02/2016)           Time: Tue Jul  3 03:49:42 2018
GAUSSIAN             24 MOL ORBITALS    412 PRIMITIVES        4 NUCLEI
  Cl   1    (CENTRE  1)  -0.52931418  0.00000000 -1.22169849  CHARGE = 17.0
  N    2    (CENTRE  2)   0.00187650  0.00000000  2.07950754  CHARGE =  7.0
  N    3    (CENTRE  3)   2.26698538  0.00000000  2.46467719  CHARGE =  7.0
  Cl   4    (CENTRE  4)   2.79817416  0.00000000  5.76588322  CHARGE = 17.0
CENTRE ASSIGNMENTS    1  1  1  1  1  1  1  1  1  1  1  1  1  1  1  1  1  1  1  1
CENTRE ASSIGNMENTS    1  1  1  1  1  1  1  1  1  1  1  1  1  1  1  1  1  1  1  1
CENTRE ASSIGNMENTS    1  1  1  1  1  1  1  1  1  1  1  1  1  1  1  1  1  1  1  1
CENTRE ASSIGNMENTS    1  1  1  1  1  1  1  1  1  1  1  1  1  1  1  1  1  1  1  1
CENTRE ASSIGNMENTS    1  1  1  1  1  1  1  1  1  1  1  1  1  1  1  1  1  1  1  1
CENTRE ASSIGNMENTS    1  1  1  1  1  1  1  1  1  1  1  1  1  1  1  1  1  1  1  1
CENTRE ASSIGNMENTS    1  1  1  1  1  1  1  1  1  1  1  2  2  2  2  2  2  2  2  2
CENTRE ASSIGNMENTS    2  2  2  2  2  2  2  2  2  2  2  2  2  2  2  2  2  2  2  2
CENTRE ASSIGNMENTS    2  2  2  2  2  2  2  2  2  2  2  2  2  2  2  2  2  2  2  2
CENTRE ASSIGNMENTS    2  2  2  2  2  2  2  2  2  2  2  2  2  2  2  2  2  2  2  2
CENTRE ASSIGNMENTS    2  2  2  2  2  2  3  3  3  3  3  3  3  3  3  3  3  3  3  3
CENTRE ASSIGNMENTS    3  3  3  3  3  3  3  3  3  3  3  3  3  3  3  3  3  3  3  3
CENTRE ASSIGNMENTS    3  3  3  3  3  3  3  3  3  3  3  3  3  3  3  3  3  3  3  3
CENTRE ASSIGNMENTS    3  3  3  3  3  3  3  3  3  3  3  3  3  3  3  3  3  3  3  3
CENTRE ASSIGNMENTS    3  4  4  4  4  4  4  4  4  4  4  4  4  4  4  4  4  4  4  4
CENTRE ASSIGNMENTS    4  4  4  4  4  4  4  4  4  4  4  4  4  4  4  4  4  4  4  4
CENTRE ASSIGNMENTS    4  4  4  4  4  4  4  4  4  4  4  4  4  4  4  4  4  4  4  4
CENTRE ASSIGNMENTS    4  4  4  4  4  4  4  4  4  4  4  4  4  4  4  4  4  4  4  4
CENTRE ASSIGNMENTS    4  4  4  4  4  4  4  4  4  4  4  4  4  4  4  4  4  4  4  4
CENTRE ASSIGNMENTS    4  4  4  4  4  4  4  4  4  4  4  4  4  4  4  4  4  4  4  4
CENTRE ASSIGNMENTS    4  4  4  4  4  4  4  4  4  4  4  4
TYPE ASSIGNMENTS      1  1  1  1  1  1  1  1  1  1  1  1  1  1  1  1  1  1  1  1
TYPE ASSIGNMENTS      1  1  1  1  1  1  1  1  1  1  1  1  1  1  1  1  1  1  1  1
TYPE ASSIGNMENTS      1  1  2  2  2  2  2  2  2  3  3  3  3  3  3  3  4  4  4  4
TYPE ASSIGNMENTS      4  4  4  2  2  2  2  2  2  2  3  3  3  3  3  3  3  4  4  4
TYPE ASSIGNMENTS      4  4  4  4  2  3  4  2  3  4  2  3  4  5  6  7  8  9 10  5
TYPE ASSIGNMENTS      6  7  8  9 10  5  6  7  8  9 10 11 12 13 17 14 15 18 19 16
TYPE ASSIGNMENTS     20 11 12 13 17 14 15 18 19 16 20  1  1  1  1  1  1  1  1  1
TYPE ASSIGNMENTS      1  1  1  1  1  1  1  1  1  1  2  2  2  3  3  3  4  4  4  2
TYPE ASSIGNMENTS      3  4  2  3  4  2  3  4  5  6  7  8  9 10  5  6  7  8  9 10
TYPE ASSIGNMENTS      5  6  7  8  9 10 11 12 13 17 14 15 18 19 16 20 11 12 13 17
TYPE ASSIGNMENTS     14 15 18 19 16 20  1  1  1  1  1  1  1  1  1  1  1  1  1  1
TYPE ASSIGNMENTS      1  1  1  1  1  2  2  2  3  3  3  4  4  4  2  3  4  2  3  4
TYPE ASSIGNMENTS      2  3  4  5  6  7  8  9 10  5  6  7  8  9 10  5  6  7  8  9
TYPE ASSIGNMENTS     10 11 12 13 17 14 15 18 19 16 20 11 12 13 17 14 15 18 19 16
TYPE ASSIGNMENTS     20  1  1  1  1  1  1  1  1  1  1  1  1  1  1  1  1  1  1  1
TYPE ASSIGNMENTS      1  1  1  1  1  1  1  1  1  1  1  1  1  1  1  1  1  1  1  1
TYPE ASSIGNMENTS      1  1  1  2  2  2  2  2  2  2  3  3  3  3  3  3  3  4  4  4
TYPE ASSIGNMENTS      4  4  4  4  2  2  2  2  2  2  2  3  3  3  3  3  3  3  4  4
TYPE ASSIGNMENTS      4  4  4  4  4  2  3  4  2  3  4  2  3  4  5  6  7  8  9 10
TYPE ASSIGNMENTS      5  6  7  8  9 10  5  6  7  8  9 10 11 12 13 17 14 15 18 19
TYPE ASSIGNMENTS     16 20 11 12 13 17 14 15 18 19 16 20
EXPONENTS  0.4561000D+06 0.6833000D+05 0.1555000D+05 0.4405000D+04 0.1439000D+04
EXPONENTS  0.5204000D+03 0.2031000D+03 0.8396000D+02 0.3620000D+02 0.1583000D+02
EXPONENTS  0.6334000D+01 0.2694000D+01 0.4313000D+00 0.4561000D+06 0.6833000D+05
EXPONENTS  0.1555000D+05 0.4405000D+04 0.1439000D+04 0.5204000D+03 0.2031000D+03
EXPONENTS  0.8396000D+02 0.3620000D+02 0.1583000D+02 0.6334000D+01 0.2694000D+01
EXPONENTS  0.4313000D+00 0.4561000D+06 0.6833000D+05 0.1555000D+05 0.4405000D+04
EXPONENTS  0.1439000D+04 0.5204000D+03 0.2031000D+03 0.8396000D+02 0.3620000D+02
EXPONENTS  0.1583000D+02 0.6334000D+01 0.2694000D+01 0.4313000D+00 0.9768000D+00
EXPONENTS  0.1625000D+00 0.5910000D-01 0.6633000D+03 0.1568000D+03 0.4998000D+02
EXPONENTS  0.1842000D+02 0.7240000D+01 0.2922000D+01 0.3818000D+00 0.6633000D+03
EXPONENTS  0.1568000D+03 0.4998000D+02 0.1842000D+02 0.7240000D+01 0.2922000D+01
EXPONENTS  0.3818000D+00 0.6633000D+03 0.1568000D+03 0.4998000D+02 0.1842000D+02
EXPONENTS  0.7240000D+01 0.2922000D+01 0.3818000D+00 0.6633000D+03 0.1568000D+03
EXPONENTS  0.4998000D+02 0.1842000D+02 0.7240000D+01 0.2922000D+01 0.3818000D+00
EXPONENTS  0.6633000D+03 0.1568000D+03 0.4998000D+02 0.1842000D+02 0.7240000D+01
EXPONENTS  0.2922000D+01 0.3818000D+00 0.6633000D+03 0.1568000D+03 0.4998000D+02
EXPONENTS  0.1842000D+02 0.7240000D+01 0.2922000D+01 0.3818000D+00 0.1022000D+01
EXPONENTS  0.1022000D+01 0.1022000D+01 0.1301000D+00 0.1301000D+00 0.1301000D+00
EXPONENTS  0.4190000D-01 0.4190000D-01 0.4190000D-01 0.1046000D+01 0.1046000D+01
EXPONENTS  0.1046000D+01 0.1046000D+01 0.1046000D+01 0.1046000D+01 0.3440000D+00
EXPONENTS  0.3440000D+00 0.3440000D+00 0.3440000D+00 0.3440000D+00 0.3440000D+00
EXPONENTS  0.1350000D+00 0.1350000D+00 0.1350000D+00 0.1350000D+00 0.1350000D+00
EXPONENTS  0.1350000D+00 0.7060000D+00 0.7060000D+00 0.7060000D+00 0.7060000D+00
EXPONENTS  0.7060000D+00 0.7060000D+00 0.7060000D+00 0.7060000D+00 0.7060000D+00
EXPONENTS  0.7060000D+00 0.3120000D+00 0.3120000D+00 0.3120000D+00 0.3120000D+00
EXPONENTS  0.3120000D+00 0.3120000D+00 0.3120000D+00 0.3120000D+00 0.3120000D+00
EXPONENTS  0.3120000D+00 0.1142000D+05 0.1712000D+04 0.3893000D+03 0.1100000D+03
EXPONENTS  0.3557000D+02 0.1254000D+02 0.4644000D+01 0.5118000D+00 0.1142000D+05
EXPONENTS  0.1712000D+04 0.3893000D+03 0.1100000D+03 0.3557000D+02 0.1254000D+02
EXPONENTS  0.4644000D+01 0.5118000D+00 0.1293000D+01 0.1787000D+00 0.5760000D-01
EXPONENTS  0.2663000D+02 0.5948000D+01 0.1742000D+01 0.2663000D+02 0.5948000D+01
EXPONENTS  0.1742000D+01 0.2663000D+02 0.5948000D+01 0.1742000D+01 0.5550000D+00
EXPONENTS  0.5550000D+00 0.5550000D+00 0.1725000D+00 0.1725000D+00 0.1725000D+00
EXPONENTS  0.4910000D-01 0.4910000D-01 0.4910000D-01 0.1654000D+01 0.1654000D+01
EXPONENTS  0.1654000D+01 0.1654000D+01 0.1654000D+01 0.1654000D+01 0.4690000D+00
EXPONENTS  0.4690000D+00 0.4690000D+00 0.4690000D+00 0.4690000D+00 0.4690000D+00
EXPONENTS  0.1510000D+00 0.1510000D+00 0.1510000D+00 0.1510000D+00 0.1510000D+00
EXPONENTS  0.1510000D+00 0.1093000D+01 0.1093000D+01 0.1093000D+01 0.1093000D+01
EXPONENTS  0.1093000D+01 0.1093000D+01 0.1093000D+01 0.1093000D+01 0.1093000D+01
EXPONENTS  0.1093000D+01 0.3640000D+00 0.3640000D+00 0.3640000D+00 0.3640000D+00
EXPONENTS  0.3640000D+00 0.3640000D+00 0.3640000D+00 0.3640000D+00 0.3640000D+00
EXPONENTS  0.3640000D+00 0.1142000D+05 0.1712000D+04 0.3893000D+03 0.1100000D+03
EXPONENTS  0.3557000D+02 0.1254000D+02 0.4644000D+01 0.5118000D+00 0.1142000D+05
EXPONENTS  0.1712000D+04 0.3893000D+03 0.1100000D+03 0.3557000D+02 0.1254000D+02
EXPONENTS  0.4644000D+01 0.5118000D+00 0.1293000D+01 0.1787000D+00 0.5760000D-01
EXPONENTS  0.2663000D+02 0.5948000D+01 0.1742000D+01 0.2663000D+02 0.5948000D+01
EXPONENTS  0.1742000D+01 0.2663000D+02 0.5948000D+01 0.1742000D+01 0.5550000D+00
EXPONENTS  0.5550000D+00 0.5550000D+00 0.1725000D+00 0.1725000D+00 0.1725000D+00
EXPONENTS  0.4910000D-01 0.4910000D-01 0.4910000D-01 0.1654000D+01 0.1654000D+01
EXPONENTS  0.1654000D+01 0.1654000D+01 0.1654000D+01 0.1654000D+01 0.4690000D+00
EXPONENTS  0.4690000D+00 0.4690000D+00 0.4690000D+00 0.4690000D+00 0.4690000D+00
EXPONENTS  0.1510000D+00 0.1510000D+00 0.1510000D+00 0.1510000D+00 0.1510000D+00
EXPONENTS  0.1510000D+00 0.1093000D+01 0.1093000D+01 0.1093000D+01 0.1093000D+01
EXPONENTS  0.1093000D+01 0.1093000D+01 0.1093000D+01 0.1093000D+01 0.1093000D+01
EXPONENTS  0.1093000D+01 0.3640000D+00 0.3640000D+00 0.3640000D+00 0.3640000D+00
EXPONENTS  0.3640000D+00 0.3640000D+00 0.3640000D+00 0.3640000D+00 0.3640000D+00
EXPONENTS  0.3640000D+00 0.4561000D+06 0.6833000D+05 0.1555000D+05 0.4405000D+04
EXPONENTS  0.1439000D+04 0.5204000D+03 0.2031000D+03 0.8396000D+02 0.3620000D+02
EXPONENTS  0.1583000D+02 0.6334000D+01 0.2694000D+01 0.4313000D+00 0.4561000D+06
EXPONENTS  0.6833000D+05 0.1555000D+05 0.4405000D+04 0.1439000D+04 0.5204000D+03
EXPONENTS  0.2031000D+03 0.8396000D+02 0.3620000D+02 0.1583000D+02 0.6334000D+01
EXPONENTS  0.2694000D+01 0.4313000D+00 0.4561000D+06 0.6833000D+05 0.1555000D+05
EXPONENTS  0.4405000D+04 0.1439000D+04 0.5204000D+03 0.2031000D+03 0.8396000D+02
EXPONENTS  0.3620000D+02 0.1583000D+02 0.6334000D+01 0.2694000D+01 0.4313000D+00
EXPONENTS  0.9768000D+00 0.1625000D+00 0.5910000D-01 0.6633000D+03 0.1568000D+03
EXPONENTS  0.4998000D+02 0.1842000D+02 0.7240000D+01 0.2922000D+01 0.3818000D+00
EXPONENTS  0.6633000D+03 0.1568000D+03 0.4998000D+02 0.1842000D+02 0.7240000D+01
EXPONENTS  0.2922000D+01 0.3818000D+00 0.6633000D+03 0.1568000D+03 0.4998000D+02
EXPONENTS  0.1842000D+02 0.7240000D+01 0.2922000D+01 0.3818000D+00 0.6633000D+03
EXPONENTS  0.1568000D+03 0.4998000D+02 0.1842000D+02 0.7240000D+01 0.2922000D+01
EXPONENTS  0.3818000D+00 0.6633000D+03 0.1568000D+03 0.4998000D+02 0.1842000D+02
EXPONENTS  0.7240000D+01 0.2922000D+01 0.3818000D+00 0.6633000D+03 0.1568000D+03
EXPONENTS  0.4998000D+02 0.1842000D+02 0.7240000D+01 0.2922000D+01 0.3818000D+00
EXPONENTS  0.1022000D+01 0.1022000D+01 0.1022000D+01 0.1301000D+00 0.1301000D+00
EXPONENTS  0.1301000D+00 0.4190000D-01 0.4190000D-01 0.4190000D-01 0.1046000D+01
EXPONENTS  0.1046000D+01 0.1046000D+01 0.1046000D+01 0.1046000D+01 0.1046000D+01
EXPONENTS  0.3440000D+00 0.3440000D+00 0.3440000D+00 0.3440000D+00 0.3440000D+00
EXPONENTS  0.3440000D+00 0.1350000D+00 0.1350000D+00 0.1350000D+00 0.1350000D+00
EXPONENTS  0.1350000D+00 0.1350000D+00 0.7060000D+00 0.7060000D+00 0.7060000D+00
EXPONENTS  0.7060000D+00 0.7060000D+00 0.7060000D+00 0.7060000D+00 0.7060000D+00
EXPONENTS  0.7060000D+00 0.7060000D+00 0.3120000D+00 0.3120000D+00 0.3120000D+00
EXPONENTS  0.3120000D+00 0.3120000D+00 0.3120000D+00 0.3120000D+00 0.3120000D+00
EXPONENTS  0.3120000D+00 0.3120000D+00
MO    1     MO 0.0        OCC NO =    2.0000000  ORB. ENERGY = -102.824526
  0.41711143D+00  0.78041709D+00  0.13483878D+01  0.21858940D+01  0.33194544D+01
  0.46136512D+01  0.54849657D+01  0.48855856D+01  0.24253510D+01  0.39076290D+00
  0.59992514D-02  0.10720603D-02  0.40061222D-04 -0.35447078D-03 -0.66210051D-03
 -0.11491076D-02 -0.18645346D-02 -0.28860781D-02 -0.41311585D-02 -0.53924523D-02
 -0.57465578D-02 -0.42956686D-02 -0.22676071D-03  0.29137626D-02  0.17311098D-02
 -0.64903638D-05  0.14580652D-03  0.27212686D-03  0.47293253D-03  0.76648450D-03
  0.11904704D-02  0.17053833D-02  0.22517997D-02  0.24348634D-02  0.19089645D-02
  0.94989441D-04 -0.16364652D-02 -0.16940449D-02  0.76657926D-03 -0.11491427D-02
 -0.23327730D-03 -0.76305905D-04  0.79663742D-03  0.10493503D-02  0.11576792D-02
  0.96158563D-03  0.51072149D-03  0.13172997D-03 -0.13541393D-06 -0.53709040D-17
 -0.70746860D-17 -0.78050360D-17 -0.64829795D-17 -0.34432679D-17 -0.88811924D-18
  0.91295638D-21  0.34329899D-02  0.45220182D-02  0.49888454D-02  0.41438096D-02
  0.22008779D-02  0.56767061D-03 -0.58354609D-06 -0.64828442D-03 -0.85114992D-03
 -0.96909680D-03 -0.82059137D-03 -0.47006633D-03 -0.10692378D-03  0.50046215D-04
  0.36715337D-17  0.48204547D-17  0.54884423D-17  0.46473875D-17  0.26622025D-17
  0.60555870D-18 -0.28343480D-18 -0.27376717D-02 -0.35943623D-02 -0.40924459D-02
 -0.34653151D-02 -0.19850659D-02 -0.45153362D-03  0.21134259D-03 -0.27195313D-04
  0.71764848D-18 -0.14221517D-03 -0.25037512D-04  0.34782691D-19 -0.12439636D-03
 -0.28624582D-06 -0.26436974D-20 -0.48301487D-05 -0.20745670D-04 -0.66975275D-04
  0.87720945D-04 -0.11578410D-19  0.72657785D-04  0.14084696D-18 -0.12942123D-04
  0.14678338D-05  0.11474289D-04 -0.71966461D-20 -0.44394158D-05 -0.57020670D-19
  0.86735217D-05  0.13150725D-04 -0.21824247D-04  0.16993309D-20 -0.14499475D-04
  0.58225535D-20 -0.39583657D-05  0.20536541D-19  0.50446039D-04 -0.36633816D-04
 -0.31619560D-20 -0.44116702D-04  0.48508913D-04 -0.58447667D-19 -0.10722141D-03
 -0.41271366D-19  0.20194178D-05 -0.87537374D-21 -0.14028321D-04  0.16441831D-04
  0.73070739D-20  0.48022628D-05 -0.22500084D-04 -0.46809527D-20  0.37282699D-04
  0.63126877D-20  0.15835544D-04  0.29507205D-04  0.49904081D-04  0.75152780D-04
  0.93044017D-04  0.79176260D-04  0.30128027D-04 -0.14110241D-06 -0.13137806D-04
 -0.24633508D-04 -0.41908927D-04 -0.65080138D-04 -0.86365129D-04 -0.91016990D-04
 -0.56436340D-04  0.37541475D-04  0.47602295D-04  0.16436793D-03  0.68951725D-04
 -0.26607422D-04 -0.25556111D-04 -0.17921709D-04  0.10409091D-19  0.99978075D-20
  0.70111527D-20  0.42975066D-04  0.41277037D-04  0.28946307D-04  0.39011650D-04
 -0.78897946D-20 -0.14204811D-03 -0.38028584D-04  0.40174111D-19  0.12340003D-03
 -0.28020988D-05  0.13322815D-22 -0.72664665D-05 -0.96595755D-05 -0.89613399D-04
  0.99272975D-04  0.17137083D-19  0.18765709D-04  0.14870973D-18  0.32888364D-05
  0.39079667D-04 -0.42368503D-04 -0.59233206D-20 -0.50091941D-04 -0.57694462D-19
 -0.89487863D-05  0.95119997D-06  0.79975863D-05  0.12159055D-19  0.46920850D-04
  0.21718803D-20  0.33776389D-04  0.37039097D-19 -0.14722558D-04 -0.29884690D-04
 -0.24696450D-19 -0.32530128D-04 -0.71444476D-04 -0.86420840D-19  0.76697803D-04
 -0.42621414D-19 -0.17535990D-04 -0.14941753D-19  0.33829229D-04  0.67219439D-05
 -0.25997437D-20 -0.40895033D-04  0.45886025D-04  0.47425002D-19 -0.60592654D-04
  0.19693560D-19  0.16777218D-04  0.31261875D-04  0.52871668D-04  0.79621802D-04
  0.98576956D-04  0.83884541D-04  0.31919615D-04 -0.14949318D-06 -0.13802870D-04
 -0.25880510D-04 -0.44030448D-04 -0.68374637D-04 -0.90737120D-04 -0.95624469D-04
 -0.59293271D-04  0.39441907D-04  0.47822409D-04  0.17147059D-03  0.71593767D-04
  0.25165190D-04  0.24170864D-04  0.16950278D-04  0.82958769D-20  0.79680906D-20
  0.55877751D-20 -0.37707120D-04 -0.36217238D-04 -0.25398027D-04 -0.35847671D-04
  0.27948433D-19  0.13899439D-03  0.46303602D-04 -0.37016398D-19 -0.11034203D-03
  0.25792639D-05  0.91523965D-23  0.74687232D-05 -0.12671046D-04 -0.93431679D-04
  0.10610272D-03 -0.13463026D-19  0.24122138D-04  0.10483084D-18  0.15429224D-05
  0.40964689D-04 -0.42507611D-04 -0.22097171D-20 -0.50336316D-04 -0.38997525D-19
 -0.87546336D-05  0.17270258D-05  0.70276079D-05  0.13074043D-19  0.46118579D-04
  0.71925032D-20 -0.31170879D-04 -0.29336990D-19  0.15355836D-04  0.30222248D-04
  0.23535190D-19  0.32640788D-04  0.63290389D-04  0.64475779D-19 -0.78708296D-04
  0.34604837D-19  0.16891530D-04  0.11230053D-19 -0.34817097D-04 -0.79276993D-05
 -0.16747349D-20  0.43315931D-04 -0.42746891D-04 -0.32015424D-19  0.61135359D-04
 -0.11125527D-19  0.45458900D+00  0.85053775D+00  0.14695408D+01  0.23822971D+01
  0.36177081D+01  0.50281889D+01  0.59777912D+01  0.53245566D+01  0.26432693D+01
  0.42587304D+00  0.65382856D-02  0.11683852D-02  0.43660732D-04 -0.38614256D-03
 -0.72125885D-03 -0.12517797D-02 -0.20311298D-02 -0.31439476D-02 -0.45002754D-02
 -0.58742652D-02 -0.62600097D-02 -0.46794844D-02 -0.24702167D-03  0.31741058D-02
  0.18857835D-02 -0.70702744D-05  0.15883105D-03  0.29643527D-03  0.51517842D-03
  0.83495265D-03  0.12968122D-02  0.18577209D-02  0.24529473D-02  0.26523637D-02
  0.20794875D-02  0.10347461D-03 -0.17826466D-02 -0.18453697D-02  0.83505588D-03
 -0.12499263D-02 -0.26312066D-03 -0.80165940D-04 -0.86459411D-03 -0.11388645D-02
 -0.12564343D-02 -0.10436131D-02 -0.55428828D-03 -0.14296712D-03  0.14696534D-06
  0.38659993D-18  0.50923887D-18  0.56180977D-18  0.46664759D-18  0.24784787D-18
  0.63927196D-19 -0.65714984D-22 -0.35677861D-02 -0.46995750D-02 -0.51847321D-02
 -0.43065160D-02 -0.22872953D-02 -0.58996017D-03  0.60645900D-06  0.70199171D-03
  0.92166365D-03  0.10493819D-02  0.88857347D-03  0.50900910D-03  0.11578191D-03
 -0.54192306D-04 -0.15635398D-17 -0.20528131D-17 -0.23372787D-17 -0.19791116D-17
 -0.11337113D-17 -0.25788000D-18  0.12070203D-18  0.28276942D-02  0.37125552D-02
  0.42270173D-02  0.35792646D-02  0.20503406D-02  0.46638135D-03 -0.21829214D-03
  0.30525273D-04 -0.23842595D-18  0.14717983D-03  0.28989123D-04 -0.21292193D-19
  0.13762697D-03  0.38828319D-06  0.15460437D-20  0.49114184D-05 -0.23464708D-04
 -0.71074851D-04  0.94539559D-04  0.10415658D-19  0.77991474D-04  0.28430230D-19
 -0.11844222D-04  0.28023851D-05  0.90418369D-05 -0.59864401D-22 -0.45495318D-05
 -0.28096174D-19  0.93949289D-05  0.14579896D-04 -0.23974825D-04  0.66017977D-21
 -0.16474236D-04  0.45003287D-20  0.50257003D-05 -0.12785229D-19 -0.53445080D-04
  0.39725073D-04  0.60768612D-20  0.45821929D-04 -0.54802174D-04  0.32278826D-19
  0.11451331D-03  0.28228857D-19 -0.22908059D-05  0.16063936D-20  0.15499777D-04
 -0.17589349D-04 -0.60197681D-20 -0.58165893D-05  0.24461767D-04  0.12005873D-20
 -0.40682741D-04 -0.67386770D-20
MO    2     MO 0.0        OCC NO =    2.0000000  ORB. ENERGY = -102.824526
  0.45458768D+00  0.85053530D+00  0.14695366D+01  0.23822902D+01  0.36176977D+01
  0.50281744D+01  0.59777740D+01  0.53245412D+01  0.26432617D+01  0.42587181D+00
  0.65382667D-02  0.11683818D-02  0.43660606D-04 -0.38424993D-03 -0.71772370D-03
 -0.12456443D-02 -0.20211745D-02 -0.31285380D-02 -0.44782179D-02 -0.58454732D-02
 -0.62293271D-02 -0.46565485D-02 -0.24581092D-03  0.31585483D-02  0.18765406D-02
 -0.70356204D-05  0.15801832D-03  0.29491843D-03  0.51254228D-03  0.83068025D-03
  0.12901765D-02  0.18482151D-02  0.24403958D-02  0.26387917D-02  0.20688469D-02
  0.10294514D-03 -0.17735249D-02 -0.18359270D-02  0.83078295D-03 -0.12236439D-02
 -0.35773503D-03 -0.48253250D-04  0.82605066D-03  0.10880941D-02  0.12004227D-02
  0.99708904D-03  0.52957821D-03  0.13659367D-03 -0.14041365D-06 -0.33422794D-15
 -0.44025320D-15 -0.48570242D-15 -0.40343169D-15 -0.21427237D-15 -0.55267095D-16
  0.56812695D-19  0.17181108D-02  0.22631375D-02  0.24967709D-02  0.20738552D-02
  0.11014749D-02  0.28410250D-03 -0.29204771D-06 -0.65364287D-03 -0.85818517D-03
 -0.97710695D-03 -0.82737404D-03 -0.47395170D-03 -0.10780757D-03  0.50459876D-04
  0.29415053D-17  0.38619808D-17  0.43971493D-17  0.37233254D-17  0.21328642D-17
  0.48515260D-18 -0.22707812D-18 -0.11665589D-02 -0.15316063D-02 -0.17438465D-02
 -0.14766176D-02 -0.84586340D-03 -0.19240458D-03  0.90055931D-04 -0.39969039D-04
  0.68376450D-18 -0.63958158D-04 -0.47117481D-04  0.26392730D-19 -0.15949772D-03
 -0.12011863D-05 -0.25474243D-20 -0.11544872D-05 -0.32571753D-04 -0.50643622D-04
  0.83215375D-04  0.97215526D-20  0.65267045D-04  0.19443478D-18  0.12235492D-04
  0.15611847D-04 -0.27847339D-04 -0.15485080D-19 -0.14726061D-05 -0.78460201D-19
  0.87779807D-05  0.17216622D-04 -0.25994602D-04  0.18582225D-20 -0.23631819D-04
  0.50410710D-21 -0.12606314D-04  0.14570346D-19  0.37110563D-04 -0.37591973D-04
  0.24407492D-20 -0.21764120D-04  0.75410915D-04 -0.46151787D-19 -0.89567570D-04
 -0.30266490D-19  0.32488940D-05  0.31620412D-20 -0.17747103D-04  0.14076686D-04
  0.66921272D-20  0.12024558D-04 -0.23823368D-04 -0.16178251D-19  0.41216751D-04
 -0.22376206D-20  0.11651284D-04  0.21710451D-04  0.36717816D-04  0.55294996D-04
  0.68458793D-04  0.58255343D-04  0.22167233D-04 -0.10381861D-06 -0.83128242D-05
 -0.15586623D-04 -0.26517483D-04 -0.41178852D-04 -0.54646731D-04 -0.57590154D-04
 -0.35709569D-04  0.23754019D-04  0.46104831D-05  0.89828190D-04  0.33748771D-04
  0.15658848D-04  0.15040136D-04  0.10547182D-04 -0.25971364D-19 -0.24945185D-19
 -0.17493285D-19 -0.59529066D-04 -0.57176956D-04 -0.40096428D-04 -0.35186632D-04
 -0.14907567D-20  0.29471183D-04 -0.98044094D-04  0.39554086D-19 -0.14683215D-03
  0.24759599D-05  0.15587043D-21 -0.26688563D-05 -0.35501248D-04 -0.48338833D-04
  0.83840081D-04  0.25248498D-19  0.63216248D-04  0.16465798D-18 -0.20200548D-04
  0.23641511D-04 -0.34409631D-05 -0.52698748D-20 -0.50008546D-05 -0.62506939D-19
  0.18775640D-05  0.90799824D-05 -0.10957546D-04  0.38218942D-20 -0.73303532D-05
 -0.10718544D-19 -0.28904293D-04  0.39649937D-19 -0.80119384D-05 -0.52185551D-05
  0.11765921D-19 -0.26861618D-05  0.91931435D-04 -0.13071573D-18  0.26721977D-04
 -0.52112232D-19  0.67543298D-05 -0.15629863D-19  0.12964342D-04  0.14336828D-04
 -0.12447465D-19 -0.29964748D-04 -0.34599817D-04  0.59337055D-19 -0.89282774D-05
  0.26575907D-19 -0.10249164D-04 -0.19097808D-04 -0.32299181D-04 -0.48640776D-04
 -0.60220436D-04 -0.51244874D-04 -0.19499620D-04  0.91325038D-07  0.71545603D-05
  0.13414867D-04  0.22822681D-04  0.35441214D-04  0.47032552D-04  0.49565853D-04
  0.30733991D-04 -0.20444263D-04 -0.50781368D-06 -0.75389233D-04 -0.27706174D-04
  0.17884695D-04  0.17178036D-04  0.12046425D-04 -0.36932673D-19 -0.35473391D-19
 -0.24876390D-19 -0.62997980D-04 -0.60508807D-04 -0.42432952D-04 -0.38405066D-04
  0.88237378D-20  0.41554242D-04 -0.94418270D-04 -0.10710817D-19 -0.15688120D-03
  0.27073283D-05 -0.15729889D-22 -0.20353102D-05  0.34541166D-04  0.40469066D-04
 -0.75010232D-04 -0.37355351D-19 -0.61372110D-04 -0.45292355D-19  0.20408294D-04
 -0.20200115D-04 -0.20817881D-06  0.10503460D-19  0.68292796D-06  0.69270884D-20
 -0.26386855D-05 -0.89648423D-05  0.11603528D-04  0.10202616D-19  0.11330417D-04
  0.12921180D-19 -0.31696653D-04  0.48293241D-20 -0.67187296D-05 -0.26344187D-05
  0.30554798D-19  0.11580819D-06  0.97724379D-04 -0.45042771D-19  0.20040381D-04
 -0.19764098D-19  0.82344944D-05  0.35168600D-22  0.10012990D-04  0.13707005D-04
 -0.13363077D-19 -0.26344205D-04 -0.38410488D-04  0.13257571D-19 -0.36947650D-05
  0.99913659D-20 -0.41711000D+00 -0.78041442D+00 -0.13483832D+01 -0.21858865D+01
 -0.33194430D+01 -0.46136354D+01 -0.54849469D+01 -0.48855688D+01 -0.24253427D+01
 -0.39076156D+00 -0.59992308D-02 -0.10720567D-02 -0.40061085D-04  0.35240824D-03
  0.65824799D-03  0.11424213D-02  0.18536855D-02  0.28692850D-02  0.41071208D-02
  0.53610756D-02  0.57131206D-02  0.42706737D-02  0.22544128D-03 -0.28968085D-02
 -0.17210371D-02  0.64525987D-05 -0.14492084D-03 -0.27047387D-03 -0.47005977D-03
 -0.76182861D-03 -0.11832391D-02 -0.16950242D-02 -0.22381215D-02 -0.24200732D-02
 -0.18973688D-02 -0.94412442D-04  0.16265248D-02  0.16837546D-02 -0.76192280D-03
  0.11204990D-02  0.33639299D-03  0.41525933D-04  0.75462792D-03  0.99401433D-03
  0.10966307D-02  0.91087783D-03  0.48378934D-03  0.12478338D-03 -0.12827308D-06
 -0.62546569D-19 -0.82387868D-19 -0.90893119D-19 -0.75497183D-19 -0.40098388D-19
 -0.10342544D-19  0.10631784D-22  0.14171238D-02  0.18666701D-02  0.20593744D-02
  0.17105472D-02  0.90851317D-03  0.23433205D-03 -0.24088538D-06 -0.59558965D-03
 -0.78196555D-03 -0.89032530D-03 -0.75389090D-03 -0.43185773D-03 -0.98232652D-04
  0.45978287D-04  0.11812119D-17  0.15508447D-17  0.17657508D-17  0.14951652D-17
  0.85648821D-18  0.19482135D-18 -0.91187115D-19 -0.92728503D-03 -0.12174573D-02
 -0.13861647D-02 -0.11737473D-02 -0.67236765D-03 -0.15294031D-03  0.71584484D-04
 -0.37487400D-04  0.20262155D-18 -0.51516083D-04 -0.44794651D-04  0.19583330D-20
 -0.14823237D-03 -0.11721889D-05 -0.46926137D-21 -0.73566096D-06  0.30670996D-04
  0.44708357D-04 -0.75379353D-04 -0.46111543D-19 -0.58790011D-04 -0.56703933D-19
 -0.13301123D-04 -0.15428249D-04  0.28729371D-04  0.10642329D-19  0.10860942D-05
  0.26836439D-19 -0.80011512D-05 -0.16024383D-04  0.24025534D-04 -0.14448448D-20
  0.22300132D-04  0.31122848D-20 -0.12220044D-04 -0.50125642D-20  0.32643926D-04
 -0.34309011D-04  0.90470490D-20 -0.17897369D-04  0.70969142D-04  0.59906437D-20
 -0.80034410D-04  0.19805111D-20  0.30635725D-05  0.36713526D-20 -0.16477580D-04
  0.12613554D-04 -0.92658905D-21  0.11568002D-04 -0.21804271D-04 -0.10087469D-19
  0.37864740D-04 -0.55735460D-20
MO    3     MO 0.0        OCC NO =    2.0000000  ORB. ENERGY =  -14.951832
  0.50115260D-04  0.93765844D-04  0.16200661D-03  0.26263160D-03  0.39882704D-03
  0.55432269D-03  0.65900971D-03  0.58699516D-03  0.29140197D-03  0.46949527D-04
  0.72080030D-06  0.12880630D-06  0.48132907D-08 -0.77037140D-04 -0.14389432D-03
 -0.24973556D-03 -0.40521933D-03 -0.62723139D-03 -0.89782476D-03 -0.11719418D-02
 -0.12488995D-02 -0.93357773D-03 -0.49281910D-04  0.63324808D-03  0.37622211D-03
 -0.14105509D-05  0.33793336D-04  0.63070393D-04  0.10961079D-03  0.17764685D-03
  0.27591337D-03  0.39525386D-03  0.52189589D-03  0.56432427D-03  0.44243754D-03
  0.22015546D-04 -0.37928084D-03 -0.39262598D-03  0.17766881D-03 -0.42281369D-03
  0.49126908D-03  0.16659760D-03  0.22167184D-03  0.29199157D-03  0.32213510D-03
  0.26757023D-03  0.14211305D-03  0.36655101D-04 -0.37680197D-07 -0.96580449D-15
 -0.12721813D-14 -0.14035140D-14 -0.11657797D-14 -0.61917391D-15 -0.15970301D-15
  0.16416927D-18  0.12368304D-01  0.16291832D-01  0.17973708D-01  0.14929230D-01
  0.79292769D-02  0.20451918D-02 -0.21023877D-05 -0.28412847D-03 -0.37303985D-03
 -0.42473331D-03 -0.35964672D-03 -0.20601949D-03 -0.46862286D-04  0.21934129D-04
 -0.82531119D-15 -0.10835731D-14 -0.12337277D-14 -0.10446699D-14 -0.59842715D-15
 -0.13612142D-15  0.63712314D-16 -0.11127839D-01 -0.14610037D-01 -0.16634602D-01
 -0.14085498D-01 -0.80687154D-02 -0.18353528D-02  0.85904613D-03  0.40434746D-04
 -0.62919699D-16 -0.80330214D-03 -0.12990522D-04 -0.94376150D-17  0.22086624D-03
  0.59447465D-05 -0.10132398D-18  0.92661373D-05  0.53149977D-04  0.22866775D-04
 -0.76016751D-04 -0.21029666D-18  0.11480831D-03 -0.18862864D-17 -0.20327006D-03
 -0.17415956D-03  0.37742961D-03  0.10187455D-18 -0.31684626D-04  0.58990419D-18
 -0.19364600D-04 -0.85947185D-05  0.27959319D-04 -0.28854962D-19 -0.21793671D-05
 -0.19919058D-19  0.31861329D-04 -0.51408481D-19  0.17180289D-03 -0.11456329D-04
  0.31236642D-19 -0.27142542D-03 -0.84127658D-04  0.12298880D-18 -0.24398323D-03
  0.26171552D-18 -0.98976905D-05 -0.31309482D-19  0.60851871D-04  0.11261205D-04
 -0.73067137D-19 -0.11765139D-03  0.18431866D-04  0.16699558D-18 -0.64904222D-04
  0.37244937D-19  0.29091910D+00  0.54208491D+00  0.91680148D+00  0.13806522D+01
  0.17093370D+01  0.14545687D+01  0.55349021D+00 -0.25922308D-02 -0.42276574D-03
 -0.79268972D-03 -0.13486011D-02 -0.20942351D-02 -0.27791717D-02 -0.29288655D-02
 -0.18160835D-02  0.12080594D-02  0.29234494D-01 -0.33512525D-03 -0.23155306D-03
  0.64246303D-02  0.61707806D-02  0.43273773D-02  0.16280985D-16  0.15637692D-16
  0.10966229D-16 -0.38439174D-02 -0.36920368D-02 -0.25891110D-02  0.33820910D-03
 -0.30208865D-17  0.91919662D-03 -0.48555803D-03 -0.29276296D-18  0.52417616D-03
 -0.26681958D-04  0.73344468D-20  0.14185795D-04  0.20978464D-02 -0.16867714D-02
 -0.41107501D-03 -0.15774696D-17  0.16735108D-02  0.11028349D-17 -0.59692976D-03
  0.68023095D-03 -0.83301194D-04 -0.58710306D-18 -0.66433964D-03  0.60410427D-18
 -0.11464898D-03  0.68062279D-04  0.46586699D-04 -0.48098366D-19 -0.23695472D-04
  0.14950223D-18 -0.34962746D-03  0.85185504D-18  0.17778525D-03  0.77671087D-03
 -0.14637109D-17 -0.66084952D-03  0.27217153D-03 -0.10918542D-17  0.12749377D-03
  0.16138230D-17 -0.23786573D-03 -0.11607531D-19  0.10071090D-03  0.24045463D-03
  0.39731497D-19 -0.19824206D-03  0.47314255D-03 -0.49089043D-20 -0.10389065D-03
 -0.18323445D-18  0.29102738D+00  0.54228668D+00  0.91714272D+00  0.13811661D+01
  0.17099733D+01  0.14551101D+01  0.55369622D+00 -0.25931956D-02 -0.42283746D-03
 -0.79282420D-03 -0.13488298D-02 -0.20945903D-02 -0.27796432D-02 -0.29293624D-02
 -0.18163916D-02  0.12082644D-02  0.29245024D-01 -0.33506745D-03 -0.23176389D-03
 -0.64259462D-02 -0.61720446D-02 -0.43282637D-02  0.52409525D-17  0.50338723D-17
  0.35300987D-17  0.38455027D-02  0.36935594D-02  0.25901788D-02 -0.33868561D-03
 -0.45831341D-18 -0.91958958D-03  0.48541313D-03  0.29592904D-18 -0.52448304D-03
  0.26689314D-04  0.47667281D-19 -0.14203594D-04  0.20983282D-02 -0.16873602D-02
 -0.41096804D-03  0.16514504D-18  0.16739364D-02 -0.44422605D-18 -0.59659148D-03
  0.68024735D-03 -0.83655868D-04 -0.54145637D-18 -0.66427890D-03  0.23174003D-19
 -0.11463278D-03  0.68070047D-04  0.46562728D-04 -0.17983569D-18 -0.23681957D-04
 -0.12371290D-18  0.34922234D-03 -0.63099485D-19 -0.17767598D-03 -0.77606695D-03
  0.30434475D-18  0.66040678D-03 -0.27160007D-03 -0.11504630D-18 -0.12737883D-03
 -0.36497927D-18  0.23784560D-03 -0.85889436D-19 -0.10074805D-03 -0.24043320D-03
  0.26146948D-18  0.19829243D-03 -0.47310359D-03 -0.38011700D-20  0.10395171D-03
  0.68102405D-19  0.50108822D-04  0.93753798D-04  0.16198579D-03  0.26259786D-03
  0.39877580D-03  0.55425147D-03  0.65892504D-03  0.58691975D-03  0.29136454D-03
  0.46943495D-04  0.72070769D-06  0.12878976D-06  0.48126723D-08 -0.77019822D-04
 -0.14386197D-03 -0.24967942D-03 -0.40512823D-03 -0.62709039D-03 -0.89762292D-03
 -0.11716783D-02 -0.12486187D-02 -0.93336786D-03 -0.49270831D-04  0.63310572D-03
  0.37613754D-03 -0.14102338D-05  0.33780002D-04  0.63045507D-04  0.10956754D-03
  0.17757675D-03  0.27580450D-03  0.39509790D-03  0.52168997D-03  0.56410160D-03
  0.44226297D-03  0.22006859D-04 -0.37913118D-03 -0.39247106D-03  0.17759871D-03
 -0.42297418D-03  0.49167299D-03  0.16674080D-03 -0.22335122D-03 -0.29420368D-03
 -0.32457558D-03 -0.26959733D-03 -0.14318969D-03 -0.36932798D-04  0.37965661D-07
  0.24752978D-17  0.32605227D-17  0.35971203D-17  0.29878219D-17  0.15869048D-17
  0.40930904D-18 -0.42075578D-21 -0.12373815D-01 -0.16299091D-01 -0.17981716D-01
 -0.14935882D-01 -0.79328096D-02 -0.20461030D-02  0.21033243D-05  0.28557905D-03
  0.37494436D-03  0.42690174D-03  0.36148286D-03  0.20707130D-03  0.47101536D-04
 -0.22046111D-04 -0.11574372D-17 -0.15196302D-17 -0.17302108D-17 -0.14650715D-17
 -0.83924934D-18 -0.19090011D-18  0.89351757D-19  0.11132759D-01  0.14616496D-01
  0.16641956D-01  0.14091725D-01  0.80722827D-02  0.18361643D-02 -0.85942592D-03