 Molden2AIM, Version 4.0.0 (06/02/2016)           Time: Tue Jul  3 04:07:14 2018
GAUSSIAN              6 MOL ORBITALS    206 PRIMITIVES        4 NUCLEI
  N    1    (CENTRE  1)   0.20261832 -0.11674917 -0.52613755  CHARGE =  7.0
  H    2    (CENTRE  2)   0.46735195 -2.02070871 -0.44359998  CHARGE =  1.0
  H    3    (CENTRE  3)   1.98407259  0.60538510 -0.44365100  CHARGE =  1.0
  Li   4    (CENTRE  4)  -2.65404286  1.53226175 -0.74996994  CHARGE =  3.0
CENTRE ASSIGNMENTS    1  1  1  1  1  1  1  1  1  1  1  1  1  1  1  1  1  1  1  1
CENTRE ASSIGNMENTS    1  1  1  1  1  1  1  1  1  1  1  1  1  1  1  1  1  1  1  1
CENTRE ASSIGNMENTS    1  1  1  1  1  1  1  1  1  1  1  1  1  1  1  1  1  1  1  1
CENTRE ASSIGNMENTS    1  1  1  1  1  1  1  1  1  1  1  1  1  1  1  2  2  2  2  2
CENTRE ASSIGNMENTS    2  2  2  2  2  2  2  2  2  2  2  2  2  2  2  2  2  2  2  2
CENTRE ASSIGNMENTS    2  2  3  3  3  3  3  3  3  3  3  3  3  3  3  3  3  3  3  3
CENTRE ASSIGNMENTS    3  3  3  3  3  3  3  3  3  4  4  4  4  4  4  4  4  4  4  4
CENTRE ASSIGNMENTS    4  4  4  4  4  4  4  4  4  4  4  4  4  4  4  4  4  4  4  4
CENTRE ASSIGNMENTS    4  4  4  4  4  4  4  4  4  4  4  4  4  4  4  4  4  4  4  4
CENTRE ASSIGNMENTS    4  4  4  4  4  4  4  4  4  4  4  4  4  4  4  4  4  4  4  4
CENTRE ASSIGNMENTS    4  4  4  4  4  4
TYPE ASSIGNMENTS      1  1  1  1  1  1  1  1  1  1  1  1  1  1  1  1  1  1  1  2
TYPE ASSIGNMENTS      2  2  3  3  3  4  4  4  2  3  4  2  3  4  2  3  4  5  6  7
TYPE ASSIGNMENTS      8  9 10  5  6  7  8  9 10  5  6  7  8  9 10 11 12 13 17 14
TYPE ASSIGNMENTS     15 18 19 16 20 11 12 13 17 14 15 18 19 16 20  1  1  1  1  1
TYPE ASSIGNMENTS      1  2  3  4  2  3  4  2  3  4  5  6  7  8  9 10  5  6  7  8
TYPE ASSIGNMENTS      9 10  1  1  1  1  1  1  2  3  4  2  3  4  2  3  4  5  6  7
TYPE ASSIGNMENTS      8  9 10  5  6  7  8  9 10  1  1  1  1  1  1  1  1  1  1  1
TYPE ASSIGNMENTS      1  1  1  1  1  1  1  1  1  1  2  2  2  3  3  3  4  4  4  2
TYPE ASSIGNMENTS      3  4  2  3  4  2  3  4  5  6  7  8  9 10  5  6  7  8  9 10
TYPE ASSIGNMENTS      5  6  7  8  9 10 11 12 13 17 14 15 18 19 16 20 11 12 13 17
TYPE ASSIGNMENTS     14 15 18 19 16 20
EXPONENTS  0.1142000D+05 0.1712000D+04 0.3893000D+03 0.1100000D+03 0.3557000D+02
EXPONENTS  0.1254000D+02 0.4644000D+01 0.5118000D+00 0.1142000D+05 0.1712000D+04
EXPONENTS  0.3893000D+03 0.1100000D+03 0.3557000D+02 0.1254000D+02 0.4644000D+01
EXPONENTS  0.5118000D+00 0.1293000D+01 0.1787000D+00 0.5760000D-01 0.2663000D+02
EXPONENTS  0.5948000D+01 0.1742000D+01 0.2663000D+02 0.5948000D+01 0.1742000D+01
EXPONENTS  0.2663000D+02 0.5948000D+01 0.1742000D+01 0.5550000D+00 0.5550000D+00
EXPONENTS  0.5550000D+00 0.1725000D+00 0.1725000D+00 0.1725000D+00 0.4910000D-01
EXPONENTS  0.4910000D-01 0.4910000D-01 0.1654000D+01 0.1654000D+01 0.1654000D+01
EXPONENTS  0.1654000D+01 0.1654000D+01 0.1654000D+01 0.4690000D+00 0.4690000D+00
EXPONENTS  0.4690000D+00 0.4690000D+00 0.4690000D+00 0.4690000D+00 0.1510000D+00
EXPONENTS  0.1510000D+00 0.1510000D+00 0.1510000D+00 0.1510000D+00 0.1510000D+00
EXPONENTS  0.1093000D+01 0.1093000D+01 0.1093000D+01 0.1093000D+01 0.1093000D+01
EXPONENTS  0.1093000D+01 0.1093000D+01 0.1093000D+01 0.1093000D+01 0.1093000D+01
EXPONENTS  0.3640000D+00 0.3640000D+00 0.3640000D+00 0.3640000D+00 0.3640000D+00
EXPONENTS  0.3640000D+00 0.3640000D+00 0.3640000D+00 0.3640000D+00 0.3640000D+00
EXPONENTS  0.3387000D+02 0.5095000D+01 0.1159000D+01 0.3258000D+00 0.1027000D+00
EXPONENTS  0.2526000D-01 0.1407000D+01 0.1407000D+01 0.1407000D+01 0.3880000D+00
EXPONENTS  0.3880000D+00 0.3880000D+00 0.1020000D+00 0.1020000D+00 0.1020000D+00
EXPONENTS  0.1057000D+01 0.1057000D+01 0.1057000D+01 0.1057000D+01 0.1057000D+01
EXPONENTS  0.1057000D+01 0.2470000D+00 0.2470000D+00 0.2470000D+00 0.2470000D+00
EXPONENTS  0.2470000D+00 0.2470000D+00 0.3387000D+02 0.5095000D+01 0.1159000D+01
EXPONENTS  0.3258000D+00 0.1027000D+00 0.2526000D-01 0.1407000D+01 0.1407000D+01
EXPONENTS  0.1407000D+01 0.3880000D+00 0.3880000D+00 0.3880000D+00 0.1020000D+00
EXPONENTS  0.1020000D+00 0.1020000D+00 0.1057000D+01 0.1057000D+01 0.1057000D+01
EXPONENTS  0.1057000D+01 0.1057000D+01 0.1057000D+01 0.2470000D+00 0.2470000D+00
EXPONENTS  0.2470000D+00 0.2470000D+00 0.2470000D+00 0.2470000D+00 0.5988000D+04
EXPONENTS  0.8989000D+03 0.2059000D+03 0.5924000D+02 0.1987000D+02 0.7406000D+01
EXPONENTS  0.2930000D+01 0.1189000D+01 0.4798000D+00 0.5988000D+04 0.8989000D+03
EXPONENTS  0.2059000D+03 0.5924000D+02 0.1987000D+02 0.7406000D+01 0.2930000D+01
EXPONENTS  0.1189000D+01 0.4798000D+00 0.7509000D-01 0.2832000D-01 0.7600000D-02
EXPONENTS  0.3266000D+01 0.6511000D+00 0.1696000D+00 0.3266000D+01 0.6511000D+00
EXPONENTS  0.1696000D+00 0.3266000D+01 0.6511000D+00 0.1696000D+00 0.5578000D-01
EXPONENTS  0.5578000D-01 0.5578000D-01 0.2050000D-01 0.2050000D-01 0.2050000D-01
EXPONENTS  0.9100000D-02 0.9100000D-02 0.9100000D-02 0.1874000D+00 0.1874000D+00
EXPONENTS  0.1874000D+00 0.1874000D+00 0.1874000D+00 0.1874000D+00 0.8010000D-01
EXPONENTS  0.8010000D-01 0.8010000D-01 0.8010000D-01 0.8010000D-01 0.8010000D-01
EXPONENTS  0.3710000D-01 0.3710000D-01 0.3710000D-01 0.3710000D-01 0.3710000D-01
EXPONENTS  0.3710000D-01 0.1829000D+00 0.1829000D+00 0.1829000D+00 0.1829000D+00
EXPONENTS  0.1829000D+00 0.1829000D+00 0.1829000D+00 0.1829000D+00 0.1829000D+00
EXPONENTS  0.1829000D+00 0.8160000D-01 0.8160000D-01 0.8160000D-01 0.8160000D-01
EXPONENTS  0.8160000D-01 0.8160000D-01 0.8160000D-01 0.8160000D-01 0.8160000D-01
EXPONENTS  0.8160000D-01
MO    1     MO 0.0        OCC NO =    2.0000000  ORB. ENERGY =  -14.656682
  0.41143064D+00  0.76664043D+00  0.12965812D+01  0.19525794D+01  0.24174199D+01
  0.20571153D+01  0.78277031D+00 -0.36660473D-02 -0.55409945D-03 -0.10389416D-02
 -0.17675489D-02 -0.27448167D-02 -0.36425315D-02 -0.38387281D-02 -0.23802563D-02
  0.15833474D-02  0.40374266D-01  0.20151145D-02  0.29000533D-03  0.35371078D-02
  0.33973497D-02  0.23824561D-02 -0.20431083D-02 -0.19623811D-02 -0.13761571D-02
  0.28780352D-03  0.27643184D-03  0.19385309D-03  0.16386928D-02 -0.94616778D-03
  0.13179897D-03  0.10145556D-03 -0.58708148D-04  0.76746451D-05 -0.78895758D-06
  0.46853674D-06 -0.15069520D-06  0.94333824D-03  0.17112576D-02 -0.26545958D-02
  0.13321020D-02  0.38908555D-03 -0.22490055D-03  0.13272999D-05  0.10102608D-03
 -0.10235338D-03  0.17279494D-03  0.68967928D-05 -0.39888793D-05 -0.39743162D-05
 -0.10804695D-04  0.14779011D-04 -0.11701064D-04 -0.18957430D-05  0.11014893D-05
  0.30751455D-03 -0.12109616D-02 -0.99597069D-04  0.30543192D-03  0.29238420D-02
  0.10366960D-03 -0.12279756D-02  0.70904261D-03  0.19512161D-03  0.15828733D-03
 -0.33222930D-04  0.16285769D-03  0.10734061D-04 -0.32940763D-04 -0.41203655D-03
 -0.78725354D-05  0.13260955D-03 -0.76536508D-04 -0.24329647D-04 -0.28500871D-04
  0.14634059D-03  0.26393128D-03  0.38916651D-03 -0.90667167D-03 -0.54980271D-03
 -0.18719576D-04  0.80704407D-04 -0.12545089D-02  0.48567607D-04  0.16524602D-03
 -0.13100052D-02  0.55828859D-04  0.56319262D-04 -0.14069425D-03  0.84015425D-05
  0.10905941D-02 -0.22314897D-02  0.11408956D-02  0.10057619D-02 -0.41846949D-04
  0.29679835D-03  0.23219805D-04 -0.92157870D-04  0.68938065D-04  0.76616726D-04
 -0.81764629D-05  0.16003738D-04  0.14634703D-03  0.26394290D-03  0.38918365D-03
 -0.90682619D-03 -0.54987583D-03 -0.18733697D-04  0.11272163D-02  0.55702472D-03
  0.48546615D-04  0.12173843D-02  0.51164751D-03  0.55792777D-04  0.14999592D-03
  0.21571332D-04  0.83958143D-05 -0.18373621D-02  0.69639780D-03  0.11409643D-02
 -0.23727381D-02 -0.27783947D-03 -0.11201773D-03 -0.96529362D-04  0.27589687D-04
  0.68939675D-04 -0.61569278D-04 -0.17941361D-04 -0.91488547D-06 -0.19929506D-04
 -0.37041704D-04 -0.63081385D-04 -0.98376942D-04 -0.13743819D-03 -0.16382885D-03
 -0.15530921D-03 -0.98637048D-04 -0.24222358D-04  0.11952050D-04  0.22098927D-04
  0.37266438D-04  0.59380699D-04  0.82772224D-04  0.10546528D-03  0.10473791D-03
  0.94476063D-04  0.54076333D-04  0.20534036D-04 -0.30603638D-05  0.25306926D-05
  0.11369404D-03  0.83427109D-04  0.68507244D-04 -0.65475695D-04 -0.48045158D-04
 -0.39452900D-04  0.90094847D-05  0.66110350D-05  0.54287365D-05  0.72114982D-05
 -0.41791896D-05  0.65700711D-06 -0.13535036D-05  0.78117712D-06 -0.10292337D-06
  0.47478151D-06 -0.27402424D-06  0.37331203D-07  0.29758934D-04 -0.22863708D-04
 -0.68952261D-05 -0.90934870D-04  0.75397646D-05 -0.43422811D-05  0.37894913D-07
  0.49850807D-05 -0.50229756D-05  0.85436316D-05  0.33004956D-06 -0.19230895D-06
 -0.17669512D-07 -0.30846765D-06  0.32613716D-06 -0.50359531D-06 -0.18012639D-07
  0.10453095D-07  0.90041285D-06  0.12052505D-04 -0.31491048D-06  0.86724277D-06
 -0.38216356D-04  0.19430615D-05 -0.35684813D-05  0.20588402D-05 -0.99833007D-06
 -0.50840144D-05  0.16160068D-06 -0.14292237D-05 -0.49882648D-07  0.16443234D-06
  0.39126749D-05 -0.27980275D-07 -0.64923439D-06  0.37499619D-06  0.17762822D-06
  0.35497969D-06
MO    2     MO 0.0        OCC NO =    2.0000000  ORB. ENERGY =   -2.141916
 -0.59097668D-03 -0.11011980D-02 -0.18624019D-02 -0.28046741D-02 -0.34723685D-02
 -0.29548289D-02 -0.11243669D-02  0.52658898D-05 -0.48418956D-03 -0.90785994D-03
 -0.15445399D-02 -0.23985074D-02 -0.31829588D-02 -0.33544016D-02 -0.20799430D-02
  0.13835789D-02  0.48339457D-03  0.86530856D-02  0.59242033D-02 -0.76594093D-02
 -0.73567711D-02 -0.51590757D-02  0.44214611D-02  0.42467605D-02  0.29781216D-02
 -0.60136776D-03 -0.57760654D-03 -0.40505758D-03  0.44800173D-04 -0.25662020D-04
  0.68147215D-05 -0.75972324D-02  0.43868544D-02 -0.59689938D-03 -0.57855015D-03
  0.33387484D-03 -0.45309522D-04  0.72328582D-04 -0.21106201D-03  0.13873343D-03
 -0.48953139D-03  0.10854740D-04 -0.62029873D-05  0.71406386D-03  0.35289437D-03
 -0.10669582D-02 -0.62569456D-03  0.23061822D-03 -0.13322323D-03  0.46585275D-03
 -0.21161486D-03 -0.25423789D-03 -0.11730976D-02  0.12413984D-03 -0.71640204D-04
  0.13612232D-03 -0.41280494D-03 -0.44035121D-04  0.13577116D-03  0.92432837D-03
  0.58803984D-04 -0.54413812D-03  0.31408643D-03  0.73301380D-04  0.25044816D-04
 -0.24189612D-03 -0.30403236D-03  0.77297535D-04 -0.24055800D-03  0.14699921D-02
 -0.20980684D-03  0.96624637D-03 -0.55789500D-03 -0.22085764D-04  0.32488935D-03
 -0.14372376D-03 -0.25921172D-03 -0.38220753D-03  0.48014186D-03  0.16877356D-02
  0.36475631D-03 -0.26357764D-03 -0.22430640D-03 -0.65321249D-05  0.14492535D-02
 -0.74677421D-03  0.11124151D-03 -0.26265197D-03  0.24079483D-03 -0.23644036D-04
  0.75022099D-03 -0.34010955D-03 -0.41011145D-03  0.70362264D-03  0.11014691D-03
  0.37486433D-04  0.91186252D-04 -0.18238469D-03  0.91198439D-04  0.52118572D-03
 -0.18216954D-04  0.49896543D-04 -0.14362404D-03 -0.25903187D-03 -0.38194234D-03
  0.48101129D-03  0.16848839D-02  0.36474678D-03  0.62964841D-04  0.34006431D-03
 -0.65098222D-05  0.13721265D-02 -0.88496307D-03  0.11139467D-03 -0.33906382D-03
  0.10684303D-03 -0.23586168D-04 -0.37329399D-03  0.78305860D-03 -0.40976462D-03
 -0.59011003D-03  0.22394467D-04 -0.11410924D-03 -0.34006081D-03  0.24882695D-03
  0.91233855D-04  0.24570540D-04 -0.52376703D-04 -0.91543791D-05  0.64738118D-01
  0.12032462D+00  0.20491075D+00  0.31956327D+00  0.44644807D+00  0.53217431D+00
  0.50449950D+00  0.32040818D+00  0.78682825D-01 -0.42245020D-03 -0.78109579D-03
 -0.13171978D-02 -0.20988356D-02 -0.29256188D-02 -0.37277143D-02 -0.37020051D-02
 -0.33392959D-02 -0.19113505D-02 -0.87182376D-02 -0.16863244D-02 -0.38962537D-05
 -0.89480628D-02 -0.65659645D-02 -0.53917262D-02  0.51650644D-02  0.37900527D-02
  0.31122505D-02 -0.70167697D-03 -0.51488084D-03 -0.42280102D-03 -0.15083882D-02
  0.87103673D-03 -0.11858760D-03 -0.45735366D-04  0.26400089D-04 -0.36156926D-05
 -0.22452376D-05  0.12971516D-05 -0.17808187D-06 -0.77191998D-03  0.18342202D-03
  0.58849795D-03  0.16539901D-02 -0.21676819D-03  0.12511822D-03 -0.13340471D-03
  0.22089565D-04  0.11131515D-03  0.26954854D-03 -0.38361711D-04  0.22158032D-04
 -0.18219580D-04  0.15396177D-05  0.16679962D-04  0.34234094D-04 -0.53155737D-05
  0.30696699D-05 -0.23122994D-04 -0.55106741D-04  0.73299080D-05 -0.23052761D-04
  0.21866839D-03 -0.22560110D-04  0.92421742D-04 -0.53348165D-04  0.57038568D-06
  0.40037512D-04 -0.59679273D-05 -0.21009850D-05  0.19233016D-05 -0.59949088D-05
  0.20109053D-04 -0.46553362D-05  0.23898691D-04 -0.13806097D-04 -0.11145688D-05
  0.61428320D-05
MO    3     MO 0.0        OCC NO =    2.0000000  ORB. ENERGY =   -0.836094
 -0.80066568D-02 -0.14919226D-01 -0.25232151D-01 -0.37998222D-01 -0.47044264D-01
 -0.40032545D-01 -0.15233122D-01  0.71343209D-04 -0.72027227D-01 -0.13505172D+00
 -0.22976316D+00 -0.35679793D+00 -0.47349161D+00 -0.49899516D+00 -0.30940883D+00
  0.20581887D+00  0.10064581D+00  0.53279269D-01 -0.41774954D-02  0.14913409D+00
  0.14324151D+00  0.10045083D+00 -0.86138305D-01 -0.82734812D-01 -0.58019361D-01
  0.12085841D-01  0.11608305D-01  0.81405450D-02  0.39571432D-01 -0.22855618D-01
  0.32071680D-02  0.44542015D-02 -0.25719646D-02  0.35670045D-03  0.71175038D-03
 -0.41089603D-03  0.55858213D-04  0.83975106D-02  0.12442395D-01 -0.20839906D-01
  0.70142380D-02  0.33023233D-02 -0.19084152D-02  0.31600315D-02  0.30983920D-02
 -0.62584235D-02 -0.10462025D-03  0.11398615D-02 -0.65862491D-03 -0.79189030D-05
 -0.21237911D-03  0.22029802D-03 -0.35403398D-03 -0.15812210D-04  0.91665216D-05
  0.10920055D-02 -0.30299430D-02 -0.35692823D-03  0.10875055D-02  0.65694620D-02
  0.50717422D-03 -0.43635221D-02  0.25203671D-02  0.56361048D-03  0.96950654D-04
  0.49978870D-04 -0.40422865D-03 -0.16719949D-04  0.50573456D-04  0.10967796D-02
 -0.30323974D-05 -0.20051007D-03  0.11590635D-03  0.53192243D-04  0.97061858D-04
  0.25219410D-01  0.45484244D-01  0.67066491D-01  0.28805593D-01 -0.28430128D-03
 -0.54787797D-03 -0.19166386D-02  0.25066069D-01 -0.99119577D-03 -0.19356697D-03
  0.19018409D-02 -0.75941146D-04  0.80862595D-05 -0.81935939D-03  0.29683113D-04
 -0.18857472D-02  0.44484999D-02 -0.25627527D-02 -0.18421461D-02  0.14461763D-03
 -0.60130291D-03  0.24398686D-03 -0.49286638D-03  0.24887952D-03  0.21767536D-03
 -0.83124533D-05  0.65625060D-04  0.25219859D-01  0.45485055D-01  0.67067687D-01
  0.28804433D-01 -0.28525644D-03 -0.54792429D-03 -0.22669917D-01 -0.10866494D-01
 -0.99051334D-03 -0.17427447D-02 -0.78435950D-03 -0.75750142D-04  0.71381745D-03
  0.40259653D-03  0.29661280D-04  0.36636558D-02 -0.11011167D-02 -0.25625391D-02
  0.45624770D-02  0.59267324D-03  0.17512560D-03 -0.40325315D-03  0.15440143D-03
  0.24885172D-03 -0.52882106D-03 -0.60986096D-04 -0.25588369D-04 -0.14669945D-02
 -0.27266092D-02 -0.46433685D-02 -0.72414453D-02 -0.10116711D-01 -0.12059306D-01
 -0.11432182D-01 -0.72605914D-02 -0.17829877D-02 -0.11083860D-02 -0.20493673D-02
 -0.34559425D-02 -0.55067319D-02 -0.76759698D-02 -0.97804341D-02 -0.97129806D-02
 -0.87613377D-02 -0.50148259D-02  0.84668772D-02  0.17921940D-02  0.22766543D-04
  0.77734962D-02  0.57040838D-02  0.46839818D-02 -0.44874317D-02 -0.32928152D-02
 -0.27039376D-02  0.60988177D-03  0.44752279D-03  0.36748910D-03  0.14642604D-02
 -0.84520507D-03  0.11461112D-03  0.36240068D-04 -0.20925023D-04  0.28944456D-05
  0.68985662D-05 -0.39823940D-05  0.54215981D-06  0.89756901D-03 -0.15050585D-03
 -0.74706316D-03 -0.18147422D-02  0.25660774D-03 -0.14813141D-03  0.85434349D-04
 -0.93884015D-05 -0.76045948D-04 -0.16414145D-03  0.24483621D-04 -0.14133892D-04
  0.16144908D-04 -0.47904513D-05 -0.11354457D-04 -0.36247514D-04  0.45060947D-05
 -0.26007619D-05  0.70560689D-04  0.63733612D-04 -0.22503906D-04  0.70445743D-04
 -0.35405175D-03  0.58540248D-04 -0.28212781D-03  0.16285091D-03  0.89714710D-05
 -0.85829124D-04 -0.20098614D-06  0.30287517D-06  0.82345008D-07 -0.20239100D-06
 -0.44168210D-06 -0.15252822D-06  0.80534943D-06 -0.46694342D-06 -0.94506806D-07
  0.10107413D-06
MO    4     MO 0.0        OCC NO =    2.0000000  ORB. ENERGY =   -0.437489
 -0.24995588D-06 -0.46575598D-06 -0.78771013D-06 -0.11862478D-05 -0.14686517D-05
 -0.12497563D-05 -0.47555534D-06  0.22272286D-08  0.43912198D-06  0.82335781D-06
  0.14007766D-05  0.21752582D-05  0.28866941D-05  0.30421794D-05  0.18863453D-05
 -0.12547976D-05 -0.54818850D-06  0.84193793D-05  0.55867751D-05  0.43314787D+00
  0.41603335D+00  0.29175130D+00  0.74984717D+00  0.72021924D+00  0.50506744D+00
 -0.10443338D-04 -0.10030701D-04 -0.70342202D-05  0.98034779D-01  0.16971103D+00
 -0.22853803D-05  0.12282687D-01  0.21262412D-01 -0.26314197D-06  0.45224449D-03
  0.78438854D-03 -0.60919716D-07  0.37019300D-01 -0.37018970D-01 -0.33030364D-06
  0.42712746D-01  0.29932023D-02  0.51850392D-02  0.45205319D-02 -0.45198274D-02
 -0.70455875D-06  0.52149316D-02  0.36645451D-03  0.63443194D-03  0.32865127D-03
 -0.32855450D-03 -0.96768373D-07  0.38007346D-03  0.25427546D-04  0.44117844D-04
 -0.42099379D-03  0.17714128D-02  0.98257843D-07  0.53587533D-02  0.17756615D-02
  0.35249877D-03 -0.40957719D-02 -0.70898999D-02 -0.35279355D-03  0.40646575D-03
  0.11822081D-02  0.21997669D-03 -0.17955669D-07 -0.30380277D-02  0.21963223D-03
  0.26579011D-03 -0.50859655D-03 -0.87956229D-03 -0.26573625D-03  0.30681055D-03
 -0.36407212D-01 -0.65661907D-01 -0.96818443D-01 -0.68301130D-01 -0.12074646D-01
  0.12361638D-03  0.11964207D-01 -0.26345798D-01  0.16437847D-02  0.89154063D-02
 -0.87683844D-02  0.83772361D-03  0.10122189D-02 -0.14089836D-03  0.63466559D-04
  0.38263757D-02 -0.96138511D-02  0.57874754D-02  0.10193199D-01 -0.59916836D-03
  0.16909328D-02 -0.14131739D-03 -0.65210894D-04  0.20652828D-03  0.11249478D-02
 -0.81313042D-04  0.86074275D-04  0.36409931D-01  0.65666809D-01  0.96825672D-01
  0.68298120D-01  0.12069907D-01 -0.12310367D-03 -0.28800565D-01 -0.28041735D-02
 -0.16432518D-02 -0.12047588D-01  0.33388337D-02 -0.83739646D-03 -0.62683438D-03
  0.80552086D-03 -0.63389298D-04  0.10669494D-01 -0.48817653D-02 -0.57877291D-02
  0.65341641D-02  0.17633123D-02  0.32585119D-03  0.57110962D-03 -0.36441536D-03
 -0.20669426D-03 -0.62905825D-03  0.11519833D-03 -0.27422419D-04  0.34621811D-06
  0.64349356D-06  0.10958585D-05  0.17090177D-05  0.23875951D-05  0.28460572D-05
  0.26980529D-05  0.17135363D-05  0.42079412D-06  0.94493261D-06  0.17471477D-05
  0.29462955D-05  0.46946555D-05  0.65439964D-05  0.83381159D-05  0.82806098D-05
  0.74693054D-05  0.42752908D-05 -0.55622245D-05 -0.12542797D-05 -0.20647497D-08
  0.29712546D-02  0.21802655D-02  0.17903530D-02  0.51600255D-02  0.37863552D-02
  0.31092143D-02 -0.62365901D-06 -0.45763234D-06 -0.37579068D-06 -0.10921698D-03
 -0.18731702D-03 -0.56977284D-07 -0.20849541D-04 -0.36007123D-04 -0.24414659D-08
  0.28081977D-05  0.48640310D-05 -0.16436491D-09  0.86768997D-03 -0.86828219D-03
  0.59221852D-06  0.10042525D-02  0.68484312D-04  0.11920212D-03 -0.72157742D-04
  0.72159983D-04 -0.22403067D-08 -0.83283334D-04 -0.56556208D-05 -0.98008672D-05
 -0.13562467D-04  0.13552859D-04  0.96082677D-08 -0.15630106D-04 -0.10657279D-05
 -0.18408449D-05  0.17115714D-03  0.24339283D-04  0.20417747D-07 -0.45731333D-03
  0.24760152D-04  0.36600181D-04 -0.56158090D-04 -0.97777999D-04 -0.36661434D-04
  0.42419784D-04 -0.21639382D-04 -0.45310404D-05 -0.13937233D-08  0.54456872D-04
 -0.45502686D-05 -0.49388726D-05  0.10461274D-04  0.18143390D-04  0.49430538D-05
 -0.57121323D-05
MO    5     MO 0.0        OCC NO =    2.0000000  ORB. ENERGY =   -0.332049
 -0.27250073D-03 -0.50776499D-03 -0.85875789D-03 -0.12932418D-02 -0.16011172D-02
 -0.13624785D-02 -0.51844821D-03  0.24281141D-05 -0.25326578D-01 -0.47487571D-01
 -0.80790487D-01 -0.12545910D+00 -0.16649152D+00 -0.17545921D+00 -0.10879590D+00
  0.72371075D-01  0.35232504D-01  0.19455889D-01 -0.24328711D-01 -0.80316013D+00
 -0.77142570D+00 -0.54097695D+00  0.46392195D+00  0.44559149D+00  0.31247951D+00
 -0.64233354D-01 -0.61695368D-01 -0.43265051D-01 -0.19639198D+00  0.11343959D+00
 -0.15706356D-01 -0.20869473D-01  0.12061039D-01 -0.16844421D-02  0.24128237D-02
 -0.13920110D-02  0.18773115D-03 -0.12741376D-01 -0.70119109D-02  0.19753287D-01
  0.99495585D-02 -0.43177536D-02  0.24955333D-02 -0.80905258D-03 -0.60351342D-03
  0.14125660D-02  0.36098173D-03 -0.29407797D-03  0.17009562D-03  0.36964510D-03
 -0.62355281D-04 -0.30728982D-03 -0.74544445D-03  0.10411153D-03 -0.60003928D-04
 -0.23400608D-02  0.17478378D-02  0.75775422D-03 -0.23386833D-02  0.16252844D-03
 -0.15696816D-02  0.93588658D-02 -0.54060420D-02 -0.70358105D-03  0.15028822D-02
 -0.28112934D-03 -0.48128653D-03  0.90208238D-04 -0.28023702D-03  0.20928119D-02
 -0.25747548D-03  0.11236251D-02 -0.64895227D-03 -0.13149238D-04  0.42302482D-03
 -0.20904012D-01 -0.37701246D-01 -0.55590465D-01 -0.44647383D-01 -0.48637461D-02
 -0.17886986D-02 -0.10626909D-01 -0.14149231D-01 -0.14153180D-03 -0.92935109D-02
 -0.24494000D-02 -0.46560077D-03 -0.23885561D-02  0.15437382D-02 -0.19427096D-03
  0.33339718D-02 -0.50027608D-02  0.16687891D-02 -0.70351704D-02  0.43910404D-03
  0.45287251D-04 -0.40576101D-03  0.65670894D-03 -0.25094793D-03 -0.15891733D-02
  0.38926380D-04 -0.15725190D-03 -0.20899138D-01 -0.37692456D-01 -0.55577505D-01
 -0.44643537D-01 -0.48652645D-02 -0.17889344D-02  0.69437783D-02  0.16275612D-01
 -0.14223816D-03 -0.25236459D-02  0.92711904D-02 -0.46578008D-03 -0.25316511D-02
  0.12979097D-02 -0.19431881D-03  0.12504609D-03 -0.17933626D-02  0.16683165D-02
 -0.10736360D-01  0.18069585D-03 -0.40243465D-03  0.10794505D-02 -0.82779235D-03
 -0.25165815D-03  0.12487204D-03  0.15569468D-03  0.44840646D-04 -0.22226566D-02
 -0.41311103D-02 -0.70352098D-02 -0.10971580D-01 -0.15327921D-01 -0.18271164D-01
 -0.17321004D-01 -0.11000588D-01 -0.27014209D-02 -0.49579089D-02 -0.91670018D-02
 -0.15458737D-01 -0.24632100D-01 -0.34335293D-01 -0.43748749D-01 -0.43447024D-01
 -0.39190240D-01 -0.22431761D-01  0.38519856D-01  0.76836802D-02  0.16066150D-04
  0.35148524D-01  0.25791500D-01  0.21179022D-01 -0.20285374D-01 -0.14885126D-01
 -0.12223113D-01  0.27406819D-02  0.20110744D-02  0.16514196D-02  0.61584201D-02
 -0.35548630D-02  0.48038007D-03  0.16289086D-03 -0.94126617D-04  0.13096262D-04
  0.17848518D-04 -0.10293403D-04  0.13884495D-05  0.32243776D-02 -0.69090430D-03
 -0.25334733D-02 -0.67771861D-02  0.90741271D-03 -0.52370678D-03  0.24465481D-03
 -0.13170079D-03 -0.11295402D-03 -0.65166948D-03  0.63320984D-04 -0.36540468D-04
  0.66767668D-04 -0.94239191D-05 -0.57343749D-04 -0.13198830D-03  0.19229975D-04
 -0.11103684D-04  0.22930980D-03  0.31951506D-03 -0.72635850D-04  0.22871831D-03
 -0.14876562D-02  0.20028826D-03 -0.91664770D-03  0.52911100D-03  0.17619293D-04
 -0.31622010D-03 -0.10301464D-04  0.11108902D-04  0.32889059D-05 -0.10262916D-04
 -0.95735658D-05 -0.64758275D-05  0.41167309D-04 -0.23753140D-04 -0.33908902D-05
  0.53372014D-05
MO    6     MO 0.0        OCC NO =    2.0000000  ORB. ENERGY =   -0.219176
 -0.64042714D-06 -0.11933417D-05 -0.20182399D-05 -0.30393575D-05 -0.37629218D-05
 -0.32020766D-05 -0.12184492D-05  0.57065175D-08  0.24810425D-04  0.46519779D-04
  0.79143985D-04  0.12290225D-03  0.16309844D-03  0.17188336D-03  0.10657865D-03
 -0.70896159D-04 -0.36525314D-04 -0.13258712D-03 -0.71297344D-04 -0.60731735D-01
 -0.58332106D-01 -0.40906499D-01  0.35095772D-01  0.33709070D-01  0.23639127D-01
  0.10109481D+01  0.97100358D+00  0.68093473D+00 -0.15413717D-01  0.89072560D-02
  0.25644295D+00 -0.30354092D-02  0.17540974D-02  0.50753764D-01 -0.19726061D-03
  0.11401625D-03  0.34627865D-02 -0.14583238D-02 -0.49082848D-03  0.19491523D-02
  0.16781341D-02  0.23950143D-01 -0.13836237D-01 -0.79277913D-04 -0.36795572D-04
  0.11607349D-03  0.73842306D-04  0.12304404D-02 -0.71153736D-03 -0.60015239D-04
 -0.23217767D-04  0.83233005D-04  0.63775885D-04  0.10361060D-02 -0.59804804D-03
 -0.47831100D-03  0.35329074D-03 -0.59958717D-02 -0.47776840D-03  0.45393092D-04
  0.78710589D-02  0.19127014D-02 -0.11052653D-02  0.10116556D-01  0.38965757D-02
 -0.94280003D-04  0.88986568D-05 -0.58909129D-03 -0.94321958D-04  0.19101108D-03
  0.15724040D-02  0.37716197D-03 -0.21770705D-03  0.19486990D-03 -0.23842109D-02
  0.70227301D-05  0.12665783D-04  0.18675690D-04  0.34063273D-04  0.31143761D-04
 -0.45365317D-05 -0.12586547D-02  0.73534857D-03  0.20971958D-01 -0.78159993D-03
  0.45419069D-03  0.12679298D-01 -0.13169578D-03  0.77144710D-04  0.20318240D-02
  0.13049996D-03  0.44945367D-03 -0.57995364D-03 -0.85948326D-03 -0.21640377D-02
  0.12795126D-01  0.73418318D-04  0.49794926D-04 -0.12321324D-03 -0.13218381D-03
 -0.12474514D-02  0.14049675D-02  0.70176777D-05  0.12656671D-04  0.18662254D-04
  0.34041581D-04  0.31280230D-04 -0.45570468D-05 -0.12656190D-02  0.72334837D-03
  0.20972348D-01 -0.78365909D-03  0.45035128D-03  0.12676643D-01 -0.13260754D-03
  0.75535039D-04  0.20310937D-02  0.74156447D-03 -0.16197414D-03 -0.57959033D-03
 -0.15447350D-03 -0.12163015D-01 -0.45187829D-02  0.11286890D-03  0.10317039D-04
 -0.12318594D-03 -0.86667295D-04 -0.18400219D-02  0.37859402D-03 -0.17590392D-05
 -0.32694141D-05 -0.55677560D-05 -0.86830499D-05 -0.12130715D-04 -0.14460035D-04
 -0.13708066D-04 -0.87060076D-05 -0.21379394D-05 -0.78903733D-05 -0.14589027D-04
 -0.24602148D-04 -0.39201298D-04 -0.54643658D-04 -0.69624910D-04 -0.69144722D-04
 -0.62370170D-04 -0.35699520D-04  0.68008099D-04  0.18998250D-04  0.99119873D-07
 -0.11720711D-02 -0.86004953D-03 -0.70624074D-03  0.67737559D-03  0.49704882D-03
  0.40815804D-03  0.20809033D-01  0.15269380D-01  0.12538648D-01 -0.12048436D-03
  0.69616035D-04  0.21863263D-02  0.66969110D-05 -0.38690734D-05 -0.10092189D-03
 -0.13452881D-05  0.77744046D-06  0.22814351D-04 -0.21719709D-03 -0.74929815D-04
  0.29212691D-03  0.24664775D-03  0.37657359D-02 -0.21739188D-02 -0.21967325D-04
 -0.72384363D-05  0.29205762D-04  0.25513817D-04  0.36451102D-03 -0.21042387D-03
  0.32823241D-06  0.50643379D-07 -0.37887579D-06 -0.48033375D-06 -0.40313358D-05
  0.23234329D-05 -0.38488703D-04  0.26930849D-05 -0.24007411D-03 -0.38512687D-04
  0.80819396D-04  0.65371500D-03  0.15397880D-03 -0.88898651D-04  0.66507343D-04
 -0.10167927D-02  0.18347994D-05 -0.18097652D-06  0.12177208D-04  0.18372682D-05
 -0.36963517D-05 -0.31757275D-04 -0.73416665D-05  0.42392813D-05 -0.47743490D-05
  0.46727474D-04
END DATA
RHF
