 Molden2AIM, Version 4.0.0 (06/02/2016)           Time: Tue Jul  3 04:11:40 2018
GAUSSIAN             16 MOL ORBITALS    316 PRIMITIVES        4 NUCLEI
  P    1    (CENTRE  1)   0.00000000  0.00000000  1.83306080  CHARGE = 15.0
  P    2    (CENTRE  2)   0.00000000  0.00000000 -1.83306080  CHARGE = 15.0
  H    3    (CENTRE  3)   0.00000000  0.00000000  4.46315705  CHARGE =  1.0
  H    4    (CENTRE  4)   0.00000000  0.00000000 -4.46315705  CHARGE =  1.0
CENTRE ASSIGNMENTS    1  1  1  1  1  1  1  1  1  1  1  1  1  1  1  1  1  1  1  1
CENTRE ASSIGNMENTS    1  1  1  1  1  1  1  1  1  1  1  1  1  1  1  1  1  1  1  1
CENTRE ASSIGNMENTS    1  1  1  1  1  1  1  1  1  1  1  1  1  1  1  1  1  1  1  1
CENTRE ASSIGNMENTS    1  1  1  1  1  1  1  1  1  1  1  1  1  1  1  1  1  1  1  1
CENTRE ASSIGNMENTS    1  1  1  1  1  1  1  1  1  1  1  1  1  1  1  1  1  1  1  1
CENTRE ASSIGNMENTS    1  1  1  1  1  1  1  1  1  1  1  1  1  1  1  1  1  1  1  1
CENTRE ASSIGNMENTS    1  1  1  1  1  1  1  1  1  1  1  2  2  2  2  2  2  2  2  2
CENTRE ASSIGNMENTS    2  2  2  2  2  2  2  2  2  2  2  2  2  2  2  2  2  2  2  2
CENTRE ASSIGNMENTS    2  2  2  2  2  2  2  2  2  2  2  2  2  2  2  2  2  2  2  2
CENTRE ASSIGNMENTS    2  2  2  2  2  2  2  2  2  2  2  2  2  2  2  2  2  2  2  2
CENTRE ASSIGNMENTS    2  2  2  2  2  2  2  2  2  2  2  2  2  2  2  2  2  2  2  2
CENTRE ASSIGNMENTS    2  2  2  2  2  2  2  2  2  2  2  2  2  2  2  2  2  2  2  2
CENTRE ASSIGNMENTS    2  2  2  2  2  2  2  2  2  2  2  2  2  2  2  2  2  2  2  2
CENTRE ASSIGNMENTS    2  2  3  3  3  3  3  3  3  3  3  3  3  3  3  3  3  3  3  3
CENTRE ASSIGNMENTS    3  3  3  3  3  3  3  3  3  4  4  4  4  4  4  4  4  4  4  4
CENTRE ASSIGNMENTS    4  4  4  4  4  4  4  4  4  4  4  4  4  4  4  4
TYPE ASSIGNMENTS      1  1  1  1  1  1  1  1  1  1  1  1  1  1  1  1  1  1  1  1
TYPE ASSIGNMENTS      1  1  1  1  1  1  1  1  1  1  1  1  1  1  1  1  1  1  1  1
TYPE ASSIGNMENTS      1  1  2  2  2  2  2  2  2  3  3  3  3  3  3  3  4  4  4  4
TYPE ASSIGNMENTS      4  4  4  2  2  2  2  2  2  2  3  3  3  3  3  3  3  4  4  4
TYPE ASSIGNMENTS      4  4  4  4  2  3  4  2  3  4  2  3  4  5  6  7  8  9 10  5
TYPE ASSIGNMENTS      6  7  8  9 10  5  6  7  8  9 10 11 12 13 17 14 15 18 19 16
TYPE ASSIGNMENTS     20 11 12 13 17 14 15 18 19 16 20  1  1  1  1  1  1  1  1  1
TYPE ASSIGNMENTS      1  1  1  1  1  1  1  1  1  1  1  1  1  1  1  1  1  1  1  1
TYPE ASSIGNMENTS      1  1  1  1  1  1  1  1  1  1  1  1  1  2  2  2  2  2  2  2
TYPE ASSIGNMENTS      3  3  3  3  3  3  3  4  4  4  4  4  4  4  2  2  2  2  2  2
TYPE ASSIGNMENTS      2  3  3  3  3  3  3  3  4  4  4  4  4  4  4  2  3  4  2  3
TYPE ASSIGNMENTS      4  2  3  4  5  6  7  8  9 10  5  6  7  8  9 10  5  6  7  8
TYPE ASSIGNMENTS      9 10 11 12 13 17 14 15 18 19 16 20 11 12 13 17 14 15 18 19
TYPE ASSIGNMENTS     16 20  1  1  1  1  1  1  2  3  4  2  3  4  2  3  4  5  6  7
TYPE ASSIGNMENTS      8  9 10  5  6  7  8  9 10  1  1  1  1  1  1  2  3  4  2  3
TYPE ASSIGNMENTS      4  2  3  4  5  6  7  8  9 10  5  6  7  8  9 10
EXPONENTS  0.3124000D+06 0.4680000D+05 0.1065000D+05 0.3018000D+04 0.9868000D+03
EXPONENTS  0.3574000D+03 0.1396000D+03 0.5763000D+02 0.2460000D+02 0.1012000D+02
EXPONENTS  0.4283000D+01 0.1805000D+01 0.2782000D+00 0.3124000D+06 0.4680000D+05
EXPONENTS  0.1065000D+05 0.3018000D+04 0.9868000D+03 0.3574000D+03 0.1396000D+03
EXPONENTS  0.5763000D+02 0.2460000D+02 0.1012000D+02 0.4283000D+01 0.1805000D+01
EXPONENTS  0.2782000D+00 0.3124000D+06 0.4680000D+05 0.1065000D+05 0.3018000D+04
EXPONENTS  0.9868000D+03 0.3574000D+03 0.1396000D+03 0.5763000D+02 0.2460000D+02
EXPONENTS  0.1012000D+02 0.4283000D+01 0.1805000D+01 0.2782000D+00 0.6158000D+00
EXPONENTS  0.1055000D+00 0.4090000D-01 0.5049000D+03 0.1194000D+03 0.3796000D+02
EXPONENTS  0.1395000D+02 0.5457000D+01 0.2177000D+01 0.2877000D+00 0.5049000D+03
EXPONENTS  0.1194000D+03 0.3796000D+02 0.1395000D+02 0.5457000D+01 0.2177000D+01
EXPONENTS  0.2877000D+00 0.5049000D+03 0.1194000D+03 0.3796000D+02 0.1395000D+02
EXPONENTS  0.5457000D+01 0.2177000D+01 0.2877000D+00 0.5049000D+03 0.1194000D+03
EXPONENTS  0.3796000D+02 0.1395000D+02 0.5457000D+01 0.2177000D+01 0.2877000D+00
EXPONENTS  0.5049000D+03 0.1194000D+03 0.3796000D+02 0.1395000D+02 0.5457000D+01
EXPONENTS  0.2177000D+01 0.2877000D+00 0.5049000D+03 0.1194000D+03 0.3796000D+02
EXPONENTS  0.1395000D+02 0.5457000D+01 0.2177000D+01 0.2877000D+00 0.8010000D+00
EXPONENTS  0.8010000D+00 0.8010000D+00 0.9714000D-01 0.9714000D-01 0.9714000D-01
EXPONENTS  0.3070000D-01 0.3070000D-01 0.3070000D-01 0.2160000D+00 0.2160000D+00
EXPONENTS  0.2160000D+00 0.2160000D+00 0.2160000D+00 0.2160000D+00 0.6520000D+00
EXPONENTS  0.6520000D+00 0.6520000D+00 0.6520000D+00 0.6520000D+00 0.6520000D+00
EXPONENTS  0.7750000D-01 0.7750000D-01 0.7750000D-01 0.7750000D-01 0.7750000D-01
EXPONENTS  0.7750000D-01 0.4520000D+00 0.4520000D+00 0.4520000D+00 0.4520000D+00
EXPONENTS  0.4520000D+00 0.4520000D+00 0.4520000D+00 0.4520000D+00 0.4520000D+00
EXPONENTS  0.4520000D+00 0.1650000D+00 0.1650000D+00 0.1650000D+00 0.1650000D+00
EXPONENTS  0.1650000D+00 0.1650000D+00 0.1650000D+00 0.1650000D+00 0.1650000D+00
EXPONENTS  0.1650000D+00 0.3124000D+06 0.4680000D+05 0.1065000D+05 0.3018000D+04
EXPONENTS  0.9868000D+03 0.3574000D+03 0.1396000D+03 0.5763000D+02 0.2460000D+02
EXPONENTS  0.1012000D+02 0.4283000D+01 0.1805000D+01 0.2782000D+00 0.3124000D+06
EXPONENTS  0.4680000D+05 0.1065000D+05 0.3018000D+04 0.9868000D+03 0.3574000D+03
EXPONENTS  0.1396000D+03 0.5763000D+02 0.2460000D+02 0.1012000D+02 0.4283000D+01
EXPONENTS  0.1805000D+01 0.2782000D+00 0.3124000D+06 0.4680000D+05 0.1065000D+05
EXPONENTS  0.3018000D+04 0.9868000D+03 0.3574000D+03 0.1396000D+03 0.5763000D+02
EXPONENTS  0.2460000D+02 0.1012000D+02 0.4283000D+01 0.1805000D+01 0.2782000D+00
EXPONENTS  0.6158000D+00 0.1055000D+00 0.4090000D-01 0.5049000D+03 0.1194000D+03
EXPONENTS  0.3796000D+02 0.1395000D+02 0.5457000D+01 0.2177000D+01 0.2877000D+00
EXPONENTS  0.5049000D+03 0.1194000D+03 0.3796000D+02 0.1395000D+02 0.5457000D+01
EXPONENTS  0.2177000D+01 0.2877000D+00 0.5049000D+03 0.1194000D+03 0.3796000D+02
EXPONENTS  0.1395000D+02 0.5457000D+01 0.2177000D+01 0.2877000D+00 0.5049000D+03
EXPONENTS  0.1194000D+03 0.3796000D+02 0.1395000D+02 0.5457000D+01 0.2177000D+01
EXPONENTS  0.2877000D+00 0.5049000D+03 0.1194000D+03 0.3796000D+02 0.1395000D+02
EXPONENTS  0.5457000D+01 0.2177000D+01 0.2877000D+00 0.5049000D+03 0.1194000D+03
EXPONENTS  0.3796000D+02 0.1395000D+02 0.5457000D+01 0.2177000D+01 0.2877000D+00
EXPONENTS  0.8010000D+00 0.8010000D+00 0.8010000D+00 0.9714000D-01 0.9714000D-01
EXPONENTS  0.9714000D-01 0.3070000D-01 0.3070000D-01 0.3070000D-01 0.2160000D+00
EXPONENTS  0.2160000D+00 0.2160000D+00 0.2160000D+00 0.2160000D+00 0.2160000D+00
EXPONENTS  0.6520000D+00 0.6520000D+00 0.6520000D+00 0.6520000D+00 0.6520000D+00
EXPONENTS  0.6520000D+00 0.7750000D-01 0.7750000D-01 0.7750000D-01 0.7750000D-01
EXPONENTS  0.7750000D-01 0.7750000D-01 0.4520000D+00 0.4520000D+00 0.4520000D+00
EXPONENTS  0.4520000D+00 0.4520000D+00 0.4520000D+00 0.4520000D+00 0.4520000D+00
EXPONENTS  0.4520000D+00 0.4520000D+00 0.1650000D+00 0.1650000D+00 0.1650000D+00
EXPONENTS  0.1650000D+00 0.1650000D+00 0.1650000D+00 0.1650000D+00 0.1650000D+00
EXPONENTS  0.1650000D+00 0.1650000D+00 0.3387000D+02 0.5095000D+01 0.1159000D+01
EXPONENTS  0.3258000D+00 0.1027000D+00 0.2526000D-01 0.1407000D+01 0.1407000D+01
EXPONENTS  0.1407000D+01 0.3880000D+00 0.3880000D+00 0.3880000D+00 0.1020000D+00
EXPONENTS  0.1020000D+00 0.1020000D+00 0.1057000D+01 0.1057000D+01 0.1057000D+01
EXPONENTS  0.1057000D+01 0.1057000D+01 0.1057000D+01 0.2470000D+00 0.2470000D+00
EXPONENTS  0.2470000D+00 0.2470000D+00 0.2470000D+00 0.2470000D+00 0.3387000D+02
EXPONENTS  0.5095000D+01 0.1159000D+01 0.3258000D+00 0.1027000D+00 0.2526000D-01
EXPONENTS  0.1407000D+01 0.1407000D+01 0.1407000D+01 0.3880000D+00 0.3880000D+00
EXPONENTS  0.3880000D+00 0.1020000D+00 0.1020000D+00 0.1020000D+00 0.1057000D+01
EXPONENTS  0.1057000D+01 0.1057000D+01 0.1057000D+01 0.1057000D+01 0.1057000D+01
EXPONENTS  0.2470000D+00 0.2470000D+00 0.2470000D+00 0.2470000D+00 0.2470000D+00
EXPONENTS  0.2470000D+00
MO    1     MO 0.0        OCC NO =    2.0000000  ORB. ENERGY =  -78.177482
  0.38449810D+00  0.71939014D+00  0.12421743D+01  0.20089132D+01  0.30320463D+01
  0.41539972D+01  0.48004839D+01  0.40342071D+01  0.17720005D+01  0.20253674D+00
 -0.27297179D-02  0.16978083D-02  0.83515156D-04 -0.52595135D-03 -0.98373693D-03
 -0.17032873D-02 -0.27657405D-02 -0.42475311D-02 -0.60409643D-02 -0.76861567D-02
 -0.79655643D-02 -0.53156121D-02  0.52352001D-03  0.39988399D-02  0.20532406D-02
 -0.90064601D-05  0.24402595D-03  0.45601643D-03  0.79074866D-03  0.12822835D-02
  0.19765030D-02  0.28124558D-02  0.36215923D-02  0.38072059D-02  0.26689681D-02
 -0.30989108D-03 -0.25087652D-02 -0.23610889D-02  0.11514068D-02 -0.12091108D-02
  0.54415747D-03 -0.58228193D-04 -0.46618251D-15 -0.60985569D-15 -0.66720350D-15
 -0.54959069D-15 -0.29385360D-15 -0.81194601D-16  0.66551567D-19  0.30062621D-16
  0.39327646D-16  0.43025822D-16  0.35441348D-16  0.18949680D-16  0.52359805D-17
 -0.42916980D-20 -0.29230129D-03 -0.38238588D-03 -0.41834355D-03 -0.34459909D-03
 -0.18424927D-03 -0.50909861D-04  0.41728526D-07  0.32036860D-17  0.42429816D-17
  0.46873549D-17  0.40147338D-17  0.21901892D-17  0.67320673D-18 -0.29309064D-18
 -0.78363250D-18 -0.10378478D-17 -0.11465430D-17 -0.98201756D-18 -0.53572774D-18
 -0.16466866D-18  0.71690969D-19  0.59600139D-03  0.78934795D-03  0.87201744D-03
  0.74688560D-03  0.40745436D-03  0.12524079D-03 -0.54525453D-04  0.76366151D-18
 -0.17420202D-18 -0.11813229D-03 -0.41497575D-20 -0.72083170D-20  0.35025215D-03
  0.14915835D-20  0.99318794D-21  0.59068726D-05 -0.78009078D-05 -0.78009078D-05
  0.15601816D-04  0.46942568D-21  0.60785181D-20  0.88264294D-20 -0.10312304D-03
 -0.10312304D-03  0.20624607D-03  0.34141678D-19 -0.29959847D-19  0.55023232D-19
  0.14334761D-04  0.14334761D-04 -0.28669522D-04 -0.47912160D-21 -0.17141461D-19
 -0.58779932D-20  0.23622445D-19 -0.14836755D-20  0.34121063D-04  0.23917394D-19
 -0.25851652D-20 -0.51181594D-04 -0.94784728D-19  0.70361917D-20 -0.51181594D-04
 -0.13017130D-19  0.38669174D-20  0.18460326D-20  0.30166469D-04  0.39398765D-20
  0.17625295D-20 -0.45249704D-04 -0.15540629D-19 -0.73006274D-20 -0.45249704D-04
  0.24796122D-20  0.38451896D+00  0.71942916D+00  0.12422417D+01  0.20090221D+01
  0.30322107D+01  0.41542225D+01  0.48007442D+01  0.40344259D+01  0.17720966D+01
  0.20254772D+00 -0.27298660D-02  0.16979003D-02  0.83519685D-04 -0.52598158D-03
 -0.98379347D-03 -0.17033852D-02 -0.27658994D-02 -0.42477752D-02 -0.60413115D-02
 -0.76865985D-02 -0.79660221D-02 -0.53159176D-02  0.52355010D-03  0.39990697D-02
  0.20533587D-02 -0.90069778D-05  0.24404014D-03  0.45604294D-03  0.79079463D-03
  0.12823581D-02  0.19766179D-02  0.28126193D-02  0.36218028D-02  0.38074272D-02
  0.26691232D-02 -0.30990909D-03 -0.25089110D-02 -0.23612262D-02  0.11514737D-02
 -0.12091734D-02  0.54410765D-03 -0.58248755D-04  0.31994964D-17  0.41855520D-17
  0.45791405D-17  0.37719421D-17  0.20167714D-17  0.55725350D-18 -0.45675566D-21
  0.13510748D-16  0.17674637D-16  0.19336672D-16  0.15928056D-16  0.85163681D-17
  0.23531551D-17 -0.19287756D-20  0.29212949D-03  0.38216113D-03  0.41809767D-03
  0.34439655D-03  0.18414098D-03  0.50879939D-04 -0.41704000D-07 -0.22569960D-17
 -0.29891796D-17 -0.33022405D-17 -0.28283790D-17 -0.15429878D-17 -0.47427399D-18
  0.20648229D-18 -0.21336408D-17 -0.28258072D-17 -0.31217579D-17 -0.26737951D-17
 -0.14586564D-17 -0.44835274D-18  0.19519708D-18 -0.59585715D-03 -0.78915691D-03
 -0.87180639D-03 -0.74670484D-03 -0.40735575D-03 -0.12521048D-03  0.54512257D-04
 -0.43654553D-18 -0.62823510D-18  0.11813470D-03  0.54922640D-20 -0.24699506D-19
 -0.35022398D-03 -0.17176649D-20  0.30836640D-21 -0.59087763D-05 -0.77999269D-05
 -0.77999269D-05  0.15599854D-04  0.26265258D-20  0.13651009D-19 -0.69026307D-20
 -0.10312696D-03 -0.10312696D-03  0.20625391D-03 -0.39149949D-21 -0.91016190D-20
 -0.13339459D-19  0.14335768D-04  0.14335768D-04 -0.28671537D-04  0.37193558D-21
 -0.17403719D-19 -0.27926735D-20 -0.21846481D-19 -0.92484185D-20 -0.34123683D-04
 -0.21498391D-19 -0.80882815D-20  0.51185525D-04  0.87037833D-19  0.35833537D-19
  0.51185525D-04 -0.55325146D-20 -0.44179544D-20  0.10323057D-20 -0.30165227D-04
 -0.43342444D-20  0.10270607D-20  0.45247841D-04  0.17588108D-19 -0.41239778D-20
  0.45247841D-04  0.11943774D-20  0.38058022D-04  0.68639210D-04  0.10120847D-03
 -0.54998058D-03 -0.39693485D-03 -0.10484303D-05 -0.92892608D-19  0.86044030D-20
  0.24669318D-04  0.11895470D-18 -0.48533857D-20  0.23941587D-03  0.50434028D-19
  0.12133029D-19  0.11236858D-03  0.46548096D-04  0.46548096D-04 -0.93096192D-04
 -0.91525275D-20 -0.72667917D-19  0.58005825D-20  0.13384758D-04  0.13384758D-04
 -0.26769515D-04 -0.24293882D-20 -0.63820479D-19  0.15695259D-19  0.38058505D-04
  0.68640081D-04  0.10120976D-03 -0.54997734D-03 -0.39687055D-03 -0.10507971D-05
  0.81552793D-19  0.22756211D-19 -0.24667812D-04 -0.10959107D-18 -0.28433344D-19
 -0.23942744D-03 -0.47815455D-19 -0.29903390D-20 -0.11236273D-03  0.46550856D-04
  0.46550856D-04 -0.93101712D-04 -0.38822660D-20 -0.94786146D-19 -0.81032757D-20
  0.13386485D-04  0.13386485D-04 -0.26772971D-04  0.15824952D-22 -0.42729747D-19
 -0.27770379D-19
MO    2     MO 0.0        OCC NO =    2.0000000  ORB. ENERGY =  -78.177481
  0.38453561D+00  0.71946032D+00  0.12422955D+01  0.20091092D+01  0.30323420D+01
  0.41544024D+01  0.48009522D+01  0.40346006D+01  0.17721734D+01  0.20255649D+00
 -0.27299842D-02  0.16979739D-02  0.83523303D-04 -0.55746643D-03 -0.10426826D-02
 -0.18053485D-02 -0.29314640D-02 -0.45020437D-02 -0.64029396D-02 -0.81467122D-02
 -0.84428619D-02 -0.56341242D-02  0.55488940D-03  0.42384509D-02  0.21762711D-02
 -0.95461284D-05  0.26159410D-03  0.48884641D-03  0.84767700D-03  0.13745989D-02
  0.21187973D-02  0.30149328D-02  0.38823215D-02  0.40812979D-02  0.28611150D-02
 -0.33220105D-03 -0.26893786D-02 -0.25310707D-02  0.12343000D-02 -0.11553659D-02
 -0.91858684D-03 -0.37908030D-03  0.46029690D-15  0.60215620D-15  0.65877998D-15
  0.54265204D-15  0.29014366D-15  0.80169510D-16 -0.65711346D-19 -0.26216928D-16
 -0.34296746D-16 -0.37521841D-16 -0.30907594D-16 -0.16525585D-16 -0.45661795D-17
  0.37426922D-20  0.31680238D-02  0.41443797D-02  0.45340966D-02  0.37348385D-02
  0.19969329D-02  0.55177194D-03 -0.45226267D-06  0.10276635D-17  0.13610439D-17
  0.15035879D-17  0.12878276D-17  0.70255868D-18  0.21594812D-18 -0.94016249D-19
 -0.18594559D-17 -0.24626749D-17 -0.27205942D-17 -0.23301973D-17 -0.12712108D-17
 -0.39073687D-18  0.17011315D-18 -0.26598983D-02 -0.35227858D-02 -0.38917320D-02
 -0.33332803D-02 -0.18184306D-02 -0.55893787D-03  0.24334198D-03 -0.99887703D-19
 -0.29188667D-18 -0.44326795D-04  0.17771039D-19  0.13779590D-19 -0.51975232D-03
 -0.12202881D-21 -0.13419457D-20  0.35095678D-04  0.18077526D-04  0.18077526D-04
 -0.36155051D-04  0.50141452D-21 -0.16714485D-19 -0.30987728D-19 -0.72258701D-04
 -0.72258701D-04  0.14451740D-03  0.35389710D-19  0.21954161D-19  0.84508037D-19
  0.18570362D-04  0.18570362D-04 -0.37140725D-04 -0.52234803D-21 -0.33706310D-20
  0.15037826D-19  0.11964206D-19 -0.18782482D-19  0.48329217D-04  0.12321712D-19
 -0.19122092D-19 -0.72493826D-04 -0.48214330D-19  0.75469537D-19 -0.72493826D-04
 -0.10178996D-19 -0.10954829D-20 -0.42678380D-20 -0.22906742D-04 -0.10613077D-20
 -0.43851619D-20  0.34360112D-04  0.43477563D-20  0.17188676D-19  0.34360112D-04
  0.21308226D-20 -0.38451476D+00 -0.71942131D+00 -0.12422281D+01 -0.20090002D+01
 -0.30321776D+01 -0.41541772D+01 -0.48006919D+01 -0.40343819D+01 -0.17720773D+01
 -0.20254551D+00  0.27298362D-02 -0.16978818D-02 -0.83518774D-04  0.55743791D-03
  0.10426292D-02  0.18052562D-02  0.29313140D-02  0.45018133D-02  0.64026120D-02
  0.81462954D-02  0.84424300D-02  0.56338360D-02 -0.55486101D-03 -0.42382340D-02
 -0.21761597D-02  0.95456400D-05 -0.26158087D-03 -0.48882168D-03 -0.84763412D-03
 -0.13745294D-02 -0.21186901D-02 -0.30147803D-02 -0.38821251D-02 -0.40810915D-02
 -0.28609703D-02  0.33218425D-03  0.26892426D-02  0.25309427D-02 -0.12342376D-02
  0.11553004D-02  0.91861635D-03  0.37907715D-03 -0.16741434D-17 -0.21900990D-17
 -0.23960451D-17 -0.19736768D-17 -0.10552799D-17 -0.29158409D-18  0.23899838D-21
 -0.14508616D-16 -0.18980039D-16 -0.20764827D-16 -0.17104460D-16 -0.91453646D-17
 -0.25269530D-17  0.20712298D-20  0.31680396D-02  0.41444005D-02  0.45341193D-02
  0.37348571D-02  0.19969429D-02  0.55177470D-03 -0.45226494D-06  0.99968601D-18
  0.13239904D-17  0.14626537D-17  0.12527674D-17  0.68343200D-18  0.21006908D-18
 -0.91456721D-19  0.29206281D-17  0.38680981D-17  0.42732093D-17  0.36600168D-17
  0.19966777D-17  0.61372636D-18 -0.26719497D-18 -0.26599306D-02 -0.35228286D-02
 -0.38917793D-02 -0.33333208D-02 -0.18184527D-02 -0.55894467D-03  0.24334494D-03
  0.28654925D-18  0.71818202D-18 -0.44320389D-04  0.12472666D-19 -0.74575858D-21
 -0.51977131D-03 -0.96540099D-21  0.89384199D-21  0.35095357D-04 -0.18077949D-04
 -0.18077949D-04  0.36155897D-04 -0.34267931D-20  0.13420430D-19 -0.27791590D-19
  0.72253109D-04  0.72253109D-04 -0.14450622D-03 -0.17196805D-20 -0.39732550D-19
  0.52962452D-19 -0.18569585D-04 -0.18569585D-04  0.37139170D-04  0.62947696D-21
 -0.63272736D-20  0.13034759D-19  0.30278065D-20  0.19499737D-19  0.48327367D-04
  0.11701066D-20  0.17618862D-19 -0.72491050D-04 -0.10253526D-19 -0.76118072D-19
 -0.72491050D-04 -0.47441079D-20 -0.24651767D-20  0.39034791D-20 -0.22908377D-04
 -0.24151178D-20  0.39992832D-20  0.34362566D-04  0.98106479D-20 -0.15709720D-19
  0.34362566D-04  0.12845368D-20  0.89135783D-05  0.16076006D-04  0.23704061D-04
  0.59702908D-04  0.11858617D-02 -0.43631244D-04 -0.31392260D-19  0.67962675D-19
 -0.27781291D-04  0.39573497D-19 -0.91825685D-19  0.21347592D-03  0.78100745D-20
 -0.44163249D-19 -0.10795636D-03  0.50905344D-04  0.50905344D-04 -0.10181069D-03
 -0.11602537D-19 -0.23593286D-19  0.93776356D-19  0.31861077D-04  0.31861077D-04
 -0.63722154D-04 -0.19658485D-20 -0.37349892D-19  0.40060967D-19 -0.89115146D-05
 -0.16072284D-04 -0.23698573D-04 -0.59732732D-04 -0.11858832D-02  0.43631188D-04
  0.31316252D-20 -0.76414436D-19 -0.27782628D-04 -0.44855198D-20  0.96670327D-19
  0.21346294D-03 -0.16421950D-19  0.38224568D-19 -0.10796246D-03 -0.50902819D-04
 -0.50902819D-04  0.10180564D-03  0.20890808D-20 -0.14061413D-19  0.66578909D-19
 -0.31860351D-04 -0.31860351D-04  0.63720703D-04  0.10572440D-20  0.88505054D-20
  0.43714338D-19
MO    3     MO 0.0        OCC NO =    2.0000000  ORB. ENERGY =   -6.956013
 -0.11299387D-02 -0.21140983D-02 -0.36504234D-02 -0.59036671D-02 -0.89103859D-02
 -0.12207504D-01 -0.14107359D-01 -0.11855473D-01 -0.52074431D-02 -0.59520216D-03
  0.80219226D-05 -0.49894117D-05 -0.24542906D-06 -0.10252257D+00 -0.19175774D+00
 -0.33201816D+00 -0.53911988D+00 -0.82796216D+00 -0.11775523D+01 -0.14982461D+01
 -0.15527104D+01 -0.10361609D+01  0.10204864D+00  0.77948531D+00  0.40023381D+00
 -0.17556100D-02 -0.51990311D-03 -0.97155388D-03 -0.16847089D-02 -0.27319356D-02
 -0.42109868D-02 -0.59920041D-02 -0.77158887D-02 -0.81113429D-02 -0.56863001D-02
  0.66023033D-03  0.53449840D-02  0.50303562D-02 -0.24530997D-02  0.26689513D-01
  0.40633850D-03  0.76000854D-04  0.14040522D-14  0.18367682D-14  0.20094888D-14
  0.16552616D-14  0.88503062D-15  0.24454255D-15 -0.20044054D-18 -0.85048735D-15
 -0.11125998D-14 -0.12172231D-14 -0.10026544D-14 -0.53609641D-15 -0.14812864D-15
  0.12141439D-18  0.25694715D-01  0.33613591D-01  0.36774446D-01  0.30291947D-01
  0.16196413D-01  0.44752261D-02 -0.36681418D-05 -0.28119099D-15 -0.37241110D-15
 -0.41141423D-15 -0.35237754D-15 -0.19223528D-15 -0.59088086D-16  0.25724883D-16
  0.81131210D-15  0.10745068D-14  0.11870414D-14  0.10167045D-14  0.55465080D-15
  0.17048511D-15 -0.74223249D-16  0.35721565D-02  0.47309862D-02  0.52264689D-02
  0.44764866D-02  0.24420928D-02  0.75063530D-03 -0.32680033D-03 -0.19007031D-15
  0.39680269D-15  0.10617393D-02  0.23239245D-17 -0.12728559D-17 -0.88657029D-04
  0.26198115D-18 -0.74887800D-19 -0.20800398D-04  0.26738130D-04  0.26738130D-04
 -0.53476260D-04  0.19246748D-17 -0.54009879D-17 -0.25134009D-17  0.50152794D-06
  0.50152794D-06 -0.10030559D-05 -0.12861586D-16 -0.14446439D-18 -0.30987379D-18
 -0.29172081D-04 -0.29172081D-04  0.58344163D-04 -0.11277493D-18 -0.23128648D-17
  0.19724218D-18  0.97465860D-18 -0.45712893D-18 -0.68317464D-04  0.98725335D-18
 -0.57406297D-18  0.10247620D-03 -0.39112292D-17  0.19454497D-17  0.10247620D-03
 -0.69466345D-18  0.11646991D-18 -0.81587000D-19 -0.26467982D-04  0.11699579D-18
 -0.82295313D-19  0.39701972D-04 -0.46640553D-18  0.32705631D-18  0.39701972D-04
 -0.94611498D-19 -0.11299389D-02 -0.21140986D-02 -0.36504239D-02 -0.59036679D-02
 -0.89103872D-02 -0.12207506D-01 -0.14107361D-01 -0.11855474D-01 -0.52074438D-02
 -0.59520224D-03  0.80219237D-05 -0.49894123D-05 -0.24542909D-06 -0.10252259D+00
 -0.19175776D+00 -0.33201820D+00 -0.53911995D+00 -0.82796227D+00 -0.11775524D+01
 -0.14982463D+01 -0.15527106D+01 -0.10361610D+01  0.10204865D+00  0.77948541D+00
  0.40023386D+00 -0.17556103D-02 -0.51990318D-03 -0.97155403D-03 -0.16847091D-02
 -0.27319361D-02 -0.42109874D-02 -0.59920050D-02 -0.77158899D-02 -0.81113441D-02
 -0.56863009D-02  0.66023042D-03  0.53449848D-02  0.50303570D-02 -0.24531000D-02
  0.26689517D-01  0.40633879D-03  0.76000950D-04  0.60688998D-15  0.79392792D-15
  0.86858496D-15  0.71547318D-15  0.38254718D-15  0.10570150D-15 -0.86638770D-19
  0.58130138D-15  0.76045314D-15  0.83196239D-15  0.68530633D-15  0.36641766D-15
  0.10124475D-15 -0.82985777D-19 -0.25694716D-01 -0.33613593D-01 -0.36774448D-01
 -0.30291949D-01 -0.16196414D-01 -0.44752263D-02  0.36681420D-05 -0.51125155D-16
 -0.67710474D-16 -0.74801884D-16 -0.64068042D-16 -0.34951541D-16 -0.10743187D-16
  0.46772076D-17  0.62166245D-16  0.82333361D-16  0.90956247D-16  0.77904303D-16
  0.42499745D-16  0.13063307D-16 -0.56873066D-17 -0.35721590D-02 -0.47309896D-02
 -0.52264727D-02 -0.44764898D-02 -0.24420946D-02 -0.75063584D-03  0.32680056D-03
  0.61325702D-17  0.25834448D-16 -0.10617395D-02 -0.46147992D-17  0.18909554D-18
  0.88657065D-04 -0.29933065D-18  0.17966512D-18  0.20800406D-04  0.26738129D-04
  0.26738129D-04 -0.53476258D-04 -0.85504538D-18 -0.33848608D-18 -0.18066567D-17
  0.50152673D-06  0.50152673D-06 -0.10030535D-05  0.66545115D-17  0.15047141D-17
  0.17066563D-17 -0.29172086D-04 -0.29172086D-04  0.58344172D-04  0.62608707D-19
 -0.19442775D-17  0.28997150D-18 -0.68692246D-18  0.65560639D-18  0.68317508D-04
 -0.66177022D-18  0.65611197D-18 -0.10247626D-03  0.27225376D-17 -0.26229312D-17
 -0.10247626D-03 -0.69645481D-19  0.14664814D-18  0.13449700D-18  0.26467981D-04
  0.15009760D-18  0.13696581D-18 -0.39701971D-04 -0.59004202D-18 -0.54045680D-18
 -0.39701971D-04 -0.25765099D-18 -0.13580774D-04 -0.24493484D-04 -0.36115628D-04
  0.86428134D-03 -0.43546964D-03  0.14843741D-04 -0.91690447D-17 -0.40548928D-18
 -0.60097646D-05  0.86682636D-17 -0.20924437D-17 -0.41786475D-03  0.52597484D-17
  0.41513906D-18  0.76941675D-05 -0.45144922D-04 -0.45144922D-04  0.90289844D-04
 -0.53642321D-18  0.71224426D-17  0.92593290D-18 -0.13911922D-04 -0.13911922D-04
  0.27823844D-04 -0.11175678D-19 -0.69193344D-17 -0.10655720D-17 -0.13580775D-04
 -0.24493487D-04 -0.36115632D-04  0.86428149D-03 -0.43546972D-03  0.14843752D-04
 -0.44010428D-17 -0.59667113D-17  0.60097836D-05  0.28276134D-17  0.42695072D-17
  0.41786489D-03 -0.22973744D-17 -0.21418768D-18 -0.76941611D-05 -0.45144952D-04
 -0.45144952D-04  0.90289905D-04  0.23187224D-18 -0.18087282D-17  0.51788004D-17
 -0.13911929D-04 -0.13911929D-04  0.27823859D-04 -0.32124959D-18 -0.33460082D-18
  0.26754170D-18
MO    4     MO 0.0        OCC NO =    2.0000000  ORB. ENERGY =   -6.955614
 -0.11691236D-02 -0.21874125D-02 -0.37770155D-02 -0.61083988D-02 -0.92193868D-02
 -0.12630845D-01 -0.14596584D-01 -0.12266606D-01 -0.53880307D-02 -0.61584302D-03
  0.83001127D-05 -0.51624381D-05 -0.25394023D-06 -0.10245276D+00 -0.19162717D+00
 -0.33179208D+00 -0.53875278D+00 -0.82739838D+00 -0.11767504D+01 -0.14972259D+01
 -0.15516532D+01 -0.10354554D+01  0.10197915D+00  0.77895454D+00  0.39996128D+00
 -0.17544146D-02 -0.58028360D-03 -0.10843882D-02 -0.18803676D-02 -0.30492171D-02
 -0.47000423D-02 -0.66879034D-02 -0.86119965D-02 -0.90533779D-02 -0.63466955D-02
  0.73690814D-03  0.59657397D-02  0.56145716D-02 -0.27379977D-02  0.26530401D-01
  0.19727790D-02  0.59841451D-03 -0.72559081D-15 -0.94921125D-15 -0.10384704D-14
 -0.85541165D-15 -0.45736909D-15 -0.12637552D-15  0.10358434D-18 -0.87936025D-17
 -0.11503710D-16 -0.12585462D-16 -0.10366931D-16 -0.55429616D-17 -0.15315741D-17
  0.12553625D-20  0.86760988D-02  0.11349993D-01  0.12417290D-01  0.10228404D-01
  0.54688943D-02  0.15111085D-02 -0.12385878D-05  0.30222195D-15  0.40026463D-15
  0.44218490D-15  0.37873271D-15  0.20661303D-15  0.63507427D-16 -0.27648910D-16
  0.54483519D-16  0.72158312D-16  0.79715551D-16  0.68276612D-16  0.37247476D-16
  0.11448897D-16 -0.49844491D-17  0.19289238D-01  0.25546787D-01  0.28222337D-01
  0.24172517D-01  0.13187023D-01  0.40533451D-02 -0.17646845D-02  0.19571694D-15
  0.20552784D-16  0.18997767D-02 -0.20614074D-17  0.22088310D-17 -0.59120667D-04
 -0.24999504D-18  0.10191612D-18 -0.49675804D-04  0.53769308D-05  0.53769308D-05
 -0.10753862D-04  0.17716083D-17  0.62234871D-17  0.28248247D-17 -0.10856140D-04
 -0.10856140D-04  0.21712280D-04 -0.12840849D-16 -0.17017525D-17 -0.44260276D-17
 -0.32898744D-04 -0.32898744D-04  0.65797488D-04 -0.11444475D-18  0.21728004D-17
 -0.59394632D-18 -0.71159486D-18  0.10018049D-17 -0.33371176D-03 -0.69173571D-18
  0.90983784D-18  0.50056764D-03  0.28265203D-17 -0.39152525D-17  0.50056764D-03
 -0.76314097D-18 -0.74231092D-19  0.15105027D-18  0.83139932D-05 -0.74502705D-19
  0.14989037D-18 -0.12470990D-04  0.29719598D-18 -0.60304117D-18 -0.12470990D-04
  0.12667142D-18  0.11691234D-02  0.21874123D-02  0.37770150D-02  0.61083981D-02
  0.92193857D-02  0.12630844D-01  0.14596582D-01  0.12266604D-01  0.53880300D-02
  0.61584294D-03 -0.83001116D-05  0.51624375D-05  0.25394020D-06  0.10245275D+00
  0.19162714D+00  0.33179204D+00  0.53875271D+00  0.82739827D+00  0.11767503D+01
  0.14972257D+01  0.15516530D+01  0.10354552D+01 -0.10197914D+00 -0.77895444D+00
 -0.39996123D+00  0.17544144D-02  0.58028353D-03  0.10843881D-02  0.18803673D-02
  0.30492168D-02  0.47000417D-02  0.66879026D-02  0.86119954D-02  0.90533768D-02
  0.63466947D-02 -0.73690805D-03 -0.59657390D-02 -0.56145710D-02  0.27379974D-02
 -0.26530397D-01 -0.19727789D-02 -0.59841450D-03 -0.58308289D-15 -0.76278370D-15
 -0.83451209D-15 -0.68740658D-15 -0.36754061D-15 -0.10155504D-15  0.83240103D-19
 -0.54308041D-15 -0.71045283D-15 -0.77726029D-15 -0.64024697D-15 -0.34232544D-15
 -0.94587842D-16  0.77529405D-19  0.86760954D-02  0.11349989D-01  0.12417285D-01
  0.10228400D-01  0.54688921D-02  0.15111080D-02 -0.12385873D-05  0.36905562D-16
  0.48877956D-16  0.53997011D-16  0.46248605D-16  0.25230364D-16  0.77551523D-17
 -0.33763218D-17 -0.83470213D-16 -0.11054847D-15 -0.12212636D-15 -0.10460160D-15
 -0.57064132D-16 -0.17540018D-16  0.76363096D-17  0.19289237D-01  0.25546786D-01
  0.28222336D-01  0.24172517D-01  0.13187023D-01  0.40533450D-02 -0.17646845D-02
 -0.77703629D-17 -0.27716260D-16  0.18997766D-02  0.49068851D-17  0.20442074D-18
 -0.59120654D-04  0.27225886D-18 -0.24180450D-18 -0.49675801D-04 -0.53769273D-05
 -0.53769273D-05  0.10753855D-04  0.46142541D-18  0.11771683D-17  0.27549610D-17
  0.10856140D-04  0.10856140D-04 -0.21712280D-04 -0.62604811D-17 -0.17869466D-17
 -0.26392653D-17  0.32898740D-04  0.32898740D-04 -0.65797480D-04  0.11930797D-19
  0.17825226D-17 -0.72374371D-18  0.52208433D-18 -0.87026226D-18 -0.33371175D-03
  0.39074622D-18 -0.89115714D-18  0.50056763D-03 -0.19569992D-17  0.35019439D-17
  0.50056763D-03 -0.24267148D-19 -0.21693443D-18 -0.26928870D-18  0.83139968D-05
 -0.21229676D-18 -0.27030255D-18 -0.12470995D-04  0.86310005D-18  0.10781687D-17
 -0.12470995D-04 -0.11602504D-18 -0.11888361D-04 -0.21441149D-04 -0.31614962D-04
  0.11156536D-02 -0.81013437D-03  0.59392353D-04  0.91872817D-17 -0.14045649D-17
 -0.13409219D-03 -0.76598295D-17  0.49874016D-17 -0.10716415D-02 -0.48838780D-17
  0.64962515D-18 -0.14180562D-04 -0.23008149D-03 -0.23008149D-03  0.46016299D-03
 -0.11269972D-18 -0.81181559D-17 -0.32641783D-17 -0.57627999D-04 -0.57627999D-04
  0.11525600D-03 -0.28440134D-18  0.64187286D-17 -0.55571782D-18  0.11888359D-04
  0.21441146D-04  0.31614957D-04 -0.11156534D-02  0.81013431D-03 -0.59392351D-04
  0.48640575D-17  0.71966569D-17 -0.13409219D-03 -0.36035456D-17 -0.58841380D-17
 -0.10716414D-02  0.18530022D-17 -0.90735269D-18 -0.14180562D-04  0.23008149D-03
  0.23008149D-03 -0.46016298D-03  0.81190234D-18  0.93155988D-18 -0.63558758D-17
  0.57627997D-04  0.57627997D-04 -0.11525599D-03 -0.26091715D-18  0.21011470D-18
 -0.64269382D-18
MO    5     MO 0.0        OCC NO =    2.0000000  ORB. ENERGY =   -5.008939
  0.54212961D-04  0.10143163D-03  0.17514247D-03  0.28325012D-03  0.42750849D-03
  0.58569986D-03  0.67685235D-03  0.56880986D-03  0.24984621D-03  0.28557010D-04
 -0.38488120D-06  0.23938535D-06  0.11775361D-07 -0.60993161D-03 -0.11408132D-02
 -0.19752564D-02 -0.32073547D-02 -0.49257473D-02 -0.70055434D-02 -0.89134288D-02
 -0.92374502D-02 -0.61643720D-02  0.60711205D-03  0.46373468D-02  0.23810878D-02
 -0.10444549D-04  0.19986297D-04  0.37348814D-04  0.64764167D-04  0.10502202D-03
  0.16188022D-03  0.23034672D-03  0.29661689D-03  0.31181908D-03  0.21859474D-03
 -0.25380805D-04 -0.20547374D-03 -0.19337871D-03  0.94302914D-04  0.18876198D-03
  0.26140838D-02 -0.54806943D-04  0.97500563D-12  0.12754934D-11  0.13954345D-11
  0.11494511D-11  0.61458529D-12  0.16981588D-12 -0.13919045D-15 -0.31791369D-11
 -0.41589178D-11 -0.45500018D-11 -0.37479399D-11 -0.20039380D-11 -0.55370750D-12
  0.45384917D-15 -0.56672444D+01 -0.74138372D+01 -0.81109977D+01 -0.66812132D+01