 Molden2AIM, Version 4.0.0 (06/02/2016)           Time: Tue Jul  3 04:08:44 2018
GAUSSIAN             21 MOL ORBITALS    356 PRIMITIVES        4 NUCLEI
  P    1    (CENTRE  1)   0.00000000  0.00064251  0.33007090  CHARGE = 15.0
  F    2    (CENTRE  2)   0.00000000  2.64764236 -1.20874631  CHARGE =  9.0
  F    3    (CENTRE  3)   2.29146489 -1.32414054 -1.20913181  CHARGE =  9.0
  F    4    (CENTRE  4)  -2.29146489 -1.32414054 -1.20913181  CHARGE =  9.0
CENTRE ASSIGNMENTS    1  1  1  1  1  1  1  1  1  1  1  1  1  1  1  1  1  1  1  1
CENTRE ASSIGNMENTS    1  1  1  1  1  1  1  1  1  1  1  1  1  1  1  1  1  1  1  1
CENTRE ASSIGNMENTS    1  1  1  1  1  1  1  1  1  1  1  1  1  1  1  1  1  1  1  1
CENTRE ASSIGNMENTS    1  1  1  1  1  1  1  1  1  1  1  1  1  1  1  1  1  1  1  1
CENTRE ASSIGNMENTS    1  1  1  1  1  1  1  1  1  1  1  1  1  1  1  1  1  1  1  1
CENTRE ASSIGNMENTS    1  1  1  1  1  1  1  1  1  1  1  1  1  1  1  1  1  1  1  1
CENTRE ASSIGNMENTS    1  1  1  1  1  1  1  1  1  1  1  2  2  2  2  2  2  2  2  2
CENTRE ASSIGNMENTS    2  2  2  2  2  2  2  2  2  2  2  2  2  2  2  2  2  2  2  2
CENTRE ASSIGNMENTS    2  2  2  2  2  2  2  2  2  2  2  2  2  2  2  2  2  2  2  2
CENTRE ASSIGNMENTS    2  2  2  2  2  2  2  2  2  2  2  2  2  2  2  2  2  2  2  2
CENTRE ASSIGNMENTS    2  2  2  2  2  2  3  3  3  3  3  3  3  3  3  3  3  3  3  3
CENTRE ASSIGNMENTS    3  3  3  3  3  3  3  3  3  3  3  3  3  3  3  3  3  3  3  3
CENTRE ASSIGNMENTS    3  3  3  3  3  3  3  3  3  3  3  3  3  3  3  3  3  3  3  3
CENTRE ASSIGNMENTS    3  3  3  3  3  3  3  3  3  3  3  3  3  3  3  3  3  3  3  3
CENTRE ASSIGNMENTS    3  4  4  4  4  4  4  4  4  4  4  4  4  4  4  4  4  4  4  4
CENTRE ASSIGNMENTS    4  4  4  4  4  4  4  4  4  4  4  4  4  4  4  4  4  4  4  4
CENTRE ASSIGNMENTS    4  4  4  4  4  4  4  4  4  4  4  4  4  4  4  4  4  4  4  4
CENTRE ASSIGNMENTS    4  4  4  4  4  4  4  4  4  4  4  4  4  4  4  4
TYPE ASSIGNMENTS      1  1  1  1  1  1  1  1  1  1  1  1  1  1  1  1  1  1  1  1
TYPE ASSIGNMENTS      1  1  1  1  1  1  1  1  1  1  1  1  1  1  1  1  1  1  1  1
TYPE ASSIGNMENTS      1  1  2  2  2  2  2  2  2  3  3  3  3  3  3  3  4  4  4  4
TYPE ASSIGNMENTS      4  4  4  2  2  2  2  2  2  2  3  3  3  3  3  3  3  4  4  4
TYPE ASSIGNMENTS      4  4  4  4  2  3  4  2  3  4  2  3  4  5  6  7  8  9 10  5
TYPE ASSIGNMENTS      6  7  8  9 10  5  6  7  8  9 10 11 12 13 17 14 15 18 19 16
TYPE ASSIGNMENTS     20 11 12 13 17 14 15 18 19 16 20  1  1  1  1  1  1  1  1  1
TYPE ASSIGNMENTS      1  1  1  1  1  1  1  1  1  1  2  2  2  3  3  3  4  4  4  2
TYPE ASSIGNMENTS      3  4  2  3  4  2  3  4  5  6  7  8  9 10  5  6  7  8  9 10
TYPE ASSIGNMENTS      5  6  7  8  9 10 11 12 13 17 14 15 18 19 16 20 11 12 13 17
TYPE ASSIGNMENTS     14 15 18 19 16 20  1  1  1  1  1  1  1  1  1  1  1  1  1  1
TYPE ASSIGNMENTS      1  1  1  1  1  2  2  2  3  3  3  4  4  4  2  3  4  2  3  4
TYPE ASSIGNMENTS      2  3  4  5  6  7  8  9 10  5  6  7  8  9 10  5  6  7  8  9
TYPE ASSIGNMENTS     10 11 12 13 17 14 15 18 19 16 20 11 12 13 17 14 15 18 19 16
TYPE ASSIGNMENTS     20  1  1  1  1  1  1  1  1  1  1  1  1  1  1  1  1  1  1  1
TYPE ASSIGNMENTS      2  2  2  3  3  3  4  4  4  2  3  4  2  3  4  2  3  4  5  6
TYPE ASSIGNMENTS      7  8  9 10  5  6  7  8  9 10  5  6  7  8  9 10 11 12 13 17
TYPE ASSIGNMENTS     14 15 18 19 16 20 11 12 13 17 14 15 18 19 16 20
EXPONENTS  0.3124000D+06 0.4680000D+05 0.1065000D+05 0.3018000D+04 0.9868000D+03
EXPONENTS  0.3574000D+03 0.1396000D+03 0.5763000D+02 0.2460000D+02 0.1012000D+02
EXPONENTS  0.4283000D+01 0.1805000D+01 0.2782000D+00 0.3124000D+06 0.4680000D+05
EXPONENTS  0.1065000D+05 0.3018000D+04 0.9868000D+03 0.3574000D+03 0.1396000D+03
EXPONENTS  0.5763000D+02 0.2460000D+02 0.1012000D+02 0.4283000D+01 0.1805000D+01
EXPONENTS  0.2782000D+00 0.3124000D+06 0.4680000D+05 0.1065000D+05 0.3018000D+04
EXPONENTS  0.9868000D+03 0.3574000D+03 0.1396000D+03 0.5763000D+02 0.2460000D+02
EXPONENTS  0.1012000D+02 0.4283000D+01 0.1805000D+01 0.2782000D+00 0.6158000D+00
EXPONENTS  0.1055000D+00 0.4090000D-01 0.5049000D+03 0.1194000D+03 0.3796000D+02
EXPONENTS  0.1395000D+02 0.5457000D+01 0.2177000D+01 0.2877000D+00 0.5049000D+03
EXPONENTS  0.1194000D+03 0.3796000D+02 0.1395000D+02 0.5457000D+01 0.2177000D+01
EXPONENTS  0.2877000D+00 0.5049000D+03 0.1194000D+03 0.3796000D+02 0.1395000D+02
EXPONENTS  0.5457000D+01 0.2177000D+01 0.2877000D+00 0.5049000D+03 0.1194000D+03
EXPONENTS  0.3796000D+02 0.1395000D+02 0.5457000D+01 0.2177000D+01 0.2877000D+00
EXPONENTS  0.5049000D+03 0.1194000D+03 0.3796000D+02 0.1395000D+02 0.5457000D+01
EXPONENTS  0.2177000D+01 0.2877000D+00 0.5049000D+03 0.1194000D+03 0.3796000D+02
EXPONENTS  0.1395000D+02 0.5457000D+01 0.2177000D+01 0.2877000D+00 0.8010000D+00
EXPONENTS  0.8010000D+00 0.8010000D+00 0.9714000D-01 0.9714000D-01 0.9714000D-01
EXPONENTS  0.3070000D-01 0.3070000D-01 0.3070000D-01 0.2160000D+00 0.2160000D+00
EXPONENTS  0.2160000D+00 0.2160000D+00 0.2160000D+00 0.2160000D+00 0.6520000D+00
EXPONENTS  0.6520000D+00 0.6520000D+00 0.6520000D+00 0.6520000D+00 0.6520000D+00
EXPONENTS  0.7750000D-01 0.7750000D-01 0.7750000D-01 0.7750000D-01 0.7750000D-01
EXPONENTS  0.7750000D-01 0.4520000D+00 0.4520000D+00 0.4520000D+00 0.4520000D+00
EXPONENTS  0.4520000D+00 0.4520000D+00 0.4520000D+00 0.4520000D+00 0.4520000D+00
EXPONENTS  0.4520000D+00 0.1650000D+00 0.1650000D+00 0.1650000D+00 0.1650000D+00
EXPONENTS  0.1650000D+00 0.1650000D+00 0.1650000D+00 0.1650000D+00 0.1650000D+00
EXPONENTS  0.1650000D+00 0.1950000D+05 0.2923000D+04 0.6645000D+03 0.1875000D+03
EXPONENTS  0.6062000D+02 0.2142000D+02 0.7950000D+01 0.8815000D+00 0.1950000D+05
EXPONENTS  0.2923000D+04 0.6645000D+03 0.1875000D+03 0.6062000D+02 0.2142000D+02
EXPONENTS  0.7950000D+01 0.8815000D+00 0.2257000D+01 0.3041000D+00 0.9158000D-01
EXPONENTS  0.4388000D+02 0.9926000D+01 0.2930000D+01 0.4388000D+02 0.9926000D+01
EXPONENTS  0.2930000D+01 0.4388000D+02 0.9926000D+01 0.2930000D+01 0.9132000D+00
EXPONENTS  0.9132000D+00 0.9132000D+00 0.2672000D+00 0.2672000D+00 0.2672000D+00
EXPONENTS  0.7361000D-01 0.7361000D-01 0.7361000D-01 0.3107000D+01 0.3107000D+01
EXPONENTS  0.3107000D+01 0.3107000D+01 0.3107000D+01 0.3107000D+01 0.8550000D+00
EXPONENTS  0.8550000D+00 0.8550000D+00 0.8550000D+00 0.8550000D+00 0.8550000D+00
EXPONENTS  0.2920000D+00 0.2920000D+00 0.2920000D+00 0.2920000D+00 0.2920000D+00
EXPONENTS  0.2920000D+00 0.1917000D+01 0.1917000D+01 0.1917000D+01 0.1917000D+01
EXPONENTS  0.1917000D+01 0.1917000D+01 0.1917000D+01 0.1917000D+01 0.1917000D+01
EXPONENTS  0.1917000D+01 0.7240000D+00 0.7240000D+00 0.7240000D+00 0.7240000D+00
EXPONENTS  0.7240000D+00 0.7240000D+00 0.7240000D+00 0.7240000D+00 0.7240000D+00
EXPONENTS  0.7240000D+00 0.1950000D+05 0.2923000D+04 0.6645000D+03 0.1875000D+03
EXPONENTS  0.6062000D+02 0.2142000D+02 0.7950000D+01 0.8815000D+00 0.1950000D+05
EXPONENTS  0.2923000D+04 0.6645000D+03 0.1875000D+03 0.6062000D+02 0.2142000D+02
EXPONENTS  0.7950000D+01 0.8815000D+00 0.2257000D+01 0.3041000D+00 0.9158000D-01
EXPONENTS  0.4388000D+02 0.9926000D+01 0.2930000D+01 0.4388000D+02 0.9926000D+01
EXPONENTS  0.2930000D+01 0.4388000D+02 0.9926000D+01 0.2930000D+01 0.9132000D+00
EXPONENTS  0.9132000D+00 0.9132000D+00 0.2672000D+00 0.2672000D+00 0.2672000D+00
EXPONENTS  0.7361000D-01 0.7361000D-01 0.7361000D-01 0.3107000D+01 0.3107000D+01
EXPONENTS  0.3107000D+01 0.3107000D+01 0.3107000D+01 0.3107000D+01 0.8550000D+00
EXPONENTS  0.8550000D+00 0.8550000D+00 0.8550000D+00 0.8550000D+00 0.8550000D+00
EXPONENTS  0.2920000D+00 0.2920000D+00 0.2920000D+00 0.2920000D+00 0.2920000D+00
EXPONENTS  0.2920000D+00 0.1917000D+01 0.1917000D+01 0.1917000D+01 0.1917000D+01
EXPONENTS  0.1917000D+01 0.1917000D+01 0.1917000D+01 0.1917000D+01 0.1917000D+01
EXPONENTS  0.1917000D+01 0.7240000D+00 0.7240000D+00 0.7240000D+00 0.7240000D+00
EXPONENTS  0.7240000D+00 0.7240000D+00 0.7240000D+00 0.7240000D+00 0.7240000D+00
EXPONENTS  0.7240000D+00 0.1950000D+05 0.2923000D+04 0.6645000D+03 0.1875000D+03
EXPONENTS  0.6062000D+02 0.2142000D+02 0.7950000D+01 0.8815000D+00 0.1950000D+05
EXPONENTS  0.2923000D+04 0.6645000D+03 0.1875000D+03 0.6062000D+02 0.2142000D+02
EXPONENTS  0.7950000D+01 0.8815000D+00 0.2257000D+01 0.3041000D+00 0.9158000D-01
EXPONENTS  0.4388000D+02 0.9926000D+01 0.2930000D+01 0.4388000D+02 0.9926000D+01
EXPONENTS  0.2930000D+01 0.4388000D+02 0.9926000D+01 0.2930000D+01 0.9132000D+00
EXPONENTS  0.9132000D+00 0.9132000D+00 0.2672000D+00 0.2672000D+00 0.2672000D+00
EXPONENTS  0.7361000D-01 0.7361000D-01 0.7361000D-01 0.3107000D+01 0.3107000D+01
EXPONENTS  0.3107000D+01 0.3107000D+01 0.3107000D+01 0.3107000D+01 0.8550000D+00
EXPONENTS  0.8550000D+00 0.8550000D+00 0.8550000D+00 0.8550000D+00 0.8550000D+00
EXPONENTS  0.2920000D+00 0.2920000D+00 0.2920000D+00 0.2920000D+00 0.2920000D+00
EXPONENTS  0.2920000D+00 0.1917000D+01 0.1917000D+01 0.1917000D+01 0.1917000D+01
EXPONENTS  0.1917000D+01 0.1917000D+01 0.1917000D+01 0.1917000D+01 0.1917000D+01
EXPONENTS  0.1917000D+01 0.7240000D+00 0.7240000D+00 0.7240000D+00 0.7240000D+00
EXPONENTS  0.7240000D+00 0.7240000D+00 0.7240000D+00 0.7240000D+00 0.7240000D+00
EXPONENTS  0.7240000D+00
MO    1     MO 0.0        OCC NO =    2.0000000  ORB. ENERGY =  -78.329559
  0.54389517D+00  0.10176197D+01  0.17571286D+01  0.28417258D+01  0.42890077D+01
  0.58760733D+01  0.67905667D+01  0.57066231D+01  0.25065989D+01  0.28650012D+00
 -0.38613465D-02  0.24016496D-02  0.11813710D-03 -0.95591233D-03 -0.17879339D-02
 -0.30957109D-02 -0.50267109D-02 -0.77198534D-02 -0.10979404D-01 -0.13969528D-01
 -0.14477349D-01 -0.96610819D-02  0.95149339D-03  0.72678591D-02  0.37317483D-02
 -0.16369168D-04  0.46430019D-03  0.86764754D-03  0.15045316D-02  0.24397589D-02
  0.37606276D-02  0.53511676D-02  0.68906851D-02  0.72438460D-02  0.50781582D-02
 -0.58961961D-03 -0.47733454D-02 -0.44923666D-02  0.21907441D-02 -0.21312252D-02
 -0.17940890D-03  0.52455558D-05 -0.30465598D-14 -0.39854817D-14 -0.43602566D-14
 -0.35916425D-14 -0.19203693D-14 -0.53061666D-15  0.43492264D-18 -0.56654392D-05
 -0.74114757D-05 -0.81084142D-05 -0.66790850D-05 -0.35711544D-05 -0.98674460D-06
  0.80879023D-09 -0.10967120D-01 -0.14347086D-01 -0.15696214D-01 -0.12929329D-01
 -0.69130169D-02 -0.19101337D-02  0.15656508D-05  0.26371583D-14  0.34926689D-14
  0.38584609D-14  0.33047835D-14  0.18028845D-14  0.55415942D-15 -0.24126161D-15
  0.50043121D-05  0.66277421D-05  0.73218746D-05  0.62712079D-05  0.34211812D-05
  0.10515814D-05 -0.45782172D-06  0.86713090D-02  0.11484336D-01  0.12687106D-01
  0.10866545D-01  0.59281114D-02  0.18221460D-02 -0.79329857D-03  0.15584511D-15
  0.13466754D-06  0.41134435D-03 -0.30280968D-15  0.15079856D-06  0.56251053D-04
 -0.11685949D-17  0.55619761D-08 -0.19178322D-05  0.41764452D-05  0.42262126D-05
 -0.84026578D-05  0.15131973D-15  0.23144267D-15 -0.55379414D-07  0.47385843D-04
  0.47943545D-04 -0.95329388D-04  0.57135908D-17 -0.32855708D-16  0.51798730D-06
 -0.10081773D-05 -0.10354071D-05  0.20435845D-05  0.22405437D-16  0.27445107D-16
 -0.39141366D-07  0.81420917D-17  0.76252816D-04  0.82953031D-04  0.10495989D-16
 -0.22871389D-03 -0.12426565D-03 -0.34922264D-16 -0.44562306D-07 -0.12459344D-03
 -0.10966712D-15  0.32870294D-17 -0.54914329D-05 -0.62623338D-05  0.38902642D-17
  0.16437991D-04  0.93720372D-05 -0.13751352D-16  0.36308041D-07  0.94149642D-05
 -0.34210022D-16  0.15528672D-03  0.28946117D-03  0.49070784D-03  0.74307629D-03
  0.92921951D-03  0.79997144D-03  0.30753823D-03 -0.13326135D-05 -0.10390738D-03
 -0.19511965D-03 -0.33225512D-03 -0.52047567D-03 -0.69749863D-03 -0.75025382D-03
 -0.45045141D-03  0.29623580D-03 -0.47723086D-04 -0.31674137D-03 -0.22492471D-04
  0.60169423D-16  0.58844382D-16  0.38880971D-16 -0.10886537D-03 -0.10646795D-03
 -0.70347877D-04  0.36265848D-04  0.35467207D-04  0.23434684D-04 -0.46381066D-16
  0.90690470D-05  0.12096361D-04  0.32397238D-16  0.35043716D-03 -0.19722092D-03
 -0.45194783D-17  0.17979565D-05 -0.41855482D-06 -0.11839632D-03  0.14185140D-03
 -0.23455083D-04  0.63907196D-16 -0.72989640D-19 -0.31643626D-03  0.61409894D-04
 -0.74369252D-04  0.12959358D-04 -0.13600120D-16  0.51157781D-17  0.16730890D-03
  0.77040343D-04 -0.98726721D-04  0.21686379D-04 -0.18291543D-16 -0.18777157D-16
  0.19082294D-03  0.16457073D-16 -0.13907390D-03 -0.14236527D-03 -0.20478002D-15
  0.45195206D-03 -0.14656979D-03  0.15540880D-15 -0.34730352D-04  0.57366560D-03
 -0.19850970D-15 -0.54277522D-17  0.54754905D-04  0.64155684D-04  0.64907616D-16
 -0.19998709D-03  0.86104715D-04 -0.48624359D-16  0.35722376D-04 -0.27857177D-03
  0.63097213D-16  0.15522874D-03  0.28935310D-03  0.49052464D-03  0.74279887D-03
  0.92887259D-03  0.79967278D-03  0.30742341D-03 -0.13321160D-05 -0.10386928D-03
 -0.19504811D-03 -0.33213329D-03 -0.52028483D-03 -0.69724288D-03 -0.74997873D-03
 -0.45028624D-03  0.29612718D-03 -0.47695849D-04 -0.31651541D-03 -0.22372751D-04
 -0.94160538D-04 -0.92086950D-04 -0.60845741D-04  0.54362252D-04  0.53165095D-04
  0.35128426D-04  0.36142836D-04  0.35346904D-04  0.23355194D-04  0.78010343D-05
 -0.44110059D-05  0.12246440D-04  0.30321628D-03 -0.17545348D-03 -0.19742190D-03
  0.15390969D-05 -0.92589894D-06 -0.44105058D-06  0.76370611D-04 -0.53063419D-04
 -0.23307192D-04 -0.22538941D-03 -0.27407319D-03  0.15846970D-03 -0.40238081D-04
  0.27337318D-04  0.12900762D-04  0.11753460D-03  0.14482180D-03 -0.83747652D-04
 -0.54637295D-04  0.33013803D-04  0.21623492D-04  0.15239364D-03  0.16532558D-03
 -0.95560645D-04  0.80086578D-05 -0.15220152D-03 -0.14236826D-03  0.67020402D-05
  0.43908106D-03  0.39333267D-03 -0.30728014D-04  0.17523502D-04  0.33772106D-04
 -0.62516633D-03 -0.79308596D-05  0.68190809D-04  0.64156417D-04 -0.73732587D-05
 -0.18661464D-03 -0.18723920D-03  0.31165837D-04 -0.17957783D-04 -0.52300463D-05
  0.31632154D-03  0.15522874D-03  0.28935310D-03  0.49052464D-03  0.74279887D-03
  0.92887259D-03  0.79967278D-03  0.30742341D-03 -0.13321160D-05 -0.10386928D-03
 -0.19504811D-03 -0.33213329D-03 -0.52028483D-03 -0.69724288D-03 -0.74997873D-03
 -0.45028624D-03  0.29612718D-03 -0.47695849D-04 -0.31651541D-03 -0.22372751D-04
  0.94160538D-04  0.92086950D-04  0.60845741D-04  0.54362252D-04  0.53165095D-04
  0.35128426D-04  0.36142836D-04  0.35346904D-04  0.23355194D-04 -0.78010343D-05
 -0.44110059D-05  0.12246440D-04 -0.30321628D-03 -0.17545348D-03 -0.19742190D-03
 -0.15390969D-05 -0.92589894D-06 -0.44105058D-06  0.76370611D-04 -0.53063419D-04
 -0.23307192D-04  0.22538941D-03  0.27407319D-03  0.15846970D-03 -0.40238081D-04
  0.27337318D-04  0.12900762D-04 -0.11753460D-03 -0.14482180D-03 -0.83747652D-04
 -0.54637295D-04  0.33013803D-04  0.21623492D-04 -0.15239364D-03 -0.16532558D-03
 -0.95560645D-04 -0.80086578D-05 -0.15220152D-03 -0.14236826D-03 -0.67020402D-05
  0.43908106D-03  0.39333267D-03  0.30728014D-04  0.17523502D-04  0.33772106D-04
  0.62516633D-03  0.79308596D-05  0.68190809D-04  0.64156417D-04  0.73732587D-05
 -0.18661464D-03 -0.18723920D-03 -0.31165837D-04 -0.17957783D-04 -0.52300463D-05
 -0.31632154D-03
MO    2     MO 0.0        OCC NO =    2.0000000  ORB. ENERGY =  -25.330252
  0.31944780D-04  0.59768201D-04  0.10320203D-03  0.16690405D-03  0.25190775D-03
  0.34512141D-03  0.39883267D-03  0.33516904D-03  0.14722093D-03  0.16827109D-04
 -0.22678978D-06  0.14105691D-06  0.69385864D-08 -0.55130713D-04 -0.10311623D-03
 -0.17854017D-03 -0.28990750D-03 -0.44523018D-03 -0.63321953D-03 -0.80567014D-03
 -0.83495790D-03 -0.55718743D-03  0.54875857D-04  0.41916214D-03  0.21522261D-03
 -0.94406558D-06  0.29720429D-04  0.55539191D-04  0.96306926D-04  0.15617198D-03
  0.24072242D-03  0.34253485D-03  0.44108127D-03  0.46368753D-03  0.32505918D-03
 -0.37742279D-04 -0.30554774D-03 -0.28756194D-03  0.14023223D-03 -0.84707546D-04
 -0.25660866D-03  0.17578080D-05  0.97262080D-13  0.12723736D-12  0.13920213D-12
  0.11466396D-12  0.61308204D-13  0.16940052D-13 -0.13884999D-16 -0.11827444D-02
 -0.15472554D-02 -0.16927517D-02 -0.13943580D-02 -0.74553142D-03 -0.20599756D-03
  0.16884695D-06  0.40092636D-03  0.52448820D-03  0.57380847D-03  0.47265908D-03
  0.25272002D-03  0.69828995D-04 -0.57235690D-07 -0.82415190D-13 -0.10915119D-12
 -0.12058274D-12 -0.10327949D-12 -0.56342869D-13 -0.17318321D-13  0.75397904D-14
  0.96628887D-03  0.12797590D-02  0.14137899D-02  0.12109154D-02  0.66060016D-03
  0.20305117D-03 -0.88401368D-04 -0.23613928D-03 -0.31274434D-03 -0.34549848D-03
 -0.29592050D-03 -0.16143583D-03 -0.49621142D-04  0.21603308D-04  0.30998579D-14
 -0.13837651D-03  0.16269802D-04  0.32528480D-14  0.93885630D-05  0.55350740D-04
  0.13766183D-17  0.56598072D-06 -0.11620655D-05 -0.10404165D-04 -0.32685016D-05
  0.13672667D-04 -0.20567460D-14 -0.20818416D-14 -0.22338963D-04 -0.30344151D-05
  0.23510782D-04 -0.20476367D-04  0.56846961D-15  0.20724119D-15 -0.12521561D-04
 -0.64465953D-06  0.55170832D-06  0.92951214D-07 -0.22681847D-15 -0.33031755D-15
  0.39881324D-06  0.32703099D-15  0.10010232D-04  0.24322171D-04  0.40219804D-15
 -0.76819395D-04  0.80002389D-04 -0.13832910D-14  0.46788700D-04 -0.15296890D-03
 -0.74023016D-14  0.10314073D-16 -0.49515307D-05 -0.39389298D-05  0.19220201D-16
  0.99636642D-05  0.47586085D-05 -0.50162421D-16  0.48909278D-05  0.70581809D-05
  0.57552403D-15  0.59266232D+00  0.11047482D+01  0.18728199D+01  0.28360012D+01
  0.35464295D+01  0.30531454D+01  0.11737406D+01 -0.50860100D-02  0.67544235D-03
  0.12683611D-02  0.21598002D-02  0.33833143D-02  0.45340392D-02  0.48769704D-02
  0.29281267D-02 -0.19256593D-02  0.61995411D-01  0.12331480D-02 -0.62382661D-04
  0.39873124D-14  0.38995044D-14  0.25765674D-14 -0.53915702D-02 -0.52728379D-02
 -0.34839870D-02  0.30254933D-02  0.29588664D-02  0.19550481D-02 -0.22588112D-14
  0.80807575D-03 -0.42831987D-03  0.36159874D-15 -0.21639338D-03  0.13913238D-03
 -0.96445756D-16  0.58866100D-05 -0.27683939D-05 -0.33080360D-03  0.45473734D-03
 -0.12393374D-03 -0.86879496D-14  0.27941809D-14 -0.82722297D-03  0.10336744D-03
 -0.15580648D-03  0.52439038D-04  0.47217478D-14 -0.86764953D-15  0.26281086D-03
 -0.31572004D-04  0.41056318D-04 -0.94843135D-05 -0.10339167D-14 -0.46593924D-15
 -0.90998549D-04  0.31047347D-14  0.39855878D-04  0.63071179D-04 -0.17846175D-13
 -0.12357479D-03  0.18739859D-03  0.85319706D-14  0.40071553D-05 -0.37661213D-03
 -0.15322720D-13 -0.46560913D-15 -0.84263365D-05 -0.19229312D-04  0.35562890D-14
  0.36521939D-04 -0.52968215D-04 -0.21594616D-14 -0.11242930D-04  0.11065615D-03
  0.53983372D-14 -0.30738310D-01 -0.57297542D-01 -0.97133421D-01 -0.14708863D+00
 -0.18393484D+00 -0.15835077D+00 -0.60875816D-01  0.26378487D-03 -0.32694564D-04
 -0.61394601D-04 -0.10454442D-03 -0.16376821D-03 -0.21946867D-03 -0.23606815D-03
 -0.14173500D-03  0.93210902D-04 -0.32311405D-02  0.38502596D-04  0.63921564D-04
  0.30130003D-03  0.29466485D-03  0.19469753D-03 -0.28186485D-03 -0.27565767D-03
 -0.18213868D-03 -0.14495893D-03 -0.14176666D-03 -0.93671229D-04 -0.76621506D-04
  0.10741820D-03  0.20791699D-04  0.34042844D-05 -0.13133130D-04  0.12466126D-05
 -0.53709753D-05  0.68090465D-05  0.22874664D-05 -0.14665431D-04 -0.81857983D-04
  0.96523414D-04  0.23181592D-03 -0.31551565D-05 -0.66794239D-04  0.22162703D-05
  0.45607539D-04 -0.47823810D-04 -0.12075491D-03 -0.60728896D-05  0.23153035D-04
 -0.29643312D-05 -0.76872742D-05  0.10651605D-04  0.38985949D-04  0.29848931D-04
  0.16444102D-05  0.12065664D-03  0.63951683D-04 -0.95968514D-05 -0.37302337D-03
  0.64934744D-04  0.23822909D-03  0.11053455D-04 -0.25678979D-03 -0.20943854D-03
 -0.25198533D-07 -0.29677117D-04 -0.14722549D-04  0.27614988D-05  0.70525157D-04
 -0.11632133D-04 -0.81965680D-04  0.18506193D-04  0.55799779D-04  0.73681184D-04
 -0.28314348D-05 -0.30738310D-01 -0.57297542D-01 -0.97133420D-01 -0.14708863D+00
 -0.18393484D+00 -0.15835077D+00 -0.60875815D-01  0.26378487D-03 -0.32694564D-04
 -0.61394601D-04 -0.10454442D-03 -0.16376821D-03 -0.21946867D-03 -0.23606814D-03
 -0.14173500D-03  0.93210902D-04 -0.32311405D-02  0.38502596D-04  0.63921564D-04
 -0.30130003D-03 -0.29466485D-03 -0.19469753D-03 -0.28186485D-03 -0.27565767D-03
 -0.18213868D-03 -0.14495893D-03 -0.14176666D-03 -0.93671229D-04  0.76621505D-04
  0.10741820D-03  0.20791699D-04 -0.34042844D-05 -0.13133130D-04  0.12466126D-05
  0.53709753D-05  0.68090465D-05  0.22874664D-05 -0.14665431D-04 -0.81857983D-04
  0.96523414D-04 -0.23181592D-03  0.31551565D-05 -0.66794239D-04  0.22162703D-05
  0.45607539D-04 -0.47823810D-04  0.12075491D-03  0.60728896D-05  0.23153035D-04
 -0.29643312D-05 -0.76872742D-05  0.10651605D-04 -0.38985949D-04 -0.29848931D-04
  0.16444102D-05 -0.12065664D-03  0.63951683D-04 -0.95968514D-05  0.37302337D-03
  0.64934743D-04  0.23822909D-03 -0.11053455D-04 -0.25678979D-03 -0.20943854D-03
  0.25198491D-07  0.29677117D-04 -0.14722549D-04  0.27614988D-05 -0.70525157D-04
 -0.11632133D-04 -0.81965680D-04 -0.18506193D-04  0.55799779D-04  0.73681184D-04
  0.28314348D-05
MO    3     MO 0.0        OCC NO =    2.0000000  ORB. ENERGY =  -25.330183
  0.20312368D-12  0.38004133D-12  0.65621915D-12  0.10612740D-11  0.16017774D-11
  0.21944847D-11  0.25360124D-11  0.21312016D-11  0.93611713D-12  0.10699664D-12
 -0.14420626D-14  0.89692266D-15  0.44119608D-16 -0.35077580D-12 -0.65608940D-12
 -0.11359833D-11 -0.18445714D-11 -0.28328307D-11 -0.40289355D-11 -0.51261733D-11
 -0.53125202D-11 -0.35451721D-11  0.34915425D-12  0.26669696D-11  0.13693797D-11
 -0.60067310D-14  0.18916545D-12  0.35349746D-12  0.61297712D-12  0.99400797D-12
  0.15321570D-11  0.21801758D-11  0.28074069D-11  0.29512919D-11  0.20689461D-11
 -0.24022316D-12 -0.19447591D-11 -0.18302826D-11  0.89255419D-12 -0.55030617D-12
 -0.15406936D-11  0.18834760D-13 -0.13768531D-02 -0.18011866D-02 -0.19705613D-02
 -0.16231961D-02 -0.86788591D-03 -0.23980530D-03  0.19655763D-06  0.21522668D-11
  0.28155757D-11  0.30803385D-11  0.25373448D-11  0.13566604D-11  0.37485843D-12
 -0.30725461D-15  0.21515966D-11  0.28146989D-11  0.30793793D-11  0.25365547D-11
  0.13562379D-11  0.37474169D-12 -0.30715893D-15  0.11247304D-02  0.14896000D-02
  0.16456078D-02  0.14094681D-02  0.76891818D-03  0.23634529D-03 -0.10289646D-03
 -0.17290022D-11 -0.22899013D-11 -0.25297258D-11 -0.21667179D-11 -0.11820266D-11
 -0.36332398D-12  0.15817854D-12 -0.11601852D-11 -0.15365565D-11 -0.16974822D-11
 -0.14538987D-11 -0.79315674D-12 -0.24379559D-12  0.10614006D-12 -0.16170229D-03
  0.33213147D-12  0.11747961D-12  0.11060095D-04 -0.52448092D-13  0.33372022D-12
  0.66095348D-06 -0.14944281D-14 -0.74506495D-14 -0.26700963D-13 -0.57636819D-13
  0.84337781D-13 -0.85312030D-05 -0.26047758D-04  0.79275588D-13  0.98184725D-13
  0.32053034D-13 -0.13023776D-12 -0.30823348D-04 -0.14657939D-04  0.32641719D-13
  0.22441791D-14 -0.26421991D-14  0.39801998D-15 -0.14156109D-05  0.46046284D-06
  0.18787376D-14 -0.13631123D-04  0.16651665D-12  0.15543399D-12 -0.13573760D-04
 -0.38845374D-12 -0.49908723D-12  0.54467130D-04 -0.11109622D-12  0.32785256D-13
  0.27216132D-03 -0.14163525D-05 -0.19843117D-13 -0.24314583D-13 -0.14346621D-05
  0.72250053D-13  0.37458281D-13  0.56837196D-05 -0.12720704D-13  0.35485468D-13
 -0.26547310D-05  0.18409677D-09  0.34316435D-09  0.58174795D-09  0.88093784D-09
  0.11016159D-08  0.94838864D-09  0.36459522D-09 -0.15798508D-11  0.22574741D-12
  0.42391366D-12  0.72185186D-12  0.11307767D-11  0.15153738D-11  0.16299888D-11
  0.97864314D-12 -0.64359690D-12  0.19168441D-10  0.98951173D-12  0.36098345D-12
 -0.12561539D-03 -0.12284911D-03 -0.81171602D-04 -0.97996373D-12 -0.95838312D-12
 -0.63324425D-12  0.10076558D-11  0.98546539D-12  0.65113865D-12  0.73679158D-04
 -0.19132397D-12 -0.14016730D-12 -0.12962585D-04 -0.96468966D-13  0.96208682D-13
  0.43272761D-05 -0.45922968D-13  0.12894406D-13  0.73277549D-14 -0.47986741D-12
  0.47253965D-12  0.23466952D-03 -0.80022923D-04 -0.31486992D-12 -0.40013287D-13
  0.27983849D-12 -0.23982520D-12 -0.13200373D-03  0.22902556D-04  0.57773662D-13
  0.39003637D-13 -0.91560072D-13  0.52556435D-13  0.31688880D-04  0.22075584D-04
  0.85767461D-13 -0.93351504D-04 -0.17197910D-12 -0.13772949D-13  0.57196463D-03
 -0.26192560D-12 -0.44097708D-12 -0.29191012D-03  0.77786291D-12  0.48229593D-12
  0.52362013D-03  0.14368411D-04  0.60678981D-14  0.28400625D-14 -0.12061178D-03
  0.52439174D-13  0.15830736D-12  0.77506549D-04 -0.70642868D-13 -0.16682755D-12
 -0.18391924D-03  0.42020231D+00  0.78327530D+00  0.13278442D+01  0.20107475D+01
  0.25144468D+01  0.21647044D+01  0.83219141D+00 -0.36060216D-02  0.47741377D-03
  0.89649850D-03  0.15265823D-02  0.23913822D-02  0.32047335D-02  0.34471229D-02
  0.20696481D-02 -0.13610877D-02  0.43966061D-01  0.80518881D-03 -0.85299783D-04
 -0.34115891D-02 -0.33364596D-02 -0.22045399D-02  0.19005385D-02  0.18586851D-02
  0.12281119D-02  0.21382533D-02  0.20911650D-02  0.13817212D-02  0.56049226D-03
 -0.28114811D-03 -0.30281440D-03 -0.13531526D-03  0.70440513D-04  0.92725227D-04
  0.92261438D-05 -0.28365501D-05 -0.34221375D-05  0.28505632D-03 -0.13670158D-03
 -0.14835474D-03 -0.49784023D-03 -0.52103914D-03  0.25495675D-03 -0.11993755D-03
  0.52399061D-04  0.67538489D-04  0.16690099D-03  0.16918623D-03 -0.84520147D-04
  0.31336643D-04 -0.17652736D-04 -0.13683907D-04 -0.52784162D-04 -0.62134018D-04
  0.48621977D-04  0.12210072D-03  0.48052846D-04  0.49067106D-04 -0.21297338D-03
 -0.62686732D-04 -0.92757237D-04 -0.15332880D-03 -0.81471807D-04 -0.54444081D-04
  0.59021608D-03 -0.22178950D-04 -0.15370812D-04 -0.14838791D-04  0.46099847D-04
  0.12744391D-04  0.22586247D-04  0.20437004D-04  0.33368046D-04  0.21930125D-04
 -0.18519296D-03 -0.42020230D+00 -0.78327530D+00 -0.13278442D+01 -0.20107474D+01
 -0.25144467D+01 -0.21647044D+01 -0.83219141D+00  0.36060216D-02 -0.47741376D-03
 -0.89649849D-03 -0.15265823D-02 -0.23913822D-02 -0.32047334D-02 -0.34471229D-02
 -0.20696481D-02  0.13610876D-02 -0.43966060D-01 -0.80518880D-03  0.85299783D-04
 -0.34115891D-02 -0.33364596D-02 -0.22045399D-02 -0.19005385D-02 -0.18586851D-02
 -0.12281119D-02 -0.21382533D-02 -0.20911650D-02 -0.13817212D-02  0.56049226D-03
  0.28114811D-03  0.30281439D-03 -0.13531526D-03 -0.70440513D-04 -0.92725226D-04
  0.92261438D-05  0.28365501D-05  0.34221375D-05 -0.28505632D-03  0.13670158D-03
  0.14835474D-03 -0.49784022D-03 -0.52103914D-03 -0.25495675D-03  0.11993755D-03
 -0.52399061D-04 -0.67538489D-04  0.16690099D-03  0.16918623D-03  0.84520147D-04
 -0.31336643D-04  0.17652736D-04  0.13683907D-04 -0.52784162D-04 -0.62134018D-04
 -0.48621977D-04  0.12210073D-03 -0.48052846D-04 -0.49067106D-04 -0.21297338D-03
  0.62686732D-04  0.92757236D-04 -0.15332880D-03  0.81471807D-04  0.54444082D-04
  0.59021608D-03 -0.22178951D-04  0.15370812D-04  0.14838791D-04  0.46099847D-04
 -0.12744391D-04 -0.22586246D-04  0.20437005D-04 -0.33368047D-04 -0.21930125D-04
 -0.18519296D-03
MO    4     MO 0.0        OCC NO =    2.0000000  ORB. ENERGY =  -25.330175
  0.53005501D-04  0.99172491D-04  0.17124161D-03  0.27694142D-03  0.41798680D-03
  0.57265484D-03  0.66177714D-03  0.55614102D-03  0.24428150D-03  0.27920973D-04
 -0.37630892D-06  0.23405363D-06  0.11513094D-07 -0.91477316D-04 -0.17109874D-03
 -0.29624822D-03 -0.48103786D-03 -0.73876175D-03 -0.10506888D-02 -0.13368327D-02
 -0.13854293D-02 -0.92453022D-03  0.91054439D-04  0.69550755D-03  0.35711467D-03
 -0.15664696D-05  0.49313906D-04  0.92153934D-04  0.15979819D-03  0.25912985D-03
  0.39942097D-03  0.56835422D-03  0.73186831D-03  0.76937797D-03  0.53935755D-03
 -0.62624238D-04 -0.50698300D-03 -0.47713989D-03  0.23268167D-03 -0.14046587D-03
 -0.42598088D-03  0.28921820D-05  0.45110563D-11  0.59013226D-11  0.64562537D-11
  0.53181629D-11  0.28435004D-11  0.78568674D-12 -0.64399213D-15  0.70896297D-03
  0.92745887D-03  0.10146725D-02  0.83580880D-03  0.44688790D-03  0.12347946D-03
 -0.10121057D-06  0.66344868D-03  0.86791749D-03  0.94953214D-03  0.78215121D-03
  0.41819840D-03  0.11555228D-03 -0.94713011D-07 -0.36440976D-11 -0.48262655D-11
 -0.53317269D-11 -0.45666404D-11 -0.24912751D-11 -0.76575266D-12  0.33338189D-12
 -0.57916770D-03 -0.76705330D-03 -0.84738784D-03 -0.72579027D-03 -0.39594606D-03
 -0.12170344D-03  0.52985415D-04 -0.39047107D-03 -0.51714232D-03 -0.57130334D-03
 -0.48932305D-03 -0.26694424D-03 -0.82051661D-04  0.35722420D-04  0.64007383D-12
  0.83751760D-04  0.27252935D-04 -0.92057179D-13 -0.56914534D-05  0.91828440D-04
 -0.28928228D-14 -0.34181991D-06 -0.19271497D-05 -0.94089554D-05 -0.13434398D-04
  0.22843353D-04  0.64855430D-13  0.13923413D-12  0.13804707D-04  0.24878898D-04
  0.91067623D-05 -0.33985660D-04  0.12216564D-12  0.58712465D-13  0.75210127D-05
  0.28176329D-06 -0.44125445D-06  0.15949115D-06  0.91981556D-14  0.27125549D-14
 -0.23805971D-06  0.53216738D-13  0.43097703D-04  0.40306373D-04  0.52084212D-13
 -0.10077666D-03 -0.13032922D-03 -0.21173443D-12 -0.28516454D-04  0.94101019D-05
 -0.10518174D-11  0.58627949D-14 -0.54406908D-05 -0.65477103D-05  0.58381523D-14
  0.19316621D-04  0.10528617D-04 -0.23426537D-13 -0.29945488D-05  0.91145137D-05
  0.31546837D-14  0.43464989D-01  0.81020623D-01  0.13734987D+00  0.20798819D+00
  0.26008996D+00  0.22391323D+00  0.86080420D-01 -0.37300055D-03  0.53091892D-04
  0.99697170D-04  0.16976709D-03  0.26593914D-03  0.35638973D-03  0.38334521D-03
  0.23015996D-03 -0.15136287D-03  0.45228997D-02  0.24516341D-03  0.87058590D-04
  0.47795021D-12  0.46742487D-12  0.30884737D-12 -0.21092750D-03 -0.20628248D-03
 -0.13629956D-03  0.23992628D-03  0.23464266D-03  0.15503833D-03 -0.28129139D-12
 -0.58631307D-04 -0.33464289D-04  0.49806109D-13 -0.18632163D-04  0.22905416D-04
 -0.16902040D-13 -0.11265061D-04  0.30306241D-05  0.34971616D-05 -0.13019022D-03
  0.12669306D-03 -0.87633003D-12  0.30019003D-12 -0.79027856D-04 -0.10967478D-04
  0.75096077D-04 -0.64128599D-04  0.49516961D-12 -0.84818455D-13  0.14412493D-04
  0.10936675D-04 -0.25488055D-04  0.14551379D-04 -0.12027484D-12 -0.87393359D-13
  0.23909667D-04  0.35322765D-12 -0.46895890D-04 -0.47063064D-05 -0.21801831D-11
 -0.67742753D-04 -0.11839145D-03  0.11205002D-11  0.20843042D-03  0.13251037D-03
 -0.20108601D-11 -0.54554961D-13  0.21496439D-05  0.11858879D-05  0.46266386D-12