 Molden2AIM, Version 4.0.0 (06/02/2016)           Time: Tue Jul  3 04:12:27 2018
GAUSSIAN             30 MOL ORBITALS    506 PRIMITIVES        6 NUCLEI
  P    1    (CENTRE  1)  -0.00026456  0.00000000  0.00000000  CHARGE = 15.0
  F    2    (CENTRE  2)  -1.49249435  2.58833331  0.00000000  CHARGE =  9.0
  F    3    (CENTRE  3)  -1.49249435 -2.58833331  0.00000000  CHARGE =  9.0
  F    4    (CENTRE  4)   2.98731118  0.00000000  0.00000000  CHARGE =  9.0
  F    5    (CENTRE  5)  -0.00102801  0.00000000  3.04820572  CHARGE =  9.0
  F    6    (CENTRE  6)  -0.00102801  0.00000000 -3.04820572  CHARGE =  9.0
CENTRE ASSIGNMENTS    1  1  1  1  1  1  1  1  1  1  1  1  1  1  1  1  1  1  1  1
CENTRE ASSIGNMENTS    1  1  1  1  1  1  1  1  1  1  1  1  1  1  1  1  1  1  1  1
CENTRE ASSIGNMENTS    1  1  1  1  1  1  1  1  1  1  1  1  1  1  1  1  1  1  1  1
CENTRE ASSIGNMENTS    1  1  1  1  1  1  1  1  1  1  1  1  1  1  1  1  1  1  1  1
CENTRE ASSIGNMENTS    1  1  1  1  1  1  1  1  1  1  1  1  1  1  1  1  1  1  1  1
CENTRE ASSIGNMENTS    1  1  1  1  1  1  1  1  1  1  1  1  1  1  1  1  1  1  1  1
CENTRE ASSIGNMENTS    1  1  1  1  1  1  1  1  1  1  1  2  2  2  2  2  2  2  2  2
CENTRE ASSIGNMENTS    2  2  2  2  2  2  2  2  2  2  2  2  2  2  2  2  2  2  2  2
CENTRE ASSIGNMENTS    2  2  2  2  2  2  2  2  2  2  2  2  2  2  2  2  2  2  2  2
CENTRE ASSIGNMENTS    2  2  2  2  2  2  2  2  2  2  2  2  2  2  2  2  2  2  2  2
CENTRE ASSIGNMENTS    2  2  2  2  2  2  3  3  3  3  3  3  3  3  3  3  3  3  3  3
CENTRE ASSIGNMENTS    3  3  3  3  3  3  3  3  3  3  3  3  3  3  3  3  3  3  3  3
CENTRE ASSIGNMENTS    3  3  3  3  3  3  3  3  3  3  3  3  3  3  3  3  3  3  3  3
CENTRE ASSIGNMENTS    3  3  3  3  3  3  3  3  3  3  3  3  3  3  3  3  3  3  3  3
CENTRE ASSIGNMENTS    3  4  4  4  4  4  4  4  4  4  4  4  4  4  4  4  4  4  4  4
CENTRE ASSIGNMENTS    4  4  4  4  4  4  4  4  4  4  4  4  4  4  4  4  4  4  4  4
CENTRE ASSIGNMENTS    4  4  4  4  4  4  4  4  4  4  4  4  4  4  4  4  4  4  4  4
CENTRE ASSIGNMENTS    4  4  4  4  4  4  4  4  4  4  4  4  4  4  4  4  5  5  5  5
CENTRE ASSIGNMENTS    5  5  5  5  5  5  5  5  5  5  5  5  5  5  5  5  5  5  5  5
CENTRE ASSIGNMENTS    5  5  5  5  5  5  5  5  5  5  5  5  5  5  5  5  5  5  5  5
CENTRE ASSIGNMENTS    5  5  5  5  5  5  5  5  5  5  5  5  5  5  5  5  5  5  5  5
CENTRE ASSIGNMENTS    5  5  5  5  5  5  5  5  5  5  5  6  6  6  6  6  6  6  6  6
CENTRE ASSIGNMENTS    6  6  6  6  6  6  6  6  6  6  6  6  6  6  6  6  6  6  6  6
CENTRE ASSIGNMENTS    6  6  6  6  6  6  6  6  6  6  6  6  6  6  6  6  6  6  6  6
CENTRE ASSIGNMENTS    6  6  6  6  6  6  6  6  6  6  6  6  6  6  6  6  6  6  6  6
CENTRE ASSIGNMENTS    6  6  6  6  6  6
TYPE ASSIGNMENTS      1  1  1  1  1  1  1  1  1  1  1  1  1  1  1  1  1  1  1  1
TYPE ASSIGNMENTS      1  1  1  1  1  1  1  1  1  1  1  1  1  1  1  1  1  1  1  1
TYPE ASSIGNMENTS      1  1  2  2  2  2  2  2  2  3  3  3  3  3  3  3  4  4  4  4
TYPE ASSIGNMENTS      4  4  4  2  2  2  2  2  2  2  3  3  3  3  3  3  3  4  4  4
TYPE ASSIGNMENTS      4  4  4  4  2  3  4  2  3  4  2  3  4  5  6  7  8  9 10  5
TYPE ASSIGNMENTS      6  7  8  9 10  5  6  7  8  9 10 11 12 13 17 14 15 18 19 16
TYPE ASSIGNMENTS     20 11 12 13 17 14 15 18 19 16 20  1  1  1  1  1  1  1  1  1
TYPE ASSIGNMENTS      1  1  1  1  1  1  1  1  1  1  2  2  2  3  3  3  4  4  4  2
TYPE ASSIGNMENTS      3  4  2  3  4  2  3  4  5  6  7  8  9 10  5  6  7  8  9 10
TYPE ASSIGNMENTS      5  6  7  8  9 10 11 12 13 17 14 15 18 19 16 20 11 12 13 17
TYPE ASSIGNMENTS     14 15 18 19 16 20  1  1  1  1  1  1  1  1  1  1  1  1  1  1
TYPE ASSIGNMENTS      1  1  1  1  1  2  2  2  3  3  3  4  4  4  2  3  4  2  3  4
TYPE ASSIGNMENTS      2  3  4  5  6  7  8  9 10  5  6  7  8  9 10  5  6  7  8  9
TYPE ASSIGNMENTS     10 11 12 13 17 14 15 18 19 16 20 11 12 13 17 14 15 18 19 16
TYPE ASSIGNMENTS     20  1  1  1  1  1  1  1  1  1  1  1  1  1  1  1  1  1  1  1
TYPE ASSIGNMENTS      2  2  2  3  3  3  4  4  4  2  3  4  2  3  4  2  3  4  5  6
TYPE ASSIGNMENTS      7  8  9 10  5  6  7  8  9 10  5  6  7  8  9 10 11 12 13 17
TYPE ASSIGNMENTS     14 15 18 19 16 20 11 12 13 17 14 15 18 19 16 20  1  1  1  1
TYPE ASSIGNMENTS      1  1  1  1  1  1  1  1  1  1  1  1  1  1  1  2  2  2  3  3
TYPE ASSIGNMENTS      3  4  4  4  2  3  4  2  3  4  2  3  4  5  6  7  8  9 10  5
TYPE ASSIGNMENTS      6  7  8  9 10  5  6  7  8  9 10 11 12 13 17 14 15 18 19 16
TYPE ASSIGNMENTS     20 11 12 13 17 14 15 18 19 16 20  1  1  1  1  1  1  1  1  1
TYPE ASSIGNMENTS      1  1  1  1  1  1  1  1  1  1  2  2  2  3  3  3  4  4  4  2
TYPE ASSIGNMENTS      3  4  2  3  4  2  3  4  5  6  7  8  9 10  5  6  7  8  9 10
TYPE ASSIGNMENTS      5  6  7  8  9 10 11 12 13 17 14 15 18 19 16 20 11 12 13 17
TYPE ASSIGNMENTS     14 15 18 19 16 20
EXPONENTS  0.3124000D+06 0.4680000D+05 0.1065000D+05 0.3018000D+04 0.9868000D+03
EXPONENTS  0.3574000D+03 0.1396000D+03 0.5763000D+02 0.2460000D+02 0.1012000D+02
EXPONENTS  0.4283000D+01 0.1805000D+01 0.2782000D+00 0.3124000D+06 0.4680000D+05
EXPONENTS  0.1065000D+05 0.3018000D+04 0.9868000D+03 0.3574000D+03 0.1396000D+03
EXPONENTS  0.5763000D+02 0.2460000D+02 0.1012000D+02 0.4283000D+01 0.1805000D+01
EXPONENTS  0.2782000D+00 0.3124000D+06 0.4680000D+05 0.1065000D+05 0.3018000D+04
EXPONENTS  0.9868000D+03 0.3574000D+03 0.1396000D+03 0.5763000D+02 0.2460000D+02
EXPONENTS  0.1012000D+02 0.4283000D+01 0.1805000D+01 0.2782000D+00 0.6158000D+00
EXPONENTS  0.1055000D+00 0.4090000D-01 0.5049000D+03 0.1194000D+03 0.3796000D+02
EXPONENTS  0.1395000D+02 0.5457000D+01 0.2177000D+01 0.2877000D+00 0.5049000D+03
EXPONENTS  0.1194000D+03 0.3796000D+02 0.1395000D+02 0.5457000D+01 0.2177000D+01
EXPONENTS  0.2877000D+00 0.5049000D+03 0.1194000D+03 0.3796000D+02 0.1395000D+02
EXPONENTS  0.5457000D+01 0.2177000D+01 0.2877000D+00 0.5049000D+03 0.1194000D+03
EXPONENTS  0.3796000D+02 0.1395000D+02 0.5457000D+01 0.2177000D+01 0.2877000D+00
EXPONENTS  0.5049000D+03 0.1194000D+03 0.3796000D+02 0.1395000D+02 0.5457000D+01
EXPONENTS  0.2177000D+01 0.2877000D+00 0.5049000D+03 0.1194000D+03 0.3796000D+02
EXPONENTS  0.1395000D+02 0.5457000D+01 0.2177000D+01 0.2877000D+00 0.8010000D+00
EXPONENTS  0.8010000D+00 0.8010000D+00 0.9714000D-01 0.9714000D-01 0.9714000D-01
EXPONENTS  0.3070000D-01 0.3070000D-01 0.3070000D-01 0.2160000D+00 0.2160000D+00
EXPONENTS  0.2160000D+00 0.2160000D+00 0.2160000D+00 0.2160000D+00 0.6520000D+00
EXPONENTS  0.6520000D+00 0.6520000D+00 0.6520000D+00 0.6520000D+00 0.6520000D+00
EXPONENTS  0.7750000D-01 0.7750000D-01 0.7750000D-01 0.7750000D-01 0.7750000D-01
EXPONENTS  0.7750000D-01 0.4520000D+00 0.4520000D+00 0.4520000D+00 0.4520000D+00
EXPONENTS  0.4520000D+00 0.4520000D+00 0.4520000D+00 0.4520000D+00 0.4520000D+00
EXPONENTS  0.4520000D+00 0.1650000D+00 0.1650000D+00 0.1650000D+00 0.1650000D+00
EXPONENTS  0.1650000D+00 0.1650000D+00 0.1650000D+00 0.1650000D+00 0.1650000D+00
EXPONENTS  0.1650000D+00 0.1950000D+05 0.2923000D+04 0.6645000D+03 0.1875000D+03
EXPONENTS  0.6062000D+02 0.2142000D+02 0.7950000D+01 0.8815000D+00 0.1950000D+05
EXPONENTS  0.2923000D+04 0.6645000D+03 0.1875000D+03 0.6062000D+02 0.2142000D+02
EXPONENTS  0.7950000D+01 0.8815000D+00 0.2257000D+01 0.3041000D+00 0.9158000D-01
EXPONENTS  0.4388000D+02 0.9926000D+01 0.2930000D+01 0.4388000D+02 0.9926000D+01
EXPONENTS  0.2930000D+01 0.4388000D+02 0.9926000D+01 0.2930000D+01 0.9132000D+00
EXPONENTS  0.9132000D+00 0.9132000D+00 0.2672000D+00 0.2672000D+00 0.2672000D+00
EXPONENTS  0.7361000D-01 0.7361000D-01 0.7361000D-01 0.3107000D+01 0.3107000D+01
EXPONENTS  0.3107000D+01 0.3107000D+01 0.3107000D+01 0.3107000D+01 0.8550000D+00
EXPONENTS  0.8550000D+00 0.8550000D+00 0.8550000D+00 0.8550000D+00 0.8550000D+00
EXPONENTS  0.2920000D+00 0.2920000D+00 0.2920000D+00 0.2920000D+00 0.2920000D+00
EXPONENTS  0.2920000D+00 0.1917000D+01 0.1917000D+01 0.1917000D+01 0.1917000D+01
EXPONENTS  0.1917000D+01 0.1917000D+01 0.1917000D+01 0.1917000D+01 0.1917000D+01
EXPONENTS  0.1917000D+01 0.7240000D+00 0.7240000D+00 0.7240000D+00 0.7240000D+00
EXPONENTS  0.7240000D+00 0.7240000D+00 0.7240000D+00 0.7240000D+00 0.7240000D+00
EXPONENTS  0.7240000D+00 0.1950000D+05 0.2923000D+04 0.6645000D+03 0.1875000D+03
EXPONENTS  0.6062000D+02 0.2142000D+02 0.7950000D+01 0.8815000D+00 0.1950000D+05
EXPONENTS  0.2923000D+04 0.6645000D+03 0.1875000D+03 0.6062000D+02 0.2142000D+02
EXPONENTS  0.7950000D+01 0.8815000D+00 0.2257000D+01 0.3041000D+00 0.9158000D-01
EXPONENTS  0.4388000D+02 0.9926000D+01 0.2930000D+01 0.4388000D+02 0.9926000D+01
EXPONENTS  0.2930000D+01 0.4388000D+02 0.9926000D+01 0.2930000D+01 0.9132000D+00
EXPONENTS  0.9132000D+00 0.9132000D+00 0.2672000D+00 0.2672000D+00 0.2672000D+00
EXPONENTS  0.7361000D-01 0.7361000D-01 0.7361000D-01 0.3107000D+01 0.3107000D+01
EXPONENTS  0.3107000D+01 0.3107000D+01 0.3107000D+01 0.3107000D+01 0.8550000D+00
EXPONENTS  0.8550000D+00 0.8550000D+00 0.8550000D+00 0.8550000D+00 0.8550000D+00
EXPONENTS  0.2920000D+00 0.2920000D+00 0.2920000D+00 0.2920000D+00 0.2920000D+00
EXPONENTS  0.2920000D+00 0.1917000D+01 0.1917000D+01 0.1917000D+01 0.1917000D+01
EXPONENTS  0.1917000D+01 0.1917000D+01 0.1917000D+01 0.1917000D+01 0.1917000D+01
EXPONENTS  0.1917000D+01 0.7240000D+00 0.7240000D+00 0.7240000D+00 0.7240000D+00
EXPONENTS  0.7240000D+00 0.7240000D+00 0.7240000D+00 0.7240000D+00 0.7240000D+00
EXPONENTS  0.7240000D+00 0.1950000D+05 0.2923000D+04 0.6645000D+03 0.1875000D+03
EXPONENTS  0.6062000D+02 0.2142000D+02 0.7950000D+01 0.8815000D+00 0.1950000D+05
EXPONENTS  0.2923000D+04 0.6645000D+03 0.1875000D+03 0.6062000D+02 0.2142000D+02
EXPONENTS  0.7950000D+01 0.8815000D+00 0.2257000D+01 0.3041000D+00 0.9158000D-01
EXPONENTS  0.4388000D+02 0.9926000D+01 0.2930000D+01 0.4388000D+02 0.9926000D+01
EXPONENTS  0.2930000D+01 0.4388000D+02 0.9926000D+01 0.2930000D+01 0.9132000D+00
EXPONENTS  0.9132000D+00 0.9132000D+00 0.2672000D+00 0.2672000D+00 0.2672000D+00
EXPONENTS  0.7361000D-01 0.7361000D-01 0.7361000D-01 0.3107000D+01 0.3107000D+01
EXPONENTS  0.3107000D+01 0.3107000D+01 0.3107000D+01 0.3107000D+01 0.8550000D+00
EXPONENTS  0.8550000D+00 0.8550000D+00 0.8550000D+00 0.8550000D+00 0.8550000D+00
EXPONENTS  0.2920000D+00 0.2920000D+00 0.2920000D+00 0.2920000D+00 0.2920000D+00
EXPONENTS  0.2920000D+00 0.1917000D+01 0.1917000D+01 0.1917000D+01 0.1917000D+01
EXPONENTS  0.1917000D+01 0.1917000D+01 0.1917000D+01 0.1917000D+01 0.1917000D+01
EXPONENTS  0.1917000D+01 0.7240000D+00 0.7240000D+00 0.7240000D+00 0.7240000D+00
EXPONENTS  0.7240000D+00 0.7240000D+00 0.7240000D+00 0.7240000D+00 0.7240000D+00
EXPONENTS  0.7240000D+00 0.1950000D+05 0.2923000D+04 0.6645000D+03 0.1875000D+03
EXPONENTS  0.6062000D+02 0.2142000D+02 0.7950000D+01 0.8815000D+00 0.1950000D+05
EXPONENTS  0.2923000D+04 0.6645000D+03 0.1875000D+03 0.6062000D+02 0.2142000D+02
EXPONENTS  0.7950000D+01 0.8815000D+00 0.2257000D+01 0.3041000D+00 0.9158000D-01
EXPONENTS  0.4388000D+02 0.9926000D+01 0.2930000D+01 0.4388000D+02 0.9926000D+01
EXPONENTS  0.2930000D+01 0.4388000D+02 0.9926000D+01 0.2930000D+01 0.9132000D+00
EXPONENTS  0.9132000D+00 0.9132000D+00 0.2672000D+00 0.2672000D+00 0.2672000D+00
EXPONENTS  0.7361000D-01 0.7361000D-01 0.7361000D-01 0.3107000D+01 0.3107000D+01
EXPONENTS  0.3107000D+01 0.3107000D+01 0.3107000D+01 0.3107000D+01 0.8550000D+00
EXPONENTS  0.8550000D+00 0.8550000D+00 0.8550000D+00 0.8550000D+00 0.8550000D+00
EXPONENTS  0.2920000D+00 0.2920000D+00 0.2920000D+00 0.2920000D+00 0.2920000D+00
EXPONENTS  0.2920000D+00 0.1917000D+01 0.1917000D+01 0.1917000D+01 0.1917000D+01
EXPONENTS  0.1917000D+01 0.1917000D+01 0.1917000D+01 0.1917000D+01 0.1917000D+01
EXPONENTS  0.1917000D+01 0.7240000D+00 0.7240000D+00 0.7240000D+00 0.7240000D+00
EXPONENTS  0.7240000D+00 0.7240000D+00 0.7240000D+00 0.7240000D+00 0.7240000D+00
EXPONENTS  0.7240000D+00 0.1950000D+05 0.2923000D+04 0.6645000D+03 0.1875000D+03
EXPONENTS  0.6062000D+02 0.2142000D+02 0.7950000D+01 0.8815000D+00 0.1950000D+05
EXPONENTS  0.2923000D+04 0.6645000D+03 0.1875000D+03 0.6062000D+02 0.2142000D+02
EXPONENTS  0.7950000D+01 0.8815000D+00 0.2257000D+01 0.3041000D+00 0.9158000D-01
EXPONENTS  0.4388000D+02 0.9926000D+01 0.2930000D+01 0.4388000D+02 0.9926000D+01
EXPONENTS  0.2930000D+01 0.4388000D+02 0.9926000D+01 0.2930000D+01 0.9132000D+00
EXPONENTS  0.9132000D+00 0.9132000D+00 0.2672000D+00 0.2672000D+00 0.2672000D+00
EXPONENTS  0.7361000D-01 0.7361000D-01 0.7361000D-01 0.3107000D+01 0.3107000D+01
EXPONENTS  0.3107000D+01 0.3107000D+01 0.3107000D+01 0.3107000D+01 0.8550000D+00
EXPONENTS  0.8550000D+00 0.8550000D+00 0.8550000D+00 0.8550000D+00 0.8550000D+00
EXPONENTS  0.2920000D+00 0.2920000D+00 0.2920000D+00 0.2920000D+00 0.2920000D+00
EXPONENTS  0.2920000D+00 0.1917000D+01 0.1917000D+01 0.1917000D+01 0.1917000D+01
EXPONENTS  0.1917000D+01 0.1917000D+01 0.1917000D+01 0.1917000D+01 0.1917000D+01
EXPONENTS  0.1917000D+01 0.7240000D+00 0.7240000D+00 0.7240000D+00 0.7240000D+00
EXPONENTS  0.7240000D+00 0.7240000D+00 0.7240000D+00 0.7240000D+00 0.7240000D+00
EXPONENTS  0.7240000D+00
MO    1     MO 0.0        OCC NO =    2.0000000  ORB. ENERGY =  -78.451825
  0.54410843D+00  0.10180186D+01  0.17578176D+01  0.28428400D+01  0.42906893D+01
  0.58783772D+01  0.67932292D+01  0.57088606D+01  0.25075817D+01  0.28661245D+00
 -0.38628605D-02  0.24025913D-02  0.11818342D-03 -0.13626185D-02 -0.25486352D-02
 -0.44128241D-02 -0.71653948D-02 -0.11004372D-01 -0.15650743D-01 -0.19913057D-01
 -0.20636937D-01 -0.13771523D-01  0.13563194D-02  0.10360071D-01  0.53194723D-02
 -0.23333658D-04  0.69958448D-03  0.13073282D-02  0.22669535D-02  0.36761076D-02
  0.56663269D-02  0.80628736D-02  0.10382542D-01  0.10914668D-01  0.76515166D-02
 -0.88840955D-03 -0.71922399D-02 -0.67688750D-02  0.33009044D-02 -0.22491157D-02
 -0.74142558D-03  0.29201483D-05  0.49548218D-05  0.64818526D-05  0.70913738D-05
  0.58413258D-05  0.31232236D-05  0.86297699D-06 -0.70734348D-09 -0.92949002D-14
 -0.12159503D-13 -0.13302923D-13 -0.10957920D-13 -0.58589497D-14 -0.16188847D-14
  0.13269270D-17 -0.36060872D-13 -0.47174503D-13 -0.51610559D-13 -0.42512791D-13
 -0.22730619D-13 -0.62806906D-14  0.51480000D-17 -0.47834883D-05 -0.63352816D-05
 -0.69987843D-05 -0.59944801D-05 -0.32702158D-05 -0.10051786D-05  0.43761956D-06
  0.82624108D-14  0.10942788D-13  0.12088841D-13  0.10354130D-13  0.56485695D-14
  0.17362222D-14 -0.75589034D-15  0.32563559D-13  0.43127380D-13  0.47644170D-13
  0.40807377D-13  0.22261968D-13  0.68427453D-14 -0.29790917D-14 -0.69453898D-07
  0.35130184D-15  0.78131839D-15  0.10326629D-06 -0.35115845D-15  0.17900513D-14
  0.18935067D-08  0.30783819D-17 -0.28147769D-16 -0.29551374D-04 -0.29227163D-04
  0.58778537D-04  0.57230606D-15 -0.24833838D-17 -0.32966387D-17  0.14635204D-04
  0.15048372D-04 -0.29683576D-04  0.18246862D-15  0.15993964D-17  0.10074524D-17
 -0.40577838D-05 -0.41102142D-05  0.81679979D-05  0.35162631D-16 -0.55747038D-18
 -0.30857599D-18  0.94314635D-04  0.26266783D-16 -0.36149730D-15 -0.28259580D-03
 -0.22023906D-15  0.54175915D-15 -0.34810369D-06  0.14143871D-15  0.54273275D-15
  0.15126083D-17 -0.33170877D-04  0.15824249D-16  0.12748356D-15  0.99520796D-04
 -0.72009576D-16 -0.19154323D-15 -0.81648479D-08  0.24536830D-16 -0.19090745D-15
  0.74169394D-18  0.53921989D-04  0.10051292D-03  0.17039412D-03  0.25802691D-03
  0.32266356D-03  0.27778327D-03  0.10679003D-03 -0.46273868D-06 -0.37280628D-04
 -0.70006416D-04 -0.11920885D-03 -0.18673996D-03 -0.25025352D-03 -0.26918140D-03
 -0.16161616D-03  0.10628559D-03  0.10264033D-04  0.13582786D-03  0.32809494D-04
  0.10879988D-04  0.10640391D-04  0.70305560D-05 -0.19908986D-04 -0.19470553D-04
 -0.12865018D-04 -0.21693689D-15 -0.21215954D-15 -0.14018278D-15  0.27664277D-04
 -0.47137894D-04  0.18135696D-15 -0.16320443D-03  0.28184043D-03 -0.49719482D-17
 -0.15883915D-05  0.27902644D-05  0.21756758D-16 -0.11366076D-03  0.16887108D-03
 -0.55210327D-04 -0.48764753D-03  0.23294867D-15 -0.40472822D-15  0.54129008D-04
 -0.79386845D-04  0.25257838D-04  0.23033049D-03 -0.86855352D-16  0.15108992D-15
 -0.11392628D-04 -0.10249927D-03  0.11389190D-03  0.15774305D-03  0.13448799D-16
 -0.23789303D-16 -0.82027958D-04 -0.12658609D-03  0.24624592D-15  0.53674160D-03
 -0.12505853D-03 -0.52471905D-15 -0.29065773D-03  0.50481680D-03 -0.21401870D-15
 -0.53732226D-15  0.51325297D-04  0.55777923D-04 -0.58609500D-16 -0.28202420D-03
  0.54977644D-04  0.15291113D-15  0.12804830D-03 -0.22231141D-03  0.22917366D-16
  0.22474873D-15  0.53921989D-04  0.10051292D-03  0.17039412D-03  0.25802691D-03
  0.32266356D-03  0.27778327D-03  0.10679003D-03 -0.46273868D-06 -0.37280628D-04
 -0.70006416D-04 -0.11920885D-03 -0.18673996D-03 -0.25025352D-03 -0.26918140D-03
 -0.16161616D-03  0.10628559D-03  0.10264033D-04  0.13582786D-03  0.32809494D-04
  0.10879988D-04  0.10640391D-04  0.70305560D-05  0.19908986D-04  0.19470553D-04
  0.12865018D-04 -0.21958829D-15 -0.21475256D-15 -0.14189609D-15  0.27664277D-04
  0.47137894D-04  0.18382345D-15 -0.16320443D-03 -0.28184043D-03 -0.10022916D-16
 -0.15883915D-05 -0.27902644D-05  0.21548800D-16 -0.11366076D-03  0.16887108D-03
 -0.55210327D-04  0.48764753D-03  0.23554632D-15  0.41044976D-15  0.54129008D-04
 -0.79386845D-04  0.25257838D-04 -0.23033049D-03 -0.87791199D-16 -0.15297927D-15
 -0.11392628D-04 -0.10249927D-03  0.11389190D-03 -0.15774305D-03  0.12472332D-16
  0.21839448D-16 -0.82027958D-04  0.12658609D-03  0.24347713D-15  0.53674160D-03
  0.12505853D-03 -0.52155785D-15 -0.29065773D-03 -0.50481680D-03 -0.20887355D-15
  0.54149660D-15  0.51325297D-04 -0.55777923D-04 -0.57635280D-16 -0.28202420D-03
 -0.54977644D-04  0.15208822D-15  0.12804830D-03  0.22231141D-03  0.20817619D-16
 -0.22697112D-15  0.53993592D-04  0.10064639D-03  0.17062038D-03  0.25836954D-03
  0.32309202D-03  0.27815213D-03  0.10693183D-03 -0.46335314D-06 -0.37329089D-04
 -0.70097418D-04 -0.11936381D-03 -0.18698271D-03 -0.25057883D-03 -0.26953131D-03
 -0.16182625D-03  0.10642375D-03  0.10259874D-04  0.13563377D-03  0.32522951D-04
 -0.22919105D-04 -0.22414384D-04 -0.14810131D-04  0.54377359D-16  0.53179870D-16
  0.35138189D-16 -0.21712088D-15 -0.21233948D-15 -0.14030167D-15 -0.54462682D-04
 -0.47652629D-16  0.18158636D-15  0.32580544D-03  0.66894976D-16 -0.42002035D-17
  0.32115268D-05 -0.12611029D-16  0.21682422D-16  0.30947301D-03 -0.25415315D-03
 -0.55319865D-04  0.40082466D-15 -0.45981124D-15 -0.69704643D-18 -0.14584471D-03
  0.12052438D-03  0.25320336D-04 -0.17196477D-15  0.17145249D-15  0.32634374D-18
 -0.14806058D-03  0.34128220D-04  0.11393236D-03  0.45800630D-16 -0.26741488D-16
 -0.22462999D-18 -0.30035325D-03 -0.43947669D-18  0.24689087D-15  0.31801577D-03
  0.70123215D-16 -0.57066754D-16  0.58304397D-03 -0.68804785D-16 -0.68360584D-15
 -0.19648706D-18  0.14749329D-03 -0.12793752D-16 -0.58793949D-16 -0.18573474D-03
  0.37207916D-16 -0.42336515D-16 -0.25674513D-03  0.11733402D-17  0.21871836D-15
  0.93185523D-19  0.69126314D-04  0.12885444D-03  0.21843996D-03  0.33078248D-03
  0.41364465D-03  0.35610951D-03  0.13690150D-03 -0.59321660D-06 -0.46880520D-04
 -0.88033314D-04 -0.14990555D-03 -0.23482616D-03 -0.31469468D-03 -0.33849656D-03
 -0.20323289D-03  0.13365450D-03 -0.10378340D-04 -0.13954676D-03 -0.32329064D-04
 -0.73205395D-08 -0.71593278D-08 -0.47304706D-08 -0.27342833D-16 -0.26740694D-16
 -0.17668707D-16 -0.20906089D-04 -0.20445698D-04 -0.13509337D-04  0.13924324D-08
  0.21349136D-16 -0.52560184D-04 -0.42198056D-07 -0.16773646D-16  0.28116687D-03
 -0.70845659D-08 -0.82942077D-17  0.12686186D-05 -0.87420912D-04 -0.87667041D-04
  0.17508795D-03  0.91939325D-16  0.20745757D-06  0.12544170D-15  0.30174148D-04
  0.30280549D-04 -0.60454696D-04 -0.25704450D-16 -0.79458602D-07 -0.51693634D-16
  0.68075534D-04  0.68045581D-04 -0.13612111D-03 -0.33684273D-16  0.71705820D-07
  0.22259138D-16 -0.43833766D-04  0.59875242D-16 -0.36900063D-03  0.13120929D-03
 -0.21208283D-15  0.55382515D-03  0.29201088D-06  0.32457099D-16  0.55317675D-03
 -0.54638797D-15  0.16220897D-04 -0.16679678D-16  0.14592472D-03 -0.48596179D-04
  0.62101172D-16 -0.21896656D-03 -0.66511781D-07 -0.12062140D-16 -0.21880761D-03
  0.18416474D-15  0.69126314D-04  0.12885444D-03  0.21843996D-03  0.33078248D-03
  0.41364465D-03  0.35610951D-03  0.13690150D-03 -0.59321660D-06 -0.46880520D-04
 -0.88033314D-04 -0.14990555D-03 -0.23482616D-03 -0.31469468D-03 -0.33849656D-03
 -0.20323289D-03  0.13365450D-03 -0.10378340D-04 -0.13954676D-03 -0.32329064D-04
 -0.73205395D-08 -0.71593278D-08 -0.47304706D-08 -0.28991627D-16 -0.28353178D-16
 -0.18734143D-16  0.20906089D-04  0.20445698D-04  0.13509337D-04  0.13924324D-08
  0.22978406D-16  0.52560184D-04 -0.42198056D-07 -0.20106279D-16 -0.28116687D-03
 -0.70845659D-08 -0.87804798D-17 -0.12686186D-05 -0.87420912D-04 -0.87667041D-04
  0.17508795D-03  0.92952007D-16 -0.20745757D-06 -0.12600901D-15  0.30174148D-04
  0.30280549D-04 -0.60454696D-04 -0.26247859D-16  0.79458602D-07  0.52078380D-16
  0.68075534D-04  0.68045581D-04 -0.13612111D-03 -0.32798316D-16 -0.71705820D-07
 -0.24513653D-16 -0.43833766D-04  0.57880171D-16  0.36900063D-03  0.13120929D-03
 -0.21353336D-15 -0.55382515D-03  0.29201088D-06  0.39892847D-16 -0.55317675D-03
  0.54304118D-15  0.16220897D-04 -0.16004703D-16 -0.14592472D-03 -0.48596179D-04
  0.62657178D-16  0.21896656D-03 -0.66511781D-07 -0.14643070D-16  0.21880761D-03
 -0.18270137D-15
MO    2     MO 0.0        OCC NO =    2.0000000  ORB. ENERGY =  -25.368264
  0.29854065D-04  0.55856504D-04  0.96447688D-04  0.15598055D-03  0.23542094D-03
  0.32253397D-03  0.37272995D-03  0.31323296D-03  0.13758564D-03  0.15725812D-04
 -0.21194689D-06  0.13182504D-06  0.64844712D-08 -0.49856949D-04 -0.93252203D-04
 -0.16146115D-03 -0.26217516D-03 -0.40263979D-03 -0.57264621D-03 -0.72860032D-03
 -0.75508644D-03 -0.50388729D-03  0.49626473D-04  0.37906539D-03  0.19463457D-03
 -0.85375696D-06  0.26409991D-04  0.49352907D-04  0.85579690D-04  0.13877662D-03
  0.21390933D-03  0.30438129D-03  0.39195103D-03  0.41203927D-03  0.28885216D-03
 -0.33538321D-04 -0.27151402D-03 -0.25553159D-03  0.12461234D-03 -0.17469117D-03
 -0.19444421D-04  0.13231749D-04  0.50240340D-04  0.65723954D-04  0.71904308D-04
  0.59229213D-04  0.31668509D-04  0.87503162D-05 -0.71722412D-08  0.25158718D-12
  0.32912405D-12  0.36007325D-12  0.29660052D-12  0.15858553D-12  0.43818720D-13
 -0.35916237D-16 -0.39902531D-14 -0.52200125D-14 -0.57108766D-14 -0.47041789D-14
 -0.25152171D-14 -0.69497889D-15  0.56964298D-18 -0.21376072D-03 -0.28310603D-03
 -0.31275611D-03 -0.26787657D-03 -0.14613680D-03 -0.44918622D-04  0.19555995D-04
 -0.11068313D-11 -0.14658942D-11 -0.16194193D-11 -0.13870376D-11 -0.75668151D-12
 -0.23258405D-12  0.10125895D-12  0.42624112D-14  0.56451639D-14  0.62363896D-14
  0.53414867D-14  0.29139831D-14  0.89568201D-15 -0.38994859D-15 -0.23551687D-03
 -0.12298321D-11 -0.11058465D-14 -0.39817671D-05 -0.28461780D-13  0.63242562D-14
  0.73406222D-06  0.40206881D-14 -0.96431580D-16  0.12214880D-03 -0.55405307D-04
 -0.66743491D-04 -0.92306021D-12  0.21749048D-15 -0.85657066D-17  0.58420901D-04
 -0.38082277D-04 -0.20338625D-04 -0.50493346D-12 -0.56498129D-16  0.34681029D-17
 -0.40985484D-06  0.65862489D-05 -0.61763940D-05  0.37869211D-13  0.58199490D-16
 -0.91470485D-18  0.89547318D-04  0.10483235D-12  0.15390392D-15 -0.18970655D-03
  0.96246370D-13 -0.20033408D-15 -0.78935404D-04 -0.41074341D-12 -0.26137767D-15
  0.29065230D-17  0.10327444D-05 -0.12985751D-13  0.35510077D-15 -0.13122103D-04
 -0.13971953D-13 -0.49639351D-15  0.10023870D-04  0.52929207D-13 -0.56890878D-15
  0.18208564D-17 -0.86137145D-01 -0.16056337D+00 -0.27219439D+00 -0.41218252D+00
 -0.51543569D+00 -0.44374212D+00 -0.17059067D+00  0.73919730D-03 -0.85283748D-04
 -0.16014777D-03 -0.27270404D-03 -0.42718927D-03 -0.57248387D-03 -0.61578359D-03
 -0.36971566D-03  0.24314057D-03 -0.89826691D-02 -0.20719752D-03 -0.38726124D-04
 -0.41156054D-03 -0.40249721D-03 -0.26594693D-03  0.85574935D-03  0.83690417D-03
  0.55297797D-03 -0.45570155D-15 -0.44566616D-15 -0.29447048D-15 -0.43179454D-04
 -0.91798954D-04  0.36849166D-15  0.67217809D-04  0.10203409D-03  0.10265688D-15
 -0.21962068D-05 -0.16908568D-05  0.15511966D-15 -0.46818958D-04  0.25815171D-04
  0.21003787D-04  0.58909665D-04  0.56918677D-15 -0.99099587D-15  0.39968904D-05
 -0.18305206D-04  0.14308315D-04  0.41471979D-04 -0.22290586D-15  0.37273720D-15
  0.41107322D-04 -0.41199226D-04  0.91903745D-07 -0.20632611D-04  0.11836164D-15
 -0.16947290D-15 -0.99628008D-04 -0.80589880D-04  0.50721669D-15  0.18394876D-03
  0.35099658D-03 -0.11176866D-14  0.11493527D-03 -0.10922694D-03 -0.40396352D-15
 -0.97990936D-15  0.39818636D-04  0.33791368D-04 -0.16023051D-15 -0.90677859D-04
 -0.11474740D-03  0.35248764D-15 -0.28778048D-04  0.13373293D-04  0.12820390D-15
  0.31043852D-15 -0.86137150D-01 -0.16056338D+00 -0.27219440D+00 -0.41218254D+00
 -0.51543572D+00 -0.44374214D+00 -0.17059068D+00  0.73919733D-03 -0.85283752D-04
 -0.16014778D-03 -0.27270405D-03 -0.42718929D-03 -0.57248390D-03 -0.61578362D-03
 -0.36971568D-03  0.24314059D-03 -0.89826696D-02 -0.20719752D-03 -0.38726123D-04
 -0.41156056D-03 -0.40249724D-03 -0.26594694D-03 -0.85574939D-03 -0.83690421D-03
 -0.55297800D-03 -0.45133972D-15 -0.44140039D-15 -0.29165190D-15 -0.43179450D-04
  0.91798960D-04  0.37044798D-15  0.67217808D-04 -0.10203409D-03  0.91949067D-16
 -0.21962068D-05  0.16908568D-05  0.15384942D-15 -0.46818957D-04  0.25815168D-04
  0.21003789D-04 -0.58909672D-04  0.58248062D-15  0.97989378D-15  0.39968902D-05
 -0.18305205D-04  0.14308315D-04 -0.41471977D-04 -0.22702699D-15 -0.37206260D-15
  0.41107322D-04 -0.41199226D-04  0.91903870D-07  0.20632610D-04  0.11640022D-15
  0.16404016D-15 -0.99628009D-04  0.80589879D-04  0.50045627D-15  0.18394876D-03
 -0.35099658D-03 -0.11074035D-14  0.11493527D-03  0.10922694D-03 -0.39396531D-15
  0.97825978D-15  0.39818636D-04 -0.33791368D-04 -0.15789247D-15 -0.90677860D-04
  0.11474740D-03  0.34963736D-15 -0.28778048D-04 -0.13373293D-04  0.12404007D-15
 -0.31095176D-15  0.58165917D+00  0.10842379D+01  0.18380498D+01  0.27833491D+01
  0.34805878D+01  0.29964619D+01  0.11519493D+01 -0.49915851D-02  0.64527380D-03
  0.12117099D-02  0.20633330D-02  0.32321990D-02  0.43315269D-02  0.46591412D-02
  0.27973422D-02 -0.18396499D-02  0.60891555D-01  0.89128500D-03 -0.11243386D-03
 -0.71800181D-02 -0.70219008D-02 -0.46396668D-02  0.42827164D-12  0.41884031D-12
  0.27674550D-12 -0.71642945D-15 -0.70065235D-15 -0.46295063D-15  0.11370811D-02
 -0.50373070D-12  0.57695001D-15 -0.13791191D-03  0.66118466D-12 -0.26889525D-15
  0.11216805D-04 -0.17486338D-13  0.14841236D-15  0.83310734D-03 -0.48239918D-03
 -0.35070816D-03  0.56478621D-12 -0.16542603D-14 -0.73623264D-17 -0.30061324D-03
  0.16669836D-03  0.13391487D-03  0.57466003D-14  0.64507314D-15  0.41272252D-19
  0.54409614D-04 -0.33763638D-04 -0.20645976D-04 -0.49244579D-12 -0.13258794D-15
 -0.35481557D-18  0.10538642D-03  0.58297672D-12  0.39227154D-15 -0.33327755D-03
 -0.20203761D-11 -0.15760364D-15  0.17118288D-04  0.27144593D-12 -0.10192110D-14
 -0.23755067D-17 -0.23196253D-04 -0.19665056D-12 -0.11722668D-15  0.67583403D-04
  0.70044136D-12 -0.57009791D-18  0.20053546D-05 -0.11048967D-12  0.35225014D-15
  0.10674186D-18 -0.47186666D-04 -0.87957990D-04 -0.14911042D-03 -0.22579712D-03
 -0.28236009D-03 -0.24308573D-03 -0.93451031D-04  0.40493861D-06 -0.12867946D-04
 -0.24163724D-04 -0.41146655D-04 -0.64455992D-04 -0.86378612D-04 -0.92911843D-04
 -0.55784149D-04  0.36686003D-04 -0.32697201D-04  0.58289565D-04  0.64851742D-04
 -0.15333833D-03 -0.14996154D-03 -0.99085931D-04 -0.80078357D-12 -0.78314884D-12
 -0.51745955D-12  0.67927158D-04  0.66431277D-04  0.43893953D-04  0.12214487D-03
  0.63836422D-12 -0.57017546D-04 -0.77903707D-04 -0.40817051D-12 -0.16318560D-04
  0.12051453D-05  0.60536336D-14 -0.62016796D-05  0.78993540D-04 -0.62610325D-04
 -0.16383215D-04 -0.74033794D-12  0.18012590D-05  0.61780404D-14 -0.16836082D-04
  0.22636300D-06  0.16609719D-04  0.89679954D-13 -0.70228404D-04 -0.36623318D-12
 -0.17433612D-04  0.24400835D-04 -0.69672229D-05  0.21792219D-12  0.68087099D-04
  0.35702128D-12 -0.43352504D-04 -0.54634039D-12  0.15288940D-04 -0.28848551D-03
 -0.55549455D-12 -0.63347766D-03  0.41854302D-03  0.21945157D-11  0.58761084D-03
  0.63684173D-11  0.88950096D-05  0.14339803D-12 -0.52173834D-05  0.83044526D-04
  0.14617138D-12  0.19354580D-03 -0.10972955D-03 -0.57636548D-12 -0.17789365D-03
 -0.19376187D-11 -0.47186666D-04 -0.87957990D-04 -0.14911042D-03 -0.22579712D-03
 -0.28236009D-03 -0.24308573D-03 -0.93451031D-04  0.40493861D-06 -0.12867946D-04
 -0.24163724D-04 -0.41146655D-04 -0.64455992D-04 -0.86378612D-04 -0.92911843D-04
 -0.55784149D-04  0.36686003D-04 -0.32697201D-04  0.58289565D-04  0.64851742D-04
 -0.15333833D-03 -0.14996154D-03 -0.99085931D-04 -0.80081122D-12 -0.78317588D-12
 -0.51747742D-12 -0.67927158D-04 -0.66431277D-04 -0.43893953D-04  0.12214487D-03
  0.63837394D-12  0.57017546D-04 -0.77903707D-04 -0.40818079D-12  0.16318560D-04
  0.12051453D-05  0.60525995D-14  0.62016796D-05  0.78993540D-04 -0.62610325D-04
 -0.16383215D-04 -0.74034490D-12 -0.18012590D-05 -0.61709859D-14 -0.16836082D-04
  0.22636300D-06  0.16609719D-04  0.89682974D-13  0.70228404D-04  0.36623564D-12
 -0.17433612D-04  0.24400835D-04 -0.69672229D-05  0.21792367D-12 -0.68087099D-04
 -0.35702840D-12 -0.43352504D-04 -0.54634461D-12 -0.15288940D-04 -0.28848551D-03
 -0.55549540D-12  0.63347766D-03  0.41854302D-03  0.21945292D-11 -0.58761084D-03
 -0.63684327D-11  0.88950096D-05  0.14339939D-12  0.52173834D-05  0.83044526D-04
  0.14617207D-12 -0.19354580D-03 -0.10972955D-03 -0.57637023D-12  0.17789365D-03
  0.19376231D-11
MO    3     MO 0.0        OCC NO =    2.0000000  ORB. ENERGY =  -25.368258
 -0.13119953D-14 -0.24547234D-14 -0.42385824D-14 -0.68548704D-14 -0.10346034D-13
 -0.14174387D-13 -0.16380347D-13 -0.13765636D-13 -0.60464703D-14 -0.69110158D-15
  0.93144208D-17 -0.57933094D-17 -0.28497278D-18  0.24165573D-14  0.45199174D-14
  0.78259927D-14  0.12707583D-13  0.19515878D-13  0.27756058D-13  0.35315126D-13
  0.36598903D-13  0.24423326D-13 -0.24053862D-14 -0.18373231D-13 -0.94339023D-14