 Molden2AIM, Version 4.0.0 (06/02/2016)           Time: Tue Jul  3 04:08:56 2018
GAUSSIAN             24 MOL ORBITALS    393 PRIMITIVES        3 NUCLEI
  S    1    (CENTRE  1)  -0.00985681  0.00000000 -0.00599232  CHARGE = 16.0
  S    2    (CENTRE  2)  -0.01022153  0.00000000  3.65584715  CHARGE = 16.0
  S    3    (CENTRE  3)   3.24221256  0.00000000 -1.68920729  CHARGE = 16.0
CENTRE ASSIGNMENTS    1  1  1  1  1  1  1  1  1  1  1  1  1  1  1  1  1  1  1  1
CENTRE ASSIGNMENTS    1  1  1  1  1  1  1  1  1  1  1  1  1  1  1  1  1  1  1  1
CENTRE ASSIGNMENTS    1  1  1  1  1  1  1  1  1  1  1  1  1  1  1  1  1  1  1  1
CENTRE ASSIGNMENTS    1  1  1  1  1  1  1  1  1  1  1  1  1  1  1  1  1  1  1  1
CENTRE ASSIGNMENTS    1  1  1  1  1  1  1  1  1  1  1  1  1  1  1  1  1  1  1  1
CENTRE ASSIGNMENTS    1  1  1  1  1  1  1  1  1  1  1  1  1  1  1  1  1  1  1  1
CENTRE ASSIGNMENTS    1  1  1  1  1  1  1  1  1  1  1  2  2  2  2  2  2  2  2  2
CENTRE ASSIGNMENTS    2  2  2  2  2  2  2  2  2  2  2  2  2  2  2  2  2  2  2  2
CENTRE ASSIGNMENTS    2  2  2  2  2  2  2  2  2  2  2  2  2  2  2  2  2  2  2  2
CENTRE ASSIGNMENTS    2  2  2  2  2  2  2  2  2  2  2  2  2  2  2  2  2  2  2  2
CENTRE ASSIGNMENTS    2  2  2  2  2  2  2  2  2  2  2  2  2  2  2  2  2  2  2  2
CENTRE ASSIGNMENTS    2  2  2  2  2  2  2  2  2  2  2  2  2  2  2  2  2  2  2  2
CENTRE ASSIGNMENTS    2  2  2  2  2  2  2  2  2  2  2  2  2  2  2  2  2  2  2  2
CENTRE ASSIGNMENTS    2  2  3  3  3  3  3  3  3  3  3  3  3  3  3  3  3  3  3  3
CENTRE ASSIGNMENTS    3  3  3  3  3  3  3  3  3  3  3  3  3  3  3  3  3  3  3  3
CENTRE ASSIGNMENTS    3  3  3  3  3  3  3  3  3  3  3  3  3  3  3  3  3  3  3  3
CENTRE ASSIGNMENTS    3  3  3  3  3  3  3  3  3  3  3  3  3  3  3  3  3  3  3  3
CENTRE ASSIGNMENTS    3  3  3  3  3  3  3  3  3  3  3  3  3  3  3  3  3  3  3  3
CENTRE ASSIGNMENTS    3  3  3  3  3  3  3  3  3  3  3  3  3  3  3  3  3  3  3  3
CENTRE ASSIGNMENTS    3  3  3  3  3  3  3  3  3  3  3  3  3
TYPE ASSIGNMENTS      1  1  1  1  1  1  1  1  1  1  1  1  1  1  1  1  1  1  1  1
TYPE ASSIGNMENTS      1  1  1  1  1  1  1  1  1  1  1  1  1  1  1  1  1  1  1  1
TYPE ASSIGNMENTS      1  1  2  2  2  2  2  2  2  3  3  3  3  3  3  3  4  4  4  4
TYPE ASSIGNMENTS      4  4  4  2  2  2  2  2  2  2  3  3  3  3  3  3  3  4  4  4
TYPE ASSIGNMENTS      4  4  4  4  2  3  4  2  3  4  2  3  4  5  6  7  8  9 10  5
TYPE ASSIGNMENTS      6  7  8  9 10  5  6  7  8  9 10 11 12 13 17 14 15 18 19 16
TYPE ASSIGNMENTS     20 11 12 13 17 14 15 18 19 16 20  1  1  1  1  1  1  1  1  1
TYPE ASSIGNMENTS      1  1  1  1  1  1  1  1  1  1  1  1  1  1  1  1  1  1  1  1
TYPE ASSIGNMENTS      1  1  1  1  1  1  1  1  1  1  1  1  1  2  2  2  2  2  2  2
TYPE ASSIGNMENTS      3  3  3  3  3  3  3  4  4  4  4  4  4  4  2  2  2  2  2  2
TYPE ASSIGNMENTS      2  3  3  3  3  3  3  3  4  4  4  4  4  4  4  2  3  4  2  3
TYPE ASSIGNMENTS      4  2  3  4  5  6  7  8  9 10  5  6  7  8  9 10  5  6  7  8
TYPE ASSIGNMENTS      9 10 11 12 13 17 14 15 18 19 16 20 11 12 13 17 14 15 18 19
TYPE ASSIGNMENTS     16 20  1  1  1  1  1  1  1  1  1  1  1  1  1  1  1  1  1  1
TYPE ASSIGNMENTS      1  1  1  1  1  1  1  1  1  1  1  1  1  1  1  1  1  1  1  1
TYPE ASSIGNMENTS      1  1  1  1  2  2  2  2  2  2  2  3  3  3  3  3  3  3  4  4
TYPE ASSIGNMENTS      4  4  4  4  4  2  2  2  2  2  2  2  3  3  3  3  3  3  3  4
TYPE ASSIGNMENTS      4  4  4  4  4  4  2  3  4  2  3  4  2  3  4  5  6  7  8  9
TYPE ASSIGNMENTS     10  5  6  7  8  9 10  5  6  7  8  9 10 11 12 13 17 14 15 18
TYPE ASSIGNMENTS     19 16 20 11 12 13 17 14 15 18 19 16 20
EXPONENTS  0.3741000D+06 0.5605000D+05 0.1276000D+05 0.3615000D+04 0.1183000D+04
EXPONENTS  0.4288000D+03 0.1678000D+03 0.6947000D+02 0.2984000D+02 0.1272000D+02
EXPONENTS  0.5244000D+01 0.2219000D+01 0.3490000D+00 0.3741000D+06 0.5605000D+05
EXPONENTS  0.1276000D+05 0.3615000D+04 0.1183000D+04 0.4288000D+03 0.1678000D+03
EXPONENTS  0.6947000D+02 0.2984000D+02 0.1272000D+02 0.5244000D+01 0.2219000D+01
EXPONENTS  0.3490000D+00 0.3741000D+06 0.5605000D+05 0.1276000D+05 0.3615000D+04
EXPONENTS  0.1183000D+04 0.4288000D+03 0.1678000D+03 0.6947000D+02 0.2984000D+02
EXPONENTS  0.1272000D+02 0.5244000D+01 0.2219000D+01 0.3490000D+00 0.7767000D+00
EXPONENTS  0.1322000D+00 0.4970000D-01 0.5744000D+03 0.1358000D+03 0.4319000D+02
EXPONENTS  0.1587000D+02 0.6208000D+01 0.2483000D+01 0.3229000D+00 0.5744000D+03
EXPONENTS  0.1358000D+03 0.4319000D+02 0.1587000D+02 0.6208000D+01 0.2483000D+01
EXPONENTS  0.3229000D+00 0.5744000D+03 0.1358000D+03 0.4319000D+02 0.1587000D+02
EXPONENTS  0.6208000D+01 0.2483000D+01 0.3229000D+00 0.5744000D+03 0.1358000D+03
EXPONENTS  0.4319000D+02 0.1587000D+02 0.6208000D+01 0.2483000D+01 0.3229000D+00
EXPONENTS  0.5744000D+03 0.1358000D+03 0.4319000D+02 0.1587000D+02 0.6208000D+01
EXPONENTS  0.2483000D+01 0.3229000D+00 0.5744000D+03 0.1358000D+03 0.4319000D+02
EXPONENTS  0.1587000D+02 0.6208000D+01 0.2483000D+01 0.3229000D+00 0.8688000D+00
EXPONENTS  0.8688000D+00 0.8688000D+00 0.1098000D+00 0.1098000D+00 0.1098000D+00
EXPONENTS  0.3510000D-01 0.3510000D-01 0.3510000D-01 0.2690000D+00 0.2690000D+00
EXPONENTS  0.2690000D+00 0.2690000D+00 0.2690000D+00 0.2690000D+00 0.8190000D+00
EXPONENTS  0.8190000D+00 0.8190000D+00 0.8190000D+00 0.8190000D+00 0.8190000D+00
EXPONENTS  0.1010000D+00 0.1010000D+00 0.1010000D+00 0.1010000D+00 0.1010000D+00
EXPONENTS  0.1010000D+00 0.5570000D+00 0.5570000D+00 0.5570000D+00 0.5570000D+00
EXPONENTS  0.5570000D+00 0.5570000D+00 0.5570000D+00 0.5570000D+00 0.5570000D+00
EXPONENTS  0.5570000D+00 0.2180000D+00 0.2180000D+00 0.2180000D+00 0.2180000D+00
EXPONENTS  0.2180000D+00 0.2180000D+00 0.2180000D+00 0.2180000D+00 0.2180000D+00
EXPONENTS  0.2180000D+00 0.3741000D+06 0.5605000D+05 0.1276000D+05 0.3615000D+04
EXPONENTS  0.1183000D+04 0.4288000D+03 0.1678000D+03 0.6947000D+02 0.2984000D+02
EXPONENTS  0.1272000D+02 0.5244000D+01 0.2219000D+01 0.3490000D+00 0.3741000D+06
EXPONENTS  0.5605000D+05 0.1276000D+05 0.3615000D+04 0.1183000D+04 0.4288000D+03
EXPONENTS  0.1678000D+03 0.6947000D+02 0.2984000D+02 0.1272000D+02 0.5244000D+01
EXPONENTS  0.2219000D+01 0.3490000D+00 0.3741000D+06 0.5605000D+05 0.1276000D+05
EXPONENTS  0.3615000D+04 0.1183000D+04 0.4288000D+03 0.1678000D+03 0.6947000D+02
EXPONENTS  0.2984000D+02 0.1272000D+02 0.5244000D+01 0.2219000D+01 0.3490000D+00
EXPONENTS  0.7767000D+00 0.1322000D+00 0.4970000D-01 0.5744000D+03 0.1358000D+03
EXPONENTS  0.4319000D+02 0.1587000D+02 0.6208000D+01 0.2483000D+01 0.3229000D+00
EXPONENTS  0.5744000D+03 0.1358000D+03 0.4319000D+02 0.1587000D+02 0.6208000D+01
EXPONENTS  0.2483000D+01 0.3229000D+00 0.5744000D+03 0.1358000D+03 0.4319000D+02
EXPONENTS  0.1587000D+02 0.6208000D+01 0.2483000D+01 0.3229000D+00 0.5744000D+03
EXPONENTS  0.1358000D+03 0.4319000D+02 0.1587000D+02 0.6208000D+01 0.2483000D+01
EXPONENTS  0.3229000D+00 0.5744000D+03 0.1358000D+03 0.4319000D+02 0.1587000D+02
EXPONENTS  0.6208000D+01 0.2483000D+01 0.3229000D+00 0.5744000D+03 0.1358000D+03
EXPONENTS  0.4319000D+02 0.1587000D+02 0.6208000D+01 0.2483000D+01 0.3229000D+00
EXPONENTS  0.8688000D+00 0.8688000D+00 0.8688000D+00 0.1098000D+00 0.1098000D+00
EXPONENTS  0.1098000D+00 0.3510000D-01 0.3510000D-01 0.3510000D-01 0.2690000D+00
EXPONENTS  0.2690000D+00 0.2690000D+00 0.2690000D+00 0.2690000D+00 0.2690000D+00
EXPONENTS  0.8190000D+00 0.8190000D+00 0.8190000D+00 0.8190000D+00 0.8190000D+00
EXPONENTS  0.8190000D+00 0.1010000D+00 0.1010000D+00 0.1010000D+00 0.1010000D+00
EXPONENTS  0.1010000D+00 0.1010000D+00 0.5570000D+00 0.5570000D+00 0.5570000D+00
EXPONENTS  0.5570000D+00 0.5570000D+00 0.5570000D+00 0.5570000D+00 0.5570000D+00
EXPONENTS  0.5570000D+00 0.5570000D+00 0.2180000D+00 0.2180000D+00 0.2180000D+00
EXPONENTS  0.2180000D+00 0.2180000D+00 0.2180000D+00 0.2180000D+00 0.2180000D+00
EXPONENTS  0.2180000D+00 0.2180000D+00 0.3741000D+06 0.5605000D+05 0.1276000D+05
EXPONENTS  0.3615000D+04 0.1183000D+04 0.4288000D+03 0.1678000D+03 0.6947000D+02
EXPONENTS  0.2984000D+02 0.1272000D+02 0.5244000D+01 0.2219000D+01 0.3490000D+00
EXPONENTS  0.3741000D+06 0.5605000D+05 0.1276000D+05 0.3615000D+04 0.1183000D+04
EXPONENTS  0.4288000D+03 0.1678000D+03 0.6947000D+02 0.2984000D+02 0.1272000D+02
EXPONENTS  0.5244000D+01 0.2219000D+01 0.3490000D+00 0.3741000D+06 0.5605000D+05
EXPONENTS  0.1276000D+05 0.3615000D+04 0.1183000D+04 0.4288000D+03 0.1678000D+03
EXPONENTS  0.6947000D+02 0.2984000D+02 0.1272000D+02 0.5244000D+01 0.2219000D+01
EXPONENTS  0.3490000D+00 0.7767000D+00 0.1322000D+00 0.4970000D-01 0.5744000D+03
EXPONENTS  0.1358000D+03 0.4319000D+02 0.1587000D+02 0.6208000D+01 0.2483000D+01
EXPONENTS  0.3229000D+00 0.5744000D+03 0.1358000D+03 0.4319000D+02 0.1587000D+02
EXPONENTS  0.6208000D+01 0.2483000D+01 0.3229000D+00 0.5744000D+03 0.1358000D+03
EXPONENTS  0.4319000D+02 0.1587000D+02 0.6208000D+01 0.2483000D+01 0.3229000D+00
EXPONENTS  0.5744000D+03 0.1358000D+03 0.4319000D+02 0.1587000D+02 0.6208000D+01
EXPONENTS  0.2483000D+01 0.3229000D+00 0.5744000D+03 0.1358000D+03 0.4319000D+02
EXPONENTS  0.1587000D+02 0.6208000D+01 0.2483000D+01 0.3229000D+00 0.5744000D+03
EXPONENTS  0.1358000D+03 0.4319000D+02 0.1587000D+02 0.6208000D+01 0.2483000D+01
EXPONENTS  0.3229000D+00 0.8688000D+00 0.8688000D+00 0.8688000D+00 0.1098000D+00
EXPONENTS  0.1098000D+00 0.1098000D+00 0.3510000D-01 0.3510000D-01 0.3510000D-01
EXPONENTS  0.2690000D+00 0.2690000D+00 0.2690000D+00 0.2690000D+00 0.2690000D+00
EXPONENTS  0.2690000D+00 0.8190000D+00 0.8190000D+00 0.8190000D+00 0.8190000D+00
EXPONENTS  0.8190000D+00 0.8190000D+00 0.1010000D+00 0.1010000D+00 0.1010000D+00
EXPONENTS  0.1010000D+00 0.1010000D+00 0.1010000D+00 0.5570000D+00 0.5570000D+00
EXPONENTS  0.5570000D+00 0.5570000D+00 0.5570000D+00 0.5570000D+00 0.5570000D+00
EXPONENTS  0.5570000D+00 0.5570000D+00 0.5570000D+00 0.2180000D+00 0.2180000D+00
EXPONENTS  0.2180000D+00 0.2180000D+00 0.2180000D+00 0.2180000D+00 0.2180000D+00
EXPONENTS  0.2180000D+00 0.2180000D+00 0.2180000D+00
MO    1     MO 0.0        OCC NO =    2.0000000  ORB. ENERGY =  -90.170130
  0.58483769D+00  0.10933201D+01  0.18895984D+01  0.30563407D+01  0.46194800D+01
  0.63617820D+01  0.74354482D+01  0.64247882D+01  0.29965441D+01  0.40686595D+00
  0.10894868D-02  0.21371227D-02  0.97568577D-04 -0.62397162D-03 -0.11652936D-02
 -0.20213820D-02 -0.32776011D-02 -0.50462400D-02 -0.71869792D-02 -0.92415223D-02
 -0.97008484D-02 -0.68591873D-02  0.15189957D-03  0.49284147D-02  0.27137189D-02
 -0.11476271D-04  0.27426460D-03  0.51181832D-03  0.88896716D-03  0.14399296D-02
  0.22242698D-02  0.31710308D-02  0.41244752D-02  0.43955788D-02  0.32601094D-02
 -0.10147510D-03 -0.29534892D-02 -0.28934001D-02  0.13513894D-02 -0.16971864D-02
 -0.86437759D-03 -0.27196684D-03  0.19188600D-02  0.25174399D-02  0.27612478D-02
  0.22719985D-02  0.11978425D-02  0.31162201D-03 -0.34484153D-06 -0.27920025D-17
 -0.36629552D-17 -0.40177036D-17 -0.33058302D-17 -0.17428990D-17 -0.45341995D-18
  0.50175540D-21  0.11676896D-02  0.15319452D-02  0.16803104D-02  0.13825860D-02
  0.72892670D-03  0.18963228D-03 -0.20984745D-06 -0.11055885D-02 -0.14516444D-02
 -0.16331978D-02 -0.13760926D-02 -0.76976692D-03 -0.19159342D-03  0.87873974D-04
  0.12621013D-17  0.16571467D-17  0.18644018D-17  0.15708995D-17  0.87873915D-18
  0.21871639D-18 -0.10031387D-18 -0.67280953D-03 -0.88340300D-03 -0.99388795D-03
 -0.83742574D-03 -0.46844422D-03 -0.11659481D-03  0.53475999D-04 -0.79485381D-04
  0.25258316D-18 -0.48370363D-04 -0.18791860D-03  0.16786021D-19 -0.11434734D-03
 -0.51664337D-05 -0.41485896D-21 -0.31437514D-05 -0.82709435D-05  0.45150292D-04
 -0.36879349D-04 -0.20806748D-19  0.55290604D-04 -0.12401077D-20  0.16366771D-04
 -0.97230032D-04  0.80863261D-04  0.11559224D-18 -0.12464004D-03 -0.34387534D-19
 -0.37670898D-05  0.24396007D-04 -0.20628917D-04  0.28062959D-20  0.32585804D-04
  0.17499658D-20  0.93564108D-05  0.40915009D-20  0.30287672D-04 -0.30315197D-04
 -0.13777482D-19 -0.72415236D-04  0.22459647D-05  0.15029794D-20 -0.18447778D-04
  0.48385196D-20 -0.57306523D-05  0.14754379D-21 -0.20156683D-04  0.18102689D-04
 -0.59101261D-23  0.49454667D-04 -0.91073221D-06 -0.43672123D-21  0.11015382D-04
  0.35859168D-20 -0.15677890D-04 -0.29308904D-04 -0.50654937D-04 -0.81932088D-04
 -0.12383555D-03 -0.17054188D-03 -0.19932391D-03 -0.17223090D-03 -0.80329105D-04
 -0.10906957D-04 -0.29206144D-07 -0.57290381D-07 -0.26155452D-08  0.28397230D-04
  0.53033037D-04  0.91994008D-04  0.14916510D-03  0.22965666D-03  0.32708267D-03
  0.42058585D-03  0.44148999D-03  0.31216471D-03 -0.69130181D-05 -0.22429438D-03
 -0.12350257D-03  0.52229028D-06 -0.14178808D-04 -0.26459754D-04 -0.45957425D-04
 -0.74440833D-04 -0.11498930D-03 -0.16393453D-03 -0.21322527D-03 -0.22724066D-03
 -0.16853967D-03  0.52460141D-05  0.15268816D-03  0.14958170D-03 -0.69863525D-04
  0.44342486D-04  0.38483027D-03  0.12255125D-03  0.83502420D-04  0.10955063D-03
  0.12016034D-03  0.98869833D-04  0.52126131D-04  0.13560756D-04 -0.15006359D-07
  0.13873319D-18  0.18201038D-18  0.19963765D-18  0.16426502D-18  0.86603768D-19
  0.22530207D-19 -0.24931971D-22 -0.13899526D-02 -0.18235422D-02 -0.20001478D-02
 -0.16457533D-02 -0.86767370D-03 -0.22572769D-03  0.24979070D-06 -0.63446846D-04
 -0.83306094D-04 -0.93724973D-04 -0.78970376D-04 -0.44174921D-04 -0.10995048D-04
  0.50428588D-05 -0.12055365D-18 -0.15828767D-18 -0.17808430D-18 -0.15004949D-18
 -0.83935581D-19 -0.20891395D-19  0.95818005D-20  0.12781844D-02  0.16782638D-02
  0.18881600D-02  0.15909175D-02  0.88993697D-03  0.22150350D-03 -0.10159218D-03
 -0.81130387D-05 -0.12811500D-19 -0.62721853D-06 -0.58940113D-05 -0.50093293D-20
 -0.14042861D-03 -0.40131505D-06 -0.22079658D-22 -0.58892016D-05 -0.74648397D-05
 -0.13631073D-05  0.88279470D-05 -0.34013368D-22 -0.28594762D-05 -0.10020335D-19
 -0.46948176D-05 -0.11347094D-04  0.16041912D-04  0.10185599D-20  0.18322728D-04
  0.19575466D-19 -0.28809144D-05 -0.47800783D-05  0.76609927D-05 -0.61887013D-21
  0.12360781D-05  0.22270875D-20  0.55004883D-05 -0.17099301D-21  0.11114599D-04
  0.10414071D-05 -0.18283137D-20 -0.12944211D-04 -0.17542872D-04  0.23412927D-20
 -0.20399585D-04 -0.45214055D-20 -0.16897806D-06 -0.83925627D-21  0.50528279D-05
 -0.45711179D-06 -0.38493945D-21 -0.66059308D-05  0.96404598D-06  0.29027082D-20
 -0.85525530D-05  0.13020551D-20 -0.15678441D-04 -0.29309934D-04 -0.50656717D-04
 -0.81934966D-04 -0.12383990D-03 -0.17054787D-03 -0.19933092D-03 -0.17223695D-03
 -0.80331927D-04 -0.10907340D-04 -0.29207170D-07 -0.57292393D-07 -0.26156371D-08
  0.28398128D-04  0.53034714D-04  0.91996918D-04  0.14916982D-03  0.22966392D-03
  0.32709301D-03  0.42059915D-03  0.44150395D-03  0.31217458D-03 -0.69132368D-05
 -0.22430147D-03 -0.12350648D-03  0.52230680D-06 -0.14179358D-04 -0.26460779D-04
 -0.45959206D-04 -0.74443716D-04 -0.11499375D-03 -0.16394088D-03 -0.21323353D-03
 -0.22724946D-03 -0.16854620D-03  0.52462173D-05  0.15269408D-03  0.14958749D-03
 -0.69866231D-04  0.44340251D-04  0.38483076D-03  0.12255192D-03 -0.11961308D-02
 -0.15692585D-02 -0.17212374D-02 -0.14162614D-02 -0.74668101D-03 -0.19425111D-03
  0.21495865D-06  0.16648331D-18  0.21841704D-18  0.23957020D-18  0.19712216D-18
  0.10392670D-18  0.27036815D-19 -0.29918992D-22  0.71297148D-03  0.93537975D-03
  0.10259690D-02  0.84418357D-03  0.44507027D-03  0.11578625D-03 -0.12812929D-06
  0.11060770D-02  0.14522859D-02  0.16339195D-02  0.13767008D-02  0.77010710D-03
  0.19167809D-03 -0.87912807D-04 -0.15660734D-18 -0.20562639D-18 -0.23134355D-18
 -0.19492443D-18 -0.10903800D-18 -0.27139335D-19  0.12447407D-19 -0.64379020D-03
 -0.84530045D-03 -0.95102000D-03 -0.80130626D-03 -0.44823949D-03 -0.11156590D-03
  0.51169495D-04 -0.42818648D-05 -0.19028727D-19 -0.69196018D-05 -0.12743060D-03
 -0.26748969D-20  0.59303918D-04 -0.54149171D-05 -0.96178878D-22  0.23501516D-05
  0.42209144D-05 -0.13642560D-05 -0.28566584D-05 -0.15327667D-19 -0.14955313D-04
  0.73116859D-20  0.19140797D-04 -0.11347003D-04 -0.77937936D-05  0.25280549D-19
 -0.63442934D-05 -0.99843688D-20  0.59391402D-05 -0.47802564D-05 -0.11588838D-05
  0.11354271D-20 -0.78921883D-05 -0.11725663D-20 -0.46748070D-06 -0.82878816D-21
  0.41757741D-05 -0.17638175D-04  0.19613929D-20 -0.22826910D-04  0.19040617D-04
  0.52497152D-21  0.10299588D-04 -0.85028258D-20  0.26336634D-05 -0.12819969D-20
  0.19665799D-05 -0.78055130D-05  0.41300609D-20 -0.94240050D-05 -0.95477289D-07
 -0.28407033D-21  0.35242653D-05 -0.39833222D-20
MO    2     MO 0.0        OCC NO =    2.0000000  ORB. ENERGY =  -90.061917
 -0.83590259D-05 -0.15626713D-04 -0.27007839D-04 -0.43683968D-04 -0.66025760D-04
 -0.90928305D-04 -0.10627411D-03 -0.91828847D-04 -0.42829301D-04 -0.58152938D-05
 -0.15571924D-07 -0.30545678D-07 -0.13945378D-08  0.13207264D-04  0.24665128D-04
  0.42785481D-04  0.69375178D-04  0.10681098D-03  0.15212283D-03  0.19561022D-03
  0.20533252D-03  0.14518464D-03 -0.32151747D-05 -0.10431704D-03 -0.57439794D-04
  0.24291192D-06 -0.63554423D-05 -0.11860196D-04 -0.20599740D-04 -0.33367008D-04
 -0.51542263D-04 -0.73481240D-04 -0.95575090D-04 -0.10185728D-03 -0.75545429D-04
  0.23514487D-05  0.68440223D-04  0.67047797D-04 -0.31315297D-04  0.27176031D-04
  0.22300339D-03  0.79234476D-04  0.64595470D-03  0.84745739D-03  0.92953158D-03
  0.76483332D-03  0.40323525D-03  0.10490275D-03 -0.11608559D-06  0.74538030D-15
  0.97789836D-15  0.10726054D-14  0.88255676D-15  0.46530138D-15  0.12104943D-15
 -0.13395353D-18 -0.56603309D-03 -0.74260459D-03 -0.81452405D-03 -0.67020330D-03
 -0.35334443D-03 -0.91923521D-04  0.10172275D-06 -0.61924262D-03 -0.81306933D-03
 -0.91475782D-03 -0.77075263D-03 -0.43114821D-03 -0.10731191D-03  0.49218414D-04
  0.19824277D-15  0.26029396D-15  0.29284826D-15  0.24674680D-15  0.13802670D-15
  0.34354565D-16 -0.15756659D-16  0.54088947D-03  0.71019117D-03  0.79901295D-03
  0.67322882D-03  0.37659476D-03  0.93733670D-04 -0.42990778D-04  0.23159397D-04
 -0.71250053D-17 -0.17826072D-04  0.24734940D-03  0.18365869D-19 -0.31136376D-03
  0.69118154D-05  0.28912562D-20 -0.65633923D-05  0.17739882D-04  0.30346749D-05
 -0.20774557D-04 -0.12275831D-19 -0.32553544D-05  0.19673106D-19 -0.13204615D-05
 -0.10738424D-04  0.12058885D-04  0.18837403D-19 -0.29564106D-04 -0.58605693D-19
  0.21364139D-04 -0.20739074D-05 -0.19290232D-04 -0.16254705D-20 -0.19357209D-04
  0.76361072D-20 -0.18106748D-05  0.77952335D-20  0.57526633D-05  0.21201059D-04
  0.11704378D-19  0.83305393D-05 -0.15769035D-04 -0.35090078D-19 -0.25588529D-04
 -0.12030232D-19 -0.72415665D-05 -0.27514347D-20 -0.56297387D-05 -0.10579632D-06
 -0.12236905D-19  0.11507688D-04  0.21830496D-04  0.20491210D-19  0.53815280D-05
  0.66548785D-20 -0.22858347D+00 -0.42732351D+00 -0.73854845D+00 -0.11945690D+01
 -0.18055211D+01 -0.24864988D+01 -0.29061406D+01 -0.25111247D+01 -0.11711975D+01
 -0.15902332D+00 -0.42582527D-03 -0.83529314D-03 -0.38134621D-04  0.23954586D-03
  0.44736209D-03  0.77601877D-03  0.12582876D-02  0.19372770D-02  0.27591176D-02
  0.35478671D-02  0.37242047D-02  0.26332766D-02 -0.58315014D-04 -0.18920433D-02
 -0.10418104D-02  0.44057985D-05 -0.10362843D-03 -0.19338598D-03 -0.33588830D-03
 -0.54406452D-03 -0.84042046D-03 -0.11981456D-02 -0.15583961D-02 -0.16608302D-02
 -0.12318032D-02  0.38341459D-04  0.11159495D-02  0.10932454D-02 -0.51061042D-03
  0.66559983D-03  0.48879320D-03  0.93283363D-04 -0.74497804D-03 -0.97737062D-03
 -0.10720266D-02 -0.88208047D-03 -0.46505027D-03 -0.12098410D-03  0.13388124D-06
 -0.32659511D-17 -0.42847500D-17 -0.46997176D-17 -0.38670022D-17 -0.20387600D-17
 -0.53038900D-18  0.58692950D-21  0.35913694D-03  0.47116811D-03  0.51679960D-03
  0.42523090D-03  0.22419014D-03  0.58323678D-04 -0.64541096D-07  0.61197214D-03
  0.80352315D-03  0.90401772D-03  0.76170328D-03  0.42608614D-03  0.10605197D-03
 -0.48640544D-04  0.15840324D-17  0.20798441D-17  0.23399649D-17  0.19715973D-17
  0.11028839D-17  0.27450556D-18 -0.12590148D-18 -0.11668813D-03 -0.15321222D-03
 -0.17237408D-03 -0.14523820D-03 -0.81244210D-04 -0.20221519D-04  0.92745627D-05
  0.56791630D-04  0.27555075D-18 -0.22403050D-04 -0.11718146D-04 -0.54189522D-20
 -0.18955765D-03 -0.32560507D-06 -0.18822574D-20 -0.34900893D-05 -0.16107593D-04
 -0.15332158D-04  0.31439751D-04 -0.31847512D-20  0.42025427D-04  0.45908855D-19
  0.20800278D-04  0.23068806D-04 -0.43869084D-04 -0.12265339D-20 -0.32792793D-04
  0.17637267D-18 -0.87942963D-05 -0.77426969D-05  0.16536993D-04  0.80761778D-21
  0.28730278D-05  0.22777608D-20 -0.32557377D-06 -0.65889386D-20  0.32324692D-05
  0.12951225D-04 -0.26021670D-19 -0.14695715D-05 -0.11974504D-04  0.45788486D-19
 -0.82278361D-05  0.42687925D-20  0.27334683D-05 -0.15874111D-21 -0.49709975D-05
 -0.23825242D-05  0.46509823D-20  0.72780004D-05 -0.58178807D-05 -0.41747589D-20
  0.76349920D-05  0.70696503D-22  0.53829053D+00  0.10063029D+01  0.17392055D+01
  0.28130869D+01  0.42518161D+01  0.58554485D+01  0.68436617D+01  0.59134401D+01
  0.27580495D+01  0.37448354D+00  0.10027747D-02  0.19670293D-02  0.89803105D-04
 -0.53083484D-03 -0.99135667D-03 -0.17196615D-02 -0.27883717D-02 -0.42930157D-02
 -0.61142187D-02 -0.78620915D-02 -0.82528565D-02 -0.58353544D-02  0.12922637D-03
  0.41927776D-02  0.23086571D-02 -0.97632718D-05  0.22682439D-03  0.42328786D-03
  0.73520035D-03  0.11908614D-02  0.18395324D-02  0.26225298D-02  0.34110547D-02
  0.36352648D-02  0.26962003D-02 -0.83922704D-04 -0.24426170D-02 -0.23929216D-02
  0.11176363D-02 -0.15310698D-02 -0.78423551D-03 -0.17725219D-03 -0.16440176D-02
 -0.21568616D-02 -0.23657484D-02 -0.19465753D-02 -0.10262730D-02 -0.26698773D-03
  0.29544914D-06  0.73049827D-18  0.95837395D-18  0.10511902D-17  0.86493592D-18
  0.45601132D-18  0.11863259D-18 -0.13127906D-21  0.14117425D-02  0.18521293D-02
  0.20315036D-02  0.16715533D-02  0.88127598D-03  0.22926636D-03 -0.25370660D-06
  0.10766216D-02  0.14136108D-02  0.15904074D-02  0.13400385D-02  0.74959874D-03
  0.18657360D-03 -0.85571643D-04 -0.29884095D-18 -0.39237999D-18 -0.44145395D-18
 -0.37195833D-18 -0.20806827D-18 -0.51787769D-19  0.23752366D-19 -0.10020641D-02
 -0.13157163D-02 -0.14802695D-02 -0.12472390D-02 -0.69768800D-03 -0.17365312D-03
  0.79645689D-04  0.64925107D-04 -0.97096736D-19 -0.72527755D-04  0.28969657D-03
 -0.27917356D-20 -0.14695997D-03  0.72997403D-05 -0.15637726D-20 -0.40401454D-05
 -0.47975286D-04  0.31524561D-04  0.16450725D-04 -0.65323175D-20  0.48604435D-04
  0.83658292D-21  0.86303150D-04 -0.63550403D-04 -0.22752747D-04  0.91289890D-19
 -0.12579090D-03 -0.37272482D-19 -0.22061320D-04  0.15336611D-04  0.67247093D-05
  0.17004543D-20  0.38937890D-04  0.75159485D-21 -0.83935364D-05  0.27924757D-20
 -0.87464396D-05  0.26200545D-04 -0.18084941D-19  0.44724117D-04 -0.10199362D-05
  0.97075137D-20 -0.18484798D-04 -0.23489848D-19  0.72896852D-05  0.20641824D-20
  0.48164711D-05 -0.19397200D-04 -0.56306051D-20 -0.25046166D-04 -0.24718552D-05
 -0.56194216D-21  0.10596753D-04 -0.39315988D-20
MO    3     MO 0.0        OCC NO =    2.0000000  ORB. ENERGY =  -90.061916
 -0.20696581D-04 -0.38691055D-04 -0.66870224D-04 -0.10815959D-03 -0.16347688D-03
 -0.22513449D-03 -0.26313002D-03 -0.22736419D-03 -0.10604347D-03 -0.14398412D-04
 -0.38555400D-07 -0.75629757D-07 -0.34528143D-08  0.32699920D-04  0.61068494D-04
  0.10593275D-03  0.17176629D-03  0.26445376D-03  0.37664156D-03  0.48431215D-03
  0.50838364D-03  0.35946326D-03 -0.79604644D-05 -0.25827900D-03 -0.14221543D-03
  0.60142663D-06 -0.15735235D-04 -0.29364277D-04 -0.51002234D-04 -0.82612302D-04
 -0.12761183D-03 -0.18192984D-03 -0.23663129D-03 -0.25218517D-03 -0.18704050D-03
  0.58218761D-05  0.16944895D-03  0.16600148D-03 -0.77532537D-04  0.67292987D-04
  0.55216454D-03  0.19618569D-03  0.37281557D-03  0.48911372D-03  0.53648320D-03
  0.44142688D-03  0.23272898D-03  0.60545081D-04 -0.66999305D-07 -0.33007792D-15
 -0.43304425D-15 -0.47498354D-15 -0.39082399D-15 -0.20605013D-15 -0.53604506D-16
  0.59318851D-19  0.61417097D-03  0.80575886D-03  0.88379466D-03  0.72720025D-03
  0.38339435D-03  0.99741090D-04 -0.11037368D-06 -0.35962262D-03 -0.47218669D-03
 -0.53124187D-03 -0.44761144D-03 -0.25038756D-03 -0.62320955D-04  0.28583393D-04
 -0.87971064D-16 -0.11550654D-15 -0.12995265D-15 -0.10949493D-15 -0.61249930D-16
 -0.15244983D-16  0.69920837D-17 -0.58942842D-03 -0.77392311D-03 -0.87071568D-03
 -0.73364379D-03 -0.41039005D-03 -0.10214525D-03  0.46848733D-04  0.16526569D-04
  0.18065327D-17  0.22950594D-04  0.21763528D-04 -0.40938115D-20  0.19977830D-03
  0.33413738D-05 -0.79250876D-21  0.63824939D-05 -0.17336801D-05  0.75163110D-05
 -0.57826309D-05  0.11453485D-20  0.39194222D-04 -0.32400509D-19 -0.54491748D-05
 -0.26589413D-04  0.32038588D-04  0.11840181D-20 -0.70947436D-04  0.48019486D-19
 -0.46546815D-05 -0.51347079D-05  0.97893893D-05  0.14607231D-20  0.11633608D-04
  0.88583534D-21 -0.23074392D-05 -0.21094964D-20 -0.52793767D-05  0.32720802D-05
 -0.53523563D-20 -0.16985230D-05  0.36502374D-05  0.11680846D-19  0.17536653D-04
 -0.71567065D-20  0.30954961D-06  0.39505487D-20 -0.12461992D-04  0.67029890D-05
  0.73871538D-20  0.35506383D-04 -0.76316379D-05 -0.19238800D-19  0.18795923D-05
  0.41685693D-20  0.53828221D+00  0.10062873D+01  0.17391787D+01  0.28130434D+01
  0.42517504D+01  0.58553580D+01  0.68435560D+01  0.59133487D+01  0.27580069D+01
  0.37447775D+00  0.10027592D-02  0.19669989D-02  0.89801717D-04 -0.51619053D-03
 -0.96400779D-03 -0.16722207D-02 -0.27114480D-02 -0.41745829D-02 -0.59455437D-02
 -0.76451975D-02 -0.80251823D-02 -0.56743726D-02  0.12566136D-03  0.40771100D-02
  0.22449674D-02 -0.94939293D-05  0.21924999D-03  0.40915292D-03  0.71064964D-03
  0.11510947D-02  0.17781045D-02  0.25349551D-02  0.32971486D-02  0.35138716D-02
  0.26061655D-02 -0.81120255D-04 -0.23610502D-02 -0.23130143D-02  0.10803148D-02
 -0.15150583D-02 -0.62283096D-03 -0.15858526D-03 -0.54362124D-04 -0.71320147D-04
 -0.78227330D-04 -0.64366687D-04 -0.33935390D-04 -0.88283847D-05  0.97695077D-08
  0.58246793D-17  0.76416621D-17  0.83817386D-17  0.68966273D-17  0.36360383D-17
  0.94592531D-18 -0.10467628D-20 -0.26647546D-02 -0.34960129D-02 -0.38345933D-02
 -0.31551641D-02 -0.16634649D-02 -0.43275495D-03  0.47888748D-06  0.64998592D-04
  0.85343547D-04  0.96017245D-04  0.80901789D-04  0.45255326D-04  0.11263959D-04
 -0.51661942D-05 -0.25529768D-17 -0.33520740D-17 -0.37713093D-17 -0.31776132D-17
 -0.17775123D-17 -0.44241919D-18  0.20291476D-18  0.19191889D-02  0.25199068D-02
  0.28350650D-02  0.23887566D-02  0.13362370D-02  0.33258666D-03 -0.15254027D-03
  0.90518106D-05 -0.53262761D-18  0.10782197D-03 -0.83741150D-05 -0.21244527D-19
  0.27134166D-03 -0.67351553D-06  0.18631722D-20  0.83930709D-05  0.15971353D-04
  0.29507707D-04 -0.45479060D-04 -0.83146507D-21  0.82343197D-05 -0.45814029D-19
 -0.51977405D-04 -0.67608865D-04  0.11958627D-03  0.16559964D-19 -0.10402560D-04
 -0.76651637D-19  0.14702267D-04  0.14061907D-04 -0.28764174D-04 -0.62329454D-21
  0.15237441D-05  0.26747963D-20  0.12144608D-05 -0.55910960D-20 -0.27517673D-04
  0.71173419D-05  0.63118362D-20  0.45336503D-04 -0.10760724D-04  0.10461452D-19
  0.37216515D-04 -0.49372278D-20  0.65419646D-06  0.13618234D-22  0.13936241D-04
 -0.17528834D-05 -0.19685161D-20 -0.17900050D-04 -0.20970601D-06  0.19276614D-20
 -0.23908672D-04  0.24822530D-20  0.22856388D+00  0.42728688D+00  0.73848514D+00
  0.11944666D+01  0.18053663D+01  0.24862856D+01  0.29058915D+01  0.25109095D+01
  0.11710971D+01  0.15900969D+00  0.42578877D-03  0.83522155D-03  0.38131352D-04
 -0.20505459D-03 -0.38294818D-03 -0.66428287D-03 -0.10771117D-02 -0.16583361D-02
 -0.23618431D-02 -0.30370236D-02 -0.31879710D-02 -0.22541214D-02  0.49918463D-04
  0.16196154D-02  0.89180419D-03 -0.37714248D-05  0.85788986D-04  0.16009494D-03
  0.27806575D-03  0.45040482D-03  0.69574363D-03  0.99188708D-03  0.12901211D-02
  0.13749213D-02  0.10197505D-02 -0.31741048D-04 -0.92384087D-03 -0.90504519D-03
  0.42270978D-03 -0.62788420D-03 -0.10869424D-03 -0.49323618D-04 -0.17370837D-02
 -0.22789593D-02 -0.24996710D-02 -0.20567689D-02 -0.10843692D-02 -0.28210162D-03
  0.31217421D-06  0.28879943D-18  0.37888912D-18  0.41558362D-18  0.34194879D-18
  0.18028216D-18  0.46900898D-19 -0.51900625D-22  0.27230563D-03  0.35725016D-03
  0.39184897D-03  0.32241955D-03  0.16998596D-03  0.44222313D-04 -0.48936498D-07
  0.13712501D-02  0.18004598D-02  0.20256386D-02  0.17067537D-02  0.95473408D-03
  0.23763137D-03 -0.10898920D-03 -0.96794648D-19 -0.12709196D-18 -0.14298703D-18
 -0.12047738D-18 -0.67393358D-19 -0.16774069D-19  0.76933965D-20 -0.17838491D-03
 -0.23422048D-03 -0.26351383D-03 -0.22203032D-03 -0.12420065D-03 -0.30913289D-04
  0.14178324D-04  0.76202055D-04 -0.70675306D-19  0.12309115D-04  0.49972870D-04
 -0.14914864D-20 -0.41805869D-04  0.28842137D-05  0.69002208D-21 -0.22926817D-05
  0.58056334D-05  0.10583950D-04 -0.16389584D-04 -0.42825770D-20  0.29418302D-04
 -0.24691898D-20  0.26641858D-04 -0.32625457D-04  0.59835984D-05  0.64048364D-20
 -0.81585696D-04  0.10287247D-19 -0.50601731D-05  0.47407942D-05  0.31937883D-06
 -0.12808569D-20  0.12955842D-04 -0.10570314D-20 -0.12128910D-04  0.83423926D-21
 -0.12309709D-04  0.25194546D-04  0.19326261D-20  0.34073186D-04  0.11192184D-04
 -0.44353439D-20  0.28559404D-05 -0.34008129D-20  0.18490567D-05 -0.18144116D-20
  0.30718959D-05 -0.11909395D-04  0.52369797D-20 -0.12095260D-04  0.63622249D-05
  0.20625528D-21  0.28795722D-05  0.58407368D-20
MO    4     MO 0.0        OCC NO =    2.0000000  ORB. ENERGY =   -8.475762
 -0.16187603D-02 -0.30261784D-02 -0.52301811D-02 -0.84595832D-02 -0.12786165D-01
 -0.17608647D-01 -0.20580426D-01 -0.17783041D-01 -0.82940735D-02 -0.11261560D-02
 -0.30155683D-05 -0.59152984D-05 -0.27005808D-06 -0.15895460D+00 -0.29685448D+00
 -0.51494003D+00 -0.83495746D+00 -0.12855121D+01 -0.18308579D+01 -0.23542456D+01
 -0.24712574D+01 -0.17473541D+01  0.38695888D-01  0.12554965D+01  0.69131044D+00
 -0.29235401D-02 -0.70391377D-03 -0.13136072D-02 -0.22815785D-02 -0.36956510D-02
 -0.57086992D-02 -0.81386085D-02 -0.10585671D-01 -0.11281472D-01 -0.83672332D-02
  0.26044090D-03  0.75802774D-02  0.74260555D-02 -0.34684083D-02  0.49076557D-01