 Molden2AIM, Version 4.0.0 (06/02/2016)           Time: Tue Jul  3 03:36:01 2018
GAUSSIAN             52 MOL ORBITALS    789 PRIMITIVES        3 NUCLEI
  Se   1    (CENTRE  1)   0.00000000  0.00000000  1.30671727  CHARGE = 34.0
  Br   2    (CENTRE  2)   0.00000000  3.42606779 -1.42918664  CHARGE = 35.0
  Br   3    (CENTRE  3)   0.00000000 -3.42606779 -1.42918664  CHARGE = 35.0
CENTRE ASSIGNMENTS    1  1  1  1  1  1  1  1  1  1  1  1  1  1  1  1  1  1  1  1
CENTRE ASSIGNMENTS    1  1  1  1  1  1  1  1  1  1  1  1  1  1  1  1  1  1  1  1
CENTRE ASSIGNMENTS    1  1  1  1  1  1  1  1  1  1  1  1  1  1  1  1  1  1  1  1
CENTRE ASSIGNMENTS    1  1  1  1  1  1  1  1  1  1  1  1  1  1  1  1  1  1  1  1
CENTRE ASSIGNMENTS    1  1  1  1  1  1  1  1  1  1  1  1  1  1  1  1  1  1  1  1
CENTRE ASSIGNMENTS    1  1  1  1  1  1  1  1  1  1  1  1  1  1  1  1  1  1  1  1
CENTRE ASSIGNMENTS    1  1  1  1  1  1  1  1  1  1  1  1  1  1  1  1  1  1  1  1
CENTRE ASSIGNMENTS    1  1  1  1  1  1  1  1  1  1  1  1  1  1  1  1  1  1  1  1
CENTRE ASSIGNMENTS    1  1  1  1  1  1  1  1  1  1  1  1  1  1  1  1  1  1  1  1
CENTRE ASSIGNMENTS    1  1  1  1  1  1  1  1  1  1  1  1  1  1  1  1  1  1  1  1
CENTRE ASSIGNMENTS    1  1  1  1  1  1  1  1  1  1  1  1  1  1  1  1  1  1  1  1
CENTRE ASSIGNMENTS    1  1  1  1  1  1  1  1  1  1  1  1  1  1  1  1  1  1  1  1
CENTRE ASSIGNMENTS    1  1  1  1  1  1  1  1  1  1  1  1  1  1  1  1  1  1  1  1
CENTRE ASSIGNMENTS    1  1  1  2  2  2  2  2  2  2  2  2  2  2  2  2  2  2  2  2
CENTRE ASSIGNMENTS    2  2  2  2  2  2  2  2  2  2  2  2  2  2  2  2  2  2  2  2
CENTRE ASSIGNMENTS    2  2  2  2  2  2  2  2  2  2  2  2  2  2  2  2  2  2  2  2
CENTRE ASSIGNMENTS    2  2  2  2  2  2  2  2  2  2  2  2  2  2  2  2  2  2  2  2
CENTRE ASSIGNMENTS    2  2  2  2  2  2  2  2  2  2  2  2  2  2  2  2  2  2  2  2
CENTRE ASSIGNMENTS    2  2  2  2  2  2  2  2  2  2  2  2  2  2  2  2  2  2  2  2
CENTRE ASSIGNMENTS    2  2  2  2  2  2  2  2  2  2  2  2  2  2  2  2  2  2  2  2
CENTRE ASSIGNMENTS    2  2  2  2  2  2  2  2  2  2  2  2  2  2  2  2  2  2  2  2
CENTRE ASSIGNMENTS    2  2  2  2  2  2  2  2  2  2  2  2  2  2  2  2  2  2  2  2
CENTRE ASSIGNMENTS    2  2  2  2  2  2  2  2  2  2  2  2  2  2  2  2  2  2  2  2
CENTRE ASSIGNMENTS    2  2  2  2  2  2  2  2  2  2  2  2  2  2  2  2  2  2  2  2
CENTRE ASSIGNMENTS    2  2  2  2  2  2  2  2  2  2  2  2  2  2  2  2  2  2  2  2
CENTRE ASSIGNMENTS    2  2  2  2  2  2  2  2  2  2  2  2  2  2  2  2  2  2  2  2
CENTRE ASSIGNMENTS    2  2  2  2  2  2  3  3  3  3  3  3  3  3  3  3  3  3  3  3
CENTRE ASSIGNMENTS    3  3  3  3  3  3  3  3  3  3  3  3  3  3  3  3  3  3  3  3
CENTRE ASSIGNMENTS    3  3  3  3  3  3  3  3  3  3  3  3  3  3  3  3  3  3  3  3
CENTRE ASSIGNMENTS    3  3  3  3  3  3  3  3  3  3  3  3  3  3  3  3  3  3  3  3
CENTRE ASSIGNMENTS    3  3  3  3  3  3  3  3  3  3  3  3  3  3  3  3  3  3  3  3
CENTRE ASSIGNMENTS    3  3  3  3  3  3  3  3  3  3  3  3  3  3  3  3  3  3  3  3
CENTRE ASSIGNMENTS    3  3  3  3  3  3  3  3  3  3  3  3  3  3  3  3  3  3  3  3
CENTRE ASSIGNMENTS    3  3  3  3  3  3  3  3  3  3  3  3  3  3  3  3  3  3  3  3
CENTRE ASSIGNMENTS    3  3  3  3  3  3  3  3  3  3  3  3  3  3  3  3  3  3  3  3
CENTRE ASSIGNMENTS    3  3  3  3  3  3  3  3  3  3  3  3  3  3  3  3  3  3  3  3
CENTRE ASSIGNMENTS    3  3  3  3  3  3  3  3  3  3  3  3  3  3  3  3  3  3  3  3
CENTRE ASSIGNMENTS    3  3  3  3  3  3  3  3  3  3  3  3  3  3  3  3  3  3  3  3
CENTRE ASSIGNMENTS    3  3  3  3  3  3  3  3  3  3  3  3  3  3  3  3  3  3  3  3
CENTRE ASSIGNMENTS    3  3  3  3  3  3  3  3  3
TYPE ASSIGNMENTS      1  1  1  1  1  1  1  1  1  1  1  1  1  1  1  1  1  1  1  1
TYPE ASSIGNMENTS      1  1  1  1  1  1  1  1  1  1  1  1  1  1  1  1  1  1  1  1
TYPE ASSIGNMENTS      1  1  1  1  1  1  1  1  1  1  1  1  1  1  1  1  1  1  1  1
TYPE ASSIGNMENTS      1  1  1  1  1  1  1  1  1  1  1  1  1  1  1  2  2  2  2  2
TYPE ASSIGNMENTS      2  2  2  2  2  2  3  3  3  3  3  3  3  3  3  3  3  4  4  4
TYPE ASSIGNMENTS      4  4  4  4  4  4  4  4  2  2  2  2  2  2  2  2  2  2  2  3
TYPE ASSIGNMENTS      3  3  3  3  3  3  3  3  3  3  4  4  4  4  4  4  4  4  4  4
TYPE ASSIGNMENTS      4  2  2  2  2  2  2  2  2  2  2  2  3  3  3  3  3  3  3  3
TYPE ASSIGNMENTS      3  3  3  4  4  4  4  4  4  4  4  4  4  4  2  3  4  2  3  4
TYPE ASSIGNMENTS      2  3  4  5  5  5  5  5  5  5  6  6  6  6  6  6  6  7  7  7
TYPE ASSIGNMENTS      7  7  7  7  8  8  8  8  8  8  8  9  9  9  9  9  9  9 10 10
TYPE ASSIGNMENTS     10 10 10 10 10  5  6  7  8  9 10  5  6  7  8  9 10  5  6  7
TYPE ASSIGNMENTS      8  9 10 11 12 13 17 14 15 18 19 16 20 11 12 13 17 14 15 18
TYPE ASSIGNMENTS     19 16 20  1  1  1  1  1  1  1  1  1  1  1  1  1  1  1  1  1
TYPE ASSIGNMENTS      1  1  1  1  1  1  1  1  1  1  1  1  1  1  1  1  1  1  1  1
TYPE ASSIGNMENTS      1  1  1  1  1  1  1  1  1  1  1  1  1  1  1  1  1  1  1  1
TYPE ASSIGNMENTS      1  1  1  1  1  1  1  1  1  1  1  1  1  1  1  1  1  1  2  2
TYPE ASSIGNMENTS      2  2  2  2  2  2  2  2  2  3  3  3  3  3  3  3  3  3  3  3
TYPE ASSIGNMENTS      4  4  4  4  4  4  4  4  4  4  4  2  2  2  2  2  2  2  2  2
TYPE ASSIGNMENTS      2  2  3  3  3  3  3  3  3  3  3  3  3  4  4  4  4  4  4  4
TYPE ASSIGNMENTS      4  4  4  4  2  2  2  2  2  2  2  2  2  2  2  3  3  3  3  3
TYPE ASSIGNMENTS      3  3  3  3  3  3  4  4  4  4  4  4  4  4  4  4  4  2  3  4
TYPE ASSIGNMENTS      2  3  4  2  3  4  5  5  5  5  5  5  5  6  6  6  6  6  6  6
TYPE ASSIGNMENTS      7  7  7  7  7  7  7  8  8  8  8  8  8  8  9  9  9  9  9  9
TYPE ASSIGNMENTS      9 10 10 10 10 10 10 10  5  6  7  8  9 10  5  6  7  8  9 10
TYPE ASSIGNMENTS      5  6  7  8  9 10 11 12 13 17 14 15 18 19 16 20 11 12 13 17
TYPE ASSIGNMENTS     14 15 18 19 16 20  1  1  1  1  1  1  1  1  1  1  1  1  1  1
TYPE ASSIGNMENTS      1  1  1  1  1  1  1  1  1  1  1  1  1  1  1  1  1  1  1  1
TYPE ASSIGNMENTS      1  1  1  1  1  1  1  1  1  1  1  1  1  1  1  1  1  1  1  1
TYPE ASSIGNMENTS      1  1  1  1  1  1  1  1  1  1  1  1  1  1  1  1  1  1  1  1
TYPE ASSIGNMENTS      1  2  2  2  2  2  2  2  2  2  2  2  3  3  3  3  3  3  3  3
TYPE ASSIGNMENTS      3  3  3  4  4  4  4  4  4  4  4  4  4  4  2  2  2  2  2  2
TYPE ASSIGNMENTS      2  2  2  2  2  3  3  3  3  3  3  3  3  3  3  3  4  4  4  4
TYPE ASSIGNMENTS      4  4  4  4  4  4  4  2  2  2  2  2  2  2  2  2  2  2  3  3
TYPE ASSIGNMENTS      3  3  3  3  3  3  3  3  3  4  4  4  4  4  4  4  4  4  4  4
TYPE ASSIGNMENTS      2  3  4  2  3  4  2  3  4  5  5  5  5  5  5  5  6  6  6  6
TYPE ASSIGNMENTS      6  6  6  7  7  7  7  7  7  7  8  8  8  8  8  8  8  9  9  9
TYPE ASSIGNMENTS      9  9  9  9 10 10 10 10 10 10 10  5  6  7  8  9 10  5  6  7
TYPE ASSIGNMENTS      8  9 10  5  6  7  8  9 10 11 12 13 17 14 15 18 19 16 20 11
TYPE ASSIGNMENTS     12 13 17 14 15 18 19 16 20
EXPONENTS  0.9563600D+07 0.1432100D+07 0.3259100D+06 0.9231200D+05 0.3011600D+05
EXPONENTS  0.1087200D+05 0.4240100D+04 0.1758400D+04 0.7665900D+03 0.3484300D+03
EXPONENTS  0.1640300D+03 0.7914200D+02 0.3552400D+02 0.1730500D+02 0.8378400D+01
EXPONENTS  0.3740500D+01 0.1689000D+01 0.2552000D+00 0.9563600D+07 0.1432100D+07
EXPONENTS  0.3259100D+06 0.9231200D+05 0.3011600D+05 0.1087200D+05 0.4240100D+04
EXPONENTS  0.1758400D+04 0.7665900D+03 0.3484300D+03 0.1640300D+03 0.7914200D+02
EXPONENTS  0.3552400D+02 0.1730500D+02 0.8378400D+01 0.3740500D+01 0.1689000D+01
EXPONENTS  0.2552000D+00 0.9563600D+07 0.1432100D+07 0.3259100D+06 0.9231200D+05
EXPONENTS  0.3011600D+05 0.1087200D+05 0.4240100D+04 0.1758400D+04 0.7665900D+03
EXPONENTS  0.3484300D+03 0.1640300D+03 0.7914200D+02 0.3552400D+02 0.1730500D+02
EXPONENTS  0.8378400D+01 0.3740500D+01 0.1689000D+01 0.2552000D+00 0.9563600D+07
EXPONENTS  0.1432100D+07 0.3259100D+06 0.9231200D+05 0.3011600D+05 0.1087200D+05
EXPONENTS  0.4240100D+04 0.1758400D+04 0.7665900D+03 0.3484300D+03 0.1640300D+03
EXPONENTS  0.7914200D+02 0.3552400D+02 0.1730500D+02 0.8378400D+01 0.3740500D+01
EXPONENTS  0.1689000D+01 0.2552000D+00 0.5092700D+00 0.1065100D+00 0.3920100D-01
EXPONENTS  0.8004300D+04 0.1896900D+04 0.6147100D+03 0.2335000D+03 0.9785600D+02
EXPONENTS  0.4351400D+02 0.2006300D+02 0.9112700D+01 0.4106300D+01 0.1794900D+01
EXPONENTS  0.2461500D+00 0.8004300D+04 0.1896900D+04 0.6147100D+03 0.2335000D+03
EXPONENTS  0.9785600D+02 0.4351400D+02 0.2006300D+02 0.9112700D+01 0.4106300D+01
EXPONENTS  0.1794900D+01 0.2461500D+00 0.8004300D+04 0.1896900D+04 0.6147100D+03
EXPONENTS  0.2335000D+03 0.9785600D+02 0.4351400D+02 0.2006300D+02 0.9112700D+01
EXPONENTS  0.4106300D+01 0.1794900D+01 0.2461500D+00 0.8004300D+04 0.1896900D+04
EXPONENTS  0.6147100D+03 0.2335000D+03 0.9785600D+02 0.4351400D+02 0.2006300D+02
EXPONENTS  0.9112700D+01 0.4106300D+01 0.1794900D+01 0.2461500D+00 0.8004300D+04
EXPONENTS  0.1896900D+04 0.6147100D+03 0.2335000D+03 0.9785600D+02 0.4351400D+02
EXPONENTS  0.2006300D+02 0.9112700D+01 0.4106300D+01 0.1794900D+01 0.2461500D+00
EXPONENTS  0.8004300D+04 0.1896900D+04 0.6147100D+03 0.2335000D+03 0.9785600D+02
EXPONENTS  0.4351400D+02 0.2006300D+02 0.9112700D+01 0.4106300D+01 0.1794900D+01
EXPONENTS  0.2461500D+00 0.8004300D+04 0.1896900D+04 0.6147100D+03 0.2335000D+03
EXPONENTS  0.9785600D+02 0.4351400D+02 0.2006300D+02 0.9112700D+01 0.4106300D+01
EXPONENTS  0.1794900D+01 0.2461500D+00 0.8004300D+04 0.1896900D+04 0.6147100D+03
EXPONENTS  0.2335000D+03 0.9785600D+02 0.4351400D+02 0.2006300D+02 0.9112700D+01
EXPONENTS  0.4106300D+01 0.1794900D+01 0.2461500D+00 0.8004300D+04 0.1896900D+04
EXPONENTS  0.6147100D+03 0.2335000D+03 0.9785600D+02 0.4351400D+02 0.2006300D+02
EXPONENTS  0.9112700D+01 0.4106300D+01 0.1794900D+01 0.2461500D+00 0.6243200D+00
EXPONENTS  0.6243200D+00 0.6243200D+00 0.8891700D-01 0.8891700D-01 0.8891700D-01
EXPONENTS  0.3025100D-01 0.3025100D-01 0.3025100D-01 0.3618500D+03 0.1085500D+03
EXPONENTS  0.4143300D+02 0.1757900D+02 0.7862700D+01 0.3518000D+01 0.1534800D+01
EXPONENTS  0.3618500D+03 0.1085500D+03 0.4143300D+02 0.1757900D+02 0.7862700D+01
EXPONENTS  0.3518000D+01 0.1534800D+01 0.3618500D+03 0.1085500D+03 0.4143300D+02
EXPONENTS  0.1757900D+02 0.7862700D+01 0.3518000D+01 0.1534800D+01 0.3618500D+03
EXPONENTS  0.1085500D+03 0.4143300D+02 0.1757900D+02 0.7862700D+01 0.3518000D+01
EXPONENTS  0.1534800D+01 0.3618500D+03 0.1085500D+03 0.4143300D+02 0.1757900D+02
EXPONENTS  0.7862700D+01 0.3518000D+01 0.1534800D+01 0.3618500D+03 0.1085500D+03
EXPONENTS  0.4143300D+02 0.1757900D+02 0.7862700D+01 0.3518000D+01 0.1534800D+01
EXPONENTS  0.6081300D+00 0.6081300D+00 0.6081300D+00 0.6081300D+00 0.6081300D+00
EXPONENTS  0.6081300D+00 0.2220000D+00 0.2220000D+00 0.2220000D+00 0.2220000D+00
EXPONENTS  0.2220000D+00 0.2220000D+00 0.8370000D-01 0.8370000D-01 0.8370000D-01
EXPONENTS  0.8370000D-01 0.8370000D-01 0.8370000D-01 0.4620000D+00 0.4620000D+00
EXPONENTS  0.4620000D+00 0.4620000D+00 0.4620000D+00 0.4620000D+00 0.4620000D+00
EXPONENTS  0.4620000D+00 0.4620000D+00 0.4620000D+00 0.1880000D+00 0.1880000D+00
EXPONENTS  0.1880000D+00 0.1880000D+00 0.1880000D+00 0.1880000D+00 0.1880000D+00
EXPONENTS  0.1880000D+00 0.1880000D+00 0.1880000D+00 0.1063900D+08 0.1593400D+07
EXPONENTS  0.3626100D+06 0.1027000D+06 0.3350100D+05 0.1209300D+05 0.4715900D+04
EXPONENTS  0.1955600D+04 0.8526100D+03 0.3876700D+03 0.1826800D+03 0.8824500D+02
EXPONENTS  0.3926300D+02 0.1923400D+02 0.9405700D+01 0.4160100D+01 0.1899500D+01
EXPONENTS  0.3011400D+00 0.1063900D+08 0.1593400D+07 0.3626100D+06 0.1027000D+06
EXPONENTS  0.3350100D+05 0.1209300D+05 0.4715900D+04 0.1955600D+04 0.8526100D+03
EXPONENTS  0.3876700D+03 0.1826800D+03 0.8824500D+02 0.3926300D+02 0.1923400D+02
EXPONENTS  0.9405700D+01 0.4160100D+01 0.1899500D+01 0.3011400D+00 0.1063900D+08
EXPONENTS  0.1593400D+07 0.3626100D+06 0.1027000D+06 0.3350100D+05 0.1209300D+05
EXPONENTS  0.4715900D+04 0.1955600D+04 0.8526100D+03 0.3876700D+03 0.1826800D+03
EXPONENTS  0.8824500D+02 0.3926300D+02 0.1923400D+02 0.9405700D+01 0.4160100D+01
EXPONENTS  0.1899500D+01 0.3011400D+00 0.1063900D+08 0.1593400D+07 0.3626100D+06
EXPONENTS  0.1027000D+06 0.3350100D+05 0.1209300D+05 0.4715900D+04 0.1955600D+04
EXPONENTS  0.8526100D+03 0.3876700D+03 0.1826800D+03 0.8824500D+02 0.3926300D+02
EXPONENTS  0.1923400D+02 0.9405700D+01 0.4160100D+01 0.1899500D+01 0.3011400D+00
EXPONENTS  0.6047200D+00 0.1251500D+00 0.4559300D-01 0.8676500D+04 0.2055900D+04
EXPONENTS  0.6662300D+03 0.2531000D+03 0.1061200D+03 0.4724200D+02 0.2182500D+02
EXPONENTS  0.9968400D+01 0.4517100D+01 0.1998200D+01 0.2814500D+00 0.8676500D+04
EXPONENTS  0.2055900D+04 0.6662300D+03 0.2531000D+03 0.1061200D+03 0.4724200D+02
EXPONENTS  0.2182500D+02 0.9968400D+01 0.4517100D+01 0.1998200D+01 0.2814500D+00
EXPONENTS  0.8676500D+04 0.2055900D+04 0.6662300D+03 0.2531000D+03 0.1061200D+03
EXPONENTS  0.4724200D+02 0.2182500D+02 0.9968400D+01 0.4517100D+01 0.1998200D+01
EXPONENTS  0.2814500D+00 0.8676500D+04 0.2055900D+04 0.6662300D+03 0.2531000D+03
EXPONENTS  0.1061200D+03 0.4724200D+02 0.2182500D+02 0.9968400D+01 0.4517100D+01
EXPONENTS  0.1998200D+01 0.2814500D+00 0.8676500D+04 0.2055900D+04 0.6662300D+03
EXPONENTS  0.2531000D+03 0.1061200D+03 0.4724200D+02 0.2182500D+02 0.9968400D+01
EXPONENTS  0.4517100D+01 0.1998200D+01 0.2814500D+00 0.8676500D+04 0.2055900D+04
EXPONENTS  0.6662300D+03 0.2531000D+03 0.1061200D+03 0.4724200D+02 0.2182500D+02
EXPONENTS  0.9968400D+01 0.4517100D+01 0.1998200D+01 0.2814500D+00 0.8676500D+04
EXPONENTS  0.2055900D+04 0.6662300D+03 0.2531000D+03 0.1061200D+03 0.4724200D+02
EXPONENTS  0.2182500D+02 0.9968400D+01 0.4517100D+01 0.1998200D+01 0.2814500D+00
EXPONENTS  0.8676500D+04 0.2055900D+04 0.6662300D+03 0.2531000D+03 0.1061200D+03
EXPONENTS  0.4724200D+02 0.2182500D+02 0.9968400D+01 0.4517100D+01 0.1998200D+01
EXPONENTS  0.2814500D+00 0.8676500D+04 0.2055900D+04 0.6662300D+03 0.2531000D+03
EXPONENTS  0.1061200D+03 0.4724200D+02 0.2182500D+02 0.9968400D+01 0.4517100D+01
EXPONENTS  0.1998200D+01 0.2814500D+00 0.7098800D+00 0.7098800D+00 0.7098800D+00
EXPONENTS  0.1020400D+00 0.1020400D+00 0.1020400D+00 0.3514200D-01 0.3514200D-01
EXPONENTS  0.3514200D-01 0.4038300D+03 0.1211700D+03 0.4634500D+02 0.1972100D+02
EXPONENTS  0.8862400D+01 0.3996200D+01 0.1763600D+01 0.4038300D+03 0.1211700D+03
EXPONENTS  0.4634500D+02 0.1972100D+02 0.8862400D+01 0.3996200D+01 0.1763600D+01
EXPONENTS  0.4038300D+03 0.1211700D+03 0.4634500D+02 0.1972100D+02 0.8862400D+01
EXPONENTS  0.3996200D+01 0.1763600D+01 0.4038300D+03 0.1211700D+03 0.4634500D+02
EXPONENTS  0.1972100D+02 0.8862400D+01 0.3996200D+01 0.1763600D+01 0.4038300D+03
EXPONENTS  0.1211700D+03 0.4634500D+02 0.1972100D+02 0.8862400D+01 0.3996200D+01
EXPONENTS  0.1763600D+01 0.4038300D+03 0.1211700D+03 0.4634500D+02 0.1972100D+02
EXPONENTS  0.8862400D+01 0.3996200D+01 0.1763600D+01 0.7061900D+00 0.7061900D+00
EXPONENTS  0.7061900D+00 0.7061900D+00 0.7061900D+00 0.7061900D+00 0.2639000D+00
EXPONENTS  0.2639000D+00 0.2639000D+00 0.2639000D+00 0.2639000D+00 0.2639000D+00
EXPONENTS  0.1047000D+00 0.1047000D+00 0.1047000D+00 0.1047000D+00 0.1047000D+00
EXPONENTS  0.1047000D+00 0.5515000D+00 0.5515000D+00 0.5515000D+00 0.5515000D+00
EXPONENTS  0.5515000D+00 0.5515000D+00 0.5515000D+00 0.5515000D+00 0.5515000D+00
EXPONENTS  0.5515000D+00 0.2580000D+00 0.2580000D+00 0.2580000D+00 0.2580000D+00
EXPONENTS  0.2580000D+00 0.2580000D+00 0.2580000D+00 0.2580000D+00 0.2580000D+00
EXPONENTS  0.2580000D+00 0.1063900D+08 0.1593400D+07 0.3626100D+06 0.1027000D+06
EXPONENTS  0.3350100D+05 0.1209300D+05 0.4715900D+04 0.1955600D+04 0.8526100D+03
EXPONENTS  0.3876700D+03 0.1826800D+03 0.8824500D+02 0.3926300D+02 0.1923400D+02
EXPONENTS  0.9405700D+01 0.4160100D+01 0.1899500D+01 0.3011400D+00 0.1063900D+08
EXPONENTS  0.1593400D+07 0.3626100D+06 0.1027000D+06 0.3350100D+05 0.1209300D+05
EXPONENTS  0.4715900D+04 0.1955600D+04 0.8526100D+03 0.3876700D+03 0.1826800D+03
EXPONENTS  0.8824500D+02 0.3926300D+02 0.1923400D+02 0.9405700D+01 0.4160100D+01
EXPONENTS  0.1899500D+01 0.3011400D+00 0.1063900D+08 0.1593400D+07 0.3626100D+06
EXPONENTS  0.1027000D+06 0.3350100D+05 0.1209300D+05 0.4715900D+04 0.1955600D+04
EXPONENTS  0.8526100D+03 0.3876700D+03 0.1826800D+03 0.8824500D+02 0.3926300D+02
EXPONENTS  0.1923400D+02 0.9405700D+01 0.4160100D+01 0.1899500D+01 0.3011400D+00
EXPONENTS  0.1063900D+08 0.1593400D+07 0.3626100D+06 0.1027000D+06 0.3350100D+05
EXPONENTS  0.1209300D+05 0.4715900D+04 0.1955600D+04 0.8526100D+03 0.3876700D+03
EXPONENTS  0.1826800D+03 0.8824500D+02 0.3926300D+02 0.1923400D+02 0.9405700D+01
EXPONENTS  0.4160100D+01 0.1899500D+01 0.3011400D+00 0.6047200D+00 0.1251500D+00
EXPONENTS  0.4559300D-01 0.8676500D+04 0.2055900D+04 0.6662300D+03 0.2531000D+03
EXPONENTS  0.1061200D+03 0.4724200D+02 0.2182500D+02 0.9968400D+01 0.4517100D+01
EXPONENTS  0.1998200D+01 0.2814500D+00 0.8676500D+04 0.2055900D+04 0.6662300D+03
EXPONENTS  0.2531000D+03 0.1061200D+03 0.4724200D+02 0.2182500D+02 0.9968400D+01
EXPONENTS  0.4517100D+01 0.1998200D+01 0.2814500D+00 0.8676500D+04 0.2055900D+04
EXPONENTS  0.6662300D+03 0.2531000D+03 0.1061200D+03 0.4724200D+02 0.2182500D+02
EXPONENTS  0.9968400D+01 0.4517100D+01 0.1998200D+01 0.2814500D+00 0.8676500D+04
EXPONENTS  0.2055900D+04 0.6662300D+03 0.2531000D+03 0.1061200D+03 0.4724200D+02
EXPONENTS  0.2182500D+02 0.9968400D+01 0.4517100D+01 0.1998200D+01 0.2814500D+00
EXPONENTS  0.8676500D+04 0.2055900D+04 0.6662300D+03 0.2531000D+03 0.1061200D+03
EXPONENTS  0.4724200D+02 0.2182500D+02 0.9968400D+01 0.4517100D+01 0.1998200D+01
EXPONENTS  0.2814500D+00 0.8676500D+04 0.2055900D+04 0.6662300D+03 0.2531000D+03
EXPONENTS  0.1061200D+03 0.4724200D+02 0.2182500D+02 0.9968400D+01 0.4517100D+01
EXPONENTS  0.1998200D+01 0.2814500D+00 0.8676500D+04 0.2055900D+04 0.6662300D+03
EXPONENTS  0.2531000D+03 0.1061200D+03 0.4724200D+02 0.2182500D+02 0.9968400D+01
EXPONENTS  0.4517100D+01 0.1998200D+01 0.2814500D+00 0.8676500D+04 0.2055900D+04
EXPONENTS  0.6662300D+03 0.2531000D+03 0.1061200D+03 0.4724200D+02 0.2182500D+02
EXPONENTS  0.9968400D+01 0.4517100D+01 0.1998200D+01 0.2814500D+00 0.8676500D+04
EXPONENTS  0.2055900D+04 0.6662300D+03 0.2531000D+03 0.1061200D+03 0.4724200D+02
EXPONENTS  0.2182500D+02 0.9968400D+01 0.4517100D+01 0.1998200D+01 0.2814500D+00
EXPONENTS  0.7098800D+00 0.7098800D+00 0.7098800D+00 0.1020400D+00 0.1020400D+00
EXPONENTS  0.1020400D+00 0.3514200D-01 0.3514200D-01 0.3514200D-01 0.4038300D+03
EXPONENTS  0.1211700D+03 0.4634500D+02 0.1972100D+02 0.8862400D+01 0.3996200D+01
EXPONENTS  0.1763600D+01 0.4038300D+03 0.1211700D+03 0.4634500D+02 0.1972100D+02
EXPONENTS  0.8862400D+01 0.3996200D+01 0.1763600D+01 0.4038300D+03 0.1211700D+03
EXPONENTS  0.4634500D+02 0.1972100D+02 0.8862400D+01 0.3996200D+01 0.1763600D+01
EXPONENTS  0.4038300D+03 0.1211700D+03 0.4634500D+02 0.1972100D+02 0.8862400D+01
EXPONENTS  0.3996200D+01 0.1763600D+01 0.4038300D+03 0.1211700D+03 0.4634500D+02
EXPONENTS  0.1972100D+02 0.8862400D+01 0.3996200D+01 0.1763600D+01 0.4038300D+03
EXPONENTS  0.1211700D+03 0.4634500D+02 0.1972100D+02 0.8862400D+01 0.3996200D+01
EXPONENTS  0.1763600D+01 0.7061900D+00 0.7061900D+00 0.7061900D+00 0.7061900D+00
EXPONENTS  0.7061900D+00 0.7061900D+00 0.2639000D+00 0.2639000D+00 0.2639000D+00
EXPONENTS  0.2639000D+00 0.2639000D+00 0.2639000D+00 0.1047000D+00 0.1047000D+00
EXPONENTS  0.1047000D+00 0.1047000D+00 0.1047000D+00 0.1047000D+00 0.5515000D+00
EXPONENTS  0.5515000D+00 0.5515000D+00 0.5515000D+00 0.5515000D+00 0.5515000D+00
EXPONENTS  0.5515000D+00 0.5515000D+00 0.5515000D+00 0.5515000D+00 0.2580000D+00
EXPONENTS  0.2580000D+00 0.2580000D+00 0.2580000D+00 0.2580000D+00 0.2580000D+00
EXPONENTS  0.2580000D+00 0.2580000D+00 0.2580000D+00 0.2580000D+00
MO    1     MO 0.0        OCC NO =    2.0000000  ORB. ENERGY = -485.547491
  0.61583332D-09  0.11506558D-08  0.19956684D-08  0.32694147D-08  0.51196438D-08
  0.76883397D-08  0.10965774D-07  0.14488009D-07  0.16708235D-07  0.15037948D-07
  0.84366626D-08  0.20396083D-08  0.96830493D-10 -0.16570608D-11  0.46605979D-12
 -0.18162276D-12  0.17179439D-13  0.16939289D-14 -0.13065987D-08 -0.24061217D-08
 -0.41764229D-08 -0.68401983D-08 -0.10766157D-07 -0.16250089D-07 -0.23687896D-07
 -0.32528458D-07 -0.41310727D-07 -0.44489033D-07 -0.35492514D-07 -0.79500401D-08
  0.21258229D-07  0.18904399D-07  0.36921057D-08  0.10227893D-09  0.74066920D-11
  0.15126491D-12  0.18964640D-08  0.34238901D-08  0.59603407D-08  0.97603094D-08
  0.15387684D-07  0.23219591D-07  0.33983600D-07  0.46824935D-07  0.60323062D-07
  0.66396723D-07  0.55895274D-07  0.13310665D-07 -0.44835437D-07 -0.59909543D-07
 -0.73600098D-08  0.25716874D-07  0.11352327D-07 -0.56339557D-10 -0.83269684D-09
 -0.18040284D-08 -0.30711221D-08 -0.50131563D-08 -0.79034560D-08 -0.11926759D-07
 -0.17455824D-07 -0.24079215D-07 -0.31059670D-07 -0.34336963D-07 -0.29080862D-07
 -0.70639345D-08  0.24507691D-07  0.34589795D-07  0.41270389D-08 -0.19396134D-07
 -0.15504403D-07  0.58738011D-08 -0.10847191D-09 -0.13095114D-07 -0.30789080D-08
 -0.31373736D-15 -0.44965839D-15 -0.59379116D-15 -0.68253300D-15 -0.62788769D-15
 -0.40167696D-15 -0.13903598D-15 -0.15630968D-16 -0.19886402D-18 -0.34459697D-19
 -0.35214061D-21 -0.60450681D-04 -0.86639845D-04 -0.11441124D-03 -0.13150995D-03
 -0.12098094D-03 -0.77394819D-04 -0.26789349D-04 -0.30117634D-05 -0.38316971D-07
 -0.66396689D-08 -0.67850191D-10  0.22883301D-07  0.32797077D-07  0.43309799D-07
  0.49782430D-07  0.45796724D-07  0.29297419D-07  0.10140973D-07  0.11400879D-08
  0.14504696D-10  0.25134132D-11  0.25684348D-13 -0.82181441D-15 -0.11854025D-14
 -0.15788028D-14 -0.18684551D-14 -0.17955151D-14 -0.12341544D-14 -0.38856704D-15
  0.18779094D-15  0.19271896D-15  0.48533787D-16 -0.52915517D-19  0.25771505D-03
  0.37173365D-03  0.49510113D-03  0.58593397D-03  0.56306054D-03  0.38702188D-03
  0.12185181D-03 -0.58889879D-04 -0.60435271D-04 -0.15219844D-04  0.16593923D-07
 -0.96346119D-07 -0.13897169D-06 -0.18509230D-06 -0.21904993D-06 -0.21049876D-06
 -0.14468715D-06 -0.45553990D-07  0.22015832D-07  0.22593573D-07  0.56899002D-08
 -0.62035961D-11 -0.18369391D-14 -0.26629867D-14 -0.35344488D-14 -0.42180265D-14
 -0.40525222D-14 -0.28365495D-14 -0.85647091D-15  0.52428797D-15  0.56386235D-15
  0.15164103D-15 -0.56526829D-16 -0.19179682D-03 -0.27804536D-03 -0.36903567D-03
 -0.44040877D-03 -0.42312828D-03 -0.29616724D-03 -0.89425066D-04  0.54741481D-04
  0.58873485D-04  0.15833006D-04 -0.59020282D-05  0.70177897D-07  0.10173598D-06
  0.13502908D-06  0.16114428D-06  0.15482140D-06  0.10836673D-06  0.32720371D-07
 -0.20029748D-07 -0.21541636D-07 -0.57932506D-08  0.21595349D-08  0.94751407D-20
  0.33847561D-05 -0.15347471D-08 -0.21090987D-19 -0.15815174D-04  0.35696475D-08
  0.21382296D-21 -0.45096913D-06  0.12641489D-09  0.40720595D-08  0.42149707D-08
  0.35265279D-08  0.22756119D-08  0.10222360D-08  0.29847636D-09  0.50354791D-10
 -0.20144075D-08 -0.20851043D-08 -0.17445385D-08 -0.11257227D-08 -0.50569003D-09
 -0.14765330D-09 -0.24910017D-10 -0.20576519D-08 -0.21298664D-08 -0.17819894D-08
 -0.11498892D-08 -0.51654595D-09 -0.15082306D-09 -0.25444774D-10 -0.93791594D-18
 -0.97083262D-18 -0.81226385D-18 -0.52414084D-18 -0.23545123D-18 -0.68747949D-19
 -0.11598200D-19  0.17752005D-17  0.18375022D-17  0.15373779D-17  0.99204528D-18
  0.44564030D-18  0.13011976D-18  0.21952000D-19  0.42014390D-04  0.43488908D-04
  0.36385745D-04  0.23479138D-04  0.10547150D-04  0.30795970D-05  0.51954689D-06
 -0.23567038D-09  0.10535239D-09  0.13031799D-09 -0.18653844D-20  0.39996501D-19
 -0.23378406D-05  0.76332634D-09 -0.59578108D-09 -0.16754526D-09  0.33485629D-20
 -0.15748633D-20  0.66104107D-05  0.23783790D-09 -0.99694634D-10 -0.13814327D-09
  0.21134794D-20  0.57276804D-20  0.27829380D-05  0.52112431D-20  0.40929009D-06
 -0.15697547D-09 -0.27481637D-19 -0.80954140D-06  0.24414742D-10  0.11847908D-19
 -0.41832886D-06  0.44651165D-09  0.19210091D-20  0.16078751D-20 -0.19682860D-06
  0.21311216D-10 -0.20004658D-20  0.73986068D-06 -0.14314933D-09 -0.28231596D-20
 -0.14937488D-06  0.79215683D-10 -0.36049200D-20  0.55409162D+00  0.10423138D+01
  0.18042966D+01  0.29575874D+01  0.46331179D+01  0.69639708D+01  0.99532636D+01
  0.13213205D+02  0.15388572D+02  0.14134254D+02  0.82648543D+01  0.21687391D+01
  0.11856412D+00 -0.42436410D-02  0.11859638D-02 -0.35215266D-03  0.60035931D-04
  0.48981062D-05  0.34671232D-04  0.63701797D-04  0.11015509D-03  0.18039435D-03
  0.28402280D-03  0.42890226D-03  0.62606631D-03  0.86213134D-03  0.11015730D-02
  0.12008437D-02  0.98847927D-03  0.27103430D-03 -0.54669377D-03 -0.53277695D-03
 -0.11658661D-03 -0.39276954D-05 -0.13305777D-06  0.33848181D-09 -0.22302701D-04
 -0.43722228D-04 -0.76578399D-04 -0.12510419D-03 -0.19731943D-03 -0.29774622D-03
 -0.43655511D-03 -0.60273655D-03 -0.78145092D-03 -0.86901941D-03 -0.75479686D-03
 -0.21925499D-03  0.55273916D-03  0.80537991D-03  0.13864903D-03 -0.33824427D-03
 -0.16099574D-03  0.77749762D-06  0.78906486D-05  0.17097130D-04  0.29105153D-04
  0.47507447D-04  0.74890829D-04  0.11303189D-03  0.16572317D-03  0.22910052D-03
  0.29734949D-03  0.33219138D-03  0.29017669D-03  0.85950618D-04 -0.22342223D-03
 -0.34369892D-03 -0.60157805D-04  0.18976447D-03  0.16108134D-03 -0.60098007D-04
  0.49175769D-04  0.34140932D-04  0.71510379D-05  0.34388131D-16  0.49340880D-16
  0.65329948D-16  0.75437580D-16  0.69934107D-16  0.45276616D-16  0.15980983D-16
  0.18731090D-17  0.27231538D-19  0.39877556D-20  0.41000320D-22 -0.79578756D-04
 -0.11418143D-03 -0.15118228D-03 -0.17457270D-03 -0.16183692D-03 -0.10477617D-03
 -0.36982141D-04 -0.43346258D-05 -0.63017437D-07 -0.92282021D-08 -0.94880249D-10
  0.77492495D-04  0.11118801D-03  0.14721884D-03  0.16999605D-03  0.15759415D-03
  0.10202933D-03  0.36012606D-04  0.42209880D-05  0.61365353D-07  0.89862728D-08
  0.92392840D-10  0.81565744D-17  0.11774109D-16  0.15729928D-16  0.18687637D-16
  0.18109753D-16  0.12588588D-16  0.40962059D-17 -0.18436177D-17 -0.19917222D-17
 -0.51276278D-18  0.50015275D-21 -0.16591250D-03 -0.23949660D-03 -0.31996173D-03
 -0.38012435D-03 -0.36836963D-03 -0.25606388D-03 -0.83320731D-04  0.37500941D-04
  0.40513528D-04  0.10430084D-04 -0.10173584D-07  0.75050326D-04  0.10833601D-03
  0.14473432D-03  0.17194881D-03  0.16663158D-03  0.11583020D-03  0.37690036D-04
 -0.16963507D-04 -0.18326247D-04 -0.47180363D-05  0.46020088D-08 -0.20164949D-17
 -0.29300565D-17 -0.38955441D-17 -0.46743832D-17 -0.45224864D-17 -0.32104388D-17
 -0.99781244D-18  0.57288096D-18  0.65811305D-18  0.17476770D-18 -0.63056733D-19
  0.10582582D-03  0.15376961D-03  0.20443848D-03  0.24531202D-03  0.23734047D-03
  0.16848410D-03  0.52365281D-04 -0.30064841D-04 -0.34537828D-04 -0.91718238D-05
  0.33092226D-05 -0.45106136D-04 -0.65541216D-04 -0.87137807D-04 -0.10455934D-03
 -0.10116162D-03 -0.71812972D-04 -0.22319652D-04  0.12814536D-04  0.14721057D-04
  0.39093062D-05 -0.14104899D-05  0.18262287D-18 -0.20741471D-05  0.26723414D-06
  0.16141367D-19 -0.97525106D-05  0.79738631D-05 -0.27541184D-21 -0.28684943D-06
  0.23936506D-06 -0.49611113D-04 -0.51912684D-04 -0.44232385D-04 -0.29130370D-04
 -0.13425320D-04 -0.40202338D-05 -0.68400870D-06  0.36802575D-04  0.38509929D-04
  0.32812521D-04  0.21609526D-04  0.99591870D-05  0.29822947D-05  0.50741215D-06
  0.12808538D-04  0.13402755D-04  0.11419864D-04  0.75208440D-05  0.34661331D-05
  0.10379392D-05  0.17659655D-06  0.79741336D-17  0.83440717D-17  0.71095957D-17
  0.46822062D-17  0.21578894D-17  0.64618349D-18  0.10994264D-18 -0.92073382D-17
 -0.96344873D-17 -0.82090989D-17 -0.54063122D-17 -0.24916083D-17 -0.74611615D-18
 -0.12694534D-18 -0.10448902D-03 -0.10933650D-03 -0.93160550D-04 -0.61353265D-04
 -0.28275893D-04 -0.84672620D-05 -0.14406328D-05  0.23393452D-05 -0.15663750D-05
 -0.77297016D-06 -0.69898659D-19  0.83258817D-19  0.51205910D-05 -0.12344233D-05
  0.69452478D-06  0.53989852D-06  0.12430886D-19 -0.18373918D-19 -0.31713397D-05
 -0.72404795D-06  0.58366761D-06  0.14038034D-06 -0.37152609D-20  0.32691119D-20
 -0.21649817D-05  0.45230828D-20  0.38351926D-06  0.30706688D-06 -0.15606848D-19
 -0.26586304D-05  0.10959207D-05  0.20375992D-20  0.15080726D-05 -0.20171213D-05
  0.21104316D-19  0.51020295D-21 -0.12015856D-06 -0.23825508D-06 -0.14407022D-20
  0.15085020D-05 -0.88252419D-06 -0.89906697D-22 -0.11480263D-05  0.15972894D-05
 -0.58487217D-21 -0.55367062D+00 -0.10415219D+01 -0.18029257D+01 -0.29553402D+01
 -0.46295977D+01 -0.69586796D+01 -0.99457011D+01 -0.13203165D+02 -0.15376879D+02
 -0.14123515D+02 -0.82585747D+01 -0.21670913D+01 -0.11847404D+00  0.42404167D-02
 -0.11850627D-02  0.35188509D-03 -0.59990316D-04 -0.48943846D-05 -0.34646152D-04
 -0.63655717D-04 -0.11007540D-03 -0.18026386D-03 -0.28381735D-03 -0.42859200D-03
 -0.62561344D-03 -0.86150770D-03 -0.11007762D-02 -0.11999750D-02 -0.98776423D-03
 -0.27083825D-03  0.54629830D-03  0.53239156D-03  0.11650227D-03  0.39248543D-05
  0.13296152D-06 -0.33823696D-09  0.22287362D-04  0.43692158D-04  0.76525732D-04
  0.12501814D-03  0.19718373D-03  0.29754144D-03  0.43625487D-03  0.60232201D-03
  0.78091347D-03  0.86842173D-03  0.75427774D-03  0.21910419D-03 -0.55235901D-03
 -0.80482600D-03 -0.13855367D-03  0.33801164D-03  0.16088502D-03 -0.77696288D-06
 -0.78853914D-05 -0.17085739D-04 -0.29085761D-04 -0.47475794D-04 -0.74840932D-04
 -0.11295658D-03 -0.16561276D-03 -0.22894788D-03 -0.29715138D-03 -0.33197005D-03
 -0.28998336D-03 -0.85893353D-04  0.22327338D-03  0.34346992D-03  0.60117725D-04
 -0.18963804D-03 -0.16097402D-03  0.60057967D-04 -0.49141031D-04 -0.34120986D-04
 -0.71469845D-05  0.37004696D-17  0.53095187D-17  0.70300850D-17  0.81177564D-17
  0.75255336D-17  0.48721677D-17  0.17196963D-17  0.20156323D-18  0.29303563D-20
  0.42911806D-21  0.44120001D-23 -0.79497583D-04 -0.11406496D-03 -0.15102807D-03
 -0.17439463D-03 -0.16167184D-03 -0.10466930D-03 -0.36944418D-04 -0.43302043D-05
 -0.62953157D-07 -0.92187890D-08 -0.94783468D-10 -0.77432107D-04 -0.11110136D-03
 -0.14710411D-03 -0.16986357D-03 -0.15747135D-03 -0.10194982D-03 -0.35984542D-04
 -0.42176986D-05 -0.61317532D-07 -0.89792700D-08 -0.92320841D-10  0.34060971D-17