 Molden2AIM, Version 4.0.0 (06/02/2016)           Time: Tue Jul  3 01:46:17 2018
GAUSSIAN             41 MOL ORBITALS    655 PRIMITIVES        5 NUCLEI
  Si   1    (CENTRE  1)   0.00000000  0.00000000  0.00000000  CHARGE = 14.0
  Cl   2    (CENTRE  2)   2.23759069  2.23759069  2.23759069  CHARGE = 17.0
  Cl   3    (CENTRE  3)  -2.23759069 -2.23759069  2.23759069  CHARGE = 17.0
  Cl   4    (CENTRE  4)  -2.23759069  2.23759069 -2.23759069  CHARGE = 17.0
  Cl   5    (CENTRE  5)   2.23759069 -2.23759069 -2.23759069  CHARGE = 17.0
CENTRE ASSIGNMENTS    1  1  1  1  1  1  1  1  1  1  1  1  1  1  1  1  1  1  1  1
CENTRE ASSIGNMENTS    1  1  1  1  1  1  1  1  1  1  1  1  1  1  1  1  1  1  1  1
CENTRE ASSIGNMENTS    1  1  1  1  1  1  1  1  1  1  1  1  1  1  1  1  1  1  1  1
CENTRE ASSIGNMENTS    1  1  1  1  1  1  1  1  1  1  1  1  1  1  1  1  1  1  1  1
CENTRE ASSIGNMENTS    1  1  1  1  1  1  1  1  1  1  1  1  1  1  1  1  1  1  1  1
CENTRE ASSIGNMENTS    1  1  1  1  1  1  1  1  1  1  1  1  1  1  1  1  1  1  1  1
CENTRE ASSIGNMENTS    1  1  1  1  1  1  1  1  1  1  1  2  2  2  2  2  2  2  2  2
CENTRE ASSIGNMENTS    2  2  2  2  2  2  2  2  2  2  2  2  2  2  2  2  2  2  2  2
CENTRE ASSIGNMENTS    2  2  2  2  2  2  2  2  2  2  2  2  2  2  2  2  2  2  2  2
CENTRE ASSIGNMENTS    2  2  2  2  2  2  2  2  2  2  2  2  2  2  2  2  2  2  2  2
CENTRE ASSIGNMENTS    2  2  2  2  2  2  2  2  2  2  2  2  2  2  2  2  2  2  2  2
CENTRE ASSIGNMENTS    2  2  2  2  2  2  2  2  2  2  2  2  2  2  2  2  2  2  2  2
CENTRE ASSIGNMENTS    2  2  2  2  2  2  2  2  2  2  2  2  2  2  2  2  2  2  2  2
CENTRE ASSIGNMENTS    2  2  3  3  3  3  3  3  3  3  3  3  3  3  3  3  3  3  3  3
CENTRE ASSIGNMENTS    3  3  3  3  3  3  3  3  3  3  3  3  3  3  3  3  3  3  3  3
CENTRE ASSIGNMENTS    3  3  3  3  3  3  3  3  3  3  3  3  3  3  3  3  3  3  3  3
CENTRE ASSIGNMENTS    3  3  3  3  3  3  3  3  3  3  3  3  3  3  3  3  3  3  3  3
CENTRE ASSIGNMENTS    3  3  3  3  3  3  3  3  3  3  3  3  3  3  3  3  3  3  3  3
CENTRE ASSIGNMENTS    3  3  3  3  3  3  3  3  3  3  3  3  3  3  3  3  3  3  3  3
CENTRE ASSIGNMENTS    3  3  3  3  3  3  3  3  3  3  3  3  3  4  4  4  4  4  4  4
CENTRE ASSIGNMENTS    4  4  4  4  4  4  4  4  4  4  4  4  4  4  4  4  4  4  4  4
CENTRE ASSIGNMENTS    4  4  4  4  4  4  4  4  4  4  4  4  4  4  4  4  4  4  4  4
CENTRE ASSIGNMENTS    4  4  4  4  4  4  4  4  4  4  4  4  4  4  4  4  4  4  4  4
CENTRE ASSIGNMENTS    4  4  4  4  4  4  4  4  4  4  4  4  4  4  4  4  4  4  4  4
CENTRE ASSIGNMENTS    4  4  4  4  4  4  4  4  4  4  4  4  4  4  4  4  4  4  4  4
CENTRE ASSIGNMENTS    4  4  4  4  4  4  4  4  4  4  4  4  4  4  4  4  4  4  4  4
CENTRE ASSIGNMENTS    4  4  4  4  5  5  5  5  5  5  5  5  5  5  5  5  5  5  5  5
CENTRE ASSIGNMENTS    5  5  5  5  5  5  5  5  5  5  5  5  5  5  5  5  5  5  5  5
CENTRE ASSIGNMENTS    5  5  5  5  5  5  5  5  5  5  5  5  5  5  5  5  5  5  5  5
CENTRE ASSIGNMENTS    5  5  5  5  5  5  5  5  5  5  5  5  5  5  5  5  5  5  5  5
CENTRE ASSIGNMENTS    5  5  5  5  5  5  5  5  5  5  5  5  5  5  5  5  5  5  5  5
CENTRE ASSIGNMENTS    5  5  5  5  5  5  5  5  5  5  5  5  5  5  5  5  5  5  5  5
CENTRE ASSIGNMENTS    5  5  5  5  5  5  5  5  5  5  5  5  5  5  5
TYPE ASSIGNMENTS      1  1  1  1  1  1  1  1  1  1  1  1  1  1  1  1  1  1  1  1
TYPE ASSIGNMENTS      1  1  1  1  1  1  1  1  1  1  1  1  1  1  1  1  1  1  1  1
TYPE ASSIGNMENTS      1  1  2  2  2  2  2  2  2  3  3  3  3  3  3  3  4  4  4  4
TYPE ASSIGNMENTS      4  4  4  2  2  2  2  2  2  2  3  3  3  3  3  3  3  4  4  4
TYPE ASSIGNMENTS      4  4  4  4  2  3  4  2  3  4  2  3  4  5  6  7  8  9 10  5
TYPE ASSIGNMENTS      6  7  8  9 10  5  6  7  8  9 10 11 12 13 17 14 15 18 19 16
TYPE ASSIGNMENTS     20 11 12 13 17 14 15 18 19 16 20  1  1  1  1  1  1  1  1  1
TYPE ASSIGNMENTS      1  1  1  1  1  1  1  1  1  1  1  1  1  1  1  1  1  1  1  1
TYPE ASSIGNMENTS      1  1  1  1  1  1  1  1  1  1  1  1  1  2  2  2  2  2  2  2
TYPE ASSIGNMENTS      3  3  3  3  3  3  3  4  4  4  4  4  4  4  2  2  2  2  2  2
TYPE ASSIGNMENTS      2  3  3  3  3  3  3  3  4  4  4  4  4  4  4  2  3  4  2  3
TYPE ASSIGNMENTS      4  2  3  4  5  6  7  8  9 10  5  6  7  8  9 10  5  6  7  8
TYPE ASSIGNMENTS      9 10 11 12 13 17 14 15 18 19 16 20 11 12 13 17 14 15 18 19
TYPE ASSIGNMENTS     16 20  1  1  1  1  1  1  1  1  1  1  1  1  1  1  1  1  1  1
TYPE ASSIGNMENTS      1  1  1  1  1  1  1  1  1  1  1  1  1  1  1  1  1  1  1  1
TYPE ASSIGNMENTS      1  1  1  1  2  2  2  2  2  2  2  3  3  3  3  3  3  3  4  4
TYPE ASSIGNMENTS      4  4  4  4  4  2  2  2  2  2  2  2  3  3  3  3  3  3  3  4
TYPE ASSIGNMENTS      4  4  4  4  4  4  2  3  4  2  3  4  2  3  4  5  6  7  8  9
TYPE ASSIGNMENTS     10  5  6  7  8  9 10  5  6  7  8  9 10 11 12 13 17 14 15 18
TYPE ASSIGNMENTS     19 16 20 11 12 13 17 14 15 18 19 16 20  1  1  1  1  1  1  1
TYPE ASSIGNMENTS      1  1  1  1  1  1  1  1  1  1  1  1  1  1  1  1  1  1  1  1
TYPE ASSIGNMENTS      1  1  1  1  1  1  1  1  1  1  1  1  1  1  1  2  2  2  2  2
TYPE ASSIGNMENTS      2  2  3  3  3  3  3  3  3  4  4  4  4  4  4  4  2  2  2  2
TYPE ASSIGNMENTS      2  2  2  3  3  3  3  3  3  3  4  4  4  4  4  4  4  2  3  4
TYPE ASSIGNMENTS      2  3  4  2  3  4  5  6  7  8  9 10  5  6  7  8  9 10  5  6
TYPE ASSIGNMENTS      7  8  9 10 11 12 13 17 14 15 18 19 16 20 11 12 13 17 14 15
TYPE ASSIGNMENTS     18 19 16 20  1  1  1  1  1  1  1  1  1  1  1  1  1  1  1  1
TYPE ASSIGNMENTS      1  1  1  1  1  1  1  1  1  1  1  1  1  1  1  1  1  1  1  1
TYPE ASSIGNMENTS      1  1  1  1  1  1  2  2  2  2  2  2  2  3  3  3  3  3  3  3
TYPE ASSIGNMENTS      4  4  4  4  4  4  4  2  2  2  2  2  2  2  3  3  3  3  3  3
TYPE ASSIGNMENTS      3  4  4  4  4  4  4  4  2  3  4  2  3  4  2  3  4  5  6  7
TYPE ASSIGNMENTS      8  9 10  5  6  7  8  9 10  5  6  7  8  9 10 11 12 13 17 14
TYPE ASSIGNMENTS     15 18 19 16 20 11 12 13 17 14 15 18 19 16 20
EXPONENTS  0.2549000D+06 0.3819000D+05 0.8690000D+04 0.2462000D+04 0.8048000D+03
EXPONENTS  0.2913000D+03 0.1136000D+03 0.4675000D+02 0.1982000D+02 0.7708000D+01
EXPONENTS  0.3340000D+01 0.1402000D+01 0.2070000D+00 0.2549000D+06 0.3819000D+05
EXPONENTS  0.8690000D+04 0.2462000D+04 0.8048000D+03 0.2913000D+03 0.1136000D+03
EXPONENTS  0.4675000D+02 0.1982000D+02 0.7708000D+01 0.3340000D+01 0.1402000D+01
EXPONENTS  0.2070000D+00 0.2549000D+06 0.3819000D+05 0.8690000D+04 0.2462000D+04
EXPONENTS  0.8048000D+03 0.2913000D+03 0.1136000D+03 0.4675000D+02 0.1982000D+02
EXPONENTS  0.7708000D+01 0.3340000D+01 0.1402000D+01 0.2070000D+00 0.4387000D+00
EXPONENTS  0.7944000D-01 0.3300000D-01 0.4815000D+03 0.1139000D+03 0.3623000D+02
EXPONENTS  0.1334000D+02 0.5252000D+01 0.2120000D+01 0.2528000D+00 0.4815000D+03
EXPONENTS  0.1139000D+03 0.3623000D+02 0.1334000D+02 0.5252000D+01 0.2120000D+01
EXPONENTS  0.2528000D+00 0.4815000D+03 0.1139000D+03 0.3623000D+02 0.1334000D+02
EXPONENTS  0.5252000D+01 0.2120000D+01 0.2528000D+00 0.4815000D+03 0.1139000D+03
EXPONENTS  0.3623000D+02 0.1334000D+02 0.5252000D+01 0.2120000D+01 0.2528000D+00
EXPONENTS  0.4815000D+03 0.1139000D+03 0.3623000D+02 0.1334000D+02 0.5252000D+01
EXPONENTS  0.2120000D+01 0.2528000D+00 0.4815000D+03 0.1139000D+03 0.3623000D+02
EXPONENTS  0.1334000D+02 0.5252000D+01 0.2120000D+01 0.2528000D+00 0.8561000D+00
EXPONENTS  0.8561000D+00 0.8561000D+00 0.7889000D-01 0.7889000D-01 0.7889000D-01
EXPONENTS  0.2370000D-01 0.2370000D-01 0.2370000D-01 0.1590000D+00 0.1590000D+00
EXPONENTS  0.1590000D+00 0.1590000D+00 0.1590000D+00 0.1590000D+00 0.4810000D+00
EXPONENTS  0.4810000D+00 0.4810000D+00 0.4810000D+00 0.4810000D+00 0.4810000D+00
EXPONENTS  0.5560000D-01 0.5560000D-01 0.5560000D-01 0.5560000D-01 0.5560000D-01
EXPONENTS  0.5560000D-01 0.3360000D+00 0.3360000D+00 0.3360000D+00 0.3360000D+00
EXPONENTS  0.3360000D+00 0.3360000D+00 0.3360000D+00 0.3360000D+00 0.3360000D+00
EXPONENTS  0.3360000D+00 0.1250000D+00 0.1250000D+00 0.1250000D+00 0.1250000D+00
EXPONENTS  0.1250000D+00 0.1250000D+00 0.1250000D+00 0.1250000D+00 0.1250000D+00
EXPONENTS  0.1250000D+00 0.4561000D+06 0.6833000D+05 0.1555000D+05 0.4405000D+04
EXPONENTS  0.1439000D+04 0.5204000D+03 0.2031000D+03 0.8396000D+02 0.3620000D+02
EXPONENTS  0.1583000D+02 0.6334000D+01 0.2694000D+01 0.4313000D+00 0.4561000D+06
EXPONENTS  0.6833000D+05 0.1555000D+05 0.4405000D+04 0.1439000D+04 0.5204000D+03
EXPONENTS  0.2031000D+03 0.8396000D+02 0.3620000D+02 0.1583000D+02 0.6334000D+01
EXPONENTS  0.2694000D+01 0.4313000D+00 0.4561000D+06 0.6833000D+05 0.1555000D+05
EXPONENTS  0.4405000D+04 0.1439000D+04 0.5204000D+03 0.2031000D+03 0.8396000D+02
EXPONENTS  0.3620000D+02 0.1583000D+02 0.6334000D+01 0.2694000D+01 0.4313000D+00
EXPONENTS  0.9768000D+00 0.1625000D+00 0.5910000D-01 0.6633000D+03 0.1568000D+03
EXPONENTS  0.4998000D+02 0.1842000D+02 0.7240000D+01 0.2922000D+01 0.3818000D+00
EXPONENTS  0.6633000D+03 0.1568000D+03 0.4998000D+02 0.1842000D+02 0.7240000D+01
EXPONENTS  0.2922000D+01 0.3818000D+00 0.6633000D+03 0.1568000D+03 0.4998000D+02
EXPONENTS  0.1842000D+02 0.7240000D+01 0.2922000D+01 0.3818000D+00 0.6633000D+03
EXPONENTS  0.1568000D+03 0.4998000D+02 0.1842000D+02 0.7240000D+01 0.2922000D+01
EXPONENTS  0.3818000D+00 0.6633000D+03 0.1568000D+03 0.4998000D+02 0.1842000D+02
EXPONENTS  0.7240000D+01 0.2922000D+01 0.3818000D+00 0.6633000D+03 0.1568000D+03
EXPONENTS  0.4998000D+02 0.1842000D+02 0.7240000D+01 0.2922000D+01 0.3818000D+00
EXPONENTS  0.1022000D+01 0.1022000D+01 0.1022000D+01 0.1301000D+00 0.1301000D+00
EXPONENTS  0.1301000D+00 0.4190000D-01 0.4190000D-01 0.4190000D-01 0.1046000D+01
EXPONENTS  0.1046000D+01 0.1046000D+01 0.1046000D+01 0.1046000D+01 0.1046000D+01
EXPONENTS  0.3440000D+00 0.3440000D+00 0.3440000D+00 0.3440000D+00 0.3440000D+00
EXPONENTS  0.3440000D+00 0.1350000D+00 0.1350000D+00 0.1350000D+00 0.1350000D+00
EXPONENTS  0.1350000D+00 0.1350000D+00 0.7060000D+00 0.7060000D+00 0.7060000D+00
EXPONENTS  0.7060000D+00 0.7060000D+00 0.7060000D+00 0.7060000D+00 0.7060000D+00
EXPONENTS  0.7060000D+00 0.7060000D+00 0.3120000D+00 0.3120000D+00 0.3120000D+00
EXPONENTS  0.3120000D+00 0.3120000D+00 0.3120000D+00 0.3120000D+00 0.3120000D+00
EXPONENTS  0.3120000D+00 0.3120000D+00 0.4561000D+06 0.6833000D+05 0.1555000D+05
EXPONENTS  0.4405000D+04 0.1439000D+04 0.5204000D+03 0.2031000D+03 0.8396000D+02
EXPONENTS  0.3620000D+02 0.1583000D+02 0.6334000D+01 0.2694000D+01 0.4313000D+00
EXPONENTS  0.4561000D+06 0.6833000D+05 0.1555000D+05 0.4405000D+04 0.1439000D+04
EXPONENTS  0.5204000D+03 0.2031000D+03 0.8396000D+02 0.3620000D+02 0.1583000D+02
EXPONENTS  0.6334000D+01 0.2694000D+01 0.4313000D+00 0.4561000D+06 0.6833000D+05
EXPONENTS  0.1555000D+05 0.4405000D+04 0.1439000D+04 0.5204000D+03 0.2031000D+03
EXPONENTS  0.8396000D+02 0.3620000D+02 0.1583000D+02 0.6334000D+01 0.2694000D+01
EXPONENTS  0.4313000D+00 0.9768000D+00 0.1625000D+00 0.5910000D-01 0.6633000D+03
EXPONENTS  0.1568000D+03 0.4998000D+02 0.1842000D+02 0.7240000D+01 0.2922000D+01
EXPONENTS  0.3818000D+00 0.6633000D+03 0.1568000D+03 0.4998000D+02 0.1842000D+02
EXPONENTS  0.7240000D+01 0.2922000D+01 0.3818000D+00 0.6633000D+03 0.1568000D+03
EXPONENTS  0.4998000D+02 0.1842000D+02 0.7240000D+01 0.2922000D+01 0.3818000D+00
EXPONENTS  0.6633000D+03 0.1568000D+03 0.4998000D+02 0.1842000D+02 0.7240000D+01
EXPONENTS  0.2922000D+01 0.3818000D+00 0.6633000D+03 0.1568000D+03 0.4998000D+02
EXPONENTS  0.1842000D+02 0.7240000D+01 0.2922000D+01 0.3818000D+00 0.6633000D+03
EXPONENTS  0.1568000D+03 0.4998000D+02 0.1842000D+02 0.7240000D+01 0.2922000D+01
EXPONENTS  0.3818000D+00 0.1022000D+01 0.1022000D+01 0.1022000D+01 0.1301000D+00
EXPONENTS  0.1301000D+00 0.1301000D+00 0.4190000D-01 0.4190000D-01 0.4190000D-01
EXPONENTS  0.1046000D+01 0.1046000D+01 0.1046000D+01 0.1046000D+01 0.1046000D+01
EXPONENTS  0.1046000D+01 0.3440000D+00 0.3440000D+00 0.3440000D+00 0.3440000D+00
EXPONENTS  0.3440000D+00 0.3440000D+00 0.1350000D+00 0.1350000D+00 0.1350000D+00
EXPONENTS  0.1350000D+00 0.1350000D+00 0.1350000D+00 0.7060000D+00 0.7060000D+00
EXPONENTS  0.7060000D+00 0.7060000D+00 0.7060000D+00 0.7060000D+00 0.7060000D+00
EXPONENTS  0.7060000D+00 0.7060000D+00 0.7060000D+00 0.3120000D+00 0.3120000D+00
EXPONENTS  0.3120000D+00 0.3120000D+00 0.3120000D+00 0.3120000D+00 0.3120000D+00
EXPONENTS  0.3120000D+00 0.3120000D+00 0.3120000D+00 0.4561000D+06 0.6833000D+05
EXPONENTS  0.1555000D+05 0.4405000D+04 0.1439000D+04 0.5204000D+03 0.2031000D+03
EXPONENTS  0.8396000D+02 0.3620000D+02 0.1583000D+02 0.6334000D+01 0.2694000D+01
EXPONENTS  0.4313000D+00 0.4561000D+06 0.6833000D+05 0.1555000D+05 0.4405000D+04
EXPONENTS  0.1439000D+04 0.5204000D+03 0.2031000D+03 0.8396000D+02 0.3620000D+02
EXPONENTS  0.1583000D+02 0.6334000D+01 0.2694000D+01 0.4313000D+00 0.4561000D+06
EXPONENTS  0.6833000D+05 0.1555000D+05 0.4405000D+04 0.1439000D+04 0.5204000D+03
EXPONENTS  0.2031000D+03 0.8396000D+02 0.3620000D+02 0.1583000D+02 0.6334000D+01
EXPONENTS  0.2694000D+01 0.4313000D+00 0.9768000D+00 0.1625000D+00 0.5910000D-01
EXPONENTS  0.6633000D+03 0.1568000D+03 0.4998000D+02 0.1842000D+02 0.7240000D+01
EXPONENTS  0.2922000D+01 0.3818000D+00 0.6633000D+03 0.1568000D+03 0.4998000D+02
EXPONENTS  0.1842000D+02 0.7240000D+01 0.2922000D+01 0.3818000D+00 0.6633000D+03
EXPONENTS  0.1568000D+03 0.4998000D+02 0.1842000D+02 0.7240000D+01 0.2922000D+01
EXPONENTS  0.3818000D+00 0.6633000D+03 0.1568000D+03 0.4998000D+02 0.1842000D+02
EXPONENTS  0.7240000D+01 0.2922000D+01 0.3818000D+00 0.6633000D+03 0.1568000D+03
EXPONENTS  0.4998000D+02 0.1842000D+02 0.7240000D+01 0.2922000D+01 0.3818000D+00
EXPONENTS  0.6633000D+03 0.1568000D+03 0.4998000D+02 0.1842000D+02 0.7240000D+01
EXPONENTS  0.2922000D+01 0.3818000D+00 0.1022000D+01 0.1022000D+01 0.1022000D+01
EXPONENTS  0.1301000D+00 0.1301000D+00 0.1301000D+00 0.4190000D-01 0.4190000D-01
EXPONENTS  0.4190000D-01 0.1046000D+01 0.1046000D+01 0.1046000D+01 0.1046000D+01
EXPONENTS  0.1046000D+01 0.1046000D+01 0.3440000D+00 0.3440000D+00 0.3440000D+00
EXPONENTS  0.3440000D+00 0.3440000D+00 0.3440000D+00 0.1350000D+00 0.1350000D+00
EXPONENTS  0.1350000D+00 0.1350000D+00 0.1350000D+00 0.1350000D+00 0.7060000D+00
EXPONENTS  0.7060000D+00 0.7060000D+00 0.7060000D+00 0.7060000D+00 0.7060000D+00
EXPONENTS  0.7060000D+00 0.7060000D+00 0.7060000D+00 0.7060000D+00 0.3120000D+00
EXPONENTS  0.3120000D+00 0.3120000D+00 0.3120000D+00 0.3120000D+00 0.3120000D+00
EXPONENTS  0.3120000D+00 0.3120000D+00 0.3120000D+00 0.3120000D+00 0.4561000D+06
EXPONENTS  0.6833000D+05 0.1555000D+05 0.4405000D+04 0.1439000D+04 0.5204000D+03
EXPONENTS  0.2031000D+03 0.8396000D+02 0.3620000D+02 0.1583000D+02 0.6334000D+01
EXPONENTS  0.2694000D+01 0.4313000D+00 0.4561000D+06 0.6833000D+05 0.1555000D+05
EXPONENTS  0.4405000D+04 0.1439000D+04 0.5204000D+03 0.2031000D+03 0.8396000D+02
EXPONENTS  0.3620000D+02 0.1583000D+02 0.6334000D+01 0.2694000D+01 0.4313000D+00
EXPONENTS  0.4561000D+06 0.6833000D+05 0.1555000D+05 0.4405000D+04 0.1439000D+04
EXPONENTS  0.5204000D+03 0.2031000D+03 0.8396000D+02 0.3620000D+02 0.1583000D+02
EXPONENTS  0.6334000D+01 0.2694000D+01 0.4313000D+00 0.9768000D+00 0.1625000D+00
EXPONENTS  0.5910000D-01 0.6633000D+03 0.1568000D+03 0.4998000D+02 0.1842000D+02
EXPONENTS  0.7240000D+01 0.2922000D+01 0.3818000D+00 0.6633000D+03 0.1568000D+03
EXPONENTS  0.4998000D+02 0.1842000D+02 0.7240000D+01 0.2922000D+01 0.3818000D+00
EXPONENTS  0.6633000D+03 0.1568000D+03 0.4998000D+02 0.1842000D+02 0.7240000D+01
EXPONENTS  0.2922000D+01 0.3818000D+00 0.6633000D+03 0.1568000D+03 0.4998000D+02
EXPONENTS  0.1842000D+02 0.7240000D+01 0.2922000D+01 0.3818000D+00 0.6633000D+03
EXPONENTS  0.1568000D+03 0.4998000D+02 0.1842000D+02 0.7240000D+01 0.2922000D+01
EXPONENTS  0.3818000D+00 0.6633000D+03 0.1568000D+03 0.4998000D+02 0.1842000D+02
EXPONENTS  0.7240000D+01 0.2922000D+01 0.3818000D+00 0.1022000D+01 0.1022000D+01
EXPONENTS  0.1022000D+01 0.1301000D+00 0.1301000D+00 0.1301000D+00 0.4190000D-01
EXPONENTS  0.4190000D-01 0.4190000D-01 0.1046000D+01 0.1046000D+01 0.1046000D+01
EXPONENTS  0.1046000D+01 0.1046000D+01 0.1046000D+01 0.3440000D+00 0.3440000D+00
EXPONENTS  0.3440000D+00 0.3440000D+00 0.3440000D+00 0.3440000D+00 0.1350000D+00
EXPONENTS  0.1350000D+00 0.1350000D+00 0.1350000D+00 0.1350000D+00 0.1350000D+00
EXPONENTS  0.7060000D+00 0.7060000D+00 0.7060000D+00 0.7060000D+00 0.7060000D+00
EXPONENTS  0.7060000D+00 0.7060000D+00 0.7060000D+00 0.7060000D+00 0.7060000D+00
EXPONENTS  0.3120000D+00 0.3120000D+00 0.3120000D+00 0.3120000D+00 0.3120000D+00
EXPONENTS  0.3120000D+00 0.3120000D+00 0.3120000D+00 0.3120000D+00 0.3120000D+00
MO    1     MO 0.0        OCC NO =    2.0000000  ORB. ENERGY = -102.800229
 -0.24207650D-04 -0.45281828D-04 -0.78199681D-04 -0.12631287D-03 -0.19022458D-03
 -0.25870453D-03 -0.29450888D-03 -0.23859258D-03 -0.96849443D-04 -0.88313371D-05
  0.33939025D-06 -0.11348965D-06 -0.63687822D-08  0.51003538D-04  0.95464580D-04
  0.16510966D-03  0.26835591D-03  0.41058235D-03  0.58264474D-03  0.73087943D-03
  0.74519490D-03  0.45786256D-03 -0.99787400D-04 -0.36550648D-03 -0.16716980D-03
  0.88734644D-06 -0.31899664D-04 -0.59663509D-04 -0.10332103D-03 -0.16775691D-03
 -0.25750346D-03 -0.36577218D-03 -0.46404003D-03 -0.48040681D-03 -0.30944036D-03
  0.76108467D-04  0.31024154D-03  0.27058460D-03 -0.13790400D-03 -0.25106843D-03
  0.16633831D-02  0.11207861D-03  0.10875757D-09  0.14345683D-09  0.15934530D-09
  0.13637712D-09  0.77924790D-10  0.25288293D-10  0.17806217D-13  0.77952828D-11
  0.10282380D-10  0.11421198D-10  0.97749357D-11  0.55853197D-11  0.18125580D-11
  0.12762744D-14  0.27175848D-10  0.35846344D-10  0.39816482D-10  0.34077297D-10
  0.19471493D-10  0.63189241D-11  0.44493368D-14 -0.92814651D-10 -0.12692284D-09
 -0.13797791D-09 -0.12665651D-09 -0.69032941D-10 -0.29130575D-10  0.10046782D-10
 -0.66601056D-11 -0.91076087D-11 -0.99008880D-11 -0.90884975D-11 -0.49536002D-11
 -0.20903241D-11  0.72092744D-12 -0.23196776D-10 -0.31721293D-10 -0.34484241D-10
 -0.31654730D-10 -0.17253113D-10 -0.72804824D-11  0.25109501D-11 -0.39405682D-11
 -0.27464317D-12 -0.98035912D-12  0.11967583D-10  0.83321215D-12  0.29864724D-11
  0.40135216D-13  0.25181575D-14  0.11033579D-13 -0.57286154D-14 -0.57131124D-14
  0.11441728D-13  0.93728250D-13  0.18123660D-13  0.43826592D-12  0.27811076D-14
  0.27745702D-14 -0.55556777D-14  0.13711287D-11  0.39967247D-12  0.54517299D-11
 -0.11069925D-14 -0.11047347D-14  0.22117272D-14  0.12568340D-12  0.34345217D-13
  0.50947401D-12  0.40989847D-12  0.31122549D-13  0.10442544D-12 -0.61484764D-12
 -0.47255740D-13 -0.15663565D-12 -0.61484776D-12 -0.46111908D-13 -0.15664067D-12
  0.50595319D-04  0.38659920D-12  0.27982348D-13  0.97228243D-13 -0.57989364D-12
 -0.42735989D-13 -0.14584161D-12 -0.57990395D-12 -0.41211056D-13 -0.14584312D-12
  0.59741425D-04  0.30851562D+00  0.57723390D+00  0.99733231D+00  0.16167920D+01
  0.24552276D+01  0.34124777D+01  0.40569437D+01  0.36136134D+01  0.17939059D+01
  0.28902698D+00  0.44373340D-02  0.79294723D-03  0.29631201D-04 -0.33011571D-03
 -0.61660875D-03 -0.10701544D-02 -0.17364257D-02 -0.26877807D-02 -0.38473139D-02
 -0.50219464D-02 -0.53517219D-02 -0.40005207D-02 -0.21118038D-03  0.27135631D-02
  0.16121682D-02 -0.60444222D-05  0.14378233D-03  0.26834899D-03  0.46636693D-03
  0.75584360D-03  0.11739435D-02  0.16817079D-02  0.22205385D-02  0.24010609D-02
  0.18824628D-02  0.93670728D-04 -0.16137466D-02 -0.16705269D-02  0.75593705D-03
 -0.89300692D-03 -0.68503108D-03 -0.20122439D-03 -0.17818286D-03 -0.23470681D-03
 -0.25893660D-03 -0.21507661D-03 -0.11423241D-03 -0.29463871D-04  0.30287858D-07
 -0.17818287D-03 -0.23470683D-03 -0.25893662D-03 -0.21507663D-03 -0.11423242D-03
 -0.29463874D-04  0.30287860D-07 -0.17818287D-03 -0.23470683D-03 -0.25893662D-03
 -0.21507662D-03 -0.11423242D-03 -0.29463873D-04  0.30287860D-07  0.49102191D-04
  0.64467577D-04  0.73401079D-04  0.62153019D-04  0.35603642D-04  0.80985934D-05
 -0.37905874D-05  0.49102204D-04  0.64467594D-04  0.73401099D-04  0.62153036D-04
  0.35603652D-04  0.80985956D-05 -0.37905884D-05  0.49102201D-04  0.64467591D-04
  0.73401095D-04  0.62153032D-04  0.35603650D-04  0.80985951D-05 -0.37905882D-05
 -0.83570559D-05 -0.83570555D-05 -0.83570556D-05  0.15435205D-03  0.15435206D-03
  0.15435206D-03  0.50428801D-05  0.50428800D-05  0.50428801D-05 -0.86018638D-12
  0.56805260D-12  0.29213378D-12  0.68128739D-04  0.68128738D-04  0.68128740D-04
  0.46849359D-12 -0.30930604D-12 -0.15918755D-12 -0.43155807D-04 -0.43155807D-04
 -0.43155808D-04  0.24150891D-12 -0.16247755D-12 -0.79031359D-13 -0.23661561D-04
 -0.23661560D-04 -0.23661562D-04  0.40998387D-05  0.40998393D-05  0.40998392D-05
 -0.61497581D-05 -0.61497586D-05 -0.61497583D-05 -0.61497579D-05 -0.61497593D-05
 -0.61497592D-05  0.96518937D-05 -0.42674308D-05 -0.42674311D-05 -0.42674310D-05
  0.64011463D-05  0.64011462D-05  0.64011460D-05  0.64011461D-05  0.64011470D-05
  0.64011470D-05  0.12547846D-04  0.30851558D+00  0.57723383D+00  0.99733218D+00
  0.16167918D+01  0.24552273D+01  0.34124772D+01  0.40569431D+01  0.36136129D+01
  0.17939057D+01  0.28902694D+00  0.44373334D-02  0.79294713D-03  0.29631197D-04
 -0.33011568D-03 -0.61660868D-03 -0.10701543D-02 -0.17364255D-02 -0.26877804D-02
 -0.38473135D-02 -0.50219459D-02 -0.53517213D-02 -0.40005203D-02 -0.21118036D-03
  0.27135628D-02  0.16121681D-02 -0.60444216D-05  0.14378231D-03  0.26834897D-03
  0.46636689D-03  0.75584353D-03  0.11739433D-02  0.16817077D-02  0.22205383D-02
  0.24010606D-02  0.18824627D-02  0.93670719D-04 -0.16137464D-02 -0.16705267D-02
  0.75593698D-03 -0.89300681D-03 -0.68503104D-03 -0.20122437D-03  0.17818277D-03
  0.23470669D-03  0.25893647D-03  0.21507650D-03  0.11423235D-03  0.29463856D-04
 -0.30287842D-07  0.17818275D-03  0.23470667D-03  0.25893644D-03  0.21507648D-03
  0.11423234D-03  0.29463854D-04 -0.30287840D-07 -0.17818275D-03 -0.23470667D-03
 -0.25893644D-03 -0.21507647D-03 -0.11423234D-03 -0.29463853D-04  0.30287839D-07
 -0.49102126D-04 -0.64467492D-04 -0.73400983D-04 -0.62152938D-04 -0.35603596D-04
 -0.80985828D-05  0.37905825D-05 -0.49102113D-04 -0.64467475D-04 -0.73400963D-04
 -0.62152921D-04 -0.35603586D-04 -0.80985806D-05  0.37905814D-05  0.49102108D-04
  0.64467469D-04  0.73400956D-04  0.62152915D-04  0.35603583D-04  0.80985798D-05
 -0.37905811D-05  0.83570609D-05  0.83570613D-05 -0.83570614D-05 -0.15435205D-03
 -0.15435205D-03  0.15435205D-03 -0.50428797D-05 -0.50428797D-05  0.50428797D-05
  0.11189411D-11 -0.30930577D-12 -0.80963529D-12  0.68128733D-04 -0.68128733D-04
 -0.68128731D-04 -0.60977416D-12  0.16803149D-12  0.44174267D-12 -0.43155805D-04
  0.43155805D-04  0.43155804D-04 -0.31756408D-12  0.86422874D-13  0.23114121D-12
 -0.23661560D-04  0.23661560D-04  0.23661558D-04 -0.40998388D-05 -0.40998382D-05
  0.40998379D-05  0.61497583D-05  0.61497578D-05 -0.61497573D-05  0.61497580D-05
  0.61497566D-05 -0.61497565D-05  0.96518970D-05  0.42674306D-05  0.42674304D-05
 -0.42674303D-05 -0.64011461D-05 -0.64011463D-05  0.64011460D-05 -0.64011458D-05
 -0.64011449D-05  0.64011450D-05  0.12547843D-04  0.30851557D+00  0.57723382D+00
  0.99733216D+00  0.16167918D+01  0.24552273D+01  0.34124772D+01  0.40569431D+01
  0.36136128D+01  0.17939056D+01  0.28902694D+00  0.44373334D-02  0.79294711D-03
  0.29631196D-04 -0.33011567D-03 -0.61660867D-03 -0.10701543D-02 -0.17364255D-02
 -0.26877804D-02 -0.38473134D-02 -0.50219458D-02 -0.53517212D-02 -0.40005202D-02
 -0.21118036D-03  0.27135628D-02  0.16121680D-02 -0.60444215D-05  0.14378231D-03
  0.26834896D-03  0.46636688D-03  0.75584352D-03  0.11739433D-02  0.16817077D-02
  0.22205383D-02  0.24010606D-02  0.18824626D-02  0.93670717D-04 -0.16137464D-02
 -0.16705267D-02  0.75593696D-03 -0.89300679D-03 -0.68503104D-03 -0.20122437D-03
  0.17818275D-03  0.23470666D-03  0.25893644D-03  0.21507647D-03  0.11423234D-03
  0.29463853D-04 -0.30287839D-07 -0.17818273D-03 -0.23470664D-03 -0.25893641D-03
 -0.21507645D-03 -0.11423233D-03 -0.29463850D-04  0.30287836D-07  0.17818273D-03
  0.23470665D-03  0.25893642D-03  0.21507646D-03  0.11423233D-03  0.29463851D-04
 -0.30287837D-07 -0.49102111D-04 -0.64467472D-04 -0.73400960D-04 -0.62152918D-04
 -0.35603584D-04 -0.80985802D-05  0.37905813D-05  0.49102096D-04  0.64467452D-04
  0.73400937D-04  0.62152899D-04  0.35603573D-04  0.80985777D-05 -0.37905801D-05
 -0.49102100D-04 -0.64467458D-04 -0.73400943D-04 -0.62152904D-04 -0.35603576D-04
 -0.80985784D-05  0.37905804D-05  0.83570619D-05 -0.83570623D-05  0.83570622D-05
 -0.15435205D-03  0.15435205D-03 -0.15435205D-03 -0.50428796D-05  0.50428797D-05
 -0.50428796D-05  0.93790206D-12 -0.71517951D-12 -0.22272256D-12 -0.68128731D-04
  0.68128732D-04 -0.68128730D-04 -0.51102280D-12  0.39018402D-12  0.12083878D-12
  0.43155804D-04 -0.43155805D-04  0.43155803D-04 -0.26544943D-12  0.20228678D-12
  0.63162651D-13  0.23661559D-04 -0.23661560D-04  0.23661558D-04 -0.40998386D-05
  0.40998379D-05 -0.40998381D-05  0.61497577D-05 -0.61497571D-05  0.61497576D-05
  0.61497580D-05 -0.61497564D-05  0.61497566D-05  0.96518975D-05  0.42674305D-05
 -0.42674302D-05  0.42674303D-05 -0.64011456D-05  0.64011458D-05 -0.64011461D-05
 -0.64011460D-05  0.64011450D-05 -0.64011449D-05  0.12547843D-04  0.30851561D+00
  0.57723388D+00  0.99733227D+00  0.16167919D+01  0.24552275D+01  0.34124775D+01
  0.40569435D+01  0.36136132D+01  0.17939058D+01  0.28902697D+00  0.44373338D-02
  0.79294720D-03  0.29631200D-04 -0.33011570D-03 -0.61660873D-03 -0.10701544D-02
 -0.17364256D-02 -0.26877806D-02 -0.38473138D-02 -0.50219462D-02 -0.53517217D-02
 -0.40005206D-02 -0.21118038D-03  0.27135630D-02  0.16121682D-02 -0.60444220D-05
  0.14378232D-03  0.26834899D-03  0.46636692D-03  0.75584358D-03  0.11739434D-02
  0.16817078D-02  0.22205385D-02  0.24010608D-02  0.18824628D-02  0.93670725D-04
 -0.16137465D-02 -0.16705268D-02  0.75593703D-03 -0.89300688D-03 -0.68503107D-03
 -0.20122438D-03 -0.17818282D-03 -0.23470676D-03 -0.25893654D-03 -0.21507656D-03
 -0.11423239D-03 -0.29463865D-04  0.30287852D-07  0.17818284D-03  0.23470679D-03
  0.25893657D-03  0.21507658D-03  0.11423240D-03  0.29463868D-04 -0.30287854D-07
  0.17818284D-03  0.23470679D-03  0.25893657D-03  0.21507659D-03  0.11423240D-03
  0.29463868D-04 -0.30287855D-07  0.49102163D-04  0.64467540D-04  0.73401037D-04
  0.62152983D-04  0.35603622D-04  0.80985887D-05 -0.37905852D-05 -0.49102178D-04
 -0.64467560D-04 -0.73401060D-04 -0.62153003D-04 -0.35603633D-04 -0.80985913D-05
  0.37905864D-05 -0.49102180D-04 -0.64467563D-04 -0.73401064D-04 -0.62153006D-04
 -0.35603635D-04 -0.80985917D-05  0.37905866D-05 -0.83570577D-05  0.83570572D-05
  0.83570571D-05  0.15435205D-03 -0.15435206D-03 -0.15435206D-03  0.50428800D-05
 -0.50428799D-05 -0.50428799D-05 -0.11914058D-11  0.46166814D-12  0.72973770D-12
 -0.68128736D-04 -0.68128736D-04  0.68128739D-04  0.64938872D-12 -0.25181478D-12
 -0.39757394D-12  0.43155806D-04  0.43155806D-04 -0.43155807D-04  0.33777663D-12
 -0.12995058D-12 -0.20782605D-12  0.23661560D-04  0.23661560D-04 -0.23661561D-04
  0.40998383D-05 -0.40998390D-05 -0.40998391D-05 -0.61497574D-05  0.61497579D-05
  0.61497582D-05 -0.61497575D-05  0.61497591D-05  0.61497592D-05  0.96518947D-05
 -0.42674306D-05  0.42674309D-05  0.42674309D-05  0.64011458D-05 -0.64011457D-05
 -0.64011458D-05  0.64011460D-05 -0.64011470D-05 -0.64011470D-05  0.12547845D-04
MO    2     MO 0.0        OCC NO =    2.0000000  ORB. ENERGY = -102.800227
  0.12919451D-11  0.24166589D-11  0.41734614D-11  0.67412280D-11  0.10152151D-10
  0.13806877D-10  0.15717730D-10  0.12733516D-10  0.51687859D-11  0.47132218D-12
 -0.18113016D-13  0.60568621D-14  0.33989737D-15 -0.27222147D-11 -0.50952363D-11
 -0.88124072D-11 -0.14322975D-10 -0.21914035D-10 -0.31097530D-10 -0.39009269D-10
 -0.39773329D-10 -0.24437524D-10  0.53259584D-11  0.19508198D-10  0.89223628D-11
 -0.47360391D-13  0.17027358D-11  0.31847103D-11  0.55150553D-11  0.89545046D-11
  0.13744983D-10  0.19524136D-10  0.24769463D-10  0.25643087D-10  0.16517264D-10
 -0.40625070D-11 -0.16560029D-10 -0.14443226D-10  0.73610201D-11  0.13417453D-10
 -0.88885863D-10 -0.59777583D-11  0.13972440D-02  0.18430369D-02  0.20471613D-02
  0.17520815D-02  0.10011253D-02  0.32488698D-03  0.22876230D-06  0.10047063D-02
  0.13252593D-02  0.14720376D-02  0.12598567D-02  0.71987198D-03  0.23361415D-03
  0.16449447D-06  0.55656003D-03  0.73413136D-03  0.81543960D-03  0.69790137D-03
  0.39877523D-03  0.12941126D-03  0.91122200D-07 -0.11924196D-02 -0.16306185D-02
 -0.17726466D-02 -0.16271968D-02 -0.88688835D-03 -0.37424985D-03  0.12907423D-03
 -0.85742462D-03 -0.11725171D-02 -0.12746442D-02 -0.11700568D-02 -0.63772845D-03
 -0.26910916D-03  0.92812484D-04 -0.47497293D-03 -0.64951938D-03 -0.70609298D-03
 -0.64815644D-03 -0.35327158D-03 -0.14907382D-03  0.51413753D-04 -0.50625911D-04
 -0.36403211D-04 -0.20165667D-04  0.15375270D-03  0.11055785D-03  0.61243853D-04
  0.51565228D-06  0.37078639D-06  0.20539822D-06  0.23053049D-14  0.23050546D-14
 -0.46103595D-14  0.22432084D-05  0.40494564D-05  0.56315753D-05 -0.11996266D-14
 -0.12016911D-14  0.24013178D-14  0.27898390D-04  0.50362378D-04  0.70038912D-04
  0.28743102D-15  0.28626272D-15 -0.57369373D-15  0.26072357D-05  0.47066010D-05
  0.65454656D-05  0.52660424D-05  0.37866153D-05  0.20976069D-05 -0.78990636D-05
 -0.56799230D-05 -0.31464103D-05 -0.78990636D-05 -0.56799230D-05 -0.31464103D-05
 -0.26993921D-11  0.49667393D-05  0.35713976D-05  0.19783863D-05 -0.74501089D-05
 -0.53570964D-05 -0.29675795D-05 -0.74501089D-05 -0.53570964D-05 -0.29675795D-05
 -0.31927085D-11  0.50457818D+00  0.94406771D+00  0.16311399D+01  0.26442680D+01
  0.40155319D+01  0.55811171D+01  0.66351431D+01  0.59100751D+01  0.29339382D+01
  0.47270446D+00  0.72572726D-02  0.12968675D-02  0.48461914D-04 -0.43853577D-03
 -0.81912186D-03 -0.14216257D-02 -0.23067208D-02 -0.35705298D-02 -0.51108890D-02
 -0.66713067D-02 -0.71093905D-02 -0.53144137D-02 -0.28053846D-03  0.36047799D-02
  0.21416534D-02 -0.80295948D-05  0.18060110D-03  0.33706593D-03  0.58579092D-03
  0.94939475D-03  0.14745587D-02  0.21123479D-02  0.27891585D-02  0.30159077D-02
  0.23645108D-02  0.11765727D-03 -0.20269835D-02 -0.20983037D-02  0.94951212D-03