 Molden2AIM, Version 4.0.0 (06/02/2016)           Time: Tue Jul  3 03:23:51 2018
GAUSSIAN             25 MOL ORBITALS    431 PRIMITIVES        5 NUCLEI
  Si   1    (CENTRE  1)   0.00000000  0.00000000  0.00000000  CHARGE = 14.0
  F    2    (CENTRE  2)   1.74550034  1.74550034  1.74550034  CHARGE =  9.0
  F    3    (CENTRE  3)  -1.74550034 -1.74550034  1.74550034  CHARGE =  9.0
  F    4    (CENTRE  4)  -1.74550034  1.74550034 -1.74550034  CHARGE =  9.0
  F    5    (CENTRE  5)   1.74550034 -1.74550034 -1.74550034  CHARGE =  9.0
CENTRE ASSIGNMENTS    1  1  1  1  1  1  1  1  1  1  1  1  1  1  1  1  1  1  1  1
CENTRE ASSIGNMENTS    1  1  1  1  1  1  1  1  1  1  1  1  1  1  1  1  1  1  1  1
CENTRE ASSIGNMENTS    1  1  1  1  1  1  1  1  1  1  1  1  1  1  1  1  1  1  1  1
CENTRE ASSIGNMENTS    1  1  1  1  1  1  1  1  1  1  1  1  1  1  1  1  1  1  1  1
CENTRE ASSIGNMENTS    1  1  1  1  1  1  1  1  1  1  1  1  1  1  1  1  1  1  1  1
CENTRE ASSIGNMENTS    1  1  1  1  1  1  1  1  1  1  1  1  1  1  1  1  1  1  1  1
CENTRE ASSIGNMENTS    1  1  1  1  1  1  1  1  1  1  1  2  2  2  2  2  2  2  2  2
CENTRE ASSIGNMENTS    2  2  2  2  2  2  2  2  2  2  2  2  2  2  2  2  2  2  2  2
CENTRE ASSIGNMENTS    2  2  2  2  2  2  2  2  2  2  2  2  2  2  2  2  2  2  2  2
CENTRE ASSIGNMENTS    2  2  2  2  2  2  2  2  2  2  2  2  2  2  2  2  2  2  2  2
CENTRE ASSIGNMENTS    2  2  2  2  2  2  3  3  3  3  3  3  3  3  3  3  3  3  3  3
CENTRE ASSIGNMENTS    3  3  3  3  3  3  3  3  3  3  3  3  3  3  3  3  3  3  3  3
CENTRE ASSIGNMENTS    3  3  3  3  3  3  3  3  3  3  3  3  3  3  3  3  3  3  3  3
CENTRE ASSIGNMENTS    3  3  3  3  3  3  3  3  3  3  3  3  3  3  3  3  3  3  3  3
CENTRE ASSIGNMENTS    3  4  4  4  4  4  4  4  4  4  4  4  4  4  4  4  4  4  4  4
CENTRE ASSIGNMENTS    4  4  4  4  4  4  4  4  4  4  4  4  4  4  4  4  4  4  4  4
CENTRE ASSIGNMENTS    4  4  4  4  4  4  4  4  4  4  4  4  4  4  4  4  4  4  4  4
CENTRE ASSIGNMENTS    4  4  4  4  4  4  4  4  4  4  4  4  4  4  4  4  5  5  5  5
CENTRE ASSIGNMENTS    5  5  5  5  5  5  5  5  5  5  5  5  5  5  5  5  5  5  5  5
CENTRE ASSIGNMENTS    5  5  5  5  5  5  5  5  5  5  5  5  5  5  5  5  5  5  5  5
CENTRE ASSIGNMENTS    5  5  5  5  5  5  5  5  5  5  5  5  5  5  5  5  5  5  5  5
CENTRE ASSIGNMENTS    5  5  5  5  5  5  5  5  5  5  5
TYPE ASSIGNMENTS      1  1  1  1  1  1  1  1  1  1  1  1  1  1  1  1  1  1  1  1
TYPE ASSIGNMENTS      1  1  1  1  1  1  1  1  1  1  1  1  1  1  1  1  1  1  1  1
TYPE ASSIGNMENTS      1  1  2  2  2  2  2  2  2  3  3  3  3  3  3  3  4  4  4  4
TYPE ASSIGNMENTS      4  4  4  2  2  2  2  2  2  2  3  3  3  3  3  3  3  4  4  4
TYPE ASSIGNMENTS      4  4  4  4  2  3  4  2  3  4  2  3  4  5  6  7  8  9 10  5
TYPE ASSIGNMENTS      6  7  8  9 10  5  6  7  8  9 10 11 12 13 17 14 15 18 19 16
TYPE ASSIGNMENTS     20 11 12 13 17 14 15 18 19 16 20  1  1  1  1  1  1  1  1  1
TYPE ASSIGNMENTS      1  1  1  1  1  1  1  1  1  1  2  2  2  3  3  3  4  4  4  2
TYPE ASSIGNMENTS      3  4  2  3  4  2  3  4  5  6  7  8  9 10  5  6  7  8  9 10
TYPE ASSIGNMENTS      5  6  7  8  9 10 11 12 13 17 14 15 18 19 16 20 11 12 13 17
TYPE ASSIGNMENTS     14 15 18 19 16 20  1  1  1  1  1  1  1  1  1  1  1  1  1  1
TYPE ASSIGNMENTS      1  1  1  1  1  2  2  2  3  3  3  4  4  4  2  3  4  2  3  4
TYPE ASSIGNMENTS      2  3  4  5  6  7  8  9 10  5  6  7  8  9 10  5  6  7  8  9
TYPE ASSIGNMENTS     10 11 12 13 17 14 15 18 19 16 20 11 12 13 17 14 15 18 19 16
TYPE ASSIGNMENTS     20  1  1  1  1  1  1  1  1  1  1  1  1  1  1  1  1  1  1  1
TYPE ASSIGNMENTS      2  2  2  3  3  3  4  4  4  2  3  4  2  3  4  2  3  4  5  6
TYPE ASSIGNMENTS      7  8  9 10  5  6  7  8  9 10  5  6  7  8  9 10 11 12 13 17
TYPE ASSIGNMENTS     14 15 18 19 16 20 11 12 13 17 14 15 18 19 16 20  1  1  1  1
TYPE ASSIGNMENTS      1  1  1  1  1  1  1  1  1  1  1  1  1  1  1  2  2  2  3  3
TYPE ASSIGNMENTS      3  4  4  4  2  3  4  2  3  4  2  3  4  5  6  7  8  9 10  5
TYPE ASSIGNMENTS      6  7  8  9 10  5  6  7  8  9 10 11 12 13 17 14 15 18 19 16
TYPE ASSIGNMENTS     20 11 12 13 17 14 15 18 19 16 20
EXPONENTS  0.2549000D+06 0.3819000D+05 0.8690000D+04 0.2462000D+04 0.8048000D+03
EXPONENTS  0.2913000D+03 0.1136000D+03 0.4675000D+02 0.1982000D+02 0.7708000D+01
EXPONENTS  0.3340000D+01 0.1402000D+01 0.2070000D+00 0.2549000D+06 0.3819000D+05
EXPONENTS  0.8690000D+04 0.2462000D+04 0.8048000D+03 0.2913000D+03 0.1136000D+03
EXPONENTS  0.4675000D+02 0.1982000D+02 0.7708000D+01 0.3340000D+01 0.1402000D+01
EXPONENTS  0.2070000D+00 0.2549000D+06 0.3819000D+05 0.8690000D+04 0.2462000D+04
EXPONENTS  0.8048000D+03 0.2913000D+03 0.1136000D+03 0.4675000D+02 0.1982000D+02
EXPONENTS  0.7708000D+01 0.3340000D+01 0.1402000D+01 0.2070000D+00 0.4387000D+00
EXPONENTS  0.7944000D-01 0.3300000D-01 0.4815000D+03 0.1139000D+03 0.3623000D+02
EXPONENTS  0.1334000D+02 0.5252000D+01 0.2120000D+01 0.2528000D+00 0.4815000D+03
EXPONENTS  0.1139000D+03 0.3623000D+02 0.1334000D+02 0.5252000D+01 0.2120000D+01
EXPONENTS  0.2528000D+00 0.4815000D+03 0.1139000D+03 0.3623000D+02 0.1334000D+02
EXPONENTS  0.5252000D+01 0.2120000D+01 0.2528000D+00 0.4815000D+03 0.1139000D+03
EXPONENTS  0.3623000D+02 0.1334000D+02 0.5252000D+01 0.2120000D+01 0.2528000D+00
EXPONENTS  0.4815000D+03 0.1139000D+03 0.3623000D+02 0.1334000D+02 0.5252000D+01
EXPONENTS  0.2120000D+01 0.2528000D+00 0.4815000D+03 0.1139000D+03 0.3623000D+02
EXPONENTS  0.1334000D+02 0.5252000D+01 0.2120000D+01 0.2528000D+00 0.8561000D+00
EXPONENTS  0.8561000D+00 0.8561000D+00 0.7889000D-01 0.7889000D-01 0.7889000D-01
EXPONENTS  0.2370000D-01 0.2370000D-01 0.2370000D-01 0.1590000D+00 0.1590000D+00
EXPONENTS  0.1590000D+00 0.1590000D+00 0.1590000D+00 0.1590000D+00 0.4810000D+00
EXPONENTS  0.4810000D+00 0.4810000D+00 0.4810000D+00 0.4810000D+00 0.4810000D+00
EXPONENTS  0.5560000D-01 0.5560000D-01 0.5560000D-01 0.5560000D-01 0.5560000D-01
EXPONENTS  0.5560000D-01 0.3360000D+00 0.3360000D+00 0.3360000D+00 0.3360000D+00
EXPONENTS  0.3360000D+00 0.3360000D+00 0.3360000D+00 0.3360000D+00 0.3360000D+00
EXPONENTS  0.3360000D+00 0.1250000D+00 0.1250000D+00 0.1250000D+00 0.1250000D+00
EXPONENTS  0.1250000D+00 0.1250000D+00 0.1250000D+00 0.1250000D+00 0.1250000D+00
EXPONENTS  0.1250000D+00 0.1950000D+05 0.2923000D+04 0.6645000D+03 0.1875000D+03
EXPONENTS  0.6062000D+02 0.2142000D+02 0.7950000D+01 0.8815000D+00 0.1950000D+05
EXPONENTS  0.2923000D+04 0.6645000D+03 0.1875000D+03 0.6062000D+02 0.2142000D+02
EXPONENTS  0.7950000D+01 0.8815000D+00 0.2257000D+01 0.3041000D+00 0.9158000D-01
EXPONENTS  0.4388000D+02 0.9926000D+01 0.2930000D+01 0.4388000D+02 0.9926000D+01
EXPONENTS  0.2930000D+01 0.4388000D+02 0.9926000D+01 0.2930000D+01 0.9132000D+00
EXPONENTS  0.9132000D+00 0.9132000D+00 0.2672000D+00 0.2672000D+00 0.2672000D+00
EXPONENTS  0.7361000D-01 0.7361000D-01 0.7361000D-01 0.3107000D+01 0.3107000D+01
EXPONENTS  0.3107000D+01 0.3107000D+01 0.3107000D+01 0.3107000D+01 0.8550000D+00
EXPONENTS  0.8550000D+00 0.8550000D+00 0.8550000D+00 0.8550000D+00 0.8550000D+00
EXPONENTS  0.2920000D+00 0.2920000D+00 0.2920000D+00 0.2920000D+00 0.2920000D+00
EXPONENTS  0.2920000D+00 0.1917000D+01 0.1917000D+01 0.1917000D+01 0.1917000D+01
EXPONENTS  0.1917000D+01 0.1917000D+01 0.1917000D+01 0.1917000D+01 0.1917000D+01
EXPONENTS  0.1917000D+01 0.7240000D+00 0.7240000D+00 0.7240000D+00 0.7240000D+00
EXPONENTS  0.7240000D+00 0.7240000D+00 0.7240000D+00 0.7240000D+00 0.7240000D+00
EXPONENTS  0.7240000D+00 0.1950000D+05 0.2923000D+04 0.6645000D+03 0.1875000D+03
EXPONENTS  0.6062000D+02 0.2142000D+02 0.7950000D+01 0.8815000D+00 0.1950000D+05
EXPONENTS  0.2923000D+04 0.6645000D+03 0.1875000D+03 0.6062000D+02 0.2142000D+02
EXPONENTS  0.7950000D+01 0.8815000D+00 0.2257000D+01 0.3041000D+00 0.9158000D-01
EXPONENTS  0.4388000D+02 0.9926000D+01 0.2930000D+01 0.4388000D+02 0.9926000D+01
EXPONENTS  0.2930000D+01 0.4388000D+02 0.9926000D+01 0.2930000D+01 0.9132000D+00
EXPONENTS  0.9132000D+00 0.9132000D+00 0.2672000D+00 0.2672000D+00 0.2672000D+00
EXPONENTS  0.7361000D-01 0.7361000D-01 0.7361000D-01 0.3107000D+01 0.3107000D+01
EXPONENTS  0.3107000D+01 0.3107000D+01 0.3107000D+01 0.3107000D+01 0.8550000D+00
EXPONENTS  0.8550000D+00 0.8550000D+00 0.8550000D+00 0.8550000D+00 0.8550000D+00
EXPONENTS  0.2920000D+00 0.2920000D+00 0.2920000D+00 0.2920000D+00 0.2920000D+00
EXPONENTS  0.2920000D+00 0.1917000D+01 0.1917000D+01 0.1917000D+01 0.1917000D+01
EXPONENTS  0.1917000D+01 0.1917000D+01 0.1917000D+01 0.1917000D+01 0.1917000D+01
EXPONENTS  0.1917000D+01 0.7240000D+00 0.7240000D+00 0.7240000D+00 0.7240000D+00
EXPONENTS  0.7240000D+00 0.7240000D+00 0.7240000D+00 0.7240000D+00 0.7240000D+00
EXPONENTS  0.7240000D+00 0.1950000D+05 0.2923000D+04 0.6645000D+03 0.1875000D+03
EXPONENTS  0.6062000D+02 0.2142000D+02 0.7950000D+01 0.8815000D+00 0.1950000D+05
EXPONENTS  0.2923000D+04 0.6645000D+03 0.1875000D+03 0.6062000D+02 0.2142000D+02
EXPONENTS  0.7950000D+01 0.8815000D+00 0.2257000D+01 0.3041000D+00 0.9158000D-01
EXPONENTS  0.4388000D+02 0.9926000D+01 0.2930000D+01 0.4388000D+02 0.9926000D+01
EXPONENTS  0.2930000D+01 0.4388000D+02 0.9926000D+01 0.2930000D+01 0.9132000D+00
EXPONENTS  0.9132000D+00 0.9132000D+00 0.2672000D+00 0.2672000D+00 0.2672000D+00
EXPONENTS  0.7361000D-01 0.7361000D-01 0.7361000D-01 0.3107000D+01 0.3107000D+01
EXPONENTS  0.3107000D+01 0.3107000D+01 0.3107000D+01 0.3107000D+01 0.8550000D+00
EXPONENTS  0.8550000D+00 0.8550000D+00 0.8550000D+00 0.8550000D+00 0.8550000D+00
EXPONENTS  0.2920000D+00 0.2920000D+00 0.2920000D+00 0.2920000D+00 0.2920000D+00
EXPONENTS  0.2920000D+00 0.1917000D+01 0.1917000D+01 0.1917000D+01 0.1917000D+01
EXPONENTS  0.1917000D+01 0.1917000D+01 0.1917000D+01 0.1917000D+01 0.1917000D+01
EXPONENTS  0.1917000D+01 0.7240000D+00 0.7240000D+00 0.7240000D+00 0.7240000D+00
EXPONENTS  0.7240000D+00 0.7240000D+00 0.7240000D+00 0.7240000D+00 0.7240000D+00
EXPONENTS  0.7240000D+00 0.1950000D+05 0.2923000D+04 0.6645000D+03 0.1875000D+03
EXPONENTS  0.6062000D+02 0.2142000D+02 0.7950000D+01 0.8815000D+00 0.1950000D+05
EXPONENTS  0.2923000D+04 0.6645000D+03 0.1875000D+03 0.6062000D+02 0.2142000D+02
EXPONENTS  0.7950000D+01 0.8815000D+00 0.2257000D+01 0.3041000D+00 0.9158000D-01
EXPONENTS  0.4388000D+02 0.9926000D+01 0.2930000D+01 0.4388000D+02 0.9926000D+01
EXPONENTS  0.2930000D+01 0.4388000D+02 0.9926000D+01 0.2930000D+01 0.9132000D+00
EXPONENTS  0.9132000D+00 0.9132000D+00 0.2672000D+00 0.2672000D+00 0.2672000D+00
EXPONENTS  0.7361000D-01 0.7361000D-01 0.7361000D-01 0.3107000D+01 0.3107000D+01
EXPONENTS  0.3107000D+01 0.3107000D+01 0.3107000D+01 0.3107000D+01 0.8550000D+00
EXPONENTS  0.8550000D+00 0.8550000D+00 0.8550000D+00 0.8550000D+00 0.8550000D+00
EXPONENTS  0.2920000D+00 0.2920000D+00 0.2920000D+00 0.2920000D+00 0.2920000D+00
EXPONENTS  0.2920000D+00 0.1917000D+01 0.1917000D+01 0.1917000D+01 0.1917000D+01
EXPONENTS  0.1917000D+01 0.1917000D+01 0.1917000D+01 0.1917000D+01 0.1917000D+01
EXPONENTS  0.1917000D+01 0.7240000D+00 0.7240000D+00 0.7240000D+00 0.7240000D+00
EXPONENTS  0.7240000D+00 0.7240000D+00 0.7240000D+00 0.7240000D+00 0.7240000D+00
EXPONENTS  0.7240000D+00
MO    1     MO 0.0        OCC NO =    2.0000000  ORB. ENERGY =  -67.278463
  0.50616235D+00  0.94680633D+00  0.16350920D+01  0.26410998D+01  0.39774419D+01
  0.54093022D+01  0.61579422D+01  0.49887776D+01  0.20250434D+01  0.18465610D+00
 -0.70963751D-02  0.23729767D-02  0.13316608D-03 -0.14582559D-02 -0.27294536D-02
 -0.47206950D-02 -0.76726364D-02 -0.11739071D-01 -0.16658553D-01 -0.20896771D-01
 -0.21306069D-01 -0.13090872D-01  0.28530485D-02  0.10450295D-01  0.47795968D-02
 -0.25370362D-04  0.76691604D-03  0.14344007D-02  0.24839934D-02  0.40331291D-02
  0.61907716D-02  0.87937149D-02  0.11156222D-01  0.11549704D-01  0.74394130D-02
 -0.18297623D-02 -0.74586744D-02 -0.65052619D-02  0.33154201D-02 -0.18997179D-02
 -0.96602737D-03  0.32721138D-04  0.11364320D-13  0.14990124D-13  0.16650346D-13
  0.14250349D-13  0.81425349D-14  0.26424301D-14  0.18606113D-17 -0.24751796D-14
 -0.32648895D-14 -0.36264902D-14 -0.31037644D-14 -0.17734661D-14 -0.57552840D-15
 -0.40524615D-18  0.14603834D-13  0.19263209D-13  0.21396693D-13  0.18312554D-13
  0.10463646D-13  0.33956812D-14  0.23909972D-17 -0.10132731D-13 -0.13856379D-13
 -0.15063280D-13 -0.13827303D-13 -0.75364416D-14 -0.31802336D-14  0.10968240D-14
  0.21913993D-14  0.29967103D-14  0.32577259D-14  0.29904221D-14  0.16299015D-14
  0.68778711D-15 -0.23720943D-15 -0.12991070D-13 -0.17765121D-13 -0.19312476D-13
 -0.17727843D-13 -0.96623944D-14 -0.40773448D-14  0.14062268D-14 -0.99240797D-16
  0.14743933D-16 -0.22640534D-15  0.50712662D-15  0.62698755D-16  0.71626035D-15
 -0.78134208D-17  0.38445905D-19 -0.44871681D-17 -0.29890321D-16  0.16386953D-16
  0.13503368D-16  0.64301279D-15  0.11524074D-15  0.31604570D-15 -0.89598795D-17
  0.14865627D-16 -0.59057475D-17  0.10330375D-14 -0.10410073D-15  0.70833762D-15
 -0.21977502D-16 -0.69843698D-18  0.22675939D-16  0.26649983D-16  0.37503112D-17
  0.80490032D-17 -0.52077165D-16 -0.33616530D-16 -0.12308809D-15  0.88128166D-16
  0.52255698D-17  0.15510408D-15  0.68103330D-16  0.95624019D-16  0.21416018D-15
  0.59689464D-03  0.27416088D-18 -0.58141225D-17 -0.12543044D-16  0.47006366D-17
  0.47118183D-17  0.21842795D-16 -0.55231192D-17  0.12730549D-16  0.15786338D-16
 -0.48830792D-04  0.18371915D-03  0.34246046D-03  0.58055468D-03  0.87913088D-03
  0.10993563D-02  0.94644333D-03  0.36384737D-03 -0.15766102D-05 -0.12182416D-03
 -0.22876420D-03 -0.38954598D-03 -0.61022147D-03 -0.81776856D-03 -0.87962035D-03
 -0.52812290D-03  0.34731584D-03 -0.80153701D-04 -0.54018236D-03  0.13482027D-03
 -0.63322057D-04 -0.61927589D-04 -0.40918176D-04 -0.63322057D-04 -0.61927589D-04
 -0.40918176D-04 -0.63322057D-04 -0.61927589D-04 -0.40918176D-04  0.26660430D-04
  0.26660430D-04  0.26660430D-04  0.31465268D-03  0.31465268D-03  0.31465268D-03
 -0.94860099D-05 -0.94860099D-05 -0.94860099D-05 -0.56689096D-16  0.96217573D-16
 -0.39528477D-16  0.96457177D-04  0.96457177D-04  0.96457177D-04  0.32301114D-16
 -0.24357577D-16 -0.79435368D-17 -0.66969114D-04 -0.66969114D-04 -0.66969114D-04
 -0.12882354D-16  0.17872517D-16 -0.49901623D-17 -0.16160019D-03 -0.16160019D-03
 -0.16160019D-03  0.53557538D-04  0.53557538D-04  0.53557538D-04 -0.80336307D-04
 -0.80336307D-04 -0.80336307D-04 -0.80336307D-04 -0.80336307D-04 -0.80336307D-04
 -0.46311096D-03 -0.29336667D-04 -0.29336667D-04 -0.29336667D-04  0.44005000D-04
  0.44005000D-04  0.44005000D-04  0.44005000D-04  0.44005000D-04  0.44005000D-04
  0.21903017D-03  0.18371915D-03  0.34246046D-03  0.58055468D-03  0.87913088D-03
  0.10993563D-02  0.94644333D-03  0.36384737D-03 -0.15766102D-05 -0.12182416D-03
 -0.22876420D-03 -0.38954598D-03 -0.61022147D-03 -0.81776856D-03 -0.87962035D-03
 -0.52812290D-03  0.34731584D-03 -0.80153701D-04 -0.54018236D-03  0.13482027D-03
  0.63322057D-04  0.61927589D-04  0.40918176D-04  0.63322057D-04  0.61927589D-04
  0.40918176D-04 -0.63322057D-04 -0.61927589D-04 -0.40918176D-04 -0.26660430D-04
 -0.26660430D-04  0.26660430D-04 -0.31465268D-03 -0.31465268D-03  0.31465268D-03
  0.94860099D-05  0.94860099D-05 -0.94860099D-05  0.14217511D-15 -0.99393222D-16
 -0.42781893D-16  0.96457177D-04 -0.96457177D-04 -0.96457177D-04 -0.44197278D-16
  0.34154918D-16  0.10042359D-16 -0.66969114D-04  0.66969114D-04  0.66969114D-04
  0.20530119D-16  0.38766371D-16 -0.59296489D-16 -0.16160019D-03  0.16160019D-03
  0.16160019D-03 -0.53557538D-04 -0.53557538D-04  0.53557538D-04  0.80336307D-04
  0.80336307D-04 -0.80336307D-04  0.80336307D-04  0.80336307D-04 -0.80336307D-04
 -0.46311096D-03  0.29336667D-04  0.29336667D-04 -0.29336667D-04 -0.44005000D-04
 -0.44005000D-04  0.44005000D-04 -0.44005000D-04 -0.44005000D-04  0.44005000D-04
  0.21903017D-03  0.18371915D-03  0.34246046D-03  0.58055468D-03  0.87913088D-03
  0.10993563D-02  0.94644333D-03  0.36384737D-03 -0.15766102D-05 -0.12182416D-03
 -0.22876420D-03 -0.38954598D-03 -0.61022147D-03 -0.81776856D-03 -0.87962035D-03
 -0.52812290D-03  0.34731584D-03 -0.80153701D-04 -0.54018236D-03  0.13482027D-03
  0.63322057D-04  0.61927589D-04  0.40918176D-04 -0.63322057D-04 -0.61927589D-04
 -0.40918176D-04  0.63322057D-04  0.61927589D-04  0.40918176D-04 -0.26660430D-04
  0.26660430D-04 -0.26660430D-04 -0.31465268D-03  0.31465268D-03 -0.31465268D-03
  0.94860099D-05 -0.94860099D-05  0.94860099D-05 -0.19265857D-17  0.12305495D-15
 -0.12112837D-15 -0.96457177D-04  0.96457177D-04 -0.96457177D-04  0.47811569D-16
  0.40039167D-17 -0.51815486D-16  0.66969114D-04 -0.66969114D-04  0.66969114D-04
 -0.34285335D-16 -0.54258656D-16  0.88543990D-16  0.16160019D-03 -0.16160019D-03
  0.16160019D-03 -0.53557538D-04  0.53557538D-04 -0.53557538D-04  0.80336307D-04
 -0.80336307D-04  0.80336307D-04  0.80336307D-04 -0.80336307D-04  0.80336307D-04
 -0.46311096D-03  0.29336667D-04 -0.29336667D-04  0.29336667D-04 -0.44005000D-04
  0.44005000D-04 -0.44005000D-04 -0.44005000D-04  0.44005000D-04 -0.44005000D-04
  0.21903017D-03  0.18371915D-03  0.34246046D-03  0.58055468D-03  0.87913088D-03
  0.10993563D-02  0.94644333D-03  0.36384737D-03 -0.15766102D-05 -0.12182416D-03
 -0.22876420D-03 -0.38954598D-03 -0.61022147D-03 -0.81776856D-03 -0.87962035D-03
 -0.52812290D-03  0.34731584D-03 -0.80153701D-04 -0.54018236D-03  0.13482027D-03
 -0.63322057D-04 -0.61927589D-04 -0.40918176D-04  0.63322057D-04  0.61927589D-04
  0.40918176D-04  0.63322057D-04  0.61927589D-04  0.40918176D-04  0.26660430D-04
 -0.26660430D-04 -0.26660430D-04  0.31465268D-03 -0.31465268D-03 -0.31465268D-03
 -0.94860099D-05  0.94860099D-05  0.94860099D-05 -0.52481160D-16  0.20162637D-15
 -0.14914521D-15 -0.96457177D-04 -0.96457177D-04  0.96457177D-04  0.64554439D-16
 -0.44930321D-16 -0.19624118D-16  0.66969114D-04  0.66969114D-04 -0.66969114D-04
 -0.40272688D-16  0.23684733D-16  0.16587955D-16  0.16160019D-03  0.16160019D-03
 -0.16160019D-03  0.53557538D-04 -0.53557538D-04 -0.53557538D-04 -0.80336307D-04
  0.80336307D-04  0.80336307D-04 -0.80336307D-04  0.80336307D-04  0.80336307D-04
 -0.46311096D-03 -0.29336667D-04  0.29336667D-04  0.29336667D-04  0.44005000D-04
 -0.44005000D-04 -0.44005000D-04  0.44005000D-04 -0.44005000D-04 -0.44005000D-04
  0.21903017D-03
MO    2     MO 0.0        OCC NO =    2.0000000  ORB. ENERGY =  -25.331872
  0.21697141D-12  0.40585774D-12  0.70089807D-12  0.11321331D-11  0.17049691D-11
  0.23187500D-11  0.26396618D-11  0.21384880D-11  0.86805454D-12  0.79154634D-13
 -0.30419302D-14  0.10171995D-14  0.57082933D-16 -0.37508388D-12 -0.70205374D-12
 -0.12142289D-11 -0.19735097D-11 -0.30194537D-11 -0.42848135D-11 -0.53749426D-11
 -0.54802197D-11 -0.33671559D-11  0.73384409D-12  0.26879623D-11  0.12293793D-11
 -0.65256128D-14  0.22541777D-12  0.42160992D-12  0.73011414D-12  0.11854478D-11
  0.18196384D-11  0.25847152D-11  0.32791212D-11  0.33947765D-11  0.21866486D-11
 -0.53781759D-12 -0.21923100D-11 -0.19120758D-11  0.97449336D-12 -0.59224674D-12
 -0.45835654D-11  0.89347995D-13  0.15497591D-02  0.20442121D-02  0.22706174D-02
  0.19433285D-02  0.11104023D-02  0.36034974D-03  0.25373266D-06  0.13420764D-02
  0.17702680D-02  0.19663328D-02  0.16829038D-02  0.96159768D-03  0.31205941D-03
  0.21973004D-06 -0.11203936D-02 -0.14778569D-02 -0.16415359D-02 -0.14049234D-02
 -0.80276193D-03 -0.26051375D-03 -0.18343525D-06 -0.12624799D-02 -0.17264250D-02
 -0.18767979D-02 -0.17228023D-02 -0.93899721D-03 -0.39623879D-03  0.13665795D-03
 -0.10932954D-02 -0.14950674D-02 -0.16252889D-02 -0.14919302D-02 -0.81316255D-03
 -0.34313898D-03  0.11834447D-03  0.91270597D-03  0.12481137D-02  0.13568253D-02
  0.12454947D-02  0.67884516D-03  0.28645962D-03 -0.98796449D-04  0.96625331D-04
  0.83676606D-04 -0.69854987D-04 -0.49557922D-04 -0.42916684D-04  0.35827748D-04
  0.24900055D-06  0.21563208D-06 -0.18001419D-06 -0.12497197D-14 -0.11883197D-14
  0.24380394D-14  0.58931487D-04 -0.70591765D-04 -0.81515646D-04 -0.62544870D-15
 -0.58285265D-15  0.12083014D-14  0.72259785D-04 -0.86557221D-04 -0.99951712D-04
 -0.66134183D-15 -0.65036893D-15  0.13117108D-14  0.32072045D-05 -0.38417871D-05
 -0.44362931D-05  0.53361129D-04  0.46210224D-04 -0.38577265D-04 -0.80041693D-04
 -0.69315336D-04  0.57865898D-04 -0.80041693D-04 -0.69315336D-04  0.57865898D-04
  0.10903639D-11  0.27221332D-05  0.23573411D-05 -0.19679578D-05 -0.40831997D-05
 -0.35360117D-05  0.29519368D-05 -0.40831997D-05 -0.35360117D-05  0.29519368D-05
 -0.23680512D-12 -0.22529351D+00 -0.41995686D+00 -0.71193012D+00 -0.10780720D+01
 -0.13481329D+01 -0.11606168D+01 -0.44618347D+00  0.19333860D-02 -0.25320883D-03
 -0.47548133D-03 -0.80966270D-03 -0.12683318D-02 -0.16997139D-02 -0.18282714D-02
 -0.10976918D-02  0.72188829D-03 -0.23578350D-01 -0.36850013D-03  0.12855000D-03
  0.14418644D-02  0.14101119D-02  0.93172054D-03  0.14407258D-02  0.14089984D-02
  0.93098478D-03  0.14272254D-02  0.13957953D-02  0.92226096D-03 -0.20674679D-03
 -0.20999598D-03 -0.24852128D-03 -0.11180477D-04  0.55800388D-06  0.13973988D-03
 -0.98902263D-05 -0.91108539D-05  0.13007778D-06 -0.64519480D-04 -0.50551090D-04
  0.11507057D-03 -0.54099277D-03 -0.21358894D-03 -0.18597598D-03  0.21835160D-04
  0.17107874D-04 -0.38943033D-04  0.17958422D-03  0.70084367D-04  0.60849243D-04
  0.17094165D-04  0.13393298D-04 -0.30487463D-04  0.16820474D-04 -0.58438569D-04
 -0.64785853D-04  0.35166710D-04  0.37594058D-04  0.66374858D-04  0.16561864D-03
  0.18039465D-03 -0.81145256D-04 -0.27111877D-03 -0.29317683D-03 -0.11797932D-03
 -0.82751731D-04 -0.83796287D-05 -0.93865268D-05 -0.21325207D-04 -0.84626714D-04
 -0.91313809D-04  0.23790369D-04  0.10976560D-03  0.11947339D-03  0.40185252D-04
  0.24690159D-04  0.51027875D+00  0.95118170D+00  0.16124868D+01  0.24417803D+01
  0.30534548D+01  0.26287402D+01  0.10105837D+01 -0.43790246D-02  0.57350558D-03
  0.10769419D-02  0.18338463D-02  0.28727094D-02  0.38497686D-02  0.41409452D-02
  0.24862181D-02 -0.16350416D-02  0.53403806D-01  0.83463475D-03 -0.29115943D-03
  0.32550046D-02  0.31833234D-02  0.21033563D-02  0.32538659D-02  0.31822098D-02
  0.21026206D-02 -0.32526506D-02 -0.31810212D-02 -0.21018352D-02 -0.49894129D-03
 -0.50219048D-03  0.50565870D-03  0.85479281D-04  0.97217762D-04 -0.10974755D-03
 -0.15044183D-04 -0.14264811D-04  0.13432900D-04  0.14282267D-04  0.31387733D-06
 -0.14596145D-04  0.73895961D-03 -0.70948521D-03 -0.68187225D-03 -0.48335106D-05
 -0.10622469D-06  0.49397353D-05 -0.24408605D-03  0.23422837D-03  0.22499324D-03
 -0.37840267D-05 -0.83160485D-07  0.38671871D-05  0.73700704D-04 -0.80475868D-04
 -0.86823152D-04  0.10256323D-03  0.10499058D-03 -0.10758156D-03 -0.13418629D-03
 -0.11941028D-03  0.14295531D-03 -0.17350340D-03 -0.19556145D-03  0.17978937D-03
  0.18742862D-03 -0.28483816D-04 -0.29490714D-04  0.30565489D-04  0.33975680D-04
  0.27288586D-04 -0.37650792D-04  0.51475768D-04  0.61183557D-04 -0.54045675D-04
 -0.55922001D-04 -0.11607936D+00 -0.21637696D+00 -0.36681215D+00 -0.55546170D+00
 -0.69460680D+00 -0.59799175D+00 -0.22988986D+00  0.99615040D-03 -0.13046234D-03
 -0.24498518D-03 -0.41716751D-03 -0.65349043D-03 -0.87575405D-03 -0.94199156D-03
 -0.56557050D-03  0.37194295D-03 -0.12148419D-01 -0.18986460D-03  0.66233608D-04
 -0.73002652D-03 -0.71394999D-03 -0.47173694D-03  0.74588086D-03  0.72945519D-03
  0.48198188D-03 -0.74466549D-03 -0.72826659D-03 -0.48119653D-03  0.14326177D-03
 -0.98019053D-04  0.10148728D-03 -0.12696549D-03 -0.36484661D-04  0.23954869D-04
 -0.37164987D-05 -0.71357164D-05  0.63038053D-05  0.12469671D-03 -0.69803364D-04
 -0.54893342D-04  0.53022316D-04 -0.23547921D-04  0.40803911D-03 -0.42200782D-04
  0.23623371D-04  0.18577411D-04 -0.17037573D-04  0.71798940D-05 -0.13577255D-03
 -0.33037868D-04  0.18494108D-04  0.14543760D-04  0.43218108D-04 -0.49993273D-04
 -0.38388219D-04 -0.45564994D-04  0.11765867D-04 -0.14356846D-04  0.48688938D-04
 -0.25443454D-03  0.27797956D-03  0.88006045D-04  0.21913694D-03 -0.23490902D-03
 -0.42636684D-04  0.15702405D-04 -0.16820519D-05  0.27568268D-05 -0.14803564D-04
  0.10791668D-03 -0.11827888D-03 -0.32303652D-04 -0.10287052D-03  0.11000840D-03
  0.12721263D-04 -0.16890588D+00 -0.31484787D+00 -0.53374454D+00 -0.80824654D+00
 -0.10107151D+01 -0.87013158D+00 -0.33451035D+00  0.14494881D-02 -0.18983440D-03
 -0.35647538D-03 -0.60701610D-03 -0.95088713D-03 -0.12743006D-02 -0.13706821D-02
 -0.82295575D-03  0.54121033D-03 -0.17677038D-01 -0.27627000D-03  0.96375834D-04
  0.10831136D-02  0.10592614D-02  0.69989882D-03 -0.10672593D-02 -0.10437562D-02
 -0.68965388D-03 -0.10807596D-02 -0.10569593D-02 -0.69837771D-03 -0.14893272D-03
  0.19417544D-03  0.15565014D-03 -0.30305731D-04 -0.13314442D-03  0.60374580D-05
 -0.88704561D-05 -0.19817591D-05  0.72591726D-05 -0.74459494D-04  0.12004058D-03
 -0.45581082D-04  0.14494451D-03  0.47234834D-03 -0.87857158D-04  0.25199133D-04
 -0.40625020D-04  0.15425887D-04 -0.47464254D-04 -0.15696410D-03  0.28371450D-04
  0.19727730D-04 -0.31804246D-04  0.12076516D-04  0.47303069D-04 -0.27955974D-04
 -0.60425518D-04  0.21831527D-04 -0.55630655D-04 -0.26849855D-04 -0.25111600D-03
  0.45370397D-04 -0.21616951D-03  0.18562142D-03  0.12152157D-03  0.29671908D-03
 -0.62040196D-04 -0.44017822D-05  0.18422135D-04  0.64834551D-05  0.10379883D-03
 -0.10685717D-04  0.10441846D-03 -0.90593484D-04 -0.44580689D-04 -0.12386883D-03
  0.18510578D-04
MO    3     MO 0.0        OCC NO =    2.0000000  ORB. ENERGY =  -25.331872
 -0.78048968D-15 -0.14599517D-14 -0.25212709D-14 -0.40725098D-14 -0.61331160D-14
 -0.83410088D-14 -0.94953928D-14 -0.76925703D-14 -0.31225663D-14 -0.28473509D-15
  0.10942433D-16 -0.36590708D-17 -0.20533876D-18  0.15789037D-14  0.29552730D-14
  0.51112583D-14  0.83074264D-14  0.12710295D-13  0.18036787D-13  0.22625651D-13
  0.23068811D-13  0.14173936D-13 -0.30890934D-14 -0.11314892D-13 -0.51750333D-14
  0.27469361D-16 -0.82245037D-15 -0.15382693D-14 -0.26638656D-14 -0.43251782D-14
 -0.66390610D-14 -0.94304901D-14 -0.11964072D-13 -0.12386048D-13 -0.79781197D-14
  0.19622600D-14  0.79987759D-14  0.69763243D-14 -0.35554980D-14 -0.23219463D-13
  0.17855880D-12  0.14272971D-14 -0.15030680D-03 -0.19826241D-03 -0.22022084D-03
 -0.18847800D-03 -0.10769481D-03 -0.34949314D-04 -0.24608821D-07 -0.13893975D-02
 -0.18326869D-02 -0.20356649D-02 -0.17422422D-02 -0.99550321D-03 -0.32306249D-03
 -0.22747763D-06 -0.18722143D-02 -0.24695472D-02 -0.27430603D-02 -0.23476730D-02
 -0.13414415D-02 -0.43532700D-03 -0.30652631D-06  0.12244439D-03  0.16744113D-03
  0.18202538D-03  0.16708978D-03  0.91070714D-04  0.38430092D-04 -0.13254073D-04
  0.11318446D-02  0.15477829D-02  0.16825959D-02  0.15445350D-02  0.84183431D-03
  0.35523791D-03 -0.12251725D-03  0.15251616D-02  0.20856388D-02  0.22672995D-02
  0.20812623D-02  0.11343725D-02  0.47868341D-03 -0.16509210D-03 -0.93714206D-05
 -0.86627008D-04 -0.11672997D-03  0.48064843D-05  0.44429908D-04  0.59869340D-04
 -0.24149867D-07 -0.22323518D-06 -0.30080960D-06 -0.69964680D-15 -0.67216536D-15
  0.13718122D-14  0.98476444D-04  0.73080800D-04  0.79059745D-05 -0.88621421D-16
 -0.11949012D-15  0.20811154D-15  0.12074847D-03  0.89609192D-04  0.96940371D-05
 -0.49133282D-15 -0.48770378D-15  0.97903660D-15  0.53593438D-05  0.39772469D-05
  0.43026366D-06 -0.51753467D-05 -0.47839577D-04 -0.64463873D-04  0.77630200D-05
  0.71759365D-04  0.96695809D-04  0.77630200D-05  0.71759365D-04  0.96695809D-04
  0.21466796D-13 -0.26401208D-06 -0.24404600D-05 -0.32885220D-05  0.39601812D-06
  0.36606900D-05  0.49327830D-05  0.39601812D-06  0.36606900D-05  0.49327830D-05
  0.41526194D-14  0.43393075D+00  0.80886572D+00  0.13712263D+01  0.20764407D+01
  0.25965964D+01  0.22354276D+01  0.85937998D+00 -0.37238341D-02  0.48769757D-03
  0.91580966D-03  0.15594659D-02  0.24428941D-02  0.32737655D-02  0.35213762D-02
  0.21142296D-02 -0.13904064D-02  0.45413519D-01  0.70975654D-03 -0.24759611D-03
 -0.27615890D-02 -0.27007737D-02 -0.17845154D-02 -0.27683822D-02 -0.27074174D-02
 -0.17889051D-02 -0.27710293D-02 -0.27100061D-02 -0.17906156D-02  0.44255632D-03
  0.42317077D-03  0.41561711D-03 -0.13868276D-03 -0.68647814D-04 -0.41358403D-04
  0.84116939D-05  0.13061640D-04  0.14873511D-04 -0.66383948D-04  0.16955242D-04
  0.49428706D-04  0.50614801D-03  0.57034213D-03  0.73508851D-03  0.22466147D-04
 -0.57381183D-05 -0.16728028D-04 -0.16668003D-03 -0.18814968D-03 -0.24324893D-03
  0.17588148D-04 -0.44922200D-05 -0.13095928D-04  0.90774339D-04  0.76018286D-04
  0.38148676D-04 -0.10086408D-03 -0.86381867D-04 -0.80738811D-04  0.19411171D-03
  0.28226937D-03  0.23098920D-03  0.10848054D-03 -0.23123772D-04  0.11227231D-04
  0.15938551D-03  0.29882772D-04  0.23875346D-04  0.21534527D-04 -0.63881424D-04
 -0.10377843D-03 -0.81209941D-04 -0.25766893D-04  0.32152397D-04  0.16606359D-04
 -0.47554941D-04  0.42288918D-01  0.78828375D-01  0.13363348D+00  0.20236047D+00
  0.25305247D+00  0.21785461D+00  0.83751265D-01 -0.36290794D-03  0.47528787D-04
  0.89250645D-04  0.15197846D-03  0.23807335D-03  0.31904630D-03  0.34317731D-03
  0.20604321D-03 -0.13550268D-03  0.44257951D-02  0.69169645D-04 -0.24129591D-04
  0.26822755D-03  0.26232068D-03  0.17332637D-03  0.26143430D-03  0.25567703D-03
  0.16893662D-03 -0.27931592D-03 -0.27316487D-03 -0.18049158D-03 -0.45710245D-04
 -0.65095797D-04  0.14067937D-04  0.22838855D-04  0.92873805D-04  0.91476562D-04
 -0.20073738D-06  0.44492085D-05  0.77906693D-05 -0.17564079D-04 -0.10090327D-03
  0.11846735D-03 -0.17533895D-03 -0.25831677D-03 -0.93570388D-04  0.59441656D-05
  0.34148430D-04 -0.40092596D-04  0.58895362D-04  0.86140317D-04  0.31041069D-04
  0.46535288D-05  0.26733896D-04 -0.31387425D-04  0.60489513D-04  0.39193238D-04
  0.13236280D-05  0.11757712D-04  0.26239927D-04  0.11881064D-04 -0.30687216D-03
 -0.21871449D-03 -0.12770258D-03  0.27159902D-03  0.13999471D-03  0.92059390D-04
  0.15532987D-04 -0.37119829D-05 -0.97194094D-05 -0.60937135D-05  0.13430706D-03
  0.94410049D-04  0.58048720D-04 -0.12317111D-03 -0.65251821D-04 -0.39767580D-04
 -0.46344884D-05 -0.80521214D-01 -0.15009503D+00 -0.25444798D+00 -0.38530923D+00
 -0.48183055D+00 -0.41481122D+00 -0.15946858D+00  0.69100344D-03 -0.90498311D-04