 Molden2AIM, Version 4.0.0 (06/02/2016)           Time: Tue Jul  3 03:36:05 2018
GAUSSIAN              9 MOL ORBITALS    239 PRIMITIVES        5 NUCLEI
  Si   1    (CENTRE  1)   0.00000000  0.00000000  0.00000000  CHARGE = 14.0
  H    2    (CENTRE  2)   1.63215834  1.63215834  1.63215834  CHARGE =  1.0
  H    3    (CENTRE  3)  -1.63215834 -1.63215834  1.63215834  CHARGE =  1.0
  H    4    (CENTRE  4)  -1.63215834  1.63215834 -1.63215834  CHARGE =  1.0
  H    5    (CENTRE  5)   1.63215834 -1.63215834 -1.63215834  CHARGE =  1.0
CENTRE ASSIGNMENTS    1  1  1  1  1  1  1  1  1  1  1  1  1  1  1  1  1  1  1  1
CENTRE ASSIGNMENTS    1  1  1  1  1  1  1  1  1  1  1  1  1  1  1  1  1  1  1  1
CENTRE ASSIGNMENTS    1  1  1  1  1  1  1  1  1  1  1  1  1  1  1  1  1  1  1  1
CENTRE ASSIGNMENTS    1  1  1  1  1  1  1  1  1  1  1  1  1  1  1  1  1  1  1  1
CENTRE ASSIGNMENTS    1  1  1  1  1  1  1  1  1  1  1  1  1  1  1  1  1  1  1  1
CENTRE ASSIGNMENTS    1  1  1  1  1  1  1  1  1  1  1  1  1  1  1  1  1  1  1  1
CENTRE ASSIGNMENTS    1  1  1  1  1  1  1  1  1  1  1  2  2  2  2  2  2  2  2  2
CENTRE ASSIGNMENTS    2  2  2  2  2  2  2  2  2  2  2  2  2  2  2  2  2  2  3  3
CENTRE ASSIGNMENTS    3  3  3  3  3  3  3  3  3  3  3  3  3  3  3  3  3  3  3  3
CENTRE ASSIGNMENTS    3  3  3  3  3  4  4  4  4  4  4  4  4  4  4  4  4  4  4  4
CENTRE ASSIGNMENTS    4  4  4  4  4  4  4  4  4  4  4  4  5  5  5  5  5  5  5  5
CENTRE ASSIGNMENTS    5  5  5  5  5  5  5  5  5  5  5  5  5  5  5  5  5  5  5
TYPE ASSIGNMENTS      1  1  1  1  1  1  1  1  1  1  1  1  1  1  1  1  1  1  1  1
TYPE ASSIGNMENTS      1  1  1  1  1  1  1  1  1  1  1  1  1  1  1  1  1  1  1  1
TYPE ASSIGNMENTS      1  1  2  2  2  2  2  2  2  3  3  3  3  3  3  3  4  4  4  4
TYPE ASSIGNMENTS      4  4  4  2  2  2  2  2  2  2  3  3  3  3  3  3  3  4  4  4
TYPE ASSIGNMENTS      4  4  4  4  2  3  4  2  3  4  2  3  4  5  6  7  8  9 10  5
TYPE ASSIGNMENTS      6  7  8  9 10  5  6  7  8  9 10 11 12 13 17 14 15 18 19 16
TYPE ASSIGNMENTS     20 11 12 13 17 14 15 18 19 16 20  1  1  1  1  1  1  2  3  4
TYPE ASSIGNMENTS      2  3  4  2  3  4  5  6  7  8  9 10  5  6  7  8  9 10  1  1
TYPE ASSIGNMENTS      1  1  1  1  2  3  4  2  3  4  2  3  4  5  6  7  8  9 10  5
TYPE ASSIGNMENTS      6  7  8  9 10  1  1  1  1  1  1  2  3  4  2  3  4  2  3  4
TYPE ASSIGNMENTS      5  6  7  8  9 10  5  6  7  8  9 10  1  1  1  1  1  1  2  3
TYPE ASSIGNMENTS      4  2  3  4  2  3  4  5  6  7  8  9 10  5  6  7  8  9 10
EXPONENTS  0.2549000D+06 0.3819000D+05 0.8690000D+04 0.2462000D+04 0.8048000D+03
EXPONENTS  0.2913000D+03 0.1136000D+03 0.4675000D+02 0.1982000D+02 0.7708000D+01
EXPONENTS  0.3340000D+01 0.1402000D+01 0.2070000D+00 0.2549000D+06 0.3819000D+05
EXPONENTS  0.8690000D+04 0.2462000D+04 0.8048000D+03 0.2913000D+03 0.1136000D+03
EXPONENTS  0.4675000D+02 0.1982000D+02 0.7708000D+01 0.3340000D+01 0.1402000D+01
EXPONENTS  0.2070000D+00 0.2549000D+06 0.3819000D+05 0.8690000D+04 0.2462000D+04
EXPONENTS  0.8048000D+03 0.2913000D+03 0.1136000D+03 0.4675000D+02 0.1982000D+02
EXPONENTS  0.7708000D+01 0.3340000D+01 0.1402000D+01 0.2070000D+00 0.4387000D+00
EXPONENTS  0.7944000D-01 0.3300000D-01 0.4815000D+03 0.1139000D+03 0.3623000D+02
EXPONENTS  0.1334000D+02 0.5252000D+01 0.2120000D+01 0.2528000D+00 0.4815000D+03
EXPONENTS  0.1139000D+03 0.3623000D+02 0.1334000D+02 0.5252000D+01 0.2120000D+01
EXPONENTS  0.2528000D+00 0.4815000D+03 0.1139000D+03 0.3623000D+02 0.1334000D+02
EXPONENTS  0.5252000D+01 0.2120000D+01 0.2528000D+00 0.4815000D+03 0.1139000D+03
EXPONENTS  0.3623000D+02 0.1334000D+02 0.5252000D+01 0.2120000D+01 0.2528000D+00
EXPONENTS  0.4815000D+03 0.1139000D+03 0.3623000D+02 0.1334000D+02 0.5252000D+01
EXPONENTS  0.2120000D+01 0.2528000D+00 0.4815000D+03 0.1139000D+03 0.3623000D+02
EXPONENTS  0.1334000D+02 0.5252000D+01 0.2120000D+01 0.2528000D+00 0.8561000D+00
EXPONENTS  0.8561000D+00 0.8561000D+00 0.7889000D-01 0.7889000D-01 0.7889000D-01
EXPONENTS  0.2370000D-01 0.2370000D-01 0.2370000D-01 0.1590000D+00 0.1590000D+00
EXPONENTS  0.1590000D+00 0.1590000D+00 0.1590000D+00 0.1590000D+00 0.4810000D+00
EXPONENTS  0.4810000D+00 0.4810000D+00 0.4810000D+00 0.4810000D+00 0.4810000D+00
EXPONENTS  0.5560000D-01 0.5560000D-01 0.5560000D-01 0.5560000D-01 0.5560000D-01
EXPONENTS  0.5560000D-01 0.3360000D+00 0.3360000D+00 0.3360000D+00 0.3360000D+00
EXPONENTS  0.3360000D+00 0.3360000D+00 0.3360000D+00 0.3360000D+00 0.3360000D+00
EXPONENTS  0.3360000D+00 0.1250000D+00 0.1250000D+00 0.1250000D+00 0.1250000D+00
EXPONENTS  0.1250000D+00 0.1250000D+00 0.1250000D+00 0.1250000D+00 0.1250000D+00
EXPONENTS  0.1250000D+00 0.3387000D+02 0.5095000D+01 0.1159000D+01 0.3258000D+00
EXPONENTS  0.1027000D+00 0.2526000D-01 0.1407000D+01 0.1407000D+01 0.1407000D+01
EXPONENTS  0.3880000D+00 0.3880000D+00 0.3880000D+00 0.1020000D+00 0.1020000D+00
EXPONENTS  0.1020000D+00 0.1057000D+01 0.1057000D+01 0.1057000D+01 0.1057000D+01
EXPONENTS  0.1057000D+01 0.1057000D+01 0.2470000D+00 0.2470000D+00 0.2470000D+00
EXPONENTS  0.2470000D+00 0.2470000D+00 0.2470000D+00 0.3387000D+02 0.5095000D+01
EXPONENTS  0.1159000D+01 0.3258000D+00 0.1027000D+00 0.2526000D-01 0.1407000D+01
EXPONENTS  0.1407000D+01 0.1407000D+01 0.3880000D+00 0.3880000D+00 0.3880000D+00
EXPONENTS  0.1020000D+00 0.1020000D+00 0.1020000D+00 0.1057000D+01 0.1057000D+01
EXPONENTS  0.1057000D+01 0.1057000D+01 0.1057000D+01 0.1057000D+01 0.2470000D+00
EXPONENTS  0.2470000D+00 0.2470000D+00 0.2470000D+00 0.2470000D+00 0.2470000D+00
EXPONENTS  0.3387000D+02 0.5095000D+01 0.1159000D+01 0.3258000D+00 0.1027000D+00
EXPONENTS  0.2526000D-01 0.1407000D+01 0.1407000D+01 0.1407000D+01 0.3880000D+00
EXPONENTS  0.3880000D+00 0.3880000D+00 0.1020000D+00 0.1020000D+00 0.1020000D+00
EXPONENTS  0.1057000D+01 0.1057000D+01 0.1057000D+01 0.1057000D+01 0.1057000D+01
EXPONENTS  0.1057000D+01 0.2470000D+00 0.2470000D+00 0.2470000D+00 0.2470000D+00
EXPONENTS  0.2470000D+00 0.2470000D+00 0.3387000D+02 0.5095000D+01 0.1159000D+01
EXPONENTS  0.3258000D+00 0.1027000D+00 0.2526000D-01 0.1407000D+01 0.1407000D+01
EXPONENTS  0.1407000D+01 0.3880000D+00 0.3880000D+00 0.3880000D+00 0.1020000D+00
EXPONENTS  0.1020000D+00 0.1020000D+00 0.1057000D+01 0.1057000D+01 0.1057000D+01
EXPONENTS  0.1057000D+01 0.1057000D+01 0.1057000D+01 0.2470000D+00 0.2470000D+00
EXPONENTS  0.2470000D+00 0.2470000D+00 0.2470000D+00 0.2470000D+00
MO    1     MO 0.0        OCC NO =    2.0000000  ORB. ENERGY =  -67.100890
  0.50617451D+00  0.94682907D+00  0.16351313D+01  0.26411632D+01  0.39775375D+01
  0.54094322D+01  0.61580901D+01  0.49888975D+01  0.20250920D+01  0.18466054D+00
 -0.70965456D-02  0.23730337D-02  0.13316927D-03 -0.14838127D-02 -0.27772889D-02
 -0.48034280D-02 -0.78071039D-02 -0.11944805D-01 -0.16950504D-01 -0.21263000D-01
 -0.21679470D-01 -0.13320298D-01  0.29030499D-02  0.10633442D-01  0.48633621D-02
 -0.25814993D-04  0.77824668D-03  0.14555930D-02  0.25206926D-02  0.40927157D-02
  0.62822359D-02  0.89236358D-02  0.11321047D-01  0.11720343D-01  0.75493250D-02
 -0.18567958D-02 -0.75688710D-02 -0.66013725D-02  0.33644031D-02 -0.17421571D-02
 -0.56668118D-02  0.29381369D-03  0.19295712D-14  0.25452039D-14  0.28270963D-14
  0.24195959D-14  0.13825377D-14  0.44866361D-15  0.31591700D-18  0.52829840D-14
  0.69685282D-14  0.77403230D-14  0.66246255D-14  0.37852577D-14  0.12283987D-14
  0.86495095D-18 -0.28290966D-14 -0.37317242D-14 -0.41450288D-14 -0.35475604D-14
 -0.20270475D-14 -0.65782111D-15 -0.46319083D-18 -0.16716652D-14 -0.22859807D-14
 -0.24850912D-14 -0.22811838D-14 -0.12433378D-14 -0.52466467D-15  0.18095048D-15
 -0.45078131D-14 -0.61643764D-14 -0.67012981D-14 -0.61514412D-14 -0.33527852D-14
 -0.14148110D-14  0.48795115D-15  0.23833383D-14  0.32591845D-14  0.35430618D-14
  0.32523455D-14  0.17726603D-14  0.74802862D-15 -0.25798600D-15 -0.93751920D-17
 -0.19681881D-15  0.11729366D-15  0.21815333D-15  0.49929280D-15 -0.36578828D-15
 -0.53326360D-17  0.49138229D-17 -0.27962513D-16 -0.89178878D-16  0.32296571D-16
  0.56882307D-16 -0.22449519D-15  0.14404084D-15 -0.89258640D-16 -0.34906159D-17
 -0.89395224D-17  0.12430138D-16 -0.11166194D-15  0.19069625D-15  0.43781477D-16
 -0.79332453D-17  0.42758347D-17  0.36574106D-17 -0.33527070D-16  0.11478643D-16
 -0.11365414D-16  0.10889990D-16 -0.21162224D-16  0.29412403D-16 -0.20269999D-16
  0.43879389D-16 -0.46596840D-16 -0.12399970D-16  0.19607282D-16 -0.41640369D-16
  0.63801085D-03  0.97265196D-17  0.25191582D-17  0.92697077D-17 -0.16013557D-16
  0.17506333D-17 -0.12262061D-16 -0.13166002D-16 -0.93081078D-17 -0.15547063D-16
 -0.13086778D-03  0.29273440D-04  0.52795854D-04  0.77847456D-04 -0.39120336D-03
  0.16954104D-02 -0.26285452D-04 -0.72701355D-04 -0.72701355D-04 -0.72701355D-04
  0.29722767D-03  0.29722767D-03  0.29722767D-03 -0.14202848D-03 -0.14202848D-03
 -0.14202848D-03  0.58157075D-17  0.83697518D-17 -0.14185459D-16 -0.16975759D-03
 -0.16975759D-03 -0.16975759D-03 -0.67549240D-17 -0.98629014D-17  0.16617825D-16
 -0.71260308D-04 -0.71260308D-04 -0.71260308D-04  0.29273440D-04  0.52795854D-04
  0.77847456D-04 -0.39120336D-03  0.16954104D-02 -0.26285452D-04  0.72701355D-04
  0.72701355D-04 -0.72701355D-04 -0.29722767D-03 -0.29722767D-03  0.29722767D-03
  0.14202848D-03  0.14202848D-03 -0.14202848D-03  0.52218825D-16 -0.33690569D-17
 -0.48849768D-16 -0.16975759D-03  0.16975759D-03  0.16975759D-03 -0.58013079D-16
  0.85633238D-17  0.49449755D-16 -0.71260308D-04  0.71260308D-04  0.71260308D-04
  0.29273440D-04  0.52795854D-04  0.77847456D-04 -0.39120336D-03  0.16954104D-02
 -0.26285452D-04  0.72701355D-04 -0.72701355D-04  0.72701355D-04 -0.29722767D-03
  0.29722767D-03 -0.29722767D-03  0.14202848D-03 -0.14202848D-03  0.14202848D-03
  0.25026839D-16 -0.22172309D-16 -0.28545301D-17  0.16975759D-03 -0.16975759D-03
  0.16975759D-03 -0.22311769D-16  0.28853640D-16 -0.65418708D-17  0.71260308D-04
 -0.71260308D-04  0.71260308D-04  0.29273440D-04  0.52795854D-04  0.77847456D-04
 -0.39120336D-03  0.16954104D-02 -0.26285452D-04 -0.72701355D-04  0.72701355D-04
  0.72701355D-04  0.29722767D-03 -0.29722767D-03 -0.29722767D-03 -0.14202848D-03
  0.14202848D-03  0.14202848D-03  0.32310445D-16 -0.81389308D-17 -0.24171514D-16
  0.16975759D-03  0.16975759D-03 -0.16975759D-03 -0.11963057D-16  0.76416081D-17
  0.43214488D-17  0.71260308D-04  0.71260308D-04 -0.71260308D-04
MO    2     MO 0.0        OCC NO =    2.0000000  ORB. ENERGY =   -5.608988
 -0.20552531D-02 -0.38444714D-02 -0.66392293D-02 -0.10724086D-01 -0.16150253D-01
 -0.21964267D-01 -0.25004092D-01 -0.20256743D-01 -0.82226123D-02 -0.74978914D-03
  0.28814563D-04 -0.96353824D-05 -0.54071582D-06 -0.13097429D+00 -0.24514781D+00
 -0.42399256D+00 -0.68912327D+00 -0.10543530D+01 -0.14961998D+01 -0.18768583D+01
 -0.19136197D+01 -0.11757660D+01  0.25624857D+00  0.93860061D+00  0.42928287D+00
 -0.22786570D-02 -0.13152324D-02 -0.24599437D-02 -0.42599559D-02 -0.69166659D-02
 -0.10616942D-01 -0.15080893D-01 -0.19132505D-01 -0.19807312D-01 -0.12758316D-01
  0.31379741D-02  0.12791348D-01  0.11156281D-01 -0.56858217D-02  0.25826321D-01
  0.85021547D-02 -0.68015403D-03 -0.10318323D-12 -0.13610400D-12 -0.15117811D-12
 -0.12938715D-12 -0.73930779D-13 -0.23992149D-13 -0.16893565D-16  0.54432016D-13
  0.71798635D-13  0.79750646D-13  0.68255312D-13  0.39000537D-13  0.12656524D-13
  0.89118241D-17  0.17249343D-12  0.22752772D-12  0.25272741D-12  0.21629904D-12
  0.12359153D-12  0.40108146D-13  0.28241304D-16  0.91335926D-13  0.12490070D-12
  0.13577965D-12  0.12463862D-12  0.67933107D-13  0.28666466D-13 -0.98867166D-14
 -0.48406510D-13 -0.66195280D-13 -0.71960937D-13 -0.66056377D-13 -0.36003408D-13
 -0.15192747D-13  0.52397941D-14 -0.14706032D-12 -0.20110310D-12 -0.21861933D-12
 -0.20068111D-12 -0.10937935D-12 -0.46155987D-13  0.15918640D-13  0.24073775D-14
 -0.21871011D-14 -0.74332094D-14 -0.39756361D-14  0.74435905D-14  0.19349587D-13
 -0.49323306D-15  0.28746027D-15  0.87064775D-15 -0.19637765D-14  0.13276301D-14
  0.63614642D-15  0.10318601D-13  0.18441084D-14 -0.47298500D-14  0.10252016D-15
  0.12710876D-15 -0.22962892D-15  0.61165211D-14  0.11541757D-14 -0.63230829D-14
 -0.20953092D-15  0.12019254D-15  0.89338381D-16  0.13664273D-14  0.31465307D-15
 -0.65860415D-15  0.60197411D-15 -0.88454855D-16 -0.11813826D-14 -0.74429292D-15
 -0.62220019D-15  0.18608345D-14 -0.10616294D-14  0.88756475D-15  0.16833134D-14
 -0.67736339D-03  0.17745143D-15  0.17859572D-16 -0.29664147D-15 -0.50572317D-16
 -0.35839688D-15  0.55382973D-15 -0.48178196D-15  0.30481816D-15  0.33609466D-15
  0.15372791D-03  0.36825241D-05  0.66415839D-05  0.97930116D-05  0.63775423D-03
 -0.23716499D-02  0.66030747D-04  0.59830112D-04  0.59830112D-04  0.59830112D-04
 -0.35436627D-03 -0.35436627D-03 -0.35436627D-03  0.21495036D-03  0.21495036D-03
  0.21495036D-03 -0.44992092D-16 -0.87488553D-16  0.13248064D-15  0.36711769D-03
  0.36711769D-03  0.36711769D-03 -0.19535514D-15  0.44153299D-15 -0.24617785D-15
  0.45191371D-04  0.45191371D-04  0.45191371D-04  0.36825241D-05  0.66415839D-05
  0.97930116D-05  0.63775423D-03 -0.23716499D-02  0.66030747D-04 -0.59830112D-04
 -0.59830112D-04  0.59830112D-04  0.35436627D-03  0.35436627D-03 -0.35436627D-03
 -0.21495036D-03 -0.21495036D-03  0.21495036D-03  0.59256118D-15 -0.40943945D-15
 -0.18312173D-15  0.36711769D-03 -0.36711769D-03 -0.36711769D-03 -0.22510825D-15
  0.54301591D-15 -0.31790766D-15  0.45191371D-04 -0.45191371D-04 -0.45191371D-04
  0.36825241D-05  0.66415839D-05  0.97930116D-05  0.63775423D-03 -0.23716499D-02
  0.66030747D-04 -0.59830112D-04  0.59830112D-04 -0.59830112D-04  0.35436627D-03
 -0.35436627D-03  0.35436627D-03 -0.21495036D-03  0.21495036D-03 -0.21495036D-03
  0.17975558D-14 -0.40295581D-15 -0.13946000D-14 -0.36711769D-03  0.36711769D-03
 -0.36711769D-03 -0.19571688D-14  0.35492242D-15  0.16022464D-14 -0.45191371D-04
  0.45191371D-04 -0.45191371D-04  0.36825241D-05  0.66415839D-05  0.97930116D-05
  0.63775423D-03 -0.23716499D-02  0.66030747D-04  0.59830112D-04 -0.59830112D-04
 -0.59830112D-04 -0.35436627D-03  0.35436627D-03  0.35436627D-03  0.21495036D-03
 -0.21495036D-03 -0.21495036D-03 -0.61472792D-15 -0.22176245D-15  0.83649037D-15
 -0.36711769D-03 -0.36711769D-03  0.36711769D-03  0.30495501D-15  0.14117669D-15
 -0.44613170D-15 -0.45191371D-04 -0.45191371D-04  0.45191371D-04
MO    3     MO 0.0        OCC NO =    2.0000000  ORB. ENERGY =   -3.865547
  0.38151498D-15  0.71364612D-15  0.12324348D-14  0.19907034D-14  0.29979584D-14
  0.40772093D-14  0.46414894D-14  0.37602429D-14  0.15263569D-14  0.13918275D-15
 -0.53488241D-17  0.17886083D-17  0.10037264D-18 -0.71289421D-15 -0.13343417D-14
 -0.23077953D-14 -0.37509040D-14 -0.57388525D-14 -0.81438284D-14 -0.10215756D-13
 -0.10415849D-13 -0.63997045D-14  0.13947632D-14  0.51088113D-14  0.23365905D-14
 -0.12402750D-16  0.43810911D-15  0.81941699D-15  0.14190082D-14  0.23039688D-14
  0.35365455D-14  0.50235051D-14  0.63731131D-14  0.65978940D-14  0.42498455D-14
 -0.10452716D-14 -0.42608488D-14 -0.37162015D-14  0.18939697D-14  0.46608471D-15
 -0.14893714D-13  0.88831241D-15  0.50926063D+01  0.67174102D+01  0.74613926D+01
  0.63859004D+01  0.36488522D+01  0.11841321D+01  0.83378157D-03 -0.32446745D+01
 -0.42798929D+01 -0.47539097D+01 -0.40686766D+01 -0.23248091D+01 -0.75445124D+00
 -0.53123090D-03 -0.13966185D+01 -0.18422118D+01 -0.20462448D+01 -0.17512971D+01
 -0.10006771D+01 -0.32474153D+00 -0.22865988D-03 -0.24569562D-01 -0.33598560D-01
 -0.36525019D-01 -0.33528058D-01 -0.18274153D-01 -0.77113415D-02  0.26595482D-02
  0.15654113D-01  0.21406798D-01  0.23271345D-01  0.21361878D-01  0.11643091D-01
  0.49131608D-02 -0.16944896D-02  0.67380636D-02  0.92142153D-02  0.10016780D-01
  0.91948804D-02  0.50115832D-02  0.21147919D-02 -0.72936606D-03  0.12785500D+00
 -0.81460813D-01 -0.35063511D-01  0.68171751D-03 -0.43434566D-03 -0.18695718D-03
  0.57213567D-05 -0.36452730D-05 -0.15690498D-05  0.13040279D-15 -0.50815285D-15
  0.37775006D-15 -0.14330182D-03 -0.33292395D-03  0.52253334D-03  0.81412767D-16
 -0.65663287D-16 -0.15749480D-16 -0.24728090D-03 -0.57449191D-03  0.90168093D-03
  0.98871443D-17 -0.43690477D-16  0.33803332D-16 -0.35364645D-05 -0.82160420D-05
  0.12895305D-04 -0.13130087D-03  0.83656298D-04  0.36008522D-04  0.19695131D-03
 -0.12548445D-03 -0.54012783D-04  0.19695131D-03 -0.12548445D-03 -0.54012783D-04
 -0.25137444D-15 -0.22304970D-05  0.14211263D-05  0.61170122D-06  0.33457456D-05
 -0.21316895D-05 -0.91755182D-06  0.33457456D-05 -0.21316895D-05 -0.91755182D-06
 -0.23566075D-15  0.13790490D-04  0.24871716D-04  0.36673331D-04 -0.63433658D-04
 -0.10512503D-03 -0.44820230D-05  0.11135238D-03 -0.12196590D-03 -0.70248172D-04
  0.96746571D-04 -0.22873790D-05  0.19664657D-04 -0.65562141D-04  0.65192901D-04
  0.36209513D-04 -0.15261758D-03  0.10484341D-03  0.47774166D-04 -0.86896744D-04
 -0.18453121D-03  0.25593485D-03  0.50830313D-04 -0.34918805D-04 -0.15911508D-04
  0.20480556D-04  0.50241297D-04 -0.84020681D-04 -0.99141639D-04 -0.17880603D-03
 -0.26364939D-03  0.45603289D-03  0.75575766D-03  0.32221852D-04 -0.81525034D-04
 -0.31484331D-03  0.18495702D-03  0.32112929D-03  0.22209534D-03 -0.27722669D-03
  0.22980186D-04  0.15373523D-03 -0.80945012D-04  0.12386521D-03 -0.13359577D-03
  0.97305595D-05  0.20480206D-04 -0.26568390D-03  0.17478216D-03 -0.41254145D-04
  0.44494973D-04 -0.32408285D-05  0.36943345D-04  0.37799151D-04 -0.96462826D-04
 -0.21208136D-03 -0.38249747D-03 -0.56399229D-03  0.97553436D-03  0.16166982D-02
  0.68928194D-04 -0.33674738D-03  0.38846164D-03 -0.51834793D-03  0.61804060D-03
 -0.59609004D-03  0.54095868D-03  0.14014259D-03 -0.16912403D-03  0.24191424D-03
  0.85819050D-04  0.28753641D-04 -0.11457269D-03 -0.27543360D-03  0.30229911D-04
  0.67397989D-04 -0.28582613D-04 -0.95765941D-05  0.38159208D-04 -0.84254853D-05
  0.83167982D-04 -0.11292672D-03  0.29743251D-03  0.53643178D-03  0.79096835D-03
 -0.13681336D-02 -0.22673308D-02 -0.96668022D-04 -0.52962479D-03  0.58133905D-03
  0.63305678D-03  0.84242331D-03 -0.82047275D-03 -0.79852072D-03  0.22868491D-03
 -0.25766635D-03 -0.28664974D-03 -0.57066688D-04 -0.12788017D-08  0.57067967D-04
  0.20901707D-03  0.11138260D-03 -0.13754702D-04  0.19006445D-04  0.42591330D-09
 -0.19006871D-04  0.65849386D-04  0.95610127D-04 -0.12536887D-03
MO    4     MO 0.0        OCC NO =    2.0000000  ORB. ENERGY =   -3.865547
 -0.16671766D-14 -0.31185516D-14 -0.53855984D-14 -0.86991453D-14 -0.13100734D-13
 -0.17816936D-13 -0.20282775D-13 -0.16431830D-13 -0.66700043D-14 -0.60821264D-15
  0.23373747D-16 -0.78160127D-17 -0.43861692D-18  0.32793643D-14  0.61380669D-14
  0.10616023D-13  0.17254426D-13  0.26399131D-13  0.37462192D-13  0.46993208D-13
  0.47913647D-13  0.29439098D-13 -0.64160104D-14 -0.23500897D-13 -0.10748483D-13
  0.57053536D-16 -0.19564328D-14 -0.36592123D-14 -0.63367642D-14 -0.10288670D-13
 -0.15792900D-13 -0.22433110D-13 -0.28459959D-13 -0.29463747D-13 -0.18978233D-13
  0.46677952D-14  0.19027370D-13  0.16595177D-13 -0.84577662D-14 -0.54405907D-14
  0.14036614D-12 -0.52756964D-14  0.18350045D+01  0.24204655D+01  0.26885426D+01
  0.23010135D+01  0.13147806D+01  0.42667497D+00  0.30043416D-03  0.45237411D+01
  0.59670476D+01  0.66279240D+01  0.56725688D+01  0.32412602D+01  0.10518596D+01
  0.74064470D-03 -0.38185888D+01 -0.50369155D+01 -0.55947758D+01 -0.47883395D+01
 -0.27360187D+01 -0.88789771D+00 -0.62519440D-03 -0.88530811D-02 -0.12106475D-01
 -0.13160957D-01 -0.12081071D-01 -0.65846741D-02 -0.27786060D-02  0.95830751D-03
 -0.21825040D-01 -0.29845461D-01 -0.32445023D-01 -0.29782834D-01 -0.16232854D-01
 -0.68499527D-02  0.23624656D-02  0.18422994D-01  0.25193207D-01  0.27387554D-01
  0.25140342D-01  0.13702507D-01  0.57821950D-02 -0.19942089D-02  0.46069631D-01
  0.11357306D+00 -0.95869508D-01  0.24564135D-03  0.60556684D-03 -0.51117222D-03
  0.20615604D-05  0.50822574D-05 -0.42900447D-05  0.19368617D-15 -0.15326107D-15
 -0.40425106D-16 -0.39181116D-03  0.46416420D-03  0.18828297D-03  0.53335946D-16
 -0.41660406D-16 -0.11675539D-16 -0.67610738D-03  0.80095942D-03  0.32490015D-03
  0.12874128D-16 -0.14021948D-16  0.11478202D-17 -0.96692861D-05  0.11454846D-04
  0.46465289D-05 -0.47311273D-04 -0.11663402D-03  0.98453328D-04  0.70966910D-04
  0.17495103D-03 -0.14767999D-03  0.70966910D-04  0.17495103D-03 -0.14767999D-03
  0.17991578D-14 -0.80370872D-06 -0.19813413D-05  0.16724935D-05  0.12055631D-05
  0.29720119D-05 -0.25087403D-05  0.12055631D-05  0.29720119D-05 -0.25087403D-05
  0.23347689D-14  0.77617937D-04  0.13998715D-03  0.20641096D-03 -0.35702791D-03
 -0.59168227D-03 -0.25226471D-04 -0.12404933D-03 -0.48805208D-04 -0.28226478D-03
  0.22584960D-03  0.25778761D-03  0.15869369D-03  0.51741280D-04  0.95733521D-05
  0.14040758D-03 -0.30518941D-04 -0.11354898D-03  0.14406792D-03 -0.27553937D-03
  0.16519344D-03  0.23145062D-04  0.10164539D-04  0.37818254D-04 -0.47982793D-04
  0.50178996D-04 -0.84164290D-04 -0.40865391D-04 -0.31098227D-03 -0.56086933D-03
 -0.82700150D-03  0.14304599D-02  0.23706208D-02  0.10107181D-03 -0.65140846D-03
 -0.57616434D-03  0.59589798D-03  0.83934951D-03  0.87128753D-03 -0.86291141D-03
  0.29383082D-03  0.25166289D-03 -0.26272192D-03 -0.48094831D-04  0.34935209D-04
  0.13159622D-04  0.93945434D-04 -0.56691607D-04 -0.19873998D-03  0.16018308D-04
 -0.11635407D-04 -0.43829008D-05  0.10682756D-03 -0.11818320D-03 -0.74884299D-04
  0.19884016D-03  0.35861642D-03  0.52877970D-03 -0.91462733D-03 -0.15157604D-02
 -0.64624695D-04  0.50069354D-03 -0.32274444D-03  0.34247808D-03 -0.50094107D-03
  0.57647309D-03 -0.56809698D-03 -0.23505325D-03  0.13532793D-03 -0.14638696D-03
  0.12364977D-03 -0.72712680D-04 -0.50937092D-04 -0.12680357D-04  0.49934183D-04
  0.28600407D-03 -0.41182390D-04  0.24217448D-04  0.16964942D-04  0.90479939D-04
 -0.10183558D-03 -0.56444724D-06  0.34524170D-04  0.62265763D-04  0.91810831D-04
 -0.15880469D-03 -0.26317808D-03 -0.11220641D-04 -0.26665592D-04  0.20461469D-03
 -0.28844891D-04  0.11255884D-03 -0.37026818D-04 -0.13612074D-03  0.70362894D-05
 -0.10676161D-03  0.24072612D-04 -0.45035999D-04  0.15132645D-03 -0.10629045D-03
 -0.16891358D-03  0.27181923D-03  0.64119028D-04  0.14999543D-04 -0.50400295D-04
  0.35400752D-04  0.66526619D-04 -0.67816667D-04 -0.34583356D-04
MO    5     MO 0.0        OCC NO =    2.0000000  ORB. ENERGY =   -3.865547
  0.88458982D-16  0.16546771D-15  0.28575530D-15  0.46156929D-15  0.69511386D-15
  0.94535157D-15  0.10761869D-14  0.87185898D-15  0.35390479D-15  0.32271248D-16
 -0.12401913D-17  0.41471102D-18  0.23272643D-19 -0.18235510D-15 -0.34131854D-15
 -0.59032355D-15 -0.95946422D-15 -0.14679724D-14 -0.20831543D-14 -0.26131441D-14
 -0.26643268D-14 -0.16370154D-14  0.35677411D-15  0.13068108D-14  0.59768923D-15
 -0.31725672D-17  0.10992779D-15  0.20560335D-15  0.35604929D-15  0.57809846D-15
  0.88736943D-15  0.12604687D-14  0.15991045D-14  0.16555052D-14  0.10663465D-14
 -0.26227347D-15 -0.10691074D-14 -0.93244767D-15  0.47522387D-15  0.12477949D-14
 -0.35093138D-13  0.57688301D-14  0.30184789D+01  0.39815292D+01  0.44225008D+01
  0.37850374D+01  0.21627399D+01  0.70185626D+00  0.49419725D-03  0.27241419D+01
  0.35932836D+01  0.39912554D+01  0.34159521D+01  0.19518476D+01  0.63341708D+00
  0.44600725D-03  0.46777058D+01  0.61701350D+01  0.68535043D+01  0.58656337D+01
  0.33515759D+01  0.10876595D+01  0.76585241D-03 -0.14562819D-01 -0.19914468D-01
 -0.21649032D-01 -0.19872679D-01 -0.10831417D-01 -0.45706501D-02  0.15763618D-02
 -0.13142774D-01 -0.17972575D-01 -0.19537999D-01 -0.17934861D-01 -0.97752277D-02
 -0.41249583D-02  0.14226481D-02 -0.22567851D-01 -0.30861246D-01 -0.33549283D-01
 -0.30796488D-01 -0.16785336D-01 -0.70830896D-02  0.24428717D-02  0.75781943D-01
  0.68392320D-01  0.11743850D+00  0.40406616D-03  0.36466500D-03  0.62617720D-03
  0.33911505D-05  0.30604737D-05  0.52552312D-05  0.19724633D-15 -0.17163824D-15
 -0.25608095D-16  0.47996194D-03  0.27951404D-03  0.30971486D-03 -0.22169594D-16
 -0.82982884D-16  0.10515248D-15  0.82821994D-03  0.48232804D-03  0.53444241D-03
  0.23465868D-16 -0.15292512D-16 -0.81733564D-17  0.11844709D-04  0.68979691D-05
  0.76432779D-05 -0.77824375D-04 -0.70235590D-04 -0.12060364D-03  0.11673656D-03
  0.10535339D-03  0.18090546D-03  0.11673656D-03  0.10535339D-03  0.18090546D-03
 -0.11889977D-14 -0.13220555D-05 -0.11931397D-05 -0.20487759D-05  0.19830832D-05
  0.17897095D-05  0.30731638D-05  0.19830832D-05  0.17897095D-05  0.30731638D-05
 -0.27841188D-15  0.31840722D-03  0.57426054D-03  0.84674683D-03 -0.14646133D-02
 -0.24272213D-02 -0.10348498D-03 -0.63506800D-03 -0.64330500D-03 -0.58863464D-03
  0.87292709D-03  0.86943082D-03  0.89263613D-03  0.28297275D-03  0.28758889D-03
  0.25695081D-03  0.14049582D-04  0.23138909D-04 -0.37188491D-04 -0.55617231D-04
 -0.15882577D-03 -0.14327568D-03 -0.46793080D-05 -0.77065696D-05  0.12385878D-04
 -0.12174500D-03 -0.90285179D-04 -0.95025124D-04 -0.32539924D-04 -0.58687094D-04
 -0.86534085D-04  0.14967753D-03  0.24805215D-03  0.10575744D-04  0.10937883D-04
  0.27008833D-05  0.20443936D-03  0.12140022D-03  0.11790396D-03 -0.29981501D-04
 -0.13582782D-04 -0.89666441D-05 -0.10711783D-03  0.82250940D-04  0.73161613D-04
 -0.15541255D-03  0.27806668D-03  0.11297960D-03  0.12852968D-03 -0.27394230D-04
 -0.24366969D-04  0.51761199D-04 -0.70585341D-04 -0.48612600D-04 -0.53352545D-04
 -0.15192751D-03 -0.27400753D-03 -0.40402394D-03  0.69883798D-03  0.11581449D-02
  0.49377697D-04 -0.25885543D-03  0.41956231D-03 -0.21242207D-03  0.43526257D-03
 -0.36704915D-03  0.45497161D-03  0.11026857D-03 -0.20033110D-03  0.84246619D-04
  0.42032674D-04 -0.13530342D-03  0.93270746D-04  0.10267327D-03  0.28837301D-03
  0.15014820D-04 -0.13999265D-04  0.45063716D-04 -0.31064451D-04 -0.97476259D-04
 -0.21721683D-04 -0.70756385D-04 -0.13393979D-03 -0.24156592D-03 -0.35618881D-03
  0.61609782D-03  0.10210243D-02  0.43531537D-04  0.38715046D-03 -0.22644357D-03
 -0.17177321D-03 -0.31626430D-03  0.38447771D-03  0.40768302D-03 -0.18628697D-03
  0.96224437D-04  0.65586352D-04 -0.13833320D-03  0.39002898D-04  0.99330298D-04
  0.11977618D-03  0.16567640D-04  0.28682019D-03  0.46072804D-04 -0.12990178D-04
 -0.33082625D-04 -0.94854080D-04 -0.63394262D-04 -0.29083806D-04
MO    6     MO 0.0        OCC NO =    2.0000000  ORB. ENERGY =   -0.628345
 -0.96397963D-03 -0.18031804D-02 -0.31140115D-02 -0.50299403D-02 -0.75749866D-02
 -0.10301946D-01 -0.11727721D-01 -0.95010623D-02 -0.38566689D-02 -0.35167516D-03
  0.13514954D-04 -0.45193034D-05 -0.25361307D-06  0.41926157D-02  0.78474221D-02
  0.13572418D-01  0.22059513D-01  0.33750874D-01  0.47894823D-01  0.60080078D-01
  0.61256845D-01  0.37637424D-01 -0.82027685D-02 -0.30045527D-01 -0.13741766D-01
  0.72942049D-04  0.26192554D-01  0.48989220D-01  0.84836055D-01  0.13774383D+00
  0.21143399D+00  0.30033255D+00  0.38101948D+00  0.39445811D+00  0.25407896D+00
 -0.62492041D-01 -0.25473679D+00 -0.22217481D+00  0.11323185D+00  0.28330275D-01
 -0.26860787D-01 -0.14383089D-03  0.11772688D-12  0.15528782D-12  0.17248662D-12
  0.14762423D-12  0.84351301D-13  0.27373836D-13  0.19274708D-16 -0.25623878D-12
 -0.33799216D-12 -0.37542626D-12 -0.32131196D-12 -0.18359507D-12 -0.59580603D-13
 -0.41952422D-16  0.12405715D-12  0.16363777D-12  0.18176137D-12  0.15556211D-12
  0.88886940D-13  0.28845750D-13  0.20311125D-16 -0.10025725D-12 -0.13710050D-12
 -0.14904205D-12 -0.13681281D-12 -0.74568536D-13 -0.31466490D-13  0.10852411D-13
  0.22703569D-12  0.31046839D-12  0.33751041D-12  0.30981691D-12  0.16886280D-12
  0.71256857D-13 -0.24575626D-13 -0.11023328D-12 -0.15074259D-12 -0.16387238D-12
 -0.15042628D-12 -0.81988429D-13 -0.34597542D-13  0.11932273D-13 -0.23690793D-14
  0.56299855D-14  0.11579531D-15 -0.93692303D-15 -0.46049421D-13  0.58354099D-14
 -0.34887855D-14  0.23817178D-14 -0.14416828D-14 -0.29950057D-14 -0.22628345D-14
  0.52578402D-14  0.46384515D-15 -0.11304630D-13  0.19309563D-14 -0.17065790D-15
 -0.45714909D-16  0.21637281D-15  0.77331573D-14 -0.38342326D-14  0.78323418D-14
 -0.33320813D-15 -0.27975711D-15  0.61296523D-15 -0.10552065D-14  0.16429376D-15
 -0.20267567D-14 -0.13088172D-14  0.10292380D-14 -0.53738142D-15  0.23683088D-14
 -0.19683083D-14 -0.19514086D-15  0.15581428D-14 -0.11194057D-14  0.18072851D-14
  0.59662368D-02  0.39668449D-15 -0.49040067D-15  0.42278664D-15 -0.71662946D-16
  0.42125002D-15 -0.17101050D-14 -0.11183905D-14  0.10499520D-14  0.44174511D-15
 -0.64554149D-03  0.18039255D-01  0.32534539D-01  0.47972159D-01  0.35392964D-01
  0.19850463D-01  0.10826370D-03 -0.55889414D-02 -0.55889414D-02 -0.55889414D-02
 -0.40508050D-02 -0.40508050D-02 -0.40508050D-02 -0.15998871D-02 -0.15998871D-02
 -0.15998871D-02  0.11496992D-14 -0.28406200D-14  0.16909208D-14  0.43224357D-02
  0.43224357D-02  0.43224357D-02 -0.29804327D-14  0.23712430D-14  0.60918975D-15
  0.27604083D-03  0.27604083D-03  0.27604083D-03  0.18039255D-01  0.32534539D-01
  0.47972159D-01  0.35392964D-01  0.19850463D-01  0.10826370D-03  0.55889414D-02
  0.55889414D-02 -0.55889414D-02  0.40508050D-02  0.40508050D-02 -0.40508050D-02
  0.15998871D-02  0.15998871D-02 -0.15998871D-02 -0.17079109D-15 -0.94409076D-15
  0.11148819D-14  0.43224357D-02 -0.43224357D-02 -0.43224357D-02 -0.68840442D-15
 -0.43911378D-15  0.11275182D-14  0.27604083D-03 -0.27604083D-03 -0.27604083D-03
  0.18039255D-01  0.32534539D-01  0.47972159D-01  0.35392964D-01  0.19850463D-01
  0.10826370D-03  0.55889414D-02 -0.55889414D-02  0.55889414D-02  0.40508050D-02
 -0.40508050D-02  0.40508050D-02  0.15998871D-02 -0.15998871D-02  0.15998871D-02
 -0.13000714D-14  0.81066183D-15  0.48940953D-15 -0.43224357D-02  0.43224357D-02
 -0.43224357D-02  0.58801452D-16 -0.24700166D-14  0.24112151D-14 -0.27604083D-03
  0.27604083D-03 -0.27604083D-03  0.18039255D-01  0.32534539D-01  0.47972159D-01
  0.35392964D-01  0.19850463D-01  0.10826370D-03 -0.55889414D-02  0.55889414D-02
  0.55889414D-02 -0.40508050D-02  0.40508050D-02  0.40508050D-02 -0.15998871D-02
  0.15998871D-02  0.15998871D-02 -0.21157142D-14  0.32896521D-16  0.20828176D-14
 -0.43224357D-02 -0.43224357D-02  0.43224357D-02  0.46158009D-15 -0.17869778D-14