 Molden2AIM, Version 4.0.0 (06/02/2016)           Time: Tue Jul  3 04:05:38 2018
GAUSSIAN             25 MOL ORBITALS    431 PRIMITIVES        5 NUCLEI
  S    1    (CENTRE  1)   0.00000000  0.00000000  0.00000000  CHARGE = 16.0
  O    2    (CENTRE  2)  -1.67939205 -1.67939205  1.67939205  CHARGE =  8.0
  O    3    (CENTRE  3)   1.67939205  1.67939205  1.67939205  CHARGE =  8.0
  O    4    (CENTRE  4)   1.67939205 -1.67939205 -1.67939205  CHARGE =  8.0
  O    5    (CENTRE  5)  -1.67939205  1.67939205 -1.67939205  CHARGE =  8.0
CENTRE ASSIGNMENTS    1  1  1  1  1  1  1  1  1  1  1  1  1  1  1  1  1  1  1  1
CENTRE ASSIGNMENTS    1  1  1  1  1  1  1  1  1  1  1  1  1  1  1  1  1  1  1  1
CENTRE ASSIGNMENTS    1  1  1  1  1  1  1  1  1  1  1  1  1  1  1  1  1  1  1  1
CENTRE ASSIGNMENTS    1  1  1  1  1  1  1  1  1  1  1  1  1  1  1  1  1  1  1  1
CENTRE ASSIGNMENTS    1  1  1  1  1  1  1  1  1  1  1  1  1  1  1  1  1  1  1  1
CENTRE ASSIGNMENTS    1  1  1  1  1  1  1  1  1  1  1  1  1  1  1  1  1  1  1  1
CENTRE ASSIGNMENTS    1  1  1  1  1  1  1  1  1  1  1  2  2  2  2  2  2  2  2  2
CENTRE ASSIGNMENTS    2  2  2  2  2  2  2  2  2  2  2  2  2  2  2  2  2  2  2  2
CENTRE ASSIGNMENTS    2  2  2  2  2  2  2  2  2  2  2  2  2  2  2  2  2  2  2  2
CENTRE ASSIGNMENTS    2  2  2  2  2  2  2  2  2  2  2  2  2  2  2  2  2  2  2  2
CENTRE ASSIGNMENTS    2  2  2  2  2  2  3  3  3  3  3  3  3  3  3  3  3  3  3  3
CENTRE ASSIGNMENTS    3  3  3  3  3  3  3  3  3  3  3  3  3  3  3  3  3  3  3  3
CENTRE ASSIGNMENTS    3  3  3  3  3  3  3  3  3  3  3  3  3  3  3  3  3  3  3  3
CENTRE ASSIGNMENTS    3  3  3  3  3  3  3  3  3  3  3  3  3  3  3  3  3  3  3  3
CENTRE ASSIGNMENTS    3  4  4  4  4  4  4  4  4  4  4  4  4  4  4  4  4  4  4  4
CENTRE ASSIGNMENTS    4  4  4  4  4  4  4  4  4  4  4  4  4  4  4  4  4  4  4  4
CENTRE ASSIGNMENTS    4  4  4  4  4  4  4  4  4  4  4  4  4  4  4  4  4  4  4  4
CENTRE ASSIGNMENTS    4  4  4  4  4  4  4  4  4  4  4  4  4  4  4  4  5  5  5  5
CENTRE ASSIGNMENTS    5  5  5  5  5  5  5  5  5  5  5  5  5  5  5  5  5  5  5  5
CENTRE ASSIGNMENTS    5  5  5  5  5  5  5  5  5  5  5  5  5  5  5  5  5  5  5  5
CENTRE ASSIGNMENTS    5  5  5  5  5  5  5  5  5  5  5  5  5  5  5  5  5  5  5  5
CENTRE ASSIGNMENTS    5  5  5  5  5  5  5  5  5  5  5
TYPE ASSIGNMENTS      1  1  1  1  1  1  1  1  1  1  1  1  1  1  1  1  1  1  1  1
TYPE ASSIGNMENTS      1  1  1  1  1  1  1  1  1  1  1  1  1  1  1  1  1  1  1  1
TYPE ASSIGNMENTS      1  1  2  2  2  2  2  2  2  3  3  3  3  3  3  3  4  4  4  4
TYPE ASSIGNMENTS      4  4  4  2  2  2  2  2  2  2  3  3  3  3  3  3  3  4  4  4
TYPE ASSIGNMENTS      4  4  4  4  2  3  4  2  3  4  2  3  4  5  6  7  8  9 10  5
TYPE ASSIGNMENTS      6  7  8  9 10  5  6  7  8  9 10 11 12 13 17 14 15 18 19 16
TYPE ASSIGNMENTS     20 11 12 13 17 14 15 18 19 16 20  1  1  1  1  1  1  1  1  1
TYPE ASSIGNMENTS      1  1  1  1  1  1  1  1  1  1  2  2  2  3  3  3  4  4  4  2
TYPE ASSIGNMENTS      3  4  2  3  4  2  3  4  5  6  7  8  9 10  5  6  7  8  9 10
TYPE ASSIGNMENTS      5  6  7  8  9 10 11 12 13 17 14 15 18 19 16 20 11 12 13 17
TYPE ASSIGNMENTS     14 15 18 19 16 20  1  1  1  1  1  1  1  1  1  1  1  1  1  1
TYPE ASSIGNMENTS      1  1  1  1  1  2  2  2  3  3  3  4  4  4  2  3  4  2  3  4
TYPE ASSIGNMENTS      2  3  4  5  6  7  8  9 10  5  6  7  8  9 10  5  6  7  8  9
TYPE ASSIGNMENTS     10 11 12 13 17 14 15 18 19 16 20 11 12 13 17 14 15 18 19 16
TYPE ASSIGNMENTS     20  1  1  1  1  1  1  1  1  1  1  1  1  1  1  1  1  1  1  1
TYPE ASSIGNMENTS      2  2  2  3  3  3  4  4  4  2  3  4  2  3  4  2  3  4  5  6
TYPE ASSIGNMENTS      7  8  9 10  5  6  7  8  9 10  5  6  7  8  9 10 11 12 13 17
TYPE ASSIGNMENTS     14 15 18 19 16 20 11 12 13 17 14 15 18 19 16 20  1  1  1  1
TYPE ASSIGNMENTS      1  1  1  1  1  1  1  1  1  1  1  1  1  1  1  2  2  2  3  3
TYPE ASSIGNMENTS      3  4  4  4  2  3  4  2  3  4  2  3  4  5  6  7  8  9 10  5
TYPE ASSIGNMENTS      6  7  8  9 10  5  6  7  8  9 10 11 12 13 17 14 15 18 19 16
TYPE ASSIGNMENTS     20 11 12 13 17 14 15 18 19 16 20
EXPONENTS  0.3741000D+06 0.5605000D+05 0.1276000D+05 0.3615000D+04 0.1183000D+04
EXPONENTS  0.4288000D+03 0.1678000D+03 0.6947000D+02 0.2984000D+02 0.1272000D+02
EXPONENTS  0.5244000D+01 0.2219000D+01 0.3490000D+00 0.3741000D+06 0.5605000D+05
EXPONENTS  0.1276000D+05 0.3615000D+04 0.1183000D+04 0.4288000D+03 0.1678000D+03
EXPONENTS  0.6947000D+02 0.2984000D+02 0.1272000D+02 0.5244000D+01 0.2219000D+01
EXPONENTS  0.3490000D+00 0.3741000D+06 0.5605000D+05 0.1276000D+05 0.3615000D+04
EXPONENTS  0.1183000D+04 0.4288000D+03 0.1678000D+03 0.6947000D+02 0.2984000D+02
EXPONENTS  0.1272000D+02 0.5244000D+01 0.2219000D+01 0.3490000D+00 0.7767000D+00
EXPONENTS  0.1322000D+00 0.4970000D-01 0.5744000D+03 0.1358000D+03 0.4319000D+02
EXPONENTS  0.1587000D+02 0.6208000D+01 0.2483000D+01 0.3229000D+00 0.5744000D+03
EXPONENTS  0.1358000D+03 0.4319000D+02 0.1587000D+02 0.6208000D+01 0.2483000D+01
EXPONENTS  0.3229000D+00 0.5744000D+03 0.1358000D+03 0.4319000D+02 0.1587000D+02
EXPONENTS  0.6208000D+01 0.2483000D+01 0.3229000D+00 0.5744000D+03 0.1358000D+03
EXPONENTS  0.4319000D+02 0.1587000D+02 0.6208000D+01 0.2483000D+01 0.3229000D+00
EXPONENTS  0.5744000D+03 0.1358000D+03 0.4319000D+02 0.1587000D+02 0.6208000D+01
EXPONENTS  0.2483000D+01 0.3229000D+00 0.5744000D+03 0.1358000D+03 0.4319000D+02
EXPONENTS  0.1587000D+02 0.6208000D+01 0.2483000D+01 0.3229000D+00 0.8688000D+00
EXPONENTS  0.8688000D+00 0.8688000D+00 0.1098000D+00 0.1098000D+00 0.1098000D+00
EXPONENTS  0.3510000D-01 0.3510000D-01 0.3510000D-01 0.2690000D+00 0.2690000D+00
EXPONENTS  0.2690000D+00 0.2690000D+00 0.2690000D+00 0.2690000D+00 0.8190000D+00
EXPONENTS  0.8190000D+00 0.8190000D+00 0.8190000D+00 0.8190000D+00 0.8190000D+00
EXPONENTS  0.1010000D+00 0.1010000D+00 0.1010000D+00 0.1010000D+00 0.1010000D+00
EXPONENTS  0.1010000D+00 0.5570000D+00 0.5570000D+00 0.5570000D+00 0.5570000D+00
EXPONENTS  0.5570000D+00 0.5570000D+00 0.5570000D+00 0.5570000D+00 0.5570000D+00
EXPONENTS  0.5570000D+00 0.2180000D+00 0.2180000D+00 0.2180000D+00 0.2180000D+00
EXPONENTS  0.2180000D+00 0.2180000D+00 0.2180000D+00 0.2180000D+00 0.2180000D+00
EXPONENTS  0.2180000D+00 0.1533000D+05 0.2299000D+04 0.5224000D+03 0.1473000D+03
EXPONENTS  0.4755000D+02 0.1676000D+02 0.6207000D+01 0.6882000D+00 0.1533000D+05
EXPONENTS  0.2299000D+04 0.5224000D+03 0.1473000D+03 0.4755000D+02 0.1676000D+02
EXPONENTS  0.6207000D+01 0.6882000D+00 0.1752000D+01 0.2384000D+00 0.7376000D-01
EXPONENTS  0.3446000D+02 0.7749000D+01 0.2280000D+01 0.3446000D+02 0.7749000D+01
EXPONENTS  0.2280000D+01 0.3446000D+02 0.7749000D+01 0.2280000D+01 0.7156000D+00
EXPONENTS  0.7156000D+00 0.7156000D+00 0.2140000D+00 0.2140000D+00 0.2140000D+00
EXPONENTS  0.5974000D-01 0.5974000D-01 0.5974000D-01 0.2314000D+01 0.2314000D+01
EXPONENTS  0.2314000D+01 0.2314000D+01 0.2314000D+01 0.2314000D+01 0.6450000D+00
EXPONENTS  0.6450000D+00 0.6450000D+00 0.6450000D+00 0.6450000D+00 0.6450000D+00
EXPONENTS  0.2140000D+00 0.2140000D+00 0.2140000D+00 0.2140000D+00 0.2140000D+00
EXPONENTS  0.2140000D+00 0.1428000D+01 0.1428000D+01 0.1428000D+01 0.1428000D+01
EXPONENTS  0.1428000D+01 0.1428000D+01 0.1428000D+01 0.1428000D+01 0.1428000D+01
EXPONENTS  0.1428000D+01 0.5000000D+00 0.5000000D+00 0.5000000D+00 0.5000000D+00
EXPONENTS  0.5000000D+00 0.5000000D+00 0.5000000D+00 0.5000000D+00 0.5000000D+00
EXPONENTS  0.5000000D+00 0.1533000D+05 0.2299000D+04 0.5224000D+03 0.1473000D+03
EXPONENTS  0.4755000D+02 0.1676000D+02 0.6207000D+01 0.6882000D+00 0.1533000D+05
EXPONENTS  0.2299000D+04 0.5224000D+03 0.1473000D+03 0.4755000D+02 0.1676000D+02
EXPONENTS  0.6207000D+01 0.6882000D+00 0.1752000D+01 0.2384000D+00 0.7376000D-01
EXPONENTS  0.3446000D+02 0.7749000D+01 0.2280000D+01 0.3446000D+02 0.7749000D+01
EXPONENTS  0.2280000D+01 0.3446000D+02 0.7749000D+01 0.2280000D+01 0.7156000D+00
EXPONENTS  0.7156000D+00 0.7156000D+00 0.2140000D+00 0.2140000D+00 0.2140000D+00
EXPONENTS  0.5974000D-01 0.5974000D-01 0.5974000D-01 0.2314000D+01 0.2314000D+01
EXPONENTS  0.2314000D+01 0.2314000D+01 0.2314000D+01 0.2314000D+01 0.6450000D+00
EXPONENTS  0.6450000D+00 0.6450000D+00 0.6450000D+00 0.6450000D+00 0.6450000D+00
EXPONENTS  0.2140000D+00 0.2140000D+00 0.2140000D+00 0.2140000D+00 0.2140000D+00
EXPONENTS  0.2140000D+00 0.1428000D+01 0.1428000D+01 0.1428000D+01 0.1428000D+01
EXPONENTS  0.1428000D+01 0.1428000D+01 0.1428000D+01 0.1428000D+01 0.1428000D+01
EXPONENTS  0.1428000D+01 0.5000000D+00 0.5000000D+00 0.5000000D+00 0.5000000D+00
EXPONENTS  0.5000000D+00 0.5000000D+00 0.5000000D+00 0.5000000D+00 0.5000000D+00
EXPONENTS  0.5000000D+00 0.1533000D+05 0.2299000D+04 0.5224000D+03 0.1473000D+03
EXPONENTS  0.4755000D+02 0.1676000D+02 0.6207000D+01 0.6882000D+00 0.1533000D+05
EXPONENTS  0.2299000D+04 0.5224000D+03 0.1473000D+03 0.4755000D+02 0.1676000D+02
EXPONENTS  0.6207000D+01 0.6882000D+00 0.1752000D+01 0.2384000D+00 0.7376000D-01
EXPONENTS  0.3446000D+02 0.7749000D+01 0.2280000D+01 0.3446000D+02 0.7749000D+01
EXPONENTS  0.2280000D+01 0.3446000D+02 0.7749000D+01 0.2280000D+01 0.7156000D+00
EXPONENTS  0.7156000D+00 0.7156000D+00 0.2140000D+00 0.2140000D+00 0.2140000D+00
EXPONENTS  0.5974000D-01 0.5974000D-01 0.5974000D-01 0.2314000D+01 0.2314000D+01
EXPONENTS  0.2314000D+01 0.2314000D+01 0.2314000D+01 0.2314000D+01 0.6450000D+00
EXPONENTS  0.6450000D+00 0.6450000D+00 0.6450000D+00 0.6450000D+00 0.6450000D+00
EXPONENTS  0.2140000D+00 0.2140000D+00 0.2140000D+00 0.2140000D+00 0.2140000D+00
EXPONENTS  0.2140000D+00 0.1428000D+01 0.1428000D+01 0.1428000D+01 0.1428000D+01
EXPONENTS  0.1428000D+01 0.1428000D+01 0.1428000D+01 0.1428000D+01 0.1428000D+01
EXPONENTS  0.1428000D+01 0.5000000D+00 0.5000000D+00 0.5000000D+00 0.5000000D+00
EXPONENTS  0.5000000D+00 0.5000000D+00 0.5000000D+00 0.5000000D+00 0.5000000D+00
EXPONENTS  0.5000000D+00 0.1533000D+05 0.2299000D+04 0.5224000D+03 0.1473000D+03
EXPONENTS  0.4755000D+02 0.1676000D+02 0.6207000D+01 0.6882000D+00 0.1533000D+05
EXPONENTS  0.2299000D+04 0.5224000D+03 0.1473000D+03 0.4755000D+02 0.1676000D+02
EXPONENTS  0.6207000D+01 0.6882000D+00 0.1752000D+01 0.2384000D+00 0.7376000D-01
EXPONENTS  0.3446000D+02 0.7749000D+01 0.2280000D+01 0.3446000D+02 0.7749000D+01
EXPONENTS  0.2280000D+01 0.3446000D+02 0.7749000D+01 0.2280000D+01 0.7156000D+00
EXPONENTS  0.7156000D+00 0.7156000D+00 0.2140000D+00 0.2140000D+00 0.2140000D+00
EXPONENTS  0.5974000D-01 0.5974000D-01 0.5974000D-01 0.2314000D+01 0.2314000D+01
EXPONENTS  0.2314000D+01 0.2314000D+01 0.2314000D+01 0.2314000D+01 0.6450000D+00
EXPONENTS  0.6450000D+00 0.6450000D+00 0.6450000D+00 0.6450000D+00 0.6450000D+00
EXPONENTS  0.2140000D+00 0.2140000D+00 0.2140000D+00 0.2140000D+00 0.2140000D+00
EXPONENTS  0.2140000D+00 0.1428000D+01 0.1428000D+01 0.1428000D+01 0.1428000D+01
EXPONENTS  0.1428000D+01 0.1428000D+01 0.1428000D+01 0.1428000D+01 0.1428000D+01
EXPONENTS  0.1428000D+01 0.5000000D+00 0.5000000D+00 0.5000000D+00 0.5000000D+00
EXPONENTS  0.5000000D+00 0.5000000D+00 0.5000000D+00 0.5000000D+00 0.5000000D+00
EXPONENTS  0.5000000D+00
MO    1     MO 0.0        OCC NO =    2.0000000  ORB. ENERGY =  -89.849075
  0.58519390D+00  0.10939860D+01  0.18907493D+01  0.30582022D+01  0.46222936D+01
  0.63656567D+01  0.74399769D+01  0.64287013D+01  0.29983692D+01  0.40711376D+00
  0.10901503D-02  0.21384243D-02  0.97628003D-04 -0.12731645D-02 -0.23776889D-02
 -0.41244693D-02 -0.66876843D-02 -0.10296451D-01 -0.14664459D-01 -0.18856591D-01
 -0.19793810D-01 -0.13995626D-01  0.30993900D-03  0.10056038D-01  0.55371276D-02
 -0.23416419D-04  0.64141213D-03  0.11969699D-02  0.20789935D-02  0.33675082D-02
  0.52018146D-02  0.74159683D-02  0.96457523D-02  0.10279772D-01  0.76242930D-02
 -0.23731593D-03 -0.69072123D-02 -0.67666840D-02  0.31604427D-02 -0.21902582D-02
 -0.12830838D-02 -0.77883271D-04 -0.22513915D-13 -0.29537031D-13 -0.32397621D-13
 -0.26657276D-13 -0.14054243D-13 -0.36562497D-14  0.40460131D-17  0.26998331D-13
  0.35420340D-13  0.38850714D-13  0.31966983D-13  0.16853626D-13  0.43845168D-14
 -0.48519149D-17 -0.11028607D-13 -0.14468931D-13 -0.15870212D-13 -0.13058262D-13
 -0.68845741D-14 -0.17910408D-14  0.19819692D-17  0.20157159D-13  0.26466472D-13
  0.29776566D-13  0.25089008D-13  0.14034439D-13  0.34931434D-14 -0.16021239D-14
 -0.24323299D-13 -0.31936640D-13 -0.35930873D-13 -0.30274477D-13 -0.16935118D-13
 -0.42151164D-14  0.19332555D-14  0.10094554D-13  0.13254211D-13  0.14911881D-13
  0.12564387D-13  0.70283421D-14  0.17493400D-14 -0.80233163D-15  0.98439068D-15
 -0.10247259D-14  0.19956610D-15 -0.79259961D-15  0.76128141D-15  0.40564794D-15
  0.10317752D-16 -0.24756538D-16  0.22377625D-16 -0.34189610D-16  0.67313821D-16
 -0.33124210D-16 -0.65566747D-15  0.18005780D-14 -0.11267665D-14  0.23082208D-16
 -0.28582991D-16  0.55007830D-17 -0.18879219D-15 -0.34936147D-16 -0.10884965D-15
 -0.94117902D-17  0.46094574D-17  0.48023328D-17  0.36971737D-16  0.20053994D-15
 -0.14788687D-15  0.15123042D-15 -0.21860856D-15  0.85048750D-16 -0.27387496D-15
  0.34152791D-15 -0.17642295D-15 -0.17981629D-15  0.31429778D-15 -0.78723297D-16
  0.88783410D-03  0.30133574D-16 -0.88549714D-16  0.59281475D-16 -0.22522781D-15
  0.88856019D-16 -0.23257400D-15  0.13482709D-15  0.17679312D-15  0.54729578D-16
 -0.30110810D-03  0.41234146D-05  0.76855143D-05  0.13032086D-04  0.19724669D-04
  0.24610628D-04  0.21137247D-04  0.81150001D-05 -0.36298893D-07 -0.62670026D-05
 -0.11753919D-04 -0.20037855D-04 -0.31315267D-04 -0.41874478D-04 -0.44712180D-04
 -0.27336150D-04  0.18034732D-04  0.90469873D-04  0.36763107D-03  0.40335662D-04
  0.11245973D-03  0.10904811D-03  0.73563209D-04  0.11245973D-03  0.10904811D-03
  0.73563209D-04 -0.11245973D-03 -0.10904811D-03 -0.73563209D-04 -0.49668291D-04
 -0.49668291D-04  0.49668291D-04 -0.15503457D-04 -0.15503457D-04  0.15503457D-04
 -0.60718634D-06 -0.60718634D-06  0.60718634D-06  0.22410269D-15 -0.38082063D-15
  0.15671795D-15  0.32060721D-03 -0.32060721D-03 -0.32060721D-03 -0.11437625D-15
  0.18429598D-15 -0.69919728D-16 -0.23644858D-03  0.23644858D-03  0.23644858D-03
 -0.15281309D-15  0.21561599D-15 -0.62802899D-16 -0.59200090D-04  0.59200090D-04
  0.59200090D-04  0.12649613D-04  0.12649613D-04 -0.12649613D-04 -0.18974420D-04
 -0.18974420D-04  0.18974420D-04 -0.18974420D-04 -0.18974420D-04  0.18974420D-04
 -0.43613659D-03  0.27120122D-04  0.27120122D-04 -0.27120122D-04 -0.40680183D-04
 -0.40680183D-04  0.40680183D-04 -0.40680183D-04 -0.40680183D-04  0.40680183D-04
  0.36181043D-03  0.41234146D-05  0.76855143D-05  0.13032086D-04  0.19724669D-04
  0.24610628D-04  0.21137247D-04  0.81150001D-05 -0.36298893D-07 -0.62670026D-05
 -0.11753919D-04 -0.20037855D-04 -0.31315267D-04 -0.41874478D-04 -0.44712180D-04
 -0.27336150D-04  0.18034732D-04  0.90469873D-04  0.36763107D-03  0.40335662D-04
 -0.11245973D-03 -0.10904811D-03 -0.73563209D-04 -0.11245973D-03 -0.10904811D-03
 -0.73563209D-04 -0.11245973D-03 -0.10904811D-03 -0.73563209D-04  0.49668291D-04
  0.49668291D-04  0.49668291D-04  0.15503457D-04  0.15503457D-04  0.15503457D-04
  0.60718634D-06  0.60718634D-06  0.60718634D-06  0.11105200D-15  0.17418751D-15
 -0.28523951D-15  0.32060721D-03  0.32060721D-03  0.32060721D-03 -0.19666501D-16
 -0.95367057D-16  0.11503356D-15 -0.23644858D-03 -0.23644858D-03 -0.23644858D-03
 -0.33772430D-16 -0.13110539D-15  0.16487782D-15 -0.59200090D-04 -0.59200090D-04
 -0.59200090D-04 -0.12649613D-04 -0.12649613D-04 -0.12649613D-04  0.18974420D-04
  0.18974420D-04  0.18974420D-04  0.18974420D-04  0.18974420D-04  0.18974420D-04
 -0.43613659D-03 -0.27120122D-04 -0.27120122D-04 -0.27120122D-04  0.40680183D-04
  0.40680183D-04  0.40680183D-04  0.40680183D-04  0.40680183D-04  0.40680183D-04
  0.36181043D-03  0.41234146D-05  0.76855143D-05  0.13032086D-04  0.19724669D-04
  0.24610628D-04  0.21137247D-04  0.81150001D-05 -0.36298893D-07 -0.62670026D-05
 -0.11753919D-04 -0.20037855D-04 -0.31315267D-04 -0.41874478D-04 -0.44712180D-04
 -0.27336150D-04  0.18034732D-04  0.90469873D-04  0.36763107D-03  0.40335662D-04
 -0.11245973D-03 -0.10904811D-03 -0.73563209D-04  0.11245973D-03  0.10904811D-03
  0.73563209D-04  0.11245973D-03  0.10904811D-03  0.73563209D-04  0.49668291D-04
 -0.49668291D-04 -0.49668291D-04  0.15503457D-04 -0.15503457D-04 -0.15503457D-04
  0.60718634D-06 -0.60718634D-06 -0.60718634D-06 -0.12899353D-15  0.37345956D-16
  0.91647569D-16 -0.32060721D-03 -0.32060721D-03  0.32060721D-03  0.61969924D-16
  0.51023567D-17 -0.67072281D-16  0.23644858D-03  0.23644858D-03 -0.23644858D-03
  0.84245825D-16 -0.38305922D-16 -0.45939903D-16  0.59200090D-04  0.59200090D-04
 -0.59200090D-04 -0.12649613D-04  0.12649613D-04  0.12649613D-04  0.18974420D-04
 -0.18974420D-04 -0.18974420D-04  0.18974420D-04 -0.18974420D-04 -0.18974420D-04
 -0.43613659D-03 -0.27120122D-04  0.27120122D-04  0.27120122D-04  0.40680183D-04
 -0.40680183D-04 -0.40680183D-04  0.40680183D-04 -0.40680183D-04 -0.40680183D-04
  0.36181043D-03  0.41234146D-05  0.76855143D-05  0.13032086D-04  0.19724669D-04
  0.24610628D-04  0.21137247D-04  0.81150001D-05 -0.36298893D-07 -0.62670026D-05
 -0.11753919D-04 -0.20037855D-04 -0.31315267D-04 -0.41874478D-04 -0.44712180D-04
 -0.27336150D-04  0.18034732D-04  0.90469873D-04  0.36763107D-03  0.40335662D-04
  0.11245973D-03  0.10904811D-03  0.73563209D-04 -0.11245973D-03 -0.10904811D-03
 -0.73563209D-04  0.11245973D-03  0.10904811D-03  0.73563209D-04 -0.49668291D-04
  0.49668291D-04 -0.49668291D-04 -0.15503457D-04  0.15503457D-04 -0.15503457D-04
 -0.60718634D-06  0.60718634D-06 -0.60718634D-06 -0.10780604D-15  0.23763033D-16
  0.84043004D-16 -0.32060721D-03  0.32060721D-03 -0.32060721D-03  0.43894550D-16
 -0.17309405D-16 -0.26585145D-16  0.23644858D-03 -0.23644858D-03  0.23644858D-03
  0.81903583D-16 -0.15766205D-16 -0.66137378D-16  0.59200090D-04 -0.59200090D-04
  0.59200090D-04  0.12649613D-04 -0.12649613D-04  0.12649613D-04 -0.18974420D-04
  0.18974420D-04 -0.18974420D-04 -0.18974420D-04  0.18974420D-04 -0.18974420D-04
 -0.43613659D-03  0.27120122D-04 -0.27120122D-04  0.27120122D-04 -0.40680183D-04
  0.40680183D-04 -0.40680183D-04 -0.40680183D-04  0.40680183D-04 -0.40680183D-04
  0.36181043D-03
MO    2     MO 0.0        OCC NO =    2.0000000  ORB. ENERGY =  -19.240876
  0.75224277D-12  0.14062741D-11  0.24304808D-11  0.39311936D-11  0.59417689D-11
  0.81827908D-11  0.95637853D-11  0.82638321D-11  0.38542807D-11  0.52332805D-12
  0.14013436D-14  0.27488568D-14  0.12549680D-15 -0.13360424D-11 -0.24951161D-11
 -0.43281650D-11 -0.70179699D-11 -0.10804964D-10 -0.15388695D-10 -0.19787864D-10
 -0.20771369D-10 -0.14686830D-10  0.32524600D-12  0.10552677D-10  0.58105904D-11
 -0.24572888D-13  0.74580720D-12  0.13917866D-11  0.24173667D-11  0.39155977D-11
  0.60484525D-11  0.86229778D-11  0.11215677D-10  0.11952889D-10  0.88652091D-11
 -0.27594104D-12 -0.80314176D-11 -0.78680172D-11  0.36748307D-11 -0.30070751D-11
  0.20245450D-11  0.97677317D-12  0.12310290D-01  0.16150430D-01  0.17714560D-01
  0.14575821D-01  0.76846609D-02  0.19991855D-02 -0.22123026D-05  0.57011515D-02
  0.74796003D-02  0.82039815D-02  0.67503659D-02  0.35589264D-02  0.92586445D-03
 -0.10245634D-05  0.13226562D-01  0.17352529D-01  0.19033079D-01  0.15660719D-01
  0.82566408D-02  0.21479877D-02 -0.23769674D-05 -0.11628249D-01 -0.15267961D-01
 -0.17177486D-01 -0.14473331D-01 -0.80961783D-02 -0.20151223D-02  0.92423218D-03
 -0.53852841D-02 -0.70709108D-02 -0.79552514D-02 -0.67029008D-02 -0.37495087D-02
 -0.93324509D-03  0.42803117D-03 -0.12493755D-01 -0.16404377D-01 -0.18456030D-01
 -0.15550601D-01 -0.86987881D-02 -0.21651106D-02  0.99302406D-03 -0.42034396D-03
 -0.19467004D-03 -0.45163075D-03  0.28167168D-04  0.13044802D-04  0.30263690D-04
  0.13599406D-05  0.62981679D-06  0.14611628D-05  0.17931206D-14  0.18934792D-14
 -0.36865999D-14  0.61952318D-03  0.26703807D-03  0.57660562D-03 -0.82518676D-15
 -0.84230934D-15  0.16674961D-14  0.59506859D-03  0.25649721D-03  0.55384513D-03
  0.53955179D-16  0.65429170D-16 -0.11938435D-15  0.16514452D-05  0.71183569D-06
  0.15370410D-05 -0.13075992D-03 -0.60557643D-04 -0.14049257D-03  0.19613989D-03
  0.90836464D-04  0.21073885D-03  0.19613989D-03  0.90836464D-04  0.21073885D-03
  0.39074291D-11 -0.25568309D-04 -0.11841216D-04 -0.27471394D-04  0.38352464D-04
  0.17761825D-04  0.41207091D-04  0.38352464D-04  0.17761825D-04  0.41207091D-04
  0.91620677D-13 -0.62767534D-01 -0.11699061D+00 -0.19837731D+00 -0.30025329D+00
 -0.37462844D+00 -0.32175587D+00 -0.12352834D+00  0.55254982D-03 -0.55950142D-04
 -0.10493588D-03 -0.17889267D-03 -0.27957442D-03 -0.37384427D-03 -0.39917852D-03
 -0.24404992D-03  0.16100931D-03 -0.65264783D-02  0.35130219D-04  0.42476599D-04
 -0.57596066D-03 -0.55848810D-03 -0.37675277D-03 -0.54901869D-03 -0.53236345D-03
 -0.35912924D-03  0.47186038D-03  0.45754585D-03  0.30865773D-03  0.13467159D-03
  0.12139640D-03 -0.83377978D-04  0.13414185D-03  0.81880958D-04  0.67787451D-04
  0.57349201D-05  0.38688229D-05  0.14754370D-05 -0.68151033D-04 -0.26115967D-04
  0.94267000D-04 -0.22075940D-03  0.17767504D-03  0.16263094D-03  0.47920478D-04
  0.18363473D-04 -0.66283951D-04  0.14365941D-03 -0.77234203D-04 -0.54039992D-04
  0.15963653D-04  0.61173870D-05 -0.22081040D-04  0.60393148D-04 -0.32090862D-05
  0.16758322D-04 -0.10592839D-04 -0.45985753D-05 -0.12568217D-04  0.95162696D-04
  0.11385183D-03 -0.88282031D-05 -0.63384179D-04 -0.10005610D-03  0.46532855D-04
  0.32552117D-04 -0.14752006D-05 -0.39592031D-05  0.11073064D-04  0.62182698D-05
  0.11342895D-04 -0.18008217D-04 -0.17926681D-05  0.53471468D-06 -0.15210974D-04
 -0.54186131D-04  0.40977675D+00  0.76377114D+00  0.12951028D+01  0.19601984D+01
  0.24457553D+01  0.21005776D+01  0.80645259D+00 -0.36073119D-02  0.36526953D-03
  0.68507206D-03  0.11678977D-02  0.18251967D-02  0.24406358D-02  0.26060300D-02
  0.15932757D-02 -0.10511465D-02  0.42608000D-01 -0.22934702D-03 -0.27730774D-03
 -0.34827157D-02 -0.33770627D-02 -0.22781466D-02 -0.34557738D-02 -0.33509381D-02
 -0.22605230D-02 -0.34864509D-02 -0.33806846D-02 -0.22805899D-02  0.74250063D-03
  0.72922544D-03  0.74434107D-03  0.33758918D-03  0.28532829D-03  0.34483448D-03
  0.18224297D-04  0.16358200D-04  0.18483008D-04  0.12069149D-04 -0.29965918D-04
  0.17896769D-04  0.12145634D-02  0.12316932D-02  0.12166491D-02 -0.84864360D-05
  0.21070570D-04 -0.12584134D-04 -0.58842463D-03 -0.61483442D-03 -0.59164021D-03
 -0.28270695D-05  0.70191969D-05 -0.41921274D-05 -0.93438602D-04 -0.11617423D-03
 -0.96206826D-04 -0.74295784D-05 -0.14353147D-05 -0.82606059D-05 -0.20373710D-04
 -0.16845767D-05  0.40071438D-04  0.42662445D-04  0.59905208D-05 -0.15289620D-04
 -0.21251592D-03 -0.35209695D-04 -0.37693698D-04 -0.34865320D-04  0.51222021D-04
  0.56346646D-04  0.53696602D-04  0.54407065D-04  0.56734448D-04  0.50899360D-04
  0.35375321D-03 -0.86806645D-01 -0.16179642D+00 -0.27435311D+00 -0.41524622D+00
 -0.51810604D+00 -0.44498399D+00 -0.17083801D+00  0.76416889D-03 -0.77378285D-04
 -0.14512489D-03 -0.24740613D-03 -0.38664762D-03 -0.51702153D-03 -0.55205846D-03
 -0.33751772D-03  0.22267369D-03 -0.90260307D-02  0.48584616D-04  0.58744559D-04
  0.67696140D-03  0.65642484D-03  0.44282032D-03 -0.75038454D-03 -0.72762059D-03
 -0.49084855D-03 -0.78106167D-03 -0.75736709D-03 -0.51091536D-03 -0.12732585D-03
  0.16350384D-03  0.17861947D-03  0.46448310D-04  0.95974799D-04  0.15548099D-03
  0.35152332D-06  0.47340263D-05  0.68588338D-05  0.92324460D-04 -0.22230887D-04
 -0.70093573D-04  0.23356252D-03  0.25069229D-03 -0.29169098D-03 -0.64918052D-04
  0.15631674D-04  0.49286378D-04 -0.88066743D-04 -0.11447653D-03  0.17768616D-03
 -0.21626021D-04  0.52073483D-05  0.16418673D-04  0.11700870D-04 -0.11034762D-04
  0.65450600D-04 -0.11956325D-04 -0.43794400D-05 -0.11204731D-04  0.49452565D-04
 -0.10038481D-03 -0.58628792D-04 -0.13583590D-04  0.11352313D-03  0.92242985D-04
  0.45019133D-04  0.13065650D-04 -0.62961649D-05 -0.34677873D-05 -0.18005954D-04
  0.40401573D-05  0.13901128D-05 -0.21190997D-04  0.14848337D-04  0.90132492D-05
 -0.74938682D-04 -0.26020257D+00 -0.48498411D+00 -0.82237236D+00 -0.12446989D+01
 -0.15530208D+01 -0.13338377D+01 -0.51208624D+00  0.22905932D-02 -0.23194110D-03
 -0.43501128D-03 -0.74159887D-03 -0.11589747D-02 -0.15497700D-02 -0.16547930D-02
 -0.10117080D-02  0.66746350D-03 -0.27055491D-01  0.14563219D-03  0.17608658D-03
 -0.22297937D-02 -0.21621498D-02 -0.14585735D-02  0.21563705D-02  0.20909540D-02
  0.14105452D-02 -0.22335288D-02 -0.21657716D-02 -0.14610167D-02  0.48050318D-03
 -0.44432519D-03  0.48234362D-03  0.24989564D-03 -0.10747253D-03  0.25714094D-03
  0.12840900D-04 -0.77553508D-05  0.13099611D-04 -0.36242575D-04  0.78312771D-04
 -0.42070196D-04  0.76024146D-03 -0.80332582D-03  0.76232714D-03  0.25484009D-04
 -0.55065716D-04  0.29581707D-04 -0.35669848D-03  0.42312368D-03 -0.35991405D-03
  0.84894372D-05 -0.18343932D-04  0.98544951D-05 -0.44746324D-04  0.10193039D-03
 -0.47514548D-04 -0.87930641D-05 -0.75427008D-05 -0.96240916D-05 -0.66083841D-04
  0.15151600D-04  0.89872026D-04  0.92463033D-04  0.74765025D-05 -0.60999751D-04
  0.13494467D-03 -0.20668844D-04  0.27438330D-04 -0.20324469D-04  0.26997797D-04
 -0.40963594D-04  0.34298272D-04  0.35008735D-04 -0.41351395D-04  0.26675135D-04
 -0.22462840D-03
MO    3     MO 0.0        OCC NO =    2.0000000  ORB. ENERGY =  -19.240876
  0.15673953D-11  0.29301545D-11  0.50642218D-11  0.81911515D-11  0.12380446D-10
  0.17049905D-10  0.19927387D-10  0.17218765D-10  0.80308935D-11  0.10904218D-11
  0.29198810D-14  0.57275995D-14  0.26148884D-15 -0.27792144D-11 -0.51903013D-11
 -0.90033808D-11 -0.14598671D-10 -0.22476315D-10 -0.32011322D-10 -0.41162404D-10
 -0.43208276D-10 -0.30551313D-10  0.67657161D-12  0.21951513D-10  0.12087099D-10
 -0.51116136D-13  0.15492889D-11  0.28912023D-11  0.50216723D-11  0.81339950D-11
  0.12564642D-10  0.17912785D-10  0.23298682D-10  0.24830114D-10  0.18415979D-10
 -0.57322106D-12 -0.16683918D-10 -0.16344481D-10  0.76338421D-11 -0.64578901D-11
  0.50661472D-11  0.22835927D-11 -0.51344350D-02 -0.67360992D-02 -0.73884741D-02
 -0.60793536D-02 -0.32051554D-02 -0.83382995D-03  0.92271785D-06  0.17993409D-01
  0.23606372D-01  0.25892593D-01  0.21304835D-01  0.11232331D-01  0.29221215D-02
 -0.32336254D-05 -0.29770977D-02 -0.39057900D-02 -0.42840563D-02 -0.35249894D-02
 -0.18584441D-02 -0.48347933D-03  0.53501917D-06  0.48499661D-02  0.63680350D-02
  0.71644688D-02  0.60366066D-02  0.33767931D-02  0.84047693D-03 -0.38548322D-03
 -0.16996500D-01 -0.22316507D-01 -0.25107576D-01 -0.21155031D-01 -0.11833828D-01
 -0.29454156D-02  0.13509095D-02  0.28121542D-02  0.36923755D-02  0.41541714D-02
  0.35002035D-02  0.19579648D-02  0.48733345D-03 -0.22351460D-03  0.17531909D-03
 -0.61439827D-03  0.10165521D-03 -0.11748099D-04  0.41170711D-04 -0.68118960D-05
 -0.56721057D-06  0.19877653D-05 -0.32888551D-06  0.14526310D-14  0.17643715D-14
 -0.32170025D-14 -0.13944524D-03  0.84279907D-03 -0.24049346D-03 -0.85785258D-15
 -0.10237603D-14  0.18816129D-14 -0.13394088D-03  0.80953105D-03 -0.23100040D-03
  0.25371832D-15  0.31688800D-15 -0.57060632D-15 -0.37171517D-06  0.22466252D-05
 -0.64107648D-06  0.54537980D-04 -0.19112603D-03  0.31622738D-04 -0.81806970D-04
  0.28668904D-03 -0.47434107D-04 -0.81806970D-04  0.28668904D-03 -0.47434107D-04
  0.83249099D-11  0.10664154D-04 -0.37372073D-04  0.61833926D-05 -0.15996231D-04
  0.56058109D-04 -0.92750889D-05 -0.15996231D-04  0.56058109D-04 -0.92750889D-05
  0.26180657D-12 -0.20773588D+00 -0.38719294D+00 -0.65655094D+00 -0.99372043D+00
 -0.12398730D+01 -0.10648855D+01 -0.40883026D+00  0.18287228D-02 -0.18517299D-03
 -0.34729653D-03 -0.59206445D-03 -0.92528148D-03 -0.12372776D-02 -0.13211241D-02
 -0.80770935D-03  0.53287757D-03 -0.21600079D-01  0.11626722D-03  0.14058085D-03
 -0.17191885D-02 -0.16670346D-02 -0.11245717D-02 -0.18134686D-02 -0.17584545D-02
 -0.11862430D-02  0.17522550D-02  0.16990979D-02  0.11462014D-02  0.35356168D-03
  0.40001653D-03 -0.36985460D-03  0.81193173D-04  0.26407357D-03 -0.14533405D-03
  0.60270095D-05  0.12557181D-04 -0.83173094D-05  0.66228970D-04 -0.80867430D-04
  0.14638460D-04 -0.62420768D-03  0.59002669D-03  0.64267162D-03 -0.46568978D-04
  0.56862028D-04 -0.10293050D-04  0.31138465D-03 -0.25868618D-03 -0.33985139D-03
 -0.15513431D-04  0.18942334D-04 -0.34289033D-05  0.58631845D-04 -0.13264839D-04
 -0.83138259D-04  0.65504333D-05 -0.14425735D-04  0.80645107D-06  0.53065973D-04
 -0.12334286D-04  0.95654834D-04 -0.72717273D-04  0.55611490D-04 -0.98074188D-04
  0.10773471D-03 -0.22124784D-04 -0.13432331D-04  0.19076116D-04  0.36364917D-04
  0.18431940D-04 -0.23719876D-04  0.30009435D-04  0.21865053D-04 -0.33508472D-04
 -0.17933480D-03  0.12962939D+00  0.24161250D+00  0.40969474D+00  0.62009207D+00
  0.77369386D+00  0.66449984D+00  0.25511441D+00 -0.11411424D-02  0.11554991D-03
  0.21671671D-03  0.36945448D-03  0.57738544D-03  0.77207435D-03  0.82439541D-03
  0.50401919D-03 -0.33252125D-03  0.13478678D-01 -0.72551977D-04 -0.87723943D-04
 -0.10649223D-02 -0.10326164D-02 -0.69659690D-03 -0.11592023D-02 -0.11240363D-02
 -0.75826823D-03 -0.10737166D-02 -0.10411439D-02 -0.70234953D-03  0.21674862D-03
  0.26320348D-03  0.22108187D-03  0.35400278D-04  0.21828067D-03  0.52459140D-04
  0.32158409D-05  0.97460122D-05  0.38249674D-05 -0.53605791D-04  0.93490608D-04
 -0.39884817D-04  0.40051754D-03  0.35278326D-03  0.40542820D-03  0.37692975D-04
 -0.65738030D-04  0.28045056D-04 -0.21127477D-03 -0.13768056D-03 -0.21884577D-03
  0.12556586D-04 -0.21899179D-04  0.93425934D-05 -0.51193816D-04  0.12161895D-04
 -0.57711525D-04  0.58384312D-05 -0.15137737D-04  0.38817996D-05  0.79071460D-04
  0.13671200D-04 -0.10268721D-03 -0.96586753D-04  0.31742010D-04  0.91041812D-04
 -0.67227597D-04 -0.14531663D-04 -0.58392102D-05 -0.13720842D-04  0.26235258D-04
  0.83022811D-05  0.15686965D-04  0.17359731D-04  0.92153494D-05  0.25475560D-04
  0.11190682D-03 -0.26433531D+00 -0.49268701D+00 -0.83543393D+00 -0.12644682D+01
 -0.15776871D+01 -0.13550228D+01 -0.52021960D+00  0.23269742D-02 -0.23562497D-03