 Molden2AIM, Version 4.0.0 (06/02/2016)           Time: Wed Jun 27 19:36:00 2018
GAUSSIAN              6 MOL ORBITALS    150 PRIMITIVES        2 NUCLEI
  C    1    (CENTRE  1)   0.00000000  0.00000000  1.17761874  CHARGE =  6.0
  C    2    (CENTRE  2)   0.00000000  0.00000000 -1.17761874  CHARGE =  6.0
CENTRE ASSIGNMENTS    1  1  1  1  1  1  1  1  1  1  1  1  1  1  1  1  1  1  1  1
CENTRE ASSIGNMENTS    1  1  1  1  1  1  1  1  1  1  1  1  1  1  1  1  1  1  1  1
CENTRE ASSIGNMENTS    1  1  1  1  1  1  1  1  1  1  1  1  1  1  1  1  1  1  1  1
CENTRE ASSIGNMENTS    1  1  1  1  1  1  1  1  1  1  1  1  1  1  1  2  2  2  2  2
CENTRE ASSIGNMENTS    2  2  2  2  2  2  2  2  2  2  2  2  2  2  2  2  2  2  2  2
CENTRE ASSIGNMENTS    2  2  2  2  2  2  2  2  2  2  2  2  2  2  2  2  2  2  2  2
CENTRE ASSIGNMENTS    2  2  2  2  2  2  2  2  2  2  2  2  2  2  2  2  2  2  2  2
CENTRE ASSIGNMENTS    2  2  2  2  2  2  2  2  2  2
TYPE ASSIGNMENTS      1  1  1  1  1  1  1  1  1  1  1  1  1  1  1  1  1  1  1  2
TYPE ASSIGNMENTS      2  2  3  3  3  4  4  4  2  3  4  2  3  4  2  3  4  5  6  7
TYPE ASSIGNMENTS      8  9 10  5  6  7  8  9 10  5  6  7  8  9 10 11 12 13 17 14
TYPE ASSIGNMENTS     15 18 19 16 20 11 12 13 17 14 15 18 19 16 20  1  1  1  1  1
TYPE ASSIGNMENTS      1  1  1  1  1  1  1  1  1  1  1  1  1  1  2  2  2  3  3  3
TYPE ASSIGNMENTS      4  4  4  2  3  4  2  3  4  2  3  4  5  6  7  8  9 10  5  6
TYPE ASSIGNMENTS      7  8  9 10  5  6  7  8  9 10 11 12 13 17 14 15 18 19 16 20
TYPE ASSIGNMENTS     11 12 13 17 14 15 18 19 16 20
EXPONENTS  0.8236000D+04 0.1235000D+04 0.2808000D+03 0.7927000D+02 0.2559000D+02
EXPONENTS  0.8997000D+01 0.3319000D+01 0.3643000D+00 0.8236000D+04 0.1235000D+04
EXPONENTS  0.2808000D+03 0.7927000D+02 0.2559000D+02 0.8997000D+01 0.3319000D+01
EXPONENTS  0.3643000D+00 0.9059000D+00 0.1285000D+00 0.4402000D-01 0.1871000D+02
EXPONENTS  0.4133000D+01 0.1200000D+01 0.1871000D+02 0.4133000D+01 0.1200000D+01
EXPONENTS  0.1871000D+02 0.4133000D+01 0.1200000D+01 0.3827000D+00 0.3827000D+00
EXPONENTS  0.3827000D+00 0.1209000D+00 0.1209000D+00 0.1209000D+00 0.3569000D-01
EXPONENTS  0.3569000D-01 0.3569000D-01 0.1097000D+01 0.1097000D+01 0.1097000D+01
EXPONENTS  0.1097000D+01 0.1097000D+01 0.1097000D+01 0.3180000D+00 0.3180000D+00
EXPONENTS  0.3180000D+00 0.3180000D+00 0.3180000D+00 0.3180000D+00 0.1000000D+00
EXPONENTS  0.1000000D+00 0.1000000D+00 0.1000000D+00 0.1000000D+00 0.1000000D+00
EXPONENTS  0.7610000D+00 0.7610000D+00 0.7610000D+00 0.7610000D+00 0.7610000D+00
EXPONENTS  0.7610000D+00 0.7610000D+00 0.7610000D+00 0.7610000D+00 0.7610000D+00
EXPONENTS  0.2680000D+00 0.2680000D+00 0.2680000D+00 0.2680000D+00 0.2680000D+00
EXPONENTS  0.2680000D+00 0.2680000D+00 0.2680000D+00 0.2680000D+00 0.2680000D+00
EXPONENTS  0.8236000D+04 0.1235000D+04 0.2808000D+03 0.7927000D+02 0.2559000D+02
EXPONENTS  0.8997000D+01 0.3319000D+01 0.3643000D+00 0.8236000D+04 0.1235000D+04
EXPONENTS  0.2808000D+03 0.7927000D+02 0.2559000D+02 0.8997000D+01 0.3319000D+01
EXPONENTS  0.3643000D+00 0.9059000D+00 0.1285000D+00 0.4402000D-01 0.1871000D+02
EXPONENTS  0.4133000D+01 0.1200000D+01 0.1871000D+02 0.4133000D+01 0.1200000D+01
EXPONENTS  0.1871000D+02 0.4133000D+01 0.1200000D+01 0.3827000D+00 0.3827000D+00
EXPONENTS  0.3827000D+00 0.1209000D+00 0.1209000D+00 0.1209000D+00 0.3569000D-01
EXPONENTS  0.3569000D-01 0.3569000D-01 0.1097000D+01 0.1097000D+01 0.1097000D+01
EXPONENTS  0.1097000D+01 0.1097000D+01 0.1097000D+01 0.3180000D+00 0.3180000D+00
EXPONENTS  0.3180000D+00 0.3180000D+00 0.3180000D+00 0.3180000D+00 0.1000000D+00
EXPONENTS  0.1000000D+00 0.1000000D+00 0.1000000D+00 0.1000000D+00 0.1000000D+00
EXPONENTS  0.7610000D+00 0.7610000D+00 0.7610000D+00 0.7610000D+00 0.7610000D+00
EXPONENTS  0.7610000D+00 0.7610000D+00 0.7610000D+00 0.7610000D+00 0.7610000D+00
EXPONENTS  0.2680000D+00 0.2680000D+00 0.2680000D+00 0.2680000D+00 0.2680000D+00
EXPONENTS  0.2680000D+00 0.2680000D+00 0.2680000D+00 0.2680000D+00 0.2680000D+00
MO    1     MO 0.0        OCC NO =    2.0000000  ORB. ENERGY =  -11.331039
  0.23127088D+00  0.43114151D+00  0.72870510D+00  0.10954825D+01  0.13459268D+01
  0.11368503D+01  0.42877811D+00 -0.21220468D-02 -0.14068248D-03 -0.26340198D-03
 -0.44846442D-03 -0.69370626D-03 -0.91358674D-03 -0.94927514D-03 -0.60322174D-03
  0.40426518D-03  0.19702840D-01  0.23522996D-03 -0.34524189D-04 -0.11903982D-06
 -0.11160740D-06 -0.79471117D-07  0.60443763D-07  0.56669870D-07  0.40352323D-07
 -0.51710637D-02 -0.48482009D-02 -0.34522079D-02  0.42503569D-07 -0.23524215D-07
  0.26134662D-03 -0.70751923D-08  0.41524865D-08  0.10182699D-03  0.39211748D-09
 -0.22356873D-09  0.77228313D-06 -0.81155033D-03 -0.58739273D-03  0.13989431D-02
  0.39521871D-03 -0.99327391D-08  0.15042296D-07  0.10548588D-03  0.14072439D-03
 -0.24621027D-03  0.62129986D-04  0.23477053D-08 -0.15354788D-08  0.28581679D-05
  0.23124908D-05 -0.51706587D-05 -0.96209633D-06  0.84048524D-09 -0.49768475D-09
 -0.12564275D-07  0.72531251D-08  0.10125857D-03 -0.12830063D-07  0.68265513D-08
 -0.95224385D-04  0.50522887D-07 -0.28585927D-07 -0.20855131D-03 -0.19980983D-03
  0.12843246D-08 -0.70368208D-09  0.38436173D-04  0.12824305D-08 -0.97566750D-09
 -0.57716837D-04 -0.51354044D-08  0.30867137D-08 -0.57591681D-04  0.22066148D-06
  0.23123928D+00  0.43108259D+00  0.72860552D+00  0.10953328D+01  0.13457429D+01
  0.11366950D+01  0.42871952D+00 -0.21217568D-02 -0.14068865D-03 -0.26341355D-03
 -0.44848410D-03 -0.69373671D-03 -0.91362684D-03 -0.94931681D-03 -0.60324822D-03
  0.40428293D-03  0.19700215D-01  0.23473216D-03 -0.34572968D-04 -0.11722880D-06
 -0.10990945D-06 -0.78262080D-07  0.76241201D-07  0.71480972D-07  0.50898710D-07
  0.51706497D-02  0.48478127D-02  0.34519315D-02  0.43369860D-07 -0.26061205D-07
 -0.26144030D-03 -0.68481497D-08  0.39054835D-08 -0.10195859D-03  0.39607982D-09
 -0.23263455D-09 -0.77472860D-06 -0.81141593D-03 -0.58726909D-03  0.13986850D-02
  0.39519872D-03  0.16169828D-07  0.97262795D-09  0.10550618D-03  0.14073955D-03
 -0.24624573D-03  0.62120906D-04 -0.16667736D-08  0.61107335D-09  0.28608600D-05
  0.23152139D-05 -0.51760740D-05 -0.96204234D-06 -0.80447443D-09  0.45558701D-09
 -0.12670212D-07  0.75680878D-08 -0.10132133D-03 -0.12701384D-07  0.72684593D-08
  0.95318323D-04  0.50712021D-07 -0.29972723D-07  0.20864566D-03  0.19981071D-03
  0.12619654D-08 -0.63072127D-09 -0.38436290D-04  0.12700305D-08 -0.89567905D-09
  0.57717771D-04 -0.50559268D-08  0.27878429D-08  0.57591099D-04 -0.22334186D-06
MO    2     MO 0.0        OCC NO =    2.0000000  ORB. ENERGY =  -11.328046
  0.23119020D+00  0.43099109D+00  0.72845086D+00  0.10951003D+01  0.13454572D+01
  0.11364537D+01  0.42862852D+00 -0.21213065D-02  0.29201861D-04  0.54675098D-04
  0.93089033D-04  0.14399458D-03  0.18963580D-03  0.19704374D-03  0.12521245D-03
 -0.83914472D-04  0.19090801D-01  0.34343337D-02  0.33518379D-03 -0.30453059D-06
 -0.28551678D-06 -0.20330496D-06  0.17156899D-06  0.16085684D-06  0.11453965D-06
 -0.32719531D-02 -0.30676640D-02 -0.21843595D-02  0.26309662D-06 -0.15135373D-06
 -0.60025636D-03  0.72435904D-07 -0.42170057D-07 -0.90417015D-03  0.14142658D-08
 -0.81910256D-09 -0.16762928D-04 -0.10032751D-02 -0.90791838D-03  0.19111935D-02
  0.16812642D-03  0.81564654D-07 -0.39504824D-07 -0.14246081D-03 -0.10385523D-03
  0.24631604D-03  0.68066557D-04 -0.20996990D-06  0.12228755D-06 -0.18317563D-04
 -0.18551503D-04  0.36869066D-04 -0.41246664D-06 -0.11577357D-07  0.67318605D-08
 -0.21493724D-07  0.13171531D-07 -0.47410113D-03 -0.21645346D-07  0.10137288D-07
  0.71166808D-03  0.86126519D-07 -0.49651881D-07  0.71063531D-03 -0.18209090D-05
 -0.89398217D-08  0.52045348D-08 -0.52254279D-06 -0.89426350D-08  0.51980177D-08
  0.63687768D-05  0.35762100D-07 -0.20811622D-07 -0.48011484D-05 -0.19693984D-04
 -0.23122182D+00 -0.43105004D+00 -0.72855050D+00 -0.10952501D+01 -0.13456412D+01
 -0.11366091D+01 -0.42868715D+00  0.21215966D-02 -0.29178046D-04 -0.54630508D-04
 -0.93013114D-04 -0.14387714D-03 -0.18948114D-03 -0.19688304D-03 -0.12511033D-03
  0.83846036D-04 -0.19093488D-01 -0.34343649D-02 -0.33517895D-03  0.30439245D-06
  0.28538727D-06  0.20321274D-06 -0.18006905D-06 -0.16882618D-06 -0.12021430D-06
 -0.32727052D-02 -0.30683692D-02 -0.21848617D-02 -0.26302438D-06  0.15337209D-06
 -0.60021438D-03 -0.72398686D-07  0.42070216D-07 -0.90415368D-03 -0.14158884D-08
  0.82659405D-09 -0.16762747D-04  0.10033880D-02  0.90799858D-03 -0.19113865D-02
 -0.16818256D-03  0.75632819D-07 -0.53582570D-07  0.14244450D-03  0.10383400D-03
 -0.24627850D-03 -0.68075163D-04 -0.21010752D-06  0.12142410D-06  0.18317033D-04
  0.18551048D-04 -0.36868081D-04  0.41259788D-06 -0.11566228D-07  0.67300861D-08
  0.21656374D-07 -0.13118114D-07 -0.47408429D-03  0.21612865D-07 -0.10213765D-07
  0.71165080D-03 -0.86581986D-07  0.49568108D-07  0.71060208D-03 -0.18492017D-05
  0.89309044D-08 -0.51715093D-08 -0.51684775D-06  0.89277937D-08 -0.51666969D-08
  0.63602219D-05 -0.35720507D-07  0.20681225D-07 -0.48096787D-05 -0.19693952D-04
MO    3     MO 0.0        OCC NO =    2.0000000  ORB. ENERGY =   -1.108667
  0.69405666D-02  0.12938794D-01  0.21868841D-01  0.32876032D-01  0.40392004D-01
  0.34117504D-01  0.12867867D-01 -0.63683794D-04  0.43990066D-01  0.82363284D-01
  0.14023054D+00  0.21691532D+00  0.28566985D+00  0.29682927D+00  0.18862167D+00
 -0.12640986D+00 -0.54223825D-01 -0.15618662D-01  0.63208830D-03 -0.29944698D-06
 -0.28075058D-06 -0.19991114D-06  0.62123799D-06  0.58245011D-06  0.41473918D-06
  0.29952414D+00  0.28082292D+00  0.19996265D+00 -0.12362159D-07  0.14482286D-06
  0.60520430D-01  0.39324150D-08  0.16489691D-07 -0.19778787D-02  0.40748318D-09
 -0.86579811D-11 -0.29795826D-03  0.24954325D-01  0.23180172D-01 -0.48134497D-01
 -0.31280444D-02  0.16661309D-07 -0.82336709D-07  0.19834709D-02  0.13897986D-02
 -0.33732695D-02 -0.10467166D-02  0.56620345D-07 -0.62769095D-07 -0.25537340D-03
 -0.30187900D-03  0.55725240D-03 -0.81995294D-04  0.76261886D-09 -0.28385283D-08
 -0.44787516D-08  0.10243904D-07  0.56189556D-02 -0.10202433D-07  0.26435404D-08
 -0.76734369D-02  0.23638687D-07 -0.33375252D-07 -0.91834299D-02 -0.26623009D-02
  0.72887829D-08 -0.72621327D-08 -0.29231332D-03  0.73673764D-08  0.31779380D-08
  0.36929726D-03 -0.29233725D-07  0.18608460D-07  0.50764270D-03  0.24391973D-03
  0.69405727D-02  0.12938806D-01  0.21868861D-01  0.32876061D-01  0.40392040D-01
  0.34117535D-01  0.12867879D-01 -0.63683850D-04  0.43990054D-01  0.82363261D-01
  0.14023050D+00  0.21691526D+00  0.28566977D+00  0.29682918D+00  0.18862162D+00
 -0.12640982D+00 -0.54223849D-01 -0.15618643D-01  0.63208221D-03 -0.41508533D-06
 -0.38916888D-06 -0.27711143D-06 -0.20725454D-06 -0.19431431D-06 -0.13836336D-06
 -0.29952399D+00 -0.28082278D+00 -0.19996255D+00 -0.40758846D-07 -0.11392424D-06
 -0.60520425D-01 -0.58171392D-09 -0.18804411D-07  0.19778835D-02  0.29102419D-09
 -0.39918641D-09  0.29795797D-03  0.24954379D-01  0.23180208D-01 -0.48134588D-01
 -0.31280997D-02 -0.43707141D-07 -0.44774979D-07  0.19834845D-02  0.13898075D-02
 -0.33732920D-02 -0.10467301D-02 -0.62149012D-07  0.66478328D-08 -0.25537327D-03
 -0.30187921D-03  0.55725248D-03 -0.81995787D-04 -0.14326194D-08 -0.15788769D-08
 -0.81301985D-08  0.22003588D-08 -0.56189747D-02 -0.21297281D-08 -0.10584542D-07
  0.76734708D-02  0.26520324D-07  0.39834661D-08  0.91834533D-02  0.26622949D-02
  0.73502788D-08 -0.63762161D-08  0.29231084D-03  0.69729102D-08  0.37860795D-08
 -0.36929296D-03 -0.29023747D-07  0.15342569D-07 -0.50763956D-03 -0.24392342D-03
MO    4     MO 0.0        OCC NO =    2.0000000  ORB. ENERGY =   -0.569349
 -0.10562097D-02 -0.19690151D-02 -0.33279824D-02 -0.50030477D-02 -0.61468221D-02
 -0.51919739D-02 -0.19582215D-02  0.96913477D-05  0.44671933D-01  0.83639954D-01
  0.14240418D+00  0.22027761D+00  0.29009786D+00  0.30143026D+00  0.19154540D+00
 -0.12836927D+00 -0.57327460D-01 -0.74110726D-01 -0.31516939D-02 -0.16030267D-07
 -0.15029394D-07 -0.10701824D-07 -0.59005619D-06 -0.55321518D-06 -0.39392217D-06
 -0.25402450D+00 -0.23816411D+00 -0.16958704D+00 -0.44580900D-07 -0.10255895D-06
 -0.59840048D-01  0.15954825D-07 -0.23124562D-07 -0.54238422D-03 -0.16221345D-08
  0.99021189D-09  0.17706911D-04 -0.53496959D-02 -0.36817231D-02  0.90314190D-02
  0.29408370D-02 -0.69153457D-07  0.53367071D-07 -0.13175698D-02 -0.17307046D-03
  0.14906402D-02  0.20178941D-02 -0.24511701D-07  0.60801356D-08  0.12474593D-03
  0.16279301D-03 -0.28753894D-03  0.67081566D-04  0.10542354D-08 -0.27131581D-08
 -0.40763943D-07 -0.86066379D-08  0.10359979D-02 -0.33723703D-07  0.91036157D-07
 -0.20134394D-02  0.15601553D-06 -0.65216243D-07 -0.10945543D-02  0.16201089D-02
  0.58946056D-08  0.35613767D-09 -0.37752174D-04  0.68264491D-08 -0.17738886D-07
  0.11050072D-03 -0.24510266D-07  0.16670473D-07  0.27558041D-05 -0.18996851D-03
  0.10562066D-02  0.19690093D-02  0.33279726D-02  0.50030330D-02  0.61468041D-02
  0.51919587D-02  0.19582158D-02 -0.96913192D-05 -0.44671923D-01 -0.83639935D-01
 -0.14240415D+00 -0.22027756D+00 -0.29009780D+00 -0.30143020D+00 -0.19154536D+00
  0.12836924D+00  0.57327545D-01  0.74110690D-01  0.31516990D-02 -0.99447729D-06
 -0.93238567D-06 -0.66391414D-06 -0.28795984D-07 -0.26998066D-07 -0.19224231D-07
 -0.25402390D+00 -0.23816356D+00 -0.16958664D+00 -0.22583202D-06 -0.32954846D-09
 -0.59839878D-01 -0.51456329D-07  0.15480823D-07 -0.54239601D-03  0.13747769D-08
 -0.76796415D-09  0.17704174D-04  0.53497218D-02  0.36817339D-02 -0.90314557D-02
 -0.29408837D-02 -0.18287908D-06  0.96198214D-07  0.13175919D-02  0.17309105D-03
 -0.14906829D-02 -0.20179037D-02 -0.52394097D-07  0.38789587D-07 -0.12474271D-03
 -0.16278987D-03  0.28753258D-03 -0.67082345D-04  0.21827464D-09  0.18804149D-08
  0.41678606D-07 -0.10310282D-07  0.10360133D-02  0.50871363D-07 -0.96712084D-07
 -0.20134801D-02 -0.17590718D-06  0.12764293D-06 -0.10945597D-02  0.16201698D-02
 -0.62807626D-08 -0.20061387D-08 -0.37755738D-04 -0.57089141D-08  0.17827917D-07
  0.11050597D-03  0.24551202D-07 -0.11809501D-07  0.27612399D-05 -0.18996684D-03
MO    5     MO 0.0        OCC NO =    2.0000000  ORB. ENERGY =   -0.480536
  0.48445610D-08  0.90313633D-08  0.15264595D-07  0.22947686D-07  0.28193884D-07
  0.23814242D-07  0.89818559D-08 -0.44451706D-10 -0.52768042D-07 -0.98798423D-07
 -0.16821277D-06 -0.26019958D-06 -0.34267369D-06 -0.35605991D-06 -0.22626009D-06
  0.15163425D-06  0.70943169D-07  0.15126766D-06  0.23271029D-07 -0.24434317D+00
 -0.22908726D+00 -0.16312377D+00 -0.41949325D+00 -0.39330159D+00 -0.28005416D+00
 -0.22264584D-06 -0.20874462D-06 -0.14863861D-06 -0.65525637D-01 -0.11249572D+00
 -0.48444253D-07 -0.85609452D-02 -0.14697592D-01 -0.29000232D-07 -0.41959084D-04
 -0.72036137D-04 -0.10682393D-08  0.15755224D-06 -0.93224292D-07 -0.64327946D-07
  0.19542752D-06  0.42097973D-01  0.72274680D-01  0.53957316D-07 -0.32016925D-07
 -0.21940391D-07  0.71279010D-07  0.80982694D-02  0.13903278D-01  0.61605353D-08
 -0.57392565D-08 -0.42127880D-09  0.87440033D-08  0.22897221D-03  0.39310414D-03
 -0.69845893D-04  0.33129824D-02  0.31311150D-08  0.79823541D-02  0.34055788D-02
 -0.15390647D-06 -0.77728164D-02 -0.13344526D-01  0.14451313D-06 -0.11452804D-06
 -0.21176613D-03  0.22899567D-04  0.14326895D-08  0.69472374D-03  0.33323913D-04
 -0.46270306D-08 -0.59425342D-04 -0.10202262D-03  0.32896219D-09 -0.23896244D-08
 -0.35965455D-08 -0.67047786D-08 -0.11332257D-07 -0.17036094D-07 -0.20930810D-07
 -0.17679415D-07 -0.66680249D-08  0.33000427D-10  0.51822298D-07  0.97027693D-07
  0.16519795D-06  0.25553611D-06  0.33653206D-06  0.34967837D-06  0.22220491D-06
 -0.14891656D-06 -0.70688211D-07 -0.15267528D-06 -0.23270881D-07 -0.24434347D+00
 -0.22908753D+00 -0.16312397D+00 -0.41949410D+00 -0.39330238D+00 -0.28005473D+00
 -0.21360795D-06 -0.20027103D-06 -0.14260491D-06 -0.65525680D-01 -0.11249590D+00
 -0.46319233D-07 -0.85609467D-02 -0.14697627D-01 -0.29114188D-07 -0.41959703D-04
 -0.72037331D-04 -0.10506556D-08  0.12809674D-06 -0.19218086D-06  0.64084128D-07
  0.13278514D-06 -0.42098014D-01 -0.72274734D-01  0.45708206D-07 -0.66998626D-07
  0.21290420D-07  0.42158801D-07 -0.80982872D-02 -0.13903306D-01  0.64996066D-08
 -0.69094056D-08  0.40979898D-09  0.56479737D-08 -0.22897312D-03 -0.39310580D-03
 -0.69852004D-04  0.33129883D-02  0.31719543D-08  0.79823721D-02  0.34055733D-02
  0.11594300D-06 -0.77728161D-02 -0.13344538D-01 -0.12545886D-06  0.19127124D-06
 -0.21176536D-03  0.22900925D-04  0.13722740D-08  0.69472347D-03  0.33323579D-04
  0.14162055D-08 -0.59427397D-04 -0.10202635D-03 -0.55330276D-08  0.43639083D-08
MO    6     MO 0.0        OCC NO =    2.0000000  ORB. ENERGY =   -0.470158
 -0.18399041D-02 -0.34299995D-02 -0.57973034D-02 -0.87152460D-02 -0.10707687D-01
 -0.90443531D-02 -0.34111972D-02  0.16882206D-04  0.16394632D-01  0.30695923D-01
  0.52262436D-01  0.80842041D-01  0.10646612D+00  0.11062512D+00  0.70297300D-01
 -0.47111615D-01 -0.19576635D-01 -0.39654087D-01 -0.23604867D-02 -0.13608749D-05
 -0.12759067D-05 -0.90852159D-06 -0.67183176D-06 -0.62988498D-06 -0.44851563D-06
 -0.54758871D+00 -0.51339922D+00 -0.36557083D+00 -0.34671364D-06 -0.16896273D-06
 -0.12760549D+00 -0.20648908D-07 -0.72667534D-07 -0.13849184D-01  0.17948845D-08
 -0.30667069D-08 -0.17644197D-04 -0.20619644D-01 -0.21170512D-01  0.41790156D-01
 -0.97129366D-03  0.56350541D-07 -0.78012794D-07 -0.18839949D-02 -0.16805864D-02
  0.35645814D-02  0.35861799D-03 -0.51039711D-07  0.22760260D-07 -0.18477632D-04
 -0.42314276D-05  0.22709059D-04  0.25115562D-04 -0.19738122D-07  0.14571132D-07
  0.63543911D-07 -0.52421066D-07 -0.25057931D-02  0.89407461D-07 -0.97508533D-07
  0.15010520D-02 -0.28003919D-06  0.25477173D-06  0.60163273D-02  0.79609623D-02
 -0.63646890D-08  0.60238487D-08  0.27137591D-03 -0.29751747D-08 -0.95659164D-08
 -0.50575465D-03  0.22069242D-07 -0.85056297D-08 -0.30837309D-03  0.34800735D-03
 -0.18399027D-02 -0.34299970D-02 -0.57972992D-02 -0.87152396D-02 -0.10707679D-01
 -0.90443465D-02 -0.34111948D-02  0.16882193D-04  0.16394700D-01  0.30696052D-01
  0.52262655D-01  0.80842381D-01  0.10646657D+00  0.11062559D+00  0.70297595D-01
 -0.47111813D-01 -0.19576739D-01 -0.39654159D-01 -0.23605231D-02 -0.11689256D-05
 -0.10959420D-05 -0.78037602D-06  0.21514010D-05  0.20170752D-05  0.14362777D-05
  0.54758870D+00  0.51339922D+00  0.36557083D+00 -0.30039744D-06  0.54908594D-06
  0.12760542D+00 -0.12311351D-07  0.92231436D-07  0.13849169D-01  0.24211943D-08
  0.59340025D-09  0.17643166D-04 -0.20619776D-01 -0.21170596D-01  0.41790372D-01
 -0.97111898D-03 -0.81668536D-07 -0.69647981D-09 -0.18840326D-02 -0.16806097D-02
  0.35646423D-02  0.35867932D-03  0.46000532D-07 -0.33944482D-07 -0.18479900D-04
 -0.42339697D-05  0.22713869D-04  0.25119701D-04  0.19653814D-07 -0.84492557D-08
  0.77340254D-07 -0.10151308D-07  0.25057993D-02  0.52094554D-07 -0.44215956D-07
 -0.15010644D-02 -0.28411532D-06  0.74669879D-07 -0.60163335D-02 -0.79610257D-02
 -0.48000326D-08  0.78586965D-08 -0.27137341D-03 -0.77888644D-08 -0.60006196D-08
  0.50574856D-03  0.22188962D-07 -0.17575470D-07  0.30837168D-03 -0.34800188D-03
END DATA
RHF
