 Molden2AIM, Version 4.0.0 (06/02/2016)           Time: Fri Jun 29 22:57:10 2018
GAUSSIAN              6 MOL ORBITALS    150 PRIMITIVES        2 NUCLEI
  C    1    (CENTRE  1)   0.00000000  0.00000000  1.17761874  CHARGE =  6.0
  C    2    (CENTRE  2)   0.00000000  0.00000000 -1.17761874  CHARGE =  6.0
CENTRE ASSIGNMENTS    1  1  1  1  1  1  1  1  1  1  1  1  1  1  1  1  1  1  1  1
CENTRE ASSIGNMENTS    1  1  1  1  1  1  1  1  1  1  1  1  1  1  1  1  1  1  1  1
CENTRE ASSIGNMENTS    1  1  1  1  1  1  1  1  1  1  1  1  1  1  1  1  1  1  1  1
CENTRE ASSIGNMENTS    1  1  1  1  1  1  1  1  1  1  1  1  1  1  1  2  2  2  2  2
CENTRE ASSIGNMENTS    2  2  2  2  2  2  2  2  2  2  2  2  2  2  2  2  2  2  2  2
CENTRE ASSIGNMENTS    2  2  2  2  2  2  2  2  2  2  2  2  2  2  2  2  2  2  2  2
CENTRE ASSIGNMENTS    2  2  2  2  2  2  2  2  2  2  2  2  2  2  2  2  2  2  2  2
CENTRE ASSIGNMENTS    2  2  2  2  2  2  2  2  2  2
TYPE ASSIGNMENTS      1  1  1  1  1  1  1  1  1  1  1  1  1  1  1  1  1  1  1  2
TYPE ASSIGNMENTS      2  2  3  3  3  4  4  4  2  3  4  2  3  4  2  3  4  5  6  7
TYPE ASSIGNMENTS      8  9 10  5  6  7  8  9 10  5  6  7  8  9 10 11 12 13 17 14
TYPE ASSIGNMENTS     15 18 19 16 20 11 12 13 17 14 15 18 19 16 20  1  1  1  1  1
TYPE ASSIGNMENTS      1  1  1  1  1  1  1  1  1  1  1  1  1  1  2  2  2  3  3  3
TYPE ASSIGNMENTS      4  4  4  2  3  4  2  3  4  2  3  4  5  6  7  8  9 10  5  6
TYPE ASSIGNMENTS      7  8  9 10  5  6  7  8  9 10 11 12 13 17 14 15 18 19 16 20
TYPE ASSIGNMENTS     11 12 13 17 14 15 18 19 16 20
EXPONENTS  0.8236000D+04 0.1235000D+04 0.2808000D+03 0.7927000D+02 0.2559000D+02
EXPONENTS  0.8997000D+01 0.3319000D+01 0.3643000D+00 0.8236000D+04 0.1235000D+04
EXPONENTS  0.2808000D+03 0.7927000D+02 0.2559000D+02 0.8997000D+01 0.3319000D+01
EXPONENTS  0.3643000D+00 0.9059000D+00 0.1285000D+00 0.4402000D-01 0.1871000D+02
EXPONENTS  0.4133000D+01 0.1200000D+01 0.1871000D+02 0.4133000D+01 0.1200000D+01
EXPONENTS  0.1871000D+02 0.4133000D+01 0.1200000D+01 0.3827000D+00 0.3827000D+00
EXPONENTS  0.3827000D+00 0.1209000D+00 0.1209000D+00 0.1209000D+00 0.3569000D-01
EXPONENTS  0.3569000D-01 0.3569000D-01 0.1097000D+01 0.1097000D+01 0.1097000D+01
EXPONENTS  0.1097000D+01 0.1097000D+01 0.1097000D+01 0.3180000D+00 0.3180000D+00
EXPONENTS  0.3180000D+00 0.3180000D+00 0.3180000D+00 0.3180000D+00 0.1000000D+00
EXPONENTS  0.1000000D+00 0.1000000D+00 0.1000000D+00 0.1000000D+00 0.1000000D+00
EXPONENTS  0.7610000D+00 0.7610000D+00 0.7610000D+00 0.7610000D+00 0.7610000D+00
EXPONENTS  0.7610000D+00 0.7610000D+00 0.7610000D+00 0.7610000D+00 0.7610000D+00
EXPONENTS  0.2680000D+00 0.2680000D+00 0.2680000D+00 0.2680000D+00 0.2680000D+00
EXPONENTS  0.2680000D+00 0.2680000D+00 0.2680000D+00 0.2680000D+00 0.2680000D+00
EXPONENTS  0.8236000D+04 0.1235000D+04 0.2808000D+03 0.7927000D+02 0.2559000D+02
EXPONENTS  0.8997000D+01 0.3319000D+01 0.3643000D+00 0.8236000D+04 0.1235000D+04
EXPONENTS  0.2808000D+03 0.7927000D+02 0.2559000D+02 0.8997000D+01 0.3319000D+01
EXPONENTS  0.3643000D+00 0.9059000D+00 0.1285000D+00 0.4402000D-01 0.1871000D+02
EXPONENTS  0.4133000D+01 0.1200000D+01 0.1871000D+02 0.4133000D+01 0.1200000D+01
EXPONENTS  0.1871000D+02 0.4133000D+01 0.1200000D+01 0.3827000D+00 0.3827000D+00
EXPONENTS  0.3827000D+00 0.1209000D+00 0.1209000D+00 0.1209000D+00 0.3569000D-01
EXPONENTS  0.3569000D-01 0.3569000D-01 0.1097000D+01 0.1097000D+01 0.1097000D+01
EXPONENTS  0.1097000D+01 0.1097000D+01 0.1097000D+01 0.3180000D+00 0.3180000D+00
EXPONENTS  0.3180000D+00 0.3180000D+00 0.3180000D+00 0.3180000D+00 0.1000000D+00
EXPONENTS  0.1000000D+00 0.1000000D+00 0.1000000D+00 0.1000000D+00 0.1000000D+00
EXPONENTS  0.7610000D+00 0.7610000D+00 0.7610000D+00 0.7610000D+00 0.7610000D+00
EXPONENTS  0.7610000D+00 0.7610000D+00 0.7610000D+00 0.7610000D+00 0.7610000D+00
EXPONENTS  0.2680000D+00 0.2680000D+00 0.2680000D+00 0.2680000D+00 0.2680000D+00
EXPONENTS  0.2680000D+00 0.2680000D+00 0.2680000D+00 0.2680000D+00 0.2680000D+00
MO    1     MO 0.0        OCC NO =    2.0000000  ORB. ENERGY =  -10.150083
  0.23140056D+00  0.43138326D+00  0.72911371D+00  0.10960967D+01  0.13466815D+01
  0.11374878D+01  0.42901854D+00 -0.21232367D-02 -0.68724518D-03 -0.12867398D-02
 -0.21907846D-02 -0.33888107D-02 -0.44629445D-02 -0.46372852D-02 -0.29467866D-02
  0.19748678D-02  0.22196739D-01  0.31598908D-03 -0.12567795D-03  0.50844297D-15
  0.47669760D-15  0.33943709D-15 -0.18998995D-14 -0.17812765D-14 -0.12683750D-14
 -0.24747096D-03 -0.23201976D-03 -0.16521189D-03 -0.54421065D-16  0.24458217D-15
 -0.30680519D-03  0.39671709D-17 -0.34533855D-16  0.79817438D-03 -0.35410538D-18
  0.11354732D-17  0.33535035D-04 -0.52722310D-03 -0.52722310D-03  0.10544462D-02
  0.12046319D-17 -0.71665408D-16  0.36042811D-15  0.31097633D-03  0.31097633D-03
 -0.62195266D-03 -0.40542000D-19  0.13074820D-18  0.19772239D-16  0.49335906D-04
  0.49335906D-04 -0.98671812D-04  0.65907651D-20 -0.48285505D-18  0.52241789D-17
  0.14185728D-16 -0.71997821D-16 -0.27842060D-03  0.14101048D-16 -0.72520497D-16
  0.41763090D-03 -0.56658232D-16  0.28851396D-15  0.41763090D-03  0.17970748D-17
 -0.10865614D-17  0.64781973D-17  0.12477916D-03 -0.10850413D-17  0.64961556D-17
 -0.18716874D-03  0.43447255D-17 -0.25930747D-16 -0.18716874D-03 -0.50711018D-19
  0.23140122D+00  0.43138448D+00  0.72911576D+00  0.10960998D+01  0.13466853D+01
  0.11374910D+01  0.42901975D+00 -0.21232427D-02 -0.68724995D-03 -0.12867487D-02
 -0.21907998D-02 -0.33888342D-02 -0.44629755D-02 -0.46373174D-02 -0.29468070D-02
  0.19748815D-02  0.22196800D-01  0.31602017D-03 -0.12567396D-03  0.39536000D-15
  0.37067513D-15  0.26394278D-15 -0.20077006D-14 -0.18823470D-14 -0.13403432D-14
  0.24746688D-03  0.23201593D-03  0.16520917D-03 -0.51049528D-16  0.27873324D-15
  0.30682745D-03  0.57662227D-17 -0.14084589D-16 -0.79816571D-03 -0.23135524D-18
  0.18523545D-17 -0.33534833D-04 -0.52722845D-03 -0.52722845D-03  0.10544569D-02
 -0.13433108D-17  0.73406643D-16 -0.37951805D-15  0.31097384D-03  0.31097384D-03
 -0.62194769D-03  0.72391793D-19  0.11136190D-17  0.13323861D-16  0.49335734D-04
  0.49335734D-04 -0.98671467D-04 -0.82312598D-20  0.96170683D-18 -0.14255694D-17
  0.14125804D-16 -0.72974448D-16  0.27842381D-03  0.14023624D-16 -0.73314574D-16
 -0.41763572D-03 -0.56401037D-16  0.29223792D-15 -0.41763572D-03  0.11785011D-17
 -0.11670085D-17  0.48867109D-17 -0.12477890D-03 -0.11628881D-17  0.49032215D-17
  0.18716835D-03  0.46639136D-17 -0.19563354D-16  0.18716835D-03 -0.28066483D-19
MO    2     MO 0.0        OCC NO =    2.0000000  ORB. ENERGY =  -10.148616
  0.23290726D+00  0.43419208D+00  0.73386111D+00  0.11032336D+01  0.13554500D+01
  0.11448942D+01  0.43181197D+00 -0.21370615D-02 -0.17008160D-02 -0.31844643D-02
 -0.54218229D-02 -0.83867356D-02 -0.11045036D-01 -0.11476500D-01 -0.72928003D-02
  0.48874652D-02  0.21527978D-01  0.11073958D-01  0.14222780D-02  0.44872060D-15
  0.42070409D-15  0.29956637D-15 -0.24710964D-14 -0.23168099D-14 -0.16497067D-14
  0.14287669D-02  0.13395598D-02  0.95384638D-03 -0.17075487D-15  0.84126343D-15
 -0.79321727D-02 -0.34438671D-16  0.17880647D-15 -0.30896456D-02 -0.72424198D-18
  0.40245107D-17 -0.72145161D-04 -0.19112802D-02 -0.19112802D-02  0.38225605D-02
  0.12558257D-17 -0.12573990D-15  0.66302100D-15 -0.88666845D-03 -0.88666845D-03
  0.17733369D-02  0.72566862D-20  0.11739855D-15 -0.58388109D-15 -0.61400732D-04
 -0.61400732D-04  0.12280146D-03  0.52066751D-20  0.55197641D-17 -0.28983237D-16
  0.14485876D-16 -0.67541137D-16 -0.11468566D-02  0.14317977D-16 -0.68134069D-16
  0.17202850D-02 -0.57775607D-16  0.27075748D-15  0.17202850D-02  0.17184445D-17
  0.48436453D-17 -0.24362954D-16 -0.92250463D-04  0.48501820D-17 -0.24330963D-16
  0.13837569D-03 -0.19381118D-16  0.97419826D-16  0.13837569D-03 -0.93884083D-19
 -0.23290661D+00 -0.43419088D+00 -0.73385907D+00 -0.11032306D+01 -0.13554462D+01
 -0.11448910D+01 -0.43181077D+00  0.21370556D-02  0.17008141D-02  0.31844607D-02
  0.54218168D-02  0.83867261D-02  0.11045023D-01  0.11476487D-01  0.72927921D-02
 -0.48874596D-02 -0.21527916D-01 -0.11073957D-01 -0.14222783D-02 -0.46912881D-15
 -0.43983807D-15 -0.31319091D-15  0.23610676D-14  0.22136509D-14  0.15762513D-14
  0.14287677D-02  0.13395605D-02  0.95384690D-03  0.16814844D-15 -0.83793105D-15
 -0.79321718D-02  0.34719710D-16 -0.17892036D-15 -0.30896479D-02  0.70003941D-18
 -0.40474628D-17 -0.72145255D-04  0.19112788D-02  0.19112788D-02 -0.38225575D-02
  0.16455543D-17 -0.13066672D-15  0.67223671D-15  0.88666932D-03  0.88666932D-03
 -0.17733386D-02 -0.79470948D-19  0.11830877D-15 -0.58482379D-15  0.61400871D-04
  0.61400871D-04 -0.12280174D-03 -0.35651154D-20  0.54580124D-17 -0.29238092D-16
 -0.13877197D-16  0.67091539D-16 -0.11468559D-02 -0.13635749D-16  0.67365533D-16
  0.17202838D-02  0.55267342D-16 -0.26864015D-15  0.17202838D-02 -0.17965683D-18
 -0.49596865D-17  0.24654096D-16 -0.92250813D-04 -0.49731713D-17  0.24630230D-16
  0.13837622D-03  0.19852231D-16 -0.98592517D-16  0.13837622D-03 -0.15882750D-19
MO    3     MO 0.0        OCC NO =    2.0000000  ORB. ENERGY =   -0.750770
 -0.85066335D-02 -0.15858299D-01 -0.26803319D-01 -0.40294168D-01 -0.49506041D-01
 -0.41815766D-01 -0.15771368D-01  0.78053382D-04 -0.44973744D-01 -0.84205038D-01
 -0.14336628D+00 -0.22176584D+00 -0.29205781D+00 -0.30346677D+00 -0.19283951D+00
  0.12923656D+00  0.61160295D-01  0.18016979D-01 -0.64411448D-03  0.19293705D-14
  0.18089074D-14  0.12880499D-14 -0.11290022D-13 -0.10585113D-13 -0.75372312D-14
 -0.26144007D+00 -0.24511668D+00 -0.17453768D+00  0.38619738D-15 -0.18843081D-14
 -0.44747048D-01  0.46148642D-16 -0.25463849D-15  0.94066434D-03 -0.20885038D-17
  0.14937240D-16  0.26483877D-03 -0.15333510D-01 -0.15333510D-01  0.30667020D-01
 -0.40618624D-17 -0.26423626D-15  0.10102138D-14 -0.80916513D-03 -0.80916513D-03
  0.16183303D-02  0.84652684D-18  0.11249570D-15 -0.60257750D-15  0.20801546D-03
  0.20801546D-03 -0.41603091D-03 -0.17517224D-18 -0.85069864D-17  0.47938020D-16
  0.17192986D-15 -0.89293803D-15 -0.57781797D-02  0.17207262D-15 -0.90104808D-15
  0.86672696D-02 -0.68786221D-15  0.35798622D-14  0.86672696D-02  0.17558416D-16
  0.47181239D-17 -0.19448460D-16  0.21803699D-03  0.27468674D-17 -0.16928880D-16
 -0.32705548D-03 -0.16901239D-16  0.75274260D-16 -0.32705548D-03 -0.13026557D-17
 -0.85066335D-02 -0.15858299D-01 -0.26803319D-01 -0.40294168D-01 -0.49506041D-01
 -0.41815766D-01 -0.15771368D-01  0.78053382D-04 -0.44973744D-01 -0.84205039D-01
 -0.14336628D+00 -0.22176584D+00 -0.29205781D+00 -0.30346677D+00 -0.19283951D+00
  0.12923656D+00  0.61160296D-01  0.18016980D-01 -0.64411446D-03  0.23508908D-14
  0.22041095D-14  0.15694573D-14 -0.11265475D-13 -0.10562098D-13 -0.75208433D-14
  0.26144007D+00  0.24511668D+00  0.17453768D+00  0.45326241D-15 -0.19944486D-14
  0.44747048D-01  0.62002680D-16 -0.29759160D-15 -0.94066426D-03 -0.23699430D-17
  0.13281527D-16 -0.26483877D-03 -0.15333510D-01 -0.15333510D-01  0.30667020D-01
  0.59545088D-18  0.24162862D-15 -0.10013583D-14 -0.80916513D-03 -0.80916513D-03
  0.16183303D-02  0.35203228D-17 -0.92679119D-16  0.53879876D-15  0.20801545D-03
  0.20801545D-03 -0.41603091D-03 -0.83870612D-19  0.11479101D-16 -0.57634084D-16
  0.16783786D-15 -0.89005796D-15  0.57781797D-02  0.16660215D-15 -0.88914552D-15
 -0.86672696D-02 -0.67011573D-15  0.35593194D-14 -0.86672696D-02  0.16854589D-16
  0.31175047D-17 -0.14918739D-16 -0.21803699D-03  0.43453891D-17 -0.15800484D-16
  0.32705548D-03 -0.13697903D-16  0.60556701D-16  0.32705548D-03  0.12606979D-17
MO    4     MO 0.0        OCC NO =    2.0000000  ORB. ENERGY =   -0.388524
  0.33900930D-03  0.63199042D-03  0.10681751D-02  0.16058171D-02  0.19729319D-02
  0.16664564D-02  0.62852603D-03 -0.31106104D-05  0.45468165D-01  0.85130751D-01
  0.14494239D+00  0.22420383D+00  0.29526856D+00  0.30680295D+00  0.19495950D+00
 -0.13065732D+00 -0.64989490D-01 -0.15992291D+00 -0.12549371D-01 -0.56934615D-14
 -0.53379820D-14 -0.38009612D-14  0.19829097D-13  0.18591039D-13  0.13237927D-13
 -0.25821673D+00 -0.24209460D+00 -0.17238578D+00 -0.73937174D-15  0.17037882D-14
 -0.48100113D-01  0.48036936D-15 -0.24485689D-14  0.26336382D-01  0.18040325D-16
 -0.60173260D-16  0.49840980D-03 -0.34468882D-02 -0.34468882D-02  0.68937765D-02
 -0.59211450D-17  0.62762897D-15 -0.28686620D-14  0.30783067D-02  0.30783067D-02
 -0.61566135D-02 -0.92445232D-17 -0.11663303D-14  0.57164538D-14  0.76659400D-03
  0.76659400D-03 -0.15331880D-02  0.67198070D-19 -0.12578838D-15  0.58796327D-15
  0.11656281D-17  0.30041006D-16  0.61509178D-04  0.12860985D-17  0.46593588D-16
 -0.92263766D-04 -0.47829828D-17 -0.13671661D-15 -0.92263766D-04 -0.37103777D-16
 -0.51436823D-16  0.25197822D-15  0.25136183D-03 -0.49078646D-16  0.24799361D-15
 -0.37704274D-03  0.20338911D-15 -0.10039283D-14 -0.37704274D-03  0.83223057D-17
 -0.33900930D-03 -0.63199041D-03 -0.10681751D-02 -0.16058171D-02 -0.19729319D-02
 -0.16664564D-02 -0.62852602D-03  0.31106104D-05 -0.45468165D-01 -0.85130751D-01
 -0.14494239D+00 -0.22420383D+00 -0.29526856D+00 -0.30680295D+00 -0.19495950D+00
  0.13065732D+00  0.64989490D-01  0.15992291D+00  0.12549371D-01  0.37108726D-14
  0.34791790D-14  0.24773827D-14 -0.21971280D-13 -0.20599472D-13 -0.14668051D-13
 -0.25821674D+00 -0.24209461D+00 -0.17238578D+00  0.30914833D-15 -0.23052680D-14
 -0.48100116D-01 -0.53024232D-15  0.23747111D-14  0.26336382D-01 -0.12596244D-16
  0.60719749D-16  0.49840981D-03  0.34468886D-02  0.34468886D-02 -0.68937772D-02
 -0.79312968D-17  0.46107030D-15 -0.30494536D-14 -0.30783068D-02 -0.30783068D-02
  0.61566136D-02  0.60002671D-17 -0.11823472D-14  0.57102742D-14 -0.76659401D-03
 -0.76659401D-03  0.15331880D-02 -0.13917862D-18 -0.12570060D-15  0.57903229D-15
  0.14571141D-16 -0.19140072D-16  0.61509049D-04  0.36278964D-17 -0.12558154D-16
 -0.92263573D-04 -0.47341318D-16  0.69978370D-16 -0.92263573D-04 -0.49793201D-17
  0.50472174D-16 -0.24609813D-15  0.25136185D-03  0.52725872D-16 -0.24691948D-15
 -0.37704278D-03 -0.20414240D-15  0.98521385D-15 -0.37704278D-03  0.66345114D-17
MO    5     MO 0.0        OCC NO =    2.0000000  ORB. ENERGY =   -0.297305
 -0.55912701D-16 -0.10423399D-15 -0.17617380D-15 -0.26484693D-15 -0.32539506D-15
 -0.27484814D-15 -0.10366261D-15  0.51303203D-18  0.65223863D-16  0.12211965D-15
  0.20791915D-15  0.32161932D-15  0.42356132D-15  0.44010735D-15  0.27966846D-15
 -0.18742730D-15  0.10340392D-15 -0.19314086D-15  0.28939887D-15  0.52633646D+00
  0.49347389D+00  0.35138280D+00  0.83590729D-01  0.78371621D-01  0.55805263D-01
  0.35385769D-14  0.33176408D-14  0.23623579D-14  0.13452063D+00  0.21364048D-01
  0.12110231D-14  0.15896088D-01  0.25245555D-02  0.63001690D-16 -0.38451794D-05
 -0.61067657D-06  0.70207411D-17  0.18461686D-14 -0.18848439D-14  0.38675270D-16
 -0.80940857D-14 -0.55201138D-01 -0.87668320D-02  0.48746488D-15 -0.27071336D-15
 -0.21675152D-15 -0.22477495D-14 -0.50407106D-02 -0.80054623D-03  0.22236052D-16
 -0.13558827D-16 -0.86772245D-17 -0.62930689D-16 -0.19380058D-04 -0.30778661D-05
 -0.46578419D-02 -0.73974050D-03  0.17726586D-17 -0.46618152D-02 -0.74037153D-03
  0.59487523D-16  0.18635341D-01  0.29595930D-02 -0.64805499D-16 -0.82760227D-15
  0.22201487D-03  0.35259547D-04  0.50552493D-16  0.22214124D-03  0.35279616D-04
 -0.10211620D-15 -0.88818586D-03 -0.14105826D-03 -0.49541279D-16  0.14722985D-15
  0.31353774D-15  0.58450563D-15  0.98791748D-15  0.14851636D-14  0.18246950D-14
  0.15412467D-14  0.58130154D-15 -0.28768937D-17 -0.33044941D-15 -0.61870557D-15
 -0.10533992D-14 -0.16294483D-14 -0.21459261D-14 -0.22297547D-14 -0.14169090D-14
  0.94957948D-15  0.18647736D-15  0.52339675D-15 -0.21336194D-15  0.52633646D+00
  0.49347389D+00  0.35138281D+00  0.83590729D-01  0.78371622D-01  0.55805264D-01
 -0.47723959D-14 -0.44744245D-14 -0.31860568D-14  0.13452063D+00  0.21364048D-01
 -0.85206081D-15  0.15896088D-01  0.25245555D-02 -0.73125781D-16 -0.38451747D-05
 -0.61067583D-06 -0.33109287D-16  0.23453147D-14 -0.14234679D-14 -0.92184687D-15
 -0.87354038D-14  0.55201137D-01  0.87668320D-02  0.36841958D-15 -0.34204389D-15
 -0.26375685D-16 -0.19293676D-14  0.50407103D-02  0.80054620D-03  0.10202937D-16
 -0.24022894D-16  0.13819957D-16 -0.72384042D-16  0.19380062D-04  0.30778668D-05
 -0.46578419D-02 -0.73974050D-03 -0.18107942D-15 -0.46618152D-02 -0.74037152D-03
  0.11830320D-15  0.18635341D-01  0.29595930D-02  0.42493506D-15  0.20476939D-15
  0.22201488D-03  0.35259547D-04  0.23135780D-16  0.22214124D-03  0.35279617D-04
 -0.29893900D-16 -0.88818587D-03 -0.14105826D-03 -0.39513441D-16 -0.72146551D-16
MO    6     MO 0.0        OCC NO =    2.0000000  ORB. ENERGY =   -0.297305
  0.10338938D-14  0.19274132D-14  0.32576678D-14  0.48973418D-14  0.60169502D-14
  0.50822763D-14  0.19168476D-14 -0.94865859D-17  0.33493542D-14  0.62710478D-14
  0.10676995D-13  0.16515688D-13  0.21750581D-13  0.22600247D-13  0.14361442D-13
 -0.96247046D-14 -0.53969153D-14 -0.13440836D-13 -0.55479153D-15 -0.83590729D-01
 -0.78371621D-01 -0.55805263D-01  0.52633646D+00  0.49347389D+00  0.35138280D+00
 -0.22521480D-12 -0.21115319D-12 -0.15035365D-12 -0.21364048D-01  0.13452063D+00
 -0.53662665D-13 -0.25245555D-02  0.15896088D-01 -0.34898549D-14  0.61067657D-06
 -0.38451794D-05 -0.51609699D-17 -0.53009320D-14 -0.13418491D-13  0.18719423D-13
  0.26698933D-14  0.87668320D-02 -0.55201138D-01  0.11518759D-14 -0.10214093D-14
 -0.13046658D-15  0.70042204D-15  0.80054623D-03 -0.50407106D-02  0.15762211D-15
  0.79906674D-16 -0.23752879D-15  0.15746433D-16  0.30778661D-05 -0.19380058D-04
  0.73974050D-03 -0.46578419D-02 -0.26636126D-14  0.74037153D-03 -0.46618152D-02
  0.42654589D-14 -0.29595930D-02  0.18635341D-01  0.37253788D-14 -0.14241670D-15
 -0.35259547D-04  0.22201487D-03  0.18421097D-15 -0.35279616D-04  0.22214124D-03
 -0.36922921D-15  0.14105826D-03 -0.88818586D-03 -0.18340369D-15 -0.31001181D-16
  0.50791464D-15  0.94686838D-15  0.16003744D-14  0.24058869D-14  0.29559100D-14
  0.24967385D-14  0.94167792D-15 -0.46604166D-17  0.34867060D-14  0.65282137D-14
  0.11114842D-13  0.17192971D-13  0.22642538D-13  0.23527048D-13  0.14950383D-13
 -0.10019399D-13 -0.50646235D-14 -0.14461210D-13 -0.77808777D-15 -0.83590729D-01
 -0.78371622D-01 -0.55805264D-01  0.52633646D+00  0.49347389D+00  0.35138281D+00
  0.22523754D-12  0.21117451D-12  0.15036883D-12 -0.21364048D-01  0.13452063D+00
  0.51833490D-13 -0.25245555D-02  0.15896088D-01  0.31333579D-14  0.61067583D-06
 -0.38451747D-05  0.50848548D-17 -0.43629833D-14 -0.13816341D-13  0.18179325D-13
  0.32067774D-14 -0.87668320D-02  0.55201137D-01  0.11659687D-14 -0.74698403D-15
 -0.41898469D-15  0.75208950D-15 -0.80054620D-03  0.50407103D-02  0.16745250D-15
  0.86736941D-16 -0.25418945D-15  0.34459648D-16 -0.30778668D-05  0.19380062D-04
  0.73974050D-03 -0.46578419D-02  0.24544889D-14  0.74037152D-03 -0.46618152D-02
 -0.39311765D-14 -0.29595930D-02  0.18635341D-01 -0.34322902D-14 -0.24659474D-15
 -0.35259547D-04  0.22201488D-03 -0.20141738D-15 -0.35279617D-04  0.22214124D-03
  0.33789874D-15  0.14105826D-03 -0.88818587D-03  0.26635341D-15  0.67637391D-16
END DATA
RHF
