 Molden2AIM, Version 4.0.0 (06/02/2016)           Time: Fri Jun 29 23:03:30 2018
GAUSSIAN              6 MOL ORBITALS    150 PRIMITIVES        2 NUCLEI
  C    1    (CENTRE  1)   0.00000000  0.00000000  2.77888762  CHARGE =  6.0
  B    2    (CENTRE  2)   0.00000000  0.00000000  0.17645507  CHARGE =  5.0
CENTRE ASSIGNMENTS    1  1  1  1  1  1  1  1  1  1  1  1  1  1  1  1  1  1  1  1
CENTRE ASSIGNMENTS    1  1  1  1  1  1  1  1  1  1  1  1  1  1  1  1  1  1  1  1
CENTRE ASSIGNMENTS    1  1  1  1  1  1  1  1  1  1  1  1  1  1  1  1  1  1  1  1
CENTRE ASSIGNMENTS    1  1  1  1  1  1  1  1  1  1  1  1  1  1  1  2  2  2  2  2
CENTRE ASSIGNMENTS    2  2  2  2  2  2  2  2  2  2  2  2  2  2  2  2  2  2  2  2
CENTRE ASSIGNMENTS    2  2  2  2  2  2  2  2  2  2  2  2  2  2  2  2  2  2  2  2
CENTRE ASSIGNMENTS    2  2  2  2  2  2  2  2  2  2  2  2  2  2  2  2  2  2  2  2
CENTRE ASSIGNMENTS    2  2  2  2  2  2  2  2  2  2
TYPE ASSIGNMENTS      1  1  1  1  1  1  1  1  1  1  1  1  1  1  1  1  1  1  1  2
TYPE ASSIGNMENTS      2  2  3  3  3  4  4  4  2  3  4  2  3  4  2  3  4  5  6  7
TYPE ASSIGNMENTS      8  9 10  5  6  7  8  9 10  5  6  7  8  9 10 11 12 13 17 14
TYPE ASSIGNMENTS     15 18 19 16 20 11 12 13 17 14 15 18 19 16 20  1  1  1  1  1
TYPE ASSIGNMENTS      1  1  1  1  1  1  1  1  1  1  1  1  1  1  2  2  2  3  3  3
TYPE ASSIGNMENTS      4  4  4  2  3  4  2  3  4  2  3  4  5  6  7  8  9 10  5  6
TYPE ASSIGNMENTS      7  8  9 10  5  6  7  8  9 10 11 12 13 17 14 15 18 19 16 20
TYPE ASSIGNMENTS     11 12 13 17 14 15 18 19 16 20
EXPONENTS  0.8236000D+04 0.1235000D+04 0.2808000D+03 0.7927000D+02 0.2559000D+02
EXPONENTS  0.8997000D+01 0.3319000D+01 0.3643000D+00 0.8236000D+04 0.1235000D+04
EXPONENTS  0.2808000D+03 0.7927000D+02 0.2559000D+02 0.8997000D+01 0.3319000D+01
EXPONENTS  0.3643000D+00 0.9059000D+00 0.1285000D+00 0.4402000D-01 0.1871000D+02
EXPONENTS  0.4133000D+01 0.1200000D+01 0.1871000D+02 0.4133000D+01 0.1200000D+01
EXPONENTS  0.1871000D+02 0.4133000D+01 0.1200000D+01 0.3827000D+00 0.3827000D+00
EXPONENTS  0.3827000D+00 0.1209000D+00 0.1209000D+00 0.1209000D+00 0.3569000D-01
EXPONENTS  0.3569000D-01 0.3569000D-01 0.1097000D+01 0.1097000D+01 0.1097000D+01
EXPONENTS  0.1097000D+01 0.1097000D+01 0.1097000D+01 0.3180000D+00 0.3180000D+00
EXPONENTS  0.3180000D+00 0.3180000D+00 0.3180000D+00 0.3180000D+00 0.1000000D+00
EXPONENTS  0.1000000D+00 0.1000000D+00 0.1000000D+00 0.1000000D+00 0.1000000D+00
EXPONENTS  0.7610000D+00 0.7610000D+00 0.7610000D+00 0.7610000D+00 0.7610000D+00
EXPONENTS  0.7610000D+00 0.7610000D+00 0.7610000D+00 0.7610000D+00 0.7610000D+00
EXPONENTS  0.2680000D+00 0.2680000D+00 0.2680000D+00 0.2680000D+00 0.2680000D+00
EXPONENTS  0.2680000D+00 0.2680000D+00 0.2680000D+00 0.2680000D+00 0.2680000D+00
EXPONENTS  0.5473000D+04 0.8209000D+03 0.1868000D+03 0.5283000D+02 0.1708000D+02
EXPONENTS  0.5999000D+01 0.2208000D+01 0.2415000D+00 0.5473000D+04 0.8209000D+03
EXPONENTS  0.1868000D+03 0.5283000D+02 0.1708000D+02 0.5999000D+01 0.2208000D+01
EXPONENTS  0.2415000D+00 0.5879000D+00 0.8610000D-01 0.2914000D-01 0.1205000D+02
EXPONENTS  0.2613000D+01 0.7475000D+00 0.1205000D+02 0.2613000D+01 0.7475000D+00
EXPONENTS  0.1205000D+02 0.2613000D+01 0.7475000D+00 0.2385000D+00 0.2385000D+00
EXPONENTS  0.2385000D+00 0.7698000D-01 0.7698000D-01 0.7698000D-01 0.2096000D-01
EXPONENTS  0.2096000D-01 0.2096000D-01 0.6610000D+00 0.6610000D+00 0.6610000D+00
EXPONENTS  0.6610000D+00 0.6610000D+00 0.6610000D+00 0.1990000D+00 0.1990000D+00
EXPONENTS  0.1990000D+00 0.1990000D+00 0.1990000D+00 0.1990000D+00 0.6040000D-01
EXPONENTS  0.6040000D-01 0.6040000D-01 0.6040000D-01 0.6040000D-01 0.6040000D-01
EXPONENTS  0.4900000D+00 0.4900000D+00 0.4900000D+00 0.4900000D+00 0.4900000D+00
EXPONENTS  0.4900000D+00 0.4900000D+00 0.4900000D+00 0.4900000D+00 0.4900000D+00
EXPONENTS  0.1630000D+00 0.1630000D+00 0.1630000D+00 0.1630000D+00 0.1630000D+00
EXPONENTS  0.1630000D+00 0.1630000D+00 0.1630000D+00 0.1630000D+00 0.1630000D+00
MO    1     MO 0.0        OCC NO =    2.0000000  ORB. ENERGY =   -9.833032
  0.32784916D+00  0.61118537D+00  0.10330109D+01  0.15529538D+01  0.19079832D+01
  0.16115968D+01  0.60783503D+00 -0.30082095D-02 -0.12606597D-02 -0.23603527D-02
 -0.40187024D-02 -0.62163215D-02 -0.81866767D-02 -0.85064815D-02 -0.54054871D-02
  0.36226318D-02  0.30059605D-01  0.24759490D-02  0.12077719D-03 -0.51034261D-12
 -0.47847864D-12 -0.34070529D-12  0.96470539D-12  0.90447262D-12  0.64403839D-12
 -0.41794659D-03 -0.39185150D-03 -0.27902161D-03  0.93788952D-13 -0.17728750D-12
 -0.29173013D-02  0.13442743D-13 -0.25410652D-13  0.17849947D-03  0.60011650D-15
 -0.11344040D-14  0.32676203D-04 -0.11829594D-02 -0.11829594D-02  0.23659189D-02
 -0.61126104D-18  0.21579055D-12 -0.40787270D-12 -0.17966499D-04 -0.17966499D-04
  0.35932999D-04  0.29724330D-19 -0.49141543D-13  0.92890796D-13  0.39344587D-04
  0.39344587D-04 -0.78689174D-04  0.74674399D-21 -0.18572391D-14  0.35108052D-14
 -0.13136792D-13  0.24830585D-13 -0.53343801D-03 -0.13256042D-13  0.25056584D-13
  0.80015701D-03  0.52666418D-13 -0.99548339D-13  0.80015701D-03 -0.11235196D-17
 -0.15260130D-14  0.28846360D-14  0.81852053D-04 -0.15213144D-14  0.28757203D-14
 -0.12277808D-03  0.60993535D-14 -0.11529628D-13 -0.12277808D-03  0.15111622D-19
 -0.38371964D-03 -0.71503642D-03 -0.12050341D-02 -0.17979010D-02 -0.21777600D-02
 -0.18120586D-02 -0.67300799D-03  0.35728579D-05  0.28564389D-03  0.53355015D-03
  0.90810504D-03  0.13888465D-02  0.18062772D-02  0.18283620D-02  0.12038837D-02
 -0.82292090D-03  0.92046889D-03 -0.13391371D-02 -0.10165820D-03  0.11751608D-13
  0.10591200D-13  0.76898980D-14 -0.22213595D-13 -0.20020121D-13 -0.14535906D-13
  0.46364220D-03  0.41786002D-03  0.30339347D-03 -0.36428086D-13  0.68860053D-13
 -0.22656458D-02 -0.58547302D-14  0.11067126D-13 -0.57719405D-03 -0.54483098D-16
  0.10299194D-15 -0.75370211D-05  0.68443535D-03  0.68443535D-03 -0.13688707D-02
  0.42991339D-19 -0.87670430D-14  0.16576826D-13  0.31267565D-03  0.31267565D-03
 -0.62535129D-03 -0.47215291D-20 -0.24796471D-13  0.46872486D-13  0.15489560D-04
  0.15489560D-04 -0.30979119D-04 -0.16272895D-21 -0.50431000D-15  0.95328287D-15
  0.15619069D-14 -0.29531890D-14 -0.48549912D-03  0.15621052D-14 -0.29535429D-14
  0.72824868D-03 -0.62478259D-14  0.11813110D-13  0.72824868D-03  0.71052285D-19
  0.88280545D-15 -0.16687370D-14 -0.38864898D-04  0.88240444D-15 -0.16679764D-14
  0.58297347D-04 -0.35308208D-14  0.66741874D-14  0.58297347D-04 -0.59340589D-20
MO    2     MO 0.0        OCC NO =    2.0000000  ORB. ENERGY =   -6.421352
 -0.58870646D-03 -0.10974827D-02 -0.18549391D-02 -0.27885811D-02 -0.34260940D-02
 -0.28938841D-02 -0.10914666D-02  0.54017292D-05  0.30298174D-03  0.56727741D-03
  0.96583834D-03  0.14940050D-02  0.19675521D-02  0.20444126D-02  0.12991325D-02
 -0.87064837D-03 -0.75778152D-04 -0.53004271D-02 -0.13465411D-02 -0.10415866D-13
 -0.97655369D-14 -0.69536440D-14  0.19446887D-13  0.18232693D-13  0.12982764D-13
 -0.71533540D-03 -0.67067240D-03 -0.47755871D-03  0.13654449D-13 -0.25825063D-13
  0.26967343D-02 -0.33371108D-13  0.63065900D-13  0.18595076D-02 -0.19009734D-14
  0.35923008D-14  0.90877115D-04 -0.64866584D-04 -0.64866584D-04  0.12973317D-03
  0.47254271D-18 -0.13657489D-12  0.25813034D-12  0.41955154D-03  0.41955154D-03
 -0.83910308D-03  0.89496174D-19 -0.38620559D-14  0.73072738D-14  0.49230353D-04
  0.49230353D-04 -0.98460706D-04 -0.23590433D-19  0.78715756D-14 -0.14876845D-13
 -0.37347656D-13  0.70591067D-13 -0.46060311D-03 -0.37342161D-13  0.70580938D-13
  0.69090467D-03  0.14938513D-12 -0.28235414D-12  0.69090467D-03 -0.12696979D-17
  0.35854065D-15 -0.67733524D-15  0.95255878D-04  0.35951509D-15 -0.67918197D-15
 -0.14288382D-03 -0.14351370D-14  0.27111877D-14 -0.14288382D-03 -0.30892808D-19
  0.25224691D+00  0.47004560D+00  0.79215684D+00  0.11818915D+01  0.14316005D+01
  0.11911983D+01  0.44241724D+00 -0.23487001D-02 -0.12509108D-02 -0.23365585D-02
 -0.39768343D-02 -0.60821292D-02 -0.79101698D-02 -0.80068850D-02 -0.52721277D-02
  0.36037902D-02  0.22064985D-01  0.43658510D-02  0.36299387D-03 -0.41650784D-12
 -0.37537993D-12 -0.27255017D-12  0.78728360D-12  0.70954357D-12  0.51517465D-12
 -0.12547898D-02 -0.11308860D-02 -0.82109660D-03  0.67258966D-13 -0.12712211D-12
  0.35012497D-02  0.12391164D-13 -0.23416385D-13  0.69262791D-03  0.43163798D-15
 -0.81566304D-15  0.78463835D-05 -0.55185578D-03 -0.55185578D-03  0.11037116D-02
 -0.23290878D-18 -0.27790983D-12  0.52526477D-12 -0.21848626D-03 -0.21848626D-03
  0.43697252D-03  0.16126425D-18  0.28925011D-13 -0.54664955D-13 -0.56493083D-05
 -0.56493083D-05  0.11298617D-04 -0.19378196D-20  0.16960475D-14 -0.32049427D-14
 -0.25381728D-14  0.47959701D-14  0.41715574D-03 -0.25004670D-14  0.47247047D-14
 -0.62573361D-03  0.10114985D-13 -0.19112615D-13 -0.62573361D-03 -0.18367318D-17
 -0.73172119D-15  0.13828794D-14  0.17530584D-05 -0.73308976D-15  0.13854635D-14
 -0.26295876D-05  0.29282533D-14 -0.55341018D-14 -0.26295876D-05  0.56426172D-19
MO    3     MO 0.0        OCC NO =    2.0000000  ORB. ENERGY =   -0.338155
 -0.51219724D-02 -0.95485211D-02 -0.16138683D-01 -0.24261727D-01 -0.29808334D-01
 -0.25177904D-01 -0.94961789D-02  0.46997119D-04 -0.54957564D-01 -0.10289790D+00
 -0.17519248D+00 -0.27099613D+00 -0.35689237D+00 -0.37083403D+00 -0.23564838D+00
  0.15792606D+00  0.70715780D-01  0.76749150D-02 -0.77260020D-02 -0.31344636D-11
 -0.29387588D-11 -0.20925714D-11  0.59243150D-11  0.55544219D-11  0.39550793D-11
 -0.18313287D+00 -0.17169870D+00 -0.12225971D+00  0.12386101D-12 -0.23380291D-12
 -0.34530207D-01 -0.67720890D-12  0.12800230D-11  0.10812468D-01 -0.35776040D-13
  0.67617166D-13  0.76109300D-03 -0.85448264D-02 -0.85448264D-02  0.17089653D-01
  0.37486254D-16 -0.36356713D-12  0.68694651D-12 -0.40103039D-03 -0.40103039D-03
  0.80206079D-03 -0.45253545D-17 -0.38699345D-12  0.73137946D-12  0.50631266D-03
  0.50631266D-03 -0.10126253D-02  0.71689300D-18  0.15851184D-12 -0.29959917D-12
 -0.34617846D-12  0.65429310D-12 -0.23162981D-02 -0.34714311D-12  0.65610254D-12
  0.34744471D-02  0.13856785D-11 -0.26189818D-11  0.34744471D-02 -0.35413281D-16
  0.92959259D-14 -0.17571861D-13  0.16681769D-04  0.93385678D-14 -0.17652967D-13
 -0.25022654D-04 -0.37226346D-13  0.70368549D-13 -0.25022654D-04 -0.12990005D-17
 -0.55382904D-02 -0.10320242D-01 -0.17392461D-01 -0.25949410D-01 -0.31431979D-01
 -0.26153748D-01 -0.97136380D-02  0.51567662D-04 -0.26537474D-01 -0.49568970D-01
 -0.84366637D-01 -0.12902946D+00 -0.16781047D+00 -0.16986223D+00 -0.11184567D+00
  0.76452685D-01  0.28342237D-01  0.30793570D-01  0.21553963D-02 -0.58634326D-12
 -0.52844501D-12 -0.38368534D-12  0.11086713D-11  0.99919595D-12  0.72548105D-12
  0.14100403D+00  0.12708064D+00  0.92268785D-01  0.42923785D-12 -0.81119433D-12
  0.28426223D-01  0.22282926D-12 -0.42115369D-12  0.32851375D-02  0.78944886D-14
 -0.14921202D-13 -0.11806967D-04 -0.73004163D-02 -0.73004163D-02  0.14600832D-01
  0.79039024D-17  0.62031039D-12 -0.11723027D-11 -0.50064298D-03 -0.50064298D-03
  0.10012860D-02 -0.13453928D-17  0.22329793D-12 -0.42203923D-12  0.27125149D-04
  0.27125149D-04 -0.54250298D-04  0.17401867D-18  0.29889590D-13 -0.56491977D-13
 -0.15444096D-12  0.29189974D-12  0.22832609D-02 -0.15422031D-12  0.29148748D-12
 -0.34248913D-02  0.61754320D-12 -0.11671867D-11 -0.34248913D-02 -0.67336178D-17
 -0.80324388D-15  0.15179938D-14 -0.17396013D-03 -0.81621006D-15  0.15424251D-14
  0.26094019D-03  0.32259417D-14 -0.60964064D-14  0.26094019D-03 -0.89193680D-18
MO    4     MO 0.0        OCC NO =    2.0000000  ORB. ENERGY =   -0.045949
 -0.20124539D-02 -0.37516717D-02 -0.63409861D-02 -0.95325791D-02 -0.11711875D-01
 -0.98925506D-02 -0.37311061D-02  0.18465452D-04  0.34261813D-01  0.64148925D-01
  0.10921903D+00  0.16894524D+00  0.22249493D+00  0.23118649D+00  0.14690863D+00
 -0.98454751D-01 -0.47800888D-01 -0.68008413D-01 -0.71401254D-02  0.90763723D-11
  0.85096760D-11  0.60593962D-11 -0.17157196D-10 -0.16085962D-10 -0.11454163D-10
 -0.35797859D+00 -0.33562768D+00 -0.23898690D+00  0.19267205D-11 -0.36419453D-11
 -0.73345831D-01  0.47070992D-13 -0.88999011D-13 -0.92823998D-02  0.32897242D-13
 -0.62200606D-13 -0.95065868D-04 -0.44392720D-02 -0.44392720D-02  0.88785440D-02
 -0.84700601D-16 -0.97931928D-12  0.18506393D-11  0.99103065D-03  0.99103065D-03
 -0.19820613D-02  0.13727258D-16  0.66239629D-12 -0.12521239D-11  0.55338588D-05
  0.55338588D-05 -0.11067718D-04 -0.64031898D-17  0.94810918D-13 -0.17922306D-12
 -0.11739655D-12  0.22185873D-12 -0.80240241D-03 -0.11758873D-12  0.22224071D-12
  0.12036036D-02  0.46977838D-12 -0.88781691D-12  0.12036036D-02  0.33135342D-16
 -0.88249862D-14  0.16678190D-13 -0.20572202D-03 -0.88175123D-14  0.16665565D-13
  0.30858304D-03  0.35292471D-13 -0.66700135D-13  0.30858304D-03  0.40231349D-18
 -0.31321148D-02 -0.58364909D-02 -0.98361014D-02 -0.14675382D-01 -0.17775985D-01
 -0.14790944D-01 -0.54934334D-02  0.29163483D-04 -0.34607596D-01 -0.64643035D-01
 -0.11002277D+00 -0.16826769D+00 -0.21884211D+00 -0.22151783D+00 -0.14585825D+00
  0.99702165D-01  0.37932693D-01  0.55227412D-01  0.20627625D-02 -0.11535825D-14
 -0.10396724D-14 -0.75486960D-15  0.26903716D-14  0.24247118D-14  0.17604980D-14
 -0.62384497D-01 -0.56224362D-01 -0.40822533D-01  0.26351664D-12 -0.49797226D-12
 -0.83449287D-02  0.54041198D-13 -0.10212899D-12 -0.14853309D-02 -0.12334468D-13
  0.23317059D-13 -0.18597303D-03 -0.15030262D-02 -0.15030262D-02  0.30060523D-02
  0.26183060D-16 -0.30451575D-12  0.57541564D-12 -0.18083055D-02 -0.18083055D-02
  0.36166111D-02 -0.67592336D-18  0.68439610D-12 -0.12936206D-11  0.35342151D-05
  0.35342151D-05 -0.70684303D-05  0.29114232D-17  0.99919204D-14 -0.18888448D-13
 -0.27567416D-13  0.52121087D-13  0.13874991D-02 -0.27492274D-13  0.51981452D-13
 -0.20812487D-02  0.11019452D-12 -0.20834471D-12 -0.20812487D-02 -0.12180934D-16
 -0.26175575D-13  0.49475328D-13  0.11614072D-03 -0.26179785D-13  0.49482615D-13
 -0.17421108D-03  0.10470651D-12 -0.19790860D-12 -0.17421108D-03  0.23295653D-17
MO    5     MO 0.0        OCC NO =    2.0000000  ORB. ENERGY =    0.029873
 -0.17811553D-15 -0.33204784D-15 -0.56121934D-15 -0.84369650D-15 -0.10365786D-14
 -0.87555637D-15 -0.33022765D-15  0.16343151D-17  0.13150090D-15  0.24621117D-15
  0.41919558D-15  0.64843183D-15  0.85396190D-15  0.88732112D-15  0.56385274D-15
 -0.37788099D-15  0.17032415D-15 -0.79478799D-15  0.14806208D-15  0.45172830D+00
  0.42352400D+00  0.30157432D+00  0.23901320D+00  0.22409007D+00  0.15956548D+00
  0.51478563D-14  0.48264425D-14  0.34367146D-14  0.12143954D+00  0.64254670D-01
  0.18280384D-14  0.25955634D-01  0.13733342D-01  0.30344003D-15  0.82482367D-03
  0.43642106D-03 -0.38421177D-16 -0.21640812D-11  0.21647601D-11 -0.67885476D-15
  0.29508415D-11 -0.26742692D-01 -0.14149781D-01 -0.25071665D-12  0.25086992D-12
 -0.15327281D-15  0.34140921D-12 -0.15194740D-01 -0.80396632D-02 -0.64505781D-13
  0.64510211D-13 -0.44305012D-17  0.87798012D-13 -0.60287691D-03 -0.31898719D-03
 -0.34572192D-02 -0.18292434D-02  0.17553189D-15 -0.34572707D-02 -0.18292707D-02
  0.18488799D-12  0.13828928D-01  0.73170010D-02 -0.18541459D-12 -0.25482179D-12
 -0.70536422D-03 -0.37321408D-03  0.67104481D-17 -0.70537824D-03 -0.37322150D-03
 -0.21070732D-12  0.28214709D-02  0.14928637D-02  0.21068719D-12  0.28678963D-12
  0.28954097D-15  0.53954063D-15  0.90927519D-15  0.13566311D-14  0.16432590D-14
  0.13673139D-14  0.50782749D-15 -0.26959494D-17 -0.31189714D-15 -0.58258822D-15
 -0.99156809D-15 -0.15164940D-14 -0.19722904D-14 -0.19964050D-14 -0.13145314D-14
  0.89855476D-15  0.16867270D-15  0.69097795D-15  0.40195883D-17  0.22965459D+00
  0.20697743D+00  0.15027904D+00  0.12151215D+00  0.10951348D+00  0.79513888D-01
 -0.35149736D-14 -0.31678889D-14 -0.23000927D-14  0.39520371D-01  0.20910557D-01
 -0.26704813D-15  0.74102902D-02  0.39208462D-02  0.40170297D-16  0.46351864D-03
  0.24525157D-03  0.35904487D-18 -0.58734340D-12  0.58738650D-12 -0.43095882D-16
  0.79817011D-12  0.18954023D-01  0.10028731D-01 -0.41157234D-12  0.41146994D-12
  0.10239357D-15  0.56011990D-12 -0.67561914D-02 -0.35747571D-02 -0.23739801D-13
  0.23724921D-13  0.14880380D-16  0.32313497D-13 -0.37454864D-05 -0.19817680D-05
 -0.40120969D-03 -0.21228338D-03  0.27210867D-16 -0.40017719D-03 -0.21173708D-03
 -0.13228472D-13  0.16038063D-02  0.84858723D-03  0.13146839D-13  0.16959330D-13
  0.18646629D-03  0.98660863D-04  0.99172097D-17  0.18643543D-03  0.98644536D-04
 -0.77484118D-13 -0.74583428D-03 -0.39462712D-03  0.77454367D-13  0.10548224D-12
MO    6     MO 0.0        OCC NO =    2.0000000  ORB. ENERGY =    0.029873
  0.31039146D-12  0.57864025D-12  0.97800395D-12  0.14702603D-11  0.18063846D-11
  0.15257806D-11  0.57546831D-12 -0.28480248D-14 -0.32712261D-12 -0.61247675D-12
 -0.10427941D-11 -0.16130439D-11 -0.21243220D-11 -0.22073066D-11 -0.14026443D-11
  0.94001958D-12  0.16077057D-11 -0.15442559D-10 -0.14635232D-10 -0.23901320D+00
 -0.22409007D+00 -0.15956548D+00  0.45172830D+00  0.42352400D+00  0.30157432D+00
  0.15875448D-09  0.14884241D-09  0.10598467D-09 -0.64254670D-01  0.12143954D+00
  0.37955812D-10 -0.13733342D-01  0.25955634D-01  0.13938063D-10 -0.43642106D-03
  0.82482367D-03  0.16224639D-11  0.26396061D-11  0.55856883D-11 -0.82252944D-11
 -0.43357526D-11  0.14149781D-01 -0.26742692D-01  0.59849205D-12  0.93974685D-12
 -0.15382389D-11 -0.50161170D-12  0.80396632D-02 -0.15194740D-01  0.21199816D-12
  0.29983862D-12 -0.51183679D-12 -0.12899546D-12  0.31898719D-03 -0.60287691D-03
  0.18292434D-02 -0.34572192D-02  0.13398403D-11  0.18292707D-02 -0.34572707D-02
 -0.18840839D-11 -0.73170010D-02  0.13828928D-01 -0.21354371D-11  0.37476874D-12
  0.37321408D-03 -0.70536422D-03  0.12803557D-12  0.37322150D-03 -0.70537824D-03
 -0.33533596D-12 -0.14928637D-02  0.28214709D-02 -0.48770755D-13 -0.42148542D-12
 -0.18520743D-12 -0.34512192D-12 -0.58162589D-12 -0.86778106D-12 -0.10511251D-11
 -0.87461440D-12 -0.32483633D-12  0.17244878D-14 -0.27039779D-11 -0.50507218D-11
 -0.85963539D-11 -0.13147175D-10 -0.17098681D-10 -0.17307741D-10 -0.11396270D-10
  0.77899791D-11  0.44604061D-11  0.39864019D-10  0.93767258D-11 -0.12151215D+00
 -0.10951348D+00 -0.79513888D-01  0.22965459D+00  0.20697743D+00  0.15027904D+00
 -0.10090031D-09 -0.90936943D-10 -0.66026118D-10 -0.20910557D-01  0.39520371D-01
 -0.17405758D-10 -0.39208462D-02  0.74102902D-02  0.29318322D-11 -0.24525157D-03
  0.46351864D-03  0.40419982D-13  0.28467847D-11  0.36465977D-11 -0.64933824D-11
 -0.11728563D-11 -0.10028731D-01  0.18954023D-01 -0.93368576D-12 -0.37374485D-12
  0.13074306D-11 -0.82309355D-12  0.35747571D-02 -0.67561914D-02 -0.12225561D-12
 -0.89942708D-13  0.21219832D-12 -0.47478058D-13  0.19817680D-05 -0.37454864D-05
  0.21228338D-03 -0.40120969D-03 -0.12143993D-11  0.21173708D-03 -0.40017719D-03
  0.18126328D-11 -0.84858723D-03  0.16038063D-02  0.18305651D-11 -0.24875018D-13
 -0.98660863D-04  0.18646629D-03  0.78948201D-13 -0.98644536D-04  0.18643543D-03
 -0.17112228D-12  0.39462712D-03 -0.74583428D-03 -0.65722326D-13 -0.15504296D-12
END DATA
RHF
