 Molden2AIM, Version 4.0.0 (06/02/2016)           Time: Fri Jun 29 23:00:09 2018
GAUSSIAN              4 MOL ORBITALS    102 PRIMITIVES        2 NUCLEI
  N    1    (CENTRE  1)   0.00000000  0.00000000  2.83677371  CHARGE =  7.0
  H    2    (CENTRE  2)   0.00000000  0.00000000  0.87445943  CHARGE =  1.0
CENTRE ASSIGNMENTS    1  1  1  1  1  1  1  1  1  1  1  1  1  1  1  1  1  1  1  1
CENTRE ASSIGNMENTS    1  1  1  1  1  1  1  1  1  1  1  1  1  1  1  1  1  1  1  1
CENTRE ASSIGNMENTS    1  1  1  1  1  1  1  1  1  1  1  1  1  1  1  1  1  1  1  1
CENTRE ASSIGNMENTS    1  1  1  1  1  1  1  1  1  1  1  1  1  1  1  2  2  2  2  2
CENTRE ASSIGNMENTS    2  2  2  2  2  2  2  2  2  2  2  2  2  2  2  2  2  2  2  2
CENTRE ASSIGNMENTS    2  2
TYPE ASSIGNMENTS      1  1  1  1  1  1  1  1  1  1  1  1  1  1  1  1  1  1  1  2
TYPE ASSIGNMENTS      2  2  3  3  3  4  4  4  2  3  4  2  3  4  2  3  4  5  6  7
TYPE ASSIGNMENTS      8  9 10  5  6  7  8  9 10  5  6  7  8  9 10 11 12 13 17 14
TYPE ASSIGNMENTS     15 18 19 16 20 11 12 13 17 14 15 18 19 16 20  1  1  1  1  1
TYPE ASSIGNMENTS      1  2  3  4  2  3  4  2  3  4  5  6  7  8  9 10  5  6  7  8
TYPE ASSIGNMENTS      9 10
EXPONENTS  0.1142000D+05 0.1712000D+04 0.3893000D+03 0.1100000D+03 0.3557000D+02
EXPONENTS  0.1254000D+02 0.4644000D+01 0.5118000D+00 0.1142000D+05 0.1712000D+04
EXPONENTS  0.3893000D+03 0.1100000D+03 0.3557000D+02 0.1254000D+02 0.4644000D+01
EXPONENTS  0.5118000D+00 0.1293000D+01 0.1787000D+00 0.5760000D-01 0.2663000D+02
EXPONENTS  0.5948000D+01 0.1742000D+01 0.2663000D+02 0.5948000D+01 0.1742000D+01
EXPONENTS  0.2663000D+02 0.5948000D+01 0.1742000D+01 0.5550000D+00 0.5550000D+00
EXPONENTS  0.5550000D+00 0.1725000D+00 0.1725000D+00 0.1725000D+00 0.4910000D-01
EXPONENTS  0.4910000D-01 0.4910000D-01 0.1654000D+01 0.1654000D+01 0.1654000D+01
EXPONENTS  0.1654000D+01 0.1654000D+01 0.1654000D+01 0.4690000D+00 0.4690000D+00
EXPONENTS  0.4690000D+00 0.4690000D+00 0.4690000D+00 0.4690000D+00 0.1510000D+00
EXPONENTS  0.1510000D+00 0.1510000D+00 0.1510000D+00 0.1510000D+00 0.1510000D+00
EXPONENTS  0.1093000D+01 0.1093000D+01 0.1093000D+01 0.1093000D+01 0.1093000D+01
EXPONENTS  0.1093000D+01 0.1093000D+01 0.1093000D+01 0.1093000D+01 0.1093000D+01
EXPONENTS  0.3640000D+00 0.3640000D+00 0.3640000D+00 0.3640000D+00 0.3640000D+00
EXPONENTS  0.3640000D+00 0.3640000D+00 0.3640000D+00 0.3640000D+00 0.3640000D+00
EXPONENTS  0.3387000D+02 0.5095000D+01 0.1159000D+01 0.3258000D+00 0.1027000D+00
EXPONENTS  0.2526000D-01 0.1407000D+01 0.1407000D+01 0.1407000D+01 0.3880000D+00
EXPONENTS  0.3880000D+00 0.3880000D+00 0.1020000D+00 0.1020000D+00 0.1020000D+00
EXPONENTS  0.1057000D+01 0.1057000D+01 0.1057000D+01 0.1057000D+01 0.1057000D+01
EXPONENTS  0.1057000D+01 0.2470000D+00 0.2470000D+00 0.2470000D+00 0.2470000D+00
EXPONENTS  0.2470000D+00 0.2470000D+00
MO    1     MO 0.0        OCC NO =    2.0000000  ORB. ENERGY =  -14.271783
  0.41164095D+00  0.76703230D+00  0.12972439D+01  0.19535774D+01  0.24186556D+01
  0.20581668D+01  0.78317042D+00 -0.36679212D-02 -0.68260628D-03 -0.12798932D-02
 -0.21774791D-02 -0.33813951D-02 -0.44873079D-02 -0.47290066D-02 -0.29322858D-02
  0.19505576D-02  0.39702971D-01  0.13714234D-02  0.72985624D-04 -0.12750845D-15
 -0.12247034D-15 -0.85884656D-16 -0.31335505D-15 -0.30097378D-15 -0.21106359D-15
 -0.44498918D-02 -0.42740679D-02 -0.29972714D-02  0.18349507D-16  0.43184738D-16
 -0.20571468D-02  0.34316241D-18  0.13668795D-17 -0.12897152D-03  0.10806023D-18
  0.26136350D-18  0.13028587D-05  0.10850294D-03 -0.38378190D-02  0.37293161D-02
 -0.39115436D-02  0.80137420D-17  0.25412214D-16 -0.23807014D-03 -0.56662327D-04
  0.29473247D-03  0.17978848D-03 -0.62796775D-17 -0.16630120D-16  0.25826162D-04
  0.18991787D-04 -0.44817949D-04 -0.67881181D-05 -0.48317438D-18 -0.12382140D-17
 -0.10507342D-16  0.95332052D-17 -0.10093527D-02  0.38025464D-16 -0.10653514D-16
  0.12307957D-02 -0.65034380D-17 -0.17946102D-16  0.17972622D-02  0.55593293D-03
 -0.11944571D-18 -0.14758016D-17  0.10414643D-03 -0.17217597D-17 -0.82585394D-18
 -0.14218892D-03  0.20800968D-17  0.52532586D-17 -0.17025037D-03 -0.27549948D-04
  0.13299504D-03  0.23986203D-03  0.35367642D-03 -0.14083012D-02 -0.53310488D-03
 -0.86704355D-05  0.14379041D-17  0.36816279D-17 -0.13089678D-02 -0.67660081D-17
 -0.17163377D-16 -0.19769596D-02 -0.42018735D-18 -0.11541644D-17 -0.19359843D-03
  0.13608722D-02  0.13904813D-02 -0.27513536D-02  0.29195998D-04 -0.85838622D-17
 -0.20895087D-16  0.10552195D-03  0.94580680D-04 -0.20010263D-03 -0.10783989D-04
 -0.19773443D-17 -0.50757029D-17
MO    2     MO 0.0        OCC NO =    2.0000000  ORB. ENERGY =   -0.765219
 -0.56695441D-02 -0.10564361D-01 -0.17866982D-01 -0.26906685D-01 -0.33312222D-01
 -0.28347197D-01 -0.10786631D-01  0.50518397D-04 -0.78383242D-01 -0.14696931D+00
 -0.25003853D+00 -0.38828343D+00 -0.51527470D+00 -0.54302880D+00 -0.33671250D+00
  0.22398128D+00  0.12042809D+00  0.68549760D-01  0.27151698D-02 -0.10981734D-14
 -0.10547824D-14 -0.73968621D-15 -0.38402611D-14 -0.36885249D-14 -0.25866483D-14
 -0.26366119D+00 -0.25324342D+00 -0.17759177D+00 -0.38206688D-15 -0.10956671D-14
 -0.69767149D-01 -0.52616344D-16 -0.11633681D-15 -0.80107870D-02 -0.42738360D-18
 -0.23168170D-18 -0.23184949D-03 -0.12202494D-01 -0.18247427D-01  0.30449921D-01
 -0.59894367D-02 -0.25713569D-15 -0.40987141D-15 -0.50360464D-02 -0.13357000D-02
  0.63717464D-02  0.36683117D-02 -0.23170940D-16 -0.90202997D-17  0.20533345D-03
 -0.31427154D-03  0.10893808D-03 -0.51511808D-03  0.12368778D-16  0.12257856D-16
 -0.23554993D-15 -0.31463438D-15 -0.32146580D-02 -0.29925016D-17 -0.44062995D-15
  0.40321925D-02  0.70964228D-15  0.13845331D-14  0.56117814D-02  0.15655299D-02
  0.94464317D-18  0.11214147D-16 -0.47382051D-03  0.20926167D-16  0.93308329D-17
  0.57515740D-03 -0.23760097D-16 -0.42973274D-16  0.84630414D-03  0.26883447D-03
  0.31486904D-01  0.56787928D-01  0.83733766D-01  0.36019664D-01 -0.83016006D-02
 -0.19726725D-03 -0.24755000D-15 -0.54190720D-15  0.35923017D-01 -0.14364055D-16
 -0.74889895D-16 -0.12013435D-02  0.11440725D-16  0.89871465D-17 -0.23309686D-02
 -0.59551017D-02 -0.22578495D-02  0.82129511D-02  0.36656700D-02 -0.50029927D-15
 -0.10555811D-14  0.73160155D-03  0.47740482D-03 -0.12090064D-02 -0.25196010D-03
  0.79514248D-17  0.38892434D-17
MO    3     MO 0.0        OCC NO =    2.0000000  ORB. ENERGY =   -0.364666
  0.48270643D-03  0.89945235D-03  0.15211994D-02  0.22908420D-02  0.28362111D-02
  0.24134876D-02  0.91837656D-03 -0.43011492D-05 -0.37397124D-01 -0.70119957D-01
 -0.11929491D+00 -0.18525240D+00 -0.24584071D+00 -0.25908236D+00 -0.16064759D+00
  0.10686284D+00  0.58582001D-01  0.47910016D-01 -0.18873811D-02 -0.33987213D-14
 -0.32644311D-14 -0.22892444D-14 -0.69242535D-14 -0.66506627D-14 -0.46639038D-14
  0.97496995D+00  0.93644698D+00  0.65670126D+00 -0.11200936D-14 -0.22220942D-14
  0.22804376D+00 -0.10736574D-15 -0.34714723D-15  0.34423408D-01 -0.10496277D-16
 -0.77737219D-17  0.74154463D-03  0.19628956D-01  0.22306092D-01 -0.41935049D-01
  0.26282967D-02 -0.51871233D-15 -0.14712399D-14  0.15286721D-02  0.47547542D-02
 -0.62834263D-02  0.31986628D-02 -0.21809275D-15 -0.53935208D-15  0.42169158D-03
 -0.37774961D-04 -0.38391662D-03 -0.45560293D-03 -0.80694126D-17 -0.31176630D-16
 -0.31697153D-16  0.63756542D-16 -0.57241351D-03  0.14338199D-15 -0.76456028D-16
 -0.65192930D-02 -0.48290534D-16 -0.11481360D-15  0.82365335D-02  0.14625163D-01
 -0.10158169D-16 -0.30212587D-17 -0.27807267D-03  0.22885052D-16 -0.11318484D-16
 -0.32892264D-03  0.75894563D-17  0.20382260D-16  0.11631407D-02  0.14793168D-02
 -0.39252468D-01 -0.70793443D-01 -0.10438489D+00 -0.78318292D-01 -0.69783011D-03
  0.54474828D-03 -0.41799961D-16 -0.47124158D-16 -0.29960246D-01 -0.36889664D-16
 -0.71982682D-16  0.16156263D-02 -0.70240464D-17 -0.14078871D-17  0.26312776D-02
  0.71913373D-02  0.34019883D-02 -0.10593326D-01 -0.37574173D-02 -0.52427875D-16
 -0.14230885D-15 -0.11210588D-02 -0.44028505D-03  0.15613439D-02  0.67488568D-03
 -0.17690504D-16 -0.33060998D-16
MO    4     MO 0.0        OCC NO =    2.0000000  ORB. ENERGY =   -0.235450
 -0.45114459D-15 -0.84064151D-15 -0.14217355D-14 -0.21410549D-14 -0.26507649D-14
 -0.22556813D-14 -0.85832835D-15  0.40199178D-17  0.32761284D-15  0.61427715D-15
  0.10450682D-14  0.16228806D-14  0.21536569D-14  0.22696587D-14  0.14073332D-14
 -0.93615859D-15  0.38509793D-15 -0.16569355D-14 -0.22947930D-15  0.11302190D+01
  0.10855618D+01  0.76127088D+00 -0.46528859D+00 -0.44690413D+00 -0.31340002D+00
  0.67973330D-16  0.65287571D-16  0.45784151D-16  0.27168816D+00 -0.11184952D+00
  0.17888344D-14  0.55451398D-01 -0.22828702D-01  0.72463313D-15  0.16765909D-02
 -0.69021076D-03  0.19931905D-16 -0.87012238D-15  0.16469714D-14 -0.77684901D-15
 -0.19559335D-14 -0.49183917D-01  0.20223851D-01  0.84890030D-16  0.51470845D-15
 -0.59959848D-15 -0.45115181D-15 -0.88180180D-02  0.36317553D-02  0.98411722D-18
  0.64201278D-16 -0.65185395D-16 -0.66073714D-16 -0.16674537D-02  0.68645802D-03
 -0.45223253D-02 -0.62419169D-02  0.17784582D-15  0.71270612D-02  0.21379385D-01
 -0.43404077D-15  0.64399146D-02 -0.26536337D-02 -0.99496682D-16 -0.90890671D-16
 -0.21197367D-03 -0.52991150D-03  0.56211414D-16  0.67558441D-03  0.15737107D-02
 -0.96893664D-16 -0.39663390D-04  0.16023765D-04 -0.71740578D-16 -0.67905815D-16
  0.81844050D-17  0.14760911D-16  0.21764955D-16  0.20062786D-14  0.10415435D-14
 -0.39563511D-16  0.25061281D-01 -0.10316743D-01  0.59704202D-15  0.12302340D-01
 -0.50632606D-02  0.13523392D-14  0.20926609D-03 -0.86050822D-04  0.18548262D-15
 -0.58202845D-15 -0.38470515D-15  0.96673360D-15 -0.77573685D-16  0.16872658D-01
 -0.69435669D-02 -0.37193066D-16 -0.15070259D-16  0.52263325D-16 -0.44245614D-16
  0.18697015D-03 -0.76602806D-04
END DATA
RHF
