 Molden2AIM, Version 4.0.0 (06/02/2016)           Time: Fri Jun 29 23:03:21 2018
GAUSSIAN             16 MOL ORBITALS    262 PRIMITIVES        2 NUCLEI
  S    1    (CENTRE  1)   0.00000000  0.00000000  1.78333643  CHARGE = 16.0
  S    2    (CENTRE  2)   0.00000000  0.00000000 -1.78333643  CHARGE = 16.0
CENTRE ASSIGNMENTS    1  1  1  1  1  1  1  1  1  1  1  1  1  1  1  1  1  1  1  1
CENTRE ASSIGNMENTS    1  1  1  1  1  1  1  1  1  1  1  1  1  1  1  1  1  1  1  1
CENTRE ASSIGNMENTS    1  1  1  1  1  1  1  1  1  1  1  1  1  1  1  1  1  1  1  1
CENTRE ASSIGNMENTS    1  1  1  1  1  1  1  1  1  1  1  1  1  1  1  1  1  1  1  1
CENTRE ASSIGNMENTS    1  1  1  1  1  1  1  1  1  1  1  1  1  1  1  1  1  1  1  1
CENTRE ASSIGNMENTS    1  1  1  1  1  1  1  1  1  1  1  1  1  1  1  1  1  1  1  1
CENTRE ASSIGNMENTS    1  1  1  1  1  1  1  1  1  1  1  2  2  2  2  2  2  2  2  2
CENTRE ASSIGNMENTS    2  2  2  2  2  2  2  2  2  2  2  2  2  2  2  2  2  2  2  2
CENTRE ASSIGNMENTS    2  2  2  2  2  2  2  2  2  2  2  2  2  2  2  2  2  2  2  2
CENTRE ASSIGNMENTS    2  2  2  2  2  2  2  2  2  2  2  2  2  2  2  2  2  2  2  2
CENTRE ASSIGNMENTS    2  2  2  2  2  2  2  2  2  2  2  2  2  2  2  2  2  2  2  2
CENTRE ASSIGNMENTS    2  2  2  2  2  2  2  2  2  2  2  2  2  2  2  2  2  2  2  2
CENTRE ASSIGNMENTS    2  2  2  2  2  2  2  2  2  2  2  2  2  2  2  2  2  2  2  2
CENTRE ASSIGNMENTS    2  2
TYPE ASSIGNMENTS      1  1  1  1  1  1  1  1  1  1  1  1  1  1  1  1  1  1  1  1
TYPE ASSIGNMENTS      1  1  1  1  1  1  1  1  1  1  1  1  1  1  1  1  1  1  1  1
TYPE ASSIGNMENTS      1  1  2  2  2  2  2  2  2  3  3  3  3  3  3  3  4  4  4  4
TYPE ASSIGNMENTS      4  4  4  2  2  2  2  2  2  2  3  3  3  3  3  3  3  4  4  4
TYPE ASSIGNMENTS      4  4  4  4  2  3  4  2  3  4  2  3  4  5  6  7  8  9 10  5
TYPE ASSIGNMENTS      6  7  8  9 10  5  6  7  8  9 10 11 12 13 17 14 15 18 19 16
TYPE ASSIGNMENTS     20 11 12 13 17 14 15 18 19 16 20  1  1  1  1  1  1  1  1  1
TYPE ASSIGNMENTS      1  1  1  1  1  1  1  1  1  1  1  1  1  1  1  1  1  1  1  1
TYPE ASSIGNMENTS      1  1  1  1  1  1  1  1  1  1  1  1  1  2  2  2  2  2  2  2
TYPE ASSIGNMENTS      3  3  3  3  3  3  3  4  4  4  4  4  4  4  2  2  2  2  2  2
TYPE ASSIGNMENTS      2  3  3  3  3  3  3  3  4  4  4  4  4  4  4  2  3  4  2  3
TYPE ASSIGNMENTS      4  2  3  4  5  6  7  8  9 10  5  6  7  8  9 10  5  6  7  8
TYPE ASSIGNMENTS      9 10 11 12 13 17 14 15 18 19 16 20 11 12 13 17 14 15 18 19
TYPE ASSIGNMENTS     16 20
EXPONENTS  0.3741000D+06 0.5605000D+05 0.1276000D+05 0.3615000D+04 0.1183000D+04
EXPONENTS  0.4288000D+03 0.1678000D+03 0.6947000D+02 0.2984000D+02 0.1272000D+02
EXPONENTS  0.5244000D+01 0.2219000D+01 0.3490000D+00 0.3741000D+06 0.5605000D+05
EXPONENTS  0.1276000D+05 0.3615000D+04 0.1183000D+04 0.4288000D+03 0.1678000D+03
EXPONENTS  0.6947000D+02 0.2984000D+02 0.1272000D+02 0.5244000D+01 0.2219000D+01
EXPONENTS  0.3490000D+00 0.3741000D+06 0.5605000D+05 0.1276000D+05 0.3615000D+04
EXPONENTS  0.1183000D+04 0.4288000D+03 0.1678000D+03 0.6947000D+02 0.2984000D+02
EXPONENTS  0.1272000D+02 0.5244000D+01 0.2219000D+01 0.3490000D+00 0.7767000D+00
EXPONENTS  0.1322000D+00 0.4970000D-01 0.5744000D+03 0.1358000D+03 0.4319000D+02
EXPONENTS  0.1587000D+02 0.6208000D+01 0.2483000D+01 0.3229000D+00 0.5744000D+03
EXPONENTS  0.1358000D+03 0.4319000D+02 0.1587000D+02 0.6208000D+01 0.2483000D+01
EXPONENTS  0.3229000D+00 0.5744000D+03 0.1358000D+03 0.4319000D+02 0.1587000D+02
EXPONENTS  0.6208000D+01 0.2483000D+01 0.3229000D+00 0.5744000D+03 0.1358000D+03
EXPONENTS  0.4319000D+02 0.1587000D+02 0.6208000D+01 0.2483000D+01 0.3229000D+00
EXPONENTS  0.5744000D+03 0.1358000D+03 0.4319000D+02 0.1587000D+02 0.6208000D+01
EXPONENTS  0.2483000D+01 0.3229000D+00 0.5744000D+03 0.1358000D+03 0.4319000D+02
EXPONENTS  0.1587000D+02 0.6208000D+01 0.2483000D+01 0.3229000D+00 0.8688000D+00
EXPONENTS  0.8688000D+00 0.8688000D+00 0.1098000D+00 0.1098000D+00 0.1098000D+00
EXPONENTS  0.3510000D-01 0.3510000D-01 0.3510000D-01 0.2690000D+00 0.2690000D+00
EXPONENTS  0.2690000D+00 0.2690000D+00 0.2690000D+00 0.2690000D+00 0.8190000D+00
EXPONENTS  0.8190000D+00 0.8190000D+00 0.8190000D+00 0.8190000D+00 0.8190000D+00
EXPONENTS  0.1010000D+00 0.1010000D+00 0.1010000D+00 0.1010000D+00 0.1010000D+00
EXPONENTS  0.1010000D+00 0.5570000D+00 0.5570000D+00 0.5570000D+00 0.5570000D+00
EXPONENTS  0.5570000D+00 0.5570000D+00 0.5570000D+00 0.5570000D+00 0.5570000D+00
EXPONENTS  0.5570000D+00 0.2180000D+00 0.2180000D+00 0.2180000D+00 0.2180000D+00
EXPONENTS  0.2180000D+00 0.2180000D+00 0.2180000D+00 0.2180000D+00 0.2180000D+00
EXPONENTS  0.2180000D+00 0.3741000D+06 0.5605000D+05 0.1276000D+05 0.3615000D+04
EXPONENTS  0.1183000D+04 0.4288000D+03 0.1678000D+03 0.6947000D+02 0.2984000D+02
EXPONENTS  0.1272000D+02 0.5244000D+01 0.2219000D+01 0.3490000D+00 0.3741000D+06
EXPONENTS  0.5605000D+05 0.1276000D+05 0.3615000D+04 0.1183000D+04 0.4288000D+03
EXPONENTS  0.1678000D+03 0.6947000D+02 0.2984000D+02 0.1272000D+02 0.5244000D+01
EXPONENTS  0.2219000D+01 0.3490000D+00 0.3741000D+06 0.5605000D+05 0.1276000D+05
EXPONENTS  0.3615000D+04 0.1183000D+04 0.4288000D+03 0.1678000D+03 0.6947000D+02
EXPONENTS  0.2984000D+02 0.1272000D+02 0.5244000D+01 0.2219000D+01 0.3490000D+00
EXPONENTS  0.7767000D+00 0.1322000D+00 0.4970000D-01 0.5744000D+03 0.1358000D+03
EXPONENTS  0.4319000D+02 0.1587000D+02 0.6208000D+01 0.2483000D+01 0.3229000D+00
EXPONENTS  0.5744000D+03 0.1358000D+03 0.4319000D+02 0.1587000D+02 0.6208000D+01
EXPONENTS  0.2483000D+01 0.3229000D+00 0.5744000D+03 0.1358000D+03 0.4319000D+02
EXPONENTS  0.1587000D+02 0.6208000D+01 0.2483000D+01 0.3229000D+00 0.5744000D+03
EXPONENTS  0.1358000D+03 0.4319000D+02 0.1587000D+02 0.6208000D+01 0.2483000D+01
EXPONENTS  0.3229000D+00 0.5744000D+03 0.1358000D+03 0.4319000D+02 0.1587000D+02
EXPONENTS  0.6208000D+01 0.2483000D+01 0.3229000D+00 0.5744000D+03 0.1358000D+03
EXPONENTS  0.4319000D+02 0.1587000D+02 0.6208000D+01 0.2483000D+01 0.3229000D+00
EXPONENTS  0.8688000D+00 0.8688000D+00 0.8688000D+00 0.1098000D+00 0.1098000D+00
EXPONENTS  0.1098000D+00 0.3510000D-01 0.3510000D-01 0.3510000D-01 0.2690000D+00
EXPONENTS  0.2690000D+00 0.2690000D+00 0.2690000D+00 0.2690000D+00 0.2690000D+00
EXPONENTS  0.8190000D+00 0.8190000D+00 0.8190000D+00 0.8190000D+00 0.8190000D+00
EXPONENTS  0.8190000D+00 0.1010000D+00 0.1010000D+00 0.1010000D+00 0.1010000D+00
EXPONENTS  0.1010000D+00 0.1010000D+00 0.5570000D+00 0.5570000D+00 0.5570000D+00
EXPONENTS  0.5570000D+00 0.5570000D+00 0.5570000D+00 0.5570000D+00 0.5570000D+00
EXPONENTS  0.5570000D+00 0.5570000D+00 0.2180000D+00 0.2180000D+00 0.2180000D+00
EXPONENTS  0.2180000D+00 0.2180000D+00 0.2180000D+00 0.2180000D+00 0.2180000D+00
EXPONENTS  0.2180000D+00 0.2180000D+00
MO    1     MO 0.0        OCC NO =    2.0000000  ORB. ENERGY =  -88.598254
  0.58500101D+00  0.10936254D+01  0.18901261D+01  0.30571942D+01  0.46207700D+01
  0.63635585D+01  0.74375246D+01  0.64265823D+01  0.29973809D+01  0.40697957D+00
  0.10897910D-02  0.21377195D-02  0.97595823D-04 -0.10230600D-02 -0.19106080D-02
 -0.33142453D-02 -0.53739341D-02 -0.82737834D-02 -0.11783726D-01 -0.15152342D-01
 -0.15905450D-01 -0.11246280D-01  0.24905359D-03  0.80805978D-02  0.44493965D-02
 -0.18816422D-04  0.40056040D-03  0.74750496D-03  0.12983266D-02  0.21030011D-02
  0.32485212D-02  0.46312551D-02  0.60237501D-02  0.64196938D-02  0.47613534D-02
 -0.14820325D-03 -0.43135381D-02 -0.42257786D-02  0.19736892D-02 -0.26899544D-02
 -0.10809343D-02 -0.26770841D-03  0.91946967D-06  0.12062941D-05  0.13231208D-05
  0.10886848D-05  0.57397614D-06  0.14932146D-06 -0.16523942D-09 -0.10590394D-06
 -0.13894020D-06 -0.15239622D-06 -0.12539403D-06 -0.66110212D-07 -0.17198752D-07
  0.19032173D-10 -0.42232738D-02 -0.55407053D-02 -0.60773092D-02 -0.50005063D-02
 -0.26363658D-02 -0.68585778D-03  0.75897155D-06 -0.17272977D-06 -0.22679524D-06
 -0.25515993D-06 -0.21499153D-06 -0.12026325D-06 -0.29933278D-07  0.13728844D-07
  0.24202917D-07  0.31778578D-07  0.35753043D-07  0.30124642D-07  0.16851302D-07
  0.41942548D-08 -0.19236873D-08  0.32712791D-02  0.42952093D-02  0.48324001D-02
  0.40716625D-02  0.22776309D-02  0.56689769D-03 -0.26000660D-03 -0.57581848D-07
  0.76838607D-08  0.17957261D-03 -0.11906715D-08  0.14318405D-09  0.47344029D-03
  0.96820472D-10 -0.11779434D-10  0.14508298D-04  0.40478773D-04  0.40484838D-04
 -0.80963611D-04  0.15971501D-07 -0.24190383D-08  0.47623784D-09 -0.10230533D-03
 -0.10235893D-03  0.20466426D-03 -0.14152911D-06  0.31531384D-08 -0.12112285D-08
  0.26046353D-04  0.26045749D-04 -0.52092101D-04 -0.15988833D-08  0.65913356D-10
 -0.14177106D-10 -0.35499669D-09  0.54731340D-10 -0.54424243D-04 -0.35423530D-09
  0.61554577D-10  0.81635696D-04  0.14192254D-08 -0.22574860D-09  0.81637033D-04
  0.35997838D-08 -0.76630557D-10  0.16161167D-10  0.26744007D-04 -0.75034670D-10
  0.21044022D-11 -0.40115993D-04  0.30492634D-09 -0.50587904D-10 -0.40116029D-04
 -0.87278662D-10 -0.74669985D-02 -0.13959120D-01 -0.24125717D-01 -0.39022265D-01
 -0.58979868D-01 -0.81224957D-01 -0.94933143D-01 -0.82029398D-01 -0.38258803D-01
 -0.51947190D-02 -0.13910177D-04 -0.27286018D-04 -0.12457207D-05  0.94782356D-04
  0.17701009D-03  0.30705138D-03  0.49787320D-03  0.76653247D-03  0.10917144D-02
  0.14038030D-02  0.14735754D-02  0.10419223D-02 -0.23073805D-04 -0.74863461D-03
 -0.41221854D-03  0.17432652D-05 -0.46331108D-04 -0.86460702D-04 -0.15017189D-03
 -0.24324514D-03 -0.37574256D-03 -0.53567747D-03 -0.69674141D-03 -0.74253853D-03
 -0.55072539D-03  0.17142036D-04  0.49892851D-03  0.48877774D-03 -0.22828819D-03
  0.17426242D-03  0.89458990D-03  0.25054713D-03 -0.37550009D-07 -0.49263567D-07
 -0.54034625D-07 -0.44460545D-07 -0.23440479D-07 -0.60981047D-08  0.67481745D-11
  0.55226361D-08  0.72453978D-08  0.79470970D-08  0.65389974D-08  0.34474887D-08
  0.89687362D-09 -0.99248210D-12  0.17475513D-02  0.22926921D-02  0.25147338D-02
  0.20691628D-02  0.10909036D-02  0.28380155D-03 -0.31405535D-06  0.23142435D-07
  0.30386158D-07  0.34186477D-07  0.28804691D-07  0.16112941D-07  0.40104781D-08
 -0.18393985D-08 -0.36281860D-08 -0.47638303D-08 -0.53596303D-08 -0.45158937D-08
 -0.25261276D-08 -0.62874803D-09  0.28837414D-09 -0.16506123D-02 -0.21672640D-02
 -0.24383181D-02 -0.20544674D-02 -0.11492402D-02 -0.28604355D-03  0.13119336D-03
  0.32538672D-08 -0.49971327D-09  0.49980261D-04 -0.10048431D-09  0.29516094D-10
  0.30854828D-03 -0.10388847D-10  0.23466266D-12  0.95757772D-05  0.29278319D-05
  0.29267662D-05 -0.58545981D-05 -0.28216241D-08 -0.24363916D-08  0.40546921D-09
 -0.11259820D-04 -0.11256560D-04  0.22516381D-04  0.86358743D-08  0.29252650D-08
 -0.50448724D-09 -0.76948955D-05 -0.76946754D-05  0.15389571D-04  0.58463072D-09
  0.29653227D-10 -0.64573723D-12  0.20749211D-09 -0.21281432D-10 -0.19827813D-04
  0.21283901D-09 -0.61359025D-10  0.29742314D-04 -0.83531533D-09  0.12520332D-09
  0.29741126D-04 -0.31518250D-08  0.16551854D-09 -0.28689253D-10 -0.13573860D-04
  0.16476363D-09 -0.21834819D-10  0.20360756D-04 -0.66131926D-09  0.10790258D-09
  0.20360825D-04  0.19681443D-09
MO    2     MO 0.0        OCC NO =    2.0000000  ORB. ENERGY =  -88.597936
  0.73720249D-02  0.13781572D-01  0.23818860D-01  0.38525937D-01  0.58229697D-01
  0.80191848D-01  0.93725679D-01  0.80986057D-01  0.37772186D-01  0.51286468D-02
  0.13733252D-04  0.26938964D-04  0.12298762D-05  0.68870332D-04  0.12861828D-03
  0.22310831D-03  0.36176240D-03  0.55697441D-03  0.79325666D-03  0.10200251D-02
  0.10707228D-02  0.75707690D-03 -0.16765785D-04 -0.54396954D-03 -0.29952439D-03
  0.12666836D-05 -0.36191386D-04 -0.67538481D-04 -0.11730626D-03 -0.19001011D-03
 -0.29351001D-03 -0.41844262D-03 -0.54425717D-03 -0.58003143D-03 -0.43019725D-03
  0.13390443D-04  0.38973630D-03  0.38180706D-03 -0.17832654D-03  0.10605109D-03
  0.86765976D-03  0.24388610D-03 -0.14441490D-07 -0.18946448D-07 -0.20781366D-07
 -0.17099237D-07 -0.90150560D-08 -0.23452915D-08  0.25953041D-11  0.29535346D-08
  0.38748766D-08  0.42501490D-08  0.34970900D-08  0.18437350D-08  0.47965270D-09
 -0.53078462D-12 -0.18567176D-02 -0.24359124D-02 -0.26718246D-02 -0.21984196D-02
 -0.11590503D-02 -0.30153011D-03  0.33367381D-06  0.19043607D-07  0.25004372D-07
  0.28131605D-07  0.23703004D-07  0.13259128D-07  0.33001700D-08 -0.15136170D-08
 -0.31701777D-08 -0.41624626D-08 -0.46830511D-08 -0.39458246D-08 -0.22072390D-08
 -0.54937729D-09  0.25197090D-09  0.17354536D-02  0.22786612D-02  0.25636475D-02
  0.21600668D-02  0.12083111D-02  0.30074617D-03 -0.13793669D-03  0.18202812D-08
 -0.31964979D-09 -0.45361499D-04 -0.13263553D-09  0.34167235D-10 -0.29671770D-03
 -0.80555145D-11  0.31872214D-14 -0.92128152D-05  0.39381303D-05  0.39372199D-05
 -0.78753502D-05 -0.24132457D-08  0.24101802D-08 -0.41283482D-09 -0.13859933D-04
 -0.13858038D-04  0.27717970D-04  0.50339749D-08 -0.28870185D-08  0.49698208D-09
 -0.70395740D-05 -0.70393695D-05  0.14078943D-04  0.54330808D-09 -0.28402320D-10
  0.54251230D-12  0.20140384D-09 -0.21527384D-10  0.18444471D-04  0.20673108D-09
 -0.61337139D-10 -0.27667321D-04 -0.81094259D-09  0.12591929D-09 -0.27666093D-04
  0.32588539D-08  0.16597972D-09 -0.29609668D-10  0.14254583D-04  0.16527695D-09
 -0.23125461D-10 -0.21381839D-04 -0.66321612D-09  0.11195446D-09 -0.21381910D-04
 -0.20264258D-09  0.58499986D+00  0.10936232D+01  0.18901224D+01  0.30571882D+01
  0.46207609D+01  0.63635460D+01  0.74375099D+01  0.64265697D+01  0.29973750D+01
  0.40697877D+00  0.10897889D-02  0.21377153D-02  0.97595631D-04 -0.10210995D-02
 -0.19069468D-02 -0.33078943D-02 -0.53636362D-02 -0.82579285D-02 -0.11761145D-01
 -0.15123306D-01 -0.15874971D-01 -0.11224729D-01  0.24857633D-03  0.80651131D-02
  0.44408702D-02 -0.18780365D-04  0.39955057D-03  0.74562047D-03  0.12950535D-02
  0.20976993D-02  0.32403316D-02  0.46195795D-02  0.60085640D-02  0.64035095D-02
  0.47493499D-02 -0.14782963D-03 -0.43026636D-02 -0.42151252D-02  0.19687135D-02
 -0.26865765D-02 -0.10588241D-02 -0.26148499D-03  0.93245032D-06  0.12233240D-05
  0.13418000D-05  0.11040543D-05  0.58207927D-06  0.15142951D-06 -0.16757220D-09
 -0.11345012D-06 -0.14884038D-06 -0.16325521D-06 -0.13432897D-06 -0.70820891D-07
 -0.18424249D-07  0.20388310D-10  0.42640308D-02  0.55941762D-02  0.61359587D-02
  0.50487640D-02  0.26618083D-02  0.69247670D-03 -0.76629607D-06 -0.17473123D-06
 -0.22942317D-06 -0.25811654D-06 -0.21748270D-06 -0.12165677D-06 -0.30280123D-07
  0.13887923D-07  0.25549862D-07  0.33547124D-07  0.37742777D-07  0.31801143D-07
  0.17789114D-07  0.44276742D-08 -0.20307447D-08 -0.33124973D-02 -0.43493291D-02
 -0.48932885D-02 -0.41229655D-02 -0.23063291D-02 -0.57404062D-03  0.26328269D-03
 -0.58367622D-07  0.81527751D-08 -0.17804378D-03 -0.12112297D-08  0.15402919D-09
 -0.46584681D-03  0.98019898D-10 -0.12586079D-10 -0.14272261D-04  0.40587919D-04
  0.40593959D-04 -0.81181878D-04  0.15893702D-07  0.23915052D-08 -0.48477948D-09
 -0.10263912D-03 -0.10269267D-03  0.20533179D-03 -0.14129456D-06 -0.31206219D-08
  0.12206106D-08  0.25862753D-04  0.25862154D-04 -0.51724907D-04 -0.15827553D-08
 -0.66035028D-10  0.14659423D-10 -0.35485675D-09  0.57021995D-10  0.53927333D-04
 -0.35392887D-09  0.62818292D-10 -0.80890319D-04  0.14184991D-08 -0.23388428D-09
 -0.80891679D-04 -0.36610795D-08 -0.73523429D-10  0.16040058D-10 -0.27101067D-04
 -0.71954076D-10  0.21226297D-11  0.40651583D-04  0.29252436D-09 -0.50242803D-10
  0.40651619D-04  0.89560835D-10
MO    3     MO 0.0        OCC NO =    2.0000000  ORB. ENERGY =   -7.944563
 -0.46917658D-03 -0.87709835D-03 -0.15158998D-02 -0.24518999D-02 -0.37059031D-02
 -0.51036367D-02 -0.59649681D-02 -0.51541824D-02 -0.24039290D-02 -0.32640163D-03
 -0.87402315D-06 -0.17144721D-05 -0.78272813D-07 -0.15271824D+00 -0.28520781D+00
 -0.49473708D+00 -0.80219906D+00 -0.12350768D+01 -0.17590268D+01 -0.22618801D+01
 -0.23743010D+01 -0.16787991D+01  0.37177708D-01  0.12062388D+01  0.66418783D+00
 -0.28088391D-02  0.24034812D-03  0.44852514D-03  0.77903449D-03  0.12618630D-02
  0.19492091D-02  0.27788904D-02  0.36144287D-02  0.38520067D-02  0.28569532D-02
 -0.88926346D-04 -0.25882508D-02 -0.25355925D-02  0.11842721D-02  0.41205949D-01
  0.13699066D-03 -0.31799194D-06  0.93207238D-04  0.12228282D-03  0.13412562D-03
  0.11036068D-03  0.58184335D-04  0.15136814D-04 -0.16750428D-07  0.11178833D-04
  0.14666020D-04  0.16086388D-04  0.13236135D-04  0.69783522D-05  0.18154374D-05
 -0.20089666D-08 -0.58185996D-01 -0.76336858D-01 -0.83729898D-01 -0.68894287D-01
 -0.36322431D-01 -0.94493797D-02  0.10456702D-04  0.70564541D-05  0.92651672D-05
  0.10423938D-04  0.87829557D-05  0.49130623D-05  0.12228512D-05 -0.56085848D-06
 -0.27080134D-05 -0.35556381D-05 -0.40003327D-05 -0.33705827D-05 -0.18854567D-05
 -0.46928634D-06  0.21523733D-06  0.59995222D-03  0.78774091D-03  0.88626164D-03
  0.74674244D-03  0.41771725D-03  0.10396897D-03 -0.47685181D-04  0.36611197D-05
 -0.64092506D-06 -0.85586312D-03  0.48976531D-07 -0.24099592D-07 -0.12084041D-04
 -0.38816691D-08  0.15864624D-08  0.39351618D-06 -0.44815833D-05 -0.37710755D-06
  0.48586909D-05  0.11272449D-04  0.78692593D-07  0.97369401D-08 -0.18733179D-03
 -0.24217794D-03  0.42950973D-03 -0.14816418D-03 -0.27889855D-06 -0.44306560D-06
  0.75630961D-06  0.46670391D-06 -0.12230135D-05 -0.79539108D-06 -0.19661772D-08
 -0.39052979D-10  0.54070331D-08 -0.55008064D-07 -0.55690505D-04 -0.20956879D-07
  0.21167416D-06  0.85144527D-04  0.47357798D-08 -0.46649969D-07  0.81926989D-04
 -0.85704184D-05  0.15732674D-08  0.12421528D-08  0.66194008D-05  0.13715033D-08
 -0.38704478D-08 -0.99496351D-05 -0.60913056D-08  0.14398953D-09 -0.99085675D-05
  0.10222702D-06 -0.16668916D-03 -0.31161571D-03 -0.53856923D-03 -0.87111156D-03
 -0.13166341D-02 -0.18132212D-02 -0.21192352D-02 -0.18311791D-02 -0.85406847D-03
 -0.11596405D-03 -0.31052315D-06 -0.60911804D-06 -0.27808783D-07 -0.51464183D-01
 -0.96111554D-01 -0.16672036D+00 -0.27033130D+00 -0.41620581D+00 -0.59277057D+00
 -0.76222600D+00 -0.80011049D+00 -0.56573481D+00  0.12528434D-01  0.40648777D+00
  0.22382320D+00 -0.94654452D-03  0.80050662D-04  0.14938638D-03  0.25946626D-03
  0.42027777D-03  0.64920615D-03  0.92554091D-03  0.12038264D-02  0.12829544D-02
  0.95154062D-03 -0.29617926D-04 -0.86204624D-03 -0.84450778D-03  0.39443522D-03
  0.14007140D-01 -0.33115379D-04 -0.70135207D-05  0.32826988D-04  0.43067221D-04
  0.47238177D-04  0.38868321D-04  0.20492147D-04  0.53310882D-05 -0.58993926D-08
  0.33018443D-05  0.43318399D-05  0.47513681D-05  0.39095010D-05  0.20611662D-05
  0.53621803D-06 -0.59337992D-09  0.17708173D-01  0.23232159D-01  0.25482138D-01
  0.20967107D-01  0.11054273D-01  0.28757994D-02 -0.31823653D-05  0.16442298D-05
  0.21588837D-05  0.24288898D-05  0.20465233D-05  0.11447964D-05  0.28493750D-06
 -0.13068607D-06 -0.76087221D-06 -0.99902984D-06 -0.11239759D-05 -0.94703470D-06
 -0.52975793D-06 -0.13185567D-06  0.60475364D-07  0.15115325D-02  0.19846514D-02
  0.22328666D-02  0.18813590D-02  0.10524058D-02  0.26194167D-03 -0.12013907D-03
  0.11640147D-05 -0.20150903D-06  0.52427792D-03  0.24894374D-07 -0.42028071D-08
 -0.21911879D-04 -0.10528478D-08  0.23962701D-09 -0.36765253D-06  0.26691339D-04
  0.27691180D-04 -0.54382518D-04  0.27362684D-05  0.62698161D-07 -0.20289499D-07
 -0.56278209D-04 -0.74077625D-04  0.13035583D-03 -0.47982887D-04 -0.76510576D-08
  0.17969792D-06  0.12850954D-06  0.86704487D-07 -0.21521403D-06 -0.11488637D-06
  0.91180431D-09  0.21470580D-08 -0.38085188D-08 -0.15258147D-07 -0.60437942D-04
 -0.12801921D-07  0.72198535D-07  0.90149559D-04  0.24227477D-07 -0.26424095D-07
  0.91164268D-04  0.26937444D-05 -0.56493975D-08  0.13257752D-08 -0.32599631D-05
 -0.55569404D-08 -0.20127474D-09  0.50090815D-05  0.22505133D-07 -0.37760508D-08
  0.47708079D-05 -0.65423719D-06
MO    4     MO 0.0        OCC NO =    2.0000000  ORB. ENERGY =   -7.944317
  0.14796767D-03  0.27661697D-03  0.47808048D-03  0.77327372D-03  0.11687580D-02
  0.16095715D-02  0.18812159D-02  0.16255125D-02  0.75814480D-03  0.10293969D-03
  0.27564711D-06  0.54070569D-06  0.24685473D-07  0.51492901D-01  0.96165186D-01
  0.16681340D+00  0.27048215D+00  0.41643807D+00  0.59310135D+00  0.76265134D+00
  0.80055697D+00  0.56605050D+00 -0.12535425D-01 -0.40671460D+00 -0.22394810D+00
  0.94707271D-03 -0.81883149D-04 -0.15280607D-03 -0.26540585D-03 -0.42989859D-03
 -0.66406751D-03 -0.94672802D-03 -0.12313839D-02 -0.13123233D-02 -0.97332290D-03
  0.30295928D-04  0.88177985D-03  0.86383991D-03 -0.40346447D-03 -0.13741968D-01
 -0.15316353D-03 -0.10070148D-04 -0.30246719D-04 -0.39682048D-04 -0.43525159D-04
 -0.35813190D-04 -0.18881422D-04 -0.49120536D-05  0.54356881D-08 -0.40366785D-05
 -0.52959024D-05 -0.58087978D-05 -0.47795709D-05 -0.25198843D-05 -0.65555479D-06
  0.72543821D-09  0.21875697D-01  0.28699723D-01  0.31479222D-01  0.25901602D-01
  0.13655837D-01  0.35526034D-02 -0.39313178D-05 -0.33472807D-05 -0.43950000D-05
 -0.49446713D-05 -0.41662594D-05 -0.23305471D-05 -0.58006843D-06  0.26604733D-06
  0.11268392D-05  0.14795468D-05  0.16645899D-05  0.14025428D-05  0.78456278D-06
  0.19527608D-06 -0.89563019D-07 -0.24235725D-02 -0.31821654D-02 -0.35801506D-02
 -0.30165476D-02 -0.16874144D-02 -0.41999402D-03  0.19262949D-03 -0.13431575D-05
  0.24533417D-06 -0.17632336D-04 -0.65006323D-08  0.13417289D-07  0.39528155D-04
  0.16635546D-08 -0.92505540D-09  0.22275078D-06  0.37805036D-04  0.35943957D-04
 -0.73748993D-04 -0.51127244D-05 -0.13972341D-06  0.18435503D-07  0.72171899D-04
  0.91501290D-04 -0.16367319D-03  0.52254353D-04  0.22176156D-06  0.11121361D-06
 -0.30287984D-06 -0.13509132D-06  0.43797115D-06  0.45980656D-06  0.46393476D-09
 -0.27481322D-08 -0.91941420D-08  0.22754891D-07  0.11897130D-03 -0.46408221D-09
 -0.70145176D-07 -0.17904242D-03  0.28046508D-07  0.18805026D-08 -0.17787148D-03
  0.31323258D-05 -0.83543667D-08  0.74295380D-09 -0.80408410D-06 -0.80942328D-08
  0.27173918D-08  0.10734352D-05  0.33157333D-07 -0.49462531D-08  0.13388171D-05
  0.73493857D-06 -0.46387694D-03 -0.86719098D-03 -0.14987768D-02 -0.24242042D-02
 -0.36640426D-02 -0.50459880D-02 -0.58975900D-02 -0.50959627D-02 -0.23767752D-02
 -0.32271472D-03 -0.86415051D-06 -0.16951061D-05 -0.77388673D-07 -0.15272649D+00
 -0.28522323D+00 -0.49476383D+00 -0.80224244D+00 -0.12351436D+01 -0.17591219D+01
 -0.22620024D+01 -0.23744294D+01 -0.16788898D+01  0.37179719D-01  0.12063041D+01
  0.66422375D+00 -0.28089910D-02  0.24064005D-03  0.44906994D-03  0.77998073D-03
  0.12633957D-02  0.19515766D-02  0.27822657D-02  0.36188189D-02  0.38566855D-02
  0.28604234D-02 -0.89034359D-04 -0.25913946D-02 -0.25386723D-02  0.11857105D-02
  0.41120715D-01  0.20518672D-03  0.63042787D-05  0.93945255D-04  0.12325106D-03
  0.13518763D-03  0.11123452D-03  0.58645039D-04  0.15256667D-04 -0.16883058D-07
  0.10580689D-04  0.13881288D-04  0.15225658D-04  0.12527912D-04  0.66049631D-05
  0.17182992D-05 -0.19014733D-08  0.59119310D-01  0.77561316D-01  0.85072942D-01
  0.69999364D-01  0.36905049D-01  0.96009495D-02 -0.10624429D-04  0.77264630D-05
  0.10144893D-04  0.11413689D-04  0.96168956D-05  0.53795566D-05  0.13389607D-05
 -0.61411189D-06 -0.28827306D-05 -0.37850428D-05 -0.42584283D-05 -0.35880478D-05
 -0.20071037D-05 -0.49956401D-06  0.22912413D-06 -0.19932035D-02 -0.26170883D-02
 -0.29444008D-02 -0.24808803D-02 -0.13877696D-02 -0.34541304D-03  0.15842306D-03
  0.37739492D-05 -0.68356487D-06  0.65551636D-03  0.43704573D-07 -0.27767399D-07
  0.34318661D-04 -0.41482830D-08  0.18512705D-08 -0.15127874D-06 -0.26724368D-04
 -0.22336751D-04  0.49061118D-04  0.12031738D-04 -0.14728081D-06  0.33150772D-08
 -0.19381204D-03 -0.24912227D-03  0.44293431D-03 -0.14923624D-03  0.35361923D-06
  0.42112769D-06  0.76390860D-06  0.43212339D-06 -0.11960320D-05 -0.90925672D-06
  0.18689364D-08 -0.16513924D-08  0.10142397D-07 -0.57649451D-07  0.11671267D-03
 -0.16058465D-07  0.21075372D-06 -0.17670123D-03 -0.14368725D-07 -0.37805367D-07
 -0.17343677D-03  0.87074841D-05  0.63003259D-08  0.55070156D-09 -0.57331657D-05
  0.59918154D-08 -0.47205040D-08  0.85367254D-05 -0.24892793D-07  0.30683993D-08
  0.86627717D-05  0.35787650D-06
MO    5     MO 0.0        OCC NO =    2.0000000  ORB. ENERGY =   -5.854233
  0.59971684D-05  0.11211358D-04  0.19376727D-04  0.31340986D-04  0.47370065D-04
  0.65236352D-04  0.76246171D-04  0.65882444D-04  0.30727807D-04  0.41721723D-05
  0.11172050D-07  0.21914943D-07  0.10005087D-08 -0.79202140D-03 -0.14791337D-02
 -0.25657863D-02 -0.41603337D-02 -0.64053074D-02 -0.91225965D-02 -0.11730475D-01
 -0.12313508D-01 -0.87065227D-02  0.19280959D-03  0.62557491D-02  0.34445852D-02
 -0.14567093D-04 -0.40530235D-04 -0.75635414D-04 -0.13136966D-03 -0.21278970D-03
 -0.32869782D-03 -0.46860812D-03 -0.60950610D-03 -0.64956920D-03 -0.48177197D-03
  0.14995772D-04  0.43646031D-03  0.42758046D-03 -0.19970543D-03  0.84941880D-04
 -0.28165908D-03 -0.48296077D-04  0.20559455D-02  0.26972885D-02  0.29585144D-02
  0.24343125D-02  0.12834177D-02  0.33388463D-03 -0.36947738D-06 -0.58220068D-02
 -0.76381559D-02 -0.83778928D-02 -0.68934630D-02 -0.36343700D-02 -0.94549130D-03
  0.10462825D-05  0.76114581D+01  0.99858186D+01  0.10952921D+02  0.90122369D+01
  0.47514296D+01  0.12360974D+01 -0.13678678D-02 -0.22366425D-05 -0.29367252D-05
 -0.33040139D-05 -0.27838815D-05 -0.15572643D-05 -0.38759991D-06  0.17777200D-06
  0.69985313D-05  0.91891142D-05  0.10338373D-04  0.87108609D-05  0.48727335D-05
  0.12128134D-05 -0.55625468D-06 -0.14234727D-01 -0.18690283D-01 -0.21027829D-01
 -0.17717536D-01 -0.99109410D-02 -0.24668130D-02  0.11313993D-02  0.16266463D-04
 -0.46346177D-04  0.60710174D-01  0.36369935D-07 -0.30165552D-07  0.68402348D-04
 -0.12922860D-08  0.18757427D-08  0.15141499D-05 -0.28499596D-04 -0.29058052D-04
  0.57557648D-04 -0.14852361D-05 -0.22885230D-06 -0.51949913D-08  0.59933737D-03
  0.59956795D-03 -0.11989053D-02  0.60827320D-06  0.29775417D-05  0.55182635D-06
  0.44618598D-07  0.85785877D-07 -0.13040448D-06  0.10933179D-06  0.12245571D-07
 -0.11035213D-08 -0.40109690D-08  0.10534693D-07  0.10901050D-03  0.21373246D-07
  0.12545053D-06 -0.15896758D-03 -0.93403386D-08 -0.15705460D-06 -0.16806393D-03
 -0.24338445D-04 -0.21411148D-08 -0.12047869D-08 -0.18287081D-04 -0.28052270D-08
 -0.51632986D-08  0.27184461D-04  0.92285716D-08  0.87776593D-08  0.27676783D-04
  0.13321924D-05 -0.91925561D-05 -0.17184950D-04 -0.29700958D-04 -0.48039967D-04
 -0.72609597D-04 -0.99995330D-04 -0.11687136D-03 -0.10098567D-03 -0.47100076D-04
 -0.63951728D-05 -0.17124697D-07 -0.33591577D-07 -0.15335958D-08 -0.59702507D-03
 -0.11149698D-02 -0.19340876D-02 -0.31360561D-02 -0.48283154D-02 -0.68766056D-02
 -0.88424222D-02 -0.92819120D-02 -0.65629696D-02  0.14533971D-03  0.47155785D-02
  0.25965255D-02 -0.10980662D-04 -0.55916306D-04 -0.10434810D-03 -0.18124016D-03
 -0.29356884D-03 -0.45347795D-03 -0.64650095D-03 -0.84088656D-03 -0.89615841D-03
 -0.66466205D-03  0.20688462D-04  0.60214919D-03  0.58989838D-03 -0.27551753D-03
 -0.82376887D-04  0.24408432D-03  0.88489556D-04  0.15087922D-02  0.19794533D-02
  0.21711585D-02  0.17864636D-02  0.94185896D-03  0.24502719D-03 -0.27114756D-06
 -0.43825298D-02 -0.57496405D-02 -0.63064793D-02 -0.51890711D-02 -0.27357809D-02
 -0.71172088D-03  0.78759172D-06 -0.60222569D+01 -0.79008731D+01 -0.86660536D+01
 -0.71305662D+01 -0.37593755D+01 -0.97801183D+00  0.10822698D-02 -0.12995585D-05
 -0.17063282D-05 -0.19197343D-05 -0.16175213D-05 -0.90481873D-06 -0.22520754D-06
  0.10329103D-06  0.53410171D-05  0.70127880D-05  0.78898593D-05  0.66478030D-05
  0.37186878D-05  0.92557382D-06 -0.42451275D-06  0.75665658D-02  0.99349470D-02
  0.11177485D-01  0.94178764D-02  0.52682280D-02  0.13112512D-02 -0.60140299D-03
  0.11968545D-04 -0.34900979D-04 -0.48466231D-01  0.20529989D-09 -0.26577678D-07
  0.14469108D-03 -0.39593164D-09  0.11955519D-08  0.43872690D-05 -0.87149179D-04
 -0.87525005D-04  0.17467418D-03 -0.99685107D-06  0.13478535D-06 -0.56216750D-08
  0.47836215D-03  0.47835463D-03 -0.95671678D-03 -0.28230854D-07 -0.23635895D-05
 -0.39839164D-06 -0.70255164D-05 -0.69747471D-05  0.14000264D-04  0.13613177D-06
 -0.18752126D-07 -0.27933632D-09 -0.47295482D-08  0.42483377D-08  0.51181334D-05
  0.13712709D-07  0.92956354D-07 -0.11091937D-04  0.47593595D-09 -0.10570137D-06
 -0.42624628D-05  0.18259168D-04  0.22071267D-08 -0.22488194D-09  0.22783497D-04
  0.18146596D-08 -0.35655252D-08 -0.34028950D-04 -0.84360398D-08  0.42401710D-08
 -0.34321541D-04 -0.79060213D-06
MO    6     MO 0.0        OCC NO =    2.0000000  ORB. ENERGY =   -5.853429
  0.61139636D-04  0.11429700D-03  0.19754090D-03  0.31951353D-03  0.48292600D-03
  0.66506834D-03  0.77731070D-03  0.67165509D-03  0.31326233D-03  0.42534256D-04
  0.11389626D-06  0.22341738D-06  0.10199936D-07 -0.72714964D-03 -0.13579829D-02
 -0.23556315D-02 -0.38195751D-02 -0.58806706D-02 -0.83753959D-02 -0.10769672D-01
 -0.11304951D-01 -0.79934013D-02  0.17701722D-03  0.57433621D-02  0.31624511D-02
 -0.13373952D-04  0.69698525D-04  0.13006776D-03  0.22591213D-03  0.36592752D-03
  0.56525093D-03  0.80585013D-03  0.10481478D-02  0.11170430D-02  0.82848757D-03
 -0.25787742D-04 -0.75056658D-03 -0.73529619D-03  0.34342693D-03  0.73049591D-03
 -0.22441758D-02 -0.58971710D-03  0.23868938D-02  0.31314748D-02  0.34347505D-02
  0.28261671D-02  0.14900112D-02  0.38763049D-03 -0.42895266D-06 -0.58125899D-02
 -0.76258014D-02 -0.83643418D-02 -0.68823130D-02 -0.36284915D-02 -0.94396200D-03
  0.10445902D-05  0.60479174D+01  0.79345383D+01  0.87029791D+01  0.71609492D+01
  0.37753940D+01  0.98217908D+00 -0.10868813D-02 -0.41717539D-05 -0.54775383D-05
 -0.61625999D-05 -0.51924563D-05 -0.29045873D-05 -0.72294586D-06  0.33157781D-06
  0.66880564D-05  0.87814587D-05  0.98797332D-05  0.83244222D-05  0.46565651D-05
  0.11590096D-05 -0.53157763D-06 -0.27251598D-01 -0.35781514D-01 -0.40256616D-01
 -0.33919243D-01 -0.18973949D-01 -0.47225773D-02  0.21660015D-02  0.18763333D-04
 -0.46224794D-04  0.46408054D-01  0.16565106D-06 -0.20205474D-07  0.91701362D-03
 -0.41813557D-08  0.30565874D-08  0.25522940D-04  0.25809694D-03  0.25743431D-03