 Molden2AIM, Version 4.0.0 (06/02/2016)           Time: Fri Jun 29 23:00:04 2018
GAUSSIAN              7 MOL ORBITALS    158 PRIMITIVES        2 NUCLEI
  Al   1    (CENTRE  1)   0.00000000  0.00000000 -0.01387626  CHARGE = 13.0
  H    2    (CENTRE  2)   0.00000000  0.00000000  3.13186956  CHARGE =  1.0
CENTRE ASSIGNMENTS    1  1  1  1  1  1  1  1  1  1  1  1  1  1  1  1  1  1  1  1
CENTRE ASSIGNMENTS    1  1  1  1  1  1  1  1  1  1  1  1  1  1  1  1  1  1  1  1
CENTRE ASSIGNMENTS    1  1  1  1  1  1  1  1  1  1  1  1  1  1  1  1  1  1  1  1
CENTRE ASSIGNMENTS    1  1  1  1  1  1  1  1  1  1  1  1  1  1  1  1  1  1  1  1
CENTRE ASSIGNMENTS    1  1  1  1  1  1  1  1  1  1  1  1  1  1  1  1  1  1  1  1
CENTRE ASSIGNMENTS    1  1  1  1  1  1  1  1  1  1  1  1  1  1  1  1  1  1  1  1
CENTRE ASSIGNMENTS    1  1  1  1  1  1  1  1  1  1  1  2  2  2  2  2  2  2  2  2
CENTRE ASSIGNMENTS    2  2  2  2  2  2  2  2  2  2  2  2  2  2  2  2  2  2
TYPE ASSIGNMENTS      1  1  1  1  1  1  1  1  1  1  1  1  1  1  1  1  1  1  1  1
TYPE ASSIGNMENTS      1  1  1  1  1  1  1  1  1  1  1  1  1  1  1  1  1  1  1  1
TYPE ASSIGNMENTS      1  1  2  2  2  2  2  2  2  3  3  3  3  3  3  3  4  4  4  4
TYPE ASSIGNMENTS      4  4  4  2  2  2  2  2  2  2  3  3  3  3  3  3  3  4  4  4
TYPE ASSIGNMENTS      4  4  4  4  2  3  4  2  3  4  2  3  4  5  6  7  8  9 10  5
TYPE ASSIGNMENTS      6  7  8  9 10  5  6  7  8  9 10 11 12 13 17 14 15 18 19 16
TYPE ASSIGNMENTS     20 11 12 13 17 14 15 18 19 16 20  1  1  1  1  1  1  2  3  4
TYPE ASSIGNMENTS      2  3  4  2  3  4  5  6  7  8  9 10  5  6  7  8  9 10
EXPONENTS  0.2055000D+06 0.3078000D+05 0.7006000D+04 0.1985000D+04 0.6491000D+03
EXPONENTS  0.2350000D+03 0.9162000D+02 0.3767000D+02 0.1591000D+02 0.5850000D+01
EXPONENTS  0.2542000D+01 0.1057000D+01 0.1455000D+00 0.2055000D+06 0.3078000D+05
EXPONENTS  0.7006000D+04 0.1985000D+04 0.6491000D+03 0.2350000D+03 0.9162000D+02
EXPONENTS  0.3767000D+02 0.1591000D+02 0.5850000D+01 0.2542000D+01 0.1057000D+01
EXPONENTS  0.1455000D+00 0.2055000D+06 0.3078000D+05 0.7006000D+04 0.1985000D+04
EXPONENTS  0.6491000D+03 0.2350000D+03 0.9162000D+02 0.3767000D+02 0.1591000D+02
EXPONENTS  0.5850000D+01 0.2542000D+01 0.1057000D+01 0.1455000D+00 0.2931000D+00
EXPONENTS  0.5650000D-01 0.2210000D-01 0.4444000D+03 0.1051000D+03 0.3347000D+02
EXPONENTS  0.1233000D+02 0.4869000D+01 0.1961000D+01 0.1888000D+00 0.4444000D+03
EXPONENTS  0.1051000D+03 0.3347000D+02 0.1233000D+02 0.4869000D+01 0.1961000D+01
EXPONENTS  0.1888000D+00 0.4444000D+03 0.1051000D+03 0.3347000D+02 0.1233000D+02
EXPONENTS  0.4869000D+01 0.1961000D+01 0.1888000D+00 0.4444000D+03 0.1051000D+03
EXPONENTS  0.3347000D+02 0.1233000D+02 0.4869000D+01 0.1961000D+01 0.1888000D+00
EXPONENTS  0.4444000D+03 0.1051000D+03 0.3347000D+02 0.1233000D+02 0.4869000D+01
EXPONENTS  0.1961000D+01 0.1888000D+00 0.4444000D+03 0.1051000D+03 0.3347000D+02
EXPONENTS  0.1233000D+02 0.4869000D+01 0.1961000D+01 0.1888000D+00 0.7834000D+00
EXPONENTS  0.7834000D+00 0.7834000D+00 0.5557000D-01 0.5557000D-01 0.5557000D-01
EXPONENTS  0.1460000D-01 0.1460000D-01 0.1460000D-01 0.1090000D+00 0.1090000D+00
EXPONENTS  0.1090000D+00 0.1090000D+00 0.1090000D+00 0.1090000D+00 0.3330000D+00
EXPONENTS  0.3330000D+00 0.3330000D+00 0.3330000D+00 0.3330000D+00 0.3330000D+00
EXPONENTS  0.3560000D-01 0.3560000D-01 0.3560000D-01 0.3560000D-01 0.3560000D-01
EXPONENTS  0.3560000D-01 0.2440000D+00 0.2440000D+00 0.2440000D+00 0.2440000D+00
EXPONENTS  0.2440000D+00 0.2440000D+00 0.2440000D+00 0.2440000D+00 0.2440000D+00
EXPONENTS  0.2440000D+00 0.8580000D-01 0.8580000D-01 0.8580000D-01 0.8580000D-01
EXPONENTS  0.8580000D-01 0.8580000D-01 0.8580000D-01 0.8580000D-01 0.8580000D-01
EXPONENTS  0.8580000D-01 0.3387000D+02 0.5095000D+01 0.1159000D+01 0.3258000D+00
EXPONENTS  0.1027000D+00 0.2526000D-01 0.1407000D+01 0.1407000D+01 0.1407000D+01
EXPONENTS  0.3880000D+00 0.3880000D+00 0.3880000D+00 0.1020000D+00 0.1020000D+00
EXPONENTS  0.1020000D+00 0.1057000D+01 0.1057000D+01 0.1057000D+01 0.1057000D+01
EXPONENTS  0.1057000D+01 0.1057000D+01 0.2470000D+00 0.2470000D+00 0.2470000D+00
EXPONENTS  0.2470000D+00 0.2470000D+00 0.2470000D+00
MO    1     MO 0.0        OCC NO =    2.0000000  ORB. ENERGY =  -55.781524
  0.46737153D+00  0.87382278D+00  0.15087577D+01  0.24337632D+01  0.36526696D+01
  0.49253635D+01  0.55110414D+01  0.42993573D+01  0.16172288D+01  0.11929116D+00
 -0.70343285D-02  0.19427014D-02  0.12134276D-03 -0.84005719D-03 -0.15732501D-02
 -0.27166592D-02 -0.44193207D-02 -0.67275194D-02 -0.95176663D-02 -0.11736826D-01
 -0.11764790D-01 -0.66189767D-02  0.23551289D-02  0.55780809D-02  0.22460061D-02
 -0.13318326D-04  0.37310492D-03  0.69816397D-03  0.12072738D-02  0.19615162D-02
  0.29963764D-02  0.42414511D-02  0.52908606D-02  0.53793735D-02  0.31715544D-02
 -0.12650907D-02 -0.33460996D-02 -0.27326017D-02  0.14595705D-02 -0.14109803D-02
  0.31778848D-04  0.12577564D-03 -0.11409393D-17 -0.15106495D-17 -0.16933273D-17
 -0.14910397D-17 -0.89551960D-18 -0.32558777D-18 -0.41745426D-21  0.69051076D-17
  0.91426400D-17  0.10248229D-16  0.90239591D-17  0.54197967D-17  0.19704979D-17
  0.25264854D-20  0.61621222D-02  0.81588974D-02  0.91455256D-02  0.80529865D-02
  0.48366298D-02  0.17584735D-02  0.22546371D-05 -0.10623042D-18 -0.14825827D-18
 -0.15904834D-18 -0.15304500D-18 -0.84305453D-19 -0.41022093D-19  0.11392129D-19
 -0.91102533D-18 -0.12714536D-17 -0.13639885D-17 -0.13125042D-17 -0.72299823D-18
 -0.35180287D-18  0.97698177D-19 -0.49587913D-02 -0.69206339D-02 -0.74243096D-02
 -0.71440764D-02 -0.39353432D-02 -0.19148941D-02  0.53177980D-03  0.45254022D-19
 -0.75894840D-18 -0.25345333D-03  0.14471845D-20  0.18608698D-20  0.89881947D-04
  0.29587832D-23  0.25588498D-21  0.40879637D-05 -0.14576657D-04 -0.14576657D-04
  0.29153314D-04 -0.71701225D-22  0.38187490D-20  0.16850722D-19 -0.90775488D-04
 -0.90775488D-04  0.18155098D-03  0.87083078D-21  0.45029388D-20  0.25141112D-19
 -0.52913050D-06 -0.52913050D-06  0.10582610D-05  0.50068099D-23  0.83516328D-22
  0.34052410D-21 -0.74485913D-21 -0.37572683D-20  0.26215507D-04 -0.81553267D-21
 -0.38731160D-20 -0.39323261D-04  0.30501101D-20  0.15144921D-19 -0.39323261D-04
 -0.84455704D-22 -0.92178313D-22 -0.39750170D-21 -0.89899006D-06 -0.87293854D-22
 -0.39420338D-21  0.13484851D-05  0.36382879D-21  0.15867085D-20  0.13484851D-05
  0.62748234D-23  0.28687680D-04  0.51739413D-04  0.76289734D-04 -0.23109163D-03
 -0.78446533D-03 -0.14008377D-03  0.10662550D-19  0.49707109D-19 -0.43186170D-03
 -0.80008679D-20 -0.45675355D-19  0.55271887D-03 -0.85435884D-20 -0.36689490D-19
  0.24898341D-03 -0.24801484D-04 -0.24801484D-04  0.49602968D-04  0.40537817D-21
 -0.18557244D-19 -0.64846722D-19  0.57255859D-04  0.57255859D-04 -0.11451172D-03
 -0.28236974D-22  0.12840987D-19  0.54701107D-19
MO    2     MO 0.0        OCC NO =    2.0000000  ORB. ENERGY =   -4.106398
 -0.57760468D-03 -0.10799206D-02 -0.18646098D-02 -0.30077849D-02 -0.45141797D-02
 -0.60870481D-02 -0.68108626D-02 -0.53133936D-02 -0.19986646D-02 -0.14742689D-03
  0.86934287D-05 -0.24009023D-05 -0.14996237D-06 -0.12072832D+00 -0.22609870D+00
 -0.39042305D+00 -0.63512002D+00 -0.96684142D+00 -0.13678257D+01 -0.16867509D+01
 -0.16907698D+01 -0.95124228D+00  0.33846594D+00  0.80165056D+00  0.32278342D+00
 -0.19140353D-02  0.83563551D-04  0.15636637D-03  0.27039066D-03  0.43931679D-03
  0.67109233D-03  0.94994919D-03  0.11849833D-02  0.12048074D-02  0.71032659D-03
 -0.28333981D-03 -0.74941914D-03 -0.61201525D-03  0.32689704D-03  0.13055541D-01
  0.30067545D-03  0.67500039D-04  0.10664059D-15  0.14119643D-15  0.15827084D-15
  0.13936356D-15  0.83701857D-16  0.30431831D-16  0.39018350D-19  0.21408137D-15
  0.28345234D-15  0.31772928D-15  0.27977283D-15  0.16803178D-15  0.61092009D-16
  0.78329476D-19  0.25471815D-01  0.33725707D-01  0.37804044D-01  0.33287912D-01
  0.19992746D-01  0.72688453D-02  0.93197925D-05 -0.12410526D-16 -0.17320493D-16
 -0.18581058D-16 -0.17879710D-16 -0.98491098D-17 -0.47924670D-17  0.13309024D-17
  0.25004131D-16  0.34896495D-16  0.37436221D-16  0.36023178D-16  0.19843512D-16
  0.96556317D-17 -0.26814380D-17 -0.73947560D-03 -0.10320337D-02 -0.11071440D-02
 -0.10653544D-02 -0.58685476D-03 -0.28555698D-03  0.79301218D-04  0.54929150D-17
  0.21662862D-16  0.16593849D-02  0.17287687D-18 -0.88457962D-19  0.71416350D-04
  0.89840210D-21 -0.45161478D-20  0.28288242D-05 -0.12113630D-04 -0.12113630D-04
  0.24227260D-04 -0.20440063D-18  0.53157473D-18 -0.35591836D-18  0.13348169D-03
  0.13348169D-03 -0.26696338D-03  0.28618012D-17 -0.95619175D-18 -0.58649679D-17
 -0.20788681D-06 -0.20788681D-06  0.41577361D-06  0.10805560D-19  0.67371973D-20
 -0.12229888D-19 -0.78315865D-19  0.17185659D-18 -0.82051620D-05 -0.41881011D-19
  0.23512933D-18  0.12307743D-04  0.27682861D-18 -0.75069909D-18  0.12307743D-04
  0.55517510D-18 -0.11825029D-19  0.83275571D-20 -0.42699894D-06 -0.13323204D-19
  0.63804827D-20  0.64049841D-06  0.48798293D-19 -0.31363154D-19  0.64049841D-06
 -0.17682944D-19  0.15174278D-04  0.27367434D-04  0.40353266D-04  0.40144465D-03
 -0.58452077D-03 -0.10496732D-03  0.59553113D-18 -0.29988612D-17 -0.61798816D-03
 -0.45781570D-18  0.30660279D-17  0.25088772D-04 -0.10176702D-17  0.10284562D-17
  0.19066148D-03 -0.32183632D-03 -0.32183632D-03  0.64367264D-03 -0.17297233D-18
 -0.20950580D-17 -0.16946643D-17  0.61951214D-04  0.61951214D-04 -0.12390243D-03
 -0.97560834D-19  0.11027251D-17 -0.24644710D-17
MO    3     MO 0.0        OCC NO =    2.0000000  ORB. ENERGY =   -2.616326
  0.62701718D-16  0.11723048D-15  0.20241221D-15  0.32650927D-15  0.49003554D-15
  0.66077785D-15  0.73935133D-15  0.57679399D-15  0.21696449D-15  0.16003886D-16
 -0.94371278D-18  0.26062930D-18  0.16279125D-19 -0.11153566D-15 -0.20888279D-15
 -0.36069494D-15 -0.58675987D-15 -0.89322291D-15 -0.12636749D-14 -0.15583161D-14
 -0.15620289D-14 -0.87881153D-15  0.31269402D-15  0.74061022D-15  0.29820562D-15
 -0.17682943D-17  0.61094680D-16  0.11432201D-15  0.19768703D-15  0.32119170D-15
  0.49064659D-15  0.69452340D-15  0.86636070D-15  0.88085439D-15  0.51933140D-15
 -0.20715437D-15 -0.54791260D-15 -0.44745437D-15  0.23899978D-15 -0.28144408D-15
  0.11599200D-16 -0.16252285D-16  0.45588965D+01  0.60361623D+01  0.67660952D+01
  0.59578066D+01  0.35782632D+01  0.13009640D+01  0.16680386D-02 -0.13022638D+01
 -0.17242496D+01 -0.19327573D+01 -0.17018671D+01 -0.10221426D+01 -0.37162464D+00
 -0.47648070D-03  0.50632379D-13  0.67039305D-13  0.75146144D-13  0.66169065D-13
  0.39741191D-13  0.14448869D-13  0.18525702D-16 -0.19193083D-01 -0.26786428D-01
 -0.28735913D-01 -0.27651266D-01 -0.15231811D-01 -0.74116292D-02  0.20582625D-02
  0.54825674D-02  0.76516312D-02  0.82085081D-02  0.78986750D-02  0.43510168D-02
  0.21171563D-02 -0.58794945D-03 -0.20991561D-14 -0.29296435D-14 -0.31428596D-14
 -0.30242312D-14 -0.16659099D-14 -0.81061318D-15  0.22511308D-15  0.19167586D+00
 -0.54752840D-01  0.18692162D-14 -0.67316924D-04  0.19229301D-04  0.33939560D-17
  0.85796450D-05 -0.24508038D-05 -0.16882562D-17 -0.11578688D-16 -0.73016511D-17
  0.18880339D-16 -0.88974136D-17  0.21004915D-03 -0.60001231D-04 -0.84519581D-16
 -0.86483519D-16  0.17100310D-15 -0.13644935D-17  0.49608497D-03 -0.14170830D-03
 -0.64562012D-19 -0.12537078D-18  0.18993280D-18  0.60443569D-19  0.73352226D-05
 -0.20953305D-05 -0.36864457D-04  0.10530454D-04  0.30003018D-16 -0.36863650D-04
  0.10530223D-04 -0.49461675D-16  0.14745702D-03 -0.42121583D-04 -0.40547379D-16
  0.13740441D-17 -0.66750708D-05  0.19067559D-05  0.75166610D-18 -0.66751007D-05
  0.19067645D-05 -0.71850769D-18  0.26700313D-04 -0.76270323D-05 -0.15364906D-17
 -0.30699518D-18  0.61616873D-16  0.11112857D-15  0.16385901D-15 -0.43478660D-15
 -0.94736263D-16  0.37848336D-16  0.57616041D-03 -0.16458212D-03 -0.13742990D-15
 -0.47550190D-03  0.13582868D-03  0.48756904D-15 -0.54755843D-03  0.15641187D-03
 -0.50807369D-16  0.23896047D-15 -0.90915104D-16 -0.14804536D-15 -0.24200228D-15
 -0.12043924D-02  0.34403866D-03 -0.19315478D-16 -0.45368773D-17  0.23852356D-16
  0.98524008D-17  0.72242791D-03 -0.20636391D-03
MO    4     MO 0.0        OCC NO =    2.0000000  ORB. ENERGY =   -2.616326
 -0.39409896D-17 -0.73682848D-17 -0.12722210D-16 -0.20522079D-16 -0.30800193D-16
 -0.41531855D-16 -0.46470432D-16 -0.36253219D-16 -0.13636864D-16 -0.10058919D-17
  0.59315158D-19 -0.16381327D-19 -0.10231914D-20 -0.33837940D-16 -0.63371333D-16
 -0.10942844D-15 -0.17801253D-15 -0.27098798D-15 -0.38337655D-15 -0.47276544D-15
 -0.47389187D-15 -0.26661582D-15  0.94865816D-16  0.22468800D-15  0.90470294D-16
 -0.53646911D-18  0.20109420D-16  0.37629289D-16  0.65069032D-16  0.10572081D-15
  0.16149718D-15  0.22860359D-15  0.28516413D-15  0.28993476D-15  0.17093883D-15
 -0.68185222D-16 -0.18034639D-15 -0.14728039D-15  0.78667194D-16  0.18247000D-15
 -0.11696976D-15  0.15526180D-17  0.13022638D+01  0.17242496D+01  0.19327573D+01
  0.17018671D+01  0.10221426D+01  0.37162464D+00  0.47648070D-03  0.45588965D+01
  0.60361623D+01  0.67660952D+01  0.59578066D+01  0.35782632D+01  0.13009640D+01
  0.16680386D-02 -0.26192730D-12 -0.34680228D-12 -0.38873992D-12 -0.34230043D-12
 -0.20558590D-12 -0.74745716D-13 -0.95835656D-16 -0.54825674D-02 -0.76516312D-02
 -0.82085081D-02 -0.78986750D-02 -0.43510168D-02 -0.21171563D-02  0.58794945D-03
 -0.19193083D-01 -0.26786428D-01 -0.28735913D-01 -0.27651266D-01 -0.15231811D-01
 -0.74116292D-02  0.20582625D-02 -0.72691414D-16 -0.10145026D-15 -0.10883369D-15
 -0.10472573D-15 -0.57688587D-16 -0.28070623D-16  0.77954129D-17  0.54752840D-01
  0.19167586D+00 -0.10634347D-13 -0.19229301D-04 -0.67316924D-04 -0.29078056D-16
  0.24508038D-05  0.85796450D-05  0.11836804D-17 -0.12027982D-17  0.17219425D-16
 -0.16016627D-16  0.70247824D-17  0.60001231D-04  0.21004915D-03  0.11950272D-15
 -0.25084243D-15  0.13133970D-15 -0.48640768D-16  0.14170830D-03  0.49608497D-03
  0.12068040D-17 -0.78958675D-18 -0.41721730D-18 -0.31007481D-18  0.20953305D-05
  0.73352226D-05 -0.10530454D-04 -0.36864457D-04  0.12663425D-16 -0.10530223D-04
 -0.36863650D-04  0.29807395D-15  0.42121583D-04  0.14745702D-03 -0.33606423D-15
  0.57442931D-17 -0.19067559D-05 -0.66750708D-05 -0.79963645D-18 -0.19067645D-05
 -0.66751007D-05 -0.84112090D-17  0.76270323D-05  0.26700313D-04  0.10810118D-16
  0.31099583D-18  0.65351976D-17  0.11786498D-16  0.17379184D-16 -0.26737758D-15
  0.17139173D-15 -0.37203663D-17  0.16458212D-03  0.57616041D-03 -0.52150616D-15
 -0.13582868D-03 -0.47550190D-03  0.30973727D-15 -0.15641187D-03 -0.54755843D-03
 -0.38734319D-17  0.41548140D-15  0.22905610D-15 -0.64453749D-15  0.17888783D-16
 -0.34403866D-03 -0.12043924D-02 -0.13517102D-15  0.15480415D-15 -0.19633131D-16
 -0.15239603D-16  0.20636391D-03  0.72242791D-03
MO    5     MO 0.0        OCC NO =    2.0000000  ORB. ENERGY =   -2.606286
  0.28649704D-03  0.53565017D-03  0.92486297D-03  0.14918879D-02  0.22390731D-02
  0.30192298D-02  0.33782482D-02  0.26354903D-02  0.99135534D-03  0.73125046D-04
 -0.43120177D-05  0.11908688D-05  0.74382666D-07  0.50235131D-04  0.94079816D-04
  0.16245528D-03  0.26427385D-03  0.40230334D-03  0.56915317D-03  0.70185814D-03
  0.70353040D-03  0.39581253D-03 -0.14083590D-03 -0.33356732D-03 -0.13431039D-03
  0.79643133D-06  0.36175340D-03  0.67692270D-03  0.11705431D-02  0.19018381D-02
  0.29052132D-02  0.41124072D-02  0.51298890D-02  0.52157089D-02  0.30750615D-02
 -0.12266010D-02 -0.32442963D-02 -0.26494637D-02  0.14151638D-02 -0.58988828D-03
  0.23556115D-02  0.10298128D-03  0.27505395D-13  0.36418249D-13  0.40822186D-13
  0.35945502D-13  0.21588896D-13  0.78491643D-14  0.10063852D-16  0.26394301D-12
  0.34947115D-12  0.39173153D-12  0.34493465D-12  0.20716801D-12  0.75320933D-13
  0.96573174D-16  0.47694295D+01  0.63149163D+01  0.70785580D+01  0.62329422D+01
  0.37435098D+01  0.13610434D+01  0.17450697D-02 -0.16805419D-15 -0.23454134D-15
 -0.25161099D-15 -0.24211384D-15 -0.13336938D-15 -0.64896054D-16  0.18022099D-16
 -0.11026826D-14 -0.15389361D-14 -0.16509380D-14 -0.15886228D-14 -0.87509924D-15
 -0.42581353D-15  0.11825147D-15 -0.34597382D-01 -0.48285116D-01 -0.51799251D-01
 -0.49844070D-01 -0.27456806D-01 -0.13360175D-01  0.37102164D-02  0.10498644D-14
  0.11122418D-13  0.19470183D+00 -0.36741855D-18 -0.41068842D-17  0.54206622D-03
  0.47637647D-19  0.50822622D-18  0.78195770D-05 -0.17266472D-03 -0.17266472D-03
  0.34532945D-03 -0.12029729D-18  0.10748069D-17  0.11444299D-16 -0.18761209D-03
 -0.18761209D-03  0.37522417D-03  0.23068715D-17  0.54224408D-17  0.31590974D-16
 -0.40308062D-05 -0.40308062D-05  0.80616124D-05  0.62497724D-20  0.46412892D-19
  0.41307953D-18 -0.47191450D-20 -0.26078107D-17  0.92584573D-04 -0.71731827D-18
 -0.58974313D-18 -0.13887686D-03  0.73147571D-18  0.84131752D-17 -0.13887686D-03
  0.65736218D-18 -0.45297799D-19 -0.34460842D-18  0.13883803D-04 -0.17294267D-19
 -0.42398994D-18 -0.20825705D-04  0.15318766D-18  0.14578152D-17 -0.20825705D-04
 -0.27661992D-19  0.40052351D-03  0.72236064D-03  0.10651203D-02 -0.10253459D-02
 -0.48499857D-02 -0.35089761D-03  0.46974535D-17  0.31592568D-16 -0.27496854D-02
 -0.31157123D-17 -0.26213386D-16  0.14881424D-02 -0.30971259D-17 -0.30315885D-16
  0.77472913D-03 -0.45512544D-04 -0.45512544D-04  0.91025088D-04  0.26612652D-18
 -0.59405727D-17 -0.69857259D-16 -0.21987426D-04 -0.21987426D-04  0.43974851D-04
 -0.97109073D-19  0.43536873D-17  0.40414126D-16
MO    6     MO 0.0        OCC NO =    2.0000000  ORB. ENERGY =   -0.337253
 -0.24079114D-02 -0.45019599D-02 -0.77731629D-02 -0.12538818D-01 -0.18818658D-01
 -0.25375613D-01 -0.28393042D-01 -0.22150411D-01 -0.83320090D-02 -0.61459147D-03
  0.36241061D-04 -0.10008853D-04 -0.62516135D-06  0.60040310D-02  0.11244285D-01
  0.19416423D-01  0.31585633D-01  0.48082721D-01  0.68024373D-01  0.83885081D-01
  0.84084948D-01  0.47306948D-01 -0.16832505D-01 -0.39867489D-01 -0.16052586D-01
  0.95188335D-04  0.20066029D-01  0.37548093D-01  0.64928628D-01  0.10549269D+00
  0.16114871D+00  0.22811031D+00  0.28454881D+00  0.28930914D+00  0.17056999D+00
 -0.68038093D-01 -0.17995724D+00 -0.14696259D+00  0.78497448D-01  0.31446042D-01
  0.97252182D-02 -0.39436678D-02  0.14904743D-15  0.19734478D-15  0.22120903D-15
  0.19478304D-15  0.11698684D-15  0.42533391D-16  0.54534436D-19  0.36288473D-15
  0.48047397D-15  0.53857608D-15  0.47423692D-15  0.28482705D-15  0.10355575D-15
  0.13277461D-18 -0.14902396D+00 -0.19731371D+00 -0.22117420D+00 -0.19475237D+00
 -0.11696842D+00 -0.42526694D-01 -0.54525849D-04 -0.12544595D-15 -0.17507603D-15
 -0.18781786D-15 -0.18072861D-15 -0.99555082D-16 -0.48442392D-16  0.13452799D-16
 -0.62259212D-15 -0.86890774D-15 -0.93214584D-15 -0.89696166D-15 -0.49409493D-15
 -0.24042108D-15  0.66766656D-16 -0.15891082D+00 -0.22178059D+00 -0.23792152D+00
 -0.22894109D+00 -0.12611312D+00 -0.61365236D-01  0.17041566D-01  0.12875816D-15
  0.22385608D-16  0.85203546D-02 -0.51531453D-18  0.38396589D-17 -0.26494020D-02
 -0.37540210D-19  0.87608826D-19 -0.13908619D-03  0.15409393D-04  0.15409393D-04
 -0.30818786D-04 -0.92682624D-18  0.76630058D-19  0.20429136D-17 -0.27260215D-02
 -0.27260215D-02  0.54520431D-02  0.22164637D-17 -0.24326311D-17 -0.63636825D-18
  0.45333389D-04  0.45333389D-04 -0.90666779D-04  0.42947082D-19 -0.22529487D-19
 -0.77938205D-20  0.11068077D-18 -0.19646382D-17  0.68693865D-03 -0.80537274D-18
  0.16797529D-17 -0.10304080D-02  0.47333042D-18  0.42141617D-17 -0.10304080D-02
  0.11772393D-17 -0.34498498D-19 -0.18418234D-19  0.26674372D-04  0.41960833D-20
 -0.12792409D-18 -0.40011557D-04  0.99299410D-19  0.18317880D-18 -0.40011557D-04
 -0.88123153D-19  0.34239623D-01  0.61752569D-01  0.91054127D-01  0.65161544D-01
  0.34856073D-01  0.44823639D-02  0.95176936D-18  0.33092949D-17 -0.15091606D-01
  0.16347202D-17  0.16137731D-16 -0.91407400D-02  0.21732054D-17  0.16590045D-17
 -0.36261407D-02 -0.40179735D-02 -0.40179735D-02  0.80359470D-02  0.38165675D-17
 -0.18091300D-17 -0.85422609D-17 -0.40330798D-03 -0.40330798D-03  0.80661597D-03
 -0.43413842D-18 -0.22437934D-17 -0.29670977D-17
MO    7     MO 0.0        OCC NO =    2.0000000  ORB. ENERGY =   -0.184736
 -0.72297313D-03 -0.13517092D-02 -0.23338848D-02 -0.37647681D-02 -0.56502842D-02
 -0.76190038D-02 -0.85249841D-02 -0.66506401D-02 -0.25016778D-02 -0.18453051D-03
  0.10881344D-04 -0.30051486D-05 -0.18770410D-06  0.10937620D-02  0.20483859D-02
  0.35371148D-02  0.57539954D-02  0.87592910D-02  0.12392088D-01  0.15281453D-01
  0.15317863D-01  0.86179675D-02 -0.30663991D-02 -0.72627118D-02 -0.29243203D-02
  0.17340581D-04  0.15863347D-01  0.29683922D-01  0.51329805D-01  0.83398020D-01
  0.12739730D+00  0.18033429D+00  0.22495216D+00  0.22871547D+00  0.13484536D+00
 -0.53788016D-01 -0.14226652D+00 -0.11618236D+00  0.62056736D-01  0.25629963D-01
  0.41729376D-01 -0.30931639D-02  0.60297512D-16  0.79836329D-16  0.89490669D-16
  0.78799971D-16  0.47327322D-16  0.17206991D-16  0.22062043D-19 -0.60063936D-15
 -0.79527065D-15 -0.89144007D-15 -0.78494722D-15 -0.47143989D-15 -0.17140336D-15
 -0.21976581D-18  0.17902267D+00  0.23703321D+00  0.26569685D+00  0.23395628D+00
  0.14051432D+00  0.51087372D-01  0.65501973D-04 -0.97852612D-15 -0.13656596D-14
 -0.14650507D-14 -0.14097519D-14 -0.77656748D-15 -0.37786908D-15  0.10493695D-15
  0.26724343D-15  0.37297273D-15  0.40011725D-15  0.38501469D-15  0.21208689D-15
  0.10319911D-15 -0.28659132D-16  0.50823604D+00  0.70930905D+00  0.76093174D+00
  0.73221010D+00  0.40334088D+00  0.19626117D+00 -0.54503132D-01 -0.10697706D-15
  0.41993577D-16 -0.20553766D-01  0.15161304D-16 -0.66052473D-17 -0.57422438D-02
 -0.19214328D-18 -0.51443013D-18 -0.11125744D-03  0.31552546D-03  0.31552546D-03
 -0.63105092D-03 -0.53781665D-18 -0.98070380D-17 -0.10622826D-16  0.64584111D-02
  0.64584111D-02 -0.12916822D-01 -0.60857866D-17 -0.21417984D-16 -0.57960693D-16
 -0.18360057D-05 -0.18360057D-05  0.36720114D-05  0.13589633D-19 -0.13171787D-18
 -0.99912246D-19 -0.24736188D-18  0.38456401D-17 -0.46974107D-03  0.68436222D-18
  0.29585117D-17  0.70461161D-03  0.57723431D-19 -0.14495432D-16  0.70461161D-03
  0.36056647D-17  0.14130413D-18  0.24654198D-19  0.79295039D-04  0.61959040D-19
  0.42529713D-19 -0.11894256D-03 -0.48587143D-18 -0.11649231D-18 -0.11894256D-03
  0.44175836D-19 -0.30988054D-01 -0.55888232D-01 -0.82407166D-01 -0.65281398D-01
 -0.47529151D-01  0.13519660D-02  0.35522351D-17 -0.18383052D-16  0.31589238D-02
  0.86895589D-17  0.12221676D-16  0.17092284D-02  0.68698832D-17  0.76299205D-17
  0.27000435D-02  0.31456880D-02  0.31456880D-02 -0.62913759D-02 -0.12239825D-17
 -0.19790098D-18  0.14172166D-16  0.55873891D-03  0.55873891D-03 -0.11174778D-02
 -0.11357172D-17 -0.15758093D-17 -0.27223045D-16
END DATA
RHF
