 Molden2AIM, Version 4.0.0 (06/02/2016)           Time: Fri Jun 29 23:03:24 2018
GAUSSIAN              3 MOL ORBITALS    102 PRIMITIVES        2 NUCLEI
  B    1    (CENTRE  1)   0.00000000  0.00000000  2.65025774  CHARGE =  5.0
  H    2    (CENTRE  2)   0.00000000  0.00000000  0.30508494  CHARGE =  1.0
CENTRE ASSIGNMENTS    1  1  1  1  1  1  1  1  1  1  1  1  1  1  1  1  1  1  1  1
CENTRE ASSIGNMENTS    1  1  1  1  1  1  1  1  1  1  1  1  1  1  1  1  1  1  1  1
CENTRE ASSIGNMENTS    1  1  1  1  1  1  1  1  1  1  1  1  1  1  1  1  1  1  1  1
CENTRE ASSIGNMENTS    1  1  1  1  1  1  1  1  1  1  1  1  1  1  1  2  2  2  2  2
CENTRE ASSIGNMENTS    2  2  2  2  2  2  2  2  2  2  2  2  2  2  2  2  2  2  2  2
CENTRE ASSIGNMENTS    2  2
TYPE ASSIGNMENTS      1  1  1  1  1  1  1  1  1  1  1  1  1  1  1  1  1  1  1  2
TYPE ASSIGNMENTS      2  2  3  3  3  4  4  4  2  3  4  2  3  4  2  3  4  5  6  7
TYPE ASSIGNMENTS      8  9 10  5  6  7  8  9 10  5  6  7  8  9 10 11 12 13 17 14
TYPE ASSIGNMENTS     15 18 19 16 20 11 12 13 17 14 15 18 19 16 20  1  1  1  1  1
TYPE ASSIGNMENTS      1  2  3  4  2  3  4  2  3  4  5  6  7  8  9 10  5  6  7  8
TYPE ASSIGNMENTS      9 10
EXPONENTS  0.5473000D+04 0.8209000D+03 0.1868000D+03 0.5283000D+02 0.1708000D+02
EXPONENTS  0.5999000D+01 0.2208000D+01 0.2415000D+00 0.5473000D+04 0.8209000D+03
EXPONENTS  0.1868000D+03 0.5283000D+02 0.1708000D+02 0.5999000D+01 0.2208000D+01
EXPONENTS  0.2415000D+00 0.5879000D+00 0.8610000D-01 0.2914000D-01 0.1205000D+02
EXPONENTS  0.2613000D+01 0.7475000D+00 0.1205000D+02 0.2613000D+01 0.7475000D+00
EXPONENTS  0.1205000D+02 0.2613000D+01 0.7475000D+00 0.2385000D+00 0.2385000D+00
EXPONENTS  0.2385000D+00 0.7698000D-01 0.7698000D-01 0.7698000D-01 0.2096000D-01
EXPONENTS  0.2096000D-01 0.2096000D-01 0.6610000D+00 0.6610000D+00 0.6610000D+00
EXPONENTS  0.6610000D+00 0.6610000D+00 0.6610000D+00 0.1990000D+00 0.1990000D+00
EXPONENTS  0.1990000D+00 0.1990000D+00 0.1990000D+00 0.1990000D+00 0.6040000D-01
EXPONENTS  0.6040000D-01 0.6040000D-01 0.6040000D-01 0.6040000D-01 0.6040000D-01
EXPONENTS  0.4900000D+00 0.4900000D+00 0.4900000D+00 0.4900000D+00 0.4900000D+00
EXPONENTS  0.4900000D+00 0.4900000D+00 0.4900000D+00 0.4900000D+00 0.4900000D+00
EXPONENTS  0.1630000D+00 0.1630000D+00 0.1630000D+00 0.1630000D+00 0.1630000D+00
EXPONENTS  0.1630000D+00 0.1630000D+00 0.1630000D+00 0.1630000D+00 0.1630000D+00
EXPONENTS  0.3387000D+02 0.5095000D+01 0.1159000D+01 0.3258000D+00 0.1027000D+00
EXPONENTS  0.2526000D-01 0.1407000D+01 0.1407000D+01 0.1407000D+01 0.3880000D+00
EXPONENTS  0.3880000D+00 0.3880000D+00 0.1020000D+00 0.1020000D+00 0.1020000D+00
EXPONENTS  0.1057000D+01 0.1057000D+01 0.1057000D+01 0.1057000D+01 0.1057000D+01
EXPONENTS  0.1057000D+01 0.2470000D+00 0.2470000D+00 0.2470000D+00 0.2470000D+00
EXPONENTS  0.2470000D+00 0.2470000D+00
MO    1     MO 0.0        OCC NO =    2.0000000  ORB. ENERGY =   -6.737668
  0.25342471D+00  0.47224036D+00  0.79585562D+00  0.11874101D+01  0.14382850D+01
  0.11967603D+01  0.44448300D+00 -0.23596668D-02 -0.17975310D-02 -0.33575826D-02
 -0.57146225D-02 -0.87398844D-02 -0.11366738D-01 -0.11505716D-01 -0.75759304D-02
  0.51785664D-02  0.19914305D-01  0.22691878D-02 -0.15778815D-03  0.20182741D-16
  0.18189803D-16  0.13206977D-16  0.63555035D-17  0.57279317D-17  0.41588498D-17
 -0.47072726D-02 -0.42424547D-02 -0.30802972D-02 -0.46628978D-17 -0.12860436D-17
 -0.41425508D-02  0.32175216D-19  0.10877424D-18 -0.30378737D-03 -0.19692329D-19
 -0.63260671D-20  0.10983901D-04 -0.26252891D-02 -0.26252891D-02  0.52505782D-02
  0.14115700D-17  0.91935850D-17  0.58799706D-17 -0.28451826D-03 -0.28451826D-03
  0.56903653D-03 -0.94129024D-19  0.79529994D-18  0.25395792D-20  0.30792477D-06
  0.30792477D-06 -0.61584955D-06  0.37746780D-20  0.55030912D-19  0.35017102D-20
  0.33350992D-18  0.23604837D-18 -0.93680642D-03  0.33710061D-18  0.26094259D-18
  0.14052096D-02 -0.13376304D-17 -0.96908770D-18  0.14052096D-02 -0.15194306D-19
  0.36850500D-19  0.15330614D-20 -0.10539781D-04  0.37037225D-19  0.64483914D-21
  0.15809671D-04 -0.14758872D-18 -0.52440232D-20  0.15809671D-04  0.52542130D-20
  0.34120575D-04  0.61537861D-04  0.90737541D-04 -0.65846488D-02 -0.24808439D-02
  0.72218836D-04  0.19947897D-18  0.27119289D-17 -0.37759158D-02  0.33842157D-17
  0.88347934D-18 -0.52359013D-02  0.70877567D-18  0.15163063D-19 -0.54772337D-03
  0.18221891D-02  0.18221891D-02 -0.36443782D-02 -0.13216353D-18  0.67139291D-17
  0.67764049D-17  0.16847426D-03  0.16847426D-03 -0.33694852D-03  0.20840946D-19
  0.13827957D-17  0.18557371D-18
MO    2     MO 0.0        OCC NO =    2.0000000  ORB. ENERGY =   -0.445274
 -0.29702544D-02 -0.55348746D-02 -0.93277945D-02 -0.13916993D-01 -0.16857363D-01
 -0.14026582D-01 -0.52095455D-02  0.27656382D-04 -0.37772328D-01 -0.70554392D-01
 -0.12008393D+00 -0.18365512D+00 -0.23885438D+00 -0.24177478D+00 -0.15919643D+00
  0.10881954D+00  0.39738717D-01  0.13794363D-01 -0.44757007D-02 -0.11024444D-16
 -0.99358394D-17 -0.72140638D-17  0.87092435D-16  0.78492524D-16  0.56990663D-16
 -0.14062359D+00 -0.12673776D+00 -0.92019834D-01  0.54133224D-16 -0.13940070D-17
 -0.35086692D-01  0.41834133D-17 -0.25763969D-17  0.12543842D-02  0.17135104D-18
  0.28790918D-18  0.19386938D-03 -0.81006626D-02 -0.81006626D-02  0.16201325D-01
  0.64916319D-18 -0.27823314D-16 -0.21618469D-16 -0.13031627D-02 -0.13031627D-02
  0.26063254D-02  0.35274298D-18 -0.43257252D-17 -0.21124638D-17  0.12075969D-04
  0.12075969D-04 -0.24151938D-04 -0.36504837D-20 -0.15203839D-18 -0.37087440D-18
 -0.20960819D-17 -0.16100733D-17 -0.12775780D-02 -0.20536901D-17 -0.93869478D-18
  0.19163670D-02  0.83419358D-17  0.57689147D-17  0.19163670D-02  0.12810552D-18
 -0.16007387D-18  0.24568291D-18 -0.37948587D-03 -0.23484498D-19  0.19014833D-18
  0.56922880D-03  0.50370611D-18 -0.92719706D-18  0.56922880D-03 -0.21432806D-18
  0.42657089D-01  0.76933817D-01  0.11343887D+00  0.57535909D-01  0.24717029D-01
  0.32876574D-02  0.31339570D-16  0.31875878D-16  0.27026324D-01  0.33570958D-16
  0.27109738D-16 -0.15485441D-02 -0.32069049D-18 -0.46403136D-17  0.38315581D-02
  0.97128939D-03  0.97128939D-03 -0.19425788D-02  0.30865532D-17  0.71292085D-16
  0.78701594D-16 -0.10564689D-03 -0.10564689D-03  0.21129378D-03 -0.10128753D-17
 -0.26490703D-19 -0.50006006D-17
MO    3     MO 0.0        OCC NO =    2.0000000  ORB. ENERGY =   -0.212297
 -0.51268840D-03 -0.95536127D-03 -0.16100480D-02 -0.24021784D-02 -0.29097085D-02
 -0.24210943D-02 -0.89920701D-03  0.47737009D-05 -0.29962038D-01 -0.55965664D-01
 -0.95253843D-01 -0.14568024D+00 -0.18946580D+00 -0.19178234D+00 -0.12627894D+00
  0.86318625D-01  0.34693972D-01  0.64844539D-01 -0.25311364D-02  0.18564543D-15
  0.16731394D-15  0.12148077D-15  0.59975577D-15  0.54053311D-15  0.39246209D-15
  0.29802688D+00  0.26859832D+00  0.19501980D+00  0.44845434D-16  0.35015261D-15
  0.66772093D-01 -0.12834645D-17  0.69062990D-16  0.53452786D-02 -0.53438259D-19
 -0.86606976D-18  0.28813147D-03  0.68764541D-02  0.68764541D-02 -0.13752908D-01
  0.26663059D-17  0.91360580D-16 -0.74940891D-17  0.13744855D-02  0.13744855D-02
 -0.27489710D-02 -0.39483235D-18  0.27983018D-16  0.13069242D-16 -0.19701281D-04
 -0.19701281D-04  0.39402561D-04  0.41700870D-19  0.13528880D-17  0.94975166D-18
  0.28172401D-17  0.35720681D-17 -0.62581489D-03  0.29124357D-17  0.45611549D-17
  0.93872234D-03 -0.11364156D-16 -0.15277359D-16  0.93872234D-03  0.21260614D-18
  0.32992783D-18  0.56873996D-18 -0.11294610D-03  0.39051693D-18  0.46871673D-18
  0.16941915D-03 -0.13803004D-17 -0.21749366D-17  0.16941915D-03 -0.23406849D-18
 -0.31698718D-01 -0.57169944D-01 -0.84297049D-01 -0.57276258D-01 -0.41202193D-01
  0.19605898D-02 -0.22383952D-16  0.49814294D-16 -0.19983186D-01 -0.34608857D-17
  0.46744418D-16  0.74416420D-02  0.37993427D-17  0.12229648D-16 -0.36398124D-02
 -0.21675134D-02 -0.21675134D-02  0.43350269D-02 -0.18121715D-17 -0.19912231D-16
  0.53240405D-16 -0.12461908D-03 -0.12461908D-03  0.24923817D-03  0.24513503D-18
  0.77379091D-17  0.87665554D-17
END DATA
RHF
