 Molden2AIM, Version 4.0.0 (06/02/2016)           Time: Fri Jun 29 23:00:13 2018
GAUSSIAN             11 MOL ORBITALS    206 PRIMITIVES        2 NUCLEI
  C    1    (CENTRE  1)   0.00000000  0.00000000 -0.03331965  CHARGE =  6.0
  Cl   2    (CENTRE  2)   0.00000000  0.00000000  2.86790884  CHARGE = 17.0
CENTRE ASSIGNMENTS    1  1  1  1  1  1  1  1  1  1  1  1  1  1  1  1  1  1  1  1
CENTRE ASSIGNMENTS    1  1  1  1  1  1  1  1  1  1  1  1  1  1  1  1  1  1  1  1
CENTRE ASSIGNMENTS    1  1  1  1  1  1  1  1  1  1  1  1  1  1  1  1  1  1  1  1
CENTRE ASSIGNMENTS    1  1  1  1  1  1  1  1  1  1  1  1  1  1  1  2  2  2  2  2
CENTRE ASSIGNMENTS    2  2  2  2  2  2  2  2  2  2  2  2  2  2  2  2  2  2  2  2
CENTRE ASSIGNMENTS    2  2  2  2  2  2  2  2  2  2  2  2  2  2  2  2  2  2  2  2
CENTRE ASSIGNMENTS    2  2  2  2  2  2  2  2  2  2  2  2  2  2  2  2  2  2  2  2
CENTRE ASSIGNMENTS    2  2  2  2  2  2  2  2  2  2  2  2  2  2  2  2  2  2  2  2
CENTRE ASSIGNMENTS    2  2  2  2  2  2  2  2  2  2  2  2  2  2  2  2  2  2  2  2
CENTRE ASSIGNMENTS    2  2  2  2  2  2  2  2  2  2  2  2  2  2  2  2  2  2  2  2
CENTRE ASSIGNMENTS    2  2  2  2  2  2
TYPE ASSIGNMENTS      1  1  1  1  1  1  1  1  1  1  1  1  1  1  1  1  1  1  1  2
TYPE ASSIGNMENTS      2  2  3  3  3  4  4  4  2  3  4  2  3  4  2  3  4  5  6  7
TYPE ASSIGNMENTS      8  9 10  5  6  7  8  9 10  5  6  7  8  9 10 11 12 13 17 14
TYPE ASSIGNMENTS     15 18 19 16 20 11 12 13 17 14 15 18 19 16 20  1  1  1  1  1
TYPE ASSIGNMENTS      1  1  1  1  1  1  1  1  1  1  1  1  1  1  1  1  1  1  1  1
TYPE ASSIGNMENTS      1  1  1  1  1  1  1  1  1  1  1  1  1  1  1  1  1  2  2  2
TYPE ASSIGNMENTS      2  2  2  2  3  3  3  3  3  3  3  4  4  4  4  4  4  4  2  2
TYPE ASSIGNMENTS      2  2  2  2  2  3  3  3  3  3  3  3  4  4  4  4  4  4  4  2
TYPE ASSIGNMENTS      3  4  2  3  4  2  3  4  5  6  7  8  9 10  5  6  7  8  9 10
TYPE ASSIGNMENTS      5  6  7  8  9 10 11 12 13 17 14 15 18 19 16 20 11 12 13 17
TYPE ASSIGNMENTS     14 15 18 19 16 20
EXPONENTS  0.8236000D+04 0.1235000D+04 0.2808000D+03 0.7927000D+02 0.2559000D+02
EXPONENTS  0.8997000D+01 0.3319000D+01 0.3643000D+00 0.8236000D+04 0.1235000D+04
EXPONENTS  0.2808000D+03 0.7927000D+02 0.2559000D+02 0.8997000D+01 0.3319000D+01
EXPONENTS  0.3643000D+00 0.9059000D+00 0.1285000D+00 0.4402000D-01 0.1871000D+02
EXPONENTS  0.4133000D+01 0.1200000D+01 0.1871000D+02 0.4133000D+01 0.1200000D+01
EXPONENTS  0.1871000D+02 0.4133000D+01 0.1200000D+01 0.3827000D+00 0.3827000D+00
EXPONENTS  0.3827000D+00 0.1209000D+00 0.1209000D+00 0.1209000D+00 0.3569000D-01
EXPONENTS  0.3569000D-01 0.3569000D-01 0.1097000D+01 0.1097000D+01 0.1097000D+01
EXPONENTS  0.1097000D+01 0.1097000D+01 0.1097000D+01 0.3180000D+00 0.3180000D+00
EXPONENTS  0.3180000D+00 0.3180000D+00 0.3180000D+00 0.3180000D+00 0.1000000D+00
EXPONENTS  0.1000000D+00 0.1000000D+00 0.1000000D+00 0.1000000D+00 0.1000000D+00
EXPONENTS  0.7610000D+00 0.7610000D+00 0.7610000D+00 0.7610000D+00 0.7610000D+00
EXPONENTS  0.7610000D+00 0.7610000D+00 0.7610000D+00 0.7610000D+00 0.7610000D+00
EXPONENTS  0.2680000D+00 0.2680000D+00 0.2680000D+00 0.2680000D+00 0.2680000D+00
EXPONENTS  0.2680000D+00 0.2680000D+00 0.2680000D+00 0.2680000D+00 0.2680000D+00
EXPONENTS  0.4561000D+06 0.6833000D+05 0.1555000D+05 0.4405000D+04 0.1439000D+04
EXPONENTS  0.5204000D+03 0.2031000D+03 0.8396000D+02 0.3620000D+02 0.1583000D+02
EXPONENTS  0.6334000D+01 0.2694000D+01 0.4313000D+00 0.4561000D+06 0.6833000D+05
EXPONENTS  0.1555000D+05 0.4405000D+04 0.1439000D+04 0.5204000D+03 0.2031000D+03
EXPONENTS  0.8396000D+02 0.3620000D+02 0.1583000D+02 0.6334000D+01 0.2694000D+01
EXPONENTS  0.4313000D+00 0.4561000D+06 0.6833000D+05 0.1555000D+05 0.4405000D+04
EXPONENTS  0.1439000D+04 0.5204000D+03 0.2031000D+03 0.8396000D+02 0.3620000D+02
EXPONENTS  0.1583000D+02 0.6334000D+01 0.2694000D+01 0.4313000D+00 0.9768000D+00
EXPONENTS  0.1625000D+00 0.5910000D-01 0.6633000D+03 0.1568000D+03 0.4998000D+02
EXPONENTS  0.1842000D+02 0.7240000D+01 0.2922000D+01 0.3818000D+00 0.6633000D+03
EXPONENTS  0.1568000D+03 0.4998000D+02 0.1842000D+02 0.7240000D+01 0.2922000D+01
EXPONENTS  0.3818000D+00 0.6633000D+03 0.1568000D+03 0.4998000D+02 0.1842000D+02
EXPONENTS  0.7240000D+01 0.2922000D+01 0.3818000D+00 0.6633000D+03 0.1568000D+03
EXPONENTS  0.4998000D+02 0.1842000D+02 0.7240000D+01 0.2922000D+01 0.3818000D+00
EXPONENTS  0.6633000D+03 0.1568000D+03 0.4998000D+02 0.1842000D+02 0.7240000D+01
EXPONENTS  0.2922000D+01 0.3818000D+00 0.6633000D+03 0.1568000D+03 0.4998000D+02
EXPONENTS  0.1842000D+02 0.7240000D+01 0.2922000D+01 0.3818000D+00 0.1022000D+01
EXPONENTS  0.1022000D+01 0.1022000D+01 0.1301000D+00 0.1301000D+00 0.1301000D+00
EXPONENTS  0.4190000D-01 0.4190000D-01 0.4190000D-01 0.1046000D+01 0.1046000D+01
EXPONENTS  0.1046000D+01 0.1046000D+01 0.1046000D+01 0.1046000D+01 0.3440000D+00
EXPONENTS  0.3440000D+00 0.3440000D+00 0.3440000D+00 0.3440000D+00 0.3440000D+00
EXPONENTS  0.1350000D+00 0.1350000D+00 0.1350000D+00 0.1350000D+00 0.1350000D+00
EXPONENTS  0.1350000D+00 0.7060000D+00 0.7060000D+00 0.7060000D+00 0.7060000D+00
EXPONENTS  0.7060000D+00 0.7060000D+00 0.7060000D+00 0.7060000D+00 0.7060000D+00
EXPONENTS  0.7060000D+00 0.3120000D+00 0.3120000D+00 0.3120000D+00 0.3120000D+00
EXPONENTS  0.3120000D+00 0.3120000D+00 0.3120000D+00 0.3120000D+00 0.3120000D+00
EXPONENTS  0.3120000D+00
MO    1     MO 0.0        OCC NO =    2.0000000  ORB. ENERGY = -101.619798
 -0.33475274D-04 -0.62405521D-04 -0.10547632D-03 -0.15856547D-03 -0.19481600D-03
 -0.16455325D-03 -0.62063432D-04  0.30715539D-06  0.16560244D-04  0.31006002D-04
  0.52790371D-04  0.81658677D-04  0.10754161D-03  0.11174262D-03  0.71007416D-04
 -0.47587519D-04  0.23620075D-03  0.10006663D-02  0.11950232D-03  0.27890006D-18
  0.26148653D-18  0.18619399D-18 -0.35130501D-18 -0.32937077D-18 -0.23453161D-18
  0.23118705D-03  0.21675255D-03  0.15434073D-03 -0.23391502D-18  0.32083161D-18
 -0.10926726D-03 -0.64141711D-19  0.73378079D-19  0.25780329D-03 -0.57314784D-22
 -0.44615977D-23  0.70266704D-05  0.42783097D-04  0.42783097D-04 -0.85566193D-04
 -0.19435073D-20  0.32352272D-18 -0.41474508D-18  0.80289011D-04  0.80289011D-04
 -0.16057802D-03  0.13272246D-20 -0.35459978D-18  0.47782389D-18 -0.22080205D-05
 -0.22080205D-05  0.44160411D-05 -0.16460392D-21 -0.95784053D-20  0.91436258D-20
  0.36859886D-19 -0.53295400D-19 -0.88045530D-04  0.37448452D-19 -0.53324830D-19
  0.13206829D-03 -0.14802811D-18  0.21321103D-18  0.13206829D-03 -0.12710437D-23
  0.25491311D-19 -0.33958377D-19 -0.39700302D-04  0.25402210D-19 -0.34015809D-19
  0.59550453D-04 -0.10187614D-18  0.13589094D-18  0.59550453D-04  0.80082752D-21
  0.61734634D+00  0.11550574D+01  0.19956832D+01  0.32352353D+01  0.49129629D+01
  0.68284407D+01  0.81180309D+01  0.72309175D+01  0.35896440D+01  0.57834915D+00
  0.88792001D-02  0.15867043D-02  0.59292665D-04 -0.12303603D-02 -0.22981364D-02
 -0.39885272D-02 -0.64717588D-02 -0.10017514D-01 -0.14339161D-01 -0.18717084D-01
 -0.19946177D-01 -0.14910172D-01 -0.78708149D-03  0.10113606D-01  0.60086442D-02
 -0.22527911D-04  0.49612950D-03  0.92595422D-03  0.16092269D-02  0.26080835D-02
  0.40507620D-02  0.58028334D-02  0.76621008D-02  0.82850038D-02  0.64955504D-02
  0.32321644D-03 -0.55683289D-02 -0.57642527D-02  0.26084059D-02 -0.31730283D-02
 -0.11970984D-02 -0.32479520D-03  0.93362766D-17  0.12297972D-16  0.13567544D-16
  0.11269405D-16  0.59854545D-17  0.15438233D-17 -0.15869979D-20 -0.22600906D-16
 -0.29770465D-16 -0.32843797D-16 -0.27280549D-16 -0.14489362D-16 -0.37372292D-17
  0.38417445D-20 -0.94074439D-02 -0.12391715D-01 -0.13670964D-01 -0.11355307D-01
 -0.60310796D-02 -0.15555914D-02  0.15990950D-05 -0.79544287D-17 -0.10443582D-16
 -0.11890786D-16 -0.10068629D-16 -0.57676986D-17 -0.13119513D-17  0.61406542D-18
  0.12326727D-16  0.16184088D-16  0.18426775D-16  0.15603037D-16  0.89380201D-17
  0.20330895D-17 -0.95159777D-18  0.82177777D-02  0.10789340D-01  0.12284457D-01
  0.10401974D-01  0.59586510D-02  0.13553864D-02 -0.63439541D-03 -0.95161642D-18
  0.18907143D-17  0.30228966D-03  0.20316798D-19 -0.85148273D-21  0.58746693D-03
  0.42451923D-20 -0.62021221D-20  0.13024019D-04 -0.14011518D-03 -0.14011518D-03
  0.28023037D-03  0.12009869D-18  0.35273291D-18 -0.44389030D-18 -0.11518166D-04
 -0.11518166D-04  0.23036332D-04 -0.12897528D-19 -0.37051238D-18  0.50274388D-18
  0.45769512D-04  0.45769512D-04 -0.91539024D-04  0.11407472D-20 -0.14076368D-19
  0.12567903D-19 -0.33858674D-19  0.52482223D-19 -0.16324038D-03 -0.37201963D-19
  0.49927413D-19  0.24486057D-03  0.13877798D-18 -0.20737408D-18  0.24486057D-03
 -0.20438802D-20 -0.21402608D-19  0.27550055D-19  0.48008293D-04 -0.20969268D-19
  0.27901600D-19 -0.72012439D-04  0.85177091D-19 -0.11055177D-18 -0.72012439D-04
  0.98814715D-21
MO    2     MO 0.0        OCC NO =    2.0000000  ORB. ENERGY =  -10.547645
  0.32704530D+00  0.60968681D+00  0.10304781D+01  0.15491461D+01  0.19033050D+01
  0.16076454D+01  0.60634468D+00 -0.30008337D-02 -0.69784263D-03 -0.13065816D-02
 -0.22245669D-02 -0.34410668D-02 -0.45317639D-02 -0.47087930D-02 -0.29922266D-02
  0.20053207D-02  0.30165948D-01  0.21469832D-03 -0.56631709D-04  0.89405005D-17
  0.83822876D-17  0.59686881D-17  0.20975525D-16  0.19665888D-16  0.14003284D-16
  0.63361595D-02  0.59405523D-02  0.42300271D-02 -0.17980141D-17 -0.35454476D-17
  0.67522033D-03 -0.37112180D-18 -0.24635208D-18 -0.27019851D-03 -0.99546072D-20
 -0.14822559D-19 -0.75567756D-05 -0.13967973D-02 -0.13967973D-02  0.27935947D-02
  0.43990424D-18  0.42545892D-17  0.29988436D-17  0.13139658D-03  0.13139658D-03
 -0.26279317D-03 -0.13304451D-18 -0.13817394D-17 -0.19212395D-17  0.23986128D-04
  0.23986128D-04 -0.47972256D-04  0.51648016D-20 -0.95641925D-19 -0.80297275D-19
 -0.21743193D-18 -0.15162627D-18  0.40217318D-03 -0.25270869D-18  0.65867798D-18
 -0.60325977D-03  0.90500448D-18 -0.20379916D-18 -0.60325977D-03 -0.22117457D-18
  0.87017229D-19  0.11437376D-18 -0.93041132D-04  0.81575427D-19  0.82216444D-19
  0.13956170D-03 -0.34262711D-18 -0.42533772D-18  0.13956170D-03 -0.23074233D-19
  0.13147985D-03  0.24599931D-03  0.42503231D-03  0.68902695D-03  0.10463424D-02
  0.14542929D-02  0.17289444D-02  0.15400107D-02  0.76450743D-03  0.12317440D-03
  0.18910551D-05  0.33792968D-06  0.12627905D-07 -0.29779855D-03 -0.55624492D-03
 -0.96539005D-03 -0.15664357D-02 -0.24246564D-02 -0.34706754D-02 -0.45303155D-02
 -0.48278072D-02 -0.36088839D-02 -0.19050657D-03  0.24479148D-02  0.14543427D-02
 -0.54526946D-05  0.16447921D-03  0.30697676D-03  0.53349858D-03  0.86464426D-03
  0.13429279D-02  0.19237830D-02  0.25401762D-02  0.27466839D-02  0.21534358D-02
  0.10715425D-03 -0.18460389D-02 -0.19109925D-02  0.86475116D-03  0.47038785D-03
 -0.13079434D-03 -0.68436196D-04  0.11182331D-16  0.14729640D-16  0.16250244D-16
  0.13497695D-16  0.71689538D-17  0.18490823D-17 -0.19007938D-20  0.20254984D-16
  0.26680360D-16  0.29434687D-16  0.24448891D-16  0.12985400D-16  0.33493135D-17
 -0.34429804D-20  0.64549655D-02  0.85026382D-02  0.93804018D-02  0.77915019D-02
  0.41382559D-02  0.10673769D-02 -0.10972272D-05 -0.96676907D-17 -0.12692969D-16
 -0.14451879D-16 -0.12237258D-16 -0.70099724D-17 -0.15945255D-17  0.74632569D-18
 -0.17579211D-16 -0.23080215D-16 -0.26278523D-16 -0.22251574D-16 -0.12746558D-16
 -0.28993998D-17  0.13570787D-17 -0.55112150D-02 -0.72358213D-02 -0.82385149D-02
 -0.69760361D-02 -0.39961420D-02 -0.90898367D-03  0.42545439D-03 -0.72411201D-18
 -0.14009188D-17 -0.15212541D-02  0.54429555D-18  0.54217793D-18  0.38437734D-03
  0.78064316D-20  0.32364707D-20  0.97573156D-05 -0.25416338D-03 -0.25416338D-03
  0.50832676D-03 -0.50856295D-20  0.97188322D-18  0.15573070D-17  0.31014076D-03
  0.31014076D-03 -0.62028152D-03  0.38368640D-19 -0.10747679D-17 -0.18404327D-17
  0.40412272D-04  0.40412272D-04 -0.80824543D-04  0.40037816D-21 -0.21197343D-18
 -0.18930919D-18  0.11812805D-18  0.30909185D-20  0.41634052D-03  0.11150363D-18
 -0.18524405D-19 -0.62451078D-03 -0.46588779D-18  0.92516498D-20 -0.62451078D-03
 -0.12257912D-18 -0.12279833D-18 -0.17482470D-18  0.16196271D-03 -0.12027188D-18
 -0.16627981D-18 -0.24294406D-03  0.48866687D-18  0.69075390D-18 -0.24294406D-03
 -0.30714002D-19
MO    3     MO 0.0        OCC NO =    2.0000000  ORB. ENERGY =   -9.835300
 -0.20089234D-03 -0.37450900D-03 -0.63298619D-03 -0.95158559D-03 -0.11691328D-02
 -0.98751959D-03 -0.37245605D-03  0.18433058D-05  0.69351360D-04  0.12984763D-03
  0.22107670D-03  0.34197203D-03  0.45036514D-03  0.46795823D-03  0.29736645D-03
 -0.19928808D-03  0.30425584D-03 -0.21584633D-03 -0.20916791D-04 -0.59523100D-16
 -0.55806690D-16 -0.39737688D-16  0.24222021D-15  0.22709685D-15  0.16170648D-15
  0.50148414D-03  0.47017326D-03  0.33479137D-03  0.55290957D-16 -0.11097386D-15
 -0.61192745D-03 -0.25395653D-17  0.48776956D-17 -0.12982690D-03 -0.18427956D-18
  0.18000152D-18 -0.22022708D-05  0.23382947D-03  0.23382947D-03 -0.46765894D-03
 -0.24854109D-18  0.30979211D-17 -0.67319912D-17  0.12118837D-03  0.12118837D-03
 -0.24237673D-03  0.23584883D-18 -0.45602300D-17  0.73403704D-17  0.52084272D-05
  0.52084272D-05 -0.10416854D-04 -0.27249945D-19 -0.72248057D-18  0.15038611D-17
  0.50914217D-18 -0.17896097D-18 -0.24591787D-03  0.50917563D-18 -0.19594456D-18
  0.36887680D-03 -0.20366021D-17  0.73282747D-18  0.36887680D-03  0.28830897D-18
  0.19493329D-18 -0.30852652D-18 -0.20920768D-04  0.19334766D-18 -0.29800187D-18
  0.31381151D-04 -0.77814754D-18  0.12235814D-17  0.31381151D-04  0.14715014D-18
 -0.18927631D-03 -0.35413670D-03 -0.61186977D-03 -0.99191226D-03 -0.15062979D-02
 -0.20935769D-02 -0.24889610D-02 -0.22169750D-02 -0.11005728D-02 -0.17731991D-03
 -0.27223329D-05 -0.48647821D-06 -0.18178932D-07 -0.17313031D+00 -0.32338257D+00
 -0.56124613D+00 -0.91067438D+00 -0.14096158D+01 -0.20177369D+01 -0.26337770D+01
 -0.28067289D+01 -0.20980868D+01 -0.11075427D+00  0.14231375D+01  0.84550715D+00
 -0.31700179D-02  0.47727944D-03  0.89077331D-03  0.15480856D-02  0.25089914D-02
  0.38968564D-02  0.55823593D-02  0.73709853D-02  0.79702215D-02  0.62487570D-02
  0.31093608D-03 -0.53567646D-02 -0.55452445D-02  0.25093016D-02  0.57056358D-01
  0.33409064D-03  0.13385487D-04  0.35303963D-15  0.46503242D-15  0.51303970D-15
  0.42613845D-15  0.22633248D-15  0.58377749D-16 -0.60010341D-19 -0.73064828D-15
 -0.96242777D-15 -0.10617833D-14 -0.88193307D-15 -0.46841608D-15 -0.12081817D-15
  0.12419697D-18 -0.45401990D-01 -0.59804610D-01 -0.65978495D-01 -0.54802724D-01
 -0.29107058D-01 -0.75075593D-02  0.77175158D-05  0.43567960D-17  0.57201537D-17
  0.65128158D-17  0.55147849D-17  0.31590811D-17  0.71858136D-18 -0.33633562D-18
 -0.27203670D-16 -0.35716424D-16 -0.40665776D-16 -0.34434109D-16 -0.19725183D-16
 -0.44867949D-17  0.21000669D-17  0.10372484D-01  0.13618312D-01  0.15505450D-01
  0.13129378D-01  0.75210132D-02  0.17107696D-02 -0.80073431D-03  0.15585905D-16
 -0.12059771D-16 -0.16923994D-03  0.34105896D-17 -0.73314945D-17  0.14258790D-04
  0.18721607D-18 -0.23542085D-18  0.14045715D-05 -0.59298218D-03 -0.59298218D-03
  0.11859644D-02  0.27727805D-16 -0.63814102D-17 -0.15995974D-16 -0.67567804D-04
 -0.67567804D-04  0.13513561D-03 -0.22815835D-17 -0.32490757D-17  0.50265052D-17
  0.10843745D-04  0.10843745D-04 -0.21687490D-04  0.19080668D-18 -0.16327694D-17
  0.30329482D-17  0.39850395D-19 -0.13675608D-17 -0.35878236D-03  0.11507139D-18
 -0.29438996D-18  0.53817354D-03 -0.23462258D-18  0.43970724D-17  0.53817354D-03
 -0.35079906D-18 -0.57718776D-18  0.13989987D-17  0.31610742D-04 -0.57321679D-18
  0.12990586D-17 -0.47416113D-04  0.23047801D-17 -0.54960547D-17 -0.47416113D-04
  0.15284603D-18
MO    4     MO 0.0        OCC NO =    2.0000000  ORB. ENERGY =   -7.539895
  0.28809524D-03  0.53707503D-03  0.90775141D-03  0.13646477D-02  0.16766274D-02
  0.14161799D-02  0.53413094D-03 -0.26434438D-05 -0.12585133D-03 -0.23563340D-03
 -0.40118603D-03 -0.62057378D-03 -0.81727384D-03 -0.84919987D-03 -0.53962840D-03
  0.36164640D-03 -0.55725784D-03  0.12725082D-02  0.15396671D-03 -0.12774873D-15
 -0.11977255D-15 -0.85285194D-16  0.88583537D-15  0.83052696D-15  0.59138467D-15
 -0.10400438D-02 -0.97510717D-03 -0.69433439D-03  0.62228688D-16 -0.36529813D-16
  0.13196149D-02  0.12072815D-17  0.56105190D-17  0.53732464D-03 -0.63141605D-19
  0.32454747D-18  0.13582400D-04 -0.46892710D-03 -0.46892710D-03  0.93785419D-03
  0.48473573D-19 -0.96624128D-17 -0.63116982D-17 -0.23883509D-03 -0.23883509D-03
  0.47767019D-03 -0.13364450D-18  0.70757257D-17  0.17391358D-16 -0.17092341D-04
 -0.17092341D-04  0.34184683D-04 -0.13721531D-19  0.92710384D-19  0.17939834D-17
 -0.39538107D-18 -0.26591266D-17  0.40053351D-03 -0.37410074D-18 -0.26952988D-17
 -0.60080027D-03  0.15602439D-17  0.10672679D-16 -0.60080027D-03 -0.40780197D-19
 -0.66751235D-18 -0.64658017D-18  0.36597782D-04 -0.66590242D-18 -0.64680822D-18
 -0.54896674D-04  0.26684395D-17  0.25865487D-17 -0.54896674D-04 -0.10928082D-18
 -0.10458932D-03 -0.19568702D-03 -0.33810383D-03 -0.54810573D-03 -0.83234228D-03
 -0.11568579D-02 -0.13753371D-02 -0.12250445D-02 -0.60814879D-03 -0.97982514D-04
 -0.15042926D-05 -0.26881561D-06 -0.10045220D-07 -0.32228122D-03 -0.60197505D-03
 -0.10447569D-02 -0.16952158D-02 -0.26239928D-02 -0.37560073D-02 -0.49027628D-02
 -0.52247118D-02 -0.39055782D-02 -0.20616853D-03  0.26491633D-02  0.15739074D-02
 -0.59009727D-05 -0.12035328D-03 -0.22462206D-03 -0.39037337D-03 -0.63268038D-03
 -0.98265169D-03 -0.14076769D-02 -0.18587062D-02 -0.20098127D-02 -0.15757192D-02
 -0.78407269D-04  0.13507898D-02  0.13983178D-02 -0.63275861D-03  0.73838694D-03
 -0.14998927D-02 -0.29642042D-03  0.55254464D-15  0.72782529D-15  0.80296180D-15
  0.66695208D-15  0.35423445D-15  0.91367398D-16 -0.93922579D-19 -0.12914695D-14
 -0.17011552D-14 -0.18767727D-14 -0.15588754D-14 -0.82795661D-15 -0.21355416D-15
  0.21952642D-18  0.11549095D+02  0.15212750D+02  0.16783227D+02  0.13940399D+02
  0.74040847D+01  0.19097294D+01 -0.19631369D-02  0.22299505D-15  0.29277615D-15
  0.33334719D-15  0.28226471D-15  0.16169209D-15  0.36779341D-16 -0.17214756D-16
  0.39676511D-16  0.52092350D-16  0.59310973D-16  0.50222096D-16  0.28769150D-16
  0.65439835D-17 -0.30629444D-17 -0.31256531D-01 -0.41037534D-01 -0.46724252D-01
 -0.39564177D-01 -0.22663884D-01 -0.51552473D-02  0.24129395D-02  0.41594573D-16
 -0.15419176D-16  0.89315211D-01  0.69052514D-18 -0.10170757D-16  0.44330973D-03
 -0.81591150D-19 -0.21863188D-18  0.16663012D-05  0.99138377D-03  0.99138377D-03
 -0.19827675D-02 -0.14665017D-17  0.45967344D-17 -0.47428826D-16  0.18241596D-03
  0.18241596D-03 -0.36483191D-03  0.99136805D-19  0.64994649D-17  0.17018242D-16
  0.26252249D-05  0.26252249D-05 -0.52504498D-05  0.26173357D-19 -0.11514833D-18
  0.39957123D-17  0.19609293D-18 -0.12002075D-17  0.74852470D-03  0.30929578D-18
 -0.13084771D-17 -0.11227871D-02 -0.89757459D-18  0.49090998D-17 -0.11227871D-02
  0.60678537D-17  0.34111165D-18  0.25928708D-17 -0.38393252D-04  0.33527898D-18
  0.25992415D-17  0.57589879D-04 -0.13586139D-17 -0.10377854D-16  0.57589879D-04
 -0.60973046D-18
MO    5     MO 0.0        OCC NO =    2.0000000  ORB. ENERGY =   -7.536573
  0.58849490D-16  0.10970883D-15  0.18542725D-15  0.27875789D-15  0.34248628D-15
  0.28928441D-15  0.10910744D-15 -0.53997880D-18 -0.33401498D-16 -0.62538143D-16
 -0.10647654D-15 -0.16470302D-15 -0.21690808D-15 -0.22538139D-15 -0.14321975D-15
  0.95982548D-16 -0.61121378D-16 -0.59085468D-15 -0.76469378D-16  0.57192315D-05
  0.53621430D-05  0.38181653D-05  0.94419173D-04  0.88523977D-04  0.63034345D-04
 -0.58006800D-16 -0.54385062D-16 -0.38725404D-16 -0.95259522D-06 -0.15726458D-04
 -0.11357559D-15 -0.15733407D-05 -0.25974387D-04 -0.27646085D-15  0.50017941D-07
  0.82574953D-06 -0.73430419D-17 -0.90917303D-15  0.80378506D-15  0.10538796D-15
 -0.38326026D-17 -0.15674489D-06 -0.25877118D-05  0.23989215D-15 -0.15135337D-15
 -0.88538780D-16  0.10433021D-16 -0.36500544D-05 -0.60258991D-04  0.80210874D-17
  0.65773895D-17 -0.14598477D-16 -0.63846455D-18 -0.32184655D-06 -0.53133862D-05
  0.37552088D-05  0.61994993D-04  0.35575093D-16  0.37554546D-05  0.61999049D-04
 -0.62138625D-16 -0.15021081D-04 -0.24798403D-03 -0.44586655D-16  0.67972155D-18
  0.24457268D-06  0.40376667D-05 -0.10287114D-16  0.24427469D-06  0.40327471D-05
  0.17102829D-16 -0.97799273D-06 -0.16145747D-04  0.13758513D-16 -0.22066077D-17
 -0.54237971D-16 -0.10147945D-15 -0.17533401D-15 -0.28423688D-15 -0.43163638D-15
 -0.59992381D-15 -0.71322286D-15 -0.63528406D-15 -0.31537403D-15 -0.50811809D-16
 -0.78009662D-18 -0.13940250D-18 -0.52092539D-20  0.32429895D-16  0.60574387D-16
  0.10512979D-15  0.17058292D-15  0.26404210D-15  0.37795228D-15  0.49334578D-15
  0.52574225D-15  0.39300301D-15  0.20745931D-16 -0.26657491D-15 -0.15837612D-15
  0.59379173D-18 -0.23979523D-16 -0.44754325D-16 -0.77779078D-16 -0.12605700D-15
 -0.19578626D-15 -0.28046947D-15 -0.37033381D-15 -0.40044070D-15 -0.31395070D-15
 -0.15622083D-16  0.26913512D-15  0.27860475D-15 -0.12607259D-15  0.44235190D-16
  0.65656427D-15  0.15563125D-15  0.69740973D+00  0.91864513D+00  0.10134808D+01
  0.84181229D+00  0.44710696D+00  0.11532193D+00 -0.11854702D-03  0.11513584D+02
  0.15165974D+02  0.16731622D+02  0.13897535D+02  0.73813185D+01  0.19038574D+01
 -0.19571006D-02 -0.12256083D-14 -0.16144011D-14 -0.17810627D-14 -0.14793773D-14
 -0.78573320D-15 -0.20266351D-15  0.20833120D-18 -0.78269275D-03 -0.10276182D-02
 -0.11700189D-02 -0.99072397D-03 -0.56752483D-03 -0.12909221D-03  0.60422259D-04
 -0.12921527D-01 -0.16965017D-01 -0.19315920D-01 -0.16355928D-01 -0.93693053D-02
 -0.21311919D-02  0.99751510D-03  0.14862125D-14  0.19512881D-14  0.22216850D-14
  0.18812316D-14  0.10776419D-14  0.24512615D-15 -0.11473253D-15  0.53609539D-02
  0.88504345D-01  0.22232313D-15  0.50321465D-05  0.83076041D-04 -0.26804863D-15
 -0.21000443D-06 -0.34669771D-05  0.42330666D-17  0.52063007D-16  0.22664619D-16
 -0.74727626D-16  0.12101316D-16 -0.39728978D-04 -0.65588834D-03 -0.56545863D-16
 -0.51960122D-16  0.10850599D-15 -0.43489912D-18 -0.31047781D-05 -0.51256988D-04
 -0.14578924D-17 -0.23673314D-17  0.38252239D-17  0.60297162D-18 -0.45738615D-06
 -0.75510184D-05 -0.66178010D-05 -0.10925372D-03 -0.11748875D-16 -0.66461871D-05
 -0.10972235D-03  0.39872178D-16  0.26499590D-04  0.43748350D-03 -0.46255526D-17
  0.98727283D-18  0.21829720D-06  0.36038830D-05 -0.11543102D-16  0.22005834D-06
  0.36329578D-05  0.12691699D-16 -0.87494994D-06 -0.14444607D-04  0.21937607D-16
 -0.41850311D-17
MO    6     MO 0.0        OCC NO =    2.0000000  ORB. ENERGY =   -7.536573
  0.77211856D-17  0.14394046D-16  0.24328473D-16  0.36573664D-16  0.44934971D-16
  0.37954767D-16  0.14315142D-16 -0.70846434D-19  0.67770104D-17  0.12688702D-16
  0.21603600D-16  0.33417485D-16  0.44009652D-16  0.45728848D-16  0.29058630D-16
 -0.19474418D-16 -0.58805456D-15  0.55410268D-14  0.35132558D-15  0.94419173D-04
  0.88523977D-04  0.63034345D-04 -0.57192315D-05 -0.53621430D-05 -0.38181653D-05
  0.11656695D-14  0.10928893D-14  0.77820226D-15 -0.15726458D-04  0.95259522D-06
  0.17835089D-14 -0.25974387D-04  0.15733407D-05  0.23634144D-14  0.82574953D-06
 -0.50017941D-07 -0.20447992D-17 -0.18042969D-15 -0.13068870D-15  0.31111839D-15
 -0.16033383D-15 -0.25877118D-05  0.15674489D-06 -0.10790967D-14 -0.11257172D-14
  0.22048139D-14  0.22295466D-16 -0.60258991D-04  0.36500544D-05 -0.11186763D-16
 -0.18178538D-18  0.11368548D-16 -0.13558034D-17 -0.53133862D-05  0.32184655D-06
  0.61994993D-04 -0.37552088D-05  0.53194201D-15  0.61999049D-04 -0.37554546D-05
 -0.55913941D-15 -0.24798403D-03  0.15021081D-04 -0.10366866D-14  0.10439109D-15
  0.40376667D-05 -0.24457268D-06  0.86391739D-17  0.40327471D-05 -0.24427469D-06
 -0.32279502D-16 -0.16145747D-04  0.97799273D-06  0.63619803D-17  0.31256358D-17
  0.68482727D-16  0.12813144D-15  0.22138275D-15  0.35888726D-15  0.54499893D-15
  0.75748443D-15  0.90053971D-15  0.80213150D-15  0.39820210D-15  0.64156738D-16
  0.98497682D-18  0.17601439D-18  0.65773831D-20 -0.13614796D-15 -0.25430484D-15
 -0.44135839D-15 -0.71614530D-15 -0.11085079D-14 -0.15867283D-14 -0.20711761D-14
 -0.22071837D-14 -0.16499146D-14 -0.87096063D-16  0.11191412D-14  0.66489844D-15
 -0.24928707D-17  0.86965760D-16  0.16230906D-15  0.28207886D-15  0.45716685D-15
  0.71005170D-15  0.10171696D-14  0.13430776D-14  0.14522653D-14  0.11385948D-14
  0.56656102D-16 -0.97606364D-15 -0.10104068D-14  0.45722338D-15  0.72132449D-15
 -0.62959243D-14 -0.84900670D-15  0.11513584D+02  0.15165974D+02  0.16731622D+02
  0.13897535D+02  0.73813185D+01  0.19038574D+01 -0.19571006D-02 -0.69740973D+00
 -0.91864513D+00 -0.10134808D+01 -0.84181229D+00 -0.44710696D+00 -0.11532193D+00
  0.11854702D-03  0.47830744D-13  0.63003824D-13  0.69507978D-13  0.57734365D-13
  0.30664124D-13  0.79091721D-14 -0.81303600D-17 -0.12921527D-01 -0.16965017D-01
 -0.19315920D-01 -0.16355928D-01 -0.93693053D-02 -0.21311919D-02  0.99751510D-03
  0.78269275D-03  0.10276182D-02  0.11700189D-02  0.99072397D-03  0.56752483D-03
  0.12909221D-03 -0.60422259D-04 -0.47064197D-13 -0.61791841D-13 -0.70354557D-13
 -0.59573349D-13 -0.34125908D-13 -0.77624601D-14  0.36332585D-14  0.88504345D-01
 -0.53609539D-02 -0.10463368D-14  0.83076041D-04 -0.50321465D-05  0.18696280D-14
 -0.34669771D-05  0.21000443D-06  0.43971749D-16 -0.70517919D-15 -0.80724403D-15
  0.15124232D-14 -0.20069433D-16 -0.65588834D-03  0.39728978D-04  0.48575336D-15
  0.50196713D-15 -0.98772049D-15  0.43139054D-18 -0.51256988D-04  0.31047781D-05
  0.71311989D-16  0.64565044D-16 -0.13587703D-15 -0.16533206D-18 -0.75510184D-05
  0.45738615D-06 -0.10925372D-03  0.66178010D-05  0.24430308D-15 -0.10972235D-03
  0.66461871D-05 -0.43002326D-15  0.43748350D-03 -0.26499590D-04 -0.30288597D-15
 -0.47786873D-16  0.36038830D-05 -0.21829720D-06  0.59722801D-16  0.36329578D-05
 -0.22005834D-06 -0.88536320D-16 -0.14444607D-04  0.87494994D-06 -0.90632083D-16
  0.78109515D-17
MO    7     MO 0.0        OCC NO =    2.0000000  ORB. ENERGY =   -1.260285
 -0.49669857D-02 -0.92595906D-02 -0.15650339D-01 -0.23527586D-01 -0.28906358D-01
 -0.24416041D-01 -0.92088322D-02  0.45575024D-04 -0.26965142D-01 -0.50487254D-01
 -0.85958869D-01 -0.13296530D+00 -0.17511062D+00 -0.18195115D+00 -0.11562179D+00
  0.77487035D-01  0.36121469D-01 -0.55569691D-03  0.50107009D-03 -0.21691719D-15
 -0.20337366D-15 -0.14481416D-15  0.50714769D-15  0.47548320D-15  0.33857236D-15
  0.20110066D+00  0.18854465D+00  0.13425503D+00 -0.59178171D-16  0.53173396D-16
  0.43550680D-01 -0.27213319D-17  0.11054428D-16 -0.12003139D-02 -0.26189776D-18
  0.51528308D-18  0.48399237D-04 -0.13065143D-01 -0.13065143D-01  0.26130286D-01
  0.27691874D-18  0.18161888D-16  0.75508750D-17 -0.23237250D-02 -0.23237250D-02
  0.46474500D-02 -0.92964291D-18 -0.58259842D-18  0.37258550D-16  0.50244955D-04
  0.50244955D-04 -0.10048991D-03  0.17477125D-18 -0.20878487D-17  0.52612325D-17
 -0.36289152D-17 -0.71045126D-17  0.35136939D-02  0.15963249D-18 -0.44883633D-17
 -0.52705408D-02  0.10727113D-16  0.25801901D-16 -0.52705408D-02  0.96058552D-17
  0.11390407D-17 -0.20086178D-17  0.45432573D-03 -0.90557816D-18 -0.12418238D-17
 -0.68148860D-03 -0.25115438D-17  0.72676771D-17 -0.68148860D-03 -0.30600876D-18
  0.13323546D-02  0.24928406D-02  0.43070763D-02  0.69822731D-02  0.10603139D-01
  0.14737116D-01  0.17520305D-01  0.15605740D-01  0.77471566D-02  0.12481911D-02
  0.19163057D-04  0.34244195D-05  0.12796522D-06 -0.58957641D-03 -0.11012441D-02
 -0.19112625D-02 -0.31012023D-02 -0.48002929D-02 -0.68711831D-02 -0.89690403D-02
 -0.95580090D-02 -0.71448058D-02 -0.37716161D-03  0.48463394D-02  0.28792824D-02
 -0.10795150D-04  0.45275365D-01  0.84499945D-01  0.14685347D+00  0.23800627D+00
  0.36966100D+00  0.52955005D+00  0.69922150D+00  0.75606585D+00  0.59276543D+00
  0.29495812D-01 -0.50814984D+00 -0.52602929D+00  0.23803569D+00  0.36794888D-01
  0.52397724D-01 -0.15203586D-02  0.55375156D-16  0.72941509D-16  0.80471572D-16
  0.66840890D-16  0.35500821D-16  0.91566972D-17 -0.94127734D-20 -0.22030522D-15
 -0.29019142D-15 -0.32014912D-15 -0.26592064D-15 -0.14123691D-15 -0.36429120D-16
  0.37447896D-19  0.25479137D+00  0.33561742D+00  0.37026464D+00  0.30754734D+00
  0.16334586D+00  0.42131663D-01 -0.43309917D-04 -0.43881367D-15 -0.57613018D-15
 -0.65596660D-15 -0.55544557D-15 -0.31818061D-15 -0.72375050D-16  0.33875506D-16
  0.85717376D-15  0.11254063D-14  0.12813579D-14  0.10850012D-14  0.62153047D-15
  0.14137662D-15 -0.66172038D-16  0.49684842D+00  0.65232555D+00  0.74272063D+00
  0.62890532D+00  0.36026118D+00  0.81946920D-01 -0.38355668D-01  0.41645191D-16
 -0.68203697D-16 -0.78413249D-01  0.86986015D-17 -0.26852579D-16 -0.52958232D-02
  0.55474319D-18 -0.92819579D-18  0.19199728D-03 -0.19555103D-01 -0.19555103D-01
  0.39110206D-01  0.12836942D-15  0.29546860D-16 -0.78842256D-16 -0.23325225D-02
 -0.23325225D-02  0.46650451D-02  0.14052856D-16  0.10429785D-17  0.30243571D-16
 -0.23742209D-03 -0.23742209D-03  0.47484417D-03 -0.35976642D-18 -0.39508948D-17
  0.10451506D-16  0.15731293D-17 -0.38411066D-17 -0.44176508D-02  0.10800109D-16
  0.28365408D-17  0.66264762D-02 -0.15519497D-16  0.86867792D-17  0.66264762D-02
 -0.32123942D-16 -0.10864269D-17  0.53329878D-17 -0.20617636D-03 -0.17134379D-17
  0.48280950D-17  0.30926455D-03  0.49727187D-17 -0.20827058D-16  0.30926455D-03
 -0.70241779D-18
MO    8     MO 0.0        OCC NO =    2.0000000  ORB. ENERGY =   -0.904175
  0.13134859D-02  0.24486364D-02  0.41386269D-02  0.62217119D-02  0.76440920D-02
  0.64566577D-02  0.24352137D-02 -0.12052009D-04  0.45974374D-01  0.86078534D-01
  0.14655607D+00  0.22669995D+00  0.29855586D+00  0.31021867D+00  0.19713004D+00
 -0.13211197D+00 -0.65485113D-01 -0.57413113D-01 -0.40783473D-02 -0.15395452D-15
 -0.14434215D-15 -0.10278021D-15 -0.67695500D-15 -0.63468835D-15 -0.45193591D-15
 -0.15215602D+00 -0.14265594D+00 -0.10157953D+00 -0.73525309D-16 -0.27614714D-15
 -0.45763759D-01  0.77299503D-17  0.12529720D-16 -0.15369350D-01 -0.10459560D-17
 -0.27839839D-18 -0.33675073D-03  0.74406262D-02  0.74406262D-02 -0.14881252D-01