 Molden2AIM, Version 4.0.0 (06/02/2016)           Time: Fri Jun 29 22:54:24 2018
GAUSSIAN             13 MOL ORBITALS    206 PRIMITIVES        2 NUCLEI
  Cl   1    (CENTRE  1)  -0.39513228  2.73230587  0.75452040  CHARGE = 17.0
  O    2    (CENTRE  2)   2.42815634  4.09130619  0.83453140  CHARGE =  8.0
CENTRE ASSIGNMENTS    1  1  1  1  1  1  1  1  1  1  1  1  1  1  1  1  1  1  1  1
CENTRE ASSIGNMENTS    1  1  1  1  1  1  1  1  1  1  1  1  1  1  1  1  1  1  1  1
CENTRE ASSIGNMENTS    1  1  1  1  1  1  1  1  1  1  1  1  1  1  1  1  1  1  1  1
CENTRE ASSIGNMENTS    1  1  1  1  1  1  1  1  1  1  1  1  1  1  1  1  1  1  1  1
CENTRE ASSIGNMENTS    1  1  1  1  1  1  1  1  1  1  1  1  1  1  1  1  1  1  1  1
CENTRE ASSIGNMENTS    1  1  1  1  1  1  1  1  1  1  1  1  1  1  1  1  1  1  1  1
CENTRE ASSIGNMENTS    1  1  1  1  1  1  1  1  1  1  1  2  2  2  2  2  2  2  2  2
CENTRE ASSIGNMENTS    2  2  2  2  2  2  2  2  2  2  2  2  2  2  2  2  2  2  2  2
CENTRE ASSIGNMENTS    2  2  2  2  2  2  2  2  2  2  2  2  2  2  2  2  2  2  2  2
CENTRE ASSIGNMENTS    2  2  2  2  2  2  2  2  2  2  2  2  2  2  2  2  2  2  2  2
CENTRE ASSIGNMENTS    2  2  2  2  2  2
TYPE ASSIGNMENTS      1  1  1  1  1  1  1  1  1  1  1  1  1  1  1  1  1  1  1  1
TYPE ASSIGNMENTS      1  1  1  1  1  1  1  1  1  1  1  1  1  1  1  1  1  1  1  1
TYPE ASSIGNMENTS      1  1  2  2  2  2  2  2  2  3  3  3  3  3  3  3  4  4  4  4
TYPE ASSIGNMENTS      4  4  4  2  2  2  2  2  2  2  3  3  3  3  3  3  3  4  4  4
TYPE ASSIGNMENTS      4  4  4  4  2  3  4  2  3  4  2  3  4  5  6  7  8  9 10  5
TYPE ASSIGNMENTS      6  7  8  9 10  5  6  7  8  9 10 11 12 13 17 14 15 18 19 16
TYPE ASSIGNMENTS     20 11 12 13 17 14 15 18 19 16 20  1  1  1  1  1  1  1  1  1
TYPE ASSIGNMENTS      1  1  1  1  1  1  1  1  1  1  2  2  2  3  3  3  4  4  4  2
TYPE ASSIGNMENTS      3  4  2  3  4  2  3  4  5  6  7  8  9 10  5  6  7  8  9 10
TYPE ASSIGNMENTS      5  6  7  8  9 10 11 12 13 17 14 15 18 19 16 20 11 12 13 17
TYPE ASSIGNMENTS     14 15 18 19 16 20
EXPONENTS  0.4561000D+06 0.6833000D+05 0.1555000D+05 0.4405000D+04 0.1439000D+04
EXPONENTS  0.5204000D+03 0.2031000D+03 0.8396000D+02 0.3620000D+02 0.1583000D+02
EXPONENTS  0.6334000D+01 0.2694000D+01 0.4313000D+00 0.4561000D+06 0.6833000D+05
EXPONENTS  0.1555000D+05 0.4405000D+04 0.1439000D+04 0.5204000D+03 0.2031000D+03
EXPONENTS  0.8396000D+02 0.3620000D+02 0.1583000D+02 0.6334000D+01 0.2694000D+01
EXPONENTS  0.4313000D+00 0.4561000D+06 0.6833000D+05 0.1555000D+05 0.4405000D+04
EXPONENTS  0.1439000D+04 0.5204000D+03 0.2031000D+03 0.8396000D+02 0.3620000D+02
EXPONENTS  0.1583000D+02 0.6334000D+01 0.2694000D+01 0.4313000D+00 0.9768000D+00
EXPONENTS  0.1625000D+00 0.5910000D-01 0.6633000D+03 0.1568000D+03 0.4998000D+02
EXPONENTS  0.1842000D+02 0.7240000D+01 0.2922000D+01 0.3818000D+00 0.6633000D+03
EXPONENTS  0.1568000D+03 0.4998000D+02 0.1842000D+02 0.7240000D+01 0.2922000D+01
EXPONENTS  0.3818000D+00 0.6633000D+03 0.1568000D+03 0.4998000D+02 0.1842000D+02
EXPONENTS  0.7240000D+01 0.2922000D+01 0.3818000D+00 0.6633000D+03 0.1568000D+03
EXPONENTS  0.4998000D+02 0.1842000D+02 0.7240000D+01 0.2922000D+01 0.3818000D+00
EXPONENTS  0.6633000D+03 0.1568000D+03 0.4998000D+02 0.1842000D+02 0.7240000D+01
EXPONENTS  0.2922000D+01 0.3818000D+00 0.6633000D+03 0.1568000D+03 0.4998000D+02
EXPONENTS  0.1842000D+02 0.7240000D+01 0.2922000D+01 0.3818000D+00 0.1022000D+01
EXPONENTS  0.1022000D+01 0.1022000D+01 0.1301000D+00 0.1301000D+00 0.1301000D+00
EXPONENTS  0.4190000D-01 0.4190000D-01 0.4190000D-01 0.1046000D+01 0.1046000D+01
EXPONENTS  0.1046000D+01 0.1046000D+01 0.1046000D+01 0.1046000D+01 0.3440000D+00
EXPONENTS  0.3440000D+00 0.3440000D+00 0.3440000D+00 0.3440000D+00 0.3440000D+00
EXPONENTS  0.1350000D+00 0.1350000D+00 0.1350000D+00 0.1350000D+00 0.1350000D+00
EXPONENTS  0.1350000D+00 0.7060000D+00 0.7060000D+00 0.7060000D+00 0.7060000D+00
EXPONENTS  0.7060000D+00 0.7060000D+00 0.7060000D+00 0.7060000D+00 0.7060000D+00
EXPONENTS  0.7060000D+00 0.3120000D+00 0.3120000D+00 0.3120000D+00 0.3120000D+00
EXPONENTS  0.3120000D+00 0.3120000D+00 0.3120000D+00 0.3120000D+00 0.3120000D+00
EXPONENTS  0.3120000D+00 0.1533000D+05 0.2299000D+04 0.5224000D+03 0.1473000D+03
EXPONENTS  0.4755000D+02 0.1676000D+02 0.6207000D+01 0.6882000D+00 0.1533000D+05
EXPONENTS  0.2299000D+04 0.5224000D+03 0.1473000D+03 0.4755000D+02 0.1676000D+02
EXPONENTS  0.6207000D+01 0.6882000D+00 0.1752000D+01 0.2384000D+00 0.7376000D-01
EXPONENTS  0.3446000D+02 0.7749000D+01 0.2280000D+01 0.3446000D+02 0.7749000D+01
EXPONENTS  0.2280000D+01 0.3446000D+02 0.7749000D+01 0.2280000D+01 0.7156000D+00
EXPONENTS  0.7156000D+00 0.7156000D+00 0.2140000D+00 0.2140000D+00 0.2140000D+00
EXPONENTS  0.5974000D-01 0.5974000D-01 0.5974000D-01 0.2314000D+01 0.2314000D+01
EXPONENTS  0.2314000D+01 0.2314000D+01 0.2314000D+01 0.2314000D+01 0.6450000D+00
EXPONENTS  0.6450000D+00 0.6450000D+00 0.6450000D+00 0.6450000D+00 0.6450000D+00
EXPONENTS  0.2140000D+00 0.2140000D+00 0.2140000D+00 0.2140000D+00 0.2140000D+00
EXPONENTS  0.2140000D+00 0.1428000D+01 0.1428000D+01 0.1428000D+01 0.1428000D+01
EXPONENTS  0.1428000D+01 0.1428000D+01 0.1428000D+01 0.1428000D+01 0.1428000D+01
EXPONENTS  0.1428000D+01 0.5000000D+00 0.5000000D+00 0.5000000D+00 0.5000000D+00
EXPONENTS  0.5000000D+00 0.5000000D+00 0.5000000D+00 0.5000000D+00 0.5000000D+00
EXPONENTS  0.5000000D+00
MO    1     MO 0.0        OCC NO =    2.0000000  ORB. ENERGY = -100.970753
  0.61716981D+00  0.11547271D+01  0.19951126D+01  0.32343102D+01  0.49115581D+01
  0.68264882D+01  0.81157096D+01  0.72288499D+01  0.35886175D+01  0.57818378D+00
  0.88766612D-02  0.15862506D-02  0.59275711D-04 -0.92027544D-03 -0.17189424D-02
 -0.29833079D-02 -0.48406963D-02 -0.74928229D-02 -0.10725295D-01 -0.13999861D-01
 -0.14919187D-01 -0.11152396D-01 -0.58871515D-03  0.75646974D-02  0.44942994D-02
 -0.16850253D-04  0.33230494D-03  0.62019929D-03  0.10778518D-02  0.17468807D-02
  0.27131792D-02  0.38867074D-02  0.51320350D-02  0.55492522D-02  0.43506856D-02
  0.21648868D-03 -0.37296376D-02 -0.38608663D-02  0.17470966D-02 -0.28454340D-02
 -0.36359281D-03 -0.36060943D-04  0.66803046D-02  0.87994603D-02  0.97078662D-02
  0.80634987D-02  0.42827201D-02  0.11046384D-02 -0.11355308D-05  0.32155887D-02
  0.42356520D-02  0.46729165D-02  0.38813943D-02  0.20615028D-02  0.53172170D-03
 -0.54659183D-06  0.18931048D-03  0.24936439D-03  0.27510734D-03  0.22850827D-03
  0.12136629D-03  0.31303908D-04 -0.32179353D-07 -0.55970918D-02 -0.73485713D-02
 -0.83668890D-02 -0.70847380D-02 -0.40584107D-02 -0.92314763D-03  0.43208390D-03
 -0.26941799D-02 -0.35372607D-02 -0.40274316D-02 -0.34102636D-02 -0.19535303D-02
 -0.44436037D-03  0.20798511D-03 -0.15861753D-03 -0.20825319D-03 -0.23711158D-03
 -0.20077635D-03 -0.11501242D-03 -0.26161336D-04  0.12244945D-04 -0.30189058D-03
 -0.14531603D-03 -0.85549350D-05 -0.13045690D-03 -0.62795907D-04 -0.36970964D-05
 -0.25438238D-05 -0.12244790D-05 -0.72091795D-07  0.13444217D-03 -0.40876508D-04
 -0.93565657D-04  0.21968132D-03  0.12933888D-04  0.62260199D-05  0.40607498D-04
 -0.12346589D-04 -0.28260909D-04  0.66353379D-04  0.39064624D-05  0.18803866D-05
 -0.26190749D-04  0.79632016D-05  0.18227547D-04 -0.42796192D-04 -0.25196186D-05
 -0.12128305D-05  0.78929554D-04 -0.74061891D-04 -0.63430925D-05 -0.13452583D-04
  0.32968926D-03  0.19410277D-04 -0.22333608D-03 -0.10750358D-03 -0.38099976D-06
  0.24799847D-04 -0.18584953D-04  0.17438801D-04  0.14935637D-05  0.31675679D-05
 -0.77629476D-04 -0.45704259D-05  0.52587292D-04  0.25313074D-04  0.89734774D-07
 -0.58394373D-05  0.54016647D-04  0.10068008D-03  0.17072006D-03  0.25839276D-03
  0.32239872D-03  0.27689750D-03  0.10630634D-03 -0.47551476D-06 -0.39245221D-04
 -0.73605384D-04 -0.12548104D-03 -0.19610245D-03 -0.26222634D-03 -0.27999659D-03
 -0.17118443D-03  0.11293709D-03  0.35685439D-04  0.11816168D-03  0.61816497D-04
 -0.18977861D-03 -0.18402141D-03 -0.12413976D-03 -0.91350716D-04 -0.88579466D-04
 -0.59755185D-04 -0.53783507D-05 -0.52151910D-05 -0.35181370D-05 -0.21774908D-04
 -0.10481407D-04 -0.61706463D-06  0.73383494D-04  0.35323429D-04  0.20796869D-05
 -0.58268850D-05 -0.28047926D-05 -0.16513200D-06  0.31811832D-03 -0.96722562D-04
 -0.22139576D-03  0.51981170D-03  0.30603761D-04  0.14732035D-04 -0.13102138D-03
  0.39836539D-04  0.91184842D-04 -0.21409153D-03 -0.12604656D-04 -0.60673750D-05
 -0.45927336D-04  0.13964033D-04  0.31963302D-04 -0.75046173D-04 -0.44183584D-05
 -0.21267833D-05 -0.72804672D-04  0.68314732D-04  0.58508388D-05  0.12408860D-04
 -0.30410591D-03 -0.17903974D-04  0.20600516D-03  0.99161716D-04  0.35145722D-06
 -0.22875779D-04  0.57453580D-04 -0.53910343D-04 -0.46171894D-05 -0.97922645D-05
  0.23998398D-03  0.14129053D-04 -0.16256848D-03 -0.78252953D-04 -0.27748440D-06
  0.18052035D-04
MO    2     MO 0.0        OCC NO =    2.0000000  ORB. ENERGY =  -18.689849
  0.38360339D-04  0.71772342D-04  0.12400671D-03  0.20102933D-03  0.30527908D-03
  0.42430202D-03  0.50443390D-03  0.44931091D-03  0.22305139D-03  0.35937153D-04
  0.55173102D-06  0.98593792D-07  0.36842962D-08 -0.49468754D-04 -0.92400529D-04
 -0.16036560D-03 -0.26020820D-03 -0.40277139D-03 -0.57653065D-03 -0.75255258D-03
 -0.80197035D-03 -0.59948912D-03 -0.31645966D-04  0.40663495D-03  0.24158788D-03
 -0.90577342D-06  0.14374137D-04  0.26827255D-04  0.46623408D-04  0.75562829D-04
  0.11736090D-03  0.16812288D-03  0.22199060D-03  0.24003769D-03  0.18819266D-03
  0.93644045D-05 -0.16132869D-03 -0.16700510D-03  0.75572171D-04 -0.58312665D-03
  0.11969587D-02  0.28073061D-03  0.18464105D-01  0.24321370D-01  0.26832169D-01
  0.22287201D-01  0.11837274D-01  0.30531782D-02 -0.31385634D-05  0.88874326D-02
  0.11706743D-01  0.12915280D-01  0.10727625D-01  0.56977022D-02  0.14696036D-02
 -0.15107025D-05  0.52317101D-03  0.68913364D-03  0.76027585D-03  0.63149648D-03
  0.33540312D-03  0.86510249D-04 -0.88929595D-07 -0.16389955D-01 -0.21518809D-01
 -0.24500747D-01 -0.20746227D-01 -0.11884237D-01 -0.27032517D-02  0.12652706D-02
 -0.78890750D-02 -0.10357777D-01 -0.11793091D-01 -0.99859053D-02 -0.57203111D-02
 -0.13011723D-02  0.60902025D-03 -0.46439625D-03 -0.60971823D-03 -0.69420906D-03
 -0.58782772D-03 -0.33673035D-03 -0.76594472D-04  0.35850428D-04 -0.11937283D-02
 -0.57458168D-03 -0.33826812D-04  0.42394003D-03  0.20405698D-03  0.12005198D-04
  0.11484784D-04  0.55283330D-05  0.32566004D-06  0.16850126D-05 -0.51005194D-06
 -0.11749607D-05  0.27685123D-05  0.15841067D-06  0.72957262D-07  0.37808376D-03
 -0.11496167D-03 -0.26312210D-03  0.61775971D-03  0.36362168D-04  0.17504773D-04
  0.35324134D-04 -0.10740820D-04 -0.24583314D-04  0.57716082D-04  0.33934164D-05
  0.16336796D-05  0.13377004D-03 -0.12551812D-03 -0.10753694D-04 -0.22807494D-04
  0.55874518D-03  0.32908855D-04 -0.37850264D-03 -0.18219082D-03 -0.64777366D-06
  0.42041971D-04  0.25563123D-04 -0.23982246D-04 -0.20523821D-05 -0.43644625D-05
  0.10675803D-03  0.62790526D-05 -0.72324905D-04 -0.34811286D-04 -0.12190624D-06
  0.80263104D-05  0.49838048D+00  0.92891708D+00  0.15751356D+01  0.23840411D+01
  0.29745872D+01  0.25547737D+01  0.98082730D+00 -0.43873007D-02 -0.40435690D-03
 -0.75838139D-03 -0.12928740D-02 -0.20205104D-02 -0.27018074D-02 -0.28849004D-02
 -0.17637716D-02  0.11636294D-02  0.50261911D-01 -0.12046178D-02 -0.52093087D-03
 -0.58508493D-02 -0.56733557D-02 -0.38272123D-02 -0.28162428D-02 -0.27308081D-02
 -0.18421870D-02 -0.16511275D-03 -0.16010382D-03 -0.10800509D-03  0.81423774D-03
  0.39189452D-03  0.22909730D-04  0.93918455D-03  0.45210514D-03  0.26650072D-04
  0.52142589D-04  0.25099416D-04  0.14775949D-05  0.52935714D-03 -0.16061405D-03
 -0.36874309D-03  0.86587778D-03  0.51304211D-04  0.25200491D-04 -0.53626815D-03
  0.16304742D-03  0.37322073D-03 -0.87631042D-03 -0.51558584D-04 -0.24799260D-04
 -0.12891716D-03  0.39191947D-04  0.89725211D-04 -0.21067135D-03 -0.12416788D-04
 -0.59794892D-05  0.57678375D-05 -0.52153832D-05 -0.28080718D-06 -0.20672315D-05
  0.23085503D-04  0.13728929D-05 -0.15236281D-04 -0.74393536D-05 -0.53047136D-06
  0.53372852D-06  0.94376655D-04 -0.88572637D-04 -0.75954144D-05 -0.16016377D-04
  0.39430160D-03  0.23225868D-04 -0.26711359D-03 -0.12858369D-03 -0.43962474D-06
  0.29720141D-04
MO    3     MO 0.0        OCC NO =    2.0000000  ORB. ENERGY =   -9.183339
 -0.29263354D-03 -0.54751847D-03 -0.94599063D-03 -0.15335611D-02 -0.23288349D-02
 -0.32368067D-02 -0.38480962D-02 -0.34275881D-02 -0.17015574D-02 -0.27414816D-03
 -0.42089044D-05 -0.75212709D-06 -0.28105816D-07 -0.17295287D+00 -0.32305113D+00
 -0.56067091D+00 -0.90974103D+00 -0.14081711D+01 -0.20156689D+01 -0.26310776D+01
 -0.28038522D+01 -0.20959364D+01 -0.11064076D+00  0.14216789D+01  0.84464059D+00
 -0.31667690D-02  0.38571775D-03  0.71988661D-03  0.12510996D-02  0.20276644D-02
  0.31492802D-02  0.45114348D-02  0.59569292D-02  0.64412075D-02  0.50499902D-02
  0.25128584D-03 -0.43291184D-02 -0.44814401D-02  0.20279150D-02  0.57489794D-01
  0.43426469D-04  0.42069009D-05  0.67485407D-01  0.88893426D-01  0.98070273D-01
  0.81458635D-01  0.43264660D-01  0.11159218D-01 -0.11471297D-04  0.32484311D-01
  0.42789128D-01  0.47206433D-01  0.39210368D-01  0.20825579D-01  0.53715244D-02
 -0.55217444D-05  0.19116302D-02  0.25180461D-02  0.27779947D-02  0.23074439D-02
  0.12255395D-02  0.31610239D-03 -0.32494251D-06 -0.28387542D-02 -0.37270761D-02
 -0.42435504D-02 -0.35932642D-02 -0.20583601D-02 -0.46820550D-03  0.21914594D-03
 -0.13664092D-02 -0.17939950D-02 -0.20425953D-02 -0.17295858D-02 -0.99077336D-03
 -0.22536657D-03  0.10548396D-03 -0.80516370D-04 -0.10571209D-03 -0.12036099D-03
 -0.10191675D-03 -0.58381836D-04 -0.13279842D-04  0.62156970D-05  0.83611035D-03
  0.40245268D-03  0.23688368D-04 -0.31478609D-04 -0.15152605D-04 -0.89388815D-06
  0.11053737D-05  0.53211726D-06  0.31465763D-07  0.92312620D-03 -0.28066860D-03
 -0.64245760D-03  0.15083799D-02  0.88916109D-04  0.42668375D-04 -0.23655961D-04
  0.71896687D-05  0.16466292D-04 -0.38658928D-04 -0.22915897D-05 -0.10791013D-05
 -0.63074291D-05  0.19178858D-05  0.43895433D-05 -0.10306241D-04 -0.60601507D-06
 -0.29353918D-06  0.54743730D-04 -0.51354309D-04 -0.43953899D-05 -0.93573595D-05
  0.22863954D-03  0.13438142D-04 -0.15487383D-03 -0.74576607D-04 -0.25197261D-06
  0.17236357D-04 -0.12285158D-04  0.11526533D-04  0.98698896D-06  0.20943913D-05
 -0.51313817D-04 -0.30223373D-05  0.34761084D-04  0.16734217D-04  0.61370404D-07
 -0.38611289D-05  0.86565015D-04  0.16134605D-03  0.27358944D-03  0.41409036D-03
  0.51666387D-03  0.44374536D-03  0.17036247D-03 -0.76204179D-06 -0.68683059D-04
 -0.12881678D-03 -0.21960437D-03 -0.34319889D-03 -0.45892230D-03 -0.49002203D-03
 -0.29958986D-03  0.19765119D-03  0.31970272D-04 -0.45768527D-04 -0.25393187D-04
 -0.29957623D-03 -0.29048817D-03 -0.19596160D-03 -0.14420679D-03 -0.13983208D-03
 -0.94329895D-04 -0.84925402D-05 -0.82349072D-05 -0.55552198D-05 -0.93436291D-04
 -0.44974699D-04 -0.26473192D-05  0.11834502D-03  0.56966771D-04  0.33555834D-05
  0.21456505D-05  0.10327547D-05  0.60758908D-07  0.58450737D-03 -0.17771270D-03
 -0.40679466D-03  0.95512352D-03  0.56239845D-04  0.27083799D-04 -0.16606219D-03
  0.50489203D-04  0.11557299D-03 -0.27135821D-03 -0.15979113D-04 -0.76954666D-05
 -0.31343673D-04  0.95299327D-05  0.21813740D-04 -0.51216950D-04 -0.30160530D-05
 -0.14518626D-05  0.47771602D-04 -0.44823579D-04 -0.38380637D-05 -0.81356005D-05
  0.19953413D-03  0.11741798D-04 -0.13517921D-03 -0.65063391D-04 -0.22760653D-06
  0.15011613D-04  0.50463753D-04 -0.47353640D-04 -0.40560838D-05 -0.85991964D-05
  0.21079637D-03  0.12411009D-04 -0.14279206D-03 -0.68735448D-04 -0.24275703D-06
  0.15860156D-04
MO    4     MO 0.0        OCC NO =    2.0000000  ORB. ENERGY =   -6.893511
 -0.32208398D-04 -0.60262036D-04 -0.10411945D-03 -0.16878977D-03 -0.25632073D-03
 -0.35625567D-03 -0.42353660D-03 -0.37725383D-03 -0.18728010D-03 -0.30173824D-04
 -0.46324858D-06 -0.82782065D-07 -0.30934366D-08  0.11105229D-02  0.20742973D-02
  0.36000436D-02  0.58414078D-02  0.90418055D-02  0.12942523D-01  0.16894035D-01
  0.18003414D-01  0.13457917D-01  0.71041955D-03 -0.91285385D-02 -0.54234007D-02
  0.20333687D-04  0.80690589D-05  0.15059736D-04  0.26172495D-04  0.42417915D-04
  0.65881664D-04  0.94377384D-04  0.12461654D-03  0.13474745D-03  0.10564375D-03
  0.52567978D-05 -0.90563400D-04 -0.93749908D-04  0.42423160D-04 -0.28401078D-03
  0.27044743D-03  0.98461594D-04  0.10386286D+02  0.13681069D+02  0.15093424D+02
  0.12536824D+02  0.66586116D+01  0.17174502D+01 -0.17654804D-02  0.49996140D+01
  0.65856136D+01  0.72654746D+01  0.60348118D+01  0.32052352D+01  0.82672364D+00
 -0.84984380D-03  0.29445568D+00  0.38786421D+00  0.42790509D+00  0.35542436D+00
  0.18877451D+00  0.48690453D-01 -0.50052131D-04 -0.12230685D-01 -0.16057992D-01
 -0.18283206D-01 -0.15481468D-01 -0.88683807D-02 -0.20172489D-02  0.94418352D-03
 -0.58872669D-02 -0.77295499D-02 -0.88006612D-02 -0.74520385D-02 -0.42688145D-02
 -0.97100721D-03  0.45448481D-03 -0.34664875D-03 -0.45512439D-03 -0.51819260D-03
 -0.43878421D-03 -0.25135249D-03 -0.57173971D-04  0.26760565D-04  0.81032174D-01
  0.39006198D-01  0.22973247D-02  0.16253072D-03  0.78234586D-04  0.46052164D-05
  0.23179602D-05  0.11157424D-05  0.65692902D-07  0.10725970D-02 -0.32610050D-03
 -0.74649653D-03  0.17526563D-02  0.10328009D-03  0.49622441D-04  0.12709965D-04
 -0.38705634D-05 -0.88394016D-05  0.20754594D-04  0.12041258D-05  0.60769415D-06
  0.86489730D-05 -0.26295637D-05 -0.60194092D-05  0.14132439D-04  0.83253891D-06
  0.39837998D-06  0.18079761D-03 -0.16963247D-03 -0.14537159D-04 -0.30828964D-04
  0.75518549D-03  0.44448223D-04 -0.51156387D-03 -0.24628807D-03 -0.83674587D-06
  0.56886223D-04 -0.14413110D-04  0.13523887D-04  0.11592674D-05  0.24537394D-05
 -0.60206268D-04 -0.35472892D-05  0.40785591D-04  0.19634606D-04  0.69486964D-07
 -0.45328760D-05  0.12101102D-03  0.22554897D-03  0.38245631D-03  0.57886544D-03
  0.72225506D-03  0.62032077D-03  0.23815321D-03 -0.10652739D-05 -0.11400074D-03
 -0.21381121D-03 -0.36450125D-03 -0.56964450D-03 -0.76172324D-03 -0.81334283D-03
 -0.49726186D-03  0.32806317D-03  0.14778155D-03 -0.32032966D-03 -0.17518550D-03
 -0.87166547D-03 -0.84522229D-03 -0.57018196D-03 -0.41958609D-03 -0.40685737D-03
 -0.27446358D-03 -0.24705110D-04 -0.23955647D-04 -0.16160338D-04 -0.22968431D-04
 -0.11054940D-04 -0.65143412D-06  0.25164430D-03  0.12113461D-03  0.71353277D-05
  0.19541008D-04  0.94060923D-05  0.55383395D-06  0.10070651D-02 -0.30618488D-03
 -0.70088026D-03  0.16456048D-02  0.96891118D-04  0.46655406D-04 -0.32878890D-03
  0.99964190D-04  0.22882471D-03 -0.53726259D-03 -0.31633528D-04 -0.15231272D-04
 -0.27569866D-04  0.83820942D-05  0.19187772D-04 -0.45053732D-04 -0.26544884D-05
 -0.12777802D-05  0.30779555D-03 -0.28880281D-03 -0.24730057D-04 -0.52461734D-04
  0.12856295D-02  0.75684463D-04 -0.87092492D-03 -0.41922105D-03 -0.14942932D-05
  0.96687201D-04  0.46111363D-04 -0.43272218D-04 -0.37070766D-05 -0.78542931D-05
  0.19262554D-03  0.11341141D-04 -0.13047980D-03 -0.62808882D-04 -0.21991102D-06
  0.14496671D-04
MO    5     MO 0.0        OCC NO =    2.0000000  ORB. ENERGY =   -6.881965
 -0.51410621D-08 -0.96189470D-08 -0.16619409D-07 -0.26942001D-07 -0.40913578D-07
 -0.56865062D-07 -0.67604356D-07 -0.60216760D-07 -0.29893403D-07 -0.48163061D-08
 -0.73943128D-10 -0.13213564D-10 -0.49377029D-12 -0.44945459D-08 -0.83951663D-08
 -0.14570218D-07 -0.23641543D-07 -0.36594301D-07 -0.52381417D-07 -0.68374111D-07
 -0.72864025D-07 -0.54467338D-07 -0.28752340D-08  0.36945330D-07  0.21949771D-07
 -0.82295183D-10 -0.41779426D-08 -0.77975279D-08 -0.13551417D-07 -0.21962861D-07
 -0.34111761D-07 -0.48866082D-07 -0.64523108D-07 -0.69768620D-07 -0.54699503D-07
 -0.27218292D-08  0.46891303D-07  0.48541192D-07 -0.21965576D-07  0.34175204D-07
 -0.17174205D-07 -0.36942510D-08 -0.50053075D+01 -0.65931134D+01 -0.72737486D+01
 -0.60416843D+01 -0.32088853D+01 -0.82766512D+00  0.85081161D-03  0.10388010D+02
  0.13683340D+02  0.15095930D+02  0.12538905D+02  0.66597171D+01  0.17177353D+01
 -0.17657735D-02  0.17153023D+00  0.22594381D+00  0.24926895D+00  0.20704651D+00
  0.10996743D+00  0.28363809D-01 -0.29157031D-04  0.46445438D-02  0.60979455D-02
  0.69429596D-02  0.58790130D-02  0.33677250D-02  0.76604060D-03 -0.35854916D-03
 -0.96382168D-02 -0.12654272D-01 -0.14407820D-01 -0.12199950D-01 -0.69886011D-02
 -0.15896643D-02  0.74405037D-03 -0.15976228D-03 -0.20975616D-03 -0.23882282D-03
 -0.20222535D-03 -0.11584247D-03 -0.26350142D-04  0.12333317D-04 -0.38575884D-01
  0.80060399D-01  0.13218354D-02 -0.30105751D-04  0.62467547D-04  0.10306858D-05
  0.17656577D-05 -0.36647247D-05 -0.60585378D-07 -0.70297654D-03  0.70229065D-03
  0.68588454D-06  0.11206240D-02  0.40858497D-05  0.52861211D-04  0.30205064D-04
 -0.30179146D-04 -0.25917965D-07 -0.48182979D-04 -0.14308512D-06 -0.22488717D-05
 -0.76771201D-06  0.76669085D-06  0.10211515D-08  0.12238291D-05  0.32865187D-08
  0.55972928D-07 -0.15398497D-03 -0.62568448D-05 -0.17194249D-05  0.41136204D-03
  0.12281426D-03 -0.62788237D-05  0.50592857D-04 -0.10404373D-03  0.11437098D-04
  0.25338551D-04  0.13031985D-04  0.53092279D-06  0.14392827D-06 -0.34814505D-04
 -0.10397127D-04  0.53777418D-06 -0.42814507D-05  0.88043586D-05 -0.96955899D-06
 -0.21383244D-05 -0.47808343D-08 -0.89108600D-08 -0.15109866D-07 -0.22869486D-07
 -0.28534442D-07 -0.24507280D-07 -0.94088213D-08  0.42086235D-10  0.39007454D-08
  0.73159446D-08  0.12472082D-07  0.19491436D-07  0.26063764D-07  0.27830023D-07
  0.17014731D-07 -0.11225286D-07 -0.69385299D-08  0.24223732D-07  0.70890061D-08
 -0.10959533D-04 -0.10627060D-04 -0.71689521D-05  0.22824784D-04  0.22132363D-04
  0.14930361D-04  0.39033584D-06  0.37849447D-06  0.25533013D-06 -0.17496831D-04
  0.36283278D-04  0.59540376D-06 -0.27596407D-05  0.56847153D-05  0.85443604D-07
  0.99937454D-07 -0.20932874D-06 -0.30325754D-08  0.17810244D-03 -0.17794165D-03
 -0.16079953D-06 -0.28400698D-03 -0.11177544D-05 -0.13447281D-04 -0.15155511D-04
  0.15148005D-04  0.75060492D-08  0.24206550D-04  0.11915027D-06  0.11573074D-05
  0.37167073D-05 -0.37113980D-05 -0.53093194D-08 -0.59179577D-05 -0.16459444D-07
 -0.27639422D-06 -0.41153730D-04 -0.16726117D-05 -0.45999016D-06  0.10992264D-03
  0.32801743D-04 -0.16865881D-05  0.13538548D-04 -0.27783908D-04  0.30665586D-05
  0.67255375D-05  0.28304996D-04  0.11563821D-05  0.32189130D-06 -0.75614567D-04
 -0.22590548D-04  0.11433681D-05 -0.93004213D-05  0.19121402D-04 -0.21090420D-05
 -0.46536957D-05
MO    6     MO 0.0        OCC NO =    2.0000000  ORB. ENERGY =   -6.881965
  0.83107176D-08  0.15549385D-07  0.26865892D-07  0.43552744D-07  0.66138316D-07
  0.91924482D-07  0.10928495D-06  0.97342626D-07  0.48323794D-07  0.77857375D-08
  0.11953181D-09  0.21360217D-10  0.79819798D-12 -0.37759993D-07 -0.70530245D-07
 -0.12240866D-06 -0.19861951D-06 -0.30743941D-06 -0.44007159D-06 -0.57443088D-06
 -0.61215196D-06 -0.45759602D-06 -0.24155681D-07  0.31038851D-06  0.18440643D-06
 -0.69138588D-09  0.78163187D-08  0.14588033D-07  0.25352717D-07  0.41089295D-07
  0.63818109D-07  0.91421283D-07  0.12071329D-06  0.13052687D-06  0.10233476D-06
  0.50921437D-08 -0.87726760D-07 -0.90813460D-07  0.41094375D-07 -0.15017898D-07
 -0.18500425D-07 -0.99056244D-09 -0.19090174D+00 -0.25146043D+00 -0.27741976D+00
 -0.23042900D+00 -0.12238644D+00 -0.31567033D-01  0.32449837D-04 -0.28232244D+00
 -0.37188202D+00 -0.41027299D+00 -0.34077887D+00 -0.18099594D+00 -0.46684132D-01
  0.47989701D-04  0.11527235D+02  0.15183955D+02  0.16751459D+02  0.13914013D+02
  0.73900701D+01  0.19061146D+01 -0.19594210D-02  0.17744588D-03  0.23297343D-03
  0.26525740D-03  0.22460907D-03  0.12866472D-03  0.29266760D-04 -0.13698455D-04
  0.26141938D-03  0.34322449D-03  0.39078633D-03  0.33090181D-03  0.18955330D-03
  0.43116799D-04 -0.20181035D-04 -0.10695722D-01 -0.14042699D-01 -0.15988646D-01
 -0.13538529D-01 -0.77553907D-02 -0.17640823D-02  0.82568761D-03 -0.14711874D-02
 -0.21759784D-02  0.88840329D-01 -0.11521663D-05 -0.17006050D-05  0.69323997D-04
  0.67389424D-07  0.99541309D-07 -0.40666086D-05 -0.26757781D-04 -0.19147986D-04
  0.45905767D-04 -0.52588809D-04  0.16181761D-02  0.77812708D-03  0.11315687D-05
  0.84139661D-06 -0.19729653D-05  0.22781519D-05 -0.69526876D-04 -0.33440116D-04
 -0.28796529D-07 -0.21671434D-07  0.50467963D-07 -0.58862366D-07  0.17677640D-05
  0.85038811D-06 -0.58998041D-05  0.17071066D-06 -0.11563189D-03 -0.10925102D-04
 -0.16175284D-04  0.35422057D-03  0.28624515D-04  0.15663152D-04 -0.73249125D-05
  0.45217702D-03  0.49738026D-06 -0.15509757D-07  0.97854620D-05  0.93409932D-06
  0.13689077D-05 -0.29971593D-04 -0.24262401D-05 -0.13223785D-05  0.61520737D-06
 -0.38263700D-04 -0.11075575D-08 -0.20643446D-08 -0.35004444D-08 -0.52980857D-08
 -0.66104641D-08 -0.56775071D-08 -0.21797054D-08  0.97499558D-11  0.11332624D-08
  0.21254618D-08  0.36234464D-08  0.56627413D-08  0.75721642D-08  0.80853059D-08
  0.49431975D-08 -0.32612215D-08 -0.34948757D-08  0.97258927D-08  0.34663129D-08
 -0.40879095D-06 -0.39638971D-06 -0.26740216D-06 -0.60074472D-06 -0.58252030D-06
 -0.39296475D-06  0.25314243D-04  0.24546300D-04  0.16558789D-04 -0.67128491D-06
 -0.99225668D-06  0.40270070D-04 -0.10505058D-06 -0.16371157D-06  0.63058957D-05
  0.31322595D-08  0.58270298D-08 -0.23197412D-06  0.68064523D-05  0.48128518D-05
 -0.11619304D-04  0.13258518D-04 -0.41008534D-03 -0.19721854D-03 -0.58556347D-06
 -0.40127266D-06  0.98683613D-06 -0.11066464D-05  0.34935368D-04  0.16805654D-04
  0.13857243D-06  0.10294717D-06 -0.24151960D-06  0.28103610D-06 -0.85439727D-05
 -0.41090628D-05 -0.15743780D-05  0.53484013D-07 -0.30911856D-04 -0.29399859D-05
 -0.43489991D-05  0.94684740D-04  0.76631199D-05  0.41885470D-05 -0.19491731D-05
  0.12086890D-03  0.10869501D-05 -0.31638984D-07  0.21261995D-04  0.20015952D-05
  0.29721264D-05 -0.65123052D-04 -0.52624454D-05 -0.28772094D-05  0.13370677D-05
 -0.83150771D-04
MO    7     MO 0.0        OCC NO =    2.0000000  ORB. ENERGY =   -0.682605
  0.15027448D-02  0.28116413D-02  0.48578932D-02  0.78752115D-02  0.11959137D-01
  0.16621794D-01  0.19760915D-01  0.17601503D-01  0.87379133D-02  0.14078178D-02
  0.21613754D-04  0.38623565D-05  0.14433024D-06 -0.11464510D-02 -0.21414059D-02
 -0.37165139D-02 -0.60303916D-02 -0.93343300D-02 -0.13361245D-01 -0.17440599D-01
 -0.18585868D-01 -0.13893314D-01 -0.73340336D-03  0.94238691D-02  0.55988610D-02
 -0.20991531D-04  0.29432952D-01  0.54932363D-01  0.95467612D-01  0.15472491D+00
  0.24031202D+00  0.34425390D+00  0.45455520D+00  0.49150900D+00  0.38534943D+00
  0.19174860D-01 -0.33034189D+00 -0.34196510D+00  0.15474404D+00  0.20014828D-01
  0.34455265D-01 -0.53959251D-03 -0.53307321D-01 -0.70217705D-01 -0.77466578D-01
 -0.64344898D-01 -0.34175138D-01 -0.88147650D-02  0.90612788D-05 -0.25662395D-01
 -0.33803134D-01 -0.37292775D-01 -0.30975937D-01 -0.16452072D-01 -0.42434694D-02
  0.43621423D-05 -0.15167978D-02 -0.19979631D-02 -0.22042214D-02 -0.18308592D-02
 -0.97241381D-03 -0.25081389D-03  0.25782815D-06 -0.54264281D+00 -0.71245023D+00
 -0.81117700D+00 -0.68687137D+00 -0.39346636D+00 -0.89499947D-01  0.41890901D-01
 -0.26120027D+00 -0.34293681D+00 -0.39045878D+00 -0.33062446D+00 -0.18939442D+00
 -0.43080660D-01  0.20164120D-01 -0.15373918D-01 -0.20184827D-01 -0.22981911D-01
 -0.19460138D-01 -0.11147516D-01 -0.25356732D-02  0.11868346D-02  0.61095115D-01
  0.29408731D-01  0.17323725D-02  0.10502213D-02  0.50548633D-03  0.29796833D-04
 -0.81922647D-04 -0.39426539D-04 -0.23077986D-05  0.29340030D-01 -0.89203922D-02
 -0.20419637D-01  0.47942557D-01  0.28238322D-02  0.13591154D-02  0.52033219D-02
 -0.15821637D-02 -0.36211582D-02  0.85021611D-02  0.50016135D-03  0.24142116D-03
 -0.19116944D-03  0.58131813D-04  0.13303763D-03 -0.31242802D-03 -0.18369033D-04
 -0.88546458D-05  0.22728372D-02 -0.21329879D-02 -0.18302788D-03 -0.38728915D-03
  0.94943896D-02  0.55817068D-03 -0.64312225D-02 -0.30954258D-02 -0.90870250D-05
  0.71593950D-03  0.14440192D-03 -0.13534104D-03 -0.11534891D-04 -0.24753663D-04
  0.60290530D-03  0.35512863D-04 -0.40845210D-03 -0.19688217D-03 -0.90818952D-06
  0.45366147D-04 -0.26913467D-02 -0.50163240D-02 -0.85060234D-02 -0.12874263D-01
 -0.16063321D-01 -0.13796250D-01 -0.52966488D-02  0.23692235D-04 -0.80961469D-01
 -0.15184524D+00 -0.25886285D+00 -0.40455225D+00 -0.54096344D+00 -0.57762283D+00
 -0.35314727D+00  0.23298512D+00  0.12143957D+00  0.56935490D-01  0.52324597D-03
 -0.24689069D+00 -0.23940092D+00 -0.16149844D+00 -0.11884627D+00 -0.11524091D+00
 -0.77740835D-01 -0.70055704D-02 -0.67930467D-02 -0.45825492D-02 -0.70500201D-01
 -0.33936004D-01 -0.19994928D-02 -0.15764378D-02 -0.75859840D-03 -0.44559951D-04
  0.21242243D-03  0.10222543D-03  0.59723413D-05  0.16746166D-01 -0.50864745D-02
 -0.11659692D-01  0.27373412D-01  0.16272257D-02  0.77192185D-03  0.95015154D-02
 -0.28895242D-02 -0.66119912D-02  0.15524583D-01  0.91122446D-03  0.44307760D-03
 -0.73622583D-03  0.22388118D-03  0.51234465D-03 -0.12029121D-02 -0.70331409D-04
 -0.34641906D-04 -0.34967234D-02  0.32841946D-02  0.28469977D-03  0.58608135D-03
 -0.14600381D-01 -0.85332034D-03  0.99040888D-02  0.47477976D-02 -0.77897992D-06
 -0.11049503D-02 -0.50562344D-03  0.47414401D-03  0.40231606D-04  0.86929922D-04
 -0.21131894D-02 -0.12545867D-03  0.14299404D-02  0.69075736D-03  0.47638542D-05
 -0.15875706D-03
MO    8     MO 0.0        OCC NO =    2.0000000  ORB. ENERGY =   -0.450339
  0.14078990D-02  0.26341844D-02  0.45512871D-02  0.73781672D-02  0.11204336D-01
  0.15572709D-01  0.18513704D-01  0.16490584D-01  0.81864196D-02  0.13189634D-02
  0.20249601D-04  0.36185838D-05  0.13522083D-06 -0.20172273D-02 -0.37678910D-02
 -0.65393576D-02 -0.10610720D-01 -0.16424134D-01 -0.23509656D-01 -0.30687445D-01
 -0.32702593D-01 -0.24445852D-01 -0.12904531D-02  0.16581682D-01  0.98514241D-02
 -0.36935454D-04  0.43838949D-01  0.81819081D-01  0.14219436D+00  0.23045523D+00
  0.35793305D+00  0.51274943D+00  0.67703784D+00  0.73207874D+00  0.57395922D+00
  0.28560021D-01 -0.49202817D+00 -0.50934037D+00  0.23048372D+00  0.39434745D-01