 Molden2AIM, Version 4.0.0 (06/02/2016)           Time: Fri Jun 29 22:58:50 2018
GAUSSIAN             20 MOL ORBITALS    338 PRIMITIVES        2 NUCLEI
  C    1    (CENTRE  1)   0.00000000  0.00000000 -0.16165473  CHARGE =  6.0
  Se   2    (CENTRE  2)   0.00000000  0.00000000  2.99624392  CHARGE = 34.0
CENTRE ASSIGNMENTS    1  1  1  1  1  1  1  1  1  1  1  1  1  1  1  1  1  1  1  1
CENTRE ASSIGNMENTS    1  1  1  1  1  1  1  1  1  1  1  1  1  1  1  1  1  1  1  1
CENTRE ASSIGNMENTS    1  1  1  1  1  1  1  1  1  1  1  1  1  1  1  1  1  1  1  1
CENTRE ASSIGNMENTS    1  1  1  1  1  1  1  1  1  1  1  1  1  1  1  2  2  2  2  2
CENTRE ASSIGNMENTS    2  2  2  2  2  2  2  2  2  2  2  2  2  2  2  2  2  2  2  2
CENTRE ASSIGNMENTS    2  2  2  2  2  2  2  2  2  2  2  2  2  2  2  2  2  2  2  2
CENTRE ASSIGNMENTS    2  2  2  2  2  2  2  2  2  2  2  2  2  2  2  2  2  2  2  2
CENTRE ASSIGNMENTS    2  2  2  2  2  2  2  2  2  2  2  2  2  2  2  2  2  2  2  2
CENTRE ASSIGNMENTS    2  2  2  2  2  2  2  2  2  2  2  2  2  2  2  2  2  2  2  2
CENTRE ASSIGNMENTS    2  2  2  2  2  2  2  2  2  2  2  2  2  2  2  2  2  2  2  2
CENTRE ASSIGNMENTS    2  2  2  2  2  2  2  2  2  2  2  2  2  2  2  2  2  2  2  2
CENTRE ASSIGNMENTS    2  2  2  2  2  2  2  2  2  2  2  2  2  2  2  2  2  2  2  2
CENTRE ASSIGNMENTS    2  2  2  2  2  2  2  2  2  2  2  2  2  2  2  2  2  2  2  2
CENTRE ASSIGNMENTS    2  2  2  2  2  2  2  2  2  2  2  2  2  2  2  2  2  2  2  2
CENTRE ASSIGNMENTS    2  2  2  2  2  2  2  2  2  2  2  2  2  2  2  2  2  2  2  2
CENTRE ASSIGNMENTS    2  2  2  2  2  2  2  2  2  2  2  2  2  2  2  2  2  2  2  2
CENTRE ASSIGNMENTS    2  2  2  2  2  2  2  2  2  2  2  2  2  2  2  2  2  2
TYPE ASSIGNMENTS      1  1  1  1  1  1  1  1  1  1  1  1  1  1  1  1  1  1  1  2
TYPE ASSIGNMENTS      2  2  3  3  3  4  4  4  2  3  4  2  3  4  2  3  4  5  6  7
TYPE ASSIGNMENTS      8  9 10  5  6  7  8  9 10  5  6  7  8  9 10 11 12 13 17 14
TYPE ASSIGNMENTS     15 18 19 16 20 11 12 13 17 14 15 18 19 16 20  1  1  1  1  1
TYPE ASSIGNMENTS      1  1  1  1  1  1  1  1  1  1  1  1  1  1  1  1  1  1  1  1
TYPE ASSIGNMENTS      1  1  1  1  1  1  1  1  1  1  1  1  1  1  1  1  1  1  1  1
TYPE ASSIGNMENTS      1  1  1  1  1  1  1  1  1  1  1  1  1  1  1  1  1  1  1  1
TYPE ASSIGNMENTS      1  1  1  1  1  1  1  1  1  1  2  2  2  2  2  2  2  2  2  2
TYPE ASSIGNMENTS      2  3  3  3  3  3  3  3  3  3  3  3  4  4  4  4  4  4  4  4
TYPE ASSIGNMENTS      4  4  4  2  2  2  2  2  2  2  2  2  2  2  3  3  3  3  3  3
TYPE ASSIGNMENTS      3  3  3  3  3  4  4  4  4  4  4  4  4  4  4  4  2  2  2  2
TYPE ASSIGNMENTS      2  2  2  2  2  2  2  3  3  3  3  3  3  3  3  3  3  3  4  4
TYPE ASSIGNMENTS      4  4  4  4  4  4  4  4  4  2  3  4  2  3  4  2  3  4  5  5
TYPE ASSIGNMENTS      5  5  5  5  5  6  6  6  6  6  6  6  7  7  7  7  7  7  7  8
TYPE ASSIGNMENTS      8  8  8  8  8  8  9  9  9  9  9  9  9 10 10 10 10 10 10 10
TYPE ASSIGNMENTS      5  6  7  8  9 10  5  6  7  8  9 10  5  6  7  8  9 10 11 12
TYPE ASSIGNMENTS     13 17 14 15 18 19 16 20 11 12 13 17 14 15 18 19 16 20
EXPONENTS  0.8236000D+04 0.1235000D+04 0.2808000D+03 0.7927000D+02 0.2559000D+02
EXPONENTS  0.8997000D+01 0.3319000D+01 0.3643000D+00 0.8236000D+04 0.1235000D+04
EXPONENTS  0.2808000D+03 0.7927000D+02 0.2559000D+02 0.8997000D+01 0.3319000D+01
EXPONENTS  0.3643000D+00 0.9059000D+00 0.1285000D+00 0.4402000D-01 0.1871000D+02
EXPONENTS  0.4133000D+01 0.1200000D+01 0.1871000D+02 0.4133000D+01 0.1200000D+01
EXPONENTS  0.1871000D+02 0.4133000D+01 0.1200000D+01 0.3827000D+00 0.3827000D+00
EXPONENTS  0.3827000D+00 0.1209000D+00 0.1209000D+00 0.1209000D+00 0.3569000D-01
EXPONENTS  0.3569000D-01 0.3569000D-01 0.1097000D+01 0.1097000D+01 0.1097000D+01
EXPONENTS  0.1097000D+01 0.1097000D+01 0.1097000D+01 0.3180000D+00 0.3180000D+00
EXPONENTS  0.3180000D+00 0.3180000D+00 0.3180000D+00 0.3180000D+00 0.1000000D+00
EXPONENTS  0.1000000D+00 0.1000000D+00 0.1000000D+00 0.1000000D+00 0.1000000D+00
EXPONENTS  0.7610000D+00 0.7610000D+00 0.7610000D+00 0.7610000D+00 0.7610000D+00
EXPONENTS  0.7610000D+00 0.7610000D+00 0.7610000D+00 0.7610000D+00 0.7610000D+00
EXPONENTS  0.2680000D+00 0.2680000D+00 0.2680000D+00 0.2680000D+00 0.2680000D+00
EXPONENTS  0.2680000D+00 0.2680000D+00 0.2680000D+00 0.2680000D+00 0.2680000D+00
EXPONENTS  0.9563600D+07 0.1432100D+07 0.3259100D+06 0.9231200D+05 0.3011600D+05
EXPONENTS  0.1087200D+05 0.4240100D+04 0.1758400D+04 0.7665900D+03 0.3484300D+03
EXPONENTS  0.1640300D+03 0.7914200D+02 0.3552400D+02 0.1730500D+02 0.8378400D+01
EXPONENTS  0.3740500D+01 0.1689000D+01 0.2552000D+00 0.9563600D+07 0.1432100D+07
EXPONENTS  0.3259100D+06 0.9231200D+05 0.3011600D+05 0.1087200D+05 0.4240100D+04
EXPONENTS  0.1758400D+04 0.7665900D+03 0.3484300D+03 0.1640300D+03 0.7914200D+02
EXPONENTS  0.3552400D+02 0.1730500D+02 0.8378400D+01 0.3740500D+01 0.1689000D+01
EXPONENTS  0.2552000D+00 0.9563600D+07 0.1432100D+07 0.3259100D+06 0.9231200D+05
EXPONENTS  0.3011600D+05 0.1087200D+05 0.4240100D+04 0.1758400D+04 0.7665900D+03
EXPONENTS  0.3484300D+03 0.1640300D+03 0.7914200D+02 0.3552400D+02 0.1730500D+02
EXPONENTS  0.8378400D+01 0.3740500D+01 0.1689000D+01 0.2552000D+00 0.9563600D+07
EXPONENTS  0.1432100D+07 0.3259100D+06 0.9231200D+05 0.3011600D+05 0.1087200D+05
EXPONENTS  0.4240100D+04 0.1758400D+04 0.7665900D+03 0.3484300D+03 0.1640300D+03
EXPONENTS  0.7914200D+02 0.3552400D+02 0.1730500D+02 0.8378400D+01 0.3740500D+01
EXPONENTS  0.1689000D+01 0.2552000D+00 0.5092700D+00 0.1065100D+00 0.3920100D-01
EXPONENTS  0.8004300D+04 0.1896900D+04 0.6147100D+03 0.2335000D+03 0.9785600D+02
EXPONENTS  0.4351400D+02 0.2006300D+02 0.9112700D+01 0.4106300D+01 0.1794900D+01
EXPONENTS  0.2461500D+00 0.8004300D+04 0.1896900D+04 0.6147100D+03 0.2335000D+03
EXPONENTS  0.9785600D+02 0.4351400D+02 0.2006300D+02 0.9112700D+01 0.4106300D+01
EXPONENTS  0.1794900D+01 0.2461500D+00 0.8004300D+04 0.1896900D+04 0.6147100D+03
EXPONENTS  0.2335000D+03 0.9785600D+02 0.4351400D+02 0.2006300D+02 0.9112700D+01
EXPONENTS  0.4106300D+01 0.1794900D+01 0.2461500D+00 0.8004300D+04 0.1896900D+04
EXPONENTS  0.6147100D+03 0.2335000D+03 0.9785600D+02 0.4351400D+02 0.2006300D+02
EXPONENTS  0.9112700D+01 0.4106300D+01 0.1794900D+01 0.2461500D+00 0.8004300D+04
EXPONENTS  0.1896900D+04 0.6147100D+03 0.2335000D+03 0.9785600D+02 0.4351400D+02
EXPONENTS  0.2006300D+02 0.9112700D+01 0.4106300D+01 0.1794900D+01 0.2461500D+00
EXPONENTS  0.8004300D+04 0.1896900D+04 0.6147100D+03 0.2335000D+03 0.9785600D+02
EXPONENTS  0.4351400D+02 0.2006300D+02 0.9112700D+01 0.4106300D+01 0.1794900D+01
EXPONENTS  0.2461500D+00 0.8004300D+04 0.1896900D+04 0.6147100D+03 0.2335000D+03
EXPONENTS  0.9785600D+02 0.4351400D+02 0.2006300D+02 0.9112700D+01 0.4106300D+01
EXPONENTS  0.1794900D+01 0.2461500D+00 0.8004300D+04 0.1896900D+04 0.6147100D+03
EXPONENTS  0.2335000D+03 0.9785600D+02 0.4351400D+02 0.2006300D+02 0.9112700D+01
EXPONENTS  0.4106300D+01 0.1794900D+01 0.2461500D+00 0.8004300D+04 0.1896900D+04
EXPONENTS  0.6147100D+03 0.2335000D+03 0.9785600D+02 0.4351400D+02 0.2006300D+02
EXPONENTS  0.9112700D+01 0.4106300D+01 0.1794900D+01 0.2461500D+00 0.6243200D+00
EXPONENTS  0.6243200D+00 0.6243200D+00 0.8891700D-01 0.8891700D-01 0.8891700D-01
EXPONENTS  0.3025100D-01 0.3025100D-01 0.3025100D-01 0.3618500D+03 0.1085500D+03
EXPONENTS  0.4143300D+02 0.1757900D+02 0.7862700D+01 0.3518000D+01 0.1534800D+01
EXPONENTS  0.3618500D+03 0.1085500D+03 0.4143300D+02 0.1757900D+02 0.7862700D+01
EXPONENTS  0.3518000D+01 0.1534800D+01 0.3618500D+03 0.1085500D+03 0.4143300D+02
EXPONENTS  0.1757900D+02 0.7862700D+01 0.3518000D+01 0.1534800D+01 0.3618500D+03
EXPONENTS  0.1085500D+03 0.4143300D+02 0.1757900D+02 0.7862700D+01 0.3518000D+01
EXPONENTS  0.1534800D+01 0.3618500D+03 0.1085500D+03 0.4143300D+02 0.1757900D+02
EXPONENTS  0.7862700D+01 0.3518000D+01 0.1534800D+01 0.3618500D+03 0.1085500D+03
EXPONENTS  0.4143300D+02 0.1757900D+02 0.7862700D+01 0.3518000D+01 0.1534800D+01
EXPONENTS  0.6081300D+00 0.6081300D+00 0.6081300D+00 0.6081300D+00 0.6081300D+00
EXPONENTS  0.6081300D+00 0.2220000D+00 0.2220000D+00 0.2220000D+00 0.2220000D+00
EXPONENTS  0.2220000D+00 0.2220000D+00 0.8370000D-01 0.8370000D-01 0.8370000D-01
EXPONENTS  0.8370000D-01 0.8370000D-01 0.8370000D-01 0.4620000D+00 0.4620000D+00
EXPONENTS  0.4620000D+00 0.4620000D+00 0.4620000D+00 0.4620000D+00 0.4620000D+00
EXPONENTS  0.4620000D+00 0.4620000D+00 0.4620000D+00 0.1880000D+00 0.1880000D+00
EXPONENTS  0.1880000D+00 0.1880000D+00 0.1880000D+00 0.1880000D+00 0.1880000D+00
EXPONENTS  0.1880000D+00 0.1880000D+00 0.1880000D+00
MO    1     MO 0.0        OCC NO =    2.0000000  ORB. ENERGY = -453.228852
  0.71885413D-05  0.13401075D-04  0.22650178D-04  0.34050637D-04  0.41835142D-04
  0.35336465D-04  0.13327615D-04 -0.65959108D-07 -0.42467505D-05 -0.79512568D-05
 -0.13537695D-04 -0.20940756D-04 -0.27578239D-04 -0.28655557D-04 -0.18209320D-04
  0.12203463D-04 -0.25252903D-04  0.17975855D-04  0.44359254D-05  0.28477113D-18
  0.26699104D-18  0.19011352D-18 -0.12384045D-18 -0.11610830D-18 -0.82676025D-19
 -0.43811729D-04 -0.41076280D-04 -0.29248759D-04 -0.38032712D-19  0.96950929D-19
  0.57332414D-04 -0.48371024D-19  0.13122070D-18  0.30680164D-04 -0.16647460D-20
  0.42594242D-20  0.99744453D-06  0.17045218D-05  0.17045218D-05 -0.34090435D-05
 -0.79996950D-21  0.12135583D-18 -0.33676628D-18 -0.14829701D-04 -0.14829701D-04
  0.29659402D-04  0.33603004D-21 -0.90607167D-19  0.24411051D-18 -0.20601938D-05
 -0.20601938D-05  0.41203876D-05 -0.16396151D-22 -0.12090422D-19  0.32591686D-19
 -0.85906032D-20  0.20229549D-19  0.17380369D-05 -0.85583043D-20  0.20161031D-19
 -0.26070554D-05  0.34330114D-19 -0.80849677D-19 -0.26070554D-05 -0.47258204D-21
  0.76862168D-20 -0.21141275D-19  0.41559092D-05  0.76807375D-20 -0.21132072D-19
 -0.62338638D-05 -0.30739388D-19  0.84555897D-19 -0.62338638D-05  0.18243337D-21
  0.77214383D+00  0.14427148D+01  0.25022080D+01  0.40992560D+01  0.64191093D+01
  0.96397904D+01  0.13749101D+02  0.18165348D+02  0.20949112D+02  0.18854872D+02
  0.10578052D+02  0.25573007D+01  0.12140796D+00 -0.20776551D-02  0.58435486D-03
 -0.22772216D-03  0.21539916D-04  0.21238811D-05  0.37495720D-04  0.69048952D-04
  0.11985163D-03  0.19629453D-03  0.30895855D-03  0.46633202D-03  0.67977625D-03
  0.93347560D-03  0.11855021D-02  0.12767106D-02  0.10185357D-02  0.22814388D-03
 -0.61005159D-03 -0.54250327D-03 -0.10595309D-03 -0.29351186D-05 -0.21255131D-06
 -0.43408792D-08 -0.10871192D-03 -0.19626930D-03 -0.34166748D-03 -0.55949491D-03
 -0.88207559D-03 -0.13310278D-02 -0.19480582D-02 -0.26841683D-02 -0.34579279D-02
 -0.38060913D-02 -0.32041116D-02 -0.76301364D-03  0.25701233D-02  0.34342235D-02
  0.42190138D-03 -0.14741807D-02 -0.65075490D-03  0.32295795D-05  0.35528306D-04
  0.76971679D-04  0.13103420D-03  0.21389411D-03  0.33721324D-03  0.50887373D-03
  0.74477988D-03  0.10273772D-02  0.13252091D-02  0.14650399D-02  0.12407802D-02
  0.30139375D-03 -0.10456587D-02 -0.14758274D-02 -0.17608653D-03  0.82756621D-03
  0.66151945D-03 -0.25061486D-03  0.23308602D-03  0.11230228D-04  0.16985148D-06
 -0.56957523D-16 -0.81633340D-16 -0.10779996D-15 -0.12391062D-15 -0.11399002D-15
 -0.72922539D-16 -0.25241319D-16 -0.28377278D-17 -0.36102815D-19 -0.62559940D-20
 -0.63929450D-22  0.12932719D-15  0.18535585D-15  0.24476951D-15  0.28135021D-15
  0.25882461D-15  0.16557719D-15  0.57312689D-16  0.64433167D-17  0.81974694D-19
  0.14204798D-19  0.14515757D-21  0.76242699D-03  0.10927347D-02  0.14429981D-02
  0.16586536D-02  0.15258576D-02  0.97613291D-03  0.33787746D-03  0.37985506D-04
  0.48326822D-06  0.83742032D-07  0.85575243D-09 -0.18814517D-16 -0.27138458D-16
 -0.36144915D-16 -0.42776178D-16 -0.41106300D-16 -0.28254577D-16 -0.88958054D-17
  0.42992624D-17  0.44120839D-17  0.11111265D-17 -0.12114413D-20  0.38503973D-16
  0.55538948D-16  0.73970693D-16  0.87541594D-16  0.84124184D-16  0.57823089D-16
  0.18205296D-16 -0.87984553D-17 -0.90293449D-17 -0.22739241D-17  0.24792187D-20
 -0.34532959D-02 -0.49811073D-02 -0.66341905D-02 -0.78513204D-02 -0.75448240D-02
 -0.51859644D-02 -0.16327737D-02  0.78910479D-03  0.80981253D-03  0.20394085D-03
 -0.22235305D-06  0.56055970D-17  0.81263611D-17  0.10785712D-16  0.12871715D-16
  0.12366663D-16  0.86560047D-17  0.26136037D-17 -0.15999154D-17 -0.17206804D-17
 -0.46274725D-18  0.17249708D-18 -0.12921459D-16 -0.18732072D-16 -0.24862140D-16
 -0.29670586D-16 -0.28506389D-16 -0.19952953D-16 -0.60246169D-17  0.36879643D-17
  0.39663397D-17  0.10666785D-17 -0.39762295D-18  0.26323917D-02  0.38161440D-02
  0.50649768D-02  0.60445652D-02  0.58073922D-02  0.40648650D-02  0.12273499D-02
 -0.75132122D-03 -0.80803255D-03 -0.21730638D-03  0.81004732D-04 -0.42946168D-18
  0.84641357D-18 -0.15940385D-04  0.97608755D-20 -0.34311808D-19 -0.11520704D-04
  0.18452491D-20 -0.42142930D-20 -0.47557448D-06 -0.28369060D-03 -0.29364688D-03
 -0.24568472D-03 -0.15853641D-03 -0.71216724D-04 -0.20794131D-04 -0.35080973D-05
 -0.28369060D-03 -0.29364688D-03 -0.24568472D-03 -0.15853641D-03 -0.71216724D-04
 -0.20794131D-04 -0.35080973D-05  0.56738120D-03  0.58729376D-03  0.49136945D-03
  0.31707282D-03  0.14243345D-03  0.41588261D-04  0.70161946D-05 -0.27630698D-17
 -0.28600413D-17 -0.23929029D-17 -0.15441018D-17 -0.69363166D-18 -0.20252922D-18
 -0.34167920D-19  0.51857102D-17  0.53677055D-17  0.44909834D-17  0.28979596D-17
  0.13018031D-17  0.38010542D-18  0.64126114D-19 -0.10013065D-16 -0.10364479D-16
 -0.86716203D-17 -0.55956576D-17 -0.25136459D-17 -0.73394391D-18 -0.12382084D-18
  0.16850935D-04  0.16850935D-04 -0.33701869D-04  0.11491908D-19 -0.20169843D-19
  0.42047226D-19  0.37773373D-05  0.37773373D-05 -0.75546746D-05 -0.12561014D-20
 -0.57101949D-19  0.15544844D-18 -0.13814638D-05 -0.13814638D-05  0.27629277D-05
  0.87559065D-22 -0.58147440D-20  0.15358725D-19 -0.87631716D-20  0.24232523D-19
  0.13178793D-04 -0.87598052D-20  0.24236780D-19 -0.19768190D-04  0.35049320D-19
 -0.96934349D-19 -0.19768190D-04 -0.19474118D-21 -0.23560689D-20  0.61700572D-20
 -0.17119705D-05 -0.23562575D-20  0.61700773D-20  0.25679557D-05  0.94244643D-20
 -0.24680249D-19  0.25679557D-05  0.14630490D-21
MO    2     MO 0.0        OCC NO =    2.0000000  ORB. ENERGY =  -58.007661
 -0.62763571D-04 -0.11700557D-03 -0.19776002D-03 -0.29729809D-03 -0.36526505D-03
 -0.30852473D-03 -0.11636418D-03  0.57589280D-06  0.36328273D-04  0.68017990D-04
  0.11580645D-03  0.17913497D-03  0.23591445D-03  0.24513022D-03  0.15576925D-03
 -0.10439293D-03  0.25732188D-03 -0.13222902D-03 -0.36025339D-04 -0.24099203D-15
 -0.22594534D-15 -0.16088654D-15 -0.11734925D-15 -0.11002238D-15 -0.78342490D-16
  0.44821186D-03  0.42022711D-03  0.29922674D-03 -0.47807373D-18 -0.21079346D-17
 -0.57666965D-03 -0.18980328D-19 -0.11033190D-17 -0.31605330D-03 -0.14254179D-19
 -0.38129074D-19 -0.10131212D-04 -0.28685942D-04 -0.28685942D-04  0.57371885D-04
 -0.10213965D-18  0.13804789D-19  0.22537380D-17  0.15720250D-03  0.15720250D-03
 -0.31440499D-03  0.62029755D-19 -0.16085196D-18 -0.15654089D-17  0.22305886D-04
  0.22305886D-04 -0.44611773D-04 -0.17610966D-20 -0.61287542D-20 -0.31717379D-18
  0.26602485D-18 -0.67423875D-18 -0.16543429D-04  0.26358341D-18 -0.66908218D-18
  0.24815143D-04 -0.10616579D-17  0.26917984D-17  0.24815143D-04 -0.31306148D-18
  0.23156930D-19  0.11936712D-18 -0.45844223D-04  0.23579555D-19  0.11866171D-18
  0.68766335D-04 -0.93050344D-19 -0.47676307D-18  0.68766335D-04  0.56681071D-19
  0.25900055D-03  0.48393045D-03  0.83931674D-03  0.13750152D-02  0.21531647D-02
  0.32334791D-02  0.46118671D-02  0.60932107D-02  0.70269697D-02  0.63244982D-02
  0.35482007D-02  0.85779651D-03  0.40723926D-04 -0.69690878D-06  0.19601041D-06
 -0.76384944D-07  0.72251436D-08  0.71241437D-09 -0.24588756D+00 -0.45280577D+00
 -0.78595706D+00 -0.12872504D+01 -0.20260730D+01 -0.30580888D+01 -0.44578027D+01
 -0.61214997D+01 -0.77742266D+01 -0.83723489D+01 -0.66793026D+01 -0.14961105D+01
  0.40005659D+01  0.35576009D+01  0.69481388D+00  0.19247774D-01  0.13938583D-02
  0.28466401D-04  0.10831650D-02  0.19555541D-02  0.34042473D-02  0.55745987D-02
  0.87886723D-02  0.13261865D-01  0.19409726D-01  0.26744052D-01  0.34453504D-01
  0.37922474D-01  0.31924574D-01  0.76023834D-02 -0.25607750D-01 -0.34217323D-01
 -0.42036681D-02  0.14688187D-01  0.64838792D-02 -0.32178326D-04 -0.38666638D-03
 -0.83770842D-03 -0.14260888D-02 -0.23278808D-02 -0.36700040D-02 -0.55382423D-02
 -0.81056875D-02 -0.11181288D-01 -0.14422692D-01 -0.15944517D-01 -0.13503824D-01
 -0.32801686D-02  0.11380252D-01  0.16061921D-01  0.19164084D-02 -0.90066787D-02
 -0.71995365D-02  0.27275250D-02 -0.27121437D-02 -0.18492043D-03 -0.11042745D-04
 -0.15524795D-13 -0.22250631D-13 -0.29382812D-13 -0.33774061D-13 -0.31070025D-13
 -0.19876346D-13 -0.68799744D-14 -0.77347363D-15 -0.98404700D-17 -0.17051834D-17
 -0.17425119D-19  0.32592039D-13  0.46711951D-13  0.61684924D-13  0.70903710D-13
  0.65226981D-13  0.41727487D-13  0.14443502D-13  0.16237949D-14  0.20658630D-16
  0.35797835D-17  0.36581492D-19  0.20034987D-01  0.28714783D-01  0.37918973D-01
  0.43585948D-01  0.40096348D-01  0.25650732D-01  0.88787132D-02  0.99817967D-03
  0.12699279D-04  0.22005655D-05  0.22487385D-07  0.18163944D-15  0.26200058D-15
  0.34895087D-15  0.41297052D-15  0.39684916D-15  0.27277583D-15  0.85882040D-16
 -0.41506015D-16 -0.42595218D-16 -0.10727057D-16  0.11695517D-19 -0.60111747D-15
 -0.86706459D-15 -0.11548178D-14 -0.13666844D-14 -0.13133324D-14 -0.90272420D-15
 -0.28421798D-15  0.13735998D-15  0.14096459D-15  0.35500116D-16 -0.38705140D-19
  0.34762149D-01  0.50141661D-01  0.66782205D-01  0.79034283D-01  0.75948978D-01
  0.52203828D-01  0.16436102D-01 -0.79434195D-02 -0.81518712D-02 -0.20529437D-02
  0.22382877D-05 -0.22777416D-16 -0.33020123D-16 -0.43825955D-16 -0.52302085D-16
 -0.50249887D-16 -0.35172242D-16 -0.10619946D-16  0.65009913D-17  0.69917001D-17
  0.18802968D-17 -0.70091333D-18  0.12918596D-15  0.18727920D-15  0.24856630D-15
  0.29664010D-15  0.28500071D-15  0.19948531D-15  0.60232816D-16 -0.36871469D-16
 -0.39654607D-16 -0.10664421D-16  0.39753482D-17 -0.27110702D-01 -0.39302031D-01
 -0.52163617D-01 -0.62252287D-01 -0.59809669D-01 -0.41863580D-01 -0.12640336D-01
  0.77377714D-02  0.83218349D-02  0.22380136D-02 -0.83425847D-03  0.41738851D-17
 -0.13108213D-16  0.12013919D-03  0.10498450D-18  0.32296260D-18  0.14207697D-03
 -0.24840123D-20  0.37860111D-19  0.56108379D-05  0.36682800D-02  0.37970204D-02
  0.31768426D-02  0.20499656D-02  0.92087256D-03  0.26887988D-03  0.45361684D-04
  0.36682800D-02  0.37970204D-02  0.31768426D-02  0.20499656D-02  0.92087256D-03
  0.26887988D-03  0.45361684D-04 -0.73365601D-02 -0.75940408D-02 -0.63536851D-02
 -0.40999311D-02 -0.18417451D-02 -0.53775976D-03 -0.90723368D-04 -0.12467015D-14
 -0.12904552D-14 -0.10796816D-14 -0.69670123D-15 -0.31296772D-15 -0.91381508D-16
 -0.15416621D-16  0.12045064D-14  0.12467793D-14  0.10431394D-14  0.67312111D-15
  0.30237520D-15  0.88288666D-16  0.14894839D-16 -0.26085078D-14 -0.27000549D-14
 -0.22590475D-14 -0.14577271D-14 -0.65483095D-15 -0.19120004D-15 -0.32256618D-16
 -0.18356101D-03 -0.18356101D-03  0.36712202D-03  0.46977977D-17 -0.50626386D-17
  0.10818990D-16 -0.34483373D-04 -0.34483373D-04  0.68966746D-04 -0.50442916D-18
  0.45540763D-18 -0.22816652D-17  0.15684631D-04  0.15684631D-04 -0.31369263D-04
  0.33147127D-19 -0.37688966D-19 -0.10399855D-18 -0.50723003D-19 -0.21154425D-19
 -0.13702100D-03 -0.52455203D-19 -0.19206274D-19  0.20553150D-03  0.20462421D-18
  0.82669548D-19  0.20553150D-03  0.55363058D-19  0.58141676D-20 -0.76897943D-19
  0.19569419D-04  0.59518863D-20 -0.77099806D-19 -0.29354129D-04 -0.23394389D-19
  0.30779363D-18 -0.29354129D-04  0.43960711D-20
MO    3     MO 0.0        OCC NO =    2.0000000  ORB. ENERGY =  -51.951708
 -0.21143428D-16 -0.39416158D-16 -0.66620250D-16 -0.10015206D-15 -0.12304838D-15
 -0.10393402D-15 -0.39200090D-16  0.19400343D-18  0.13644173D-16  0.25546197D-16
  0.43494586D-16  0.67279511D-16  0.88604750D-16  0.92066011D-16  0.58503817D-16
 -0.39207898D-16  0.15355241D-16  0.31364485D-15  0.26953065D-16  0.54188993D-04
  0.50805625D-04  0.36176632D-04  0.29777335D-04  0.27918144D-04  0.19879382D-04
 -0.10905649D-15 -0.10224739D-15 -0.72806235D-16 -0.51870903D-04 -0.28503523D-04
  0.11055782D-15 -0.62056307D-04 -0.34100494D-04  0.67773923D-16 -0.23554384D-05
 -0.12943344D-05 -0.64414432D-18  0.99366119D-18  0.59289368D-16 -0.60283029D-16
  0.24281210D-15  0.13985329D-03  0.76850628D-04 -0.78583804D-17 -0.52455001D-17
  0.13103880D-16 -0.70171625D-16 -0.11175085D-03 -0.61408091D-04 -0.85679856D-18
 -0.83833853D-18  0.16951371D-17  0.14200241D-16 -0.15913857D-04 -0.87448061D-05
 -0.18848041D-04 -0.10357166D-04 -0.12902718D-15 -0.18848032D-04 -0.10357162D-04
  0.19472312D-15  0.75392154D-04  0.41428661D-04  0.19235841D-15  0.53105758D-17
  0.89838955D-05  0.49367307D-05  0.93391449D-17  0.89838936D-05  0.49367296D-05
 -0.14037239D-16 -0.35935580D-04 -0.19746922D-04 -0.13980196D-16 -0.85461010D-19
 -0.71079497D-18 -0.13280873D-17 -0.23034010D-17 -0.37735593D-17 -0.59090941D-17
 -0.88738836D-17 -0.12656699D-16 -0.16722063D-16 -0.19284649D-16 -0.17356803D-16
 -0.97375981D-17 -0.23541164D-17 -0.11176178D-18  0.19125800D-20 -0.53792633D-21
  0.20962903D-21 -0.19828513D-22 -0.19551331D-23  0.22744531D-16  0.41884407D-16
  0.72700808D-16  0.11907031D-15  0.18741118D-15  0.28287236D-15  0.41234551D-15
  0.56623701D-15  0.71911379D-15  0.77443993D-15  0.61783362D-15  0.13838980D-15
 -0.37005122D-15 -0.32907708D-15 -0.64270089D-16 -0.17804137D-17 -0.12893151D-18
 -0.26331341D-20 -0.60401930D-17 -0.10905009D-16 -0.18983544D-16 -0.31086355D-16
 -0.49009409D-16 -0.73953850D-16 -0.10823696D-15 -0.14913631D-15 -0.19212753D-15
 -0.21147199D-15 -0.17802513D-15 -0.42394153D-16  0.14279981D-15  0.19081048D-15
  0.23441458D-16 -0.81907637D-16 -0.36156893D-16  0.17944016D-18  0.15229495D-17
  0.32994531D-17  0.56168867D-17  0.91687435D-17  0.14454918D-16  0.21813283D-16
  0.31925590D-16  0.44039351D-16  0.56806159D-16  0.62800118D-16  0.53187043D-16
  0.12919486D-16 -0.44823006D-16 -0.63262532D-16 -0.75480913D-17  0.35474293D-16
  0.28356565D-16 -0.10742808D-16  0.69598252D-16 -0.20145740D-15 -0.30620023D-16
  0.42613156D+02  0.61074536D+02  0.80651268D+02  0.92704566D+02  0.85282406D+02
  0.54557492D+02  0.18884464D+02  0.21230653D+01  0.27010566D-01  0.46804643D-02
  0.47829251D-04  0.23416309D+02  0.33561002D+02  0.44318591D+02  0.50941986D+02
  0.46863442D+02  0.29979828D+02  0.10377181D+02  0.11666433D+01  0.14842547D-01
  0.25719568D-02  0.26282600D-04 -0.71393987D-14 -0.10232414D-13 -0.13512295D-13
 -0.15531702D-13 -0.14288195D-13 -0.91405500D-14 -0.31638989D-14 -0.35569789D-15
 -0.45253442D-17 -0.78416394D-18 -0.80133021D-20 -0.99660598D-02 -0.14375256D-01
 -0.19145981D-01 -0.22658564D-01 -0.21774029D-01 -0.14966465D-01 -0.47121129D-02
  0.22773216D-02  0.23370833D-02  0.58856429D-03 -0.64170110D-06 -0.54764387D-02
 -0.78993314D-02 -0.10520887D-01 -0.12451083D-01 -0.11965023D-01 -0.82242058D-02
 -0.25893481D-02  0.12514085D-02  0.12842481D-02  0.32342133D-03 -0.35262047D-06
 -0.46034458D-14 -0.66401079D-14 -0.88437646D-14 -0.10466270D-13 -0.10057693D-13
 -0.69131945D-14 -0.21765830D-14  0.10519229D-14  0.10795276D-14  0.27186510D-15
 -0.29640964D-18  0.92811239D-02  0.13454725D-01  0.17857782D-01  0.21311554D-01
  0.20475344D-01  0.14331650D-01  0.43273142D-02 -0.26489619D-02 -0.28489112D-02
 -0.76616540D-03  0.28560147D-03  0.51000603D-02  0.73934911D-02  0.98130103D-02
  0.11710889D-01  0.11251384D-01  0.78753692D-02  0.23778977D-02 -0.14556282D-02
 -0.15655021D-02 -0.42101472D-03  0.15694055D-03  0.25569640D-14  0.37067974D-14
  0.49198465D-14  0.58713661D-14  0.56409890D-14  0.39483916D-14  0.11921818D-14
 -0.72979309D-15 -0.78487944D-15 -0.21107975D-15  0.78683647D-16 -0.12258576D-02
 -0.67361968D-03 -0.15118872D-15  0.53334620D-06  0.29307849D-06  0.76535804D-16
  0.34172497D-05  0.18778092D-05  0.46270121D-17 -0.54230007D-14 -0.56133240D-14
 -0.46964843D-14 -0.30305660D-14 -0.13613717D-14 -0.39749849D-15 -0.67060432D-16
  0.32773764D-14  0.33923978D-14  0.28383081D-14  0.18315147D-14  0.82274144D-15
  0.24022719D-15  0.40527799D-16  0.21456243D-14  0.22209262D-14  0.18581762D-14
  0.11990513D-14  0.53863023D-15  0.15727131D-15  0.26532634D-16  0.90970367D-14
  0.94163022D-14  0.78783116D-14  0.50837482D-14  0.22836892D-14  0.66680028D-15
  0.11249329D-15  0.44405683D-02  0.45964125D-02  0.38456678D-02  0.24815478D-02
  0.11147452D-02  0.32548755D-03  0.54911744D-04  0.24401319D-02  0.25257697D-02
  0.21132287D-02  0.13636326D-02  0.61256241D-03  0.17885831D-03  0.30174493D-04
  0.18967488D-16  0.53485887D-17 -0.24316077D-16 -0.10500988D-16  0.54161760D-06
  0.29762370D-06  0.76372797D-17  0.94217521D-17 -0.17059032D-16  0.16054937D-17
 -0.74236789D-04 -0.40793777D-04  0.56297384D-17  0.55008131D-17 -0.11130552D-16
 -0.90193098D-19 -0.77447134D-05 -0.42557891D-05 -0.89983157D-05 -0.49446547D-05
 -0.20594261D-16 -0.89983850D-05 -0.49446928D-05  0.30607142D-16  0.35993332D-04
  0.19778657D-04  0.31175643D-16 -0.84734805D-19 -0.33490921D-05 -0.18403560D-05
  0.73363102D-17 -0.33490875D-05 -0.18403535D-05 -0.10979532D-16  0.13396364D-04
  0.73614214D-05 -0.11029398D-16  0.13532660D-18
MO    4     MO 0.0        OCC NO =    2.0000000  ORB. ENERGY =  -51.951708
 -0.70646600D-16 -0.13170132D-15 -0.22259844D-15 -0.33463837D-15 -0.41114190D-15
 -0.34727506D-15 -0.13097938D-15  0.64822424D-18  0.43391472D-16  0.81242526D-16
  0.13832235D-15  0.21396365D-15  0.28178259D-15  0.29279016D-15  0.18605501D-15
 -0.12468974D-15  0.70614791D-16 -0.14033521D-15 -0.29392673D-16 -0.29777335D-04
 -0.27918144D-04 -0.19879382D-04  0.54188993D-04  0.50805625D-04  0.36176632D-04
 -0.39409931D-16 -0.36949316D-16 -0.26310114D-16  0.28503523D-04 -0.51870903D-04
 -0.12887646D-15  0.34100494D-04 -0.62056307D-04 -0.72785540D-16  0.12943344D-05
 -0.23554384D-05 -0.52141301D-17  0.14010190D-15  0.13989513D-15 -0.27999703D-15
  0.11962581D-16 -0.76850628D-04  0.13985329D-03 -0.67546962D-17 -0.69477921D-17
  0.13702488D-16  0.69999218D-19  0.61408091D-04 -0.11175085D-03  0.26650208D-17
  0.26728383D-17 -0.53378592D-17  0.63194279D-20  0.87448061D-05 -0.15913857D-04
  0.10357166D-04 -0.18848041D-04 -0.16092630D-15  0.10357162D-04 -0.18848032D-04
  0.24101762D-15 -0.41428661D-04  0.75392154D-04  0.24176127D-15 -0.11175411D-17
 -0.49367307D-05  0.89838955D-05  0.19267685D-16 -0.49367296D-05  0.89838936D-05
 -0.28822879D-16  0.19746922D-04 -0.35935580D-04 -0.28980176D-16  0.22597393D-18
 -0.43522724D-16 -0.81320180D-16 -0.14103967D-15 -0.23105901D-15 -0.36182005D-15
 -0.54335723D-15 -0.77498299D-15 -0.10239095D-14 -0.11808194D-14 -0.10627753D-14
 -0.59624338D-15 -0.14414503D-15 -0.68432913D-17  0.11710928D-18 -0.32937795D-19
  0.12835806D-19 -0.12141207D-20 -0.11971486D-21  0.11850622D-15  0.21823105D-15
  0.37879427D-15  0.62039406D-15  0.97647170D-15  0.14738547D-14  0.21484509D-14
  0.29502744D-14  0.37468109D-14  0.40350777D-14  0.32191092D-14  0.72105478D-15
 -0.19280843D-14 -0.17145960D-14 -0.33486755D-15 -0.92765202D-17 -0.67177405D-18
 -0.13719464D-19 -0.50654138D-16 -0.91451355D-16 -0.15919940D-15 -0.26069573D-15
 -0.41100166D-15 -0.62019020D-15 -0.90769451D-15 -0.12506838D-14 -0.16112158D-14
 -0.17734419D-14 -0.14929505D-14 -0.35552494D-15  0.11975447D-14  0.16001708D-14
  0.19658425D-15 -0.68689208D-15 -0.30321817D-15  0.15048172D-17  0.18948126D-16
  0.41050904D-16  0.69883786D-16  0.11407503D-15  0.17984418D-15  0.27139497D-15
  0.39720957D-15  0.54792570D-15  0.70676687D-15  0.78134209D-15  0.66173882D-15
  0.16074076D-15 -0.55767572D-15 -0.78709532D-15 -0.93911312D-16  0.44136157D-15
  0.35280472D-15 -0.13365911D-15  0.65018223D-16  0.25417883D-15  0.24662995D-17
 -0.23416309D+02 -0.33561002D+02 -0.44318591D+02 -0.50941986D+02 -0.46863442D+02
 -0.29979828D+02 -0.10377181D+02 -0.11666433D+01 -0.14842547D-01 -0.25719568D-02
 -0.26282600D-04  0.42613156D+02  0.61074536D+02  0.80651268D+02  0.92704566D+02
  0.85282406D+02  0.54557492D+02  0.18884464D+02  0.21230653D+01  0.27010566D-01
  0.46804643D-02  0.47829251D-04 -0.32254326D-10 -0.46227930D-10 -0.61045755D-10
 -0.70169018D-10 -0.64551110D-10 -0.41295114D-10 -0.14293841D-10 -0.16069695D-11
 -0.20444569D-13 -0.35426904D-14 -0.36202441D-16  0.54764387D-02  0.78993314D-02
  0.10520887D-01  0.12451083D-01  0.11965023D-01  0.82242058D-02  0.25893481D-02
 -0.12514085D-02 -0.12842481D-02 -0.32342133D-03  0.35262047D-06 -0.99660598D-02
 -0.14375256D-01 -0.19145981D-01 -0.22658564D-01 -0.21774029D-01 -0.14966465D-01
 -0.47121129D-02  0.22773216D-02  0.23370833D-02  0.58856429D-03 -0.64170110D-06
  0.11149523D-13  0.16082309D-13  0.21419554D-13  0.25349255D-13  0.24359682D-13
  0.16743723D-13  0.52716733D-14 -0.25477521D-14 -0.26146104D-14 -0.65845593D-15
  0.71790269D-18 -0.51000603D-02 -0.73934911D-02 -0.98130103D-02 -0.11710889D-01
 -0.11251384D-01 -0.78753692D-02 -0.23778977D-02  0.14556282D-02  0.15655021D-02
  0.42101472D-03 -0.15694055D-03  0.92811239D-02  0.13454725D-01  0.17857782D-01
  0.21311554D-01  0.20475344D-01  0.14331650D-01  0.43273142D-02 -0.26489619D-02
 -0.28489112D-02 -0.76616540D-03  0.28560147D-03 -0.10989834D-13 -0.15931820D-13
 -0.21145506D-13 -0.25235139D-13 -0.24244978D-13 -0.16970192D-13 -0.51239987D-14
  0.31366516D-14  0.33734128D-14  0.90722104D-15 -0.33818241D-15  0.67361968D-03
 -0.12258576D-02  0.10604286D-14 -0.29307849D-06  0.53334620D-06 -0.11191552D-16
 -0.18778092D-05  0.34172497D-05  0.22444069D-18  0.32539870D-14  0.33681875D-14
  0.28180521D-14  0.18184439D-14  0.81686984D-15  0.23851277D-15  0.40238566D-16
  0.64283782D-14  0.66539857D-14  0.55671719D-14  0.35924068D-14  0.16137582D-14
  0.47119128D-15  0.79492857D-16 -0.96823652D-14 -0.10022173D-13 -0.83852240D-14
 -0.54108506D-14 -0.24306281D-14 -0.70970406D-15 -0.11973142D-15 -0.44318543D-14
 -0.45873927D-14 -0.38381212D-14 -0.24766781D-14 -0.11125577D-14 -0.32484883D-15
 -0.54803988D-16 -0.24401319D-02 -0.25257697D-02 -0.21132287D-02 -0.13636326D-02