 Molden2AIM, Version 4.0.0 (06/02/2016)           Time: Fri Jun 29 22:53:00 2018
GAUSSIAN              9 MOL ORBITALS    150 PRIMITIVES        2 NUCLEI
  F    1    (CENTRE  1)   0.00000000  0.00000000  0.03432121  CHARGE =  9.0
  F    2    (CENTRE  2)   0.00000000  0.00000000  2.63378311  CHARGE =  9.0
CENTRE ASSIGNMENTS    1  1  1  1  1  1  1  1  1  1  1  1  1  1  1  1  1  1  1  1
CENTRE ASSIGNMENTS    1  1  1  1  1  1  1  1  1  1  1  1  1  1  1  1  1  1  1  1
CENTRE ASSIGNMENTS    1  1  1  1  1  1  1  1  1  1  1  1  1  1  1  1  1  1  1  1
CENTRE ASSIGNMENTS    1  1  1  1  1  1  1  1  1  1  1  1  1  1  1  2  2  2  2  2
CENTRE ASSIGNMENTS    2  2  2  2  2  2  2  2  2  2  2  2  2  2  2  2  2  2  2  2
CENTRE ASSIGNMENTS    2  2  2  2  2  2  2  2  2  2  2  2  2  2  2  2  2  2  2  2
CENTRE ASSIGNMENTS    2  2  2  2  2  2  2  2  2  2  2  2  2  2  2  2  2  2  2  2
CENTRE ASSIGNMENTS    2  2  2  2  2  2  2  2  2  2
TYPE ASSIGNMENTS      1  1  1  1  1  1  1  1  1  1  1  1  1  1  1  1  1  1  1  2
TYPE ASSIGNMENTS      2  2  3  3  3  4  4  4  2  3  4  2  3  4  2  3  4  5  6  7
TYPE ASSIGNMENTS      8  9 10  5  6  7  8  9 10  5  6  7  8  9 10 11 12 13 17 14
TYPE ASSIGNMENTS     15 18 19 16 20 11 12 13 17 14 15 18 19 16 20  1  1  1  1  1
TYPE ASSIGNMENTS      1  1  1  1  1  1  1  1  1  1  1  1  1  1  2  2  2  3  3  3
TYPE ASSIGNMENTS      4  4  4  2  3  4  2  3  4  2  3  4  5  6  7  8  9 10  5  6
TYPE ASSIGNMENTS      7  8  9 10  5  6  7  8  9 10 11 12 13 17 14 15 18 19 16 20
TYPE ASSIGNMENTS     11 12 13 17 14 15 18 19 16 20
EXPONENTS  0.1950000D+05 0.2923000D+04 0.6645000D+03 0.1875000D+03 0.6062000D+02
EXPONENTS  0.2142000D+02 0.7950000D+01 0.8815000D+00 0.1950000D+05 0.2923000D+04
EXPONENTS  0.6645000D+03 0.1875000D+03 0.6062000D+02 0.2142000D+02 0.7950000D+01
EXPONENTS  0.8815000D+00 0.2257000D+01 0.3041000D+00 0.9158000D-01 0.4388000D+02
EXPONENTS  0.9926000D+01 0.2930000D+01 0.4388000D+02 0.9926000D+01 0.2930000D+01
EXPONENTS  0.4388000D+02 0.9926000D+01 0.2930000D+01 0.9132000D+00 0.9132000D+00
EXPONENTS  0.9132000D+00 0.2672000D+00 0.2672000D+00 0.2672000D+00 0.7361000D-01
EXPONENTS  0.7361000D-01 0.7361000D-01 0.3107000D+01 0.3107000D+01 0.3107000D+01
EXPONENTS  0.3107000D+01 0.3107000D+01 0.3107000D+01 0.8550000D+00 0.8550000D+00
EXPONENTS  0.8550000D+00 0.8550000D+00 0.8550000D+00 0.8550000D+00 0.2920000D+00
EXPONENTS  0.2920000D+00 0.2920000D+00 0.2920000D+00 0.2920000D+00 0.2920000D+00
EXPONENTS  0.1917000D+01 0.1917000D+01 0.1917000D+01 0.1917000D+01 0.1917000D+01
EXPONENTS  0.1917000D+01 0.1917000D+01 0.1917000D+01 0.1917000D+01 0.1917000D+01
EXPONENTS  0.7240000D+00 0.7240000D+00 0.7240000D+00 0.7240000D+00 0.7240000D+00
EXPONENTS  0.7240000D+00 0.7240000D+00 0.7240000D+00 0.7240000D+00 0.7240000D+00
EXPONENTS  0.1950000D+05 0.2923000D+04 0.6645000D+03 0.1875000D+03 0.6062000D+02
EXPONENTS  0.2142000D+02 0.7950000D+01 0.8815000D+00 0.1950000D+05 0.2923000D+04
EXPONENTS  0.6645000D+03 0.1875000D+03 0.6062000D+02 0.2142000D+02 0.7950000D+01
EXPONENTS  0.8815000D+00 0.2257000D+01 0.3041000D+00 0.9158000D-01 0.4388000D+02
EXPONENTS  0.9926000D+01 0.2930000D+01 0.4388000D+02 0.9926000D+01 0.2930000D+01
EXPONENTS  0.4388000D+02 0.9926000D+01 0.2930000D+01 0.9132000D+00 0.9132000D+00
EXPONENTS  0.9132000D+00 0.2672000D+00 0.2672000D+00 0.2672000D+00 0.7361000D-01
EXPONENTS  0.7361000D-01 0.7361000D-01 0.3107000D+01 0.3107000D+01 0.3107000D+01
EXPONENTS  0.3107000D+01 0.3107000D+01 0.3107000D+01 0.8550000D+00 0.8550000D+00
EXPONENTS  0.8550000D+00 0.8550000D+00 0.8550000D+00 0.8550000D+00 0.2920000D+00
EXPONENTS  0.2920000D+00 0.2920000D+00 0.2920000D+00 0.2920000D+00 0.2920000D+00
EXPONENTS  0.1917000D+01 0.1917000D+01 0.1917000D+01 0.1917000D+01 0.1917000D+01
EXPONENTS  0.1917000D+01 0.1917000D+01 0.1917000D+01 0.1917000D+01 0.1917000D+01
EXPONENTS  0.7240000D+00 0.7240000D+00 0.7240000D+00 0.7240000D+00 0.7240000D+00
EXPONENTS  0.7240000D+00 0.7240000D+00 0.7240000D+00 0.7240000D+00 0.7240000D+00
MO    1     MO 0.0        OCC NO =    2.0000000  ORB. ENERGY =  -24.613005
  0.42132435D+00  0.78536684D+00  0.13313899D+01  0.20161167D+01  0.25211610D+01
  0.21704847D+01  0.83441357D+00 -0.36156506D-02 -0.29303053D-03 -0.55025945D-03
 -0.93699694D-03 -0.14678002D-02 -0.19670249D-02 -0.21158005D-02 -0.12703238D-02
  0.83541840D-03  0.43337953D-01 -0.16695052D-02 -0.67956618D-03  0.12835421D-15
  0.12552761D-15  0.82941401D-16  0.20140509D-15  0.19696978D-15  0.13014626D-15
  0.60459864D-02  0.59128426D-02  0.39068651D-02  0.87260216D-18 -0.76646749D-17
 -0.12543931D-02 -0.21024903D-17  0.26246033D-17 -0.15810172D-02  0.12986740D-18
 -0.20534637D-18 -0.74403193D-04 -0.36190070D-03 -0.36190070D-03  0.72380141D-03
  0.13090150D-16 -0.34086993D-16  0.58827066D-16  0.57653051D-03  0.57653051D-03
 -0.11530610D-02  0.11468069D-18  0.17509075D-18 -0.51318375D-17  0.18619591D-03
  0.18619591D-03 -0.37239183D-03 -0.15987806D-19 -0.18257087D-17  0.70714629D-18
 -0.76710550D-18  0.60050758D-18 -0.30025229D-03 -0.10795574D-17 -0.17070192D-18
  0.45037844D-03  0.33808738D-17 -0.16308208D-17  0.45037844D-03 -0.29327785D-17
  0.95944440D-18  0.66335384D-18 -0.43238296D-03  0.10078634D-17  0.76975871D-18
  0.64857444D-03 -0.38861966D-17 -0.27598202D-17  0.64857444D-03  0.26371734D-18
 -0.42132386D+00 -0.78536593D+00 -0.13313883D+01 -0.20161143D+01 -0.25211580D+01
 -0.21704822D+01 -0.83441261D+00  0.36156464D-02  0.29303052D-03  0.55025942D-03
  0.93699690D-03  0.14678001D-02  0.19670248D-02  0.21158004D-02  0.12703238D-02
 -0.83541836D-03 -0.43337903D-01  0.16695056D-02  0.67956616D-03 -0.77089576D-17
 -0.75391922D-17 -0.49814630D-17 -0.25070832D-15 -0.24518726D-15 -0.16200559D-15
  0.60459815D-02  0.59128379D-02  0.39068620D-02 -0.57275341D-18  0.21923494D-16
 -0.12543928D-02  0.16587692D-17 -0.27586715D-17 -0.15810172D-02  0.14791517D-19
  0.21204769D-18 -0.74403188D-04  0.36190134D-03  0.36190134D-03 -0.72380267D-03
  0.11439330D-16 -0.21544442D-16  0.52445268D-16 -0.57653058D-03 -0.57653058D-03
  0.11530612D-02 -0.82908633D-18  0.21312068D-17 -0.53829300D-17 -0.18619590D-03
 -0.18619590D-03  0.37239181D-03  0.50813113D-19 -0.23129008D-17  0.71317164D-18
 -0.73740707D-18 -0.27459813D-17 -0.30025291D-03 -0.28808197D-17 -0.93396381D-19
  0.45037937D-03  0.50930409D-17  0.83313404D-17  0.45037937D-03 -0.19375477D-17
 -0.11627844D-17 -0.46590390D-18 -0.43238286D-03 -0.11028122D-17 -0.59406147D-18
  0.64857430D-03  0.45911655D-17  0.19917732D-17  0.64857430D-03  0.17174861D-18
MO    2     MO 0.0        OCC NO =    2.0000000  ORB. ENERGY =  -24.612998
  0.42093036D+00  0.78463243D+00  0.13301449D+01  0.20142314D+01  0.25188034D+01
  0.21684551D+01  0.83363330D+00 -0.36122695D-02 -0.11947835D-04 -0.22435919D-04
 -0.38204500D-04 -0.59847124D-04 -0.80202187D-04 -0.86268265D-04 -0.51795353D-04
  0.34062803D-04  0.43092882D-01  0.31252063D-03 -0.17343006D-04  0.49009861D-15
  0.47930574D-15  0.31669757D-15  0.29262994D-15  0.28618569D-15  0.18909499D-15
  0.41828865D-02  0.40907717D-02  0.27029458D-02 -0.17937594D-15 -0.51520817D-16
 -0.24994907D-03  0.30011060D-17  0.19781951D-17  0.16675312D-04 -0.18370027D-18
 -0.80704243D-19 -0.45299509D-05  0.54631191D-03  0.54631191D-03 -0.10926238D-02
  0.13288369D-16 -0.35893898D-16  0.47640938D-16 -0.64359853D-04 -0.64359853D-04
  0.12871971D-03  0.48275140D-19  0.16319162D-17 -0.23158386D-17  0.74969554D-05
  0.74969554D-05 -0.14993911D-04 -0.19923514D-20  0.18997843D-17  0.28202948D-18
  0.36698817D-17  0.36418018D-17  0.53590030D-03  0.33505559D-17  0.30009654D-17
 -0.80385045D-03 -0.14360201D-16 -0.13926371D-16 -0.80385045D-03 -0.25510813D-17
 -0.11960733D-17 -0.64017510D-18 -0.79433562D-04 -0.11405631D-17 -0.55662523D-18
  0.11915034D-03  0.47287832D-17  0.24771505D-17  0.11915034D-03  0.12274039D-18
  0.42093085D+00  0.78463334D+00  0.13301464D+01  0.20142337D+01  0.25188063D+01
  0.21684576D+01  0.83363427D+00 -0.36122737D-02 -0.11948176D-04 -0.22436558D-04
 -0.38205588D-04 -0.59848828D-04 -0.80204471D-04 -0.86270722D-04 -0.51796828D-04
  0.34063774D-04  0.43092932D-01  0.31251869D-03 -0.17343795D-04  0.76334647D-17
  0.74653617D-17  0.49326801D-17  0.24847496D-15  0.24300308D-15  0.16056241D-15
 -0.41828936D-02 -0.40907785D-02 -0.27029503D-02  0.61641152D-18 -0.20987985D-16
  0.24995053D-03 -0.18784464D-17  0.18551020D-17 -0.16673476D-04  0.46126878D-20
 -0.13750955D-18  0.45300373D-05  0.54631149D-03  0.54631149D-03 -0.10926230D-02
 -0.11423128D-16  0.22016614D-16 -0.39987248D-16 -0.64359183D-04 -0.64359183D-04
  0.12871837D-03  0.81544138D-18 -0.20482610D-17  0.16741096D-17  0.74971716D-05
  0.74971716D-05 -0.14994343D-04 -0.55176712D-19  0.24912214D-17  0.32714183D-19
  0.10260119D-17  0.52821731D-17 -0.53589995D-03  0.31962378D-17  0.26643357D-17
  0.80384993D-03 -0.62742736D-17 -0.18510855D-16  0.80384993D-03  0.16344645D-17
  0.11315094D-17 -0.72040048D-18  0.79434064D-04  0.10621029D-17 -0.60699339D-18
 -0.11915110D-03 -0.44566312D-17  0.27681948D-17 -0.11915110D-03 -0.61315100D-19
MO    3     MO 0.0        OCC NO =    2.0000000  ORB. ENERGY =   -1.331880
 -0.18667752D-02 -0.34797499D-02 -0.58990315D-02 -0.89328723D-02 -0.11170588D-01
 -0.96168358D-02 -0.36970628D-02  0.16019978D-04 -0.90616611D-01 -0.17016195D+00
 -0.28975645D+00 -0.45390176D+00 -0.60828176D+00 -0.65428905D+00 -0.39283429D+00
  0.25834435D+00  0.14878325D+00  0.62327793D-01 -0.31312470D-03  0.56032139D-15
  0.54798208D-15  0.36207493D-15  0.47253826D-14  0.46213210D-14  0.30535022D-14
  0.35154726D+00  0.34380554D+00  0.22716686D+00  0.52520591D-15  0.13163052D-14
  0.92817815D-01  0.92763673D-16  0.12481162D-15  0.49519248D-02 -0.47343938D-17
 -0.26994085D-18 -0.20918325D-03 -0.20661954D-01 -0.20661954D-01  0.41323909D-01
  0.10580438D-15 -0.59542263D-17  0.16443944D-14 -0.94714066D-02 -0.94714066D-02
  0.18942813D-01  0.27690622D-16  0.56844335D-16  0.42401303D-15  0.18070634D-03
  0.18070634D-03 -0.36141268D-03 -0.25118395D-17  0.14020276D-16  0.27065124D-16
  0.82495301D-17 -0.90339238D-16  0.10612201D-01  0.10311238D-16 -0.90001840D-16
 -0.15918302D-01 -0.35059829D-16  0.36101956D-15 -0.15918302D-01  0.26932223D-16
 -0.10432625D-16 -0.22580432D-16  0.17232850D-02 -0.44843932D-17 -0.17946610D-16
 -0.25849275D-02  0.35782267D-16  0.85687907D-16 -0.25849275D-02  0.15374047D-16
 -0.18667752D-02 -0.34797499D-02 -0.58990315D-02 -0.89328723D-02 -0.11170588D-01
 -0.96168358D-02 -0.36970628D-02  0.16019978D-04 -0.90616611D-01 -0.17016195D+00
 -0.28975645D+00 -0.45390176D+00 -0.60828176D+00 -0.65428905D+00 -0.39283429D+00
  0.25834435D+00  0.14878325D+00  0.62327793D-01 -0.31312469D-03  0.42389771D-15
  0.41456271D-15  0.27391911D-15  0.54443756D-14  0.53244804D-14  0.35181093D-14
 -0.35154726D+00 -0.34380554D+00 -0.22716686D+00  0.98516869D-16  0.15146675D-14
 -0.92817815D-01 -0.83215841D-18  0.11782594D-15 -0.49519248D-02  0.91457597D-18
 -0.23836161D-17  0.20918325D-03 -0.20661954D-01 -0.20661954D-01  0.41323909D-01
  0.47482424D-16  0.13845697D-15 -0.15678779D-14 -0.94714066D-02 -0.94714066D-02
  0.18942813D-01  0.27046197D-16 -0.10519020D-15 -0.42502616D-15  0.18070634D-03
  0.18070634D-03 -0.36141268D-03 -0.43336547D-17  0.23162882D-16 -0.26981385D-16
 -0.18545515D-17 -0.86253470D-16 -0.10612201D-01  0.25158294D-16 -0.80389231D-16
  0.15918302D-01 -0.19594640D-16  0.33914964D-15  0.15918302D-01 -0.15486208D-16
 -0.75164692D-17 -0.23699992D-16 -0.17232850D-02 -0.82523599D-17 -0.20304081D-16
  0.25849275D-02  0.30801767D-16  0.91404057D-16  0.25849275D-02 -0.63421325D-17
MO    4     MO 0.0        OCC NO =    2.0000000  ORB. ENERGY =   -1.075868
  0.90887043D-03  0.16941739D-02  0.28720412D-02  0.43491168D-02  0.54385859D-02
  0.46821158D-02  0.17999763D-02 -0.77995918D-05  0.10091842D+00  0.18950691D+00
  0.32269759D+00  0.50550387D+00  0.67743466D+00  0.72867231D+00  0.43749390D+00
 -0.28771439D+00 -0.17378215D+00 -0.84596461D-01  0.26478468D-02  0.41705411D-15
  0.40786981D-15  0.26949683D-15 -0.47327736D-14 -0.46285492D-14 -0.30582782D-14
  0.20769791D+00  0.20312402D+00  0.13421263D+00  0.69764534D-15 -0.17301324D-14
  0.40118943D-01  0.11585921D-15 -0.17617102D-15  0.35538949D-02 -0.59455231D-17
  0.54157228D-17  0.48295415D-03 -0.85576516D-02 -0.85576516D-02  0.17115303D-01
 -0.74272900D-15  0.16086283D-15 -0.13109114D-14  0.17608680D-03  0.17608680D-03
 -0.35217360D-03 -0.32543420D-16 -0.39199814D-16 -0.39855876D-16 -0.25392064D-03
 -0.25392064D-03  0.50784128D-03  0.48267327D-17  0.33551062D-16 -0.65146957D-16
 -0.16025870D-16 -0.15649511D-16  0.63934403D-02 -0.30365338D-16 -0.22529027D-16
 -0.95901605D-02  0.78442946D-16  0.69477560D-16 -0.95901605D-02 -0.10713052D-16
 -0.31571035D-17  0.36352136D-17 -0.40699204D-03 -0.54986723D-17 -0.37503684D-17
  0.61048806D-03  0.14969983D-16 -0.71552722D-17  0.61048806D-03 -0.72015713D-17
 -0.90887043D-03 -0.16941739D-02 -0.28720412D-02 -0.43491168D-02 -0.54385859D-02
 -0.46821158D-02 -0.17999763D-02  0.77995918D-05 -0.10091842D+00 -0.18950691D+00
 -0.32269759D+00 -0.50550387D+00 -0.67743466D+00 -0.72867231D+00 -0.43749390D+00
  0.28771439D+00  0.17378215D+00  0.84596461D-01 -0.26478468D-02  0.65108278D-15
  0.63674474D-15  0.42072417D-15  0.68262054D-14  0.66758798D-14  0.44110360D-14
  0.20769791D+00  0.20312402D+00  0.13421263D+00  0.13497307D-15  0.17943313D-14
  0.40118943D-01 -0.77624362D-17  0.20535685D-15  0.35538949D-02  0.14257466D-17
 -0.29295642D-17  0.48295415D-03  0.85576516D-02  0.85576516D-02 -0.17115303D-01
  0.71664727D-16  0.16835918D-15 -0.11119357D-14 -0.17608680D-03 -0.17608680D-03
  0.35217360D-03  0.21292837D-16 -0.10560518D-15 -0.40607424D-16  0.25392064D-03
  0.25392064D-03 -0.50784128D-03 -0.28586149D-17  0.40572752D-16 -0.62066322D-16
  0.57851563D-17  0.10402977D-16  0.63934403D-02  0.46242132D-16  0.78588249D-17
 -0.95901605D-02 -0.63597601D-16 -0.39067757D-16 -0.95901605D-02 -0.28689899D-16
 -0.45523082D-17 -0.41029129D-17 -0.40699204D-03 -0.92284060D-17  0.34291327D-17
  0.61048806D-03  0.22885331D-16  0.88796060D-17  0.61048806D-03  0.72534765D-18
MO    5     MO 0.0        OCC NO =    2.0000000  ORB. ENERGY =   -0.577611
  0.70131791D-03  0.13072870D-02  0.22161728D-02  0.33559388D-02  0.41966132D-02
  0.36128931D-02  0.13889280D-02 -0.60184524D-05  0.24891302D-01  0.46741456D-01
  0.79592638D-01  0.12468140D+00  0.16708774D+00  0.17972539D+00  0.10790689D+00
 -0.70964111D-01 -0.47605594D-01 -0.37729037D-01 -0.16585556D-02  0.25601598D-14
  0.25037803D-14  0.16543535D-14 -0.10243970D-13 -0.10018379D-13 -0.66195665D-14
  0.17988668D+01  0.17592524D+01  0.11624125D+01  0.11416819D-14 -0.23015784D-14
  0.41469679D+00  0.12398065D-15 -0.31486699D-15  0.50208263D-01  0.79599234D-17
 -0.18552929D-16  0.19077135D-03 -0.26105475D-01 -0.26105475D-01  0.52210949D-01
  0.77169347D-15  0.86443846D-15 -0.34682662D-15 -0.85297179D-02 -0.85297179D-02
  0.17059436D-01  0.12559204D-15  0.11027317D-15  0.34102250D-15 -0.14133504D-02
 -0.14133504D-02  0.28267009D-02 -0.27392235D-16  0.30920291D-16  0.25428321D-16
 -0.16760443D-16 -0.24802440D-16  0.97622228D-02 -0.29986055D-16 -0.14285468D-16
 -0.14643334D-01  0.80267384D-16  0.88692787D-16 -0.14643334D-01  0.20992657D-16
 -0.11239704D-16 -0.35209914D-16  0.40257187D-02 -0.79626628D-17 -0.46337583D-16
 -0.60385780D-02  0.41681774D-16  0.15196733D-15 -0.60385780D-02 -0.17881915D-17
  0.70131791D-03  0.13072870D-02  0.22161728D-02  0.33559388D-02  0.41966132D-02
  0.36128931D-02  0.13889280D-02 -0.60184524D-05  0.24891302D-01  0.46741456D-01
  0.79592638D-01  0.12468140D+00  0.16708774D+00  0.17972539D+00  0.10790689D+00
 -0.70964111D-01 -0.47605594D-01 -0.37729037D-01 -0.16585556D-02  0.22921706D-14
  0.22416928D-14  0.14811812D-14 -0.74572380D-14 -0.72930159D-14 -0.48188039D-14
 -0.17988668D+01 -0.17592524D+01 -0.11624125D+01  0.60142379D-15 -0.17319783D-14
 -0.41469679D+00  0.53694205D-16 -0.24620350D-15 -0.50208263D-01  0.26418207D-17
  0.59057544D-17 -0.19077135D-03 -0.26105475D-01 -0.26105475D-01  0.52210949D-01
 -0.40805288D-16 -0.28581153D-15 -0.12293351D-14 -0.85297179D-02 -0.85297179D-02
  0.17059436D-01  0.46927378D-17 -0.76983922D-16 -0.65182893D-15 -0.14133504D-02
 -0.14133504D-02  0.28267009D-02 -0.34775900D-17 -0.13684405D-16 -0.15301502D-16
 -0.20966799D-16 -0.21393056D-16 -0.97622228D-02 -0.39287341D-16 -0.32411562D-16
  0.14643334D-01  0.10218774D-15  0.96590731D-16  0.14643334D-01  0.14733159D-16
 -0.88186230D-17 -0.31410117D-16 -0.40257187D-02 -0.44196225D-17 -0.36765425D-16
  0.60385780D-02  0.30875491D-16  0.13099578D-15  0.60385780D-02 -0.13650372D-16
MO    6     MO 0.0        OCC NO =    2.0000000  ORB. ENERGY =   -0.496805
  0.35296565D-15  0.65794326D-15  0.11153756D-14  0.16890074D-14  0.21121096D-14
  0.18183296D-14  0.69903230D-15 -0.30290214D-17 -0.23144965D-15 -0.43462145D-15
 -0.74008537D-15 -0.11593394D-14 -0.15536511D-14 -0.16711613D-14 -0.10033630D-14
  0.65985374D-15 -0.12756736D-15 -0.76401615D-15 -0.29626673D-15  0.17362539D+01
  0.16980184D+01  0.11219525D+01  0.53468032D+00  0.52290568D+00  0.34550589D+00
 -0.67211721D-15 -0.65731595D-15 -0.43431644D-15  0.39326608D+00  0.12110650D+00
 -0.17350329D-15  0.55617158D-01  0.17127334D-01 -0.37097519D-15  0.51455244D-03
  0.15845670D-03 -0.50598504D-16  0.11274026D-14 -0.13793621D-14  0.25195946D-15
  0.22258441D-14  0.74430013D-01  0.22920763D-01 -0.33577306D-16  0.19883926D-15
 -0.16526195D-15  0.11789448D-14  0.31292591D-01  0.96365702D-02  0.12770261D-16
  0.86720401D-16 -0.99490662D-16  0.92705422D-16  0.11926719D-02  0.36728395D-03
 -0.13130587D-01 -0.40435715D-02  0.27386834D-15 -0.13131834D-01 -0.40439553D-02
 -0.12610615D-14  0.52523596D-01  0.16174670D-01  0.43945643D-15 -0.28127396D-14
 -0.14727897D-02 -0.45354640D-03 -0.77521288D-16 -0.14707875D-02 -0.45292980D-03
  0.23467504D-15  0.58891566D-02  0.18135690D-02 -0.21111777D-17  0.94797481D-15
  0.24863293D-15  0.46346255D-15  0.78568296D-15  0.11897556D-14  0.14877935D-14
  0.12808516D-14  0.49240612D-15 -0.21336763D-17  0.80021357D-16  0.15026594D-15
  0.25587698D-15  0.40082977D-15  0.53715904D-15  0.57778698D-15  0.34690254D-15
 -0.22813771D-15 -0.79076659D-15 -0.19116461D-15  0.52400701D-15  0.17362539D+01
  0.16980184D+01  0.11219525D+01  0.53468032D+00  0.52290568D+00  0.34550589D+00
  0.52784996D-15  0.51622574D-15  0.34109217D-15  0.39326608D+00  0.12110650D+00
  0.15871148D-15  0.55617158D-01  0.17127334D-01 -0.39127897D-15  0.51455244D-03
  0.15845670D-03 -0.47229321D-16 -0.91230097D-15  0.64863568D-15  0.26366529D-15
  0.39660073D-14 -0.74430013D-01 -0.22920763D-01 -0.68821191D-16  0.36157378D-15
 -0.29275259D-15  0.91096377D-15 -0.31292591D-01 -0.96365702D-02 -0.44639773D-16
 -0.44609945D-16  0.89249718D-16  0.54024244D-17 -0.11926719D-02 -0.36728395D-03
 -0.13130587D-01 -0.40435715D-02 -0.19555131D-15 -0.13131834D-01 -0.40439553D-02
  0.17551606D-14  0.52523596D-01  0.16174670D-01 -0.11685067D-14 -0.80638701D-15
 -0.14727897D-02 -0.45354640D-03  0.00000000D+00 -0.14707875D-02 -0.45292980D-03
 -0.34059095D-16  0.58891566D-02  0.18135690D-02  0.34059095D-16 -0.94684285D-15
MO    7     MO 0.0        OCC NO =    2.0000000  ORB. ENERGY =   -0.496805
 -0.12684506D-15 -0.23644469D-15 -0.40083187D-15 -0.60697759D-15 -0.75902760D-15
 -0.65345206D-15 -0.25121083D-15  0.10885376D-17  0.44042957D-15  0.82704872D-15
  0.14083213D-14  0.22061270D-14  0.29564698D-14  0.31800819D-14  0.19093170D-14
 -0.12556472D-14 -0.58448209D-15 -0.21950524D-16  0.34597213D-16 -0.53468032D+00
 -0.52290568D+00 -0.34550589D+00  0.17362539D+01  0.16980184D+01  0.11219525D+01
  0.90874243D-14  0.88873025D-14  0.58722165D-14 -0.12110650D+00  0.39326608D+00
  0.12499496D-14 -0.17127334D-01  0.55617158D-01  0.60449041D-15 -0.15845670D-03
  0.51455244D-03 -0.24596691D-16  0.87989131D-15  0.35515320D-15 -0.12350445D-14
 -0.20498950D-14 -0.22920763D-01  0.74430013D-01 -0.10505218D-15  0.12987354D-15
 -0.24821362D-16  0.11050588D-15 -0.96365702D-02  0.31292591D-01 -0.52729792D-16
  0.25629778D-16  0.27100013D-16  0.17399581D-15 -0.36728395D-03  0.11926719D-02
  0.40435715D-02 -0.13130587D-01 -0.11823346D-14  0.40439553D-02 -0.13131834D-01
  0.16852969D-14 -0.16174670D-01  0.52523596D-01  0.18617068D-14 -0.32398868D-14
  0.45354640D-03 -0.14727897D-02 -0.16913450D-16  0.45292980D-03 -0.14707875D-02
 -0.25282883D-15 -0.18135690D-02  0.58891566D-02  0.30356918D-15  0.20618342D-15
 -0.12715615D-15 -0.23702458D-15 -0.40181493D-15 -0.60846623D-15 -0.76088916D-15
 -0.65505469D-15 -0.25182694D-15  0.10912073D-17  0.43504867D-15  0.81694434D-15
  0.13911153D-14  0.21791739D-14  0.29203494D-14  0.31412296D-14  0.18859901D-14
 -0.12403064D-14 -0.76407010D-15 -0.20402151D-15 -0.20863207D-15 -0.53468032D+00
 -0.52290568D+00 -0.34550589D+00  0.17362539D+01  0.16980184D+01  0.11219525D+01
 -0.86521568D-14 -0.84616204D-14 -0.55909503D-14 -0.12110650D+00  0.39326608D+00
 -0.16009081D-14 -0.17127334D-01  0.55617158D-01 -0.40404414D-16 -0.15845670D-03
  0.51455244D-03 -0.25962773D-16 -0.45985303D-15  0.17675221D-14 -0.13076691D-14
  0.24286851D-14  0.22920763D-01 -0.74430013D-01 -0.16049881D-15  0.34004657D-15
 -0.17954775D-15 -0.49508759D-15  0.96365702D-02 -0.31292591D-01 -0.45727149D-16
  0.84746220D-16 -0.39019071D-16  0.28044621D-16  0.36728395D-03 -0.11926719D-02
  0.40435715D-02 -0.13130587D-01 -0.10338101D-14  0.40439553D-02 -0.13131834D-01
  0.14595429D-14 -0.16174670D-01  0.52523596D-01  0.16418874D-14  0.34349067D-14
  0.45354640D-03 -0.14727897D-02 -0.42785759D-16  0.45292980D-03 -0.14707875D-02
  0.32983958D-15 -0.18135690D-02  0.58891566D-02 -0.20148231D-15 -0.57900462D-16
MO    8     MO 0.0        OCC NO =    2.0000000  ORB. ENERGY =   -0.358134
  0.78878170D-15  0.14703233D-14  0.24925594D-14  0.37744695D-14  0.47199874D-14
  0.40634695D-14  0.15621460D-14 -0.67690344D-17 -0.37749280D-14 -0.70886463D-14
 -0.12070742D-13 -0.18908746D-13 -0.25339944D-13 -0.27256527D-13 -0.16364783D-13
  0.10762170D-13  0.68649936D-14  0.40599623D-14 -0.92645403D-15  0.10017822D+01
  0.97972109D+00  0.64734315D+00 -0.17536912D+01 -0.17150717D+01 -0.11332204D+01
  0.21298930D-12  0.20829889D-12  0.13763188D-12  0.22397944D+00 -0.39209201D+00
  0.48619390D-13  0.36432785D-01 -0.63778192D-01  0.77209541D-14  0.85227473D-03
 -0.14919678D-02  0.91330180D-16  0.43303230D-14  0.12780189D-14 -0.56083419D-14
  0.94903673D-15  0.15491985D-02 -0.27119826D-02  0.82278713D-15  0.19878072D-15
 -0.10215678D-14 -0.41211605D-15 -0.40580416D-02  0.71038917D-02  0.36704808D-15
  0.24154353D-15 -0.60859162D-15  0.93552901D-16  0.50496920D-03 -0.88398465D-03
 -0.20924177D-02  0.36629266D-02  0.85726845D-15 -0.20906198D-02  0.36597792D-02
 -0.97279455D-15  0.83678728D-02 -0.14648559D-01 -0.15990108D-14 -0.10584752D-14
 -0.48056717D-04  0.84126716D-04 -0.33269685D-15 -0.47915097D-04  0.83878800D-04
  0.70072155D-15  0.19208525D-03 -0.33625895D-03  0.29736901D-15  0.86730200D-15
 -0.51285168D-15 -0.95597774D-15 -0.16206173D-14 -0.24540922D-14 -0.30688509D-14
 -0.26419948D-14 -0.10156792D-14  0.44011044D-17  0.39081040D-14  0.73387272D-14
  0.12496587D-13  0.19575829D-13  0.26233914D-13  0.28218112D-13  0.16942117D-13
 -0.11141849D-13 -0.71706171D-14 -0.68021672D-14  0.24978120D-14 -0.10017822D+01
 -0.97972109D+00 -0.64734315D+00  0.17536912D+01  0.17150717D+01  0.11332204D+01
  0.21472602D-12  0.20999736D-12  0.13875413D-12 -0.22397944D+00  0.39209201D+00
  0.49401735D-13 -0.36432785D-01  0.63778192D-01  0.73114414D-14 -0.85227473D-03
  0.14919678D-02  0.26429679D-15 -0.37248353D-14 -0.54944756D-15  0.42742829D-14
 -0.94901460D-15  0.15491985D-02 -0.27119826D-02 -0.15238806D-14 -0.83703659D-15
  0.23609172D-14 -0.35924588D-15 -0.40580416D-02  0.71038917D-02 -0.26451076D-15
 -0.21555251D-15  0.48006327D-15  0.14189432D-16  0.50496920D-03 -0.88398465D-03
  0.20924177D-02 -0.36629266D-02  0.10038751D-14  0.20906198D-02 -0.36597792D-02
 -0.21883390D-14 -0.83678728D-02  0.14648559D-01 -0.82328646D-15  0.39515715D-14
  0.48056717D-04 -0.84126716D-04 -0.42785759D-15  0.47915097D-04 -0.83878800D-04
  0.73715185D-15 -0.19208525D-03  0.33625895D-03  0.54642091D-15 -0.16348366D-15
MO    9     MO 0.0        OCC NO =    2.0000000  ORB. ENERGY =   -0.358134
 -0.39521753D-15 -0.73670260D-15 -0.12488920D-14 -0.18911906D-14 -0.23649405D-14
 -0.20359935D-14 -0.78271022D-15  0.33916115D-17  0.25046331D-15  0.47032573D-15
  0.80088361D-15  0.12545794D-14  0.16812840D-14  0.18084477D-14  0.10857896D-14
 -0.71406093D-15  0.10952800D-15  0.73211779D-15  0.13444367D-15 -0.17536912D+01
 -0.17150717D+01 -0.11332204D+01 -0.10017822D+01 -0.97972109D+00 -0.64734315D+00
 -0.76599867D-14 -0.74912997D-14 -0.49498184D-14 -0.39209201D+00 -0.22397944D+00
 -0.13587139D-14 -0.63778192D-01 -0.36432785D-01 -0.47067108D-16 -0.14919678D-02
 -0.85227473D-03  0.34297468D-16  0.78838213D-15  0.10125311D-14 -0.18009132D-14
 -0.47601059D-14 -0.27119826D-02 -0.15491985D-02 -0.14273906D-15 -0.33206988D-15
  0.47480893D-15 -0.57208243D-15  0.71038917D-02  0.40580416D-02  0.65483298D-16
 -0.12772476D-15  0.62241464D-16  0.18860665D-15 -0.88398465D-03 -0.50496920D-03
  0.36629266D-02  0.20924177D-02 -0.48068570D-16  0.36597792D-02  0.20906198D-02
  0.92039915D-15 -0.14648559D-01 -0.83678728D-02 -0.77619344D-15 -0.98751520D-15
  0.84126716D-04  0.48056717D-04  0.61350287D-16  0.83878800D-04  0.47915097D-04
 -0.20690324D-15 -0.33625895D-03 -0.19208525D-03  0.22852375D-16 -0.44627034D-15
 -0.66970259D-16 -0.12483546D-15 -0.21162680D-15 -0.32046535D-15 -0.40074304D-15
 -0.34500243D-15 -0.13263153D-15  0.57471413D-18  0.61282844D-16  0.11507833D-15
  0.19595855D-15  0.30696790D-15  0.41137310D-15  0.44248724D-15  0.26566876D-15
 -0.17471495D-15  0.68014711D-16 -0.16020664D-16 -0.30917461D-15  0.17536912D+01
  0.17150717D+01  0.11332204D+01  0.10017822D+01  0.97972109D+00  0.64734315D+00
 -0.63676260D-14 -0.62273992D-14 -0.41147059D-14  0.39209201D+00  0.22397944D+00
 -0.14136086D-14  0.63778192D-01  0.36432785D-01  0.26717354D-16  0.14919678D-02
  0.85227473D-03  0.28210034D-16 -0.61191926D-15  0.31056679D-15  0.30135247D-15
  0.80938893D-15 -0.27119826D-02 -0.15491985D-02  0.23379331D-15  0.26882149D-15
 -0.50261480D-15  0.76364023D-15  0.71038917D-02  0.40580416D-02  0.55365007D-16
 -0.30957448D-17 -0.52269263D-16  0.14490067D-15 -0.88398465D-03 -0.50496920D-03
 -0.36629266D-02 -0.20924177D-02  0.85195414D-15 -0.36597792D-02 -0.20906198D-02
 -0.13992182D-14  0.14648559D-01  0.83678728D-02 -0.11566442D-14  0.26116225D-14
 -0.84126716D-04 -0.48056717D-04 -0.21392879D-16 -0.83878800D-04 -0.47915097D-04
  0.12745479D-15  0.33625895D-03  0.19208525D-03 -0.63276148D-16 -0.74930010D-16
END DATA
RHF
