 Molden2AIM, Version 4.0.0 (06/02/2016)           Time: Fri Jun 29 22:59:18 2018
GAUSSIAN             18 MOL ORBITALS    290 PRIMITIVES        2 NUCLEI
  H    1    (CENTRE  1)   0.00000000  0.00000000  2.54665162  CHARGE =  1.0
  Br   2    (CENTRE  2)   0.00000000  0.00000000 -0.13800670  CHARGE = 35.0
CENTRE ASSIGNMENTS    1  1  1  1  1  1  1  1  1  1  1  1  1  1  1  1  1  1  1  1
CENTRE ASSIGNMENTS    1  1  1  1  1  1  1  2  2  2  2  2  2  2  2  2  2  2  2  2
CENTRE ASSIGNMENTS    2  2  2  2  2  2  2  2  2  2  2  2  2  2  2  2  2  2  2  2
CENTRE ASSIGNMENTS    2  2  2  2  2  2  2  2  2  2  2  2  2  2  2  2  2  2  2  2
CENTRE ASSIGNMENTS    2  2  2  2  2  2  2  2  2  2  2  2  2  2  2  2  2  2  2  2
CENTRE ASSIGNMENTS    2  2  2  2  2  2  2  2  2  2  2  2  2  2  2  2  2  2  2  2
CENTRE ASSIGNMENTS    2  2  2  2  2  2  2  2  2  2  2  2  2  2  2  2  2  2  2  2
CENTRE ASSIGNMENTS    2  2  2  2  2  2  2  2  2  2  2  2  2  2  2  2  2  2  2  2
CENTRE ASSIGNMENTS    2  2  2  2  2  2  2  2  2  2  2  2  2  2  2  2  2  2  2  2
CENTRE ASSIGNMENTS    2  2  2  2  2  2  2  2  2  2  2  2  2  2  2  2  2  2  2  2
CENTRE ASSIGNMENTS    2  2  2  2  2  2  2  2  2  2  2  2  2  2  2  2  2  2  2  2
CENTRE ASSIGNMENTS    2  2  2  2  2  2  2  2  2  2  2  2  2  2  2  2  2  2  2  2
CENTRE ASSIGNMENTS    2  2  2  2  2  2  2  2  2  2  2  2  2  2  2  2  2  2  2  2
CENTRE ASSIGNMENTS    2  2  2  2  2  2  2  2  2  2  2  2  2  2  2  2  2  2  2  2
CENTRE ASSIGNMENTS    2  2  2  2  2  2  2  2  2  2
TYPE ASSIGNMENTS      1  1  1  1  1  1  2  3  4  2  3  4  2  3  4  5  6  7  8  9
TYPE ASSIGNMENTS     10  5  6  7  8  9 10  1  1  1  1  1  1  1  1  1  1  1  1  1
TYPE ASSIGNMENTS      1  1  1  1  1  1  1  1  1  1  1  1  1  1  1  1  1  1  1  1
TYPE ASSIGNMENTS      1  1  1  1  1  1  1  1  1  1  1  1  1  1  1  1  1  1  1  1
TYPE ASSIGNMENTS      1  1  1  1  1  1  1  1  1  1  1  1  1  1  1  1  1  1  1  1
TYPE ASSIGNMENTS      1  1  2  2  2  2  2  2  2  2  2  2  2  3  3  3  3  3  3  3
TYPE ASSIGNMENTS      3  3  3  3  4  4  4  4  4  4  4  4  4  4  4  2  2  2  2  2
TYPE ASSIGNMENTS      2  2  2  2  2  2  3  3  3  3  3  3  3  3  3  3  3  4  4  4
TYPE ASSIGNMENTS      4  4  4  4  4  4  4  4  2  2  2  2  2  2  2  2  2  2  2  3
TYPE ASSIGNMENTS      3  3  3  3  3  3  3  3  3  3  4  4  4  4  4  4  4  4  4  4
TYPE ASSIGNMENTS      4  2  3  4  2  3  4  2  3  4  5  5  5  5  5  5  5  6  6  6
TYPE ASSIGNMENTS      6  6  6  6  7  7  7  7  7  7  7  8  8  8  8  8  8  8  9  9
TYPE ASSIGNMENTS      9  9  9  9  9 10 10 10 10 10 10 10  5  6  7  8  9 10  5  6
TYPE ASSIGNMENTS      7  8  9 10  5  6  7  8  9 10 11 12 13 17 14 15 18 19 16 20
TYPE ASSIGNMENTS     11 12 13 17 14 15 18 19 16 20
EXPONENTS  0.3387000D+02 0.5095000D+01 0.1159000D+01 0.3258000D+00 0.1027000D+00
EXPONENTS  0.2526000D-01 0.1407000D+01 0.1407000D+01 0.1407000D+01 0.3880000D+00
EXPONENTS  0.3880000D+00 0.3880000D+00 0.1020000D+00 0.1020000D+00 0.1020000D+00
EXPONENTS  0.1057000D+01 0.1057000D+01 0.1057000D+01 0.1057000D+01 0.1057000D+01
EXPONENTS  0.1057000D+01 0.2470000D+00 0.2470000D+00 0.2470000D+00 0.2470000D+00
EXPONENTS  0.2470000D+00 0.2470000D+00 0.1063900D+08 0.1593400D+07 0.3626100D+06
EXPONENTS  0.1027000D+06 0.3350100D+05 0.1209300D+05 0.4715900D+04 0.1955600D+04
EXPONENTS  0.8526100D+03 0.3876700D+03 0.1826800D+03 0.8824500D+02 0.3926300D+02
EXPONENTS  0.1923400D+02 0.9405700D+01 0.4160100D+01 0.1899500D+01 0.3011400D+00
EXPONENTS  0.1063900D+08 0.1593400D+07 0.3626100D+06 0.1027000D+06 0.3350100D+05
EXPONENTS  0.1209300D+05 0.4715900D+04 0.1955600D+04 0.8526100D+03 0.3876700D+03
EXPONENTS  0.1826800D+03 0.8824500D+02 0.3926300D+02 0.1923400D+02 0.9405700D+01
EXPONENTS  0.4160100D+01 0.1899500D+01 0.3011400D+00 0.1063900D+08 0.1593400D+07
EXPONENTS  0.3626100D+06 0.1027000D+06 0.3350100D+05 0.1209300D+05 0.4715900D+04
EXPONENTS  0.1955600D+04 0.8526100D+03 0.3876700D+03 0.1826800D+03 0.8824500D+02
EXPONENTS  0.3926300D+02 0.1923400D+02 0.9405700D+01 0.4160100D+01 0.1899500D+01
EXPONENTS  0.3011400D+00 0.1063900D+08 0.1593400D+07 0.3626100D+06 0.1027000D+06
EXPONENTS  0.3350100D+05 0.1209300D+05 0.4715900D+04 0.1955600D+04 0.8526100D+03
EXPONENTS  0.3876700D+03 0.1826800D+03 0.8824500D+02 0.3926300D+02 0.1923400D+02
EXPONENTS  0.9405700D+01 0.4160100D+01 0.1899500D+01 0.3011400D+00 0.6047200D+00
EXPONENTS  0.1251500D+00 0.4559300D-01 0.8676500D+04 0.2055900D+04 0.6662300D+03
EXPONENTS  0.2531000D+03 0.1061200D+03 0.4724200D+02 0.2182500D+02 0.9968400D+01
EXPONENTS  0.4517100D+01 0.1998200D+01 0.2814500D+00 0.8676500D+04 0.2055900D+04
EXPONENTS  0.6662300D+03 0.2531000D+03 0.1061200D+03 0.4724200D+02 0.2182500D+02
EXPONENTS  0.9968400D+01 0.4517100D+01 0.1998200D+01 0.2814500D+00 0.8676500D+04
EXPONENTS  0.2055900D+04 0.6662300D+03 0.2531000D+03 0.1061200D+03 0.4724200D+02
EXPONENTS  0.2182500D+02 0.9968400D+01 0.4517100D+01 0.1998200D+01 0.2814500D+00
EXPONENTS  0.8676500D+04 0.2055900D+04 0.6662300D+03 0.2531000D+03 0.1061200D+03
EXPONENTS  0.4724200D+02 0.2182500D+02 0.9968400D+01 0.4517100D+01 0.1998200D+01
EXPONENTS  0.2814500D+00 0.8676500D+04 0.2055900D+04 0.6662300D+03 0.2531000D+03
EXPONENTS  0.1061200D+03 0.4724200D+02 0.2182500D+02 0.9968400D+01 0.4517100D+01
EXPONENTS  0.1998200D+01 0.2814500D+00 0.8676500D+04 0.2055900D+04 0.6662300D+03
EXPONENTS  0.2531000D+03 0.1061200D+03 0.4724200D+02 0.2182500D+02 0.9968400D+01
EXPONENTS  0.4517100D+01 0.1998200D+01 0.2814500D+00 0.8676500D+04 0.2055900D+04
EXPONENTS  0.6662300D+03 0.2531000D+03 0.1061200D+03 0.4724200D+02 0.2182500D+02
EXPONENTS  0.9968400D+01 0.4517100D+01 0.1998200D+01 0.2814500D+00 0.8676500D+04
EXPONENTS  0.2055900D+04 0.6662300D+03 0.2531000D+03 0.1061200D+03 0.4724200D+02
EXPONENTS  0.2182500D+02 0.9968400D+01 0.4517100D+01 0.1998200D+01 0.2814500D+00
EXPONENTS  0.8676500D+04 0.2055900D+04 0.6662300D+03 0.2531000D+03 0.1061200D+03
EXPONENTS  0.4724200D+02 0.2182500D+02 0.9968400D+01 0.4517100D+01 0.1998200D+01
EXPONENTS  0.2814500D+00 0.7098800D+00 0.7098800D+00 0.7098800D+00 0.1020400D+00
EXPONENTS  0.1020400D+00 0.1020400D+00 0.3514200D-01 0.3514200D-01 0.3514200D-01
EXPONENTS  0.4038300D+03 0.1211700D+03 0.4634500D+02 0.1972100D+02 0.8862400D+01
EXPONENTS  0.3996200D+01 0.1763600D+01 0.4038300D+03 0.1211700D+03 0.4634500D+02
EXPONENTS  0.1972100D+02 0.8862400D+01 0.3996200D+01 0.1763600D+01 0.4038300D+03
EXPONENTS  0.1211700D+03 0.4634500D+02 0.1972100D+02 0.8862400D+01 0.3996200D+01
EXPONENTS  0.1763600D+01 0.4038300D+03 0.1211700D+03 0.4634500D+02 0.1972100D+02
EXPONENTS  0.8862400D+01 0.3996200D+01 0.1763600D+01 0.4038300D+03 0.1211700D+03
EXPONENTS  0.4634500D+02 0.1972100D+02 0.8862400D+01 0.3996200D+01 0.1763600D+01
EXPONENTS  0.4038300D+03 0.1211700D+03 0.4634500D+02 0.1972100D+02 0.8862400D+01
EXPONENTS  0.3996200D+01 0.1763600D+01 0.7061900D+00 0.7061900D+00 0.7061900D+00
EXPONENTS  0.7061900D+00 0.7061900D+00 0.7061900D+00 0.2639000D+00 0.2639000D+00
EXPONENTS  0.2639000D+00 0.2639000D+00 0.2639000D+00 0.2639000D+00 0.1047000D+00
EXPONENTS  0.1047000D+00 0.1047000D+00 0.1047000D+00 0.1047000D+00 0.1047000D+00
EXPONENTS  0.5515000D+00 0.5515000D+00 0.5515000D+00 0.5515000D+00 0.5515000D+00
EXPONENTS  0.5515000D+00 0.5515000D+00 0.5515000D+00 0.5515000D+00 0.5515000D+00
EXPONENTS  0.2580000D+00 0.2580000D+00 0.2580000D+00 0.2580000D+00 0.2580000D+00
EXPONENTS  0.2580000D+00 0.2580000D+00 0.2580000D+00 0.2580000D+00 0.2580000D+00
MO    1     MO 0.0        OCC NO =    2.0000000  ORB. ENERGY = -482.141580
 -0.63928324D-05 -0.11529737D-04 -0.17000590D-04  0.60571509D-04 -0.10067795D-03
 -0.18630869D-05 -0.19104168D-19 -0.45567922D-18  0.10666214D-05  0.47655422D-20
 -0.15230066D-19 -0.70592224D-04  0.10909084D-20 -0.25793380D-20  0.16097140D-04
 -0.20554777D-04 -0.20554777D-04  0.41109554D-04  0.30185828D-21 -0.34671205D-20
  0.61770352D-20 -0.43573398D-05 -0.43573398D-05  0.87146795D-05 -0.12714279D-21
  0.35924259D-21  0.89482620D-20  0.78327978D+00  0.14734447D+01  0.25506054D+01
  0.41809302D+01  0.65495082D+01  0.98444685D+01  0.14070218D+02  0.18678565D+02
  0.21753726D+02  0.19980586D+02  0.11683435D+02  0.30657917D+01  0.16760564D+00
 -0.59989325D-02  0.16765123D-02 -0.49781308D-03  0.84868512D-04  0.69241032D-05
  0.48793920D-04  0.89649550D-04  0.15502473D-03  0.25387467D-03  0.39971425D-03
  0.60360769D-03  0.88108289D-03  0.12133047D-02  0.15502785D-02  0.16899852D-02
  0.13911181D-02  0.38143513D-03 -0.76937940D-03 -0.74979382D-03 -0.16407601D-03
 -0.55275698D-05 -0.18725640D-06  0.47635613D-09 -0.10958612D-03 -0.21483268D-03
 -0.37627412D-03 -0.61470948D-03 -0.96954491D-03 -0.14630000D-02 -0.21450486D-02
 -0.29615945D-02 -0.38397219D-02 -0.42699967D-02 -0.37087550D-02 -0.10773270D-02
  0.27159283D-02  0.39572989D-02  0.68126316D-03 -0.16619904D-02 -0.79106553D-03
  0.38202970D-05  0.38824612D-04  0.84123559D-04  0.14320702D-03  0.23375242D-03
  0.36848775D-03  0.55615444D-03  0.81541306D-03  0.11272507D-02  0.14630583D-02
  0.16344919D-02  0.14277657D-02  0.42290559D-03 -0.10993116D-02 -0.16911128D-02
 -0.29599638D-03  0.93370423D-03  0.79257369D-03 -0.29570216D-03  0.27905941D-03
  0.12907492D-03  0.13969618D-04 -0.27724290D-15 -0.39779448D-15 -0.52670104D-15
 -0.60819047D-15 -0.56382054D-15 -0.36502770D-15 -0.12884137D-15 -0.15101320D-16
 -0.21954524D-18 -0.32149957D-19 -0.33055148D-21 -0.99655800D-16 -0.14298843D-15
 -0.18932428D-15 -0.21861590D-15 -0.20266700D-15 -0.13121031D-15 -0.46312421D-16
 -0.54282151D-17 -0.78916200D-19 -0.11556399D-19 -0.11881773D-21 -0.56545644D-03
 -0.81132988D-03 -0.10742439D-02 -0.12404473D-02 -0.11499517D-02 -0.74449972D-03
 -0.26278106D-03 -0.30800206D-04 -0.44777799D-06 -0.65572103D-07 -0.67418305D-09
 -0.77350071D-17 -0.11165572D-16 -0.14916937D-16 -0.17721779D-16 -0.17173762D-16
 -0.11937955D-16 -0.38844961D-17  0.17483315D-17  0.18887813D-17  0.48626097D-18
 -0.47430268D-21  0.51745895D-17  0.74695794D-17  0.99791795D-17  0.11855571D-16
  0.11488957D-16  0.79862909D-17  0.25986625D-17 -0.11696043D-17 -0.12635629D-17
 -0.32530040D-18  0.31730050D-21  0.32704641D-02  0.47209525D-02  0.63070796D-02
  0.74930041D-02  0.72612953D-02  0.50475265D-02  0.16424167D-02 -0.73921786D-03
 -0.79860191D-03 -0.20559762D-03  0.20054149D-06  0.14562063D-17  0.21159324D-17
  0.28131567D-17  0.33755933D-17  0.32659014D-17  0.23184097D-17  0.72056758D-18
 -0.41370445D-18 -0.47525457D-18 -0.12620803D-18  0.45536250D-19 -0.18823843D-18
 -0.27351878D-18 -0.36364640D-18 -0.43635050D-18 -0.42217104D-18 -0.29969228D-18
 -0.93145115D-19  0.53478049D-19  0.61434407D-19  0.16314447D-19 -0.58863032D-20
 -0.24216386D-02 -0.35187483D-02 -0.46782166D-02 -0.56135361D-02 -0.54311210D-02
 -0.38554635D-02 -0.11982878D-02  0.68798124D-03  0.79033772D-03  0.20988113D-03
 -0.75725765D-04 -0.18303502D-18  0.11240100D-18  0.32085606D-04 -0.69545524D-20
  0.24662864D-20  0.40645048D-04  0.44706972D-21  0.52369325D-22  0.45073662D-06
 -0.22484457D-03 -0.23527562D-03 -0.20046742D-03 -0.13202295D-03 -0.60845447D-04
 -0.18220268D-04 -0.31000241D-05 -0.22484457D-03 -0.23527562D-03 -0.20046742D-03
 -0.13202295D-03 -0.60845447D-04 -0.18220268D-04 -0.31000241D-05  0.44968914D-03
  0.47055124D-03  0.40093484D-03  0.26404590D-03  0.12169089D-03  0.36440535D-04
  0.62000481D-05  0.19677841D-17  0.20590740D-17  0.17544413D-17  0.11554322D-17
  0.53250431D-18  0.15945928D-18  0.27130644D-19  0.67310528D-18  0.70433215D-18
  0.60012869D-18  0.39523011D-18  0.18214979D-18  0.54545050D-19  0.92803778D-20
  0.16282862D-17  0.17038260D-17  0.14517510D-17  0.95608777D-18  0.44063239D-18
  0.13194808D-18  0.22449847D-19  0.11861475D-04  0.11861475D-04 -0.23722950D-04
 -0.10866538D-19 -0.30573833D-20 -0.14724193D-19  0.71939729D-05  0.71939729D-05
 -0.14387946D-04  0.12436191D-20  0.24951125D-21  0.10238113D-19 -0.27041077D-05
 -0.27041077D-05  0.54082154D-05 -0.72381040D-22 -0.37692330D-21  0.58627909D-21
 -0.16976946D-20 -0.28138234D-21 -0.17109866D-04 -0.16865591D-20 -0.41718010D-21
  0.25664799D-04  0.67796429D-20  0.12613271D-20  0.25664799D-04 -0.81720536D-21
  0.31879852D-21 -0.77771157D-21  0.14104579D-05  0.31659685D-21 -0.76001433D-21
 -0.21156869D-05 -0.12729924D-20  0.30931491D-20 -0.21156869D-05  0.15284597D-21
MO    2     MO 0.0        OCC NO =    2.0000000  ORB. ENERGY =  -62.397792
  0.63104552D-04  0.11381166D-03  0.16781522D-03 -0.59149517D-03  0.11211489D-02
  0.20731733D-04 -0.11569715D-14  0.36488865D-15 -0.22081611D-04 -0.22444311D-16
 -0.53890406D-18  0.70484368D-03 -0.73081902D-18 -0.29039415D-20 -0.18133236D-03
  0.19580991D-03  0.19580991D-03 -0.39161981D-03 -0.25113332D-19  0.89504078D-18
 -0.39007293D-18  0.45652359D-04  0.45652359D-04 -0.91304718D-04  0.18488311D-19
  0.29089848D-17  0.43975390D-19  0.30770130D-03  0.57882362D-03  0.10019722D-02
  0.16424242D-02  0.25728893D-02  0.38672717D-02  0.55273027D-02  0.73376318D-02
  0.85456688D-02  0.78491141D-02  0.45896857D-02  0.12043565D-02  0.65841700D-04
 -0.23566028D-05  0.65859611D-06 -0.19555941D-06  0.33339493D-07  0.27200441D-08
 -0.25310430D+00 -0.46503103D+00 -0.80414582D+00 -0.13169012D+01 -0.20734017D+01
 -0.31310397D+01 -0.45703618D+01 -0.62936659D+01 -0.80416201D+01 -0.87663081D+01
 -0.72160214D+01 -0.19785841D+01  0.39909324D+01  0.38893379D+01  0.85109670D+00
  0.28672664D-01  0.97133825D-03 -0.24709592D-05  0.10770660D-02  0.21114808D-02
  0.36982063D-02  0.60416656D-02  0.95291619D-02  0.14379080D-01  0.21082588D-01
  0.29108000D-01  0.37738667D-01  0.41967618D-01  0.36451460D-01  0.10588497D-01
 -0.26693473D-01 -0.38894271D-01 -0.66957878D-02  0.16334855D-01  0.77749793D-02
 -0.37547749D-04 -0.41503266D-03 -0.89927555D-03 -0.15308740D-02 -0.24987986D-02
 -0.39391109D-02 -0.59452560D-02 -0.87167142D-02 -0.12050239D-01 -0.15640001D-01
 -0.17472616D-01 -0.15262725D-01 -0.45208341D-02  0.11751572D-01  0.18077890D-01
  0.31641827D-02 -0.99812395D-02 -0.84725628D-02  0.31610375D-02 -0.32330924D-02
 -0.14455864D-02 -0.15442945D-03 -0.42679509D-14 -0.61237539D-14 -0.81081757D-14
 -0.93626457D-14 -0.86796033D-14 -0.56193334D-14 -0.19834183D-14 -0.23247373D-15
 -0.33797378D-17 -0.49492497D-18 -0.50885973D-20  0.10027505D-13  0.14387694D-13
  0.19050072D-13  0.21997435D-13  0.20392634D-13  0.13202563D-13  0.46600200D-14
  0.54619452D-15  0.79406574D-17  0.11628209D-17  0.11955605D-19  0.48339592D-01
  0.69358755D-01  0.91834679D-01  0.10604304D+00  0.98306772D-01  0.63645596D-01
  0.22464558D-01  0.26330399D-02  0.38279527D-04  0.56056107D-05  0.57634383D-07
 -0.62073381D-17 -0.89603639D-17 -0.11970832D-16 -0.14221716D-16 -0.13781933D-16
 -0.95802012D-17 -0.31173056D-17  0.14030349D-17  0.15157458D-17  0.39022411D-18
 -0.38062759D-21 -0.20462972D-15 -0.29538536D-15 -0.39462778D-15 -0.46882991D-15
 -0.45433212D-15 -0.31581878D-15 -0.10276440D-15  0.46252135D-16  0.49967737D-16
  0.12864041D-16 -0.12547684D-19 -0.33316024D-01 -0.48092064D-01 -0.64249848D-01
 -0.76330791D-01 -0.73970387D-01 -0.51418855D-01 -0.16731202D-01  0.75303687D-02
  0.81353105D-02  0.20944108D-02 -0.20429043D-05  0.65759608D-16  0.95551627D-16
  0.12703700D-15  0.15243560D-15  0.14748212D-15  0.10469513D-15  0.32539510D-16
 -0.18682134D-16 -0.21461625D-16 -0.56993231D-17  0.20563335D-17  0.33375290D-16
  0.48495777D-16  0.64475698D-16  0.77366374D-16  0.74852309D-16  0.53136424D-16
  0.16514934D-16 -0.94818334D-17 -0.10892522D-16 -0.28926049D-17  0.10436609D-17
  0.24561660D-01  0.35689182D-01  0.47449181D-01  0.56935733D-01  0.55085573D-01
  0.39104343D-01  0.12153728D-01 -0.69779040D-02 -0.80160627D-02 -0.21287359D-02
  0.76805455D-03  0.19071152D-18 -0.45705496D-17 -0.32772339D-03  0.10849985D-17
 -0.13354512D-18 -0.45017573D-03 -0.21680649D-19  0.20117477D-19 -0.49840461D-05
  0.96696987D-04  0.10118298D-03  0.86213313D-04  0.56777984D-04  0.26167282D-04
  0.78358351D-05  0.13332009D-05  0.96696987D-04  0.10118298D-03  0.86213313D-04
  0.56777984D-04  0.26167282D-04  0.78358351D-05  0.13332009D-05 -0.19339397D-03
 -0.20236596D-03 -0.17242663D-03 -0.11355597D-03 -0.52334565D-04 -0.15671670D-04
 -0.26664018D-05 -0.64393716D-15 -0.67381086D-15 -0.57412291D-15 -0.37810334D-15
 -0.17425657D-15 -0.52181413D-16 -0.88782250D-17  0.47695913D-15  0.49908634D-15
  0.42524827D-15  0.28005814D-15  0.12907046D-15  0.38650357D-16  0.65760306D-17
  0.12055672D-15  0.12614961D-15  0.10748622D-15  0.70787804D-16  0.32623992D-16
  0.97693070D-17  0.16621648D-17 -0.10878233D-03 -0.10878233D-03  0.21756466D-03
  0.27318862D-17 -0.62514093D-17 -0.84422191D-18 -0.71697193D-04 -0.71697193D-04
  0.14339439D-03 -0.30190483D-18  0.40977890D-17  0.11984887D-18  0.29719824D-04
  0.29719824D-04 -0.59439649D-04  0.20539108D-19  0.23822182D-18  0.94519351D-20
  0.59653369D-18  0.41821906D-19  0.17349399D-03  0.62340102D-18  0.16760281D-19
 -0.26024098D-03 -0.24130021D-17 -0.14222600D-18 -0.26024098D-03  0.44124507D-19
 -0.43279580D-18 -0.18583102D-19 -0.16452730D-04 -0.43578994D-18 -0.16350639D-19
  0.24679094D-04  0.17341773D-17  0.72099946D-19  0.24679094D-04 -0.15513016D-19
MO    3     MO 0.0        OCC NO =    2.0000000  ORB. ENERGY =  -56.103626
  0.15100022D-04  0.27233511D-04  0.40155796D-04 -0.54150671D-03 -0.19349042D-03
 -0.37846629D-05 -0.47990303D-15 -0.60976620D-16 -0.12153982D-03 -0.36802868D-17
 -0.25638617D-18  0.34762306D-03 -0.41242589D-18 -0.40793613D-19  0.43206876D-04
 -0.87180128D-04 -0.87180128D-04  0.17436026D-03  0.46914741D-20  0.11839173D-17
 -0.11167272D-17  0.25584123D-05  0.25584123D-05 -0.51168246D-05  0.20178124D-22
  0.14649121D-17  0.20420906D-18 -0.30022063D-05 -0.56475156D-05 -0.97761280D-05
 -0.16024944D-04 -0.25103386D-04 -0.37732526D-04 -0.53929258D-04 -0.71592431D-04
 -0.83379110D-04 -0.76582906D-04 -0.44781037D-04 -0.11750768D-04 -0.64240991D-06
  0.22993103D-07 -0.64258467D-08  0.19080507D-08 -0.32528961D-09 -0.26539158D-10
  0.19564835D-03  0.35946665D-03  0.62160067D-03  0.10179580D-02  0.16027291D-02
  0.24202780D-02  0.35328667D-02  0.48649721D-02  0.62161319D-02  0.67763121D-02
  0.55779483D-02  0.15294355D-02 -0.30849707D-02 -0.30064386D-02 -0.65789347D-03
 -0.22163825D-04 -0.75083959D-06  0.19100391D-08 -0.13048649D-05 -0.25580578D-05
 -0.44803749D-05 -0.73194746D-05 -0.11544574D-04 -0.17420247D-04 -0.25541544D-04
 -0.35264326D-04 -0.45720374D-04 -0.50843746D-04 -0.44160924D-04 -0.12827959D-04
  0.32339128D-04  0.47120388D-04  0.81119433D-05 -0.19789668D-04 -0.94193831D-05
  0.45489078D-07  0.23950418D-05  0.51894771D-05  0.88342619D-05  0.14419894D-04
  0.22731549D-04  0.34308472D-04  0.50301812D-04  0.69538683D-04  0.90254234D-04
  0.10082976D-03  0.88077080D-04  0.26088517D-04 -0.67815158D-04 -0.10432264D-03
 -0.18259647D-04  0.57599046D-04  0.48892880D-04 -0.18241496D-04 -0.13414765D-03
  0.36372924D-03  0.15920501D-04  0.12101854D-13  0.17364017D-13  0.22990882D-13
  0.26547955D-13  0.24611176D-13  0.15933724D-13  0.56240194D-14  0.65918356D-15
  0.95833089D-17  0.14033689D-17  0.14428812D-19 -0.11592626D-13 -0.16633366D-13
 -0.22023461D-13 -0.25430858D-13 -0.23575575D-13 -0.15263257D-13 -0.53873693D-14
 -0.63144613D-15 -0.91800581D-17 -0.13443173D-17 -0.13821670D-19  0.52016434D+02
  0.74634373D+02  0.98819878D+02  0.11410896D+03  0.10578426D+03  0.68486656D+02
  0.24173274D+02  0.28333162D+01  0.41191173D-01  0.60319888D-02  0.62018213D-04
 -0.94698403D-16 -0.13669823D-15 -0.18262557D-15 -0.21696478D-15 -0.21025550D-15
 -0.14615440D-15 -0.47557238D-16  0.21404531D-16  0.23124035D-16  0.59532120D-17
 -0.58068086D-20  0.26834573D-16  0.38736015D-16  0.51750390D-16  0.61481051D-16
  0.59579851D-16  0.41415596D-16  0.13476238D-16 -0.60653764D-17 -0.65526302D-17
 -0.16869546D-17  0.16454684D-20 -0.24182779D-01 -0.34908119D-01 -0.46636413D-01
 -0.55405490D-01 -0.53692166D-01 -0.37322905D-01 -0.12144515D-01  0.54659956D-02
  0.59050989D-02  0.15202496D-02 -0.14828631D-05  0.47356843D-16  0.68811594D-16
  0.91485812D-16  0.10977664D-15  0.10620939D-15  0.75396298D-16  0.23433359D-16
 -0.13453956D-16 -0.15455609D-16 -0.41043729D-17  0.14808705D-17 -0.94524687D-17
 -0.13734856D-16 -0.18260651D-16 -0.21911517D-16 -0.21199489D-16 -0.15049169D-16
 -0.46773196D-17  0.26854218D-17  0.30849536D-17  0.81923653D-18 -0.29558309D-18
  0.20055268D-01  0.29141194D-01  0.38743555D-01  0.46489584D-01  0.44978878D-01
  0.31929766D-01  0.99238516D-02 -0.56976496D-02 -0.65453345D-02 -0.17381711D-02
  0.62713756D-03 -0.17061773D-17  0.13584579D-17 -0.18950172D-02  0.48217089D-18
  0.13859549D-18  0.50466675D-04 -0.62094950D-20 -0.15232552D-19  0.22442189D-05
 -0.28863303D-02 -0.30202336D-02 -0.25734007D-02 -0.16947789D-02 -0.78107315D-03
 -0.23389362D-03 -0.39795016D-04 -0.28863303D-02 -0.30202336D-02 -0.25734007D-02
 -0.16947789D-02 -0.78107315D-03 -0.23389362D-03 -0.39795016D-04  0.57726605D-02
  0.60404673D-02  0.51468014D-02  0.33895578D-02  0.15621463D-02  0.46778723D-03
  0.79590032D-04 -0.10188391D-15 -0.10661053D-15 -0.90837881D-16 -0.59823612D-16
 -0.27570922D-16 -0.82561571D-17 -0.14047151D-17 -0.96440990D-15 -0.10091510D-14
 -0.85985071D-15 -0.56627669D-15 -0.26098007D-15 -0.78150904D-16 -0.13296714D-16
  0.17573384D-14  0.18388653D-14  0.15668117D-14  0.10318639D-14  0.47555537D-15
  0.14240582D-15  0.24229144D-16  0.70745296D-04  0.70745296D-04 -0.14149059D-03
  0.47889771D-18  0.33066014D-17 -0.81304312D-17 -0.78079407D-04 -0.78079407D-04
  0.15615881D-03 -0.55194906D-19  0.13761386D-17  0.11569913D-17 -0.28780891D-05
 -0.28780891D-05  0.57561783D-05  0.43617817D-20  0.14980701D-18 -0.59346066D-19
  0.62971906D-18  0.11476960D-18  0.29493553D-05  0.63574467D-18  0.11775605D-18
 -0.44240329D-05 -0.25249019D-17 -0.46206484D-18 -0.44240329D-05 -0.72438990D-19
 -0.24932516D-18 -0.47382475D-19  0.29663433D-04 -0.25001191D-18 -0.47570988D-19
 -0.44495150D-04  0.99798740D-18  0.18971841D-18 -0.44495150D-04  0.65417349D-20
MO    4     MO 0.0        OCC NO =    2.0000000  ORB. ENERGY =  -56.099821
 -0.57185263D-17 -0.10313598D-16 -0.15207394D-16  0.12555642D-15 -0.84601649D-16
 -0.11639876D-15 -0.44757334D-04  0.82851309D-04 -0.43920177D-16  0.53891814D-04
 -0.99760349D-04 -0.13024098D-14  0.56446158D-05 -0.10448875D-04 -0.37144953D-15
 -0.10641252D-15 -0.46398758D-15  0.57040010D-15  0.17961405D-15  0.16947618D-04
 -0.31372118D-04 -0.31398661D-15 -0.33046968D-15  0.64445629D-15 -0.14442770D-16
 -0.28449322D-04  0.52663180D-04 -0.69093677D-16 -0.12997362D-15 -0.22499075D-15
 -0.36880288D-15 -0.57773686D-15 -0.86838770D-15 -0.12411442D-14 -0.16476497D-14
 -0.19189119D-14 -0.17625020D-14 -0.10306042D-14 -0.27043571D-15 -0.14784615D-16
  0.52917018D-18 -0.14788637D-18  0.43912453D-19 -0.74863129D-20 -0.61078016D-21
  0.19653305D-15  0.36109210D-15  0.62441146D-15  0.10225610D-14  0.16099764D-14
  0.24312221D-14  0.35488418D-14  0.48869708D-14  0.62442403D-14  0.68069536D-14
  0.56031710D-14  0.15363514D-14 -0.30989205D-14 -0.30200333D-14 -0.66086837D-15
 -0.22264047D-16 -0.75423478D-18  0.19186760D-20 -0.20349938D-15 -0.39894030D-15
 -0.69873405D-15 -0.11415041D-14 -0.18004269D-14 -0.27167637D-14 -0.39833154D-14
 -0.54996259D-14 -0.71302922D-14 -0.79293046D-14 -0.68870892D-14 -0.20005762D-14
  0.50434284D-14  0.73486305D-14  0.12650930D-14 -0.30862853D-14 -0.14689940D-14
  0.70942206D-17  0.10828508D-15  0.23462763D-15  0.39941633D-15  0.65195501D-15
  0.10277431D-14  0.15511612D-14  0.22742551D-14  0.31439962D-14  0.40805916D-14
  0.45587344D-14  0.39821577D-14  0.11795190D-14 -0.30660718D-14 -0.47166549D-14
 -0.82555863D-15  0.26041791D-14  0.22105542D-14 -0.82473801D-15 -0.40885010D-15
 -0.10113980D-14  0.52229924D-15 -0.24721455D+02 -0.35470912D+02 -0.46965373D+02
 -0.54231699D+02 -0.50275280D+02 -0.32549133D+02 -0.11488648D+02 -0.13465687D+01
 -0.19576616D-01 -0.28667775D-02 -0.29474925D-04  0.45762442D+02  0.65661003D+02
  0.86938658D+02  0.10038952D+03  0.93065701D+02  0.60252432D+02  0.21266896D+02
  0.24926636D+01  0.36238715D-01  0.53067564D-02  0.54561697D-04 -0.11874490D-13
 -0.17037791D-13 -0.22558941D-13 -0.26049185D-13 -0.24148793D-13 -0.15634369D-13
 -0.55183581D-14 -0.64679915D-15 -0.94032625D-17 -0.13770031D-17 -0.14157731D-19
  0.47531805D-02  0.68612707D-02  0.91664936D-02  0.10890076D-01  0.10553318D-01
  0.73359022D-02  0.23870322D-02 -0.10743539D-02 -0.11606607D-02 -0.29880854D-03
  0.29146014D-06 -0.87987194D-02 -0.12701053D-01 -0.16968303D-01 -0.20158864D-01
 -0.19535485D-01 -0.13579654D-01 -0.44186891D-02  0.19887607D-02  0.21485251D-02
  0.55313121D-03 -0.53952842D-06  0.11743404D-12  0.16951739D-12  0.22647118D-12
  0.26905471D-12  0.26073464D-12  0.18124383D-12  0.58975005D-13 -0.26543432D-13
 -0.28675763D-13 -0.73824873D-14  0.72009347D-17 -0.50343966D-02 -0.73152015D-02
 -0.97256453D-02 -0.11670101D-01 -0.11290874D-01 -0.80152062D-02 -0.24911462D-02
  0.14302590D-02  0.16430501D-02  0.43632640D-03 -0.15742792D-03  0.93192848D-02
  0.13541334D-01  0.18003361D-01  0.21602787D-01  0.20900792D-01  0.14837128D-01
  0.46114168D-02 -0.26475846D-02 -0.30414870D-02 -0.80769361D-03  0.29141837D-03
 -0.76262758D-13 -0.11081317D-12 -0.14732739D-12 -0.17678268D-12 -0.17103802D-12
 -0.12141708D-12 -0.37736733D-13  0.21666052D-13  0.24889484D-13  0.66096212D-14
 -0.23847719D-14  0.75909416D-03 -0.14051763D-02  0.25201388D-14  0.15285958D-04
 -0.28296180D-04  0.51872178D-15 -0.16701506D-05  0.30916533D-05  0.24169531D-16
  0.95145399D-14  0.99559408D-14  0.84829945D-14  0.55866932D-14  0.25747405D-14
  0.77101022D-15  0.13118085D-15  0.19287852D-13  0.20182659D-13  0.17196705D-13
  0.11325331D-13  0.52195077D-14  0.15629900D-14  0.26592950D-15 -0.28802392D-13
 -0.30138600D-13 -0.25679700D-13 -0.16912024D-13 -0.77942483D-14 -0.23340003D-14
 -0.39711036D-15 -0.27369687D-13 -0.28639428D-13 -0.24402326D-13 -0.16070776D-13
 -0.74065424D-14 -0.22179011D-14 -0.37735707D-15 -0.38281208D-02 -0.40057159D-02
 -0.34130843D-02 -0.22477741D-02 -0.10359321D-02 -0.31021156D-03 -0.52779867D-04
  0.70863205D-02  0.74150708D-02  0.63180372D-02  0.41609052D-02  0.19176373D-02
  0.57423959D-03  0.97701999D-04 -0.60336405D-15 -0.56057764D-15  0.11639417D-14
  0.11604081D-15  0.44333508D-04 -0.82066753D-04  0.34652856D-15  0.33807081D-15
 -0.68459937D-15 -0.22507830D-16 -0.34335785D-04  0.63559745D-04 -0.90386626D-16
 -0.91015046D-16  0.18140167D-15  0.12057700D-17 -0.93034252D-06  0.17221780D-05
  0.28623541D-06 -0.52985681D-06 -0.24313517D-15  0.28621680D-06 -0.52982237D-06
  0.23421309D-15 -0.11449230D-05  0.21193928D-05  0.49519242D-15 -0.12772433D-15
  0.26505862D-05 -0.49065597D-05  0.16436598D-15  0.26505883D-05 -0.49065637D-05
 -0.22764954D-15 -0.10602347D-04  0.19626243D-04 -0.26544839D-15  0.15105663D-16
MO    5     MO 0.0        OCC NO =    2.0000000  ORB. ENERGY =  -56.099821
 -0.32695760D-17 -0.58968150D-17 -0.86948503D-17  0.27016754D-16  0.11464896D-16
  0.27728021D-18  0.82851309D-04  0.44757334D-04  0.13009381D-16 -0.99760349D-04
 -0.53891814D-04 -0.18353193D-16 -0.10448875D-04 -0.56446158D-05 -0.29483079D-17
 -0.10182413D-16  0.28273043D-16 -0.18090629D-16 -0.33393631D-15 -0.31372118D-04
 -0.16947618D-04  0.87246232D-18 -0.65093896D-18 -0.22152336D-18  0.61069539D-16
  0.52663180D-04  0.28449322D-04 -0.11867632D-16 -0.22324462D-16 -0.38644744D-16
 -0.63346130D-16 -0.99232940D-16 -0.14915556D-15 -0.21318076D-15 -0.28300276D-15
 -0.32959515D-15 -0.30272996D-15 -0.17701811D-15 -0.46450439D-16 -0.25394273D-17
  0.90891055D-19 -0.25401182D-19  0.75424680D-20 -0.12858602D-20 -0.10490851D-21
  0.14773802D-16  0.27144053D-16  0.46938323D-16  0.76868064D-16  0.12102531D-15
  0.18276008D-15  0.26677390D-15  0.36736387D-15  0.46939268D-15  0.51169302D-15
  0.42120214D-15  0.11549077D-15 -0.23295237D-15 -0.22702226D-15 -0.49678865D-16
 -0.16736352D-17 -0.56697414D-19  0.14423091D-21 -0.11016625D-16 -0.21596998D-16
 -0.37826606D-16 -0.61796365D-16 -0.97467752D-16 -0.14707449D-15 -0.21564042D-15
 -0.29772727D-15 -0.38600488D-15 -0.42926014D-15 -0.37283886D-15 -0.10830302D-15
  0.27303060D-15  0.39782482D-15  0.68486966D-16 -0.16707887D-15 -0.79525331D-16
  0.38405211D-18  0.47522364D-17  0.10296949D-16  0.17528922D-16  0.28611922D-16
  0.45103887D-16  0.68074793D-16  0.99808741D-16  0.13797850D-15  0.17908225D-15
  0.20006619D-15  0.17476234D-15  0.51764776D-16 -0.13455868D-15 -0.20699674D-15
 -0.36230750D-16  0.11428790D-15  0.97013141D-16 -0.36194736D-16  0.36823339D-16
 -0.29281624D-17 -0.51758137D-17  0.45762442D+02  0.65661003D+02  0.86938658D+02
  0.10038952D+03  0.93065701D+02  0.60252432D+02  0.21266896D+02  0.24926636D+01
  0.36238715D-01  0.53067564D-02  0.54561697D-04  0.24721455D+02  0.35470912D+02
  0.46965373D+02  0.54231699D+02  0.50275280D+02  0.32549133D+02  0.11488648D+02
  0.13465687D+01  0.19576616D-01  0.28667775D-02  0.29474925D-04 -0.51765528D-14
 -0.74274368D-14 -0.98343211D-14 -0.11355855D-13 -0.10527400D-13 -0.68156304D-14
 -0.24056672D-14 -0.28196494D-15 -0.40992484D-17 -0.60028930D-18 -0.61719063D-20
 -0.87987194D-02 -0.12701053D-01 -0.16968303D-01 -0.20158864D-01 -0.19535485D-01
 -0.13579654D-01 -0.44186891D-02  0.19887607D-02  0.21485251D-02  0.55313121D-03
 -0.53952842D-06 -0.47531805D-02 -0.68612707D-02 -0.91664936D-02 -0.10890076D-01
 -0.10553318D-01 -0.73359022D-02 -0.23870322D-02  0.10743539D-02  0.11606607D-02
  0.29880854D-03 -0.29146014D-06  0.87026305D-15  0.12562347D-14  0.16782996D-14
  0.19938714D-14  0.19322142D-14  0.13431353D-14  0.43704335D-15 -0.19670419D-15
 -0.21250615D-15 -0.54709059D-16  0.53363635D-19  0.93192848D-02  0.13541334D-01
  0.18003361D-01  0.21602787D-01  0.20900792D-01  0.14837128D-01  0.46114168D-02
 -0.26475846D-02 -0.30414870D-02 -0.80769361D-03  0.29141837D-03  0.50343966D-02
  0.73152015D-02  0.97256453D-02  0.11670101D-01  0.11290874D-01  0.80152062D-02
  0.24911462D-02 -0.14302590D-02 -0.16430501D-02 -0.43632640D-03  0.15742792D-03
 -0.54081891D-15 -0.78583387D-15 -0.10447752D-14 -0.12536580D-14 -0.12129196D-14
 -0.86103171D-15 -0.26761082D-15  0.15364525D-15  0.17650429D-15  0.46872264D-16
 -0.16911659D-16 -0.14051763D-02 -0.75909416D-03  0.21486145D-16 -0.28296180D-04
 -0.15285958D-04 -0.45837500D-17  0.30916533D-05  0.16701506D-05 -0.12968488D-18