 Molden2AIM, Version 4.0.0 (06/02/2016)           Time: Fri Jun 29 23:00:06 2018
GAUSSIAN              2 MOL ORBITALS    104 PRIMITIVES        2 NUCLEI
  Li   1    (CENTRE  1)   0.00000000  0.00000000  0.73607856  CHARGE =  3.0
  H    2    (CENTRE  2)   0.00000000  0.00000000 -2.28565398  CHARGE =  1.0
CENTRE ASSIGNMENTS    1  1  1  1  1  1  1  1  1  1  1  1  1  1  1  1  1  1  1  1
CENTRE ASSIGNMENTS    1  1  1  1  1  1  1  1  1  1  1  1  1  1  1  1  1  1  1  1
CENTRE ASSIGNMENTS    1  1  1  1  1  1  1  1  1  1  1  1  1  1  1  1  1  1  1  1
CENTRE ASSIGNMENTS    1  1  1  1  1  1  1  1  1  1  1  1  1  1  1  1  1  2  2  2
CENTRE ASSIGNMENTS    2  2  2  2  2  2  2  2  2  2  2  2  2  2  2  2  2  2  2  2
CENTRE ASSIGNMENTS    2  2  2  2
TYPE ASSIGNMENTS      1  1  1  1  1  1  1  1  1  1  1  1  1  1  1  1  1  1  1  1
TYPE ASSIGNMENTS      1  2  2  2  3  3  3  4  4  4  2  3  4  2  3  4  2  3  4  5
TYPE ASSIGNMENTS      6  7  8  9 10  5  6  7  8  9 10  5  6  7  8  9 10 11 12 13
TYPE ASSIGNMENTS     17 14 15 18 19 16 20 11 12 13 17 14 15 18 19 16 20  1  1  1
TYPE ASSIGNMENTS      1  1  1  2  3  4  2  3  4  2  3  4  5  6  7  8  9 10  5  6
TYPE ASSIGNMENTS      7  8  9 10
EXPONENTS  0.5988000D+04 0.8989000D+03 0.2059000D+03 0.5924000D+02 0.1987000D+02
EXPONENTS  0.7406000D+01 0.2930000D+01 0.1189000D+01 0.4798000D+00 0.5988000D+04
EXPONENTS  0.8989000D+03 0.2059000D+03 0.5924000D+02 0.1987000D+02 0.7406000D+01
EXPONENTS  0.2930000D+01 0.1189000D+01 0.4798000D+00 0.7509000D-01 0.2832000D-01
EXPONENTS  0.7600000D-02 0.3266000D+01 0.6511000D+00 0.1696000D+00 0.3266000D+01
EXPONENTS  0.6511000D+00 0.1696000D+00 0.3266000D+01 0.6511000D+00 0.1696000D+00
EXPONENTS  0.5578000D-01 0.5578000D-01 0.5578000D-01 0.2050000D-01 0.2050000D-01
EXPONENTS  0.2050000D-01 0.9100000D-02 0.9100000D-02 0.9100000D-02 0.1874000D+00
EXPONENTS  0.1874000D+00 0.1874000D+00 0.1874000D+00 0.1874000D+00 0.1874000D+00
EXPONENTS  0.8010000D-01 0.8010000D-01 0.8010000D-01 0.8010000D-01 0.8010000D-01
EXPONENTS  0.8010000D-01 0.3710000D-01 0.3710000D-01 0.3710000D-01 0.3710000D-01
EXPONENTS  0.3710000D-01 0.3710000D-01 0.1829000D+00 0.1829000D+00 0.1829000D+00
EXPONENTS  0.1829000D+00 0.1829000D+00 0.1829000D+00 0.1829000D+00 0.1829000D+00
EXPONENTS  0.1829000D+00 0.1829000D+00 0.8160000D-01 0.8160000D-01 0.8160000D-01
EXPONENTS  0.8160000D-01 0.8160000D-01 0.8160000D-01 0.8160000D-01 0.8160000D-01
EXPONENTS  0.8160000D-01 0.8160000D-01 0.3387000D+02 0.5095000D+01 0.1159000D+01
EXPONENTS  0.3258000D+00 0.1027000D+00 0.2526000D-01 0.1407000D+01 0.1407000D+01
EXPONENTS  0.1407000D+01 0.3880000D+00 0.3880000D+00 0.3880000D+00 0.1020000D+00
EXPONENTS  0.1020000D+00 0.1020000D+00 0.1057000D+01 0.1057000D+01 0.1057000D+01
EXPONENTS  0.1057000D+01 0.1057000D+01 0.1057000D+01 0.2470000D+00 0.2470000D+00
EXPONENTS  0.2470000D+00 0.2470000D+00 0.2470000D+00 0.2470000D+00
MO    1     MO 0.0        OCC NO =    2.0000000  ORB. ENERGY =   -1.929416
  0.64764685D-01  0.12037399D+00  0.20499484D+00  0.31969441D+00  0.44663128D+00
  0.53239270D+00  0.50470654D+00  0.32053967D+00  0.78715114D-01 -0.19850782D-03
 -0.36703408D-03 -0.61894647D-03 -0.98623523D-03 -0.13747377D-02 -0.17516394D-02
 -0.17395587D-02 -0.15691230D-02 -0.89813669D-03 -0.52336843D-02  0.49758779D-03
  0.24917162D-05 -0.46976682D-17 -0.34470839D-17 -0.28306173D-17 -0.31436346D-17
 -0.23067555D-17 -0.18942219D-17  0.60466814D-02  0.44369710D-02  0.36434758D-02
  0.73458172D-21 -0.11586064D-18  0.88473482D-03 -0.56790566D-19 -0.16857204D-19
 -0.11326310D-03  0.93267273D-20  0.30250576D-20  0.10945745D-04  0.19477188D-03
  0.19477188D-03 -0.38954376D-03  0.17092094D-18 -0.11250452D-17  0.20314268D-18
  0.11631277D-03  0.11631277D-03 -0.23262553D-03 -0.43306005D-19  0.45642650D-18
  0.16900486D-18 -0.77419265D-05 -0.77419265D-05  0.15483853D-04  0.56227063D-20
 -0.80829542D-20  0.85514498D-20  0.28406097D-19  0.28846308D-19  0.12938758D-03
  0.12303802D-18  0.40403317D-19 -0.19408138D-03 -0.20825631D-18 -0.12694224D-18
 -0.19408138D-03 -0.24177418D-19  0.17163637D-19  0.11552033D-19  0.21983241D-05
  0.85955396D-20  0.94353006D-20 -0.32974861D-05 -0.60086451D-19 -0.44091401D-19
 -0.32974861D-05  0.13179956D-20  0.34901153D-04  0.62945667D-04  0.92813349D-04
  0.28894093D-02  0.76143871D-02 -0.30207283D-03 -0.87425819D-18 -0.11074641D-17
 -0.17368736D-02 -0.12179993D-18  0.51880370D-18  0.44928064D-02  0.15174991D-17
  0.11111465D-17  0.14863224D-02 -0.84180990D-03 -0.84180990D-03  0.16836198D-02
 -0.15195785D-18 -0.44652477D-17 -0.33532107D-17 -0.22074945D-03 -0.22074945D-03
  0.44149890D-03 -0.79836160D-20  0.15151417D-17  0.15371967D-17
MO    2     MO 0.0        OCC NO =    2.0000000  ORB. ENERGY =   -0.162175
 -0.12963954D-02 -0.24095276D-02 -0.41033841D-02 -0.63993265D-02 -0.89402234D-02
 -0.10656911D-01 -0.10102716D-01 -0.64162462D-02 -0.15756413D-02 -0.60061437D-02
 -0.11105152D-01 -0.18727129D-01 -0.29839986D-01 -0.41594694D-01 -0.52998407D-01
 -0.52632888D-01 -0.47476107D-01 -0.27174436D-01  0.27438112D-01 -0.20486593D-02
  0.11675784D-04  0.68777382D-16  0.50467890D-16  0.41442357D-16 -0.21391453D-15
 -0.15696752D-15 -0.12889590D-15 -0.33872520D-01 -0.24855186D-01 -0.20410156D-01
 -0.88749708D-18 -0.29811425D-16 -0.24762578D-02  0.15502696D-17  0.13316445D-17
  0.47470000D-03 -0.65746530D-19 -0.41147839D-18 -0.40586501D-04 -0.11361418D-02
 -0.11361418D-02  0.22722836D-02  0.14657091D-19  0.31454563D-17 -0.11530640D-16
 -0.60609030D-04 -0.60609030D-04  0.12121806D-03 -0.43450286D-19  0.29908493D-17
  0.35030126D-18  0.37744517D-04  0.37744517D-04 -0.75489035D-04  0.31761519D-20
 -0.24844775D-20 -0.58535083D-18  0.13709904D-17  0.78501426D-18 -0.10555974D-03
  0.15167001D-17  0.71781184D-18  0.15833961D-03 -0.56296713D-17 -0.30728546D-17
  0.15833961D-03  0.11665465D-18  0.69042338D-19  0.10130098D-20  0.51857791D-04
  0.76910927D-19 -0.10614345D-18 -0.77786686D-04 -0.28403794D-18  0.10310442D-18
 -0.77786686D-04 -0.21915969D-19  0.46792560D-01  0.84392308D-01  0.12443641D+00
  0.82644323D-01  0.46233554D-01  0.47017737D-02 -0.18478792D-16 -0.23816989D-16
  0.70514282D-02  0.28155912D-17 -0.12931248D-16  0.41673208D-02  0.69443842D-17
 -0.12085442D-16 -0.22339866D-03 -0.11430537D-02 -0.11430537D-02  0.22861074D-02
 -0.48898080D-17 -0.21578847D-16 -0.12847749D-16 -0.44857903D-03 -0.44857903D-03
  0.89715806D-03  0.10658262D-17  0.85462444D-17 -0.64408914D-17
END DATA
RHF
