 Molden2AIM, Version 4.0.0 (06/02/2016)           Time: Fri Jun 29 22:58:20 2018
GAUSSIAN             14 MOL ORBITALS    268 PRIMITIVES        2 NUCLEI
  Mg   1    (CENTRE  1)   0.00000000  0.00000000  2.01924417  CHARGE = 12.0
  S    2    (CENTRE  2)   0.00000000  0.00000000 -2.01924417  CHARGE = 16.0
CENTRE ASSIGNMENTS    1  1  1  1  1  1  1  1  1  1  1  1  1  1  1  1  1  1  1  1
CENTRE ASSIGNMENTS    1  1  1  1  1  1  1  1  1  1  1  1  1  1  1  1  1  1  1  1
CENTRE ASSIGNMENTS    1  1  1  1  1  1  1  1  1  1  1  1  1  1  1  1  1  1  1  1
CENTRE ASSIGNMENTS    1  1  1  1  1  1  1  1  1  1  1  1  1  1  1  1  1  1  1  1
CENTRE ASSIGNMENTS    1  1  1  1  1  1  1  1  1  1  1  1  1  1  1  1  1  1  1  1
CENTRE ASSIGNMENTS    1  1  1  1  1  1  1  1  1  1  1  1  1  1  1  1  1  1  1  1
CENTRE ASSIGNMENTS    1  1  1  1  1  1  1  1  1  1  1  1  1  1  1  1  1  2  2  2
CENTRE ASSIGNMENTS    2  2  2  2  2  2  2  2  2  2  2  2  2  2  2  2  2  2  2  2
CENTRE ASSIGNMENTS    2  2  2  2  2  2  2  2  2  2  2  2  2  2  2  2  2  2  2  2
CENTRE ASSIGNMENTS    2  2  2  2  2  2  2  2  2  2  2  2  2  2  2  2  2  2  2  2
CENTRE ASSIGNMENTS    2  2  2  2  2  2  2  2  2  2  2  2  2  2  2  2  2  2  2  2
CENTRE ASSIGNMENTS    2  2  2  2  2  2  2  2  2  2  2  2  2  2  2  2  2  2  2  2
CENTRE ASSIGNMENTS    2  2  2  2  2  2  2  2  2  2  2  2  2  2  2  2  2  2  2  2
CENTRE ASSIGNMENTS    2  2  2  2  2  2  2  2
TYPE ASSIGNMENTS      1  1  1  1  1  1  1  1  1  1  1  1  1  1  1  1  1  1  1  1
TYPE ASSIGNMENTS      1  1  1  1  1  1  1  1  1  1  1  1  1  1  1  1  1  1  1  1
TYPE ASSIGNMENTS      1  1  2  2  2  2  2  2  2  2  3  3  3  3  3  3  3  3  4  4
TYPE ASSIGNMENTS      4  4  4  4  4  4  2  2  2  2  2  2  2  2  3  3  3  3  3  3
TYPE ASSIGNMENTS      3  3  4  4  4  4  4  4  4  4  2  3  4  2  3  4  2  3  4  5
TYPE ASSIGNMENTS      6  7  8  9 10  5  6  7  8  9 10  5  6  7  8  9 10 11 12 13
TYPE ASSIGNMENTS     17 14 15 18 19 16 20 11 12 13 17 14 15 18 19 16 20  1  1  1
TYPE ASSIGNMENTS      1  1  1  1  1  1  1  1  1  1  1  1  1  1  1  1  1  1  1  1
TYPE ASSIGNMENTS      1  1  1  1  1  1  1  1  1  1  1  1  1  1  1  1  1  1  1  2
TYPE ASSIGNMENTS      2  2  2  2  2  2  3  3  3  3  3  3  3  4  4  4  4  4  4  4
TYPE ASSIGNMENTS      2  2  2  2  2  2  2  3  3  3  3  3  3  3  4  4  4  4  4  4
TYPE ASSIGNMENTS      4  2  3  4  2  3  4  2  3  4  5  6  7  8  9 10  5  6  7  8
TYPE ASSIGNMENTS      9 10  5  6  7  8  9 10 11 12 13 17 14 15 18 19 16 20 11 12
TYPE ASSIGNMENTS     13 17 14 15 18 19 16 20
EXPONENTS  0.1649000D+06 0.2471000D+05 0.5628000D+04 0.1596000D+04 0.5210000D+03
EXPONENTS  0.1880000D+03 0.7301000D+02 0.2990000D+02 0.1254000D+02 0.4306000D+01
EXPONENTS  0.1826000D+01 0.7417000D+00 0.7612000D-01 0.1649000D+06 0.2471000D+05
EXPONENTS  0.5628000D+04 0.1596000D+04 0.5210000D+03 0.1880000D+03 0.7301000D+02
EXPONENTS  0.2990000D+02 0.1254000D+02 0.4306000D+01 0.1826000D+01 0.7417000D+00
EXPONENTS  0.7612000D-01 0.1649000D+06 0.2471000D+05 0.5628000D+04 0.1596000D+04
EXPONENTS  0.5210000D+03 0.1880000D+03 0.7301000D+02 0.2990000D+02 0.1254000D+02
EXPONENTS  0.4306000D+01 0.1826000D+01 0.7417000D+00 0.7612000D-01 0.1457000D+00
EXPONENTS  0.3310000D-01 0.1290000D-01 0.3169000D+03 0.7486000D+02 0.2372000D+02
EXPONENTS  0.8669000D+01 0.3363000D+01 0.1310000D+01 0.4911000D+00 0.2364000D+00
EXPONENTS  0.3169000D+03 0.7486000D+02 0.2372000D+02 0.8669000D+01 0.3363000D+01
EXPONENTS  0.1310000D+01 0.4911000D+00 0.2364000D+00 0.3169000D+03 0.7486000D+02
EXPONENTS  0.2372000D+02 0.8669000D+01 0.3363000D+01 0.1310000D+01 0.4911000D+00
EXPONENTS  0.2364000D+00 0.3169000D+03 0.7486000D+02 0.2372000D+02 0.8669000D+01
EXPONENTS  0.3363000D+01 0.1310000D+01 0.4911000D+00 0.2364000D+00 0.3169000D+03
EXPONENTS  0.7486000D+02 0.2372000D+02 0.8669000D+01 0.3363000D+01 0.1310000D+01
EXPONENTS  0.4911000D+00 0.2364000D+00 0.3169000D+03 0.7486000D+02 0.2372000D+02
EXPONENTS  0.8669000D+01 0.3363000D+01 0.1310000D+01 0.4911000D+00 0.2364000D+00
EXPONENTS  0.8733000D-01 0.8733000D-01 0.8733000D-01 0.3237000D-01 0.3237000D-01
EXPONENTS  0.3237000D-01 0.7450000D-02 0.7450000D-02 0.7450000D-02 0.1260000D+00
EXPONENTS  0.1260000D+00 0.1260000D+00 0.1260000D+00 0.1260000D+00 0.1260000D+00
EXPONENTS  0.2940000D+00 0.2940000D+00 0.2940000D+00 0.2940000D+00 0.2940000D+00
EXPONENTS  0.2940000D+00 0.4680000D-01 0.4680000D-01 0.4680000D-01 0.4680000D-01
EXPONENTS  0.4680000D-01 0.4680000D-01 0.2520000D+00 0.2520000D+00 0.2520000D+00
EXPONENTS  0.2520000D+00 0.2520000D+00 0.2520000D+00 0.2520000D+00 0.2520000D+00
EXPONENTS  0.2520000D+00 0.2520000D+00 0.9400000D-01 0.9400000D-01 0.9400000D-01
EXPONENTS  0.9400000D-01 0.9400000D-01 0.9400000D-01 0.9400000D-01 0.9400000D-01
EXPONENTS  0.9400000D-01 0.9400000D-01 0.3741000D+06 0.5605000D+05 0.1276000D+05
EXPONENTS  0.3615000D+04 0.1183000D+04 0.4288000D+03 0.1678000D+03 0.6947000D+02
EXPONENTS  0.2984000D+02 0.1272000D+02 0.5244000D+01 0.2219000D+01 0.3490000D+00
EXPONENTS  0.3741000D+06 0.5605000D+05 0.1276000D+05 0.3615000D+04 0.1183000D+04
EXPONENTS  0.4288000D+03 0.1678000D+03 0.6947000D+02 0.2984000D+02 0.1272000D+02
EXPONENTS  0.5244000D+01 0.2219000D+01 0.3490000D+00 0.3741000D+06 0.5605000D+05
EXPONENTS  0.1276000D+05 0.3615000D+04 0.1183000D+04 0.4288000D+03 0.1678000D+03
EXPONENTS  0.6947000D+02 0.2984000D+02 0.1272000D+02 0.5244000D+01 0.2219000D+01
EXPONENTS  0.3490000D+00 0.7767000D+00 0.1322000D+00 0.4970000D-01 0.5744000D+03
EXPONENTS  0.1358000D+03 0.4319000D+02 0.1587000D+02 0.6208000D+01 0.2483000D+01
EXPONENTS  0.3229000D+00 0.5744000D+03 0.1358000D+03 0.4319000D+02 0.1587000D+02
EXPONENTS  0.6208000D+01 0.2483000D+01 0.3229000D+00 0.5744000D+03 0.1358000D+03
EXPONENTS  0.4319000D+02 0.1587000D+02 0.6208000D+01 0.2483000D+01 0.3229000D+00
EXPONENTS  0.5744000D+03 0.1358000D+03 0.4319000D+02 0.1587000D+02 0.6208000D+01
EXPONENTS  0.2483000D+01 0.3229000D+00 0.5744000D+03 0.1358000D+03 0.4319000D+02
EXPONENTS  0.1587000D+02 0.6208000D+01 0.2483000D+01 0.3229000D+00 0.5744000D+03
EXPONENTS  0.1358000D+03 0.4319000D+02 0.1587000D+02 0.6208000D+01 0.2483000D+01
EXPONENTS  0.3229000D+00 0.8688000D+00 0.8688000D+00 0.8688000D+00 0.1098000D+00
EXPONENTS  0.1098000D+00 0.1098000D+00 0.3510000D-01 0.3510000D-01 0.3510000D-01
EXPONENTS  0.2690000D+00 0.2690000D+00 0.2690000D+00 0.2690000D+00 0.2690000D+00
EXPONENTS  0.2690000D+00 0.8190000D+00 0.8190000D+00 0.8190000D+00 0.8190000D+00
EXPONENTS  0.8190000D+00 0.8190000D+00 0.1010000D+00 0.1010000D+00 0.1010000D+00
EXPONENTS  0.1010000D+00 0.1010000D+00 0.1010000D+00 0.5570000D+00 0.5570000D+00
EXPONENTS  0.5570000D+00 0.5570000D+00 0.5570000D+00 0.5570000D+00 0.5570000D+00
EXPONENTS  0.5570000D+00 0.5570000D+00 0.5570000D+00 0.2180000D+00 0.2180000D+00
EXPONENTS  0.2180000D+00 0.2180000D+00 0.2180000D+00 0.2180000D+00 0.2180000D+00
EXPONENTS  0.2180000D+00 0.2180000D+00 0.2180000D+00
MO    1     MO 0.0        OCC NO =    2.0000000  ORB. ENERGY =  -88.470485
  0.83786324D-04  0.15665635D-03  0.27004044D-03  0.43553455D-03  0.65367610D-03
  0.87608537D-03  0.96289978D-03  0.72070877D-03  0.24742820D-03  0.13946668D-04
 -0.97245828D-06  0.23097557D-06  0.14396402D-07 -0.18379405D-03 -0.34476220D-03
 -0.59305146D-03 -0.96778760D-03 -0.14686864D-02 -0.20799160D-02 -0.25147893D-02
 -0.24832504D-02 -0.12419661D-02  0.69543827D-03  0.11105543D-02  0.36246092D-03
 -0.21083264D-05  0.11013000D-03  0.20642893D-03  0.35554235D-03  0.57957591D-03
  0.88232307D-03  0.12503575D-02  0.15279551D-02  0.15299079D-02  0.79885964D-03
 -0.49739917D-03 -0.89932459D-03 -0.65919262D-03  0.30050550D-03  0.30184367D-03
  0.39055300D-05 -0.20202372D-05 -0.23606565D-18 -0.30510241D-18 -0.32896873D-18
 -0.27118913D-18 -0.14806142D-18 -0.47474599D-19 -0.53469034D-20  0.61358118D-22
  0.96678800D-18  0.12495225D-17  0.13472651D-17  0.11106334D-17  0.60637372D-18
  0.19442843D-18  0.21897815D-19 -0.25128727D-21 -0.35892579D-02 -0.46389266D-02
 -0.50018019D-02 -0.41232925D-02 -0.22511985D-02 -0.72182709D-03 -0.81296941D-04
  0.93291891D-06  0.25703213D-18  0.33218457D-18  0.36354497D-18  0.30373230D-18
  0.16992096D-18  0.57558672D-19  0.90082597D-20 -0.17014461D-19 -0.10674722D-17
 -0.13795855D-17 -0.15098274D-17 -0.12614212D-17 -0.70569347D-18 -0.23904514D-18
 -0.37411925D-19  0.70662233D-19  0.34351457D-02  0.44395321D-02  0.48586531D-02
  0.40592774D-02  0.22709350D-02  0.76925179D-03  0.12039228D-03 -0.22739240D-03
  0.87337954D-19 -0.27165834D-18 -0.17931810D-03  0.72951642D-20 -0.23456014D-19
  0.55813400D-05 -0.60865299D-22  0.24710022D-21 -0.14590872D-06 -0.18433342D-04
 -0.18433342D-04  0.36866683D-04 -0.17518545D-21 -0.64401949D-19  0.19527941D-18
 -0.15541053D-04 -0.15541053D-04  0.31082106D-04  0.42620678D-21  0.39547702D-19
 -0.14829921D-18 -0.44827317D-06 -0.44827317D-06  0.89654634D-06  0.11527547D-22
 -0.81187154D-20  0.26359100D-19  0.27004974D-20 -0.13276103D-19  0.28963658D-05
  0.26916970D-20 -0.13330466D-19 -0.43445487D-05 -0.10793189D-19  0.53158774D-19
 -0.43445487D-05 -0.17577690D-21 -0.23455015D-20  0.74376707D-20 -0.92845782D-06
 -0.23443793D-20  0.74421417D-20  0.13926867D-05  0.93808837D-20 -0.29755154D-19
  0.13926867D-05  0.37851760D-22  0.58500359D+00  0.10936302D+01  0.18901345D+01
  0.30572077D+01  0.46207904D+01  0.63635866D+01  0.74375574D+01  0.64266107D+01
  0.29973941D+01  0.40698137D+00  0.10897958D-02  0.21377289D-02  0.97596255D-04
 -0.94477438D-03 -0.17644064D-02 -0.30606359D-02 -0.49627153D-02 -0.76406652D-02
 -0.10882023D-01 -0.13992870D-01 -0.14688349D-01 -0.10385704D-01  0.22999576D-03
  0.74622623D-02  0.41089242D-02 -0.17376571D-04  0.35836918D-03  0.66876991D-03
  0.11615733D-02  0.18814910D-02  0.29063530D-02  0.41434428D-02  0.53892657D-02
  0.57435045D-02  0.42598378D-02 -0.13259293D-03 -0.38591911D-02 -0.37806753D-02
  0.17657996D-02 -0.25938644D-02 -0.96962505D-03 -0.52474065D-04  0.27631084D-16
  0.36250477D-16  0.39761248D-16  0.32716185D-16  0.17248620D-16  0.44872757D-17
 -0.49656280D-20 -0.13722357D-15 -0.18002985D-15 -0.19746530D-15 -0.16247758D-15
 -0.85661394D-16 -0.22285046D-16  0.24660676D-19  0.12776280D-02  0.16761784D-02
  0.18385122D-02  0.15127570D-02  0.79755540D-03  0.20748622D-03 -0.22960466D-06
 -0.71265588D-17 -0.93572151D-17 -0.10527498D-16 -0.88702129D-17 -0.49618728D-17
 -0.12350000D-17  0.56643052D-18  0.28382815D-16  0.37266809D-16  0.41927673D-16
  0.35327234D-16  0.19761560D-16  0.49186119D-17 -0.22559124D-17 -0.91751201D-03
 -0.12046989D-02 -0.13553674D-02 -0.11419995D-02 -0.63881853D-03 -0.15900063D-03
  0.72925351D-04 -0.18463887D-17  0.86266819D-17 -0.12333299D-04 -0.20303441D-18
  0.67304823D-18 -0.30808065D-03 -0.66555767D-20  0.19043945D-19 -0.15182250D-05
  0.42744146D-04  0.42744146D-04 -0.85488292D-04 -0.10201411D-20  0.16783601D-19
 -0.91258142D-19 -0.77016909D-04 -0.77016909D-04  0.15403382D-03  0.45186891D-20
 -0.33890188D-19  0.20759134D-18  0.15537254D-04  0.15537254D-04 -0.31074508D-04
  0.12878839D-21 -0.51303550D-19  0.16007884D-18 -0.23739797D-19  0.74127593D-19
  0.21918276D-04 -0.23751454D-19  0.74271965D-19 -0.32877414D-04  0.94970844D-19
 -0.29665474D-18 -0.32877414D-04  0.82148192D-21  0.76226468D-20 -0.21321154D-19
 -0.20736942D-04  0.76384514D-20 -0.21361584D-19  0.31105413D-04 -0.30506392D-19
  0.85325046D-19  0.31105413D-04 -0.11608789D-23
MO    2     MO 0.0        OCC NO =    2.0000000  ORB. ENERGY =  -46.620184
  0.42639281D+00  0.79723204D+00  0.13742493D+01  0.22164572D+01  0.33265905D+01
  0.44584424D+01  0.49002453D+01  0.36677231D+01  0.12591745D+01  0.70975293D-01
 -0.49488890D-02  0.11754463D-02  0.73264013D-04 -0.15112551D-02 -0.28348230D-02
 -0.48763930D-02 -0.79576781D-02 -0.12076341D-01 -0.17102205D-01 -0.20677970D-01
 -0.20418641D-01 -0.10212123D-01  0.57182732D-02  0.91315838D-02  0.29803516D-02
 -0.17335811D-04  0.80002583D-03  0.14995775D-02  0.25827936D-02  0.42102578D-02
  0.64095272D-02  0.90830677D-02  0.11099642D-01  0.11113828D-01  0.58032175D-02
 -0.36132950D-02 -0.65330327D-02 -0.47886236D-02  0.21829852D-02 -0.44455319D-03
  0.45679802D-03 -0.22596038D-05  0.49373197D-17  0.63812254D-17  0.68803902D-17
  0.56719282D-17  0.30967088D-17  0.99293257D-18  0.11183063D-18 -0.12833068D-20
 -0.11439688D-16 -0.14785193D-16 -0.15941750D-16 -0.13141763D-16 -0.71750229D-17
 -0.23006083D-17 -0.25910972D-18  0.29734004D-20 -0.15512195D-02 -0.20048694D-02
 -0.21616983D-02 -0.17820206D-02 -0.97293176D-03 -0.31196205D-03 -0.35135230D-04
  0.40319254D-06  0.69161435D-18  0.89383228D-18  0.97821592D-18  0.81727377D-18
  0.45721822D-18  0.15487715D-18  0.24239155D-19 -0.45782003D-19 -0.15725222D-16
 -0.20323048D-16 -0.22241677D-16 -0.18582338D-16 -0.10395762D-16 -0.35214388D-17
 -0.55112521D-18  0.10409445D-17  0.22611666D-02  0.29222986D-02  0.31981828D-02
  0.26719980D-02  0.14948310D-02  0.50635594D-03  0.79247585D-04 -0.14967985D-03
 -0.12630743D-19 -0.14324940D-18 -0.10759170D-02  0.45167829D-21  0.18224662D-19
 -0.84001386D-04 -0.60882335D-22 -0.67121247D-21  0.89767250D-06 -0.13073116D-03
 -0.13073116D-03  0.26146233D-03  0.80434586D-21  0.86318892D-20 -0.43553500D-19
  0.11489861D-04  0.11489861D-04 -0.22979722D-04 -0.46226093D-20 -0.19956760D-19
 -0.12948473D-18 -0.99804361D-05 -0.99804361D-05  0.19960872D-04 -0.15269009D-22
  0.96698723D-21  0.27673787D-20 -0.56931161D-21 -0.23169990D-19 -0.44472018D-04
 -0.60399760D-21 -0.23821928D-19  0.66708028D-04  0.23119324D-20  0.93331896D-19
  0.66708028D-04 -0.37324875D-21  0.44807119D-21  0.72019753D-21 -0.10672272D-04
  0.45235386D-21  0.76654980D-21  0.16008407D-04 -0.17965674D-20 -0.29271424D-20
  0.16008407D-04 -0.32871261D-22  0.21263436D-03  0.39750759D-03  0.68701721D-03
  0.11112195D-02  0.16795432D-02  0.23130066D-02  0.27033685D-02  0.23359143D-02
  0.10894788D-02  0.14792768D-03  0.39611388D-06  0.77701168D-06  0.35473829D-07
 -0.38594029D-03 -0.72075992D-03 -0.12502696D-02 -0.20272689D-02 -0.31212113D-02
 -0.44453060D-02 -0.57160865D-02 -0.60001899D-02 -0.42425594D-02  0.93953255D-04
  0.30483338D-02  0.16784953D-02 -0.70983282D-05  0.21050519D-03  0.39283383D-03
  0.68230535D-03  0.11051833D-02  0.17071847D-02  0.24338483D-02  0.31656417D-02
  0.33737207D-02  0.25022185D-02 -0.77884770D-04 -0.22668796D-02 -0.22207596D-02
  0.10372264D-02 -0.22841773D-03 -0.23509321D-02 -0.13974389D-02 -0.11556024D-19
 -0.15160874D-19 -0.16629168D-19 -0.13682743D-19 -0.72138126D-20 -0.18766931D-20
  0.20767522D-23 -0.14064634D-17 -0.18452034D-17 -0.20239069D-17 -0.16653027D-17
 -0.87798049D-18 -0.22840903D-18  0.25275788D-21 -0.26640622D-02 -0.34951045D-02
 -0.38335969D-02 -0.31543443D-02 -0.16630327D-02 -0.43264251D-03  0.47876304D-06
  0.60247909D-20  0.79105871D-20  0.88999439D-20  0.74988756D-20  0.41947659D-20
  0.10440687D-20 -0.47886021D-21  0.10869065D-17  0.14271149D-17  0.16056005D-17
  0.13528398D-17  0.75675961D-18  0.18835593D-18 -0.86389103D-19  0.22911545D-02
  0.30082999D-02  0.33845402D-02  0.28517310D-02  0.15952183D-02  0.39704660D-03
 -0.18210470D-03 -0.12320797D-21  0.18539352D-18  0.19284464D-03  0.15559445D-19
 -0.37821573D-19 -0.11225194D-02  0.99167702D-21  0.42303157D-21 -0.62662221D-04
  0.97283670D-04  0.97283670D-04 -0.19456734D-03  0.29842236D-20  0.31714695D-20
 -0.22813867D-18 -0.83953986D-04 -0.83953986D-04  0.16790797D-03 -0.83069259D-20
  0.84511725D-20  0.40808182D-18  0.35351339D-04  0.35351339D-04 -0.70702678D-04
 -0.72796145D-21  0.32985289D-20 -0.14825690D-19 -0.12559940D-19 -0.23930022D-20
 -0.52320379D-04 -0.12660257D-19 -0.36286723D-21  0.78480568D-04  0.50340077D-19
  0.75418738D-20  0.78480568D-04  0.14055025D-20  0.27292801D-20  0.22988655D-19
 -0.41153311D-05  0.27697981D-20  0.22817432D-19  0.61729966D-05 -0.10957638D-19
 -0.91783397D-19  0.61729966D-05 -0.17891410D-21
MO    3     MO 0.0        OCC NO =    2.0000000  ORB. ENERGY =   -7.819291
  0.20513075D-05  0.38353557D-05  0.66112935D-05  0.10663020D-04  0.16003694D-04
  0.21448852D-04  0.23574295D-04  0.17644828D-04  0.60576870D-05  0.34145077D-06
 -0.23808312D-07  0.56548838D-08  0.35246143D-09 -0.10128783D-04 -0.18999643D-04
 -0.32682720D-04 -0.53334209D-04 -0.80938449D-04 -0.11462296D-03 -0.13858857D-03
 -0.13685048D-03 -0.68444025D-04  0.38325197D-04  0.61201999D-04  0.19975009D-04
 -0.11618864D-06  0.89809944D-05  0.16834078D-04  0.28994132D-04  0.47263851D-04
  0.71952587D-04  0.10196543D-03  0.12460325D-03  0.12476250D-03  0.65146226D-04
 -0.40562418D-04 -0.73339044D-04 -0.53756516D-04  0.24505931D-04  0.80495738D-04
  0.31287813D-04 -0.43201491D-06 -0.46320382D-15 -0.59866652D-15 -0.64549659D-15
 -0.53212248D-15 -0.29052349D-15 -0.93153814D-16 -0.10491599D-16  0.12039581D-18
 -0.12825966D-15 -0.16576884D-15 -0.17873594D-15 -0.14734301D-15 -0.80445025D-16
 -0.25793993D-16 -0.29050901D-17  0.33337214D-19 -0.15821603D-02 -0.20448587D-02
 -0.22048157D-02 -0.18175650D-02 -0.99233794D-03 -0.31818447D-03 -0.35836040D-04
  0.41123465D-06  0.35079885D-16  0.45336730D-16  0.49616816D-16  0.41453550D-16
  0.23190905D-16  0.78556388D-17  0.12294522D-17 -0.23221429D-17  0.21373810D-16
  0.27623200D-16  0.30231012D-16  0.25257218D-16  0.14129978D-16  0.47863594D-17
  0.74909248D-18 -0.14148576D-17  0.14895833D-02  0.19251157D-02  0.21068593D-02
  0.17602257D-02  0.98474624D-03  0.33357090D-03  0.52205743D-04 -0.98604240D-04
 -0.10851029D-17  0.50987458D-17 -0.26788564D-04 -0.78447537D-19  0.36040038D-18
 -0.60613646D-05  0.13090838D-20 -0.60375384D-20  0.47373592D-07 -0.37033735D-05
 -0.37033735D-05  0.74067470D-05 -0.18248818D-21  0.82864758D-18 -0.38507358D-17
 -0.16427862D-04 -0.16427862D-04  0.32855723D-04  0.25212513D-20 -0.55406389D-18
  0.28440412D-17 -0.59343543D-06 -0.59343543D-06  0.11868709D-05 -0.20848643D-21
  0.99358856D-19 -0.46559066D-18 -0.38893296D-19  0.21076561D-18 -0.14127261D-05
 -0.40044003D-19  0.21017911D-18  0.21190891D-05  0.15672389D-18 -0.84247595D-18
  0.21190891D-05 -0.41770359D-20  0.31470045D-19 -0.14474801D-18 -0.59198394D-06
  0.31652550D-19 -0.14459729D-18  0.88797591D-06 -0.12606268D-18  0.57884133D-18
  0.88797591D-06  0.44586228D-21 -0.45521470D-03 -0.85099744D-03 -0.14707893D-02
 -0.23789356D-02 -0.35956219D-02 -0.49517614D-02 -0.57874610D-02 -0.50008030D-02
 -0.23323923D-02 -0.31668849D-03 -0.84801374D-06 -0.16634524D-05 -0.75943551D-07
 -0.16122493D+00 -0.30109443D+00 -0.52229488D+00 -0.84688309D+00 -0.13038729D+01
 -0.18570079D+01 -0.23878711D+01 -0.25065541D+01 -0.17723114D+01  0.39248578D-01
  0.12734286D+01  0.70118437D+00 -0.29652968D-02  0.24974152D-03  0.46605461D-03
  0.80948108D-03  0.13111797D-02  0.20253890D-02  0.28874963D-02  0.37556895D-02
  0.40025526D-02  0.29686100D-02 -0.92401807D-04 -0.26894060D-02 -0.26346897D-02
  0.12305563D-02  0.43167811D-01  0.13937718D-04 -0.66875813D-04  0.32124384D-14
  0.42145442D-14  0.46227126D-14  0.38036412D-14  0.20053549D-14  0.52169855D-15
 -0.57731264D-18 -0.18743483D-13 -0.24590429D-13 -0.26971953D-13 -0.22192950D-13
 -0.11700562D-13 -0.30439333D-14  0.33684225D-17  0.30962212D-01  0.40620737D-01
  0.44554757D-01  0.36660360D-01  0.19328067D-01  0.50282494D-02 -0.55642706D-05
  0.12588741D-15  0.16529094D-15  0.18596345D-15  0.15668827D-15  0.87649220D-16
  0.21815712D-16 -0.10005737D-16 -0.64811706D-15 -0.85098165D-15 -0.95741173D-15
 -0.80669177D-15 -0.45125207D-15 -0.11231572D-15  0.51513401D-16  0.18323036D-02
  0.24058258D-02  0.27067162D-02  0.22806130D-02  0.12757430D-02  0.31752982D-03
 -0.14563448D-03  0.88195814D-16 -0.49501524D-15  0.58180293D-03  0.28954363D-17
 -0.13809449D-16 -0.40921910D-04  0.40834191D-19 -0.18431761D-18 -0.12049363D-05
  0.44136429D-04  0.44136429D-04 -0.88272857D-04 -0.58153951D-19  0.78743199D-18
 -0.28554032D-17 -0.33980653D-03 -0.33980653D-03  0.67961306D-03 -0.54765152D-19
 -0.15037263D-16  0.57907539D-16 -0.43908654D-06 -0.43908654D-06  0.87817308D-06
  0.32885373D-20  0.54761297D-18 -0.26167056D-17  0.26486380D-18 -0.15528910D-17
  0.12960453D-04  0.61039951D-18 -0.14275535D-17 -0.19440680D-04 -0.14049909D-17
  0.60862266D-17 -0.19440680D-04 -0.39761426D-18 -0.83973504D-19  0.37772320D-18
 -0.69459570D-05 -0.93809421D-19  0.37256608D-18  0.10418935D-04  0.34572993D-18
 -0.15057357D-17  0.10418935D-04  0.90132114D-20
MO    4     MO 0.0        OCC NO =    2.0000000  ORB. ENERGY =   -5.731264
 -0.31454759D-04 -0.58811361D-04 -0.10137760D-03 -0.16350680D-03 -0.24540071D-03
 -0.32889680D-03 -0.36148835D-03 -0.27056588D-03 -0.92888600D-04 -0.52358076D-05
  0.36507677D-06 -0.86712013D-07 -0.54046452D-08  0.57446704D-04  0.10775894D-03
  0.18536428D-03  0.30249187D-03  0.45905289D-03  0.65009895D-03  0.78602301D-03
  0.77616521D-03  0.38818915D-03 -0.21736632D-03 -0.34711506D-03 -0.11329085D-03
  0.65897891D-06 -0.33544097D-04 -0.62875437D-04 -0.10829335D-03 -0.17653092D-03
 -0.26874357D-03 -0.38084183D-03 -0.46539429D-03 -0.46598910D-03 -0.24332175D-03
  0.15150101D-03  0.27392201D-03  0.20078108D-03 -0.91529878D-04  0.12565622D-03
  0.16909243D-04 -0.72923408D-06  0.74992133D-15  0.96923379D-15  0.10450511D-14
  0.86149980D-15  0.47035399D-15  0.15081489D-15  0.16985770D-16 -0.19491934D-18
  0.55072560D-15  0.71178381D-15  0.76746236D-15  0.63266636D-15  0.34541754D-15
  0.11075511D-15  0.12473973D-16 -0.14314444D-18 -0.18346447D-02 -0.23711815D-02
 -0.25566648D-02 -0.21076158D-02 -0.11506973D-02 -0.36896101D-03 -0.41554830D-04
  0.47686034D-06 -0.51521738D-15 -0.66585941D-15 -0.72872091D-15 -0.60882723D-15
 -0.34060423D-15 -0.11537557D-15 -0.18056933D-16  0.34105254D-16  0.44290617D-15
  0.57240547D-15  0.62644430D-15  0.52337780D-15  0.29280013D-15  0.99182508D-16
  0.15522627D-16 -0.29318552D-16  0.14810820D-02  0.19141288D-02  0.20948351D-02
  0.17501798D-02  0.97912614D-03  0.33166715D-03  0.51907797D-04 -0.98041490D-04
 -0.12636512D-17 -0.53610082D-17  0.42832428D-04 -0.22676370D-18  0.74351393D-18
 -0.27282352D-05 -0.26374235D-20 -0.20717164D-20  0.96490524D-07  0.57082100D-05
  0.57082100D-05 -0.11416420D-04  0.20916285D-20  0.20878141D-19  0.70917359D-17
 -0.62955044D-05 -0.62955044D-05  0.12591009D-04  0.17631772D-20 -0.17165855D-17
  0.67917892D-17  0.10973876D-06  0.10973876D-06 -0.21947752D-06 -0.59522605D-21
  0.19076259D-18 -0.21754649D-18 -0.32306535D-18  0.17133665D-17  0.12731811D-04
 -0.32188710D-18  0.17139428D-17 -0.19097717D-04  0.12910832D-17 -0.68540424D-17
 -0.19097717D-04 -0.10919625D-19  0.19635692D-19  0.11915500D-18 -0.18847925D-06
  0.19318202D-19  0.11932196D-18  0.28271888D-06 -0.78225280D-19 -0.47678696D-18
  0.28271888D-06  0.33337047D-21 -0.55282462D-04 -0.10334735D-03 -0.17861649D-03
 -0.28890415D-03 -0.43666171D-03 -0.60135483D-03 -0.70284437D-03 -0.60731056D-03
 -0.28325181D-03 -0.38459476D-04 -0.10298500D-06 -0.20201400D-06 -0.92227830D-08
  0.62665399D-03  0.11703030D-02  0.20300717D-02  0.32916910D-02  0.50679330D-02
  0.72178750D-02  0.92812503D-02  0.97425509D-02  0.68886739D-02 -0.15255257D-03
 -0.49496012D-02 -0.27253848D-02  0.11525606D-04 -0.32064170D-04 -0.59836484D-04
 -0.10392881D-03 -0.16834161D-03 -0.26003853D-03 -0.37072399D-03 -0.48219082D-03
 -0.51388543D-03 -0.38113814D-03  0.11863415D-04  0.34529130D-03  0.33826630D-03
 -0.15799042D-03  0.45151925D-04  0.12101475D-03 -0.25170093D-04 -0.12818353D-13
 -0.16816981D-13 -0.18445664D-13 -0.15177385D-13 -0.80018175D-14 -0.20816947D-14
  0.23036074D-17  0.58505325D-13  0.76755801D-13  0.84189414D-13  0.69272384D-13
  0.36521771D-13  0.95012386D-14 -0.10514089D-16  0.97078331D+01  0.12736148D+02
  0.13969614D+02  0.11494419D+02  0.60600853D+01  0.15765478D+01 -0.17446108D-02
  0.61731077D-16  0.81053280D-16  0.91190405D-16  0.76834811D-16  0.42980316D-16
  0.10697713D-16 -0.49064867D-17 -0.14367489D-16 -0.18864600D-16 -0.21223947D-16
 -0.17882780D-16 -0.10003377D-16 -0.24898201D-17  0.11419514D-17 -0.14069057D-01
 -0.18472757D-01 -0.20783097D-01 -0.17511331D-01 -0.97955929D-02 -0.24381031D-02
  0.11182316D-02 -0.98846505D-16  0.48919489D-15  0.76884482D-01  0.87148984D-18
  0.11946222D-16  0.35864452D-04  0.41902435D-18 -0.98800863D-18 -0.39368362D-05
  0.18400404D-04  0.18400404D-04 -0.36800807D-04 -0.89858541D-19 -0.10847381D-16
  0.56018744D-16 -0.26440335D-03 -0.26440335D-03  0.52880670D-03  0.12321604D-18
  0.11419382D-15 -0.65866444D-15  0.22095837D-05  0.22095837D-05 -0.44191674D-05
  0.74418392D-20  0.13313963D-17 -0.73439338D-18  0.66876825D-18 -0.29625853D-18
  0.12579252D-03  0.37908254D-18 -0.19973105D-18 -0.18868878D-03 -0.23853873D-17
  0.10885067D-17 -0.18868878D-03 -0.27200512D-18  0.51882032D-19 -0.12961989D-17
 -0.15377118D-04  0.64258502D-19 -0.13045759D-17  0.23065677D-04 -0.21990460D-18
  0.51931725D-17  0.23065677D-04 -0.84675791D-20
MO    5     MO 0.0        OCC NO =    2.0000000  ORB. ENERGY =   -5.723423
 -0.54409821D-18 -0.10173073D-17 -0.17536098D-17 -0.28283085D-17 -0.42448932D-17
 -0.56891920D-17 -0.62529542D-17 -0.46801952D-17 -0.16067687D-17 -0.90567968D-19
  0.63150260D-20 -0.14999273D-20 -0.93488487D-22  0.53782273D-17  0.10088517D-16
  0.17354020D-16  0.28319642D-16  0.42977067D-16  0.60863021D-16  0.73588389D-16
  0.72665492D-16  0.36342721D-16 -0.20350088D-16 -0.32497316D-16 -0.10606422D-16
  0.61694373D-19 -0.57162990D-17 -0.10714696D-16 -0.18454430D-16 -0.30082894D-16
 -0.45796989D-16 -0.64899818D-16 -0.79308527D-16 -0.79409889D-16 -0.41464819D-16
  0.25817510D-16  0.46679453D-16  0.34215401D-16 -0.15597742D-16 -0.18350950D-15
 -0.35818994D-15  0.15367692D-16  0.25521284D-03  0.32984914D-03  0.35565125D-03
  0.29318516D-03  0.16007062D-03  0.51325244D-04  0.57805885D-05 -0.66334849D-07
  0.58948526D-04  0.76187862D-04  0.82147579D-04  0.67719294D-04  0.36972777D-04
  0.11854997D-04  0.13351882D-05 -0.15321884D-07  0.45604035D-15  0.58940811D-15
  0.63551396D-15  0.52389318D-15  0.28603053D-15  0.91713186D-16  0.10329346D-16
 -0.11853388D-18 -0.25838114D-03 -0.33392801D-03 -0.36545300D-03 -0.30532641D-03
 -0.17081277D-03 -0.57860763D-04 -0.90555387D-05  0.17103760D-04 -0.59680333D-04
 -0.77129991D-04 -0.84411569D-04 -0.70523654D-04 -0.39453976D-04 -0.13364558D-04
 -0.20916293D-05  0.39505906D-05 -0.18576645D-15 -0.24008185D-15 -0.26274715D-15
 -0.21951836D-15 -0.12280805D-15 -0.41599742D-16 -0.65105964D-17  0.12296969D-16
  0.35686523D-04  0.82427982D-05  0.16611951D-15  0.14232107D-05  0.32873022D-06
  0.61216698D-16  0.38084455D-07  0.87966676D-08 -0.27265151D-17  0.10142698D-16
  0.18884989D-16 -0.29027687D-16 -0.17602529D-17 -0.33052531D-04 -0.76344044D-05
 -0.32636151D-16 -0.28537836D-16  0.61173986D-16 -0.63058235D-18 -0.12310073D-04
 -0.28433549D-05  0.32192539D-17  0.38044954D-17 -0.70237493D-17  0.24591396D-18
 -0.17815299D-05 -0.41149404D-06 -0.27428420D-05 -0.63353589D-06  0.32504730D-16
 -0.27437884D-05 -0.63375448D-06 -0.51112326D-16  0.10972314D-04  0.25343622D-05
 -0.46401864D-16  0.98253763D-19 -0.88093272D-06 -0.20347599D-06 -0.21846114D-18
 -0.88106566D-06 -0.20350670D-06  0.16210992D-17  0.35238638D-05  0.81393467D-06
 -0.96571573D-18 -0.51899573D-18 -0.70686109D-17 -0.13214357D-16 -0.22838535D-16
 -0.36940306D-16 -0.55833110D-16 -0.76891353D-16 -0.89868165D-16 -0.77652875D-16
 -0.36217578D-16 -0.49175646D-17 -0.13168026D-19 -0.25830224D-19 -0.11792576D-20
  0.82482551D-18  0.15403968D-17  0.26720565D-17  0.43326473D-17  0.66706037D-17
  0.95004381D-17  0.12216330D-16  0.12823511D-16  0.90671312D-17 -0.20079542D-18
 -0.65148510D-17 -0.35872538D-17  0.15170435D-19 -0.26130472D-16 -0.48763326D-16
 -0.84696060D-16 -0.13718883D-15 -0.21191659D-15 -0.30211893D-15 -0.39295805D-15
 -0.41878735D-15 -0.31060587D-15  0.96680073D-17  0.28139274D-15  0.27566776D-15
 -0.12875319D-15 -0.72021827D-16  0.15838479D-15  0.56688196D-15  0.94646185D+01
  0.12417064D+02  0.13619627D+02  0.11206445D+02  0.59082593D+01  0.15370498D+01
 -0.17009023D-02  0.21861177D+01  0.28680674D+01  0.31458328D+01  0.25884411D+01
  0.13646773D+01  0.35502454D+00 -0.39287085D-03 -0.14356821D-14 -0.18835367D-14
 -0.20659526D-14 -0.16998986D-14 -0.89622015D-15 -0.23315412D-15  0.25800881D-18
 -0.15269031D-01 -0.20048331D-01 -0.22555724D-01 -0.19004903D-01 -0.10631076D-01
 -0.26460533D-02  0.12136075D-02 -0.35268089D-02 -0.46307215D-02 -0.52098739D-02
 -0.43897127D-02 -0.24555437D-02 -0.61117983D-03  0.28031652D-03  0.11558929D-14
  0.15176945D-14  0.17075086D-14  0.14387051D-14  0.80479147D-15  0.20031096D-15
 -0.91872257D-16  0.73753080D-01  0.17035332D-01 -0.85765123D-16 -0.35418317D-04
 -0.81808486D-05  0.24511497D-15 -0.35294261D-05 -0.81521944D-06  0.97692250D-17
 -0.44915189D-16  0.17488672D-16  0.27426518D-16  0.34704242D-16 -0.61249671D-04
 -0.14147321D-04  0.30737956D-15 -0.23173474D-15 -0.75644814D-16 -0.56807776D-15
  0.51638603D-03  0.11927376D-03  0.35874955D-17 -0.62463939D-17  0.26588983D-17
 -0.34859281D-17 -0.18092874D-04 -0.41790541D-05 -0.55006224D-04 -0.12705222D-04
 -0.14449126D-17 -0.54957903D-04 -0.12694061D-04 -0.22820879D-15  0.21997657D-03
  0.50809728D-04  0.23254352D-15  0.38060528D-16  0.76098472D-05  0.17577066D-05
  0.22130155D-16  0.76192340D-05  0.17598747D-05 -0.12425664D-16 -0.30448776D-04
 -0.70329944D-05 -0.53964802D-16 -0.31740374D-17
MO    6     MO 0.0        OCC NO =    2.0000000  ORB. ENERGY =   -5.723423
  0.20945731D-16  0.39162500D-16  0.67507371D-16  0.10887922D-15  0.16341240D-15
  0.21901246D-15  0.24071518D-15  0.18016988D-15  0.61854541D-16  0.34865256D-17
 -0.24310471D-18  0.57741551D-19  0.35989545D-20 -0.42268181D-16 -0.79286956D-16
 -0.13638747D-15 -0.22256771D-15 -0.33776230D-15 -0.47833032D-15 -0.57834063D-15
 -0.57108745D-15 -0.28562212D-15  0.15993396D-15  0.25540059D-15  0.83357233D-16
 -0.48486402D-18  0.22660125D-16  0.42474396D-16  0.73155668D-16  0.11925236D-15
  0.18154500D-15  0.25727100D-15  0.31438893D-15  0.31479074D-15  0.16437173D-15
 -0.10234384D-15 -0.18504319D-15 -0.13563413D-15  0.61831400D-16 -0.16442302D-17
 -0.32848521D-16  0.50272634D-17 -0.58948526D-04 -0.76187862D-04 -0.82147579D-04
 -0.67719294D-04 -0.36972777D-04 -0.11854997D-04 -0.13351882D-05  0.15321884D-07
  0.25521284D-03  0.32984914D-03  0.35565125D-03  0.29318516D-03  0.16007062D-03
  0.51325244D-04  0.57805885D-05 -0.66334849D-07 -0.63010564D-15 -0.81437833D-15