 Molden2AIM, Version 4.0.0 (06/02/2016)           Time: Fri Jun 29 23:00:30 2018
GAUSSIAN             15 MOL ORBITALS    262 PRIMITIVES        2 NUCLEI
  Si   1    (CENTRE  1)   0.00000000  0.00000000  1.42615930  CHARGE = 14.0
  S    2    (CENTRE  2)   0.00000000  0.00000000 -2.22104236  CHARGE = 16.0
CENTRE ASSIGNMENTS    1  1  1  1  1  1  1  1  1  1  1  1  1  1  1  1  1  1  1  1
CENTRE ASSIGNMENTS    1  1  1  1  1  1  1  1  1  1  1  1  1  1  1  1  1  1  1  1
CENTRE ASSIGNMENTS    1  1  1  1  1  1  1  1  1  1  1  1  1  1  1  1  1  1  1  1
CENTRE ASSIGNMENTS    1  1  1  1  1  1  1  1  1  1  1  1  1  1  1  1  1  1  1  1
CENTRE ASSIGNMENTS    1  1  1  1  1  1  1  1  1  1  1  1  1  1  1  1  1  1  1  1
CENTRE ASSIGNMENTS    1  1  1  1  1  1  1  1  1  1  1  1  1  1  1  1  1  1  1  1
CENTRE ASSIGNMENTS    1  1  1  1  1  1  1  1  1  1  1  2  2  2  2  2  2  2  2  2
CENTRE ASSIGNMENTS    2  2  2  2  2  2  2  2  2  2  2  2  2  2  2  2  2  2  2  2
CENTRE ASSIGNMENTS    2  2  2  2  2  2  2  2  2  2  2  2  2  2  2  2  2  2  2  2
CENTRE ASSIGNMENTS    2  2  2  2  2  2  2  2  2  2  2  2  2  2  2  2  2  2  2  2
CENTRE ASSIGNMENTS    2  2  2  2  2  2  2  2  2  2  2  2  2  2  2  2  2  2  2  2
CENTRE ASSIGNMENTS    2  2  2  2  2  2  2  2  2  2  2  2  2  2  2  2  2  2  2  2
CENTRE ASSIGNMENTS    2  2  2  2  2  2  2  2  2  2  2  2  2  2  2  2  2  2  2  2
CENTRE ASSIGNMENTS    2  2
TYPE ASSIGNMENTS      1  1  1  1  1  1  1  1  1  1  1  1  1  1  1  1  1  1  1  1
TYPE ASSIGNMENTS      1  1  1  1  1  1  1  1  1  1  1  1  1  1  1  1  1  1  1  1
TYPE ASSIGNMENTS      1  1  2  2  2  2  2  2  2  3  3  3  3  3  3  3  4  4  4  4
TYPE ASSIGNMENTS      4  4  4  2  2  2  2  2  2  2  3  3  3  3  3  3  3  4  4  4
TYPE ASSIGNMENTS      4  4  4  4  2  3  4  2  3  4  2  3  4  5  6  7  8  9 10  5
TYPE ASSIGNMENTS      6  7  8  9 10  5  6  7  8  9 10 11 12 13 17 14 15 18 19 16
TYPE ASSIGNMENTS     20 11 12 13 17 14 15 18 19 16 20  1  1  1  1  1  1  1  1  1
TYPE ASSIGNMENTS      1  1  1  1  1  1  1  1  1  1  1  1  1  1  1  1  1  1  1  1
TYPE ASSIGNMENTS      1  1  1  1  1  1  1  1  1  1  1  1  1  2  2  2  2  2  2  2
TYPE ASSIGNMENTS      3  3  3  3  3  3  3  4  4  4  4  4  4  4  2  2  2  2  2  2
TYPE ASSIGNMENTS      2  3  3  3  3  3  3  3  4  4  4  4  4  4  4  2  3  4  2  3
TYPE ASSIGNMENTS      4  2  3  4  5  6  7  8  9 10  5  6  7  8  9 10  5  6  7  8
TYPE ASSIGNMENTS      9 10 11 12 13 17 14 15 18 19 16 20 11 12 13 17 14 15 18 19
TYPE ASSIGNMENTS     16 20
EXPONENTS  0.2549000D+06 0.3819000D+05 0.8690000D+04 0.2462000D+04 0.8048000D+03
EXPONENTS  0.2913000D+03 0.1136000D+03 0.4675000D+02 0.1982000D+02 0.7708000D+01
EXPONENTS  0.3340000D+01 0.1402000D+01 0.2070000D+00 0.2549000D+06 0.3819000D+05
EXPONENTS  0.8690000D+04 0.2462000D+04 0.8048000D+03 0.2913000D+03 0.1136000D+03
EXPONENTS  0.4675000D+02 0.1982000D+02 0.7708000D+01 0.3340000D+01 0.1402000D+01
EXPONENTS  0.2070000D+00 0.2549000D+06 0.3819000D+05 0.8690000D+04 0.2462000D+04
EXPONENTS  0.8048000D+03 0.2913000D+03 0.1136000D+03 0.4675000D+02 0.1982000D+02
EXPONENTS  0.7708000D+01 0.3340000D+01 0.1402000D+01 0.2070000D+00 0.4387000D+00
EXPONENTS  0.7944000D-01 0.3300000D-01 0.4815000D+03 0.1139000D+03 0.3623000D+02
EXPONENTS  0.1334000D+02 0.5252000D+01 0.2120000D+01 0.2528000D+00 0.4815000D+03
EXPONENTS  0.1139000D+03 0.3623000D+02 0.1334000D+02 0.5252000D+01 0.2120000D+01
EXPONENTS  0.2528000D+00 0.4815000D+03 0.1139000D+03 0.3623000D+02 0.1334000D+02
EXPONENTS  0.5252000D+01 0.2120000D+01 0.2528000D+00 0.4815000D+03 0.1139000D+03
EXPONENTS  0.3623000D+02 0.1334000D+02 0.5252000D+01 0.2120000D+01 0.2528000D+00
EXPONENTS  0.4815000D+03 0.1139000D+03 0.3623000D+02 0.1334000D+02 0.5252000D+01
EXPONENTS  0.2120000D+01 0.2528000D+00 0.4815000D+03 0.1139000D+03 0.3623000D+02
EXPONENTS  0.1334000D+02 0.5252000D+01 0.2120000D+01 0.2528000D+00 0.8561000D+00
EXPONENTS  0.8561000D+00 0.8561000D+00 0.7889000D-01 0.7889000D-01 0.7889000D-01
EXPONENTS  0.2370000D-01 0.2370000D-01 0.2370000D-01 0.1590000D+00 0.1590000D+00
EXPONENTS  0.1590000D+00 0.1590000D+00 0.1590000D+00 0.1590000D+00 0.4810000D+00
EXPONENTS  0.4810000D+00 0.4810000D+00 0.4810000D+00 0.4810000D+00 0.4810000D+00
EXPONENTS  0.5560000D-01 0.5560000D-01 0.5560000D-01 0.5560000D-01 0.5560000D-01
EXPONENTS  0.5560000D-01 0.3360000D+00 0.3360000D+00 0.3360000D+00 0.3360000D+00
EXPONENTS  0.3360000D+00 0.3360000D+00 0.3360000D+00 0.3360000D+00 0.3360000D+00
EXPONENTS  0.3360000D+00 0.1250000D+00 0.1250000D+00 0.1250000D+00 0.1250000D+00
EXPONENTS  0.1250000D+00 0.1250000D+00 0.1250000D+00 0.1250000D+00 0.1250000D+00
EXPONENTS  0.1250000D+00 0.3741000D+06 0.5605000D+05 0.1276000D+05 0.3615000D+04
EXPONENTS  0.1183000D+04 0.4288000D+03 0.1678000D+03 0.6947000D+02 0.2984000D+02
EXPONENTS  0.1272000D+02 0.5244000D+01 0.2219000D+01 0.3490000D+00 0.3741000D+06
EXPONENTS  0.5605000D+05 0.1276000D+05 0.3615000D+04 0.1183000D+04 0.4288000D+03
EXPONENTS  0.1678000D+03 0.6947000D+02 0.2984000D+02 0.1272000D+02 0.5244000D+01
EXPONENTS  0.2219000D+01 0.3490000D+00 0.3741000D+06 0.5605000D+05 0.1276000D+05
EXPONENTS  0.3615000D+04 0.1183000D+04 0.4288000D+03 0.1678000D+03 0.6947000D+02
EXPONENTS  0.2984000D+02 0.1272000D+02 0.5244000D+01 0.2219000D+01 0.3490000D+00
EXPONENTS  0.7767000D+00 0.1322000D+00 0.4970000D-01 0.5744000D+03 0.1358000D+03
EXPONENTS  0.4319000D+02 0.1587000D+02 0.6208000D+01 0.2483000D+01 0.3229000D+00
EXPONENTS  0.5744000D+03 0.1358000D+03 0.4319000D+02 0.1587000D+02 0.6208000D+01
EXPONENTS  0.2483000D+01 0.3229000D+00 0.5744000D+03 0.1358000D+03 0.4319000D+02
EXPONENTS  0.1587000D+02 0.6208000D+01 0.2483000D+01 0.3229000D+00 0.5744000D+03
EXPONENTS  0.1358000D+03 0.4319000D+02 0.1587000D+02 0.6208000D+01 0.2483000D+01
EXPONENTS  0.3229000D+00 0.5744000D+03 0.1358000D+03 0.4319000D+02 0.1587000D+02
EXPONENTS  0.6208000D+01 0.2483000D+01 0.3229000D+00 0.5744000D+03 0.1358000D+03
EXPONENTS  0.4319000D+02 0.1587000D+02 0.6208000D+01 0.2483000D+01 0.3229000D+00
EXPONENTS  0.8688000D+00 0.8688000D+00 0.8688000D+00 0.1098000D+00 0.1098000D+00
EXPONENTS  0.1098000D+00 0.3510000D-01 0.3510000D-01 0.3510000D-01 0.2690000D+00
EXPONENTS  0.2690000D+00 0.2690000D+00 0.2690000D+00 0.2690000D+00 0.2690000D+00
EXPONENTS  0.8190000D+00 0.8190000D+00 0.8190000D+00 0.8190000D+00 0.8190000D+00
EXPONENTS  0.8190000D+00 0.1010000D+00 0.1010000D+00 0.1010000D+00 0.1010000D+00
EXPONENTS  0.1010000D+00 0.1010000D+00 0.5570000D+00 0.5570000D+00 0.5570000D+00
EXPONENTS  0.5570000D+00 0.5570000D+00 0.5570000D+00 0.5570000D+00 0.5570000D+00
EXPONENTS  0.5570000D+00 0.5570000D+00 0.2180000D+00 0.2180000D+00 0.2180000D+00
EXPONENTS  0.2180000D+00 0.2180000D+00 0.2180000D+00 0.2180000D+00 0.2180000D+00
EXPONENTS  0.2180000D+00 0.2180000D+00
MO    1     MO 0.0        OCC NO =    2.0000000  ORB. ENERGY =  -88.530837
  0.35942843D-04  0.67233194D-04  0.11610870D-03  0.18754582D-03  0.28244015D-03
  0.38411727D-03  0.43727857D-03  0.35425561D-03  0.14379935D-03  0.13112523D-04
 -0.50391717D-06  0.16850627D-06  0.94561900D-08 -0.72299673D-04 -0.13532508D-03
 -0.23404993D-03 -0.38040586D-03 -0.58201786D-03 -0.82592357D-03 -0.10360525D-02
 -0.10563453D-02 -0.64903956D-03  0.14145286D-03  0.51812090D-03  0.23697026D-03
 -0.12578511D-05  0.42542019D-04  0.79568428D-04  0.13779096D-03  0.22372391D-03
  0.34341168D-03  0.48780098D-03  0.61885291D-03  0.64067997D-03  0.41267575D-03
 -0.10149975D-03 -0.41374421D-03 -0.36085694D-03  0.18391148D-03  0.66622994D-04
  0.50817432D-03  0.48394019D-04  0.30042807D-17  0.39628010D-17  0.44016985D-17
  0.37672335D-17  0.21525669D-17  0.69855489D-18  0.49187266D-21 -0.10547991D-18
 -0.13913344D-18 -0.15454307D-18 -0.13226708D-18 -0.75576349D-19 -0.24526173D-19
 -0.17269586D-22 -0.20214487D-02 -0.26663951D-02 -0.29617099D-02 -0.25348062D-02
 -0.14483679D-02 -0.47002696D-03 -0.33095955D-06 -0.64657340D-19 -0.88418081D-19
 -0.96119360D-19 -0.88232547D-19 -0.48090321D-19 -0.20293192D-19  0.69988757D-20
  0.11042565D-19  0.15100565D-19  0.16415835D-19  0.15068878D-19  0.82131506D-20
  0.34657918D-20 -0.11953096D-20  0.17552749D-02  0.24003159D-02  0.26093851D-02
  0.23952791D-02  0.13055244D-02  0.55090621D-03 -0.19000087D-03 -0.24998838D-19
  0.39154425D-20 -0.22303904D-04 -0.33094516D-19  0.10547900D-19 -0.16014286D-03
 -0.71095550D-21  0.23625925D-21 -0.14400494D-05 -0.53562722D-05 -0.53562722D-05
  0.10712544D-04 -0.74897064D-23  0.11952531D-19 -0.58816226D-20  0.12948327D-04
  0.12948327D-04 -0.25896654D-04  0.11158720D-21 -0.24212379D-19  0.12667938D-19
 -0.23665705D-05 -0.23665705D-05  0.47331410D-05  0.25355142D-23  0.59531402D-20
 -0.17270216D-20 -0.90798877D-20  0.17534618D-20  0.30061864D-04 -0.91353704D-20
  0.17743998D-20 -0.45092796D-04  0.36375034D-19 -0.70347854D-20 -0.45092796D-04
 -0.12358574D-22  0.98208278D-21 -0.33991417D-21  0.92273310D-06  0.99159066D-21
 -0.34191352D-21 -0.13840996D-05 -0.39378390D-20  0.13616560D-20 -0.13840996D-05
 -0.20396721D-22  0.58502848D+00  0.10936768D+01  0.18902149D+01  0.30573378D+01
  0.46209870D+01  0.63638574D+01  0.74378739D+01  0.64268842D+01  0.29975217D+01
  0.40699869D+00  0.10898422D-02  0.21378199D-02  0.97600407D-04 -0.98834509D-03
 -0.18457765D-02 -0.32017850D-02 -0.51915837D-02 -0.79930341D-02 -0.11383876D-01
 -0.14638187D-01 -0.15365740D-01 -0.10864667D-01  0.24060260D-03  0.78064038D-02
  0.42984178D-02 -0.18177936D-04  0.37993919D-03  0.70902273D-03  0.12314876D-02
  0.19947367D-02  0.30812844D-02  0.43928339D-02  0.57136420D-02  0.60892022D-02
  0.45162346D-02 -0.14057361D-03 -0.40914733D-02 -0.40082317D-02  0.18720819D-02
 -0.26852576D-02 -0.91077352D-03 -0.22038471D-03 -0.56935638D-17 -0.74696457D-17
 -0.81930628D-17 -0.67413819D-17 -0.35541898D-17 -0.92463221D-18  0.10231998D-20
  0.91093858D-17  0.11951018D-16  0.13108445D-16  0.10785837D-16  0.56865063D-17
  0.14793602D-17 -0.16370629D-20  0.42005889D-02  0.55109438D-02  0.60446654D-02
  0.49736465D-02  0.26222048D-02  0.68217375D-03 -0.75489480D-06  0.35134680D-17
  0.46132049D-17  0.51901665D-17  0.43731077D-17  0.24462552D-17  0.60886793D-18
 -0.27925617D-18 -0.14734389D-17 -0.19346342D-17 -0.21765939D-17 -0.18339449D-17
 -0.10258831D-17 -0.25534021D-18  0.11711132D-18 -0.34229934D-02 -0.44944112D-02
 -0.50565157D-02 -0.42604968D-02 -0.23832622D-02 -0.59318910D-03  0.27206510D-03
  0.58077409D-18 -0.54410069D-18 -0.20273969D-03  0.86890698D-19 -0.27365585D-19
 -0.35144353D-03  0.13039128D-20 -0.54648174D-21 -0.10724709D-04  0.30092983D-04
  0.30092983D-04 -0.60185967D-04 -0.45754580D-21 -0.10139196D-19  0.41565971D-20
 -0.88146131D-04 -0.88146131D-04  0.17629226D-03  0.10485363D-19 -0.16795940D-18
  0.98479737D-20  0.17430350D-04  0.17430350D-04 -0.34860700D-04 -0.19768158D-22
  0.17553751D-19 -0.57649753D-20  0.13843427D-19 -0.30622646D-20  0.39569018D-04
  0.14737750D-19 -0.39889694D-20 -0.59353527D-04 -0.56268032D-19  0.13175763D-19
 -0.59353527D-04  0.14384544D-21 -0.21652076D-20  0.65928788D-21 -0.20818779D-04
 -0.22301804D-20  0.71677194D-21  0.31228168D-04  0.87258033D-20 -0.26946356D-20
  0.31228168D-04 -0.36970528D-22
MO    2     MO 0.0        OCC NO =    2.0000000  ORB. ENERGY =  -65.875218
  0.50593207D+00  0.94637558D+00  0.16343481D+01  0.26398982D+01  0.39756324D+01
  0.54068413D+01  0.61551406D+01  0.49865080D+01  0.20241221D+01  0.18457209D+00
 -0.70931467D-02  0.23718972D-02  0.13310549D-03 -0.10228987D-02 -0.19145847D-02
 -0.33113479D-02 -0.53819975D-02 -0.82344122D-02 -0.11685200D-01 -0.14658113D-01
 -0.14945216D-01 -0.91826379D-02  0.20012808D-02  0.73303955D-02  0.33526648D-02
 -0.17796129D-04  0.44703283D-03  0.83610745D-03  0.14479115D-02  0.23508976D-02
  0.36085803D-02  0.51258274D-02  0.65029251D-02  0.67322845D-02  0.43364093D-02
 -0.10665624D-02 -0.43476367D-02 -0.37918957D-02  0.19325474D-02 -0.20188057D-02
  0.86956597D-05  0.52742924D-04  0.51557619D-17  0.68007157D-17  0.75539245D-17
  0.64650947D-17  0.36941032D-17  0.11988170D-17  0.84412165D-21 -0.63131304D-17
 -0.83273444D-17 -0.92496340D-17 -0.79163830D-17 -0.45233576D-17 -0.14679281D-17
 -0.10336106D-20 -0.90059955D-02 -0.11879372D-01 -0.13195064D-01 -0.11293115D-01
 -0.64527953D-02 -0.20940727D-02 -0.14744970D-05 -0.81134219D-18 -0.11095000D-17
 -0.12061383D-17 -0.11071719D-17 -0.60345362D-18 -0.25464584D-18  0.87824261D-19
  0.54701307D-18  0.74803334D-18  0.81318758D-18  0.74646368D-18  0.40685302D-18
  0.17168416D-18 -0.59211784D-19  0.72918824D-02  0.99715554D-02  0.10840085D-01
  0.99506313D-02  0.54234981D-02  0.22886120D-02 -0.78931454D-03 -0.44611470D-18
  0.60401019D-18  0.44318057D-03  0.21054017D-19  0.39821002D-20 -0.15961776D-04
 -0.56885353D-22 -0.52336897D-22  0.18484188D-05 -0.68913512D-05 -0.68913512D-05
  0.13782702D-04  0.10013164D-21 -0.30217346D-19  0.27792628D-20 -0.14773423D-03
 -0.14773423D-03  0.29546846D-03  0.60477414D-21 -0.33843376D-19  0.64447039D-20
  0.32641051D-05  0.32641051D-05 -0.65282102D-05  0.31479664D-23 -0.25589796D-20
 -0.10816700D-21 -0.34045127D-20  0.10795388D-20 -0.37297058D-04 -0.34762806D-20
  0.96308811D-21  0.55945586D-04  0.13689819D-19 -0.42017046D-20  0.55945586D-04
  0.38314339D-22 -0.90271987D-21  0.67805053D-22  0.64233694D-05 -0.90240759D-21
  0.67721420D-22 -0.96350542D-05  0.36105672D-20 -0.27113658D-21 -0.96350542D-05
 -0.19527536D-22  0.68333236D-04  0.12774501D-03  0.22078327D-03  0.35710703D-03
  0.53974637D-03  0.74331931D-03  0.86876794D-03  0.75068105D-03  0.35012031D-03
  0.47538775D-04  0.12729713D-06  0.24970434D-06  0.11400046D-07 -0.12942931D-03
 -0.24171476D-03 -0.41929164D-03 -0.67986690D-03 -0.10467325D-02 -0.14907822D-02
 -0.19169524D-02 -0.20122296D-02 -0.14227889D-02  0.31508256D-04  0.10222922D-02
  0.56290183D-03 -0.23805023D-05  0.74541905D-04  0.13910622D-03  0.24161086D-03
  0.39135598D-03  0.60453046D-03  0.86184900D-03  0.11209840D-02  0.11946668D-02
  0.88605952D-03 -0.27579743D-04 -0.80272377D-03 -0.78639224D-03  0.36729181D-03
  0.81679893D-04 -0.41021059D-03 -0.18422938D-03  0.99015837D-19  0.12990339D-18
  0.14248422D-18  0.11723827D-18  0.61810335D-19  0.16080128D-19 -0.17794301D-22
  0.10028746D-18  0.13157169D-18  0.14431409D-18  0.11874392D-18  0.62604142D-19
  0.16286639D-19 -0.18022826D-22 -0.38029934D-02 -0.49893202D-02 -0.54725238D-02
 -0.45028793D-02 -0.23740070D-02 -0.61760442D-03  0.68344226D-06 -0.93001287D-19
 -0.12211126D-18 -0.13738340D-18 -0.11575590D-18 -0.64752227D-19 -0.16116697D-19
  0.73918940D-20 -0.85088411D-19 -0.11172160D-18 -0.12569434D-18 -0.10590698D-18
 -0.59242880D-19 -0.14745432D-19  0.67629657D-20  0.31861060D-02  0.41833766D-02
  0.47065807D-02  0.39656501D-02  0.22183291D-02  0.55213759D-03 -0.25323690D-03
  0.17390783D-21 -0.91176698D-20  0.36476308D-03 -0.45854979D-19  0.19631335D-20
 -0.37470438D-03 -0.12264553D-20 -0.44408592D-21 -0.13371406D-04  0.11951833D-03
  0.11951833D-03 -0.23903665D-03  0.11842382D-21 -0.42198116D-19  0.98052355D-20
 -0.83256740D-04 -0.83256740D-04  0.16651348D-03 -0.68638204D-21  0.70137625D-19
 -0.70188461D-20  0.25658566D-04  0.25658566D-04 -0.51317132D-04 -0.27836798D-22
 -0.13845177D-19 -0.14480196D-21 -0.52341398D-20 -0.18726131D-20 -0.15013550D-04
 -0.52476751D-20 -0.22739678D-20  0.22520326D-04  0.20950095D-19  0.78918070D-20
  0.22520326D-04  0.22002464D-22  0.50953207D-20 -0.13334707D-21 -0.45126432D-04
  0.51154110D-20 -0.10583072D-21  0.67689648D-04 -0.20401373D-19  0.50587192D-21
  0.67689648D-04 -0.44551501D-22
MO    3     MO 0.0        OCC NO =    2.0000000  ORB. ENERGY =   -7.882918
 -0.20016169D-04 -0.37441417D-04 -0.64659645D-04 -0.10444218D-03 -0.15728778D-03
 -0.21391063D-03 -0.24351557D-03 -0.19728100D-03 -0.80080257D-04 -0.73022180D-05
  0.28062586D-06 -0.93839267D-07 -0.52660469D-08  0.31279194D-04  0.58546039D-04
  0.10125763D-03  0.16457597D-03  0.25179989D-03  0.35732144D-03  0.44823008D-03
  0.45700940D-03  0.28079566D-03 -0.61197117D-04 -0.22415598D-03 -0.10252105D-03
  0.54418738D-06 -0.18007781D-04 -0.33680837D-04 -0.58326084D-04 -0.94700988D-04
 -0.14536410D-03 -0.20648322D-03 -0.26195672D-03 -0.27119598D-03 -0.17468317D-03
  0.42964233D-04  0.17513544D-03  0.15274858D-03 -0.77848626D-04  0.12853503D-03
 -0.11929060D-03 -0.12605946D-04  0.58640687D-15  0.77350088D-15  0.85916946D-15
  0.73532796D-15  0.42016049D-15  0.13635124D-15  0.96008842D-19 -0.14080299D-14
 -0.18572640D-14 -0.20629641D-14 -0.17656065D-14 -0.10088534D-14 -0.32739491D-15
 -0.23052821D-18  0.14726483D-02  0.19424990D-02  0.21576393D-02  0.18466351D-02
  0.10551525D-02  0.34241997D-03  0.24110779D-06  0.15086620D-15  0.20630759D-15
  0.22427713D-15  0.20587468D-15  0.11221006D-15  0.47350491D-16 -0.16330610D-16
 -0.18752517D-16 -0.25643826D-16 -0.27877422D-16 -0.25590016D-16 -0.13947598D-16
 -0.58856183D-17  0.20298784D-17 -0.12374858D-02 -0.16922459D-02 -0.18396418D-02
 -0.16886950D-02 -0.92040733D-03 -0.38839421D-03  0.13395245D-03  0.16937117D-16
 -0.21461564D-16 -0.23457377D-03 -0.25602150D-17 -0.65148846D-18  0.44921686D-04
  0.53598633D-19 -0.32723255D-19  0.15808171D-06  0.11307778D-04  0.11307778D-04
 -0.22615556D-04 -0.84392405D-20  0.41102904D-17 -0.22812644D-18  0.45458317D-04
  0.45458317D-04 -0.90916634D-04  0.19921651D-19 -0.57377834D-18 -0.74635878D-18
  0.29147550D-06  0.29147550D-06 -0.58295100D-06 -0.60305706D-21  0.21512095D-18
  0.13758860D-18  0.22912508D-18 -0.25018900D-18  0.35951049D-04  0.23430108D-18
 -0.25280026D-18 -0.53926573D-04 -0.92167631D-18  0.10033673D-17 -0.53926573D-04
 -0.22371856D-19  0.14319648D-18  0.36931003D-20 -0.88007047D-06  0.14105368D-18
  0.38935635D-20  0.13201057D-05 -0.57064311D-18 -0.14972864D-19  0.13201057D-05
  0.50217269D-20 -0.47494726D-03 -0.88788630D-03 -0.15345447D-02 -0.24820573D-02
 -0.37514842D-02 -0.51664094D-02 -0.60383347D-02 -0.52175768D-02 -0.24334964D-02
 -0.33041624D-03 -0.88477327D-06 -0.17355594D-05 -0.79235537D-07 -0.16119974D+00
 -0.30104738D+00 -0.52221326D+00 -0.84675074D+00 -0.13036692D+01 -0.18567177D+01
 -0.23874980D+01 -0.25061624D+01 -0.17720344D+01  0.39242444D-01  0.12732296D+01
  0.70107479D+00 -0.29648334D-02  0.26092209D-03  0.48691921D-03  0.84572039D-03
  0.13698794D-02  0.21160628D-02  0.30167654D-02  0.39238264D-02  0.41817412D-02
  0.31015105D-02 -0.96538504D-04 -0.28098069D-02 -0.27526410D-02  0.12856466D-02
  0.43270580D-01  0.25362083D-03  0.43598400D-04  0.87437602D-15  0.11471337D-14
  0.12582308D-14  0.10352923D-14  0.54582656D-15  0.14199827D-15 -0.15713557D-18
  0.76604257D-15  0.10050061D-14  0.11023385D-14  0.90702162D-15  0.47819974D-15
  0.12440497D-15 -0.13766678D-18  0.26854946D-01  0.35232227D-01  0.38644383D-01
  0.31797210D-01  0.16764118D-01  0.43612312D-02 -0.48261470D-05  0.10038511D-15
  0.13180627D-15  0.14829094D-15  0.12494633D-15  0.69893223D-16  0.17396281D-16
 -0.79787726D-17  0.87738322D-16  0.11520095D-15  0.12960884D-15  0.10920524D-15
  0.61087883D-16  0.15204650D-16 -0.69735850D-17 -0.10047309D-02 -0.13192178D-02
 -0.14842090D-02 -0.12505583D-02 -0.69954477D-03 -0.17411527D-03  0.79857652D-04
  0.72516905D-16  0.27790741D-16  0.48937345D-03  0.59297598D-17  0.15458131D-17
  0.54351857D-04 -0.56970045D-19  0.67579500D-19  0.23573874D-05 -0.14765270D-05
 -0.14765270D-05  0.29530540D-05  0.52784682D-20  0.13368055D-16 -0.33053145D-17
 -0.22785091D-03 -0.22785091D-03  0.45570183D-03 -0.32965539D-18 -0.12044746D-15
  0.23244071D-16 -0.89397206D-06 -0.89397206D-06  0.17879441D-05  0.53628759D-20
  0.61169233D-18  0.52741182D-18  0.95984772D-18  0.25567787D-18  0.10334716D-03
  0.41318110D-18  0.27121710D-18 -0.15502074D-03 -0.32927243D-17 -0.10382507D-17
 -0.15502074D-03 -0.40877763D-18 -0.44502854D-18 -0.93849300D-20 -0.79620652D-05
 -0.40540830D-18 -0.10718677D-19  0.11943098D-04  0.17404939D-17  0.38873467D-19
  0.11943098D-04  0.33128850D-19
MO    4     MO 0.0        OCC NO =    2.0000000  ORB. ENERGY =   -5.789584
  0.16701623D-15  0.31241365D-15  0.53952433D-15  0.87147244D-15  0.13124196D-14
  0.17848844D-14  0.20319099D-14  0.16461257D-14  0.66819494D-15  0.60930188D-16
 -0.23415607D-17  0.78300102D-18  0.43940242D-19 -0.36072850D-15 -0.67518442D-15
 -0.11677574D-14 -0.18979786D-14 -0.29038918D-14 -0.41208232D-14 -0.51692304D-14
 -0.52704782D-14 -0.32382866D-14  0.70575807D-15  0.25850874D-14  0.11823280D-14
 -0.62758616D-17  0.23650977D-15  0.44235584D-15  0.76604045D-15  0.12437795D-14
  0.19091764D-14  0.27118999D-14  0.34404751D-14  0.35618214D-14  0.22942458D-14
 -0.56428168D-15 -0.23001858D-14 -0.20061622D-14  0.10224447D-14  0.11837801D-14
 -0.34314701D-14 -0.40543833D-15  0.50408977D-04  0.66492038D-04  0.73856321D-04
  0.63210600D-04  0.36118029D-04  0.11721088D-04  0.82531562D-08  0.34096452D-03
  0.44974977D-03  0.49956152D-03  0.42755424D-03  0.24430106D-03  0.79281019D-04
  0.55824054D-07  0.49176705D-14  0.64866608D-14  0.72050867D-14  0.61665387D-14
  0.35235106D-14  0.11434560D-14  0.80514038D-18 -0.38447876D-04 -0.52576977D-04
 -0.57156469D-04 -0.52466650D-04 -0.28596455D-04 -0.12067155D-04  0.41618153D-05
 -0.26006006D-03 -0.35562879D-03 -0.38660432D-03 -0.35488255D-03 -0.19342540D-03
 -0.81621804D-04  0.28150370D-04 -0.81890150D-14 -0.11198373D-13 -0.12173759D-13
 -0.11174874D-13 -0.60907602D-14 -0.25701838D-14  0.88642523D-15  0.98905686D-06
  0.66899453D-05  0.21472604D-15  0.31429895D-05  0.21259069D-04  0.17932329D-14
  0.80645730D-07  0.54548484D-06  0.45743847D-17  0.41242764D-15  0.40412415D-15
 -0.81655179D-15 -0.38859891D-17 -0.42120837D-05 -0.28490384D-04  0.59040538D-16
  0.45583149D-16 -0.10462369D-15  0.49349251D-16  0.11742293D-07  0.79424450D-07
  0.33600350D-16  0.33608988D-16 -0.67209338D-16 -0.48187128D-19 -0.37061417D-06
 -0.25068210D-05  0.72385699D-06  0.48961428D-05 -0.28522007D-17  0.72447702D-06
  0.49003367D-05 -0.46885011D-16 -0.28960480D-05 -0.19588765D-04  0.55441613D-16
 -0.35625807D-16 -0.19881115D-06 -0.13447515D-05  0.88199864D-16 -0.19872049D-06
 -0.13441383D-05 -0.13123599D-15  0.79515395D-06  0.53783929D-05 -0.13336360D-15
 -0.53514216D-20 -0.64065821D-16 -0.11976733D-15 -0.20699534D-15 -0.33480567D-15
 -0.50603917D-15 -0.69689897D-15 -0.81451332D-15 -0.70380096D-15 -0.32825528D-15
 -0.44569975D-16 -0.11934741D-18 -0.23411028D-18 -0.10688112D-19  0.15321016D-15
  0.28612650D-15  0.49633069D-15  0.80478305D-15  0.12390551D-14  0.17646928D-14
  0.22691659D-14  0.23819489D-14  0.16842067D-14 -0.37297462D-16 -0.12101243D-14
 -0.66632727D-15  0.28178867D-17 -0.69333638D-16 -0.12938683D-15 -0.22472943D-15
 -0.36401182D-15 -0.56229172D-15 -0.80163134D-15 -0.10426605D-14 -0.11111951D-14
 -0.82415026D-15  0.25652737D-16  0.74663720D-15  0.73144676D-15 -0.34162902D-15
 -0.24163403D-15  0.60211907D-14  0.87716613D-15  0.14201578D+01  0.18631696D+01
  0.20436131D+01  0.16815173D+01  0.88652915D+00  0.23063298D+00 -0.25521891D-03
  0.96058964D+01  0.12602413D+02  0.13822926D+02  0.11373723D+02  0.59964515D+01
  0.15599933D+01 -0.17262916D-02  0.27807906D-13  0.36482458D-13  0.40015696D-13
  0.32925549D-13  0.17359000D-13  0.45159915D-14 -0.49974050D-17 -0.21724160D-02
 -0.28523954D-02 -0.32091371D-02 -0.27039407D-02 -0.15125465D-02 -0.37646974D-03
  0.17266716D-03 -0.14694144D-01 -0.19293500D-01 -0.21706489D-01 -0.18289358D-01
 -0.10230811D-01 -0.25464279D-02  0.11679145D-02 -0.30699927D-13 -0.40309191D-13
 -0.45350558D-13 -0.38211274D-13 -0.21374851D-13 -0.53201569D-14  0.24400803D-14
  0.11171489D-01  0.75563550D-01  0.81562143D-16 -0.15343698D-05 -0.10378422D-04
  0.91375273D-15 -0.48415064D-06 -0.32747777D-05  0.60722055D-17 -0.27950968D-15
 -0.30418295D-15  0.58369263D-15 -0.17982320D-16 -0.72200667D-05 -0.48836273D-04
 -0.31397272D-15 -0.72034764D-16  0.38600748D-15  0.17076658D-15  0.74706527D-04
  0.50531228D-03  0.44332651D-16  0.48740554D-16 -0.93073205D-16  0.13843529D-17
 -0.15282770D-05 -0.10337211D-04 -0.55038653D-05 -0.37227948D-04  0.60498926D-16
 -0.54588392D-05 -0.36923393D-04 -0.40726223D-16  0.21970435D-04  0.14860724D-03
 -0.14077055D-15 -0.12958777D-16  0.70953058D-06  0.47992395D-05 -0.62075825D-16
  0.70727847D-06  0.47840063D-05  0.75847914D-16 -0.28358702D-05 -0.19181725D-04
  0.11037956D-15  0.52694486D-18
MO    5     MO 0.0        OCC NO =    2.0000000  ORB. ENERGY =   -5.789584
  0.31263112D-17  0.58479483D-17  0.10099144D-16  0.16312750D-16  0.24566666D-16
  0.33410550D-16  0.38034524D-16  0.30813180D-16  0.12507679D-16  0.11405282D-17
 -0.43830754D-19  0.14656688D-19  0.82250013D-21  0.36729584D-16  0.68747668D-16
  0.11890174D-15  0.19325328D-15  0.29567594D-15  0.41958460D-15  0.52633403D-15
  0.53664314D-15  0.32972422D-15 -0.71860695D-16 -0.26321509D-15 -0.12038532D-15
  0.63901186D-18  0.49807175D-17  0.93156805D-17  0.16132234D-16  0.26193059D-16
  0.40205815D-16  0.57110567D-16  0.72453813D-16  0.75009273D-16  0.48315086D-16
 -0.11883347D-16 -0.48440179D-16 -0.42248264D-16  0.21531915D-16  0.33044443D-16
 -0.55181463D-17 -0.27480172D-18  0.34096452D-03  0.44974977D-03  0.49956152D-03
  0.42755424D-03  0.24430106D-03  0.79281019D-04  0.55824054D-07 -0.50408977D-04
 -0.66492038D-04 -0.73856321D-04 -0.63210600D-04 -0.36118029D-04 -0.11721088D-04
 -0.82531562D-08  0.15737948D-15  0.20759164D-15  0.23058332D-15  0.19734682D-15
  0.11276239D-15  0.36593853D-16  0.25766788D-19 -0.26006006D-03 -0.35562879D-03
 -0.38660432D-03 -0.35488255D-03 -0.19342540D-03 -0.81621804D-04  0.28150370D-04
  0.38447876D-04  0.52576977D-04  0.57156469D-04  0.52466650D-04  0.28596455D-04
  0.12067155D-04 -0.41618153D-05 -0.36029093D-15 -0.49269321D-15 -0.53560715D-15
 -0.49165936D-15 -0.26797431D-15 -0.11308001D-15  0.38999925D-16  0.66899453D-05
 -0.98905686D-06 -0.43015005D-17  0.21259069D-04 -0.31429895D-05  0.20730292D-16
  0.54548484D-06 -0.80645730D-07  0.11241945D-17  0.16067192D-16  0.30717011D-17
 -0.19138893D-16 -0.12062907D-16 -0.28490384D-04  0.42120837D-05  0.16243433D-16
 -0.86677707D-17 -0.75756624D-17  0.10872611D-15  0.79424450D-07 -0.11742293D-07
  0.10922243D-17  0.22111543D-19 -0.11143359D-17  0.44153639D-19 -0.25068210D-05
  0.37061417D-06  0.48961428D-05 -0.72385699D-06  0.29049755D-17  0.49003367D-05
 -0.72447702D-06  0.24284202D-16 -0.19588765D-04  0.28960480D-05 -0.32999129D-16
  0.21374062D-17 -0.13447515D-05  0.19881115D-06  0.60875169D-18 -0.13441383D-05
  0.19872049D-06 -0.66658482D-17  0.53783929D-05 -0.79515395D-06  0.48395932D-17
  0.34937991D-18 -0.79387326D-17 -0.14840999D-16 -0.25649880D-16 -0.41487531D-16
 -0.62705973D-16 -0.86356415D-16 -0.10093063D-15 -0.87211677D-16 -0.40675837D-16
 -0.55228999D-17 -0.14788965D-19 -0.29009836D-19 -0.13244202D-20  0.25875960D-16
  0.48324457D-16  0.83826249D-16  0.13592136D-15  0.20926641D-15  0.29804238D-15
  0.38324381D-15  0.40229196D-15  0.28444892D-15 -0.62992404D-17 -0.20438023D-15
 -0.11253730D-15  0.47591833D-18  0.46206997D-17  0.86229092D-17  0.14976961D-16
  0.24259354D-16  0.37473602D-16  0.53424250D-16  0.69487499D-16  0.74054943D-16
  0.54925011D-16 -0.17096116D-17 -0.49759199D-16 -0.48746840D-16  0.22767666D-16
  0.28940302D-16  0.12609926D-15 -0.38470934D-16  0.96058964D+01  0.12602413D+02
  0.13822926D+02  0.11373723D+02  0.59964515D+01  0.15599933D+01 -0.17262916D-02
 -0.14201578D+01 -0.18631696D+01 -0.20436131D+01 -0.16815173D+01 -0.88652915D+00
 -0.23063298D+00  0.25521891D-03  0.39748913D-13  0.52148409D-13  0.57198857D-13
  0.47064126D-13  0.24813138D-13  0.64552057D-14 -0.71433432D-17 -0.14694144D-01
 -0.19293500D-01 -0.21706489D-01 -0.18289358D-01 -0.10230811D-01 -0.25464279D-02
  0.11679145D-02  0.21724160D-02  0.28523954D-02  0.32091371D-02  0.27039407D-02
  0.15125465D-02  0.37646974D-03 -0.17266716D-03 -0.16225739D-14 -0.21304494D-14
 -0.23968993D-14 -0.20195689D-14 -0.11297185D-14 -0.28118464D-15  0.12896482D-15
  0.75563550D-01 -0.11171489D-01  0.24272087D-15 -0.10378422D-04  0.15343698D-05
 -0.13187315D-16 -0.32747777D-05  0.48415064D-06 -0.52040191D-17 -0.59981784D-17
 -0.12099135D-16  0.18097313D-16  0.18099847D-16 -0.48836273D-04  0.72200667D-05
  0.57654158D-16 -0.41879746D-16 -0.15774412D-16 -0.64773769D-16  0.50531228D-03
 -0.74706527D-04 -0.17329912D-17  0.86522512D-17 -0.69192600D-17 -0.18759005D-17
 -0.10337211D-04  0.15282770D-05 -0.37227948D-04  0.55038653D-05  0.15884557D-16
 -0.36923393D-04  0.54588392D-05 -0.23723754D-16  0.14860724D-03 -0.21970435D-04
 -0.23929918D-16 -0.85206587D-17  0.47992395D-05 -0.70953058D-06 -0.35456618D-17
  0.47840063D-05 -0.70727847D-06 -0.16825988D-16 -0.19181725D-04  0.28358702D-05
  0.27462974D-16  0.30379407D-17
MO    6     MO 0.0        OCC NO =    2.0000000  ORB. ENERGY =   -5.789324
 -0.51622861D-04 -0.96563587D-04 -0.16676097D-03 -0.26936244D-03 -0.40565430D-03
 -0.55168793D-03 -0.62804078D-03 -0.50879916D-03 -0.20653163D-03 -0.18832844D-04
  0.72375037D-06 -0.24201691D-06 -0.13581441D-07  0.77260805D-05  0.14461095D-04
  0.25011021D-04  0.40650893D-04  0.62195535D-04  0.88259763D-04  0.11071454D-03
  0.11288307D-03  0.69357601D-04 -0.15115922D-04 -0.55367384D-04 -0.25323092D-04
  0.13441636D-06 -0.42542008D-04 -0.79568408D-04 -0.13779092D-03 -0.22372386D-03
 -0.34341159D-03 -0.48780085D-03 -0.61885275D-03 -0.64067981D-03 -0.41267564D-03
  0.10149972D-03  0.41374411D-03  0.36085685D-03 -0.18391144D-03  0.44187180D-03
 -0.44619374D-03 -0.64457885D-04  0.58679969D-15  0.77401903D-15  0.85974501D-15
  0.73582055D-15  0.42044195D-15  0.13644258D-15  0.96073157D-19 -0.67267608D-15
 -0.88729441D-15 -0.98556613D-15 -0.84350569D-15 -0.48197237D-15 -0.15641054D-15
 -0.11013318D-18  0.44466682D-02  0.58653845D-02  0.65150013D-02  0.55759229D-02
  0.31860375D-02  0.10339386D-02  0.72802603D-06 -0.29813420D-15 -0.40769468D-15
 -0.44320519D-15 -0.40683918D-15 -0.22174388D-15 -0.93571657D-16  0.32271730D-16
  0.34822405D-16  0.47619191D-16  0.51766857D-16  0.47519268D-16  0.25899930D-16
  0.10929273D-16 -0.37693738D-17 -0.41914298D-02 -0.57317263D-02 -0.62309639D-02
 -0.57196990D-02 -0.31174682D-02 -0.13155117D-02  0.45370404D-03  0.42181372D-16
  0.31040344D-16 -0.74510334D-03  0.54746968D-17  0.21251940D-19  0.21173297D-03
 -0.15692565D-19  0.11065647D-19  0.29827421D-05  0.57529431D-04  0.57529431D-04