 Molden2AIM, Version 4.0.0 (06/02/2016)           Time: Mon Jul  2 23:43:53 2018
GAUSSIAN             10 MOL ORBITALS    306 PRIMITIVES        6 NUCLEI
  C    1    (CENTRE  1)   1.49267766  0.00000000  0.00000000  CHARGE =  6.0
  C    2    (CENTRE  2)  -0.74632844  1.29270684  0.00000000  CHARGE =  6.0
  C    3    (CENTRE  3)  -0.74632844 -1.29270684  0.00000000  CHARGE =  6.0
  H    4    (CENTRE  4)   3.55203505  0.00000000  0.00000000  CHARGE =  1.0
  H    5    (CENTRE  5)  -1.77602886  3.07616044  0.00000000  CHARGE =  1.0
  H    6    (CENTRE  6)  -1.77602886 -3.07616044  0.00000000  CHARGE =  1.0
CENTRE ASSIGNMENTS    1  1  1  1  1  1  1  1  1  1  1  1  1  1  1  1  1  1  1  1
CENTRE ASSIGNMENTS    1  1  1  1  1  1  1  1  1  1  1  1  1  1  1  1  1  1  1  1
CENTRE ASSIGNMENTS    1  1  1  1  1  1  1  1  1  1  1  1  1  1  1  1  1  1  1  1
CENTRE ASSIGNMENTS    1  1  1  1  1  1  1  1  1  1  1  1  1  1  1  2  2  2  2  2
CENTRE ASSIGNMENTS    2  2  2  2  2  2  2  2  2  2  2  2  2  2  2  2  2  2  2  2
CENTRE ASSIGNMENTS    2  2  2  2  2  2  2  2  2  2  2  2  2  2  2  2  2  2  2  2
CENTRE ASSIGNMENTS    2  2  2  2  2  2  2  2  2  2  2  2  2  2  2  2  2  2  2  2
CENTRE ASSIGNMENTS    2  2  2  2  2  2  2  2  2  2  3  3  3  3  3  3  3  3  3  3
CENTRE ASSIGNMENTS    3  3  3  3  3  3  3  3  3  3  3  3  3  3  3  3  3  3  3  3
CENTRE ASSIGNMENTS    3  3  3  3  3  3  3  3  3  3  3  3  3  3  3  3  3  3  3  3
CENTRE ASSIGNMENTS    3  3  3  3  3  3  3  3  3  3  3  3  3  3  3  3  3  3  3  3
CENTRE ASSIGNMENTS    3  3  3  3  3  4  4  4  4  4  4  4  4  4  4  4  4  4  4  4
CENTRE ASSIGNMENTS    4  4  4  4  4  4  4  4  4  4  4  4  5  5  5  5  5  5  5  5
CENTRE ASSIGNMENTS    5  5  5  5  5  5  5  5  5  5  5  5  5  5  5  5  5  5  5  6
CENTRE ASSIGNMENTS    6  6  6  6  6  6  6  6  6  6  6  6  6  6  6  6  6  6  6  6
CENTRE ASSIGNMENTS    6  6  6  6  6  6
TYPE ASSIGNMENTS      1  1  1  1  1  1  1  1  1  1  1  1  1  1  1  1  1  1  1  2
TYPE ASSIGNMENTS      2  2  3  3  3  4  4  4  2  3  4  2  3  4  2  3  4  5  6  7
TYPE ASSIGNMENTS      8  9 10  5  6  7  8  9 10  5  6  7  8  9 10 11 12 13 17 14
TYPE ASSIGNMENTS     15 18 19 16 20 11 12 13 17 14 15 18 19 16 20  1  1  1  1  1
TYPE ASSIGNMENTS      1  1  1  1  1  1  1  1  1  1  1  1  1  1  2  2  2  3  3  3
TYPE ASSIGNMENTS      4  4  4  2  3  4  2  3  4  2  3  4  5  6  7  8  9 10  5  6
TYPE ASSIGNMENTS      7  8  9 10  5  6  7  8  9 10 11 12 13 17 14 15 18 19 16 20
TYPE ASSIGNMENTS     11 12 13 17 14 15 18 19 16 20  1  1  1  1  1  1  1  1  1  1
TYPE ASSIGNMENTS      1  1  1  1  1  1  1  1  1  2  2  2  3  3  3  4  4  4  2  3
TYPE ASSIGNMENTS      4  2  3  4  2  3  4  5  6  7  8  9 10  5  6  7  8  9 10  5
TYPE ASSIGNMENTS      6  7  8  9 10 11 12 13 17 14 15 18 19 16 20 11 12 13 17 14
TYPE ASSIGNMENTS     15 18 19 16 20  1  1  1  1  1  1  2  3  4  2  3  4  2  3  4
TYPE ASSIGNMENTS      5  6  7  8  9 10  5  6  7  8  9 10  1  1  1  1  1  1  2  3
TYPE ASSIGNMENTS      4  2  3  4  2  3  4  5  6  7  8  9 10  5  6  7  8  9 10  1
TYPE ASSIGNMENTS      1  1  1  1  1  2  3  4  2  3  4  2  3  4  5  6  7  8  9 10
TYPE ASSIGNMENTS      5  6  7  8  9 10
EXPONENTS  0.8236000D+04 0.1235000D+04 0.2808000D+03 0.7927000D+02 0.2559000D+02
EXPONENTS  0.8997000D+01 0.3319000D+01 0.3643000D+00 0.8236000D+04 0.1235000D+04
EXPONENTS  0.2808000D+03 0.7927000D+02 0.2559000D+02 0.8997000D+01 0.3319000D+01
EXPONENTS  0.3643000D+00 0.9059000D+00 0.1285000D+00 0.4402000D-01 0.1871000D+02
EXPONENTS  0.4133000D+01 0.1200000D+01 0.1871000D+02 0.4133000D+01 0.1200000D+01
EXPONENTS  0.1871000D+02 0.4133000D+01 0.1200000D+01 0.3827000D+00 0.3827000D+00
EXPONENTS  0.3827000D+00 0.1209000D+00 0.1209000D+00 0.1209000D+00 0.3569000D-01
EXPONENTS  0.3569000D-01 0.3569000D-01 0.1097000D+01 0.1097000D+01 0.1097000D+01
EXPONENTS  0.1097000D+01 0.1097000D+01 0.1097000D+01 0.3180000D+00 0.3180000D+00
EXPONENTS  0.3180000D+00 0.3180000D+00 0.3180000D+00 0.3180000D+00 0.1000000D+00
EXPONENTS  0.1000000D+00 0.1000000D+00 0.1000000D+00 0.1000000D+00 0.1000000D+00
EXPONENTS  0.7610000D+00 0.7610000D+00 0.7610000D+00 0.7610000D+00 0.7610000D+00
EXPONENTS  0.7610000D+00 0.7610000D+00 0.7610000D+00 0.7610000D+00 0.7610000D+00
EXPONENTS  0.2680000D+00 0.2680000D+00 0.2680000D+00 0.2680000D+00 0.2680000D+00
EXPONENTS  0.2680000D+00 0.2680000D+00 0.2680000D+00 0.2680000D+00 0.2680000D+00
EXPONENTS  0.8236000D+04 0.1235000D+04 0.2808000D+03 0.7927000D+02 0.2559000D+02
EXPONENTS  0.8997000D+01 0.3319000D+01 0.3643000D+00 0.8236000D+04 0.1235000D+04
EXPONENTS  0.2808000D+03 0.7927000D+02 0.2559000D+02 0.8997000D+01 0.3319000D+01
EXPONENTS  0.3643000D+00 0.9059000D+00 0.1285000D+00 0.4402000D-01 0.1871000D+02
EXPONENTS  0.4133000D+01 0.1200000D+01 0.1871000D+02 0.4133000D+01 0.1200000D+01
EXPONENTS  0.1871000D+02 0.4133000D+01 0.1200000D+01 0.3827000D+00 0.3827000D+00
EXPONENTS  0.3827000D+00 0.1209000D+00 0.1209000D+00 0.1209000D+00 0.3569000D-01
EXPONENTS  0.3569000D-01 0.3569000D-01 0.1097000D+01 0.1097000D+01 0.1097000D+01
EXPONENTS  0.1097000D+01 0.1097000D+01 0.1097000D+01 0.3180000D+00 0.3180000D+00
EXPONENTS  0.3180000D+00 0.3180000D+00 0.3180000D+00 0.3180000D+00 0.1000000D+00
EXPONENTS  0.1000000D+00 0.1000000D+00 0.1000000D+00 0.1000000D+00 0.1000000D+00
EXPONENTS  0.7610000D+00 0.7610000D+00 0.7610000D+00 0.7610000D+00 0.7610000D+00
EXPONENTS  0.7610000D+00 0.7610000D+00 0.7610000D+00 0.7610000D+00 0.7610000D+00
EXPONENTS  0.2680000D+00 0.2680000D+00 0.2680000D+00 0.2680000D+00 0.2680000D+00
EXPONENTS  0.2680000D+00 0.2680000D+00 0.2680000D+00 0.2680000D+00 0.2680000D+00
EXPONENTS  0.8236000D+04 0.1235000D+04 0.2808000D+03 0.7927000D+02 0.2559000D+02
EXPONENTS  0.8997000D+01 0.3319000D+01 0.3643000D+00 0.8236000D+04 0.1235000D+04
EXPONENTS  0.2808000D+03 0.7927000D+02 0.2559000D+02 0.8997000D+01 0.3319000D+01
EXPONENTS  0.3643000D+00 0.9059000D+00 0.1285000D+00 0.4402000D-01 0.1871000D+02
EXPONENTS  0.4133000D+01 0.1200000D+01 0.1871000D+02 0.4133000D+01 0.1200000D+01
EXPONENTS  0.1871000D+02 0.4133000D+01 0.1200000D+01 0.3827000D+00 0.3827000D+00
EXPONENTS  0.3827000D+00 0.1209000D+00 0.1209000D+00 0.1209000D+00 0.3569000D-01
EXPONENTS  0.3569000D-01 0.3569000D-01 0.1097000D+01 0.1097000D+01 0.1097000D+01
EXPONENTS  0.1097000D+01 0.1097000D+01 0.1097000D+01 0.3180000D+00 0.3180000D+00
EXPONENTS  0.3180000D+00 0.3180000D+00 0.3180000D+00 0.3180000D+00 0.1000000D+00
EXPONENTS  0.1000000D+00 0.1000000D+00 0.1000000D+00 0.1000000D+00 0.1000000D+00
EXPONENTS  0.7610000D+00 0.7610000D+00 0.7610000D+00 0.7610000D+00 0.7610000D+00
EXPONENTS  0.7610000D+00 0.7610000D+00 0.7610000D+00 0.7610000D+00 0.7610000D+00
EXPONENTS  0.2680000D+00 0.2680000D+00 0.2680000D+00 0.2680000D+00 0.2680000D+00
EXPONENTS  0.2680000D+00 0.2680000D+00 0.2680000D+00 0.2680000D+00 0.2680000D+00
EXPONENTS  0.3387000D+02 0.5095000D+01 0.1159000D+01 0.3258000D+00 0.1027000D+00
EXPONENTS  0.2526000D-01 0.1407000D+01 0.1407000D+01 0.1407000D+01 0.3880000D+00
EXPONENTS  0.3880000D+00 0.3880000D+00 0.1020000D+00 0.1020000D+00 0.1020000D+00
EXPONENTS  0.1057000D+01 0.1057000D+01 0.1057000D+01 0.1057000D+01 0.1057000D+01
EXPONENTS  0.1057000D+01 0.2470000D+00 0.2470000D+00 0.2470000D+00 0.2470000D+00
EXPONENTS  0.2470000D+00 0.2470000D+00 0.3387000D+02 0.5095000D+01 0.1159000D+01
EXPONENTS  0.3258000D+00 0.1027000D+00 0.2526000D-01 0.1407000D+01 0.1407000D+01
EXPONENTS  0.1407000D+01 0.3880000D+00 0.3880000D+00 0.3880000D+00 0.1020000D+00
EXPONENTS  0.1020000D+00 0.1020000D+00 0.1057000D+01 0.1057000D+01 0.1057000D+01
EXPONENTS  0.1057000D+01 0.1057000D+01 0.1057000D+01 0.2470000D+00 0.2470000D+00
EXPONENTS  0.2470000D+00 0.2470000D+00 0.2470000D+00 0.2470000D+00 0.3387000D+02
EXPONENTS  0.5095000D+01 0.1159000D+01 0.3258000D+00 0.1027000D+00 0.2526000D-01
EXPONENTS  0.1407000D+01 0.1407000D+01 0.1407000D+01 0.3880000D+00 0.3880000D+00
EXPONENTS  0.3880000D+00 0.1020000D+00 0.1020000D+00 0.1020000D+00 0.1057000D+01
EXPONENTS  0.1057000D+01 0.1057000D+01 0.1057000D+01 0.1057000D+01 0.1057000D+01
EXPONENTS  0.2470000D+00 0.2470000D+00 0.2470000D+00 0.2470000D+00 0.2470000D+00
EXPONENTS  0.2470000D+00
MO    1     MO 0.0        OCC NO =    2.0000000  ORB. ENERGY =  -10.672565
  0.18875930D+00  0.35189025D+00  0.59475650D+00  0.89411384D+00  0.10985222D+01
  0.92787758D+00  0.34996128D+00 -0.17319779D-02 -0.14380262D-02 -0.26924388D-02
 -0.45841074D-02 -0.70909172D-02 -0.93384885D-02 -0.97032877D-02 -0.61660037D-02
  0.41323123D-02  0.19308649D-01 -0.95678351D-03 -0.22340312D-03 -0.26713900D-02
 -0.25045979D-02 -0.17834229D-02 -0.32728727D-13 -0.30685262D-13 -0.21849735D-13
 -0.12436024D-15 -0.11659563D-15 -0.83023032D-16  0.36910793D-03  0.11490735D-12
  0.25061749D-17  0.65669195D-04 -0.52926575D-13  0.34025080D-17 -0.18645563D-05
  0.37304037D-14  0.82672525D-19  0.34730636D-02 -0.12397059D-02 -0.22333577D-02
 -0.20721097D-13  0.13908666D-17  0.14332198D-17 -0.11785155D-02  0.41556235D-03
  0.76295319D-03 -0.12621947D-12  0.12587388D-17  0.10357588D-17 -0.11918591D-03
  0.49763571D-04  0.69422335D-04  0.41197148D-13 -0.21803657D-18  0.32787472D-18
  0.50351114D-03  0.66736590D-15 -0.34357128D-18 -0.36832293D-03 -0.20668637D-13
  0.80055797D-18 -0.11422105D-02  0.18666539D-13  0.23015588D-18  0.30426467D-18
 -0.14665140D-03  0.20166949D-13 -0.17260978D-18  0.53977755D-03 -0.59219694D-13
  0.76448100D-18 -0.99823362D-04 -0.12811536D-14 -0.24665165D-18 -0.58338206D-18
  0.19081695D+00  0.35572618D+00  0.60123990D+00  0.90386052D+00  0.11104971D+01
  0.93799231D+00  0.35377619D+00 -0.17508581D-02 -0.14557658D-02 -0.27256529D-02
 -0.46406572D-02 -0.71783911D-02 -0.94536885D-02 -0.98229879D-02 -0.62420679D-02
  0.41832887D-02  0.19507768D-01 -0.91397371D-03 -0.23684856D-03  0.13364355D-02
  0.12529933D-02  0.89220586D-03 -0.23191386D-02 -0.21743398D-02 -0.15482595D-02
  0.30556279D-17  0.28648453D-17  0.20399406D-17 -0.18205869D-03  0.30369146D-03
 -0.99626440D-18 -0.10151503D-04  0.28637377D-04 -0.17077043D-17  0.53458420D-06
 -0.10790360D-05 -0.50630285D-19 -0.55958438D-04  0.23145544D-02 -0.22585960D-02
 -0.41041165D-02  0.14536101D-17  0.20828772D-17  0.12145973D-04 -0.77586482D-03
  0.76371884D-03  0.13607226D-02 -0.16470423D-17 -0.26904369D-18  0.84957646D-05
 -0.78573222D-04  0.70077457D-04  0.14570723D-03 -0.76149374D-18  0.44269522D-18
  0.79141489D-04  0.25125698D-03  0.28435710D-18 -0.80582843D-03  0.23819190D-03
 -0.54860176D-18  0.56840397D-03 -0.99196284D-03 -0.30446954D-18 -0.12637137D-17
 -0.18634203D-03  0.22649991D-04  0.47606938D-19  0.51162232D-03  0.16931131D-04
 -0.94771281D-19  0.47403781D-04 -0.84881104D-04 -0.48049534D-19  0.86283984D-18
  0.19081695D+00  0.35572618D+00  0.60123990D+00  0.90386052D+00  0.11104971D+01
  0.93799231D+00  0.35377619D+00 -0.17508581D-02 -0.14557658D-02 -0.27256529D-02
 -0.46406572D-02 -0.71783911D-02 -0.94536885D-02 -0.98229879D-02 -0.62420679D-02
  0.41832887D-02  0.19507768D-01 -0.91397372D-03 -0.23684856D-03  0.13364355D-02
  0.12529933D-02  0.89220586D-03  0.23191386D-02  0.21743398D-02  0.15482595D-02
  0.23573426D-17  0.22101585D-17  0.15737645D-17 -0.18205869D-03 -0.30369146D-03
 -0.42230792D-18 -0.10151504D-04 -0.28637379D-04 -0.38398340D-19  0.53458422D-06
  0.10790361D-05 -0.66390527D-19 -0.55958438D-04  0.23145544D-02 -0.22585960D-02
  0.41041165D-02  0.25753913D-17  0.14562815D-17  0.12145973D-04 -0.77586482D-03
  0.76371884D-03 -0.13607226D-02  0.35470931D-18 -0.23262054D-18  0.84957646D-05
 -0.78573222D-04  0.70077457D-04 -0.14570723D-03  0.18944668D-18 -0.66215634D-21
  0.79141489D-04 -0.25125698D-03 -0.39589865D-18 -0.80582843D-03 -0.23819190D-03
 -0.44525430D-18  0.56840397D-03  0.99196284D-03  0.16329502D-17 -0.22211761D-18
 -0.18634203D-03 -0.22649991D-04 -0.23489816D-19  0.51162232D-03 -0.16931131D-04
  0.48288182D-18  0.47403781D-04  0.84881104D-04 -0.41241237D-18  0.77159807D-18
  0.11220998D-03  0.20237531D-03  0.29840228D-03  0.12861888D-02  0.44040046D-03
  0.27425292D-04  0.81128660D-03 -0.26846196D-13  0.11733241D-17  0.90198024D-03
  0.13782355D-12 -0.37239171D-17  0.16280354D-03 -0.19351195D-13 -0.80775647D-18
 -0.17288986D-02  0.63892494D-03  0.10899736D-02 -0.72935074D-13 -0.23307065D-18
 -0.12520284D-18 -0.20597119D-03 -0.34997238D-05  0.20947092D-03 -0.21470643D-13
  0.19434051D-17 -0.11758462D-19  0.11289377D-03  0.20360856D-03  0.30022071D-03
  0.12887847D-02  0.48262987D-03  0.27118337D-04 -0.40816732D-03  0.70863719D-03
 -0.60075320D-19 -0.46626126D-03  0.79128704D-03  0.52847155D-18 -0.77458329D-04
  0.13753352D-03 -0.55765001D-18  0.45519928D-04 -0.11421468D-02  0.10966268D-02
  0.20731838D-02 -0.13391046D-17  0.57338765D-18 -0.54189190D-04 -0.15641834D-03
  0.21060753D-03  0.17791060D-03  0.64990287D-18 -0.19175303D-19  0.11289377D-03
  0.20360856D-03  0.30022071D-03  0.12887847D-02  0.48262987D-03  0.27118337D-04
 -0.40816732D-03 -0.70863719D-03 -0.40321099D-18 -0.46626126D-03 -0.79128704D-03
  0.21019604D-18 -0.77458329D-04 -0.13753352D-03  0.33262860D-18  0.45519928D-04
 -0.11421468D-02  0.10966268D-02 -0.20731838D-02 -0.18327425D-17  0.45016404D-18
 -0.54189190D-04 -0.15641834D-03  0.21060753D-03 -0.17791060D-03  0.62511650D-18
  0.48700142D-19
MO    2     MO 0.0        OCC NO =    2.0000000  ORB. ENERGY =  -10.671401
 -0.62767613D-09 -0.11701310D-08 -0.19777275D-08 -0.29731723D-08 -0.36528857D-08
 -0.30854460D-08 -0.11637167D-08  0.57592989D-11  0.55315495D-11  0.10356806D-10
  0.17633348D-10  0.27276108D-10  0.35921675D-10  0.37324922D-10  0.23718312D-10
 -0.15895461D-10 -0.60299081D-10 -0.14806013D-10  0.31304880D-11  0.17325954D-11
  0.16244183D-11  0.11566826D-11  0.89505228D-03  0.83916840D-03  0.59753789D-03
 -0.91956284D-16 -0.86214862D-16 -0.61390118D-16  0.57525039D-11  0.93629550D-03
  0.54404740D-16  0.10399266D-10 -0.13312421D-02  0.88919932D-17 -0.13404098D-12
  0.14495673D-04 -0.10286426D-17 -0.82073614D-11  0.50095764D-12  0.77064038D-11
 -0.23913411D-03 -0.38563971D-16 -0.39388081D-16 -0.32327054D-11  0.31932965D-11
  0.39408889D-13  0.66485129D-03  0.74609721D-17 -0.32395007D-16  0.19271922D-12
 -0.18791772D-13 -0.17392744D-12  0.58977187D-03 -0.25896750D-17  0.11962562D-17
 -0.88441182D-12  0.62943840D-03 -0.41274360D-17  0.31188042D-11 -0.28590872D-02
  0.17307160D-16 -0.46556874D-12  0.97077203D-03 -0.49248517D-17  0.20233364D-16
  0.96980206D-12  0.24114794D-03 -0.12076401D-18 -0.22398259D-11 -0.10336532D-02
  0.11556079D-17 -0.66958029D-12  0.31020938D-03 -0.79331584D-18 -0.18732043D-17
  0.23339931D+00  0.43510939D+00  0.73541152D+00  0.11055644D+01  0.13583136D+01
  0.11473130D+01  0.43272424D+00 -0.21415764D-02 -0.20644395D-02 -0.38652821D-02
 -0.65809734D-02 -0.10179765D-01 -0.13406393D-01 -0.13930101D-01 -0.88519537D-02
  0.59323735D-02  0.22449621D-01  0.55841372D-02 -0.13853492D-02  0.70658928D-03
  0.66247236D-03  0.47171979D-03 -0.32407694D-03 -0.30384273D-03 -0.21635412D-03
  0.16817058D-16  0.15767061D-16  0.11227087D-16  0.14681595D-02 -0.16147078D-02
 -0.21882834D-17  0.14514859D-02 -0.38493651D-02 -0.82336357D-17 -0.27117418D-04
  0.61424369D-04 -0.45499333D-18  0.68634112D-03  0.21783942D-02 -0.28647353D-02
 -0.28209562D-02 -0.11240754D-16 -0.49564385D-17 -0.75659333D-03  0.75516406D-03
  0.14292678D-05 -0.19481326D-02  0.45506287D-17  0.15615964D-17 -0.14115428D-03
  0.72320406D-04  0.68833878D-04  0.22077815D-03 -0.26398611D-17  0.37276719D-17
  0.28684056D-03 -0.53380147D-03  0.94853651D-18 -0.11983917D-02  0.12144397D-02
  0.23966929D-17  0.33787000D-03  0.38696471D-03 -0.52423024D-17  0.11055178D-16
 -0.30739137D-03 -0.23459045D-03  0.22314621D-18  0.91656494D-03  0.40311872D-03
  0.74679531D-18  0.56091583D-05  0.30065265D-03 -0.14162339D-17 -0.10540902D-17
 -0.23339931D+00 -0.43510939D+00 -0.73541152D+00 -0.11055644D+01 -0.13583136D+01
 -0.11473130D+01 -0.43272424D+00  0.21415764D-02  0.20644395D-02  0.38652820D-02
  0.65809734D-02  0.10179765D-01  0.13406393D-01  0.13930101D-01  0.88519536D-02
 -0.59323735D-02 -0.22449621D-01 -0.55841371D-02  0.13853492D-02 -0.70658928D-03
 -0.66247236D-03 -0.47171979D-03 -0.32407693D-03 -0.30384273D-03 -0.21635412D-03
  0.20429689D-16  0.19154132D-16  0.13638883D-16 -0.14681595D-02 -0.16147078D-02
  0.11029881D-18 -0.14514859D-02 -0.38493651D-02  0.44657964D-17  0.27117418D-04
  0.61424369D-04  0.38127316D-18 -0.68634112D-03 -0.21783942D-02  0.28647353D-02
 -0.28209562D-02  0.61703459D-18 -0.13667380D-16  0.75659333D-03 -0.75516406D-03
 -0.14292678D-05 -0.19481326D-02 -0.39213003D-17  0.53795029D-17  0.14115428D-03
 -0.72320407D-04 -0.68833877D-04  0.22077815D-03  0.15640677D-17  0.17997570D-17
 -0.28684056D-03 -0.53380147D-03  0.87690548D-17  0.11983917D-02  0.12144397D-02
 -0.18070622D-16 -0.33787001D-03  0.38696471D-03 -0.82365426D-17 -0.16039304D-16
  0.30739137D-03 -0.23459046D-03 -0.25106273D-19 -0.91656494D-03  0.40311872D-03
  0.16579816D-19 -0.56091597D-05  0.30065265D-03  0.58739001D-19 -0.34751456D-17
 -0.21422283D-12 -0.38635970D-12 -0.56968715D-12 -0.24449993D-12 -0.11601176D-10
  0.34521806D-13 -0.19020727D-11 -0.91496098D-04  0.45159414D-18 -0.47860902D-11
  0.18195670D-02 -0.96003573D-17  0.13427453D-11 -0.38748226D-03  0.31613864D-17
  0.41073760D-11 -0.21827379D-11 -0.19246381D-11 -0.19673253D-02  0.33033619D-16
  0.21421573D-17  0.53689304D-12 -0.20314004D-12 -0.33375300D-12 -0.92074684D-04
 -0.79302593D-20  0.22991987D-18  0.77463444D-04  0.13970851D-03  0.20600012D-03
  0.16022575D-03  0.46215398D-02 -0.28056555D-04 -0.39004791D-03  0.58512678D-03
 -0.58587567D-17 -0.10213476D-03  0.19965753D-02  0.28122082D-17  0.10453218D-03
 -0.56902512D-03 -0.50049952D-17  0.65217079D-03 -0.13662192D-02  0.71404842D-03
  0.15264328D-02  0.22329856D-17 -0.14473554D-16  0.28185761D-04 -0.15215201D-03
  0.12396625D-03  0.22051523D-03  0.11038778D-17  0.75340187D-18 -0.77463444D-04
 -0.13970851D-03 -0.20600012D-03 -0.16022575D-03 -0.46215398D-02  0.28056555D-04
  0.39004791D-03  0.58512678D-03 -0.73305531D-17  0.10213475D-03  0.19965753D-02
  0.50106841D-17 -0.10453218D-03 -0.56902512D-03  0.27550080D-17 -0.65217079D-03
  0.13662192D-02 -0.71404842D-03  0.15264328D-02  0.12589513D-17  0.69677341D-17
 -0.28185761D-04  0.15215201D-03 -0.12396625D-03  0.22051523D-03  0.33942463D-18
  0.10317948D-17
MO    3     MO 0.0        OCC NO =    2.0000000  ORB. ENERGY =  -10.671393
  0.27047110D+00  0.50421963D+00  0.85222000D+00  0.12811658D+01  0.15740602D+01
  0.13295455D+01  0.50145564D+00 -0.24817320D-02 -0.23912268D-02 -0.44771310D-02
 -0.76226987D-02 -0.11791156D-01 -0.15528537D-01 -0.16135145D-01 -0.10253160D-01
  0.68714296D-02  0.26019611D-01  0.64480212D-02 -0.16004053D-02 -0.74607978D-03
 -0.69949722D-03 -0.49808369D-03  0.21093164D-11  0.19776182D-11  0.14081820D-11
  0.81578199D-17  0.76484747D-17  0.54461696D-17 -0.24577594D-02  0.20410746D-11
 -0.65366995D-17 -0.46867738D-02 -0.30670994D-11 -0.33154452D-17  0.77050495D-04
  0.26112376D-13 -0.89028422D-19  0.35122987D-02 -0.19429333D-03 -0.33180053D-02
 -0.51981027D-12 -0.21884893D-17  0.35637477D-17  0.14046674D-02 -0.14094233D-02
  0.47558800D-05  0.16561439D-11  0.38761912D-18 -0.19426402D-17 -0.89063417D-04
  0.92513004D-05  0.79812116D-04  0.13377506D-11  0.14468691D-18 -0.27239334D-18
  0.38290566D-03  0.14633346D-11  0.10460259D-17 -0.13374843D-02 -0.66288996D-11
 -0.22411989D-17  0.18876728D-03  0.22388959D-11 -0.89687878D-18  0.83289823D-18
 -0.42820633D-03  0.54303116D-12  0.30297571D-18  0.98802863D-03 -0.23471721D-11
 -0.11800182D-17  0.29659038D-03  0.71807863D-12  0.27109102D-18  0.80143454D-18
 -0.13378326D+00 -0.24940242D+00 -0.42153403D+00 -0.63370372D+00 -0.77857824D+00
 -0.65763379D+00 -0.24803527D+00  0.12275404D-02  0.11844670D-02  0.22176959D-02
  0.37758170D-02  0.58406148D-02  0.76918842D-02  0.79923604D-02  0.50787862D-02
 -0.34036844D-02 -0.12862029D-01 -0.32290726D-02  0.79853672D-03  0.49429096D-03
  0.46342920D-03  0.32998920D-03  0.69231777D-03  0.64909191D-03  0.46219211D-03
 -0.27626971D-17 -0.25902041D-17 -0.18443796D-17  0.84144073D-04  0.14718399D-02
  0.19179315D-17 -0.21716874D-02  0.14533429D-02  0.21532513D-17  0.30124336D-04
 -0.27095842D-04  0.63655439D-19 -0.27851563D-03 -0.13640929D-02  0.16426086D-02
  0.14719641D-02 -0.12147135D-17 -0.14370433D-17  0.10312536D-03 -0.10620829D-03
  0.30829361D-05  0.15167895D-02  0.29000589D-17 -0.62791210D-19 -0.21354885D-03
  0.25292759D-03 -0.39378741D-04  0.21400627D-03  0.64198190D-18 -0.42638835D-18
 -0.40813094D-03 -0.83811339D-03 -0.29801968D-18  0.44534812D-03  0.21823682D-02
  0.95420324D-18  0.77904471D-03  0.33197199D-03 -0.60144192D-19  0.17076296D-18
  0.98986679D-04 -0.27724199D-03 -0.13273218D-18 -0.60417665D-03  0.82662884D-03
  0.59608916D-18  0.30721662D-03  0.50971271D-05 -0.19789262D-18 -0.14847565D-17
 -0.13378327D+00 -0.24940242D+00 -0.42153403D+00 -0.63370373D+00 -0.77857825D+00
 -0.65763380D+00 -0.24803527D+00  0.12275404D-02  0.11844670D-02  0.22176959D-02
  0.37758170D-02  0.58406148D-02  0.76918842D-02  0.79923604D-02  0.50787863D-02
 -0.34036844D-02 -0.12862029D-01 -0.32290726D-02  0.79853672D-03  0.49429096D-03
  0.46342919D-03  0.32998919D-03 -0.69231777D-03 -0.64909192D-03 -0.46219211D-03
 -0.26334685D-17 -0.24690441D-17 -0.17581065D-17  0.84144066D-04 -0.14718399D-02
  0.16396934D-17 -0.21716874D-02 -0.14533429D-02 -0.88642731D-19  0.30124336D-04
  0.27095842D-04  0.41571050D-19 -0.27851564D-03 -0.13640930D-02  0.16426086D-02
 -0.14719641D-02 -0.11098354D-17 -0.17486784D-17  0.10312536D-03 -0.10620829D-03
  0.30829361D-05 -0.15167895D-02  0.37435265D-19  0.17533523D-17 -0.21354885D-03
  0.25292759D-03 -0.39378741D-04 -0.21400627D-03 -0.19676807D-18 -0.17126284D-18
 -0.40813094D-03  0.83811339D-03 -0.14526178D-18  0.44534813D-03 -0.21823682D-02
  0.11388640D-17  0.77904471D-03 -0.33197198D-03 -0.70307867D-18  0.13316378D-17
  0.98986680D-04  0.27724199D-03  0.14473252D-19 -0.60417666D-03 -0.82662883D-03
 -0.42611338D-18  0.30721662D-03 -0.50971258D-05  0.38269362D-18 -0.61235134D-18
  0.90043267D-04  0.16239674D-03  0.23945390D-03  0.18739636D-03  0.53372268D-02
 -0.32251735D-04  0.81440262D-03 -0.18553935D-12 -0.10413962D-17  0.20619552D-02
  0.41041053D-11  0.42680610D-17 -0.62830161D-03 -0.88645789D-12  0.89243279D-18
 -0.17668736D-02  0.93700128D-03  0.82987234D-03 -0.45102334D-11 -0.16245254D-17
 -0.12264634D-18 -0.23501065D-03  0.90752408D-04  0.14425824D-03 -0.19426374D-12
 -0.18195017D-17 -0.33765619D-19 -0.44166067D-04 -0.79655321D-04 -0.11745172D-03
 -0.86026172D-04 -0.26663434D-02  0.16314981D-04  0.13187798D-03 -0.38689714D-03
  0.21364667D-18  0.18758126D-02 -0.98637666D-04 -0.74311251D-18 -0.44855596D-03
  0.10539620D-03  0.38583790D-18  0.60739859D-03 -0.20066463D-03 -0.40673396D-03
 -0.20068821D-02  0.13303403D-17 -0.77102450D-19  0.29405050D-04  0.41135192D-04
 -0.70540242D-04 -0.17948663D-03 -0.18139118D-18  0.19439610D-18 -0.44166067D-04
 -0.79655322D-04 -0.11745173D-03 -0.86026172D-04 -0.26663435D-02  0.16314981D-04
  0.13187799D-03  0.38689714D-03 -0.31588454D-18  0.18758126D-02  0.98637675D-04
  0.48045091D-18 -0.44855596D-03 -0.10539621D-03 -0.43111643D-18  0.60739859D-03
 -0.20066462D-03 -0.40673397D-03  0.20068821D-02  0.14750628D-17 -0.65556945D-18
  0.29405050D-04  0.41135193D-04 -0.70540243D-04  0.17948663D-03 -0.39266430D-18
  0.13062050D-18
MO    4     MO 0.0        OCC NO =    2.0000000  ORB. ENERGY =   -1.265306
 -0.68805431D-02 -0.12826897D-01 -0.21679715D-01 -0.32591713D-01 -0.40042685D-01
 -0.33822449D-01 -0.12756583D-01  0.63133043D-04 -0.34523791D-01 -0.64639429D-01
 -0.11005416D+00 -0.17023705D+00 -0.22419621D+00 -0.23295422D+00 -0.14803195D+00
  0.99207570D-01  0.40976714D-01  0.10252911D-01 -0.10270308D-02 -0.21649998D+00
 -0.20298250D+00 -0.14453563D+00  0.32878806D-13  0.30825970D-13  0.21949927D-13
  0.61909413D-15  0.58044010D-15  0.41330793D-15 -0.33434809D-01 -0.26717115D-12
  0.11331445D-15 -0.14611986D-02 -0.19820670D-12  0.41639991D-16 -0.55510909D-04
 -0.25244113D-13  0.12509882D-17  0.33632704D-01 -0.11066631D-01 -0.22566073D-01
  0.16796860D-12 -0.25223506D-16  0.21806489D-16  0.35978350D-02 -0.13877934D-02
 -0.22100416D-02  0.99080161D-13 -0.31609680D-16 -0.14787614D-16 -0.30731731D-03
  0.15306353D-03  0.15425378D-03  0.69103721D-13 -0.97123573D-17 -0.73138388D-18
 -0.21138207D-02  0.26504130D-13 -0.30268065D-17 -0.30038155D-03 -0.11054206D-12
  0.15352489D-16  0.66418435D-02  0.31029671D-13 -0.62720698D-17 -0.75792984D-19
 -0.33795809D-03 -0.11039484D-13 -0.18080816D-17  0.96294042D-03  0.60520849D-13
  0.90273621D-17  0.50933842D-04 -0.27402398D-13 -0.36031174D-17  0.84331002D-17
 -0.68809839D-02 -0.12827719D-01 -0.21681104D-01 -0.32593801D-01 -0.40045251D-01
 -0.33824616D-01 -0.12757401D-01  0.63137088D-04 -0.34522932D-01 -0.64637822D-01
 -0.11005142D+00 -0.17023282D+00 -0.22419063D+00 -0.23294843D+00 -0.14802827D+00
  0.99205102D-01  0.40971780D-01  0.10266850D-01 -0.10186348D-02  0.10824462D+00
  0.10148622D+00  0.72264231D-01 -0.18749926D+00 -0.17579247D+00 -0.12517471D+00
  0.62920714D-16  0.58992169D-16  0.42005939D-16  0.16718136D-01 -0.28956612D-01
  0.16608741D-16  0.72590056D-03 -0.12574314D-02 -0.28994908D-16  0.28108624D-04
 -0.48569355D-04 -0.72044182D-18  0.10506188D-03  0.22453694D-01 -0.22558756D-01
 -0.38700532D-01  0.16084656D-16 -0.44175624D-16 -0.13837423D-03  0.23505216D-02
 -0.22121474D-02 -0.43190808D-02  0.82324029D-17  0.63423591D-17  0.38046065D-04
 -0.19213775D-03  0.15409169D-03  0.39860969D-03 -0.39228054D-17  0.63799822D-17
  0.37896969D-03 -0.14393830D-02 -0.33896699D-17  0.21872891D-02 -0.14376762D-02
  0.70149355D-17 -0.33241982D-02  0.57558251D-02  0.31540742D-17  0.36843536D-17
 -0.31832242D-03 -0.10942492D-04  0.25001669D-17  0.97957984D-03 -0.10044028D-04
  0.20888127D-17 -0.24612580D-04  0.42871505D-04 -0.95893134D-17  0.67709915D-17
 -0.68809839D-02 -0.12827719D-01 -0.21681104D-01 -0.32593801D-01 -0.40045251D-01
 -0.33824616D-01 -0.12757401D-01  0.63137088D-04 -0.34522932D-01 -0.64637822D-01
 -0.11005142D+00 -0.17023282D+00 -0.22419063D+00 -0.23294843D+00 -0.14802827D+00
  0.99205102D-01  0.40971780D-01  0.10266850D-01 -0.10186348D-02  0.10824462D+00
  0.10148622D+00  0.72264231D-01  0.18749926D+00  0.17579247D+00  0.12517471D+00
  0.73748500D-16  0.69143907D-16  0.49234581D-16  0.16718136D-01  0.28956612D-01
  0.30354906D-17  0.72590056D-03  0.12574314D-02 -0.10767527D-16  0.28108624D-04
  0.48569355D-04 -0.30145177D-18  0.10506188D-03  0.22453694D-01 -0.22558756D-01
  0.38700532D-01  0.32927037D-16  0.19173232D-16 -0.13837423D-03  0.23505216D-02
 -0.22121474D-02  0.43190808D-02 -0.20367293D-16 -0.86364069D-18  0.38046065D-04
 -0.19213775D-03  0.15409169D-03 -0.39860969D-03 -0.34231009D-17  0.13192154D-18
  0.37896969D-03  0.14393830D-02 -0.55993289D-17  0.21872891D-02  0.14376762D-02
  0.87328771D-17 -0.33241982D-02 -0.57558251D-02  0.80651095D-17 -0.13199932D-16
 -0.31832242D-03  0.10942492D-04  0.27322139D-17  0.97957984D-03  0.10044028D-04
 -0.60303584D-17 -0.24612580D-04 -0.42871505D-04 -0.21662833D-17 -0.82416148D-17
  0.41168527D-02  0.74249135D-02  0.10948031D-01 -0.71994774D-05  0.29580320D-03
  0.17096755D-03 -0.31389373D-02  0.55696893D-13  0.11187483D-16  0.57432794D-02
 -0.12051566D-12 -0.10266207D-16  0.99265844D-03 -0.60572839D-13  0.46968300D-17
 -0.38413102D-02  0.21782649D-02  0.16630454D-02 -0.18386567D-13 -0.62115005D-17
 -0.20536402D-18 -0.78481968D-03  0.17969500D-03  0.60512468D-03  0.22683879D-13
  0.22743750D-17 -0.14748441D-17  0.41164571D-02  0.74241998D-02  0.10946978D-01
 -0.14831449D-04  0.27967517D-03  0.17144200D-03  0.15674589D-02 -0.27178196D-02
 -0.81366405D-17 -0.28671508D-02  0.49738483D-02  0.22342917D-16 -0.49742384D-03
  0.86217749D-03 -0.28585712D-17  0.67425311D-03 -0.23352406D-02  0.16609875D-02
  0.52090742D-02  0.86226823D-17 -0.69480283D-17 -0.61285268D-04 -0.54383331D-03
  0.60511857D-03  0.83407607D-03  0.16850048D-17 -0.33255734D-17  0.41164571D-02
  0.74241998D-02  0.10946978D-01 -0.14831449D-04  0.27967517D-03  0.17144200D-03
  0.15674589D-02  0.27178196D-02  0.30809469D-17 -0.28671508D-02 -0.49738483D-02
  0.43830393D-17 -0.49742384D-03 -0.86217749D-03  0.57920994D-18  0.67425311D-03
 -0.23352406D-02  0.16609875D-02 -0.52090742D-02  0.61905195D-17  0.69725431D-17
 -0.61285268D-04 -0.54383331D-03  0.60511857D-03 -0.83407607D-03 -0.12557473D-17
  0.69269766D-18
MO    5     MO 0.0        OCC NO =    2.0000000  ORB. ENERGY =   -0.889658
 -0.39019279D-02 -0.72740808D-02 -0.12294478D-01 -0.18482628D-01 -0.22708044D-01
 -0.19180573D-01 -0.72342064D-02  0.35802491D-04 -0.42569508D-01 -0.79703551D-01
 -0.13570212D+00 -0.20991054D+00 -0.27644480D+00 -0.28724385D+00 -0.18253057D+00
  0.12232774D+00  0.51940058D-01  0.71302483D-01  0.11210533D-01  0.19003438D+00
  0.17816931D+00  0.12686716D+00 -0.79190347D-10 -0.74245984D-10 -0.52867563D-10
 -0.10083243D-14 -0.94536813D-15 -0.67315843D-15  0.40397457D-01 -0.17468550D-10
 -0.32066074D-15 -0.37092431D-02 -0.89871131D-12 -0.67645213D-16 -0.81087218D-03
  0.39460925D-13 -0.18421790D-17  0.11871253D-01 -0.15446028D-02 -0.10326650D-01
  0.12577537D-10  0.12496952D-15  0.19471488D-15  0.81461649D-02 -0.39654121D-02
 -0.41807528D-02  0.24677802D-11  0.31280827D-16  0.56704642D-18  0.12944726D-02
 -0.74036500D-03 -0.55410762D-03 -0.11776718D-12 -0.69192409D-17  0.34288719D-19
  0.17340756D-02  0.50425478D-12  0.23462188D-17 -0.73835162D-02 -0.23858926D-11
 -0.15396903D-16  0.21812895D-02  0.87312827D-12  0.83582469D-17 -0.35333464D-17
  0.43821831D-03  0.32061823D-14  0.40259524D-17 -0.53781743D-03 -0.11328561D-12
 -0.11286619D-16 -0.77683750D-03  0.10366707D-12 -0.79123794D-18 -0.21143266D-17
  0.19505754D-02  0.36363161D-02  0.61460148D-02  0.92394734D-02  0.11351761D-01
  0.95883766D-02  0.36163829D-02 -0.17897681D-04  0.21284797D-01  0.39851856D-01
  0.67851194D-01  0.10495548D+00  0.13822268D+00  0.14362221D+00  0.91265469D-01
 -0.61163995D-01 -0.25967851D-01 -0.35649396D-01 -0.56055894D-02  0.20903430D+00
  0.19598294D+00  0.13955153D+00  0.10958554D-01  0.10274341D-01  0.73159427D-02
 -0.30986770D-15 -0.29052067D-15 -0.20686802D-15  0.45773452D-01  0.31002256D-02