 Molden2AIM, Version 4.0.0 (06/02/2016)           Time: Mon Jul  2 23:38:01 2018
GAUSSIAN             18 MOL ORBITALS    456 PRIMITIVES        8 NUCLEI
  C    1    (CENTRE  1)   0.84068057  2.04248214  0.00000000  CHARGE =  6.0
  C    2    (CENTRE  2)  -1.64476093  1.41269311  0.00000000  CHARGE =  6.0
  O    3    (CENTRE  3)  -1.80480561 -1.15916178  0.00000000  CHARGE =  8.0
  C    4    (CENTRE  4)   0.62227736 -1.94511211  0.00000000  CHARGE =  6.0
  N    5    (CENTRE  5)   2.27813476 -0.14783516  0.00000000  CHARGE =  7.0
  H    6    (CENTRE  6)   1.69626541  3.90509069  0.00000000  CHARGE =  1.0
  H    7    (CENTRE  7)  -3.40541687  2.45561595  0.00000000  CHARGE =  1.0
  H    8    (CENTRE  8)   0.94368009 -3.96908627  0.00000000  CHARGE =  1.0
CENTRE ASSIGNMENTS    1  1  1  1  1  1  1  1  1  1  1  1  1  1  1  1  1  1  1  1
CENTRE ASSIGNMENTS    1  1  1  1  1  1  1  1  1  1  1  1  1  1  1  1  1  1  1  1
CENTRE ASSIGNMENTS    1  1  1  1  1  1  1  1  1  1  1  1  1  1  1  1  1  1  1  1
CENTRE ASSIGNMENTS    1  1  1  1  1  1  1  1  1  1  1  1  1  1  1  2  2  2  2  2
CENTRE ASSIGNMENTS    2  2  2  2  2  2  2  2  2  2  2  2  2  2  2  2  2  2  2  2
CENTRE ASSIGNMENTS    2  2  2  2  2  2  2  2  2  2  2  2  2  2  2  2  2  2  2  2
CENTRE ASSIGNMENTS    2  2  2  2  2  2  2  2  2  2  2  2  2  2  2  2  2  2  2  2
CENTRE ASSIGNMENTS    2  2  2  2  2  2  2  2  2  2  3  3  3  3  3  3  3  3  3  3
CENTRE ASSIGNMENTS    3  3  3  3  3  3  3  3  3  3  3  3  3  3  3  3  3  3  3  3
CENTRE ASSIGNMENTS    3  3  3  3  3  3  3  3  3  3  3  3  3  3  3  3  3  3  3  3
CENTRE ASSIGNMENTS    3  3  3  3  3  3  3  3  3  3  3  3  3  3  3  3  3  3  3  3
CENTRE ASSIGNMENTS    3  3  3  3  3  4  4  4  4  4  4  4  4  4  4  4  4  4  4  4
CENTRE ASSIGNMENTS    4  4  4  4  4  4  4  4  4  4  4  4  4  4  4  4  4  4  4  4
CENTRE ASSIGNMENTS    4  4  4  4  4  4  4  4  4  4  4  4  4  4  4  4  4  4  4  4
CENTRE ASSIGNMENTS    4  4  4  4  4  4  4  4  4  4  4  4  4  4  4  4  4  4  4  4
CENTRE ASSIGNMENTS    5  5  5  5  5  5  5  5  5  5  5  5  5  5  5  5  5  5  5  5
CENTRE ASSIGNMENTS    5  5  5  5  5  5  5  5  5  5  5  5  5  5  5  5  5  5  5  5
CENTRE ASSIGNMENTS    5  5  5  5  5  5  5  5  5  5  5  5  5  5  5  5  5  5  5  5
CENTRE ASSIGNMENTS    5  5  5  5  5  5  5  5  5  5  5  5  5  5  5  6  6  6  6  6
CENTRE ASSIGNMENTS    6  6  6  6  6  6  6  6  6  6  6  6  6  6  6  6  6  6  6  6
CENTRE ASSIGNMENTS    6  6  7  7  7  7  7  7  7  7  7  7  7  7  7  7  7  7  7  7
CENTRE ASSIGNMENTS    7  7  7  7  7  7  7  7  7  8  8  8  8  8  8  8  8  8  8  8
CENTRE ASSIGNMENTS    8  8  8  8  8  8  8  8  8  8  8  8  8  8  8  8
TYPE ASSIGNMENTS      1  1  1  1  1  1  1  1  1  1  1  1  1  1  1  1  1  1  1  2
TYPE ASSIGNMENTS      2  2  3  3  3  4  4  4  2  3  4  2  3  4  2  3  4  5  6  7
TYPE ASSIGNMENTS      8  9 10  5  6  7  8  9 10  5  6  7  8  9 10 11 12 13 17 14
TYPE ASSIGNMENTS     15 18 19 16 20 11 12 13 17 14 15 18 19 16 20  1  1  1  1  1
TYPE ASSIGNMENTS      1  1  1  1  1  1  1  1  1  1  1  1  1  1  2  2  2  3  3  3
TYPE ASSIGNMENTS      4  4  4  2  3  4  2  3  4  2  3  4  5  6  7  8  9 10  5  6
TYPE ASSIGNMENTS      7  8  9 10  5  6  7  8  9 10 11 12 13 17 14 15 18 19 16 20
TYPE ASSIGNMENTS     11 12 13 17 14 15 18 19 16 20  1  1  1  1  1  1  1  1  1  1
TYPE ASSIGNMENTS      1  1  1  1  1  1  1  1  1  2  2  2  3  3  3  4  4  4  2  3
TYPE ASSIGNMENTS      4  2  3  4  2  3  4  5  6  7  8  9 10  5  6  7  8  9 10  5
TYPE ASSIGNMENTS      6  7  8  9 10 11 12 13 17 14 15 18 19 16 20 11 12 13 17 14
TYPE ASSIGNMENTS     15 18 19 16 20  1  1  1  1  1  1  1  1  1  1  1  1  1  1  1
TYPE ASSIGNMENTS      1  1  1  1  2  2  2  3  3  3  4  4  4  2  3  4  2  3  4  2
TYPE ASSIGNMENTS      3  4  5  6  7  8  9 10  5  6  7  8  9 10  5  6  7  8  9 10
TYPE ASSIGNMENTS     11 12 13 17 14 15 18 19 16 20 11 12 13 17 14 15 18 19 16 20
TYPE ASSIGNMENTS      1  1  1  1  1  1  1  1  1  1  1  1  1  1  1  1  1  1  1  2
TYPE ASSIGNMENTS      2  2  3  3  3  4  4  4  2  3  4  2  3  4  2  3  4  5  6  7
TYPE ASSIGNMENTS      8  9 10  5  6  7  8  9 10  5  6  7  8  9 10 11 12 13 17 14
TYPE ASSIGNMENTS     15 18 19 16 20 11 12 13 17 14 15 18 19 16 20  1  1  1  1  1
TYPE ASSIGNMENTS      1  2  3  4  2  3  4  2  3  4  5  6  7  8  9 10  5  6  7  8
TYPE ASSIGNMENTS      9 10  1  1  1  1  1  1  2  3  4  2  3  4  2  3  4  5  6  7
TYPE ASSIGNMENTS      8  9 10  5  6  7  8  9 10  1  1  1  1  1  1  2  3  4  2  3
TYPE ASSIGNMENTS      4  2  3  4  5  6  7  8  9 10  5  6  7  8  9 10
EXPONENTS  0.8236000D+04 0.1235000D+04 0.2808000D+03 0.7927000D+02 0.2559000D+02
EXPONENTS  0.8997000D+01 0.3319000D+01 0.3643000D+00 0.8236000D+04 0.1235000D+04
EXPONENTS  0.2808000D+03 0.7927000D+02 0.2559000D+02 0.8997000D+01 0.3319000D+01
EXPONENTS  0.3643000D+00 0.9059000D+00 0.1285000D+00 0.4402000D-01 0.1871000D+02
EXPONENTS  0.4133000D+01 0.1200000D+01 0.1871000D+02 0.4133000D+01 0.1200000D+01
EXPONENTS  0.1871000D+02 0.4133000D+01 0.1200000D+01 0.3827000D+00 0.3827000D+00
EXPONENTS  0.3827000D+00 0.1209000D+00 0.1209000D+00 0.1209000D+00 0.3569000D-01
EXPONENTS  0.3569000D-01 0.3569000D-01 0.1097000D+01 0.1097000D+01 0.1097000D+01
EXPONENTS  0.1097000D+01 0.1097000D+01 0.1097000D+01 0.3180000D+00 0.3180000D+00
EXPONENTS  0.3180000D+00 0.3180000D+00 0.3180000D+00 0.3180000D+00 0.1000000D+00
EXPONENTS  0.1000000D+00 0.1000000D+00 0.1000000D+00 0.1000000D+00 0.1000000D+00
EXPONENTS  0.7610000D+00 0.7610000D+00 0.7610000D+00 0.7610000D+00 0.7610000D+00
EXPONENTS  0.7610000D+00 0.7610000D+00 0.7610000D+00 0.7610000D+00 0.7610000D+00
EXPONENTS  0.2680000D+00 0.2680000D+00 0.2680000D+00 0.2680000D+00 0.2680000D+00
EXPONENTS  0.2680000D+00 0.2680000D+00 0.2680000D+00 0.2680000D+00 0.2680000D+00
EXPONENTS  0.8236000D+04 0.1235000D+04 0.2808000D+03 0.7927000D+02 0.2559000D+02
EXPONENTS  0.8997000D+01 0.3319000D+01 0.3643000D+00 0.8236000D+04 0.1235000D+04
EXPONENTS  0.2808000D+03 0.7927000D+02 0.2559000D+02 0.8997000D+01 0.3319000D+01
EXPONENTS  0.3643000D+00 0.9059000D+00 0.1285000D+00 0.4402000D-01 0.1871000D+02
EXPONENTS  0.4133000D+01 0.1200000D+01 0.1871000D+02 0.4133000D+01 0.1200000D+01
EXPONENTS  0.1871000D+02 0.4133000D+01 0.1200000D+01 0.3827000D+00 0.3827000D+00
EXPONENTS  0.3827000D+00 0.1209000D+00 0.1209000D+00 0.1209000D+00 0.3569000D-01
EXPONENTS  0.3569000D-01 0.3569000D-01 0.1097000D+01 0.1097000D+01 0.1097000D+01
EXPONENTS  0.1097000D+01 0.1097000D+01 0.1097000D+01 0.3180000D+00 0.3180000D+00
EXPONENTS  0.3180000D+00 0.3180000D+00 0.3180000D+00 0.3180000D+00 0.1000000D+00
EXPONENTS  0.1000000D+00 0.1000000D+00 0.1000000D+00 0.1000000D+00 0.1000000D+00
EXPONENTS  0.7610000D+00 0.7610000D+00 0.7610000D+00 0.7610000D+00 0.7610000D+00
EXPONENTS  0.7610000D+00 0.7610000D+00 0.7610000D+00 0.7610000D+00 0.7610000D+00
EXPONENTS  0.2680000D+00 0.2680000D+00 0.2680000D+00 0.2680000D+00 0.2680000D+00
EXPONENTS  0.2680000D+00 0.2680000D+00 0.2680000D+00 0.2680000D+00 0.2680000D+00
EXPONENTS  0.1533000D+05 0.2299000D+04 0.5224000D+03 0.1473000D+03 0.4755000D+02
EXPONENTS  0.1676000D+02 0.6207000D+01 0.6882000D+00 0.1533000D+05 0.2299000D+04
EXPONENTS  0.5224000D+03 0.1473000D+03 0.4755000D+02 0.1676000D+02 0.6207000D+01
EXPONENTS  0.6882000D+00 0.1752000D+01 0.2384000D+00 0.7376000D-01 0.3446000D+02
EXPONENTS  0.7749000D+01 0.2280000D+01 0.3446000D+02 0.7749000D+01 0.2280000D+01
EXPONENTS  0.3446000D+02 0.7749000D+01 0.2280000D+01 0.7156000D+00 0.7156000D+00
EXPONENTS  0.7156000D+00 0.2140000D+00 0.2140000D+00 0.2140000D+00 0.5974000D-01
EXPONENTS  0.5974000D-01 0.5974000D-01 0.2314000D+01 0.2314000D+01 0.2314000D+01
EXPONENTS  0.2314000D+01 0.2314000D+01 0.2314000D+01 0.6450000D+00 0.6450000D+00
EXPONENTS  0.6450000D+00 0.6450000D+00 0.6450000D+00 0.6450000D+00 0.2140000D+00
EXPONENTS  0.2140000D+00 0.2140000D+00 0.2140000D+00 0.2140000D+00 0.2140000D+00
EXPONENTS  0.1428000D+01 0.1428000D+01 0.1428000D+01 0.1428000D+01 0.1428000D+01
EXPONENTS  0.1428000D+01 0.1428000D+01 0.1428000D+01 0.1428000D+01 0.1428000D+01
EXPONENTS  0.5000000D+00 0.5000000D+00 0.5000000D+00 0.5000000D+00 0.5000000D+00
EXPONENTS  0.5000000D+00 0.5000000D+00 0.5000000D+00 0.5000000D+00 0.5000000D+00
EXPONENTS  0.8236000D+04 0.1235000D+04 0.2808000D+03 0.7927000D+02 0.2559000D+02
EXPONENTS  0.8997000D+01 0.3319000D+01 0.3643000D+00 0.8236000D+04 0.1235000D+04
EXPONENTS  0.2808000D+03 0.7927000D+02 0.2559000D+02 0.8997000D+01 0.3319000D+01
EXPONENTS  0.3643000D+00 0.9059000D+00 0.1285000D+00 0.4402000D-01 0.1871000D+02
EXPONENTS  0.4133000D+01 0.1200000D+01 0.1871000D+02 0.4133000D+01 0.1200000D+01
EXPONENTS  0.1871000D+02 0.4133000D+01 0.1200000D+01 0.3827000D+00 0.3827000D+00
EXPONENTS  0.3827000D+00 0.1209000D+00 0.1209000D+00 0.1209000D+00 0.3569000D-01
EXPONENTS  0.3569000D-01 0.3569000D-01 0.1097000D+01 0.1097000D+01 0.1097000D+01
EXPONENTS  0.1097000D+01 0.1097000D+01 0.1097000D+01 0.3180000D+00 0.3180000D+00
EXPONENTS  0.3180000D+00 0.3180000D+00 0.3180000D+00 0.3180000D+00 0.1000000D+00
EXPONENTS  0.1000000D+00 0.1000000D+00 0.1000000D+00 0.1000000D+00 0.1000000D+00
EXPONENTS  0.7610000D+00 0.7610000D+00 0.7610000D+00 0.7610000D+00 0.7610000D+00
EXPONENTS  0.7610000D+00 0.7610000D+00 0.7610000D+00 0.7610000D+00 0.7610000D+00
EXPONENTS  0.2680000D+00 0.2680000D+00 0.2680000D+00 0.2680000D+00 0.2680000D+00
EXPONENTS  0.2680000D+00 0.2680000D+00 0.2680000D+00 0.2680000D+00 0.2680000D+00
EXPONENTS  0.1142000D+05 0.1712000D+04 0.3893000D+03 0.1100000D+03 0.3557000D+02
EXPONENTS  0.1254000D+02 0.4644000D+01 0.5118000D+00 0.1142000D+05 0.1712000D+04
EXPONENTS  0.3893000D+03 0.1100000D+03 0.3557000D+02 0.1254000D+02 0.4644000D+01
EXPONENTS  0.5118000D+00 0.1293000D+01 0.1787000D+00 0.5760000D-01 0.2663000D+02
EXPONENTS  0.5948000D+01 0.1742000D+01 0.2663000D+02 0.5948000D+01 0.1742000D+01
EXPONENTS  0.2663000D+02 0.5948000D+01 0.1742000D+01 0.5550000D+00 0.5550000D+00
EXPONENTS  0.5550000D+00 0.1725000D+00 0.1725000D+00 0.1725000D+00 0.4910000D-01
EXPONENTS  0.4910000D-01 0.4910000D-01 0.1654000D+01 0.1654000D+01 0.1654000D+01
EXPONENTS  0.1654000D+01 0.1654000D+01 0.1654000D+01 0.4690000D+00 0.4690000D+00
EXPONENTS  0.4690000D+00 0.4690000D+00 0.4690000D+00 0.4690000D+00 0.1510000D+00
EXPONENTS  0.1510000D+00 0.1510000D+00 0.1510000D+00 0.1510000D+00 0.1510000D+00
EXPONENTS  0.1093000D+01 0.1093000D+01 0.1093000D+01 0.1093000D+01 0.1093000D+01
EXPONENTS  0.1093000D+01 0.1093000D+01 0.1093000D+01 0.1093000D+01 0.1093000D+01
EXPONENTS  0.3640000D+00 0.3640000D+00 0.3640000D+00 0.3640000D+00 0.3640000D+00
EXPONENTS  0.3640000D+00 0.3640000D+00 0.3640000D+00 0.3640000D+00 0.3640000D+00
EXPONENTS  0.3387000D+02 0.5095000D+01 0.1159000D+01 0.3258000D+00 0.1027000D+00
EXPONENTS  0.2526000D-01 0.1407000D+01 0.1407000D+01 0.1407000D+01 0.3880000D+00
EXPONENTS  0.3880000D+00 0.3880000D+00 0.1020000D+00 0.1020000D+00 0.1020000D+00
EXPONENTS  0.1057000D+01 0.1057000D+01 0.1057000D+01 0.1057000D+01 0.1057000D+01
EXPONENTS  0.1057000D+01 0.2470000D+00 0.2470000D+00 0.2470000D+00 0.2470000D+00
EXPONENTS  0.2470000D+00 0.2470000D+00 0.3387000D+02 0.5095000D+01 0.1159000D+01
EXPONENTS  0.3258000D+00 0.1027000D+00 0.2526000D-01 0.1407000D+01 0.1407000D+01
EXPONENTS  0.1407000D+01 0.3880000D+00 0.3880000D+00 0.3880000D+00 0.1020000D+00
EXPONENTS  0.1020000D+00 0.1020000D+00 0.1057000D+01 0.1057000D+01 0.1057000D+01
EXPONENTS  0.1057000D+01 0.1057000D+01 0.1057000D+01 0.2470000D+00 0.2470000D+00
EXPONENTS  0.2470000D+00 0.2470000D+00 0.2470000D+00 0.2470000D+00 0.3387000D+02
EXPONENTS  0.5095000D+01 0.1159000D+01 0.3258000D+00 0.1027000D+00 0.2526000D-01
EXPONENTS  0.1407000D+01 0.1407000D+01 0.1407000D+01 0.3880000D+00 0.3880000D+00
EXPONENTS  0.3880000D+00 0.1020000D+00 0.1020000D+00 0.1020000D+00 0.1057000D+01
EXPONENTS  0.1057000D+01 0.1057000D+01 0.1057000D+01 0.1057000D+01 0.1057000D+01
EXPONENTS  0.2470000D+00 0.2470000D+00 0.2470000D+00 0.2470000D+00 0.2470000D+00
EXPONENTS  0.2470000D+00
MO    1     MO 0.0        OCC NO =    2.0000000  ORB. ENERGY =  -19.448929
  0.78589619D-05  0.14650892D-04  0.24762588D-04  0.37226281D-04  0.45736788D-04
  0.38632029D-04  0.14570580D-04 -0.72110613D-07 -0.66034911D-05 -0.12363819D-04
 -0.21050460D-04 -0.32561860D-04 -0.42882824D-04 -0.44558001D-04 -0.28314610D-04
  0.18975793D-04  0.58328065D-04 -0.48253925D-02 -0.89840211D-03  0.16550703D-03
  0.15517336D-03  0.11049267D-03 -0.18772794D-03 -0.17600688D-03 -0.12532738D-03
 -0.14415449D-15 -0.13515400D-15 -0.96237699D-16 -0.89510488D-03  0.72533473D-03
 -0.35558157D-16  0.61218825D-03  0.88624876D-03 -0.24181239D-17  0.63923725D-04
  0.50107633D-04 -0.54725435D-19  0.10444616D-04  0.17582911D-04 -0.28027527D-04
  0.20010729D-03 -0.10937401D-17 -0.10109897D-17  0.16133389D-03 -0.26744139D-03
  0.10610750D-03  0.42236298D-03  0.19633422D-17  0.36057959D-18  0.30822910D-04
 -0.52148223D-04  0.21325313D-04 -0.17492140D-03  0.37297276D-18  0.25359678D-18
 -0.12357773D-03 -0.56998159D-04  0.90085212D-18  0.36472593D-03  0.48743109D-03
 -0.20527051D-17  0.60072471D-05 -0.31643661D-03 -0.64985129D-18  0.14459804D-18
  0.14017930D-04  0.58416067D-05  0.32227230D-18 -0.43258451D-04 -0.11335741D-03
 -0.24901791D-18  0.12046610D-05  0.95832585D-04 -0.71779898D-18 -0.21995148D-17
  0.29983807D-03  0.55896633D-03  0.94475158D-03  0.14202711D-02  0.17449671D-02
  0.14739037D-02  0.55590224D-03 -0.27511912D-05 -0.21972416D-03 -0.41139296D-03
 -0.70043171D-03 -0.10834614D-02 -0.14268805D-02 -0.14826202D-02 -0.94213860D-03
  0.63139938D-03  0.10585347D-04  0.29173115D-02  0.95943456D-03 -0.64068692D-04
 -0.60068472D-04 -0.42772330D-04  0.30611733D-03  0.28700445D-03  0.20436427D-03
 -0.22730793D-17 -0.21311563D-17 -0.15175102D-17 -0.47194490D-04 -0.23395255D-02
  0.15045012D-17  0.13947998D-02 -0.60857699D-03  0.15481854D-17  0.73933760D-04
 -0.16650232D-04  0.51525721D-19 -0.60156813D-03  0.98844117D-03 -0.38687304D-03
  0.32385869D-03 -0.20568603D-17  0.64198712D-19 -0.43861239D-03  0.50170656D-03
 -0.63094163D-04  0.19644895D-03  0.41116121D-17 -0.54745337D-18  0.12923151D-03
 -0.98868956D-04 -0.30362558D-04 -0.72240070D-04  0.82722286D-18 -0.28194352D-18
  0.75405011D-04 -0.56362646D-04 -0.38522011D-19 -0.13567212D-03 -0.27854846D-03
  0.56339485D-18 -0.90542913D-04  0.44763640D-03 -0.44782882D-18  0.24156222D-17
 -0.25884967D-04  0.25545540D-04 -0.24470919D-18  0.99186212D-04 -0.68657641D-04
  0.80447353D-18 -0.21531312D-04 -0.79789782D-05 -0.70345966D-19 -0.67946457D-18
  0.49781455D+00  0.92786226D+00  0.15733470D+01  0.23813339D+01  0.29712094D+01
  0.25518727D+01  0.97971353D+00 -0.43823187D-02 -0.21003307D-03 -0.39392223D-03
 -0.67155104D-03 -0.10495036D-02 -0.14033862D-02 -0.14984893D-02 -0.91614699D-03
  0.60441814D-03  0.52347109D-01 -0.23547666D-02 -0.49794549D-03  0.71152866D-02
  0.68994346D-02  0.46543178D-02  0.49715971D-02  0.48207768D-02  0.32520676D-02
  0.35940800D-16  0.34850486D-16  0.23509932D-16 -0.12289714D-02 -0.96194494D-03
 -0.51686601D-17 -0.14614954D-02 -0.15662756D-02 -0.57707640D-20 -0.40103382D-04
 -0.35540733D-04 -0.31513494D-20  0.95844831D-03  0.92136039D-03 -0.18798087D-02
 -0.21598605D-03  0.26663039D-17 -0.54069161D-17 -0.40793305D-03 -0.65006400D-03
  0.10579970D-02  0.48047341D-03 -0.17295332D-17  0.53302234D-18 -0.10895406D-03
 -0.16266521D-03  0.27161927D-03 -0.21871998D-03 -0.43308578D-18  0.53545354D-18
  0.73698214D-04  0.50830525D-04  0.20602474D-18 -0.61853049D-04  0.44991363D-05
  0.58458684D-18 -0.15924159D-03 -0.15699071D-03 -0.12026611D-17 -0.28004165D-17
 -0.17028120D-03 -0.30334486D-03  0.17260811D-18  0.68908174D-04  0.59019181D-03
 -0.69153469D-18  0.44193543D-03  0.31984278D-03  0.17371035D-18  0.11930522D-17
  0.28663087D-03  0.53434511D-03  0.90313736D-03  0.13577113D-02  0.16681052D-02
  0.14089815D-02  0.53141598D-03 -0.26300074D-05 -0.21204294D-03 -0.39701130D-03
 -0.67594570D-03 -0.10455852D-02 -0.13769989D-02 -0.14307901D-02 -0.90920289D-03
  0.60932663D-03  0.74897979D-04 -0.57540184D-03 -0.51531270D-04  0.17615182D-03
  0.16515352D-03  0.11759915D-03 -0.15776409D-03 -0.14791386D-03 -0.10532348D-03
 -0.69830892D-19 -0.65470900D-19 -0.46619181D-19 -0.23153577D-02  0.62464809D-03
 -0.44850829D-18  0.12054352D-03  0.52135213D-03 -0.24531821D-18  0.59850080D-05
  0.70936545D-05 -0.35632604D-21  0.93233892D-03 -0.50940146D-03 -0.42293746D-03
 -0.86991480D-03 -0.28751953D-18 -0.77810295D-18  0.78734595D-04 -0.94627274D-04
  0.15892679D-04 -0.68906587D-03 -0.17866481D-17 -0.19315368D-18 -0.31508750D-04
  0.21817371D-04  0.96913784D-05  0.88562519D-04  0.12509778D-18 -0.49139141D-18
 -0.12713628D-03  0.14689156D-03 -0.26145721D-18  0.16391288D-04 -0.33296327D-03
  0.95155910D-18  0.36501754D-03 -0.10771142D-03 -0.16718746D-18 -0.27069757D-17
  0.63472474D-04  0.73210721D-04  0.41523658D-19 -0.15514869D-03 -0.12283123D-03
  0.38555281D-18 -0.35268733D-04 -0.96800934D-04 -0.51012379D-18  0.98013281D-19
  0.23995167D-04  0.44711461D-04  0.75618290D-04  0.11387695D-03  0.14098706D-03
  0.11997362D-03  0.45652177D-04 -0.21380862D-06 -0.14592071D-04 -0.27360269D-04
 -0.46547958D-04 -0.72284064D-04 -0.95925158D-04 -0.10109195D-03 -0.62683457D-04
  0.41697060D-04 -0.13442718D-03  0.17512012D-02  0.14615106D-03  0.45713091D-04
  0.43906877D-04  0.30790533D-04  0.89102961D-04  0.85582329D-04  0.60016236D-04
 -0.62665983D-18 -0.60189928D-18 -0.42209332D-18 -0.30374371D-03 -0.37290545D-03
 -0.15996805D-18 -0.10868511D-02  0.46784974D-03  0.12016171D-17 -0.30350271D-04
 -0.20703302D-04  0.35379603D-19  0.24201337D-03 -0.31495718D-03  0.72943811D-04
  0.37221021D-03  0.24735257D-17  0.30075683D-17 -0.26443683D-03  0.46777020D-03
 -0.20333337D-03 -0.93693773D-04 -0.20728654D-17 -0.10359237D-17  0.69054983D-04
  0.10823599D-04 -0.79878582D-04 -0.14633671D-03 -0.46826610D-18  0.27320875D-19
  0.17725942D-03 -0.78977345D-04  0.66390589D-18 -0.33080346D-03  0.17425894D-03
 -0.15060623D-17 -0.20097480D-03  0.62673099D-04 -0.48565539D-18  0.27702493D-17
  0.91222959D-04  0.26604755D-04 -0.33535725D-18 -0.32092136D-03  0.84178700D-05
  0.87713867D-18  0.47252488D-04 -0.88232135D-04  0.12893307D-18  0.14656055D-18
 -0.12567185D-04 -0.22665436D-04 -0.33420172D-04  0.25014097D-03  0.47546942D-03
 -0.75015412D-04  0.33269669D-04  0.16467282D-03 -0.32350827D-17 -0.10184428D-03
  0.35785536D-04  0.40727067D-17 -0.78400489D-05 -0.13657813D-04 -0.32765875D-19
  0.15937006D-03 -0.16715998D-03  0.77899220D-05 -0.53288099D-06 -0.64699315D-19
 -0.22649110D-17  0.22795407D-04 -0.21251738D-04 -0.15436691D-05  0.10172740D-04
 -0.17085689D-18 -0.70998254D-18  0.26740956D-04  0.48228415D-04  0.71112770D-04
  0.91635617D-03  0.44201096D-03  0.70692864D-04  0.29406922D-03 -0.15532086D-03
 -0.39028996D-18  0.34433079D-03 -0.20149698D-03  0.79720708D-18  0.20322029D-03
  0.23192866D-04  0.95812656D-18  0.15891622D-03 -0.16480590D-03  0.58896853D-05
 -0.25609638D-03  0.32335305D-18  0.13157035D-17  0.39307528D-05 -0.44829482D-05
  0.55219541D-06 -0.23323122D-04  0.38849221D-18 -0.42125542D-18  0.28874031D-04
  0.52075503D-04  0.76785299D-04  0.92239788D-03  0.66836282D-03  0.44192415D-05
 -0.26554109D-04  0.31703502D-03 -0.58729600D-18 -0.69475348D-04  0.23334684D-03
  0.99137910D-18  0.46633649D-04  0.12659253D-03 -0.64517113D-18 -0.15310946D-03
  0.15422406D-03 -0.11146012D-05  0.34717549D-04 -0.16432602D-18  0.84255171D-19
 -0.10661155D-04  0.34354668D-05  0.72256885D-05  0.13219222D-05 -0.27946846D-19
  0.65117665D-19
MO    2     MO 0.0        OCC NO =    2.0000000  ORB. ENERGY =  -14.515889
  0.27005903D-03  0.50345144D-03  0.85092162D-03  0.12792139D-02  0.15716621D-02
  0.13275199D-02  0.50069166D-03 -0.24779510D-05 -0.20456592D-03 -0.38301195D-03
 -0.65211062D-03 -0.10087160D-02 -0.13284434D-02 -0.13803378D-02 -0.87714273D-03
  0.58784066D-03  0.37314846D-03 -0.12977263D-02 -0.28252960D-03  0.26292260D-03
  0.24650665D-03  0.17552742D-03 -0.13912804D-04 -0.13044138D-04 -0.92882031D-05
  0.60935417D-16  0.57130827D-16  0.40680552D-16  0.13910645D-02 -0.14994319D-02
  0.46963896D-18 -0.13491337D-02 -0.76469455D-03  0.19752480D-17 -0.16804953D-04
 -0.58808136D-05  0.37123639D-19  0.39410351D-04  0.33057380D-03 -0.36998415D-03
 -0.14907342D-02  0.11454316D-18  0.12041738D-17 -0.92611025D-03  0.80071910D-03
  0.12539116D-03  0.15746978D-02 -0.57821263D-18 -0.99704056D-18  0.12961550D-03
 -0.13472247D-03  0.51069709D-05  0.28613707D-03 -0.10495196D-18 -0.30238124D-18
  0.34384855D-03 -0.61531499D-05 -0.12696193D-18 -0.11796445D-02 -0.55378905D-04
  0.61215507D-18  0.14809885D-03  0.73838354D-04 -0.23126928D-18  0.55386710D-19
  0.18158358D-03 -0.57381487D-04 -0.84351306D-19 -0.67844894D-03  0.13534199D-03
  0.22258593D-18  0.13369820D-03  0.36802473D-04  0.30467986D-19  0.11500275D-18
  0.57477245D-04  0.10715065D-03  0.18110348D-03  0.27225785D-03  0.33450023D-03
  0.28253892D-03  0.10656328D-03 -0.52738764D-06 -0.43532439D-04 -0.81506462D-04
 -0.13877172D-03 -0.21465876D-03 -0.28269803D-03 -0.29374136D-03 -0.18665945D-03
  0.12509482D-03  0.34034453D-03 -0.32313012D-02  0.56331196D-03 -0.13019046D-04
 -0.12206183D-04 -0.86915297D-05 -0.29620096D-03 -0.27770723D-03 -0.19774409D-03
  0.12529739D-17  0.11747427D-17  0.83648678D-18  0.14223257D-02  0.12431763D-02
 -0.77454322D-19 -0.57602828D-03  0.37610117D-03 -0.70945509D-18 -0.44440301D-05
 -0.24765176D-04  0.12125731D-21  0.25159520D-03 -0.34976165D-03  0.98166454D-04
 -0.37727525D-03  0.77799805D-18 -0.17834117D-18 -0.42819413D-03  0.85163066D-04
  0.34303106D-03  0.27762723D-02 -0.17556704D-17  0.71908423D-18  0.26410913D-04
 -0.50923200D-05 -0.21318592D-04  0.15294791D-03 -0.53936933D-18  0.23947149D-18
 -0.23101286D-03 -0.89573115D-04  0.59843455D-19  0.58567392D-03  0.61745208D-03
  0.13440758D-18  0.10736467D-03 -0.34873273D-03 -0.31393795D-18 -0.98259484D-18
  0.86572341D-04 -0.13097371D-03  0.11961777D-19 -0.25200597D-03  0.36203615D-03
 -0.93307411D-19 -0.77110568D-05  0.30884982D-04  0.57422081D-19 -0.11350295D-18
  0.29952164D-04  0.55826979D-04  0.94664059D-04  0.14327846D-03  0.17876969D-03
  0.15353932D-03  0.58946731D-04 -0.26367234D-06 -0.17346310D-04 -0.32533434D-04
 -0.55462373D-04 -0.86676893D-04 -0.11590352D-03 -0.12375794D-03 -0.75663177D-04
  0.49917969D-04 -0.10855198D-03  0.53497866D-03 -0.25335686D-03 -0.13138161D-03
 -0.12739597D-03 -0.85940568D-04  0.42036388D-03  0.40761156D-03  0.27497235D-03
 -0.19327234D-19 -0.18740915D-19 -0.12642511D-19  0.43439706D-03 -0.76572559D-03
 -0.95474593D-19  0.44475318D-03 -0.11422776D-02  0.75659893D-18  0.10692872D-03
 -0.22054142D-03 -0.44172403D-19  0.10795238D-02 -0.10107587D-02 -0.68765123D-04
  0.32293356D-03  0.31130276D-18  0.13131980D-17 -0.53386474D-03  0.61469108D-03
 -0.80826339D-04 -0.49688044D-03 -0.73862435D-19 -0.47050111D-18 -0.28979427D-04
  0.31822275D-04 -0.28428479D-05 -0.27539949D-03  0.18995965D-18  0.31157772D-18
 -0.88013571D-05 -0.16995744D-04  0.81896671D-19  0.18491135D-03 -0.56571618D-03
 -0.12749234D-17 -0.15850728D-03  0.61670341D-03  0.10292334D-17  0.89441936D-18
 -0.13544863D-03  0.22525211D-03 -0.19646409D-19  0.26113769D-03 -0.33553210D-03
  0.22169574D-18  0.14520819D-03 -0.34022422D-03 -0.16275651D-18 -0.27233282D-18
  0.27619602D-03  0.51489218D-03  0.87025850D-03  0.13082836D-02  0.16073775D-02
  0.13576873D-02  0.51206969D-03 -0.25342615D-05 -0.21649487D-03 -0.40534671D-03
 -0.69013746D-03 -0.10675377D-02 -0.14059096D-02 -0.14608301D-02 -0.92829197D-03
  0.62211969D-03  0.13282068D-02 -0.18000634D-02 -0.51399983D-03  0.95223654D-03
  0.89278228D-03  0.63571417D-03  0.72328164D-03  0.67812251D-03  0.48286363D-03
 -0.57484786D-18 -0.53895641D-18 -0.38376907D-18 -0.34240982D-03 -0.38041577D-03
  0.48512483D-18 -0.20355985D-03  0.92208873D-03  0.49796125D-18  0.33006231D-04
  0.71970372D-05  0.15014702D-19  0.32989282D-04 -0.46400316D-05 -0.28349250D-04
  0.23310286D-03 -0.27308879D-18 -0.20678644D-18 -0.30791772D-03 -0.30680259D-03
  0.61472032D-03 -0.19292979D-02  0.53243461D-18 -0.53170028D-18  0.14894844D-04
 -0.48639588D-04  0.33744744D-04 -0.29528180D-03 -0.62428313D-19  0.24460278D-19
  0.39852213D-03  0.24040246D-03  0.18136767D-18 -0.20713423D-02 -0.13074018D-02
 -0.84968284D-20  0.87577594D-03  0.58619438D-03 -0.53560618D-18 -0.59511508D-18
  0.33687257D-03  0.68960044D-04 -0.11541446D-18 -0.11575052D-02 -0.16267350D-03
 -0.11445992D-18  0.14688746D-03 -0.44206631D-04  0.46070330D-18 -0.46906414D-20
  0.41270793D+00  0.76902046D+00  0.13006064D+01  0.19586412D+01  0.24249248D+01
  0.20635016D+01  0.78520041D+00 -0.36774285D-02 -0.14902493D-02 -0.27942313D-02
 -0.47538189D-02 -0.73821788D-02 -0.97965806D-02 -0.10324251D-01 -0.64016944D-02
  0.42584096D-02  0.40734730D-01  0.21066198D-02  0.63202389D-04 -0.64206705D-02
 -0.61669772D-02 -0.43247101D-02  0.89823228D-03  0.86274136D-03  0.60501380D-03
 -0.20578491D-17 -0.19765395D-17 -0.13860859D-17 -0.13306431D-02 -0.15333712D-02
  0.10369649D-17  0.79672302D-03  0.10500826D-02 -0.14695745D-17  0.14435657D-04
  0.28902405D-04 -0.61289317D-19  0.17847087D-02  0.14142276D-02 -0.31989363D-02
  0.97609430D-03  0.28106599D-17  0.19237635D-18 -0.60301543D-03 -0.19743773D-03
  0.80045316D-03  0.13230725D-02  0.23251589D-18 -0.38163259D-18 -0.83848007D-04
 -0.10465977D-03  0.18850778D-03 -0.14543784D-03  0.29257834D-18 -0.26154395D-18
  0.26491074D-03  0.80866962D-04 -0.68365167D-18 -0.11189074D-02 -0.78065156D-03
  0.76745327D-18  0.32417521D-03  0.53805068D-03  0.12835017D-17 -0.27302484D-17
  0.40158279D-04  0.11505236D-03  0.13699142D-18  0.30734098D-03 -0.27178672D-03
 -0.15002077D-18 -0.42781582D-03 -0.73370353D-04 -0.26095348D-18  0.25234710D-18
  0.59350670D-04  0.10704138D-03  0.15783245D-03  0.37599306D-03  0.14895694D-02
  0.34462396D-04 -0.27923058D-03 -0.54442086D-03  0.85028434D-18  0.37654890D-03
  0.44751215D-03  0.21444976D-20 -0.34700823D-03 -0.85068871D-04  0.14413589D-19
 -0.10522507D-03  0.30207539D-04  0.75017526D-04  0.16678312D-03 -0.19320558D-18
  0.29394925D-18  0.48287670D-06 -0.73056292D-04  0.72573415D-04  0.10565727D-04
 -0.32361910D-19  0.23443303D-19 -0.29012488D-04 -0.52325217D-04 -0.77153502D-04
  0.18444021D-02  0.20191590D-03 -0.21467532D-04 -0.11729280D-03  0.21251739D-03
  0.70953713D-18  0.10973802D-02 -0.76802567D-03 -0.14195685D-17  0.85037282D-04
  0.19218544D-04 -0.77336379D-18  0.19581923D-03 -0.85610893D-04 -0.11020834D-03
  0.12570248D-04 -0.55827835D-18  0.32634345D-18  0.34621509D-04  0.21126702D-04
 -0.55748211D-04 -0.37389377D-04 -0.45880110D-18  0.35347863D-18  0.95463899D-04
  0.17217307D-03  0.25386910D-03  0.16057116D-02  0.13525147D-02  0.23472167D-04
 -0.20774491D-03  0.65769519D-03  0.69631777D-18  0.99430295D-03  0.12179315D-04
 -0.16356343D-17 -0.24667707D-03  0.13371043D-03 -0.47834965D-19 -0.33964810D-03
  0.84573007D-04  0.25507509D-03  0.51516623D-03 -0.32039353D-18 -0.43861013D-18
 -0.13190790D-04 -0.75858785D-04  0.89049574D-04  0.14588019D-04  0.97064159D-19
 -0.27990117D-18
MO    3     MO 0.0        OCC NO =    2.0000000  ORB. ENERGY =  -10.427992
 -0.12782634D-03 -0.23829737D-03 -0.40276453D-03 -0.60548702D-03 -0.74391076D-03
 -0.62835156D-03 -0.23699109D-03  0.11728821D-05  0.72460524D-04  0.13566896D-03
  0.23098802D-03  0.35730334D-03  0.47055593D-03  0.48893776D-03  0.31069800D-03
 -0.20822257D-03  0.79597752D-04 -0.57247389D-03  0.10467136D-03  0.93758422D-05
  0.87904480D-05  0.62593227D-05 -0.10299087D-03 -0.96560486D-04 -0.68756818D-04
  0.20449692D-15  0.19172886D-15  0.13652237D-15 -0.14680140D-03  0.74066444D-03
 -0.37546594D-16 -0.16042742D-02 -0.21063037D-03  0.35413467D-16 -0.12007145D-04
  0.34619402D-04 -0.42542923D-17 -0.73780879D-05 -0.16907592D-03  0.17645401D-03
  0.51408978D-04  0.64979240D-17 -0.32753699D-15  0.66389874D-03 -0.78672090D-03
  0.12282216D-03 -0.73453106D-03  0.69446515D-18 -0.20179814D-16  0.27831096D-03
 -0.23507880D-03 -0.43232163D-04  0.62337428D-03 -0.10070460D-17 -0.98384433D-18
  0.96932767D-04  0.15398814D-03 -0.23644959D-18 -0.16066478D-03 -0.51371970D-03
 -0.31726667D-17 -0.13013353D-03  0.51755288D-04  0.38820154D-17  0.68400946D-17
 -0.12658157D-03  0.90803739D-04 -0.97891885D-18  0.31946462D-03 -0.25753876D-03
  0.88610120D-18  0.60280103D-04 -0.14872456D-04  0.20506554D-17  0.77709588D-19
 -0.34407602D-03 -0.64143593D-03 -0.10841397D-02 -0.16298171D-02 -0.20024186D-02
 -0.16913627D-02 -0.63791976D-03  0.31571005D-05  0.16260077D-03  0.30443995D-03
  0.51833507D-03  0.80178553D-03  0.10559233D-02  0.10971720D-02  0.69720355D-03
 -0.46724960D-03 -0.21754542D-03 -0.80717331D-02 -0.13013941D-03  0.13348059D-03
  0.12514654D-03  0.89111793D-04 -0.16576298D-03 -0.15541333D-03 -0.11066355D-03
  0.53192136D-17  0.49871009D-17  0.35511129D-17 -0.18435398D-02  0.13235882D-02
 -0.60295210D-17 -0.90375342D-03  0.12606815D-02 -0.99500570D-17 -0.33982312D-04
 -0.19069017D-04 -0.37168498D-18  0.13382515D-03 -0.10979696D-03 -0.24028195D-04
  0.45514980D-03  0.48038146D-17 -0.37753064D-17  0.39962157D-03 -0.42327627D-03
  0.23654700D-04 -0.47816366D-03 -0.74772082D-18  0.38467431D-17  0.37175584D-04
 -0.68947718D-04  0.31772134D-04  0.51184088D-03 -0.19023400D-17  0.37969063D-18
  0.16753875D-03 -0.15409438D-04 -0.14694744D-17 -0.67626136D-03  0.12388489D-03
  0.49885163D-17  0.17364512D-03 -0.77656572D-04 -0.58009312D-18  0.67990591D-17
 -0.43667873D-04  0.60006006D-04  0.67292068D-18  0.29234276D-03 -0.29800704D-03
 -0.19118979D-17 -0.16133914D-03  0.11798902D-03 -0.10686418D-18  0.95652601D-18
  0.35932959D-03  0.66974412D-03  0.11356641D-02  0.17188805D-02  0.21446611D-02
  0.18419778D-02  0.70717110D-03 -0.31632197D-05 -0.29778163D-03 -0.55849682D-03
 -0.95211465D-03 -0.14879699D-02 -0.19896992D-02 -0.21245349D-02 -0.12988990D-02
  0.85693465D-03  0.47349015D-03  0.19629409D-02 -0.55878824D-03  0.13391982D-02
  0.12985717D-02  0.87600883D-03 -0.32568171D-03 -0.31580170D-03 -0.21303796D-03
 -0.21477794D-17 -0.20826236D-17 -0.14049256D-17  0.13234662D-03 -0.28306218D-03
  0.96705717D-18 -0.11278138D-02  0.32003088D-02  0.11185904D-17  0.10713115D-03
 -0.19030805D-03  0.16819179D-18  0.12489261D-02 -0.64624297D-03 -0.60268317D-03