 Molden2AIM, Version 4.0.0 (06/02/2016)           Time: Tue Jul  3 01:24:39 2018
GAUSSIAN             25 MOL ORBITALS    687 PRIMITIVES       13 NUCLEI
  C    1    (CENTRE  1)  -0.00183870  1.77731766  0.00000000  CHARGE =  6.0
  C    2    (CENTRE  2)  -2.27733352  0.43975628  0.00000000  CHARGE =  6.0
  C    3    (CENTRE  3)  -2.24331467 -2.19494146  0.00000000  CHARGE =  6.0
  C    4    (CENTRE  4)   0.04121871 -3.50464261  0.00000000  CHARGE =  6.0
  C    5    (CENTRE  5)   2.30390685 -2.14814806  0.00000000  CHARGE =  6.0
  C    6    (CENTRE  6)   2.29712651  0.48166473  0.00000000  CHARGE =  6.0
  O    7    (CENTRE  7)   0.09330901  4.35159896  0.00000000  CHARGE =  8.0
  H    8    (CENTRE  8)  -1.59891428  5.01626477  0.00000000  CHARGE =  1.0
  H    9    (CENTRE  9)  -4.07365804  1.45747206  0.00000000  CHARGE =  1.0
  H   10    (CENTRE 10)  -4.02756384 -3.22719113  0.00000000  CHARGE =  1.0
  H   11    (CENTRE 11)   0.06030872 -5.56390929  0.00000000  CHARGE =  1.0
  H   12    (CENTRE 12)   4.10500860 -3.15092934  0.00000000  CHARGE =  1.0
  H   13    (CENTRE 13)   4.05027646  1.56183785  0.00000000  CHARGE =  1.0
CENTRE ASSIGNMENTS    1  1  1  1  1  1  1  1  1  1  1  1  1  1  1  1  1  1  1  1
CENTRE ASSIGNMENTS    1  1  1  1  1  1  1  1  1  1  1  1  1  1  1  1  1  1  1  1
CENTRE ASSIGNMENTS    1  1  1  1  1  1  1  1  1  1  1  1  1  1  1  1  1  1  1  1
CENTRE ASSIGNMENTS    1  1  1  1  1  1  1  1  1  1  1  1  1  1  1  2  2  2  2  2
CENTRE ASSIGNMENTS    2  2  2  2  2  2  2  2  2  2  2  2  2  2  2  2  2  2  2  2
CENTRE ASSIGNMENTS    2  2  2  2  2  2  2  2  2  2  2  2  2  2  2  2  2  2  2  2
CENTRE ASSIGNMENTS    2  2  2  2  2  2  2  2  2  2  2  2  2  2  2  2  2  2  2  2
CENTRE ASSIGNMENTS    2  2  2  2  2  2  2  2  2  2  3  3  3  3  3  3  3  3  3  3
CENTRE ASSIGNMENTS    3  3  3  3  3  3  3  3  3  3  3  3  3  3  3  3  3  3  3  3
CENTRE ASSIGNMENTS    3  3  3  3  3  3  3  3  3  3  3  3  3  3  3  3  3  3  3  3
CENTRE ASSIGNMENTS    3  3  3  3  3  3  3  3  3  3  3  3  3  3  3  3  3  3  3  3
CENTRE ASSIGNMENTS    3  3  3  3  3  4  4  4  4  4  4  4  4  4  4  4  4  4  4  4
CENTRE ASSIGNMENTS    4  4  4  4  4  4  4  4  4  4  4  4  4  4  4  4  4  4  4  4
CENTRE ASSIGNMENTS    4  4  4  4  4  4  4  4  4  4  4  4  4  4  4  4  4  4  4  4
CENTRE ASSIGNMENTS    4  4  4  4  4  4  4  4  4  4  4  4  4  4  4  4  4  4  4  4
CENTRE ASSIGNMENTS    5  5  5  5  5  5  5  5  5  5  5  5  5  5  5  5  5  5  5  5
CENTRE ASSIGNMENTS    5  5  5  5  5  5  5  5  5  5  5  5  5  5  5  5  5  5  5  5
CENTRE ASSIGNMENTS    5  5  5  5  5  5  5  5  5  5  5  5  5  5  5  5  5  5  5  5
CENTRE ASSIGNMENTS    5  5  5  5  5  5  5  5  5  5  5  5  5  5  5  6  6  6  6  6
CENTRE ASSIGNMENTS    6  6  6  6  6  6  6  6  6  6  6  6  6  6  6  6  6  6  6  6
CENTRE ASSIGNMENTS    6  6  6  6  6  6  6  6  6  6  6  6  6  6  6  6  6  6  6  6
CENTRE ASSIGNMENTS    6  6  6  6  6  6  6  6  6  6  6  6  6  6  6  6  6  6  6  6
CENTRE ASSIGNMENTS    6  6  6  6  6  6  6  6  6  6  7  7  7  7  7  7  7  7  7  7
CENTRE ASSIGNMENTS    7  7  7  7  7  7  7  7  7  7  7  7  7  7  7  7  7  7  7  7
CENTRE ASSIGNMENTS    7  7  7  7  7  7  7  7  7  7  7  7  7  7  7  7  7  7  7  7
CENTRE ASSIGNMENTS    7  7  7  7  7  7  7  7  7  7  7  7  7  7  7  7  7  7  7  7
CENTRE ASSIGNMENTS    7  7  7  7  7  8  8  8  8  8  8  8  8  8  8  8  8  8  8  8
CENTRE ASSIGNMENTS    8  8  8  8  8  8  8  8  8  8  8  8  9  9  9  9  9  9  9  9
CENTRE ASSIGNMENTS    9  9  9  9  9  9  9  9  9  9  9  9  9  9  9  9  9  9  9 10
CENTRE ASSIGNMENTS   10 10 10 10 10 10 10 10 10 10 10 10 10 10 10 10 10 10 10 10
CENTRE ASSIGNMENTS   10 10 10 10 10 10 11 11 11 11 11 11 11 11 11 11 11 11 11 11
CENTRE ASSIGNMENTS   11 11 11 11 11 11 11 11 11 11 11 11 11 12 12 12 12 12 12 12
CENTRE ASSIGNMENTS   12 12 12 12 12 12 12 12 12 12 12 12 12 12 12 12 12 12 12 12
CENTRE ASSIGNMENTS   13 13 13 13 13 13 13 13 13 13 13 13 13 13 13 13 13 13 13 13
CENTRE ASSIGNMENTS   13 13 13 13 13 13 13
TYPE ASSIGNMENTS      1  1  1  1  1  1  1  1  1  1  1  1  1  1  1  1  1  1  1  2
TYPE ASSIGNMENTS      2  2  3  3  3  4  4  4  2  3  4  2  3  4  2  3  4  5  6  7
TYPE ASSIGNMENTS      8  9 10  5  6  7  8  9 10  5  6  7  8  9 10 11 12 13 17 14
TYPE ASSIGNMENTS     15 18 19 16 20 11 12 13 17 14 15 18 19 16 20  1  1  1  1  1
TYPE ASSIGNMENTS      1  1  1  1  1  1  1  1  1  1  1  1  1  1  2  2  2  3  3  3
TYPE ASSIGNMENTS      4  4  4  2  3  4  2  3  4  2  3  4  5  6  7  8  9 10  5  6
TYPE ASSIGNMENTS      7  8  9 10  5  6  7  8  9 10 11 12 13 17 14 15 18 19 16 20
TYPE ASSIGNMENTS     11 12 13 17 14 15 18 19 16 20  1  1  1  1  1  1  1  1  1  1
TYPE ASSIGNMENTS      1  1  1  1  1  1  1  1  1  2  2  2  3  3  3  4  4  4  2  3
TYPE ASSIGNMENTS      4  2  3  4  2  3  4  5  6  7  8  9 10  5  6  7  8  9 10  5
TYPE ASSIGNMENTS      6  7  8  9 10 11 12 13 17 14 15 18 19 16 20 11 12 13 17 14
TYPE ASSIGNMENTS     15 18 19 16 20  1  1  1  1  1  1  1  1  1  1  1  1  1  1  1
TYPE ASSIGNMENTS      1  1  1  1  2  2  2  3  3  3  4  4  4  2  3  4  2  3  4  2
TYPE ASSIGNMENTS      3  4  5  6  7  8  9 10  5  6  7  8  9 10  5  6  7  8  9 10
TYPE ASSIGNMENTS     11 12 13 17 14 15 18 19 16 20 11 12 13 17 14 15 18 19 16 20
TYPE ASSIGNMENTS      1  1  1  1  1  1  1  1  1  1  1  1  1  1  1  1  1  1  1  2
TYPE ASSIGNMENTS      2  2  3  3  3  4  4  4  2  3  4  2  3  4  2  3  4  5  6  7
TYPE ASSIGNMENTS      8  9 10  5  6  7  8  9 10  5  6  7  8  9 10 11 12 13 17 14
TYPE ASSIGNMENTS     15 18 19 16 20 11 12 13 17 14 15 18 19 16 20  1  1  1  1  1
TYPE ASSIGNMENTS      1  1  1  1  1  1  1  1  1  1  1  1  1  1  2  2  2  3  3  3
TYPE ASSIGNMENTS      4  4  4  2  3  4  2  3  4  2  3  4  5  6  7  8  9 10  5  6
TYPE ASSIGNMENTS      7  8  9 10  5  6  7  8  9 10 11 12 13 17 14 15 18 19 16 20
TYPE ASSIGNMENTS     11 12 13 17 14 15 18 19 16 20  1  1  1  1  1  1  1  1  1  1
TYPE ASSIGNMENTS      1  1  1  1  1  1  1  1  1  2  2  2  3  3  3  4  4  4  2  3
TYPE ASSIGNMENTS      4  2  3  4  2  3  4  5  6  7  8  9 10  5  6  7  8  9 10  5
TYPE ASSIGNMENTS      6  7  8  9 10 11 12 13 17 14 15 18 19 16 20 11 12 13 17 14
TYPE ASSIGNMENTS     15 18 19 16 20  1  1  1  1  1  1  2  3  4  2  3  4  2  3  4
TYPE ASSIGNMENTS      5  6  7  8  9 10  5  6  7  8  9 10  1  1  1  1  1  1  2  3
TYPE ASSIGNMENTS      4  2  3  4  2  3  4  5  6  7  8  9 10  5  6  7  8  9 10  1
TYPE ASSIGNMENTS      1  1  1  1  1  2  3  4  2  3  4  2  3  4  5  6  7  8  9 10
TYPE ASSIGNMENTS      5  6  7  8  9 10  1  1  1  1  1  1  2  3  4  2  3  4  2  3
TYPE ASSIGNMENTS      4  5  6  7  8  9 10  5  6  7  8  9 10  1  1  1  1  1  1  2
TYPE ASSIGNMENTS      3  4  2  3  4  2  3  4  5  6  7  8  9 10  5  6  7  8  9 10
TYPE ASSIGNMENTS      1  1  1  1  1  1  2  3  4  2  3  4  2  3  4  5  6  7  8  9
TYPE ASSIGNMENTS     10  5  6  7  8  9 10
EXPONENTS  0.8236000D+04 0.1235000D+04 0.2808000D+03 0.7927000D+02 0.2559000D+02
EXPONENTS  0.8997000D+01 0.3319000D+01 0.3643000D+00 0.8236000D+04 0.1235000D+04
EXPONENTS  0.2808000D+03 0.7927000D+02 0.2559000D+02 0.8997000D+01 0.3319000D+01
EXPONENTS  0.3643000D+00 0.9059000D+00 0.1285000D+00 0.4402000D-01 0.1871000D+02
EXPONENTS  0.4133000D+01 0.1200000D+01 0.1871000D+02 0.4133000D+01 0.1200000D+01
EXPONENTS  0.1871000D+02 0.4133000D+01 0.1200000D+01 0.3827000D+00 0.3827000D+00
EXPONENTS  0.3827000D+00 0.1209000D+00 0.1209000D+00 0.1209000D+00 0.3569000D-01
EXPONENTS  0.3569000D-01 0.3569000D-01 0.1097000D+01 0.1097000D+01 0.1097000D+01
EXPONENTS  0.1097000D+01 0.1097000D+01 0.1097000D+01 0.3180000D+00 0.3180000D+00
EXPONENTS  0.3180000D+00 0.3180000D+00 0.3180000D+00 0.3180000D+00 0.1000000D+00
EXPONENTS  0.1000000D+00 0.1000000D+00 0.1000000D+00 0.1000000D+00 0.1000000D+00
EXPONENTS  0.7610000D+00 0.7610000D+00 0.7610000D+00 0.7610000D+00 0.7610000D+00
EXPONENTS  0.7610000D+00 0.7610000D+00 0.7610000D+00 0.7610000D+00 0.7610000D+00
EXPONENTS  0.2680000D+00 0.2680000D+00 0.2680000D+00 0.2680000D+00 0.2680000D+00
EXPONENTS  0.2680000D+00 0.2680000D+00 0.2680000D+00 0.2680000D+00 0.2680000D+00
EXPONENTS  0.8236000D+04 0.1235000D+04 0.2808000D+03 0.7927000D+02 0.2559000D+02
EXPONENTS  0.8997000D+01 0.3319000D+01 0.3643000D+00 0.8236000D+04 0.1235000D+04
EXPONENTS  0.2808000D+03 0.7927000D+02 0.2559000D+02 0.8997000D+01 0.3319000D+01
EXPONENTS  0.3643000D+00 0.9059000D+00 0.1285000D+00 0.4402000D-01 0.1871000D+02
EXPONENTS  0.4133000D+01 0.1200000D+01 0.1871000D+02 0.4133000D+01 0.1200000D+01
EXPONENTS  0.1871000D+02 0.4133000D+01 0.1200000D+01 0.3827000D+00 0.3827000D+00
EXPONENTS  0.3827000D+00 0.1209000D+00 0.1209000D+00 0.1209000D+00 0.3569000D-01
EXPONENTS  0.3569000D-01 0.3569000D-01 0.1097000D+01 0.1097000D+01 0.1097000D+01
EXPONENTS  0.1097000D+01 0.1097000D+01 0.1097000D+01 0.3180000D+00 0.3180000D+00
EXPONENTS  0.3180000D+00 0.3180000D+00 0.3180000D+00 0.3180000D+00 0.1000000D+00
EXPONENTS  0.1000000D+00 0.1000000D+00 0.1000000D+00 0.1000000D+00 0.1000000D+00
EXPONENTS  0.7610000D+00 0.7610000D+00 0.7610000D+00 0.7610000D+00 0.7610000D+00
EXPONENTS  0.7610000D+00 0.7610000D+00 0.7610000D+00 0.7610000D+00 0.7610000D+00
EXPONENTS  0.2680000D+00 0.2680000D+00 0.2680000D+00 0.2680000D+00 0.2680000D+00
EXPONENTS  0.2680000D+00 0.2680000D+00 0.2680000D+00 0.2680000D+00 0.2680000D+00
EXPONENTS  0.8236000D+04 0.1235000D+04 0.2808000D+03 0.7927000D+02 0.2559000D+02
EXPONENTS  0.8997000D+01 0.3319000D+01 0.3643000D+00 0.8236000D+04 0.1235000D+04
EXPONENTS  0.2808000D+03 0.7927000D+02 0.2559000D+02 0.8997000D+01 0.3319000D+01
EXPONENTS  0.3643000D+00 0.9059000D+00 0.1285000D+00 0.4402000D-01 0.1871000D+02
EXPONENTS  0.4133000D+01 0.1200000D+01 0.1871000D+02 0.4133000D+01 0.1200000D+01
EXPONENTS  0.1871000D+02 0.4133000D+01 0.1200000D+01 0.3827000D+00 0.3827000D+00
EXPONENTS  0.3827000D+00 0.1209000D+00 0.1209000D+00 0.1209000D+00 0.3569000D-01
EXPONENTS  0.3569000D-01 0.3569000D-01 0.1097000D+01 0.1097000D+01 0.1097000D+01
EXPONENTS  0.1097000D+01 0.1097000D+01 0.1097000D+01 0.3180000D+00 0.3180000D+00
EXPONENTS  0.3180000D+00 0.3180000D+00 0.3180000D+00 0.3180000D+00 0.1000000D+00
EXPONENTS  0.1000000D+00 0.1000000D+00 0.1000000D+00 0.1000000D+00 0.1000000D+00
EXPONENTS  0.7610000D+00 0.7610000D+00 0.7610000D+00 0.7610000D+00 0.7610000D+00
EXPONENTS  0.7610000D+00 0.7610000D+00 0.7610000D+00 0.7610000D+00 0.7610000D+00
EXPONENTS  0.2680000D+00 0.2680000D+00 0.2680000D+00 0.2680000D+00 0.2680000D+00
EXPONENTS  0.2680000D+00 0.2680000D+00 0.2680000D+00 0.2680000D+00 0.2680000D+00
EXPONENTS  0.8236000D+04 0.1235000D+04 0.2808000D+03 0.7927000D+02 0.2559000D+02
EXPONENTS  0.8997000D+01 0.3319000D+01 0.3643000D+00 0.8236000D+04 0.1235000D+04
EXPONENTS  0.2808000D+03 0.7927000D+02 0.2559000D+02 0.8997000D+01 0.3319000D+01
EXPONENTS  0.3643000D+00 0.9059000D+00 0.1285000D+00 0.4402000D-01 0.1871000D+02
EXPONENTS  0.4133000D+01 0.1200000D+01 0.1871000D+02 0.4133000D+01 0.1200000D+01
EXPONENTS  0.1871000D+02 0.4133000D+01 0.1200000D+01 0.3827000D+00 0.3827000D+00
EXPONENTS  0.3827000D+00 0.1209000D+00 0.1209000D+00 0.1209000D+00 0.3569000D-01
EXPONENTS  0.3569000D-01 0.3569000D-01 0.1097000D+01 0.1097000D+01 0.1097000D+01
EXPONENTS  0.1097000D+01 0.1097000D+01 0.1097000D+01 0.3180000D+00 0.3180000D+00
EXPONENTS  0.3180000D+00 0.3180000D+00 0.3180000D+00 0.3180000D+00 0.1000000D+00
EXPONENTS  0.1000000D+00 0.1000000D+00 0.1000000D+00 0.1000000D+00 0.1000000D+00
EXPONENTS  0.7610000D+00 0.7610000D+00 0.7610000D+00 0.7610000D+00 0.7610000D+00
EXPONENTS  0.7610000D+00 0.7610000D+00 0.7610000D+00 0.7610000D+00 0.7610000D+00
EXPONENTS  0.2680000D+00 0.2680000D+00 0.2680000D+00 0.2680000D+00 0.2680000D+00
EXPONENTS  0.2680000D+00 0.2680000D+00 0.2680000D+00 0.2680000D+00 0.2680000D+00
EXPONENTS  0.8236000D+04 0.1235000D+04 0.2808000D+03 0.7927000D+02 0.2559000D+02
EXPONENTS  0.8997000D+01 0.3319000D+01 0.3643000D+00 0.8236000D+04 0.1235000D+04
EXPONENTS  0.2808000D+03 0.7927000D+02 0.2559000D+02 0.8997000D+01 0.3319000D+01
EXPONENTS  0.3643000D+00 0.9059000D+00 0.1285000D+00 0.4402000D-01 0.1871000D+02
EXPONENTS  0.4133000D+01 0.1200000D+01 0.1871000D+02 0.4133000D+01 0.1200000D+01
EXPONENTS  0.1871000D+02 0.4133000D+01 0.1200000D+01 0.3827000D+00 0.3827000D+00
EXPONENTS  0.3827000D+00 0.1209000D+00 0.1209000D+00 0.1209000D+00 0.3569000D-01
EXPONENTS  0.3569000D-01 0.3569000D-01 0.1097000D+01 0.1097000D+01 0.1097000D+01
EXPONENTS  0.1097000D+01 0.1097000D+01 0.1097000D+01 0.3180000D+00 0.3180000D+00
EXPONENTS  0.3180000D+00 0.3180000D+00 0.3180000D+00 0.3180000D+00 0.1000000D+00
EXPONENTS  0.1000000D+00 0.1000000D+00 0.1000000D+00 0.1000000D+00 0.1000000D+00
EXPONENTS  0.7610000D+00 0.7610000D+00 0.7610000D+00 0.7610000D+00 0.7610000D+00
EXPONENTS  0.7610000D+00 0.7610000D+00 0.7610000D+00 0.7610000D+00 0.7610000D+00
EXPONENTS  0.2680000D+00 0.2680000D+00 0.2680000D+00 0.2680000D+00 0.2680000D+00
EXPONENTS  0.2680000D+00 0.2680000D+00 0.2680000D+00 0.2680000D+00 0.2680000D+00
EXPONENTS  0.8236000D+04 0.1235000D+04 0.2808000D+03 0.7927000D+02 0.2559000D+02
EXPONENTS  0.8997000D+01 0.3319000D+01 0.3643000D+00 0.8236000D+04 0.1235000D+04
EXPONENTS  0.2808000D+03 0.7927000D+02 0.2559000D+02 0.8997000D+01 0.3319000D+01
EXPONENTS  0.3643000D+00 0.9059000D+00 0.1285000D+00 0.4402000D-01 0.1871000D+02
EXPONENTS  0.4133000D+01 0.1200000D+01 0.1871000D+02 0.4133000D+01 0.1200000D+01
EXPONENTS  0.1871000D+02 0.4133000D+01 0.1200000D+01 0.3827000D+00 0.3827000D+00
EXPONENTS  0.3827000D+00 0.1209000D+00 0.1209000D+00 0.1209000D+00 0.3569000D-01
EXPONENTS  0.3569000D-01 0.3569000D-01 0.1097000D+01 0.1097000D+01 0.1097000D+01
EXPONENTS  0.1097000D+01 0.1097000D+01 0.1097000D+01 0.3180000D+00 0.3180000D+00
EXPONENTS  0.3180000D+00 0.3180000D+00 0.3180000D+00 0.3180000D+00 0.1000000D+00
EXPONENTS  0.1000000D+00 0.1000000D+00 0.1000000D+00 0.1000000D+00 0.1000000D+00
EXPONENTS  0.7610000D+00 0.7610000D+00 0.7610000D+00 0.7610000D+00 0.7610000D+00
EXPONENTS  0.7610000D+00 0.7610000D+00 0.7610000D+00 0.7610000D+00 0.7610000D+00
EXPONENTS  0.2680000D+00 0.2680000D+00 0.2680000D+00 0.2680000D+00 0.2680000D+00
EXPONENTS  0.2680000D+00 0.2680000D+00 0.2680000D+00 0.2680000D+00 0.2680000D+00
EXPONENTS  0.1533000D+05 0.2299000D+04 0.5224000D+03 0.1473000D+03 0.4755000D+02
EXPONENTS  0.1676000D+02 0.6207000D+01 0.6882000D+00 0.1533000D+05 0.2299000D+04
EXPONENTS  0.5224000D+03 0.1473000D+03 0.4755000D+02 0.1676000D+02 0.6207000D+01
EXPONENTS  0.6882000D+00 0.1752000D+01 0.2384000D+00 0.7376000D-01 0.3446000D+02
EXPONENTS  0.7749000D+01 0.2280000D+01 0.3446000D+02 0.7749000D+01 0.2280000D+01
EXPONENTS  0.3446000D+02 0.7749000D+01 0.2280000D+01 0.7156000D+00 0.7156000D+00
EXPONENTS  0.7156000D+00 0.2140000D+00 0.2140000D+00 0.2140000D+00 0.5974000D-01
EXPONENTS  0.5974000D-01 0.5974000D-01 0.2314000D+01 0.2314000D+01 0.2314000D+01
EXPONENTS  0.2314000D+01 0.2314000D+01 0.2314000D+01 0.6450000D+00 0.6450000D+00
EXPONENTS  0.6450000D+00 0.6450000D+00 0.6450000D+00 0.6450000D+00 0.2140000D+00
EXPONENTS  0.2140000D+00 0.2140000D+00 0.2140000D+00 0.2140000D+00 0.2140000D+00
EXPONENTS  0.1428000D+01 0.1428000D+01 0.1428000D+01 0.1428000D+01 0.1428000D+01
EXPONENTS  0.1428000D+01 0.1428000D+01 0.1428000D+01 0.1428000D+01 0.1428000D+01
EXPONENTS  0.5000000D+00 0.5000000D+00 0.5000000D+00 0.5000000D+00 0.5000000D+00
EXPONENTS  0.5000000D+00 0.5000000D+00 0.5000000D+00 0.5000000D+00 0.5000000D+00
EXPONENTS  0.3387000D+02 0.5095000D+01 0.1159000D+01 0.3258000D+00 0.1027000D+00
EXPONENTS  0.2526000D-01 0.1407000D+01 0.1407000D+01 0.1407000D+01 0.3880000D+00
EXPONENTS  0.3880000D+00 0.3880000D+00 0.1020000D+00 0.1020000D+00 0.1020000D+00
EXPONENTS  0.1057000D+01 0.1057000D+01 0.1057000D+01 0.1057000D+01 0.1057000D+01
EXPONENTS  0.1057000D+01 0.2470000D+00 0.2470000D+00 0.2470000D+00 0.2470000D+00
EXPONENTS  0.2470000D+00 0.2470000D+00 0.3387000D+02 0.5095000D+01 0.1159000D+01
EXPONENTS  0.3258000D+00 0.1027000D+00 0.2526000D-01 0.1407000D+01 0.1407000D+01
EXPONENTS  0.1407000D+01 0.3880000D+00 0.3880000D+00 0.3880000D+00 0.1020000D+00
EXPONENTS  0.1020000D+00 0.1020000D+00 0.1057000D+01 0.1057000D+01 0.1057000D+01
EXPONENTS  0.1057000D+01 0.1057000D+01 0.1057000D+01 0.2470000D+00 0.2470000D+00
EXPONENTS  0.2470000D+00 0.2470000D+00 0.2470000D+00 0.2470000D+00 0.3387000D+02
EXPONENTS  0.5095000D+01 0.1159000D+01 0.3258000D+00 0.1027000D+00 0.2526000D-01
EXPONENTS  0.1407000D+01 0.1407000D+01 0.1407000D+01 0.3880000D+00 0.3880000D+00
EXPONENTS  0.3880000D+00 0.1020000D+00 0.1020000D+00 0.1020000D+00 0.1057000D+01
EXPONENTS  0.1057000D+01 0.1057000D+01 0.1057000D+01 0.1057000D+01 0.1057000D+01
EXPONENTS  0.2470000D+00 0.2470000D+00 0.2470000D+00 0.2470000D+00 0.2470000D+00
EXPONENTS  0.2470000D+00 0.3387000D+02 0.5095000D+01 0.1159000D+01 0.3258000D+00
EXPONENTS  0.1027000D+00 0.2526000D-01 0.1407000D+01 0.1407000D+01 0.1407000D+01
EXPONENTS  0.3880000D+00 0.3880000D+00 0.3880000D+00 0.1020000D+00 0.1020000D+00
EXPONENTS  0.1020000D+00 0.1057000D+01 0.1057000D+01 0.1057000D+01 0.1057000D+01
EXPONENTS  0.1057000D+01 0.1057000D+01 0.2470000D+00 0.2470000D+00 0.2470000D+00
EXPONENTS  0.2470000D+00 0.2470000D+00 0.2470000D+00 0.3387000D+02 0.5095000D+01
EXPONENTS  0.1159000D+01 0.3258000D+00 0.1027000D+00 0.2526000D-01 0.1407000D+01
EXPONENTS  0.1407000D+01 0.1407000D+01 0.3880000D+00 0.3880000D+00 0.3880000D+00
EXPONENTS  0.1020000D+00 0.1020000D+00 0.1020000D+00 0.1057000D+01 0.1057000D+01
EXPONENTS  0.1057000D+01 0.1057000D+01 0.1057000D+01 0.1057000D+01 0.2470000D+00
EXPONENTS  0.2470000D+00 0.2470000D+00 0.2470000D+00 0.2470000D+00 0.2470000D+00
EXPONENTS  0.3387000D+02 0.5095000D+01 0.1159000D+01 0.3258000D+00 0.1027000D+00
EXPONENTS  0.2526000D-01 0.1407000D+01 0.1407000D+01 0.1407000D+01 0.3880000D+00
EXPONENTS  0.3880000D+00 0.3880000D+00 0.1020000D+00 0.1020000D+00 0.1020000D+00
EXPONENTS  0.1057000D+01 0.1057000D+01 0.1057000D+01 0.1057000D+01 0.1057000D+01
EXPONENTS  0.1057000D+01 0.2470000D+00 0.2470000D+00 0.2470000D+00 0.2470000D+00
EXPONENTS  0.2470000D+00 0.2470000D+00
MO    1     MO 0.0        OCC NO =    2.0000000  ORB. ENERGY =  -19.393626
  0.16420160D-03  0.30610912D-03  0.51737835D-03  0.77778913D-03  0.95560381D-03
  0.80716018D-03  0.30443112D-03 -0.15066466D-05 -0.12431855D-03 -0.23276355D-03
 -0.39629986D-03 -0.61301563D-03 -0.80732002D-03 -0.83885722D-03 -0.53305610D-03
  0.35724180D-03 -0.31200786D-03  0.73252776D-02  0.15987920D-04 -0.89584020D-04
 -0.83990713D-04 -0.59806391D-04 -0.67909297D-03 -0.63669282D-03 -0.45336322D-03
 -0.30028150D-16 -0.28153300D-16 -0.20046826D-16  0.55905346D-03  0.47163381D-02
 -0.17905053D-18  0.31231474D-05  0.21130549D-02 -0.65437137D-18 -0.40316106D-04
 -0.34837942D-04  0.25952263D-19 -0.72200833D-03  0.12097231D-02 -0.48771472D-03
  0.11495677D-03 -0.16042529D-18 -0.65250417D-18 -0.48050493D-03  0.82510801D-03
 -0.34460309D-03  0.11521139D-03  0.31053405D-18  0.60806645D-18  0.73067735D-03
 -0.86536039D-03  0.13468304D-03 -0.31350747D-03  0.24097834D-19  0.27041452D-18
  0.82180445D-05  0.49619954D-03  0.51939342D-19  0.79552577D-04 -0.81627941D-03
  0.98939124D-20 -0.10420671D-03 -0.67231920D-03 -0.16571194D-18 -0.77150979D-19
  0.16409522D-03 -0.42694197D-03  0.16630898D-19 -0.56565959D-03  0.10713317D-02
 -0.11379276D-18  0.73373923D-04  0.20949418D-03  0.63900069D-19 -0.10023094D-18
  0.31374424D-04  0.58489059D-04  0.98856813D-04  0.14861417D-03  0.18258968D-03
  0.15422617D-03  0.58168439D-04 -0.28787885D-06 -0.21393650D-04 -0.40055663D-04
 -0.68198193D-04 -0.10549224D-03 -0.13892956D-03 -0.14435671D-03 -0.91732212D-04
  0.61476795D-04  0.75802375D-04  0.13133834D-02 -0.48960382D-03 -0.13427555D-03
 -0.12589186D-03 -0.89642505D-04 -0.16003158D-03 -0.15003978D-03 -0.10683726D-03
 -0.22361946D-18 -0.20965746D-18 -0.14928860D-18  0.14701106D-02  0.96099317D-03
  0.24541974D-18  0.15435410D-03 -0.13552633D-02  0.85219588D-18 -0.43028051D-04
 -0.91859000D-05 -0.76197987D-20 -0.87006671D-04  0.11220975D-05  0.85884573D-04
 -0.26986054D-04 -0.14366221D-18 -0.11334894D-18 -0.29983867D-03  0.25114557D-03
  0.48693101D-04  0.15176767D-02  0.34582911D-18  0.18108540D-18  0.45057602D-03
 -0.36992790D-03 -0.80648111D-04 -0.13062659D-02  0.14696433D-18 -0.12261152D-18
  0.26643439D-04  0.52176220D-04 -0.28372755D-19  0.96489142D-04 -0.19577019D-03
  0.12245893D-18 -0.17641946D-03  0.39241528D-04 -0.37340660D-19 -0.23066841D-19
  0.59083271D-04 -0.25719419D-03 -0.38406915D-19 -0.33073264D-03  0.62077173D-03
  0.71344854D-19  0.15348282D-03  0.15081084D-03  0.43875890D-19  0.16022993D-18
 -0.94847595D-04 -0.17681748D-03 -0.29885269D-03 -0.44927349D-03 -0.55198439D-03
 -0.46623906D-03 -0.17584822D-03  0.87028266D-06  0.71129771D-04  0.13317737D-03
  0.22674587D-03  0.35074139D-03  0.46191407D-03  0.47995831D-03  0.30499196D-03
 -0.20439852D-03 -0.34774201D-03 -0.18104370D-02  0.78491226D-03 -0.16949388D-03
 -0.15891129D-03 -0.11315431D-03  0.38206670D-04  0.35821182D-04  0.25506816D-04
 -0.33582026D-19 -0.31485284D-19 -0.22419398D-19  0.89641590D-03 -0.82804619D-03
  0.28117076D-19 -0.16933350D-02  0.52289655D-03 -0.52024635D-18  0.46266265D-04
  0.93356161D-05  0.46079586D-20  0.34609215D-04  0.50291377D-04 -0.84900592D-04
 -0.19538047D-04 -0.41719998D-19  0.77393240D-19  0.33268655D-03 -0.20393114D-03
 -0.12875542D-03  0.10810875D-02  0.69188312D-19 -0.95799108D-19 -0.27752559D-03
  0.21726718D-03  0.60258413D-04 -0.74839288D-03 -0.11260874D-18 -0.15924764D-18
 -0.70350640D-04  0.56538488D-04 -0.15878310D-19  0.25641161D-03 -0.16408564D-03
  0.10439244D-18 -0.45359694D-04 -0.55298198D-05 -0.56757509D-19 -0.25221387D-18
  0.63554225D-04  0.60163396D-04  0.18635556D-19 -0.30312692D-03 -0.12306579D-03
 -0.79562736D-19  0.11246425D-03 -0.57424394D-04  0.23656067D-19  0.42864493D-19
  0.16001938D-04  0.29831251D-04  0.50420070D-04  0.75797881D-04  0.93126455D-04
  0.78660178D-04  0.29667725D-04 -0.14682723D-06 -0.12527847D-04 -0.23456082D-04
 -0.39935987D-04 -0.61774899D-04 -0.81355368D-04 -0.84533439D-04 -0.53717206D-04
  0.36000022D-04  0.14878076D-03  0.66388153D-03 -0.96349274D-03 -0.32312927D-04
 -0.30295423D-04 -0.21572146D-04  0.74671572D-04  0.70009345D-04  0.49850824D-04
 -0.22356400D-18 -0.20960546D-18 -0.14925157D-18  0.25384178D-04 -0.32875306D-03
  0.24284723D-18 -0.10037082D-02  0.90168128D-03  0.51549805D-18  0.14091807D-04
 -0.68909373D-04 -0.25461408D-20 -0.84959690D-04 -0.12045521D-04  0.97005211D-04
 -0.97589857D-04 -0.10511255D-18 -0.16156506D-18  0.21072789D-03 -0.22907106D-03
  0.18343164D-04  0.34226484D-03  0.22793648D-18  0.27120487D-18 -0.36961503D-03
  0.43110167D-03 -0.61486643D-04 -0.20701743D-03  0.79140361D-19  0.18588302D-18
 -0.92848050D-06  0.40604790D-04  0.12528880D-19  0.60850309D-04 -0.14339652D-03
 -0.19730626D-19 -0.58064867D-04  0.21582149D-04 -0.17856015D-19  0.18459576D-18
 -0.73053233D-04  0.97870803D-04 -0.91834771D-20  0.21760931D-03 -0.24209180D-03
 -0.42177372D-20  0.15503851D-05 -0.51520606D-04  0.31768168D-19  0.29894475D-19
 -0.50822443D-04 -0.94744588D-04 -0.16013505D-03 -0.24073543D-03 -0.29577129D-03
 -0.24982613D-03 -0.94225226D-04  0.46632590D-06  0.39627614D-04  0.74195396D-04
  0.12632401D-03  0.19540404D-03  0.25734024D-03  0.26739299D-03  0.16991624D-03
 -0.11387392D-03 -0.26550933D-03 -0.12380759D-02  0.63225193D-03  0.11108090D-03
  0.10414541D-03  0.74157735D-04 -0.61746984D-04 -0.57891723D-04 -0.41222355D-04
 -0.31303114D-20 -0.29348659D-20 -0.20897994D-20 -0.62199509D-03 -0.12746260D-03
 -0.55837644D-19  0.48874678D-03 -0.74925116D-03 -0.98114590D-18 -0.24152646D-04
  0.20729487D-04 -0.90349236D-20 -0.33919425D-04  0.55533928D-04 -0.21614503D-04
 -0.10889322D-03 -0.24814502D-18  0.13399063D-18 -0.90093584D-04  0.22993504D-03
 -0.13984146D-03 -0.36800289D-03  0.25136332D-18 -0.11622109D-19 -0.20049710D-03
  0.14592814D-03  0.54568955D-04  0.73456319D-03  0.20434765D-18 -0.11351905D-18
  0.67828447D-04  0.30086657D-04 -0.21026863D-19 -0.29092839D-03 -0.91854410D-04
 -0.22441893D-19  0.87443046D-04  0.15944399D-05  0.85522481D-19  0.38256299D-19
 -0.14948099D-04  0.52065076D-04  0.39286190D-19  0.13355914D-03 -0.39192330D-04
 -0.11250279D-18 -0.88714839D-04 -0.11700290D-03 -0.53557852D-20 -0.25489788D-19
  0.10538177D-03  0.19645557D-03  0.33204452D-03  0.49917168D-03  0.61329009D-03
  0.51802152D-03  0.19537866D-03 -0.96693989D-06 -0.76084238D-04 -0.14245370D-03
 -0.24253961D-03 -0.37517190D-03 -0.49408819D-03 -0.51338928D-03 -0.32623584D-03
  0.21863567D-03  0.25476386D-03  0.24547071D-03  0.53976515D-04  0.49438523D-04
  0.46351758D-04  0.33005213D-04 -0.35032401D-04 -0.32845102D-04 -0.23387670D-04
  0.20772036D-19  0.19475104D-19  0.13867435D-19 -0.14275900D-02  0.58750967D-03
 -0.20469854D-19  0.51345545D-03 -0.19341673D-02  0.78164054D-18 -0.47826459D-05
  0.16858687D-04 -0.48010211D-20 -0.18398625D-03  0.51104538D-04  0.13288171D-03
 -0.13121948D-03  0.11352241D-18  0.54325365D-19  0.39865511D-03 -0.48365308D-03
  0.84997970D-04 -0.28611947D-03 -0.21780423D-19  0.43016254D-19  0.17987233D-03
 -0.49039139D-04 -0.13083319D-03  0.11022416D-02 -0.24038367D-18 -0.19964184D-18
 -0.61628929D-04  0.76525522D-04  0.41348127D-19  0.11906120D-03 -0.30643925D-03
  0.28179412D-19  0.65825589D-04  0.76862681D-04 -0.15222379D-18 -0.41851347D-20
 -0.92529949D-04 -0.20482450D-03 -0.47417557D-19  0.45540456D-03  0.60690184D-03
  0.74933109D-19 -0.17781471D-03  0.75716726D-05  0.67319564D-19  0.86749520D-19
  0.49822567D+00  0.92862854D+00  0.15746463D+01  0.23833005D+01  0.29736632D+01
  0.25539801D+01  0.98052263D+00 -0.43859379D-02 -0.51231249D-03 -0.96085476D-03
 -0.16380467D-02 -0.25599482D-02 -0.34231385D-02 -0.36551139D-02 -0.22346649D-02
  0.14742962D-02  0.52404574D-01 -0.53624936D-03  0.17791731D-02 -0.67960744D-02
 -0.65899061D-02 -0.44455117D-02 -0.55184540D-02 -0.53510441D-02 -0.36097828D-02
  0.41435341D-17  0.40178343D-17  0.27104073D-17  0.26308045D-06  0.14160319D-02
 -0.10383307D-18  0.10552844D-02  0.22587001D-02 -0.88658160D-18  0.36205770D-04
 -0.98584019D-04 -0.81216963D-19  0.70558886D-03  0.11514984D-02 -0.18570873D-02
 -0.10452579D-02 -0.98045138D-17  0.86541452D-17  0.51230097D-03 -0.14937865D-02
  0.98148554D-03 -0.28158856D-03  0.90416181D-18 -0.49542439D-18  0.11566754D-03
 -0.54092551D-03  0.42525797D-03 -0.67571095D-04  0.18403184D-18  0.15637483D-18
 -0.53839603D-03 -0.24350133D-03  0.83028319D-19  0.42326450D-03  0.11761957D-02
 -0.34234782D-18  0.11919236D-02 -0.44569165D-03  0.93262860D-19 -0.22528111D-17
  0.91859879D-04  0.45904172D-03  0.12520597D-18  0.79446996D-04 -0.82783601D-03
 -0.22458898D-18 -0.35502663D-03 -0.54928915D-03 -0.15102893D-18  0.35225981D-18
  0.18452562D-03  0.33279956D-03  0.49071276D-03  0.42942649D-03  0.40842877D-03
  0.34822376D-04 -0.27321463D-03  0.21607620D-03 -0.19535931D-18 -0.29389396D-03
  0.23911142D-03  0.77769534D-18  0.12782241D-04 -0.52540669D-04  0.58791033D-19
 -0.12280464D-02  0.34618478D-03  0.88186161D-03  0.16866382D-02  0.27152742D-18
 -0.15373659D-18 -0.47346181D-05  0.82993032D-05 -0.35646851D-05  0.13474684D-03
  0.21367456D-18 -0.70313801D-19 -0.44483283D-04 -0.80227432D-04 -0.11829530D-03
  0.50074410D-03 -0.72639869D-02 -0.50932729D-04 -0.34011225D-05 -0.72424611D-04
  0.99190776D-19  0.81474684D-03 -0.52917118D-03 -0.75048340D-19 -0.53588774D-03
  0.26102330D-03  0.11589345D-18  0.22143136D-03  0.31870233D-04 -0.25330160D-03
 -0.21141275D-03 -0.26574092D-19 -0.93822125D-19  0.45737990D-04  0.27479928D-04
 -0.73217918D-04 -0.78780701D-04  0.11689199D-19  0.44489626D-19 -0.47788221D-05
 -0.86188025D-05 -0.12708419D-04 -0.12795052D-02  0.45007344D-02  0.29294526D-04
 -0.58682796D-04 -0.49569704D-04 -0.74391966D-19 -0.50277495D-03  0.22344894D-04
  0.11040089D-18  0.34842401D-03  0.27205837D-03 -0.12391990D-18 -0.34103042D-04
  0.54840372D-04 -0.20737330D-04 -0.34811960D-04  0.92734016D-19 -0.15388703D-18
 -0.36872363D-04  0.30275655D-04  0.65967079D-05  0.19178344D-04 -0.16170715D-19
  0.70420082D-19  0.12140254D-04  0.21895448D-04  0.32284825D-04  0.70690604D-03
 -0.33929890D-02 -0.55473537D-04  0.50856276D-04 -0.11001340D-04  0.49300068D-19
 -0.18726999D-03  0.16915254D-03  0.17790809D-19 -0.96414192D-04 -0.25126323D-03
  0.13430089D-18 -0.80438550D-04  0.19532899D-04  0.60905650D-04 -0.32371416D-04
  0.66557614D-19  0.12763679D-18  0.84897735D-05 -0.78515827D-05 -0.63819077D-06
 -0.16070042D-04 -0.35286536D-19  0.29884999D-19 -0.57242537D-05 -0.10323927D-04
 -0.15222625D-04 -0.25023291D-03  0.39766446D-02  0.15328945D-04  0.24042473D-04
 -0.33638570D-04 -0.16272105D-18  0.32349659D-04  0.12121234D-03  0.19251747D-18
 -0.33894620D-03  0.18950507D-03 -0.15505217D-18  0.50630398D-04 -0.23897748D-04
 -0.26732650D-04 -0.33053766D-04  0.43122122D-20  0.15981529D-19 -0.12515776D-04
  0.10986861D-04  0.15289155D-05 -0.44416592D-04  0.76252983D-20  0.53656591D-19
 -0.45896618D-04 -0.82776441D-04 -0.12205381D-03 -0.84073542D-03 -0.55136814D-02
  0.40437599D-05 -0.22033742D-04 -0.15343819D-05  0.16671916D-18 -0.30149720D-03
 -0.28580712D-03 -0.29604837D-18  0.43907991D-03  0.65013335D-04  0.25552749D-18
  0.20385679D-03  0.36376751D-04 -0.24023354D-03  0.16863337D-03  0.16665777D-18
  0.99533422D-19  0.29449705D-04  0.45765969D-04 -0.75215674D-04  0.40484065D-04
  0.13489607D-19 -0.93935908D-20
MO    2     MO 0.0        OCC NO =    2.0000000  ORB. ENERGY =  -10.403567
  0.33046692D+00  0.61606548D+00  0.10412592D+01  0.15653536D+01  0.19232178D+01
  0.16244649D+01  0.61268839D+00 -0.30322290D-02 -0.32272826D-02 -0.60424913D-02
 -0.10287858D-01 -0.15913753D-01 -0.20957853D-01 -0.21776551D-01 -0.13838021D-01
  0.92739197D-02  0.32985630D-01  0.52228857D-02 -0.17328193D-02 -0.14465183D-03
 -0.13562028D-03 -0.96569721D-04  0.30964923D-02  0.29031583D-02  0.20672217D-02
 -0.43329176D-16 -0.40623857D-16 -0.28926606D-16  0.48586630D-03 -0.33614355D-02
  0.16120855D-16 -0.11533394D-02 -0.48553063D-02  0.71823895D-17  0.10145180D-03
 -0.17389530D-04  0.67671110D-19  0.16777192D-02  0.19013293D-02 -0.35790485D-02
 -0.40859365D-04  0.40516000D-18 -0.90659532D-18  0.10900024D-02 -0.17351384D-02
  0.64513598D-03 -0.18196392D-03  0.17745045D-17 -0.19861925D-17 -0.26719863D-03