 Molden2AIM, Version 4.0.0 (06/02/2016)           Time: Mon Jul  2 23:10:28 2018
GAUSSIAN             21 MOL ORBITALS    558 PRIMITIVES       10 NUCLEI
  H    1    (CENTRE  1)   0.00000000  3.90895707  2.37394388  CHARGE =  1.0
  H    2    (CENTRE  2)   0.00000000 -3.90895707  2.37394388  CHARGE =  1.0
  H    3    (CENTRE  3)   0.00000000  3.90895707 -2.37394388  CHARGE =  1.0
  H    4    (CENTRE  4)   0.00000000 -3.90895707 -2.37394388  CHARGE =  1.0
  C    5    (CENTRE  5)   0.00000000  2.13441542  1.31889466  CHARGE =  6.0
  C    6    (CENTRE  6)   0.00000000 -2.13441542  1.31889466  CHARGE =  6.0
  C    7    (CENTRE  7)   0.00000000  2.13441542 -1.31889466  CHARGE =  6.0
  C    8    (CENTRE  8)   0.00000000 -2.13441542 -1.31889466  CHARGE =  6.0
  N    9    (CENTRE  9)   0.00000000  0.00000000  2.65777885  CHARGE =  7.0
  N   10    (CENTRE 10)   0.00000000  0.00000000 -2.65777885  CHARGE =  7.0
CENTRE ASSIGNMENTS    1  1  1  1  1  1  1  1  1  1  1  1  1  1  1  1  1  1  1  1
CENTRE ASSIGNMENTS    1  1  1  1  1  1  1  2  2  2  2  2  2  2  2  2  2  2  2  2
CENTRE ASSIGNMENTS    2  2  2  2  2  2  2  2  2  2  2  2  2  2  3  3  3  3  3  3
CENTRE ASSIGNMENTS    3  3  3  3  3  3  3  3  3  3  3  3  3  3  3  3  3  3  3  3
CENTRE ASSIGNMENTS    3  4  4  4  4  4  4  4  4  4  4  4  4  4  4  4  4  4  4  4
CENTRE ASSIGNMENTS    4  4  4  4  4  4  4  4  5  5  5  5  5  5  5  5  5  5  5  5
CENTRE ASSIGNMENTS    5  5  5  5  5  5  5  5  5  5  5  5  5  5  5  5  5  5  5  5
CENTRE ASSIGNMENTS    5  5  5  5  5  5  5  5  5  5  5  5  5  5  5  5  5  5  5  5
CENTRE ASSIGNMENTS    5  5  5  5  5  5  5  5  5  5  5  5  5  5  5  5  5  5  5  5
CENTRE ASSIGNMENTS    5  5  5  6  6  6  6  6  6  6  6  6  6  6  6  6  6  6  6  6
CENTRE ASSIGNMENTS    6  6  6  6  6  6  6  6  6  6  6  6  6  6  6  6  6  6  6  6
CENTRE ASSIGNMENTS    6  6  6  6  6  6  6  6  6  6  6  6  6  6  6  6  6  6  6  6
CENTRE ASSIGNMENTS    6  6  6  6  6  6  6  6  6  6  6  6  6  6  6  6  6  6  7  7
CENTRE ASSIGNMENTS    7  7  7  7  7  7  7  7  7  7  7  7  7  7  7  7  7  7  7  7
CENTRE ASSIGNMENTS    7  7  7  7  7  7  7  7  7  7  7  7  7  7  7  7  7  7  7  7
CENTRE ASSIGNMENTS    7  7  7  7  7  7  7  7  7  7  7  7  7  7  7  7  7  7  7  7
CENTRE ASSIGNMENTS    7  7  7  7  7  7  7  7  7  7  7  7  7  8  8  8  8  8  8  8
CENTRE ASSIGNMENTS    8  8  8  8  8  8  8  8  8  8  8  8  8  8  8  8  8  8  8  8
CENTRE ASSIGNMENTS    8  8  8  8  8  8  8  8  8  8  8  8  8  8  8  8  8  8  8  8
CENTRE ASSIGNMENTS    8  8  8  8  8  8  8  8  8  8  8  8  8  8  8  8  8  8  8  8
CENTRE ASSIGNMENTS    8  8  8  8  8  8  8  8  9  9  9  9  9  9  9  9  9  9  9  9
CENTRE ASSIGNMENTS    9  9  9  9  9  9  9  9  9  9  9  9  9  9  9  9  9  9  9  9
CENTRE ASSIGNMENTS    9  9  9  9  9  9  9  9  9  9  9  9  9  9  9  9  9  9  9  9
CENTRE ASSIGNMENTS    9  9  9  9  9  9  9  9  9  9  9  9  9  9  9  9  9  9  9  9
CENTRE ASSIGNMENTS    9  9  9 10 10 10 10 10 10 10 10 10 10 10 10 10 10 10 10 10
CENTRE ASSIGNMENTS   10 10 10 10 10 10 10 10 10 10 10 10 10 10 10 10 10 10 10 10
CENTRE ASSIGNMENTS   10 10 10 10 10 10 10 10 10 10 10 10 10 10 10 10 10 10 10 10
CENTRE ASSIGNMENTS   10 10 10 10 10 10 10 10 10 10 10 10 10 10 10 10 10 10
TYPE ASSIGNMENTS      1  1  1  1  1  1  2  3  4  2  3  4  2  3  4  5  6  7  8  9
TYPE ASSIGNMENTS     10  5  6  7  8  9 10  1  1  1  1  1  1  2  3  4  2  3  4  2
TYPE ASSIGNMENTS      3  4  5  6  7  8  9 10  5  6  7  8  9 10  1  1  1  1  1  1
TYPE ASSIGNMENTS      2  3  4  2  3  4  2  3  4  5  6  7  8  9 10  5  6  7  8  9
TYPE ASSIGNMENTS     10  1  1  1  1  1  1  2  3  4  2  3  4  2  3  4  5  6  7  8
TYPE ASSIGNMENTS      9 10  5  6  7  8  9 10  1  1  1  1  1  1  1  1  1  1  1  1
TYPE ASSIGNMENTS      1  1  1  1  1  1  1  2  2  2  3  3  3  4  4  4  2  3  4  2
TYPE ASSIGNMENTS      3  4  2  3  4  5  6  7  8  9 10  5  6  7  8  9 10  5  6  7
TYPE ASSIGNMENTS      8  9 10 11 12 13 17 14 15 18 19 16 20 11 12 13 17 14 15 18
TYPE ASSIGNMENTS     19 16 20  1  1  1  1  1  1  1  1  1  1  1  1  1  1  1  1  1
TYPE ASSIGNMENTS      1  1  2  2  2  3  3  3  4  4  4  2  3  4  2  3  4  2  3  4
TYPE ASSIGNMENTS      5  6  7  8  9 10  5  6  7  8  9 10  5  6  7  8  9 10 11 12
TYPE ASSIGNMENTS     13 17 14 15 18 19 16 20 11 12 13 17 14 15 18 19 16 20  1  1
TYPE ASSIGNMENTS      1  1  1  1  1  1  1  1  1  1  1  1  1  1  1  1  1  2  2  2
TYPE ASSIGNMENTS      3  3  3  4  4  4  2  3  4  2  3  4  2  3  4  5  6  7  8  9
TYPE ASSIGNMENTS     10  5  6  7  8  9 10  5  6  7  8  9 10 11 12 13 17 14 15 18
TYPE ASSIGNMENTS     19 16 20 11 12 13 17 14 15 18 19 16 20  1  1  1  1  1  1  1
TYPE ASSIGNMENTS      1  1  1  1  1  1  1  1  1  1  1  1  2  2  2  3  3  3  4  4
TYPE ASSIGNMENTS      4  2  3  4  2  3  4  2  3  4  5  6  7  8  9 10  5  6  7  8
TYPE ASSIGNMENTS      9 10  5  6  7  8  9 10 11 12 13 17 14 15 18 19 16 20 11 12
TYPE ASSIGNMENTS     13 17 14 15 18 19 16 20  1  1  1  1  1  1  1  1  1  1  1  1
TYPE ASSIGNMENTS      1  1  1  1  1  1  1  2  2  2  3  3  3  4  4  4  2  3  4  2
TYPE ASSIGNMENTS      3  4  2  3  4  5  6  7  8  9 10  5  6  7  8  9 10  5  6  7
TYPE ASSIGNMENTS      8  9 10 11 12 13 17 14 15 18 19 16 20 11 12 13 17 14 15 18
TYPE ASSIGNMENTS     19 16 20  1  1  1  1  1  1  1  1  1  1  1  1  1  1  1  1  1
TYPE ASSIGNMENTS      1  1  2  2  2  3  3  3  4  4  4  2  3  4  2  3  4  2  3  4
TYPE ASSIGNMENTS      5  6  7  8  9 10  5  6  7  8  9 10  5  6  7  8  9 10 11 12
TYPE ASSIGNMENTS     13 17 14 15 18 19 16 20 11 12 13 17 14 15 18 19 16 20
EXPONENTS  0.3387000D+02 0.5095000D+01 0.1159000D+01 0.3258000D+00 0.1027000D+00
EXPONENTS  0.2526000D-01 0.1407000D+01 0.1407000D+01 0.1407000D+01 0.3880000D+00
EXPONENTS  0.3880000D+00 0.3880000D+00 0.1020000D+00 0.1020000D+00 0.1020000D+00
EXPONENTS  0.1057000D+01 0.1057000D+01 0.1057000D+01 0.1057000D+01 0.1057000D+01
EXPONENTS  0.1057000D+01 0.2470000D+00 0.2470000D+00 0.2470000D+00 0.2470000D+00
EXPONENTS  0.2470000D+00 0.2470000D+00 0.3387000D+02 0.5095000D+01 0.1159000D+01
EXPONENTS  0.3258000D+00 0.1027000D+00 0.2526000D-01 0.1407000D+01 0.1407000D+01
EXPONENTS  0.1407000D+01 0.3880000D+00 0.3880000D+00 0.3880000D+00 0.1020000D+00
EXPONENTS  0.1020000D+00 0.1020000D+00 0.1057000D+01 0.1057000D+01 0.1057000D+01
EXPONENTS  0.1057000D+01 0.1057000D+01 0.1057000D+01 0.2470000D+00 0.2470000D+00
EXPONENTS  0.2470000D+00 0.2470000D+00 0.2470000D+00 0.2470000D+00 0.3387000D+02
EXPONENTS  0.5095000D+01 0.1159000D+01 0.3258000D+00 0.1027000D+00 0.2526000D-01
EXPONENTS  0.1407000D+01 0.1407000D+01 0.1407000D+01 0.3880000D+00 0.3880000D+00
EXPONENTS  0.3880000D+00 0.1020000D+00 0.1020000D+00 0.1020000D+00 0.1057000D+01
EXPONENTS  0.1057000D+01 0.1057000D+01 0.1057000D+01 0.1057000D+01 0.1057000D+01
EXPONENTS  0.2470000D+00 0.2470000D+00 0.2470000D+00 0.2470000D+00 0.2470000D+00
EXPONENTS  0.2470000D+00 0.3387000D+02 0.5095000D+01 0.1159000D+01 0.3258000D+00
EXPONENTS  0.1027000D+00 0.2526000D-01 0.1407000D+01 0.1407000D+01 0.1407000D+01
EXPONENTS  0.3880000D+00 0.3880000D+00 0.3880000D+00 0.1020000D+00 0.1020000D+00
EXPONENTS  0.1020000D+00 0.1057000D+01 0.1057000D+01 0.1057000D+01 0.1057000D+01
EXPONENTS  0.1057000D+01 0.1057000D+01 0.2470000D+00 0.2470000D+00 0.2470000D+00
EXPONENTS  0.2470000D+00 0.2470000D+00 0.2470000D+00 0.8236000D+04 0.1235000D+04
EXPONENTS  0.2808000D+03 0.7927000D+02 0.2559000D+02 0.8997000D+01 0.3319000D+01
EXPONENTS  0.3643000D+00 0.8236000D+04 0.1235000D+04 0.2808000D+03 0.7927000D+02
EXPONENTS  0.2559000D+02 0.8997000D+01 0.3319000D+01 0.3643000D+00 0.9059000D+00
EXPONENTS  0.1285000D+00 0.4402000D-01 0.1871000D+02 0.4133000D+01 0.1200000D+01
EXPONENTS  0.1871000D+02 0.4133000D+01 0.1200000D+01 0.1871000D+02 0.4133000D+01
EXPONENTS  0.1200000D+01 0.3827000D+00 0.3827000D+00 0.3827000D+00 0.1209000D+00
EXPONENTS  0.1209000D+00 0.1209000D+00 0.3569000D-01 0.3569000D-01 0.3569000D-01
EXPONENTS  0.1097000D+01 0.1097000D+01 0.1097000D+01 0.1097000D+01 0.1097000D+01
EXPONENTS  0.1097000D+01 0.3180000D+00 0.3180000D+00 0.3180000D+00 0.3180000D+00
EXPONENTS  0.3180000D+00 0.3180000D+00 0.1000000D+00 0.1000000D+00 0.1000000D+00
EXPONENTS  0.1000000D+00 0.1000000D+00 0.1000000D+00 0.7610000D+00 0.7610000D+00
EXPONENTS  0.7610000D+00 0.7610000D+00 0.7610000D+00 0.7610000D+00 0.7610000D+00
EXPONENTS  0.7610000D+00 0.7610000D+00 0.7610000D+00 0.2680000D+00 0.2680000D+00
EXPONENTS  0.2680000D+00 0.2680000D+00 0.2680000D+00 0.2680000D+00 0.2680000D+00
EXPONENTS  0.2680000D+00 0.2680000D+00 0.2680000D+00 0.8236000D+04 0.1235000D+04
EXPONENTS  0.2808000D+03 0.7927000D+02 0.2559000D+02 0.8997000D+01 0.3319000D+01
EXPONENTS  0.3643000D+00 0.8236000D+04 0.1235000D+04 0.2808000D+03 0.7927000D+02
EXPONENTS  0.2559000D+02 0.8997000D+01 0.3319000D+01 0.3643000D+00 0.9059000D+00
EXPONENTS  0.1285000D+00 0.4402000D-01 0.1871000D+02 0.4133000D+01 0.1200000D+01
EXPONENTS  0.1871000D+02 0.4133000D+01 0.1200000D+01 0.1871000D+02 0.4133000D+01
EXPONENTS  0.1200000D+01 0.3827000D+00 0.3827000D+00 0.3827000D+00 0.1209000D+00
EXPONENTS  0.1209000D+00 0.1209000D+00 0.3569000D-01 0.3569000D-01 0.3569000D-01
EXPONENTS  0.1097000D+01 0.1097000D+01 0.1097000D+01 0.1097000D+01 0.1097000D+01
EXPONENTS  0.1097000D+01 0.3180000D+00 0.3180000D+00 0.3180000D+00 0.3180000D+00
EXPONENTS  0.3180000D+00 0.3180000D+00 0.1000000D+00 0.1000000D+00 0.1000000D+00
EXPONENTS  0.1000000D+00 0.1000000D+00 0.1000000D+00 0.7610000D+00 0.7610000D+00
EXPONENTS  0.7610000D+00 0.7610000D+00 0.7610000D+00 0.7610000D+00 0.7610000D+00
EXPONENTS  0.7610000D+00 0.7610000D+00 0.7610000D+00 0.2680000D+00 0.2680000D+00
EXPONENTS  0.2680000D+00 0.2680000D+00 0.2680000D+00 0.2680000D+00 0.2680000D+00
EXPONENTS  0.2680000D+00 0.2680000D+00 0.2680000D+00 0.8236000D+04 0.1235000D+04
EXPONENTS  0.2808000D+03 0.7927000D+02 0.2559000D+02 0.8997000D+01 0.3319000D+01
EXPONENTS  0.3643000D+00 0.8236000D+04 0.1235000D+04 0.2808000D+03 0.7927000D+02
EXPONENTS  0.2559000D+02 0.8997000D+01 0.3319000D+01 0.3643000D+00 0.9059000D+00
EXPONENTS  0.1285000D+00 0.4402000D-01 0.1871000D+02 0.4133000D+01 0.1200000D+01
EXPONENTS  0.1871000D+02 0.4133000D+01 0.1200000D+01 0.1871000D+02 0.4133000D+01
EXPONENTS  0.1200000D+01 0.3827000D+00 0.3827000D+00 0.3827000D+00 0.1209000D+00
EXPONENTS  0.1209000D+00 0.1209000D+00 0.3569000D-01 0.3569000D-01 0.3569000D-01
EXPONENTS  0.1097000D+01 0.1097000D+01 0.1097000D+01 0.1097000D+01 0.1097000D+01
EXPONENTS  0.1097000D+01 0.3180000D+00 0.3180000D+00 0.3180000D+00 0.3180000D+00
EXPONENTS  0.3180000D+00 0.3180000D+00 0.1000000D+00 0.1000000D+00 0.1000000D+00
EXPONENTS  0.1000000D+00 0.1000000D+00 0.1000000D+00 0.7610000D+00 0.7610000D+00
EXPONENTS  0.7610000D+00 0.7610000D+00 0.7610000D+00 0.7610000D+00 0.7610000D+00
EXPONENTS  0.7610000D+00 0.7610000D+00 0.7610000D+00 0.2680000D+00 0.2680000D+00
EXPONENTS  0.2680000D+00 0.2680000D+00 0.2680000D+00 0.2680000D+00 0.2680000D+00
EXPONENTS  0.2680000D+00 0.2680000D+00 0.2680000D+00 0.8236000D+04 0.1235000D+04
EXPONENTS  0.2808000D+03 0.7927000D+02 0.2559000D+02 0.8997000D+01 0.3319000D+01
EXPONENTS  0.3643000D+00 0.8236000D+04 0.1235000D+04 0.2808000D+03 0.7927000D+02
EXPONENTS  0.2559000D+02 0.8997000D+01 0.3319000D+01 0.3643000D+00 0.9059000D+00
EXPONENTS  0.1285000D+00 0.4402000D-01 0.1871000D+02 0.4133000D+01 0.1200000D+01
EXPONENTS  0.1871000D+02 0.4133000D+01 0.1200000D+01 0.1871000D+02 0.4133000D+01
EXPONENTS  0.1200000D+01 0.3827000D+00 0.3827000D+00 0.3827000D+00 0.1209000D+00
EXPONENTS  0.1209000D+00 0.1209000D+00 0.3569000D-01 0.3569000D-01 0.3569000D-01
EXPONENTS  0.1097000D+01 0.1097000D+01 0.1097000D+01 0.1097000D+01 0.1097000D+01
EXPONENTS  0.1097000D+01 0.3180000D+00 0.3180000D+00 0.3180000D+00 0.3180000D+00
EXPONENTS  0.3180000D+00 0.3180000D+00 0.1000000D+00 0.1000000D+00 0.1000000D+00
EXPONENTS  0.1000000D+00 0.1000000D+00 0.1000000D+00 0.7610000D+00 0.7610000D+00
EXPONENTS  0.7610000D+00 0.7610000D+00 0.7610000D+00 0.7610000D+00 0.7610000D+00
EXPONENTS  0.7610000D+00 0.7610000D+00 0.7610000D+00 0.2680000D+00 0.2680000D+00
EXPONENTS  0.2680000D+00 0.2680000D+00 0.2680000D+00 0.2680000D+00 0.2680000D+00
EXPONENTS  0.2680000D+00 0.2680000D+00 0.2680000D+00 0.1142000D+05 0.1712000D+04
EXPONENTS  0.3893000D+03 0.1100000D+03 0.3557000D+02 0.1254000D+02 0.4644000D+01
EXPONENTS  0.5118000D+00 0.1142000D+05 0.1712000D+04 0.3893000D+03 0.1100000D+03
EXPONENTS  0.3557000D+02 0.1254000D+02 0.4644000D+01 0.5118000D+00 0.1293000D+01
EXPONENTS  0.1787000D+00 0.5760000D-01 0.2663000D+02 0.5948000D+01 0.1742000D+01
EXPONENTS  0.2663000D+02 0.5948000D+01 0.1742000D+01 0.2663000D+02 0.5948000D+01
EXPONENTS  0.1742000D+01 0.5550000D+00 0.5550000D+00 0.5550000D+00 0.1725000D+00
EXPONENTS  0.1725000D+00 0.1725000D+00 0.4910000D-01 0.4910000D-01 0.4910000D-01
EXPONENTS  0.1654000D+01 0.1654000D+01 0.1654000D+01 0.1654000D+01 0.1654000D+01
EXPONENTS  0.1654000D+01 0.4690000D+00 0.4690000D+00 0.4690000D+00 0.4690000D+00
EXPONENTS  0.4690000D+00 0.4690000D+00 0.1510000D+00 0.1510000D+00 0.1510000D+00
EXPONENTS  0.1510000D+00 0.1510000D+00 0.1510000D+00 0.1093000D+01 0.1093000D+01
EXPONENTS  0.1093000D+01 0.1093000D+01 0.1093000D+01 0.1093000D+01 0.1093000D+01
EXPONENTS  0.1093000D+01 0.1093000D+01 0.1093000D+01 0.3640000D+00 0.3640000D+00
EXPONENTS  0.3640000D+00 0.3640000D+00 0.3640000D+00 0.3640000D+00 0.3640000D+00
EXPONENTS  0.3640000D+00 0.3640000D+00 0.3640000D+00 0.1142000D+05 0.1712000D+04
EXPONENTS  0.3893000D+03 0.1100000D+03 0.3557000D+02 0.1254000D+02 0.4644000D+01
EXPONENTS  0.5118000D+00 0.1142000D+05 0.1712000D+04 0.3893000D+03 0.1100000D+03
EXPONENTS  0.3557000D+02 0.1254000D+02 0.4644000D+01 0.5118000D+00 0.1293000D+01
EXPONENTS  0.1787000D+00 0.5760000D-01 0.2663000D+02 0.5948000D+01 0.1742000D+01
EXPONENTS  0.2663000D+02 0.5948000D+01 0.1742000D+01 0.2663000D+02 0.5948000D+01
EXPONENTS  0.1742000D+01 0.5550000D+00 0.5550000D+00 0.5550000D+00 0.1725000D+00
EXPONENTS  0.1725000D+00 0.1725000D+00 0.4910000D-01 0.4910000D-01 0.4910000D-01
EXPONENTS  0.1654000D+01 0.1654000D+01 0.1654000D+01 0.1654000D+01 0.1654000D+01
EXPONENTS  0.1654000D+01 0.4690000D+00 0.4690000D+00 0.4690000D+00 0.4690000D+00
EXPONENTS  0.4690000D+00 0.4690000D+00 0.1510000D+00 0.1510000D+00 0.1510000D+00
EXPONENTS  0.1510000D+00 0.1510000D+00 0.1510000D+00 0.1093000D+01 0.1093000D+01
EXPONENTS  0.1093000D+01 0.1093000D+01 0.1093000D+01 0.1093000D+01 0.1093000D+01
EXPONENTS  0.1093000D+01 0.1093000D+01 0.1093000D+01 0.3640000D+00 0.3640000D+00
EXPONENTS  0.3640000D+00 0.3640000D+00 0.3640000D+00 0.3640000D+00 0.3640000D+00
EXPONENTS  0.3640000D+00 0.3640000D+00 0.3640000D+00
MO    1     MO 0.0        OCC NO =    2.0000000  ORB. ENERGY =  -14.535386
 -0.71859455D-04 -0.12960149D-03 -0.19109731D-03  0.97192226D-03  0.94336265D-03
  0.74713892D-04 -0.33383896D-15  0.15353924D-03  0.37651724D-03  0.10923408D-15
 -0.10245377D-02 -0.15508810D-02 -0.12849981D-16 -0.17860160D-03  0.20281190D-03
 -0.32509639D-03  0.17088388D-03  0.15421251D-03  0.13727191D-16  0.22249547D-16
  0.16694309D-03 -0.11059451D-03  0.87169313D-04  0.23425201D-04  0.95827952D-18
 -0.59121693D-17  0.15505222D-03 -0.71859455D-04 -0.12960149D-03 -0.19109731D-03
  0.97192226D-03  0.94336265D-03  0.74713891D-04  0.16033877D-18 -0.15353924D-03
  0.37651724D-03 -0.62086007D-18  0.10245377D-02 -0.15508810D-02  0.17416483D-17
  0.17860160D-03  0.20281190D-03 -0.32509639D-03  0.17088388D-03  0.15421251D-03
  0.54489666D-18  0.67312825D-18 -0.16694309D-03 -0.11059451D-03  0.87169313D-04
  0.23425201D-04  0.73217079D-19  0.94216642D-19 -0.15505222D-03  0.71859455D-04
  0.12960149D-03  0.19109732D-03 -0.97192225D-03 -0.94336265D-03 -0.74713891D-04
 -0.20794837D-17 -0.15353924D-03  0.37651724D-03  0.79213499D-18  0.10245377D-02
 -0.15508810D-02  0.23400824D-17  0.17860160D-03  0.20281190D-03  0.32509639D-03
 -0.17088388D-03 -0.15421251D-03  0.25531403D-17 -0.74589404D-19  0.16694309D-03
  0.11059451D-03 -0.87169313D-04 -0.23425201D-04 -0.14728654D-17  0.44696314D-18
  0.15505222D-03  0.71859455D-04  0.12960149D-03  0.19109732D-03 -0.97192225D-03
 -0.94336265D-03 -0.74713891D-04 -0.12058092D-17  0.15353924D-03  0.37651724D-03
  0.78271851D-18 -0.10245377D-02 -0.15508810D-02 -0.89337066D-18 -0.17860160D-03
  0.20281190D-03  0.32509639D-03 -0.17088388D-03 -0.15421251D-03 -0.22300300D-18
 -0.21195342D-17 -0.16694309D-03  0.11059451D-03 -0.87169313D-04 -0.23425201D-04
  0.40528149D-18 -0.85747487D-19 -0.15505222D-03 -0.14243328D-03 -0.26552802D-03
 -0.44878912D-03 -0.67467706D-03 -0.82891872D-03 -0.70015437D-03 -0.26407247D-03
  0.13069094D-05  0.11167404D-03  0.20908904D-03  0.35599199D-03  0.55066548D-03
  0.72520706D-03  0.75353659D-03  0.47883868D-03 -0.32090655D-03 -0.43892278D-03
 -0.13695471D-02  0.28832431D-02 -0.22996835D-17 -0.21560994D-17 -0.15352712D-17
  0.23461366D-03  0.21996522D-03  0.15662834D-03 -0.63164737D-04 -0.59220956D-04
 -0.42168848D-04 -0.22626543D-18  0.73938020D-03 -0.28953404D-02 -0.76914034D-17
  0.15653906D-02  0.82097033D-03 -0.37416709D-18 -0.64727051D-04 -0.13789428D-03
  0.11061134D-03 -0.40326028D-03  0.29264894D-03 -0.25918896D-17 -0.56205414D-17
  0.11931075D-02 -0.39575345D-04 -0.89234415D-03  0.93191949D-03 -0.16799220D-17
  0.57360314D-18 -0.31866541D-02 -0.67992471D-05  0.61572328D-04 -0.54773081D-04
  0.14335905D-17  0.18051646D-17 -0.79778009D-03 -0.13689158D-17 -0.12788554D-03
 -0.24264865D-03  0.26383584D-17  0.21607897D-03 -0.40919359D-04  0.14683889D-17
  0.16757767D-03  0.76886531D-03 -0.90527018D-17  0.70201194D-18 -0.20477061D-03
 -0.26195582D-03 -0.14599849D-17  0.71847908D-04 -0.24704257D-03 -0.64605095D-18
  0.54246393D-03  0.10329100D-02  0.21444117D-17 -0.14243328D-03 -0.26552802D-03
 -0.44878912D-03 -0.67467706D-03 -0.82891872D-03 -0.70015437D-03 -0.26407247D-03
  0.13069094D-05  0.11167404D-03  0.20908904D-03  0.35599199D-03  0.55066548D-03
  0.72520706D-03  0.75353659D-03  0.47883868D-03 -0.32090655D-03 -0.43892278D-03
 -0.13695471D-02  0.28832431D-02 -0.16570489D-18 -0.15535887D-18 -0.11062477D-18
 -0.23461366D-03 -0.21996522D-03 -0.15662834D-03 -0.63164737D-04 -0.59220956D-04
 -0.42168848D-04 -0.66156747D-19 -0.73938020D-03 -0.28953404D-02  0.24332555D-17
 -0.15653906D-02  0.82097033D-03  0.61243313D-19  0.64727051D-04 -0.13789428D-03
  0.11061134D-03 -0.40326028D-03  0.29264894D-03 -0.42787213D-18  0.16680023D-17
 -0.11931075D-02 -0.39575345D-04 -0.89234415D-03  0.93191949D-03 -0.20337712D-17
 -0.50908145D-17  0.31866541D-02 -0.67992470D-05  0.61572328D-04 -0.54773081D-04
  0.14881856D-17 -0.95781278D-18  0.79778009D-03  0.24360963D-18  0.12788554D-03
 -0.24264865D-03 -0.15267448D-17 -0.21607897D-03 -0.40919359D-04  0.79591592D-18
 -0.16757767D-03  0.76886531D-03 -0.20716086D-17 -0.13205739D-19  0.20477061D-03
 -0.26195582D-03  0.14987525D-18 -0.71847908D-04 -0.24704257D-03 -0.11025803D-18
 -0.54246393D-03  0.10329100D-02 -0.13183464D-17  0.14243328D-03  0.26552802D-03
  0.44878913D-03  0.67467706D-03  0.82891873D-03  0.70015438D-03  0.26407247D-03
 -0.13069094D-05 -0.11167404D-03 -0.20908905D-03 -0.35599199D-03 -0.55066548D-03
 -0.72520707D-03 -0.75353660D-03 -0.47883868D-03  0.32090655D-03  0.43892278D-03
  0.13695471D-02 -0.28832431D-02  0.47018850D-18  0.44083161D-18  0.31389836D-18
 -0.23461366D-03 -0.21996522D-03 -0.15662834D-03 -0.63164738D-04 -0.59220957D-04
 -0.42168849D-04 -0.30082717D-17 -0.73938020D-03 -0.28953404D-02  0.60290983D-17
 -0.15653906D-02  0.82097033D-03  0.29231302D-18  0.64727051D-04 -0.13789428D-03
 -0.11061134D-03  0.40326028D-03 -0.29264894D-03  0.42356735D-17  0.21616908D-17
  0.11931075D-02  0.39575347D-04  0.89234415D-03 -0.93191949D-03  0.41405475D-18
  0.10022740D-17 -0.31866541D-02  0.67992471D-05 -0.61572328D-04  0.54773081D-04
 -0.16489515D-17  0.15142977D-17 -0.79778009D-03  0.61630924D-18  0.12788554D-03
 -0.24264865D-03 -0.18533263D-17 -0.21607897D-03 -0.40919359D-04  0.43985856D-20
 -0.16757767D-03  0.76886531D-03 -0.38689473D-17 -0.41969007D-18  0.20477061D-03
 -0.26195582D-03  0.76404674D-18 -0.71847908D-04 -0.24704257D-03  0.49502346D-18
 -0.54246392D-03  0.10329100D-02  0.13294583D-17  0.14243328D-03  0.26552802D-03
  0.44878913D-03  0.67467706D-03  0.82891873D-03  0.70015438D-03  0.26407247D-03
 -0.13069094D-05 -0.11167404D-03 -0.20908905D-03 -0.35599199D-03 -0.55066548D-03
 -0.72520707D-03 -0.75353660D-03 -0.47883868D-03  0.32090655D-03  0.43892278D-03
  0.13695471D-02 -0.28832431D-02 -0.10653368D-17 -0.99882098D-18 -0.71122004D-18
  0.23461366D-03  0.21996522D-03  0.15662834D-03 -0.63164738D-04 -0.59220957D-04
 -0.42168849D-04  0.11394123D-17  0.73938020D-03 -0.28953404D-02 -0.47589929D-17
  0.15653906D-02  0.82097033D-03 -0.97707776D-19 -0.64727051D-04 -0.13789428D-03
 -0.11061134D-03  0.40326028D-03 -0.29264894D-03  0.19996872D-17  0.56888121D-18
 -0.11931075D-02  0.39575347D-04  0.89234415D-03 -0.93191949D-03  0.60694223D-18
 -0.25711481D-17  0.31866541D-02  0.67992470D-05 -0.61572328D-04  0.54773081D-04
 -0.13761903D-17 -0.61819037D-18  0.79778009D-03 -0.93335701D-18 -0.12788554D-03
 -0.24264865D-03  0.19108972D-17  0.21607897D-03 -0.40919359D-04  0.88917379D-18
  0.16757767D-03  0.76886531D-03 -0.13638791D-17  0.37602779D-18 -0.20477061D-03
 -0.26195582D-03  0.51763579D-18  0.71847908D-04 -0.24704257D-03 -0.16457192D-17
  0.54246392D-03  0.10329100D-02 -0.51836239D-18 -0.29227911D+00 -0.54461909D+00
 -0.92108742D+00 -0.13871066D+01 -0.17173280D+01 -0.14613686D+01 -0.55607771D+00
  0.26043491D-02  0.13805609D-02  0.25885645D-02  0.44039184D-02  0.68388204D-02
  0.90755124D-02  0.95643443D-02  0.59305036D-02 -0.39449733D-02 -0.29357102D-01
 -0.15358845D-02 -0.35038259D-02 -0.12054283D-16 -0.11577995D-16 -0.81192892D-17
 -0.47339674D-14 -0.45469191D-14 -0.31886135D-14  0.48723593D-02  0.46798428D-02
  0.32818288D-02  0.33067901D-17  0.21786106D-13  0.55991280D-03  0.33187706D-17
 -0.26029062D-12 -0.14060323D-02  0.66921617D-19  0.84683603D-14  0.23111506D-03
  0.25579937D-02 -0.13565411D-02 -0.12014526D-02  0.38107090D-17  0.24380392D-17
 -0.92036162D-14 -0.99526397D-03  0.21455490D-03  0.78070907D-03 -0.32169883D-17
 -0.12469703D-17 -0.71207880D-14 -0.20742672D-03  0.15483313D-03  0.52593595D-04
  0.11437461D-18 -0.48473162D-18  0.49991018D-14  0.16387355D-18  0.49939825D-14
 -0.18907179D-03 -0.30040051D-17 -0.34905679D-14  0.25436354D-03  0.25123845D-17
 -0.11491380D-13  0.31285182D-03  0.24288435D-18 -0.40653868D-18 -0.11680961D-13
 -0.34595965D-04  0.18322714D-17  0.13788330D-13  0.35875531D-03 -0.61265531D-18
  0.21254552D-13 -0.25496741D-03  0.92251021D-18  0.29227911D+00  0.54461909D+00
  0.92108742D+00  0.13871066D+01  0.17173280D+01  0.14613686D+01  0.55607771D+00
 -0.26043492D-02 -0.13805609D-02 -0.25885645D-02 -0.44039185D-02 -0.68388204D-02
 -0.90755124D-02 -0.95643443D-02 -0.59305036D-02  0.39449733D-02  0.29357102D-01
  0.15358846D-02  0.35038259D-02  0.61106449D-17  0.58692014D-17  0.41158892D-17
 -0.51438093D-14 -0.49405674D-14 -0.34646669D-14  0.48723593D-02  0.46798429D-02
  0.32818288D-02 -0.17959528D-17  0.25809285D-15  0.55991280D-03 -0.27172024D-18
  0.21882823D-12 -0.14060323D-02  0.44295166D-19 -0.26795636D-13  0.23111506D-03
 -0.25579937D-02  0.13565411D-02  0.12014526D-02 -0.66868259D-18 -0.47774756D-17
 -0.25134201D-13  0.99526397D-03 -0.21455490D-03 -0.78070907D-03  0.16093087D-17
  0.79281375D-18  0.29751465D-13  0.20742672D-03 -0.15483313D-03 -0.52593595D-04
 -0.82516171D-18 -0.37351491D-18  0.16017606D-13 -0.40851337D-20 -0.10978538D-14
 -0.18907179D-03 -0.12262724D-17 -0.60262001D-14  0.25436354D-03  0.12385278D-17
  0.93197616D-14  0.31285183D-03 -0.74673826D-17 -0.18118588D-18  0.51638371D-14
 -0.34595965D-04  0.42863123D-18 -0.91359011D-14  0.35875531D-03  0.11492641D-18
 -0.63556103D-14 -0.25496741D-03  0.37854499D-17
MO    2     MO 0.0        OCC NO =    2.0000000  ORB. ENERGY =  -14.535365
  0.34154951D-04  0.61599861D-04  0.90828959D-04  0.13541679D-02  0.13447583D-02
  0.14496277D-04 -0.23146453D-16 -0.28787055D-03 -0.13651215D-03  0.17588551D-16
  0.20376970D-03 -0.84576842D-03 -0.13745728D-17 -0.11799601D-03 -0.23159798D-03
  0.63977957D-04 -0.31897356D-03  0.25499560D-03 -0.79224914D-17  0.38563271D-15
  0.52730499D-03  0.45019827D-04 -0.83848776D-04  0.38828948D-04  0.47040771D-17
 -0.32263486D-16  0.80911632D-04  0.34154951D-04  0.61599861D-04  0.90828959D-04
  0.13541679D-02  0.13447583D-02  0.14496277D-04  0.29027533D-17  0.28787055D-03
 -0.13651215D-03 -0.59370203D-17 -0.20376970D-03 -0.84576842D-03 -0.20155996D-17
  0.11799601D-03 -0.23159798D-03  0.63977957D-04 -0.31897356D-03  0.25499560D-03
 -0.78050032D-18  0.23665349D-17 -0.52730499D-03  0.45019827D-04 -0.83848776D-04
  0.38828948D-04 -0.11795905D-17  0.10832185D-17 -0.80911632D-04  0.34154951D-04
  0.61599861D-04  0.90828958D-04  0.13541679D-02  0.13447583D-02  0.14496278D-04
 -0.11178161D-17 -0.28787055D-03  0.13651215D-03  0.71593068D-17  0.20376969D-03
  0.84576843D-03  0.11087447D-17 -0.11799601D-03  0.23159798D-03  0.63977956D-04
 -0.31897356D-03  0.25499560D-03 -0.20077835D-17  0.11280899D-16 -0.52730499D-03
  0.45019827D-04 -0.83848775D-04  0.38828949D-04 -0.34508829D-17 -0.26709431D-17
 -0.80911633D-04  0.34154951D-04  0.61599861D-04  0.90828958D-04  0.13541679D-02
  0.13447583D-02  0.14496278D-04 -0.17005768D-17  0.28787055D-03  0.13651215D-03
  0.92720005D-18 -0.20376969D-03  0.84576843D-03  0.17314707D-17  0.11799601D-03
  0.23159798D-03  0.63977956D-04 -0.31897356D-03  0.25499560D-03  0.17816470D-17
 -0.22765667D-17  0.52730499D-03  0.45019827D-04 -0.83848775D-04  0.38828949D-04
  0.50657480D-18  0.83320602D-18  0.80911633D-04  0.38827862D-03  0.72383963D-03
  0.12234165D-02  0.18391957D-02  0.22596644D-02  0.19086479D-02  0.71987175D-03
 -0.35626854D-05 -0.29398316D-03 -0.55042923D-03 -0.93715287D-03 -0.14496330D-02
 -0.19091156D-02 -0.19836934D-02 -0.12605481D-02  0.84479004D-03  0.97481073D-03
 -0.29665668D-02 -0.71823287D-04 -0.14129671D-16 -0.13247464D-16 -0.94329838D-17
 -0.47610196D-03 -0.44637585D-03 -0.31784620D-03  0.29341478D-03  0.27509501D-03
  0.19588403D-03  0.26973124D-17 -0.71292292D-03 -0.17352038D-03 -0.13845473D-17
 -0.22881783D-03 -0.94950499D-03  0.17151303D-18 -0.63475301D-05 -0.68330014D-05
 -0.21457233D-03  0.49016055D-04  0.16555628D-03 -0.10081394D-16 -0.28969228D-17
 -0.23382481D-03  0.46502117D-03 -0.53130926D-03  0.66288086D-04 -0.10589400D-16
  0.54753090D-18  0.64828541D-03  0.16740837D-05 -0.77149734D-04  0.75475651D-04
 -0.19338852D-17  0.93148350D-18  0.86224215D-04 -0.67561320D-17  0.27154119D-05
  0.24716981D-03  0.14865113D-16 -0.40240677D-03  0.10528232D-03  0.54032829D-17
  0.39426054D-03 -0.84679174D-03  0.28415800D-17  0.75187326D-18 -0.12212599D-03
  0.87194172D-04 -0.30311786D-17 -0.84594837D-05  0.97075688D-04  0.77555879D-18
  0.37483744D-03 -0.35865820D-03 -0.23872849D-17  0.38827862D-03  0.72383963D-03
  0.12234165D-02  0.18391957D-02  0.22596644D-02  0.19086479D-02  0.71987175D-03
 -0.35626854D-05 -0.29398316D-03 -0.55042923D-03 -0.93715287D-03 -0.14496330D-02
 -0.19091156D-02 -0.19836934D-02 -0.12605481D-02  0.84479004D-03  0.97481073D-03
 -0.29665668D-02 -0.71823286D-04 -0.34762491D-17 -0.32592045D-17 -0.23207478D-17
  0.47610196D-03  0.44637585D-03  0.31784620D-03  0.29341478D-03  0.27509501D-03
  0.19588403D-03  0.23484255D-17  0.71292292D-03 -0.17352038D-03  0.15235889D-17
  0.22881783D-03 -0.94950499D-03  0.56934493D-18  0.63475301D-05 -0.68330014D-05
 -0.21457233D-03  0.49016055D-04  0.16555628D-03 -0.46086046D-17 -0.15182636D-17
  0.23382481D-03  0.46502117D-03 -0.53130926D-03  0.66288086D-04  0.15273416D-18
  0.58505836D-17 -0.64828541D-03  0.16740837D-05 -0.77149734D-04  0.75475651D-04
 -0.70123499D-18  0.55089562D-18 -0.86224215D-04  0.91042518D-18 -0.27154119D-05
  0.24716981D-03 -0.36448634D-17  0.40240677D-03  0.10528232D-03  0.91358787D-18
 -0.39426054D-03 -0.84679174D-03 -0.97346183D-18 -0.66830808D-18  0.12212599D-03
  0.87194172D-04  0.28716641D-17  0.84594837D-05  0.97075688D-04 -0.86673982D-18
 -0.37483744D-03 -0.35865820D-03 -0.69219728D-19  0.38827862D-03  0.72383962D-03
  0.12234165D-02  0.18391957D-02  0.22596644D-02  0.19086478D-02  0.71987174D-03
 -0.35626854D-05 -0.29398316D-03 -0.55042923D-03 -0.93715286D-03 -0.14496330D-02
 -0.19091156D-02 -0.19836934D-02 -0.12605481D-02  0.84479004D-03  0.97481073D-03
 -0.29665668D-02 -0.71823265D-04  0.12661034D-17  0.11870524D-17  0.84525201D-18
 -0.47610196D-03 -0.44637585D-03 -0.31784620D-03 -0.29341478D-03 -0.27509501D-03
 -0.19588403D-03 -0.30508275D-17 -0.71292292D-03  0.17352039D-03 -0.18965171D-17
 -0.22881783D-03  0.94950498D-03 -0.18994503D-18 -0.63475307D-05  0.68330026D-05
 -0.21457233D-03  0.49016053D-04  0.16555628D-03 -0.33806232D-17 -0.21183720D-17
  0.23382481D-03  0.46502117D-03 -0.53130926D-03  0.66288090D-04 -0.40666710D-17
  0.12163648D-17 -0.64828539D-03  0.16740837D-05 -0.77149734D-04  0.75475650D-04
  0.15154360D-17  0.12453928D-17 -0.86224211D-04  0.14160615D-17  0.27154113D-05
 -0.24716981D-03 -0.49042233D-17 -0.40240677D-03 -0.10528232D-03  0.65603874D-18
  0.39426054D-03  0.84679174D-03 -0.18499629D-17 -0.29040462D-18 -0.12212599D-03
 -0.87194171D-04  0.12478890D-17 -0.84594835D-05 -0.97075687D-04 -0.37667519D-18
  0.37483744D-03  0.35865820D-03  0.72983427D-17  0.38827862D-03  0.72383962D-03
  0.12234165D-02  0.18391957D-02  0.22596644D-02  0.19086478D-02  0.71987174D-03
 -0.35626854D-05 -0.29398316D-03 -0.55042923D-03 -0.93715286D-03 -0.14496330D-02
 -0.19091156D-02 -0.19836934D-02 -0.12605481D-02  0.84479004D-03  0.97481073D-03
 -0.29665668D-02 -0.71823265D-04  0.19648098D-17  0.18421340D-17  0.13117092D-17
  0.47610196D-03  0.44637585D-03  0.31784620D-03 -0.29341478D-03 -0.27509501D-03
 -0.19588403D-03 -0.32443462D-17  0.71292292D-03  0.17352039D-03 -0.66313782D-18
  0.22881783D-03  0.94950498D-03 -0.46256760D-18  0.63475307D-05  0.68330026D-05
 -0.21457233D-03  0.49016053D-04  0.16555628D-03 -0.88433778D-19 -0.32320651D-17
 -0.23382481D-03  0.46502117D-03 -0.53130926D-03  0.66288090D-04 -0.32958775D-17
  0.70774184D-17  0.64828539D-03  0.16740837D-05 -0.77149734D-04  0.75475650D-04
  0.11370461D-17  0.30275157D-18  0.86224211D-04  0.85598544D-18 -0.27154113D-05