 Molden2AIM, Version 4.0.0 (06/02/2016)           Time: Mon Jul  2 23:21:41 2018
GAUSSIAN             21 MOL ORBITALS    558 PRIMITIVES       10 NUCLEI
  H    1    (CENTRE  1)   0.00000000  4.07482778  2.11297648  CHARGE =  1.0
  H    2    (CENTRE  2)   0.00000000 -4.07482778  2.11297648  CHARGE =  1.0
  H    3    (CENTRE  3)   0.00000000  0.00000000 -4.53190907  CHARGE =  1.0
  H    4    (CENTRE  4)   0.00000000  0.00000000  4.61591873  CHARGE =  1.0
  C    5    (CENTRE  5)   0.00000000  2.23566317  1.17235585  CHARGE =  6.0
  C    6    (CENTRE  6)   0.00000000 -2.23566317  1.17235585  CHARGE =  6.0
  C    7    (CENTRE  7)   0.00000000  0.00000000 -2.46803901  CHARGE =  6.0
  C    8    (CENTRE  8)   0.00000000  0.00000000  2.55715472  CHARGE =  6.0
  N    9    (CENTRE  9)   0.00000000  2.25989702 -1.35026223  CHARGE =  7.0
  N   10    (CENTRE 10)   0.00000000 -2.25989702 -1.35026223  CHARGE =  7.0
CENTRE ASSIGNMENTS    1  1  1  1  1  1  1  1  1  1  1  1  1  1  1  1  1  1  1  1
CENTRE ASSIGNMENTS    1  1  1  1  1  1  1  2  2  2  2  2  2  2  2  2  2  2  2  2
CENTRE ASSIGNMENTS    2  2  2  2  2  2  2  2  2  2  2  2  2  2  3  3  3  3  3  3
CENTRE ASSIGNMENTS    3  3  3  3  3  3  3  3  3  3  3  3  3  3  3  3  3  3  3  3
CENTRE ASSIGNMENTS    3  4  4  4  4  4  4  4  4  4  4  4  4  4  4  4  4  4  4  4
CENTRE ASSIGNMENTS    4  4  4  4  4  4  4  4  5  5  5  5  5  5  5  5  5  5  5  5
CENTRE ASSIGNMENTS    5  5  5  5  5  5  5  5  5  5  5  5  5  5  5  5  5  5  5  5
CENTRE ASSIGNMENTS    5  5  5  5  5  5  5  5  5  5  5  5  5  5  5  5  5  5  5  5
CENTRE ASSIGNMENTS    5  5  5  5  5  5  5  5  5  5  5  5  5  5  5  5  5  5  5  5
CENTRE ASSIGNMENTS    5  5  5  6  6  6  6  6  6  6  6  6  6  6  6  6  6  6  6  6
CENTRE ASSIGNMENTS    6  6  6  6  6  6  6  6  6  6  6  6  6  6  6  6  6  6  6  6
CENTRE ASSIGNMENTS    6  6  6  6  6  6  6  6  6  6  6  6  6  6  6  6  6  6  6  6
CENTRE ASSIGNMENTS    6  6  6  6  6  6  6  6  6  6  6  6  6  6  6  6  6  6  7  7
CENTRE ASSIGNMENTS    7  7  7  7  7  7  7  7  7  7  7  7  7  7  7  7  7  7  7  7
CENTRE ASSIGNMENTS    7  7  7  7  7  7  7  7  7  7  7  7  7  7  7  7  7  7  7  7
CENTRE ASSIGNMENTS    7  7  7  7  7  7  7  7  7  7  7  7  7  7  7  7  7  7  7  7
CENTRE ASSIGNMENTS    7  7  7  7  7  7  7  7  7  7  7  7  7  8  8  8  8  8  8  8
CENTRE ASSIGNMENTS    8  8  8  8  8  8  8  8  8  8  8  8  8  8  8  8  8  8  8  8
CENTRE ASSIGNMENTS    8  8  8  8  8  8  8  8  8  8  8  8  8  8  8  8  8  8  8  8
CENTRE ASSIGNMENTS    8  8  8  8  8  8  8  8  8  8  8  8  8  8  8  8  8  8  8  8
CENTRE ASSIGNMENTS    8  8  8  8  8  8  8  8  9  9  9  9  9  9  9  9  9  9  9  9
CENTRE ASSIGNMENTS    9  9  9  9  9  9  9  9  9  9  9  9  9  9  9  9  9  9  9  9
CENTRE ASSIGNMENTS    9  9  9  9  9  9  9  9  9  9  9  9  9  9  9  9  9  9  9  9
CENTRE ASSIGNMENTS    9  9  9  9  9  9  9  9  9  9  9  9  9  9  9  9  9  9  9  9
CENTRE ASSIGNMENTS    9  9  9 10 10 10 10 10 10 10 10 10 10 10 10 10 10 10 10 10
CENTRE ASSIGNMENTS   10 10 10 10 10 10 10 10 10 10 10 10 10 10 10 10 10 10 10 10
CENTRE ASSIGNMENTS   10 10 10 10 10 10 10 10 10 10 10 10 10 10 10 10 10 10 10 10
CENTRE ASSIGNMENTS   10 10 10 10 10 10 10 10 10 10 10 10 10 10 10 10 10 10
TYPE ASSIGNMENTS      1  1  1  1  1  1  2  3  4  2  3  4  2  3  4  5  6  7  8  9
TYPE ASSIGNMENTS     10  5  6  7  8  9 10  1  1  1  1  1  1  2  3  4  2  3  4  2
TYPE ASSIGNMENTS      3  4  5  6  7  8  9 10  5  6  7  8  9 10  1  1  1  1  1  1
TYPE ASSIGNMENTS      2  3  4  2  3  4  2  3  4  5  6  7  8  9 10  5  6  7  8  9
TYPE ASSIGNMENTS     10  1  1  1  1  1  1  2  3  4  2  3  4  2  3  4  5  6  7  8
TYPE ASSIGNMENTS      9 10  5  6  7  8  9 10  1  1  1  1  1  1  1  1  1  1  1  1
TYPE ASSIGNMENTS      1  1  1  1  1  1  1  2  2  2  3  3  3  4  4  4  2  3  4  2
TYPE ASSIGNMENTS      3  4  2  3  4  5  6  7  8  9 10  5  6  7  8  9 10  5  6  7
TYPE ASSIGNMENTS      8  9 10 11 12 13 17 14 15 18 19 16 20 11 12 13 17 14 15 18
TYPE ASSIGNMENTS     19 16 20  1  1  1  1  1  1  1  1  1  1  1  1  1  1  1  1  1
TYPE ASSIGNMENTS      1  1  2  2  2  3  3  3  4  4  4  2  3  4  2  3  4  2  3  4
TYPE ASSIGNMENTS      5  6  7  8  9 10  5  6  7  8  9 10  5  6  7  8  9 10 11 12
TYPE ASSIGNMENTS     13 17 14 15 18 19 16 20 11 12 13 17 14 15 18 19 16 20  1  1
TYPE ASSIGNMENTS      1  1  1  1  1  1  1  1  1  1  1  1  1  1  1  1  1  2  2  2
TYPE ASSIGNMENTS      3  3  3  4  4  4  2  3  4  2  3  4  2  3  4  5  6  7  8  9
TYPE ASSIGNMENTS     10  5  6  7  8  9 10  5  6  7  8  9 10 11 12 13 17 14 15 18
TYPE ASSIGNMENTS     19 16 20 11 12 13 17 14 15 18 19 16 20  1  1  1  1  1  1  1
TYPE ASSIGNMENTS      1  1  1  1  1  1  1  1  1  1  1  1  2  2  2  3  3  3  4  4
TYPE ASSIGNMENTS      4  2  3  4  2  3  4  2  3  4  5  6  7  8  9 10  5  6  7  8
TYPE ASSIGNMENTS      9 10  5  6  7  8  9 10 11 12 13 17 14 15 18 19 16 20 11 12
TYPE ASSIGNMENTS     13 17 14 15 18 19 16 20  1  1  1  1  1  1  1  1  1  1  1  1
TYPE ASSIGNMENTS      1  1  1  1  1  1  1  2  2  2  3  3  3  4  4  4  2  3  4  2
TYPE ASSIGNMENTS      3  4  2  3  4  5  6  7  8  9 10  5  6  7  8  9 10  5  6  7
TYPE ASSIGNMENTS      8  9 10 11 12 13 17 14 15 18 19 16 20 11 12 13 17 14 15 18
TYPE ASSIGNMENTS     19 16 20  1  1  1  1  1  1  1  1  1  1  1  1  1  1  1  1  1
TYPE ASSIGNMENTS      1  1  2  2  2  3  3  3  4  4  4  2  3  4  2  3  4  2  3  4
TYPE ASSIGNMENTS      5  6  7  8  9 10  5  6  7  8  9 10  5  6  7  8  9 10 11 12
TYPE ASSIGNMENTS     13 17 14 15 18 19 16 20 11 12 13 17 14 15 18 19 16 20
EXPONENTS  0.3387000D+02 0.5095000D+01 0.1159000D+01 0.3258000D+00 0.1027000D+00
EXPONENTS  0.2526000D-01 0.1407000D+01 0.1407000D+01 0.1407000D+01 0.3880000D+00
EXPONENTS  0.3880000D+00 0.3880000D+00 0.1020000D+00 0.1020000D+00 0.1020000D+00
EXPONENTS  0.1057000D+01 0.1057000D+01 0.1057000D+01 0.1057000D+01 0.1057000D+01
EXPONENTS  0.1057000D+01 0.2470000D+00 0.2470000D+00 0.2470000D+00 0.2470000D+00
EXPONENTS  0.2470000D+00 0.2470000D+00 0.3387000D+02 0.5095000D+01 0.1159000D+01
EXPONENTS  0.3258000D+00 0.1027000D+00 0.2526000D-01 0.1407000D+01 0.1407000D+01
EXPONENTS  0.1407000D+01 0.3880000D+00 0.3880000D+00 0.3880000D+00 0.1020000D+00
EXPONENTS  0.1020000D+00 0.1020000D+00 0.1057000D+01 0.1057000D+01 0.1057000D+01
EXPONENTS  0.1057000D+01 0.1057000D+01 0.1057000D+01 0.2470000D+00 0.2470000D+00
EXPONENTS  0.2470000D+00 0.2470000D+00 0.2470000D+00 0.2470000D+00 0.3387000D+02
EXPONENTS  0.5095000D+01 0.1159000D+01 0.3258000D+00 0.1027000D+00 0.2526000D-01
EXPONENTS  0.1407000D+01 0.1407000D+01 0.1407000D+01 0.3880000D+00 0.3880000D+00
EXPONENTS  0.3880000D+00 0.1020000D+00 0.1020000D+00 0.1020000D+00 0.1057000D+01
EXPONENTS  0.1057000D+01 0.1057000D+01 0.1057000D+01 0.1057000D+01 0.1057000D+01
EXPONENTS  0.2470000D+00 0.2470000D+00 0.2470000D+00 0.2470000D+00 0.2470000D+00
EXPONENTS  0.2470000D+00 0.3387000D+02 0.5095000D+01 0.1159000D+01 0.3258000D+00
EXPONENTS  0.1027000D+00 0.2526000D-01 0.1407000D+01 0.1407000D+01 0.1407000D+01
EXPONENTS  0.3880000D+00 0.3880000D+00 0.3880000D+00 0.1020000D+00 0.1020000D+00
EXPONENTS  0.1020000D+00 0.1057000D+01 0.1057000D+01 0.1057000D+01 0.1057000D+01
EXPONENTS  0.1057000D+01 0.1057000D+01 0.2470000D+00 0.2470000D+00 0.2470000D+00
EXPONENTS  0.2470000D+00 0.2470000D+00 0.2470000D+00 0.8236000D+04 0.1235000D+04
EXPONENTS  0.2808000D+03 0.7927000D+02 0.2559000D+02 0.8997000D+01 0.3319000D+01
EXPONENTS  0.3643000D+00 0.8236000D+04 0.1235000D+04 0.2808000D+03 0.7927000D+02
EXPONENTS  0.2559000D+02 0.8997000D+01 0.3319000D+01 0.3643000D+00 0.9059000D+00
EXPONENTS  0.1285000D+00 0.4402000D-01 0.1871000D+02 0.4133000D+01 0.1200000D+01
EXPONENTS  0.1871000D+02 0.4133000D+01 0.1200000D+01 0.1871000D+02 0.4133000D+01
EXPONENTS  0.1200000D+01 0.3827000D+00 0.3827000D+00 0.3827000D+00 0.1209000D+00
EXPONENTS  0.1209000D+00 0.1209000D+00 0.3569000D-01 0.3569000D-01 0.3569000D-01
EXPONENTS  0.1097000D+01 0.1097000D+01 0.1097000D+01 0.1097000D+01 0.1097000D+01
EXPONENTS  0.1097000D+01 0.3180000D+00 0.3180000D+00 0.3180000D+00 0.3180000D+00
EXPONENTS  0.3180000D+00 0.3180000D+00 0.1000000D+00 0.1000000D+00 0.1000000D+00
EXPONENTS  0.1000000D+00 0.1000000D+00 0.1000000D+00 0.7610000D+00 0.7610000D+00
EXPONENTS  0.7610000D+00 0.7610000D+00 0.7610000D+00 0.7610000D+00 0.7610000D+00
EXPONENTS  0.7610000D+00 0.7610000D+00 0.7610000D+00 0.2680000D+00 0.2680000D+00
EXPONENTS  0.2680000D+00 0.2680000D+00 0.2680000D+00 0.2680000D+00 0.2680000D+00
EXPONENTS  0.2680000D+00 0.2680000D+00 0.2680000D+00 0.8236000D+04 0.1235000D+04
EXPONENTS  0.2808000D+03 0.7927000D+02 0.2559000D+02 0.8997000D+01 0.3319000D+01
EXPONENTS  0.3643000D+00 0.8236000D+04 0.1235000D+04 0.2808000D+03 0.7927000D+02
EXPONENTS  0.2559000D+02 0.8997000D+01 0.3319000D+01 0.3643000D+00 0.9059000D+00
EXPONENTS  0.1285000D+00 0.4402000D-01 0.1871000D+02 0.4133000D+01 0.1200000D+01
EXPONENTS  0.1871000D+02 0.4133000D+01 0.1200000D+01 0.1871000D+02 0.4133000D+01
EXPONENTS  0.1200000D+01 0.3827000D+00 0.3827000D+00 0.3827000D+00 0.1209000D+00
EXPONENTS  0.1209000D+00 0.1209000D+00 0.3569000D-01 0.3569000D-01 0.3569000D-01
EXPONENTS  0.1097000D+01 0.1097000D+01 0.1097000D+01 0.1097000D+01 0.1097000D+01
EXPONENTS  0.1097000D+01 0.3180000D+00 0.3180000D+00 0.3180000D+00 0.3180000D+00
EXPONENTS  0.3180000D+00 0.3180000D+00 0.1000000D+00 0.1000000D+00 0.1000000D+00
EXPONENTS  0.1000000D+00 0.1000000D+00 0.1000000D+00 0.7610000D+00 0.7610000D+00
EXPONENTS  0.7610000D+00 0.7610000D+00 0.7610000D+00 0.7610000D+00 0.7610000D+00
EXPONENTS  0.7610000D+00 0.7610000D+00 0.7610000D+00 0.2680000D+00 0.2680000D+00
EXPONENTS  0.2680000D+00 0.2680000D+00 0.2680000D+00 0.2680000D+00 0.2680000D+00
EXPONENTS  0.2680000D+00 0.2680000D+00 0.2680000D+00 0.8236000D+04 0.1235000D+04
EXPONENTS  0.2808000D+03 0.7927000D+02 0.2559000D+02 0.8997000D+01 0.3319000D+01
EXPONENTS  0.3643000D+00 0.8236000D+04 0.1235000D+04 0.2808000D+03 0.7927000D+02
EXPONENTS  0.2559000D+02 0.8997000D+01 0.3319000D+01 0.3643000D+00 0.9059000D+00
EXPONENTS  0.1285000D+00 0.4402000D-01 0.1871000D+02 0.4133000D+01 0.1200000D+01
EXPONENTS  0.1871000D+02 0.4133000D+01 0.1200000D+01 0.1871000D+02 0.4133000D+01
EXPONENTS  0.1200000D+01 0.3827000D+00 0.3827000D+00 0.3827000D+00 0.1209000D+00
EXPONENTS  0.1209000D+00 0.1209000D+00 0.3569000D-01 0.3569000D-01 0.3569000D-01
EXPONENTS  0.1097000D+01 0.1097000D+01 0.1097000D+01 0.1097000D+01 0.1097000D+01
EXPONENTS  0.1097000D+01 0.3180000D+00 0.3180000D+00 0.3180000D+00 0.3180000D+00
EXPONENTS  0.3180000D+00 0.3180000D+00 0.1000000D+00 0.1000000D+00 0.1000000D+00
EXPONENTS  0.1000000D+00 0.1000000D+00 0.1000000D+00 0.7610000D+00 0.7610000D+00
EXPONENTS  0.7610000D+00 0.7610000D+00 0.7610000D+00 0.7610000D+00 0.7610000D+00
EXPONENTS  0.7610000D+00 0.7610000D+00 0.7610000D+00 0.2680000D+00 0.2680000D+00
EXPONENTS  0.2680000D+00 0.2680000D+00 0.2680000D+00 0.2680000D+00 0.2680000D+00
EXPONENTS  0.2680000D+00 0.2680000D+00 0.2680000D+00 0.8236000D+04 0.1235000D+04
EXPONENTS  0.2808000D+03 0.7927000D+02 0.2559000D+02 0.8997000D+01 0.3319000D+01
EXPONENTS  0.3643000D+00 0.8236000D+04 0.1235000D+04 0.2808000D+03 0.7927000D+02
EXPONENTS  0.2559000D+02 0.8997000D+01 0.3319000D+01 0.3643000D+00 0.9059000D+00
EXPONENTS  0.1285000D+00 0.4402000D-01 0.1871000D+02 0.4133000D+01 0.1200000D+01
EXPONENTS  0.1871000D+02 0.4133000D+01 0.1200000D+01 0.1871000D+02 0.4133000D+01
EXPONENTS  0.1200000D+01 0.3827000D+00 0.3827000D+00 0.3827000D+00 0.1209000D+00
EXPONENTS  0.1209000D+00 0.1209000D+00 0.3569000D-01 0.3569000D-01 0.3569000D-01
EXPONENTS  0.1097000D+01 0.1097000D+01 0.1097000D+01 0.1097000D+01 0.1097000D+01
EXPONENTS  0.1097000D+01 0.3180000D+00 0.3180000D+00 0.3180000D+00 0.3180000D+00
EXPONENTS  0.3180000D+00 0.3180000D+00 0.1000000D+00 0.1000000D+00 0.1000000D+00
EXPONENTS  0.1000000D+00 0.1000000D+00 0.1000000D+00 0.7610000D+00 0.7610000D+00
EXPONENTS  0.7610000D+00 0.7610000D+00 0.7610000D+00 0.7610000D+00 0.7610000D+00
EXPONENTS  0.7610000D+00 0.7610000D+00 0.7610000D+00 0.2680000D+00 0.2680000D+00
EXPONENTS  0.2680000D+00 0.2680000D+00 0.2680000D+00 0.2680000D+00 0.2680000D+00
EXPONENTS  0.2680000D+00 0.2680000D+00 0.2680000D+00 0.1142000D+05 0.1712000D+04
EXPONENTS  0.3893000D+03 0.1100000D+03 0.3557000D+02 0.1254000D+02 0.4644000D+01
EXPONENTS  0.5118000D+00 0.1142000D+05 0.1712000D+04 0.3893000D+03 0.1100000D+03
EXPONENTS  0.3557000D+02 0.1254000D+02 0.4644000D+01 0.5118000D+00 0.1293000D+01
EXPONENTS  0.1787000D+00 0.5760000D-01 0.2663000D+02 0.5948000D+01 0.1742000D+01
EXPONENTS  0.2663000D+02 0.5948000D+01 0.1742000D+01 0.2663000D+02 0.5948000D+01
EXPONENTS  0.1742000D+01 0.5550000D+00 0.5550000D+00 0.5550000D+00 0.1725000D+00
EXPONENTS  0.1725000D+00 0.1725000D+00 0.4910000D-01 0.4910000D-01 0.4910000D-01
EXPONENTS  0.1654000D+01 0.1654000D+01 0.1654000D+01 0.1654000D+01 0.1654000D+01
EXPONENTS  0.1654000D+01 0.4690000D+00 0.4690000D+00 0.4690000D+00 0.4690000D+00
EXPONENTS  0.4690000D+00 0.4690000D+00 0.1510000D+00 0.1510000D+00 0.1510000D+00
EXPONENTS  0.1510000D+00 0.1510000D+00 0.1510000D+00 0.1093000D+01 0.1093000D+01
EXPONENTS  0.1093000D+01 0.1093000D+01 0.1093000D+01 0.1093000D+01 0.1093000D+01
EXPONENTS  0.1093000D+01 0.1093000D+01 0.1093000D+01 0.3640000D+00 0.3640000D+00
EXPONENTS  0.3640000D+00 0.3640000D+00 0.3640000D+00 0.3640000D+00 0.3640000D+00
EXPONENTS  0.3640000D+00 0.3640000D+00 0.3640000D+00 0.1142000D+05 0.1712000D+04
EXPONENTS  0.3893000D+03 0.1100000D+03 0.3557000D+02 0.1254000D+02 0.4644000D+01
EXPONENTS  0.5118000D+00 0.1142000D+05 0.1712000D+04 0.3893000D+03 0.1100000D+03
EXPONENTS  0.3557000D+02 0.1254000D+02 0.4644000D+01 0.5118000D+00 0.1293000D+01
EXPONENTS  0.1787000D+00 0.5760000D-01 0.2663000D+02 0.5948000D+01 0.1742000D+01
EXPONENTS  0.2663000D+02 0.5948000D+01 0.1742000D+01 0.2663000D+02 0.5948000D+01
EXPONENTS  0.1742000D+01 0.5550000D+00 0.5550000D+00 0.5550000D+00 0.1725000D+00
EXPONENTS  0.1725000D+00 0.1725000D+00 0.4910000D-01 0.4910000D-01 0.4910000D-01
EXPONENTS  0.1654000D+01 0.1654000D+01 0.1654000D+01 0.1654000D+01 0.1654000D+01
EXPONENTS  0.1654000D+01 0.4690000D+00 0.4690000D+00 0.4690000D+00 0.4690000D+00
EXPONENTS  0.4690000D+00 0.4690000D+00 0.1510000D+00 0.1510000D+00 0.1510000D+00
EXPONENTS  0.1510000D+00 0.1510000D+00 0.1510000D+00 0.1093000D+01 0.1093000D+01
EXPONENTS  0.1093000D+01 0.1093000D+01 0.1093000D+01 0.1093000D+01 0.1093000D+01
EXPONENTS  0.1093000D+01 0.1093000D+01 0.1093000D+01 0.3640000D+00 0.3640000D+00
EXPONENTS  0.3640000D+00 0.3640000D+00 0.3640000D+00 0.3640000D+00 0.3640000D+00
EXPONENTS  0.3640000D+00 0.3640000D+00 0.3640000D+00
MO    1     MO 0.0        OCC NO =    2.0000000  ORB. ENERGY =  -14.523297
  0.48678487D-04  0.87793656D-04  0.12945169D-03 -0.10169558D-02 -0.32304154D-02
  0.12824741D-04 -0.74226502D-16 -0.30510392D-03 -0.10428987D-04  0.36430886D-16
  0.93050885D-03  0.16560854D-03 -0.30530256D-18  0.19446055D-03  0.46869302D-03
  0.13196377D-03  0.35251292D-04 -0.16721507D-03 -0.62733496D-16 -0.45505788D-16
 -0.15795894D-03  0.53201981D-04 -0.16933549D-04 -0.36268432D-04  0.37633732D-17
  0.29045548D-16 -0.17135798D-04  0.48678487D-04  0.87793657D-04  0.12945170D-03
 -0.10169558D-02 -0.32304154D-02  0.12824741D-04 -0.36634579D-17  0.30510392D-03
 -0.10428988D-04  0.35465215D-17 -0.93050885D-03  0.16560854D-03 -0.20243404D-18
 -0.19446055D-03  0.46869302D-03  0.13196378D-03  0.35251292D-04 -0.16721507D-03
  0.15369162D-17 -0.13140945D-18  0.15795895D-03  0.53201983D-04 -0.16933550D-04
 -0.36268432D-04  0.50635147D-18 -0.48710523D-19  0.17135799D-04  0.10461728D-03
  0.18868158D-03  0.27821088D-03  0.30360439D-02  0.24588239D-02  0.30539200D-04
  0.38395620D-18 -0.24757965D-12  0.76018825D-03 -0.24576045D-17  0.40448812D-11
  0.34690981D-03  0.48428581D-18  0.90788210D-12  0.39549245D-03  0.24503635D-03
 -0.45172120D-03  0.20668485D-03  0.86431286D-18 -0.19482149D-17  0.47438787D-11
  0.11317588D-03 -0.60834195D-04 -0.52341685D-04 -0.73826050D-18 -0.35990859D-18
  0.12016488D-11 -0.36258429D-04 -0.65393570D-04 -0.96422781D-04  0.34742708D-02
  0.43962929D-02 -0.26460113D-04 -0.25276212D-17  0.41815240D-12  0.22388233D-05
  0.17951978D-17 -0.55955834D-11 -0.28216933D-02  0.43654682D-18 -0.92843956D-13
 -0.53934418D-03 -0.37229694D-03 -0.14758188D-03  0.51987882D-03 -0.20495598D-17
 -0.95112229D-18  0.40302533D-11 -0.71259564D-04 -0.10415107D-03  0.17541063D-03
  0.36454133D-18 -0.57319464D-18  0.42684622D-12  0.25532261D-04  0.47597939D-04
  0.80448902D-04  0.12094105D-03  0.14859006D-03  0.12550806D-03  0.47337021D-04
 -0.23427356D-06 -0.23908617D-04 -0.44764474D-04 -0.76215348D-04 -0.11789355D-03
 -0.15526166D-03 -0.16132681D-03 -0.10251595D-03  0.68703804D-04  0.52637430D-04
 -0.63336150D-03 -0.77512433D-03 -0.51574899D-18 -0.48354746D-18 -0.34431460D-18
  0.18672579D-03  0.17506730D-03  0.12465835D-03 -0.30395091D-03 -0.28497330D-03
 -0.20291796D-03  0.29419272D-17  0.56351399D-03 -0.16769861D-02  0.98741428D-18
 -0.10094263D-03  0.26720310D-03  0.12382344D-18  0.11886791D-04 -0.46680207D-05
 -0.26752892D-03 -0.31615574D-03  0.58368465D-03 -0.16533408D-17  0.64592664D-18
  0.11439397D-03  0.46409193D-04  0.79593204D-03 -0.84234124D-03  0.20871342D-17
  0.27750095D-19  0.21810016D-02 -0.96209361D-05  0.42902604D-03 -0.41940511D-03
 -0.15679182D-18  0.13877084D-17  0.69796278D-04 -0.27940648D-17 -0.44736104D-04
  0.26895991D-03  0.68840415D-17  0.18937175D-03 -0.19347196D-03  0.14981528D-17
 -0.55163437D-04 -0.61340775D-03 -0.10513332D-17 -0.22561743D-19 -0.11196451D-03
  0.19441642D-03  0.82533359D-18  0.33835187D-04 -0.17277976D-03 -0.75764837D-18
  0.30205833D-03 -0.41046949D-03  0.20659351D-17  0.25532265D-04  0.47597948D-04
  0.80448917D-04  0.12094107D-03  0.14859008D-03  0.12550808D-03  0.47337030D-04
 -0.23427360D-06 -0.23908620D-04 -0.44764481D-04 -0.76215359D-04 -0.11789357D-03
 -0.15526169D-03 -0.16132684D-03 -0.10251596D-03  0.68703814D-04  0.52637444D-04
 -0.63336152D-03 -0.77512434D-03 -0.89088961D-18 -0.83526563D-18 -0.59475889D-18
 -0.18672579D-03 -0.17506730D-03 -0.12465835D-03 -0.30395091D-03 -0.28497330D-03
 -0.20291797D-03 -0.12578330D-17 -0.56351401D-03 -0.16769861D-02 -0.65550359D-17
  0.10094265D-03  0.26720309D-03 -0.16741651D-18 -0.11886791D-04 -0.46680211D-05
 -0.26752892D-03 -0.31615574D-03  0.58368466D-03  0.85985186D-18  0.28356485D-17
 -0.11439396D-03  0.46409198D-04  0.79593205D-03 -0.84234124D-03 -0.18387876D-17
 -0.43933262D-17 -0.21810017D-02 -0.96209358D-05  0.42902604D-03 -0.41940511D-03
 -0.11506249D-17 -0.75040145D-18 -0.69796278D-04 -0.10676838D-18  0.44736104D-04
  0.26895991D-03 -0.61097565D-18 -0.18937175D-03 -0.19347196D-03  0.93128079D-18
  0.55163436D-04 -0.61340776D-03  0.72539390D-18  0.17875796D-18  0.11196451D-03
  0.19441642D-03 -0.64160197D-18 -0.33835190D-04 -0.17277977D-03  0.10532809D-18
 -0.30205833D-03 -0.41046950D-03  0.38064178D-18  0.55984826D-03  0.10436845D-02
  0.17640106D-02  0.26518857D-02  0.32581480D-02  0.27520269D-02  0.10379633D-02
 -0.51369382D-05 -0.42444277D-03 -0.79469079D-03 -0.13530291D-02 -0.20929302D-02
 -0.27563155D-02 -0.28639884D-02 -0.18199360D-02  0.12196788D-02  0.15948689D-02
 -0.14873670D-02 -0.18942859D-03  0.90354041D-18  0.84712656D-18  0.60320458D-18
 -0.56601973D-11 -0.53067948D-11 -0.37787540D-11  0.39043571D-03  0.36605830D-03
  0.26065532D-03 -0.81099895D-18 -0.59092500D-11  0.54967013D-03  0.23773957D-18
  0.70669037D-11  0.19071031D-02 -0.64009633D-19  0.96668537D-13  0.29764264D-05
 -0.17546621D-03  0.38464071D-03 -0.20917451D-03 -0.66688726D-18  0.20902265D-17
 -0.37437076D-11  0.68155253D-03 -0.60030136D-03 -0.81251172D-04 -0.34536507D-18
 -0.19075514D-17  0.20788592D-11 -0.12255674D-04 -0.10926806D-05  0.13348355D-04
  0.42215244D-18  0.58367657D-18  0.14334844D-11 -0.19652710D-18  0.17720407D-11
  0.63226552D-03  0.15774984D-18 -0.28162897D-11  0.34762721D-03  0.43183146D-18
 -0.24998324D-11 -0.22444238D-02 -0.98606905D-18 -0.23999476D-18  0.94064307D-12
  0.42016452D-03 -0.16930296D-18 -0.11429074D-11 -0.11932739D-03  0.88928724D-18
 -0.16790218D-11 -0.11411662D-02 -0.36486634D-18  0.20715753D-03  0.38618874D-03
  0.65272701D-03  0.98126250D-03  0.12055944D-02  0.10183172D-02  0.38407177D-03
 -0.19007926D-05 -0.15223755D-03 -0.28503673D-03 -0.48529941D-03 -0.75068440D-03
 -0.98862495D-03 -0.10272446D-02 -0.65276786D-03  0.43746984D-03  0.41432994D-03
 -0.48599865D-02  0.11219233D-02  0.24116805D-17  0.22611038D-17  0.16100406D-17
  0.19618507D-11  0.18393597D-11  0.13097337D-11  0.31601481D-04  0.29628397D-04
  0.21097184D-04 -0.11877610D-17 -0.17069821D-10 -0.24326341D-02  0.39900341D-17
  0.10623579D-11  0.92425861D-03  0.47921238D-19 -0.40203530D-12 -0.75094200D-05
 -0.10807879D-03 -0.27866442D-03  0.38674321D-03  0.13725012D-17 -0.88701394D-18
  0.48177854D-11  0.41296880D-03  0.21301493D-02 -0.25431181D-02 -0.20565563D-17
 -0.92134118D-18  0.91182999D-11 -0.85781407D-04  0.60079897D-03 -0.51501757D-03
 -0.19656289D-17 -0.87672150D-18 -0.33917207D-12  0.75007594D-18 -0.11817024D-11
 -0.63057826D-04 -0.15904030D-17  0.10377566D-11  0.27662786D-04 -0.65982479D-18
  0.25073505D-11  0.16151069D-03 -0.25246289D-17 -0.40339983D-18 -0.22425165D-12
  0.24897358D-03  0.17006418D-17 -0.12170055D-11 -0.24855444D-04 -0.49044230D-18
  0.18897604D-11 -0.72206530D-03  0.20790776D-17  0.29205109D+00  0.54419420D+00
  0.92036881D+00  0.13860244D+01  0.17159882D+01  0.14602285D+01  0.55564388D+00
 -0.26023173D-02 -0.12184252D-02 -0.22845587D-02 -0.38867140D-02 -0.60356565D-02
 -0.80096672D-02 -0.84410897D-02 -0.52340141D-02  0.34816682D-02  0.29002852D-01
  0.18458066D-02  0.79665473D-03  0.91241375D-17  0.87636250D-17  0.61456587D-17
 -0.37162035D-02 -0.35693691D-02 -0.25030880D-02  0.28226796D-02  0.27111500D-02
  0.19012455D-02 -0.18276869D-17 -0.10709040D-02 -0.43342580D-03  0.13140030D-17
  0.11586260D-02  0.20594203D-03  0.53981563D-19  0.49910538D-05  0.56281069D-04
 -0.25270556D-02  0.13079169D-02  0.12191388D-02 -0.48683794D-17  0.39188212D-17
  0.28641802D-03  0.75087684D-03 -0.21425163D-03 -0.53662521D-03  0.78323256D-18
 -0.28653678D-17  0.87708589D-03  0.19530751D-03 -0.10121836D-03 -0.94089152D-04
 -0.80596685D-19 -0.32807610D-19 -0.12651468D-04 -0.15914192D-19 -0.11772830D-03
  0.14672669D-03 -0.39538545D-19  0.24997977D-03  0.28072161D-03  0.87281120D-19
  0.10320513D-03 -0.72090168D-03 -0.48153174D-17  0.23144080D-18  0.81699354D-05
 -0.76225595D-05 -0.11272490D-18 -0.38184310D-03  0.51952213D-05 -0.58159749D-18
  0.35733329D-03  0.17672457D-04  0.17770441D-17  0.29205109D+00  0.54419420D+00
  0.92036882D+00  0.13860244D+01  0.17159882D+01  0.14602285D+01  0.55564388D+00
 -0.26023173D-02 -0.12184252D-02 -0.22845587D-02 -0.38867140D-02 -0.60356565D-02
 -0.80096673D-02 -0.84410898D-02 -0.52340142D-02  0.34816682D-02  0.29002853D-01
  0.18458066D-02  0.79665473D-03  0.88344143D-17  0.84853493D-17  0.59505126D-17
  0.37162036D-02  0.35693691D-02  0.25030880D-02  0.28226796D-02  0.27111500D-02
  0.19012455D-02 -0.32864596D-17  0.10709040D-02 -0.43342579D-03  0.10968328D-18
 -0.11586260D-02  0.20594202D-03  0.12684095D-18 -0.49910539D-05  0.56281069D-04
 -0.25270557D-02  0.13079169D-02  0.12191388D-02  0.54843404D-17  0.49461726D-17
 -0.28641802D-03  0.75087685D-03 -0.21425163D-03 -0.53662521D-03 -0.77861325D-18
 -0.19050397D-17 -0.87708589D-03  0.19530751D-03 -0.10121836D-03 -0.94089153D-04
  0.43162361D-18 -0.33502127D-18  0.12651467D-04 -0.31349099D-18  0.11772830D-03
  0.14672669D-03 -0.50811139D-19 -0.24997977D-03  0.28072161D-03  0.99128411D-18
 -0.10320513D-03 -0.72090169D-03  0.52811790D-18  0.78709342D-19 -0.81699359D-05
 -0.76225616D-05  0.25651627D-18  0.38184310D-03  0.51952245D-05 -0.49264430D-18
 -0.35733329D-03  0.17672460D-04  0.77023066D-18
MO    2     MO 0.0        OCC NO =    2.0000000  ORB. ENERGY =  -14.523295
  0.54881002D-04  0.98980148D-04  0.14594617D-03  0.15084708D-02  0.30094308D-02
  0.21378677D-05 -0.11943363D-15 -0.37320835D-03 -0.99156714D-04  0.86624345D-16
  0.50368844D-03  0.40651029D-03 -0.21789321D-16 -0.39547384D-03 -0.17136108D-03
  0.28023783D-03 -0.98542817D-05 -0.27038355D-03  0.10353553D-15  0.10794749D-15
 -0.25841025D-03  0.11927212D-03 -0.75713860D-04 -0.43558263D-04 -0.19032986D-17
 -0.47133453D-16 -0.14794574D-03 -0.54881002D-04 -0.98980147D-04 -0.14594617D-03
 -0.15084708D-02 -0.30094308D-02 -0.21378675D-05 -0.21857457D-17 -0.37320835D-03
  0.99156714D-04  0.22647040D-17  0.50368843D-03 -0.40651029D-03  0.11359402D-17
 -0.39547384D-03  0.17136109D-03 -0.28023783D-03  0.98542821D-05  0.27038355D-03
  0.49770979D-18 -0.75056191D-18 -0.25841025D-03 -0.11927212D-03  0.75713860D-04
  0.43558263D-04  0.14656399D-18 -0.14920517D-18 -0.14794574D-03  0.54416632D-12
  0.98142637D-12  0.14471126D-11  0.16255876D-10  0.13925724D-10  0.16648795D-12
  0.56821105D-18  0.51132664D-04  0.40450376D-11 -0.88827963D-18 -0.78758746D-03
  0.19140295D-11  0.62026567D-21 -0.16317915D-03  0.21971987D-11  0.12851628D-11
 -0.23944427D-11  0.11092799D-11  0.83089929D-18 -0.10267065D-17 -0.90506060D-03
  0.60259242D-12 -0.33364985D-12 -0.26894257D-12 -0.43993030D-18  0.82057950D-19
 -0.23251142D-03 -0.19193032D-12 -0.34615424D-12 -0.51040423D-12  0.18253409D-10
  0.22055769D-10 -0.21757246D-12 -0.12445313D-19 -0.86493036D-04  0.10496845D-13
 -0.28103021D-17  0.10882907D-02 -0.14721695D-10  0.69443218D-18 -0.19801880D-04
 -0.27308314D-11 -0.19116107D-11 -0.79410237D-12  0.27057130D-11 -0.14721035D-17
  0.21097392D-17 -0.77172680D-03 -0.39015335D-12 -0.49965124D-12  0.88980458D-12
  0.10662482D-17 -0.39355333D-19 -0.82508287D-04  0.44194485D-03  0.82388568D-03
  0.13925119D-02  0.20934016D-02  0.25719857D-02  0.21724531D-02  0.81936938D-03
 -0.40551048D-05 -0.33782471D-03 -0.63251445D-03 -0.10769100D-02 -0.16658160D-02
 -0.21938210D-02 -0.22795206D-02 -0.14485330D-02  0.97077313D-03  0.13582477D-02
 -0.21232726D-02 -0.93089904D-03  0.84033072D-17  0.78786346D-17  0.56100572D-17
 -0.36280751D-03 -0.34015511D-03 -0.24221070D-03 -0.45971368D-03 -0.43101079D-03
 -0.30690536D-03  0.43036792D-18  0.16223873D-02 -0.11136826D-02  0.11944756D-17
 -0.21391244D-02 -0.59717752D-03  0.15551441D-18  0.25051761D-04 -0.40359883D-04
 -0.10540442D-03 -0.30852429D-03  0.41392871D-03 -0.37721254D-17 -0.58530679D-17
 -0.21250256D-03  0.53294348D-03  0.10459931D-03 -0.63754279D-03  0.26341482D-17
  0.83377734D-18  0.12069697D-02  0.36885664D-04  0.35478702D-04 -0.72364366D-04
  0.26842412D-17  0.60775943D-18  0.11023865D-04  0.43283042D-18  0.80169032D-04
  0.38623403D-03 -0.19367332D-17 -0.35922252D-03 -0.32412900D-03  0.63824192D-18
  0.11871543D-03 -0.83457308D-03 -0.26168623D-17  0.28529949D-18 -0.61964023D-04
  0.34546350D-03 -0.22587182D-17  0.20976668D-03 -0.91352731D-04  0.14028198D-17
 -0.23874609D-04 -0.94503776D-03  0.12150712D-17 -0.44194485D-03 -0.82388568D-03
 -0.13925119D-02 -0.20934016D-02 -0.25719857D-02 -0.21724531D-02 -0.81936938D-03
  0.40551048D-05  0.33782471D-03  0.63251445D-03  0.10769100D-02  0.16658160D-02
  0.21938210D-02  0.22795206D-02  0.14485330D-02 -0.97077313D-03 -0.13582477D-02
  0.21232726D-02  0.93089903D-03 -0.91766471D-18 -0.86036899D-18 -0.61263398D-18
 -0.36280752D-03 -0.34015511D-03 -0.24221070D-03  0.45971368D-03  0.43101079D-03
  0.30690536D-03  0.67802009D-18  0.16223873D-02  0.11136826D-02 -0.54042926D-17
 -0.21391244D-02  0.59717752D-03 -0.15144902D-18  0.25051761D-04  0.40359883D-04
  0.10540442D-03  0.30852429D-03 -0.41392871D-03  0.23866319D-17  0.12235522D-17
 -0.21250256D-03 -0.53294348D-03 -0.10459930D-03  0.63754278D-03 -0.17007383D-17
 -0.17023328D-18  0.12069697D-02 -0.36885664D-04 -0.35478697D-04  0.72364361D-04
  0.47606543D-19 -0.10723749D-17  0.11023864D-04  0.94307351D-19  0.80169032D-04
 -0.38623403D-03 -0.60515453D-18 -0.35922253D-03  0.32412900D-03  0.32223248D-18
  0.11871543D-03  0.83457308D-03  0.29504029D-17  0.17174592D-18 -0.61964022D-04
 -0.34546350D-03 -0.78133942D-18  0.20976668D-03  0.91352729D-04  0.26610165D-18
 -0.23874612D-04  0.94503776D-03 -0.38028797D-20  0.29559187D-11  0.55105045D-11
  0.93137234D-11  0.14001577D-10  0.17202555D-10  0.14530308D-10  0.54802975D-11
 -0.27122298D-13 -0.22396833D-11 -0.41933939D-11 -0.71396118D-11 -0.11043894D-10
 -0.14544420D-10 -0.15112584D-10 -0.96033686D-11  0.64359543D-11  0.83534330D-11
 -0.82327754D-11  0.12887105D-12  0.15834677D-17  0.14846016D-17  0.10571248D-17
  0.10837273D-02  0.10160632D-02  0.72349756D-03  0.20086718D-11  0.18832575D-11
  0.13409915D-11 -0.31402209D-17  0.10824909D-02  0.30324276D-11  0.61150829D-18
 -0.13435858D-02  0.10389586D-10  0.81214744D-19 -0.16276517D-04  0.58798431D-13
 -0.91371080D-12  0.20345013D-11 -0.11207905D-11 -0.19062906D-17  0.87634649D-19
  0.69800475D-03  0.35499546D-11 -0.29970277D-11 -0.55292688D-12 -0.11119465D-17
 -0.11601017D-17 -0.39554327D-03 -0.52785985D-13  0.50242159D-13  0.25438261D-14
  0.40675909D-18 -0.26125686D-19 -0.25558221D-03  0.26424650D-18 -0.34145222D-03
  0.33283592D-11 -0.14740437D-17  0.53621473D-03  0.18138935D-11  0.68130420D-18
  0.48814194D-03 -0.11798971D-10 -0.96775329D-19 -0.31139836D-19 -0.18358618D-03
  0.22064167D-11  0.68296229D-20  0.21830412D-03 -0.63554766D-12  0.86589886D-19
  0.33245442D-03 -0.59837026D-11 -0.14134771D-19  0.10833271D-11  0.20195680D-11
  0.34134257D-11  0.51314969D-11  0.63046369D-11  0.53252737D-11  0.20084973D-11
 -0.99401653D-14 -0.79581113D-12 -0.14900095D-11 -0.25368687D-11 -0.39241501D-11
 -0.51679677D-11 -0.53698495D-11 -0.34122983D-11  0.22868430D-11  0.21327755D-11
 -0.24121330D-10  0.44903021D-11 -0.10009780D-18 -0.93848046D-19 -0.66825400D-19
 -0.36312002D-03 -0.34044810D-03 -0.24241933D-03  0.16964851D-12  0.15905626D-12
  0.11325753D-12  0.18611062D-17  0.32279065D-02 -0.12690581D-10  0.68752796D-17
 -0.30091643D-03  0.43639894D-11  0.13026494D-18  0.95215849D-04  0.21935282D-13
 -0.57044742D-12 -0.14707705D-11  0.20412179D-11  0.72408990D-18  0.12676442D-17
 -0.92968727D-03  0.21357759D-11  0.11181506D-10 -0.13317282D-10 -0.75100641D-19
 -0.27117560D-17 -0.16917480D-02 -0.40320660D-12  0.29234528D-11 -0.25202462D-11
 -0.14846186D-17 -0.13821424D-17  0.12533517D-03 -0.43868033D-18  0.22333251D-03