 Molden2AIM, Version 4.0.0 (06/02/2016)           Time: Mon Jul  2 23:46:21 2018
GAUSSIAN             21 MOL ORBITALS    558 PRIMITIVES       10 NUCLEI
  H    1    (CENTRE  1)   0.00000000  4.55007689 -0.29307196  CHARGE =  1.0
  H    2    (CENTRE  2)   0.00000000 -4.55007689 -0.29307196  CHARGE =  1.0
  H    3    (CENTRE  3)   0.00000000  2.40741282  3.97138795  CHARGE =  1.0
  H    4    (CENTRE  4)   0.00000000 -2.40741282  3.97138795  CHARGE =  1.0
  C    5    (CENTRE  5)   0.00000000  2.49439502 -0.12568946  CHARGE =  6.0
  C    6    (CENTRE  6)   0.00000000 -2.49439502 -0.12568946  CHARGE =  6.0
  C    7    (CENTRE  7)   0.00000000  1.30637523  2.23048154  CHARGE =  6.0
  C    8    (CENTRE  8)   0.00000000 -1.30637523  2.23048154  CHARGE =  6.0
  N    9    (CENTRE  9)   0.00000000  1.25097413 -2.31686470  CHARGE =  7.0
  N   10    (CENTRE 10)   0.00000000 -1.25097413 -2.31686470  CHARGE =  7.0
CENTRE ASSIGNMENTS    1  1  1  1  1  1  1  1  1  1  1  1  1  1  1  1  1  1  1  1
CENTRE ASSIGNMENTS    1  1  1  1  1  1  1  2  2  2  2  2  2  2  2  2  2  2  2  2
CENTRE ASSIGNMENTS    2  2  2  2  2  2  2  2  2  2  2  2  2  2  3  3  3  3  3  3
CENTRE ASSIGNMENTS    3  3  3  3  3  3  3  3  3  3  3  3  3  3  3  3  3  3  3  3
CENTRE ASSIGNMENTS    3  4  4  4  4  4  4  4  4  4  4  4  4  4  4  4  4  4  4  4
CENTRE ASSIGNMENTS    4  4  4  4  4  4  4  4  5  5  5  5  5  5  5  5  5  5  5  5
CENTRE ASSIGNMENTS    5  5  5  5  5  5  5  5  5  5  5  5  5  5  5  5  5  5  5  5
CENTRE ASSIGNMENTS    5  5  5  5  5  5  5  5  5  5  5  5  5  5  5  5  5  5  5  5
CENTRE ASSIGNMENTS    5  5  5  5  5  5  5  5  5  5  5  5  5  5  5  5  5  5  5  5
CENTRE ASSIGNMENTS    5  5  5  6  6  6  6  6  6  6  6  6  6  6  6  6  6  6  6  6
CENTRE ASSIGNMENTS    6  6  6  6  6  6  6  6  6  6  6  6  6  6  6  6  6  6  6  6
CENTRE ASSIGNMENTS    6  6  6  6  6  6  6  6  6  6  6  6  6  6  6  6  6  6  6  6
CENTRE ASSIGNMENTS    6  6  6  6  6  6  6  6  6  6  6  6  6  6  6  6  6  6  7  7
CENTRE ASSIGNMENTS    7  7  7  7  7  7  7  7  7  7  7  7  7  7  7  7  7  7  7  7
CENTRE ASSIGNMENTS    7  7  7  7  7  7  7  7  7  7  7  7  7  7  7  7  7  7  7  7
CENTRE ASSIGNMENTS    7  7  7  7  7  7  7  7  7  7  7  7  7  7  7  7  7  7  7  7
CENTRE ASSIGNMENTS    7  7  7  7  7  7  7  7  7  7  7  7  7  8  8  8  8  8  8  8
CENTRE ASSIGNMENTS    8  8  8  8  8  8  8  8  8  8  8  8  8  8  8  8  8  8  8  8
CENTRE ASSIGNMENTS    8  8  8  8  8  8  8  8  8  8  8  8  8  8  8  8  8  8  8  8
CENTRE ASSIGNMENTS    8  8  8  8  8  8  8  8  8  8  8  8  8  8  8  8  8  8  8  8
CENTRE ASSIGNMENTS    8  8  8  8  8  8  8  8  9  9  9  9  9  9  9  9  9  9  9  9
CENTRE ASSIGNMENTS    9  9  9  9  9  9  9  9  9  9  9  9  9  9  9  9  9  9  9  9
CENTRE ASSIGNMENTS    9  9  9  9  9  9  9  9  9  9  9  9  9  9  9  9  9  9  9  9
CENTRE ASSIGNMENTS    9  9  9  9  9  9  9  9  9  9  9  9  9  9  9  9  9  9  9  9
CENTRE ASSIGNMENTS    9  9  9 10 10 10 10 10 10 10 10 10 10 10 10 10 10 10 10 10
CENTRE ASSIGNMENTS   10 10 10 10 10 10 10 10 10 10 10 10 10 10 10 10 10 10 10 10
CENTRE ASSIGNMENTS   10 10 10 10 10 10 10 10 10 10 10 10 10 10 10 10 10 10 10 10
CENTRE ASSIGNMENTS   10 10 10 10 10 10 10 10 10 10 10 10 10 10 10 10 10 10
TYPE ASSIGNMENTS      1  1  1  1  1  1  2  3  4  2  3  4  2  3  4  5  6  7  8  9
TYPE ASSIGNMENTS     10  5  6  7  8  9 10  1  1  1  1  1  1  2  3  4  2  3  4  2
TYPE ASSIGNMENTS      3  4  5  6  7  8  9 10  5  6  7  8  9 10  1  1  1  1  1  1
TYPE ASSIGNMENTS      2  3  4  2  3  4  2  3  4  5  6  7  8  9 10  5  6  7  8  9
TYPE ASSIGNMENTS     10  1  1  1  1  1  1  2  3  4  2  3  4  2  3  4  5  6  7  8
TYPE ASSIGNMENTS      9 10  5  6  7  8  9 10  1  1  1  1  1  1  1  1  1  1  1  1
TYPE ASSIGNMENTS      1  1  1  1  1  1  1  2  2  2  3  3  3  4  4  4  2  3  4  2
TYPE ASSIGNMENTS      3  4  2  3  4  5  6  7  8  9 10  5  6  7  8  9 10  5  6  7
TYPE ASSIGNMENTS      8  9 10 11 12 13 17 14 15 18 19 16 20 11 12 13 17 14 15 18
TYPE ASSIGNMENTS     19 16 20  1  1  1  1  1  1  1  1  1  1  1  1  1  1  1  1  1
TYPE ASSIGNMENTS      1  1  2  2  2  3  3  3  4  4  4  2  3  4  2  3  4  2  3  4
TYPE ASSIGNMENTS      5  6  7  8  9 10  5  6  7  8  9 10  5  6  7  8  9 10 11 12
TYPE ASSIGNMENTS     13 17 14 15 18 19 16 20 11 12 13 17 14 15 18 19 16 20  1  1
TYPE ASSIGNMENTS      1  1  1  1  1  1  1  1  1  1  1  1  1  1  1  1  1  2  2  2
TYPE ASSIGNMENTS      3  3  3  4  4  4  2  3  4  2  3  4  2  3  4  5  6  7  8  9
TYPE ASSIGNMENTS     10  5  6  7  8  9 10  5  6  7  8  9 10 11 12 13 17 14 15 18
TYPE ASSIGNMENTS     19 16 20 11 12 13 17 14 15 18 19 16 20  1  1  1  1  1  1  1
TYPE ASSIGNMENTS      1  1  1  1  1  1  1  1  1  1  1  1  2  2  2  3  3  3  4  4
TYPE ASSIGNMENTS      4  2  3  4  2  3  4  2  3  4  5  6  7  8  9 10  5  6  7  8
TYPE ASSIGNMENTS      9 10  5  6  7  8  9 10 11 12 13 17 14 15 18 19 16 20 11 12
TYPE ASSIGNMENTS     13 17 14 15 18 19 16 20  1  1  1  1  1  1  1  1  1  1  1  1
TYPE ASSIGNMENTS      1  1  1  1  1  1  1  2  2  2  3  3  3  4  4  4  2  3  4  2
TYPE ASSIGNMENTS      3  4  2  3  4  5  6  7  8  9 10  5  6  7  8  9 10  5  6  7
TYPE ASSIGNMENTS      8  9 10 11 12 13 17 14 15 18 19 16 20 11 12 13 17 14 15 18
TYPE ASSIGNMENTS     19 16 20  1  1  1  1  1  1  1  1  1  1  1  1  1  1  1  1  1
TYPE ASSIGNMENTS      1  1  2  2  2  3  3  3  4  4  4  2  3  4  2  3  4  2  3  4
TYPE ASSIGNMENTS      5  6  7  8  9 10  5  6  7  8  9 10  5  6  7  8  9 10 11 12
TYPE ASSIGNMENTS     13 17 14 15 18 19 16 20 11 12 13 17 14 15 18 19 16 20
EXPONENTS  0.3387000D+02 0.5095000D+01 0.1159000D+01 0.3258000D+00 0.1027000D+00
EXPONENTS  0.2526000D-01 0.1407000D+01 0.1407000D+01 0.1407000D+01 0.3880000D+00
EXPONENTS  0.3880000D+00 0.3880000D+00 0.1020000D+00 0.1020000D+00 0.1020000D+00
EXPONENTS  0.1057000D+01 0.1057000D+01 0.1057000D+01 0.1057000D+01 0.1057000D+01
EXPONENTS  0.1057000D+01 0.2470000D+00 0.2470000D+00 0.2470000D+00 0.2470000D+00
EXPONENTS  0.2470000D+00 0.2470000D+00 0.3387000D+02 0.5095000D+01 0.1159000D+01
EXPONENTS  0.3258000D+00 0.1027000D+00 0.2526000D-01 0.1407000D+01 0.1407000D+01
EXPONENTS  0.1407000D+01 0.3880000D+00 0.3880000D+00 0.3880000D+00 0.1020000D+00
EXPONENTS  0.1020000D+00 0.1020000D+00 0.1057000D+01 0.1057000D+01 0.1057000D+01
EXPONENTS  0.1057000D+01 0.1057000D+01 0.1057000D+01 0.2470000D+00 0.2470000D+00
EXPONENTS  0.2470000D+00 0.2470000D+00 0.2470000D+00 0.2470000D+00 0.3387000D+02
EXPONENTS  0.5095000D+01 0.1159000D+01 0.3258000D+00 0.1027000D+00 0.2526000D-01
EXPONENTS  0.1407000D+01 0.1407000D+01 0.1407000D+01 0.3880000D+00 0.3880000D+00
EXPONENTS  0.3880000D+00 0.1020000D+00 0.1020000D+00 0.1020000D+00 0.1057000D+01
EXPONENTS  0.1057000D+01 0.1057000D+01 0.1057000D+01 0.1057000D+01 0.1057000D+01
EXPONENTS  0.2470000D+00 0.2470000D+00 0.2470000D+00 0.2470000D+00 0.2470000D+00
EXPONENTS  0.2470000D+00 0.3387000D+02 0.5095000D+01 0.1159000D+01 0.3258000D+00
EXPONENTS  0.1027000D+00 0.2526000D-01 0.1407000D+01 0.1407000D+01 0.1407000D+01
EXPONENTS  0.3880000D+00 0.3880000D+00 0.3880000D+00 0.1020000D+00 0.1020000D+00
EXPONENTS  0.1020000D+00 0.1057000D+01 0.1057000D+01 0.1057000D+01 0.1057000D+01
EXPONENTS  0.1057000D+01 0.1057000D+01 0.2470000D+00 0.2470000D+00 0.2470000D+00
EXPONENTS  0.2470000D+00 0.2470000D+00 0.2470000D+00 0.8236000D+04 0.1235000D+04
EXPONENTS  0.2808000D+03 0.7927000D+02 0.2559000D+02 0.8997000D+01 0.3319000D+01
EXPONENTS  0.3643000D+00 0.8236000D+04 0.1235000D+04 0.2808000D+03 0.7927000D+02
EXPONENTS  0.2559000D+02 0.8997000D+01 0.3319000D+01 0.3643000D+00 0.9059000D+00
EXPONENTS  0.1285000D+00 0.4402000D-01 0.1871000D+02 0.4133000D+01 0.1200000D+01
EXPONENTS  0.1871000D+02 0.4133000D+01 0.1200000D+01 0.1871000D+02 0.4133000D+01
EXPONENTS  0.1200000D+01 0.3827000D+00 0.3827000D+00 0.3827000D+00 0.1209000D+00
EXPONENTS  0.1209000D+00 0.1209000D+00 0.3569000D-01 0.3569000D-01 0.3569000D-01
EXPONENTS  0.1097000D+01 0.1097000D+01 0.1097000D+01 0.1097000D+01 0.1097000D+01
EXPONENTS  0.1097000D+01 0.3180000D+00 0.3180000D+00 0.3180000D+00 0.3180000D+00
EXPONENTS  0.3180000D+00 0.3180000D+00 0.1000000D+00 0.1000000D+00 0.1000000D+00
EXPONENTS  0.1000000D+00 0.1000000D+00 0.1000000D+00 0.7610000D+00 0.7610000D+00
EXPONENTS  0.7610000D+00 0.7610000D+00 0.7610000D+00 0.7610000D+00 0.7610000D+00
EXPONENTS  0.7610000D+00 0.7610000D+00 0.7610000D+00 0.2680000D+00 0.2680000D+00
EXPONENTS  0.2680000D+00 0.2680000D+00 0.2680000D+00 0.2680000D+00 0.2680000D+00
EXPONENTS  0.2680000D+00 0.2680000D+00 0.2680000D+00 0.8236000D+04 0.1235000D+04
EXPONENTS  0.2808000D+03 0.7927000D+02 0.2559000D+02 0.8997000D+01 0.3319000D+01
EXPONENTS  0.3643000D+00 0.8236000D+04 0.1235000D+04 0.2808000D+03 0.7927000D+02
EXPONENTS  0.2559000D+02 0.8997000D+01 0.3319000D+01 0.3643000D+00 0.9059000D+00
EXPONENTS  0.1285000D+00 0.4402000D-01 0.1871000D+02 0.4133000D+01 0.1200000D+01
EXPONENTS  0.1871000D+02 0.4133000D+01 0.1200000D+01 0.1871000D+02 0.4133000D+01
EXPONENTS  0.1200000D+01 0.3827000D+00 0.3827000D+00 0.3827000D+00 0.1209000D+00
EXPONENTS  0.1209000D+00 0.1209000D+00 0.3569000D-01 0.3569000D-01 0.3569000D-01
EXPONENTS  0.1097000D+01 0.1097000D+01 0.1097000D+01 0.1097000D+01 0.1097000D+01
EXPONENTS  0.1097000D+01 0.3180000D+00 0.3180000D+00 0.3180000D+00 0.3180000D+00
EXPONENTS  0.3180000D+00 0.3180000D+00 0.1000000D+00 0.1000000D+00 0.1000000D+00
EXPONENTS  0.1000000D+00 0.1000000D+00 0.1000000D+00 0.7610000D+00 0.7610000D+00
EXPONENTS  0.7610000D+00 0.7610000D+00 0.7610000D+00 0.7610000D+00 0.7610000D+00
EXPONENTS  0.7610000D+00 0.7610000D+00 0.7610000D+00 0.2680000D+00 0.2680000D+00
EXPONENTS  0.2680000D+00 0.2680000D+00 0.2680000D+00 0.2680000D+00 0.2680000D+00
EXPONENTS  0.2680000D+00 0.2680000D+00 0.2680000D+00 0.8236000D+04 0.1235000D+04
EXPONENTS  0.2808000D+03 0.7927000D+02 0.2559000D+02 0.8997000D+01 0.3319000D+01
EXPONENTS  0.3643000D+00 0.8236000D+04 0.1235000D+04 0.2808000D+03 0.7927000D+02
EXPONENTS  0.2559000D+02 0.8997000D+01 0.3319000D+01 0.3643000D+00 0.9059000D+00
EXPONENTS  0.1285000D+00 0.4402000D-01 0.1871000D+02 0.4133000D+01 0.1200000D+01
EXPONENTS  0.1871000D+02 0.4133000D+01 0.1200000D+01 0.1871000D+02 0.4133000D+01
EXPONENTS  0.1200000D+01 0.3827000D+00 0.3827000D+00 0.3827000D+00 0.1209000D+00
EXPONENTS  0.1209000D+00 0.1209000D+00 0.3569000D-01 0.3569000D-01 0.3569000D-01
EXPONENTS  0.1097000D+01 0.1097000D+01 0.1097000D+01 0.1097000D+01 0.1097000D+01
EXPONENTS  0.1097000D+01 0.3180000D+00 0.3180000D+00 0.3180000D+00 0.3180000D+00
EXPONENTS  0.3180000D+00 0.3180000D+00 0.1000000D+00 0.1000000D+00 0.1000000D+00
EXPONENTS  0.1000000D+00 0.1000000D+00 0.1000000D+00 0.7610000D+00 0.7610000D+00
EXPONENTS  0.7610000D+00 0.7610000D+00 0.7610000D+00 0.7610000D+00 0.7610000D+00
EXPONENTS  0.7610000D+00 0.7610000D+00 0.7610000D+00 0.2680000D+00 0.2680000D+00
EXPONENTS  0.2680000D+00 0.2680000D+00 0.2680000D+00 0.2680000D+00 0.2680000D+00
EXPONENTS  0.2680000D+00 0.2680000D+00 0.2680000D+00 0.8236000D+04 0.1235000D+04
EXPONENTS  0.2808000D+03 0.7927000D+02 0.2559000D+02 0.8997000D+01 0.3319000D+01
EXPONENTS  0.3643000D+00 0.8236000D+04 0.1235000D+04 0.2808000D+03 0.7927000D+02
EXPONENTS  0.2559000D+02 0.8997000D+01 0.3319000D+01 0.3643000D+00 0.9059000D+00
EXPONENTS  0.1285000D+00 0.4402000D-01 0.1871000D+02 0.4133000D+01 0.1200000D+01
EXPONENTS  0.1871000D+02 0.4133000D+01 0.1200000D+01 0.1871000D+02 0.4133000D+01
EXPONENTS  0.1200000D+01 0.3827000D+00 0.3827000D+00 0.3827000D+00 0.1209000D+00
EXPONENTS  0.1209000D+00 0.1209000D+00 0.3569000D-01 0.3569000D-01 0.3569000D-01
EXPONENTS  0.1097000D+01 0.1097000D+01 0.1097000D+01 0.1097000D+01 0.1097000D+01
EXPONENTS  0.1097000D+01 0.3180000D+00 0.3180000D+00 0.3180000D+00 0.3180000D+00
EXPONENTS  0.3180000D+00 0.3180000D+00 0.1000000D+00 0.1000000D+00 0.1000000D+00
EXPONENTS  0.1000000D+00 0.1000000D+00 0.1000000D+00 0.7610000D+00 0.7610000D+00
EXPONENTS  0.7610000D+00 0.7610000D+00 0.7610000D+00 0.7610000D+00 0.7610000D+00
EXPONENTS  0.7610000D+00 0.7610000D+00 0.7610000D+00 0.2680000D+00 0.2680000D+00
EXPONENTS  0.2680000D+00 0.2680000D+00 0.2680000D+00 0.2680000D+00 0.2680000D+00
EXPONENTS  0.2680000D+00 0.2680000D+00 0.2680000D+00 0.1142000D+05 0.1712000D+04
EXPONENTS  0.3893000D+03 0.1100000D+03 0.3557000D+02 0.1254000D+02 0.4644000D+01
EXPONENTS  0.5118000D+00 0.1142000D+05 0.1712000D+04 0.3893000D+03 0.1100000D+03
EXPONENTS  0.3557000D+02 0.1254000D+02 0.4644000D+01 0.5118000D+00 0.1293000D+01
EXPONENTS  0.1787000D+00 0.5760000D-01 0.2663000D+02 0.5948000D+01 0.1742000D+01
EXPONENTS  0.2663000D+02 0.5948000D+01 0.1742000D+01 0.2663000D+02 0.5948000D+01
EXPONENTS  0.1742000D+01 0.5550000D+00 0.5550000D+00 0.5550000D+00 0.1725000D+00
EXPONENTS  0.1725000D+00 0.1725000D+00 0.4910000D-01 0.4910000D-01 0.4910000D-01
EXPONENTS  0.1654000D+01 0.1654000D+01 0.1654000D+01 0.1654000D+01 0.1654000D+01
EXPONENTS  0.1654000D+01 0.4690000D+00 0.4690000D+00 0.4690000D+00 0.4690000D+00
EXPONENTS  0.4690000D+00 0.4690000D+00 0.1510000D+00 0.1510000D+00 0.1510000D+00
EXPONENTS  0.1510000D+00 0.1510000D+00 0.1510000D+00 0.1093000D+01 0.1093000D+01
EXPONENTS  0.1093000D+01 0.1093000D+01 0.1093000D+01 0.1093000D+01 0.1093000D+01
EXPONENTS  0.1093000D+01 0.1093000D+01 0.1093000D+01 0.3640000D+00 0.3640000D+00
EXPONENTS  0.3640000D+00 0.3640000D+00 0.3640000D+00 0.3640000D+00 0.3640000D+00
EXPONENTS  0.3640000D+00 0.3640000D+00 0.3640000D+00 0.1142000D+05 0.1712000D+04
EXPONENTS  0.3893000D+03 0.1100000D+03 0.3557000D+02 0.1254000D+02 0.4644000D+01
EXPONENTS  0.5118000D+00 0.1142000D+05 0.1712000D+04 0.3893000D+03 0.1100000D+03
EXPONENTS  0.3557000D+02 0.1254000D+02 0.4644000D+01 0.5118000D+00 0.1293000D+01
EXPONENTS  0.1787000D+00 0.5760000D-01 0.2663000D+02 0.5948000D+01 0.1742000D+01
EXPONENTS  0.2663000D+02 0.5948000D+01 0.1742000D+01 0.2663000D+02 0.5948000D+01
EXPONENTS  0.1742000D+01 0.5550000D+00 0.5550000D+00 0.5550000D+00 0.1725000D+00
EXPONENTS  0.1725000D+00 0.1725000D+00 0.4910000D-01 0.4910000D-01 0.4910000D-01
EXPONENTS  0.1654000D+01 0.1654000D+01 0.1654000D+01 0.1654000D+01 0.1654000D+01
EXPONENTS  0.1654000D+01 0.4690000D+00 0.4690000D+00 0.4690000D+00 0.4690000D+00
EXPONENTS  0.4690000D+00 0.4690000D+00 0.1510000D+00 0.1510000D+00 0.1510000D+00
EXPONENTS  0.1510000D+00 0.1510000D+00 0.1510000D+00 0.1093000D+01 0.1093000D+01
EXPONENTS  0.1093000D+01 0.1093000D+01 0.1093000D+01 0.1093000D+01 0.1093000D+01
EXPONENTS  0.1093000D+01 0.1093000D+01 0.1093000D+01 0.3640000D+00 0.3640000D+00
EXPONENTS  0.3640000D+00 0.3640000D+00 0.3640000D+00 0.3640000D+00 0.3640000D+00
EXPONENTS  0.3640000D+00 0.3640000D+00 0.3640000D+00
MO    1     MO 0.0        OCC NO =    2.0000000  ORB. ENERGY =  -14.550182
  0.59752422D-04  0.10776595D-03  0.15890084D-03  0.45685428D-03  0.14573902D-02
 -0.12968656D-04  0.28767243D-16 -0.27988967D-03  0.36610698D-04  0.50495690D-17
  0.10482749D-02 -0.20166637D-03 -0.44437900D-17 -0.19908575D-03  0.14798222D-03
  0.32540593D-03 -0.35162916D-03  0.26223228D-04  0.77078680D-17  0.13762997D-15
 -0.24226182D-04  0.98669747D-04 -0.13578699D-03  0.37117240D-04 -0.11952976D-17
 -0.22921749D-16 -0.33805718D-04  0.59752422D-04  0.10776595D-03  0.15890084D-03
  0.45685428D-03  0.14573902D-02 -0.12968656D-04 -0.30039153D-19  0.27988967D-03
  0.36610698D-04  0.45567560D-18 -0.10482749D-02 -0.20166637D-03  0.73940004D-18
  0.19908575D-03  0.14798222D-03  0.32540593D-03 -0.35162916D-03  0.26223228D-04
 -0.11484603D-17  0.15317797D-17  0.24226182D-04  0.98669747D-04 -0.13578699D-03
  0.37117240D-04  0.69750672D-18  0.25026711D-18  0.33805718D-04 -0.13061851D-04
 -0.23557587D-04 -0.34735648D-04  0.39795487D-03 -0.72439974D-03  0.19778957D-04
  0.14430127D-17 -0.41420448D-04  0.71720884D-04 -0.29108742D-17  0.13260256D-03
 -0.12083621D-02 -0.14649245D-18  0.60650012D-05  0.87378436D-04 -0.18169446D-03
 -0.16129272D-03  0.34298718D-03  0.61043194D-18  0.39424085D-19 -0.10448439D-04
 -0.50500612D-04 -0.40780032D-04  0.91280644D-04 -0.77610723D-18  0.12097794D-17
  0.11858736D-03 -0.13061851D-04 -0.23557587D-04 -0.34735648D-04  0.39795487D-03
 -0.72439974D-03  0.19778957D-04 -0.10550908D-17  0.41420448D-04  0.71720884D-04
  0.12598771D-17 -0.13260256D-03 -0.12083621D-02 -0.48026566D-18 -0.60650013D-05
  0.87378436D-04 -0.18169446D-03 -0.16129272D-03  0.34298718D-03 -0.47692798D-18
  0.90369513D-18  0.10448439D-04 -0.50500612D-04 -0.40780032D-04  0.91280644D-04
 -0.29640116D-18 -0.42218097D-18 -0.11858736D-03  0.31375481D-03  0.58491030D-03
  0.98860145D-03  0.14861918D-02  0.18259583D-02  0.15423137D-02  0.58170399D-03
 -0.28788855D-05 -0.24306025D-03 -0.45508548D-03 -0.77482197D-03 -0.11985318D-02
 -0.15784242D-02 -0.16400838D-02 -0.10421996D-02  0.69845797D-03  0.91250934D-03
 -0.19540077D-02 -0.95311015D-03  0.16649428D-18  0.15609897D-18  0.11115177D-18
 -0.49368978D-03 -0.46286555D-03 -0.32958784D-03 -0.27068509D-03 -0.25378448D-03
 -0.18070967D-03  0.35872148D-17  0.84855956D-03 -0.24044697D-02 -0.13966514D-17
 -0.14596080D-02  0.62593247D-03  0.11819912D-18  0.19653541D-04 -0.54145731D-04
 -0.24000167D-03 -0.74382360D-04  0.31438403D-03  0.35063359D-17 -0.46114975D-17
  0.70355680D-03  0.34974894D-03  0.68805185D-03 -0.10378008D-02  0.58133113D-18
  0.10208050D-17 -0.11454587D-03  0.37320205D-04  0.46640145D-04 -0.83960350D-04
 -0.70129533D-18  0.15635622D-18 -0.33824840D-03 -0.54498047D-18 -0.31855167D-04
 -0.14360881D-03  0.13719962D-18 -0.55929617D-03 -0.11392411D-03  0.14977418D-17
  0.65486167D-03  0.54475055D-03  0.21650679D-17 -0.17875850D-18 -0.26391931D-03
 -0.76472126D-06  0.52386615D-18  0.13355030D-03 -0.25412893D-03  0.12409362D-19
  0.65820762D-03  0.25642310D-03  0.20352865D-18  0.31375481D-03  0.58491030D-03
  0.98860145D-03  0.14861918D-02  0.18259583D-02  0.15423137D-02  0.58170399D-03
 -0.28788855D-05 -0.24306025D-03 -0.45508548D-03 -0.77482197D-03 -0.11985318D-02
 -0.15784242D-02 -0.16400838D-02 -0.10421996D-02  0.69845797D-03  0.91250934D-03
 -0.19540077D-02 -0.95311015D-03  0.64901823D-18  0.60849584D-18  0.43328529D-18
  0.49368978D-03  0.46286555D-03  0.32958784D-03 -0.27068509D-03 -0.25378448D-03
 -0.18070967D-03 -0.33253137D-18 -0.84855956D-03 -0.24044697D-02  0.22461672D-17
  0.14596080D-02  0.62593247D-03 -0.24101481D-18 -0.19653541D-04 -0.54145731D-04
 -0.24000167D-03 -0.74382361D-04  0.31438403D-03 -0.39779147D-18  0.13074651D-17
 -0.70355680D-03  0.34974894D-03  0.68805185D-03 -0.10378008D-02  0.13179157D-17
  0.77976085D-19  0.11454587D-03  0.37320205D-04  0.46640145D-04 -0.83960350D-04
  0.30946733D-18  0.58974574D-18  0.33824840D-03  0.32835448D-19  0.31855167D-04
 -0.14360881D-03  0.81421072D-18  0.55929617D-03 -0.11392411D-03 -0.91271706D-18
 -0.65486167D-03  0.54475055D-03 -0.92973424D-18 -0.58434292D-19  0.26391931D-03
 -0.76472134D-06 -0.26608341D-18 -0.13355030D-03 -0.25412893D-03  0.44138628D-18
 -0.65820763D-03  0.25642310D-03  0.16195591D-17 -0.52321133D-04 -0.97538488D-04
 -0.16485723D-03 -0.24783441D-03 -0.30449321D-03 -0.25719319D-03 -0.97003810D-04
  0.48007727D-06  0.42495833D-04  0.79565607D-04  0.13546725D-03  0.20954724D-03
  0.27596635D-03  0.28674671D-03  0.18221466D-03 -0.12211603D-03 -0.36917853D-03
 -0.84288008D-03  0.94811238D-03  0.17902787D-18  0.16785000D-18  0.11951920D-18
 -0.17710346D-04 -0.16604575D-04 -0.11823447D-04  0.28820228D-03  0.27020796D-03
  0.19240416D-03  0.57989683D-18  0.80069631D-03 -0.20673031D-02 -0.21233498D-17
  0.49170773D-03  0.75449236D-03 -0.85958615D-19  0.28809700D-04 -0.39714768D-04
 -0.12179897D-03 -0.18651852D-03  0.30831748D-03 -0.65214893D-18  0.38612139D-18
  0.64742087D-05 -0.72971573D-04  0.53159478D-04  0.19812095D-04  0.15839807D-17
  0.39734846D-18 -0.17489661D-02 -0.69004430D-04  0.16923059D-03 -0.10022616D-03
  0.55135459D-18 -0.51712568D-18 -0.10416807D-03  0.17048981D-18 -0.52733371D-04
  0.88717544D-04 -0.91774073D-18  0.38398159D-04  0.13588183D-03  0.40627131D-18
  0.11980196D-03 -0.40203447D-03 -0.20606773D-17  0.74169164D-19 -0.20037748D-03
  0.12542996D-03 -0.79633015D-19  0.79248652D-04 -0.12302575D-03 -0.14287448D-18
  0.52188380D-03 -0.25326413D-03  0.40418318D-17 -0.52321133D-04 -0.97538488D-04
 -0.16485723D-03 -0.24783441D-03 -0.30449321D-03 -0.25719319D-03 -0.97003810D-04
  0.48007727D-06  0.42495833D-04  0.79565607D-04  0.13546725D-03  0.20954724D-03
  0.27596635D-03  0.28674671D-03  0.18221466D-03 -0.12211603D-03 -0.36917853D-03
 -0.84288008D-03  0.94811237D-03 -0.62641203D-18 -0.58730109D-18 -0.41819337D-18
  0.17710346D-04  0.16604575D-04  0.11823447D-04  0.28820228D-03  0.27020796D-03
  0.19240416D-03 -0.22415812D-18 -0.80069631D-03 -0.20673031D-02 -0.73077976D-18
 -0.49170773D-03  0.75449236D-03  0.17920118D-18 -0.28809700D-04 -0.39714768D-04
 -0.12179897D-03 -0.18651852D-03  0.30831748D-03 -0.34656223D-20 -0.28579868D-17
 -0.64742087D-05 -0.72971573D-04  0.53159478D-04  0.19812095D-04  0.19333249D-17
  0.32836669D-17  0.17489661D-02 -0.69004429D-04  0.16923059D-03 -0.10022616D-03
  0.62215813D-18  0.11258866D-17  0.10416807D-03 -0.13400541D-18  0.52733371D-04
  0.88717544D-04  0.60800501D-18 -0.38398159D-04  0.13588183D-03 -0.20598879D-18
 -0.11980196D-03 -0.40203447D-03 -0.24379363D-17  0.76604921D-21  0.20037748D-03
  0.12542996D-03  0.39407060D-18 -0.79248652D-04 -0.12302575D-03 -0.39636875D-18
 -0.52188380D-03 -0.25326413D-03  0.21382348D-17  0.29197333D+00  0.54404931D+00
  0.92012378D+00  0.13856554D+01  0.17155313D+01  0.14598397D+01  0.55549595D+00
 -0.26016245D-02 -0.11608889D-02 -0.21766775D-02 -0.37031760D-02 -0.57506414D-02
 -0.76314356D-02 -0.80424856D-02 -0.49868541D-02  0.33172573D-02  0.29060294D-01
  0.15800360D-02  0.28147554D-04  0.11187785D-17  0.10745734D-17  0.75356505D-18
 -0.34552036D-02 -0.33186818D-02 -0.23272887D-02  0.45165494D-02  0.43380917D-02
  0.30421694D-02  0.10641771D-18 -0.56350537D-03  0.22809627D-03 -0.14151362D-17
  0.83652460D-03 -0.49017136D-03 -0.43174673D-18 -0.25589244D-04  0.94454778D-05
 -0.25370143D-02  0.20327107D-02  0.50430364D-03 -0.10017737D-17  0.47534670D-17
  0.11755798D-02  0.77107763D-03 -0.63388214D-03 -0.13719549D-03 -0.64956056D-18
 -0.25028654D-17 -0.36837187D-03  0.15944217D-03 -0.16509259D-03  0.56504234D-05
  0.51641963D-18  0.33706943D-18 -0.96880378D-04  0.18634923D-18  0.48096249D-04
  0.99159712D-04 -0.12723905D-17 -0.11589840D-03 -0.53479371D-04  0.71334283D-18
 -0.28390345D-04 -0.24399977D-03  0.14905852D-17  0.11554825D-18  0.30767310D-03
 -0.45858290D-04 -0.23329184D-18 -0.32846970D-03  0.19280635D-03 -0.11335292D-18
 -0.59454961D-03 -0.55231482D-04 -0.12779567D-17  0.29197333D+00  0.54404931D+00
  0.92012378D+00  0.13856554D+01  0.17155313D+01  0.14598397D+01  0.55549595D+00
 -0.26016245D-02 -0.11608889D-02 -0.21766775D-02 -0.37031760D-02 -0.57506414D-02
 -0.76314356D-02 -0.80424856D-02 -0.49868541D-02  0.33172573D-02  0.29060294D-01
  0.15800360D-02  0.28147553D-04  0.16256344D-17  0.15614024D-17  0.10949631D-17
  0.34552036D-02  0.33186818D-02  0.23272887D-02  0.45165494D-02  0.43380917D-02
  0.30421694D-02  0.16557262D-17  0.56350537D-03  0.22809627D-03  0.23569506D-18
 -0.83652459D-03 -0.49017136D-03  0.53392051D-18  0.25589244D-04  0.94454777D-05
 -0.25370143D-02  0.20327107D-02  0.50430364D-03 -0.66169316D-18 -0.64620642D-18
 -0.11755798D-02  0.77107763D-03 -0.63388214D-03 -0.13719549D-03 -0.11564554D-18
  0.64256169D-18  0.36837187D-03  0.15944217D-03 -0.16509259D-03  0.56504231D-05
  0.79196529D-18 -0.47241203D-18  0.96880378D-04 -0.15025433D-18 -0.48096249D-04
  0.99159712D-04  0.59571881D-18  0.11589840D-03 -0.53479371D-04 -0.14495582D-18
  0.28390345D-04 -0.24399976D-03 -0.35006208D-18  0.13075073D-18 -0.30767310D-03
 -0.45858289D-04 -0.28079676D-18  0.32846970D-03  0.19280635D-03 -0.11145543D-18
  0.59454961D-03 -0.55231483D-04  0.75666124D-19
MO    2     MO 0.0        OCC NO =    2.0000000  ORB. ENERGY =  -14.549853
  0.65657044D-04  0.11841518D-03  0.17460312D-03 -0.66494441D-04 -0.57615659D-03
 -0.11760697D-04 -0.34914222D-16 -0.19311559D-03  0.21400489D-03 -0.34192969D-16
  0.12432838D-02  0.42452730D-03  0.11887482D-16 -0.14628965D-04  0.19234028D-03
  0.29090417D-03 -0.23741095D-03 -0.53493213D-04 -0.65313400D-17  0.37342896D-16
 -0.91283480D-03  0.11895175D-03 -0.92213903D-04 -0.26737848D-04  0.13339551D-17
 -0.53076628D-17 -0.10428094D-03 -0.65657044D-04 -0.11841518D-03 -0.17460312D-03
  0.66494441D-04  0.57615659D-03  0.11760697D-04  0.75203873D-18 -0.19311559D-03
 -0.21400489D-03 -0.13937351D-17  0.12432838D-02 -0.42452730D-03  0.76847663D-18
 -0.14628965D-04 -0.19234028D-03 -0.29090417D-03  0.23741095D-03  0.53493213D-04
  0.12338463D-17  0.39511514D-18 -0.91283480D-03 -0.11895175D-03  0.92213903D-04
  0.26737848D-04 -0.44102641D-18 -0.52311620D-18 -0.10428094D-03 -0.27789506D-04
 -0.50119519D-04 -0.73901201D-04  0.38609630D-02  0.35681261D-02 -0.30681833D-04
 -0.22722375D-17 -0.11652021D-03  0.70355847D-05  0.42891905D-17 -0.99637245D-03
 -0.23932598D-02 -0.12340640D-17 -0.27445023D-03 -0.31779841D-03 -0.28661722D-03
 -0.73750193D-04  0.36036741D-03 -0.53585749D-18  0.12579395D-17  0.41560031D-03
 -0.86012189D-04 -0.79941352D-05  0.94006324D-04 -0.14875924D-18  0.17520213D-18
  0.98898753D-04  0.27789506D-04  0.50119519D-04  0.73901201D-04 -0.38609630D-02
 -0.35681261D-02  0.30681833D-04  0.20560824D-17 -0.11652021D-03 -0.70355846D-05
 -0.31386640D-17 -0.99637245D-03  0.23932598D-02 -0.63533609D-18 -0.27445023D-03
  0.31779841D-03  0.28661722D-03  0.73750192D-04 -0.36036741D-03 -0.55768238D-18
 -0.35810730D-18  0.41560031D-03  0.86012189D-04  0.79941352D-05 -0.94006324D-04
  0.56825101D-18  0.13846760D-17  0.98898753D-04  0.18267570D-03  0.34054905D-03
  0.57558788D-03  0.86529712D-03  0.10631175D-02  0.89797267D-03  0.33868225D-03
 -0.16761574D-05 -0.14164389D-03 -0.26520206D-03 -0.45152919D-03 -0.69844701D-03
 -0.91983014D-03 -0.95576243D-03 -0.60734412D-03  0.40702791D-03  0.62851692D-03
  0.29637761D-02 -0.97823000D-03  0.18512504D-17  0.17356649D-17  0.12358968D-17
 -0.26342363D-03 -0.24697640D-03 -0.17586191D-03 -0.35273869D-03 -0.33071495D-03
 -0.23548874D-03 -0.16022368D-17  0.92043468D-03 -0.18245448D-02 -0.20275291D-17
 -0.20939298D-02  0.31168612D-03 -0.15257515D-18  0.32138987D-04 -0.49903638D-04
 -0.85628432D-04 -0.22765531D-03  0.31328374D-03 -0.28269859D-17  0.92563190D-18
  0.50634026D-03  0.16434837D-03  0.12709443D-02 -0.14352926D-02  0.23329989D-17
 -0.10958014D-17 -0.15209018D-02 -0.24540442D-04  0.24757663D-03 -0.22303619D-03
 -0.25790760D-18 -0.78833204D-18 -0.38376106D-03 -0.27610121D-18 -0.26080689D-03
  0.22361498D-03  0.11085723D-17 -0.16705794D-03 -0.33253071D-03 -0.28026867D-18
  0.94947862D-03 -0.33831425D-03  0.64832849D-18 -0.14524660D-18 -0.41954430D-03
 -0.46404797D-04  0.35562712D-17  0.27453613D-04 -0.14020649D-03 -0.31205314D-17
  0.12311793D-02  0.27942088D-03 -0.25375802D-17 -0.18267570D-03 -0.34054905D-03
 -0.57558788D-03 -0.86529712D-03 -0.10631175D-02 -0.89797267D-03 -0.33868225D-03
  0.16761574D-05  0.14164389D-03  0.26520206D-03  0.45152919D-03  0.69844701D-03
  0.91983014D-03  0.95576243D-03  0.60734412D-03 -0.40702791D-03 -0.62851692D-03
 -0.29637761D-02  0.97823000D-03 -0.26871370D-17 -0.25193617D-17 -0.17939356D-17
 -0.26342363D-03 -0.24697640D-03 -0.17586191D-03  0.35273869D-03  0.33071495D-03
  0.23548874D-03  0.21718197D-17  0.92043468D-03  0.18245448D-02  0.50020021D-18
 -0.20939298D-02 -0.31168612D-03 -0.46916477D-20  0.32138987D-04  0.49903638D-04
  0.85628432D-04  0.22765531D-03 -0.31328374D-03 -0.14696004D-17  0.50424998D-18
  0.50634026D-03 -0.16434837D-03 -0.12709443D-02  0.14352926D-02  0.52628545D-18
  0.14877639D-17 -0.15209018D-02  0.24540442D-04 -0.24757663D-03  0.22303619D-03
  0.10701998D-17  0.99871676D-18 -0.38376106D-03  0.24098664D-18 -0.26080689D-03
 -0.22361498D-03 -0.24445184D-17 -0.16705794D-03  0.33253071D-03  0.17215585D-17
  0.94947862D-03  0.33831425D-03 -0.68127096D-18 -0.12465602D-18 -0.41954430D-03
  0.46404797D-04  0.10484839D-17  0.27453613D-04  0.14020649D-03 -0.67451587D-18
  0.12311793D-02 -0.27942088D-03 -0.28783949D-18  0.40800113D-03  0.76060687D-03
  0.12855596D-02  0.19326172D-02  0.23744435D-02  0.20055971D-02  0.75643744D-03
 -0.37436511D-05 -0.30395625D-03 -0.56910201D-03 -0.96894487D-03 -0.14988104D-02
 -0.19738805D-02 -0.20509883D-02 -0.13033110D-02  0.87344873D-03  0.11125292D-02
 -0.50750765D-02  0.32100961D-03 -0.36594543D-17 -0.34309710D-17 -0.24430558D-17
 -0.23035468D-03 -0.21597216D-03 -0.15378504D-03 -0.96193566D-04 -0.90187582D-04
 -0.64218931D-04  0.64282501D-18  0.69844428D-04 -0.18226321D-02  0.46711536D-17
  0.28708179D-04  0.14739805D-02  0.24578084D-18  0.50457274D-04 -0.27227287D-05
  0.19112365D-04 -0.33364768D-03  0.31453532D-03 -0.23194802D-17 -0.30964049D-17
  0.18563199D-03  0.67494385D-03  0.16580770D-03 -0.84075155D-03  0.19620954D-17
  0.12364665D-17 -0.43311784D-02  0.51448978D-04  0.20240231D-03 -0.25385129D-03
  0.85283252D-18  0.20922672D-18 -0.60780544D-03  0.37329072D-18  0.16915770D-03
 -0.29127559D-04 -0.48877329D-18 -0.25935852D-03 -0.10066142D-03 -0.63109889D-18
 -0.24811458D-03  0.18804410D-03  0.56547796D-17 -0.13720700D-18 -0.22499304D-03
 -0.19755042D-04  0.17591741D-17  0.15732247D-03  0.39743017D-04 -0.13475531D-17
  0.51765666D-03  0.19522110D-04 -0.69021901D-17 -0.40800113D-03 -0.76060687D-03
 -0.12855596D-02 -0.19326172D-02 -0.23744435D-02 -0.20055971D-02 -0.75643744D-03
  0.37436511D-05  0.30395625D-03  0.56910201D-03  0.96894487D-03  0.14988104D-02
  0.19738805D-02  0.20509883D-02  0.13033110D-02 -0.87344873D-03 -0.11125292D-02
  0.50750765D-02 -0.32100961D-03 -0.44826249D-18 -0.42027457D-18 -0.29926053D-18
 -0.23035468D-03 -0.21597216D-03 -0.15378504D-03  0.96193566D-04  0.90187582D-04
  0.64218931D-04  0.68928285D-19  0.69844427D-04  0.18226321D-02 -0.26268852D-17
  0.28708179D-04 -0.14739805D-02 -0.12456050D-18  0.50457274D-04  0.27227287D-05
 -0.19112365D-04  0.33364768D-03 -0.31453532D-03  0.24739368D-17 -0.10953358D-17
  0.18563199D-03 -0.67494385D-03 -0.16580770D-03  0.84075155D-03 -0.24970531D-17
 -0.72798076D-18 -0.43311784D-02 -0.51448978D-04 -0.20240231D-03  0.25385129D-03
 -0.66951014D-18  0.26381010D-18 -0.60780544D-03  0.48075688D-18  0.16915770D-03