 Molden2AIM, Version 4.0.0 (06/02/2016)           Time: Fri Jun 29 22:41:36 2018
GAUSSIAN              7 MOL ORBITALS    158 PRIMITIVES        2 NUCLEI
  Al   1    (CENTRE  1)   0.00000000  0.00000000 -0.01387626  CHARGE = 13.0
  H    2    (CENTRE  2)   0.00000000  0.00000000  3.13186956  CHARGE =  1.0
CENTRE ASSIGNMENTS    1  1  1  1  1  1  1  1  1  1  1  1  1  1  1  1  1  1  1  1
CENTRE ASSIGNMENTS    1  1  1  1  1  1  1  1  1  1  1  1  1  1  1  1  1  1  1  1
CENTRE ASSIGNMENTS    1  1  1  1  1  1  1  1  1  1  1  1  1  1  1  1  1  1  1  1
CENTRE ASSIGNMENTS    1  1  1  1  1  1  1  1  1  1  1  1  1  1  1  1  1  1  1  1
CENTRE ASSIGNMENTS    1  1  1  1  1  1  1  1  1  1  1  1  1  1  1  1  1  1  1  1
CENTRE ASSIGNMENTS    1  1  1  1  1  1  1  1  1  1  1  1  1  1  1  1  1  1  1  1
CENTRE ASSIGNMENTS    1  1  1  1  1  1  1  1  1  1  1  2  2  2  2  2  2  2  2  2
CENTRE ASSIGNMENTS    2  2  2  2  2  2  2  2  2  2  2  2  2  2  2  2  2  2
TYPE ASSIGNMENTS      1  1  1  1  1  1  1  1  1  1  1  1  1  1  1  1  1  1  1  1
TYPE ASSIGNMENTS      1  1  1  1  1  1  1  1  1  1  1  1  1  1  1  1  1  1  1  1
TYPE ASSIGNMENTS      1  1  2  2  2  2  2  2  2  3  3  3  3  3  3  3  4  4  4  4
TYPE ASSIGNMENTS      4  4  4  2  2  2  2  2  2  2  3  3  3  3  3  3  3  4  4  4
TYPE ASSIGNMENTS      4  4  4  4  2  3  4  2  3  4  2  3  4  5  6  7  8  9 10  5
TYPE ASSIGNMENTS      6  7  8  9 10  5  6  7  8  9 10 11 12 13 17 14 15 18 19 16
TYPE ASSIGNMENTS     20 11 12 13 17 14 15 18 19 16 20  1  1  1  1  1  1  2  3  4
TYPE ASSIGNMENTS      2  3  4  2  3  4  5  6  7  8  9 10  5  6  7  8  9 10
EXPONENTS  0.2055000D+06 0.3078000D+05 0.7006000D+04 0.1985000D+04 0.6491000D+03
EXPONENTS  0.2350000D+03 0.9162000D+02 0.3767000D+02 0.1591000D+02 0.5850000D+01
EXPONENTS  0.2542000D+01 0.1057000D+01 0.1455000D+00 0.2055000D+06 0.3078000D+05
EXPONENTS  0.7006000D+04 0.1985000D+04 0.6491000D+03 0.2350000D+03 0.9162000D+02
EXPONENTS  0.3767000D+02 0.1591000D+02 0.5850000D+01 0.2542000D+01 0.1057000D+01
EXPONENTS  0.1455000D+00 0.2055000D+06 0.3078000D+05 0.7006000D+04 0.1985000D+04
EXPONENTS  0.6491000D+03 0.2350000D+03 0.9162000D+02 0.3767000D+02 0.1591000D+02
EXPONENTS  0.5850000D+01 0.2542000D+01 0.1057000D+01 0.1455000D+00 0.2931000D+00
EXPONENTS  0.5650000D-01 0.2210000D-01 0.4444000D+03 0.1051000D+03 0.3347000D+02
EXPONENTS  0.1233000D+02 0.4869000D+01 0.1961000D+01 0.1888000D+00 0.4444000D+03
EXPONENTS  0.1051000D+03 0.3347000D+02 0.1233000D+02 0.4869000D+01 0.1961000D+01
EXPONENTS  0.1888000D+00 0.4444000D+03 0.1051000D+03 0.3347000D+02 0.1233000D+02
EXPONENTS  0.4869000D+01 0.1961000D+01 0.1888000D+00 0.4444000D+03 0.1051000D+03
EXPONENTS  0.3347000D+02 0.1233000D+02 0.4869000D+01 0.1961000D+01 0.1888000D+00
EXPONENTS  0.4444000D+03 0.1051000D+03 0.3347000D+02 0.1233000D+02 0.4869000D+01
EXPONENTS  0.1961000D+01 0.1888000D+00 0.4444000D+03 0.1051000D+03 0.3347000D+02
EXPONENTS  0.1233000D+02 0.4869000D+01 0.1961000D+01 0.1888000D+00 0.7834000D+00
EXPONENTS  0.7834000D+00 0.7834000D+00 0.5557000D-01 0.5557000D-01 0.5557000D-01
EXPONENTS  0.1460000D-01 0.1460000D-01 0.1460000D-01 0.1090000D+00 0.1090000D+00
EXPONENTS  0.1090000D+00 0.1090000D+00 0.1090000D+00 0.1090000D+00 0.3330000D+00
EXPONENTS  0.3330000D+00 0.3330000D+00 0.3330000D+00 0.3330000D+00 0.3330000D+00
EXPONENTS  0.3560000D-01 0.3560000D-01 0.3560000D-01 0.3560000D-01 0.3560000D-01
EXPONENTS  0.3560000D-01 0.2440000D+00 0.2440000D+00 0.2440000D+00 0.2440000D+00
EXPONENTS  0.2440000D+00 0.2440000D+00 0.2440000D+00 0.2440000D+00 0.2440000D+00
EXPONENTS  0.2440000D+00 0.8580000D-01 0.8580000D-01 0.8580000D-01 0.8580000D-01
EXPONENTS  0.8580000D-01 0.8580000D-01 0.8580000D-01 0.8580000D-01 0.8580000D-01
EXPONENTS  0.8580000D-01 0.3387000D+02 0.5095000D+01 0.1159000D+01 0.3258000D+00
EXPONENTS  0.1027000D+00 0.2526000D-01 0.1407000D+01 0.1407000D+01 0.1407000D+01
EXPONENTS  0.3880000D+00 0.3880000D+00 0.3880000D+00 0.1020000D+00 0.1020000D+00
EXPONENTS  0.1020000D+00 0.1057000D+01 0.1057000D+01 0.1057000D+01 0.1057000D+01
EXPONENTS  0.1057000D+01 0.1057000D+01 0.2470000D+00 0.2470000D+00 0.2470000D+00
EXPONENTS  0.2470000D+00 0.2470000D+00 0.2470000D+00
MO    1     MO 0.0        OCC NO =    2.0000000  ORB. ENERGY =  -56.886501
  0.46727632D+00  0.87364477D+00  0.15084504D+01  0.24332674D+01  0.36519255D+01
  0.49243601D+01  0.55099187D+01  0.42984815D+01  0.16168994D+01  0.11926686D+00
 -0.70328955D-02  0.19423056D-02  0.12131804D-03 -0.61749631D-03 -0.11564405D-02
 -0.19969200D-02 -0.32484862D-02 -0.49451614D-02 -0.69960997D-02 -0.86273252D-02
 -0.86478809D-02 -0.48653755D-02  0.17311719D-02  0.41002499D-02  0.16509596D-02
 -0.97898304D-05  0.29790217D-03  0.55744256D-03  0.96393657D-03  0.15661544D-02
  0.23924290D-02  0.33865474D-02  0.42244387D-02  0.42951110D-02  0.25322982D-02
 -0.10101000D-02 -0.26716623D-02 -0.21818205D-02  0.11653806D-02 -0.10762362D-02
  0.40544400D-04  0.10167565D-03  0.19130511D-17  0.25329566D-17  0.28392585D-17
  0.25000762D-17  0.15015476D-17  0.54592390D-18  0.69995951D-21  0.46573498D-17
  0.61665184D-17  0.69122148D-17  0.60864706D-17  0.36555388D-17  0.13290594D-17
  0.17040613D-20  0.54389273D-02  0.72013584D-02  0.80721946D-02  0.71078773D-02
  0.42689965D-02  0.15520967D-02  0.19900299D-05 -0.65654912D-19 -0.91629913D-19
 -0.98298632D-19 -0.94588315D-19 -0.52104353D-19 -0.25353397D-19  0.70408199D-20
 -0.28611935D-18 -0.39931652D-18 -0.42837831D-18 -0.41220902D-18 -0.22706699D-18
 -0.11048827D-18  0.30683383D-19 -0.43548976D-02 -0.60778223D-02 -0.65201591D-02
 -0.62740534D-02 -0.34560875D-02 -0.16816936D-02  0.46701836D-03 -0.17416689D-18
 -0.46610746D-18 -0.21747290D-03 -0.13067627D-20 -0.17530122D-20  0.74711123D-04
  0.43781802D-22  0.12958724D-21  0.33326388D-05 -0.12290013D-04 -0.12290013D-04
  0.24580026D-04 -0.16593317D-20 -0.17726566D-20  0.13172522D-20 -0.81857765D-04
 -0.81857765D-04  0.16371553D-03  0.18151970D-19  0.67079252D-20  0.10307781D-19
 -0.42107103D-06 -0.42107103D-06  0.84214207D-06  0.83420583D-22 -0.39241331D-23
  0.39605947D-22 -0.17711534D-21 -0.53755511D-21  0.23359872D-04 -0.76595519D-22
 -0.11141719D-20 -0.35039808D-04  0.60794152D-21  0.27268373D-20 -0.35039808D-04
  0.23363277D-21  0.47848559D-22 -0.40875059D-22 -0.82035421D-06  0.25337470D-22
 -0.23877382D-22  0.12305313D-05 -0.16888315D-21  0.14650256D-21  0.12305313D-05
 -0.24947880D-23  0.28327465D-04  0.51089750D-04  0.75331806D-04 -0.21465853D-03
 -0.66941453D-03 -0.11517370D-03 -0.37933992D-21  0.79478651D-20 -0.39479958D-03
 -0.14846410D-20 -0.95391330D-20  0.50150065D-03  0.27202526D-20 -0.30784452D-20
  0.21304805D-03 -0.75098537D-05 -0.75098537D-05  0.15019707D-04 -0.32686180D-20
  0.14879388D-19  0.88032866D-20  0.50852721D-04  0.50852721D-04 -0.10170544D-03
 -0.84285131D-22 -0.28221520D-20  0.40004784D-20
MO    2     MO 0.0        OCC NO =    2.0000000  ORB. ENERGY =   -4.391177
 -0.24483372D-02 -0.45775420D-02 -0.79036642D-02 -0.12749328D-01 -0.19134599D-01
 -0.25801637D-01 -0.28869725D-01 -0.22522288D-01 -0.84718926D-02 -0.62490967D-03
  0.36849502D-04 -0.10176889D-04 -0.63565700D-06 -0.11687554D+00 -0.21888327D+00
 -0.37796357D+00 -0.61485159D+00 -0.93598685D+00 -0.13241746D+01 -0.16329220D+01
 -0.16368127D+01 -0.92088551D+00  0.32766456D+00  0.77606768D+00  0.31248251D+00
 -0.18529532D-02 -0.16852928D-02 -0.31535652D-02 -0.54531839D-02 -0.88600520D-02
 -0.13534454D-01 -0.19158383D-01 -0.23898503D-01 -0.24298311D-01 -0.14325723D-01
  0.57143398D-02  0.15114133D-01  0.12343000D-01 -0.65927933D-02  0.19661893D-01
  0.63556080D-03 -0.52284206D-03  0.10486649D-15  0.13884745D-15  0.15563781D-15
  0.13704507D-15  0.82309373D-16  0.29925560D-16  0.38369231D-19 -0.16704615D-16
 -0.22117582D-16 -0.24792187D-16 -0.21830473D-16 -0.13111399D-16 -0.47669655D-17
 -0.61119926D-20  0.67956124D-02  0.89976640D-02  0.10085721D-01  0.88808650D-02
  0.53338543D-02  0.19392515D-02  0.24864226D-05  0.79332288D-17  0.11071846D-16
  0.11877642D-16  0.11429316D-16  0.62958847D-17  0.30635072D-17 -0.85075790D-18
 -0.16055295D-17 -0.22407238D-17 -0.24038011D-17 -0.23130687D-17 -0.12741632D-17
 -0.61999360D-18  0.17217666D-18  0.11633760D-01  0.16236415D-01  0.17418083D-01
  0.16760631D-01  0.92326609D-02  0.44925098D-02 -0.12476021D-02  0.65226031D-17
 -0.32787766D-17  0.23222558D-02 -0.30474073D-19  0.68949256D-19 -0.26997915D-03
 -0.14942299D-20 -0.88986359D-21 -0.15497493D-04  0.33984264D-04  0.33984264D-04
 -0.67968528D-04  0.57868083D-19 -0.13716142D-18  0.92172071D-19  0.32573271D-03
  0.32573271D-03 -0.65146542D-03 -0.87858156D-18 -0.10579317D-17  0.67029451D-18
  0.21213632D-05  0.21213632D-05 -0.42427265D-05 -0.32265253D-20 -0.46905658D-20
  0.28129835D-20  0.69924908D-19 -0.23996216D-19 -0.78764941D-04  0.90629298D-20
 -0.63232681D-19  0.11814741D-03 -0.21883766D-18  0.13522133D-18  0.11814741D-03
 -0.70640723D-20  0.28339395D-20 -0.25323855D-20  0.26374966D-05  0.40279687D-20
 -0.16261105D-20 -0.39562449D-05 -0.12529787D-19  0.92232670D-20 -0.39562449D-05
  0.30071060D-22  0.10360104D-04  0.18684875D-04  0.27550837D-04  0.75984024D-03
  0.19529943D-02  0.49357061D-03 -0.56855921D-18  0.33520904D-18  0.41811822D-03
  0.72458809D-18 -0.25778940D-18 -0.10819445D-02  0.35847942D-18 -0.25169049D-18
 -0.65022667D-03  0.28596637D-04  0.28596637D-04 -0.57193275D-04 -0.18632299D-19
  0.29226177D-18 -0.53299968D-18 -0.90570221D-04 -0.90570221D-04  0.18114044D-03
  0.12891048D-19 -0.71857385D-18  0.40407898D-18
MO    3     MO 0.0        OCC NO =    2.0000000  ORB. ENERGY =   -2.891068
 -0.14493444D-15 -0.27097717D-15 -0.46787393D-15 -0.75472313D-15 -0.11327126D-14
 -0.15273818D-14 -0.17090037D-14 -0.13332539D-14 -0.50151140D-15 -0.36992834D-16
  0.21813833D-17 -0.60244219D-18 -0.37629045D-19  0.29501540D-15  0.55250169D-15
  0.95404968D-15  0.15519987D-14  0.23626032D-14  0.33424607D-14  0.41217960D-14
  0.41316167D-14  0.23244847D-14 -0.82708570D-15 -0.19589378D-14 -0.78876343D-15
  0.46771951D-17 -0.20516093D-15 -0.38390265D-15 -0.66384921D-15 -0.10785880D-14
 -0.16476313D-14 -0.23322663D-14 -0.29093100D-14 -0.29579810D-14 -0.17439573D-14
  0.69564129D-15  0.18399353D-14  0.15025883D-14 -0.80258078D-15 -0.27192847D-15
 -0.16780296D-14 -0.44322713D-15 -0.20618975D+01 -0.27300352D+01 -0.30601692D+01
 -0.26945965D+01 -0.16183767D+01 -0.58839993D+00 -0.75442040D-03  0.42635934D+01
  0.56451691D+01  0.63278205D+01  0.55718889D+01  0.33464807D+01  0.12166939D+01
  0.15599911D-02 -0.49197983D-13 -0.65140107D-13 -0.73017282D-13 -0.64294521D-13
 -0.38615338D-13 -0.14039538D-13 -0.18000876D-16  0.59040159D-02  0.82398170D-02
  0.88395014D-02  0.85058512D-02  0.46854823D-02  0.22799034D-02 -0.63314550D-03
 -0.12208329D-01 -0.17038300D-01 -0.18278328D-01 -0.17588406D-01 -0.96886442D-02
 -0.47143862D-02  0.13092188D-02  0.51700510D-14  0.72154741D-14  0.77406080D-14
  0.74484360D-14  0.41030009D-14  0.19964745D-14 -0.55443525D-15 -0.87158011D-01
  0.18022541D+00 -0.18247726D-14  0.10654891D-04 -0.22032193D-04 -0.73705093D-15
 -0.30738149D-05  0.63560370D-05 -0.14697097D-16  0.11427332D-15  0.12590158D-15
 -0.24017489D-15  0.14643595D-17 -0.10308529D-03  0.21315986D-03 -0.32055749D-15
 -0.35770534D-15  0.67826284D-15 -0.11583498D-16 -0.33218421D-03  0.68689078D-03
  0.69795798D-17  0.66080100D-17 -0.13587590D-16 -0.83424201D-19 -0.32475641D-05
  0.67153157D-05  0.17232183D-04 -0.35632721D-04 -0.18864710D-16  0.17231659D-04
 -0.35631638D-04 -0.12531440D-16 -0.68928206D-04  0.14252980D-03  0.69125569D-16
 -0.12629424D-16  0.31430893D-05 -0.64992827D-05 -0.95526857D-17  0.31430740D-05
 -0.64992510D-05  0.14908797D-16 -0.12572342D-04  0.25997099D-04  0.13749260D-16
  0.40504335D-19 -0.66833014D-16 -0.12053609D-15 -0.17773040D-15 -0.15530508D-14
  0.43800132D-14  0.63839159D-15 -0.29945243D-03  0.61920798D-03  0.54601535D-15
  0.25875277D-03 -0.53504918D-03 -0.65972931D-15  0.26148956D-03 -0.54070834D-03
 -0.58505207D-15 -0.96555995D-16 -0.10345362D-15  0.20000961D-15 -0.13065380D-15
  0.38324551D-03 -0.79247538D-03 -0.24790934D-16 -0.97452389D-16  0.12224332D-15
  0.15933179D-16 -0.36037407D-03  0.74518180D-03
MO    4     MO 0.0        OCC NO =    2.0000000  ORB. ENERGY =   -2.891068
  0.11134032D-15  0.20816781D-15  0.35942618D-15  0.57978707D-15  0.87016296D-15
  0.11733525D-14  0.13128765D-14  0.10242211D-14  0.38526687D-15  0.28418324D-16
 -0.16757640D-17  0.46280308D-18  0.28907069D-19 -0.16788095D-15 -0.31440565D-15
 -0.54290985D-15 -0.88317767D-15 -0.13444589D-14 -0.19020549D-14 -0.23455420D-14
 -0.23511306D-14 -0.13227672D-14  0.47065995D-15  0.11147497D-14  0.44885235D-15
 -0.26615965D-17  0.12854807D-15  0.24054262D-15  0.41594927D-15  0.67581292D-15
  0.10323595D-14  0.14613326D-14  0.18228919D-14  0.18533878D-14  0.10927146D-14
 -0.43586929D-15 -0.11528518D-14 -0.94147964D-15  0.50287457D-15 -0.20501838D-15
  0.17832255D-15 -0.33411750D-16  0.42635934D+01  0.56451691D+01  0.63278205D+01
  0.55718889D+01  0.33464807D+01  0.12166939D+01  0.15599911D-02  0.20618975D+01
  0.27300352D+01  0.30601692D+01  0.26945965D+01  0.16183767D+01  0.58839993D+00
  0.75442040D-03  0.46217051D-12  0.61193233D-12  0.68593125D-12  0.60398881D-12
  0.36275614D-12  0.13188875D-12  0.16910193D-15 -0.12208329D-01 -0.17038300D-01
 -0.18278328D-01 -0.17588406D-01 -0.96886442D-02 -0.47143862D-02  0.13092188D-02
 -0.59040159D-02 -0.82398170D-02 -0.88395014D-02 -0.85058512D-02 -0.46854823D-02
 -0.22799034D-02  0.63314550D-03 -0.40740303D-14 -0.56858357D-14 -0.60996442D-14
 -0.58694110D-14 -0.32331886D-14 -0.15732335D-14  0.43689821D-15  0.18022541D+00
  0.87158011D-01  0.18794419D-13 -0.22032193D-04 -0.10654891D-04  0.37068156D-16
  0.63560370D-05  0.30738149D-05 -0.35054668D-17 -0.12834897D-16 -0.12569286D-16
  0.25404182D-16 -0.52170127D-17  0.21315986D-03  0.10308529D-03 -0.10040922D-15
 -0.10218773D-15  0.20259694D-15 -0.26808350D-17  0.68689078D-03  0.33218421D-03
  0.27916649D-18  0.26453780D-18 -0.54370429D-18  0.14623103D-20  0.67153157D-05
  0.32475641D-05 -0.35632721D-04 -0.17232183D-04  0.31361530D-16 -0.35631638D-04
 -0.17231659D-04 -0.48403332D-16  0.14252980D-03  0.68928206D-04 -0.45681259D-16
 -0.19781205D-18 -0.64992827D-05 -0.31430893D-05 -0.92184917D-18 -0.64992510D-05
 -0.31430740D-05  0.13965364D-17  0.25997099D-04  0.12572342D-04  0.13690111D-17
  0.15105905D-20  0.15573532D-15  0.28087505D-15  0.41415010D-15 -0.47608962D-15
 -0.43698214D-15  0.16408494D-16  0.61920798D-03  0.29945243D-03  0.24650147D-15
 -0.53504918D-03 -0.25875277D-03  0.39282077D-15 -0.54070834D-03 -0.26148956D-03
  0.11511476D-15  0.12963284D-16  0.12792787D-16 -0.25756070D-16 -0.22549304D-17
 -0.79247538D-03 -0.38324551D-03  0.30312023D-16  0.27872370D-16 -0.58184393D-16
  0.22909019D-18  0.74518180D-03  0.36037407D-03
MO    5     MO 0.0        OCC NO =    2.0000000  ORB. ENERGY =   -2.886979
  0.54015083D-03  0.10098949D-02  0.17437021D-02  0.28127499D-02  0.42214649D-02
  0.56923432D-02  0.63692231D-02  0.49688551D-02  0.18690644D-02  0.13786723D-03
 -0.81297173D-05  0.22452197D-05  0.14023830D-06 -0.55621787D-03 -0.10416789D-02
 -0.17987518D-02 -0.29261164D-02 -0.44544188D-02 -0.63018282D-02 -0.77711759D-02
 -0.77896917D-02 -0.43825506D-02  0.15593757D-02  0.36933537D-02  0.14871234D-02
 -0.88183177D-05  0.73742693D-03  0.13798931D-02  0.23861283D-02  0.38768581D-02
  0.59222179D-02  0.83830582D-02  0.10457174D-01  0.10632116D-01  0.62684502D-02
 -0.25004012D-02 -0.66134319D-02 -0.54008778D-02  0.28847826D-02 -0.52108274D-03
  0.24355168D-02  0.20954013D-03 -0.43030710D-12 -0.56974390D-12 -0.63864112D-12
 -0.56234803D-12 -0.33774666D-12 -0.12279595D-12 -0.15744355D-15 -0.15926674D-12
 -0.21087557D-12 -0.23637604D-12 -0.20813818D-12 -0.12500795D-12 -0.45449659D-13
 -0.58273545D-16  0.47763937D+01  0.63241372D+01  0.70888939D+01  0.62420433D+01
  0.37489760D+01  0.13630307D+01  0.17476178D-02  0.12176485D-14  0.16993858D-14
  0.18230651D-14  0.17542528D-14  0.96633723D-15  0.47020891D-15 -0.13058038D-15
  0.45112486D-15  0.62960303D-15  0.67542481D-15  0.64993066D-15  0.35801691D-15
  0.17420704D-15 -0.48378541D-16 -0.35291063D-01 -0.49253238D-01 -0.52837832D-01
 -0.50843449D-01 -0.28007318D-01 -0.13628048D-01  0.37846066D-02 -0.18214293D-13
 -0.67294503D-14  0.19460413D+00  0.25833255D-17  0.93146836D-18  0.64150183D-03
 -0.64330153D-18 -0.23388992D-18  0.11057401D-04 -0.18725800D-03 -0.18725800D-03
  0.37451599D-03 -0.86355620D-20 -0.21354002D-16 -0.79215606D-17 -0.46567542D-03
 -0.46567542D-03  0.93135084D-03  0.32225804D-19 -0.68652281D-16 -0.26313069D-16
 -0.43285801D-05 -0.43285801D-05  0.86571602D-05  0.36336205D-21 -0.66986545D-18
 -0.25385468D-18  0.36077368D-17  0.13059542D-17  0.18342856D-03  0.35613046D-17
  0.13192795D-17 -0.27514283D-03 -0.14384515D-16 -0.52371422D-17 -0.27514283D-03
 -0.23829045D-18  0.64906519D-18  0.24448007D-18  0.11258633D-04  0.65103057D-18
  0.24376381D-18 -0.16887950D-04 -0.25982261D-17 -0.97720403D-18 -0.16887950D-04
  0.82412245D-20  0.48005370D-03  0.86579661D-03  0.12766166D-02 -0.21240560D-02
 -0.55856901D-02 -0.48384637D-03 -0.62217667D-16 -0.22742558D-16 -0.23538178D-02
  0.53966198D-16  0.19889993D-16  0.31325927D-02  0.54084172D-16  0.20218108D-16
  0.10259651D-02  0.51701935D-03  0.51701935D-03 -0.10340387D-02  0.44838837D-19
  0.79616236D-16  0.28943522D-16  0.91662185D-04  0.91662185D-04 -0.18332437D-03
  0.46711894D-19 -0.74630941D-16 -0.27721944D-16
MO    6     MO 0.0        OCC NO =    2.0000000  ORB. ENERGY =   -0.416412
 -0.48477990D-03 -0.90637040D-03 -0.15649550D-02 -0.25244145D-02 -0.37887220D-02
 -0.51088204D-02 -0.57163133D-02 -0.44594971D-02 -0.16774664D-02 -0.12373445D-03
  0.72963389D-05 -0.20150619D-05 -0.12586246D-06  0.20120687D-02  0.37681807D-02
  0.65068246D-02  0.10584966D-01  0.16113464D-01  0.22796303D-01  0.28111538D-01
  0.28178517D-01  0.15853487D-01 -0.56409029D-02 -0.13360378D-01 -0.53795368D-02
  0.31899480D-04  0.21980979D-01  0.41131399D-01  0.71124924D-01  0.11556011D+00
  0.17652752D+00  0.24987943D+00  0.31170400D+00  0.31691862D+00  0.18684790D+00
 -0.74531134D-01 -0.19713100D+00 -0.16098758D+00  0.85988650D-01  0.30284652D-01
  0.15118512D-01  0.71736694D-04 -0.18868236D-15 -0.24982302D-15 -0.28003329D-15
 -0.24658006D-15 -0.14809617D-15 -0.53843939D-16 -0.69036321D-19  0.48790754D-15
  0.64600920D-15  0.72412893D-15  0.63762333D-15  0.38295706D-15  0.13923328D-15
  0.17851877D-18 -0.73363539D-01 -0.97136274D-01 -0.10888264D+00 -0.95875345D-01
 -0.57582805D-01 -0.20935619D-01 -0.26842726D-04  0.83849416D-16  0.11702269D-15
  0.12553947D-15  0.12080094D-15  0.66543682D-16  0.32379413D-16 -0.89919949D-17
  0.95465194D-16  0.13323401D-15  0.14293063D-15  0.13753566D-15  0.75762072D-16
  0.36864979D-16 -0.10237669D-16 -0.23230134D+00 -0.32420653D+00 -0.34780191D+00
 -0.33467400D+00 -0.18435652D+00 -0.89705825D-01  0.24911950D-01 -0.76514694D-17
 -0.38661015D-16  0.70001962D-02  0.20979782D-17 -0.79631317D-18  0.88851282D-03
 -0.42527214D-19  0.19461958D-20 -0.13048834D-05 -0.37108985D-03 -0.37108985D-03
  0.74217971D-03 -0.15037913D-18  0.83395337D-18 -0.20401394D-17 -0.40419068D-02
 -0.40419068D-02  0.80838137D-02 -0.56946027D-17 -0.14314545D-17 -0.27142654D-17
  0.31256220D-05  0.31256220D-05 -0.62512440D-05 -0.28384017D-20  0.26008205D-19
 -0.68340533D-19  0.97412244D-19  0.32253426D-18  0.84344852D-03 -0.55766133D-19
  0.42142928D-18 -0.12651728D-02 -0.23647060D-18 -0.13890321D-17 -0.12651728D-02
 -0.57659769D-18 -0.30248546D-19  0.60519690D-19  0.14411587D-05 -0.26536640D-19
  0.39989983D-19 -0.21617381D-05  0.11728228D-18 -0.22154905D-18 -0.21617381D-05
 -0.33419179D-20  0.36125812D-01  0.65154389D-01  0.96070109D-01  0.63199033D-01
  0.17814659D-01  0.10975612D-05  0.32745020D-17 -0.47620047D-17 -0.18782139D-01
 -0.22430485D-17  0.49609106D-17 -0.11688841D-02 -0.11808988D-17  0.35482893D-17
  0.62952931D-03 -0.32836403D-02 -0.32836403D-02  0.65672805D-02 -0.11055767D-17
 -0.29771870D-17  0.85890152D-17  0.36228149D-03  0.36228149D-03 -0.72456298D-03
  0.30264759D-18  0.45711658D-18 -0.49857217D-17
MO    7     MO 0.0        OCC NO =    2.0000000  ORB. ENERGY =   -0.246153
 -0.31137402D-03 -0.58216152D-03 -0.10051703D-02 -0.16214309D-02 -0.24334953D-02
 -0.32813943D-02 -0.36715868D-02 -0.28643341D-02 -0.10774363D-02 -0.79474608D-04
  0.46864369D-05 -0.12942738D-05 -0.80841430D-07  0.31881584D-03  0.59707491D-03
  0.10310179D-02  0.16772066D-02  0.25532069D-02  0.36121146D-02  0.44543229D-02
  0.44649359D-02  0.25120131D-02 -0.89381106D-03 -0.21169756D-02 -0.85239713D-03
  0.50545291D-05  0.16971391D-01  0.31757324D-01  0.54915157D-01  0.89223315D-01
  0.13629591D+00  0.19293052D+00  0.24066492D+00  0.24469110D+00  0.14426422D+00
 -0.57545073D-01 -0.15220374D+00 -0.12429762D+00  0.66391357D-01  0.24915934D-01
  0.26635340D-01 -0.16792205D-03  0.28534941D-15  0.37781409D-15  0.42350189D-15
  0.37290968D-15  0.22396983D-15  0.81429640D-16  0.10440549D-18  0.65111492D-16
  0.86210232D-16  0.96635347D-16  0.85091134D-16  0.51105800D-16  0.18580747D-16
  0.23823414D-19  0.67803912D-01  0.89775104D-01  0.10063131D+00  0.88609731D-01
  0.53219072D-01  0.19349078D-01  0.24808534D-04 -0.37882015D-15 -0.52869246D-15
 -0.56717008D-15 -0.54576205D-15 -0.30063521D-15 -0.14628574D-15  0.40624598D-16
  0.47880688D-15  0.66823686D-15  0.71687036D-15  0.68981183D-15  0.37998562D-15
  0.18489676D-15 -0.51347155D-16  0.57514921D+00  0.80269503D+00  0.86111424D+00
  0.82861118D+00  0.45644380D+00  0.22210046D+00 -0.61678888D-01 -0.72694060D-16
  0.28321080D-16 -0.16633984D-01 -0.14087178D-18  0.24068159D-17 -0.85429076D-02
 -0.38799088D-19  0.14736440D-18 -0.74707657D-04  0.10229020D-02  0.10229020D-02
 -0.20458039D-02 -0.35321251D-18 -0.27946477D-17  0.76728148D-17  0.74403509D-02
  0.74403509D-02 -0.14880702D-01 -0.51784688D-17 -0.66361490D-17  0.14195880D-16
  0.36619191D-04  0.36619191D-04 -0.73238382D-04  0.70937132D-20 -0.11888672D-18
  0.20131318D-18  0.56772992D-19 -0.78895642D-18 -0.68479031D-03  0.10942209D-18
 -0.58313651D-18  0.10271855D-02 -0.27974107D-18  0.29500058D-17  0.10271855D-02
  0.58778109D-18  0.63590042D-19 -0.12913077D-18 -0.65419794D-05  0.46539683D-19
 -0.13864214D-18  0.98129692D-05 -0.23730981D-18  0.52603444D-18  0.98129692D-05
 -0.33535323D-19 -0.31480008D-01 -0.56775490D-01 -0.83715427D-01 -0.58760377D-01
 -0.25502401D-01  0.30922085D-03 -0.34771550D-17  0.45870203D-17  0.90811673D-02
  0.58294413D-17 -0.75126762D-17 -0.48048151D-02  0.47210858D-17 -0.13317223D-16
 -0.59298287D-04  0.21813772D-02  0.21813772D-02 -0.43627544D-02  0.51560948D-18
  0.47669546D-17 -0.18253301D-16 -0.29012248D-03 -0.29012248D-03  0.58024495D-03
  0.26792683D-18 -0.10007493D-17  0.14017326D-16
END DATA
RHF
