 Molden2AIM, Version 4.0.0 (06/02/2016)           Time: Fri Jun 29 22:38:51 2018
GAUSSIAN             20 MOL ORBITALS    338 PRIMITIVES        2 NUCLEI
  B    1    (CENTRE  1)   0.00000000  0.00000000 -0.37231573  CHARGE =  5.0
  Br   2    (CENTRE  2)   0.00000000  0.00000000  3.20690492  CHARGE = 35.0
CENTRE ASSIGNMENTS    1  1  1  1  1  1  1  1  1  1  1  1  1  1  1  1  1  1  1  1
CENTRE ASSIGNMENTS    1  1  1  1  1  1  1  1  1  1  1  1  1  1  1  1  1  1  1  1
CENTRE ASSIGNMENTS    1  1  1  1  1  1  1  1  1  1  1  1  1  1  1  1  1  1  1  1
CENTRE ASSIGNMENTS    1  1  1  1  1  1  1  1  1  1  1  1  1  1  1  2  2  2  2  2
CENTRE ASSIGNMENTS    2  2  2  2  2  2  2  2  2  2  2  2  2  2  2  2  2  2  2  2
CENTRE ASSIGNMENTS    2  2  2  2  2  2  2  2  2  2  2  2  2  2  2  2  2  2  2  2
CENTRE ASSIGNMENTS    2  2  2  2  2  2  2  2  2  2  2  2  2  2  2  2  2  2  2  2
CENTRE ASSIGNMENTS    2  2  2  2  2  2  2  2  2  2  2  2  2  2  2  2  2  2  2  2
CENTRE ASSIGNMENTS    2  2  2  2  2  2  2  2  2  2  2  2  2  2  2  2  2  2  2  2
CENTRE ASSIGNMENTS    2  2  2  2  2  2  2  2  2  2  2  2  2  2  2  2  2  2  2  2
CENTRE ASSIGNMENTS    2  2  2  2  2  2  2  2  2  2  2  2  2  2  2  2  2  2  2  2
CENTRE ASSIGNMENTS    2  2  2  2  2  2  2  2  2  2  2  2  2  2  2  2  2  2  2  2
CENTRE ASSIGNMENTS    2  2  2  2  2  2  2  2  2  2  2  2  2  2  2  2  2  2  2  2
CENTRE ASSIGNMENTS    2  2  2  2  2  2  2  2  2  2  2  2  2  2  2  2  2  2  2  2
CENTRE ASSIGNMENTS    2  2  2  2  2  2  2  2  2  2  2  2  2  2  2  2  2  2  2  2
CENTRE ASSIGNMENTS    2  2  2  2  2  2  2  2  2  2  2  2  2  2  2  2  2  2  2  2
CENTRE ASSIGNMENTS    2  2  2  2  2  2  2  2  2  2  2  2  2  2  2  2  2  2
TYPE ASSIGNMENTS      1  1  1  1  1  1  1  1  1  1  1  1  1  1  1  1  1  1  1  2
TYPE ASSIGNMENTS      2  2  3  3  3  4  4  4  2  3  4  2  3  4  2  3  4  5  6  7
TYPE ASSIGNMENTS      8  9 10  5  6  7  8  9 10  5  6  7  8  9 10 11 12 13 17 14
TYPE ASSIGNMENTS     15 18 19 16 20 11 12 13 17 14 15 18 19 16 20  1  1  1  1  1
TYPE ASSIGNMENTS      1  1  1  1  1  1  1  1  1  1  1  1  1  1  1  1  1  1  1  1
TYPE ASSIGNMENTS      1  1  1  1  1  1  1  1  1  1  1  1  1  1  1  1  1  1  1  1
TYPE ASSIGNMENTS      1  1  1  1  1  1  1  1  1  1  1  1  1  1  1  1  1  1  1  1
TYPE ASSIGNMENTS      1  1  1  1  1  1  1  1  1  1  2  2  2  2  2  2  2  2  2  2
TYPE ASSIGNMENTS      2  3  3  3  3  3  3  3  3  3  3  3  4  4  4  4  4  4  4  4
TYPE ASSIGNMENTS      4  4  4  2  2  2  2  2  2  2  2  2  2  2  3  3  3  3  3  3
TYPE ASSIGNMENTS      3  3  3  3  3  4  4  4  4  4  4  4  4  4  4  4  2  2  2  2
TYPE ASSIGNMENTS      2  2  2  2  2  2  2  3  3  3  3  3  3  3  3  3  3  3  4  4
TYPE ASSIGNMENTS      4  4  4  4  4  4  4  4  4  2  3  4  2  3  4  2  3  4  5  5
TYPE ASSIGNMENTS      5  5  5  5  5  6  6  6  6  6  6  6  7  7  7  7  7  7  7  8
TYPE ASSIGNMENTS      8  8  8  8  8  8  9  9  9  9  9  9  9 10 10 10 10 10 10 10
TYPE ASSIGNMENTS      5  6  7  8  9 10  5  6  7  8  9 10  5  6  7  8  9 10 11 12
TYPE ASSIGNMENTS     13 17 14 15 18 19 16 20 11 12 13 17 14 15 18 19 16 20
EXPONENTS  0.5473000D+04 0.8209000D+03 0.1868000D+03 0.5283000D+02 0.1708000D+02
EXPONENTS  0.5999000D+01 0.2208000D+01 0.2415000D+00 0.5473000D+04 0.8209000D+03
EXPONENTS  0.1868000D+03 0.5283000D+02 0.1708000D+02 0.5999000D+01 0.2208000D+01
EXPONENTS  0.2415000D+00 0.5879000D+00 0.8610000D-01 0.2914000D-01 0.1205000D+02
EXPONENTS  0.2613000D+01 0.7475000D+00 0.1205000D+02 0.2613000D+01 0.7475000D+00
EXPONENTS  0.1205000D+02 0.2613000D+01 0.7475000D+00 0.2385000D+00 0.2385000D+00
EXPONENTS  0.2385000D+00 0.7698000D-01 0.7698000D-01 0.7698000D-01 0.2096000D-01
EXPONENTS  0.2096000D-01 0.2096000D-01 0.6610000D+00 0.6610000D+00 0.6610000D+00
EXPONENTS  0.6610000D+00 0.6610000D+00 0.6610000D+00 0.1990000D+00 0.1990000D+00
EXPONENTS  0.1990000D+00 0.1990000D+00 0.1990000D+00 0.1990000D+00 0.6040000D-01
EXPONENTS  0.6040000D-01 0.6040000D-01 0.6040000D-01 0.6040000D-01 0.6040000D-01
EXPONENTS  0.4900000D+00 0.4900000D+00 0.4900000D+00 0.4900000D+00 0.4900000D+00
EXPONENTS  0.4900000D+00 0.4900000D+00 0.4900000D+00 0.4900000D+00 0.4900000D+00
EXPONENTS  0.1630000D+00 0.1630000D+00 0.1630000D+00 0.1630000D+00 0.1630000D+00
EXPONENTS  0.1630000D+00 0.1630000D+00 0.1630000D+00 0.1630000D+00 0.1630000D+00
EXPONENTS  0.1063900D+08 0.1593400D+07 0.3626100D+06 0.1027000D+06 0.3350100D+05
EXPONENTS  0.1209300D+05 0.4715900D+04 0.1955600D+04 0.8526100D+03 0.3876700D+03
EXPONENTS  0.1826800D+03 0.8824500D+02 0.3926300D+02 0.1923400D+02 0.9405700D+01
EXPONENTS  0.4160100D+01 0.1899500D+01 0.3011400D+00 0.1063900D+08 0.1593400D+07
EXPONENTS  0.3626100D+06 0.1027000D+06 0.3350100D+05 0.1209300D+05 0.4715900D+04
EXPONENTS  0.1955600D+04 0.8526100D+03 0.3876700D+03 0.1826800D+03 0.8824500D+02
EXPONENTS  0.3926300D+02 0.1923400D+02 0.9405700D+01 0.4160100D+01 0.1899500D+01
EXPONENTS  0.3011400D+00 0.1063900D+08 0.1593400D+07 0.3626100D+06 0.1027000D+06
EXPONENTS  0.3350100D+05 0.1209300D+05 0.4715900D+04 0.1955600D+04 0.8526100D+03
EXPONENTS  0.3876700D+03 0.1826800D+03 0.8824500D+02 0.3926300D+02 0.1923400D+02
EXPONENTS  0.9405700D+01 0.4160100D+01 0.1899500D+01 0.3011400D+00 0.1063900D+08
EXPONENTS  0.1593400D+07 0.3626100D+06 0.1027000D+06 0.3350100D+05 0.1209300D+05
EXPONENTS  0.4715900D+04 0.1955600D+04 0.8526100D+03 0.3876700D+03 0.1826800D+03
EXPONENTS  0.8824500D+02 0.3926300D+02 0.1923400D+02 0.9405700D+01 0.4160100D+01
EXPONENTS  0.1899500D+01 0.3011400D+00 0.6047200D+00 0.1251500D+00 0.4559300D-01
EXPONENTS  0.8676500D+04 0.2055900D+04 0.6662300D+03 0.2531000D+03 0.1061200D+03
EXPONENTS  0.4724200D+02 0.2182500D+02 0.9968400D+01 0.4517100D+01 0.1998200D+01
EXPONENTS  0.2814500D+00 0.8676500D+04 0.2055900D+04 0.6662300D+03 0.2531000D+03
EXPONENTS  0.1061200D+03 0.4724200D+02 0.2182500D+02 0.9968400D+01 0.4517100D+01
EXPONENTS  0.1998200D+01 0.2814500D+00 0.8676500D+04 0.2055900D+04 0.6662300D+03
EXPONENTS  0.2531000D+03 0.1061200D+03 0.4724200D+02 0.2182500D+02 0.9968400D+01
EXPONENTS  0.4517100D+01 0.1998200D+01 0.2814500D+00 0.8676500D+04 0.2055900D+04
EXPONENTS  0.6662300D+03 0.2531000D+03 0.1061200D+03 0.4724200D+02 0.2182500D+02
EXPONENTS  0.9968400D+01 0.4517100D+01 0.1998200D+01 0.2814500D+00 0.8676500D+04
EXPONENTS  0.2055900D+04 0.6662300D+03 0.2531000D+03 0.1061200D+03 0.4724200D+02
EXPONENTS  0.2182500D+02 0.9968400D+01 0.4517100D+01 0.1998200D+01 0.2814500D+00
EXPONENTS  0.8676500D+04 0.2055900D+04 0.6662300D+03 0.2531000D+03 0.1061200D+03
EXPONENTS  0.4724200D+02 0.2182500D+02 0.9968400D+01 0.4517100D+01 0.1998200D+01
EXPONENTS  0.2814500D+00 0.8676500D+04 0.2055900D+04 0.6662300D+03 0.2531000D+03
EXPONENTS  0.1061200D+03 0.4724200D+02 0.2182500D+02 0.9968400D+01 0.4517100D+01
EXPONENTS  0.1998200D+01 0.2814500D+00 0.8676500D+04 0.2055900D+04 0.6662300D+03
EXPONENTS  0.2531000D+03 0.1061200D+03 0.4724200D+02 0.2182500D+02 0.9968400D+01
EXPONENTS  0.4517100D+01 0.1998200D+01 0.2814500D+00 0.8676500D+04 0.2055900D+04
EXPONENTS  0.6662300D+03 0.2531000D+03 0.1061200D+03 0.4724200D+02 0.2182500D+02
EXPONENTS  0.9968400D+01 0.4517100D+01 0.1998200D+01 0.2814500D+00 0.7098800D+00
EXPONENTS  0.7098800D+00 0.7098800D+00 0.1020400D+00 0.1020400D+00 0.1020400D+00
EXPONENTS  0.3514200D-01 0.3514200D-01 0.3514200D-01 0.4038300D+03 0.1211700D+03
EXPONENTS  0.4634500D+02 0.1972100D+02 0.8862400D+01 0.3996200D+01 0.1763600D+01
EXPONENTS  0.4038300D+03 0.1211700D+03 0.4634500D+02 0.1972100D+02 0.8862400D+01
EXPONENTS  0.3996200D+01 0.1763600D+01 0.4038300D+03 0.1211700D+03 0.4634500D+02
EXPONENTS  0.1972100D+02 0.8862400D+01 0.3996200D+01 0.1763600D+01 0.4038300D+03
EXPONENTS  0.1211700D+03 0.4634500D+02 0.1972100D+02 0.8862400D+01 0.3996200D+01
EXPONENTS  0.1763600D+01 0.4038300D+03 0.1211700D+03 0.4634500D+02 0.1972100D+02
EXPONENTS  0.8862400D+01 0.3996200D+01 0.1763600D+01 0.4038300D+03 0.1211700D+03
EXPONENTS  0.4634500D+02 0.1972100D+02 0.8862400D+01 0.3996200D+01 0.1763600D+01
EXPONENTS  0.7061900D+00 0.7061900D+00 0.7061900D+00 0.7061900D+00 0.7061900D+00
EXPONENTS  0.7061900D+00 0.2639000D+00 0.2639000D+00 0.2639000D+00 0.2639000D+00
EXPONENTS  0.2639000D+00 0.2639000D+00 0.1047000D+00 0.1047000D+00 0.1047000D+00
EXPONENTS  0.1047000D+00 0.1047000D+00 0.1047000D+00 0.5515000D+00 0.5515000D+00
EXPONENTS  0.5515000D+00 0.5515000D+00 0.5515000D+00 0.5515000D+00 0.5515000D+00
EXPONENTS  0.5515000D+00 0.5515000D+00 0.5515000D+00 0.2580000D+00 0.2580000D+00
EXPONENTS  0.2580000D+00 0.2580000D+00 0.2580000D+00 0.2580000D+00 0.2580000D+00
EXPONENTS  0.2580000D+00 0.2580000D+00 0.2580000D+00
MO    1     MO 0.0        OCC NO =    2.0000000  ORB. ENERGY = -485.412669
 -0.44697513D-05 -0.83290888D-05 -0.14036818D-04 -0.20942818D-04 -0.25367598D-04
 -0.21107732D-04 -0.78395214D-05  0.41618370D-07  0.35670667D-05  0.66628730D-05
  0.11340243D-04  0.17343651D-04  0.22556447D-04  0.22832237D-04  0.15033871D-04
 -0.10276480D-04 -0.19762194D-04 -0.78616013D-04 -0.68648143D-05 -0.63602450D-20
 -0.57322049D-20 -0.41619525D-20 -0.19804038D-19 -0.17848495D-19 -0.12959165D-19
 -0.14930762D-04 -0.13456429D-04 -0.97702401D-05  0.33169726D-20  0.15072452D-19
 -0.72632405D-05  0.13057279D-21  0.14250064D-20 -0.17352090D-04  0.51240676D-22
  0.81949481D-22 -0.21388230D-06 -0.26486230D-05 -0.26486230D-05  0.52972459D-05
  0.77675474D-23  0.22010706D-20 -0.96235456D-20 -0.37752440D-05 -0.37752440D-05
  0.75504880D-05 -0.59559149D-22  0.27056770D-20  0.17046829D-19  0.21825800D-06
  0.21825800D-06 -0.43651600D-06  0.98184340D-23 -0.38139680D-22 -0.89898045D-22
 -0.61708474D-21 -0.30942080D-20  0.69468185D-05 -0.66072330D-21 -0.30995642D-20
 -0.10420228D-04  0.25119775D-20  0.12382188D-19 -0.10420228D-04 -0.63867944D-22
 -0.11184934D-21 -0.88803935D-21  0.16828737D-05 -0.10864432D-21 -0.88995002D-21
 -0.25243105D-05  0.44419234D-21  0.35540681D-20 -0.25243105D-05 -0.23790977D-22
  0.78327639D+00  0.14734383D+01  0.25505943D+01  0.41809121D+01  0.65494798D+01
  0.98444259D+01  0.14070157D+02  0.18678484D+02  0.21753631D+02  0.19980500D+02
  0.11683384D+02  0.30657785D+01  0.16760491D+00 -0.59989065D-02  0.16765051D-02
 -0.49781092D-03  0.84868144D-04  0.69240732D-05  0.49997922D-04  0.91861674D-04
  0.15885001D-03  0.26013909D-03  0.40957730D-03  0.61850185D-03  0.90282382D-03
  0.12432432D-02  0.15885320D-02  0.17316860D-02  0.14254443D-02  0.39084714D-03
 -0.78836402D-03 -0.76829517D-03 -0.16812463D-03 -0.56639639D-05 -0.19187700D-06
  0.48811034D-09 -0.12005371D-03 -0.23535335D-03 -0.41221556D-03 -0.67342610D-03
 -0.10621552D-02 -0.16027447D-02 -0.23499422D-02 -0.32444839D-02 -0.42064895D-02
 -0.46778639D-02 -0.40630127D-02 -0.11802325D-02  0.29753519D-02  0.43352974D-02
  0.74633694D-03 -0.18207426D-02 -0.86662756D-03  0.41852091D-05  0.42238416D-04
  0.91520447D-04  0.15579905D-03  0.25430600D-03  0.40088846D-03  0.60505647D-03
  0.88711139D-03  0.12263685D-02  0.15917033D-02  0.17782109D-02  0.15533075D-02
  0.46009119D-03 -0.11959728D-02 -0.18398104D-02 -0.32202301D-03  0.10158038D-02
  0.86226378D-03 -0.32170291D-03  0.29915259D-03  0.13012808D-03  0.28174342D-04
  0.27744641D-16  0.39808647D-16  0.52708765D-16  0.60863690D-16  0.56423441D-16
  0.36529564D-16  0.12893595D-16  0.15112405D-17  0.21970639D-19  0.32173556D-20
  0.33079412D-22  0.51797514D-17  0.74320262D-17  0.98403978D-17  0.11362871D-16
  0.10533905D-16  0.68198418D-17  0.24071537D-17  0.28213917D-18  0.41017814D-20
  0.60066022D-21  0.61757199D-23  0.57470217D-03  0.82459586D-03  0.10918088D-02
  0.12607298D-02  0.11687545D-02  0.75667297D-03  0.26707777D-03  0.31303818D-04
  0.45509957D-06  0.66644266D-07  0.68520655D-09  0.59361587D-17  0.85689133D-17
  0.11447863D-16  0.13600413D-16  0.13179843D-16  0.91616718D-17  0.29811201D-17
 -0.13417406D-17 -0.14495275D-17 -0.37317642D-18  0.36399914D-21  0.46568714D-17
  0.67222473D-17  0.89807617D-17  0.10669420D-16  0.10339486D-16  0.71872618D-17
  0.23386661D-17 -0.10525853D-17 -0.11371433D-17 -0.29275407D-18  0.28555456D-21
 -0.26694880D-02 -0.38534366D-02 -0.51480992D-02 -0.61160998D-02 -0.59269695D-02
 -0.41199999D-02 -0.13406084D-02  0.60338019D-03  0.65185191D-03  0.16781728D-03
 -0.16369026D-06 -0.88756875D-18 -0.12896768D-17 -0.17146402D-17 -0.20574496D-17
 -0.19905916D-17 -0.14130882D-17 -0.43919137D-18  0.25215598D-18  0.28967125D-18
  0.76924746D-19 -0.27754688D-19 -0.23232778D-17 -0.33758257D-17 -0.44881994D-17
 -0.53855286D-17 -0.52105227D-17 -0.36988644D-17 -0.11496164D-17  0.66003720D-18
  0.75823622D-18  0.20135629D-18 -0.72649978D-19  0.19373760D-02  0.28150933D-02
  0.37426992D-02  0.44909799D-02  0.43450430D-02  0.30844746D-02  0.95866245D-03
 -0.55040350D-03 -0.63229144D-03 -0.16791055D-03  0.60582650D-04  0.16680952D-18
  0.13179951D-18 -0.34504201D-04  0.34374160D-20  0.47460775D-20 -0.49480647D-04
 -0.33086143D-21 -0.74183498D-21 -0.12910458D-05 -0.18253255D-03 -0.19100065D-03
 -0.16274278D-03 -0.10717842D-03 -0.49395343D-04 -0.14791516D-04 -0.25166510D-05
 -0.18253255D-03 -0.19100065D-03 -0.16274278D-03 -0.10717842D-03 -0.49395343D-04
 -0.14791516D-04 -0.25166510D-05  0.36506511D-03  0.38200130D-03  0.32548555D-03
  0.21435684D-03  0.98790687D-04  0.29583031D-04  0.50333019D-05  0.38223361D-17
  0.39996629D-17  0.34079269D-17  0.22443775D-17  0.10343668D-17  0.30974280D-18
  0.52700111D-19 -0.19339227D-17 -0.20236417D-17 -0.17242510D-17 -0.11355497D-17
 -0.52334103D-18 -0.15671532D-18 -0.26663783D-19  0.11765224D-17  0.12311039D-17
  0.10489664D-17  0.69082368D-18  0.31838007D-18  0.95339426D-19  0.16221195D-19
  0.98569697D-05  0.98569697D-05 -0.19713939D-04 -0.11380932D-19  0.15820637D-19
 -0.65101830D-19 -0.60564728D-07 -0.60564728D-07  0.12112946D-06  0.13648681D-20
  0.16029644D-20  0.27962711D-19 -0.32930114D-05 -0.32930114D-05  0.65860229D-05
 -0.10473557D-21  0.27161570D-21  0.93206519D-22 -0.11776142D-20  0.84649856D-21
  0.12687359D-04 -0.85408154D-21  0.72740336D-21 -0.19031039D-04  0.43869243D-20
 -0.32668990D-20 -0.19031039D-04  0.69714418D-22  0.42864558D-21  0.15980864D-20
 -0.44322400D-05  0.41109445D-21  0.16067058D-20  0.66483600D-05 -0.16970312D-20
 -0.64009651D-20  0.66483600D-05  0.10763510D-21
MO    2     MO 0.0        OCC NO =    2.0000000  ORB. ENERGY =  -63.400139
  0.72888265D-04  0.13582251D-03  0.22889849D-03  0.34151467D-03  0.41366960D-03
  0.34420393D-03  0.12783913D-03 -0.67867105D-06 -0.58506144D-04 -0.10928279D-03
 -0.18599986D-03 -0.28446626D-03 -0.36996525D-03 -0.37448870D-03 -0.24658182D-03
  0.16855228D-03  0.34327704D-03  0.13679701D-02  0.11781405D-03  0.17391992D-16
  0.15674627D-16  0.11380795D-16  0.10312740D-15  0.92944121D-16  0.67483459D-16
  0.24972858D-03  0.22506923D-03  0.16341485D-03 -0.11867650D-18  0.26973811D-18
  0.12039540D-03 -0.44257589D-20  0.40473753D-19  0.30296333D-03 -0.23136856D-20
 -0.26000149D-20  0.35843534D-05  0.47895034D-04  0.47895034D-04 -0.95790068D-04
  0.18790275D-19  0.54389103D-19  0.75935457D-19  0.65752385D-04  0.65752385D-04
 -0.13150477D-03 -0.11649819D-19 -0.12955329D-18  0.47434407D-19 -0.38645781D-05
 -0.38645781D-05  0.77291562D-05  0.19018282D-20  0.53042146D-21  0.11094289D-19
  0.23049891D-19  0.18663056D-19 -0.11805186D-03  0.21758855D-19  0.18125582D-19
  0.17707779D-03 -0.90908528D-19 -0.74114751D-19  0.17707779D-03 -0.14552911D-19
  0.66300810D-20 -0.33685121D-21 -0.29326751D-04  0.67742576D-20 -0.27279571D-21
  0.43990126D-04 -0.26664501D-19  0.12833493D-20  0.43990126D-04 -0.44375187D-20
  0.60946109D-03  0.11464706D-02  0.19845970D-02  0.32531343D-02  0.50960978D-02
  0.76598691D-02  0.10947877D-01  0.14533579D-01  0.16926327D-01  0.15546667D-01
  0.90907478D-02  0.23854577D-02  0.13041204D-03 -0.46677012D-05  0.13044752D-05
 -0.38734270D-06  0.66035224D-07  0.53875660D-08 -0.25377924D+00 -0.46627111D+00
 -0.80629020D+00 -0.13204129D+01 -0.20789308D+01 -0.31393892D+01 -0.45825494D+01
 -0.63104489D+01 -0.80630643D+01 -0.87896849D+01 -0.72352641D+01 -0.19838603D+01
  0.40015748D+01  0.38997094D+01  0.85336629D+00  0.28749125D-01  0.97392848D-03
 -0.24775484D-05  0.20766734D-02  0.40711117D-02  0.71304512D-02  0.11648837D-01
  0.18373022D-01  0.27724070D-01  0.40648995D-01  0.56122661D-01  0.72763308D-01
  0.80917081D-01  0.70281466D-01  0.20415509D-01 -0.51467250D-01 -0.74991410D-01
 -0.12910039D-01  0.31494968D-01  0.14990811D-01 -0.72395204D-04 -0.74280100D-03
 -0.16094704D-02 -0.27398681D-02 -0.44722026D-02 -0.70499886D-02 -0.10640469D-01
 -0.15600662D-01 -0.21566807D-01 -0.27991552D-01 -0.31271458D-01 -0.27316327D-01
 -0.80911226D-02  0.21032271D-01  0.32354742D-01  0.56630678D-02 -0.17863834D-01
 -0.15163694D-01  0.56574386D-02 -0.56717763D-02 -0.22984082D-02 -0.48320237D-03
  0.64081535D-14  0.91945657D-14  0.12174094D-13  0.14057629D-13  0.13032069D-13
  0.84371989D-14  0.29780214D-14  0.34904978D-15  0.50745378D-17  0.74310958D-18
  0.76403205D-20  0.83762388D-14  0.12018420D-13  0.15913027D-13  0.18375037D-13
  0.17034505D-13  0.11028449D-13  0.38926375D-14  0.45625068D-15  0.66330404D-17
  0.97133493D-18  0.99868315D-20 -0.12064926D-01 -0.17311033D-01 -0.22920728D-01
 -0.26466947D-01 -0.24536077D-01 -0.15885104D-01 -0.56068583D-02 -0.65717214D-03
 -0.95540666D-05 -0.13990867D-05 -0.14384784D-07 -0.12473665D-15 -0.18005879D-15
 -0.24055424D-15 -0.28578582D-15 -0.27694837D-15 -0.19251444D-15 -0.62642353D-16
  0.28194030D-16  0.30458959D-16  0.78415657D-17 -0.76487233D-20 -0.24875249D-15
 -0.35907708D-15 -0.47971839D-15 -0.56992017D-15 -0.55229633D-15 -0.38391640D-15
 -0.12492271D-15  0.56225135D-16  0.60741904D-16  0.15637817D-16 -0.15253247D-19
  0.46276144D-01  0.66800146D-01  0.89243398D-01  0.10602389D+00  0.10274528D+00
  0.71421076D-01  0.23239733D-01 -0.10459724D-01 -0.11299992D-01 -0.29091483D-02
  0.28376055D-05  0.32145434D-16  0.46708742D-16  0.62099814D-16  0.74515479D-16
  0.72094055D-16  0.51178385D-16  0.15906371D-16 -0.91324346D-17 -0.10491140D-16
 -0.27860144D-17  0.10052027D-17  0.47593308D-16  0.69155187D-16  0.91942624D-16
  0.11032478D-15  0.10673972D-15  0.75772770D-16  0.23550367D-16 -0.13521135D-16
 -0.15532783D-16 -0.41248670D-17  0.14882649D-17 -0.33722698D-01 -0.49000577D-01
 -0.65146835D-01 -0.78171692D-01 -0.75631458D-01 -0.53689529D-01 -0.16686841D-01
  0.95805312D-02  0.11005904D-01  0.29227144D-02 -0.10545245D-02 -0.33537471D-17
 -0.55239398D-17  0.59915834D-03 -0.98859758D-19 -0.29008528D-18  0.85853610D-03
  0.13339167D-19  0.18765218D-19  0.22204199D-04  0.27013482D-02  0.28266698D-02
  0.24084740D-02  0.15861622D-02  0.73101493D-03  0.21890360D-03  0.37244592D-04
  0.27013482D-02  0.28266698D-02  0.24084740D-02  0.15861622D-02  0.73101493D-03
  0.21890360D-03  0.37244592D-04 -0.54026964D-02 -0.56533396D-02 -0.48169480D-02
 -0.31723244D-02 -0.14620299D-02 -0.43780721D-03 -0.74489185D-04  0.43319255D-15
  0.45328933D-15  0.38622677D-15  0.25435953D-15  0.11722673D-15  0.35103735D-16
  0.59726029D-17  0.16542145D-15  0.17309572D-15  0.14748682D-15  0.97131220D-16
  0.44764887D-16  0.13404918D-16  0.22807332D-17  0.70968448D-15  0.74260834D-15
  0.63274205D-15  0.41670848D-15  0.19204853D-15  0.57509243D-16  0.97847102D-17
 -0.16415532D-03 -0.16415532D-03  0.32831065D-03 -0.21065439D-17 -0.54052419D-18
 -0.25867849D-17 -0.11817054D-05 -0.11817054D-05  0.23634107D-05  0.26083396D-18
 -0.13036959D-18  0.34144295D-18  0.57140919D-04  0.57140919D-04 -0.11428184D-03
 -0.21204336D-19 -0.91224199D-20  0.12976030D-19  0.15583907D-19 -0.10137876D-18
 -0.21745254D-03  0.11661482D-19 -0.96611269D-19  0.32617881D-03 -0.58413204D-19
  0.40074754D-18  0.32617881D-03  0.61994022D-19 -0.14909320D-19  0.22623500D-19
  0.75653595D-04 -0.14970220D-19  0.22289874D-19 -0.11348039D-03  0.59698179D-19
 -0.90160373D-19 -0.11348039D-03 -0.54302192D-20
MO    3     MO 0.0        OCC NO =    2.0000000  ORB. ENERGY =  -57.219554
  0.14781312D-03  0.27544006D-03  0.46419269D-03  0.69257168D-03  0.83889763D-03
  0.69802534D-03  0.25925024D-03 -0.13763050D-05 -0.97834741D-04 -0.18274412D-03
 -0.31103141D-03 -0.47568822D-03 -0.61866075D-03 -0.62622492D-03 -0.41233735D-03
  0.28185533D-03 -0.18666740D-03  0.34743518D-03  0.21980096D-04 -0.28697278D-17
 -0.25863575D-17 -0.18778633D-17  0.83413925D-15  0.75177248D-15  0.54583557D-15
 -0.19426911D-03 -0.17508607D-03 -0.12712384D-03  0.23907546D-17 -0.76734078D-17
  0.48821460D-03  0.13364172D-18 -0.28314268D-18  0.11654213D-03  0.11984004D-19
 -0.93162754D-19  0.80812402D-06 -0.66621982D-04 -0.66621982D-04  0.13324396D-03
  0.41169228D-21 -0.41486757D-18  0.15138763D-17 -0.62322549D-04 -0.62322549D-04
  0.12464510D-03  0.39157580D-20  0.22407211D-17 -0.95644728D-17 -0.32053805D-05
 -0.32053805D-05  0.64107609D-05  0.19579534D-21 -0.24716467D-19  0.17475810D-18
 -0.37889906D-18  0.19569027D-17  0.33363248D-04 -0.37744244D-18  0.19568469D-17
 -0.50044872D-04  0.15141396D-17 -0.78275550D-17 -0.50044872D-04  0.25723166D-19
 -0.10754742D-18  0.48060271D-18  0.89985298D-05 -0.10756501D-18  0.48044681D-18
 -0.13497795D-04  0.43020727D-18 -0.19222549D-17 -0.13497795D-04  0.14683144D-20
 -0.11074636D-04 -0.20832739D-04 -0.36062498D-04 -0.59113335D-04 -0.92602184D-04
 -0.13918897D-03 -0.19893600D-03 -0.26409249D-03 -0.30757157D-03 -0.28250151D-03
 -0.16518974D-03 -0.43346615D-04 -0.23697425D-05  0.84817705D-07 -0.23703872D-07
  0.70384794D-08 -0.11999389D-08 -0.97898508D-10  0.21941646D-04  0.40313602D-04
  0.69711509D-04  0.11416234D-03  0.17974347D-03  0.27143026D-03  0.39620528D-03
  0.54559874D-03  0.69712912D-03  0.75995243D-03  0.62555786D-03  0.17152372D-03
 -0.34597446D-03 -0.33716723D-03 -0.73781688D-04 -0.24856371D-05 -0.84205444D-07
  0.21420779D-09 -0.29938040D-04 -0.58690551D-04 -0.10279505D-03 -0.16793365D-03
 -0.26487182D-03 -0.39967975D-03 -0.58600993D-03 -0.80908365D-03 -0.10489810D-02
 -0.11665286D-02 -0.10132019D-02 -0.29431702D-03  0.74196964D-03  0.10811020D-02
  0.18611558D-03 -0.45404233D-03 -0.21611270D-03  0.10436742D-05  0.10903670D-04
  0.23625621D-04  0.40218873D-04  0.65648030D-04  0.10348768D-03  0.15619280D-03
  0.22900410D-03  0.31658190D-03  0.41089155D-03  0.45903771D-03  0.40097984D-03
  0.11877062D-03 -0.30873538D-03 -0.47493937D-03 -0.83128892D-04  0.26222550D-03
  0.22258979D-03 -0.83046261D-04  0.25124058D-03 -0.66004801D-03 -0.48178139D-04
 -0.19282239D-11 -0.27666599D-11 -0.36632048D-11 -0.42299637D-11 -0.39213709D-11
 -0.25387670D-11 -0.89609153D-12 -0.10502965D-12 -0.15269368D-14 -0.22360289D-15
 -0.22989850D-17  0.11165981D-10  0.16021205D-10  0.21212928D-10  0.24494921D-10
  0.22707919D-10  0.14701521D-10  0.51890969D-11  0.60820690D-12  0.88422026D-14
  0.12948422D-14  0.13312988D-16  0.52018154D+02  0.74636842D+02  0.98823146D+02
  0.11411273D+03  0.10578775D+03  0.68488921D+02  0.24174074D+02  0.28334099D+01
  0.41192536D-01  0.60321883D-02  0.62020264D-04  0.39189599D-15  0.56570636D-15
  0.75577017D-15  0.89787816D-15  0.87011276D-15  0.60483936D-15  0.19680893D-15
 -0.88579635D-16 -0.95695559D-16 -0.24636529D-16  0.24030659D-19 -0.20324123D-14
 -0.29338105D-14 -0.39195007D-14 -0.46564871D-14 -0.45124929D-14 -0.31367582D-14
 -0.10206710D-14  0.45938296D-15  0.49628686D-15  0.12776753D-15 -0.12462543D-18
 -0.34099173D-01 -0.49222548D-01 -0.65760147D-01 -0.78125072D-01 -0.75709183D-01
 -0.52627540D-01 -0.17124497D-01  0.77073825D-02  0.83265445D-02  0.21436434D-02
 -0.20909262D-05 -0.38024430D-15 -0.55251183D-15 -0.73457089D-15 -0.88143422D-15
 -0.85279151D-15 -0.60538267D-15 -0.18815446D-15  0.10802642D-15  0.12409838D-15
  0.32955414D-16 -0.11890416D-16  0.20672686D-14  0.30038330D-14  0.39936308D-14
  0.47920806D-14  0.46363591D-14  0.32912751D-14  0.10229366D-14 -0.58730566D-15
 -0.67468383D-15 -0.17916822D-15  0.64644452D-16  0.27175837D-01  0.39487697D-01
  0.52499351D-01  0.62995587D-01  0.60948509D-01  0.43266345D-01  0.13447289D-01
 -0.77205849D-02 -0.88692381D-02 -0.23553041D-02  0.84980107D-03  0.52875520D-16
 -0.29255200D-15 -0.18451994D-02  0.10638763D-17 -0.74188493D-17  0.76849972D-04
 -0.11347638D-18  0.72894090D-18  0.51225038D-06  0.36856071D-03  0.38565908D-03
  0.32860217D-03  0.21640937D-03  0.99736638D-04  0.29866298D-04  0.50814973D-05
  0.36856071D-03  0.38565908D-03  0.32860217D-03  0.21640937D-03  0.99736638D-04
  0.29866298D-04  0.50814973D-05 -0.73712143D-03 -0.77131815D-03 -0.65720435D-03
 -0.43281875D-03 -0.19947328D-03 -0.59732595D-04 -0.10162995D-04 -0.29084030D-16
 -0.30433303D-16 -0.25930803D-16 -0.17077394D-16 -0.78704626D-17 -0.23568228D-17
 -0.40099341D-18  0.14252348D-14  0.14913546D-14  0.12707139D-14  0.83686120D-15
  0.38568441D-15  0.11549382D-15  0.19650294D-16  0.16583242D-14  0.17352576D-14
  0.14785323D-14  0.97372533D-15  0.44876101D-15  0.13438221D-15  0.22863994D-16
 -0.66124594D-04 -0.66124594D-04  0.13224919D-03  0.12512242D-17 -0.10392486D-16
  0.12231012D-16  0.10069739D-03  0.10069739D-03 -0.20139478D-03 -0.90850776D-19
  0.40555138D-17 -0.14249781D-16 -0.13585411D-05 -0.13585411D-05  0.27170822D-05
  0.85942756D-22 -0.34060130D-19  0.42594500D-19  0.45913431D-19 -0.24254639D-18
  0.50901721D-04  0.55636096D-19 -0.25670886D-18 -0.76352582D-04 -0.19337639D-18
  0.98434801D-18 -0.76352582D-04  0.19748677D-18  0.24156083D-18 -0.96019590D-18
  0.18782532D-04  0.24156755D-18 -0.95749595D-18 -0.28173798D-04 -0.96625003D-18
  0.38380837D-17 -0.28173798D-04 -0.17054476D-20
MO    4     MO 0.0        OCC NO =    2.0000000  ORB. ENERGY =  -57.219095
 -0.97381348D-16 -0.18146377D-15 -0.30581663D-15 -0.45627591D-15 -0.55267749D-15
 -0.45986885D-15 -0.17079768D-15  0.90672898D-18  0.71478145D-16  0.13351301D-15
  0.22723981D-15  0.34753822D-15  0.45199407D-15  0.45752046D-15  0.30125402D-15
 -0.20592375D-15 -0.13519601D-15 -0.15296439D-14 -0.23480891D-15 -0.95480610D-05
 -0.86052412D-05 -0.62479632D-05  0.52830436D-04  0.47613714D-04  0.34570644D-04
 -0.20699600D-15 -0.18655626D-15 -0.13545194D-15  0.86614678D-05 -0.47924822D-04
 -0.56959411D-15  0.45181736D-06 -0.24999535D-05 -0.25061543D-15  0.77630786D-07
 -0.42953939D-06 -0.15351805D-16  0.30371589D-15  0.30374206D-15 -0.60745795D-15
  0.96738934D-17 -0.13103272D-05  0.72501798D-05 -0.23633120D-17 -0.24124552D-17
  0.47757672D-17 -0.28319333D-19  0.90255106D-05 -0.49939109D-04  0.20365650D-17
  0.20443775D-17 -0.40809426D-17  0.49398277D-20 -0.10752945D-06  0.59497188D-06
 -0.17291635D-05  0.95676452D-05  0.16906425D-15 -0.17291644D-05  0.95676506D-05
 -0.25356303D-15  0.69166548D-05 -0.38270586D-04 -0.25362971D-15 -0.13881766D-18
 -0.44334655D-06  0.24530836D-05  0.10591491D-17 -0.44334663D-06  0.24530840D-05
 -0.15783603D-17  0.17733863D-05 -0.98123347D-05 -0.15990870D-17  0.25875034D-20
 -0.27840651D-16 -0.52371656D-16 -0.90657918D-16 -0.14860567D-15 -0.23279367D-15
 -0.34990871D-15 -0.50010744D-15 -0.66390506D-15 -0.77320761D-15 -0.71018371D-15
 -0.41527235D-15 -0.10896954D-15 -0.59573223D-17  0.21322418D-18 -0.59589429D-19
  0.17694112D-19 -0.30165398D-20 -0.24610816D-21  0.10109647D-15  0.18574555D-15
  0.32119686D-15  0.52600474D-15  0.82817083D-15  0.12506191D-14  0.18255220D-14
  0.25138546D-14  0.32120332D-14  0.35014926D-14  0.28822675D-14  0.79029819D-15
 -0.15940827D-14 -0.15535032D-14 -0.33995027D-15 -0.11452611D-16 -0.38797788D-18
  0.98696569D-21 -0.59087278D-16 -0.11583473D-15 -0.20288166D-15 -0.33144262D-15
 -0.52276484D-15 -0.78882881D-15 -0.11565798D-14 -0.15968497D-14 -0.20703235D-14
 -0.23023216D-14 -0.19997080D-14 -0.58087942D-15  0.14643900D-14  0.21337194D-14
  0.36732742D-15 -0.89612162D-15 -0.42653130D-15  0.20598499D-17  0.31507299D-16
  0.68268709D-16  0.11621665D-15  0.18969687D-15  0.29903850D-15  0.45133547D-15
  0.66173136D-15  0.91479662D-15  0.11873142D-14  0.13264376D-14  0.11586733D-14
  0.34320016D-15 -0.89212327D-15 -0.13723871D-14 -0.24020966D-15  0.75772808D-15
  0.64319655D-15 -0.23997088D-15 -0.15902422D-15  0.53740892D-15  0.93703247D-15
 -0.92502830D+01 -0.13272518D+02 -0.17573520D+02 -0.20292436D+02 -0.18812022D+02
 -0.12179246D+02 -0.42988266D+01 -0.50385954D+00 -0.73251852D-02 -0.10726918D-02
 -0.11028938D-04  0.51182799D+02  0.73438254D+02  0.97236153D+02  0.11228021D+03
  0.10408892D+03  0.67389062D+02  0.23785864D+02  0.27879084D+01  0.40531028D-01
  0.59353179D-02  0.61024285D-04 -0.11321935D-10 -0.16244973D-10 -0.21509207D-10
 -0.24837040D-10 -0.23025079D-10 -0.14906856D-10 -0.52615727D-11 -0.61670169D-12
 -0.89657012D-14 -0.13129271D-14 -0.13498930D-16  0.16457680D-02  0.23756850D-02
  0.31738584D-02  0.37706412D-02  0.36540403D-02  0.25400241D-02  0.82649949D-03
 -0.37199036D-03 -0.40187370D-03 -0.10346115D-03  0.10091680D-06 -0.91062093D-02
 -0.13144918D-01 -0.17561296D-01 -0.20863358D-01 -0.20218193D-01 -0.14054223D-01
 -0.45731095D-02  0.20582622D-02  0.22236099D-02  0.57246155D-03 -0.55838338D-06
 -0.25759205D-13 -0.37183709D-13 -0.49676546D-13 -0.59017261D-13 -0.57192249D-13
 -0.39755909D-13 -0.12936191D-13  0.58223127D-14  0.62900402D-14  0.16193516D-14
 -0.15795280D-17 -0.17288667D-02 -0.25121200D-02 -0.33398927D-02 -0.40076400D-02
 -0.38774095D-02 -0.27525092D-02 -0.85548679D-03  0.49116655D-03  0.56424133D-03
  0.14983924D-03 -0.54062467D-04  0.95660032D-02  0.13899827D-01  0.18479981D-01
  0.22174698D-01  0.21454119D-01  0.15229926D-01  0.47334993D-02 -0.27176767D-02
 -0.31220072D-02 -0.82907646D-03  0.29913337D-03  0.13673999D-13  0.19868927D-13
  0.26415969D-13  0.31697334D-13  0.30667311D-13  0.21770220D-13  0.67662391D-14
 -0.38847477D-14 -0.44627127D-14 -0.11851126D-14  0.42759231D-15  0.24224590D-03
 -0.13403723D-02 -0.46107751D-15  0.55147730D-05 -0.30513825D-04 -0.79838979D-15
 -0.59623950D-06  0.32990565D-05 -0.41863505D-16 -0.35121799D-14 -0.36751179D-14
 -0.31313971D-14 -0.20622617D-14 -0.95043504D-15 -0.28460931D-15 -0.48423861D-16
 -0.14839813D-14 -0.15528265D-14 -0.13230913D-14 -0.87135565D-15 -0.40158188D-15
 -0.12025434D-15 -0.20460257D-16  0.49961612D-14  0.52279444D-14  0.44544884D-14
  0.29336174D-14  0.13520169D-14  0.40486365D-15  0.68884118D-16  0.76365100D-15
  0.79907849D-15  0.68085764D-15  0.44839623D-15  0.20665247D-15  0.61882418D-16
  0.10528769D-16  0.19865612D-03  0.20787223D-03  0.17711826D-03  0.11664577D-03