 Molden2AIM, Version 4.0.0 (06/02/2016)           Time: Fri Jun 29 22:38:45 2018
GAUSSIAN             10 MOL ORBITALS    208 PRIMITIVES        2 NUCLEI
  Be   1    (CENTRE  1)   0.00000000  0.00000000 -0.22844332  CHARGE =  4.0
  S    2    (CENTRE  2)   0.00000000  0.00000000  3.06303251  CHARGE = 16.0
CENTRE ASSIGNMENTS    1  1  1  1  1  1  1  1  1  1  1  1  1  1  1  1  1  1  1  1
CENTRE ASSIGNMENTS    1  1  1  1  1  1  1  1  1  1  1  1  1  1  1  1  1  1  1  1
CENTRE ASSIGNMENTS    1  1  1  1  1  1  1  1  1  1  1  1  1  1  1  1  1  1  1  1
CENTRE ASSIGNMENTS    1  1  1  1  1  1  1  1  1  1  1  1  1  1  1  1  1  2  2  2
CENTRE ASSIGNMENTS    2  2  2  2  2  2  2  2  2  2  2  2  2  2  2  2  2  2  2  2
CENTRE ASSIGNMENTS    2  2  2  2  2  2  2  2  2  2  2  2  2  2  2  2  2  2  2  2
CENTRE ASSIGNMENTS    2  2  2  2  2  2  2  2  2  2  2  2  2  2  2  2  2  2  2  2
CENTRE ASSIGNMENTS    2  2  2  2  2  2  2  2  2  2  2  2  2  2  2  2  2  2  2  2
CENTRE ASSIGNMENTS    2  2  2  2  2  2  2  2  2  2  2  2  2  2  2  2  2  2  2  2
CENTRE ASSIGNMENTS    2  2  2  2  2  2  2  2  2  2  2  2  2  2  2  2  2  2  2  2
CENTRE ASSIGNMENTS    2  2  2  2  2  2  2  2
TYPE ASSIGNMENTS      1  1  1  1  1  1  1  1  1  1  1  1  1  1  1  1  1  1  1  1
TYPE ASSIGNMENTS      1  2  2  2  3  3  3  4  4  4  2  3  4  2  3  4  2  3  4  5
TYPE ASSIGNMENTS      6  7  8  9 10  5  6  7  8  9 10  5  6  7  8  9 10 11 12 13
TYPE ASSIGNMENTS     17 14 15 18 19 16 20 11 12 13 17 14 15 18 19 16 20  1  1  1
TYPE ASSIGNMENTS      1  1  1  1  1  1  1  1  1  1  1  1  1  1  1  1  1  1  1  1
TYPE ASSIGNMENTS      1  1  1  1  1  1  1  1  1  1  1  1  1  1  1  1  1  1  1  2
TYPE ASSIGNMENTS      2  2  2  2  2  2  3  3  3  3  3  3  3  4  4  4  4  4  4  4
TYPE ASSIGNMENTS      2  2  2  2  2  2  2  3  3  3  3  3  3  3  4  4  4  4  4  4
TYPE ASSIGNMENTS      4  2  3  4  2  3  4  2  3  4  5  6  7  8  9 10  5  6  7  8
TYPE ASSIGNMENTS      9 10  5  6  7  8  9 10 11 12 13 17 14 15 18 19 16 20 11 12
TYPE ASSIGNMENTS     13 17 14 15 18 19 16 20
EXPONENTS  0.6863000D+04 0.1030000D+04 0.2347000D+03 0.6656000D+02 0.2169000D+02
EXPONENTS  0.7734000D+01 0.2916000D+01 0.1130000D+01 0.1101000D+00 0.6863000D+04
EXPONENTS  0.1030000D+04 0.2347000D+03 0.6656000D+02 0.2169000D+02 0.7734000D+01
EXPONENTS  0.2916000D+01 0.1130000D+01 0.1101000D+00 0.2577000D+00 0.4409000D-01
EXPONENTS  0.1503000D-01 0.7436000D+01 0.1577000D+01 0.4352000D+00 0.7436000D+01
EXPONENTS  0.1577000D+01 0.4352000D+00 0.7436000D+01 0.1577000D+01 0.4352000D+00
EXPONENTS  0.1438000D+00 0.1438000D+00 0.1438000D+00 0.4994000D-01 0.4994000D-01
EXPONENTS  0.4994000D-01 0.7060000D-02 0.7060000D-02 0.7060000D-02 0.3480000D+00
EXPONENTS  0.3480000D+00 0.3480000D+00 0.3480000D+00 0.3480000D+00 0.3480000D+00
EXPONENTS  0.1803000D+00 0.1803000D+00 0.1803000D+00 0.1803000D+00 0.1803000D+00
EXPONENTS  0.1803000D+00 0.6540000D-01 0.6540000D-01 0.6540000D-01 0.6540000D-01
EXPONENTS  0.6540000D-01 0.6540000D-01 0.3250000D+00 0.3250000D+00 0.3250000D+00
EXPONENTS  0.3250000D+00 0.3250000D+00 0.3250000D+00 0.3250000D+00 0.3250000D+00
EXPONENTS  0.3250000D+00 0.3250000D+00 0.1533000D+00 0.1533000D+00 0.1533000D+00
EXPONENTS  0.1533000D+00 0.1533000D+00 0.1533000D+00 0.1533000D+00 0.1533000D+00
EXPONENTS  0.1533000D+00 0.1533000D+00 0.3741000D+06 0.5605000D+05 0.1276000D+05
EXPONENTS  0.3615000D+04 0.1183000D+04 0.4288000D+03 0.1678000D+03 0.6947000D+02
EXPONENTS  0.2984000D+02 0.1272000D+02 0.5244000D+01 0.2219000D+01 0.3490000D+00
EXPONENTS  0.3741000D+06 0.5605000D+05 0.1276000D+05 0.3615000D+04 0.1183000D+04
EXPONENTS  0.4288000D+03 0.1678000D+03 0.6947000D+02 0.2984000D+02 0.1272000D+02
EXPONENTS  0.5244000D+01 0.2219000D+01 0.3490000D+00 0.3741000D+06 0.5605000D+05
EXPONENTS  0.1276000D+05 0.3615000D+04 0.1183000D+04 0.4288000D+03 0.1678000D+03
EXPONENTS  0.6947000D+02 0.2984000D+02 0.1272000D+02 0.5244000D+01 0.2219000D+01
EXPONENTS  0.3490000D+00 0.7767000D+00 0.1322000D+00 0.4970000D-01 0.5744000D+03
EXPONENTS  0.1358000D+03 0.4319000D+02 0.1587000D+02 0.6208000D+01 0.2483000D+01
EXPONENTS  0.3229000D+00 0.5744000D+03 0.1358000D+03 0.4319000D+02 0.1587000D+02
EXPONENTS  0.6208000D+01 0.2483000D+01 0.3229000D+00 0.5744000D+03 0.1358000D+03
EXPONENTS  0.4319000D+02 0.1587000D+02 0.6208000D+01 0.2483000D+01 0.3229000D+00
EXPONENTS  0.5744000D+03 0.1358000D+03 0.4319000D+02 0.1587000D+02 0.6208000D+01
EXPONENTS  0.2483000D+01 0.3229000D+00 0.5744000D+03 0.1358000D+03 0.4319000D+02
EXPONENTS  0.1587000D+02 0.6208000D+01 0.2483000D+01 0.3229000D+00 0.5744000D+03
EXPONENTS  0.1358000D+03 0.4319000D+02 0.1587000D+02 0.6208000D+01 0.2483000D+01
EXPONENTS  0.3229000D+00 0.8688000D+00 0.8688000D+00 0.8688000D+00 0.1098000D+00
EXPONENTS  0.1098000D+00 0.1098000D+00 0.3510000D-01 0.3510000D-01 0.3510000D-01
EXPONENTS  0.2690000D+00 0.2690000D+00 0.2690000D+00 0.2690000D+00 0.2690000D+00
EXPONENTS  0.2690000D+00 0.8190000D+00 0.8190000D+00 0.8190000D+00 0.8190000D+00
EXPONENTS  0.8190000D+00 0.8190000D+00 0.1010000D+00 0.1010000D+00 0.1010000D+00
EXPONENTS  0.1010000D+00 0.1010000D+00 0.1010000D+00 0.5570000D+00 0.5570000D+00
EXPONENTS  0.5570000D+00 0.5570000D+00 0.5570000D+00 0.5570000D+00 0.5570000D+00
EXPONENTS  0.5570000D+00 0.5570000D+00 0.5570000D+00 0.2180000D+00 0.2180000D+00
EXPONENTS  0.2180000D+00 0.2180000D+00 0.2180000D+00 0.2180000D+00 0.2180000D+00
EXPONENTS  0.2180000D+00 0.2180000D+00 0.2180000D+00
MO    1     MO 0.0        OCC NO =    2.0000000  ORB. ENERGY =  -89.876988
 -0.20170370D-04 -0.37630938D-04 -0.64242862D-04 -0.10025781D-03 -0.13666760D-03
 -0.14832625D-03 -0.10810495D-03 -0.33079617D-04  0.15761220D-06  0.16659439D-04
  0.31108463D-04  0.53486102D-04  0.83957269D-04  0.11942674D-03  0.13853823D-03
  0.13134541D-03  0.76535031D-04 -0.56709330D-04  0.37877707D-03 -0.23146134D-04
 -0.23401963D-05 -0.34781039D-19 -0.29305448D-19 -0.23144815D-19 -0.11210421D-19
 -0.94455602D-20 -0.74599011D-20  0.14566482D-03  0.12273276D-03  0.96931701D-04
 -0.71903724D-19  0.10515688D-18 -0.21752381D-03  0.11114994D-21 -0.46590260D-21
 -0.20763772D-04 -0.30210342D-22  0.27369067D-22 -0.54137225D-07  0.18289288D-04
  0.18289288D-04 -0.36578576D-04  0.98850010D-21 -0.14403047D-19  0.24342424D-19
  0.66527851D-04  0.66527851D-04 -0.13305570D-03 -0.61072737D-21 -0.71520224D-19
  0.10102089D-18  0.28212940D-05  0.28212940D-05 -0.56425881D-05  0.30105650D-22
  0.27458124D-21 -0.43589706D-21  0.11176042D-19 -0.18088585D-19 -0.48976781D-04
  0.11218047D-19 -0.18365167D-19  0.73465171D-04 -0.44746172D-19  0.72630922D-19
  0.73465171D-04  0.56089527D-21  0.19021118D-20 -0.24338589D-20 -0.12474008D-04
  0.18772448D-20 -0.24242576D-20  0.18711011D-04 -0.75835803D-20  0.97258344D-20
  0.18711011D-04 -0.37309075D-21  0.58502432D+00  0.10936690D+01  0.18902014D+01
  0.30573160D+01  0.46209541D+01  0.63638121D+01  0.74378209D+01  0.64268384D+01
  0.29975003D+01  0.40699579D+00  0.10898344D-02  0.21378046D-02  0.97599712D-04
 -0.97189647D-03 -0.18150580D-02 -0.31484990D-02 -0.51051823D-02 -0.78600093D-02
 -0.11194419D-01 -0.14394569D-01 -0.15110014D-01 -0.10683851D-01  0.23659835D-03
  0.76764850D-02  0.42268810D-02 -0.17875408D-04  0.40336903D-03  0.75274629D-03
  0.13074302D-02  0.21177469D-02  0.32712991D-02  0.46637284D-02  0.60659872D-02
  0.64647073D-02  0.47947389D-02 -0.14924242D-03 -0.43437837D-02 -0.42554088D-02
  0.19875283D-02 -0.24955518D-02 -0.16662001D-03 -0.15401367D-04  0.15545735D-16
  0.20395158D-16  0.22370379D-16  0.18406703D-16  0.97043777D-17  0.25246204D-17
 -0.27937499D-20 -0.88145600D-17 -0.11564223D-16 -0.12684190D-16 -0.10436752D-16
 -0.55024622D-17 -0.14314806D-17  0.15840792D-20 -0.10058716D-01 -0.13196488D-01
 -0.14474535D-01 -0.11909877D-01 -0.62791228D-02 -0.16335310D-02  0.18076686D-05
 -0.47982192D-17 -0.63000910D-17 -0.70880272D-17 -0.59721988D-17 -0.33407643D-17
 -0.83150943D-18  0.38137029D-18  0.44225609D-17  0.58068493D-17  0.65330970D-17
  0.55046282D-17  0.30792118D-17  0.76640956D-18 -0.35151235D-18  0.86649565D-02
  0.11377141D-01  0.12800050D-01  0.10785010D-01  0.60329835D-02  0.15015973D-02
 -0.68870487D-03 -0.88066115D-18  0.61391763D-18  0.38553410D-03  0.17858911D-19
 -0.30401763D-19  0.18286626D-03  0.10882557D-20 -0.67530764D-21  0.49343182D-05
  0.28847639D-05  0.28847639D-05 -0.57695278D-05  0.43131948D-20 -0.11923908D-18
  0.16788559D-18 -0.11686423D-03 -0.11686423D-03  0.23372846D-03 -0.94953665D-19
  0.43382078D-19 -0.36653778D-19  0.17590904D-04  0.17590904D-04 -0.35181808D-04
 -0.31649896D-21 -0.86477911D-20  0.11425989D-19 -0.76541693D-20  0.14316286D-19
 -0.61068771D-04 -0.10187763D-19  0.11834807D-19  0.91603157D-04  0.33150271D-19
 -0.54783665D-19  0.91603157D-04  0.54446656D-20 -0.51693447D-20  0.69965681D-20
  0.24891460D-04 -0.49913149D-20  0.72249659D-20 -0.37337190D-04  0.20499349D-19
 -0.28214670D-19 -0.37337190D-04 -0.50684992D-21
MO    2     MO 0.0        OCC NO =    2.0000000  ORB. ENERGY =   -8.213860
  0.30643901D-04  0.57170927D-04  0.97601182D-04  0.15231701D-03  0.20763271D-03
  0.22534514D-03  0.16423880D-03  0.50256318D-04 -0.23945286D-06 -0.35872256D-04
 -0.66984895D-04 -0.11516997D-03 -0.18078260D-03 -0.25715793D-03 -0.29831009D-03
 -0.28282201D-03 -0.16480052D-03  0.12211045D-03 -0.15435451D-02  0.33455524D-03
  0.13194509D-04 -0.84919058D-17 -0.71550221D-17 -0.56508832D-17  0.33987730D-16
  0.28637029D-16  0.22616912D-16 -0.47421289D-03 -0.39955738D-03 -0.31556186D-03
  0.11030308D-17  0.12004786D-18  0.88706247D-03 -0.27162118D-18 -0.43396540D-19
  0.14120653D-03 -0.29001562D-23 -0.12208973D-21  0.21606599D-06 -0.57495685D-04
 -0.57495685D-04  0.11499137D-03  0.59967430D-19 -0.75363457D-18  0.55034806D-18
 -0.29103170D-03 -0.29103170D-03  0.58206339D-03 -0.44872773D-19 -0.13637920D-17
 -0.53386007D-18 -0.14393603D-04 -0.14393603D-04  0.28787207D-04  0.54079886D-20
 -0.34293855D-19 -0.24546651D-19  0.33357976D-18  0.16995750D-19  0.17202022D-03
  0.36059800D-18  0.31914118D-19 -0.25803032D-03 -0.13613373D-17 -0.82901368D-19
 -0.25803032D-03  0.52425513D-20  0.16446754D-19  0.28789484D-19  0.61364392D-04
  0.14351646D-19  0.26974435D-19 -0.92046588D-04 -0.63691908D-19 -0.11334289D-18
 -0.92046588D-04 -0.22300180D-19 -0.39478981D-02 -0.73803660D-02 -0.12755577D-01
 -0.20631573D-01 -0.31183415D-01 -0.42944679D-01 -0.50192373D-01 -0.43369997D-01
 -0.20227921D-01 -0.27465147D-02 -0.73544896D-05 -0.14426468D-04 -0.65862854D-06
 -0.15531051D+00 -0.29004900D+00 -0.50313486D+00 -0.81581578D+00 -0.12560413D+01
 -0.17888849D+01 -0.23002738D+01 -0.24146030D+01 -0.17072954D+01  0.37808772D-01
  0.12267138D+01  0.67546192D+00 -0.28565170D-02 -0.21917186D-02 -0.40900711D-02
 -0.71039639D-02 -0.11506845D-01 -0.17774709D-01 -0.25340518D-01 -0.32959736D-01
 -0.35126194D-01 -0.26052368D-01  0.81091346D-03  0.23602088D-01  0.23121900D-01
 -0.10799299D-01  0.58300295D-01  0.14911509D-02 -0.26544280D-03 -0.27581957D-15
 -0.36186026D-15 -0.39690555D-15 -0.32658018D-15 -0.17217953D-15 -0.44792975D-16
  0.49567994D-19 -0.12718131D-15 -0.16685495D-15 -0.18301445D-15 -0.15058719D-15
 -0.79392545D-16 -0.20654188D-16  0.22855965D-19  0.16617811D-01  0.21801663D-01
  0.23913102D-01  0.19676079D-01  0.10373618D-01  0.26987251D-02 -0.29864145D-05
 -0.60326812D-16 -0.79209472D-16 -0.89115996D-16 -0.75086965D-16 -0.42002595D-16
 -0.10454360D-16  0.47948734D-17 -0.20996337D-16 -0.27568319D-16 -0.31016218D-16
 -0.26133508D-16 -0.14618718D-16 -0.36385692D-17  0.16688232D-17 -0.35819194D-01
 -0.47030820D-01 -0.52912844D-01 -0.44583071D-01 -0.24939145D-01 -0.62073024D-02
  0.28469680D-02 -0.16077746D-16 -0.50505398D-17 -0.19662285D-02  0.85283626D-18
  0.23550445D-18 -0.77732405D-03  0.41339116D-19  0.25000873D-19 -0.46113925D-05
  0.18164668D-05  0.18164668D-05 -0.36329336D-05  0.52569376D-18 -0.18412083D-17
 -0.37601900D-19  0.31105395D-03  0.31105395D-03 -0.62210789D-03 -0.65613983D-17
 -0.38359727D-17  0.28361304D-17 -0.76958497D-04 -0.76958497D-04  0.15391699D-03
 -0.36846913D-19 -0.39572559D-18 -0.14195689D-18 -0.54749824D-18 -0.29660958D-19
  0.20867352D-03 -0.56789758D-18 -0.34320767D-18 -0.31301028D-03  0.22103923D-17
  0.43219054D-18 -0.31301028D-03  0.14489326D-19 -0.97402412D-19 -0.12063151D-19
 -0.98171116D-04 -0.95116995D-19  0.11136857D-19  0.14725667D-03  0.38732423D-18
  0.25052596D-19  0.14725667D-03 -0.33233653D-19
MO    3     MO 0.0        OCC NO =    2.0000000  ORB. ENERGY =   -6.131598
  0.11665900D-03  0.21764536D-03  0.37156026D-03  0.57985926D-03  0.79044190D-03
  0.85787178D-03  0.62524461D-03  0.19132197D-03 -0.91157880D-06 -0.10159255D-03
 -0.18970555D-03 -0.32616881D-03 -0.51198800D-03 -0.72828787D-03 -0.84483346D-03
 -0.80097022D-03 -0.46672573D-03  0.34582469D-03 -0.43381264D-03  0.52437091D-03
 -0.85180383D-06  0.40112794D-16  0.33797823D-16  0.26692796D-16  0.14992991D-15
  0.12632639D-15  0.99769876D-16 -0.42401533D-03 -0.35726245D-03 -0.28215823D-03
 -0.56618332D-17 -0.34810828D-18  0.29423787D-03 -0.10468085D-19  0.20518111D-18
  0.13323286D-03  0.22826212D-20 -0.44694274D-21 -0.97758716D-07 -0.10774306D-03
 -0.10774306D-03  0.21548613D-03 -0.56388349D-19  0.14765625D-17 -0.17074325D-17
 -0.23464694D-04 -0.23464694D-04  0.46929388D-04  0.47425990D-19  0.20871350D-17
  0.36471150D-18 -0.75265844D-05 -0.75265844D-05  0.15053169D-04  0.49916838D-20
  0.62387850D-20  0.19020902D-18 -0.33908195D-18  0.29751710D-18  0.13059454D-03
 -0.34647062D-18  0.28891905D-18 -0.19589181D-03  0.13637165D-17 -0.11814703D-17
 -0.19589181D-03 -0.94581914D-19  0.19078832D-19 -0.71025251D-19 -0.53560908D-05
  0.17920188D-19 -0.71427461D-19  0.80341362D-05 -0.75156683D-19  0.28450321D-18
  0.80341362D-05  0.35424542D-19 -0.15177665D-03 -0.28373763D-03 -0.49038721D-03
 -0.79317930D-03 -0.11988441D-02 -0.16510050D-02 -0.19296421D-02 -0.16673563D-02
 -0.77766093D-03 -0.10558955D-03 -0.28274281D-06 -0.55462451D-06 -0.25320926D-07
 -0.10920684D-03 -0.20394842D-03 -0.35378009D-03 -0.57364218D-03 -0.88318744D-03
 -0.12578573D-02 -0.16174412D-02 -0.16978320D-02 -0.12004875D-02  0.26585299D-04
  0.86256579D-03  0.47495214D-03 -0.20085645D-05 -0.19015182D-03 -0.35485142D-03
 -0.61633444D-03 -0.99832505D-03 -0.15421200D-02 -0.21985238D-02 -0.28595613D-02
 -0.30475215D-02 -0.22602834D-02  0.70354228D-04  0.20476990D-02  0.20060382D-02
 -0.93693883D-03  0.38855826D-03 -0.13223441D-03 -0.62068650D-03  0.20693265D-13
  0.27148437D-13  0.29777697D-13  0.24501561D-13  0.12917708D-13  0.33605769D-14
 -0.37188210D-17 -0.18292679D-13 -0.23998999D-13 -0.26323244D-13 -0.21659182D-13
 -0.11419149D-13 -0.29707229D-14  0.32874077D-17  0.97012825D+01  0.12727554D+02
  0.13960187D+02  0.11486663D+02  0.60559960D+01  0.15754839D+01 -0.17434336D-02
 -0.55931532D-17 -0.73438442D-17 -0.82623199D-17 -0.69616292D-17 -0.38942378D-17
 -0.96926785D-18  0.44455294D-18 -0.46544903D-16 -0.61113741D-16 -0.68757080D-16
 -0.57933038D-16 -0.32406929D-16 -0.80660187D-17  0.36994648D-17 -0.92873040D-03
 -0.12194287D-02 -0.13719395D-02 -0.11559627D-02 -0.64662934D-03 -0.16094473D-03
  0.73817007D-04  0.17292118D-15 -0.15355027D-15  0.77046524D-01 -0.17685309D-17
 -0.17767059D-17  0.24749282D-03  0.17092407D-19 -0.30848442D-19  0.23028916D-04
 -0.23071424D-04 -0.23071424D-04  0.46142847D-04  0.80412053D-19  0.56085051D-17
 -0.11196083D-17  0.48605446D-03  0.48605446D-03 -0.97210891D-03 -0.94470253D-18
 -0.20713457D-16 -0.47376413D-17 -0.75622169D-05 -0.75622169D-05  0.15124434D-04
 -0.26806022D-19  0.57145645D-18  0.35389065D-18 -0.30547851D-18 -0.23601252D-18
  0.21036453D-03 -0.54752079D-18 -0.22129019D-18 -0.31554680D-03  0.14639563D-17
  0.92932773D-18 -0.31554680D-03 -0.17169645D-17  0.28173100D-18 -0.49481392D-19
 -0.38532706D-04  0.30184991D-18 -0.43610772D-19  0.57799059D-04 -0.11470429D-17
  0.19205495D-18  0.57799059D-04  0.14438079D-18
MO    4     MO 0.0        OCC NO =    2.0000000  ORB. ENERGY =   -6.130299
  0.45148540D-16  0.84231570D-16  0.14379863D-15  0.22441303D-15  0.30591124D-15
  0.33200747D-15  0.24197775D-15  0.74044077D-16 -0.35279278D-18 -0.30973567D-16
 -0.57837488D-16 -0.99442449D-16 -0.15609506D-15 -0.22204063D-15 -0.25757309D-15
 -0.24420005D-15 -0.14229549D-15  0.10543514D-15 -0.21337731D-15 -0.17344393D-15
 -0.10893985D-16  0.37980988D-04  0.32001628D-04  0.25274200D-04 -0.19317615D-04
 -0.16276436D-04 -0.12854781D-04 -0.11300993D-15 -0.95218732D-16 -0.75201715D-16
  0.17391137D-03 -0.88453542D-04  0.16931594D-15 -0.46449758D-05  0.23624940D-05
 -0.67332591D-16  0.18808291D-06 -0.95661368D-07 -0.59309213D-18  0.13616584D-15
 -0.33411426D-16 -0.10275442D-15 -0.37488428D-15  0.10504164D-04 -0.53425518D-05
 -0.24501369D-15  0.12232508D-15  0.12268861D-15  0.17289342D-15  0.18906276D-03
 -0.96159734D-04  0.29272241D-16 -0.14660737D-16 -0.14611504D-16  0.13443611D-17
 -0.41341064D-05  0.21026593D-05 -0.10103903D-04  0.51389742D-05  0.35120275D-16
 -0.10107676D-04  0.51408933D-05 -0.11548602D-14  0.40419386D-04 -0.20557816D-04
  0.10494993D-14  0.25523289D-15 -0.67979542D-05  0.34575263D-05  0.16829666D-17
 -0.67923465D-05  0.34546741D-05  0.13465632D-15  0.27186209D-04 -0.13827253D-04
 -0.13970522D-15  0.73307580D-17 -0.25670626D-15 -0.47989743D-15 -0.82941259D-15
 -0.13415376D-14 -0.20276556D-14 -0.27924145D-14 -0.32636851D-14 -0.28200702D-14
 -0.13152908D-14 -0.17858807D-15 -0.47821485D-18 -0.93805986D-18 -0.42826351D-19
  0.44385198D-15  0.82891249D-15  0.14378770D-14  0.23314678D-14  0.35895601D-14
  0.51123398D-14  0.65738054D-14  0.69005395D-14  0.48791704D-14 -0.10805127D-15
 -0.35057470D-14 -0.19303594D-14  0.81634573D-17 -0.19884809D-15 -0.37107995D-15
 -0.64452146D-15 -0.10439818D-14 -0.16126463D-14 -0.22990696D-14 -0.29903386D-14
 -0.31868948D-14 -0.23636536D-14  0.73571760D-16  0.21413471D-14  0.20977810D-14
 -0.97978816D-15  0.93841027D-15  0.19849276D-15  0.21305366D-15  0.86404110D+01
  0.11335749D+02  0.12433589D+02  0.10230554D+02  0.53937502D+01  0.14031989D+01
 -0.15527826D-02 -0.43946233D+01 -0.57655065D+01 -0.63238818D+01 -0.52033902D+01
 -0.27433302D+01 -0.71368486D+00  0.78976506D-03 -0.19630975D-13 -0.25754770D-13
 -0.28249057D-13 -0.23243772D-13 -0.12254576D-13 -0.31880615D-14  0.35279151D-17
  0.74774423D-02  0.98179273D-02  0.11045830D-01  0.93069471D-02  0.52061757D-02
  0.12958065D-02 -0.59431931D-03 -0.38031226D-02 -0.49935231D-02 -0.56180502D-02
 -0.47336321D-02 -0.26479274D-02 -0.65906374D-03  0.30227839D-03 -0.62861411D-14
 -0.82537415D-14 -0.92860158D-14 -0.78241704D-14 -0.43767312D-14 -0.10893595D-14
  0.49963275D-15  0.68348661D-01 -0.34763001D-01 -0.64801065D-15  0.75877594D-04
 -0.38592313D-04 -0.90277420D-16 -0.61384434D-05  0.31220907D-05 -0.93649634D-17
  0.83242291D-16 -0.88130635D-16  0.48883444D-17 -0.56186809D-16  0.29324982D-03
 -0.14915060D-03  0.30809179D-15 -0.58323583D-16 -0.24976821D-15 -0.71537522D-16
 -0.69017502D-03  0.35103183D-03 -0.32191976D-16  0.17244873D-16  0.14947103D-16
 -0.15908320D-16  0.16313199D-04 -0.82971011D-05 -0.29350384D-04  0.14927980D-04
  0.91381938D-16 -0.28261239D-04  0.14374027D-04  0.46502035D-15  0.11631239D-03
 -0.59157966D-04 -0.73916616D-15 -0.17893219D-14  0.14374131D-04 -0.73108664D-05
 -0.20009357D-16  0.14315984D-04 -0.72812923D-05 -0.22398608D-16 -0.57438377D-04
  0.29213892D-04  0.82426679D-16  0.22333378D-15
MO    5     MO 0.0        OCC NO =    2.0000000  ORB. ENERGY =   -6.130299
 -0.94327412D-17 -0.17598235D-16 -0.30043391D-16 -0.46885902D-16 -0.63913064D-16
 -0.69365268D-16 -0.50555643D-16 -0.15469794D-16  0.73707877D-19  0.70243646D-17
  0.13116720D-16  0.22552133D-16  0.35400140D-16  0.50355658D-16  0.58413914D-16
  0.55381099D-16  0.32270593D-16 -0.23911190D-16  0.44395259D-16 -0.33996344D-15
  0.15803171D-16  0.19317615D-04  0.16276436D-04  0.12854781D-04  0.37980988D-04
  0.32001628D-04  0.25274200D-04 -0.40508516D-16 -0.34131246D-16 -0.26956127D-16
  0.88453542D-04  0.17391137D-03 -0.13060189D-15 -0.23624940D-05 -0.46449758D-05
 -0.86890022D-16  0.95661368D-07  0.18808291D-06  0.13999829D-17  0.48029776D-17
  0.19535065D-17 -0.67564840D-17  0.27576915D-16  0.53425518D-05  0.10504164D-04
  0.12967089D-16  0.14429586D-16 -0.27396675D-16 -0.78619960D-17  0.96159734D-04
  0.18906276D-03  0.56975798D-17  0.43276128D-17 -0.10025193D-16  0.25715107D-19
 -0.21026593D-05 -0.41341064D-05 -0.51389742D-05 -0.10103903D-04 -0.11127718D-16
 -0.51408933D-05 -0.10107676D-04  0.15195133D-16  0.20557816D-04  0.40419386D-04
  0.18188020D-16 -0.23985564D-16 -0.34575263D-05 -0.67979542D-05  0.46023192D-17
 -0.34546741D-05 -0.67923465D-05 -0.66699654D-17  0.13827253D-04  0.27186209D-04
 -0.71369922D-17 -0.13822926D-17  0.11886373D-17  0.22220884D-17  0.38404625D-17
  0.62117758D-17  0.93887354D-17  0.12929829D-16  0.15111973D-16  0.13057885D-16
  0.60902439D-17  0.82692355D-18  0.22142975D-20  0.43435364D-20  0.19830058D-21
 -0.12129470D-16 -0.22652301D-16 -0.39293921D-16 -0.63713735D-16 -0.98094548D-16
 -0.13970867D-15 -0.17964721D-15 -0.18857612D-15 -0.13333668D-15  0.29527966D-17
  0.95804126D-16  0.52752352D-16 -0.22308880D-18  0.17805129D-16  0.33227004D-16
  0.57711329D-16  0.93479549D-16  0.14439855D-15  0.20586182D-15  0.26775899D-15
  0.28535890D-15  0.21164476D-15 -0.65877156D-17 -0.19173913D-15 -0.18783817D-15
  0.87731565D-16 -0.74491917D-19  0.30431780D-15  0.25313234D-15  0.43946233D+01
  0.57655065D+01  0.63238818D+01  0.52033902D+01  0.27433302D+01  0.71368486D+00
 -0.78976506D-03  0.86404110D+01  0.11335749D+02  0.12433589D+02  0.10230554D+02
  0.53937502D+01  0.14031989D+01 -0.15527826D-02  0.63188814D-14  0.82900283D-14
  0.90928975D-14  0.74817801D-14  0.39445425D-14  0.10261835D-14 -0.11355767D-17
  0.38031226D-02  0.49935231D-02  0.56180502D-02  0.47336321D-02  0.26479274D-02
  0.65906374D-03 -0.30227839D-03  0.74774423D-02  0.98179273D-02  0.11045830D-01
  0.93069471D-02  0.52061757D-02  0.12958065D-02 -0.59431931D-03  0.21847387D-15
  0.28685752D-15  0.32273405D-15  0.27192784D-15  0.15211262D-15  0.37860522D-16
 -0.17364659D-16  0.34763001D-01  0.68348661D-01  0.11487671D-15  0.38592313D-04
  0.75877594D-04 -0.11283305D-15 -0.31220907D-05 -0.61384434D-05 -0.10258142D-16
 -0.19165958D-16 -0.22437485D-16  0.41603443D-16  0.21836630D-17  0.14915060D-03
  0.29324982D-03  0.66960469D-17  0.27322789D-16 -0.34018836D-16 -0.17493292D-16
 -0.35103183D-03 -0.69017502D-03  0.10040871D-16  0.10410709D-16 -0.20451580D-16
  0.28823605D-18  0.82971011D-05  0.16313199D-04 -0.14927980D-04 -0.29350384D-04
 -0.18815301D-16 -0.14374027D-04 -0.28261239D-04  0.28222952D-16  0.59157966D-04
  0.11631239D-03  0.28222952D-16  0.20735732D-16  0.73108664D-05  0.14374131D-04
  0.61951213D-17  0.72812923D-05  0.14315984D-04 -0.92926819D-17 -0.29213892D-04
 -0.57438377D-04 -0.92926819D-17 -0.26977963D-17
MO    6     MO 0.0        OCC NO =    2.0000000  ORB. ENERGY =   -4.340572
  0.12764004D+00  0.23813221D+00  0.40653503D+00  0.63444110D+00  0.86484577D+00
  0.93862279D+00  0.68409854D+00  0.20933101D+00 -0.99738522D-03 -0.10724742D-02
 -0.20026500D-02 -0.34432411D-02 -0.54048642D-02 -0.76882603D-02 -0.89185881D-02
 -0.84555405D-02 -0.49270475D-02  0.36507408D-02  0.94849903D-02  0.44813709D-02
 -0.11860436D-03 -0.11764419D-16 -0.99123421D-17 -0.78285554D-17 -0.29368790D-17
 -0.24745251D-17 -0.19543269D-17 -0.47339049D-02 -0.39886446D-02 -0.31501460D-02
  0.28411896D-17  0.80719766D-18  0.48341347D-02  0.27269400D-18  0.40890482D-19
  0.83852328D-03  0.11001826D-20  0.33991855D-21 -0.16945009D-05 -0.14804069D-03
 -0.14804069D-03  0.29608139D-03 -0.43431912D-18 -0.31552011D-17 -0.22796183D-18
 -0.51232769D-03 -0.51232769D-03  0.10246554D-02  0.12556689D-18  0.17804316D-17
  0.36592925D-18 -0.52209562D-04 -0.52209562D-04  0.10441912D-03 -0.48623837D-20
  0.19410071D-18  0.40609436D-19  0.21647861D-18  0.13440196D-20  0.33033848D-03
  0.30741442D-18 -0.40761529D-19 -0.49550773D-03 -0.95685026D-18  0.36729470D-19
 -0.49550773D-03  0.70162767D-19 -0.90255734D-19 -0.19901950D-19  0.46129015D-04
 -0.10120303D-18 -0.81324660D-20 -0.69193523D-04  0.37197023D-18  0.67838315D-19
 -0.69193523D-04  0.97112799D-20 -0.25012113D-03 -0.46758692D-03 -0.80813619D-03
 -0.13071240D-02 -0.19756414D-02 -0.27207824D-02 -0.31799639D-02 -0.27477287D-02
 -0.12815505D-02 -0.17400686D-03 -0.46594751D-06 -0.91399640D-06 -0.41727754D-07
  0.51391322D-03  0.95975482D-03  0.16648432D-02  0.26994858D-02  0.41561656D-02
  0.59193134D-02  0.76114687D-02  0.79897771D-02  0.56493386D-02 -0.12510697D-03
 -0.40591228D-02 -0.22350632D-02  0.94520443D-05 -0.18706599D-03 -0.34909281D-03
 -0.60633242D-03 -0.98212399D-03 -0.15170941D-02 -0.21628457D-02 -0.28131557D-02
 -0.29980657D-02 -0.22236030D-02  0.69212503D-04  0.20144684D-02  0.19734838D-02
 -0.92173397D-03  0.67358586D-03 -0.68643423D-02 -0.43527332D-02  0.90520062D-17
  0.11875739D-16  0.13025876D-16  0.10717897D-16  0.56506873D-17  0.14700418D-17
 -0.16267511D-20 -0.62942665D-17 -0.82577349D-17 -0.90574766D-17 -0.74526353D-17
 -0.39291767D-17 -0.10221861D-17  0.11311531D-20  0.62157329D-01  0.81547031D-01
  0.89444663D-01  0.73596487D-01  0.38801523D-01  0.10094322D-01 -0.11170397D-04
 -0.56331855D-17 -0.73964068D-17 -0.83214564D-17 -0.70114561D-17 -0.39221103D-17
 -0.97620526D-18  0.44773477D-18  0.74326333D-18  0.97590928D-18  0.10979637D-17
  0.92511747D-18  0.51749774D-18  0.12880413D-18 -0.59075782D-19 -0.44401472D-01
 -0.58299404D-01 -0.65590760D-01 -0.55265174D-01 -0.30914564D-01 -0.76945720D-02
  0.35291015D-02 -0.58824462D-18  0.11560552D-18 -0.18535391D-02 -0.19891641D-17
 -0.45949577D-18  0.24189757D-02 -0.95861579D-19 -0.16999699D-19  0.23616304D-03
  0.29612391D-03  0.29612391D-03 -0.59224782D-03 -0.18264520D-19  0.85624642D-19
  0.24232771D-18  0.29821001D-04  0.29821001D-04 -0.59642001D-04  0.11695766D-18
 -0.95169925D-18 -0.36023498D-18  0.54568178D-04  0.54568178D-04 -0.10913636D-03
 -0.42534300D-20  0.61435433D-18  0.14556943D-18 -0.46076962D-18 -0.10435699D-18
 -0.13572988D-03 -0.39718629D-18  0.20967143D-19  0.20359482D-03  0.17794951D-17
  0.29210384D-18  0.20359482D-03 -0.61571130D-19  0.48589914D-19  0.35556312D-19
 -0.31964455D-04  0.30762028D-19  0.77413615D-20  0.47946682D-04 -0.17653177D-18
 -0.11441030D-18  0.47946682D-04  0.24275066D-19
MO    7     MO 0.0        OCC NO =    2.0000000  ORB. ENERGY =   -0.722436
 -0.27021172D-02 -0.50412168D-02 -0.86062749D-02 -0.13431006D-01 -0.18308632D-01
 -0.19870479D-01 -0.14482246D-01 -0.44315005D-02  0.21114469D-04 -0.68738266D-02
 -0.12835618D-01 -0.22068822D-01 -0.34641486D-01 -0.49276494D-01 -0.57162054D-01
 -0.54194236D-01 -0.31579007D-01  0.23398753D-01  0.26140398D-01  0.16411517D-02
  0.10258509D-03  0.11473709D-15  0.96673991D-16  0.76351047D-16  0.85501241D-17
  0.72040750D-17  0.56896241D-17  0.53794981D-01  0.45326018D-01  0.35797518D-01
 -0.57874045D-17  0.27818157D-16  0.95905024D-02 -0.50173137D-18 -0.49590683D-17
  0.62839540D-04 -0.22358090D-19 -0.26061116D-19 -0.87404365D-08 -0.24525908D-02
 -0.24525908D-02  0.49051815D-02  0.61592719D-18 -0.69104863D-17 -0.19952619D-18
  0.12850237D-03  0.12850237D-03 -0.25700474D-03 -0.35126771D-18 -0.30982179D-17
 -0.36990854D-17  0.37525456D-04  0.37525456D-04 -0.75050912D-04  0.14068782D-18
 -0.80510226D-18 -0.17344645D-17  0.69845464D-18  0.38902845D-18  0.57259623D-03
 -0.12615285D-17 -0.55891271D-18 -0.85889434D-03 -0.83383541D-18 -0.60817263D-18
 -0.85889434D-03 -0.10245249D-17  0.20450127D-18  0.19818238D-19 -0.17706091D-03
  0.50850533D-18  0.25586462D-18  0.26559136D-03 -0.11220092D-17 -0.31531934D-18
  0.26559136D-03  0.27547914D-18  0.82123387D-03  0.15352490D-02  0.26533896D-02
  0.42917386D-02  0.64867116D-02  0.89332663D-02  0.10440917D-01  0.90217402D-02
  0.42077718D-02  0.57132450D-03  0.15298662D-05  0.30009651D-05  0.13700659D-06
 -0.59137043D-04 -0.11044095D-03 -0.19157691D-03 -0.31063534D-03 -0.47825847D-03
 -0.68114748D-03 -0.87586724D-03 -0.91939997D-03 -0.65008093D-03  0.14396314D-04
  0.46709155D-03  0.25719328D-03 -0.10876660D-05  0.44595424D-01  0.83221659D-01
  0.14454606D+00  0.23413255D+00  0.36166626D+00  0.51560960D+00  0.67063966D+00
  0.71472111D+00  0.53009378D+00 -0.16499851D-01 -0.48023735D+00 -0.47046685D+00
  0.21973592D+00  0.44744186D-01  0.41539888D-01 -0.40883560D-02  0.10731067D-15
  0.14078575D-15  0.15442051D-15  0.12705965D-15  0.66988358D-16  0.17427205D-16
 -0.19284979D-19 -0.68569306D-16 -0.89959196D-16 -0.98671526D-16 -0.81188495D-16
 -0.42804180D-16 -0.11135625D-16  0.12322704D-19  0.98702653D-01  0.12949251D+00
  0.14203354D+00  0.11686745D+00  0.61614830D-01  0.16029267D-01 -0.17738018D-04
  0.74624888D-15  0.97982933D-15  0.11023741D-14  0.92883349D-15  0.51957643D-15
  0.12932152D-15 -0.59313079D-16  0.35669869D-15  0.46834755D-15  0.52692257D-15
  0.44397210D-15  0.24835177D-15  0.61814250D-16 -0.28350993D-16  0.20940132D+00
  0.27494521D+00  0.30933190D+00  0.26063551D+00  0.14579585D+00  0.36288290D-01
 -0.16643558D-01 -0.11173286D-15 -0.18320239D-16 -0.28509620D-01 -0.44829982D-17
  0.83419579D-17  0.69005943D-02  0.83805977D-18  0.18659244D-17  0.34871045D-03
 -0.64833078D-04 -0.64833078D-04  0.12966616D-03 -0.62454231D-17  0.86469158D-17
 -0.62226799D-19 -0.84234947D-02 -0.84234947D-02  0.16846989D-01 -0.21767465D-16
  0.47270100D-16 -0.24889483D-16  0.48986899D-03  0.48986899D-03 -0.97973797D-03
 -0.49114810D-19 -0.60932271D-18 -0.42198956D-17  0.11436787D-17 -0.18249061D-17
 -0.22415032D-02  0.53630328D-17  0.31461161D-17  0.33622548D-02 -0.87940688D-17
  0.23286023D-17  0.33622548D-02  0.24794894D-17  0.77133623D-19  0.76153080D-19
  0.42968057D-03 -0.47044957D-18 -0.79409164D-18 -0.64452086D-03  0.23904870D-18
  0.56563240D-18 -0.64452086D-03  0.45526690D-18
MO    8     MO 0.0        OCC NO =    2.0000000  ORB. ENERGY =   -0.355621
  0.24526026D-02  0.45757088D-02  0.78115679D-02  0.12190782D-01  0.16618006D-01
  0.18035631D-01  0.13144949D-01  0.40222939D-02 -0.19164751D-04  0.15500147D-01
  0.28943697D-01  0.49764127D-01  0.78114875D-01  0.11111611D+00  0.12889767D+00
  0.12220538D+00  0.71209134D-01 -0.52763058D-01 -0.49175451D-01  0.10667327D-02
 -0.16174856D-03  0.19964554D-15  0.16821527D-15  0.13285282D-15 -0.11917045D-15