 Molden2AIM, Version 4.0.0 (06/02/2016)           Time: Fri Jun 29 22:40:53 2018
GAUSSIAN             18 MOL ORBITALS    290 PRIMITIVES        2 NUCLEI
  H    1    (CENTRE  1)   0.00000000  0.00000000  2.54665162  CHARGE =  1.0
  Br   2    (CENTRE  2)   0.00000000  0.00000000 -0.13800670  CHARGE = 35.0
CENTRE ASSIGNMENTS    1  1  1  1  1  1  1  1  1  1  1  1  1  1  1  1  1  1  1  1
CENTRE ASSIGNMENTS    1  1  1  1  1  1  1  2  2  2  2  2  2  2  2  2  2  2  2  2
CENTRE ASSIGNMENTS    2  2  2  2  2  2  2  2  2  2  2  2  2  2  2  2  2  2  2  2
CENTRE ASSIGNMENTS    2  2  2  2  2  2  2  2  2  2  2  2  2  2  2  2  2  2  2  2
CENTRE ASSIGNMENTS    2  2  2  2  2  2  2  2  2  2  2  2  2  2  2  2  2  2  2  2
CENTRE ASSIGNMENTS    2  2  2  2  2  2  2  2  2  2  2  2  2  2  2  2  2  2  2  2
CENTRE ASSIGNMENTS    2  2  2  2  2  2  2  2  2  2  2  2  2  2  2  2  2  2  2  2
CENTRE ASSIGNMENTS    2  2  2  2  2  2  2  2  2  2  2  2  2  2  2  2  2  2  2  2
CENTRE ASSIGNMENTS    2  2  2  2  2  2  2  2  2  2  2  2  2  2  2  2  2  2  2  2
CENTRE ASSIGNMENTS    2  2  2  2  2  2  2  2  2  2  2  2  2  2  2  2  2  2  2  2
CENTRE ASSIGNMENTS    2  2  2  2  2  2  2  2  2  2  2  2  2  2  2  2  2  2  2  2
CENTRE ASSIGNMENTS    2  2  2  2  2  2  2  2  2  2  2  2  2  2  2  2  2  2  2  2
CENTRE ASSIGNMENTS    2  2  2  2  2  2  2  2  2  2  2  2  2  2  2  2  2  2  2  2
CENTRE ASSIGNMENTS    2  2  2  2  2  2  2  2  2  2  2  2  2  2  2  2  2  2  2  2
CENTRE ASSIGNMENTS    2  2  2  2  2  2  2  2  2  2
TYPE ASSIGNMENTS      1  1  1  1  1  1  2  3  4  2  3  4  2  3  4  5  6  7  8  9
TYPE ASSIGNMENTS     10  5  6  7  8  9 10  1  1  1  1  1  1  1  1  1  1  1  1  1
TYPE ASSIGNMENTS      1  1  1  1  1  1  1  1  1  1  1  1  1  1  1  1  1  1  1  1
TYPE ASSIGNMENTS      1  1  1  1  1  1  1  1  1  1  1  1  1  1  1  1  1  1  1  1
TYPE ASSIGNMENTS      1  1  1  1  1  1  1  1  1  1  1  1  1  1  1  1  1  1  1  1
TYPE ASSIGNMENTS      1  1  2  2  2  2  2  2  2  2  2  2  2  3  3  3  3  3  3  3
TYPE ASSIGNMENTS      3  3  3  3  4  4  4  4  4  4  4  4  4  4  4  2  2  2  2  2
TYPE ASSIGNMENTS      2  2  2  2  2  2  3  3  3  3  3  3  3  3  3  3  3  4  4  4
TYPE ASSIGNMENTS      4  4  4  4  4  4  4  4  2  2  2  2  2  2  2  2  2  2  2  3
TYPE ASSIGNMENTS      3  3  3  3  3  3  3  3  3  3  4  4  4  4  4  4  4  4  4  4
TYPE ASSIGNMENTS      4  2  3  4  2  3  4  2  3  4  5  5  5  5  5  5  5  6  6  6
TYPE ASSIGNMENTS      6  6  6  6  7  7  7  7  7  7  7  8  8  8  8  8  8  8  9  9
TYPE ASSIGNMENTS      9  9  9  9  9 10 10 10 10 10 10 10  5  6  7  8  9 10  5  6
TYPE ASSIGNMENTS      7  8  9 10  5  6  7  8  9 10 11 12 13 17 14 15 18 19 16 20
TYPE ASSIGNMENTS     11 12 13 17 14 15 18 19 16 20
EXPONENTS  0.3387000D+02 0.5095000D+01 0.1159000D+01 0.3258000D+00 0.1027000D+00
EXPONENTS  0.2526000D-01 0.1407000D+01 0.1407000D+01 0.1407000D+01 0.3880000D+00
EXPONENTS  0.3880000D+00 0.3880000D+00 0.1020000D+00 0.1020000D+00 0.1020000D+00
EXPONENTS  0.1057000D+01 0.1057000D+01 0.1057000D+01 0.1057000D+01 0.1057000D+01
EXPONENTS  0.1057000D+01 0.2470000D+00 0.2470000D+00 0.2470000D+00 0.2470000D+00
EXPONENTS  0.2470000D+00 0.2470000D+00 0.1063900D+08 0.1593400D+07 0.3626100D+06
EXPONENTS  0.1027000D+06 0.3350100D+05 0.1209300D+05 0.4715900D+04 0.1955600D+04
EXPONENTS  0.8526100D+03 0.3876700D+03 0.1826800D+03 0.8824500D+02 0.3926300D+02
EXPONENTS  0.1923400D+02 0.9405700D+01 0.4160100D+01 0.1899500D+01 0.3011400D+00
EXPONENTS  0.1063900D+08 0.1593400D+07 0.3626100D+06 0.1027000D+06 0.3350100D+05
EXPONENTS  0.1209300D+05 0.4715900D+04 0.1955600D+04 0.8526100D+03 0.3876700D+03
EXPONENTS  0.1826800D+03 0.8824500D+02 0.3926300D+02 0.1923400D+02 0.9405700D+01
EXPONENTS  0.4160100D+01 0.1899500D+01 0.3011400D+00 0.1063900D+08 0.1593400D+07
EXPONENTS  0.3626100D+06 0.1027000D+06 0.3350100D+05 0.1209300D+05 0.4715900D+04
EXPONENTS  0.1955600D+04 0.8526100D+03 0.3876700D+03 0.1826800D+03 0.8824500D+02
EXPONENTS  0.3926300D+02 0.1923400D+02 0.9405700D+01 0.4160100D+01 0.1899500D+01
EXPONENTS  0.3011400D+00 0.1063900D+08 0.1593400D+07 0.3626100D+06 0.1027000D+06
EXPONENTS  0.3350100D+05 0.1209300D+05 0.4715900D+04 0.1955600D+04 0.8526100D+03
EXPONENTS  0.3876700D+03 0.1826800D+03 0.8824500D+02 0.3926300D+02 0.1923400D+02
EXPONENTS  0.9405700D+01 0.4160100D+01 0.1899500D+01 0.3011400D+00 0.6047200D+00
EXPONENTS  0.1251500D+00 0.4559300D-01 0.8676500D+04 0.2055900D+04 0.6662300D+03
EXPONENTS  0.2531000D+03 0.1061200D+03 0.4724200D+02 0.2182500D+02 0.9968400D+01
EXPONENTS  0.4517100D+01 0.1998200D+01 0.2814500D+00 0.8676500D+04 0.2055900D+04
EXPONENTS  0.6662300D+03 0.2531000D+03 0.1061200D+03 0.4724200D+02 0.2182500D+02
EXPONENTS  0.9968400D+01 0.4517100D+01 0.1998200D+01 0.2814500D+00 0.8676500D+04
EXPONENTS  0.2055900D+04 0.6662300D+03 0.2531000D+03 0.1061200D+03 0.4724200D+02
EXPONENTS  0.2182500D+02 0.9968400D+01 0.4517100D+01 0.1998200D+01 0.2814500D+00
EXPONENTS  0.8676500D+04 0.2055900D+04 0.6662300D+03 0.2531000D+03 0.1061200D+03
EXPONENTS  0.4724200D+02 0.2182500D+02 0.9968400D+01 0.4517100D+01 0.1998200D+01
EXPONENTS  0.2814500D+00 0.8676500D+04 0.2055900D+04 0.6662300D+03 0.2531000D+03
EXPONENTS  0.1061200D+03 0.4724200D+02 0.2182500D+02 0.9968400D+01 0.4517100D+01
EXPONENTS  0.1998200D+01 0.2814500D+00 0.8676500D+04 0.2055900D+04 0.6662300D+03
EXPONENTS  0.2531000D+03 0.1061200D+03 0.4724200D+02 0.2182500D+02 0.9968400D+01
EXPONENTS  0.4517100D+01 0.1998200D+01 0.2814500D+00 0.8676500D+04 0.2055900D+04
EXPONENTS  0.6662300D+03 0.2531000D+03 0.1061200D+03 0.4724200D+02 0.2182500D+02
EXPONENTS  0.9968400D+01 0.4517100D+01 0.1998200D+01 0.2814500D+00 0.8676500D+04
EXPONENTS  0.2055900D+04 0.6662300D+03 0.2531000D+03 0.1061200D+03 0.4724200D+02
EXPONENTS  0.2182500D+02 0.9968400D+01 0.4517100D+01 0.1998200D+01 0.2814500D+00
EXPONENTS  0.8676500D+04 0.2055900D+04 0.6662300D+03 0.2531000D+03 0.1061200D+03
EXPONENTS  0.4724200D+02 0.2182500D+02 0.9968400D+01 0.4517100D+01 0.1998200D+01
EXPONENTS  0.2814500D+00 0.7098800D+00 0.7098800D+00 0.7098800D+00 0.1020400D+00
EXPONENTS  0.1020400D+00 0.1020400D+00 0.3514200D-01 0.3514200D-01 0.3514200D-01
EXPONENTS  0.4038300D+03 0.1211700D+03 0.4634500D+02 0.1972100D+02 0.8862400D+01
EXPONENTS  0.3996200D+01 0.1763600D+01 0.4038300D+03 0.1211700D+03 0.4634500D+02
EXPONENTS  0.1972100D+02 0.8862400D+01 0.3996200D+01 0.1763600D+01 0.4038300D+03
EXPONENTS  0.1211700D+03 0.4634500D+02 0.1972100D+02 0.8862400D+01 0.3996200D+01
EXPONENTS  0.1763600D+01 0.4038300D+03 0.1211700D+03 0.4634500D+02 0.1972100D+02
EXPONENTS  0.8862400D+01 0.3996200D+01 0.1763600D+01 0.4038300D+03 0.1211700D+03
EXPONENTS  0.4634500D+02 0.1972100D+02 0.8862400D+01 0.3996200D+01 0.1763600D+01
EXPONENTS  0.4038300D+03 0.1211700D+03 0.4634500D+02 0.1972100D+02 0.8862400D+01
EXPONENTS  0.3996200D+01 0.1763600D+01 0.7061900D+00 0.7061900D+00 0.7061900D+00
EXPONENTS  0.7061900D+00 0.7061900D+00 0.7061900D+00 0.2639000D+00 0.2639000D+00
EXPONENTS  0.2639000D+00 0.2639000D+00 0.2639000D+00 0.2639000D+00 0.1047000D+00
EXPONENTS  0.1047000D+00 0.1047000D+00 0.1047000D+00 0.1047000D+00 0.1047000D+00
EXPONENTS  0.5515000D+00 0.5515000D+00 0.5515000D+00 0.5515000D+00 0.5515000D+00
EXPONENTS  0.5515000D+00 0.5515000D+00 0.5515000D+00 0.5515000D+00 0.5515000D+00
EXPONENTS  0.2580000D+00 0.2580000D+00 0.2580000D+00 0.2580000D+00 0.2580000D+00
EXPONENTS  0.2580000D+00 0.2580000D+00 0.2580000D+00 0.2580000D+00 0.2580000D+00
MO    1     MO 0.0        OCC NO =    2.0000000  ORB. ENERGY = -485.389366
 -0.83209597D-05 -0.15007194D-04 -0.22128098D-04  0.75747681D-04 -0.12292787D-03
 -0.23342717D-05 -0.15187468D-16 -0.42912392D-18  0.36971179D-05  0.32094015D-19
 -0.49092576D-19 -0.89998458D-04  0.22838392D-20 -0.61857349D-20  0.19359292D-04
 -0.27449567D-04 -0.27449567D-04  0.54899133D-04  0.19112878D-21  0.48126641D-20
 -0.14096903D-20 -0.56343932D-05 -0.56343932D-05  0.11268786D-04 -0.30275347D-21
 -0.14731697D-19  0.27398091D-19  0.78327330D+00  0.14734325D+01  0.25505843D+01
  0.41808956D+01  0.65494540D+01  0.98443871D+01  0.14070102D+02  0.18678410D+02
  0.21753545D+02  0.19980421D+02  0.11683338D+02  0.30657664D+01  0.16760425D+00
 -0.59988829D-02  0.16764984D-02 -0.49780896D-03  0.84867809D-04  0.69240459D-05
  0.56618298D-04  0.10402536D-03  0.17988382D-03  0.29458489D-03  0.46381067D-03
  0.70039956D-03  0.10223695D-02  0.14078649D-02  0.17988744D-02  0.19609839D-02
  0.16141917D-02  0.44260039D-03 -0.89275369D-03 -0.87002746D-03 -0.19038652D-03
 -0.64139466D-05 -0.21728402D-06  0.55274251D-09 -0.12851727D-03 -0.25194533D-03
 -0.44127599D-03 -0.72090138D-03 -0.11370351D-02 -0.17157352D-02 -0.25156087D-02
 -0.34732140D-02 -0.45030392D-02 -0.50076446D-02 -0.43494476D-02 -0.12634367D-02
  0.31851087D-02  0.46409278D-02  0.79895231D-03 -0.19491015D-02 -0.92772319D-03
  0.44802586D-05  0.46289742D-04  0.10029869D-03  0.17074262D-03  0.27869794D-03
  0.43933995D-03  0.66309087D-03  0.97219929D-03  0.13439965D-02  0.17443726D-02
  0.19487693D-02  0.17022941D-02  0.50422116D-03 -0.13106854D-02 -0.20162771D-02
 -0.35291007D-03  0.11132353D-02  0.94496841D-03 -0.35255927D-03  0.32038778D-03
  0.15562073D-03  0.17482688D-04  0.80335142D-16  0.11526671D-15  0.15261925D-15
  0.17623199D-15  0.16337516D-15  0.10577206D-15  0.37333652D-16  0.43758259D-17
  0.63616409D-19  0.93159150D-20  0.95782074D-22 -0.40248388D-16 -0.57749310D-16
 -0.76463157D-16 -0.88293282D-16 -0.81851934D-16 -0.52992435D-16 -0.18704383D-16
 -0.21923150D-17 -0.31872203D-19 -0.46673293D-20 -0.47987393D-22 -0.74436986D-03
 -0.10680390D-02 -0.14141404D-02 -0.16329315D-02 -0.15138026D-02 -0.98006339D-03
 -0.34592638D-03 -0.40545555D-04 -0.58945733D-06 -0.86319464D-07 -0.88749814D-09
  0.89395495D-17  0.12904342D-16  0.17239893D-16  0.20481522D-16  0.19848165D-16
  0.13797006D-16  0.44894135D-17 -0.20205923D-17 -0.21829139D-17 -0.56198449D-18
  0.54816398D-21 -0.11287047D-16 -0.16292982D-16 -0.21767034D-16 -0.25859905D-16
 -0.25060230D-16 -0.17420056D-16 -0.56683193D-17  0.25511935D-17  0.27561401D-17
  0.70955984D-18 -0.69211010D-21  0.40974089D-02  0.59146568D-02  0.79018401D-02
  0.93876285D-02  0.90973316D-02  0.63238059D-02  0.20577058D-02 -0.92613090D-03
 -0.10005304D-02 -0.25758348D-03  0.25124890D-06 -0.23495960D-17 -0.34140672D-17
 -0.45390419D-17 -0.54465361D-17 -0.52695478D-17 -0.37407653D-17 -0.11626393D-17
  0.66751413D-18  0.76682555D-18  0.20363726D-18 -0.73472960D-19  0.36555332D-17
  0.53116519D-17  0.70619028D-17  0.84737946D-17  0.81984337D-17  0.58199333D-17
  0.18088499D-17 -0.10385275D-17 -0.11930376D-17 -0.31682161D-18  0.11431023D-18
 -0.30449716D-02 -0.44244787D-02 -0.58823958D-02 -0.70584677D-02 -0.68290988D-02
 -0.48478650D-02 -0.15067286D-02  0.86506852D-03  0.99377170D-03  0.26390481D-03
 -0.95217678D-04  0.22312254D-18 -0.30528322D-18  0.38309807D-04  0.58667396D-20
 -0.76480132D-20  0.50077427D-04 -0.63670237D-21  0.11638743D-20  0.56198803D-06
 -0.30215399D-03 -0.31617160D-03 -0.26939512D-03 -0.17741705D-03 -0.81766238D-04
 -0.24485032D-04 -0.41659207D-05 -0.30215399D-03 -0.31617160D-03 -0.26939512D-03
 -0.17741705D-03 -0.81766238D-04 -0.24485032D-04 -0.41659207D-05  0.60430799D-03
  0.63234319D-03  0.53879025D-03  0.35483411D-03  0.16353248D-03  0.48970065D-04
  0.83318414D-05  0.20169844D-16  0.21105569D-16  0.17983074D-16  0.11843214D-16
  0.54581847D-17  0.16344622D-17  0.27808989D-18 -0.11284109D-16 -0.11807604D-16
 -0.10060710D-16 -0.66257384D-17 -0.30536056D-17 -0.91440713D-18 -0.15557862D-18
 -0.14926827D-18 -0.15619316D-18 -0.13308494D-18 -0.87646491D-19 -0.40393658D-19
 -0.12095946D-19 -0.20580227D-20  0.15727644D-04  0.15727644D-04 -0.31455287D-04
 -0.44924690D-19  0.78629781D-19 -0.17041464D-19  0.89224669D-05  0.89224669D-05
 -0.17844934D-04  0.52312999D-20 -0.24113549D-19  0.29129712D-19 -0.33547514D-05
 -0.33547514D-05  0.67095029D-05 -0.36883004D-21  0.14031656D-21  0.13572343D-20
  0.26993586D-20 -0.37528472D-20 -0.21717662D-04 -0.48140419D-20  0.67917361D-20
  0.32576493D-04 -0.32840340D-20  0.44668054D-20  0.32576493D-04 -0.28036470D-20
  0.13154836D-20 -0.20727177D-20  0.18627848D-05  0.21326161D-20 -0.31605985D-20
 -0.27941773D-05 -0.60790667D-20  0.93787515D-20 -0.27941773D-05  0.52828028D-21
MO    2     MO 0.0        OCC NO =    2.0000000  ORB. ENERGY =  -63.376095
  0.13395339D-03  0.24159045D-03  0.35622498D-03 -0.12447904D-02  0.21901102D-02
  0.41077537D-04 -0.23940012D-15 -0.23876313D-15 -0.48881437D-04 -0.17021401D-17
 -0.81350844D-18  0.14822584D-02  0.63078975D-19  0.79858586D-19 -0.34980425D-03
  0.43348232D-03  0.43348232D-03 -0.86696465D-03 -0.48069773D-20  0.28715609D-17
  0.51477451D-18  0.94530087D-04  0.94530087D-04 -0.18906017D-03 -0.10848302D-19
  0.14816260D-18 -0.32310376D-18  0.65877952D-03  0.12392445D-02  0.21451934D-02
  0.35163824D-02  0.55084811D-02  0.82797161D-02  0.11833794D-01  0.15709656D-01
  0.18296028D-01  0.16804725D-01  0.98263835D-02  0.25784922D-02  0.14096516D-03
 -0.50454180D-05  0.14100351D-05 -0.41868700D-06  0.71378885D-07  0.58235352D-08
 -0.25388379D+00 -0.46646319D+00 -0.80662236D+00 -0.13209569D+01 -0.20797872D+01
 -0.31406825D+01 -0.45844373D+01 -0.63130486D+01 -0.80663860D+01 -0.87933059D+01
 -0.72382447D+01 -0.19846776D+01  0.40032233D+01  0.39013160D+01  0.85371785D+00
  0.28760968D-01  0.97432970D-03 -0.24785691D-05  0.22116888D-02  0.43357959D-02
  0.75940391D-02  0.12406189D-01  0.19567548D-01  0.29526556D-01  0.43291798D-01
  0.59771488D-01  0.77494031D-01  0.86177923D-01  0.74850831D-01  0.21742828D-01
 -0.54813405D-01 -0.79866993D-01 -0.13749388D-01  0.33542621D-01  0.15965442D-01
 -0.77101994D-04 -0.80737276D-03 -0.17493818D-02 -0.29780451D-02 -0.48609715D-02
 -0.76628447D-02 -0.11565446D-01 -0.16956828D-01 -0.23441611D-01 -0.30424860D-01
 -0.33989889D-01 -0.29690938D-01 -0.87944846D-02  0.22860608D-01  0.35167342D-01
  0.61553588D-02 -0.19416739D-01 -0.16481875D-01  0.61492403D-02 -0.60059162D-02
 -0.27982263D-02 -0.30663674D-03  0.23353828D-13  0.33508609D-13  0.44367179D-13
  0.51231522D-13  0.47493977D-13  0.30748467D-13  0.10853080D-13  0.12720745D-14
  0.18493609D-16  0.27081832D-17  0.27844329D-19 -0.17762274D-13 -0.25485719D-13
 -0.33744447D-13 -0.38965275D-13 -0.36122603D-13 -0.23386432D-13 -0.82545515D-14
 -0.96750462D-15 -0.14065726D-16 -0.20597691D-17 -0.21177625D-19  0.58210214D-01
  0.83521351D-01  0.11058671D+00  0.12769632D+00  0.11838036D+00  0.76641604D-01
  0.27051672D-01  0.31706892D-02  0.46095952D-04  0.67502390D-05  0.69402940D-07
 -0.45205181D-15 -0.65254198D-15 -0.87178048D-15 -0.10357020D-14 -0.10036746D-14
 -0.69768187D-15 -0.22701899D-15  0.10217656D-15  0.11038477D-15  0.28418222D-16
 -0.27719352D-19  0.35364371D-15  0.51048875D-15  0.68200077D-15  0.81023784D-15
  0.78518257D-15  0.54580205D-15  0.17759875D-15 -0.79933532D-16 -0.86354883D-16
 -0.22231800D-16  0.21685068D-19 -0.68710645D-01 -0.99184606D-01 -0.13250826D+00
 -0.15742388D+00 -0.15255581D+00 -0.10604575D+00 -0.34506269D-01  0.15530559D-01
  0.16778186D-01  0.43194925D-02 -0.42132661D-05  0.10443886D-15  0.15175430D-15
  0.20175911D-15  0.24209696D-15  0.23422988D-15  0.16627594D-15  0.51678981D-16
 -0.29670811D-16 -0.34085175D-16 -0.90516177D-17  0.32658519D-17 -0.70763154D-16
 -0.10282200D-15 -0.13670304D-15 -0.16403419D-15 -0.15870380D-15 -0.11266122D-15
 -0.35015391D-16  0.20103628D-16  0.23094606D-16  0.61329757D-17 -0.22127967D-17
  0.50874571D-01  0.73923008D-01  0.98281497D-01  0.11793099D+00  0.11409876D+00
  0.80996832D-01  0.25174019D-01 -0.14453334D-01 -0.16603672D-01 -0.44092510D-02
  0.15908715D-02 -0.11947643D-16  0.82039204D-17 -0.65606858D-03 -0.37812071D-18
  0.16755277D-18 -0.88552698D-03  0.16882558D-19 -0.26339882D-19 -0.98760810D-05
  0.30171941D-02  0.31571685D-02  0.26900766D-02  0.17716188D-02  0.81648635D-03
  0.24449816D-03  0.41599289D-04  0.30171941D-02  0.31571685D-02  0.26900766D-02
  0.17716188D-02  0.81648635D-03  0.24449816D-03  0.41599289D-04 -0.60343882D-02
 -0.63143370D-02 -0.53801531D-02 -0.35432376D-02 -0.16329727D-02 -0.48899632D-03
 -0.83198578D-04  0.45590563D-15  0.47705612D-15  0.40647735D-15  0.26769606D-15
  0.12337315D-15  0.36944288D-16  0.62857574D-17 -0.24951680D-14 -0.26109244D-14
 -0.22246474D-14 -0.14650985D-14 -0.67522027D-15 -0.20219580D-15 -0.34401902D-16
  0.24488926D-15  0.25625023D-15  0.21833891D-15  0.14379268D-15  0.66269765D-16
  0.19844588D-16  0.33763885D-17 -0.24713286D-03 -0.24713286D-03  0.49426573D-03
 -0.21084855D-17  0.12800318D-16 -0.88511248D-18 -0.14871578D-03 -0.14871578D-03
  0.29743155D-03  0.25103289D-18 -0.13699152D-17 -0.15760101D-18  0.58876044D-04
  0.58876044D-04 -0.11775209D-03 -0.18791601D-19  0.14401223D-18 -0.31803410D-19
 -0.28458064D-19  0.12381047D-19  0.36075476D-03  0.70561312D-19 -0.52170538D-19
 -0.54113213D-03  0.14812880D-19  0.15027396D-19 -0.54113213D-03  0.77848245D-19
 -0.77869511D-19  0.25937712D-19 -0.32571572D-04 -0.83584958D-19  0.27769605D-19
  0.48857358D-04  0.31719349D-18 -0.10558274D-18  0.48857358D-04  0.91405340D-21
MO    3     MO 0.0        OCC NO =    2.0000000  ORB. ENERGY =  -57.196806
  0.34276431D-04  0.61818955D-04  0.91152013D-04 -0.74526656D-03 -0.28980224D-03
 -0.57096602D-05  0.34698622D-15  0.12775253D-15 -0.16384246D-03 -0.34869078D-16
  0.39669747D-17  0.56157899D-03  0.10353571D-19  0.84328544D-19  0.69423604D-04
 -0.18480209D-04 -0.18480209D-04  0.36960419D-04 -0.34150121D-19 -0.20295403D-17
  0.18280552D-17  0.11839001D-04  0.11839001D-04 -0.23678002D-04  0.11228849D-19
  0.43525368D-18 -0.71819812D-18  0.10071772D-04  0.18946231D-04  0.32796859D-04
  0.53760328D-04  0.84216594D-04  0.12658471D-03  0.18092135D-03  0.24017759D-03
  0.27971943D-03  0.25691959D-03  0.15023099D-03  0.39421363D-04  0.21551505D-05
 -0.77137039D-07  0.21557368D-07 -0.64011100D-08  0.10912784D-08  0.89033310D-10
  0.17414878D-03  0.31996527D-03  0.55329369D-03  0.90609575D-03  0.14266070D-02
  0.21543164D-02  0.31446440D-02  0.43303659D-02  0.55330483D-02  0.60316709D-02
  0.49649939D-02  0.13613676D-02 -0.27459668D-02 -0.26760645D-02 -0.58559831D-03
 -0.19728268D-04 -0.66833068D-06  0.17001471D-08  0.35981110D-04  0.70537389D-04
  0.12354449D-03  0.20183149D-03  0.31833688D-03  0.48035613D-03  0.70429753D-03
  0.97239925D-03  0.12607204D-02  0.14019953D-02  0.12177193D-02  0.35372566D-03
 -0.89173810D-03 -0.12993253D-02 -0.22368349D-03  0.54569194D-03  0.25973560D-03
 -0.12543426D-05 -0.13915007D-04 -0.30150460D-04 -0.51326378D-04 -0.83778470D-04
 -0.13206854D-03 -0.19932957D-03 -0.29224963D-03 -0.40401437D-03 -0.52437012D-03
 -0.58581312D-03 -0.51172102D-03 -0.15157226D-03  0.39400082D-03  0.60610644D-03
  0.10608713D-03 -0.33464600D-03 -0.28406385D-03  0.10598168D-03 -0.23735655D-03
  0.48949936D-03  0.26171556D-04  0.10042793D-12  0.14409630D-12  0.19079116D-12
  0.22030973D-12  0.20423726D-12  0.13222692D-12  0.46671249D-13  0.54702728D-14
  0.79527641D-16  0.11645938D-16  0.11973833D-18 -0.64967641D-14 -0.93217062D-14
 -0.12342435D-13 -0.14252015D-13 -0.13212273D-13 -0.85538667D-14 -0.30192008D-14
 -0.35387637D-15 -0.51447074D-17 -0.75338514D-18 -0.77459692D-20  0.52017153D+02
  0.74635405D+02  0.98821245D+02  0.11411054D+03  0.10578572D+03  0.68487603D+02
  0.24173609D+02  0.28333554D+01  0.41191743D-01  0.60320723D-02  0.62019071D-04
 -0.17404113D-15 -0.25123037D-15 -0.33563777D-15 -0.39874797D-15 -0.38641735D-15
 -0.26860935D-15 -0.87402906D-16  0.39338244D-16  0.42498428D-16  0.10941090D-16
 -0.10672023D-19  0.82895451D-16  0.11966054D-15  0.15986362D-15  0.18992288D-15
  0.18404983D-15  0.12793811D-15  0.41629833D-16 -0.18736729D-16 -0.20241918D-16
 -0.52112198D-17  0.50830638D-20 -0.30826755D-01 -0.44498775D-01 -0.59449299D-01
 -0.70627592D-01 -0.68443550D-01 -0.47576998D-01 -0.15481099D-01  0.69677230D-02
  0.75274655D-02  0.19379229D-02 -0.18902649D-05  0.38223175D-16  0.55539969D-16
  0.73841033D-16  0.88604128D-16  0.85724886D-16  0.60854688D-16  0.18913790D-16
 -0.10859105D-16 -0.12474701D-16 -0.33127665D-17  0.11952565D-17 -0.32889529D-16
 -0.47789944D-16 -0.63537285D-16 -0.76240343D-16 -0.73762869D-16 -0.52363048D-16
 -0.16274567D-16  0.93438298D-17  0.10733986D-16  0.28505044D-17 -0.10284709D-17
  0.24737017D-01  0.35943983D-01  0.47787942D-01  0.57342223D-01  0.55478854D-01
  0.39383527D-01  0.12240499D-01 -0.70277224D-02 -0.80732930D-02 -0.21439339D-02
  0.77353804D-03 -0.38654023D-17  0.11922738D-17 -0.17027860D-02 -0.73417517D-19
 -0.11534426D-18  0.79781062D-04  0.66399002D-20  0.86757123D-20  0.22870459D-05
 -0.26448862D-02 -0.27675884D-02 -0.23581335D-02 -0.15530092D-02 -0.71573569D-03
 -0.21432821D-03 -0.36466128D-04 -0.26448862D-02 -0.27675884D-02 -0.23581335D-02
 -0.15530092D-02 -0.71573569D-03 -0.21432821D-03 -0.36466128D-04  0.52897724D-02
  0.55351769D-02  0.47162669D-02  0.31060183D-02  0.14314714D-02  0.42865642D-03
  0.72932256D-04 -0.17110368D-15 -0.17904157D-15 -0.15255300D-15 -0.10046768D-15
 -0.46302563D-16 -0.13865378D-16 -0.23590764D-17  0.41071192D-14  0.42976577D-14
  0.36618344D-14  0.24115948D-14  0.11114322D-14  0.33282018D-15  0.56626532D-16
 -0.30999445D-14 -0.32437579D-14 -0.27638554D-14 -0.18202077D-14 -0.83887954D-15
 -0.25120383D-15 -0.42740203D-16  0.45728391D-04  0.45728391D-04 -0.91456783D-04
  0.10757106D-17 -0.19075522D-16  0.15081330D-16 -0.10323449D-03 -0.10323449D-03
  0.20646898D-03 -0.10974509D-18  0.25137868D-17 -0.25343488D-17 -0.31858942D-05
 -0.31858942D-05  0.63717884D-05  0.79274907D-20 -0.15054269D-18  0.10403491D-18
  0.36634778D-18 -0.29417878D-18  0.35360623D-04 -0.28810177D-18  0.34751647D-18
 -0.53040935D-04 -0.81094158D-18  0.53501986D-18 -0.53040935D-04  0.17211674D-18
 -0.10961658D-18  0.10769614D-18  0.33485471D-04 -0.41568569D-19  0.41986248D-19
 -0.50228207D-04  0.37041830D-18 -0.36507468D-18 -0.50228207D-04 -0.24796940D-19
MO    4     MO 0.0        OCC NO =    2.0000000  ORB. ENERGY =  -57.194620
  0.94676605D-16  0.17075316D-15  0.25177543D-15 -0.49837540D-15 -0.44697807D-15
 -0.84802713D-17  0.93886097D-04 -0.28798173D-04 -0.24498518D-15 -0.11052782D-03
  0.33902777D-04  0.39413608D-15 -0.12179270D-04  0.37358112D-05  0.98438637D-16
  0.25563248D-16 -0.15348455D-15  0.12792131D-15  0.17356674D-15 -0.22180463D-04
  0.68035294D-05  0.16822405D-16  0.17864153D-16 -0.34686557D-16 -0.21441912D-17
  0.58754749D-04 -0.18022151D-04 -0.20020566D-16 -0.37661124D-16 -0.65193262D-16
 -0.10686423D-15 -0.16740489D-15 -0.25162380D-15 -0.35963362D-15 -0.47742257D-15
 -0.55602342D-15 -0.51070214D-15 -0.29862763D-15 -0.78361383D-16 -0.42839862D-17
  0.15333222D-18 -0.42851516D-19  0.12724061D-19 -0.21692321D-20 -0.17697951D-21
  0.16590614D-15  0.30482098D-15  0.52710572D-15  0.86320929D-15  0.13590842D-14
  0.20523504D-14  0.29958048D-14  0.41254051D-14  0.52711633D-14  0.57461857D-14
  0.47299956D-14  0.12969327D-14 -0.26159973D-14 -0.25494036D-14 -0.55788133D-15
 -0.18794509D-16 -0.63669790D-18  0.16196773D-20 -0.33237733D-16 -0.65159270D-16
 -0.11412485D-15 -0.18644286D-15 -0.29406530D-15 -0.44373141D-15 -0.65059841D-15
 -0.89825873D-15 -0.11645969D-14 -0.12951003D-14 -0.11248743D-14 -0.32675587D-15
  0.82374758D-15  0.12002583D-14  0.20662875D-15 -0.50408569D-15 -0.23993208D-15
  0.11587053D-17  0.17547129D-16  0.38020390D-16  0.64723685D-16  0.10564648D-15
  0.16654132D-15  0.25135895D-15  0.36853318D-15  0.50947096D-15  0.66124219D-15
  0.73872316D-15  0.64529140D-15  0.19113594D-15 -0.49684365D-15 -0.76431348D-15
 -0.13377820D-15  0.42199593D-15  0.35821072D-15 -0.13364522D-15  0.32273798D-16
  0.57690343D-15  0.56431766D-16  0.49725144D+02  0.71346778D+02  0.94466927D+02
  0.10908254D+03  0.10112453D+03  0.65469863D+02  0.23108457D+02  0.27085105D+01
  0.39376729D-01  0.57662837D-02  0.59286351D-04 -0.15252453D+02 -0.21884570D+02
 -0.28976334D+02 -0.33459456D+02 -0.31018455D+02 -0.20081913D+02 -0.70881779D+01
 -0.83079557D+00 -0.12078230D-01 -0.17687223D-02 -0.18185212D-04 -0.96976066D-13
 -0.13914349D-12 -0.18423337D-12 -0.21273735D-12 -0.19721731D-12 -0.12768208D-12
 -0.45067085D-13 -0.52822510D-14 -0.76794153D-16 -0.11245649D-16 -0.11562273D-18
 -0.80060528D-02 -0.11556829D-01 -0.15439647D-01 -0.18342775D-01 -0.17775555D-01
 -0.12356278D-01 -0.40206144D-02  0.18095955D-02  0.19549669D-02  0.50330025D-03
 -0.49092292D-06  0.24557384D-02  0.35448866D-02  0.47358838D-02  0.56263752D-02
  0.54523889D-02  0.37901058D-02  0.12332641D-02 -0.55506670D-03 -0.59965722D-03
 -0.15437992D-03  0.15058335D-06 -0.11695423D-13 -0.16882477D-13 -0.22554586D-13
 -0.26795540D-13 -0.25966932D-13 -0.18050330D-13 -0.58734043D-14  0.26434980D-14
  0.28558598D-14  0.73523236D-15 -0.71715128D-18  0.89708139D-02  0.13034991D-01
  0.17330171D-01  0.20795006D-01  0.20119260D-01  0.14282332D-01  0.44389847D-02
 -0.25485850D-02 -0.29277584D-02 -0.77749197D-03  0.28052153D-03 -0.27516646D-02
 -0.39982908D-02 -0.53157740D-02 -0.63785608D-02 -0.61712858D-02 -0.43808943D-02
 -0.13615930D-02  0.78174079D-03  0.89804663D-03  0.23848418D-03 -0.86045834D-04
  0.74615216D-14  0.10841922D-13  0.14414461D-13  0.17296355D-13  0.16734300D-13
  0.11879405D-13  0.36921488D-14 -0.21197990D-14 -0.24351784D-14 -0.64668303D-15
  0.23332525D-15 -0.12662522D-02  0.38840415D-03  0.17185757D-16 -0.26733553D-04
  0.82001224D-05  0.17302027D-15  0.31434166D-05 -0.96419661D-06 -0.67833018D-19
 -0.19835351D-14 -0.20755558D-14 -0.17684846D-14 -0.11646808D-14 -0.53676671D-15
 -0.16073566D-15 -0.27347810D-16 -0.54381528D-14 -0.56904409D-14 -0.48485602D-14
 -0.31931435D-14 -0.14716248D-14 -0.44068041D-15 -0.74978037D-16  0.74216879D-14
  0.77659967D-14  0.66170448D-14  0.43578243D-14  0.20083915D-14  0.60141607D-15
  0.10232585D-15 -0.42754997D-14 -0.44738497D-14 -0.38119594D-14 -0.25104635D-14
 -0.11569979D-14 -0.34646488D-15 -0.58948063D-16  0.79577545D-02  0.83269327D-02
  0.70949923D-02  0.46725888D-02  0.21534571D-02  0.64485621D-03  0.10971682D-03
 -0.24409236D-02 -0.25541636D-02 -0.21762841D-02 -0.14332476D-02 -0.66054115D-03
 -0.19780012D-03 -0.33654013D-04  0.11638842D-15  0.13340131D-15 -0.24978973D-15
  0.22772706D-16 -0.87532736D-04  0.26849374D-04 -0.67355310D-16 -0.69407684D-16
  0.13676299D-15 -0.30128340D-17  0.70617443D-04 -0.21660857D-04 -0.63455237D-17
 -0.62572197D-17  0.12602743D-16  0.74410135D-18  0.21154999D-05 -0.64889835D-06
 -0.10072113D-05  0.30894719D-06 -0.61367744D-17 -0.10072528D-05  0.30895991D-06
  0.78395559D-17  0.40288867D-05 -0.12358015D-05  0.10570767D-16 -0.25589287D-16
 -0.54457644D-05  0.16704078D-05  0.21645179D-16 -0.54457579D-05  0.16704058D-05
 -0.32218901D-16  0.21783051D-04 -0.66816291D-05 -0.32716635D-16  0.45154831D-17
MO    5     MO 0.0        OCC NO =    2.0000000  ORB. ENERGY =  -57.194620
  0.48110400D-16  0.86769088D-16  0.12794097D-15 -0.16837821D-14 -0.10521906D-14
 -0.11156026D-15  0.28798173D-04  0.93886097D-04  0.29578528D-15 -0.33902777D-04
 -0.11052782D-03 -0.54231505D-15 -0.37358112D-05 -0.12179270D-04 -0.14394429D-15
 -0.24532917D-15  0.36370984D-15 -0.11838066D-15 -0.35205651D-16 -0.68035294D-05
 -0.22180463D-04 -0.32789546D-15 -0.35432079D-15  0.68221625D-15  0.59286842D-16
  0.18022151D-04  0.58754749D-04 -0.93152699D-16 -0.17523157D-15 -0.30333449D-15
 -0.49722327D-15 -0.77890988D-15 -0.11707679D-14 -0.16733214D-14 -0.22213758D-14
 -0.25870938D-14 -0.23762206D-14 -0.13894696D-14 -0.36460379D-15 -0.19932747D-16
  0.71343187D-18 -0.19938169D-18  0.59203152D-19 -0.10093112D-19 -0.82345915D-21
  0.17990703D-15  0.33054495D-15  0.57158840D-15  0.93605590D-15  0.14737779D-14
  0.22255491D-14  0.32486220D-14  0.44735499D-14  0.57159991D-14  0.62311088D-14
  0.51291620D-14  0.14063814D-14 -0.28367625D-14 -0.27645489D-14 -0.60496118D-15
 -0.20380585D-16 -0.69042911D-18  0.17563626D-20 -0.34167617D-15 -0.66982216D-15
 -0.11731769D-14 -0.19165893D-14 -0.30229230D-14 -0.45614558D-14 -0.66880005D-14
 -0.92338910D-14 -0.11971785D-13 -0.13313330D-13 -0.11563447D-13 -0.33589745D-14
  0.84679338D-14  0.12338376D-13  0.21240956D-14 -0.51818838D-14 -0.24664460D-14
  0.11911221D-16  0.18830031D-15  0.40800129D-15  0.69455750D-15  0.11337049D-14
  0.17871745D-14  0.26973625D-14  0.39547730D-14  0.54671929D-14  0.70958679D-14
  0.79273253D-14  0.69246982D-14  0.20511023D-14 -0.53316878D-14 -0.82019381D-14
 -0.14355896D-14  0.45284881D-14  0.38440015D-14 -0.14341626D-14 -0.92065188D-15
  0.67625134D-15  0.59083030D-15  0.15252453D+02  0.21884570D+02  0.28976334D+02
  0.33459456D+02  0.31018455D+02  0.20081913D+02  0.70881779D+01  0.83079557D+00
  0.12078230D-01  0.17687223D-02  0.18185212D-04  0.49725144D+02  0.71346778D+02
  0.94466927D+02  0.10908254D+03  0.10112453D+03  0.65469863D+02  0.23108457D+02
  0.27085105D+01  0.39376729D-01  0.57662837D-02  0.59286351D-04 -0.37945378D-13
 -0.54444900D-13 -0.72087942D-13 -0.83241148D-13 -0.77168374D-13 -0.49960212D-13
 -0.17634120D-13 -0.20668709D-14 -0.30048478D-16 -0.44002651D-17 -0.45241559D-19
 -0.24557384D-02 -0.35448866D-02 -0.47358838D-02 -0.56263752D-02 -0.54523889D-02
 -0.37901058D-02 -0.12332641D-02  0.55506670D-03  0.59965722D-03  0.15437992D-03
 -0.15058335D-06 -0.80060528D-02 -0.11556829D-01 -0.15439647D-01 -0.18342775D-01
 -0.17775555D-01 -0.12356278D-01 -0.40206144D-02  0.18095955D-02  0.19549669D-02
  0.50330025D-03 -0.49092292D-06  0.49081739D-13  0.70850054D-13  0.94653978D-13
  0.11245183D-12  0.10897444D-12  0.75751139D-13  0.24648694D-13 -0.11093868D-13
 -0.11985079D-13 -0.30855219D-14  0.30096417D-17  0.27516646D-02  0.39982908D-02
  0.53157740D-02  0.63785608D-02  0.61712858D-02  0.43808943D-02  0.13615930D-02
 -0.78174079D-03 -0.89804663D-03 -0.23848418D-03  0.86045834D-04  0.89708139D-02
  0.13034991D-01  0.17330171D-01  0.20795006D-01  0.20119260D-01  0.14282332D-01
  0.44389847D-02 -0.25485850D-02 -0.29277584D-02 -0.77749197D-03  0.28052153D-03
 -0.32618603D-13 -0.47396277D-13 -0.63013900D-13 -0.75612318D-13 -0.73155253D-13
 -0.51931711D-13 -0.16140506D-13  0.92668606D-14  0.10645566D-13  0.28270235D-14
 -0.10199989D-14 -0.38840415D-03 -0.12662522D-02  0.47976476D-15 -0.82001224D-05
 -0.26733553D-04  0.94942485D-15  0.96419661D-06  0.31434166D-05  0.16000385D-16