 Molden2AIM, Version 4.0.0 (06/02/2016)           Time: Fri Jun 29 22:39:02 2018
GAUSSIAN             10 MOL ORBITALS    208 PRIMITIVES        2 NUCLEI
  Li   1    (CENTRE  1)   0.00000000  0.00000000  3.38620969  CHARGE =  3.0
  Cl   2    (CENTRE  2)   0.00000000  0.00000000 -0.43086701  CHARGE = 17.0
CENTRE ASSIGNMENTS    1  1  1  1  1  1  1  1  1  1  1  1  1  1  1  1  1  1  1  1
CENTRE ASSIGNMENTS    1  1  1  1  1  1  1  1  1  1  1  1  1  1  1  1  1  1  1  1
CENTRE ASSIGNMENTS    1  1  1  1  1  1  1  1  1  1  1  1  1  1  1  1  1  1  1  1
CENTRE ASSIGNMENTS    1  1  1  1  1  1  1  1  1  1  1  1  1  1  1  1  1  2  2  2
CENTRE ASSIGNMENTS    2  2  2  2  2  2  2  2  2  2  2  2  2  2  2  2  2  2  2  2
CENTRE ASSIGNMENTS    2  2  2  2  2  2  2  2  2  2  2  2  2  2  2  2  2  2  2  2
CENTRE ASSIGNMENTS    2  2  2  2  2  2  2  2  2  2  2  2  2  2  2  2  2  2  2  2
CENTRE ASSIGNMENTS    2  2  2  2  2  2  2  2  2  2  2  2  2  2  2  2  2  2  2  2
CENTRE ASSIGNMENTS    2  2  2  2  2  2  2  2  2  2  2  2  2  2  2  2  2  2  2  2
CENTRE ASSIGNMENTS    2  2  2  2  2  2  2  2  2  2  2  2  2  2  2  2  2  2  2  2
CENTRE ASSIGNMENTS    2  2  2  2  2  2  2  2
TYPE ASSIGNMENTS      1  1  1  1  1  1  1  1  1  1  1  1  1  1  1  1  1  1  1  1
TYPE ASSIGNMENTS      1  2  2  2  3  3  3  4  4  4  2  3  4  2  3  4  2  3  4  5
TYPE ASSIGNMENTS      6  7  8  9 10  5  6  7  8  9 10  5  6  7  8  9 10 11 12 13
TYPE ASSIGNMENTS     17 14 15 18 19 16 20 11 12 13 17 14 15 18 19 16 20  1  1  1
TYPE ASSIGNMENTS      1  1  1  1  1  1  1  1  1  1  1  1  1  1  1  1  1  1  1  1
TYPE ASSIGNMENTS      1  1  1  1  1  1  1  1  1  1  1  1  1  1  1  1  1  1  1  2
TYPE ASSIGNMENTS      2  2  2  2  2  2  3  3  3  3  3  3  3  4  4  4  4  4  4  4
TYPE ASSIGNMENTS      2  2  2  2  2  2  2  3  3  3  3  3  3  3  4  4  4  4  4  4
TYPE ASSIGNMENTS      4  2  3  4  2  3  4  2  3  4  5  6  7  8  9 10  5  6  7  8
TYPE ASSIGNMENTS      9 10  5  6  7  8  9 10 11 12 13 17 14 15 18 19 16 20 11 12
TYPE ASSIGNMENTS     13 17 14 15 18 19 16 20
EXPONENTS  0.5988000D+04 0.8989000D+03 0.2059000D+03 0.5924000D+02 0.1987000D+02
EXPONENTS  0.7406000D+01 0.2930000D+01 0.1189000D+01 0.4798000D+00 0.5988000D+04
EXPONENTS  0.8989000D+03 0.2059000D+03 0.5924000D+02 0.1987000D+02 0.7406000D+01
EXPONENTS  0.2930000D+01 0.1189000D+01 0.4798000D+00 0.7509000D-01 0.2832000D-01
EXPONENTS  0.7600000D-02 0.3266000D+01 0.6511000D+00 0.1696000D+00 0.3266000D+01
EXPONENTS  0.6511000D+00 0.1696000D+00 0.3266000D+01 0.6511000D+00 0.1696000D+00
EXPONENTS  0.5578000D-01 0.5578000D-01 0.5578000D-01 0.2050000D-01 0.2050000D-01
EXPONENTS  0.2050000D-01 0.9100000D-02 0.9100000D-02 0.9100000D-02 0.1874000D+00
EXPONENTS  0.1874000D+00 0.1874000D+00 0.1874000D+00 0.1874000D+00 0.1874000D+00
EXPONENTS  0.8010000D-01 0.8010000D-01 0.8010000D-01 0.8010000D-01 0.8010000D-01
EXPONENTS  0.8010000D-01 0.3710000D-01 0.3710000D-01 0.3710000D-01 0.3710000D-01
EXPONENTS  0.3710000D-01 0.3710000D-01 0.1829000D+00 0.1829000D+00 0.1829000D+00
EXPONENTS  0.1829000D+00 0.1829000D+00 0.1829000D+00 0.1829000D+00 0.1829000D+00
EXPONENTS  0.1829000D+00 0.1829000D+00 0.8160000D-01 0.8160000D-01 0.8160000D-01
EXPONENTS  0.8160000D-01 0.8160000D-01 0.8160000D-01 0.8160000D-01 0.8160000D-01
EXPONENTS  0.8160000D-01 0.8160000D-01 0.4561000D+06 0.6833000D+05 0.1555000D+05
EXPONENTS  0.4405000D+04 0.1439000D+04 0.5204000D+03 0.2031000D+03 0.8396000D+02
EXPONENTS  0.3620000D+02 0.1583000D+02 0.6334000D+01 0.2694000D+01 0.4313000D+00
EXPONENTS  0.4561000D+06 0.6833000D+05 0.1555000D+05 0.4405000D+04 0.1439000D+04
EXPONENTS  0.5204000D+03 0.2031000D+03 0.8396000D+02 0.3620000D+02 0.1583000D+02
EXPONENTS  0.6334000D+01 0.2694000D+01 0.4313000D+00 0.4561000D+06 0.6833000D+05
EXPONENTS  0.1555000D+05 0.4405000D+04 0.1439000D+04 0.5204000D+03 0.2031000D+03
EXPONENTS  0.8396000D+02 0.3620000D+02 0.1583000D+02 0.6334000D+01 0.2694000D+01
EXPONENTS  0.4313000D+00 0.9768000D+00 0.1625000D+00 0.5910000D-01 0.6633000D+03
EXPONENTS  0.1568000D+03 0.4998000D+02 0.1842000D+02 0.7240000D+01 0.2922000D+01
EXPONENTS  0.3818000D+00 0.6633000D+03 0.1568000D+03 0.4998000D+02 0.1842000D+02
EXPONENTS  0.7240000D+01 0.2922000D+01 0.3818000D+00 0.6633000D+03 0.1568000D+03
EXPONENTS  0.4998000D+02 0.1842000D+02 0.7240000D+01 0.2922000D+01 0.3818000D+00
EXPONENTS  0.6633000D+03 0.1568000D+03 0.4998000D+02 0.1842000D+02 0.7240000D+01
EXPONENTS  0.2922000D+01 0.3818000D+00 0.6633000D+03 0.1568000D+03 0.4998000D+02
EXPONENTS  0.1842000D+02 0.7240000D+01 0.2922000D+01 0.3818000D+00 0.6633000D+03
EXPONENTS  0.1568000D+03 0.4998000D+02 0.1842000D+02 0.7240000D+01 0.2922000D+01
EXPONENTS  0.3818000D+00 0.1022000D+01 0.1022000D+01 0.1022000D+01 0.1301000D+00
EXPONENTS  0.1301000D+00 0.1301000D+00 0.4190000D-01 0.4190000D-01 0.4190000D-01
EXPONENTS  0.1046000D+01 0.1046000D+01 0.1046000D+01 0.1046000D+01 0.1046000D+01
EXPONENTS  0.1046000D+01 0.3440000D+00 0.3440000D+00 0.3440000D+00 0.3440000D+00
EXPONENTS  0.3440000D+00 0.3440000D+00 0.1350000D+00 0.1350000D+00 0.1350000D+00
EXPONENTS  0.1350000D+00 0.1350000D+00 0.1350000D+00 0.7060000D+00 0.7060000D+00
EXPONENTS  0.7060000D+00 0.7060000D+00 0.7060000D+00 0.7060000D+00 0.7060000D+00
EXPONENTS  0.7060000D+00 0.7060000D+00 0.7060000D+00 0.3120000D+00 0.3120000D+00
EXPONENTS  0.3120000D+00 0.3120000D+00 0.3120000D+00 0.3120000D+00 0.3120000D+00
EXPONENTS  0.3120000D+00 0.3120000D+00 0.3120000D+00
MO    1     MO 0.0        OCC NO =    2.0000000  ORB. ENERGY = -102.569845
 -0.13766942D-04 -0.25587738D-04 -0.43575477D-04 -0.67957009D-04 -0.94939810D-04
 -0.11317000D-03 -0.10728479D-03 -0.68136685D-04 -0.16732366D-04  0.99072178D-05
  0.18318103D-04  0.30890660D-04  0.49221473D-04  0.68611028D-04  0.87421611D-04
  0.86818683D-04  0.78312501D-04  0.44824611D-04  0.18267771D-03  0.14692068D-04
 -0.61850363D-06 -0.33166623D-19 -0.24337209D-19 -0.19984812D-19  0.57838208D-20
  0.42440876D-20  0.34850871D-20 -0.12641905D-03 -0.92764545D-04 -0.76174800D-04
 -0.67325859D-21  0.51766361D-20 -0.58318724D-04  0.78272220D-22 -0.39846149D-21
  0.36312298D-05 -0.10366620D-22  0.52865967D-22 -0.49655711D-06  0.82182652D-06
  0.82182652D-06 -0.16436530D-05 -0.47826458D-21  0.15184901D-21  0.97334487D-21
 -0.74864995D-05 -0.74864995D-05  0.14972999D-04  0.33969673D-21  0.54811983D-21
 -0.44565894D-20 -0.11284705D-06 -0.11284705D-06  0.22569411D-06  0.22324982D-22
 -0.12522023D-22  0.32692349D-22 -0.82802060D-23  0.36245815D-21  0.71949686D-05
 -0.80091851D-23  0.49166854D-21 -0.10792453D-04  0.32849803D-22 -0.15790430D-20
 -0.10792453D-04  0.11123999D-20  0.29378672D-22 -0.23474952D-21 -0.19698102D-05
  0.24875392D-22 -0.25533963D-21  0.29547154D-05 -0.11301141D-21  0.95958821D-21
  0.29547154D-05 -0.31616821D-21  0.61711908D+00  0.11546322D+01  0.19949486D+01
  0.32340443D+01  0.49111543D+01  0.68259270D+01  0.81150424D+01  0.72282556D+01
  0.35883225D+01  0.57813625D+00  0.88759314D-02  0.15861202D-02  0.59270838D-04
 -0.82909612D-03 -0.15486325D-02 -0.26877268D-02 -0.43610883D-02 -0.67504468D-02
 -0.96626513D-02 -0.12612778D-01 -0.13441020D-01 -0.10047435D-01 -0.53038626D-03
  0.68152001D-02  0.40490119D-02 -0.15180759D-04  0.30600860D-03  0.57112096D-03
  0.99255795D-03  0.16086445D-02  0.24984767D-02  0.35791400D-02  0.47259208D-02
  0.51101223D-02  0.40064021D-02  0.19935724D-03 -0.34344995D-02 -0.35553437D-02
  0.16088433D-02 -0.25346162D-02 -0.68818899D-03 -0.66878555D-04  0.25114310D-17
  0.33081183D-17  0.36496294D-17  0.30314368D-17  0.16100697D-17  0.41528394D-18
 -0.42689777D-21  0.57926372D-17  0.76302032D-17  0.84179016D-17  0.69920349D-17
  0.37136396D-17  0.95785597D-18 -0.98464338D-21  0.24303089D-02  0.32012623D-02
  0.35317422D-02  0.29335179D-02  0.15580626D-02  0.40186980D-03 -0.41310849D-06
 -0.61958465D-18 -0.81346922D-18 -0.92619455D-18 -0.78426351D-18 -0.44925633D-18
 -0.10219023D-18  0.47830651D-19 -0.11540060D-17 -0.15151253D-17 -0.17250816D-17
 -0.14607283D-17 -0.83676139D-18 -0.19033419D-18  0.89086874D-19 -0.19497929D-02
 -0.25599351D-02 -0.29146745D-02 -0.24680266D-02 -0.14137807D-02 -0.32158605D-03
  0.15051997D-03  0.15768115D-18 -0.57995667D-18 -0.14131855D-03  0.73620422D-20
 -0.33717902D-19 -0.13806692D-03  0.72628593D-22 -0.31022102D-21 -0.43921971D-06
 -0.32991081D-04 -0.32991081D-04  0.65982162D-04 -0.34779533D-18 -0.10201727D-19
 -0.70167343D-19  0.63478519D-05  0.63478519D-05 -0.12695704D-04  0.39259173D-19
  0.33489720D-20  0.16949603D-19  0.75022990D-05  0.75022990D-05 -0.15004598D-04
 -0.41046286D-20  0.10296310D-20 -0.79243142D-20  0.50960354D-20  0.79258439D-21
  0.48368979D-04 -0.12579385D-19 -0.17651078D-19 -0.72553469D-04 -0.27087209D-20
  0.15273325D-19 -0.72553469D-04 -0.31359345D-20 -0.64285183D-21  0.11373146D-21
 -0.18000881D-04  0.74116320D-21  0.22730237D-20  0.27001321D-04  0.11873923D-20
 -0.26142180D-20  0.27001321D-04  0.46570580D-21
MO    2     MO 0.0        OCC NO =    2.0000000  ORB. ENERGY =   -9.708871
  0.57981597D-04  0.10776670D-03  0.18352484D-03  0.28621142D-03  0.39985364D-03
  0.47663289D-03  0.45184642D-03  0.28696815D-03  0.70470937D-04 -0.44535903D-04
 -0.82345342D-04 -0.13886274D-03 -0.22126522D-03 -0.30842707D-03 -0.39298625D-03
 -0.39027591D-03 -0.35203808D-03 -0.20150002D-03 -0.86503236D-03 -0.45096759D-04
  0.23252101D-05  0.12225265D-16  0.89707301D-17  0.73664305D-17 -0.48779288D-16
 -0.35793566D-16 -0.29392347D-16  0.58716442D-03  0.43085311D-03  0.35380058D-03
 -0.14097694D-18 -0.18418733D-18  0.28368558D-03  0.87783202D-20  0.39300987D-19
 -0.21409514D-04 -0.38195746D-21 -0.50112700D-20  0.28945239D-05 -0.13498305D-04
 -0.13498305D-04  0.26996610D-04  0.14676293D-20  0.82101106D-20 -0.23130217D-19
  0.39202093D-04  0.39202093D-04 -0.78404186D-04 -0.88651711D-20  0.12073992D-18
  0.49655871D-19  0.19729109D-06  0.19729109D-06 -0.39458218D-06 -0.47866405D-21
 -0.45022544D-20 -0.30137576D-20 -0.10429416D-19  0.26227523D-20 -0.39482094D-04
 -0.92769498D-20  0.10401625D-19  0.59223141D-04  0.40565198D-19 -0.18269882D-19
  0.59223141D-04 -0.10310750D-19  0.56984011D-20  0.26031362D-20  0.10325200D-04
  0.57172619D-20  0.20602051D-20 -0.15487799D-04 -0.22812465D-19 -0.98696135D-20
 -0.15487799D-04  0.71110399D-20 -0.37938127D-02 -0.70982381D-02 -0.12264183D-01
 -0.19881671D-01 -0.30191903D-01 -0.41963195D-01 -0.49888186D-01 -0.44436558D-01
 -0.22059638D-01 -0.35541611D-02 -0.54565841D-04 -0.97508621D-05 -0.36437451D-06
 -0.16728866D+00 -0.31247120D+00 -0.54230893D+00 -0.87994700D+00 -0.13620535D+01
 -0.19496558D+01 -0.25449098D+01 -0.27120260D+01 -0.20272945D+01 -0.10701728D+00
  0.13751189D+01  0.81697860D+00 -0.30630573D-02 -0.18264933D-02 -0.34088866D-02
 -0.59243449D-02 -0.96016203D-02 -0.14912820D-01 -0.21363044D-01 -0.28207910D-01
 -0.30501118D-01 -0.23913272D-01 -0.11899165D-02  0.20499720D-01  0.21221010D-01
 -0.96028074D-02  0.74503025D-01  0.41182931D-02  0.17389529D-03  0.31766633D-15
  0.41843785D-15  0.46163497D-15  0.38344091D-15  0.20365478D-15  0.52528509D-16
 -0.53997521D-19  0.31402682D-15  0.41364380D-15  0.45634602D-15  0.37904782D-15
  0.20132151D-15  0.51926689D-16 -0.53378871D-19  0.48244080D-02  0.63548280D-02
  0.70108640D-02  0.58233285D-02  0.30929112D-02  0.79775202D-03 -0.82006196D-06
  0.34105811D-16  0.44778430D-16  0.50983537D-16  0.43170765D-16  0.24729876D-16
  0.56251889D-17 -0.26328980D-17  0.50981066D-16  0.66934402D-16  0.76209741D-16
  0.64531278D-16  0.36966001D-16  0.84084827D-17 -0.39356327D-17  0.98996312D-02
  0.12997490D-01  0.14798599D-01  0.12530846D-01  0.71781508D-02  0.16327803D-02
 -0.76423103D-03  0.13539426D-16  0.65548779D-17  0.94541567D-03  0.76406272D-18
  0.31067505D-18  0.66829432D-03 -0.29709213D-20 -0.25828604D-19 -0.44821976D-05
  0.91607519D-04  0.91607519D-04 -0.18321504D-03  0.12072881D-16  0.32881058D-17
 -0.37182591D-17 -0.19663703D-04 -0.19663703D-04  0.39327405D-04 -0.82814992D-18
 -0.50439465D-18 -0.86317475D-19 -0.36566043D-04 -0.36566043D-04  0.73132086D-04
  0.10199440D-18  0.19295434D-18 -0.16738473D-19  0.51160791D-20  0.16317364D-18
 -0.20774888D-03 -0.34636029D-18 -0.17400006D-18  0.31162332D-03  0.33101205D-18
 -0.31552087D-18  0.31162332D-03 -0.52256631D-18  0.76635401D-20 -0.27538644D-20
  0.82828045D-04  0.27702800D-19  0.43447567D-19 -0.12424207D-03 -0.50693420D-19
 -0.35185973D-19 -0.12424207D-03  0.10949202D-18
MO    3     MO 0.0        OCC NO =    2.0000000  ORB. ENERGY =   -7.427799
  0.23070039D-04  0.42878813D-04  0.73021881D-04  0.11387939D-03  0.15909599D-03
  0.18964534D-03  0.17978316D-03  0.11418048D-03  0.28039367D-04 -0.22888494D-04
 -0.42320032D-04 -0.71366218D-04 -0.11371561D-03 -0.15851101D-03 -0.20196881D-03
 -0.20057587D-03 -0.18092417D-03 -0.10355761D-03 -0.18734724D-03 -0.81755127D-04
  0.26466460D-05  0.10078684D-16  0.73955989D-17  0.60729912D-17  0.97277105D-16
  0.71380591D-16  0.58615091D-16 -0.10405691D-03 -0.76355519D-04 -0.62700317D-04
 -0.12737524D-17  0.48332029D-18  0.56220214D-04  0.70495605D-20 -0.97889873D-19
  0.45778405D-05 -0.21915072D-20  0.12556921D-19 -0.43882122D-06 -0.41512984D-04
 -0.41512984D-04  0.83025968D-04  0.20656510D-19 -0.18698621D-18  0.49298730D-18
  0.11288144D-05  0.11288144D-05 -0.22576288D-05  0.53559392D-20  0.45138873D-19
  0.81984149D-19  0.77999783D-06  0.77999783D-06 -0.15599957D-05 -0.25203372D-21
  0.64822332D-20  0.29155513D-20 -0.17726404D-19  0.11954729D-19 -0.16218578D-04
 -0.17964396D-19  0.13204897D-19  0.24327867D-04  0.71143606D-19 -0.49069083D-19
  0.24327867D-04 -0.26217273D-19  0.38581164D-20  0.18777502D-20 -0.52439798D-06
  0.37675883D-20  0.17281548D-20  0.78659696D-06 -0.15341938D-19 -0.73614055D-20
  0.78659696D-06 -0.19423548D-20  0.16844950D-04  0.31516967D-04  0.54454336D-04
  0.88276830D-04  0.13405541D-03  0.18632125D-03  0.22150909D-03  0.19730326D-03
  0.97947247D-04  0.15780871D-04  0.24227840D-06  0.43294912D-07  0.16178633D-08
  0.20609811D-03  0.38496168D-03  0.66811967D-03  0.10840867D-02  0.16780375D-02
  0.24019582D-02  0.31353057D-02  0.33411914D-02  0.24976084D-02  0.13184431D-03
 -0.16941340D-02 -0.10065102D-02  0.37736587D-05  0.38936467D-04  0.72669305D-04
  0.12629286D-03  0.20468357D-03  0.31790563D-03  0.45540898D-03  0.60132513D-03
  0.65021084D-03  0.50977373D-03  0.25366172D-04 -0.43700497D-03 -0.45238116D-03
  0.20470887D-03 -0.43853947D-04 -0.48162105D-03  0.43877586D-03  0.31411941D-14
  0.41376576D-14  0.45648056D-14  0.37915958D-14  0.20138086D-14  0.51941999D-15
 -0.53394609D-18 -0.63939491D-14 -0.84222660D-14 -0.92917324D-14 -0.77178518D-14
 -0.40991386D-14 -0.10572874D-14  0.10868555D-17  0.11514256D+02  0.15166859D+02
  0.16732598D+02  0.13898346D+02  0.73817494D+01  0.19039685D+01 -0.19572149D-02
  0.12932630D-16  0.16979595D-16  0.19332518D-16  0.16369982D-16  0.93773560D-17
  0.21330232D-17 -0.99837223D-18 -0.22024647D-16 -0.28916747D-16 -0.32923843D-16
 -0.27878558D-16 -0.15969912D-16 -0.36326008D-17  0.17002571D-17  0.16202095D-01
  0.21272162D-01  0.24219922D-01  0.20508435D-01  0.11748021D-01  0.26722672D-02
 -0.12507681D-02  0.28982018D-16 -0.56800396D-16  0.88658570D-01  0.27060616D-18
  0.21005545D-18  0.38519859D-03  0.43883842D-19  0.84378109D-19  0.11601113D-04
 -0.28830931D-03 -0.28830931D-03  0.57661861D-03 -0.14274078D-17  0.16210492D-16
  0.18869221D-16  0.84936005D-04  0.84936005D-04 -0.16987201D-03  0.11470331D-18
 -0.15102713D-17 -0.56513349D-18 -0.21192062D-04 -0.21192062D-04  0.42384124D-04
 -0.33276994D-19  0.13011308D-18  0.52570229D-18  0.14482581D-18  0.22871792D-18
  0.14194208D-04 -0.29321168D-18  0.17594437D-19 -0.21291312D-04 -0.14126574D-18
 -0.70374819D-18 -0.21291312D-04  0.41722983D-17  0.24797478D-21 -0.13323173D-18
  0.59428448D-06  0.38856139D-19 -0.10452581D-18 -0.89142671D-06 -0.39600063D-19
  0.50422100D-18 -0.89142671D-06 -0.42351626D-18
MO    4     MO 0.0        OCC NO =    2.0000000  ORB. ENERGY =   -7.427461
 -0.42929630D-16 -0.79790569D-16 -0.13588197D-15 -0.21191121D-15 -0.29605202D-15
 -0.35289945D-15 -0.33454752D-15 -0.21247149D-15 -0.52176749D-16  0.17821783D-16
  0.32951860D-16  0.55568239D-16  0.88542963D-16  0.12342223D-15  0.15725999D-15
  0.15617541D-15  0.14087390D-15  0.80633587D-16 -0.28183078D-15 -0.10499792D-15
  0.59061865D-17 -0.19175507D-04 -0.14070721D-04 -0.11554354D-04 -0.12290573D-04
 -0.90186519D-05 -0.74057820D-05  0.90046825D-16  0.66075112D-16  0.54258429D-16
 -0.44914405D-04 -0.28787962D-04  0.91406862D-16  0.49622143D-05  0.31805394D-05
  0.23761401D-17 -0.54676822D-06 -0.35045199D-06 -0.38391662D-19 -0.23566186D-16
  0.29758462D-16 -0.61922757D-17 -0.29563379D-16 -0.38547889D-04 -0.24707333D-04
  0.15860383D-16 -0.47119548D-17 -0.11148428D-16  0.65955847D-17  0.43568575D-04
  0.27925350D-04  0.97118502D-18  0.71154378D-18 -0.16827288D-17  0.63631174D-19
 -0.13416659D-05 -0.85994299D-06 -0.55685692D-05 -0.35691836D-05  0.40202313D-17
 -0.55673765D-05 -0.35684191D-05  0.25053790D-16  0.22273084D-04  0.14275970D-04
 -0.37114484D-16  0.87174770D-17  0.22146562D-05  0.14194875D-05 -0.57851778D-19
  0.22148031D-05  0.14195817D-05 -0.10498103D-16 -0.88587716D-05 -0.56780442D-05
  0.10671658D-16 -0.15978921D-17  0.21204028D-16  0.39672818D-16  0.68545840D-16
  0.11112080D-15  0.16874580D-15  0.23453682D-15  0.27883045D-15  0.24836071D-15
  0.12329370D-15  0.19864590D-16  0.30497436D-18  0.54498619D-19  0.20365284D-20
 -0.31920712D-16 -0.59623306D-16 -0.10347914D-15 -0.16790459D-15 -0.25989636D-15
 -0.37201803D-15 -0.48559974D-15 -0.51748755D-15 -0.38683245D-15 -0.20420198D-16
  0.26238941D-15  0.15588945D-15 -0.58446858D-18  0.47977623D-16  0.89543321D-16
  0.15561841D-15  0.25221166D-15  0.39172420D-15  0.56115622D-15  0.74095450D-15
  0.80119161D-15  0.62814461D-15  0.31256268D-16 -0.53847874D-15 -0.55742532D-15
  0.25224285D-15  0.14274004D-15 -0.20293419D-15  0.45906400D-15  0.96980019D+01
  0.12774445D+02  0.14093206D+02  0.11706027D+02  0.62173554D+01  0.16036373D+01
 -0.16484846D-02  0.62159503D+01  0.81878016D+01  0.90330633D+01  0.75029974D+01
  0.39850242D+01  0.10278540D+01 -0.10565989D-02 -0.19676746D-14 -0.25918691D-14
 -0.28594388D-14 -0.23750926D-14 -0.12614694D-14 -0.32536975D-15  0.33446904D-18
  0.10715842D-01  0.14069116D-01  0.16018723D-01  0.13563997D-01  0.77699796D-02
  0.17674008D-02 -0.82724084D-03  0.68683368D-02  0.90176228D-02  0.10267227D-01
  0.86938661D-02  0.49801812D-02  0.11328184D-02 -0.53022138D-03  0.22490703D-14
  0.29528644D-14  0.33620533D-14  0.28468487D-14  0.16307845D-14  0.37094690D-15
 -0.17362357D-15  0.74257803D-01  0.47595661D-01  0.83763949D-16  0.36770204D-03
  0.23567923D-03  0.18362058D-15 -0.67210015D-05 -0.43078370D-05  0.19386426D-16
 -0.35520289D-15  0.18616488D-15  0.16903801D-15 -0.27057871D-16  0.63210772D-03
  0.40515049D-03 -0.30368784D-16 -0.30135189D-16  0.60503972D-16  0.18808790D-19
 -0.17197204D-03 -0.11022576D-03 -0.55693949D-16  0.50316842D-16  0.53771072D-17
 -0.54483211D-17  0.57410698D-04  0.36797481D-04 -0.17356208D-04 -0.11124490D-04
 -0.65663271D-16 -0.16691203D-04 -0.10698254D-04  0.18975528D-16  0.68759826D-04
  0.44071724D-04  0.17801429D-15 -0.33338685D-16  0.44644331D-05  0.28614857D-05
  0.16448513D-16  0.44040206D-05  0.28227643D-05  0.82077906D-16 -0.17797320D-04
 -0.11407222D-04 -0.13142344D-15  0.52554281D-16
MO    5     MO 0.0        OCC NO =    2.0000000  ORB. ENERGY =   -7.427461
 -0.11897682D-16 -0.22113464D-16 -0.37658849D-16 -0.58729884D-16 -0.82048991D-16
 -0.97803905D-16 -0.92717783D-16 -0.58885164D-16 -0.14460464D-16  0.37400051D-16
  0.69151398D-16  0.11661319D-15  0.18581257D-15  0.25900873D-15  0.33001926D-15
  0.32774319D-15  0.29563209D-15  0.16921428D-15 -0.20277151D-15  0.33998839D-15
 -0.72600392D-17  0.12290573D-04  0.90186519D-05  0.74057820D-05 -0.19175507D-04
 -0.14070721D-04 -0.11554354D-04  0.41902516D-15  0.30747485D-15  0.25248693D-15
  0.28787962D-04 -0.44914405D-04 -0.60981809D-16 -0.31805394D-05  0.49622143D-05
 -0.50580841D-16  0.35045199D-06 -0.54676822D-06  0.31099870D-17 -0.13212452D-15
 -0.12722662D-15  0.25935114D-15 -0.12267012D-16  0.24707333D-04 -0.38547889D-04
  0.85879662D-16  0.71541096D-16 -0.15742076D-15  0.56905629D-17 -0.27925350D-04
  0.43568575D-04 -0.17719513D-16 -0.13791487D-16  0.31511000D-16 -0.10270983D-18
  0.85994299D-06 -0.13416659D-05  0.35691836D-05 -0.55685692D-05  0.15424994D-15
  0.35684191D-05 -0.55673765D-05 -0.24579705D-15 -0.14275970D-04  0.22273084D-04
 -0.21695277D-15 -0.31795629D-17 -0.14194875D-05  0.22146562D-05 -0.70752541D-17
 -0.14195817D-05  0.22148031D-05  0.11660537D-16  0.56780442D-05 -0.88587716D-05
  0.95652247D-17 -0.40706851D-18 -0.13920675D-15 -0.26045637D-15 -0.45001090D-15
 -0.72952016D-15 -0.11078346D-14 -0.15397598D-14 -0.18305522D-14 -0.16305151D-14
 -0.80943653D-15 -0.13041319D-15 -0.20021899D-17 -0.35778937D-18 -0.13370031D-19
  0.29294012D-15  0.54717008D-15  0.94964021D-15  0.15408801D-14  0.23850994D-14
  0.34140531D-14  0.44564058D-14  0.47490440D-14  0.35500068D-14  0.18739855D-15
 -0.24079784D-14 -0.14306158D-14  0.53637367D-17 -0.22044942D-15 -0.41143707D-15
 -0.71504142D-15 -0.11588718D-14 -0.17999093D-14 -0.25784221D-14 -0.34045661D-14
 -0.36813458D-14 -0.28862229D-14 -0.14361749D-15  0.24742227D-14  0.25612792D-14
 -0.11590151D-14 -0.24411651D-15  0.24214231D-14 -0.13151701D-14 -0.62159503D+01
 -0.81878016D+01 -0.90330633D+01 -0.75029974D+01 -0.39850242D+01 -0.10278540D+01
  0.10565989D-02  0.96980019D+01  0.12774445D+02  0.14093206D+02  0.11706027D+02
  0.62173554D+01  0.16036373D+01 -0.16484846D-02  0.22466589D-13  0.29593539D-13
  0.32648607D-13  0.27118421D-13  0.14403252D-13  0.37150189D-14 -0.38189131D-17
 -0.68683368D-02 -0.90176228D-02 -0.10267227D-01 -0.86938661D-02 -0.49801812D-02
 -0.11328184D-02  0.53022138D-03  0.10715842D-01  0.14069116D-01  0.16018723D-01
  0.13563997D-01  0.77699796D-02  0.17674008D-02 -0.82724084D-03 -0.16805724D-13
 -0.22064683D-13 -0.25122265D-13 -0.21272502D-13 -0.12185708D-13 -0.27718259D-14
  0.12973671D-14 -0.47595661D-01  0.74257803D-01 -0.46935639D-16 -0.23567923D-03
  0.36770204D-03 -0.40014464D-15  0.43078370D-05 -0.67210015D-05  0.62919369D-16
  0.40461502D-16 -0.10755575D-15  0.67094247D-16 -0.65188179D-16 -0.40515049D-03
  0.63210772D-03 -0.46497432D-17  0.13553445D-15 -0.13088471D-15  0.26833014D-16
  0.11022576D-03 -0.17197204D-03 -0.56580766D-17 -0.18788168D-16  0.24446245D-16
 -0.61094312D-17 -0.36797481D-04  0.57410698D-04  0.11124490D-04 -0.17356208D-04
  0.10711930D-15  0.10698254D-04 -0.16691203D-04  0.45311848D-15 -0.44071724D-04
  0.68759826D-04 -0.77447639D-15  0.24152206D-15 -0.28614857D-05  0.44644331D-05
 -0.11696773D-15 -0.28227643D-05  0.44040206D-05  0.85932010D-16  0.11407222D-04
 -0.17797320D-04  0.26497117D-15 -0.41704515D-16
MO    6     MO 0.0        OCC NO =    2.0000000  ORB. ENERGY =   -2.193225
  0.64842354D-01  0.12051835D+00  0.20524068D+00  0.32007780D+00  0.44716691D+00
  0.53303117D+00  0.50531180D+00  0.32092408D+00  0.78809513D-01 -0.45180862D-03
 -0.83537849D-03 -0.14087372D-02 -0.22446954D-02 -0.31289364D-02 -0.39867739D-02
 -0.39592780D-02 -0.35713622D-02 -0.20441810D-02 -0.25576552D-02  0.78326693D-04
 -0.53746035D-05  0.27170158D-17  0.19937085D-17  0.16371594D-17  0.37152891D-17
  0.27262276D-17  0.22386769D-17  0.58945996D-02  0.43253755D-02  0.35518378D-02
  0.52727793D-19 -0.26584215D-19 -0.15363888D-03  0.15308155D-19  0.39744783D-19
  0.24450337D-04 -0.23755154D-20 -0.60546714D-20 -0.50764524D-05  0.26052000D-03
  0.26052000D-03 -0.52103999D-03  0.50268060D-20 -0.43848602D-18 -0.70038259D-18
 -0.60897827D-04 -0.60897827D-04  0.12179565D-03 -0.10881853D-19 -0.21663484D-18
 -0.20776043D-18 -0.12154064D-05 -0.12154064D-05  0.24308127D-05  0.10063627D-20
  0.10903586D-19  0.69011200D-20 -0.58440770D-19 -0.60579993D-19  0.11461657D-05
 -0.81656945D-19 -0.13375557D-18 -0.17192485D-05  0.25697926D-18  0.31549555D-18
 -0.17192485D-05 -0.35171964D-19 -0.35131391D-20 -0.70031613D-20 -0.18493750D-04
 -0.36569224D-20  0.10940630D-20  0.27740624D-04  0.14196340D-19  0.19915421D-19
  0.27740624D-04 -0.18773477D-20 -0.41371289D-03 -0.77405841D-03 -0.13374014D-02
 -0.21680837D-02 -0.32924081D-02 -0.45760601D-02 -0.54402753D-02 -0.48457788D-02
 -0.24055897D-02 -0.38757904D-03 -0.59503707D-05 -0.10633254D-05 -0.39734811D-07
  0.81688089D-03  0.15258162D-02  0.26481280D-02  0.42968356D-02  0.66509912D-02
  0.95202897D-02  0.12426952D-01  0.13242991D-01  0.98994045D-02  0.52257198D-03
 -0.67147905D-02 -0.39893570D-02  0.14957098D-04 -0.15041913D-03 -0.28073563D-03
 -0.48789382D-03 -0.79073235D-03 -0.12281311D-02 -0.17593333D-02 -0.23230357D-02
 -0.25118907D-02 -0.19693548D-02 -0.97994445D-04  0.16882350D-02  0.17476362D-02
 -0.79083011D-03  0.45724514D-03  0.13164515D-02  0.20257737D-02  0.28884742D-14
  0.38047688D-14  0.41975513D-14  0.34865488D-14  0.18517908D-14  0.47763086D-15
 -0.49098828D-18  0.18601070D-14  0.24501784D-14  0.27031207D-14  0.22452525D-14
  0.11925081D-14  0.30758264D-15 -0.31618449D-18 -0.28244239D-01 -0.37204001D-01
 -0.41044729D-01 -0.34092365D-01 -0.18107283D-01 -0.46703966D-02  0.48010089D-05
 -0.11645157D-16 -0.15289238D-16 -0.17407922D-16 -0.14740313D-16 -0.84438189D-17
 -0.19206759D-17  0.89898200D-18 -0.10051901D-16 -0.13197409D-16 -0.15026221D-16
 -0.12723587D-16 -0.72885605D-17 -0.16578946D-17  0.77598593D-18  0.36643151D-02
  0.48109770D-02  0.54776513D-02  0.46382501D-02  0.26569683D-02  0.60436810D-03
 -0.28287753D-03  0.21353189D-16  0.13673144D-16  0.27088399D-02 -0.11378584D-17
 -0.14725117D-17  0.32378763D-02 -0.29057428D-19 -0.46368157D-19  0.19413394D-03
 -0.18407313D-03 -0.18407313D-03  0.36814625D-03  0.34930523D-18  0.74628971D-18
  0.53019581D-18 -0.30656831D-03 -0.30656831D-03  0.61313661D-03 -0.65371770D-19
 -0.46658417D-20 -0.24779235D-18 -0.37560619D-03 -0.37560619D-03  0.75121238D-03
 -0.43465665D-20 -0.64182465D-18 -0.89309919D-18 -0.44008553D-18 -0.75813948D-18
 -0.93218444D-03 -0.50752934D-18 -0.49586543D-18  0.13982767D-02  0.18277859D-17
  0.27702839D-17  0.13982767D-02  0.18974140D-18  0.19150534D-18  0.33135580D-18
  0.65089294D-03  0.21644331D-18  0.27935773D-18 -0.97633940D-03 -0.79095934D-18
 -0.12734251D-17 -0.97633940D-03 -0.75986384D-19
MO    7     MO 0.0        OCC NO =    2.0000000  ORB. ENERGY =   -0.806091
 -0.16913519D-02 -0.31436080D-02 -0.53535104D-02 -0.83489287D-02 -0.11663929D-01
 -0.13903617D-01 -0.13180584D-01 -0.83710030D-02 -0.20556721D-02 -0.12631939D-02
 -0.23356017D-02 -0.39386327D-02 -0.62758551D-02 -0.87480696D-02 -0.11146464D-01
 -0.11069589D-01 -0.99850304D-02 -0.57152448D-02  0.97649115D-02  0.10416837D-02
 -0.41621498D-04 -0.39580725D-16 -0.29043787D-16 -0.23849680D-16 -0.14522009D-15
 -0.10656049D-15 -0.87503518D-16 -0.11955437D-01 -0.87727338D-02 -0.72038432D-02
  0.44458228D-17 -0.59093604D-17 -0.23195264D-02 -0.59075418D-18  0.41627467D-18
  0.66323720D-04  0.49160480D-19 -0.56994372D-19 -0.65115722D-05 -0.87727127D-03
 -0.87727127D-03  0.17545425D-02 -0.33393475D-18  0.71448181D-18 -0.33750286D-17
 -0.20146087D-03 -0.20146087D-03  0.40292173D-03  0.15066377D-18  0.36864502D-18
 -0.26819054D-17 -0.10299153D-04 -0.10299153D-04  0.20598306D-04 -0.13634175D-19
  0.10734500D-18  0.11042909D-18  0.50155500D-19 -0.17233200D-18 -0.21457215D-03
  0.15164136D-18 -0.20557296D-18  0.32185823D-03 -0.30210786D-18  0.72256897D-18
  0.32185823D-03  0.14562892D-18  0.13403751D-19 -0.95742503D-19 -0.30571704D-04
  0.20464587D-19 -0.61003569D-19  0.45857556D-04 -0.60675839D-19  0.34823108D-18
  0.45857556D-04 -0.88826956D-19 -0.51626087D-05 -0.96592607D-05 -0.16689063D-04
 -0.27054917D-04 -0.41085050D-04 -0.57103388D-04 -0.67887690D-04 -0.60469133D-04
 -0.30018688D-04 -0.48364916D-05 -0.74253029D-07 -0.13268943D-07 -0.49583971D-09
  0.13027268D-02  0.24333065D-02  0.42231215D-02  0.68524100D-02  0.10606717D-01
  0.15182551D-01  0.19817972D-01  0.21119356D-01  0.15787148D-01  0.83337548D-03
 -0.10708461D-01 -0.63620562D-02  0.23852941D-04  0.50755341D-01  0.94727531D-01
  0.16462811D+00  0.26681374D+00  0.41440351D+00  0.59364499D+00  0.78385289D+00
  0.84757749D+00  0.66451174D+00  0.33065884D-01 -0.56965457D+00 -0.58969808D+00
  0.26684673D+00  0.50104538D-01  0.60772514D-01 -0.40396150D-02  0.88077368D-15
  0.11601766D-14  0.12799466D-14  0.10631428D-14  0.56466095D-15  0.14564253D-15
 -0.14971557D-18  0.80357953D-15  0.10584946D-14  0.11677675D-14  0.96996513D-15
  0.51517205D-15  0.13287790D-15 -0.13659396D-18 -0.40660597D-01 -0.53559131D-01
 -0.59088269D-01 -0.49079599D-01 -0.26067367D-01 -0.67235344D-02  0.69115648D-05
 -0.63840041D-15 -0.83817294D-15 -0.95432156D-15 -0.80808030D-15 -0.46289951D-15
 -0.10529358D-15  0.49283189D-16 -0.63522392D-15 -0.83400244D-15 -0.94957314D-15
 -0.80405953D-15 -0.46059626D-15 -0.10476967D-15  0.49037971D-16 -0.83204671D-01
 -0.10924163D+00 -0.12437964D+00 -0.10531957D+00 -0.60331103D-01 -0.13723233D-01
  0.64232282D-02  0.75965982D-16  0.76131106D-16  0.12893099D-01  0.62280873D-17
 -0.66364422D-17 -0.22257040D-02  0.91711311D-18 -0.34507616D-18 -0.30316687D-03
 -0.32581575D-02 -0.32581575D-02  0.65163151D-02  0.83930017D-16  0.36451203D-17
 -0.34012977D-16 -0.32167175D-03 -0.32167175D-03  0.64334350D-03  0.46880998D-17
  0.56524568D-17  0.41579084D-17  0.32860040D-04  0.32860040D-04 -0.65720080D-04
 -0.27389422D-18  0.20170235D-17 -0.62648837D-17  0.76311841D-18 -0.18547818D-17
  0.95059577D-03  0.25145600D-17  0.41084975D-17 -0.14258937D-02 -0.48039152D-17
  0.14558479D-17 -0.14258937D-02  0.13185471D-17 -0.49075350D-18  0.93563852D-18
  0.10756214D-03 -0.48310850D-18  0.16093024D-18 -0.16134321D-03  0.19553690D-17
 -0.29678458D-17 -0.16134321D-03 -0.60229073D-18
MO    8     MO 0.0        OCC NO =    2.0000000  ORB. ENERGY =   -0.335042
 -0.19656448D-02 -0.36534187D-02 -0.62217093D-02 -0.97029058D-02 -0.13555512D-01
 -0.16158419D-01 -0.15318129D-01 -0.97285600D-02 -0.23890482D-02 -0.43091058D-02
 -0.79673874D-02 -0.13435772D-01 -0.21408688D-01 -0.29842100D-01 -0.38023690D-01
 -0.37761448D-01 -0.34061717D-01 -0.19496290D-01  0.25401291D-01  0.18761592D-02
 -0.68686720D-04  0.57173780D-16  0.41953328D-16  0.34450515D-16 -0.31867665D-15