 Molden2AIM, Version 4.0.0 (06/02/2016)           Time: Fri Jun 29 22:40:16 2018
GAUSSIAN             12 MOL ORBITALS    274 PRIMITIVES        2 NUCLEI
  Mg   1    (CENTRE  1)   0.00000000  0.00000000  3.58422464  CHARGE = 12.0
  Mg   2    (CENTRE  2)   0.00000000  0.00000000 -3.58422464  CHARGE = 12.0
CENTRE ASSIGNMENTS    1  1  1  1  1  1  1  1  1  1  1  1  1  1  1  1  1  1  1  1
CENTRE ASSIGNMENTS    1  1  1  1  1  1  1  1  1  1  1  1  1  1  1  1  1  1  1  1
CENTRE ASSIGNMENTS    1  1  1  1  1  1  1  1  1  1  1  1  1  1  1  1  1  1  1  1
CENTRE ASSIGNMENTS    1  1  1  1  1  1  1  1  1  1  1  1  1  1  1  1  1  1  1  1
CENTRE ASSIGNMENTS    1  1  1  1  1  1  1  1  1  1  1  1  1  1  1  1  1  1  1  1
CENTRE ASSIGNMENTS    1  1  1  1  1  1  1  1  1  1  1  1  1  1  1  1  1  1  1  1
CENTRE ASSIGNMENTS    1  1  1  1  1  1  1  1  1  1  1  1  1  1  1  1  1  2  2  2
CENTRE ASSIGNMENTS    2  2  2  2  2  2  2  2  2  2  2  2  2  2  2  2  2  2  2  2
CENTRE ASSIGNMENTS    2  2  2  2  2  2  2  2  2  2  2  2  2  2  2  2  2  2  2  2
CENTRE ASSIGNMENTS    2  2  2  2  2  2  2  2  2  2  2  2  2  2  2  2  2  2  2  2
CENTRE ASSIGNMENTS    2  2  2  2  2  2  2  2  2  2  2  2  2  2  2  2  2  2  2  2
CENTRE ASSIGNMENTS    2  2  2  2  2  2  2  2  2  2  2  2  2  2  2  2  2  2  2  2
CENTRE ASSIGNMENTS    2  2  2  2  2  2  2  2  2  2  2  2  2  2  2  2  2  2  2  2
CENTRE ASSIGNMENTS    2  2  2  2  2  2  2  2  2  2  2  2  2  2
TYPE ASSIGNMENTS      1  1  1  1  1  1  1  1  1  1  1  1  1  1  1  1  1  1  1  1
TYPE ASSIGNMENTS      1  1  1  1  1  1  1  1  1  1  1  1  1  1  1  1  1  1  1  1
TYPE ASSIGNMENTS      1  1  2  2  2  2  2  2  2  2  3  3  3  3  3  3  3  3  4  4
TYPE ASSIGNMENTS      4  4  4  4  4  4  2  2  2  2  2  2  2  2  3  3  3  3  3  3
TYPE ASSIGNMENTS      3  3  4  4  4  4  4  4  4  4  2  3  4  2  3  4  2  3  4  5
TYPE ASSIGNMENTS      6  7  8  9 10  5  6  7  8  9 10  5  6  7  8  9 10 11 12 13
TYPE ASSIGNMENTS     17 14 15 18 19 16 20 11 12 13 17 14 15 18 19 16 20  1  1  1
TYPE ASSIGNMENTS      1  1  1  1  1  1  1  1  1  1  1  1  1  1  1  1  1  1  1  1
TYPE ASSIGNMENTS      1  1  1  1  1  1  1  1  1  1  1  1  1  1  1  1  1  1  1  2
TYPE ASSIGNMENTS      2  2  2  2  2  2  2  3  3  3  3  3  3  3  3  4  4  4  4  4
TYPE ASSIGNMENTS      4  4  4  2  2  2  2  2  2  2  2  3  3  3  3  3  3  3  3  4
TYPE ASSIGNMENTS      4  4  4  4  4  4  4  2  3  4  2  3  4  2  3  4  5  6  7  8
TYPE ASSIGNMENTS      9 10  5  6  7  8  9 10  5  6  7  8  9 10 11 12 13 17 14 15
TYPE ASSIGNMENTS     18 19 16 20 11 12 13 17 14 15 18 19 16 20
EXPONENTS  0.1649000D+06 0.2471000D+05 0.5628000D+04 0.1596000D+04 0.5210000D+03
EXPONENTS  0.1880000D+03 0.7301000D+02 0.2990000D+02 0.1254000D+02 0.4306000D+01
EXPONENTS  0.1826000D+01 0.7417000D+00 0.7612000D-01 0.1649000D+06 0.2471000D+05
EXPONENTS  0.5628000D+04 0.1596000D+04 0.5210000D+03 0.1880000D+03 0.7301000D+02
EXPONENTS  0.2990000D+02 0.1254000D+02 0.4306000D+01 0.1826000D+01 0.7417000D+00
EXPONENTS  0.7612000D-01 0.1649000D+06 0.2471000D+05 0.5628000D+04 0.1596000D+04
EXPONENTS  0.5210000D+03 0.1880000D+03 0.7301000D+02 0.2990000D+02 0.1254000D+02
EXPONENTS  0.4306000D+01 0.1826000D+01 0.7417000D+00 0.7612000D-01 0.1457000D+00
EXPONENTS  0.3310000D-01 0.1290000D-01 0.3169000D+03 0.7486000D+02 0.2372000D+02
EXPONENTS  0.8669000D+01 0.3363000D+01 0.1310000D+01 0.4911000D+00 0.2364000D+00
EXPONENTS  0.3169000D+03 0.7486000D+02 0.2372000D+02 0.8669000D+01 0.3363000D+01
EXPONENTS  0.1310000D+01 0.4911000D+00 0.2364000D+00 0.3169000D+03 0.7486000D+02
EXPONENTS  0.2372000D+02 0.8669000D+01 0.3363000D+01 0.1310000D+01 0.4911000D+00
EXPONENTS  0.2364000D+00 0.3169000D+03 0.7486000D+02 0.2372000D+02 0.8669000D+01
EXPONENTS  0.3363000D+01 0.1310000D+01 0.4911000D+00 0.2364000D+00 0.3169000D+03
EXPONENTS  0.7486000D+02 0.2372000D+02 0.8669000D+01 0.3363000D+01 0.1310000D+01
EXPONENTS  0.4911000D+00 0.2364000D+00 0.3169000D+03 0.7486000D+02 0.2372000D+02
EXPONENTS  0.8669000D+01 0.3363000D+01 0.1310000D+01 0.4911000D+00 0.2364000D+00
EXPONENTS  0.8733000D-01 0.8733000D-01 0.8733000D-01 0.3237000D-01 0.3237000D-01
EXPONENTS  0.3237000D-01 0.7450000D-02 0.7450000D-02 0.7450000D-02 0.1260000D+00
EXPONENTS  0.1260000D+00 0.1260000D+00 0.1260000D+00 0.1260000D+00 0.1260000D+00
EXPONENTS  0.2940000D+00 0.2940000D+00 0.2940000D+00 0.2940000D+00 0.2940000D+00
EXPONENTS  0.2940000D+00 0.4680000D-01 0.4680000D-01 0.4680000D-01 0.4680000D-01
EXPONENTS  0.4680000D-01 0.4680000D-01 0.2520000D+00 0.2520000D+00 0.2520000D+00
EXPONENTS  0.2520000D+00 0.2520000D+00 0.2520000D+00 0.2520000D+00 0.2520000D+00
EXPONENTS  0.2520000D+00 0.2520000D+00 0.9400000D-01 0.9400000D-01 0.9400000D-01
EXPONENTS  0.9400000D-01 0.9400000D-01 0.9400000D-01 0.9400000D-01 0.9400000D-01
EXPONENTS  0.9400000D-01 0.9400000D-01 0.1649000D+06 0.2471000D+05 0.5628000D+04
EXPONENTS  0.1596000D+04 0.5210000D+03 0.1880000D+03 0.7301000D+02 0.2990000D+02
EXPONENTS  0.1254000D+02 0.4306000D+01 0.1826000D+01 0.7417000D+00 0.7612000D-01
EXPONENTS  0.1649000D+06 0.2471000D+05 0.5628000D+04 0.1596000D+04 0.5210000D+03
EXPONENTS  0.1880000D+03 0.7301000D+02 0.2990000D+02 0.1254000D+02 0.4306000D+01
EXPONENTS  0.1826000D+01 0.7417000D+00 0.7612000D-01 0.1649000D+06 0.2471000D+05
EXPONENTS  0.5628000D+04 0.1596000D+04 0.5210000D+03 0.1880000D+03 0.7301000D+02
EXPONENTS  0.2990000D+02 0.1254000D+02 0.4306000D+01 0.1826000D+01 0.7417000D+00
EXPONENTS  0.7612000D-01 0.1457000D+00 0.3310000D-01 0.1290000D-01 0.3169000D+03
EXPONENTS  0.7486000D+02 0.2372000D+02 0.8669000D+01 0.3363000D+01 0.1310000D+01
EXPONENTS  0.4911000D+00 0.2364000D+00 0.3169000D+03 0.7486000D+02 0.2372000D+02
EXPONENTS  0.8669000D+01 0.3363000D+01 0.1310000D+01 0.4911000D+00 0.2364000D+00
EXPONENTS  0.3169000D+03 0.7486000D+02 0.2372000D+02 0.8669000D+01 0.3363000D+01
EXPONENTS  0.1310000D+01 0.4911000D+00 0.2364000D+00 0.3169000D+03 0.7486000D+02
EXPONENTS  0.2372000D+02 0.8669000D+01 0.3363000D+01 0.1310000D+01 0.4911000D+00
EXPONENTS  0.2364000D+00 0.3169000D+03 0.7486000D+02 0.2372000D+02 0.8669000D+01
EXPONENTS  0.3363000D+01 0.1310000D+01 0.4911000D+00 0.2364000D+00 0.3169000D+03
EXPONENTS  0.7486000D+02 0.2372000D+02 0.8669000D+01 0.3363000D+01 0.1310000D+01
EXPONENTS  0.4911000D+00 0.2364000D+00 0.8733000D-01 0.8733000D-01 0.8733000D-01
EXPONENTS  0.3237000D-01 0.3237000D-01 0.3237000D-01 0.7450000D-02 0.7450000D-02
EXPONENTS  0.7450000D-02 0.1260000D+00 0.1260000D+00 0.1260000D+00 0.1260000D+00
EXPONENTS  0.1260000D+00 0.1260000D+00 0.2940000D+00 0.2940000D+00 0.2940000D+00
EXPONENTS  0.2940000D+00 0.2940000D+00 0.2940000D+00 0.4680000D-01 0.4680000D-01
EXPONENTS  0.4680000D-01 0.4680000D-01 0.4680000D-01 0.4680000D-01 0.2520000D+00
EXPONENTS  0.2520000D+00 0.2520000D+00 0.2520000D+00 0.2520000D+00 0.2520000D+00
EXPONENTS  0.2520000D+00 0.2520000D+00 0.2520000D+00 0.2520000D+00 0.9400000D-01
EXPONENTS  0.9400000D-01 0.9400000D-01 0.9400000D-01 0.9400000D-01 0.9400000D-01
EXPONENTS  0.9400000D-01 0.9400000D-01 0.9400000D-01 0.9400000D-01
MO    1     MO 0.0        OCC NO =    2.0000000  ORB. ENERGY =  -47.576084
 -0.30117238D+00 -0.56310583D+00 -0.97066823D+00 -0.15655416D+01 -0.23496578D+01
 -0.31491144D+01 -0.34611713D+01 -0.25906087D+01 -0.88938788D+00 -0.50131704D-01
  0.34955296D-02 -0.83024842D-03 -0.51748287D-04  0.31956595D-03  0.59944408D-03
  0.10311490D-02  0.16827093D-02  0.25536308D-02  0.36163865D-02  0.43725082D-02
  0.43176711D-02  0.21594282D-02 -0.12091707D-02 -0.19309402D-02 -0.63021716D-03
  0.36657842D-05 -0.16005714D-03 -0.30001293D-03 -0.51672651D-03 -0.84232510D-03
 -0.12823219D-02 -0.18172036D-02 -0.22206494D-02 -0.22234876D-02 -0.11610205D-02
  0.72289375D-03  0.13070310D-02  0.95803583D-03 -0.43673887D-03  0.41262926D-03
  0.36288948D-03 -0.21930833D-04 -0.13251081D-17 -0.17126323D-17 -0.18466012D-17
 -0.15222668D-17 -0.83111366D-18 -0.26648932D-18 -0.30013790D-19  0.34442172D-21
 -0.18015370D-18 -0.23283916D-18 -0.25105277D-18 -0.20695821D-18 -0.11299320D-18
 -0.36230281D-19 -0.40804939D-20  0.46825500D-22 -0.67357419D-03 -0.87055913D-03
 -0.93865773D-03 -0.77379321D-03 -0.42246872D-03 -0.13546090D-03 -0.15256502D-04
  0.17507522D-06 -0.43444289D-18 -0.56146765D-18 -0.61447388D-18 -0.51337683D-18
 -0.28720515D-18 -0.97287277D-19 -0.15226012D-19  0.28758318D-19  0.50001045D-18
  0.64620620D-18  0.70721230D-18  0.59085735D-18  0.33055110D-18  0.11197019D-18
  0.17523972D-19 -0.33098618D-19  0.67632563D-03  0.87407337D-03  0.95659163D-03
  0.79920725D-03  0.44711103D-03  0.15145346D-03  0.23703328D-04 -0.44769953D-04
 -0.12427937D-19  0.82198444D-20  0.32409348D-04  0.15900232D-20 -0.86843873D-21
 -0.60230689D-04 -0.99424028D-22  0.68627491D-22  0.67008161D-06  0.13463481D-04
  0.13463481D-04 -0.26926962D-04 -0.31899576D-20  0.24794539D-21 -0.29279619D-20
 -0.21115521D-04 -0.21115521D-04  0.42231043D-04  0.86961613D-20 -0.53640014D-20
  0.10494058D-19 -0.42289427D-05 -0.42289427D-05  0.84578854D-05  0.14304018D-21
  0.37888658D-21 -0.12960417D-21 -0.42214163D-22 -0.60867189D-22  0.39565101D-05
  0.69520671D-21 -0.15979150D-21 -0.59347651D-05 -0.56856422D-21  0.34239306D-21
 -0.59347651D-05 -0.12173054D-20  0.11531454D-21 -0.10103708D-21  0.58749278D-06
  0.80734770D-22 -0.10262021D-21 -0.88123916D-06 -0.42667839D-21  0.40573145D-21
 -0.88123916D-06 -0.10126838D-21  0.30117274D+00  0.56310648D+00  0.97066936D+00
  0.15655435D+01  0.23496605D+01  0.31491180D+01  0.34611754D+01  0.25906117D+01
  0.88938892D+00  0.50131763D-01 -0.34955337D-02  0.83024939D-03  0.51748347D-04
 -0.31956624D-03 -0.59944463D-03 -0.10311499D-02 -0.16827108D-02 -0.25536331D-02
 -0.36163899D-02 -0.43725122D-02 -0.43176750D-02 -0.21594302D-02  0.12091718D-02
  0.19309420D-02  0.63021774D-03 -0.36657875D-05  0.16005729D-03  0.30001320D-03
  0.51672698D-03  0.84232586D-03  0.12823230D-02  0.18172053D-02  0.22206514D-02
  0.22234896D-02  0.11610216D-02 -0.72289440D-03 -0.13070322D-02 -0.95803669D-03
  0.43673926D-03 -0.41262967D-03 -0.36288960D-03  0.21930845D-04  0.20734987D-17
  0.26798878D-17  0.28895192D-17  0.23820082D-17  0.13005076D-17  0.41699637D-18
  0.46964890D-19 -0.53894321D-21 -0.37574602D-17 -0.48563192D-17 -0.52361998D-17
 -0.43165211D-17 -0.23566957D-17 -0.75565385D-18 -0.85106735D-19  0.97663801D-21
 -0.67357423D-03 -0.87055919D-03 -0.93865779D-03 -0.77379326D-03 -0.42246875D-03
 -0.13546091D-03 -0.15256503D-04  0.17507523D-06  0.38419979D-18  0.49653419D-18
  0.54341028D-18  0.45400505D-18  0.25399002D-18  0.86036051D-19  0.13465132D-19
 -0.25432433D-19 -0.13781735D-17 -0.17811313D-17 -0.19492818D-17 -0.16285739D-17
 -0.91109452D-18 -0.30862227D-18 -0.48301141D-19  0.91229374D-19  0.67632566D-03
  0.87407341D-03  0.95659168D-03  0.79920729D-03  0.44711105D-03  0.15145347D-03
  0.23703329D-04 -0.44769955D-04  0.38489043D-20 -0.15393351D-19  0.32409383D-04
 -0.55462257D-22  0.14954229D-20 -0.60230701D-04  0.43587855D-22 -0.85359339D-22
  0.67008180D-06 -0.13463485D-04 -0.13463485D-04  0.26926971D-04 -0.50687745D-20
  0.25244314D-20 -0.77288418D-21  0.21115524D-04  0.21115524D-04 -0.42231047D-04
  0.32915981D-19 -0.85312825D-20  0.99544830D-21  0.42289452D-05  0.42289452D-05
 -0.84578905D-05  0.28332366D-21  0.22993807D-21 -0.26299943D-21  0.51187107D-21
 -0.65134570D-22  0.39565185D-05 -0.14740595D-21 -0.35161837D-21 -0.59347778D-05
 -0.13882073D-20  0.54702208D-21 -0.59347778D-05 -0.90413996D-21 -0.16120745D-21
  0.12163038D-21  0.58748994D-06 -0.12423340D-21  0.13916600D-21 -0.88123490D-06
  0.60785576D-21 -0.50405712D-21 -0.88123490D-06  0.27224309D-22
MO    2     MO 0.0        OCC NO =    2.0000000  ORB. ENERGY =  -47.576079
  0.30113949D+00  0.56304432D+00  0.97056220D+00  0.15653706D+01  0.23494011D+01
  0.31487704D+01  0.34607932D+01  0.25903257D+01  0.88929073D+00  0.50126228D-01
 -0.34951478D-02  0.83015773D-03  0.51742634D-04 -0.25115908D-03 -0.47112600D-03
 -0.81041937D-03 -0.13225055D-02 -0.20069960D-02 -0.28422563D-02 -0.34365212D-02
 -0.33934226D-02 -0.16971771D-02  0.95033346D-03  0.15175997D-02  0.49531174D-03
 -0.28810798D-05  0.12336134D-03  0.23122990D-03  0.39825824D-03  0.64920785D-03
  0.98832793D-03  0.14005790D-02  0.17115281D-02  0.17137155D-02  0.89483696D-03
 -0.55715816D-03 -0.10073721D-02 -0.73838994D-03  0.33660911D-03 -0.35619846D-03
 -0.10859773D-03  0.10224177D-04 -0.38047254D-18 -0.49174071D-18 -0.53020662D-18
 -0.43708187D-18 -0.23863407D-18 -0.76515925D-19 -0.86177296D-20  0.98892318D-22
 -0.25411203D-18 -0.32842640D-18 -0.35411722D-18 -0.29192057D-18 -0.15938019D-18
 -0.51103864D-19 -0.57556551D-20  0.66048728D-22  0.36110226D-04  0.46670563D-04
  0.50321320D-04  0.41482954D-04  0.22648494D-04  0.72620412D-05  0.81789912D-06
 -0.93857597D-08  0.42216419D-18  0.54559883D-18  0.59710694D-18  0.49886721D-18
  0.27908784D-18  0.94537636D-19  0.14795678D-19 -0.27945519D-19 -0.45256881D-18
 -0.58489332D-18 -0.64011108D-18 -0.53479604D-18 -0.29918799D-18 -0.10134632D-18
 -0.15861275D-19  0.29958179D-19 -0.27138063D-04 -0.35072836D-04 -0.38383942D-04
 -0.32068778D-04 -0.17940659D-04 -0.60771814D-05 -0.95111347D-06  0.17964273D-05
  0.12120054D-19 -0.64264845D-20 -0.29571920D-04 -0.14396181D-20  0.76834082D-21
  0.10239487D-04  0.98668945D-22 -0.16074654D-22 -0.15992177D-06 -0.36148474D-05
 -0.36148474D-05  0.72296947D-05  0.34974296D-20  0.60685665D-21  0.10799485D-20
  0.19021735D-05  0.19021735D-05 -0.38043470D-05 -0.91900685D-20  0.27135156D-20
 -0.62211897D-20  0.21690143D-05  0.21690143D-05 -0.43380285D-05 -0.25904630D-21
 -0.45987049D-21 -0.85207382D-22  0.48500295D-22  0.16310274D-21 -0.72745541D-05
 -0.60666866D-21  0.24429707D-21  0.10911831D-04  0.46116778D-21 -0.73360528D-21
  0.10911831D-04  0.11276750D-20 -0.93275286D-22 -0.25815457D-22  0.24328622D-05
 -0.77747191D-22 -0.21734991D-22 -0.36492933D-05  0.35757305D-21  0.99181363D-22
 -0.36492933D-05  0.16192220D-21  0.30113913D+00  0.56304366D+00  0.97056106D+00
  0.15653688D+01  0.23493984D+01  0.31487667D+01  0.34607892D+01  0.25903227D+01
  0.88928969D+00  0.50126170D-01 -0.34951437D-02  0.83015676D-03  0.51742574D-04
 -0.25115871D-03 -0.47112530D-03 -0.81041817D-03 -0.13225035D-02 -0.20069930D-02
 -0.28422521D-02 -0.34365161D-02 -0.33934176D-02 -0.16971746D-02  0.95033205D-03
  0.15175974D-02  0.49531100D-03 -0.28810755D-05  0.12336115D-03  0.23122955D-03
  0.39825763D-03  0.64920687D-03  0.98832643D-03  0.14005769D-02  0.17115255D-02
  0.17137129D-02  0.89483561D-03 -0.55715731D-03 -0.10073705D-02 -0.73838882D-03
  0.33660860D-03 -0.35619798D-03 -0.10859730D-03  0.10224151D-04  0.21337951D-17
  0.27578177D-17  0.29735451D-17  0.24512759D-17  0.13383258D-17  0.42912244D-18
  0.48330608D-19 -0.55461543D-21 -0.37944978D-17 -0.49041884D-17 -0.52878135D-17
 -0.43590694D-17 -0.23799259D-17 -0.76310240D-18 -0.85945640D-19  0.98626482D-21
 -0.36109438D-04 -0.46669545D-04 -0.50320222D-04 -0.41482049D-04 -0.22648000D-04
 -0.72618828D-05 -0.81788127D-06  0.93855550D-08  0.32003711D-18  0.41361128D-18
  0.45265890D-18  0.37818466D-18  0.21157282D-18  0.71667737D-19  0.11216409D-19
 -0.21185130D-19 -0.13380684D-17 -0.17293001D-17 -0.18925574D-17 -0.15811821D-17
 -0.88458152D-18 -0.29964131D-18 -0.46895570D-19  0.88574584D-19  0.27137272D-04
  0.35071814D-04  0.38382823D-04  0.32067843D-04  0.17940136D-04  0.60770042D-05
  0.95108574D-06 -0.17963749D-05  0.16965291D-20 -0.14052018D-19  0.29571882D-04
 -0.47255896D-21  0.14724327D-20 -0.10239417D-04 -0.35587916D-22 -0.52293732D-22
  0.15992099D-06 -0.36148316D-05 -0.36148316D-05  0.72296633D-05 -0.48382533D-20
  0.97402953D-21  0.65503596D-21  0.19021488D-05  0.19021488D-05 -0.38042977D-05
  0.33023945D-19 -0.39930179D-20 -0.21449190D-20  0.21690093D-05  0.21690093D-05
 -0.43380187D-05  0.40338964D-21 -0.52033176D-21 -0.30513095D-22 -0.18645015D-21
  0.16249806D-21  0.72745495D-05 -0.90033138D-21 -0.13706425D-21 -0.10911824D-04
  0.14596818D-20 -0.35042991D-21 -0.10911824D-04 -0.96140396D-21  0.14074720D-21
 -0.25852315D-22 -0.24328629D-05  0.17695564D-21 -0.12629529D-22  0.36492944D-05
 -0.59919723D-21  0.90186474D-22  0.36492944D-05  0.25061497D-21
MO    3     MO 0.0        OCC NO =    2.0000000  ORB. ENERGY =   -3.319708
  0.14468530D-02  0.27051994D-02  0.46631574D-02  0.75209704D-02  0.11287919D-01
  0.15128563D-01  0.16627707D-01  0.12445463D-01  0.42726810D-02  0.24083618D-03
 -0.16792766D-04  0.39885709D-05  0.24860235D-06  0.73051732D-01  0.13703096D+00
  0.23571729D+00  0.38466185D+00  0.58375167D+00  0.82669416D+00  0.99954111D+00
  0.98700551D+00  0.49363824D+00 -0.27641248D+00 -0.44140664D+00 -0.14406559D+00
  0.83798630D-03  0.12908136D-02  0.24195158D-02  0.41672469D-02  0.67931035D-02
  0.10341548D-01  0.14655211D-01  0.17908883D-01  0.17931772D-01  0.93632880D-02
 -0.58299249D-02 -0.10540819D-01 -0.77262764D-02  0.35221701D-02 -0.66271044D-02
 -0.17933723D-02  0.26479554D-03  0.47890555D-16  0.61896017D-16  0.66737769D-16
  0.55016042D-16  0.30037168D-16  0.96311551D-17  0.10847244D-17 -0.12447700D-19
 -0.21986382D-15 -0.28416239D-15 -0.30639070D-15 -0.25257667D-15 -0.13789956D-15
 -0.44216287D-16 -0.49799307D-17  0.57146942D-19  0.49628658D-02  0.64142424D-02
  0.69159899D-02  0.57012752D-02  0.31127314D-02  0.99807008D-03  0.11240925D-03
 -0.12899467D-05 -0.17734886D-15 -0.22920308D-15 -0.25084135D-15 -0.20957138D-15
 -0.11724327D-15 -0.39714743D-16 -0.62155833D-17  0.11739759D-16  0.15512581D-15
  0.20048233D-15  0.21940917D-15  0.18331062D-15  0.10255187D-15  0.34738208D-16
  0.54367272D-17 -0.10268685D-16 -0.46870775D-02 -0.60575105D-02 -0.66293792D-02
 -0.55386727D-02 -0.30985725D-02 -0.10496040D-02 -0.16426900D-03  0.31026510D-03
 -0.57470230D-17  0.21680777D-17 -0.25917572D-03 -0.52407199D-19 -0.43132174D-21
  0.18388845D-03 -0.45273939D-20 -0.88279801D-21 -0.56714760D-05 -0.70695466D-04
 -0.70695466D-04  0.14139093D-03 -0.90507737D-19 -0.95070910D-19  0.26099883D-19
  0.97059138D-04  0.97059138D-04 -0.19411828D-03 -0.30801191D-18 -0.80840853D-19
 -0.14723817D-18  0.11197274D-04  0.11197274D-04 -0.22394549D-04  0.40016685D-20
  0.27390313D-19  0.25233974D-20 -0.14595905D-19 -0.14310515D-19 -0.14176579D-04
 -0.26689276D-20  0.19573112D-20  0.21264869D-04  0.46456642D-19  0.40974235D-19
  0.21264869D-04 -0.21892762D-18  0.94787342D-20  0.91804413D-21 -0.65970043D-05
  0.10241378D-19  0.51802902D-21  0.98955064D-05 -0.38677581D-19 -0.32721614D-20
  0.98955064D-05  0.17689152D-20 -0.14468532D-02 -0.27051998D-02 -0.46631582D-02
 -0.75209717D-02 -0.11287921D-01 -0.15128566D-01 -0.16627710D-01 -0.12445466D-01
 -0.42726817D-02 -0.24083622D-03  0.16792769D-04 -0.39885716D-05 -0.24860240D-06
 -0.73051746D-01 -0.13703099D+00 -0.23571734D+00 -0.38466192D+00 -0.58375178D+00
 -0.82669432D+00 -0.99954130D+00 -0.98700570D+00 -0.49363834D+00  0.27641254D+00
  0.44140672D+00  0.14406561D+00 -0.83798646D-03 -0.12908139D-02 -0.24195162D-02
 -0.41672476D-02 -0.67931046D-02 -0.10341549D-01 -0.14655214D-01 -0.17908886D-01
 -0.17931775D-01 -0.93632895D-02  0.58299258D-02  0.10540821D-01  0.77262776D-02
 -0.35221707D-02  0.66271056D-02  0.17933725D-02 -0.26479556D-03 -0.47817422D-16
 -0.61801497D-16 -0.66635856D-16 -0.54932028D-16 -0.29991299D-16 -0.96164476D-17
 -0.10830679D-17  0.12428691D-19  0.23488767D-16  0.30357993D-16  0.32732716D-16
  0.26983588D-16  0.14732259D-16  0.47237699D-17  0.53202221D-18 -0.61051938D-20
  0.49628660D-02  0.64142426D-02  0.69159902D-02  0.57012754D-02  0.31127316D-02
  0.99807013D-03  0.11240926D-03 -0.12899467D-05  0.40072622D-17  0.51789272D-17
  0.56678519D-17  0.47353418D-17  0.26491546D-17  0.89736911D-18  0.14044337D-18
 -0.26526415D-18  0.40517390D-18  0.52364082D-18  0.57307596D-18  0.47878995D-18
  0.26785576D-18  0.90732904D-19  0.14200216D-19 -0.26820832D-19 -0.46870777D-02
 -0.60575107D-02 -0.66293795D-02 -0.55386729D-02 -0.30985726D-02 -0.10496041D-02
 -0.16426901D-03  0.31026511D-03  0.12661597D-18  0.65027381D-20 -0.25917574D-03
 -0.61682981D-20  0.91181833D-20  0.18388846D-03  0.52693832D-21 -0.11136391D-20
 -0.56714762D-05  0.70695469D-04  0.70695469D-04 -0.14139094D-03  0.22625693D-18
  0.86404413D-19  0.96820452D-20 -0.97059143D-04 -0.97059143D-04  0.19411829D-03
 -0.10050198D-17  0.41727623D-18  0.10660089D-18 -0.11197276D-04 -0.11197276D-04
  0.22394552D-04 -0.15704772D-19  0.17640614D-19  0.60757885D-20  0.20792615D-19
  0.24880392D-19 -0.14176583D-04  0.72399562D-20 -0.10717507D-19  0.21264874D-04
 -0.69617800D-19 -0.63923670D-19  0.21264874D-04  0.52898437D-19 -0.64016355D-20
 -0.27967717D-20 -0.65970028D-05 -0.69669369D-20 -0.67672458D-21  0.98955042D-05
  0.26171843D-19  0.90670396D-20  0.98955042D-05 -0.98877622D-20
MO    4     MO 0.0        OCC NO =    2.0000000  ORB. ENERGY =   -3.319695
 -0.12711367D-02 -0.23766604D-02 -0.40968298D-02 -0.66075693D-02 -0.99170322D-02
 -0.13291241D-01 -0.14608318D-01 -0.10933996D-01 -0.37537757D-02 -0.21158729D-03
  0.14753331D-04 -0.35041700D-05 -0.21841029D-06 -0.73416378D-01 -0.13771497D+00
 -0.23689390D+00 -0.38658193D+00 -0.58666553D+00 -0.83082070D+00 -0.10045304D+01
 -0.99193226D+00 -0.49610229D+00  0.27779223D+00  0.44360997D+00  0.14478470D+00
 -0.84216920D-03 -0.10881828D-02 -0.20397022D-02 -0.35130760D-02 -0.57267278D-02
 -0.87181401D-02 -0.12354649D-01 -0.15097561D-01 -0.15116857D-01 -0.78934469D-02
  0.49147482D-02  0.88861303D-02  0.65134120D-02 -0.29692628D-02  0.62976133D-02
  0.89673605D-03 -0.91145540D-04  0.26635224D-15  0.34424623D-15  0.37117454D-15
  0.30598197D-15  0.16705731D-15  0.53565464D-16  0.60328969D-17 -0.69230201D-19
 -0.81332785D-16 -0.10511834D-15 -0.11334111D-15 -0.93434038D-16 -0.51012284D-16
 -0.16356642D-16 -0.18421932D-17  0.21139995D-19 -0.11303685D-02 -0.14609417D-02
 -0.15752224D-02 -0.12985525D-02 -0.70897214D-03 -0.22732571D-03 -0.25602925D-04
  0.29380507D-06 -0.39950235D-15 -0.51631100D-15 -0.56505415D-15 -0.47208794D-15
 -0.26410637D-15 -0.89462842D-16 -0.14001444D-16  0.26445399D-16  0.35259772D-16
  0.45569215D-16  0.49871248D-16  0.41666121D-16  0.23309826D-16  0.78959221D-17
  0.12357567D-17 -0.23340507D-17  0.93428749D-03  0.12074595D-02  0.13214516D-02
  0.11040382D-02  0.61764662D-03  0.20922033D-03  0.32744172D-04 -0.61845958D-04
 -0.56053656D-17  0.81550649D-18  0.10738698D-03 -0.67665200D-19 -0.37908352D-19
 -0.36083909D-04 -0.68586606D-21  0.71598274D-22  0.82766225D-06  0.15504572D-04
  0.15504572D-04 -0.31009143D-04  0.66705820D-19  0.19019192D-18 -0.29247624D-19
 -0.27472523D-04 -0.27472523D-04  0.54945046D-04  0.37591605D-18 -0.83041347D-19
  0.11618673D-18 -0.86646065D-05 -0.86646065D-05  0.17329213D-04  0.15492527D-20
 -0.11549654D-19  0.12962026D-19 -0.34208131D-19  0.73413416D-20  0.18651432D-04
 -0.41122590D-19 -0.48388624D-20 -0.27977148D-04  0.14374698D-18 -0.17185162D-19
 -0.27977148D-04  0.23258600D-18  0.56820055D-20  0.11631995D-20 -0.74790387D-05
  0.36463715D-20  0.14928816D-20  0.11218558D-04 -0.20692388D-19 -0.49824800D-20
  0.11218558D-04 -0.19789219D-21 -0.12711364D-02 -0.23766599D-02 -0.40968289D-02
 -0.66075679D-02 -0.99170300D-02 -0.13291238D-01 -0.14608314D-01 -0.10933994D-01
 -0.37537749D-02 -0.21158724D-03  0.14753328D-04 -0.35041692D-05 -0.21841024D-06
 -0.73416364D-01 -0.13771494D+00 -0.23689386D+00 -0.38658186D+00 -0.58666541D+00
 -0.83082053D+00 -0.10045302D+01 -0.99193207D+00 -0.49610219D+00  0.27779217D+00
  0.44360988D+00  0.14478468D+00 -0.84216904D-03 -0.10881825D-02 -0.20397018D-02
 -0.35130752D-02 -0.57267264D-02 -0.87181381D-02 -0.12354646D-01 -0.15097558D-01
 -0.15116854D-01 -0.78934450D-02  0.49147470D-02  0.88861282D-02  0.65134105D-02
 -0.29692621D-02  0.62976120D-02  0.89673570D-03 -0.91145488D-04 -0.53577879D-16
 -0.69246584D-16 -0.74663327D-16 -0.61549565D-16 -0.33604283D-16 -0.10774919D-16
 -0.12135427D-17  0.13925947D-19  0.24448869D-16  0.31598874D-16  0.34070663D-16
  0.28086540D-16  0.15334439D-16  0.49168536D-17  0.55376857D-18 -0.63547431D-20
  0.11303675D-02  0.14609404D-02  0.15752210D-02  0.12985514D-02  0.70897154D-03
  0.22732552D-03  0.25602903D-04 -0.29380481D-06  0.44297893D-17  0.57249949D-17
  0.62654720D-17  0.52346378D-17  0.29284823D-17  0.99198800D-18  0.15525177D-18
 -0.29323368D-18 -0.42247500D-18 -0.54600052D-18 -0.59754655D-18 -0.49923449D-18
 -0.27929332D-18 -0.94607239D-19 -0.14806571D-19  0.27966094D-19 -0.93428657D-03
 -0.12074583D-02 -0.13214503D-02 -0.11040371D-02 -0.61764601D-03 -0.20922013D-03
 -0.32744140D-04  0.61845898D-04  0.14192340D-18 -0.25640334D-19 -0.10738693D-03
 -0.28721055D-19  0.24561604D-19  0.36083874D-04 -0.15590927D-20 -0.14182377D-20
 -0.82766115D-06  0.15504558D-04  0.15504558D-04 -0.31009116D-04  0.27305535D-18
  0.13918433D-18 -0.17069183D-19 -0.27472504D-04 -0.27472504D-04  0.54945008D-04
 -0.10292712D-17  0.39603191D-18  0.15400674D-18 -0.86646043D-05 -0.86646043D-05
  0.17329209D-04 -0.10846352D-19 -0.51778412D-20  0.12767911D-19  0.89805333D-20
  0.23376796D-19 -0.18651429D-04 -0.11753296D-19 -0.10678542D-19  0.27977144D-04
 -0.15188304D-19 -0.59451845D-19  0.27977144D-04  0.59364181D-19 -0.29896251D-20
 -0.22663932D-20  0.74790400D-05 -0.30975978D-20 -0.82382244D-21 -0.11218560D-04
  0.12066473D-19  0.76230021D-20 -0.11218560D-04  0.86438670D-20
MO    5     MO 0.0        OCC NO =    2.0000000  ORB. ENERGY =   -2.008102
 -0.38636461D-16 -0.72239082D-16 -0.12452398D-15 -0.20083843D-15 -0.30143023D-15
 -0.40399001D-15 -0.44402282D-15 -0.33234107D-15 -0.11409678D-15 -0.64312392D-17
  0.44843054D-18 -0.10650997D-18 -0.66386255D-20  0.84578782D-16  0.15865348D-15
  0.27291183D-15  0.44535879D-15  0.67586358D-15  0.95714069D-15  0.11572617D-14
  0.11427480D-14  0.57153089D-15 -0.32002843D-15 -0.51105751D-15 -0.16679812D-15
  0.97021465D-18 -0.66871655D-16 -0.12534499D-15 -0.21588763D-15 -0.35192228D-15
 -0.53575232D-15 -0.75922520D-15 -0.92778430D-15 -0.92897008D-15 -0.48507278D-15
  0.30202402D-15  0.54607576D-15  0.40026606D-15 -0.18246890D-15 -0.51817005D-15
  0.12973106D-14 -0.57247340D-17  0.63184450D+00  0.81662570D+00  0.88050541D+00
  0.72585468D+00  0.39629567D+00  0.12706874D+00  0.14311322D-01 -0.16422885D-03
  0.27486195D+01  0.35524458D+01  0.38303322D+01  0.31575780D+01  0.17239463D+01
  0.55276830D+00  0.62256422D-01 -0.71442041D-03  0.13715905D-11  0.17727084D-11
  0.19113766D-11  0.15756651D-11  0.86026762D-12  0.27583728D-12  0.31066619D-13
 -0.35650341D-15 -0.68411120D-02 -0.88413532D-02 -0.96760350D-02 -0.80840738D-02
 -0.45225798D-02 -0.15319693D-02 -0.23976191D-03  0.45285325D-03 -0.29759876D-01
 -0.38461229D-01 -0.42092221D-01 -0.35166948D-01 -0.19673908D-01 -0.66642989D-02
 -0.10430007D-02  0.19699804D-02 -0.14216179D-13 -0.18372781D-13 -0.20107293D-13
 -0.16799116D-13 -0.93981506D-14 -0.31835100D-14 -0.49823743D-15  0.94105208D-15
 -0.19963018D-05 -0.86842157D-05 -0.43623330D-15  0.20768498D-05  0.90346120D-05
 -0.26594501D-15 -0.75802252D-07 -0.32975130D-06 -0.30013157D-17  0.45971375D-16
  0.37022339D-16 -0.82993714D-16  0.67361529D-17 -0.17996517D-05 -0.78287582D-05
  0.38757888D-16  0.42655780D-16 -0.81413668D-16 -0.95341828D-17  0.46398767D-05
  0.20184168D-04 -0.43723221D-16 -0.42119287D-16  0.85842508D-16 -0.18626947D-18
  0.85694846D-07  0.37278558D-06 -0.19535332D-07 -0.84981654D-07  0.21250224D-16
 -0.31917205D-07 -0.13884468D-06 -0.20699925D-16  0.90523201D-07  0.39378964D-06
 -0.43050747D-16  0.86958747D-17 -0.56658955D-07 -0.24647506D-06 -0.26456377D-16
 -0.56015160D-07 -0.24367445D-06  0.37920183D-16  0.22599202D-06  0.98309962D-06
  0.41448949D-16  0.64514302D-17  0.26710161D-17  0.49940327D-17  0.86085929D-17
  0.13884364D-16  0.20838477D-16  0.27928640D-16  0.30696189D-16  0.22975405D-16
  0.78877396D-17  0.44460447D-18 -0.31000903D-19  0.73632478D-20  0.45894150D-21
 -0.39786203D-16 -0.74631244D-16 -0.12837883D-15 -0.20949859D-15 -0.31792898D-15
 -0.45024288D-15 -0.54438060D-15 -0.53755333D-15 -0.26885045D-15  0.15054268D-15
  0.24040353D-15  0.78462516D-16 -0.45639292D-18  0.16454482D-16  0.30842468D-16
  0.53121446D-16  0.86594216D-16  0.13182755D-15  0.18681543D-15  0.22829119D-15
  0.22858296D-15  0.11935731D-15 -0.74316221D-16 -0.13436774D-15 -0.98489718D-16
  0.44898413D-16  0.19091796D-15 -0.14248799D-14  0.55454798D-16  0.63184604D+00
  0.81662770D+00  0.88050756D+00  0.72585645D+00  0.39629664D+00  0.12706905D+00
  0.14311357D-01 -0.16422925D-03  0.27486262D+01  0.35524545D+01  0.38303416D+01
  0.31575858D+01  0.17239506D+01  0.55276965D+00  0.62256574D-01 -0.71442215D-03
 -0.30537929D-12 -0.39468663D-12 -0.42556059D-12 -0.35081573D-12 -0.19153525D-12
 -0.61414100D-13 -0.69168621D-14  0.79374099D-16 -0.68411290D-02 -0.88413751D-02
 -0.96760590D-02 -0.80840938D-02 -0.45225910D-02 -0.15319731D-02 -0.23976250D-03
  0.45285437D-03 -0.29759950D-01 -0.38461324D-01 -0.42092326D-01 -0.35167035D-01
 -0.19673957D-01 -0.66643154D-02 -0.10430033D-02  0.19699853D-02  0.45707824D-14
  0.59072124D-14  0.64648920D-14  0.54012479D-14  0.30216912D-14  0.10235614D-14
  0.16019318D-15 -0.30256684D-15 -0.19963141D-05 -0.86842694D-05 -0.52305360D-15
  0.20768539D-05  0.90346298D-05 -0.22519517D-15 -0.75802670D-07 -0.32975312D-06
  0.45017191D-17  0.12368280D-15  0.12975322D-15 -0.25343601D-15 -0.30785847D-17
  0.17996486D-05  0.78287447D-05 -0.65583476D-16 -0.43928249D-16  0.10951173D-15
  0.50204206D-17 -0.46398717D-05 -0.20184146D-04  0.11128135D-16  0.10568503D-16
 -0.21696637D-16  0.35401280D-17 -0.85697078D-07 -0.37279531D-06 -0.19536924D-07
 -0.84988589D-07  0.78103916D-17 -0.31918828D-07 -0.13885175D-06 -0.14951088D-16
  0.90529599D-07  0.39381752D-06 -0.84800868D-17 -0.18184779D-16 -0.56658148D-07
 -0.24647154D-06 -0.19456052D-16 -0.56014351D-07 -0.24367093D-06  0.29440693D-16
  0.22598880D-06  0.98308555D-06  0.28927462D-16  0.75282960D-17
MO    6     MO 0.0        OCC NO =    2.0000000  ORB. ENERGY =   -2.008102
  0.27818203D-19  0.52012047D-19  0.89657110D-19  0.14460341D-18  0.21702938D-18
  0.29087229D-18  0.31969586D-18  0.23928514D-18  0.82149539D-19  0.46304840D-20
 -0.32286942D-21  0.76687041D-22  0.47798019D-23 -0.53506689D-17 -0.10036823D-16
 -0.17265096D-16 -0.28174530D-16 -0.42756849D-16 -0.60551155D-16 -0.73211317D-16