 Molden2AIM, Version 4.0.0 (06/02/2016)           Time: Fri Jun 29 22:41:06 2018
GAUSSIAN              7 MOL ORBITALS    150 PRIMITIVES        2 NUCLEI
  N    1    (CENTRE  1)   0.00000000  0.00000000  1.02933004  CHARGE =  7.0
  N    2    (CENTRE  2)   0.00000000  0.00000000 -1.02933004  CHARGE =  7.0
CENTRE ASSIGNMENTS    1  1  1  1  1  1  1  1  1  1  1  1  1  1  1  1  1  1  1  1
CENTRE ASSIGNMENTS    1  1  1  1  1  1  1  1  1  1  1  1  1  1  1  1  1  1  1  1
CENTRE ASSIGNMENTS    1  1  1  1  1  1  1  1  1  1  1  1  1  1  1  1  1  1  1  1
CENTRE ASSIGNMENTS    1  1  1  1  1  1  1  1  1  1  1  1  1  1  1  2  2  2  2  2
CENTRE ASSIGNMENTS    2  2  2  2  2  2  2  2  2  2  2  2  2  2  2  2  2  2  2  2
CENTRE ASSIGNMENTS    2  2  2  2  2  2  2  2  2  2  2  2  2  2  2  2  2  2  2  2
CENTRE ASSIGNMENTS    2  2  2  2  2  2  2  2  2  2  2  2  2  2  2  2  2  2  2  2
CENTRE ASSIGNMENTS    2  2  2  2  2  2  2  2  2  2
TYPE ASSIGNMENTS      1  1  1  1  1  1  1  1  1  1  1  1  1  1  1  1  1  1  1  2
TYPE ASSIGNMENTS      2  2  3  3  3  4  4  4  2  3  4  2  3  4  2  3  4  5  6  7
TYPE ASSIGNMENTS      8  9 10  5  6  7  8  9 10  5  6  7  8  9 10 11 12 13 17 14
TYPE ASSIGNMENTS     15 18 19 16 20 11 12 13 17 14 15 18 19 16 20  1  1  1  1  1
TYPE ASSIGNMENTS      1  1  1  1  1  1  1  1  1  1  1  1  1  1  2  2  2  3  3  3
TYPE ASSIGNMENTS      4  4  4  2  3  4  2  3  4  2  3  4  5  6  7  8  9 10  5  6
TYPE ASSIGNMENTS      7  8  9 10  5  6  7  8  9 10 11 12 13 17 14 15 18 19 16 20
TYPE ASSIGNMENTS     11 12 13 17 14 15 18 19 16 20
EXPONENTS  0.1142000D+05 0.1712000D+04 0.3893000D+03 0.1100000D+03 0.3557000D+02
EXPONENTS  0.1254000D+02 0.4644000D+01 0.5118000D+00 0.1142000D+05 0.1712000D+04
EXPONENTS  0.3893000D+03 0.1100000D+03 0.3557000D+02 0.1254000D+02 0.4644000D+01
EXPONENTS  0.5118000D+00 0.1293000D+01 0.1787000D+00 0.5760000D-01 0.2663000D+02
EXPONENTS  0.5948000D+01 0.1742000D+01 0.2663000D+02 0.5948000D+01 0.1742000D+01
EXPONENTS  0.2663000D+02 0.5948000D+01 0.1742000D+01 0.5550000D+00 0.5550000D+00
EXPONENTS  0.5550000D+00 0.1725000D+00 0.1725000D+00 0.1725000D+00 0.4910000D-01
EXPONENTS  0.4910000D-01 0.4910000D-01 0.1654000D+01 0.1654000D+01 0.1654000D+01
EXPONENTS  0.1654000D+01 0.1654000D+01 0.1654000D+01 0.4690000D+00 0.4690000D+00
EXPONENTS  0.4690000D+00 0.4690000D+00 0.4690000D+00 0.4690000D+00 0.1510000D+00
EXPONENTS  0.1510000D+00 0.1510000D+00 0.1510000D+00 0.1510000D+00 0.1510000D+00
EXPONENTS  0.1093000D+01 0.1093000D+01 0.1093000D+01 0.1093000D+01 0.1093000D+01
EXPONENTS  0.1093000D+01 0.1093000D+01 0.1093000D+01 0.1093000D+01 0.1093000D+01
EXPONENTS  0.3640000D+00 0.3640000D+00 0.3640000D+00 0.3640000D+00 0.3640000D+00
EXPONENTS  0.3640000D+00 0.3640000D+00 0.3640000D+00 0.3640000D+00 0.3640000D+00
EXPONENTS  0.1142000D+05 0.1712000D+04 0.3893000D+03 0.1100000D+03 0.3557000D+02
EXPONENTS  0.1254000D+02 0.4644000D+01 0.5118000D+00 0.1142000D+05 0.1712000D+04
EXPONENTS  0.3893000D+03 0.1100000D+03 0.3557000D+02 0.1254000D+02 0.4644000D+01
EXPONENTS  0.5118000D+00 0.1293000D+01 0.1787000D+00 0.5760000D-01 0.2663000D+02
EXPONENTS  0.5948000D+01 0.1742000D+01 0.2663000D+02 0.5948000D+01 0.1742000D+01
EXPONENTS  0.2663000D+02 0.5948000D+01 0.1742000D+01 0.5550000D+00 0.5550000D+00
EXPONENTS  0.5550000D+00 0.1725000D+00 0.1725000D+00 0.1725000D+00 0.4910000D-01
EXPONENTS  0.4910000D-01 0.4910000D-01 0.1654000D+01 0.1654000D+01 0.1654000D+01
EXPONENTS  0.1654000D+01 0.1654000D+01 0.1654000D+01 0.4690000D+00 0.4690000D+00
EXPONENTS  0.4690000D+00 0.4690000D+00 0.4690000D+00 0.4690000D+00 0.1510000D+00
EXPONENTS  0.1510000D+00 0.1510000D+00 0.1510000D+00 0.1510000D+00 0.1510000D+00
EXPONENTS  0.1093000D+01 0.1093000D+01 0.1093000D+01 0.1093000D+01 0.1093000D+01
EXPONENTS  0.1093000D+01 0.1093000D+01 0.1093000D+01 0.1093000D+01 0.1093000D+01
EXPONENTS  0.3640000D+00 0.3640000D+00 0.3640000D+00 0.3640000D+00 0.3640000D+00
EXPONENTS  0.3640000D+00 0.3640000D+00 0.3640000D+00 0.3640000D+00 0.3640000D+00
MO    1     MO 0.0        OCC NO =    2.0000000  ORB. ENERGY =  -14.857372
  0.29131030D+00  0.54281384D+00  0.91803429D+00  0.13825088D+01  0.17116355D+01
  0.14565246D+01  0.55423448D+00 -0.25957165D-02 -0.66024373D-03 -0.12379632D-02
 -0.21061437D-02 -0.32706188D-02 -0.43403013D-02 -0.45740818D-02 -0.28362225D-02
  0.18866563D-02  0.29779576D-01  0.35579856D-03 -0.13477490D-03  0.31530200D-15
  0.30284380D-15  0.21237498D-15  0.86851981D-17  0.83420289D-17  0.58500065D-17
 -0.76548056D-02 -0.73523493D-02 -0.51559748D-02  0.28451857D-16 -0.10329319D-18
 -0.56117930D-04  0.23588331D-17  0.65810481D-19  0.11276194D-02  0.11445119D-18
  0.20118225D-19  0.33521142D-04 -0.12282991D-02 -0.12282991D-02  0.24565983D-02
 -0.48346761D-17  0.23819970D-17 -0.23014728D-17  0.72157342D-03  0.72157342D-03
 -0.14431468D-02  0.25049947D-18 -0.96961589D-17 -0.31408595D-17  0.92338332D-04
  0.92338332D-04 -0.18467666D-03 -0.11828779D-20 -0.73338354D-18 -0.13491827D-18
 -0.15706753D-17 -0.25809895D-18  0.84843064D-03 -0.20135876D-17 -0.11778678D-17
 -0.12726460D-02  0.67256134D-17  0.19521647D-17 -0.12726460D-02  0.18534734D-17
 -0.43271783D-18 -0.15251568D-18  0.26298608D-03 -0.39194634D-18 -0.12436953D-18
 -0.39447913D-03  0.16900998D-17  0.58191656D-18 -0.39447913D-03 -0.13068319D-18
  0.29131030D+00  0.54281384D+00  0.91803429D+00  0.13825088D+01  0.17116355D+01
  0.14565246D+01  0.55423448D+00 -0.25957165D-02 -0.66024373D-03 -0.12379632D-02
 -0.21061437D-02 -0.32706188D-02 -0.43403013D-02 -0.45740818D-02 -0.28362225D-02
  0.18866563D-02  0.29779576D-01  0.35579856D-03 -0.13477490D-03  0.15004057D-17
  0.14411217D-17  0.10106140D-17 -0.12904172D-16 -0.12394303D-16 -0.86917408D-17
  0.76548056D-02  0.73523493D-02  0.51559748D-02 -0.65299295D-17 -0.15334108D-17
  0.56117927D-04 -0.33656906D-17 -0.84216561D-18 -0.11276194D-02 -0.27049729D-19
  0.97762439D-20 -0.33521142D-04 -0.12282991D-02 -0.12282991D-02  0.24565983D-02
  0.50664260D-17  0.68735661D-17  0.12313737D-17  0.72157342D-03  0.72157342D-03
 -0.14431468D-02 -0.31276517D-18 -0.10264844D-16 -0.37990057D-17  0.92338332D-04
  0.92338332D-04 -0.18467666D-03  0.30883386D-20 -0.64497272D-18 -0.88922333D-19
 -0.89937956D-19  0.24212379D-19 -0.84843064D-03 -0.12084462D-17 -0.39560211D-18
  0.12726460D-02  0.14782601D-17  0.32296497D-18  0.12726460D-02  0.12904524D-17
  0.58539769D-18  0.93442231D-19 -0.26298608D-03  0.62371258D-18  0.10686575D-18
  0.39447913D-03 -0.23799057D-17 -0.38719244D-18  0.39447913D-03 -0.12153259D-18
MO    2     MO 0.0        OCC NO =    2.0000000  ORB. ENERGY =  -14.854856
 -0.29215190D+00 -0.54438205D+00 -0.92068652D+00 -0.13865029D+01 -0.17165805D+01
 -0.14607326D+01 -0.55583568D+00  0.26032156D-02  0.11371862D-02  0.21322348D-02
  0.36275658D-02  0.56332266D-02  0.74756193D-02  0.78782766D-02  0.48850341D-02
 -0.32495266D-02 -0.27925591D-01 -0.12643370D-01 -0.14718523D-02  0.31969323D-15
  0.30706152D-15  0.21533273D-15 -0.17369041D-15 -0.16682756D-15 -0.11699100D-15
  0.16791054D-02  0.16127606D-02  0.11309791D-02  0.24183635D-16 -0.49971215D-17
  0.86533855D-02  0.17918724D-17 -0.13163284D-18  0.44538470D-02  0.97616536D-19
  0.80546056D-20  0.10220135D-03  0.27000553D-02  0.27000553D-02 -0.54001106D-02
  0.49682481D-17 -0.27942334D-17 -0.32039376D-17  0.14244570D-02  0.14244570D-02
 -0.28489140D-02 -0.11010557D-18 -0.58405934D-17 -0.69064217D-18  0.12961898D-03
  0.12961898D-03 -0.25923796D-03  0.44444024D-20 -0.61272014D-18 -0.97713823D-19
 -0.85340751D-18 -0.19739813D-18  0.27305138D-02 -0.13469828D-18  0.78230593D-18
 -0.40957707D-02  0.26949208D-17 -0.19011154D-18 -0.40957707D-02 -0.10945311D-17
 -0.29573786D-18 -0.56177169D-19  0.17533455D-03 -0.33742403D-18 -0.91036824D-19
 -0.26300182D-03  0.12246376D-17  0.25956833D-18 -0.26300182D-03 -0.10649134D-19
  0.29215190D+00  0.54438205D+00  0.92068652D+00  0.13865029D+01  0.17165805D+01
  0.14607326D+01  0.55583568D+00 -0.26032156D-02 -0.11371862D-02 -0.21322348D-02
 -0.36275658D-02 -0.56332266D-02 -0.74756193D-02 -0.78782766D-02 -0.48850341D-02
  0.32495266D-02  0.27925591D-01  0.12643370D-01  0.14718523D-02 -0.78716883D-18
 -0.75606625D-18 -0.53020585D-18 -0.14797130D-16 -0.14212466D-16 -0.99667624D-17
  0.16791054D-02  0.16127606D-02  0.11309791D-02 -0.35979534D-17  0.49515636D-18
  0.86533855D-02 -0.25206179D-17 -0.37820738D-18  0.44538470D-02 -0.25693455D-19
  0.89920217D-20  0.10220135D-03 -0.27000553D-02 -0.27000553D-02  0.54001106D-02
  0.44987767D-17  0.61858008D-17 -0.20605008D-18 -0.14244570D-02 -0.14244570D-02
  0.28489140D-02 -0.31023520D-18 -0.64853956D-17 -0.10606108D-17 -0.12961898D-03
 -0.12961898D-03  0.25923796D-03  0.10198194D-19 -0.45265711D-18  0.14647179D-19
 -0.44562442D-18 -0.24485983D-18  0.27305138D-02 -0.18149960D-17 -0.65819534D-18
 -0.40957707D-02  0.31518692D-17  0.13927748D-17 -0.40957707D-02 -0.37990331D-18
  0.37763813D-18 -0.71355098D-19  0.17533455D-03  0.43207106D-18 -0.47961420D-19
 -0.26300182D-03 -0.15649855D-17  0.26202671D-18 -0.26300182D-03 -0.27983965D-19
MO    3     MO 0.0        OCC NO =    2.0000000  ORB. ENERGY =   -1.249963
 -0.88644242D-02 -0.16517549D-01 -0.27935317D-01 -0.42069039D-01 -0.52084199D-01
 -0.44321303D-01 -0.16865073D-01  0.78986334D-04 -0.56892327D-01 -0.10667365D+00
 -0.18148361D+00 -0.28182488D+00 -0.37399801D+00 -0.39414257D+00 -0.24439354D+00
  0.16257067D+00  0.86355229D-01  0.21498998D-01 -0.65531852D-03 -0.16562868D-14
 -0.15908437D-14 -0.11156094D-14 -0.27139903D-15 -0.26067552D-15 -0.18280367D-15
 -0.45853760D+00 -0.44041988D+00 -0.30885282D+00 -0.29343251D-15 -0.51568491D-16
 -0.88378266D-01  0.11638575D-16 -0.35183656D-17  0.21716919D-02  0.26287992D-17
 -0.73484529D-18  0.36577999D-03 -0.36505462D-01 -0.36505462D-01  0.73010924D-01
 -0.54704119D-16  0.13719515D-15  0.53707150D-16 -0.15577858D-02 -0.15577858D-02
  0.31155716D-02 -0.16726918D-16  0.21411600D-16  0.25281354D-16  0.55051756D-03
  0.55051756D-03 -0.11010351D-02 -0.43884914D-18 -0.89010265D-17  0.25306649D-17
  0.21279082D-16  0.75014798D-17 -0.12578676D-01 -0.15497539D-16  0.49767728D-17
  0.18868014D-01 -0.48339706D-16 -0.27481212D-16  0.18868014D-01 -0.44392703D-17
 -0.16633222D-17  0.94601942D-18  0.92603453D-03  0.12390873D-17  0.56857481D-18
 -0.13890518D-02  0.37508793D-17 -0.34066331D-17 -0.13890518D-02  0.62916794D-17
 -0.88644242D-02 -0.16517549D-01 -0.27935317D-01 -0.42069039D-01 -0.52084199D-01
 -0.44321303D-01 -0.16865073D-01  0.78986334D-04 -0.56892327D-01 -0.10667365D+00
 -0.18148361D+00 -0.28182488D+00 -0.37399801D+00 -0.39414257D+00 -0.24439354D+00
  0.16257067D+00  0.86355229D-01  0.21498998D-01 -0.65531852D-03 -0.25372195D-15
 -0.24369690D-15 -0.17089709D-15  0.71175299D-17  0.68363024D-17  0.47940871D-17
  0.45853760D+00  0.44041988D+00  0.30885282D+00 -0.60083643D-16  0.58887082D-17
  0.88378266D-01 -0.29044814D-16  0.97641348D-17 -0.21716919D-02 -0.21905077D-17
  0.18204832D-18 -0.36577999D-03 -0.36505462D-01 -0.36505462D-01  0.73010924D-01
  0.26039817D-16 -0.95497659D-16 -0.45523454D-16 -0.15577858D-02 -0.15577858D-02
  0.31155716D-02  0.12874413D-16 -0.17715941D-16  0.15351521D-16  0.55051756D-03
  0.55051756D-03 -0.11010351D-02  0.43349560D-18 -0.83951680D-17  0.24495509D-17
  0.11913110D-16 -0.42698735D-17  0.12578676D-01 -0.15928412D-16  0.99990331D-17
 -0.18868014D-01 -0.19810917D-16  0.28105874D-17 -0.18868014D-01  0.24058227D-16
  0.58804806D-19 -0.93462577D-18 -0.92603453D-03 -0.70843854D-18 -0.13532100D-17
  0.13890518D-02  0.53202412D-18  0.41570873D-17  0.13890518D-02  0.51806363D-17
MO    4     MO 0.0        OCC NO =    2.0000000  ORB. ENERGY =   -0.644798
 -0.11633234D-03 -0.21676819D-03 -0.36660935D-03 -0.55209337D-03 -0.68352741D-03
 -0.58165097D-03 -0.22132893D-03  0.10365778D-05 -0.59072189D-01 -0.11076091D+00
 -0.18843726D+00 -0.29262317D+00 -0.38832796D+00 -0.40924437D+00 -0.25375761D+00
  0.16879966D+00  0.90384440D-01  0.10561029D+00  0.60512218D-02  0.18607728D-14
  0.17872501D-14  0.12533431D-14 -0.84169606D-15 -0.80843901D-15 -0.56693323D-15
  0.40166952D+00  0.38579877D+00  0.27054873D+00  0.81979915D-15 -0.48306190D-17
  0.83781445D-01 -0.47903080D-16 -0.90820145D-16 -0.48010562D-02 -0.11088812D-16
  0.32942789D-17 -0.19138065D-03  0.79969477D-02  0.79969477D-02 -0.15993895D-01
 -0.39658805D-16 -0.37961014D-15  0.50537951D-16  0.75592604D-03  0.75592604D-03
 -0.15118521D-02 -0.19990501D-16 -0.14258919D-16  0.47069556D-16 -0.50202089D-03
 -0.50202089D-03  0.10040418D-02  0.26418721D-18  0.26096671D-16  0.96545611D-17
 -0.18027660D-16  0.90466178D-17 -0.18610154D-02 -0.47947219D-16  0.10541757D-16
  0.27915231D-02  0.10203020D-15 -0.37681610D-16  0.27915231D-02  0.27899755D-16
  0.33691927D-17  0.24929611D-17  0.17001366D-04  0.59032952D-17  0.11380753D-17
 -0.25502049D-04 -0.16010873D-16 -0.86169585D-17 -0.25502049D-04  0.14752589D-17
  0.11633234D-03  0.21676819D-03  0.36660935D-03  0.55209337D-03  0.68352741D-03
  0.58165097D-03  0.22132893D-03 -0.10365778D-05  0.59072189D-01  0.11076091D+00
  0.18843726D+00  0.29262317D+00  0.38832796D+00  0.40924437D+00  0.25375761D+00
 -0.16879966D+00 -0.90384440D-01 -0.10561029D+00 -0.60512218D-02  0.17401668D-14
  0.16714094D-14  0.11721077D-14 -0.49531133D-15 -0.47574061D-15 -0.33362216D-15
  0.40166952D+00  0.38579877D+00  0.27054873D+00  0.47766027D-15 -0.72622247D-16
  0.83781445D-01  0.13468044D-15  0.13161762D-16 -0.48010562D-02  0.74502540D-17
  0.26114221D-18 -0.19138065D-03 -0.79969477D-02 -0.79969477D-02  0.15993895D-01
 -0.27912512D-16  0.28415862D-15 -0.13980753D-15 -0.75592604D-03 -0.75592604D-03
  0.15118521D-02 -0.21671191D-17  0.10722886D-15  0.37467317D-16  0.50202089D-03
  0.50202089D-03 -0.10040418D-02  0.44380727D-18  0.32096105D-16  0.48627606D-17
 -0.11387306D-16  0.49227126D-17 -0.18610154D-02 -0.65691292D-17 -0.53644435D-17
  0.27915231D-02  0.40731048D-16 -0.94036944D-17  0.27915231D-02 -0.58015724D-17
 -0.30802968D-17 -0.22425687D-17  0.17001366D-04 -0.29091733D-17 -0.16877329D-17
 -0.25502049D-04  0.12150064D-16  0.84154390D-17 -0.25502049D-04  0.53446435D-17
MO    5     MO 0.0        OCC NO =    2.0000000  ORB. ENERGY =   -0.545047
  0.14889822D-15  0.27744992D-15  0.46923736D-15  0.70664547D-15  0.87487293D-15
  0.74447738D-15  0.28328738D-15 -0.13267556D-17 -0.17143788D-15 -0.32144762D-15
 -0.54687805D-15 -0.84924386D-15 -0.11269960D-14 -0.11876991D-14 -0.73644920D-15
  0.48988629D-15 -0.84546353D-16 -0.22456037D-15 -0.33930302D-16  0.66966374D+00
  0.64320402D+00  0.45105905D+00 -0.50539408D+00 -0.48542498D+00 -0.34041350D+00
  0.52542479D-14  0.50466423D-14  0.35390539D-14  0.16628423D+00 -0.12549443D+00
  0.13750598D-14  0.20933379D-01 -0.15798386D-01  0.25657050D-15  0.12830567D-03
 -0.96832072D-04 -0.46849639D-18  0.35908678D-15  0.30441354D-15 -0.66350032D-15
 -0.44271975D-15 -0.10705705D+00  0.80795770D-01 -0.54087158D-16  0.18450900D-16
  0.35636258D-16  0.18228661D-15 -0.19424598D-01  0.14659711D-01  0.31212844D-17
  0.18171109D-16 -0.21292394D-16 -0.53408781D-16 -0.55900897D-03  0.42188312D-03
 -0.61378728D-02  0.46322422D-02 -0.69685241D-17 -0.61361742D-02  0.46309602D-02
 -0.37907142D-15  0.24549793D-01 -0.18527687D-01  0.39997699D-15 -0.82624425D-15
 -0.19048378D-05  0.14375779D-05  0.23332026D-16 -0.19542042D-05  0.14748346D-05
  0.36125478D-16  0.76687177D-05 -0.57875682D-05 -0.10612156D-15 -0.29444596D-16
 -0.26877926D-16 -0.50083058D-16 -0.84703006D-16 -0.12755803D-15 -0.15792512D-15
 -0.13438715D-15 -0.51136790D-16  0.23949540D-18 -0.29765455D-15 -0.55810507D-15
 -0.94950278D-15 -0.14744776D-14 -0.19567175D-14 -0.20621116D-14 -0.12786408D-14
  0.85055233D-15  0.51062178D-15  0.93890550D-15  0.52256110D-16  0.66966374D+00
  0.64320402D+00  0.45105905D+00 -0.50539408D+00 -0.48542498D+00 -0.34041350D+00
 -0.81565890D-14 -0.78343062D-14 -0.54939563D-14  0.16628423D+00 -0.12549443D+00
 -0.15473574D-14  0.20933379D-01 -0.15798386D-01 -0.61900528D-16  0.12830567D-03
 -0.96832072D-04 -0.84674468D-17 -0.15173465D-16  0.56899443D-15 -0.55382096D-15
 -0.11815307D-15  0.10705705D+00 -0.80795770D-01  0.47406798D-16 -0.14115016D-16
 -0.33291783D-16  0.42203634D-16  0.19424598D-01 -0.14659711D-01  0.35372814D-17
 -0.15469052D-16  0.11931770D-16 -0.33588816D-17  0.55900897D-03 -0.42188312D-03
 -0.61378728D-02  0.46322422D-02 -0.10980652D-15 -0.61361742D-02  0.46309602D-02
 -0.22470808D-15  0.24549793D-01 -0.18527687D-01  0.55412764D-15 -0.22452769D-15
 -0.19048378D-05  0.14375779D-05  0.26747637D-16 -0.19542042D-05  0.14748346D-05
  0.11780894D-16  0.76687177D-05 -0.57875682D-05 -0.92023803D-16  0.24667874D-16
MO    6     MO 0.0        OCC NO =    2.0000000  ORB. ENERGY =   -0.545047
 -0.42078351D-15 -0.78406812D-15 -0.13260558D-14 -0.19969665D-14 -0.24723741D-14
 -0.21038787D-14 -0.80056467D-15  0.37493859D-17  0.29605580D-15  0.55510739D-15
  0.94440284D-15  0.14665579D-14  0.19462076D-14  0.20510357D-14  0.12717730D-14
 -0.84598387D-15 -0.10396912D-15 -0.42491685D-15  0.18933002D-15  0.50539408D+00
  0.48542498D+00  0.34041350D+00  0.66966374D+00  0.64320402D+00  0.45105905D+00
  0.40302344D-16  0.38709920D-16  0.27146068D-16  0.12549443D+00  0.16628423D+00
  0.10806598D-14  0.15798386D-01  0.20933379D-01 -0.10968017D-15  0.96832072D-04
  0.12830567D-03 -0.92199102D-17  0.88191376D-15  0.27065550D-15 -0.11525693D-14
 -0.74557411D-15 -0.80795770D-01 -0.10705705D+00  0.11415861D-15  0.26470080D-16
 -0.14062869D-15 -0.31838443D-15 -0.14659711D-01 -0.19424598D-01 -0.58891305D-17
 -0.33600246D-16  0.39489377D-16 -0.39114181D-16 -0.42188312D-03 -0.55900897D-03
 -0.46322422D-02 -0.61378728D-02  0.35553553D-15 -0.46309602D-02 -0.61361742D-02
 -0.67790373D-15  0.18527687D-01  0.24549793D-01 -0.38870286D-15  0.15503633D-14
 -0.14375779D-05 -0.19048378D-05 -0.51077298D-16 -0.14748346D-05 -0.19542042D-05
  0.77958722D-17  0.57875682D-05  0.76687177D-05  0.14543602D-15 -0.14577687D-15
  0.19392524D-16  0.36135114D-16  0.61113536D-16  0.92033599D-16  0.11394357D-15
  0.96960832D-16  0.36895385D-16 -0.17279683D-18 -0.11605008D-15 -0.21759499D-15
 -0.37019382D-15 -0.57487191D-15 -0.76288846D-15 -0.80397971D-15 -0.49851871D-15
  0.33161484D-15  0.10577641D-15  0.55726539D-15 -0.20879120D-15  0.50539408D+00
  0.48542498D+00  0.34041350D+00  0.66966374D+00  0.64320402D+00  0.45105905D+00
 -0.12292617D-14 -0.11806911D-14 -0.82798213D-15  0.12549443D+00  0.16628423D+00
  0.86733713D-15  0.15798386D-01  0.20933379D-01  0.20839684D-15  0.96832072D-04
  0.12830567D-03 -0.11212087D-16 -0.57987411D-16 -0.78384230D-15  0.84182971D-15
  0.33088691D-15  0.80795770D-01  0.10705705D+00 -0.42959519D-15 -0.70770936D-16
  0.50036613D-15  0.19261158D-15  0.14659711D-01  0.19424598D-01 -0.10289072D-16
 -0.16401907D-16  0.26690979D-16  0.24870714D-16  0.42188312D-03  0.55900897D-03
 -0.46322422D-02 -0.61378728D-02  0.45583503D-15 -0.46309602D-02 -0.61361742D-02
 -0.57722069D-15  0.18527687D-01  0.24549793D-01 -0.79028441D-15 -0.55707462D-15
 -0.14375779D-05 -0.19048378D-05  0.48145746D-16 -0.14748346D-05 -0.19542042D-05
 -0.18400829D-15  0.57875682D-05  0.76687177D-05  0.39571055D-16  0.16426238D-15
MO    7     MO 0.0        OCC NO =    2.0000000  ORB. ENERGY =   -0.515043
 -0.48941068D-03 -0.91194474D-03 -0.15423272D-02 -0.23226593D-02 -0.28756028D-02
 -0.24470082D-02 -0.93113178D-03  0.43608874D-05  0.20386641D-01  0.38225142D-01
  0.65032340D-01  0.10098836D+00  0.13401742D+00  0.14123597D+00  0.87575310D-01
 -0.58255130D-01 -0.28436244D-01 -0.47203167D-01 -0.30638532D-02  0.51131726D-14
  0.49111412D-14  0.34440312D-14 -0.36233151D-14 -0.34801508D-14 -0.24405220D-14
 -0.90478843D+00 -0.86903847D+00 -0.60942976D+00  0.13675749D-14 -0.82208969D-15
 -0.19992885D+00  0.95303738D-16 -0.20240295D-15 -0.21108584D-01 -0.10710784D-16
  0.80951926D-17 -0.33464770D-04 -0.36216133D-01 -0.36216133D-01  0.72432267D-01
 -0.84449484D-16 -0.83197906D-15  0.35377643D-15 -0.26071211D-02 -0.26071211D-02
  0.52142422D-02 -0.83413279D-17 -0.10631662D-15  0.21703288D-15  0.11424546D-03
  0.11424546D-03 -0.22849092D-03  0.13745673D-17 -0.54289529D-19  0.81346332D-17
 -0.46325639D-16  0.45232158D-16 -0.10417752D-01 -0.37188406D-16  0.38927486D-16
  0.15626628D-01  0.17616532D-15 -0.17462396D-15  0.15626628D-01 -0.38649531D-16
  0.21142591D-17  0.17958104D-17  0.63193252D-03 -0.37240407D-18  0.29751540D-17
 -0.94789877D-03 -0.59703734D-17 -0.83625853D-17 -0.94789877D-03  0.55380221D-17
 -0.48941068D-03 -0.91194474D-03 -0.15423272D-02 -0.23226593D-02 -0.28756028D-02
 -0.24470082D-02 -0.93113178D-03  0.43608874D-05  0.20386641D-01  0.38225142D-01
  0.65032340D-01  0.10098836D+00  0.13401742D+00  0.14123597D+00  0.87575310D-01
 -0.58255130D-01 -0.28436244D-01 -0.47203167D-01 -0.30638532D-02  0.54606777D-14
  0.52449157D-14  0.36780969D-14 -0.34050056D-14 -0.32704671D-14 -0.22934773D-14
  0.90478843D+00  0.86903847D+00  0.60942976D+00  0.13835241D-14 -0.76661192D-15
  0.19992885D+00  0.19234402D-15 -0.74462038D-16  0.21108584D-01  0.36721180D-18
  0.18850757D-17  0.33464770D-04 -0.36216133D-01 -0.36216133D-01  0.72432267D-01
 -0.12277936D-16  0.88231729D-15 -0.69948549D-15 -0.26071211D-02 -0.26071211D-02
  0.52142422D-02  0.13263114D-17  0.16649659D-15  0.72522653D-17  0.11424546D-03
  0.11424546D-03 -0.22849092D-03  0.32052127D-18  0.18756826D-16  0.15545452D-16
 -0.41618057D-16  0.35366912D-16  0.10417752D-01 -0.52588688D-16  0.36278027D-16
 -0.15626628D-01  0.17744286D-15 -0.14237876D-15 -0.15626628D-01 -0.14550145D-16
 -0.44970463D-17 -0.11477335D-16 -0.63193252D-03 -0.44205841D-17 -0.11852937D-16
  0.94789877D-03  0.17911723D-16  0.46284944D-16  0.94789877D-03  0.61853552D-17
END DATA
RHF
