 Molden2AIM, Version 4.0.0 (06/02/2016)           Time: Fri Jun 29 22:41:27 2018
GAUSSIAN             23 MOL ORBITALS    403 PRIMITIVES        2 NUCLEI
  Na   1    (CENTRE  1)   0.00000000  0.00000000 -0.95575166  CHARGE = 11.0
  Br   2    (CENTRE  2)   0.00000000  0.00000000  3.79034085  CHARGE = 35.0
CENTRE ASSIGNMENTS    1  1  1  1  1  1  1  1  1  1  1  1  1  1  1  1  1  1  1  1
CENTRE ASSIGNMENTS    1  1  1  1  1  1  1  1  1  1  1  1  1  1  1  1  1  1  1  1
CENTRE ASSIGNMENTS    1  1  1  1  1  1  1  1  1  1  1  1  1  1  1  1  1  1  1  1
CENTRE ASSIGNMENTS    1  1  1  1  1  1  1  1  1  1  1  1  1  1  1  1  1  1  1  1
CENTRE ASSIGNMENTS    1  1  1  1  1  1  1  1  1  1  1  1  1  1  1  1  1  1  1  1
CENTRE ASSIGNMENTS    1  1  1  1  1  1  1  1  1  1  1  1  1  1  1  1  1  1  1  1
CENTRE ASSIGNMENTS    1  1  1  1  1  1  1  1  1  1  1  1  1  1  1  1  1  1  1  1
CENTRE ASSIGNMENTS    2  2  2  2  2  2  2  2  2  2  2  2  2  2  2  2  2  2  2  2
CENTRE ASSIGNMENTS    2  2  2  2  2  2  2  2  2  2  2  2  2  2  2  2  2  2  2  2
CENTRE ASSIGNMENTS    2  2  2  2  2  2  2  2  2  2  2  2  2  2  2  2  2  2  2  2
CENTRE ASSIGNMENTS    2  2  2  2  2  2  2  2  2  2  2  2  2  2  2  2  2  2  2  2
CENTRE ASSIGNMENTS    2  2  2  2  2  2  2  2  2  2  2  2  2  2  2  2  2  2  2  2
CENTRE ASSIGNMENTS    2  2  2  2  2  2  2  2  2  2  2  2  2  2  2  2  2  2  2  2
CENTRE ASSIGNMENTS    2  2  2  2  2  2  2  2  2  2  2  2  2  2  2  2  2  2  2  2
CENTRE ASSIGNMENTS    2  2  2  2  2  2  2  2  2  2  2  2  2  2  2  2  2  2  2  2
CENTRE ASSIGNMENTS    2  2  2  2  2  2  2  2  2  2  2  2  2  2  2  2  2  2  2  2
CENTRE ASSIGNMENTS    2  2  2  2  2  2  2  2  2  2  2  2  2  2  2  2  2  2  2  2
CENTRE ASSIGNMENTS    2  2  2  2  2  2  2  2  2  2  2  2  2  2  2  2  2  2  2  2
CENTRE ASSIGNMENTS    2  2  2  2  2  2  2  2  2  2  2  2  2  2  2  2  2  2  2  2
CENTRE ASSIGNMENTS    2  2  2  2  2  2  2  2  2  2  2  2  2  2  2  2  2  2  2  2
CENTRE ASSIGNMENTS    2  2  2
TYPE ASSIGNMENTS      1  1  1  1  1  1  1  1  1  1  1  1  1  1  1  1  1  1  1  1
TYPE ASSIGNMENTS      1  1  1  1  1  1  1  1  1  1  1  1  1  1  1  1  1  1  1  1
TYPE ASSIGNMENTS      1  1  1  1  1  2  2  2  2  2  2  2  2  3  3  3  3  3  3  3
TYPE ASSIGNMENTS      3  4  4  4  4  4  4  4  4  2  2  2  2  2  2  2  2  3  3  3
TYPE ASSIGNMENTS      3  3  3  3  3  4  4  4  4  4  4  4  4  2  3  4  2  3  4  2
TYPE ASSIGNMENTS      3  4  5  6  7  8  9 10  5  6  7  8  9 10  5  6  7  8  9 10
TYPE ASSIGNMENTS     11 12 13 17 14 15 18 19 16 20 11 12 13 17 14 15 18 19 16 20
TYPE ASSIGNMENTS      1  1  1  1  1  1  1  1  1  1  1  1  1  1  1  1  1  1  1  1
TYPE ASSIGNMENTS      1  1  1  1  1  1  1  1  1  1  1  1  1  1  1  1  1  1  1  1
TYPE ASSIGNMENTS      1  1  1  1  1  1  1  1  1  1  1  1  1  1  1  1  1  1  1  1
TYPE ASSIGNMENTS      1  1  1  1  1  1  1  1  1  1  1  1  1  1  1  2  2  2  2  2
TYPE ASSIGNMENTS      2  2  2  2  2  2  3  3  3  3  3  3  3  3  3  3  3  4  4  4
TYPE ASSIGNMENTS      4  4  4  4  4  4  4  4  2  2  2  2  2  2  2  2  2  2  2  3
TYPE ASSIGNMENTS      3  3  3  3  3  3  3  3  3  3  4  4  4  4  4  4  4  4  4  4
TYPE ASSIGNMENTS      4  2  2  2  2  2  2  2  2  2  2  2  3  3  3  3  3  3  3  3
TYPE ASSIGNMENTS      3  3  3  4  4  4  4  4  4  4  4  4  4  4  2  3  4  2  3  4
TYPE ASSIGNMENTS      2  3  4  5  5  5  5  5  5  5  6  6  6  6  6  6  6  7  7  7
TYPE ASSIGNMENTS      7  7  7  7  8  8  8  8  8  8  8  9  9  9  9  9  9  9 10 10
TYPE ASSIGNMENTS     10 10 10 10 10  5  6  7  8  9 10  5  6  7  8  9 10  5  6  7
TYPE ASSIGNMENTS      8  9 10 11 12 13 17 14 15 18 19 16 20 11 12 13 17 14 15 18
TYPE ASSIGNMENTS     19 16 20
EXPONENTS  0.4230000D+06 0.6334000D+05 0.1441000D+05 0.4077000D+04 0.1328000D+04
EXPONENTS  0.4786000D+03 0.1862000D+03 0.7692000D+02 0.3332000D+02 0.1500000D+02
EXPONENTS  0.6869000D+01 0.2683000D+01 0.1109000D+01 0.6015000D-01 0.4230000D+06
EXPONENTS  0.6334000D+05 0.1441000D+05 0.4077000D+04 0.1328000D+04 0.4786000D+03
EXPONENTS  0.1862000D+03 0.7692000D+02 0.3332000D+02 0.1500000D+02 0.6869000D+01
EXPONENTS  0.2683000D+01 0.1109000D+01 0.6015000D-01 0.4230000D+06 0.6334000D+05
EXPONENTS  0.1441000D+05 0.4077000D+04 0.1328000D+04 0.4786000D+03 0.1862000D+03
EXPONENTS  0.7692000D+02 0.3332000D+02 0.1500000D+02 0.6869000D+01 0.2683000D+01
EXPONENTS  0.1109000D+01 0.6015000D-01 0.4540000D+00 0.2382000D-01 0.6650000D-02
EXPONENTS  0.2433000D+03 0.5739000D+02 0.1810000D+02 0.6575000D+01 0.2521000D+01
EXPONENTS  0.9607000D+00 0.3512000D+00 0.9827000D-01 0.2433000D+03 0.5739000D+02
EXPONENTS  0.1810000D+02 0.6575000D+01 0.2521000D+01 0.9607000D+00 0.3512000D+00
EXPONENTS  0.9827000D-01 0.2433000D+03 0.5739000D+02 0.1810000D+02 0.6575000D+01
EXPONENTS  0.2521000D+01 0.9607000D+00 0.3512000D+00 0.9827000D-01 0.2433000D+03
EXPONENTS  0.5739000D+02 0.1810000D+02 0.6575000D+01 0.2521000D+01 0.9607000D+00
EXPONENTS  0.3512000D+00 0.9827000D-01 0.2433000D+03 0.5739000D+02 0.1810000D+02
EXPONENTS  0.6575000D+01 0.2521000D+01 0.9607000D+00 0.3512000D+00 0.9827000D-01
EXPONENTS  0.2433000D+03 0.5739000D+02 0.1810000D+02 0.6575000D+01 0.2521000D+01
EXPONENTS  0.9607000D+00 0.3512000D+00 0.9827000D-01 0.3734000D-01 0.3734000D-01
EXPONENTS  0.3734000D-01 0.1500000D-01 0.1500000D-01 0.1500000D-01 0.7000000D-02
EXPONENTS  0.7000000D-02 0.7000000D-02 0.1367000D+00 0.1367000D+00 0.1367000D+00
EXPONENTS  0.1367000D+00 0.1367000D+00 0.1367000D+00 0.6360000D-01 0.6360000D-01
EXPONENTS  0.6360000D-01 0.6360000D-01 0.6360000D-01 0.6360000D-01 0.2230000D-01
EXPONENTS  0.2230000D-01 0.2230000D-01 0.2230000D-01 0.2230000D-01 0.2230000D-01
EXPONENTS  0.1397000D+00 0.1397000D+00 0.1397000D+00 0.1397000D+00 0.1397000D+00
EXPONENTS  0.1397000D+00 0.1397000D+00 0.1397000D+00 0.1397000D+00 0.1397000D+00
EXPONENTS  0.7140000D-01 0.7140000D-01 0.7140000D-01 0.7140000D-01 0.7140000D-01
EXPONENTS  0.7140000D-01 0.7140000D-01 0.7140000D-01 0.7140000D-01 0.7140000D-01
EXPONENTS  0.1063900D+08 0.1593400D+07 0.3626100D+06 0.1027000D+06 0.3350100D+05
EXPONENTS  0.1209300D+05 0.4715900D+04 0.1955600D+04 0.8526100D+03 0.3876700D+03
EXPONENTS  0.1826800D+03 0.8824500D+02 0.3926300D+02 0.1923400D+02 0.9405700D+01
EXPONENTS  0.4160100D+01 0.1899500D+01 0.3011400D+00 0.1063900D+08 0.1593400D+07
EXPONENTS  0.3626100D+06 0.1027000D+06 0.3350100D+05 0.1209300D+05 0.4715900D+04
EXPONENTS  0.1955600D+04 0.8526100D+03 0.3876700D+03 0.1826800D+03 0.8824500D+02
EXPONENTS  0.3926300D+02 0.1923400D+02 0.9405700D+01 0.4160100D+01 0.1899500D+01
EXPONENTS  0.3011400D+00 0.1063900D+08 0.1593400D+07 0.3626100D+06 0.1027000D+06
EXPONENTS  0.3350100D+05 0.1209300D+05 0.4715900D+04 0.1955600D+04 0.8526100D+03
EXPONENTS  0.3876700D+03 0.1826800D+03 0.8824500D+02 0.3926300D+02 0.1923400D+02
EXPONENTS  0.9405700D+01 0.4160100D+01 0.1899500D+01 0.3011400D+00 0.1063900D+08
EXPONENTS  0.1593400D+07 0.3626100D+06 0.1027000D+06 0.3350100D+05 0.1209300D+05
EXPONENTS  0.4715900D+04 0.1955600D+04 0.8526100D+03 0.3876700D+03 0.1826800D+03
EXPONENTS  0.8824500D+02 0.3926300D+02 0.1923400D+02 0.9405700D+01 0.4160100D+01
EXPONENTS  0.1899500D+01 0.3011400D+00 0.6047200D+00 0.1251500D+00 0.4559300D-01
EXPONENTS  0.8676500D+04 0.2055900D+04 0.6662300D+03 0.2531000D+03 0.1061200D+03
EXPONENTS  0.4724200D+02 0.2182500D+02 0.9968400D+01 0.4517100D+01 0.1998200D+01
EXPONENTS  0.2814500D+00 0.8676500D+04 0.2055900D+04 0.6662300D+03 0.2531000D+03
EXPONENTS  0.1061200D+03 0.4724200D+02 0.2182500D+02 0.9968400D+01 0.4517100D+01
EXPONENTS  0.1998200D+01 0.2814500D+00 0.8676500D+04 0.2055900D+04 0.6662300D+03
EXPONENTS  0.2531000D+03 0.1061200D+03 0.4724200D+02 0.2182500D+02 0.9968400D+01
EXPONENTS  0.4517100D+01 0.1998200D+01 0.2814500D+00 0.8676500D+04 0.2055900D+04
EXPONENTS  0.6662300D+03 0.2531000D+03 0.1061200D+03 0.4724200D+02 0.2182500D+02
EXPONENTS  0.9968400D+01 0.4517100D+01 0.1998200D+01 0.2814500D+00 0.8676500D+04
EXPONENTS  0.2055900D+04 0.6662300D+03 0.2531000D+03 0.1061200D+03 0.4724200D+02
EXPONENTS  0.2182500D+02 0.9968400D+01 0.4517100D+01 0.1998200D+01 0.2814500D+00
EXPONENTS  0.8676500D+04 0.2055900D+04 0.6662300D+03 0.2531000D+03 0.1061200D+03
EXPONENTS  0.4724200D+02 0.2182500D+02 0.9968400D+01 0.4517100D+01 0.1998200D+01
EXPONENTS  0.2814500D+00 0.8676500D+04 0.2055900D+04 0.6662300D+03 0.2531000D+03
EXPONENTS  0.1061200D+03 0.4724200D+02 0.2182500D+02 0.9968400D+01 0.4517100D+01
EXPONENTS  0.1998200D+01 0.2814500D+00 0.8676500D+04 0.2055900D+04 0.6662300D+03
EXPONENTS  0.2531000D+03 0.1061200D+03 0.4724200D+02 0.2182500D+02 0.9968400D+01
EXPONENTS  0.4517100D+01 0.1998200D+01 0.2814500D+00 0.8676500D+04 0.2055900D+04
EXPONENTS  0.6662300D+03 0.2531000D+03 0.1061200D+03 0.4724200D+02 0.2182500D+02
EXPONENTS  0.9968400D+01 0.4517100D+01 0.1998200D+01 0.2814500D+00 0.7098800D+00
EXPONENTS  0.7098800D+00 0.7098800D+00 0.1020400D+00 0.1020400D+00 0.1020400D+00
EXPONENTS  0.3514200D-01 0.3514200D-01 0.3514200D-01 0.4038300D+03 0.1211700D+03
EXPONENTS  0.4634500D+02 0.1972100D+02 0.8862400D+01 0.3996200D+01 0.1763600D+01
EXPONENTS  0.4038300D+03 0.1211700D+03 0.4634500D+02 0.1972100D+02 0.8862400D+01
EXPONENTS  0.3996200D+01 0.1763600D+01 0.4038300D+03 0.1211700D+03 0.4634500D+02
EXPONENTS  0.1972100D+02 0.8862400D+01 0.3996200D+01 0.1763600D+01 0.4038300D+03
EXPONENTS  0.1211700D+03 0.4634500D+02 0.1972100D+02 0.8862400D+01 0.3996200D+01
EXPONENTS  0.1763600D+01 0.4038300D+03 0.1211700D+03 0.4634500D+02 0.1972100D+02
EXPONENTS  0.8862400D+01 0.3996200D+01 0.1763600D+01 0.4038300D+03 0.1211700D+03
EXPONENTS  0.4634500D+02 0.1972100D+02 0.8862400D+01 0.3996200D+01 0.1763600D+01
EXPONENTS  0.7061900D+00 0.7061900D+00 0.7061900D+00 0.7061900D+00 0.7061900D+00
EXPONENTS  0.7061900D+00 0.2639000D+00 0.2639000D+00 0.2639000D+00 0.2639000D+00
EXPONENTS  0.2639000D+00 0.2639000D+00 0.1047000D+00 0.1047000D+00 0.1047000D+00
EXPONENTS  0.1047000D+00 0.1047000D+00 0.1047000D+00 0.5515000D+00 0.5515000D+00
EXPONENTS  0.5515000D+00 0.5515000D+00 0.5515000D+00 0.5515000D+00 0.5515000D+00
EXPONENTS  0.5515000D+00 0.5515000D+00 0.5515000D+00 0.2580000D+00 0.2580000D+00
EXPONENTS  0.2580000D+00 0.2580000D+00 0.2580000D+00 0.2580000D+00 0.2580000D+00
EXPONENTS  0.2580000D+00 0.2580000D+00 0.2580000D+00
MO    1     MO 0.0        OCC NO =    2.0000000  ORB. ENERGY = -485.270727
 -0.62466008D-05 -0.11690845D-04 -0.20250674D-04 -0.33105294D-04 -0.51411231D-04
 -0.75278336D-04 -0.10088738D-03 -0.11575308D-03 -0.10083080D-03 -0.51582088D-04
 -0.99646773D-05 -0.30894961D-06 -0.13475179D-07  0.13444429D-10  0.19248948D-04
  0.36113386D-04  0.62387913D-04  0.10264718D-03  0.15946953D-03  0.23876798D-03
  0.32914298D-03  0.41452764D-03  0.42531267D-03  0.32606817D-03  0.49043540D-04
 -0.18656516D-03 -0.15976626D-03 -0.13011086D-06 -0.14221639D-04 -0.26630675D-04
 -0.46135594D-04 -0.75638195D-04 -0.11809690D-03 -0.17596557D-03 -0.24483469D-03
 -0.30701240D-03 -0.32257396D-03 -0.24787636D-03 -0.41894796D-04  0.16661676D-03
  0.16172577D-03 -0.98390014D-04  0.26023644D-04 -0.63236070D-05  0.17307750D-06
  0.34779937D-18  0.44333378D-18  0.46617942D-18  0.37210013D-18  0.19395499D-18
  0.60585383D-19  0.69961040D-20  0.20706428D-22 -0.22466732D-18 -0.28637950D-18
 -0.30113706D-18 -0.24036483D-18 -0.12528875D-18 -0.39136228D-19 -0.45192604D-20
 -0.13375693D-22 -0.12998735D-02 -0.16569261D-02 -0.17423099D-02 -0.13906958D-02
 -0.72489194D-03 -0.22643323D-03 -0.26147403D-04 -0.77388691D-07 -0.33486072D-18
 -0.43135536D-18 -0.45363360D-18 -0.37150345D-18 -0.19130230D-18 -0.67091558D-19
 -0.81394053D-20  0.15750975D-19  0.21835832D-18  0.28128121D-18  0.29580857D-18
  0.24225256D-18  0.12474574D-18  0.43749532D-19  0.53076003D-20 -0.10271006D-19
  0.12316214D-02  0.15865297D-02  0.16684694D-02  0.13663938D-02  0.70361194D-03
  0.24676349D-03  0.29936822D-04 -0.57932260D-04  0.11216924D-19 -0.67193763D-20
 -0.92181722D-05 -0.24620423D-20  0.14102330D-20  0.54082477D-06  0.35777169D-21
 -0.19349167D-21 -0.53792268D-07  0.60636269D-05  0.60636269D-05 -0.12127254D-04
 -0.62325844D-22 -0.12140225D-20 -0.11620266D-22  0.15775475D-05  0.15775475D-05
 -0.31550950D-05  0.19118944D-22  0.14442966D-19 -0.87349635D-20 -0.12509285D-09
 -0.12509285D-09  0.25018571D-09  0.21724284D-24 -0.37625248D-21  0.22460968D-21
  0.95542033D-21 -0.50795225D-21 -0.12482054D-05  0.95184525D-21 -0.50570936D-21
  0.18723081D-05 -0.38181063D-20  0.20295661D-20  0.18723081D-05 -0.82214852D-22
 -0.92285948D-21  0.55223497D-21 -0.18303092D-06 -0.92236996D-21  0.55376598D-21
  0.27454638D-06  0.36909484D-20 -0.22104709D-20  0.27454638D-06  0.18605224D-22
  0.78327831D+00  0.14734419D+01  0.25506006D+01  0.41809223D+01  0.65494958D+01
  0.98444500D+01  0.14070192D+02  0.18678530D+02  0.21753685D+02  0.19980549D+02
  0.11683413D+02  0.30657860D+01  0.16760532D+00 -0.59989212D-02  0.16765092D-02
 -0.49781214D-03  0.84868352D-04  0.69240902D-05  0.45926708D-04  0.84381594D-04
  0.14591522D-03  0.23895657D-03  0.37622638D-03  0.56813870D-03  0.82930900D-03
  0.11420089D-02  0.14591816D-02  0.15906789D-02  0.13093737D-02  0.35902137D-03
 -0.72416939D-03 -0.70573470D-03 -0.15443463D-03 -0.52027606D-05 -0.17625291D-06
  0.44836466D-09 -0.11501358D-03 -0.22547269D-03 -0.39490982D-03 -0.64515415D-03
 -0.10175635D-02 -0.15354579D-02 -0.22512863D-02 -0.31082732D-02 -0.40298915D-02
 -0.44814766D-02 -0.38924383D-02 -0.11306837D-02  0.28504399D-02  0.41532918D-02
  0.71500403D-03 -0.17443037D-02 -0.83024458D-03  0.40095046D-05  0.39980713D-04
  0.86628550D-04  0.14747137D-03  0.24071299D-03  0.37946041D-03  0.57271535D-03
  0.83969404D-03  0.11608174D-02  0.15066245D-02  0.16831630D-02  0.14702810D-02
  0.43549867D-03 -0.11320464D-02 -0.17414700D-02 -0.30481042D-03  0.96150763D-03
  0.81617457D-03 -0.30450744D-03  0.28043641D-03  0.18244467D-03  0.50174700D-04
 -0.38319685D-15 -0.54981963D-15 -0.72799042D-15 -0.84062268D-15 -0.77929589D-15
 -0.50453037D-15 -0.17808069D-15 -0.20872593D-16 -0.30344886D-18 -0.44436708D-19
 -0.45687837D-21  0.19325787D-15  0.27729083D-15  0.36714780D-15  0.42395168D-15
  0.39302271D-15  0.25445007D-15  0.89811530D-16  0.10526686D-16  0.15303853D-18
  0.22410789D-19  0.23041771D-21  0.52373501D-04  0.75146700D-04  0.99498226D-04
  0.11489226D-03  0.10651041D-03  0.68956782D-04  0.24339212D-04  0.28527655D-05
  0.41473930D-07  0.60733954D-08  0.62443937D-10 -0.88604423D-16 -0.12790150D-15
 -0.17087335D-15 -0.20300278D-15 -0.19672526D-15 -0.13674915D-15 -0.44496861D-16
  0.20027119D-16  0.21635970D-16  0.55701142D-17 -0.54331320D-20  0.46229959D-16
  0.66733477D-16  0.89154329D-16  0.10591808D-15  0.10264274D-15  0.71349795D-16
  0.23216539D-16 -0.10449285D-16 -0.11288714D-16 -0.29062449D-17  0.28347735D-20
 -0.54719941D-03 -0.78988863D-03 -0.10552723D-02 -0.12536959D-02 -0.12149274D-02
 -0.84452954D-03 -0.27480181D-03  0.12368262D-03  0.13361850D-03  0.34399673D-04
 -0.33553705D-07  0.19333688D-16  0.28092707D-16  0.37349579D-16  0.44816910D-16
  0.43360558D-16  0.30780948D-16  0.95667959D-17 -0.54926507D-17 -0.63098363D-17
 -0.16756325D-17  0.60457343D-18 -0.11150278D-16 -0.16201849D-16 -0.21540546D-16
 -0.25847164D-16 -0.25007246D-16 -0.17752233D-16 -0.55174386D-17  0.31677652D-17
  0.36390590D-17  0.96638410D-18 -0.34867439D-18  0.40827061D-03  0.59323530D-03
  0.78871321D-03  0.94640126D-03  0.91564741D-03  0.65000304D-03  0.20202258D-03
 -0.11598862D-03 -0.13324518D-03 -0.35384428D-04  0.12766812D-04 -0.21448736D-17
  0.11256973D-17 -0.10292125D-05 -0.14172142D-18  0.83380800D-19 -0.65877661D-04
  0.55101841D-20 -0.31089330D-20 -0.33223098D-05 -0.16552480D-03 -0.17320387D-03
 -0.14757897D-03 -0.97191907D-04 -0.44792856D-04 -0.13413293D-04 -0.22821581D-05
 -0.16552480D-03 -0.17320387D-03 -0.14757897D-03 -0.97191907D-04 -0.44792856D-04
 -0.13413293D-04 -0.22821581D-05  0.33104960D-03  0.34640774D-03  0.29515794D-03
  0.19438381D-03  0.89585713D-04  0.26826587D-04  0.45643163D-05  0.15488702D-17
  0.16207258D-17  0.13809451D-17  0.90945675D-18  0.41914154D-18  0.12551261D-18
  0.21354907D-19  0.14097814D-16  0.14751844D-16  0.12569360D-16  0.82778740D-17
  0.38150257D-17  0.11424156D-17  0.19437233D-18 -0.53733306D-17 -0.56226116D-17
 -0.47907660D-17 -0.31550816D-17 -0.14540832D-17 -0.43542756D-18 -0.74084307D-19
  0.10788862D-04  0.10788862D-04 -0.21577724D-04 -0.18546245D-19 -0.30686468D-19
  0.14087848D-19 -0.59837174D-05 -0.59837174D-05  0.11967435D-04  0.21949180D-20
 -0.37475446D-19  0.23797782D-19 -0.38500483D-05 -0.38500483D-05  0.77000966D-05
 -0.15980029D-21  0.25041646D-19 -0.15760808D-19 -0.53121383D-20  0.39514343D-20
  0.96423246D-05 -0.87224860D-21  0.54494209D-20 -0.14463487D-04  0.16808663D-19
 -0.17303724D-19 -0.14463487D-04 -0.79580247D-21  0.25935232D-20 -0.16707327D-20
 -0.53194077D-05  0.22583072D-20 -0.19586228D-20  0.79791116D-05 -0.10038877D-19
  0.69708208D-20  0.79791116D-05 -0.21504686D-21
MO    2     MO 0.0        OCC NO =    2.0000000  ORB. ENERGY =  -63.258032
  0.10784322D-03  0.20183430D-03  0.34961379D-03  0.57153987D-03  0.88757913D-03
  0.12996281D-02  0.17417504D-02  0.19983964D-02  0.17407735D-02  0.89052885D-03
  0.17203322D-03  0.53338000D-05  0.23263960D-06 -0.23210871D-09 -0.33278655D-03
 -0.62434836D-03 -0.10785970D-02 -0.17746218D-02 -0.27569982D-02 -0.41279540D-02
 -0.56904074D-02 -0.71665850D-02 -0.73530426D-02 -0.56372483D-02 -0.84789207D-03
  0.32254425D-02  0.27621282D-02  0.22494291D-05  0.24612788D-03  0.46088582D-03
  0.79844921D-03  0.13090382D-02  0.20438531D-02  0.30453617D-02  0.42372503D-02
  0.53133337D-02  0.55826511D-02  0.42898912D-02  0.72505551D-03 -0.28835657D-02
 -0.27989195D-02  0.17027943D-02 -0.44586001D-03  0.10668366D-03 -0.29451087D-05
 -0.82318539D-17 -0.10493000D-16 -0.11033720D-16 -0.88070141D-17 -0.45906040D-17
 -0.14339590D-17 -0.16558658D-18 -0.49008799D-21  0.48104605D-16  0.61318100D-16
  0.64477911D-16  0.51465676D-16  0.26826180D-16  0.83796469D-17  0.96764069D-18
  0.28639343D-20  0.22514490D-01  0.28698827D-01  0.30177719D-01  0.24087578D-01
  0.12555508D-01  0.39219421D-02  0.45288671D-03  0.13404126D-05  0.76701003D-17
  0.98803431D-17  0.10390634D-16  0.85094146D-17  0.43818450D-17  0.15367553D-17
  0.18643589D-18 -0.36078152D-18 -0.52157854D-17 -0.67187843D-17 -0.70657899D-17
 -0.57865319D-17 -0.29797216D-17 -0.10450171D-17 -0.12677925D-18  0.24533695D-18
 -0.21325178D-01 -0.27470316D-01 -0.28889077D-01 -0.23658723D-01 -0.12182843D-01
 -0.42726403D-02 -0.51834764D-03  0.10030808D-02 -0.41401709D-18  0.22545705D-18
  0.15905180D-03  0.90605350D-19 -0.48947848D-19 -0.95544355D-05 -0.20238868D-19
  0.94695674D-20  0.95841610D-06 -0.10462912D-03 -0.10462912D-03  0.20925824D-03
 -0.34073306D-20  0.11526360D-18 -0.51790840D-19 -0.27391349D-04 -0.27391349D-04
  0.54782698D-04  0.27817374D-20 -0.43523139D-18  0.25690556D-18  0.15084988D-07
  0.15084988D-07 -0.30169977D-07  0.10363978D-21  0.37448940D-20 -0.40333597D-20
 -0.40935970D-19  0.21676150D-19  0.21310777D-04 -0.41141727D-19  0.21469075D-19
 -0.31966166D-04  0.16394964D-18 -0.86497526D-19 -0.31966166D-04 -0.84508377D-20
  0.29542694D-19 -0.17034905D-19  0.32175705D-05  0.29497978D-19 -0.16973853D-19
 -0.48263558D-05 -0.11812606D-18  0.68078568D-19 -0.48263558D-05  0.30604262D-20
  0.57703462D-03  0.10854724D-02  0.18790062D-02  0.30800508D-02  0.48249592D-02
  0.72523245D-02  0.10365393D-01  0.13760318D-01  0.16025759D-01  0.14719504D-01
  0.86070731D-02  0.22585390D-02  0.12347345D-03 -0.44193554D-05  0.12350704D-05
 -0.36673407D-06  0.62521810D-07  0.51009197D-08 -0.25371084D+00 -0.46614542D+00
 -0.80607286D+00 -0.13200570D+01 -0.20783704D+01 -0.31385429D+01 -0.45813142D+01
 -0.63087479D+01 -0.80608909D+01 -0.87873156D+01 -0.72333138D+01 -0.19833255D+01
  0.40004962D+01  0.38986583D+01  0.85313626D+00  0.28741375D-01  0.97366596D-03
 -0.24768806D-05  0.19914570D-02  0.39040534D-02  0.68378528D-02  0.11170826D-01
  0.17619084D-01  0.26586411D-01  0.38980961D-01  0.53819665D-01  0.69777462D-01
  0.77596644D-01  0.67397463D-01  0.19577757D-01 -0.49355289D-01 -0.71914134D-01
 -0.12380275D-01  0.30202571D-01  0.14375662D-01 -0.69424463D-04 -0.70469869D-03
 -0.15269119D-02 -0.25993254D-02 -0.42427990D-02 -0.66883563D-02 -0.10094661D-01
 -0.14800419D-01 -0.20460528D-01 -0.26555713D-01 -0.29667375D-01 -0.25915124D-01
 -0.76760849D-02  0.19953411D-01  0.30695091D-01  0.53725782D-02 -0.16947501D-01
 -0.14385865D-01  0.53672378D-02 -0.53523784D-02 -0.32080664D-02 -0.85686771D-03
 -0.10009371D-12 -0.14361675D-12 -0.19015621D-12 -0.21957655D-12 -0.20355756D-12
 -0.13178688D-12 -0.46515928D-13 -0.54520679D-14 -0.79262976D-16 -0.11607180D-16
 -0.11933984D-18  0.61151040D-13  0.87740915D-13  0.11617364D-12  0.13414763D-12
  0.12436103D-12  0.80513597D-13  0.28418343D-13  0.33308748D-14  0.48424755D-16
  0.70912664D-17  0.72909231D-19 -0.15128197D-01 -0.21706285D-01 -0.28740275D-01
 -0.33186875D-01 -0.30765759D-01 -0.19918314D-01 -0.70304332D-02 -0.82402739D-03
 -0.11979833D-04 -0.17543132D-05 -0.18037064D-07  0.25195441D-14  0.36369908D-14
  0.48589328D-14  0.57725613D-14  0.55940543D-14  0.38885813D-14  0.12653071D-14
 -0.56948859D-15 -0.61523768D-15 -0.15839106D-15  0.15449585D-18 -0.16274954D-14
 -0.23493083D-14 -0.31386198D-14 -0.37287766D-14 -0.36134703D-14 -0.25118228D-14
 -0.81732305D-15  0.36786023D-15  0.39741178D-15  0.10231245D-15 -0.99796345D-19
  0.97522845D-02  0.14077535D-01  0.18807250D-01  0.22343590D-01  0.21652651D-01
  0.15051355D-01  0.48975664D-02 -0.22042936D-02 -0.23813725D-02 -0.61307705D-03
  0.59800005D-06 -0.50863270D-15 -0.73906588D-15 -0.98259666D-15 -0.11790480D-14
 -0.11407341D-14 -0.80978841D-15 -0.25168427D-15  0.14450123D-15  0.16599984D-15
  0.44082716D-16 -0.15905181D-16  0.32163618D-15  0.46735163D-15  0.62134942D-15
  0.74557629D-15  0.72134836D-15  0.51207334D-15  0.15915368D-15 -0.91376004D-16
 -0.10497074D-15 -0.27875904D-16  0.10057713D-16 -0.72388574D-02 -0.10518381D-01
 -0.13984309D-01 -0.16780203D-01 -0.16234921D-01 -0.11524903D-01 -0.35819690D-02
  0.20565406D-02  0.23625086D-02  0.62738493D-03 -0.22636244D-03  0.56128117D-16
 -0.35636550D-16  0.23502138D-04  0.38354712D-17 -0.23622706D-17  0.11414725D-02
 -0.62032872D-19  0.61002100D-19  0.56961988D-04  0.25886386D-02  0.27087313D-02
  0.23079841D-02  0.15199820D-02  0.70051445D-03  0.20977019D-03  0.35690619D-04
  0.25886386D-02  0.27087313D-02  0.23079841D-02  0.15199820D-02  0.70051445D-03
  0.20977019D-03  0.35690619D-04 -0.51772771D-02 -0.54174627D-02 -0.46159682D-02
 -0.30399640D-02 -0.14010289D-02 -0.41954037D-03 -0.71381237D-04  0.63291795D-15
  0.66228044D-15  0.56429838D-15  0.37163314D-15  0.17127465D-15  0.51288472D-16
  0.87262986D-17  0.19591595D-14  0.20500493D-14  0.17467518D-14  0.11503681D-14
  0.53017040D-15  0.15876039D-15  0.27011734D-16 -0.62531888D-15 -0.65432884D-15
 -0.55752319D-15 -0.36717117D-15 -0.16921826D-15 -0.50672682D-16 -0.86215272D-17
 -0.18347385D-03 -0.18347385D-03  0.36694771D-03 -0.32834844D-17 -0.10163051D-16
  0.39982265D-17  0.10246579D-03  0.10246579D-03 -0.20493159D-03  0.39112269D-18
  0.24723335D-17 -0.12673184D-17  0.66806452D-04  0.66806452D-04 -0.13361290D-03
 -0.36689784D-19 -0.84716281D-18  0.48508728D-18 -0.96444966D-19 -0.94260650D-19
 -0.16651196D-03 -0.11396270D-18  0.15528858D-18  0.24976794D-03  0.40329760D-18
  0.12749337D-18  0.24976794D-03  0.69203045D-21 -0.38883842D-19  0.35929277D-19
  0.92020864D-04 -0.30603833D-19  0.14848992D-19 -0.13803130D-03  0.14725536D-18
 -0.12263682D-18 -0.13803130D-03  0.50312704D-20
MO    3     MO 0.0        OCC NO =    2.0000000  ORB. ENERGY =  -57.077454
  0.66726945D-06  0.12488302D-05  0.21632014D-05  0.35363475D-05  0.54918098D-05
  0.80413229D-05  0.10776912D-04  0.12364884D-04  0.10770867D-04  0.55100610D-05
  0.10644389D-05  0.33002371D-07  0.14394349D-08 -0.14361501D-11  0.28935197D-05
  0.54285977D-05  0.93782088D-05  0.15430020D-04  0.23971608D-04  0.35891824D-04
  0.49477078D-04  0.62312179D-04  0.63933394D-04  0.49014869D-04  0.73722704D-05
 -0.28044648D-04 -0.24016212D-04 -0.19558385D-07 -0.35739644D-05 -0.66924132D-05
 -0.11594091D-04 -0.19008233D-04 -0.29678305D-04 -0.44220972D-04 -0.61528103D-04
 -0.77153654D-04 -0.81064347D-04 -0.62292489D-04 -0.10528358D-04  0.41871571D-04
  0.40642443D-04 -0.24725871D-04 -0.49511178D-04 -0.30854158D-04  0.84500613D-06
  0.42962337D-15  0.54763340D-15  0.57585375D-15  0.45964117D-15  0.23958525D-15
  0.74838825D-16  0.86420219D-17  0.25577865D-19 -0.11022800D-14 -0.14050571D-14
 -0.14774617D-14 -0.11792964D-14 -0.61470126D-15 -0.19201316D-15 -0.22172741D-16
 -0.65624851D-19  0.12042320D-03  0.15350135D-03  0.16141149D-03  0.12883717D-03
  0.67155615D-04  0.20977282D-04  0.24223541D-05  0.71694618D-08 -0.30588787D-15
 -0.39403358D-15 -0.41438426D-15 -0.33936019D-15 -0.17475042D-15 -0.61286655D-16
 -0.74351668D-17  0.14388168D-16  0.79816258D-16  0.10281639D-15  0.10812656D-15
  0.88550293D-16  0.45598161D-16  0.15991715D-16  0.19400808D-17 -0.37543486D-17
 -0.21515214D-03 -0.27715114D-03 -0.29146518D-03 -0.23869555D-03 -0.12291408D-03
 -0.43107154D-04 -0.52296683D-05  0.10120196D-04  0.99178020D-17 -0.26935790D-17
 -0.14744036D-04 -0.19125474D-17  0.48939021D-18 -0.42576850D-06  0.23156675D-18
 -0.60319933D-19  0.31944314D-07 -0.85858109D-05 -0.85858109D-05  0.17171622D-04
  0.52941999D-21 -0.13187387D-17  0.57736299D-18  0.13061359D-05  0.13061359D-05
 -0.26122717D-05 -0.43320803D-23  0.12926904D-16 -0.34374315D-17  0.12150066D-06
  0.12150066D-06 -0.24300133D-06 -0.10963124D-22 -0.32319365D-18  0.76160421D-19
  0.90288309D-18 -0.26666438D-18  0.48498053D-05  0.90289291D-18 -0.26668833D-18
 -0.72747080D-05 -0.36115422D-17  0.10666815D-17 -0.72747080D-05  0.10842504D-20
 -0.81514049D-18  0.21788226D-18 -0.37476925D-06 -0.81515468D-18  0.21790277D-18
  0.56215388D-06  0.32605762D-17 -0.87154953D-18  0.56215388D-06 -0.12226041D-21
  0.20671239D-05  0.38885119D-05  0.67312057D-05  0.11033734D-04  0.17284558D-04
  0.25980163D-04  0.37132179D-04  0.49293891D-04  0.57409431D-04  0.52730007D-04
  0.30833309D-04  0.80908145D-05  0.44232167D-06 -0.15831555D-07  0.44244200D-08
 -0.13137596D-08  0.22397326D-09  0.18273138D-10 -0.64464619D-04 -0.11844148D-03
 -0.20481262D-03 -0.33540928D-03 -0.52808684D-03 -0.79746288D-03 -0.11640523D-02
 -0.16029707D-02 -0.20481674D-02 -0.22327424D-02 -0.18378908D-02 -0.50393718D-03
  0.10164740D-02  0.99059829D-03  0.21677081D-03  0.73028091D-05  0.24739584D-06
 -0.62934310D-09  0.28257554D-05  0.55396125D-05  0.97024940D-05  0.15850718D-04
  0.25000400D-04  0.37724487D-04  0.55311594D-04  0.76366805D-04  0.99009941D-04
  0.11010488D-03  0.95632868D-04  0.27779638D-04 -0.70032129D-04 -0.10204175D-03
 -0.17566852D-04  0.42855596D-04  0.20398183D-04 -0.98509057D-07 -0.22982434D-05
 -0.49797385D-05 -0.84772151D-05 -0.13837098D-04 -0.21812827D-04 -0.32921856D-04
 -0.48268806D-04 -0.66728198D-04 -0.86606506D-04 -0.96754612D-04 -0.84517344D-04
 -0.25034120D-04  0.65074331D-04  0.10010632D-03  0.17521662D-04 -0.55271115D-04
 -0.46916818D-04  0.17504245D-04  0.29790015D-04 -0.10643385D-03  0.11017362D-03
  0.77274037D-10  0.11087456D-09  0.14680381D-09  0.16951681D-09  0.15714988D-09
  0.10174170D-09  0.35911083D-10  0.42090886D-11  0.61192358D-13  0.89609397D-14
  0.92132376D-16 -0.19757889D-10 -0.28349072D-10 -0.37535678D-10 -0.43343074D-10
 -0.40181023D-10 -0.26013927D-10 -0.91819609D-11 -0.10762050D-11 -0.15646029D-13
 -0.22911867D-14 -0.23556958D-16  0.52012926D+02  0.74629339D+02  0.98813213D+02
  0.11410126D+03  0.10577712D+03  0.68482036D+02  0.24171644D+02  0.28331251D+01
  0.41188395D-01  0.60315820D-02  0.62014030D-04 -0.13107656D-13 -0.18921053D-13
 -0.25278074D-13 -0.30031128D-13 -0.29102464D-13 -0.20229925D-13 -0.65826236D-14
  0.29627030D-14  0.32007077D-14  0.82401240D-15 -0.80374801D-18  0.33769102D-14
  0.48746087D-14  0.65123607D-14  0.77368844D-14  0.74976340D-14  0.52118120D-14
  0.16958736D-14 -0.76327772D-15 -0.82459459D-15 -0.21228935D-15  0.20706866D-18
 -0.13018120D-01 -0.18791806D-01 -0.25105403D-01 -0.29825990D-01 -0.28903670D-01
 -0.20091738D-01 -0.65376587D-02  0.29424652D-02  0.31788442D-02  0.81838370D-03
 -0.79825773D-06  0.13897498D-13  0.20193681D-13  0.26847733D-13  0.32215421D-13
  0.31168563D-13  0.22126050D-13  0.68768320D-14 -0.39482432D-14 -0.45356549D-14
 -0.12044830D-14  0.43458123D-15 -0.35639168D-14 -0.51785293D-14 -0.68849147D-14
 -0.82614210D-14 -0.79929614D-14 -0.56740719D-14 -0.17635158D-14  0.10124995D-14
  0.11631372D-14  0.30888131D-15 -0.11144534D-15  0.12197791D-01  0.17723932D-01
  0.23564173D-01  0.28275376D-01  0.27356551D-01  0.19419966D-01  0.60357743D-02
 -0.34653608D-02 -0.39809303D-02 -0.10571710D-02  0.38143061D-03 -0.20038253D-14
  0.51267801D-15 -0.14540578D-02 -0.12200427D-15  0.31378546D-16 -0.68301982D-04
  0.41172528D-17 -0.90127044D-18 -0.29874790D-05  0.11551308D-02  0.12087199D-02
  0.10298941D-02  0.67826309D-03  0.31259127D-03  0.93605961D-04  0.15926261D-04
  0.11551308D-02  0.12087199D-02  0.10298941D-02  0.67826309D-03  0.31259127D-03
  0.93605961D-04  0.15926261D-04 -0.23102616D-02 -0.24174398D-02 -0.20597881D-02
 -0.13565262D-02 -0.62518253D-03 -0.18721192D-03 -0.31852521D-04 -0.22133870D-16
 -0.23160710D-16 -0.19734165D-16 -0.12996439D-16 -0.59896720D-17 -0.17936170D-17
 -0.30516872D-18 -0.23054994D-13 -0.24124567D-13 -0.20555422D-13 -0.13537300D-13
 -0.62389383D-14 -0.18682602D-14 -0.31786863D-15  0.12831090D-13  0.13426353D-13
  0.11439972D-13  0.75340861D-14  0.34722360D-14  0.10397667D-14  0.17690749D-15
 -0.31713489D-04 -0.31713489D-04  0.63426978D-04  0.18588252D-18  0.17410034D-15
 -0.76996602D-16  0.19800546D-04  0.19800546D-04 -0.39601093D-04 -0.18114591D-19
 -0.53651766D-16  0.18136385D-16 -0.38703564D-05 -0.38703564D-05  0.77407127D-05
  0.14139112D-20  0.24343164D-16 -0.67125912D-17 -0.69336089D-17  0.16946711D-17
  0.11931743D-04 -0.69663768D-17  0.17631544D-17 -0.17897615D-04  0.27767203D-16
 -0.68471678D-17 -0.17897615D-04 -0.12535592D-18  0.21634797D-17 -0.50560713D-18
 -0.15310137D-05  0.21669360D-17 -0.50975296D-18  0.22965206D-05 -0.86573752D-17
  0.20265744D-17  0.22965206D-05  0.14515882D-19