 Molden2AIM, Version 4.0.0 (06/02/2016)           Time: Fri Jun 29 22:38:21 2018
GAUSSIAN              7 MOL ORBITALS    217 PRIMITIVES        2 NUCLEI
  Na   1    (CENTRE  1)   0.00000000  0.00000000 -3.25489073  CHARGE = 11.0
  Li   2    (CENTRE  2)   0.00000000  0.00000000  2.28668955  CHARGE =  3.0
CENTRE ASSIGNMENTS    1  1  1  1  1  1  1  1  1  1  1  1  1  1  1  1  1  1  1  1
CENTRE ASSIGNMENTS    1  1  1  1  1  1  1  1  1  1  1  1  1  1  1  1  1  1  1  1
CENTRE ASSIGNMENTS    1  1  1  1  1  1  1  1  1  1  1  1  1  1  1  1  1  1  1  1
CENTRE ASSIGNMENTS    1  1  1  1  1  1  1  1  1  1  1  1  1  1  1  1  1  1  1  1
CENTRE ASSIGNMENTS    1  1  1  1  1  1  1  1  1  1  1  1  1  1  1  1  1  1  1  1
CENTRE ASSIGNMENTS    1  1  1  1  1  1  1  1  1  1  1  1  1  1  1  1  1  1  1  1
CENTRE ASSIGNMENTS    1  1  1  1  1  1  1  1  1  1  1  1  1  1  1  1  1  1  1  1
CENTRE ASSIGNMENTS    2  2  2  2  2  2  2  2  2  2  2  2  2  2  2  2  2  2  2  2
CENTRE ASSIGNMENTS    2  2  2  2  2  2  2  2  2  2  2  2  2  2  2  2  2  2  2  2
CENTRE ASSIGNMENTS    2  2  2  2  2  2  2  2  2  2  2  2  2  2  2  2  2  2  2  2
CENTRE ASSIGNMENTS    2  2  2  2  2  2  2  2  2  2  2  2  2  2  2  2  2
TYPE ASSIGNMENTS      1  1  1  1  1  1  1  1  1  1  1  1  1  1  1  1  1  1  1  1
TYPE ASSIGNMENTS      1  1  1  1  1  1  1  1  1  1  1  1  1  1  1  1  1  1  1  1
TYPE ASSIGNMENTS      1  1  1  1  1  2  2  2  2  2  2  2  2  3  3  3  3  3  3  3
TYPE ASSIGNMENTS      3  4  4  4  4  4  4  4  4  2  2  2  2  2  2  2  2  3  3  3
TYPE ASSIGNMENTS      3  3  3  3  3  4  4  4  4  4  4  4  4  2  3  4  2  3  4  2
TYPE ASSIGNMENTS      3  4  5  6  7  8  9 10  5  6  7  8  9 10  5  6  7  8  9 10
TYPE ASSIGNMENTS     11 12 13 17 14 15 18 19 16 20 11 12 13 17 14 15 18 19 16 20
TYPE ASSIGNMENTS      1  1  1  1  1  1  1  1  1  1  1  1  1  1  1  1  1  1  1  1
TYPE ASSIGNMENTS      1  2  2  2  3  3  3  4  4  4  2  3  4  2  3  4  2  3  4  5
TYPE ASSIGNMENTS      6  7  8  9 10  5  6  7  8  9 10  5  6  7  8  9 10 11 12 13
TYPE ASSIGNMENTS     17 14 15 18 19 16 20 11 12 13 17 14 15 18 19 16 20
EXPONENTS  0.4230000D+06 0.6334000D+05 0.1441000D+05 0.4077000D+04 0.1328000D+04
EXPONENTS  0.4786000D+03 0.1862000D+03 0.7692000D+02 0.3332000D+02 0.1500000D+02
EXPONENTS  0.6869000D+01 0.2683000D+01 0.1109000D+01 0.6015000D-01 0.4230000D+06
EXPONENTS  0.6334000D+05 0.1441000D+05 0.4077000D+04 0.1328000D+04 0.4786000D+03
EXPONENTS  0.1862000D+03 0.7692000D+02 0.3332000D+02 0.1500000D+02 0.6869000D+01
EXPONENTS  0.2683000D+01 0.1109000D+01 0.6015000D-01 0.4230000D+06 0.6334000D+05
EXPONENTS  0.1441000D+05 0.4077000D+04 0.1328000D+04 0.4786000D+03 0.1862000D+03
EXPONENTS  0.7692000D+02 0.3332000D+02 0.1500000D+02 0.6869000D+01 0.2683000D+01
EXPONENTS  0.1109000D+01 0.6015000D-01 0.4540000D+00 0.2382000D-01 0.6650000D-02
EXPONENTS  0.2433000D+03 0.5739000D+02 0.1810000D+02 0.6575000D+01 0.2521000D+01
EXPONENTS  0.9607000D+00 0.3512000D+00 0.9827000D-01 0.2433000D+03 0.5739000D+02
EXPONENTS  0.1810000D+02 0.6575000D+01 0.2521000D+01 0.9607000D+00 0.3512000D+00
EXPONENTS  0.9827000D-01 0.2433000D+03 0.5739000D+02 0.1810000D+02 0.6575000D+01
EXPONENTS  0.2521000D+01 0.9607000D+00 0.3512000D+00 0.9827000D-01 0.2433000D+03
EXPONENTS  0.5739000D+02 0.1810000D+02 0.6575000D+01 0.2521000D+01 0.9607000D+00
EXPONENTS  0.3512000D+00 0.9827000D-01 0.2433000D+03 0.5739000D+02 0.1810000D+02
EXPONENTS  0.6575000D+01 0.2521000D+01 0.9607000D+00 0.3512000D+00 0.9827000D-01
EXPONENTS  0.2433000D+03 0.5739000D+02 0.1810000D+02 0.6575000D+01 0.2521000D+01
EXPONENTS  0.9607000D+00 0.3512000D+00 0.9827000D-01 0.3734000D-01 0.3734000D-01
EXPONENTS  0.3734000D-01 0.1500000D-01 0.1500000D-01 0.1500000D-01 0.7000000D-02
EXPONENTS  0.7000000D-02 0.7000000D-02 0.1367000D+00 0.1367000D+00 0.1367000D+00
EXPONENTS  0.1367000D+00 0.1367000D+00 0.1367000D+00 0.6360000D-01 0.6360000D-01
EXPONENTS  0.6360000D-01 0.6360000D-01 0.6360000D-01 0.6360000D-01 0.2230000D-01
EXPONENTS  0.2230000D-01 0.2230000D-01 0.2230000D-01 0.2230000D-01 0.2230000D-01
EXPONENTS  0.1397000D+00 0.1397000D+00 0.1397000D+00 0.1397000D+00 0.1397000D+00
EXPONENTS  0.1397000D+00 0.1397000D+00 0.1397000D+00 0.1397000D+00 0.1397000D+00
EXPONENTS  0.7140000D-01 0.7140000D-01 0.7140000D-01 0.7140000D-01 0.7140000D-01
EXPONENTS  0.7140000D-01 0.7140000D-01 0.7140000D-01 0.7140000D-01 0.7140000D-01
EXPONENTS  0.5988000D+04 0.8989000D+03 0.2059000D+03 0.5924000D+02 0.1987000D+02
EXPONENTS  0.7406000D+01 0.2930000D+01 0.1189000D+01 0.4798000D+00 0.5988000D+04
EXPONENTS  0.8989000D+03 0.2059000D+03 0.5924000D+02 0.1987000D+02 0.7406000D+01
EXPONENTS  0.2930000D+01 0.1189000D+01 0.4798000D+00 0.7509000D-01 0.2832000D-01
EXPONENTS  0.7600000D-02 0.3266000D+01 0.6511000D+00 0.1696000D+00 0.3266000D+01
EXPONENTS  0.6511000D+00 0.1696000D+00 0.3266000D+01 0.6511000D+00 0.1696000D+00
EXPONENTS  0.5578000D-01 0.5578000D-01 0.5578000D-01 0.2050000D-01 0.2050000D-01
EXPONENTS  0.2050000D-01 0.9100000D-02 0.9100000D-02 0.9100000D-02 0.1874000D+00
EXPONENTS  0.1874000D+00 0.1874000D+00 0.1874000D+00 0.1874000D+00 0.1874000D+00
EXPONENTS  0.8010000D-01 0.8010000D-01 0.8010000D-01 0.8010000D-01 0.8010000D-01
EXPONENTS  0.8010000D-01 0.3710000D-01 0.3710000D-01 0.3710000D-01 0.3710000D-01
EXPONENTS  0.3710000D-01 0.3710000D-01 0.1829000D+00 0.1829000D+00 0.1829000D+00
EXPONENTS  0.1829000D+00 0.1829000D+00 0.1829000D+00 0.1829000D+00 0.1829000D+00
EXPONENTS  0.1829000D+00 0.1829000D+00 0.8160000D-01 0.8160000D-01 0.8160000D-01
EXPONENTS  0.8160000D-01 0.8160000D-01 0.8160000D-01 0.8160000D-01 0.8160000D-01
EXPONENTS  0.8160000D-01 0.8160000D-01
MO    1     MO 0.0        OCC NO =    2.0000000  ORB. ENERGY =  -39.151163
  0.21359936D+00  0.39976252D+00  0.69246154D+00  0.11320188D+01  0.17579810D+01
  0.25741046D+01  0.34497929D+01  0.39581180D+01  0.34478581D+01  0.17638234D+01
  0.34073710D+00  0.10564376D-01  0.46077694D-03 -0.45972545D-06 -0.14250407D-03
 -0.26735510D-03 -0.46187103D-03 -0.75991901D-03 -0.11805870D-02 -0.17676503D-02
 -0.24367157D-02 -0.30688366D-02 -0.31486804D-02 -0.24139522D-02 -0.36307979D-03
  0.13811817D-02  0.11827837D-02  0.96323848D-06  0.48909080D-04  0.91584510D-04
  0.15866311D-03  0.26012435D-03  0.40614243D-03  0.60515630D-03  0.84200138D-03
  0.10558343D-02  0.11093515D-02  0.85246186D-03  0.14407875D-03 -0.57300516D-03
 -0.55618476D-03  0.33836924D-03 -0.63389129D-03  0.23030032D-03 -0.52085838D-05
 -0.11306290D-17 -0.14411931D-17 -0.15154598D-17 -0.12096261D-17 -0.63051047D-18
 -0.19695145D-18 -0.22742992D-19 -0.67312626D-22 -0.17111640D-17 -0.21811909D-17
 -0.22935908D-17 -0.18307231D-17 -0.95425361D-18 -0.29807853D-18 -0.34420653D-19
 -0.10187510D-21  0.19538630D-02  0.24905550D-02  0.26188969D-02  0.20903795D-02
  0.10895980D-02  0.34035581D-03  0.39302626D-04  0.11632432D-06 -0.97555250D-18
 -0.12566711D-17 -0.13215745D-17 -0.10823041D-17 -0.55732255D-18 -0.19545839D-18
 -0.23712596D-19  0.45887446D-19 -0.27467994D-18 -0.35383266D-18 -0.37210709D-18
 -0.30473727D-18 -0.15692167D-18 -0.55033940D-19 -0.66766007D-20  0.12920228D-19
 -0.21018828D-02 -0.27075686D-02 -0.28474067D-02 -0.23318850D-02 -0.12007828D-02
 -0.42112610D-03 -0.51090124D-04  0.98867085D-04  0.60492896D-20 -0.52389371D-20
  0.81931929D-04  0.33394598D-21  0.20537070D-21  0.42890648D-05 -0.59158518D-22
 -0.21947958D-22 -0.17480666D-06 -0.72374146D-05 -0.72374146D-05  0.14474829D-04
  0.15709526D-21  0.41632712D-20  0.16322878D-20 -0.58450999D-05 -0.58450999D-05
  0.11690200D-04 -0.45202984D-22  0.12722295D-19 -0.16243263D-20 -0.35835842D-06
 -0.35835842D-06  0.71671685D-06  0.45832368D-23 -0.11245057D-23 -0.11202708D-21
 -0.15392252D-21 -0.29847082D-21  0.35286051D-05 -0.15004411D-20  0.23831030D-21
 -0.52929077D-05  0.19622087D-20  0.65710215D-21 -0.52929077D-05  0.18078773D-21
 -0.52164541D-21  0.77415396D-22  0.12139824D-06 -0.38061362D-21  0.11426944D-22
 -0.18209737D-06  0.19455498D-20 -0.24367313D-21 -0.18209737D-06 -0.22854910D-22
 -0.34661205D-04 -0.64422575D-04 -0.10971054D-03 -0.17109623D-03 -0.23903117D-03
 -0.28492955D-03 -0.27011228D-03 -0.17154860D-03 -0.42127291D-04  0.25562314D-04
  0.47263833D-04  0.79703179D-04  0.12699981D-03  0.17702817D-03  0.22556269D-03
  0.22400703D-03  0.20205963D-03  0.11565515D-03 -0.11334408D-03 -0.36653165D-03
  0.39213980D-05  0.73500047D-20  0.53933316D-20  0.44288036D-20 -0.28755982D-20
 -0.21100741D-20 -0.17327145D-20  0.11259364D-04  0.82619649D-05  0.67844188D-05
 -0.27336683D-19  0.28274102D-20  0.13585869D-03  0.97645544D-22  0.10294949D-20
  0.23866695D-04 -0.53006862D-22 -0.89544383D-22 -0.17659580D-05  0.74121918D-05
  0.74121918D-05 -0.14824384D-04 -0.94961707D-22 -0.92647302D-20  0.40944109D-20
  0.75016416D-05  0.75016416D-05 -0.15003283D-04  0.53792287D-22  0.18495584D-19
 -0.12873971D-20  0.22397066D-05  0.22397066D-05 -0.44794132D-05 -0.74440955D-23
  0.96854348D-21 -0.65434252D-21  0.22484646D-21  0.73572737D-21  0.32492856D-05
  0.54904907D-21  0.65271811D-21 -0.48739284D-05 -0.12235884D-20 -0.28599002D-20
 -0.48739284D-05  0.31244455D-22  0.81720212D-21 -0.21605594D-21  0.11635175D-05
  0.81757160D-21 -0.19984097D-21 -0.17452763D-05 -0.32691779D-20  0.84800879D-21
 -0.17452763D-05 -0.11643962D-22
MO    2     MO 0.0        OCC NO =    2.0000000  ORB. ENERGY =   -2.400582
 -0.48325362D-03 -0.90443477D-03 -0.15666459D-02 -0.25611134D-02 -0.39773093D-02
 -0.58237319D-02 -0.78049155D-02 -0.89549654D-02 -0.78005380D-02 -0.39905272D-02
 -0.77089389D-03 -0.23901162D-04 -0.10424756D-05  0.10400967D-08 -0.51529432D-01
 -0.96675531D-01 -0.16701243D+00 -0.27478650D+00 -0.42689993D+00 -0.63918185D+00
 -0.88111573D+00 -0.11096904D+01 -0.11385620D+01 -0.87288445D+00 -0.13128955D+00
  0.49943491D+00  0.42769425D+00  0.34830676D-03  0.16592615D-03  0.31070438D-03
  0.53827142D-03  0.88248302D-03  0.13778556D-02  0.20530187D-02  0.28565258D-02
  0.35819632D-02  0.37635224D-02  0.28920134D-02  0.48879334D-03 -0.19439446D-02
 -0.18868806D-02  0.11479322D-02  0.10102652D+00  0.12546907D-02 -0.27753365D-05
 -0.22867231D-16 -0.29148460D-16 -0.30650522D-16 -0.24464965D-16 -0.12752219D-16
 -0.39833883D-17 -0.45998222D-18 -0.13614133D-20  0.52748545D-16  0.67237649D-16
  0.70702503D-16  0.56434089D-16  0.29415935D-16  0.91886043D-17  0.10610551D-17
  0.31404139D-20 -0.25064455D-01 -0.31949223D-01 -0.33595613D-01 -0.26815710D-01
 -0.13977530D-01 -0.43661367D-02 -0.50418014D-03 -0.14922262D-05 -0.36428262D-16
 -0.46925557D-16 -0.49349125D-16 -0.40414489D-16 -0.20811071D-16 -0.72986430D-17
 -0.88545586D-18  0.17134905D-17 -0.30630974D-16 -0.39457703D-16 -0.41495578D-16
 -0.33982823D-16 -0.17499143D-16 -0.61371181D-17 -0.74454213D-18  0.14408012D-17
 -0.22716613D-02 -0.29262712D-02 -0.30774045D-02 -0.25202419D-02 -0.12977755D-02
 -0.45514236D-03 -0.55216904D-04  0.10685303D-03  0.33624689D-18  0.30062815D-18
  0.53523853D-03  0.15029209D-19 -0.14057062D-20  0.15610621D-04 -0.27698195D-20
  0.36022228D-22  0.17625967D-05  0.16298992D-04  0.16298992D-04 -0.32597984D-04
  0.92782054D-20 -0.71217007D-19  0.30056122D-18 -0.48943521D-04 -0.48943521D-04
  0.97887042D-04 -0.27232901D-20  0.57108518D-18  0.43148505D-18 -0.26188089D-05
 -0.26188089D-05  0.52376177D-05  0.51600191D-21  0.31200223D-20  0.26622918D-20
  0.74657473D-19 -0.22811881D-19  0.37843940D-05 -0.20197792D-18  0.65987628D-19
 -0.56765910D-05 -0.21994500D-19  0.24480154D-20 -0.56765910D-05  0.17410355D-19
 -0.29022824D-19 -0.17184179D-19  0.65983438D-05  0.57840839D-21 -0.27699365D-19
 -0.98975157D-05  0.86490065D-19  0.79251903D-19 -0.98975157D-05 -0.13504971D-20
 -0.49913909D-04 -0.92771803D-04 -0.15798879D-03 -0.24638733D-03 -0.34421712D-03
 -0.41031313D-03 -0.38897551D-03 -0.24703877D-03 -0.60665454D-04  0.50445697D-04
  0.93272346D-04  0.15728945D-03  0.25062652D-03  0.34935450D-03  0.44513447D-03
  0.44206447D-03  0.39875258D-03  0.22823852D-03 -0.85444663D-03 -0.17479456D-02
 -0.11375267D-04  0.33536495D-18  0.24608615D-18  0.20207681D-18  0.30023657D-18
  0.22030943D-18  0.18090993D-18  0.90073707D-04  0.66094838D-04  0.54274627D-04
 -0.11310552D-17 -0.10035381D-17  0.54566466D-03 -0.26302560D-19 -0.25827465D-21
  0.11069974D-03  0.58027883D-21 -0.23811395D-20 -0.79719889D-05  0.20610100D-04
  0.20610100D-04 -0.41220200D-04 -0.10756723D-19 -0.43325348D-18 -0.39034931D-18
  0.10362117D-04  0.10362117D-04 -0.20724233D-04  0.59501244D-20  0.72588879D-18
  0.66704790D-18  0.79810251D-05  0.79810251D-05 -0.15962050D-04 -0.11681563D-20
  0.55118000D-19  0.37648759D-19 -0.17072027D-19 -0.25069532D-20  0.37817844D-05
  0.26133220D-19 -0.11481171D-19 -0.56726767D-05  0.25082862D-19  0.19002031D-19
 -0.56726767D-05  0.39579037D-20  0.33000576D-19  0.31062491D-19 -0.22263976D-05
  0.32647758D-19  0.33074393D-19  0.33395964D-05 -0.13164949D-18 -0.12626187D-18
  0.33395964D-05 -0.11670360D-20
MO    3     MO 0.0        OCC NO =    2.0000000  ORB. ENERGY =   -2.170747
 -0.30792318D-03 -0.57629457D-03 -0.99824721D-03 -0.16319096D-02 -0.25342919D-02
 -0.37108094D-02 -0.49731949D-02 -0.57059924D-02 -0.49704056D-02 -0.25427142D-02
 -0.49120398D-03 -0.15229522D-04 -0.66425249D-06  0.66273666D-09  0.99595107D-03
  0.18685263D-02  0.32279846D-02  0.53110213D-02  0.82510406D-02  0.12353985D-01
  0.17030037D-01  0.21447886D-01  0.22005909D-01  0.16870945D-01  0.25375395D-02
 -0.96529830D-02 -0.82663933D-02 -0.67320069D-05 -0.73086666D-03 -0.13685815D-02
 -0.23709622D-02 -0.38871354D-02 -0.60691381D-02 -0.90430767D-02 -0.12582341D-01
 -0.15777727D-01 -0.16577453D-01 -0.12738656D-01 -0.21530226D-02  0.85626302D-02
  0.83112766D-02 -0.50563780D-02  0.70345809D-03 -0.24555548D-02 -0.35169903D-05
 -0.38159304D-16 -0.48640999D-16 -0.51147540D-16 -0.40825497D-16 -0.21280049D-16
 -0.66472118D-17 -0.76758754D-18 -0.22718353D-20  0.34426029D-15  0.43882257D-15
  0.46143574D-15  0.36831377D-15  0.19198138D-15  0.59968887D-16  0.69249142D-17
  0.20495727D-19 -0.43773838D-01 -0.55797747D-01 -0.58673087D-01 -0.46832319D-01
 -0.24411069D-01 -0.76252431D-02 -0.88052583D-03 -0.26060997D-05  0.28679628D-16
  0.36944050D-16  0.38852103D-16  0.31817947D-16  0.16384360D-16  0.57461530D-17
  0.69711108D-18 -0.13490149D-17 -0.25554499D-17 -0.32918373D-17 -0.34618511D-17
 -0.28350845D-17 -0.14599008D-17 -0.51200128D-18 -0.62114907D-19  0.12020170D-18
  0.42367766D-01  0.54576609D-01  0.57395332D-01  0.47003934D-01  0.24204245D-01
  0.84886619D-02  0.10298264D-02 -0.19928692D-02  0.93668696D-18  0.30321193D-18
 -0.86178143D-03 -0.53246682D-19 -0.84150395D-20 -0.59612991D-04  0.12161243D-19
 -0.14382310D-20  0.55491202D-06  0.13277217D-03  0.13277217D-03 -0.26554433D-03
 -0.13891569D-20 -0.41038772D-18 -0.93665004D-19  0.49932217D-04  0.49932217D-04
 -0.99864435D-04  0.15912116D-21  0.19581713D-18  0.24771101D-18  0.50106956D-05
  0.50106956D-05 -0.10021391D-04 -0.91593609D-22  0.26425704D-19  0.10106975D-20
  0.57386641D-19  0.19517640D-19 -0.14977610D-04  0.60701524D-19  0.21348567D-19
  0.22466416D-04 -0.23286145D-18 -0.79901488D-19  0.22466416D-04 -0.10514969D-20
 -0.14063272D-19 -0.13393320D-19  0.29413325D-05 -0.14628437D-19 -0.13507426D-19
 -0.44119987D-05  0.56818253D-19  0.53687385D-19 -0.44119987D-05 -0.17624951D-21
  0.64611638D-01  0.12008954D+00  0.20451041D+00  0.31893893D+00  0.44557584D+00
  0.53113459D+00  0.50351385D+00  0.31978219D+00  0.78529100D-01 -0.22045830D-03
 -0.40761975D-03 -0.68738796D-03 -0.10952905D-02 -0.15267526D-02 -0.19453311D-02
 -0.19319146D-02 -0.17426326D-02 -0.99745031D-03  0.27150676D-02  0.42896739D-02
  0.12087469D-04  0.13845171D-17  0.10159395D-17  0.83425176D-18  0.71182710D-18
  0.52232886D-18  0.42891706D-18  0.12029131D-02  0.88268098D-03  0.72482485D-03
 -0.43017558D-18 -0.57541016D-18 -0.22781641D-02 -0.13320048D-18  0.10417371D-19
 -0.21149550D-03  0.13922245D-20 -0.32454488D-20  0.11074955D-04  0.51933481D-04
  0.51933481D-04 -0.10386696D-03  0.54293087D-19 -0.50175330D-18 -0.44764204D-18
 -0.21127993D-03 -0.21127993D-03  0.42255987D-03 -0.79075537D-20  0.20780609D-19
  0.34330750D-18 -0.22830662D-04 -0.22830662D-04  0.45661325D-04  0.93642405D-21
  0.96037232D-19  0.17535043D-19 -0.45792474D-19 -0.30975029D-19 -0.43425093D-04
 -0.43767866D-19 -0.32675111D-19  0.65137639D-04  0.18114529D-18  0.12560020D-18
  0.65137639D-04  0.14904931D-20  0.71148176D-20  0.15765916D-19 -0.38232269D-04
  0.67096621D-20  0.15986784D-19  0.57348403D-04 -0.28054115D-19 -0.63284532D-19
  0.57348403D-04 -0.48613668D-21
MO    4     MO 0.0        OCC NO =    2.0000000  ORB. ENERGY =   -1.278623
 -0.63319561D-17 -0.11850592D-16 -0.20527384D-16 -0.33557654D-16 -0.52113729D-16
 -0.76306961D-16 -0.10226593D-15 -0.11733476D-15 -0.10220858D-15 -0.52286920D-16
 -0.10100837D-16 -0.31317118D-18 -0.13659308D-19  0.13628137D-22  0.62866636D-17
  0.11794551D-16  0.20375753D-16  0.33524342D-16  0.52082395D-16  0.77981090D-16
  0.10749737D-15  0.13538380D-15  0.13890617D-15  0.10649314D-15  0.16017511D-16
 -0.60931766D-16 -0.52179304D-16 -0.42493918D-19  0.89191401D-17  0.16701501D-16
  0.28934066D-16  0.47436704D-16  0.74064801D-16  0.11035730D-15  0.15354875D-15
  0.19254368D-15  0.20230315D-15  0.15545634D-15  0.26274438D-16 -0.10449416D-15
 -0.10142676D-15  0.61705570D-16  0.95696091D-16  0.25553863D-15  0.93228971D-16
  0.30626099D+01  0.39038553D+01  0.41050267D+01  0.32765946D+01  0.17079056D+01
  0.53349548D+00  0.61605452D-01  0.18233418D-03 -0.48194856D+00 -0.61433141D+00
 -0.64598881D+00 -0.51562233D+00 -0.26876509D+00 -0.83953683D-01 -0.96945612D-02
 -0.28693075D-04 -0.35169398D-13 -0.44829817D-13 -0.47139963D-13 -0.37626685D-13
 -0.19612687D-13 -0.61263809D-14 -0.70744454D-15 -0.20938296D-17 -0.33177323D-01
 -0.42737817D-01 -0.44945100D-01 -0.36807811D-01 -0.18953845D-01 -0.66472960D-02
 -0.80643583D-03  0.15605748D-02  0.52209599D-02  0.67254499D-02  0.70727998D-02
  0.57922727D-02  0.29826777D-02  0.10460538D-02  0.12690503D-03 -0.24558034D-03
 -0.92409749D-15 -0.11903886D-14 -0.12518688D-14 -0.10252185D-14 -0.52792686D-15
 -0.18514904D-15 -0.22461888D-16  0.43467136D-16  0.14969036D-03 -0.23556070D-04
  0.91294509D-18  0.17164673D-04 -0.27011242D-05  0.28645383D-17 -0.29122687D-05
  0.45829008D-06  0.35220321D-17  0.50407686D-17  0.10575986D-16 -0.15616754D-16
 -0.51481469D-17 -0.11672370D-03  0.18368262D-04  0.98456625D-17  0.31977096D-17
 -0.13043372D-16  0.27917316D-17  0.35981326D-03 -0.56622126D-04 -0.10963622D-18
  0.77279711D-18 -0.66316089D-18 -0.10775487D-18  0.55580782D-06 -0.87464871D-07
 -0.63251927D-05  0.99536594D-06 -0.47777295D-17 -0.64402601D-05  0.10134735D-05
  0.29633853D-16  0.25415838D-04 -0.39995714D-05 -0.15300665D-16  0.61969678D-18
 -0.14226139D-04  0.22387008D-05 -0.15268267D-17 -0.14212541D-04  0.22365610D-05
 -0.75887789D-18  0.56890957D-04 -0.89526633D-05  0.53393580D-17  0.39585947D-19
  0.13755037D-16  0.25565610D-16  0.43537795D-16  0.67898242D-16  0.94857709D-16
  0.11307213D-15  0.10719201D-15  0.68077763D-16  0.16717896D-16 -0.17497633D-16
 -0.32352517D-16 -0.54557539D-16 -0.86932505D-16 -0.12117737D-15 -0.15439968D-15
 -0.15333482D-15 -0.13831162D-15 -0.79166988D-16  0.38127747D-15 -0.30268320D-15
 -0.12832484D-15  0.22179758D-03  0.16275199D-03  0.13364589D-03 -0.34903246D-04
 -0.25611518D-04 -0.21031228D-04 -0.38164091D-16 -0.28004281D-16 -0.22996076D-16
 -0.70097479D-03  0.11030912D-03  0.57105280D-16 -0.10062974D-04  0.15835630D-05
  0.21112523D-16 -0.26332507D-07  0.41438232D-08  0.10494748D-16 -0.15297011D-16
 -0.24404330D-16  0.39701342D-16  0.24537838D-17 -0.27847802D-03  0.43822782D-04
 -0.14917509D-16 -0.92121279D-17  0.24129636D-16 -0.82145766D-18  0.44401883D-03
 -0.69873163D-04  0.67895230D-17  0.57757177D-17 -0.12565241D-16  0.66962923D-19
  0.33551647D-04 -0.52798654D-05 -0.83975282D-05  0.13214797D-05 -0.27021641D-17
 -0.83765259D-05  0.13181746D-05 -0.35227036D-17  0.33569110D-04 -0.52826136D-05
  0.11629196D-16 -0.25549407D-19  0.20897854D-04 -0.32885974D-05  0.13708150D-17
  0.20892412D-04 -0.32877409D-05 -0.48824774D-19 -0.83585974D-04  0.13153533D-04
 -0.40636204D-17  0.19872289D-18
MO    5     MO 0.0        OCC NO =    2.0000000  ORB. ENERGY =   -1.278623
 -0.37675162D-17 -0.70511063D-17 -0.12213801D-16 -0.19966816D-16 -0.31007687D-16
 -0.45402669D-16 -0.60848267D-16 -0.69814225D-16 -0.60814140D-16 -0.31110736D-16
 -0.60100019D-17 -0.18633697D-18 -0.81272932D-20  0.81087466D-23  0.29233288D-16
  0.54845231D-16  0.94748231D-16  0.15588980D-15  0.24218564D-15  0.36261581D-15
  0.49986791D-15  0.62954119D-15  0.64592036D-15  0.49519820D-15  0.74482195D-16
 -0.28333564D-15 -0.24263627D-15 -0.19759876D-18 -0.16056240D-16 -0.30066050D-16
 -0.52087118D-16 -0.85395574D-16 -0.13333148D-15 -0.19866525D-15 -0.27641853D-15
 -0.34661721D-15 -0.36418622D-15 -0.27985258D-15 -0.47299253D-16  0.18811043D-15
  0.18258850D-15 -0.11108239D-15 -0.41816506D-16  0.22237330D-15 -0.24100101D-16
  0.48194856D+00  0.61433141D+00  0.64598881D+00  0.51562233D+00  0.26876509D+00
  0.83953683D-01  0.96945612D-02  0.28693075D-04  0.30626099D+01  0.39038553D+01
  0.41050267D+01  0.32765946D+01  0.17079056D+01  0.53349548D+00  0.61605452D-01
  0.18233418D-03 -0.50808778D-13 -0.64765063D-13 -0.68102501D-13 -0.54358791D-13
 -0.28334198D-13 -0.88507041D-14 -0.10220361D-14 -0.30249288D-17 -0.52209599D-02
 -0.67254499D-02 -0.70727998D-02 -0.57922727D-02 -0.29826777D-02 -0.10460538D-02
 -0.12690503D-03  0.24558034D-03 -0.33177323D-01 -0.42737817D-01 -0.44945100D-01
 -0.36807811D-01 -0.18953845D-01 -0.66472960D-02 -0.80643583D-03  0.15605748D-02
  0.25121230D-14  0.32360252D-14  0.34031564D-14  0.27870165D-14  0.14351486D-14
  0.50332045D-15  0.61061767D-16 -0.11816372D-15  0.23556070D-04  0.14969036D-03
  0.11864867D-15  0.27011242D-05  0.17164673D-04  0.27880455D-17 -0.45829008D-06
 -0.29122687D-05 -0.15733019D-17  0.33314420D-16  0.22941659D-16 -0.56256078D-16
  0.38144442D-17 -0.18368262D-04 -0.11672370D-03 -0.12932576D-16 -0.18264156D-16
  0.31196731D-16  0.93557850D-17  0.56622126D-04  0.35981326D-03 -0.11090310D-17
 -0.97346944D-18  0.20825004D-17  0.13679321D-18  0.87464871D-07  0.55580782D-06
 -0.99536594D-06 -0.63251927D-05 -0.13557828D-16 -0.10134735D-05 -0.64402601D-05
  0.20333069D-16  0.39995714D-05  0.25415838D-04  0.20340416D-16 -0.37545816D-17
 -0.22387008D-05 -0.14226139D-04  0.47707102D-17 -0.22365610D-05 -0.14212541D-04
 -0.63031256D-17  0.89526633D-05  0.56890957D-04 -0.80090050D-17  0.73210159D-17
 -0.56241782D-16 -0.10453302D-15 -0.17801793D-15 -0.27762326D-15 -0.38785550D-15
 -0.46233089D-15 -0.43828817D-15 -0.27835729D-15 -0.68356363D-16  0.36203794D-16
  0.66939561D-16  0.11288326D-15  0.17986927D-15  0.25072423D-15  0.31946345D-15
  0.31726018D-15  0.28617617D-15  0.16380189D-15 -0.31827689D-15 -0.20217186D-15
  0.33360939D-16  0.34903246D-04  0.25611518D-04  0.21031228D-04  0.22179758D-03
  0.16275199D-03  0.13364589D-03 -0.54298618D-16 -0.39843573D-16 -0.32718063D-16
 -0.11030912D-03 -0.70097479D-03  0.60284710D-16 -0.15835630D-05 -0.10062974D-04
 -0.35720987D-17 -0.41438232D-08 -0.26332507D-07 -0.14080519D-18 -0.26995197D-16
 -0.27590532D-16  0.54585729D-16  0.31343667D-17 -0.43822782D-04 -0.27847802D-03
 -0.17277893D-17 -0.10436668D-17  0.27714561D-17 -0.93869689D-17  0.69873163D-04
  0.44401883D-03 -0.12161637D-17 -0.74128690D-18  0.19574506D-17 -0.15370325D-17
  0.52798654D-05  0.33551647D-04 -0.13214797D-05 -0.83975282D-05 -0.14624594D-16
 -0.13181746D-05 -0.83765259D-05  0.21340653D-16  0.52826136D-05  0.33569110D-04
  0.22533128D-16 -0.89087548D-17  0.32885974D-05  0.20897854D-04 -0.55492596D-18
  0.32877409D-05  0.20892412D-04  0.23306332D-17 -0.13153533D-04 -0.83585974D-04
 -0.66585531D-18  0.11459599D-16
MO    6     MO 0.0        OCC NO =    2.0000000  ORB. ENERGY =   -1.278555
  0.32961821D-03  0.61689797D-03  0.10685797D-02  0.17468873D-02  0.27128479D-02
  0.39722581D-02  0.53235862D-02  0.61080137D-02  0.53206004D-02  0.27218636D-02
  0.52581223D-03  0.16302533D-04  0.71105305D-06 -0.70943042D-09 -0.12608813D-02
 -0.23655679D-02 -0.40866520D-02 -0.67237916D-02 -0.10445878D-01 -0.15640235D-01
 -0.21560151D-01 -0.27153180D-01 -0.27859641D-01 -0.21358739D-01 -0.32125435D-02
  0.12220747D-01  0.10465314D-01  0.85227698D-05  0.49202956D-03  0.92134806D-03
  0.15961646D-02  0.26168734D-02  0.40858279D-02  0.60879246D-02  0.84706065D-02
  0.10621784D-01  0.11160171D-01  0.85758398D-02  0.14494447D-02 -0.57644813D-02
 -0.55952666D-02  0.34040237D-02 -0.74228016D-03  0.17534896D-02 -0.97885652D-04
  0.43704582D-13  0.55709468D-13  0.58580258D-13  0.46758224D-13  0.24372448D-13
  0.76131790D-14  0.87913272D-15  0.26019765D-17  0.42988705D-13  0.54796951D-13
  0.57620718D-13  0.45992328D-13  0.23973229D-13  0.74884757D-14  0.86473260D-15
  0.25593564D-17  0.31215183D+01  0.39789449D+01  0.41839857D+01  0.33396190D+01
  0.17407567D+01  0.54375711D+00  0.62790415D-01  0.18584132D-03 -0.45698373D-15
 -0.58866975D-15 -0.61907283D-15 -0.50698998D-15 -0.26106984D-15 -0.91559709D-16
 -0.11107829D-16  0.21495323D-16 -0.47096387D-15 -0.60667846D-15 -0.63801163D-15
 -0.52249992D-15 -0.26905655D-15 -0.94360723D-16 -0.11447642D-16  0.22152912D-16
 -0.54316779D-01 -0.69968891D-01 -0.73582581D-01 -0.60260489D-01 -0.31030586D-01
 -0.10882726D-01 -0.13202691D-02  0.25549197D-02  0.23002079D-17  0.21190230D-17
  0.30351991D-03  0.22728148D-18  0.25020340D-18  0.91716286D-04 -0.39799203D-19
 -0.42998573D-19 -0.15283047D-04 -0.68606503D-04 -0.68606503D-04  0.13721301D-03
  0.28407059D-19 -0.17015722D-17 -0.17625850D-17 -0.37397211D-04 -0.37397211D-04
  0.74794421D-04 -0.59293910D-20  0.52283827D-17  0.51427030D-17 -0.11758783D-05
 -0.11758783D-05  0.23517566D-05  0.36799613D-21  0.60529538D-20  0.58219188D-20
 -0.11652861D-18 -0.10909757D-18  0.38089359D-04 -0.44276721D-19 -0.13755186D-18
 -0.57134039D-04  0.39386256D-18  0.46484458D-18 -0.57134039D-04 -0.84303218D-20
 -0.20217749D-18 -0.19854867D-18 -0.43233214D-05 -0.20966718D-18 -0.19510773D-18
  0.64849822D-05  0.81619966D-18  0.79075373D-18  0.64849822D-05  0.11132762D-20
 -0.30808666D-03 -0.57262104D-03 -0.97516379D-03 -0.15207915D-02 -0.21246323D-02
 -0.25326007D-02 -0.24008972D-02 -0.15248124D-02 -0.37444907D-03  0.17689307D-03
  0.32706916D-03  0.55155179D-03  0.87884789D-03  0.12250478D-02  0.15609102D-02
  0.15501449D-02  0.13982673D-02  0.80034207D-03 -0.38050062D-03 -0.32718004D-02
  0.11747334D-03  0.28620287D-17  0.21001170D-17  0.17245381D-17  0.29818842D-17
  0.21880653D-17  0.17967580D-17 -0.24909482D-03 -0.18278233D-03 -0.15009406D-03
 -0.10118049D-16 -0.99369621D-17  0.14297057D-02 -0.15225452D-18 -0.15072711D-18
  0.18228002D-03  0.10801909D-20  0.13241360D-20 -0.10279835D-04  0.24234547D-04
  0.24234547D-04 -0.48469094D-04  0.29016441D-20 -0.36263183D-17 -0.36807000D-17
  0.12298792D-03  0.12298792D-03 -0.24597585D-03 -0.14029690D-20  0.63342992D-17
  0.62425000D-17  0.21340160D-04  0.21340160D-04 -0.42680320D-04 -0.11765571D-21
  0.49792846D-18  0.48948350D-18 -0.11101001D-18 -0.11033255D-18  0.29699948D-04
 -0.86827120D-19 -0.10820315D-18 -0.44549922D-04  0.41985715D-18  0.43920081D-18
 -0.44549922D-04 -0.81545370D-20  0.30027712D-18  0.29672589D-18  0.23504988D-04
  0.29807797D-18  0.29713878D-18 -0.35257483D-04 -0.11989093D-17 -0.11873164D-17
 -0.35257483D-04  0.74237392D-21
MO    7     MO 0.0        OCC NO =    2.0000000  ORB. ENERGY =   -0.154097
 -0.42432623D-03 -0.79414904D-03 -0.13756109D-02 -0.22488142D-02 -0.34923208D-02
 -0.51135927D-02 -0.68531930D-02 -0.78630072D-02 -0.68493494D-02 -0.35039269D-02
 -0.67689197D-03 -0.20986682D-04 -0.91535736D-06  0.91326851D-09  0.10642431D-02
  0.19966505D-02  0.34493264D-02  0.56751961D-02  0.88168116D-02  0.13201094D-01
  0.18197781D-01  0.22918560D-01  0.23514847D-01  0.18027779D-01  0.27115377D-02
 -0.10314885D-01 -0.88332170D-02 -0.71936183D-05  0.58289764D-02  0.10915027D-01
  0.18909445D-01  0.31001579D-01  0.48403991D-01  0.72122433D-01  0.10034959D+00
  0.12583417D+00  0.13221233D+00  0.10159627D+00  0.17171283D-01 -0.68290664D-01
 -0.66286011D-01  0.40326793D-01 -0.45169714D-01  0.16310338D-01 -0.22015421D-03
  0.79415994D-16  0.10123018D-15  0.10644672D-15  0.84964794D-16  0.44287397D-16
  0.13833977D-16  0.15974801D-17  0.47280753D-20 -0.75414164D-15 -0.96129117D-15
 -0.10108279D-14 -0.80683355D-15 -0.42055722D-15 -0.13136872D-15 -0.15169819D-16
 -0.44898241D-19 -0.54386100D-01 -0.69325012D-01 -0.72897431D-01 -0.58186060D-01
 -0.30329140D-01 -0.94738605D-02 -0.10939951D-02 -0.32379066D-05 -0.75927479D-15
 -0.97807006D-15 -0.10285845D-14 -0.84235978D-15 -0.43376545D-15 -0.15212572D-15
 -0.18455569D-16  0.35714306D-16  0.11104154D-15  0.14303966D-15  0.15042724D-15
  0.12319246D-15  0.63436827D-16  0.22247906D-16  0.26990688D-17 -0.52231046D-17
 -0.60639316D-01 -0.78113353D-01 -0.82147680D-01 -0.67274881D-01 -0.34642583D-01
 -0.12149488D-01 -0.14739500D-02  0.28523153D-02  0.25293539D-17  0.92337678D-18
  0.34278906D-02 -0.67725116D-18  0.19968239D-18  0.15759062D-03  0.87352482D-19
 -0.62178927D-19 -0.60660405D-05  0.28375436D-04  0.28375436D-04 -0.56750873D-04
  0.27033474D-18 -0.20818799D-17  0.85580635D-18 -0.25819124D-03 -0.25819124D-03
  0.51638248D-03 -0.32760620D-19 -0.17730266D-17  0.37699051D-18 -0.14373960D-04
 -0.14373960D-04  0.28747921D-04 -0.10301834D-19 -0.41223737D-19  0.19288196D-19
 -0.41306153D-19  0.84949514D-19 -0.31718457D-04  0.93748726D-19 -0.20296580D-18
  0.47577685D-04  0.30169735D-19 -0.51882741D-19  0.47577685D-04 -0.10552882D-18
  0.74190497D-19 -0.65599947D-19  0.24420490D-04 -0.13063670D-18 -0.91351243D-23
 -0.36630735D-04 -0.91934789D-19  0.19680898D-18 -0.36630735D-04  0.19233466D-19
 -0.91783686D-03 -0.17059249D-02 -0.29051608D-02 -0.45306684D-02 -0.63296016D-02
 -0.75450015D-02 -0.71526367D-02 -0.45426473D-02 -0.11155406D-02 -0.69387228D-02
 -0.12829458D-01 -0.21634906D-01 -0.34473266D-01 -0.48053138D-01 -0.61227515D-01
 -0.60805242D-01 -0.54847763D-01 -0.31393834D-01  0.33317009D-01  0.17335210D-02
  0.40276846D-03  0.53858302D-17  0.39520475D-17  0.32452747D-17  0.85463685D-18
  0.62712067D-18  0.51496821D-18 -0.12560330D-01 -0.92165959D-02 -0.75683264D-02