 Molden2AIM, Version 4.0.0 (06/02/2016)           Time: Fri Jun 29 22:42:09 2018
GAUSSIAN             15 MOL ORBITALS    262 PRIMITIVES        2 NUCLEI
  Si   1    (CENTRE  1)   0.00000000  0.00000000  1.42615930  CHARGE = 14.0
  S    2    (CENTRE  2)   0.00000000  0.00000000 -2.22104236  CHARGE = 16.0
CENTRE ASSIGNMENTS    1  1  1  1  1  1  1  1  1  1  1  1  1  1  1  1  1  1  1  1
CENTRE ASSIGNMENTS    1  1  1  1  1  1  1  1  1  1  1  1  1  1  1  1  1  1  1  1
CENTRE ASSIGNMENTS    1  1  1  1  1  1  1  1  1  1  1  1  1  1  1  1  1  1  1  1
CENTRE ASSIGNMENTS    1  1  1  1  1  1  1  1  1  1  1  1  1  1  1  1  1  1  1  1
CENTRE ASSIGNMENTS    1  1  1  1  1  1  1  1  1  1  1  1  1  1  1  1  1  1  1  1
CENTRE ASSIGNMENTS    1  1  1  1  1  1  1  1  1  1  1  1  1  1  1  1  1  1  1  1
CENTRE ASSIGNMENTS    1  1  1  1  1  1  1  1  1  1  1  2  2  2  2  2  2  2  2  2
CENTRE ASSIGNMENTS    2  2  2  2  2  2  2  2  2  2  2  2  2  2  2  2  2  2  2  2
CENTRE ASSIGNMENTS    2  2  2  2  2  2  2  2  2  2  2  2  2  2  2  2  2  2  2  2
CENTRE ASSIGNMENTS    2  2  2  2  2  2  2  2  2  2  2  2  2  2  2  2  2  2  2  2
CENTRE ASSIGNMENTS    2  2  2  2  2  2  2  2  2  2  2  2  2  2  2  2  2  2  2  2
CENTRE ASSIGNMENTS    2  2  2  2  2  2  2  2  2  2  2  2  2  2  2  2  2  2  2  2
CENTRE ASSIGNMENTS    2  2  2  2  2  2  2  2  2  2  2  2  2  2  2  2  2  2  2  2
CENTRE ASSIGNMENTS    2  2
TYPE ASSIGNMENTS      1  1  1  1  1  1  1  1  1  1  1  1  1  1  1  1  1  1  1  1
TYPE ASSIGNMENTS      1  1  1  1  1  1  1  1  1  1  1  1  1  1  1  1  1  1  1  1
TYPE ASSIGNMENTS      1  1  2  2  2  2  2  2  2  3  3  3  3  3  3  3  4  4  4  4
TYPE ASSIGNMENTS      4  4  4  2  2  2  2  2  2  2  3  3  3  3  3  3  3  4  4  4
TYPE ASSIGNMENTS      4  4  4  4  2  3  4  2  3  4  2  3  4  5  6  7  8  9 10  5
TYPE ASSIGNMENTS      6  7  8  9 10  5  6  7  8  9 10 11 12 13 17 14 15 18 19 16
TYPE ASSIGNMENTS     20 11 12 13 17 14 15 18 19 16 20  1  1  1  1  1  1  1  1  1
TYPE ASSIGNMENTS      1  1  1  1  1  1  1  1  1  1  1  1  1  1  1  1  1  1  1  1
TYPE ASSIGNMENTS      1  1  1  1  1  1  1  1  1  1  1  1  1  2  2  2  2  2  2  2
TYPE ASSIGNMENTS      3  3  3  3  3  3  3  4  4  4  4  4  4  4  2  2  2  2  2  2
TYPE ASSIGNMENTS      2  3  3  3  3  3  3  3  4  4  4  4  4  4  4  2  3  4  2  3
TYPE ASSIGNMENTS      4  2  3  4  5  6  7  8  9 10  5  6  7  8  9 10  5  6  7  8
TYPE ASSIGNMENTS      9 10 11 12 13 17 14 15 18 19 16 20 11 12 13 17 14 15 18 19
TYPE ASSIGNMENTS     16 20
EXPONENTS  0.2549000D+06 0.3819000D+05 0.8690000D+04 0.2462000D+04 0.8048000D+03
EXPONENTS  0.2913000D+03 0.1136000D+03 0.4675000D+02 0.1982000D+02 0.7708000D+01
EXPONENTS  0.3340000D+01 0.1402000D+01 0.2070000D+00 0.2549000D+06 0.3819000D+05
EXPONENTS  0.8690000D+04 0.2462000D+04 0.8048000D+03 0.2913000D+03 0.1136000D+03
EXPONENTS  0.4675000D+02 0.1982000D+02 0.7708000D+01 0.3340000D+01 0.1402000D+01
EXPONENTS  0.2070000D+00 0.2549000D+06 0.3819000D+05 0.8690000D+04 0.2462000D+04
EXPONENTS  0.8048000D+03 0.2913000D+03 0.1136000D+03 0.4675000D+02 0.1982000D+02
EXPONENTS  0.7708000D+01 0.3340000D+01 0.1402000D+01 0.2070000D+00 0.4387000D+00
EXPONENTS  0.7944000D-01 0.3300000D-01 0.4815000D+03 0.1139000D+03 0.3623000D+02
EXPONENTS  0.1334000D+02 0.5252000D+01 0.2120000D+01 0.2528000D+00 0.4815000D+03
EXPONENTS  0.1139000D+03 0.3623000D+02 0.1334000D+02 0.5252000D+01 0.2120000D+01
EXPONENTS  0.2528000D+00 0.4815000D+03 0.1139000D+03 0.3623000D+02 0.1334000D+02
EXPONENTS  0.5252000D+01 0.2120000D+01 0.2528000D+00 0.4815000D+03 0.1139000D+03
EXPONENTS  0.3623000D+02 0.1334000D+02 0.5252000D+01 0.2120000D+01 0.2528000D+00
EXPONENTS  0.4815000D+03 0.1139000D+03 0.3623000D+02 0.1334000D+02 0.5252000D+01
EXPONENTS  0.2120000D+01 0.2528000D+00 0.4815000D+03 0.1139000D+03 0.3623000D+02
EXPONENTS  0.1334000D+02 0.5252000D+01 0.2120000D+01 0.2528000D+00 0.8561000D+00
EXPONENTS  0.8561000D+00 0.8561000D+00 0.7889000D-01 0.7889000D-01 0.7889000D-01
EXPONENTS  0.2370000D-01 0.2370000D-01 0.2370000D-01 0.1590000D+00 0.1590000D+00
EXPONENTS  0.1590000D+00 0.1590000D+00 0.1590000D+00 0.1590000D+00 0.4810000D+00
EXPONENTS  0.4810000D+00 0.4810000D+00 0.4810000D+00 0.4810000D+00 0.4810000D+00
EXPONENTS  0.5560000D-01 0.5560000D-01 0.5560000D-01 0.5560000D-01 0.5560000D-01
EXPONENTS  0.5560000D-01 0.3360000D+00 0.3360000D+00 0.3360000D+00 0.3360000D+00
EXPONENTS  0.3360000D+00 0.3360000D+00 0.3360000D+00 0.3360000D+00 0.3360000D+00
EXPONENTS  0.3360000D+00 0.1250000D+00 0.1250000D+00 0.1250000D+00 0.1250000D+00
EXPONENTS  0.1250000D+00 0.1250000D+00 0.1250000D+00 0.1250000D+00 0.1250000D+00
EXPONENTS  0.1250000D+00 0.3741000D+06 0.5605000D+05 0.1276000D+05 0.3615000D+04
EXPONENTS  0.1183000D+04 0.4288000D+03 0.1678000D+03 0.6947000D+02 0.2984000D+02
EXPONENTS  0.1272000D+02 0.5244000D+01 0.2219000D+01 0.3490000D+00 0.3741000D+06
EXPONENTS  0.5605000D+05 0.1276000D+05 0.3615000D+04 0.1183000D+04 0.4288000D+03
EXPONENTS  0.1678000D+03 0.6947000D+02 0.2984000D+02 0.1272000D+02 0.5244000D+01
EXPONENTS  0.2219000D+01 0.3490000D+00 0.3741000D+06 0.5605000D+05 0.1276000D+05
EXPONENTS  0.3615000D+04 0.1183000D+04 0.4288000D+03 0.1678000D+03 0.6947000D+02
EXPONENTS  0.2984000D+02 0.1272000D+02 0.5244000D+01 0.2219000D+01 0.3490000D+00
EXPONENTS  0.7767000D+00 0.1322000D+00 0.4970000D-01 0.5744000D+03 0.1358000D+03
EXPONENTS  0.4319000D+02 0.1587000D+02 0.6208000D+01 0.2483000D+01 0.3229000D+00
EXPONENTS  0.5744000D+03 0.1358000D+03 0.4319000D+02 0.1587000D+02 0.6208000D+01
EXPONENTS  0.2483000D+01 0.3229000D+00 0.5744000D+03 0.1358000D+03 0.4319000D+02
EXPONENTS  0.1587000D+02 0.6208000D+01 0.2483000D+01 0.3229000D+00 0.5744000D+03
EXPONENTS  0.1358000D+03 0.4319000D+02 0.1587000D+02 0.6208000D+01 0.2483000D+01
EXPONENTS  0.3229000D+00 0.5744000D+03 0.1358000D+03 0.4319000D+02 0.1587000D+02
EXPONENTS  0.6208000D+01 0.2483000D+01 0.3229000D+00 0.5744000D+03 0.1358000D+03
EXPONENTS  0.4319000D+02 0.1587000D+02 0.6208000D+01 0.2483000D+01 0.3229000D+00
EXPONENTS  0.8688000D+00 0.8688000D+00 0.8688000D+00 0.1098000D+00 0.1098000D+00
EXPONENTS  0.1098000D+00 0.3510000D-01 0.3510000D-01 0.3510000D-01 0.2690000D+00
EXPONENTS  0.2690000D+00 0.2690000D+00 0.2690000D+00 0.2690000D+00 0.2690000D+00
EXPONENTS  0.8190000D+00 0.8190000D+00 0.8190000D+00 0.8190000D+00 0.8190000D+00
EXPONENTS  0.8190000D+00 0.1010000D+00 0.1010000D+00 0.1010000D+00 0.1010000D+00
EXPONENTS  0.1010000D+00 0.1010000D+00 0.5570000D+00 0.5570000D+00 0.5570000D+00
EXPONENTS  0.5570000D+00 0.5570000D+00 0.5570000D+00 0.5570000D+00 0.5570000D+00
EXPONENTS  0.5570000D+00 0.5570000D+00 0.2180000D+00 0.2180000D+00 0.2180000D+00
EXPONENTS  0.2180000D+00 0.2180000D+00 0.2180000D+00 0.2180000D+00 0.2180000D+00
EXPONENTS  0.2180000D+00 0.2180000D+00
MO    1     MO 0.0        OCC NO =    2.0000000  ORB. ENERGY =  -89.919760
  0.36370944D-04  0.68033982D-04  0.11749163D-03  0.18977961D-03  0.28580419D-03
  0.38869234D-03  0.44248682D-03  0.35847501D-03  0.14551209D-03  0.13268701D-04
 -0.50991913D-06  0.17051328D-06  0.95688190D-08 -0.73016513D-04 -0.13666681D-03
 -0.23637050D-03 -0.38417752D-03 -0.58778847D-03 -0.83411247D-03 -0.10463248D-02
 -0.10668188D-02 -0.65547468D-03  0.14285534D-03  0.52325799D-03  0.23931978D-03
 -0.12703225D-05  0.42915143D-04  0.80266300D-04  0.13899948D-03  0.22568613D-03
  0.34642365D-03  0.49207934D-03  0.62428069D-03  0.64629919D-03  0.41629521D-03
 -0.10238997D-03 -0.41737304D-03 -0.36402191D-03  0.18552452D-03  0.59998729D-04
  0.49312208D-03  0.48216176D-04 -0.27915178D-17 -0.36821558D-17 -0.40899706D-17
 -0.35004384D-17 -0.20001224D-17 -0.64908330D-18 -0.45703829D-21 -0.15668578D-17
 -0.20667661D-17 -0.22956695D-17 -0.19647695D-17 -0.11226535D-17 -0.36432553D-18
 -0.25653212D-21 -0.20446303D-02 -0.26969727D-02 -0.29956742D-02 -0.25638748D-02
 -0.14649775D-02 -0.47541713D-03 -0.33475492D-06  0.20661913D-19  0.28254901D-19
  0.30715923D-19  0.28195611D-19  0.15367753D-19  0.64848966D-20 -0.22365622D-20
 -0.89732703D-19 -0.12270832D-18 -0.13339630D-18 -0.12245083D-18 -0.66740674D-19
 -0.28163283D-19  0.97131746D-20  0.17739500D-02  0.24258538D-02  0.26371474D-02
  0.24207634D-02  0.13194144D-02  0.55676753D-03 -0.19202237D-03 -0.37806319D-19
 -0.59707973D-19 -0.17512778D-04 -0.11860684D-19 -0.88448081D-20 -0.15591828D-03
 -0.20912131D-21 -0.11300448D-21 -0.14918267D-05 -0.57519315D-05 -0.57519315D-05
  0.11503863D-04  0.62828328D-21  0.30470616D-20 -0.21572342D-20  0.98990314D-05
  0.98990314D-05 -0.19798063D-04 -0.49893119D-22  0.19997567D-20 -0.25343810D-20
 -0.22927154D-05 -0.22927154D-05  0.45854308D-05 -0.87590067D-22  0.21043862D-20
  0.18828312D-20 -0.30987154D-20 -0.36943749D-20  0.28197343D-04 -0.31544452D-20
 -0.36792166D-20 -0.42296014D-04  0.12450591D-19  0.14762341D-19 -0.42296014D-04
 -0.46875377D-21  0.25797002D-21  0.12483482D-21  0.83770054D-06  0.27461488D-21
  0.10108106D-21 -0.12565508D-05 -0.10485249D-20 -0.47558552D-21 -0.12565508D-05
 -0.13525984D-21  0.58496740D+00  0.10935626D+01  0.18900175D+01  0.30570186D+01
  0.46205045D+01  0.63631929D+01  0.74370973D+01  0.64262131D+01  0.29972087D+01
  0.40695619D+00  0.10897284D-02  0.21375967D-02  0.97590216D-04 -0.86994662D-03
 -0.16246624D-02 -0.28182283D-02 -0.45696597D-02 -0.70355113D-02 -0.10020148D-01
 -0.12884610D-01 -0.13525007D-01 -0.95631381D-02  0.21177970D-03  0.68712383D-02
  0.37834903D-02 -0.16000316D-04  0.34844520D-03  0.65025029D-03  0.11294069D-02
  0.18293886D-02  0.28258700D-02  0.40287023D-02  0.52400258D-02  0.55844550D-02
  0.41418741D-02 -0.12892116D-03 -0.37523222D-02 -0.36759806D-02  0.17169010D-02
 -0.23716685D-02 -0.87181624D-03 -0.21730326D-03 -0.27021840D-17 -0.35451183D-17
 -0.38884545D-17 -0.31994819D-17 -0.16868302D-17 -0.43883348D-18  0.48561399D-21
 -0.13642863D-16 -0.17898693D-16 -0.19632139D-16 -0.16153635D-16 -0.85165157D-17
 -0.22155949D-17  0.24517816D-20  0.38504873D-02  0.50516297D-02  0.55408678D-02
  0.45591138D-02  0.24036550D-02  0.62531742D-03 -0.69197747D-06  0.17638683D-17
  0.23159698D-17  0.26056222D-17  0.21954337D-17  0.12280948D-17  0.30567030D-18
 -0.14019513D-18  0.22524419D-17  0.29574699D-17  0.33273530D-17  0.28035465D-17
  0.15682646D-17  0.39033787D-18 -0.17902775D-18 -0.31519930D-02 -0.41385860D-02
 -0.46561883D-02 -0.39231907D-02 -0.21945779D-02 -0.54622596D-03  0.25052555D-03
  0.65483645D-19  0.73439136D-18 -0.18142031D-03  0.28002082D-19  0.31381457D-19
 -0.34109997D-03  0.45712413D-21 -0.10027865D-21 -0.10493324D-04  0.30896937D-04
  0.30896937D-04 -0.61793874D-04 -0.11353433D-19 -0.15397766D-19 -0.16521532D-19
 -0.85394780D-04 -0.85394780D-04  0.17078956D-03  0.14083273D-18 -0.22443098D-19
  0.66366087D-20  0.16817590D-04  0.16817590D-04 -0.33635179D-04  0.80524353D-21
  0.65026623D-20  0.50614190D-20  0.31413064D-20  0.53203429D-20  0.36085823D-04
  0.13950756D-19  0.43715250D-20 -0.54128735D-04 -0.23374675D-19 -0.20332554D-19
 -0.54128735D-04  0.13875299D-19 -0.55393199D-21 -0.27352660D-21 -0.20275334D-04
 -0.11645585D-20 -0.11181016D-21  0.30413001D-04  0.28263544D-20  0.93238997D-21
  0.30413001D-04 -0.10565331D-20
MO    2     MO 0.0        OCC NO =    2.0000000  ORB. ENERGY =  -67.079736
  0.50584103D+00  0.94620528D+00  0.16340540D+01  0.26394231D+01  0.39749169D+01
  0.54058683D+01  0.61540330D+01  0.49856106D+01  0.20237579D+01  0.18453888D+00
 -0.70918702D-02  0.23714703D-02  0.13308154D-03 -0.82631707D-03 -0.15466380D-02
 -0.26749700D-02 -0.43476802D-02 -0.66519152D-02 -0.94395274D-02 -0.11841103D-01
 -0.12073030D-01 -0.74179100D-02  0.16166728D-02  0.59216332D-02  0.27083466D-02
 -0.14376052D-04  0.38362136D-03  0.71750588D-03  0.12425258D-02  0.20174236D-02
  0.30967044D-02  0.43987304D-02  0.55804873D-02  0.57773121D-02  0.37212910D-02
 -0.91527088D-03 -0.37309258D-02 -0.32540165D-02  0.16584162D-02 -0.16565239D-02
  0.32758825D-04  0.46644881D-04 -0.13365139D-17 -0.17629307D-17 -0.19581829D-17
 -0.16759286D-17 -0.95761211D-18 -0.31076600D-18 -0.21881931D-21  0.65006337D-17
  0.85746708D-17  0.95243529D-17  0.81515036D-17  0.46577037D-17  0.15115264D-17
  0.10643093D-20 -0.82510885D-02 -0.10883611D-01 -0.12089018D-01 -0.10346496D-01
 -0.59119045D-02 -0.19185419D-02 -0.13509007D-05  0.24378491D-18  0.33337273D-18
  0.36240974D-18  0.33267319D-18  0.18132040D-18  0.76513725D-19 -0.26388656D-19
 -0.91180257D-18 -0.12468783D-17 -0.13554823D-17 -0.12442619D-17 -0.67817324D-18
 -0.28617608D-18  0.98698661D-19  0.66728177D-02  0.91249923D-02  0.99197858D-02
  0.91058446D-02  0.49630551D-02  0.20943139D-02 -0.72230347D-03  0.15332841D-18
 -0.65939286D-18  0.40173256D-03 -0.36214165D-20  0.70352307D-20 -0.17185505D-04
 -0.14359322D-21  0.42433651D-21  0.15881187D-05 -0.64067428D-05 -0.64067428D-05
  0.12813486D-04 -0.13441654D-20  0.93839987D-20 -0.24914394D-19 -0.13543129D-03
 -0.13543129D-03  0.27086258D-03  0.85099606D-20 -0.21944669D-19 -0.10789403D-19
  0.28972828D-05  0.28972828D-05 -0.57945656D-05  0.28642652D-22  0.37814510D-21
 -0.93476891D-21  0.15176485D-20 -0.37162716D-20 -0.33704564D-04  0.95101641D-21
 -0.58934652D-20  0.50556847D-04 -0.55039618D-20  0.17042280D-19  0.50556847D-04
 -0.53948141D-20  0.19106098D-21 -0.55553382D-21  0.58023397D-05  0.22379753D-21
 -0.47317618D-21 -0.87035096D-05 -0.79698047D-21  0.21397777D-20 -0.87035096D-05
  0.53961737D-21  0.63286416D-04  0.11831028D-03  0.20447710D-03  0.33073253D-03
  0.49988285D-03  0.68842071D-03  0.80460420D-03  0.69523873D-03  0.32426182D-03
  0.44027750D-04  0.11789547D-06  0.23126217D-06  0.10558084D-07 -0.12007861D-03
 -0.22425191D-03 -0.38899964D-03 -0.63074947D-03 -0.97111062D-03 -0.13830796D-02
 -0.17784609D-02 -0.18668547D-02 -0.13199986D-02  0.29231921D-04  0.94843604D-03
  0.52223462D-03 -0.22085214D-05  0.69209160D-04  0.12915453D-03  0.22432596D-03
  0.36335828D-03  0.56128221D-03  0.80019212D-03  0.10407886D-02  0.11092001D-02
  0.82267061D-03 -0.25606681D-04 -0.74529672D-03 -0.73013355D-03  0.34101567D-03
  0.76252224D-04 -0.38458446D-03 -0.17128348D-03  0.22329886D-19  0.29295594D-19
  0.32132802D-19  0.26439378D-19  0.13939363D-19  0.36263635D-20 -0.40129409D-23
 -0.17439194D-18 -0.22879273D-18 -0.25095075D-18 -0.20648625D-18 -0.10886364D-18
 -0.28321173D-19  0.31340265D-22 -0.35287339D-02 -0.46295067D-02 -0.50778633D-02
 -0.41781464D-02 -0.22028014D-02 -0.57306481D-03  0.63415463D-06 -0.13496148D-19
 -0.17720524D-19 -0.19936784D-19 -0.16798248D-19 -0.93967045D-20 -0.23388206D-20
  0.10726958D-20  0.14479599D-18  0.19011801D-18  0.21389558D-18  0.18022320D-18
  0.10081433D-18  0.25092482D-19 -0.11508621D-19  0.29523494D-02  0.38764527D-02
  0.43612707D-02  0.36747003D-02  0.20555758D-02  0.51162864D-03 -0.23465755D-03
 -0.16529723D-20  0.19913715D-19  0.34548013D-03  0.10039338D-19 -0.25964642D-19
 -0.34422646D-03  0.29454228D-21 -0.64461682D-21 -0.12381396D-04  0.11057629D-03
  0.11057629D-03 -0.22115259D-03  0.34007599D-21  0.99071391D-20 -0.35441647D-19
 -0.78926180D-04 -0.78926180D-04  0.15785236D-03 -0.30503628D-20 -0.13430865D-19
  0.37586953D-19  0.23298133D-04  0.23298133D-04 -0.46596266D-04  0.20086301D-21
  0.33674014D-20 -0.81199301D-20  0.12120344D-20 -0.61365373D-21 -0.18431013D-04
  0.27096483D-20  0.26172113D-21  0.27646520D-04 -0.63457515D-20  0.15792401D-20
  0.27646520D-04 -0.27795380D-20 -0.11843078D-20  0.31468866D-20 -0.41305856D-04
 -0.12881241D-20  0.30671231D-20  0.61958783D-04  0.48410475D-20 -0.12507783D-19
  0.61958783D-04  0.40668307D-21
MO    3     MO 0.0        OCC NO =    2.0000000  ORB. ENERGY =   -8.257854
 -0.13512460D-03 -0.25275848D-03 -0.43650254D-03 -0.70506539D-03 -0.10618140D-02
 -0.14440620D-02 -0.16439182D-02 -0.13317992D-02 -0.54060359D-03 -0.49295611D-04
  0.18944413D-05 -0.63348753D-06 -0.35549884D-07  0.26655354D-03  0.49891483D-03
  0.86289239D-03  0.14024756D-02  0.21457762D-02  0.30450048D-02  0.38197056D-02
  0.38945208D-02  0.23928710D-02 -0.52150666D-03 -0.19102017D-02 -0.87365902D-03
  0.46374299D-05 -0.15633528D-03 -0.29240156D-03 -0.50636027D-03 -0.82215047D-03
 -0.12619843D-02 -0.17925925D-02 -0.22741879D-02 -0.23543989D-02 -0.15165190D-02
  0.37299574D-03  0.15204454D-02  0.13260930D-02 -0.67584600D-03 -0.31735574D-03
 -0.23539678D-02 -0.19148651D-03 -0.34783589D-16 -0.45881347D-16 -0.50962905D-16
 -0.43617064D-16 -0.24922440D-16 -0.80878750D-17 -0.56949062D-20  0.70263478D-15
  0.92681148D-15  0.10294599D-14  0.88107256D-15  0.50343778D-15  0.16337653D-15
  0.11503813D-18  0.86738440D-02  0.11441247D-01  0.12708415D-01  0.10876612D-01
  0.62148088D-02  0.20168409D-02  0.14201159D-05  0.96443140D-17  0.13188475D-16
  0.14337201D-16  0.13160801D-16  0.71731709D-17  0.30269404D-17 -0.10439550D-17
  0.32090576D-16  0.43883451D-16  0.47705731D-16  0.43791366D-16  0.23868073D-16
  0.10071868D-16 -0.34736652D-17 -0.73182784D-02 -0.10007652D-01 -0.10879325D-01
 -0.99866518D-02 -0.54431308D-02 -0.22968966D-02  0.79217179D-03  0.92431416D-17
  0.67844480D-17  0.72063870D-05 -0.12149846D-19  0.47660846D-18  0.75754185D-03
 -0.45026610D-20  0.12873740D-19  0.46596747D-05  0.28868258D-04  0.28868258D-04
 -0.57736515D-04  0.76066198D-20  0.15411929D-19 -0.38976410D-19 -0.76801348D-04
 -0.76801348D-04  0.15360270D-03  0.25344795D-19 -0.11530710D-18  0.55099725D-18
  0.11977076D-04  0.11977076D-04 -0.23954153D-04  0.51252234D-20  0.87568556D-20
 -0.95170376D-19 -0.17432293D-19  0.13719270D-18 -0.12449430D-03 -0.16134700D-19
  0.14304873D-18  0.18674145D-03  0.68431580D-19 -0.55462682D-18  0.18674145D-03
  0.56787747D-19 -0.13332846D-22 -0.91129718D-20 -0.39469304D-05  0.57760950D-21
 -0.93421901D-20  0.59203956D-05 -0.53761096D-21  0.36681106D-19  0.59203956D-05
 -0.70475118D-20 -0.37838070D-02 -0.70736074D-02 -0.12225402D-01 -0.19774039D-01
 -0.29887302D-01 -0.41159720D-01 -0.48106169D-01 -0.41567360D-01 -0.19387165D-01
 -0.26323581D-02 -0.70488065D-05 -0.13826844D-04 -0.63125320D-06 -0.15561023D+00
 -0.29060874D+00 -0.50410582D+00 -0.81739016D+00 -0.12584652D+01 -0.17923371D+01
 -0.23047129D+01 -0.24192627D+01 -0.17105902D+01  0.37881736D-01  0.12290812D+01
  0.67676544D+00 -0.28620296D-02 -0.20220751D-02 -0.37734913D-02 -0.65541028D-02
 -0.10616192D-01 -0.16398910D-01 -0.23379110D-01 -0.30408586D-01 -0.32407356D-01
 -0.24035862D-01  0.74814712D-03  0.21775239D-01  0.21332218D-01 -0.99634111D-02
  0.58018455D-01  0.48121947D-02  0.88589811D-03 -0.93708946D-16 -0.12294103D-15
 -0.13484758D-15 -0.11095472D-15 -0.58497524D-16 -0.15218291D-16  0.16840590D-19
 -0.72187333D-15 -0.94705850D-15 -0.10387788D-14 -0.85472367D-15 -0.45062722D-15
 -0.11723191D-15  0.12972906D-18 -0.27054577D-02 -0.35494131D-02 -0.38931652D-02
 -0.32033580D-02 -0.16888737D-02 -0.43936511D-03  0.48620229D-06  0.13546765D-16
  0.17786985D-16  0.20011557D-16  0.16861250D-16  0.94319467D-17  0.23475923D-17
 -0.10767190D-17 -0.75264879D-16 -0.98823245D-16 -0.11118281D-15 -0.93679927D-16
 -0.52403238D-16 -0.13043059D-16  0.59821754D-17  0.13675784D-01  0.17956387D-01
  0.20202146D-01  0.17021836D-01  0.95217763D-02  0.23699507D-02 -0.10869736D-02
 -0.61893269D-18 -0.31747847D-16  0.91026198D-03  0.13609003D-18 -0.13254036D-17
  0.15696606D-02 -0.17120581D-20 -0.30393639D-19  0.42612730D-04 -0.13862570D-03
 -0.13862570D-03  0.27725141D-03  0.51040761D-18 -0.10197176D-18  0.11133018D-17
  0.38686726D-03  0.38686726D-03 -0.77373452D-03 -0.42529435D-17  0.28590220D-18
 -0.46066276D-17 -0.74687269D-04 -0.74687269D-04  0.14937454D-03 -0.49649417D-19
  0.22695420D-19 -0.30895361D-18 -0.10340285D-18 -0.13562114D-18 -0.13017876D-03
  0.61812829D-19 -0.80326854D-19  0.19526815D-03  0.24839571D-18  0.48719027D-18
  0.19526815D-03  0.30161426D-18  0.82819848D-20  0.16812541D-19  0.84940058D-04
 -0.18506070D-20  0.14189594D-19 -0.12741009D-03 -0.22995347D-19 -0.64627218D-19
 -0.12741009D-03 -0.83615249D-20
MO    4     MO 0.0        OCC NO =    2.0000000  ORB. ENERGY =   -6.174704
 -0.15283683D-16 -0.28589024D-16 -0.49371959D-16 -0.79748584D-16 -0.12009973D-15
 -0.16333506D-15 -0.18594041D-15 -0.15063723D-15 -0.61146628D-16 -0.55757314D-17
  0.21427660D-18 -0.71652550D-19 -0.40209787D-20  0.34314053D-16  0.64226460D-16
  0.11108213D-15  0.18054393D-15  0.27623073D-15  0.39199050D-15  0.49171953D-15
  0.50135066D-15  0.30803982D-15 -0.67134758D-16 -0.24590468D-15 -0.11246814D-15
  0.59698708D-18 -0.19619886D-16 -0.36696036D-16 -0.63547592D-16 -0.10317887D-15
 -0.15837749D-15 -0.22496815D-15 -0.28540779D-15 -0.29547417D-15 -0.19032127D-15
  0.46810507D-16  0.19081403D-15  0.16642304D-15 -0.84817844D-16 -0.10615730D-15
  0.30451967D-15 -0.90235038D-17  0.72384642D-03  0.95479074D-03  0.10605380D-02
  0.90767102D-03  0.51863592D-03  0.16830866D-03  0.11851099D-06  0.68246242D-03
  0.90020311D-03  0.99990452D-03  0.85577733D-03  0.48898429D-03  0.15868606D-03
  0.11173544D-06 -0.13398006D-14 -0.17672660D-14 -0.19629984D-14 -0.16800500D-14
 -0.95996706D-15 -0.31153024D-15 -0.21935743D-18 -0.55622816D-03 -0.76063485D-03
 -0.82688670D-03 -0.75903875D-03 -0.41370694D-03 -0.17457638D-03  0.60209278D-04
 -0.52442729D-03 -0.71714757D-03 -0.77961165D-03 -0.71564272D-03 -0.39005434D-03
 -0.16459544D-03  0.56766972D-04  0.11116613D-14  0.15201825D-14  0.16525915D-14
  0.15169926D-14  0.82682257D-15  0.34890324D-15 -0.12033250D-15 -0.56254121D-04
 -0.53037941D-04  0.11198466D-15 -0.35941420D-04 -0.33886564D-04 -0.14318833D-15
  0.33517484D-06  0.31601211D-06  0.16458692D-17 -0.46284408D-16 -0.21997326D-16
  0.68281734D-16  0.18042603D-16 -0.13755968D-04 -0.12969507D-04  0.28302045D-17
 -0.40880020D-16  0.38049816D-16 -0.22086829D-15 -0.97984904D-04 -0.92382877D-04
 -0.49800625D-17 -0.25651114D-17  0.75451739D-17 -0.42053278D-18  0.76884750D-05
  0.72489068D-05 -0.13059844D-04 -0.12313182D-04  0.11493100D-17 -0.13061270D-04
 -0.12314527D-04  0.92477290D-17  0.52240801D-04  0.49254072D-04 -0.12695659D-16
 -0.42943268D-17  0.14066540D-06  0.13262323D-06 -0.49333925D-17  0.13992948D-06
  0.13192938D-06  0.16336501D-16 -0.56192568D-06 -0.52979907D-06 -0.15363234D-17
  0.22134683D-17  0.10093005D-15  0.18868286D-15  0.32610289D-15  0.52745679D-15
  0.79722005D-15  0.10979028D-14  0.12831939D-14  0.11087763D-14  0.51713722D-15
  0.70216062D-16  0.18802131D-18  0.36882009D-18  0.16838178D-19 -0.16314338D-15
 -0.30467721D-15 -0.52850976D-15 -0.85696030D-15 -0.13193879D-14 -0.18791048D-14
 -0.24162848D-14 -0.25363801D-14 -0.17934004D-14  0.39715603D-16  0.12885814D-14
  0.70952788D-15 -0.30005814D-17  0.80938835D-16  0.15104384D-15  0.26234507D-15
  0.42494081D-15  0.65640919D-15  0.93580992D-15  0.12171830D-14  0.12971890D-14
  0.96209810D-15 -0.29946541D-16 -0.87161076D-15 -0.85387771D-15  0.39881153D-15
 -0.17646049D-15 -0.71315441D-15  0.95802266D-17  0.70527444D+01  0.92528166D+01
  0.10148929D+02  0.83507000D+01  0.44026542D+01  0.11453625D+01 -0.12674604D-02
  0.66495224D+01  0.87238113D+01  0.95686913D+01  0.78732709D+01  0.41509441D+01
  0.10798795D+01 -0.11949967D-02 -0.78375596D-15 -0.10282451D-14 -0.11278282D-14
 -0.92799492D-15 -0.48925727D-15 -0.12728162D-15  0.14085009D-18  0.54438235D-02
  0.71477734D-02  0.80417271D-02  0.67757631D-02  0.37902669D-02  0.94338971D-03
 -0.43268398D-03  0.51325874D-02  0.67391185D-02  0.75819627D-02  0.63883768D-02
  0.35735684D-02  0.88945390D-03 -0.40794642D-03  0.27355617D-14  0.35918092D-14
  0.40410275D-14  0.34048712D-14  0.19046372D-14  0.47406033D-15 -0.21742691D-15
  0.56056878D-01  0.52851974D-01 -0.54200205D-17  0.18517638D-03  0.17458941D-03
 -0.80666318D-16 -0.44808651D-05 -0.42246835D-05  0.69200179D-17  0.65554826D-16
  0.20531802D-16 -0.86086629D-16  0.44839481D-17 -0.85581164D-04 -0.80688288D-04
 -0.18286940D-16  0.46918487D-16 -0.28631547D-16  0.14768560D-16  0.20688139D-03
  0.19505349D-03 -0.16342593D-17 -0.11167795D-16  0.12802055D-16  0.11089684D-17
  0.18079627D-04  0.17045972D-04 -0.13449691D-05 -0.12680741D-05 -0.86421957D-17
 -0.16302816D-05 -0.15370746D-05 -0.12703872D-16  0.56651890D-05  0.53412969D-05
  0.38630459D-16 -0.82810903D-16  0.17390188D-05  0.16395950D-05  0.10771986D-16
  0.17551879D-05  0.16548397D-05  0.31140382D-16 -0.69722443D-05 -0.65736247D-05
 -0.63456341D-16  0.13254513D-16
MO    5     MO 0.0        OCC NO =    2.0000000  ORB. ENERGY =   -6.174704
  0.47699177D-17  0.89224105D-17  0.15408602D-16  0.24888909D-16  0.37482184D-16
  0.50975594D-16  0.58030546D-16  0.47012700D-16  0.19083384D-16  0.17401421D-17
 -0.66874048D-19  0.22362200D-19  0.12549160D-20 -0.92856442D-17 -0.17380169D-16
 -0.30059671D-16 -0.48856562D-16 -0.74750141D-16 -0.10607562D-15 -0.13306305D-15
 -0.13566931D-15 -0.83357921D-16  0.18167177D-16  0.66543680D-16  0.30434737D-16
 -0.16154925D-18  0.55596467D-17  0.10398480D-16  0.18007350D-16  0.29237585D-16
  0.44879102D-16  0.63748763D-16  0.80875417D-16  0.83727909D-16  0.53930947D-16
 -0.13264597D-16 -0.54070580D-16 -0.47158954D-16  0.24034658D-16  0.10290482D-16
 -0.32635988D-16 -0.82966599D-17 -0.68246242D-03 -0.90020311D-03 -0.99990452D-03
 -0.85577733D-03 -0.48898429D-03 -0.15868606D-03 -0.11173544D-06  0.72384642D-03
  0.95479074D-03  0.10605380D-02  0.90767102D-03  0.51863592D-03  0.16830866D-03
  0.11851099D-06 -0.50718993D-16 -0.66900966D-16 -0.74310539D-16 -0.63599347D-16
 -0.36340156D-16 -0.11793173D-16 -0.83039133D-20  0.52442729D-03  0.71714757D-03
  0.77961165D-03  0.71564272D-03  0.39005434D-03  0.16459544D-03 -0.56766972D-04
 -0.55622816D-03 -0.76063485D-03 -0.82688670D-03 -0.75903875D-03 -0.41370694D-03
 -0.17457638D-03  0.60209278D-04  0.52907170D-16  0.72349874D-16  0.78651601D-16
  0.72198057D-16  0.39350873D-16  0.16605313D-16 -0.57269709D-17  0.53037941D-04
 -0.56254121D-04  0.79772242D-17  0.33886564D-04 -0.35941420D-04  0.20502617D-16
 -0.31601211D-06  0.33517484D-06  0.28890277D-18 -0.73542526D-17  0.15730643D-16
 -0.83763909D-17  0.48949712D-17  0.12969507D-04 -0.13755968D-04  0.36124550D-16
 -0.33478800D-16 -0.26457501D-17 -0.68515948D-16  0.92382877D-04 -0.97984904D-04
  0.95262217D-18  0.73763792D-19 -0.10263860D-17  0.20363260D-18 -0.72489068D-05
  0.76884750D-05  0.12313182D-04 -0.13059844D-04  0.22176925D-17  0.12314527D-04
 -0.13061270D-04  0.19884508D-16 -0.49254072D-04  0.52240801D-04 -0.26537585D-16
  0.41945021D-16 -0.13262323D-06  0.14066540D-06  0.92585810D-18 -0.13192938D-06
  0.13992948D-06 -0.73114949D-18  0.52979907D-06 -0.56192568D-06 -0.20464248D-17
 -0.81518399D-18  0.10135602D-16  0.18947918D-16  0.32747918D-16  0.52968288D-16
  0.80058466D-16  0.11025364D-15  0.12886095D-15  0.11134558D-15  0.51931976D-16
  0.70512404D-17  0.18881485D-19  0.37037667D-19  0.16909242D-20 -0.28586381D-16
 -0.53386283D-16 -0.92606769D-16 -0.15015867D-15 -0.23118637D-15 -0.32926132D-15
 -0.42338732D-15 -0.44443070D-15 -0.31424400D-15  0.69590649D-17  0.22578837D-15
  0.12432521D-15 -0.52576919D-18  0.89700090D-17  0.16739364D-16  0.29074271D-16
  0.47093869D-16  0.72746245D-16  0.10371070D-15  0.13489375D-15  0.14376037D-15
  0.10662408D-15 -0.33188116D-17 -0.96595861D-16 -0.94630604D-16  0.44198104D-16
 -0.36452152D-16  0.38008162D-16  0.17168124D-16 -0.66495224D+01 -0.87238113D+01
 -0.95686913D+01 -0.78732709D+01 -0.41509441D+01 -0.10798795D+01  0.11949967D-02
  0.70527444D+01  0.92528166D+01  0.10148929D+02  0.83507000D+01  0.44026542D+01
  0.11453625D+01 -0.12674604D-02 -0.61513348D-16 -0.80702163D-16 -0.88517972D-16
 -0.72833990D-16 -0.38399520D-16 -0.99897402D-17  0.11054666D-19 -0.51325874D-02
 -0.67391185D-02 -0.75819627D-02 -0.63883768D-02 -0.35735684D-02 -0.88945390D-03
  0.40794642D-03  0.54438235D-02  0.71477734D-02  0.80417271D-02  0.67757631D-02
  0.37902669D-02  0.94338971D-03 -0.43268398D-03 -0.32817239D-15 -0.43089234D-15
 -0.48478294D-15 -0.40846628D-15 -0.22849031D-15 -0.56870773D-16  0.26083677D-16
 -0.52851974D-01  0.56056878D-01 -0.22220896D-16 -0.17458941D-03  0.18517638D-03
  0.54748799D-17  0.42246835D-05 -0.44808651D-05  0.29439022D-18  0.26004881D-16
 -0.31000700D-16  0.49958194D-17  0.23854268D-16  0.80688288D-04 -0.85581164D-04
 -0.16590963D-15  0.15961257D-15  0.62970587D-17 -0.14319736D-15 -0.19505349D-03
  0.20688139D-03  0.53214731D-18  0.12948402D-17 -0.18269876D-17 -0.23255792D-17
 -0.17045972D-04  0.18079627D-04  0.12680741D-05 -0.13449691D-05  0.52644494D-17
  0.15370746D-05 -0.16302816D-05 -0.12576260D-15 -0.53412969D-05  0.56651890D-05
  0.10996926D-15  0.10425417D-16 -0.16395950D-05  0.17390188D-05 -0.21446542D-17
 -0.16548397D-05  0.17551879D-05  0.20501802D-16  0.65736247D-05 -0.69722443D-05
 -0.14067839D-16 -0.34017855D-18
MO    6     MO 0.0        OCC NO =    2.0000000  ORB. ENERGY =   -6.174147
 -0.67007071D-06 -0.12534065D-05 -0.21645767D-05 -0.34963557D-05 -0.52654397D-05
 -0.71609731D-05 -0.81520419D-05 -0.66042718D-05 -0.26808044D-05 -0.24445249D-06
  0.93943635D-08 -0.31414075D-08 -0.17628867D-09 -0.88053937D-04 -0.16481273D-03
 -0.28504995D-03 -0.46329717D-03 -0.70884088D-03 -0.10058942D-02 -0.12618107D-02
 -0.12865254D-02 -0.79046676D-03  0.17227576D-03  0.63102063D-03  0.28860662D-03
 -0.15319398D-05  0.25406963D-04  0.47519891D-04  0.82291575D-04  0.13361249D-03
  0.20509247D-03  0.29132471D-03  0.36959160D-03  0.38262717D-03  0.24645839D-03
 -0.60617723D-04 -0.24709650D-03 -0.21551114D-03  0.10983569D-03  0.24834730D-03
 -0.42940117D-03 -0.11115227D-03 -0.71705524D-15 -0.94583282D-15 -0.10505879D-14
 -0.89915518D-15 -0.51377004D-15 -0.16672958D-15 -0.11739911D-18 -0.29659759D-15
 -0.39122750D-15 -0.43455765D-15 -0.37192010D-15 -0.21251215D-15 -0.68964826D-16
 -0.48560125D-19 -0.92479232D-05 -0.12198487D-04 -0.13549523D-04 -0.11596482D-04
 -0.66261364D-05 -0.21503257D-05 -0.15141064D-08  0.36510173D-15  0.49927192D-15
  0.54275886D-15  0.49822425D-15  0.27155245D-15  0.11458992D-15 -0.39520673D-16
  0.13621500D-16  0.18627226D-16  0.20249670D-16  0.18588139D-16  0.10131290D-16
  0.42752099D-17 -0.14744681D-17  0.14093009D-03  0.19272008D-03  0.20950614D-03
  0.19231568D-03  0.10481986D-03  0.44231966D-04 -0.15255069D-04  0.98597910D-16
  0.17521273D-17 -0.61466751D-03  0.92165621D-18  0.27665972D-18  0.16877938D-03
  0.12859513D-19  0.13215652D-19  0.70638625D-05  0.19073784D-04  0.19073784D-04