 Molden2AIM, Version 4.0.0 (06/02/2016)           Time: Fri Jun 29 22:41:13 2018
GAUSSIAN             24 MOL ORBITALS    394 PRIMITIVES        2 NUCLEI
  Si   1    (CENTRE  1)   0.00000000  0.00000000 -0.53056707  CHARGE = 14.0
  Se   2    (CENTRE  2)   0.00000000  0.00000000  3.36515625  CHARGE = 34.0
CENTRE ASSIGNMENTS    1  1  1  1  1  1  1  1  1  1  1  1  1  1  1  1  1  1  1  1
CENTRE ASSIGNMENTS    1  1  1  1  1  1  1  1  1  1  1  1  1  1  1  1  1  1  1  1
CENTRE ASSIGNMENTS    1  1  1  1  1  1  1  1  1  1  1  1  1  1  1  1  1  1  1  1
CENTRE ASSIGNMENTS    1  1  1  1  1  1  1  1  1  1  1  1  1  1  1  1  1  1  1  1
CENTRE ASSIGNMENTS    1  1  1  1  1  1  1  1  1  1  1  1  1  1  1  1  1  1  1  1
CENTRE ASSIGNMENTS    1  1  1  1  1  1  1  1  1  1  1  1  1  1  1  1  1  1  1  1
CENTRE ASSIGNMENTS    1  1  1  1  1  1  1  1  1  1  1  2  2  2  2  2  2  2  2  2
CENTRE ASSIGNMENTS    2  2  2  2  2  2  2  2  2  2  2  2  2  2  2  2  2  2  2  2
CENTRE ASSIGNMENTS    2  2  2  2  2  2  2  2  2  2  2  2  2  2  2  2  2  2  2  2
CENTRE ASSIGNMENTS    2  2  2  2  2  2  2  2  2  2  2  2  2  2  2  2  2  2  2  2
CENTRE ASSIGNMENTS    2  2  2  2  2  2  2  2  2  2  2  2  2  2  2  2  2  2  2  2
CENTRE ASSIGNMENTS    2  2  2  2  2  2  2  2  2  2  2  2  2  2  2  2  2  2  2  2
CENTRE ASSIGNMENTS    2  2  2  2  2  2  2  2  2  2  2  2  2  2  2  2  2  2  2  2
CENTRE ASSIGNMENTS    2  2  2  2  2  2  2  2  2  2  2  2  2  2  2  2  2  2  2  2
CENTRE ASSIGNMENTS    2  2  2  2  2  2  2  2  2  2  2  2  2  2  2  2  2  2  2  2
CENTRE ASSIGNMENTS    2  2  2  2  2  2  2  2  2  2  2  2  2  2  2  2  2  2  2  2
CENTRE ASSIGNMENTS    2  2  2  2  2  2  2  2  2  2  2  2  2  2  2  2  2  2  2  2
CENTRE ASSIGNMENTS    2  2  2  2  2  2  2  2  2  2  2  2  2  2  2  2  2  2  2  2
CENTRE ASSIGNMENTS    2  2  2  2  2  2  2  2  2  2  2  2  2  2  2  2  2  2  2  2
CENTRE ASSIGNMENTS    2  2  2  2  2  2  2  2  2  2  2  2  2  2
TYPE ASSIGNMENTS      1  1  1  1  1  1  1  1  1  1  1  1  1  1  1  1  1  1  1  1
TYPE ASSIGNMENTS      1  1  1  1  1  1  1  1  1  1  1  1  1  1  1  1  1  1  1  1
TYPE ASSIGNMENTS      1  1  2  2  2  2  2  2  2  3  3  3  3  3  3  3  4  4  4  4
TYPE ASSIGNMENTS      4  4  4  2  2  2  2  2  2  2  3  3  3  3  3  3  3  4  4  4
TYPE ASSIGNMENTS      4  4  4  4  2  3  4  2  3  4  2  3  4  5  6  7  8  9 10  5
TYPE ASSIGNMENTS      6  7  8  9 10  5  6  7  8  9 10 11 12 13 17 14 15 18 19 16
TYPE ASSIGNMENTS     20 11 12 13 17 14 15 18 19 16 20  1  1  1  1  1  1  1  1  1
TYPE ASSIGNMENTS      1  1  1  1  1  1  1  1  1  1  1  1  1  1  1  1  1  1  1  1
TYPE ASSIGNMENTS      1  1  1  1  1  1  1  1  1  1  1  1  1  1  1  1  1  1  1  1
TYPE ASSIGNMENTS      1  1  1  1  1  1  1  1  1  1  1  1  1  1  1  1  1  1  1  1
TYPE ASSIGNMENTS      1  1  1  1  1  1  2  2  2  2  2  2  2  2  2  2  2  3  3  3
TYPE ASSIGNMENTS      3  3  3  3  3  3  3  3  4  4  4  4  4  4  4  4  4  4  4  2
TYPE ASSIGNMENTS      2  2  2  2  2  2  2  2  2  2  3  3  3  3  3  3  3  3  3  3
TYPE ASSIGNMENTS      3  4  4  4  4  4  4  4  4  4  4  4  2  2  2  2  2  2  2  2
TYPE ASSIGNMENTS      2  2  2  3  3  3  3  3  3  3  3  3  3  3  4  4  4  4  4  4
TYPE ASSIGNMENTS      4  4  4  4  4  2  3  4  2  3  4  2  3  4  5  5  5  5  5  5
TYPE ASSIGNMENTS      5  6  6  6  6  6  6  6  7  7  7  7  7  7  7  8  8  8  8  8
TYPE ASSIGNMENTS      8  8  9  9  9  9  9  9  9 10 10 10 10 10 10 10  5  6  7  8
TYPE ASSIGNMENTS      9 10  5  6  7  8  9 10  5  6  7  8  9 10 11 12 13 17 14 15
TYPE ASSIGNMENTS     18 19 16 20 11 12 13 17 14 15 18 19 16 20
EXPONENTS  0.2549000D+06 0.3819000D+05 0.8690000D+04 0.2462000D+04 0.8048000D+03
EXPONENTS  0.2913000D+03 0.1136000D+03 0.4675000D+02 0.1982000D+02 0.7708000D+01
EXPONENTS  0.3340000D+01 0.1402000D+01 0.2070000D+00 0.2549000D+06 0.3819000D+05
EXPONENTS  0.8690000D+04 0.2462000D+04 0.8048000D+03 0.2913000D+03 0.1136000D+03
EXPONENTS  0.4675000D+02 0.1982000D+02 0.7708000D+01 0.3340000D+01 0.1402000D+01
EXPONENTS  0.2070000D+00 0.2549000D+06 0.3819000D+05 0.8690000D+04 0.2462000D+04
EXPONENTS  0.8048000D+03 0.2913000D+03 0.1136000D+03 0.4675000D+02 0.1982000D+02
EXPONENTS  0.7708000D+01 0.3340000D+01 0.1402000D+01 0.2070000D+00 0.4387000D+00
EXPONENTS  0.7944000D-01 0.3300000D-01 0.4815000D+03 0.1139000D+03 0.3623000D+02
EXPONENTS  0.1334000D+02 0.5252000D+01 0.2120000D+01 0.2528000D+00 0.4815000D+03
EXPONENTS  0.1139000D+03 0.3623000D+02 0.1334000D+02 0.5252000D+01 0.2120000D+01
EXPONENTS  0.2528000D+00 0.4815000D+03 0.1139000D+03 0.3623000D+02 0.1334000D+02
EXPONENTS  0.5252000D+01 0.2120000D+01 0.2528000D+00 0.4815000D+03 0.1139000D+03
EXPONENTS  0.3623000D+02 0.1334000D+02 0.5252000D+01 0.2120000D+01 0.2528000D+00
EXPONENTS  0.4815000D+03 0.1139000D+03 0.3623000D+02 0.1334000D+02 0.5252000D+01
EXPONENTS  0.2120000D+01 0.2528000D+00 0.4815000D+03 0.1139000D+03 0.3623000D+02
EXPONENTS  0.1334000D+02 0.5252000D+01 0.2120000D+01 0.2528000D+00 0.8561000D+00
EXPONENTS  0.8561000D+00 0.8561000D+00 0.7889000D-01 0.7889000D-01 0.7889000D-01
EXPONENTS  0.2370000D-01 0.2370000D-01 0.2370000D-01 0.1590000D+00 0.1590000D+00
EXPONENTS  0.1590000D+00 0.1590000D+00 0.1590000D+00 0.1590000D+00 0.4810000D+00
EXPONENTS  0.4810000D+00 0.4810000D+00 0.4810000D+00 0.4810000D+00 0.4810000D+00
EXPONENTS  0.5560000D-01 0.5560000D-01 0.5560000D-01 0.5560000D-01 0.5560000D-01
EXPONENTS  0.5560000D-01 0.3360000D+00 0.3360000D+00 0.3360000D+00 0.3360000D+00
EXPONENTS  0.3360000D+00 0.3360000D+00 0.3360000D+00 0.3360000D+00 0.3360000D+00
EXPONENTS  0.3360000D+00 0.1250000D+00 0.1250000D+00 0.1250000D+00 0.1250000D+00
EXPONENTS  0.1250000D+00 0.1250000D+00 0.1250000D+00 0.1250000D+00 0.1250000D+00
EXPONENTS  0.1250000D+00 0.9563600D+07 0.1432100D+07 0.3259100D+06 0.9231200D+05
EXPONENTS  0.3011600D+05 0.1087200D+05 0.4240100D+04 0.1758400D+04 0.7665900D+03
EXPONENTS  0.3484300D+03 0.1640300D+03 0.7914200D+02 0.3552400D+02 0.1730500D+02
EXPONENTS  0.8378400D+01 0.3740500D+01 0.1689000D+01 0.2552000D+00 0.9563600D+07
EXPONENTS  0.1432100D+07 0.3259100D+06 0.9231200D+05 0.3011600D+05 0.1087200D+05
EXPONENTS  0.4240100D+04 0.1758400D+04 0.7665900D+03 0.3484300D+03 0.1640300D+03
EXPONENTS  0.7914200D+02 0.3552400D+02 0.1730500D+02 0.8378400D+01 0.3740500D+01
EXPONENTS  0.1689000D+01 0.2552000D+00 0.9563600D+07 0.1432100D+07 0.3259100D+06
EXPONENTS  0.9231200D+05 0.3011600D+05 0.1087200D+05 0.4240100D+04 0.1758400D+04
EXPONENTS  0.7665900D+03 0.3484300D+03 0.1640300D+03 0.7914200D+02 0.3552400D+02
EXPONENTS  0.1730500D+02 0.8378400D+01 0.3740500D+01 0.1689000D+01 0.2552000D+00
EXPONENTS  0.9563600D+07 0.1432100D+07 0.3259100D+06 0.9231200D+05 0.3011600D+05
EXPONENTS  0.1087200D+05 0.4240100D+04 0.1758400D+04 0.7665900D+03 0.3484300D+03
EXPONENTS  0.1640300D+03 0.7914200D+02 0.3552400D+02 0.1730500D+02 0.8378400D+01
EXPONENTS  0.3740500D+01 0.1689000D+01 0.2552000D+00 0.5092700D+00 0.1065100D+00
EXPONENTS  0.3920100D-01 0.8004300D+04 0.1896900D+04 0.6147100D+03 0.2335000D+03
EXPONENTS  0.9785600D+02 0.4351400D+02 0.2006300D+02 0.9112700D+01 0.4106300D+01
EXPONENTS  0.1794900D+01 0.2461500D+00 0.8004300D+04 0.1896900D+04 0.6147100D+03
EXPONENTS  0.2335000D+03 0.9785600D+02 0.4351400D+02 0.2006300D+02 0.9112700D+01
EXPONENTS  0.4106300D+01 0.1794900D+01 0.2461500D+00 0.8004300D+04 0.1896900D+04
EXPONENTS  0.6147100D+03 0.2335000D+03 0.9785600D+02 0.4351400D+02 0.2006300D+02
EXPONENTS  0.9112700D+01 0.4106300D+01 0.1794900D+01 0.2461500D+00 0.8004300D+04
EXPONENTS  0.1896900D+04 0.6147100D+03 0.2335000D+03 0.9785600D+02 0.4351400D+02
EXPONENTS  0.2006300D+02 0.9112700D+01 0.4106300D+01 0.1794900D+01 0.2461500D+00
EXPONENTS  0.8004300D+04 0.1896900D+04 0.6147100D+03 0.2335000D+03 0.9785600D+02
EXPONENTS  0.4351400D+02 0.2006300D+02 0.9112700D+01 0.4106300D+01 0.1794900D+01
EXPONENTS  0.2461500D+00 0.8004300D+04 0.1896900D+04 0.6147100D+03 0.2335000D+03
EXPONENTS  0.9785600D+02 0.4351400D+02 0.2006300D+02 0.9112700D+01 0.4106300D+01
EXPONENTS  0.1794900D+01 0.2461500D+00 0.8004300D+04 0.1896900D+04 0.6147100D+03
EXPONENTS  0.2335000D+03 0.9785600D+02 0.4351400D+02 0.2006300D+02 0.9112700D+01
EXPONENTS  0.4106300D+01 0.1794900D+01 0.2461500D+00 0.8004300D+04 0.1896900D+04
EXPONENTS  0.6147100D+03 0.2335000D+03 0.9785600D+02 0.4351400D+02 0.2006300D+02
EXPONENTS  0.9112700D+01 0.4106300D+01 0.1794900D+01 0.2461500D+00 0.8004300D+04
EXPONENTS  0.1896900D+04 0.6147100D+03 0.2335000D+03 0.9785600D+02 0.4351400D+02
EXPONENTS  0.2006300D+02 0.9112700D+01 0.4106300D+01 0.1794900D+01 0.2461500D+00
EXPONENTS  0.6243200D+00 0.6243200D+00 0.6243200D+00 0.8891700D-01 0.8891700D-01
EXPONENTS  0.8891700D-01 0.3025100D-01 0.3025100D-01 0.3025100D-01 0.3618500D+03
EXPONENTS  0.1085500D+03 0.4143300D+02 0.1757900D+02 0.7862700D+01 0.3518000D+01
EXPONENTS  0.1534800D+01 0.3618500D+03 0.1085500D+03 0.4143300D+02 0.1757900D+02
EXPONENTS  0.7862700D+01 0.3518000D+01 0.1534800D+01 0.3618500D+03 0.1085500D+03
EXPONENTS  0.4143300D+02 0.1757900D+02 0.7862700D+01 0.3518000D+01 0.1534800D+01
EXPONENTS  0.3618500D+03 0.1085500D+03 0.4143300D+02 0.1757900D+02 0.7862700D+01
EXPONENTS  0.3518000D+01 0.1534800D+01 0.3618500D+03 0.1085500D+03 0.4143300D+02
EXPONENTS  0.1757900D+02 0.7862700D+01 0.3518000D+01 0.1534800D+01 0.3618500D+03
EXPONENTS  0.1085500D+03 0.4143300D+02 0.1757900D+02 0.7862700D+01 0.3518000D+01
EXPONENTS  0.1534800D+01 0.6081300D+00 0.6081300D+00 0.6081300D+00 0.6081300D+00
EXPONENTS  0.6081300D+00 0.6081300D+00 0.2220000D+00 0.2220000D+00 0.2220000D+00
EXPONENTS  0.2220000D+00 0.2220000D+00 0.2220000D+00 0.8370000D-01 0.8370000D-01
EXPONENTS  0.8370000D-01 0.8370000D-01 0.8370000D-01 0.8370000D-01 0.4620000D+00
EXPONENTS  0.4620000D+00 0.4620000D+00 0.4620000D+00 0.4620000D+00 0.4620000D+00
EXPONENTS  0.4620000D+00 0.4620000D+00 0.4620000D+00 0.4620000D+00 0.1880000D+00
EXPONENTS  0.1880000D+00 0.1880000D+00 0.1880000D+00 0.1880000D+00 0.1880000D+00
EXPONENTS  0.1880000D+00 0.1880000D+00 0.1880000D+00 0.1880000D+00
MO    1     MO 0.0        OCC NO =    2.0000000  ORB. ENERGY = -456.320472
 -0.10703438D-05 -0.20021408D-05 -0.34576071D-05 -0.55849368D-05 -0.84107999D-05
 -0.11438648D-04 -0.13021741D-04 -0.10549396D-04 -0.42822083D-05 -0.39047850D-06
  0.15006175D-07 -0.50179570D-08 -0.28159637D-09  0.24518964D-05  0.45892750D-05
  0.79373276D-05  0.12900691D-04  0.19737952D-04  0.28009518D-04  0.35135615D-04
  0.35823803D-04  0.22010857D-04 -0.47970862D-05 -0.17571017D-04 -0.80363645D-05
  0.42657463D-07 -0.16247558D-05 -0.30388606D-05 -0.52624832D-05 -0.85444165D-05
 -0.13115507D-04 -0.18629992D-04 -0.23635100D-04 -0.24468714D-04 -0.15760825D-04
  0.38764570D-05  0.15801632D-04  0.13781772D-04 -0.70239086D-05 -0.12632463D-04
 -0.99636213D-04 -0.15989734D-04  0.67547581D-18  0.89098741D-18  0.98966814D-18
  0.84701643D-18  0.48397838D-18  0.15706154D-18  0.11059156D-21  0.17721040D-18
  0.23374965D-18  0.25963844D-18  0.22221391D-18  0.12697124D-18  0.41204936D-19
  0.29013585D-22 -0.13032067D-03 -0.17189967D-03 -0.19093831D-03 -0.16341628D-03
 -0.93374750D-04 -0.30302142D-04 -0.21336613D-07 -0.30584719D-20 -0.41824210D-20
 -0.45467129D-20 -0.41736447D-20 -0.22748058D-20 -0.95992438D-21  0.33106628D-21
 -0.36849793D-19 -0.50391617D-19 -0.54780764D-19 -0.50285877D-19 -0.27407845D-19
 -0.11565584D-19  0.39888297D-20  0.11836556D-03  0.16186338D-03  0.17596180D-03
  0.16152373D-03  0.88036991D-04  0.37149919D-04 -0.12812557D-04  0.13846528D-19
 -0.43527690D-20 -0.86934886D-05 -0.47386170D-21 -0.17588293D-21 -0.30018308D-04
 -0.11368401D-23  0.44335367D-25 -0.67674419D-06 -0.13191671D-06 -0.13191671D-06
  0.26383342D-06  0.77213886D-22  0.16803234D-21  0.34982615D-20 -0.29720638D-05
 -0.29720638D-05  0.59441276D-05 -0.65262677D-21  0.32913907D-20 -0.11549938D-21
  0.33383355D-06  0.33383355D-06 -0.66766710D-06 -0.11666690D-23 -0.99438553D-22
 -0.25069320D-21 -0.33372997D-21 -0.94942920D-21  0.33601613D-05 -0.41762006D-21
 -0.94658722D-21 -0.50402419D-05  0.14188100D-20  0.37948748D-20 -0.50402419D-05
 -0.19175655D-21 -0.56605222D-23 -0.11268821D-21  0.54905475D-06 -0.14116486D-23
 -0.10926371D-21 -0.82358212D-06  0.18393215D-22  0.44732833D-21 -0.82358212D-06
  0.32153359D-22  0.77213908D+00  0.14427059D+01  0.25021926D+01  0.40992307D+01
  0.64190698D+01  0.96397310D+01  0.13749017D+02  0.18165236D+02  0.20948983D+02
  0.18854756D+02  0.10577987D+02  0.25572850D+01  0.12140721D+00 -0.20776423D-02
  0.58435126D-03 -0.22772075D-03  0.21539784D-04  0.21238680D-05  0.41492289D-04
  0.76408695D-04  0.13262630D-03  0.21721703D-03  0.34188962D-03  0.51603711D-03
  0.75223178D-03  0.10329723D-02  0.13118616D-02  0.14127918D-02  0.11270987D-02
  0.25246112D-03 -0.67507536D-03 -0.60032725D-03 -0.11724635D-03 -0.32479650D-05
 -0.23520658D-06 -0.48035619D-08 -0.12413015D-03 -0.22410549D-03 -0.39012498D-03
 -0.63884612D-03 -0.10071773D-02 -0.15198028D-02 -0.22243445D-02 -0.30648545D-02
 -0.39483538D-02 -0.43458959D-02 -0.36585396D-02 -0.87122921D-03  0.29346349D-02
  0.39212875D-02  0.48173818D-03 -0.16832587D-02 -0.74304920D-03  0.36876195D-05
  0.40687669D-04  0.88149382D-04  0.15006277D-03  0.24495547D-03  0.38618281D-03
  0.58277155D-03  0.85293561D-03  0.11765712D-02  0.15176539D-02  0.16777907D-02
  0.14209643D-02  0.34516166D-03 -0.11975076D-02 -0.16901447D-02 -0.20165754D-03
  0.94774404D-03  0.75758424D-03 -0.28700874D-03  0.26220624D-03  0.15242004D-03
  0.33736390D-04 -0.10455760D-16 -0.14985529D-16 -0.19788966D-16 -0.22746418D-16
 -0.20925283D-16 -0.13386477D-16 -0.46335788D-17 -0.52092506D-18 -0.66274365D-20
 -0.11484202D-20 -0.11735605D-22  0.61229128D-17  0.87755540D-17  0.11588456D-16
  0.13320346D-16  0.12253885D-16  0.78391462D-17  0.27134325D-17  0.30505470D-18
  0.38810394D-20  0.67251705D-21  0.68723924D-23  0.33663375D-03  0.48247423D-03
  0.63712573D-03  0.73234391D-03  0.67371062D-03  0.43099114D-03  0.14918275D-03
  0.16771708D-04  0.21337701D-06  0.36974549D-07  0.37783965D-09 -0.60908254D-18
 -0.87855357D-18 -0.11701197D-17 -0.13847936D-17 -0.13307346D-17 -0.91468569D-18
 -0.28798399D-18  0.13918006D-18  0.14283244D-18  0.35970508D-19 -0.39218000D-22
  0.45232526D-17  0.65244355D-17  0.86897039D-17  0.10283945D-16  0.98824848D-17
  0.67927648D-17  0.21386664D-17 -0.10335982D-17 -0.10607219D-17 -0.26712914D-18
  0.29124611D-21 -0.17516936D-02 -0.25266800D-02 -0.33652108D-02 -0.39826032D-02
 -0.38271322D-02 -0.26305943D-02 -0.82822883D-03  0.40027552D-03  0.41077957D-03
  0.10344954D-03 -0.11278918D-06 -0.16431200D-18 -0.23820097D-18 -0.31615221D-18
 -0.37729741D-18 -0.36249325D-18 -0.25372595D-18 -0.76610296D-19  0.46896930D-19
  0.50436811D-19  0.13564108D-19 -0.50562571D-20 -0.10562197D-17 -0.15311880D-17
 -0.20322691D-17 -0.24253187D-17 -0.23301555D-17 -0.16309846D-17 -0.49246132D-18
  0.30145979D-18  0.32421462D-18  0.87191917D-19 -0.32502303D-19  0.12712824D-02
  0.18429616D-02  0.24460706D-02  0.29191512D-02  0.28046113D-02  0.19630784D-02
  0.59273408D-03 -0.36284168D-03 -0.39022975D-03 -0.10494554D-03  0.39120276D-04
 -0.15932250D-19  0.82788288D-19 -0.22730322D-04  0.10937307D-20  0.41411610D-20
 -0.53578079D-04 -0.45244720D-22 -0.26232081D-21 -0.18021631D-05 -0.18562541D-03
 -0.19214004D-03 -0.16075728D-03 -0.10373409D-03 -0.46598772D-04 -0.13606087D-04
 -0.22954303D-05 -0.18562541D-03 -0.19214004D-03 -0.16075728D-03 -0.10373409D-03
 -0.46598772D-04 -0.13606087D-04 -0.22954303D-05  0.37125082D-03  0.38428008D-03
  0.32151455D-03  0.20746818D-03  0.93197544D-04  0.27212175D-04  0.45908606D-05
 -0.14495387D-17 -0.15004110D-17 -0.12553447D-17 -0.81005384D-18 -0.36388726D-18
 -0.10624919D-18 -0.17924890D-19 -0.49117417D-17 -0.50841220D-17 -0.42537183D-17
 -0.27448562D-17 -0.12330269D-17 -0.36002391D-18 -0.60738240D-19 -0.48033850D-17
 -0.49719625D-17 -0.41598781D-17 -0.26843027D-17 -0.12058254D-17 -0.35208152D-18
 -0.59398309D-19  0.99835290D-05  0.99835290D-05 -0.19967058D-04  0.11274632D-19
  0.12037469D-19  0.53315584D-20 -0.28464081D-05 -0.28464081D-05  0.56928162D-05
 -0.85911501D-21  0.27882150D-21  0.50354668D-20 -0.26323138D-05 -0.26323138D-05
  0.52646277D-05  0.53631692D-22 -0.14382820D-21 -0.25039038D-21  0.58630679D-21
  0.72608383D-21  0.59486736D-05  0.18290088D-21  0.19117215D-20 -0.89230104D-05
 -0.19418212D-20 -0.40899730D-20 -0.89230104D-05  0.52429039D-21 -0.23279979D-22
  0.14943466D-21 -0.23827777D-05  0.14037400D-22  0.56744425D-22  0.35741665D-05
  0.55802537D-22 -0.50504841D-21  0.35741665D-05 -0.52988569D-22
MO    2     MO 0.0        OCC NO =    2.0000000  ORB. ENERGY =  -67.084777
  0.50578979D+00  0.94610943D+00  0.16338885D+01  0.26391558D+01  0.39745143D+01
  0.54053207D+01  0.61534096D+01  0.49851056D+01  0.20235529D+01  0.18452019D+00
 -0.70911518D-02  0.23712301D-02  0.13306806D-03 -0.72429850D-03 -0.13556874D-02
 -0.23447134D-02 -0.38109079D-02 -0.58306579D-02 -0.82741065D-02 -0.10379179D-01
 -0.10582473D-01 -0.65020816D-02  0.14170755D-02  0.51905378D-02  0.23739693D-02
 -0.12601159D-04  0.32415039D-03  0.60627440D-03  0.10499030D-02  0.17046721D-02
  0.26166372D-02  0.37168165D-02  0.47153712D-02  0.48816833D-02  0.31443972D-02
 -0.77338085D-03 -0.31525384D-02 -0.27495620D-02  0.14013199D-02 -0.16620022D-02
 -0.17644048D-04  0.88342475D-04 -0.45255004D-18 -0.59693683D-18 -0.66305018D-18
 -0.56747750D-18 -0.32425208D-18 -0.10522687D-18 -0.74093276D-22  0.14737100D-17
  0.19438995D-17  0.21591948D-17  0.18479664D-17  0.10559132D-17  0.34266684D-18
  0.24128161D-21  0.62865302D-02  0.82922574D-02  0.92106609D-02  0.78830275D-02
  0.45042986D-02  0.14617431D-02  0.10292555D-05  0.63445982D-21  0.86761564D-21
  0.94318559D-21  0.86579505D-21  0.47189346D-21  0.19912998D-21 -0.68677514D-22
 -0.54531561D-18 -0.74571208D-18 -0.81066414D-18 -0.74414729D-18 -0.40559049D-18
 -0.17115140D-18  0.59028041D-19 -0.48964925D-02 -0.66958905D-02 -0.72791074D-02
 -0.66818400D-02 -0.36418741D-02 -0.15368009D-02  0.53002400D-03 -0.51956388D-20
 -0.10577712D-18 -0.38844871D-03  0.69494251D-21  0.71653100D-20  0.23415493D-04
 -0.24912281D-22  0.32595884D-21  0.13930359D-05 -0.66635233D-05 -0.66635233D-05
  0.13327047D-04 -0.20312110D-19  0.22148085D-20  0.24466781D-19 -0.96507068D-04
 -0.96507068D-04  0.19301414D-03  0.38154640D-18 -0.23136717D-19 -0.42172688D-19
  0.23143884D-05  0.23143884D-05 -0.46287768D-05  0.39397789D-21 -0.79453085D-22
  0.48458490D-21 -0.16258729D-20 -0.41749443D-20  0.28162068D-04  0.20668512D-21
 -0.44550273D-20 -0.42243103D-04  0.46709336D-20  0.16979860D-19 -0.42243103D-04
  0.30198782D-19  0.34677569D-22 -0.43689876D-21 -0.46569300D-05 -0.65179656D-23
 -0.33634009D-21  0.69853949D-05 -0.97514742D-22  0.16470364D-20  0.69853949D-05
 -0.25917515D-20  0.11097859D-04  0.20735832D-04  0.35963704D-04  0.58917734D-04
  0.92260492D-04  0.13855066D-03  0.19761291D-03  0.26108668D-03  0.30109712D-03
  0.27099707D-03  0.15203609D-03  0.36755539D-04  0.17449708D-05 -0.29861695D-07
  0.83988081D-08 -0.32730021D-08  0.30958863D-09  0.30526091D-10 -0.24037811D-04
 -0.44266003D-04 -0.76834660D-04 -0.12584078D-03 -0.19806760D-03 -0.29895681D-03
 -0.43579195D-03 -0.59843390D-03 -0.76000343D-03 -0.81847548D-03 -0.65296436D-03
 -0.14625881D-03  0.39109276D-03  0.34778879D-03  0.67924561D-04  0.18816501D-05
  0.13626270D-06  0.27828572D-08  0.37900305D-04  0.68425491D-04  0.11911575D-03
  0.19505707D-03  0.30751857D-03  0.46403707D-03  0.67915278D-03  0.93578329D-03
  0.12055396D-02  0.13269200D-02  0.11170515D-02  0.26600993D-03 -0.89602373D-03
 -0.11972755D-02 -0.14708775D-03  0.51394457D-03  0.22687309D-03 -0.11259304D-05
 -0.18724891D-04 -0.40567268D-04 -0.69060459D-04 -0.11273107D-03 -0.17772537D-03
 -0.26819756D-03 -0.39252989D-03 -0.54147038D-03 -0.69844019D-03 -0.77213681D-03
 -0.65394262D-03 -0.15884701D-03  0.55110553D-03  0.77782226D-03  0.92804908D-04
 -0.43616172D-03 -0.34864819D-03  0.13208443D-03  0.17243162D-03 -0.24696338D-03
 -0.14158761D-03 -0.13075611D-18 -0.18740383D-18 -0.24747395D-18 -0.28445883D-18
 -0.26168435D-18 -0.16740665D-18 -0.57945933D-19 -0.65145085D-20 -0.82880427D-22
 -0.14361746D-22 -0.14676141D-24 -0.42907470D-19 -0.61496355D-19 -0.81208296D-19
 -0.93344843D-19 -0.85871420D-19 -0.54934300D-19 -0.19014892D-19 -0.21377285D-20
 -0.27197118D-22 -0.47127905D-23 -0.48159590D-25  0.24221430D-02  0.34714926D-02
  0.45842392D-02  0.52693518D-02  0.48474743D-02  0.31010621D-02  0.10733979D-02
  0.12067559D-03  0.15352876D-05  0.26603881D-06  0.27186272D-08 -0.80021929D-19
 -0.11542533D-18 -0.15373160D-18 -0.18193570D-18 -0.17483337D-18 -0.12017240D-18
 -0.37835651D-19  0.18285629D-19  0.18765481D-19  0.47258446D-20 -0.51525036D-23
  0.80252070D-18  0.11575729D-17  0.15417373D-17  0.18245894D-17  0.17533619D-17
  0.12051802D-17  0.37944466D-18 -0.18338218D-18 -0.18819451D-18 -0.47394361D-19
  0.51673221D-22 -0.98893188D-02 -0.14264563D-01 -0.18998553D-01 -0.22484088D-01
 -0.21606364D-01 -0.14851219D-01 -0.46758286D-02  0.22597857D-02  0.23190872D-02
  0.58403221D-03 -0.63675985D-06 -0.59241172D-19 -0.85881157D-19 -0.11398576D-18
 -0.13603110D-18 -0.13069359D-18 -0.91478546D-19 -0.27621134D-19  0.16908255D-19
  0.18184526D-19  0.48904139D-20 -0.18229868D-20 -0.59357660D-18 -0.86050027D-18
 -0.11420989D-17 -0.13629858D-17 -0.13095058D-17 -0.91658423D-18 -0.27675446D-18
  0.16941502D-18  0.18220283D-18  0.49000300D-19 -0.18265713D-19  0.69918903D-02
  0.10136053D-01  0.13453075D-01  0.16054958D-01  0.15425003D-01  0.10796680D-01
  0.32599615D-02 -0.19955828D-02 -0.21462136D-02 -0.57718705D-03  0.21515650D-03
 -0.83933934D-20  0.21518676D-19 -0.27251250D-03 -0.94958973D-21 -0.14919093D-19
  0.19011788D-03  0.29994492D-22 -0.64238784D-22  0.94969661D-05  0.28844368D-03
  0.29856677D-03  0.24980104D-03  0.16119260D-03  0.72409921D-04  0.21142525D-04
  0.35668736D-05  0.28844368D-03  0.29856677D-03  0.24980104D-03  0.16119260D-03
  0.72409921D-04  0.21142525D-04  0.35668736D-05 -0.57688736D-03 -0.59713354D-03
 -0.49960208D-03 -0.32238521D-03 -0.14481984D-03 -0.42285050D-04 -0.71337471D-05
 -0.32667021D-18 -0.33813489D-18 -0.28290638D-18 -0.18255495D-18 -0.82006181D-19
 -0.23944477D-19 -0.40395801D-20 -0.23085980D-18 -0.23896195D-18 -0.19993164D-18
 -0.12901268D-18 -0.57954259D-19 -0.16921706D-19 -0.28547955D-20  0.63204434D-18
  0.65422629D-18  0.54736971D-18  0.35320889D-18  0.15866626D-18  0.46327981D-19
  0.78158143D-20 -0.42340301D-04 -0.42340301D-04  0.84680603D-04  0.21108319D-20
  0.38386430D-20 -0.44046344D-19  0.74661377D-04  0.74661377D-04 -0.14932275D-03
  0.11159615D-19  0.17555101D-20  0.32253685D-19  0.11773983D-04  0.11773983D-04
 -0.23547966D-04  0.90380114D-21  0.40969858D-21  0.41771346D-20 -0.32280596D-21
 -0.21225161D-20  0.20237482D-04 -0.45206118D-21 -0.21216469D-20 -0.30356223D-04
  0.14204791D-20  0.84891953D-20 -0.30356223D-04 -0.64077899D-20  0.29177493D-21
  0.28783447D-20  0.25583721D-04  0.33159830D-21  0.28881099D-20 -0.38375581D-04
 -0.12069231D-20 -0.11523144D-19 -0.38375581D-04 -0.56716437D-20
MO    3     MO 0.0        OCC NO =    2.0000000  ORB. ENERGY =  -58.890468
  0.17728412D-04  0.33162034D-04  0.57269342D-04  0.92504915D-04  0.13931050D-03
  0.18946162D-03  0.21568285D-03  0.17473268D-03  0.70927449D-04  0.64676077D-05
 -0.24855160D-06  0.83113866D-07  0.46641618D-08 -0.41141851D-04 -0.77006217D-04
 -0.13318521D-03 -0.21646849D-03 -0.33119503D-03 -0.46998863D-03 -0.58956171D-03
 -0.60110923D-03 -0.36933347D-03  0.80493207D-04  0.29483471D-03  0.13484702D-03
 -0.71577535D-06  0.27367392D-04  0.51186577D-04  0.88641282D-04  0.14392218D-03
  0.22091763D-03  0.31380364D-03  0.39810969D-03  0.41215109D-03  0.26547539D-03
 -0.65295052D-04 -0.26616273D-03 -0.23214021D-03  0.11831074D-03  0.22313563D-03
  0.17760577D-02  0.28266514D-03  0.37375693D-15  0.49300465D-15  0.54760706D-15
  0.46867446D-15  0.26779682D-15  0.86905905D-16  0.61192956D-19 -0.36875916D-15
 -0.48641233D-15 -0.54028461D-15 -0.46240748D-15 -0.26421592D-15 -0.85743824D-16
 -0.60374702D-19  0.23132672D-02  0.30513187D-02  0.33892655D-02  0.29007336D-02
  0.16574559D-02  0.53788056D-03  0.37873722D-06 -0.21578850D-17 -0.29508800D-17
 -0.32079038D-17 -0.29446879D-17 -0.16049745D-17 -0.67726841D-18  0.23358166D-18
 -0.16471032D-17 -0.22523925D-17 -0.24485775D-17 -0.22476661D-17 -0.12250693D-17
 -0.51695572D-18  0.17829176D-18 -0.20917123D-02 -0.28603896D-02 -0.31095316D-02
 -0.28543874D-02 -0.15557571D-02 -0.65649960D-03  0.22641875D-03 -0.14348867D-18
 -0.65483278D-18  0.14814962D-03 -0.67207652D-20  0.39164235D-19  0.53595880D-03
  0.54875113D-21  0.13562367D-20  0.11927174D-04  0.18926185D-05  0.18926185D-05
 -0.37852370D-05  0.76484842D-20  0.10161357D-20  0.10241402D-18  0.53111373D-04
  0.53111373D-04 -0.10622275D-03  0.72214949D-20 -0.40240344D-19 -0.37824867D-19
 -0.60026728D-05 -0.60026728D-05  0.12005346D-04 -0.14021825D-20 -0.18688047D-20
  0.15981076D-20 -0.12460418D-20 -0.17284780D-19 -0.58626041D-04  0.29801405D-20
 -0.18177282D-19  0.87939061D-04  0.75798485D-21  0.70031620D-19  0.87939061D-04
  0.16427670D-19 -0.84955120D-22 -0.32491151D-20 -0.97275645D-05 -0.42811211D-21
 -0.31795156D-20  0.14591347D-04  0.68297747D-21  0.12926861D-19  0.14591347D-04
  0.98528125D-21  0.55529380D-03  0.10375406D-02  0.17994842D-02  0.29480148D-02
  0.46163570D-02  0.69325373D-02  0.98877831D-02  0.13063765D-01  0.15065732D-01
  0.13559642D-01  0.76072963D-02  0.18391046D-02  0.87311568D-04 -0.14941634D-05
  0.42024377D-06 -0.16376833D-06  0.15490614D-07  0.15274072D-08 -0.24654820D+00
 -0.45402234D+00 -0.78806872D+00 -0.12907090D+01 -0.20315165D+01 -0.30663052D+01
 -0.44697797D+01 -0.61379466D+01 -0.77951140D+01 -0.83948433D+01 -0.66972482D+01
 -0.15001302D+01  0.40113144D+01  0.35671592D+01  0.69668067D+00  0.19299488D-01
  0.13976033D-02  0.28542883D-04  0.21795735D-02  0.39350182D-02  0.68501174D-02
  0.11217356D-01  0.17684801D-01  0.26685878D-01  0.39056768D-01  0.53815095D-01
  0.69328261D-01  0.76308615D-01  0.64239479D-01  0.15297719D-01 -0.51528599D-01
 -0.68853010D-01 -0.84587331D-02  0.29555962D-01  0.13047035D-01 -0.64750087D-04
 -0.72758204D-03 -0.15762984D-02 -0.26834415D-02 -0.43803247D-02 -0.69057698D-02
 -0.10421195D-01 -0.15252303D-01 -0.21039595D-01 -0.27138879D-01 -0.30002465D-01
 -0.25409863D-01 -0.61722245D-02  0.21413983D-01  0.30223381D-01  0.36060656D-02
 -0.16947679D-01 -0.13547217D-01  0.51323267D-02 -0.49203890D-02 -0.27343008D-02
 -0.59563182D-03 -0.73837515D-15 -0.10582628D-14 -0.13974767D-14 -0.16063290D-14
 -0.14777223D-14 -0.94533941D-15 -0.32721864D-15 -0.36787199D-16 -0.46802284D-18
 -0.81100271D-19 -0.82875651D-21  0.90936704D-15  0.13033339D-14  0.17211024D-14
  0.19783204D-14  0.18199311D-14  0.11642598D-14  0.40299547D-15  0.45306327D-16
  0.57640692D-18  0.99881358D-19  0.10206788D-20 -0.55038019D-02 -0.78882245D-02
 -0.10416703D-01 -0.11973475D-01 -0.11014849D-01 -0.70465004D-02 -0.24390671D-02
 -0.27420946D-03 -0.34886128D-05 -0.60451631D-06 -0.61774988D-08  0.51929243D-16
  0.74903841D-16  0.99762225D-16  0.11806492D-15  0.11345596D-15  0.77984398D-16
  0.24552979D-16 -0.11866233D-16 -0.12177627D-16 -0.30667785D-17  0.33436536D-20
  0.57736319D-16  0.83280091D-16  0.11091831D-15  0.13126773D-15  0.12614336D-15
  0.86705136D-16  0.27298657D-16 -0.13193195D-16 -0.13539411D-16 -0.34097262D-17
  0.37175634D-20  0.30610810D-01  0.44153682D-01  0.58806991D-01  0.69595911D-01
  0.66879057D-01  0.45969583D-01  0.14473282D-01 -0.69948066D-02 -0.71783647D-02
 -0.18077786D-02  0.19709886D-05 -0.76440620D-17 -0.11081497D-16 -0.14707916D-16
 -0.17552491D-16 -0.16863777D-16 -0.11803745D-16 -0.35640358D-17  0.21817216D-17
  0.23464027D-17  0.63102442D-18 -0.23522532D-18 -0.13363137D-16 -0.19372367D-16
 -0.25711972D-16 -0.30684778D-16 -0.29480787D-16 -0.20634980D-16 -0.62305488D-17
  0.38140253D-17  0.41019161D-17  0.11031394D-17 -0.41121439D-18 -0.22375010D-01
 -0.32436761D-01 -0.43051688D-01 -0.51378070D-01 -0.49362129D-01 -0.34550859D-01
 -0.10432325D-01  0.63861391D-02  0.68681786D-02  0.18470779D-02 -0.68853038D-03
  0.95625524D-18  0.11043145D-17  0.39397057D-03  0.44980897D-19  0.64398290D-20
  0.95179297D-03 -0.28650021D-20 -0.65636963D-20  0.31825901D-04  0.36399466D-02
  0.37676926D-02  0.31523049D-02  0.20341318D-02  0.91375983D-03  0.26680308D-03
  0.45011315D-04  0.36399466D-02  0.37676926D-02  0.31523049D-02  0.20341318D-02
  0.91375983D-03  0.26680308D-03  0.45011315D-04 -0.72798932D-02 -0.75353851D-02
 -0.63046099D-02 -0.40682637D-02 -0.18275197D-02 -0.53360616D-03 -0.90022630D-04
 -0.22758586D-15 -0.23557311D-15 -0.19709630D-15 -0.12718308D-15 -0.57132380D-16
 -0.16681730D-16 -0.28143101D-17 -0.11600154D-15 -0.12007268D-15 -0.10046088D-15
 -0.64825792D-16 -0.29120632D-16 -0.85027533D-17 -0.14344666D-17 -0.31650100D-16
 -0.32760878D-16 -0.27409953D-16 -0.17687203D-16 -0.79453336D-17 -0.23199088D-17
 -0.39138283D-18 -0.17527451D-03 -0.17527451D-03  0.35054901D-03  0.74560392D-18
  0.29366797D-18 -0.83176262D-19  0.50173887D-04  0.50173887D-04 -0.10034777D-03
 -0.10338359D-18 -0.32636428D-19  0.11935369D-18  0.46701513D-04  0.46701513D-04
 -0.93403026D-04  0.76721729D-20 -0.15746576D-20  0.13384472D-19 -0.52837262D-20
  0.96826491D-20 -0.10440840D-03 -0.14175363D-19  0.57045668D-21  0.15661260D-03
  0.30026542D-19 -0.29618404D-19  0.15661260D-03 -0.37642281D-19 -0.22808352D-21
  0.68633827D-20  0.41942449D-04 -0.20852481D-21  0.80678634D-20 -0.62913673D-04
  0.89277538D-21 -0.28658011D-19 -0.62913673D-04  0.81907884D-20
MO    4     MO 0.0        OCC NO =    2.0000000  ORB. ENERGY =  -52.946497
  0.26577127D-16  0.49714073D-16  0.85853970D-16  0.13867654D-15  0.20884402D-15
  0.28402688D-15  0.32333580D-15  0.26194634D-15  0.10632920D-15  0.96957600D-17
 -0.37261021D-18  0.12459817D-18  0.69921670D-20 -0.49779391D-16 -0.93173313D-16
 -0.16114683D-15 -0.26191504D-15 -0.40072788D-15 -0.56866055D-15 -0.71333743D-15
 -0.72730931D-15 -0.44687330D-15  0.97392380D-16  0.35673388D-15  0.16315752D-15
 -0.86604904D-18  0.23998123D-16  0.44884868D-16  0.77728429D-16  0.12620355D-15
  0.19371990D-15  0.27517047D-15  0.34909739D-15  0.36141013D-15  0.23279204D-15
 -0.57256412D-16 -0.23339476D-15 -0.20356084D-15  0.10374520D-15 -0.84967428D-16