 Molden2AIM, Version 4.0.0 (06/02/2016)           Time: Mon Jul  2 18:24:38 2018
GAUSSIAN             30 MOL ORBITALS    670 PRIMITIVES       10 NUCLEI
  S    1    (CENTRE  1)   2.25597017 -2.70506169  0.00000189  CHARGE = 16.0
  S    2    (CENTRE  2)   3.29977929  1.21918893  0.00000000  CHARGE = 16.0
  C    3    (CENTRE  3)   0.40071265  2.85476957  0.00000000  CHARGE =  6.0
  C    4    (CENTRE  4)  -1.96197035  1.94449417  0.00000000  CHARGE =  6.0
  C    5    (CENTRE  5)  -2.67074426 -0.72026533  0.00000000  CHARGE =  6.0
  C    6    (CENTRE  6)  -1.07260288 -2.68413675 -0.00000189  CHARGE =  6.0
  H    7    (CENTRE  7)   0.75889700  4.88769914  0.00000000  CHARGE =  1.0
  H    8    (CENTRE  8)  -3.49127090  3.32599546  0.00000189  CHARGE =  1.0
  H    9    (CENTRE  9)  -4.68430792 -1.15942635  0.00000000  CHARGE =  1.0
  H   10    (CENTRE 10)  -1.77171462 -4.62638403  0.00000000  CHARGE =  1.0
CENTRE ASSIGNMENTS    1  1  1  1  1  1  1  1  1  1  1  1  1  1  1  1  1  1  1  1
CENTRE ASSIGNMENTS    1  1  1  1  1  1  1  1  1  1  1  1  1  1  1  1  1  1  1  1
CENTRE ASSIGNMENTS    1  1  1  1  1  1  1  1  1  1  1  1  1  1  1  1  1  1  1  1
CENTRE ASSIGNMENTS    1  1  1  1  1  1  1  1  1  1  1  1  1  1  1  1  1  1  1  1
CENTRE ASSIGNMENTS    1  1  1  1  1  1  1  1  1  1  1  1  1  1  1  1  1  1  1  1
CENTRE ASSIGNMENTS    1  1  1  1  1  1  1  1  1  1  1  1  1  1  1  1  1  1  1  1
CENTRE ASSIGNMENTS    1  1  1  1  1  1  1  1  1  1  1  2  2  2  2  2  2  2  2  2
CENTRE ASSIGNMENTS    2  2  2  2  2  2  2  2  2  2  2  2  2  2  2  2  2  2  2  2
CENTRE ASSIGNMENTS    2  2  2  2  2  2  2  2  2  2  2  2  2  2  2  2  2  2  2  2
CENTRE ASSIGNMENTS    2  2  2  2  2  2  2  2  2  2  2  2  2  2  2  2  2  2  2  2
CENTRE ASSIGNMENTS    2  2  2  2  2  2  2  2  2  2  2  2  2  2  2  2  2  2  2  2
CENTRE ASSIGNMENTS    2  2  2  2  2  2  2  2  2  2  2  2  2  2  2  2  2  2  2  2
CENTRE ASSIGNMENTS    2  2  2  2  2  2  2  2  2  2  2  2  2  2  2  2  2  2  2  2
CENTRE ASSIGNMENTS    2  2  3  3  3  3  3  3  3  3  3  3  3  3  3  3  3  3  3  3
CENTRE ASSIGNMENTS    3  3  3  3  3  3  3  3  3  3  3  3  3  3  3  3  3  3  3  3
CENTRE ASSIGNMENTS    3  3  3  3  3  3  3  3  3  3  3  3  3  3  3  3  3  3  3  3
CENTRE ASSIGNMENTS    3  3  3  3  3  3  3  3  3  3  3  3  3  3  3  3  3  4  4  4
CENTRE ASSIGNMENTS    4  4  4  4  4  4  4  4  4  4  4  4  4  4  4  4  4  4  4  4
CENTRE ASSIGNMENTS    4  4  4  4  4  4  4  4  4  4  4  4  4  4  4  4  4  4  4  4
CENTRE ASSIGNMENTS    4  4  4  4  4  4  4  4  4  4  4  4  4  4  4  4  4  4  4  4
CENTRE ASSIGNMENTS    4  4  4  4  4  4  4  4  4  4  4  4  5  5  5  5  5  5  5  5
CENTRE ASSIGNMENTS    5  5  5  5  5  5  5  5  5  5  5  5  5  5  5  5  5  5  5  5
CENTRE ASSIGNMENTS    5  5  5  5  5  5  5  5  5  5  5  5  5  5  5  5  5  5  5  5
CENTRE ASSIGNMENTS    5  5  5  5  5  5  5  5  5  5  5  5  5  5  5  5  5  5  5  5
CENTRE ASSIGNMENTS    5  5  5  5  5  5  5  6  6  6  6  6  6  6  6  6  6  6  6  6
CENTRE ASSIGNMENTS    6  6  6  6  6  6  6  6  6  6  6  6  6  6  6  6  6  6  6  6
CENTRE ASSIGNMENTS    6  6  6  6  6  6  6  6  6  6  6  6  6  6  6  6  6  6  6  6
CENTRE ASSIGNMENTS    6  6  6  6  6  6  6  6  6  6  6  6  6  6  6  6  6  6  6  6
CENTRE ASSIGNMENTS    6  6  7  7  7  7  7  7  7  7  7  7  7  7  7  7  7  7  7  7
CENTRE ASSIGNMENTS    7  7  7  7  7  7  7  7  7  8  8  8  8  8  8  8  8  8  8  8
CENTRE ASSIGNMENTS    8  8  8  8  8  8  8  8  8  8  8  8  8  8  8  8  9  9  9  9
CENTRE ASSIGNMENTS    9  9  9  9  9  9  9  9  9  9  9  9  9  9  9  9  9  9  9  9
CENTRE ASSIGNMENTS    9  9  9 10 10 10 10 10 10 10 10 10 10 10 10 10 10 10 10 10
CENTRE ASSIGNMENTS   10 10 10 10 10 10 10 10 10 10
TYPE ASSIGNMENTS      1  1  1  1  1  1  1  1  1  1  1  1  1  1  1  1  1  1  1  1
TYPE ASSIGNMENTS      1  1  1  1  1  1  1  1  1  1  1  1  1  1  1  1  1  1  1  1
TYPE ASSIGNMENTS      1  1  2  2  2  2  2  2  2  3  3  3  3  3  3  3  4  4  4  4
TYPE ASSIGNMENTS      4  4  4  2  2  2  2  2  2  2  3  3  3  3  3  3  3  4  4  4
TYPE ASSIGNMENTS      4  4  4  4  2  3  4  2  3  4  2  3  4  5  6  7  8  9 10  5
TYPE ASSIGNMENTS      6  7  8  9 10  5  6  7  8  9 10 11 12 13 17 14 15 18 19 16
TYPE ASSIGNMENTS     20 11 12 13 17 14 15 18 19 16 20  1  1  1  1  1  1  1  1  1
TYPE ASSIGNMENTS      1  1  1  1  1  1  1  1  1  1  1  1  1  1  1  1  1  1  1  1
TYPE ASSIGNMENTS      1  1  1  1  1  1  1  1  1  1  1  1  1  2  2  2  2  2  2  2
TYPE ASSIGNMENTS      3  3  3  3  3  3  3  4  4  4  4  4  4  4  2  2  2  2  2  2
TYPE ASSIGNMENTS      2  3  3  3  3  3  3  3  4  4  4  4  4  4  4  2  3  4  2  3
TYPE ASSIGNMENTS      4  2  3  4  5  6  7  8  9 10  5  6  7  8  9 10  5  6  7  8
TYPE ASSIGNMENTS      9 10 11 12 13 17 14 15 18 19 16 20 11 12 13 17 14 15 18 19
TYPE ASSIGNMENTS     16 20  1  1  1  1  1  1  1  1  1  1  1  1  1  1  1  1  1  1
TYPE ASSIGNMENTS      1  2  2  2  3  3  3  4  4  4  2  3  4  2  3  4  2  3  4  5
TYPE ASSIGNMENTS      6  7  8  9 10  5  6  7  8  9 10  5  6  7  8  9 10 11 12 13
TYPE ASSIGNMENTS     17 14 15 18 19 16 20 11 12 13 17 14 15 18 19 16 20  1  1  1
TYPE ASSIGNMENTS      1  1  1  1  1  1  1  1  1  1  1  1  1  1  1  1  2  2  2  3
TYPE ASSIGNMENTS      3  3  4  4  4  2  3  4  2  3  4  2  3  4  5  6  7  8  9 10
TYPE ASSIGNMENTS      5  6  7  8  9 10  5  6  7  8  9 10 11 12 13 17 14 15 18 19
TYPE ASSIGNMENTS     16 20 11 12 13 17 14 15 18 19 16 20  1  1  1  1  1  1  1  1
TYPE ASSIGNMENTS      1  1  1  1  1  1  1  1  1  1  1  2  2  2  3  3  3  4  4  4
TYPE ASSIGNMENTS      2  3  4  2  3  4  2  3  4  5  6  7  8  9 10  5  6  7  8  9
TYPE ASSIGNMENTS     10  5  6  7  8  9 10 11 12 13 17 14 15 18 19 16 20 11 12 13
TYPE ASSIGNMENTS     17 14 15 18 19 16 20  1  1  1  1  1  1  1  1  1  1  1  1  1
TYPE ASSIGNMENTS      1  1  1  1  1  1  2  2  2  3  3  3  4  4  4  2  3  4  2  3
TYPE ASSIGNMENTS      4  2  3  4  5  6  7  8  9 10  5  6  7  8  9 10  5  6  7  8
TYPE ASSIGNMENTS      9 10 11 12 13 17 14 15 18 19 16 20 11 12 13 17 14 15 18 19
TYPE ASSIGNMENTS     16 20  1  1  1  1  1  1  2  3  4  2  3  4  2  3  4  5  6  7
TYPE ASSIGNMENTS      8  9 10  5  6  7  8  9 10  1  1  1  1  1  1  2  3  4  2  3
TYPE ASSIGNMENTS      4  2  3  4  5  6  7  8  9 10  5  6  7  8  9 10  1  1  1  1
TYPE ASSIGNMENTS      1  1  2  3  4  2  3  4  2  3  4  5  6  7  8  9 10  5  6  7
TYPE ASSIGNMENTS      8  9 10  1  1  1  1  1  1  2  3  4  2  3  4  2  3  4  5  6
TYPE ASSIGNMENTS      7  8  9 10  5  6  7  8  9 10
EXPONENTS  0.3741000D+06 0.5605000D+05 0.1276000D+05 0.3615000D+04 0.1183000D+04
EXPONENTS  0.4288000D+03 0.1678000D+03 0.6947000D+02 0.2984000D+02 0.1272000D+02
EXPONENTS  0.5244000D+01 0.2219000D+01 0.3490000D+00 0.3741000D+06 0.5605000D+05
EXPONENTS  0.1276000D+05 0.3615000D+04 0.1183000D+04 0.4288000D+03 0.1678000D+03
EXPONENTS  0.6947000D+02 0.2984000D+02 0.1272000D+02 0.5244000D+01 0.2219000D+01
EXPONENTS  0.3490000D+00 0.3741000D+06 0.5605000D+05 0.1276000D+05 0.3615000D+04
EXPONENTS  0.1183000D+04 0.4288000D+03 0.1678000D+03 0.6947000D+02 0.2984000D+02
EXPONENTS  0.1272000D+02 0.5244000D+01 0.2219000D+01 0.3490000D+00 0.7767000D+00
EXPONENTS  0.1322000D+00 0.4970000D-01 0.5744000D+03 0.1358000D+03 0.4319000D+02
EXPONENTS  0.1587000D+02 0.6208000D+01 0.2483000D+01 0.3229000D+00 0.5744000D+03
EXPONENTS  0.1358000D+03 0.4319000D+02 0.1587000D+02 0.6208000D+01 0.2483000D+01
EXPONENTS  0.3229000D+00 0.5744000D+03 0.1358000D+03 0.4319000D+02 0.1587000D+02
EXPONENTS  0.6208000D+01 0.2483000D+01 0.3229000D+00 0.5744000D+03 0.1358000D+03
EXPONENTS  0.4319000D+02 0.1587000D+02 0.6208000D+01 0.2483000D+01 0.3229000D+00
EXPONENTS  0.5744000D+03 0.1358000D+03 0.4319000D+02 0.1587000D+02 0.6208000D+01
EXPONENTS  0.2483000D+01 0.3229000D+00 0.5744000D+03 0.1358000D+03 0.4319000D+02
EXPONENTS  0.1587000D+02 0.6208000D+01 0.2483000D+01 0.3229000D+00 0.8688000D+00
EXPONENTS  0.8688000D+00 0.8688000D+00 0.1098000D+00 0.1098000D+00 0.1098000D+00
EXPONENTS  0.3510000D-01 0.3510000D-01 0.3510000D-01 0.2690000D+00 0.2690000D+00
EXPONENTS  0.2690000D+00 0.2690000D+00 0.2690000D+00 0.2690000D+00 0.8190000D+00
EXPONENTS  0.8190000D+00 0.8190000D+00 0.8190000D+00 0.8190000D+00 0.8190000D+00
EXPONENTS  0.1010000D+00 0.1010000D+00 0.1010000D+00 0.1010000D+00 0.1010000D+00
EXPONENTS  0.1010000D+00 0.5570000D+00 0.5570000D+00 0.5570000D+00 0.5570000D+00
EXPONENTS  0.5570000D+00 0.5570000D+00 0.5570000D+00 0.5570000D+00 0.5570000D+00
EXPONENTS  0.5570000D+00 0.2180000D+00 0.2180000D+00 0.2180000D+00 0.2180000D+00
EXPONENTS  0.2180000D+00 0.2180000D+00 0.2180000D+00 0.2180000D+00 0.2180000D+00
EXPONENTS  0.2180000D+00 0.3741000D+06 0.5605000D+05 0.1276000D+05 0.3615000D+04
EXPONENTS  0.1183000D+04 0.4288000D+03 0.1678000D+03 0.6947000D+02 0.2984000D+02
EXPONENTS  0.1272000D+02 0.5244000D+01 0.2219000D+01 0.3490000D+00 0.3741000D+06
EXPONENTS  0.5605000D+05 0.1276000D+05 0.3615000D+04 0.1183000D+04 0.4288000D+03
EXPONENTS  0.1678000D+03 0.6947000D+02 0.2984000D+02 0.1272000D+02 0.5244000D+01
EXPONENTS  0.2219000D+01 0.3490000D+00 0.3741000D+06 0.5605000D+05 0.1276000D+05
EXPONENTS  0.3615000D+04 0.1183000D+04 0.4288000D+03 0.1678000D+03 0.6947000D+02
EXPONENTS  0.2984000D+02 0.1272000D+02 0.5244000D+01 0.2219000D+01 0.3490000D+00
EXPONENTS  0.7767000D+00 0.1322000D+00 0.4970000D-01 0.5744000D+03 0.1358000D+03
EXPONENTS  0.4319000D+02 0.1587000D+02 0.6208000D+01 0.2483000D+01 0.3229000D+00
EXPONENTS  0.5744000D+03 0.1358000D+03 0.4319000D+02 0.1587000D+02 0.6208000D+01
EXPONENTS  0.2483000D+01 0.3229000D+00 0.5744000D+03 0.1358000D+03 0.4319000D+02
EXPONENTS  0.1587000D+02 0.6208000D+01 0.2483000D+01 0.3229000D+00 0.5744000D+03
EXPONENTS  0.1358000D+03 0.4319000D+02 0.1587000D+02 0.6208000D+01 0.2483000D+01
EXPONENTS  0.3229000D+00 0.5744000D+03 0.1358000D+03 0.4319000D+02 0.1587000D+02
EXPONENTS  0.6208000D+01 0.2483000D+01 0.3229000D+00 0.5744000D+03 0.1358000D+03
EXPONENTS  0.4319000D+02 0.1587000D+02 0.6208000D+01 0.2483000D+01 0.3229000D+00
EXPONENTS  0.8688000D+00 0.8688000D+00 0.8688000D+00 0.1098000D+00 0.1098000D+00
EXPONENTS  0.1098000D+00 0.3510000D-01 0.3510000D-01 0.3510000D-01 0.2690000D+00
EXPONENTS  0.2690000D+00 0.2690000D+00 0.2690000D+00 0.2690000D+00 0.2690000D+00
EXPONENTS  0.8190000D+00 0.8190000D+00 0.8190000D+00 0.8190000D+00 0.8190000D+00
EXPONENTS  0.8190000D+00 0.1010000D+00 0.1010000D+00 0.1010000D+00 0.1010000D+00
EXPONENTS  0.1010000D+00 0.1010000D+00 0.5570000D+00 0.5570000D+00 0.5570000D+00
EXPONENTS  0.5570000D+00 0.5570000D+00 0.5570000D+00 0.5570000D+00 0.5570000D+00
EXPONENTS  0.5570000D+00 0.5570000D+00 0.2180000D+00 0.2180000D+00 0.2180000D+00
EXPONENTS  0.2180000D+00 0.2180000D+00 0.2180000D+00 0.2180000D+00 0.2180000D+00
EXPONENTS  0.2180000D+00 0.2180000D+00 0.8236000D+04 0.1235000D+04 0.2808000D+03
EXPONENTS  0.7927000D+02 0.2559000D+02 0.8997000D+01 0.3319000D+01 0.3643000D+00
EXPONENTS  0.8236000D+04 0.1235000D+04 0.2808000D+03 0.7927000D+02 0.2559000D+02
EXPONENTS  0.8997000D+01 0.3319000D+01 0.3643000D+00 0.9059000D+00 0.1285000D+00
EXPONENTS  0.4402000D-01 0.1871000D+02 0.4133000D+01 0.1200000D+01 0.1871000D+02
EXPONENTS  0.4133000D+01 0.1200000D+01 0.1871000D+02 0.4133000D+01 0.1200000D+01
EXPONENTS  0.3827000D+00 0.3827000D+00 0.3827000D+00 0.1209000D+00 0.1209000D+00
EXPONENTS  0.1209000D+00 0.3569000D-01 0.3569000D-01 0.3569000D-01 0.1097000D+01
EXPONENTS  0.1097000D+01 0.1097000D+01 0.1097000D+01 0.1097000D+01 0.1097000D+01
EXPONENTS  0.3180000D+00 0.3180000D+00 0.3180000D+00 0.3180000D+00 0.3180000D+00
EXPONENTS  0.3180000D+00 0.1000000D+00 0.1000000D+00 0.1000000D+00 0.1000000D+00
EXPONENTS  0.1000000D+00 0.1000000D+00 0.7610000D+00 0.7610000D+00 0.7610000D+00
EXPONENTS  0.7610000D+00 0.7610000D+00 0.7610000D+00 0.7610000D+00 0.7610000D+00
EXPONENTS  0.7610000D+00 0.7610000D+00 0.2680000D+00 0.2680000D+00 0.2680000D+00
EXPONENTS  0.2680000D+00 0.2680000D+00 0.2680000D+00 0.2680000D+00 0.2680000D+00
EXPONENTS  0.2680000D+00 0.2680000D+00 0.8236000D+04 0.1235000D+04 0.2808000D+03
EXPONENTS  0.7927000D+02 0.2559000D+02 0.8997000D+01 0.3319000D+01 0.3643000D+00
EXPONENTS  0.8236000D+04 0.1235000D+04 0.2808000D+03 0.7927000D+02 0.2559000D+02
EXPONENTS  0.8997000D+01 0.3319000D+01 0.3643000D+00 0.9059000D+00 0.1285000D+00
EXPONENTS  0.4402000D-01 0.1871000D+02 0.4133000D+01 0.1200000D+01 0.1871000D+02
EXPONENTS  0.4133000D+01 0.1200000D+01 0.1871000D+02 0.4133000D+01 0.1200000D+01
EXPONENTS  0.3827000D+00 0.3827000D+00 0.3827000D+00 0.1209000D+00 0.1209000D+00
EXPONENTS  0.1209000D+00 0.3569000D-01 0.3569000D-01 0.3569000D-01 0.1097000D+01
EXPONENTS  0.1097000D+01 0.1097000D+01 0.1097000D+01 0.1097000D+01 0.1097000D+01
EXPONENTS  0.3180000D+00 0.3180000D+00 0.3180000D+00 0.3180000D+00 0.3180000D+00
EXPONENTS  0.3180000D+00 0.1000000D+00 0.1000000D+00 0.1000000D+00 0.1000000D+00
EXPONENTS  0.1000000D+00 0.1000000D+00 0.7610000D+00 0.7610000D+00 0.7610000D+00
EXPONENTS  0.7610000D+00 0.7610000D+00 0.7610000D+00 0.7610000D+00 0.7610000D+00
EXPONENTS  0.7610000D+00 0.7610000D+00 0.2680000D+00 0.2680000D+00 0.2680000D+00
EXPONENTS  0.2680000D+00 0.2680000D+00 0.2680000D+00 0.2680000D+00 0.2680000D+00
EXPONENTS  0.2680000D+00 0.2680000D+00 0.8236000D+04 0.1235000D+04 0.2808000D+03
EXPONENTS  0.7927000D+02 0.2559000D+02 0.8997000D+01 0.3319000D+01 0.3643000D+00
EXPONENTS  0.8236000D+04 0.1235000D+04 0.2808000D+03 0.7927000D+02 0.2559000D+02
EXPONENTS  0.8997000D+01 0.3319000D+01 0.3643000D+00 0.9059000D+00 0.1285000D+00
EXPONENTS  0.4402000D-01 0.1871000D+02 0.4133000D+01 0.1200000D+01 0.1871000D+02
EXPONENTS  0.4133000D+01 0.1200000D+01 0.1871000D+02 0.4133000D+01 0.1200000D+01
EXPONENTS  0.3827000D+00 0.3827000D+00 0.3827000D+00 0.1209000D+00 0.1209000D+00
EXPONENTS  0.1209000D+00 0.3569000D-01 0.3569000D-01 0.3569000D-01 0.1097000D+01
EXPONENTS  0.1097000D+01 0.1097000D+01 0.1097000D+01 0.1097000D+01 0.1097000D+01
EXPONENTS  0.3180000D+00 0.3180000D+00 0.3180000D+00 0.3180000D+00 0.3180000D+00
EXPONENTS  0.3180000D+00 0.1000000D+00 0.1000000D+00 0.1000000D+00 0.1000000D+00
EXPONENTS  0.1000000D+00 0.1000000D+00 0.7610000D+00 0.7610000D+00 0.7610000D+00
EXPONENTS  0.7610000D+00 0.7610000D+00 0.7610000D+00 0.7610000D+00 0.7610000D+00
EXPONENTS  0.7610000D+00 0.7610000D+00 0.2680000D+00 0.2680000D+00 0.2680000D+00
EXPONENTS  0.2680000D+00 0.2680000D+00 0.2680000D+00 0.2680000D+00 0.2680000D+00
EXPONENTS  0.2680000D+00 0.2680000D+00 0.8236000D+04 0.1235000D+04 0.2808000D+03
EXPONENTS  0.7927000D+02 0.2559000D+02 0.8997000D+01 0.3319000D+01 0.3643000D+00
EXPONENTS  0.8236000D+04 0.1235000D+04 0.2808000D+03 0.7927000D+02 0.2559000D+02
EXPONENTS  0.8997000D+01 0.3319000D+01 0.3643000D+00 0.9059000D+00 0.1285000D+00
EXPONENTS  0.4402000D-01 0.1871000D+02 0.4133000D+01 0.1200000D+01 0.1871000D+02
EXPONENTS  0.4133000D+01 0.1200000D+01 0.1871000D+02 0.4133000D+01 0.1200000D+01
EXPONENTS  0.3827000D+00 0.3827000D+00 0.3827000D+00 0.1209000D+00 0.1209000D+00
EXPONENTS  0.1209000D+00 0.3569000D-01 0.3569000D-01 0.3569000D-01 0.1097000D+01
EXPONENTS  0.1097000D+01 0.1097000D+01 0.1097000D+01 0.1097000D+01 0.1097000D+01
EXPONENTS  0.3180000D+00 0.3180000D+00 0.3180000D+00 0.3180000D+00 0.3180000D+00
EXPONENTS  0.3180000D+00 0.1000000D+00 0.1000000D+00 0.1000000D+00 0.1000000D+00
EXPONENTS  0.1000000D+00 0.1000000D+00 0.7610000D+00 0.7610000D+00 0.7610000D+00
EXPONENTS  0.7610000D+00 0.7610000D+00 0.7610000D+00 0.7610000D+00 0.7610000D+00
EXPONENTS  0.7610000D+00 0.7610000D+00 0.2680000D+00 0.2680000D+00 0.2680000D+00
EXPONENTS  0.2680000D+00 0.2680000D+00 0.2680000D+00 0.2680000D+00 0.2680000D+00
EXPONENTS  0.2680000D+00 0.2680000D+00 0.3387000D+02 0.5095000D+01 0.1159000D+01
EXPONENTS  0.3258000D+00 0.1027000D+00 0.2526000D-01 0.1407000D+01 0.1407000D+01
EXPONENTS  0.1407000D+01 0.3880000D+00 0.3880000D+00 0.3880000D+00 0.1020000D+00
EXPONENTS  0.1020000D+00 0.1020000D+00 0.1057000D+01 0.1057000D+01 0.1057000D+01
EXPONENTS  0.1057000D+01 0.1057000D+01 0.1057000D+01 0.2470000D+00 0.2470000D+00
EXPONENTS  0.2470000D+00 0.2470000D+00 0.2470000D+00 0.2470000D+00 0.3387000D+02
EXPONENTS  0.5095000D+01 0.1159000D+01 0.3258000D+00 0.1027000D+00 0.2526000D-01
EXPONENTS  0.1407000D+01 0.1407000D+01 0.1407000D+01 0.3880000D+00 0.3880000D+00
EXPONENTS  0.3880000D+00 0.1020000D+00 0.1020000D+00 0.1020000D+00 0.1057000D+01
EXPONENTS  0.1057000D+01 0.1057000D+01 0.1057000D+01 0.1057000D+01 0.1057000D+01
EXPONENTS  0.2470000D+00 0.2470000D+00 0.2470000D+00 0.2470000D+00 0.2470000D+00
EXPONENTS  0.2470000D+00 0.3387000D+02 0.5095000D+01 0.1159000D+01 0.3258000D+00
EXPONENTS  0.1027000D+00 0.2526000D-01 0.1407000D+01 0.1407000D+01 0.1407000D+01
EXPONENTS  0.3880000D+00 0.3880000D+00 0.3880000D+00 0.1020000D+00 0.1020000D+00
EXPONENTS  0.1020000D+00 0.1057000D+01 0.1057000D+01 0.1057000D+01 0.1057000D+01
EXPONENTS  0.1057000D+01 0.1057000D+01 0.2470000D+00 0.2470000D+00 0.2470000D+00
EXPONENTS  0.2470000D+00 0.2470000D+00 0.2470000D+00 0.3387000D+02 0.5095000D+01
EXPONENTS  0.1159000D+01 0.3258000D+00 0.1027000D+00 0.2526000D-01 0.1407000D+01
EXPONENTS  0.1407000D+01 0.1407000D+01 0.3880000D+00 0.3880000D+00 0.3880000D+00
EXPONENTS  0.1020000D+00 0.1020000D+00 0.1020000D+00 0.1057000D+01 0.1057000D+01
EXPONENTS  0.1057000D+01 0.1057000D+01 0.1057000D+01 0.1057000D+01 0.2470000D+00
EXPONENTS  0.2470000D+00 0.2470000D+00 0.2470000D+00 0.2470000D+00 0.2470000D+00
MO    1     MO 0.0        OCC NO =    2.0000000  ORB. ENERGY =  -90.060150
 -0.12853145D+00 -0.24028208D+00 -0.41528245D+00 -0.67170073D+00 -0.10152363D+01
 -0.13981470D+01 -0.16341097D+01 -0.14119941D+01 -0.65855906D+00 -0.89418093D-01
 -0.23943962D-03 -0.46968156D-03 -0.21442925D-04  0.24351755D-03  0.45477940D-03
  0.78888524D-03  0.12791501D-02  0.19693973D-02  0.28048641D-02  0.36066911D-02
  0.37859524D-02  0.26769366D-02 -0.59281882D-04 -0.19234136D-02 -0.10590837D-02
  0.44788470D-05 -0.11891535D-03 -0.22191364D-03 -0.38543742D-03 -0.62432311D-03
 -0.96439649D-03 -0.13748921D-02 -0.17882855D-02 -0.19058303D-02 -0.14135147D-02
  0.43997464D-04  0.12805707D-02  0.12545173D-02 -0.58593398D-03  0.40543436D-03
  0.75422372D-03  0.25727430D-03  0.25734410D-02  0.33762145D-02  0.37031927D-02
  0.30470457D-02  0.16064627D-02  0.41792567D-03 -0.46247737D-06  0.14617587D-02
  0.19177479D-02  0.21034771D-02  0.17307743D-02  0.91249844D-03  0.23738897D-03
 -0.26269509D-06  0.13286344D-08  0.17430960D-08  0.19119107D-08  0.15731504D-08
  0.82939600D-09  0.21576964D-09 -0.23877110D-12 -0.22428575D-02 -0.29448856D-02
 -0.33131949D-02 -0.27916172D-02 -0.15615915D-02 -0.38867695D-03  0.17826598D-03
 -0.13849583D-02 -0.18184587D-02 -0.20458886D-02 -0.17238159D-02 -0.96427842D-03
 -0.24000694D-03  0.11007875D-03 -0.10589443D-08 -0.13904003D-08 -0.15642941D-08
 -0.13180361D-08 -0.73729089D-09 -0.18351020D-09  0.84166621D-10 -0.74793899D-04
 -0.10263251D-03  0.29770416D-10 -0.11756437D-03  0.25297500D-03 -0.19709409D-09
 -0.11310379D-04  0.56665788D-05 -0.86875422D-11 -0.57044172D-04  0.94958548D-04
 -0.37914376D-04  0.71161625D-04 -0.74306023D-10 -0.11155612D-09 -0.30418910D-04
 -0.19659786D-04  0.50078696D-04 -0.27324911D-04 -0.26556859D-09  0.71471890D-10
 -0.45636610D-06  0.11700331D-04 -0.11243965D-04 -0.18906603D-04  0.26044608D-10
 -0.41738644D-10  0.10300452D-04  0.87954108D-05 -0.17296659D-10 -0.15417552D-04
 -0.13396339D-04  0.12553175D-09 -0.15483805D-04 -0.12989894D-04 -0.73641769D-10
 -0.94931806D-10 -0.81615043D-06  0.82435228D-05  0.28302335D-11  0.33818563D-05
 -0.17157459D-04  0.56632386D-11 -0.93340503D-06 -0.75731099D-05 -0.14153939D-10
  0.19566644D-10  0.57068937D+00  0.10668706D+01  0.18438855D+01  0.29824021D+01
  0.45077262D+01  0.62078786D+01  0.72555708D+01  0.62693606D+01  0.29240521D+01
  0.39702311D+00  0.10631301D-02  0.20854217D-02  0.95208211D-04 -0.86009306D-03
 -0.16062604D-02 -0.27863072D-02 -0.45179008D-02 -0.69558227D-02 -0.99066539D-02
 -0.12738671D-01 -0.13371814D-01 -0.94548199D-02  0.20938095D-03  0.67934103D-02
  0.37406361D-02 -0.15819087D-04  0.40343271D-03  0.75286512D-03  0.13076366D-02
  0.21180812D-02  0.32718155D-02  0.46644646D-02  0.60669448D-02  0.64657278D-02
  0.47954958D-02 -0.14926598D-03 -0.43444694D-02 -0.42560806D-02  0.19878420D-02
 -0.18546588D-02 -0.15607887D-02 -0.42754878D-03 -0.78883273D-02 -0.10349056D-01
 -0.11351337D-01 -0.93400599D-02 -0.49242643D-02 -0.12810608D-02  0.14176244D-05
  0.32384834D-02  0.42487139D-02  0.46601916D-02  0.38344795D-02  0.20216134D-02
  0.52592826D-03 -0.58199324D-06 -0.16694981D-08 -0.21902906D-08 -0.24024149D-08
 -0.19767451D-08 -0.10421791D-08 -0.27112574D-09  0.30002828D-12  0.65879652D-02
  0.86500384D-02  0.97318764D-02  0.81998417D-02  0.45868765D-02  0.11416642D-02
 -0.52362222D-03 -0.31924443D-02 -0.41916988D-02 -0.47159438D-02 -0.39735392D-02
 -0.22227421D-02 -0.55323599D-03  0.25374068D-03  0.16308673D-08  0.21413388D-08
  0.24091505D-08  0.20298914D-08  0.11354928D-08  0.28262185D-09 -0.12962400D-09
  0.15821163D-03 -0.10198061D-03  0.13693849D-09  0.40663282D-03  0.46741038D-04
 -0.17691721D-09  0.16035482D-04 -0.88005703D-05 -0.14405438D-11  0.83627063D-04
 -0.12354080D-03  0.39913736D-04 -0.13476924D-03  0.12829064D-09  0.70214140D-10
  0.90850324D-04  0.88267501D-04 -0.17911782D-03 -0.14897178D-03 -0.13338568D-09
 -0.10060274D-09 -0.14214312D-04 -0.46560300D-05  0.18870342D-04 -0.30609438D-05
  0.35934404D-10  0.19818139D-10 -0.12323159D-04 -0.26728401D-04  0.20461388D-11
  0.70432519D-05  0.90572105D-04  0.40782334D-10  0.29926224D-04 -0.10386903D-04
 -0.46920750D-10  0.83675408D-11 -0.75780269D-05  0.80797560D-05  0.13166129D-10
  0.39883172D-04 -0.60634947D-05 -0.13579212D-10 -0.17149092D-04 -0.18175773D-04
 -0.25919174D-10 -0.15238661D-10  0.45707886D-04  0.85209892D-04  0.14401973D-03
  0.21650883D-03  0.26600611D-03  0.22468468D-03  0.84742796D-04 -0.41939683D-06
 -0.35098167D-04 -0.65714843D-04 -0.11188514D-03 -0.17306930D-03 -0.22792618D-03
 -0.23682990D-03 -0.15049477D-03  0.10085810D-03  0.98886468D-04 -0.16119051D-02
 -0.24491215D-03  0.11061493D-04  0.10370853D-04  0.73846653D-05 -0.55286503D-04
 -0.51834611D-04 -0.36909331D-04 -0.13408080D-10 -0.12570927D-10 -0.89512488D-11
  0.36178313D-03  0.64504067D-04  0.62834707D-10  0.95801878D-04  0.64499984D-04
  0.49267664D-09  0.43128712D-04  0.14197845D-04  0.79429585D-11  0.77272650D-04
  0.22563810D-04 -0.99836459D-04 -0.10762357D-03  0.20548218D-09 -0.69682592D-11
 -0.24149755D-03  0.15944299D-03  0.82054553D-04  0.23726458D-03 -0.23598649D-09
  0.21077277D-10  0.88504804D-04 -0.90417589D-04  0.19127858D-05 -0.26862961D-03
 -0.34519420D-10 -0.10845550D-09  0.12973132D-04  0.35025002D-04  0.87733903D-11
 -0.36649214D-04 -0.70401180D-04 -0.14102501D-10 -0.22701803D-05 -0.34673826D-04
 -0.12217670D-10  0.55505396D-10  0.15501959D-04 -0.80017187D-04 -0.19828334D-10
 -0.12046890D-03  0.26670895D-03  0.84627583D-10  0.73963017D-04 -0.26657388D-04
 -0.25142581D-10 -0.98955590D-10  0.59414894D-04  0.11076287D-03  0.18720876D-03
  0.28143609D-03  0.34577676D-03  0.29206375D-03  0.11015570D-03 -0.54516671D-06
 -0.42679765D-04 -0.79909986D-04 -0.13605359D-03 -0.21045421D-03 -0.27716080D-03
 -0.28798782D-03 -0.18300333D-03  0.12264458D-03  0.11201167D-03  0.38509254D-03
  0.15044323D-03 -0.56455377D-04 -0.52930504D-04 -0.37689672D-04 -0.15937075D-04
 -0.14942020D-04 -0.10639609D-04  0.35092930D-10  0.32901852D-10  0.23428079D-10
  0.50480420D-03  0.10201132D-03 -0.12827308D-09  0.38387708D-03  0.27866896D-03
 -0.24939239D-09  0.42798480D-04  0.22016029D-04 -0.15732270D-10  0.35323703D-04
 -0.55335498D-04  0.20011795D-04 -0.19407248D-04  0.12257729D-09 -0.19591913D-09
 -0.11857977D-04 -0.40582773D-04  0.52440749D-04  0.26661720D-03 -0.82778878D-10
 -0.24799554D-09  0.12188441D-03 -0.12543039D-03  0.35459789D-05 -0.25099760D-03
 -0.24303480D-09  0.15580883D-09 -0.43760328D-04  0.26794684D-04  0.20360482D-10
  0.15141019D-03 -0.62044187D-04 -0.51152964D-11 -0.20129207D-04 -0.18339865D-04
 -0.55966151D-10  0.39828919D-09 -0.20127178D-04 -0.83180382D-04  0.13747532D-10
  0.26217650D-04  0.21028872D-03  0.47643472D-11  0.34163886D-04  0.39252431D-04
 -0.46006942D-10 -0.20695042D-09 -0.96207440D-04 -0.17935254D-03 -0.30313739D-03
 -0.45571480D-03 -0.55989828D-03 -0.47292361D-03 -0.17836938D-03  0.88276003D-06
  0.68910198D-04  0.12902163D-03  0.21967037D-03  0.33979666D-03  0.44750025D-03
  0.46498142D-03  0.29547482D-03 -0.19802035D-03 -0.16611872D-03  0.95135963D-03
  0.34622028D-04  0.15900300D-04  0.14907542D-04  0.10615058D-04 -0.19400516D-04
 -0.18189217D-04 -0.12951806D-04 -0.12874896D-09 -0.12071034D-09 -0.85952951D-10
 -0.23619948D-03 -0.81735763D-04  0.43928019D-09 -0.24039472D-03  0.75045726D-03
  0.62080389D-09 -0.13072547D-04  0.36643014D-04  0.25685348D-10  0.36434035D-04
 -0.22900576D-04 -0.13533459D-04  0.41400375D-04 -0.11418106D-09  0.25155188D-09
  0.81798796D-04  0.10603958D-04 -0.92402755D-04 -0.45336783D-04  0.31597375D-09
 -0.30845168D-09 -0.32038282D-04  0.20005146D-04  0.12033137D-04  0.56388401D-04
  0.23298408D-09  0.66573193D-10 -0.24011908D-04  0.39579741D-04 -0.24372746D-10
  0.81262508D-04 -0.84928327D-04 -0.11368639D-10 -0.92267846D-05 -0.33810895D-04
  0.84486877D-10 -0.12151917D-09  0.23862135D-04  0.24947846D-04  0.25112439D-10
 -0.64703126D-04 -0.83021515D-04 -0.23672232D-10 -0.68832777D-05  0.81779775D-05
 -0.51665084D-10 -0.13739942D-09 -0.48763843D-04 -0.90906891D-04 -0.15364866D-03
 -0.23098427D-03 -0.28379086D-03 -0.23970675D-03 -0.90408566D-04  0.44743704D-06
  0.34099490D-04  0.63845005D-04  0.10870158D-03  0.16814482D-03  0.22144081D-03
  0.23009119D-03  0.14621262D-03 -0.97988299D-04 -0.25616157D-04  0.86671162D-03
  0.97840379D-04  0.20527189D-05  0.19245544D-05  0.13703974D-05  0.36600011D-04
  0.34314836D-04  0.24434208D-04  0.12364047D-09  0.11592080D-09  0.82542517D-10
 -0.52366554D-04 -0.18038207D-03 -0.22731646D-09 -0.25778440D-03  0.20549332D-03
 -0.46981477D-10 -0.17315773D-04  0.12554041D-04 -0.10476586D-10 -0.47853881D-04
  0.36130034D-04  0.11723846D-04  0.99134435D-04  0.96376291D-10  0.98749192D-11
  0.10184047D-03 -0.94404099D-04 -0.74363704D-05 -0.56575701D-04  0.14918529D-09
 -0.39435660D-09 -0.25604501D-04  0.26264053D-04 -0.65955196D-06 -0.55413688D-04
 -0.10053389D-09 -0.10942242D-09  0.41604629D-05 -0.12548547D-04 -0.53749780D-10
 -0.14631643D-04  0.11575023D-04  0.10057832D-09  0.21502546D-05  0.26070618D-04
  0.60671020D-10 -0.29530700D-10  0.21090846D-04 -0.12308763D-04  0.39759889D-10
 -0.39600226D-04  0.45411413D-04  0.11819409D-09 -0.23672310D-04 -0.84851258D-05
 -0.23747375D-09  0.24769874D-09  0.12056502D-04  0.21744398D-04  0.32062102D-04
  0.13219389D-03  0.15311948D-02 -0.34449696D-04  0.68839645D-05  0.28576073D-04
  0.37700305D-10 -0.17207721D-04  0.16898563D-03 -0.18563338D-12  0.66359603D-04
 -0.18066201D-03  0.64323262D-10 -0.72757507D-05 -0.56836659D-04  0.64112410D-04
 -0.19704636D-04  0.43729217D-10 -0.20545890D-10 -0.20818793D-04 -0.19057230D-04
  0.39876023D-04  0.35048355D-04  0.42722526D-10 -0.45859685D-11 -0.23069878D-05
 -0.41607475D-05 -0.61350198D-05  0.12366650D-03 -0.13419102D-02  0.26942251D-04
  0.37693123D-04 -0.53026873D-04 -0.31710707D-10  0.29371422D-03  0.33921945D-04
 -0.23580601D-09 -0.40258260D-04  0.14615792D-03  0.68924474D-10  0.78990461D-04
 -0.29667566D-04 -0.49322894D-04 -0.65575819D-04 -0.32742485D-09  0.61936498D-10
  0.10327586D-04  0.80589689D-05 -0.18386555D-04 -0.21406925D-04 -0.17848061D-09
 -0.48272168D-10  0.37150392D-05  0.67002263D-05  0.98794797D-05 -0.29220038D-03
  0.10881035D-03 -0.87326692D-05 -0.38051589D-04 -0.23197934D-04 -0.31409987D-10
 -0.19597760D-03  0.71309639D-04  0.14933827D-09 -0.94491339D-05  0.31404779D-04
  0.18300589D-09 -0.62794420D-04  0.24398243D-04  0.38396176D-04  0.37607654D-07
  0.10122612D-09 -0.23452888D-10 -0.17459245D-04  0.19568263D-04 -0.21090184D-05
  0.81100914D-05  0.21049684D-10  0.71791213D-11  0.13450302D-08  0.24258174D-08
  0.35768663D-08 -0.29070857D-04 -0.12690602D-04  0.24424004D-04  0.11238397D-04
 -0.17774654D-04  0.19262673D-10 -0.21453410D-04 -0.47216866D-05  0.66736758D-10
 -0.50484512D-04  0.14823448D-04 -0.12153638D-09  0.17349113D-04 -0.23229419D-04
  0.58803057D-05 -0.38591304D-04  0.12010643D-09  0.39126673D-10  0.13007542D-04
 -0.45790406D-05 -0.84285015D-05 -0.21532934D-04  0.14709281D-09 -0.83473792D-10
MO    2     MO 0.0        OCC NO =    2.0000000  ORB. ENERGY =  -90.060149
  0.57067664D+00  0.10668468D+01  0.18438444D+01  0.29823356D+01  0.45076256D+01
  0.62077401D+01  0.72554090D+01  0.62692207D+01  0.29239869D+01  0.39701425D+00
  0.10631063D-02  0.20853752D-02  0.95206087D-04 -0.83643826D-03 -0.15620841D-02
 -0.27096765D-02 -0.43936468D-02 -0.67645194D-02 -0.96341951D-02 -0.12388324D-01
 -0.13004054D-01 -0.91947878D-02  0.20362243D-03  0.66065739D-02  0.36377589D-02
 -0.15384021D-04  0.39011070D-03  0.72800427D-03  0.12644563D-02  0.20481386D-02
  0.31637748D-02  0.45104363D-02  0.58666043D-02  0.62522188D-02  0.46371406D-02
 -0.14433697D-03 -0.42010079D-02 -0.41155377D-02  0.19222002D-02 -0.18604417D-02
 -0.13696894D-02 -0.35117139D-03 -0.81369442D-02 -0.10675228D-01 -0.11709098D-01
 -0.96344311D-02 -0.50794626D-02 -0.13214361D-02  0.14623038D-05  0.19205874D-02
  0.25197061D-02  0.27637335D-02  0.22740437D-02  0.11989208D-02  0.31190253D-03
 -0.34515195D-06 -0.13386668D-07 -0.17562580D-07 -0.19263473D-07 -0.15850291D-07
 -0.83565869D-08 -0.21739889D-08  0.24057404D-11  0.70194103D-02  0.92165285D-02
  0.10369216D-01  0.87368484D-02  0.48872705D-02  0.12164317D-02 -0.55791418D-03
 -0.12132962D-02 -0.15930653D-02 -0.17923059D-02 -0.15101532D-02 -0.84475853D-03
 -0.21025868D-03  0.96434761D-04  0.11027576D-07  0.14479274D-07  0.16290160D-07
  0.13725691D-07  0.76779592D-08  0.19110284D-08 -0.87648971D-09  0.17257295D-03
 -0.37734046D-04  0.37417557D-09  0.30910976D-03 -0.14852170D-03  0.10122453D-08
  0.14876482D-04  0.23224542D-05  0.37093345D-10  0.73213867D-04 -0.99405498D-04
  0.26191631D-04 -0.88442130D-04  0.69740263D-10  0.11331204D-09  0.15650695D-03
  0.17985620D-04 -0.17449257D-03  0.68050703D-04  0.10199683D-08 -0.21685506D-09
 -0.11875598D-04 -0.36770322D-05  0.15552630D-04  0.18718417D-05 -0.21114801D-09