 Molden2AIM, Version 4.0.0 (06/02/2016)           Time: Mon Jul  2 18:32:32 2018
GAUSSIAN             21 MOL ORBITALS    585 PRIMITIVES       11 NUCLEI
  H    1    (CENTRE  1)   0.00000000  3.89490129  2.47425810  CHARGE =  1.0
  H    2    (CENTRE  2)   0.00000000 -3.89490129  2.47425810  CHARGE =  1.0
  H    3    (CENTRE  3)   0.00000000  4.08191803 -2.23487515  CHARGE =  1.0
  H    4    (CENTRE  4)   0.00000000 -4.08191803 -2.23487515  CHARGE =  1.0
  H    5    (CENTRE  5)   0.00000000  0.00000000 -4.67793387  CHARGE =  1.0
  C    6    (CENTRE  6)   0.00000000  2.15420085  1.36254923  CHARGE =  6.0
  C    7    (CENTRE  7)   0.00000000 -2.15420085  1.36254923  CHARGE =  6.0
  C    8    (CENTRE  8)   0.00000000  2.26122171 -1.27066885  CHARGE =  6.0
  C    9    (CENTRE  9)   0.00000000 -2.26122171 -1.27066885  CHARGE =  6.0
  C   10    (CENTRE 10)   0.00000000  0.00000000 -2.61637306  CHARGE =  6.0
  N   11    (CENTRE 11)   0.00000000  0.00000000  2.67685753  CHARGE =  7.0
CENTRE ASSIGNMENTS    1  1  1  1  1  1  1  1  1  1  1  1  1  1  1  1  1  1  1  1
CENTRE ASSIGNMENTS    1  1  1  1  1  1  1  2  2  2  2  2  2  2  2  2  2  2  2  2
CENTRE ASSIGNMENTS    2  2  2  2  2  2  2  2  2  2  2  2  2  2  3  3  3  3  3  3
CENTRE ASSIGNMENTS    3  3  3  3  3  3  3  3  3  3  3  3  3  3  3  3  3  3  3  3
CENTRE ASSIGNMENTS    3  4  4  4  4  4  4  4  4  4  4  4  4  4  4  4  4  4  4  4
CENTRE ASSIGNMENTS    4  4  4  4  4  4  4  4  5  5  5  5  5  5  5  5  5  5  5  5
CENTRE ASSIGNMENTS    5  5  5  5  5  5  5  5  5  5  5  5  5  5  5  6  6  6  6  6
CENTRE ASSIGNMENTS    6  6  6  6  6  6  6  6  6  6  6  6  6  6  6  6  6  6  6  6
CENTRE ASSIGNMENTS    6  6  6  6  6  6  6  6  6  6  6  6  6  6  6  6  6  6  6  6
CENTRE ASSIGNMENTS    6  6  6  6  6  6  6  6  6  6  6  6  6  6  6  6  6  6  6  6
CENTRE ASSIGNMENTS    6  6  6  6  6  6  6  6  6  6  7  7  7  7  7  7  7  7  7  7
CENTRE ASSIGNMENTS    7  7  7  7  7  7  7  7  7  7  7  7  7  7  7  7  7  7  7  7
CENTRE ASSIGNMENTS    7  7  7  7  7  7  7  7  7  7  7  7  7  7  7  7  7  7  7  7
CENTRE ASSIGNMENTS    7  7  7  7  7  7  7  7  7  7  7  7  7  7  7  7  7  7  7  7
CENTRE ASSIGNMENTS    7  7  7  7  7  8  8  8  8  8  8  8  8  8  8  8  8  8  8  8
CENTRE ASSIGNMENTS    8  8  8  8  8  8  8  8  8  8  8  8  8  8  8  8  8  8  8  8
CENTRE ASSIGNMENTS    8  8  8  8  8  8  8  8  8  8  8  8  8  8  8  8  8  8  8  8
CENTRE ASSIGNMENTS    8  8  8  8  8  8  8  8  8  8  8  8  8  8  8  8  8  8  8  8
CENTRE ASSIGNMENTS    9  9  9  9  9  9  9  9  9  9  9  9  9  9  9  9  9  9  9  9
CENTRE ASSIGNMENTS    9  9  9  9  9  9  9  9  9  9  9  9  9  9  9  9  9  9  9  9
CENTRE ASSIGNMENTS    9  9  9  9  9  9  9  9  9  9  9  9  9  9  9  9  9  9  9  9
CENTRE ASSIGNMENTS    9  9  9  9  9  9  9  9  9  9  9  9  9  9  9 10 10 10 10 10
CENTRE ASSIGNMENTS   10 10 10 10 10 10 10 10 10 10 10 10 10 10 10 10 10 10 10 10
CENTRE ASSIGNMENTS   10 10 10 10 10 10 10 10 10 10 10 10 10 10 10 10 10 10 10 10
CENTRE ASSIGNMENTS   10 10 10 10 10 10 10 10 10 10 10 10 10 10 10 10 10 10 10 10
CENTRE ASSIGNMENTS   10 10 10 10 10 10 10 10 10 10 11 11 11 11 11 11 11 11 11 11
CENTRE ASSIGNMENTS   11 11 11 11 11 11 11 11 11 11 11 11 11 11 11 11 11 11 11 11
CENTRE ASSIGNMENTS   11 11 11 11 11 11 11 11 11 11 11 11 11 11 11 11 11 11 11 11
CENTRE ASSIGNMENTS   11 11 11 11 11 11 11 11 11 11 11 11 11 11 11 11 11 11 11 11
CENTRE ASSIGNMENTS   11 11 11 11 11
TYPE ASSIGNMENTS      1  1  1  1  1  1  2  3  4  2  3  4  2  3  4  5  6  7  8  9
TYPE ASSIGNMENTS     10  5  6  7  8  9 10  1  1  1  1  1  1  2  3  4  2  3  4  2
TYPE ASSIGNMENTS      3  4  5  6  7  8  9 10  5  6  7  8  9 10  1  1  1  1  1  1
TYPE ASSIGNMENTS      2  3  4  2  3  4  2  3  4  5  6  7  8  9 10  5  6  7  8  9
TYPE ASSIGNMENTS     10  1  1  1  1  1  1  2  3  4  2  3  4  2  3  4  5  6  7  8
TYPE ASSIGNMENTS      9 10  5  6  7  8  9 10  1  1  1  1  1  1  2  3  4  2  3  4
TYPE ASSIGNMENTS      2  3  4  5  6  7  8  9 10  5  6  7  8  9 10  1  1  1  1  1
TYPE ASSIGNMENTS      1  1  1  1  1  1  1  1  1  1  1  1  1  1  2  2  2  3  3  3
TYPE ASSIGNMENTS      4  4  4  2  3  4  2  3  4  2  3  4  5  6  7  8  9 10  5  6
TYPE ASSIGNMENTS      7  8  9 10  5  6  7  8  9 10 11 12 13 17 14 15 18 19 16 20
TYPE ASSIGNMENTS     11 12 13 17 14 15 18 19 16 20  1  1  1  1  1  1  1  1  1  1
TYPE ASSIGNMENTS      1  1  1  1  1  1  1  1  1  2  2  2  3  3  3  4  4  4  2  3
TYPE ASSIGNMENTS      4  2  3  4  2  3  4  5  6  7  8  9 10  5  6  7  8  9 10  5
TYPE ASSIGNMENTS      6  7  8  9 10 11 12 13 17 14 15 18 19 16 20 11 12 13 17 14
TYPE ASSIGNMENTS     15 18 19 16 20  1  1  1  1  1  1  1  1  1  1  1  1  1  1  1
TYPE ASSIGNMENTS      1  1  1  1  2  2  2  3  3  3  4  4  4  2  3  4  2  3  4  2
TYPE ASSIGNMENTS      3  4  5  6  7  8  9 10  5  6  7  8  9 10  5  6  7  8  9 10
TYPE ASSIGNMENTS     11 12 13 17 14 15 18 19 16 20 11 12 13 17 14 15 18 19 16 20
TYPE ASSIGNMENTS      1  1  1  1  1  1  1  1  1  1  1  1  1  1  1  1  1  1  1  2
TYPE ASSIGNMENTS      2  2  3  3  3  4  4  4  2  3  4  2  3  4  2  3  4  5  6  7
TYPE ASSIGNMENTS      8  9 10  5  6  7  8  9 10  5  6  7  8  9 10 11 12 13 17 14
TYPE ASSIGNMENTS     15 18 19 16 20 11 12 13 17 14 15 18 19 16 20  1  1  1  1  1
TYPE ASSIGNMENTS      1  1  1  1  1  1  1  1  1  1  1  1  1  1  2  2  2  3  3  3
TYPE ASSIGNMENTS      4  4  4  2  3  4  2  3  4  2  3  4  5  6  7  8  9 10  5  6
TYPE ASSIGNMENTS      7  8  9 10  5  6  7  8  9 10 11 12 13 17 14 15 18 19 16 20
TYPE ASSIGNMENTS     11 12 13 17 14 15 18 19 16 20  1  1  1  1  1  1  1  1  1  1
TYPE ASSIGNMENTS      1  1  1  1  1  1  1  1  1  2  2  2  3  3  3  4  4  4  2  3
TYPE ASSIGNMENTS      4  2  3  4  2  3  4  5  6  7  8  9 10  5  6  7  8  9 10  5
TYPE ASSIGNMENTS      6  7  8  9 10 11 12 13 17 14 15 18 19 16 20 11 12 13 17 14
TYPE ASSIGNMENTS     15 18 19 16 20
EXPONENTS  0.3387000D+02 0.5095000D+01 0.1159000D+01 0.3258000D+00 0.1027000D+00
EXPONENTS  0.2526000D-01 0.1407000D+01 0.1407000D+01 0.1407000D+01 0.3880000D+00
EXPONENTS  0.3880000D+00 0.3880000D+00 0.1020000D+00 0.1020000D+00 0.1020000D+00
EXPONENTS  0.1057000D+01 0.1057000D+01 0.1057000D+01 0.1057000D+01 0.1057000D+01
EXPONENTS  0.1057000D+01 0.2470000D+00 0.2470000D+00 0.2470000D+00 0.2470000D+00
EXPONENTS  0.2470000D+00 0.2470000D+00 0.3387000D+02 0.5095000D+01 0.1159000D+01
EXPONENTS  0.3258000D+00 0.1027000D+00 0.2526000D-01 0.1407000D+01 0.1407000D+01
EXPONENTS  0.1407000D+01 0.3880000D+00 0.3880000D+00 0.3880000D+00 0.1020000D+00
EXPONENTS  0.1020000D+00 0.1020000D+00 0.1057000D+01 0.1057000D+01 0.1057000D+01
EXPONENTS  0.1057000D+01 0.1057000D+01 0.1057000D+01 0.2470000D+00 0.2470000D+00
EXPONENTS  0.2470000D+00 0.2470000D+00 0.2470000D+00 0.2470000D+00 0.3387000D+02
EXPONENTS  0.5095000D+01 0.1159000D+01 0.3258000D+00 0.1027000D+00 0.2526000D-01
EXPONENTS  0.1407000D+01 0.1407000D+01 0.1407000D+01 0.3880000D+00 0.3880000D+00
EXPONENTS  0.3880000D+00 0.1020000D+00 0.1020000D+00 0.1020000D+00 0.1057000D+01
EXPONENTS  0.1057000D+01 0.1057000D+01 0.1057000D+01 0.1057000D+01 0.1057000D+01
EXPONENTS  0.2470000D+00 0.2470000D+00 0.2470000D+00 0.2470000D+00 0.2470000D+00
EXPONENTS  0.2470000D+00 0.3387000D+02 0.5095000D+01 0.1159000D+01 0.3258000D+00
EXPONENTS  0.1027000D+00 0.2526000D-01 0.1407000D+01 0.1407000D+01 0.1407000D+01
EXPONENTS  0.3880000D+00 0.3880000D+00 0.3880000D+00 0.1020000D+00 0.1020000D+00
EXPONENTS  0.1020000D+00 0.1057000D+01 0.1057000D+01 0.1057000D+01 0.1057000D+01
EXPONENTS  0.1057000D+01 0.1057000D+01 0.2470000D+00 0.2470000D+00 0.2470000D+00
EXPONENTS  0.2470000D+00 0.2470000D+00 0.2470000D+00 0.3387000D+02 0.5095000D+01
EXPONENTS  0.1159000D+01 0.3258000D+00 0.1027000D+00 0.2526000D-01 0.1407000D+01
EXPONENTS  0.1407000D+01 0.1407000D+01 0.3880000D+00 0.3880000D+00 0.3880000D+00
EXPONENTS  0.1020000D+00 0.1020000D+00 0.1020000D+00 0.1057000D+01 0.1057000D+01
EXPONENTS  0.1057000D+01 0.1057000D+01 0.1057000D+01 0.1057000D+01 0.2470000D+00
EXPONENTS  0.2470000D+00 0.2470000D+00 0.2470000D+00 0.2470000D+00 0.2470000D+00
EXPONENTS  0.8236000D+04 0.1235000D+04 0.2808000D+03 0.7927000D+02 0.2559000D+02
EXPONENTS  0.8997000D+01 0.3319000D+01 0.3643000D+00 0.8236000D+04 0.1235000D+04
EXPONENTS  0.2808000D+03 0.7927000D+02 0.2559000D+02 0.8997000D+01 0.3319000D+01
EXPONENTS  0.3643000D+00 0.9059000D+00 0.1285000D+00 0.4402000D-01 0.1871000D+02
EXPONENTS  0.4133000D+01 0.1200000D+01 0.1871000D+02 0.4133000D+01 0.1200000D+01
EXPONENTS  0.1871000D+02 0.4133000D+01 0.1200000D+01 0.3827000D+00 0.3827000D+00
EXPONENTS  0.3827000D+00 0.1209000D+00 0.1209000D+00 0.1209000D+00 0.3569000D-01
EXPONENTS  0.3569000D-01 0.3569000D-01 0.1097000D+01 0.1097000D+01 0.1097000D+01
EXPONENTS  0.1097000D+01 0.1097000D+01 0.1097000D+01 0.3180000D+00 0.3180000D+00
EXPONENTS  0.3180000D+00 0.3180000D+00 0.3180000D+00 0.3180000D+00 0.1000000D+00
EXPONENTS  0.1000000D+00 0.1000000D+00 0.1000000D+00 0.1000000D+00 0.1000000D+00
EXPONENTS  0.7610000D+00 0.7610000D+00 0.7610000D+00 0.7610000D+00 0.7610000D+00
EXPONENTS  0.7610000D+00 0.7610000D+00 0.7610000D+00 0.7610000D+00 0.7610000D+00
EXPONENTS  0.2680000D+00 0.2680000D+00 0.2680000D+00 0.2680000D+00 0.2680000D+00
EXPONENTS  0.2680000D+00 0.2680000D+00 0.2680000D+00 0.2680000D+00 0.2680000D+00
EXPONENTS  0.8236000D+04 0.1235000D+04 0.2808000D+03 0.7927000D+02 0.2559000D+02
EXPONENTS  0.8997000D+01 0.3319000D+01 0.3643000D+00 0.8236000D+04 0.1235000D+04
EXPONENTS  0.2808000D+03 0.7927000D+02 0.2559000D+02 0.8997000D+01 0.3319000D+01
EXPONENTS  0.3643000D+00 0.9059000D+00 0.1285000D+00 0.4402000D-01 0.1871000D+02
EXPONENTS  0.4133000D+01 0.1200000D+01 0.1871000D+02 0.4133000D+01 0.1200000D+01
EXPONENTS  0.1871000D+02 0.4133000D+01 0.1200000D+01 0.3827000D+00 0.3827000D+00
EXPONENTS  0.3827000D+00 0.1209000D+00 0.1209000D+00 0.1209000D+00 0.3569000D-01
EXPONENTS  0.3569000D-01 0.3569000D-01 0.1097000D+01 0.1097000D+01 0.1097000D+01
EXPONENTS  0.1097000D+01 0.1097000D+01 0.1097000D+01 0.3180000D+00 0.3180000D+00
EXPONENTS  0.3180000D+00 0.3180000D+00 0.3180000D+00 0.3180000D+00 0.1000000D+00
EXPONENTS  0.1000000D+00 0.1000000D+00 0.1000000D+00 0.1000000D+00 0.1000000D+00
EXPONENTS  0.7610000D+00 0.7610000D+00 0.7610000D+00 0.7610000D+00 0.7610000D+00
EXPONENTS  0.7610000D+00 0.7610000D+00 0.7610000D+00 0.7610000D+00 0.7610000D+00
EXPONENTS  0.2680000D+00 0.2680000D+00 0.2680000D+00 0.2680000D+00 0.2680000D+00
EXPONENTS  0.2680000D+00 0.2680000D+00 0.2680000D+00 0.2680000D+00 0.2680000D+00
EXPONENTS  0.8236000D+04 0.1235000D+04 0.2808000D+03 0.7927000D+02 0.2559000D+02
EXPONENTS  0.8997000D+01 0.3319000D+01 0.3643000D+00 0.8236000D+04 0.1235000D+04
EXPONENTS  0.2808000D+03 0.7927000D+02 0.2559000D+02 0.8997000D+01 0.3319000D+01
EXPONENTS  0.3643000D+00 0.9059000D+00 0.1285000D+00 0.4402000D-01 0.1871000D+02
EXPONENTS  0.4133000D+01 0.1200000D+01 0.1871000D+02 0.4133000D+01 0.1200000D+01
EXPONENTS  0.1871000D+02 0.4133000D+01 0.1200000D+01 0.3827000D+00 0.3827000D+00
EXPONENTS  0.3827000D+00 0.1209000D+00 0.1209000D+00 0.1209000D+00 0.3569000D-01
EXPONENTS  0.3569000D-01 0.3569000D-01 0.1097000D+01 0.1097000D+01 0.1097000D+01
EXPONENTS  0.1097000D+01 0.1097000D+01 0.1097000D+01 0.3180000D+00 0.3180000D+00
EXPONENTS  0.3180000D+00 0.3180000D+00 0.3180000D+00 0.3180000D+00 0.1000000D+00
EXPONENTS  0.1000000D+00 0.1000000D+00 0.1000000D+00 0.1000000D+00 0.1000000D+00
EXPONENTS  0.7610000D+00 0.7610000D+00 0.7610000D+00 0.7610000D+00 0.7610000D+00
EXPONENTS  0.7610000D+00 0.7610000D+00 0.7610000D+00 0.7610000D+00 0.7610000D+00
EXPONENTS  0.2680000D+00 0.2680000D+00 0.2680000D+00 0.2680000D+00 0.2680000D+00
EXPONENTS  0.2680000D+00 0.2680000D+00 0.2680000D+00 0.2680000D+00 0.2680000D+00
EXPONENTS  0.8236000D+04 0.1235000D+04 0.2808000D+03 0.7927000D+02 0.2559000D+02
EXPONENTS  0.8997000D+01 0.3319000D+01 0.3643000D+00 0.8236000D+04 0.1235000D+04
EXPONENTS  0.2808000D+03 0.7927000D+02 0.2559000D+02 0.8997000D+01 0.3319000D+01
EXPONENTS  0.3643000D+00 0.9059000D+00 0.1285000D+00 0.4402000D-01 0.1871000D+02
EXPONENTS  0.4133000D+01 0.1200000D+01 0.1871000D+02 0.4133000D+01 0.1200000D+01
EXPONENTS  0.1871000D+02 0.4133000D+01 0.1200000D+01 0.3827000D+00 0.3827000D+00
EXPONENTS  0.3827000D+00 0.1209000D+00 0.1209000D+00 0.1209000D+00 0.3569000D-01
EXPONENTS  0.3569000D-01 0.3569000D-01 0.1097000D+01 0.1097000D+01 0.1097000D+01
EXPONENTS  0.1097000D+01 0.1097000D+01 0.1097000D+01 0.3180000D+00 0.3180000D+00
EXPONENTS  0.3180000D+00 0.3180000D+00 0.3180000D+00 0.3180000D+00 0.1000000D+00
EXPONENTS  0.1000000D+00 0.1000000D+00 0.1000000D+00 0.1000000D+00 0.1000000D+00
EXPONENTS  0.7610000D+00 0.7610000D+00 0.7610000D+00 0.7610000D+00 0.7610000D+00
EXPONENTS  0.7610000D+00 0.7610000D+00 0.7610000D+00 0.7610000D+00 0.7610000D+00
EXPONENTS  0.2680000D+00 0.2680000D+00 0.2680000D+00 0.2680000D+00 0.2680000D+00
EXPONENTS  0.2680000D+00 0.2680000D+00 0.2680000D+00 0.2680000D+00 0.2680000D+00
EXPONENTS  0.8236000D+04 0.1235000D+04 0.2808000D+03 0.7927000D+02 0.2559000D+02
EXPONENTS  0.8997000D+01 0.3319000D+01 0.3643000D+00 0.8236000D+04 0.1235000D+04
EXPONENTS  0.2808000D+03 0.7927000D+02 0.2559000D+02 0.8997000D+01 0.3319000D+01
EXPONENTS  0.3643000D+00 0.9059000D+00 0.1285000D+00 0.4402000D-01 0.1871000D+02
EXPONENTS  0.4133000D+01 0.1200000D+01 0.1871000D+02 0.4133000D+01 0.1200000D+01
EXPONENTS  0.1871000D+02 0.4133000D+01 0.1200000D+01 0.3827000D+00 0.3827000D+00
EXPONENTS  0.3827000D+00 0.1209000D+00 0.1209000D+00 0.1209000D+00 0.3569000D-01
EXPONENTS  0.3569000D-01 0.3569000D-01 0.1097000D+01 0.1097000D+01 0.1097000D+01
EXPONENTS  0.1097000D+01 0.1097000D+01 0.1097000D+01 0.3180000D+00 0.3180000D+00
EXPONENTS  0.3180000D+00 0.3180000D+00 0.3180000D+00 0.3180000D+00 0.1000000D+00
EXPONENTS  0.1000000D+00 0.1000000D+00 0.1000000D+00 0.1000000D+00 0.1000000D+00
EXPONENTS  0.7610000D+00 0.7610000D+00 0.7610000D+00 0.7610000D+00 0.7610000D+00
EXPONENTS  0.7610000D+00 0.7610000D+00 0.7610000D+00 0.7610000D+00 0.7610000D+00
EXPONENTS  0.2680000D+00 0.2680000D+00 0.2680000D+00 0.2680000D+00 0.2680000D+00
EXPONENTS  0.2680000D+00 0.2680000D+00 0.2680000D+00 0.2680000D+00 0.2680000D+00
EXPONENTS  0.1142000D+05 0.1712000D+04 0.3893000D+03 0.1100000D+03 0.3557000D+02
EXPONENTS  0.1254000D+02 0.4644000D+01 0.5118000D+00 0.1142000D+05 0.1712000D+04
EXPONENTS  0.3893000D+03 0.1100000D+03 0.3557000D+02 0.1254000D+02 0.4644000D+01
EXPONENTS  0.5118000D+00 0.1293000D+01 0.1787000D+00 0.5760000D-01 0.2663000D+02
EXPONENTS  0.5948000D+01 0.1742000D+01 0.2663000D+02 0.5948000D+01 0.1742000D+01
EXPONENTS  0.2663000D+02 0.5948000D+01 0.1742000D+01 0.5550000D+00 0.5550000D+00
EXPONENTS  0.5550000D+00 0.1725000D+00 0.1725000D+00 0.1725000D+00 0.4910000D-01
EXPONENTS  0.4910000D-01 0.4910000D-01 0.1654000D+01 0.1654000D+01 0.1654000D+01
EXPONENTS  0.1654000D+01 0.1654000D+01 0.1654000D+01 0.4690000D+00 0.4690000D+00
EXPONENTS  0.4690000D+00 0.4690000D+00 0.4690000D+00 0.4690000D+00 0.1510000D+00
EXPONENTS  0.1510000D+00 0.1510000D+00 0.1510000D+00 0.1510000D+00 0.1510000D+00
EXPONENTS  0.1093000D+01 0.1093000D+01 0.1093000D+01 0.1093000D+01 0.1093000D+01
EXPONENTS  0.1093000D+01 0.1093000D+01 0.1093000D+01 0.1093000D+01 0.1093000D+01
EXPONENTS  0.3640000D+00 0.3640000D+00 0.3640000D+00 0.3640000D+00 0.3640000D+00
EXPONENTS  0.3640000D+00 0.3640000D+00 0.3640000D+00 0.3640000D+00 0.3640000D+00
MO    1     MO 0.0        OCC NO =    2.0000000  ORB. ENERGY =  -14.789139
  0.68285063D-04  0.12315492D-03  0.18159186D-03  0.60780184D-03 -0.83430341D-03
  0.17079492D-04 -0.81193934D-16 -0.23050658D-03 -0.29317897D-03  0.54731128D-16
  0.53631285D-03  0.43728798D-03 -0.23603356D-16  0.13720873D-03 -0.16765869D-03
  0.26454486D-03 -0.34033935D-03  0.75794498D-04  0.23268716D-16  0.62618435D-18
  0.22829992D-03  0.92401327D-04 -0.85688782D-04 -0.67125449D-05  0.15123679D-17
  0.13896396D-17 -0.35485994D-04  0.68285063D-04  0.12315492D-03  0.18159186D-03
  0.60780184D-03 -0.83430341D-03  0.17079492D-04 -0.53187571D-18  0.23050658D-03
 -0.29317897D-03  0.41546584D-18 -0.53631285D-03  0.43728798D-03 -0.92590723D-18
 -0.13720873D-03 -0.16765869D-03  0.26454486D-03 -0.34033935D-03  0.75794498D-04
 -0.57389005D-18 -0.49118574D-18 -0.22829992D-03  0.92401327D-04 -0.85688782D-04
 -0.67125449D-05 -0.92019265D-19 -0.12083431D-19  0.35485994D-04 -0.25186455D-04
 -0.45424809D-04 -0.66978855D-04  0.20161572D-02  0.33303497D-02 -0.29107948D-04
 -0.43173722D-17 -0.87647659D-04 -0.73829230D-04  0.10261647D-16 -0.12451087D-02
  0.14204572D-02 -0.52372500D-18 -0.29247056D-03  0.24058190D-03 -0.25614476D-03
  0.93104063D-04  0.16304070D-03 -0.65580535D-17  0.26105161D-17 -0.59392022D-03
 -0.55200662D-04  0.41541304D-04  0.13659359D-04 -0.12740842D-17  0.12479823D-17
 -0.19928296D-03 -0.25186455D-04 -0.45424809D-04 -0.66978855D-04  0.20161572D-02
  0.33303497D-02 -0.29107948D-04  0.42535073D-19  0.87647659D-04 -0.73829230D-04
 -0.95397100D-18  0.12451087D-02  0.14204572D-02  0.48277785D-18  0.29247056D-03
  0.24058190D-03 -0.25614476D-03  0.93104063D-04  0.16304070D-03  0.61122440D-18
 -0.84184718D-18  0.59392022D-03 -0.55200662D-04  0.41541304D-04  0.13659359D-04
 -0.91551817D-20 -0.52757102D-18  0.19928296D-03  0.54441066D-05  0.98186704D-05
  0.14477624D-04 -0.23874669D-02 -0.51030319D-02  0.34033396D-04  0.64074570D-18
  0.67180488D-14 -0.59591282D-04  0.11784923D-17 -0.39374074D-13 -0.10957443D-02
 -0.72401246D-18  0.46621177D-13 -0.62679065D-03  0.40379528D-04  0.11174829D-03
 -0.15212782D-03  0.51275637D-18  0.19312915D-17 -0.92395455D-14  0.62396653D-05
 -0.19240122D-04  0.13000456D-04  0.20697538D-18 -0.53528397D-18 -0.68732365D-14
  0.32929445D-03  0.61387972D-03  0.10375649D-02  0.15597999D-02  0.19163944D-02
  0.16187014D-02  0.61051461D-03 -0.30214709D-05 -0.25161875D-03 -0.47110968D-03
 -0.80210455D-03 -0.12407338D-02 -0.16340027D-02 -0.16978335D-02 -0.10788970D-02
  0.72305166D-03  0.67170438D-03 -0.16431502D-02 -0.67323180D-03  0.42768024D-18
  0.40097741D-18  0.28551980D-18 -0.41963431D-03 -0.39343384D-03 -0.28014833D-03
  0.15312084D-03  0.14356052D-03  0.10222364D-03 -0.31215764D-17 -0.14395027D-02
  0.23852459D-02  0.48008992D-17 -0.10591615D-02 -0.41996865D-03  0.13560923D-19
 -0.45959605D-05  0.22714850D-04 -0.36249162D-03  0.50403684D-03 -0.14154521D-03
 -0.29473034D-18  0.93584741D-18 -0.12465135D-02  0.23358566D-03  0.30303008D-03
 -0.53661574D-03  0.60851281D-18  0.83461526D-17  0.15829680D-02 -0.21188554D-04
 -0.74757530D-04  0.95946085D-04 -0.10298588D-17 -0.37224475D-18  0.56233910D-03
 -0.13260112D-18  0.70980990D-04  0.24672160D-03  0.19601159D-17 -0.24490283D-03
 -0.88472967D-05 -0.15623125D-17  0.31959856D-04 -0.73131750D-03 -0.44422505D-17
 -0.31026023D-18  0.81437521D-04  0.21905408D-03  0.20849248D-17 -0.16853191D-04
  0.19898106D-03 -0.11541442D-17 -0.22745937D-03 -0.85614330D-03  0.37386965D-17
  0.32929445D-03  0.61387972D-03  0.10375649D-02  0.15597999D-02  0.19163944D-02
  0.16187014D-02  0.61051461D-03 -0.30214709D-05 -0.25161875D-03 -0.47110968D-03
 -0.80210455D-03 -0.12407338D-02 -0.16340027D-02 -0.16978335D-02 -0.10788970D-02
  0.72305166D-03  0.67170438D-03 -0.16431502D-02 -0.67323180D-03 -0.23816837D-17
 -0.22329798D-17 -0.15900147D-17  0.41963431D-03  0.39343384D-03  0.28014833D-03
  0.15312084D-03  0.14356052D-03  0.10222364D-03  0.24432425D-17  0.14395027D-02
  0.23852459D-02 -0.26326203D-17  0.10591615D-02 -0.41996865D-03  0.73295168D-19
  0.45959605D-05  0.22714851D-04 -0.36249162D-03  0.50403684D-03 -0.14154521D-03
  0.19831527D-17  0.65471921D-18  0.12465135D-02  0.23358566D-03  0.30303008D-03
 -0.53661574D-03 -0.15035845D-17 -0.11194436D-17 -0.15829680D-02 -0.21188554D-04
 -0.74757530D-04  0.95946085D-04 -0.83509084D-18 -0.32221620D-19 -0.56233910D-03
 -0.10962233D-18 -0.70980990D-04  0.24672160D-03  0.26593646D-18  0.24490283D-03
 -0.88472967D-05  0.62930529D-19 -0.31959856D-04 -0.73131750D-03  0.43386617D-17
  0.73368596D-19 -0.81437521D-04  0.21905408D-03 -0.55722052D-18  0.16853191D-04
  0.19898106D-03  0.33711473D-18  0.22745937D-03 -0.85614330D-03 -0.46115076D-18
  0.17936510D-03  0.33437732D-03  0.56515658D-03  0.84961546D-03  0.10438508D-02
  0.88169884D-03  0.33254436D-03 -0.16457806D-05 -0.13083288D-03 -0.24496042D-03
 -0.41706608D-03 -0.64513781D-03 -0.84962380D-03 -0.88281355D-03 -0.56098838D-03
  0.37596137D-03  0.34132719D-03 -0.20162091D-02  0.44092441D-03  0.17727257D-17
  0.16620430D-17  0.11834737D-17 -0.69312894D-04 -0.64985244D-04 -0.46273365D-04
 -0.23677125D-03 -0.22198810D-03 -0.15806875D-03 -0.35319624D-17 -0.73690092D-03
  0.20923758D-02 -0.24409372D-17  0.74979917D-03 -0.12697410D-03 -0.65827351D-19
  0.20198963D-04  0.32361884D-05 -0.41541124D-04 -0.12616073D-03  0.16770186D-03
 -0.39005299D-18 -0.64081915D-17 -0.52276817D-03  0.27096086D-03 -0.13121517D-02
  0.10411909D-02  0.28561941D-18  0.12748120D-16  0.18304300D-02 -0.65369901D-05
 -0.23758333D-03  0.24412032D-03  0.12251053D-17 -0.10242499D-17  0.64392656D-03
 -0.63270242D-18 -0.43846845D-04 -0.29839381D-04 -0.87150172D-18 -0.48150167D-04
 -0.12887105D-03  0.27696090D-17  0.17969070D-03  0.21838920D-03 -0.56806005D-17
  0.64075396D-18 -0.60622393D-04  0.16509901D-03 -0.33580404D-17  0.24901051D-04
  0.10002085D-03  0.14357785D-17  0.15696613D-03 -0.59531789D-03  0.23865588D-17
  0.17936510D-03  0.33437732D-03  0.56515658D-03  0.84961546D-03  0.10438508D-02
  0.88169884D-03  0.33254436D-03 -0.16457806D-05 -0.13083288D-03 -0.24496042D-03
 -0.41706608D-03 -0.64513781D-03 -0.84962380D-03 -0.88281355D-03 -0.56098838D-03
  0.37596137D-03  0.34132719D-03 -0.20162091D-02  0.44092441D-03 -0.25211632D-18
 -0.23637507D-18 -0.16831313D-18  0.69312894D-04  0.64985244D-04  0.46273365D-04
 -0.23677125D-03 -0.22198810D-03 -0.15806875D-03  0.61506001D-18  0.73690092D-03
  0.20923758D-02 -0.73544551D-18 -0.74979917D-03 -0.12697411D-03 -0.43053843D-19
 -0.20198963D-04  0.32361884D-05 -0.41541124D-04 -0.12616073D-03  0.16770186D-03
  0.22538814D-18 -0.59051549D-18  0.52276817D-03  0.27096086D-03 -0.13121517D-02
  0.10411909D-02  0.14561413D-17 -0.82170785D-18 -0.18304300D-02 -0.65369900D-05
 -0.23758333D-03  0.24412032D-03  0.46705125D-18  0.93917213D-18 -0.64392656D-03
 -0.26036403D-18  0.43846845D-04 -0.29839381D-04  0.22030046D-18  0.48150167D-04
 -0.12887105D-03  0.56079162D-18 -0.17969070D-03  0.21838920D-03 -0.17262624D-17
 -0.74086300D-19  0.60622393D-04  0.16509901D-03  0.14449953D-17 -0.24901051D-04
  0.10002085D-03 -0.12227364D-17 -0.15696613D-03 -0.59531789D-03  0.42292288D-18
 -0.32024313D-03 -0.59700600D-03 -0.10090453D-02 -0.15169256D-02 -0.18637184D-02
 -0.15742081D-02 -0.59373339D-03  0.29384197D-05  0.24096176D-03  0.45115645D-03
  0.76813245D-03  0.11881841D-02  0.15647967D-02  0.16259240D-02  0.10332017D-02
 -0.69242775D-03 -0.10045555D-02  0.31228821D-02  0.12917544D-03 -0.90294965D-18
 -0.84657269D-18 -0.60281019D-18 -0.24868244D-13 -0.23315560D-13 -0.16602067D-13
 -0.32048923D-03 -0.30047903D-03 -0.21395897D-03  0.23791726D-17  0.97065153D-13
 -0.18039871D-03  0.29199571D-17  0.22681327D-12 -0.99895471D-04 -0.22899217D-19
 -0.10445401D-14  0.31900931D-04 -0.81247845D-04  0.15875432D-03 -0.77506477D-04
 -0.22660516D-17  0.83380731D-18  0.20799168D-14 -0.51832339D-03 -0.74076254D-03
  0.12590859D-02  0.52636813D-17  0.19371652D-17  0.19801826D-13 -0.57749841D-04
 -0.29629858D-03  0.35404842D-03 -0.99388810D-18 -0.21932096D-18  0.11882531D-12
  0.56583952D-19  0.10988272D-14 -0.13689480D-04 -0.59928410D-18 -0.21903138D-14
 -0.29862129D-03  0.42953225D-18 -0.11061677D-14  0.33968973D-03  0.74216999D-17
 -0.13522044D-18 -0.10019457D-13 -0.99849414D-05  0.14909684D-17  0.54680320D-15
  0.94137573D-04 -0.10853071D-17  0.29511566D-13 -0.64182749D-04  0.17255301D-17
  0.41169994D+00  0.76714221D+00  0.12974298D+01  0.19538574D+01  0.24190022D+01
  0.20584617D+01  0.78328265D+00 -0.36684468D-02 -0.75926257D-03 -0.14236244D-02
 -0.24220087D-02 -0.37611238D-02 -0.49912300D-02 -0.52600713D-02 -0.32615798D-02
  0.21696041D-02  0.41505782D-01  0.14875364D-02  0.11368949D-02  0.21593562D-16
  0.20740358D-16  0.14544571D-16 -0.96194355D-14 -0.92393529D-14 -0.64792720D-14
 -0.74846753D-02 -0.71889412D-02 -0.50413818D-02 -0.57019958D-17  0.26676240D-13
  0.29440945D-03  0.16101141D-19 -0.13350909D-12  0.12700963D-02  0.12078478D-18
  0.40155365D-13 -0.64413039D-04 -0.23968489D-02  0.20932636D-02  0.30358530D-03
  0.31014283D-18 -0.19385082D-17 -0.94784870D-14  0.10592301D-02 -0.68143095D-03
 -0.37779914D-03 -0.65868177D-18  0.14424865D-17 -0.31437476D-13  0.23947998D-03
 -0.17652456D-03 -0.62955420D-04 -0.12529791D-17  0.11653242D-18  0.31213896D-13
  0.23283088D-18 -0.30711682D-14  0.94550692D-04 -0.11745808D-17 -0.81312972D-14
 -0.99708663D-04  0.47608816D-18  0.17344802D-13 -0.18394341D-03 -0.14868602D-17
  0.16094293D-18  0.18766012D-14 -0.22018113D-04 -0.40903411D-18  0.22295133D-14
 -0.38830299D-03 -0.73794670D-19 -0.78593170D-14  0.45435733D-03  0.24224304D-18
MO    2     MO 0.0        OCC NO =    2.0000000  ORB. ENERGY =  -10.609221
  0.80149730D-04  0.14455334D-03  0.21314381D-03  0.18787020D-02  0.69385398D-03
  0.73709333D-04  0.87842013D-16  0.78188035D-03  0.31071831D-03  0.27683197D-16
  0.58158752D-03  0.39806036D-03  0.44591425D-18 -0.88258279D-04  0.20970573D-03
  0.77397863D-03 -0.88873784D-03  0.11475921D-03  0.27830993D-16  0.30520826D-15
 -0.16926118D-02  0.19348097D-03 -0.91034924D-04 -0.10244604D-03 -0.48992341D-17
 -0.75724899D-16 -0.96980836D-04 -0.80149729D-04 -0.14455334D-03 -0.21314381D-03
 -0.18787020D-02 -0.69385399D-03 -0.73709332D-04 -0.99346474D-16  0.78188035D-03
 -0.31071831D-03 -0.17239038D-16  0.58158752D-03 -0.39806036D-03 -0.51549278D-18
 -0.88258281D-04 -0.20970573D-03 -0.77397862D-03  0.88873783D-03 -0.11475921D-03
 -0.67523541D-17  0.48105792D-17 -0.16926118D-02 -0.19348097D-03  0.91034923D-04
  0.10244604D-03 -0.34733629D-17 -0.56568988D-18 -0.96980835D-04  0.51158385D-04
  0.92266254D-04  0.13604654D-03  0.27070741D-02  0.44517674D-02 -0.11213163D-03
  0.85045267D-19 -0.35301059D-03  0.20706169D-03 -0.46319139D-18 -0.27902514D-03
  0.25475133D-03 -0.17229305D-17 -0.57143939D-03 -0.82095985D-04  0.98068674D-04
  0.47714679D-04 -0.14578335D-03 -0.17503116D-17  0.16887847D-17 -0.15092171D-03
  0.97383740D-04  0.63350723D-05 -0.10371881D-03 -0.37337506D-18 -0.33830164D-17
  0.64663945D-04 -0.51158385D-04 -0.92266253D-04 -0.13604654D-03 -0.27070741D-02
 -0.44517673D-02  0.11213163D-03 -0.34216635D-17 -0.35301059D-03 -0.20706169D-03
  0.93032718D-17 -0.27902514D-03 -0.25475133D-03  0.17065092D-17 -0.57143939D-03
  0.82095987D-04 -0.98068673D-04 -0.47714680D-04  0.14578335D-03  0.85717622D-18
 -0.29488157D-17 -0.15092171D-03 -0.97383739D-04 -0.63350726D-05  0.10371881D-03
  0.19362147D-17  0.32951635D-17  0.64663944D-04 -0.85542906D-13 -0.15428015D-12
 -0.22748600D-12  0.11449196D-10 -0.20759319D-10  0.46454524D-12  0.74168762D-18
 -0.12408752D-03  0.46559621D-12  0.39333439D-18  0.90989131D-03  0.81606518D-11
 -0.14259710D-18  0.91978810D-04 -0.18725384D-11 -0.86880083D-12 -0.57150235D-12
  0.14403032D-11 -0.12510596D-17 -0.53510483D-18  0.59260475D-03 -0.42651891D-12
 -0.83150829D-13  0.50966974D-12  0.57282088D-18  0.42060014D-18  0.43016102D-04
  0.23253629D+00  0.43350051D+00  0.73269223D+00  0.11014764D+01  0.13532910D+01
  0.11430706D+01  0.43112419D+00 -0.21336577D-02 -0.15195757D-02 -0.28451253D-02
 -0.48440692D-02 -0.74930385D-02 -0.98680681D-02 -0.10253555D-01 -0.65156738D-02
  0.43666531D-02  0.23512888D-01  0.59868061D-02  0.66029363D-04  0.19985605D-16
  0.18737775D-16  0.13342412D-16 -0.54187750D-03 -0.50804460D-03 -0.36175802D-03
  0.40833497D-03  0.38283999D-03  0.27260488D-03 -0.10356914D-17 -0.28426516D-03
 -0.74075635D-03  0.19791889D-18 -0.30044835D-02 -0.11186489D-03 -0.82546621D-18
 -0.17487514D-03  0.19408536D-04 -0.22823087D-02  0.12400221D-02  0.10422866D-02
  0.16092725D-17  0.89437367D-18 -0.24072633D-03  0.40501350D-03 -0.51596704D-03
  0.11095354D-03 -0.98219819D-17 -0.12462479D-16  0.85278225D-04  0.67061941D-05
  0.15271174D-03 -0.15941793D-03 -0.53859919D-18 -0.15873401D-17 -0.37874804D-04
  0.92833209D-18 -0.12386524D-03 -0.58723795D-03 -0.48120820D-17 -0.29815871D-03
 -0.18201323D-03  0.20270857D-17  0.66975444D-03  0.19437271D-02 -0.43761575D-17
  0.57359506D-18  0.89303084D-04  0.38209019D-03 -0.44314283D-17  0.50424269D-04
 -0.14472245D-04  0.27106431D-17 -0.31833352D-03 -0.11317983D-02 -0.22278431D-17
 -0.23253629D+00 -0.43350051D+00 -0.73269223D+00 -0.11014764D+01 -0.13532910D+01
 -0.11430706D+01 -0.43112418D+00  0.21336576D-02  0.15195757D-02  0.28451252D-02
  0.48440692D-02  0.74930384D-02  0.98680680D-02  0.10253555D-01  0.65156738D-02
 -0.43666530D-02 -0.23512888D-01 -0.59868061D-02 -0.66029352D-04 -0.61119150D-17
 -0.57303089D-17 -0.40803213D-17 -0.54187750D-03 -0.50804460D-03 -0.36175802D-03
 -0.40833497D-03 -0.38283999D-03 -0.27260488D-03 -0.17628361D-17 -0.28426516D-03
  0.74075635D-03 -0.76109384D-18 -0.30044835D-02  0.11186489D-03 -0.42818281D-18
 -0.17487514D-03 -0.19408536D-04  0.22823087D-02 -0.12400221D-02 -0.10422866D-02
 -0.49808397D-17 -0.15374181D-16 -0.24072633D-03 -0.40501350D-03  0.51596704D-03
 -0.11095354D-03 -0.77376432D-18  0.12236795D-16  0.85278236D-04 -0.67061942D-05
 -0.15271174D-03  0.15941793D-03 -0.52470402D-18 -0.36919481D-18 -0.37874807D-04
 -0.27790059D-17 -0.12386524D-03  0.58723795D-03  0.99277998D-17 -0.29815871D-03
  0.18201322D-03 -0.15907820D-17  0.66975444D-03 -0.19437271D-02  0.14142462D-16
  0.17573454D-18  0.89303084D-04 -0.38209019D-03  0.33414732D-18  0.50424268D-04
  0.14472246D-04 -0.86135094D-18 -0.31833352D-03  0.11317983D-02 -0.81564503D-17
  0.45024650D-02  0.83936184D-02  0.14186694D-01  0.21327248D-01  0.26202988D-01
  0.22132612D-01  0.83476070D-02 -0.41312773D-04 -0.38856423D-03 -0.72751484D-03
 -0.12386563D-02 -0.19160129D-02 -0.25233216D-02 -0.26218928D-02 -0.16660952D-02
  0.11165782D-02  0.22140119D-02 -0.49138474D-02 -0.23554094D-02  0.58934440D-18
  0.55254784D-18  0.39344698D-18 -0.18993577D-03 -0.17807686D-03 -0.12680133D-03
  0.63282824D-03  0.59331670D-03  0.42247683D-03 -0.14355363D-17  0.71368140D-03