 Molden2AIM, Version 4.0.0 (06/02/2016)           Time: Mon Jul  2 18:49:28 2018
GAUSSIAN             21 MOL ORBITALS    558 PRIMITIVES       10 NUCLEI
  H    1    (CENTRE  1)   0.00000000  4.55007689 -0.29307196  CHARGE =  1.0
  H    2    (CENTRE  2)   0.00000000 -4.55007689 -0.29307196  CHARGE =  1.0
  H    3    (CENTRE  3)   0.00000000  2.40741282  3.97138795  CHARGE =  1.0
  H    4    (CENTRE  4)   0.00000000 -2.40741282  3.97138795  CHARGE =  1.0
  C    5    (CENTRE  5)   0.00000000  2.49439502 -0.12568946  CHARGE =  6.0
  C    6    (CENTRE  6)   0.00000000 -2.49439502 -0.12568946  CHARGE =  6.0
  C    7    (CENTRE  7)   0.00000000  1.30637523  2.23048154  CHARGE =  6.0
  C    8    (CENTRE  8)   0.00000000 -1.30637523  2.23048154  CHARGE =  6.0
  N    9    (CENTRE  9)   0.00000000  1.25097413 -2.31686470  CHARGE =  7.0
  N   10    (CENTRE 10)   0.00000000 -1.25097413 -2.31686470  CHARGE =  7.0
CENTRE ASSIGNMENTS    1  1  1  1  1  1  1  1  1  1  1  1  1  1  1  1  1  1  1  1
CENTRE ASSIGNMENTS    1  1  1  1  1  1  1  2  2  2  2  2  2  2  2  2  2  2  2  2
CENTRE ASSIGNMENTS    2  2  2  2  2  2  2  2  2  2  2  2  2  2  3  3  3  3  3  3
CENTRE ASSIGNMENTS    3  3  3  3  3  3  3  3  3  3  3  3  3  3  3  3  3  3  3  3
CENTRE ASSIGNMENTS    3  4  4  4  4  4  4  4  4  4  4  4  4  4  4  4  4  4  4  4
CENTRE ASSIGNMENTS    4  4  4  4  4  4  4  4  5  5  5  5  5  5  5  5  5  5  5  5
CENTRE ASSIGNMENTS    5  5  5  5  5  5  5  5  5  5  5  5  5  5  5  5  5  5  5  5
CENTRE ASSIGNMENTS    5  5  5  5  5  5  5  5  5  5  5  5  5  5  5  5  5  5  5  5
CENTRE ASSIGNMENTS    5  5  5  5  5  5  5  5  5  5  5  5  5  5  5  5  5  5  5  5
CENTRE ASSIGNMENTS    5  5  5  6  6  6  6  6  6  6  6  6  6  6  6  6  6  6  6  6
CENTRE ASSIGNMENTS    6  6  6  6  6  6  6  6  6  6  6  6  6  6  6  6  6  6  6  6
CENTRE ASSIGNMENTS    6  6  6  6  6  6  6  6  6  6  6  6  6  6  6  6  6  6  6  6
CENTRE ASSIGNMENTS    6  6  6  6  6  6  6  6  6  6  6  6  6  6  6  6  6  6  7  7
CENTRE ASSIGNMENTS    7  7  7  7  7  7  7  7  7  7  7  7  7  7  7  7  7  7  7  7
CENTRE ASSIGNMENTS    7  7  7  7  7  7  7  7  7  7  7  7  7  7  7  7  7  7  7  7
CENTRE ASSIGNMENTS    7  7  7  7  7  7  7  7  7  7  7  7  7  7  7  7  7  7  7  7
CENTRE ASSIGNMENTS    7  7  7  7  7  7  7  7  7  7  7  7  7  8  8  8  8  8  8  8
CENTRE ASSIGNMENTS    8  8  8  8  8  8  8  8  8  8  8  8  8  8  8  8  8  8  8  8
CENTRE ASSIGNMENTS    8  8  8  8  8  8  8  8  8  8  8  8  8  8  8  8  8  8  8  8
CENTRE ASSIGNMENTS    8  8  8  8  8  8  8  8  8  8  8  8  8  8  8  8  8  8  8  8
CENTRE ASSIGNMENTS    8  8  8  8  8  8  8  8  9  9  9  9  9  9  9  9  9  9  9  9
CENTRE ASSIGNMENTS    9  9  9  9  9  9  9  9  9  9  9  9  9  9  9  9  9  9  9  9
CENTRE ASSIGNMENTS    9  9  9  9  9  9  9  9  9  9  9  9  9  9  9  9  9  9  9  9
CENTRE ASSIGNMENTS    9  9  9  9  9  9  9  9  9  9  9  9  9  9  9  9  9  9  9  9
CENTRE ASSIGNMENTS    9  9  9 10 10 10 10 10 10 10 10 10 10 10 10 10 10 10 10 10
CENTRE ASSIGNMENTS   10 10 10 10 10 10 10 10 10 10 10 10 10 10 10 10 10 10 10 10
CENTRE ASSIGNMENTS   10 10 10 10 10 10 10 10 10 10 10 10 10 10 10 10 10 10 10 10
CENTRE ASSIGNMENTS   10 10 10 10 10 10 10 10 10 10 10 10 10 10 10 10 10 10
TYPE ASSIGNMENTS      1  1  1  1  1  1  2  3  4  2  3  4  2  3  4  5  6  7  8  9
TYPE ASSIGNMENTS     10  5  6  7  8  9 10  1  1  1  1  1  1  2  3  4  2  3  4  2
TYPE ASSIGNMENTS      3  4  5  6  7  8  9 10  5  6  7  8  9 10  1  1  1  1  1  1
TYPE ASSIGNMENTS      2  3  4  2  3  4  2  3  4  5  6  7  8  9 10  5  6  7  8  9
TYPE ASSIGNMENTS     10  1  1  1  1  1  1  2  3  4  2  3  4  2  3  4  5  6  7  8
TYPE ASSIGNMENTS      9 10  5  6  7  8  9 10  1  1  1  1  1  1  1  1  1  1  1  1
TYPE ASSIGNMENTS      1  1  1  1  1  1  1  2  2  2  3  3  3  4  4  4  2  3  4  2
TYPE ASSIGNMENTS      3  4  2  3  4  5  6  7  8  9 10  5  6  7  8  9 10  5  6  7
TYPE ASSIGNMENTS      8  9 10 11 12 13 17 14 15 18 19 16 20 11 12 13 17 14 15 18
TYPE ASSIGNMENTS     19 16 20  1  1  1  1  1  1  1  1  1  1  1  1  1  1  1  1  1
TYPE ASSIGNMENTS      1  1  2  2  2  3  3  3  4  4  4  2  3  4  2  3  4  2  3  4
TYPE ASSIGNMENTS      5  6  7  8  9 10  5  6  7  8  9 10  5  6  7  8  9 10 11 12
TYPE ASSIGNMENTS     13 17 14 15 18 19 16 20 11 12 13 17 14 15 18 19 16 20  1  1
TYPE ASSIGNMENTS      1  1  1  1  1  1  1  1  1  1  1  1  1  1  1  1  1  2  2  2
TYPE ASSIGNMENTS      3  3  3  4  4  4  2  3  4  2  3  4  2  3  4  5  6  7  8  9
TYPE ASSIGNMENTS     10  5  6  7  8  9 10  5  6  7  8  9 10 11 12 13 17 14 15 18
TYPE ASSIGNMENTS     19 16 20 11 12 13 17 14 15 18 19 16 20  1  1  1  1  1  1  1
TYPE ASSIGNMENTS      1  1  1  1  1  1  1  1  1  1  1  1  2  2  2  3  3  3  4  4
TYPE ASSIGNMENTS      4  2  3  4  2  3  4  2  3  4  5  6  7  8  9 10  5  6  7  8
TYPE ASSIGNMENTS      9 10  5  6  7  8  9 10 11 12 13 17 14 15 18 19 16 20 11 12
TYPE ASSIGNMENTS     13 17 14 15 18 19 16 20  1  1  1  1  1  1  1  1  1  1  1  1
TYPE ASSIGNMENTS      1  1  1  1  1  1  1  2  2  2  3  3  3  4  4  4  2  3  4  2
TYPE ASSIGNMENTS      3  4  2  3  4  5  6  7  8  9 10  5  6  7  8  9 10  5  6  7
TYPE ASSIGNMENTS      8  9 10 11 12 13 17 14 15 18 19 16 20 11 12 13 17 14 15 18
TYPE ASSIGNMENTS     19 16 20  1  1  1  1  1  1  1  1  1  1  1  1  1  1  1  1  1
TYPE ASSIGNMENTS      1  1  2  2  2  3  3  3  4  4  4  2  3  4  2  3  4  2  3  4
TYPE ASSIGNMENTS      5  6  7  8  9 10  5  6  7  8  9 10  5  6  7  8  9 10 11 12
TYPE ASSIGNMENTS     13 17 14 15 18 19 16 20 11 12 13 17 14 15 18 19 16 20
EXPONENTS  0.3387000D+02 0.5095000D+01 0.1159000D+01 0.3258000D+00 0.1027000D+00
EXPONENTS  0.2526000D-01 0.1407000D+01 0.1407000D+01 0.1407000D+01 0.3880000D+00
EXPONENTS  0.3880000D+00 0.3880000D+00 0.1020000D+00 0.1020000D+00 0.1020000D+00
EXPONENTS  0.1057000D+01 0.1057000D+01 0.1057000D+01 0.1057000D+01 0.1057000D+01
EXPONENTS  0.1057000D+01 0.2470000D+00 0.2470000D+00 0.2470000D+00 0.2470000D+00
EXPONENTS  0.2470000D+00 0.2470000D+00 0.3387000D+02 0.5095000D+01 0.1159000D+01
EXPONENTS  0.3258000D+00 0.1027000D+00 0.2526000D-01 0.1407000D+01 0.1407000D+01
EXPONENTS  0.1407000D+01 0.3880000D+00 0.3880000D+00 0.3880000D+00 0.1020000D+00
EXPONENTS  0.1020000D+00 0.1020000D+00 0.1057000D+01 0.1057000D+01 0.1057000D+01
EXPONENTS  0.1057000D+01 0.1057000D+01 0.1057000D+01 0.2470000D+00 0.2470000D+00
EXPONENTS  0.2470000D+00 0.2470000D+00 0.2470000D+00 0.2470000D+00 0.3387000D+02
EXPONENTS  0.5095000D+01 0.1159000D+01 0.3258000D+00 0.1027000D+00 0.2526000D-01
EXPONENTS  0.1407000D+01 0.1407000D+01 0.1407000D+01 0.3880000D+00 0.3880000D+00
EXPONENTS  0.3880000D+00 0.1020000D+00 0.1020000D+00 0.1020000D+00 0.1057000D+01
EXPONENTS  0.1057000D+01 0.1057000D+01 0.1057000D+01 0.1057000D+01 0.1057000D+01
EXPONENTS  0.2470000D+00 0.2470000D+00 0.2470000D+00 0.2470000D+00 0.2470000D+00
EXPONENTS  0.2470000D+00 0.3387000D+02 0.5095000D+01 0.1159000D+01 0.3258000D+00
EXPONENTS  0.1027000D+00 0.2526000D-01 0.1407000D+01 0.1407000D+01 0.1407000D+01
EXPONENTS  0.3880000D+00 0.3880000D+00 0.3880000D+00 0.1020000D+00 0.1020000D+00
EXPONENTS  0.1020000D+00 0.1057000D+01 0.1057000D+01 0.1057000D+01 0.1057000D+01
EXPONENTS  0.1057000D+01 0.1057000D+01 0.2470000D+00 0.2470000D+00 0.2470000D+00
EXPONENTS  0.2470000D+00 0.2470000D+00 0.2470000D+00 0.8236000D+04 0.1235000D+04
EXPONENTS  0.2808000D+03 0.7927000D+02 0.2559000D+02 0.8997000D+01 0.3319000D+01
EXPONENTS  0.3643000D+00 0.8236000D+04 0.1235000D+04 0.2808000D+03 0.7927000D+02
EXPONENTS  0.2559000D+02 0.8997000D+01 0.3319000D+01 0.3643000D+00 0.9059000D+00
EXPONENTS  0.1285000D+00 0.4402000D-01 0.1871000D+02 0.4133000D+01 0.1200000D+01
EXPONENTS  0.1871000D+02 0.4133000D+01 0.1200000D+01 0.1871000D+02 0.4133000D+01
EXPONENTS  0.1200000D+01 0.3827000D+00 0.3827000D+00 0.3827000D+00 0.1209000D+00
EXPONENTS  0.1209000D+00 0.1209000D+00 0.3569000D-01 0.3569000D-01 0.3569000D-01
EXPONENTS  0.1097000D+01 0.1097000D+01 0.1097000D+01 0.1097000D+01 0.1097000D+01
EXPONENTS  0.1097000D+01 0.3180000D+00 0.3180000D+00 0.3180000D+00 0.3180000D+00
EXPONENTS  0.3180000D+00 0.3180000D+00 0.1000000D+00 0.1000000D+00 0.1000000D+00
EXPONENTS  0.1000000D+00 0.1000000D+00 0.1000000D+00 0.7610000D+00 0.7610000D+00
EXPONENTS  0.7610000D+00 0.7610000D+00 0.7610000D+00 0.7610000D+00 0.7610000D+00
EXPONENTS  0.7610000D+00 0.7610000D+00 0.7610000D+00 0.2680000D+00 0.2680000D+00
EXPONENTS  0.2680000D+00 0.2680000D+00 0.2680000D+00 0.2680000D+00 0.2680000D+00
EXPONENTS  0.2680000D+00 0.2680000D+00 0.2680000D+00 0.8236000D+04 0.1235000D+04
EXPONENTS  0.2808000D+03 0.7927000D+02 0.2559000D+02 0.8997000D+01 0.3319000D+01
EXPONENTS  0.3643000D+00 0.8236000D+04 0.1235000D+04 0.2808000D+03 0.7927000D+02
EXPONENTS  0.2559000D+02 0.8997000D+01 0.3319000D+01 0.3643000D+00 0.9059000D+00
EXPONENTS  0.1285000D+00 0.4402000D-01 0.1871000D+02 0.4133000D+01 0.1200000D+01
EXPONENTS  0.1871000D+02 0.4133000D+01 0.1200000D+01 0.1871000D+02 0.4133000D+01
EXPONENTS  0.1200000D+01 0.3827000D+00 0.3827000D+00 0.3827000D+00 0.1209000D+00
EXPONENTS  0.1209000D+00 0.1209000D+00 0.3569000D-01 0.3569000D-01 0.3569000D-01
EXPONENTS  0.1097000D+01 0.1097000D+01 0.1097000D+01 0.1097000D+01 0.1097000D+01
EXPONENTS  0.1097000D+01 0.3180000D+00 0.3180000D+00 0.3180000D+00 0.3180000D+00
EXPONENTS  0.3180000D+00 0.3180000D+00 0.1000000D+00 0.1000000D+00 0.1000000D+00
EXPONENTS  0.1000000D+00 0.1000000D+00 0.1000000D+00 0.7610000D+00 0.7610000D+00
EXPONENTS  0.7610000D+00 0.7610000D+00 0.7610000D+00 0.7610000D+00 0.7610000D+00
EXPONENTS  0.7610000D+00 0.7610000D+00 0.7610000D+00 0.2680000D+00 0.2680000D+00
EXPONENTS  0.2680000D+00 0.2680000D+00 0.2680000D+00 0.2680000D+00 0.2680000D+00
EXPONENTS  0.2680000D+00 0.2680000D+00 0.2680000D+00 0.8236000D+04 0.1235000D+04
EXPONENTS  0.2808000D+03 0.7927000D+02 0.2559000D+02 0.8997000D+01 0.3319000D+01
EXPONENTS  0.3643000D+00 0.8236000D+04 0.1235000D+04 0.2808000D+03 0.7927000D+02
EXPONENTS  0.2559000D+02 0.8997000D+01 0.3319000D+01 0.3643000D+00 0.9059000D+00
EXPONENTS  0.1285000D+00 0.4402000D-01 0.1871000D+02 0.4133000D+01 0.1200000D+01
EXPONENTS  0.1871000D+02 0.4133000D+01 0.1200000D+01 0.1871000D+02 0.4133000D+01
EXPONENTS  0.1200000D+01 0.3827000D+00 0.3827000D+00 0.3827000D+00 0.1209000D+00
EXPONENTS  0.1209000D+00 0.1209000D+00 0.3569000D-01 0.3569000D-01 0.3569000D-01
EXPONENTS  0.1097000D+01 0.1097000D+01 0.1097000D+01 0.1097000D+01 0.1097000D+01
EXPONENTS  0.1097000D+01 0.3180000D+00 0.3180000D+00 0.3180000D+00 0.3180000D+00
EXPONENTS  0.3180000D+00 0.3180000D+00 0.1000000D+00 0.1000000D+00 0.1000000D+00
EXPONENTS  0.1000000D+00 0.1000000D+00 0.1000000D+00 0.7610000D+00 0.7610000D+00
EXPONENTS  0.7610000D+00 0.7610000D+00 0.7610000D+00 0.7610000D+00 0.7610000D+00
EXPONENTS  0.7610000D+00 0.7610000D+00 0.7610000D+00 0.2680000D+00 0.2680000D+00
EXPONENTS  0.2680000D+00 0.2680000D+00 0.2680000D+00 0.2680000D+00 0.2680000D+00
EXPONENTS  0.2680000D+00 0.2680000D+00 0.2680000D+00 0.8236000D+04 0.1235000D+04
EXPONENTS  0.2808000D+03 0.7927000D+02 0.2559000D+02 0.8997000D+01 0.3319000D+01
EXPONENTS  0.3643000D+00 0.8236000D+04 0.1235000D+04 0.2808000D+03 0.7927000D+02
EXPONENTS  0.2559000D+02 0.8997000D+01 0.3319000D+01 0.3643000D+00 0.9059000D+00
EXPONENTS  0.1285000D+00 0.4402000D-01 0.1871000D+02 0.4133000D+01 0.1200000D+01
EXPONENTS  0.1871000D+02 0.4133000D+01 0.1200000D+01 0.1871000D+02 0.4133000D+01
EXPONENTS  0.1200000D+01 0.3827000D+00 0.3827000D+00 0.3827000D+00 0.1209000D+00
EXPONENTS  0.1209000D+00 0.1209000D+00 0.3569000D-01 0.3569000D-01 0.3569000D-01
EXPONENTS  0.1097000D+01 0.1097000D+01 0.1097000D+01 0.1097000D+01 0.1097000D+01
EXPONENTS  0.1097000D+01 0.3180000D+00 0.3180000D+00 0.3180000D+00 0.3180000D+00
EXPONENTS  0.3180000D+00 0.3180000D+00 0.1000000D+00 0.1000000D+00 0.1000000D+00
EXPONENTS  0.1000000D+00 0.1000000D+00 0.1000000D+00 0.7610000D+00 0.7610000D+00
EXPONENTS  0.7610000D+00 0.7610000D+00 0.7610000D+00 0.7610000D+00 0.7610000D+00
EXPONENTS  0.7610000D+00 0.7610000D+00 0.7610000D+00 0.2680000D+00 0.2680000D+00
EXPONENTS  0.2680000D+00 0.2680000D+00 0.2680000D+00 0.2680000D+00 0.2680000D+00
EXPONENTS  0.2680000D+00 0.2680000D+00 0.2680000D+00 0.1142000D+05 0.1712000D+04
EXPONENTS  0.3893000D+03 0.1100000D+03 0.3557000D+02 0.1254000D+02 0.4644000D+01
EXPONENTS  0.5118000D+00 0.1142000D+05 0.1712000D+04 0.3893000D+03 0.1100000D+03
EXPONENTS  0.3557000D+02 0.1254000D+02 0.4644000D+01 0.5118000D+00 0.1293000D+01
EXPONENTS  0.1787000D+00 0.5760000D-01 0.2663000D+02 0.5948000D+01 0.1742000D+01
EXPONENTS  0.2663000D+02 0.5948000D+01 0.1742000D+01 0.2663000D+02 0.5948000D+01
EXPONENTS  0.1742000D+01 0.5550000D+00 0.5550000D+00 0.5550000D+00 0.1725000D+00
EXPONENTS  0.1725000D+00 0.1725000D+00 0.4910000D-01 0.4910000D-01 0.4910000D-01
EXPONENTS  0.1654000D+01 0.1654000D+01 0.1654000D+01 0.1654000D+01 0.1654000D+01
EXPONENTS  0.1654000D+01 0.4690000D+00 0.4690000D+00 0.4690000D+00 0.4690000D+00
EXPONENTS  0.4690000D+00 0.4690000D+00 0.1510000D+00 0.1510000D+00 0.1510000D+00
EXPONENTS  0.1510000D+00 0.1510000D+00 0.1510000D+00 0.1093000D+01 0.1093000D+01
EXPONENTS  0.1093000D+01 0.1093000D+01 0.1093000D+01 0.1093000D+01 0.1093000D+01
EXPONENTS  0.1093000D+01 0.1093000D+01 0.1093000D+01 0.3640000D+00 0.3640000D+00
EXPONENTS  0.3640000D+00 0.3640000D+00 0.3640000D+00 0.3640000D+00 0.3640000D+00
EXPONENTS  0.3640000D+00 0.3640000D+00 0.3640000D+00 0.1142000D+05 0.1712000D+04
EXPONENTS  0.3893000D+03 0.1100000D+03 0.3557000D+02 0.1254000D+02 0.4644000D+01
EXPONENTS  0.5118000D+00 0.1142000D+05 0.1712000D+04 0.3893000D+03 0.1100000D+03
EXPONENTS  0.3557000D+02 0.1254000D+02 0.4644000D+01 0.5118000D+00 0.1293000D+01
EXPONENTS  0.1787000D+00 0.5760000D-01 0.2663000D+02 0.5948000D+01 0.1742000D+01
EXPONENTS  0.2663000D+02 0.5948000D+01 0.1742000D+01 0.2663000D+02 0.5948000D+01
EXPONENTS  0.1742000D+01 0.5550000D+00 0.5550000D+00 0.5550000D+00 0.1725000D+00
EXPONENTS  0.1725000D+00 0.1725000D+00 0.4910000D-01 0.4910000D-01 0.4910000D-01
EXPONENTS  0.1654000D+01 0.1654000D+01 0.1654000D+01 0.1654000D+01 0.1654000D+01
EXPONENTS  0.1654000D+01 0.4690000D+00 0.4690000D+00 0.4690000D+00 0.4690000D+00
EXPONENTS  0.4690000D+00 0.4690000D+00 0.1510000D+00 0.1510000D+00 0.1510000D+00
EXPONENTS  0.1510000D+00 0.1510000D+00 0.1510000D+00 0.1093000D+01 0.1093000D+01
EXPONENTS  0.1093000D+01 0.1093000D+01 0.1093000D+01 0.1093000D+01 0.1093000D+01
EXPONENTS  0.1093000D+01 0.1093000D+01 0.1093000D+01 0.3640000D+00 0.3640000D+00
EXPONENTS  0.3640000D+00 0.3640000D+00 0.3640000D+00 0.3640000D+00 0.3640000D+00
EXPONENTS  0.3640000D+00 0.3640000D+00 0.3640000D+00
MO    1     MO 0.0        OCC NO =    2.0000000  ORB. ENERGY =  -14.829388
  0.49412013D-04  0.89116601D-04  0.13140238D-03  0.64774613D-03  0.10253608D-02
 -0.21345362D-04 -0.43777007D-16 -0.24412326D-03  0.28708484D-04  0.34092313D-16
  0.67844744D-03 -0.18362788D-03 -0.16798370D-16 -0.13752729D-03  0.15548741D-03
  0.26662942D-03 -0.26410133D-03 -0.25280856D-05  0.36885902D-15 -0.18450709D-16
 -0.41086246D-04  0.71995274D-04 -0.10312332D-03  0.31128041D-04 -0.89542025D-16
 -0.33145636D-18 -0.23597991D-04  0.49412013D-04  0.89116601D-04  0.13140238D-03
  0.64774613D-03  0.10253608D-02 -0.21345362D-04  0.29082639D-18  0.24412326D-03
  0.28708484D-04  0.50931665D-18 -0.67844744D-03 -0.18362788D-03  0.58543670D-18
  0.13752729D-03  0.15548741D-03  0.26662942D-03 -0.26410133D-03 -0.25280856D-05
  0.27534378D-18 -0.77221163D-18  0.41086246D-04  0.71995274D-04 -0.10312332D-03
  0.31128041D-04  0.27113846D-18  0.12344601D-18  0.23597991D-04 -0.11342244D-04
 -0.20456204D-04 -0.30162661D-04  0.12052618D-03 -0.61054773D-03  0.22448005D-04
 -0.33327125D-17 -0.39495747D-04  0.70998244D-04  0.11709155D-17  0.13511605D-03
 -0.94510359D-03  0.17402654D-17 -0.73532236D-05  0.69580528D-04 -0.15844656D-03
 -0.12789283D-03  0.28633940D-03 -0.12564187D-17  0.36896246D-17 -0.41019526D-05
 -0.39399215D-04 -0.43810241D-04  0.83209456D-04  0.29684753D-18 -0.12089009D-17
  0.10155170D-03 -0.11342244D-04 -0.20456204D-04 -0.30162661D-04  0.12052618D-03
 -0.61054773D-03  0.22448005D-04 -0.75098430D-18  0.39495747D-04  0.70998244D-04
  0.23142357D-17 -0.13511605D-03 -0.94510359D-03 -0.10252240D-17  0.73532236D-05
  0.69580528D-04 -0.15844656D-03 -0.12789283D-03  0.28633940D-03  0.32480301D-18
 -0.13042409D-17  0.41019526D-05 -0.39399215D-04 -0.43810241D-04  0.83209456D-04
 -0.20415976D-18 -0.47767131D-18 -0.10155170D-03  0.29014900D-03  0.54090371D-03
  0.91422257D-03  0.13743760D-02  0.16885797D-02  0.14262755D-02  0.53793864D-03
 -0.26622883D-05 -0.22341909D-03 -0.41831103D-03 -0.71221033D-03 -0.11016811D-02
 -0.14508752D-02 -0.15075523D-02 -0.95798181D-03  0.64201713D-03  0.69189515D-03
 -0.14286537D-02 -0.95593861D-03  0.27240929D-16  0.25540103D-16  0.18186075D-16
 -0.40665455D-03 -0.38126449D-03 -0.27148303D-03 -0.23763805D-03 -0.22280077D-03
 -0.15864742D-03 -0.68897325D-17  0.46178568D-03 -0.22948791D-02  0.15252776D-17
 -0.11948296D-02  0.52805761D-03  0.70027482D-19  0.27520911D-04 -0.55086312D-04
 -0.28815729D-03 -0.64661195D-04  0.35281848D-03 -0.63355710D-17 -0.12253339D-18
  0.85399155D-03  0.25951505D-03  0.37294951D-03 -0.63246456D-03 -0.39161518D-17
  0.11529358D-17  0.14861766D-03  0.37364000D-04  0.45426610D-04 -0.82790610D-04
  0.30878131D-17  0.43063731D-18 -0.33730573D-03  0.41626778D-17 -0.10159667D-04
 -0.14473841D-03 -0.12383980D-16 -0.42823818D-03 -0.15055956D-04 -0.10405357D-18
  0.45871718D-03  0.44927118D-03  0.53966679D-19 -0.30757849D-18 -0.20182298D-03
  0.75925979D-06  0.40937437D-18  0.12718749D-03 -0.20390148D-03  0.51336110D-18
  0.47828145D-03  0.20162370D-03 -0.38156745D-18  0.29014900D-03  0.54090371D-03
  0.91422257D-03  0.13743760D-02  0.16885797D-02  0.14262755D-02  0.53793864D-03
 -0.26622883D-05 -0.22341909D-03 -0.41831103D-03 -0.71221033D-03 -0.11016811D-02
 -0.14508752D-02 -0.15075523D-02 -0.95798181D-03  0.64201713D-03  0.69189515D-03
 -0.14286537D-02 -0.95593861D-03  0.34668857D-18  0.32504257D-18  0.23144967D-18
  0.40665455D-03  0.38126449D-03  0.27148303D-03 -0.23763805D-03 -0.22280077D-03
 -0.15864742D-03  0.12105284D-17 -0.46178568D-03 -0.22948791D-02  0.61602713D-17
  0.11948296D-02  0.52805761D-03  0.18421991D-18 -0.27520911D-04 -0.55086312D-04
 -0.28815729D-03 -0.64661195D-04  0.35281848D-03 -0.94908249D-18 -0.32775651D-18
 -0.85399155D-03  0.25951505D-03  0.37294951D-03 -0.63246456D-03  0.20843582D-17
 -0.88687959D-18 -0.14861766D-03  0.37364000D-04  0.45426610D-04 -0.82790610D-04
  0.12779477D-17 -0.21464340D-18  0.33730573D-03  0.11902329D-18  0.10159667D-04
 -0.14473841D-03 -0.37301807D-18  0.42823818D-03 -0.15055956D-04  0.15948209D-19
 -0.45871718D-03  0.44927118D-03  0.38731942D-18 -0.34157566D-18  0.20182298D-03
  0.75925973D-06 -0.17049843D-18 -0.12718749D-03 -0.20390148D-03  0.11952254D-17
 -0.47828145D-03  0.20162370D-03 -0.93707659D-18 -0.52623035D-04 -0.98101303D-04
 -0.16580848D-03 -0.24926446D-03 -0.30625019D-03 -0.25867725D-03 -0.97563540D-04
  0.48284740D-06  0.42866063D-04  0.80258795D-04  0.13664747D-03  0.21137285D-03
  0.27837061D-03  0.28924489D-03  0.18380215D-03 -0.12317992D-03 -0.35457902D-03
 -0.89891903D-03  0.95108371D-03  0.17796799D-17  0.16685630D-17  0.11881163D-17
 -0.21192148D-04 -0.19868986D-04 -0.14147902D-04  0.27172083D-03  0.25475555D-03
  0.18140113D-03 -0.27678986D-19  0.58226516D-03 -0.17011924D-02  0.35990439D-17
  0.43555169D-03  0.69149477D-03  0.12067505D-19  0.25857290D-04 -0.40367080D-04
 -0.97038653D-04 -0.12946595D-03  0.22650460D-03  0.20732281D-17 -0.28235001D-18
 -0.41306133D-04 -0.93389712D-04 -0.16195475D-04  0.10958519D-03 -0.30236862D-17
 -0.70108238D-19 -0.13012190D-02 -0.70387532D-04  0.16970591D-03 -0.99318383D-04
 -0.16819204D-17 -0.15001093D-17 -0.91620639D-04 -0.61253798D-18 -0.35077105D-04
  0.55587856D-04  0.25993640D-17  0.24668615D-04  0.14160950D-03 -0.76175003D-18
  0.80562700D-04 -0.30837307D-03  0.95506659D-18 -0.20202429D-18 -0.16418316D-03
  0.94345886D-04  0.21381897D-18  0.55156517D-04 -0.11465078D-03  0.39225391D-18
  0.43739297D-03 -0.16838688D-03  0.27689724D-18 -0.52623035D-04 -0.98101303D-04
 -0.16580848D-03 -0.24926446D-03 -0.30625019D-03 -0.25867725D-03 -0.97563540D-04
  0.48284740D-06  0.42866063D-04  0.80258795D-04  0.13664747D-03  0.21137285D-03
  0.27837061D-03  0.28924489D-03  0.18380215D-03 -0.12317992D-03 -0.35457902D-03
 -0.89891903D-03  0.95108371D-03  0.11138568D-17  0.10443116D-17  0.74361206D-18
  0.21192148D-04  0.19868986D-04  0.14147902D-04  0.27172083D-03  0.25475555D-03
  0.18140113D-03 -0.17858116D-17 -0.58226516D-03 -0.17011924D-02 -0.65558449D-17
 -0.43555169D-03  0.69149477D-03 -0.13372353D-18 -0.25857290D-04 -0.40367080D-04
 -0.97038653D-04 -0.12946595D-03  0.22650460D-03 -0.80571308D-18 -0.24495549D-17
  0.41306133D-04 -0.93389712D-04 -0.16195475D-04  0.10958519D-03  0.29999879D-19
  0.61027539D-18  0.13012190D-02 -0.70387532D-04  0.16970591D-03 -0.99318383D-04
 -0.81827292D-18  0.15576202D-17  0.91620639D-04  0.86178949D-19  0.35077105D-04
  0.55587856D-04 -0.11639903D-17 -0.24668615D-04  0.14160950D-03  0.90545341D-18
 -0.80562700D-04 -0.30837307D-03  0.13106638D-18  0.47162213D-18  0.16418316D-03
  0.94345886D-04 -0.88756160D-18 -0.55156517D-04 -0.11465078D-03 -0.52730480D-18
 -0.43739297D-03 -0.16838688D-03  0.63443341D-18  0.29117469D+00  0.54256116D+00
  0.91760693D+00  0.13818652D+01  0.17108388D+01  0.14558466D+01  0.55397648D+00
 -0.25945082D-02 -0.57972102D-03 -0.10869823D-02 -0.18492804D-02 -0.28717372D-02
 -0.38109622D-02 -0.40162311D-02 -0.24903195D-02  0.16565615D-02  0.29264101D-01
  0.15676488D-02  0.11279964D-03  0.15299805D-16  0.14695280D-16  0.10305344D-16
 -0.36034018D-02 -0.34610243D-02 -0.24271092D-02  0.51163045D-02  0.49141493D-02
  0.34461407D-02 -0.20794567D-17 -0.72031541D-03 -0.37781861D-03  0.24173305D-17
  0.59680388D-03 -0.38151021D-03  0.22240888D-18 -0.29932395D-04  0.17104502D-04
 -0.19339530D-02  0.20715525D-02 -0.13759949D-03  0.71292438D-18 -0.35893233D-18
  0.15180352D-02  0.66214045D-03 -0.55468052D-03 -0.10745993D-03  0.83219275D-18
  0.12128437D-17 -0.60739743D-03  0.12579547D-03 -0.13055424D-03  0.47587751D-05
  0.35611839D-18  0.96144155D-18 -0.10427652D-03 -0.41153334D-18  0.10873758D-03
  0.40219700D-04  0.57957156D-18 -0.18214648D-03  0.12091383D-03  0.65502845D-18
 -0.14406627D-03 -0.24157293D-03  0.18387344D-17 -0.17274725D-18  0.26770647D-03
 -0.24328213D-04 -0.17959909D-18 -0.26207182D-03  0.13871626D-03  0.69784084D-18
 -0.54104758D-03 -0.65731620D-04 -0.47775569D-19  0.29117469D+00  0.54256116D+00
  0.91760693D+00  0.13818652D+01  0.17108388D+01  0.14558466D+01  0.55397648D+00
 -0.25945082D-02 -0.57972102D-03 -0.10869823D-02 -0.18492804D-02 -0.28717372D-02
 -0.38109622D-02 -0.40162311D-02 -0.24903195D-02  0.16565615D-02  0.29264101D-01
  0.15676488D-02  0.11279963D-03  0.71658628D-17  0.68827255D-17  0.48266422D-17
  0.36034018D-02  0.34610243D-02  0.24271092D-02  0.51163045D-02  0.49141493D-02
  0.34461407D-02 -0.63766814D-18  0.72031541D-03 -0.37781861D-03 -0.37792633D-17
 -0.59680387D-03 -0.38151021D-03 -0.33523836D-18  0.29932395D-04  0.17104502D-04
 -0.19339530D-02  0.20715525D-02 -0.13759949D-03 -0.27711181D-18  0.19425333D-17
 -0.15180352D-02  0.66214045D-03 -0.55468052D-03 -0.10745993D-03  0.29217585D-17
 -0.16995077D-17  0.60739743D-03  0.12579547D-03 -0.13055424D-03  0.47587749D-05
  0.68349666D-18 -0.13603848D-17  0.10427652D-03  0.22400057D-18 -0.10873758D-03
  0.40219700D-04  0.13352210D-18  0.18214648D-03  0.12091383D-03 -0.80552382D-18
  0.14406627D-03 -0.24157293D-03  0.10591294D-18  0.16600945D-19 -0.26770647D-03
 -0.24328213D-04  0.16124537D-18  0.26207182D-03  0.13871626D-03 -0.21104820D-18
  0.54104758D-03 -0.65731620D-04  0.10171607D-17
MO    2     MO 0.0        OCC NO =    2.0000000  ORB. ENERGY =  -14.828879
 -0.60306328D-04 -0.10876495D-03 -0.16037385D-03 -0.12082022D-03  0.41533017D-03
  0.10599968D-04 -0.11309610D-15  0.17612595D-03 -0.18594094D-03  0.86605344D-16
 -0.10073306D-02 -0.30494339D-03 -0.23049806D-16  0.27168694D-04 -0.18037640D-03
 -0.27575659D-03  0.21196861D-03  0.63787985D-04 -0.79622423D-16 -0.47629382D-17
  0.80933033D-03 -0.10298137D-03  0.81262471D-04  0.21718902D-04  0.28677546D-16
  0.89130261D-19  0.89629619D-04  0.60306328D-04  0.10876495D-03  0.16037385D-03
  0.12082022D-03 -0.41533017D-03 -0.10599968D-04 -0.11487112D-18  0.17612595D-03
  0.18594094D-03  0.47189519D-18 -0.10073306D-02  0.30494339D-03  0.15430070D-18
  0.27168694D-04  0.18037640D-03  0.27575659D-03 -0.21196861D-03 -0.63787985D-04
  0.84845128D-18 -0.44059395D-18  0.80933033D-03  0.10298137D-03 -0.81262471D-04
 -0.21718902D-04 -0.79288381D-18  0.29269709D-18  0.89629619D-04  0.25238717D-04
  0.45519066D-04  0.67117836D-04 -0.32674039D-02 -0.29766025D-02  0.20207524D-04
 -0.36424137D-18  0.76287482D-04 -0.15096071D-04  0.22681680D-17  0.92512338D-03
  0.20604267D-02  0.26531256D-17  0.26254931D-03  0.23463775D-03  0.25331485D-03
  0.59750473D-04 -0.31306533D-03 -0.18859445D-17 -0.10446624D-17 -0.36181803D-03
  0.81670683D-04  0.24306336D-05 -0.84101317D-04  0.23445452D-18 -0.13482615D-17
 -0.83672386D-04 -0.25238717D-04 -0.45519066D-04 -0.67117836D-04  0.32674039D-02
  0.29766025D-02 -0.20207524D-04 -0.21721548D-17  0.76287482D-04  0.15096071D-04
  0.46671083D-17  0.92512338D-03 -0.20604267D-02 -0.10437450D-17  0.26254931D-03
 -0.23463775D-03 -0.25331485D-03 -0.59750473D-04  0.31306533D-03  0.38176893D-17
 -0.21310688D-17 -0.36181803D-03 -0.81670683D-04 -0.24306336D-05  0.84101317D-04
 -0.76985485D-18 -0.43275655D-18 -0.83672386D-04 -0.19116406D-03 -0.35637328D-03
 -0.60233362D-03 -0.90550472D-03 -0.11125172D-02 -0.93969861D-03 -0.35441974D-03
  0.17540431D-05  0.14729385D-03  0.27578056D-03  0.46954000D-03  0.72630698D-03
  0.95652074D-03  0.99388632D-03  0.63157014D-03 -0.42326362D-03 -0.48300073D-03
 -0.34465236D-02  0.95224292D-03 -0.97710351D-17 -0.91609665D-17 -0.65231539D-17
  0.25049789D-03  0.23485769D-03  0.16723267D-03  0.26373499D-03  0.24726832D-03
  0.17606977D-03 -0.35952986D-17 -0.70017845D-03  0.22008768D-02 -0.88181786D-18
  0.20821451D-02 -0.40141802D-03 -0.57663260D-20 -0.30251845D-04  0.45024045D-04
  0.16010549D-03  0.22303395D-03 -0.38313944D-03  0.14795948D-16  0.17177920D-17
 -0.72820513D-03 -0.84087087D-04 -0.93749579D-03  0.10215829D-02 -0.91639552D-18
 -0.23610551D-17  0.10108145D-02  0.20643194D-04 -0.22293377D-03  0.20229058D-03
  0.52726720D-18  0.28050236D-18  0.36565966D-03 -0.11045159D-17  0.19479446D-03
 -0.13798833D-03  0.30643510D-17  0.10742873D-03  0.16706341D-03  0.24919661D-18
 -0.69181212D-03  0.24690159D-03  0.18657897D-17 -0.76168288D-20  0.35324962D-03
  0.49692678D-04  0.20465345D-17 -0.39304746D-04  0.12088202D-03 -0.20236840D-17
 -0.10204441D-02 -0.26996006D-03  0.63992319D-18  0.19116406D-03  0.35637328D-03
  0.60233362D-03  0.90550472D-03  0.11125172D-02  0.93969861D-03  0.35441974D-03
 -0.17540431D-05 -0.14729385D-03 -0.27578056D-03 -0.46954000D-03 -0.72630698D-03
 -0.95652074D-03 -0.99388632D-03 -0.63157014D-03  0.42326362D-03  0.48300073D-03
  0.34465236D-02 -0.95224292D-03 -0.37959487D-18 -0.35589432D-18 -0.25341796D-18
  0.25049789D-03  0.23485769D-03  0.16723267D-03 -0.26373499D-03 -0.24726832D-03
 -0.17606977D-03  0.16149637D-17 -0.70017845D-03 -0.22008768D-02  0.10962703D-17
  0.20821451D-02  0.40141802D-03  0.91417128D-19 -0.30251845D-04 -0.45024045D-04
 -0.16010549D-03 -0.22303395D-03  0.38313944D-03  0.31979577D-17 -0.76741505D-18
 -0.72820513D-03  0.84087087D-04  0.93749579D-03 -0.10215829D-02 -0.21319855D-18
 -0.16667437D-17  0.10108145D-02 -0.20643194D-04  0.22293377D-03 -0.20229058D-03
  0.53905496D-18 -0.23465881D-19  0.36565966D-03 -0.69043882D-18  0.19479446D-03
  0.13798833D-03  0.11455550D-17  0.10742873D-03 -0.16706341D-03  0.92576151D-18
 -0.69181212D-03 -0.24690159D-03 -0.90221511D-18  0.17156019D-18  0.35324962D-03
 -0.49692678D-04 -0.58739191D-18 -0.39304746D-04 -0.12088202D-03  0.72711341D-19
 -0.10204441D-02  0.26996006D-03 -0.79519530D-19 -0.33140453D-03 -0.61781339D-03
 -0.10442135D-02 -0.15697949D-02 -0.19286744D-02 -0.16290738D-02 -0.61442671D-03
  0.30408321D-05  0.24644107D-03  0.46141544D-03  0.78559926D-03  0.12152026D-02
  0.16003791D-02  0.16628964D-02  0.10566960D-02 -0.70817308D-03 -0.88943112D-03
  0.40256012D-02 -0.42505624D-03 -0.12009657D-17 -0.11259817D-17 -0.80176604D-18
  0.21822426D-03  0.20459911D-03  0.14568676D-03  0.58683642D-04  0.55019644D-04
  0.39177264D-04  0.98560242D-18 -0.55654731D-04  0.15622159D-02 -0.13493411D-18
  0.22853375D-03 -0.15904817D-02 -0.16717710D-18 -0.40325951D-04  0.11446490D-04
 -0.15817421D-04  0.27605147D-03 -0.26023405D-03 -0.38027202D-17  0.20496214D-17
 -0.18944921D-03 -0.54703748D-03 -0.10749807D-03  0.65453555D-03  0.30391385D-17
 -0.44340404D-17  0.39034220D-02 -0.45871160D-04 -0.21615429D-03  0.26202545D-03
 -0.15654636D-17 -0.93728580D-18  0.50261683D-03  0.36609969D-18 -0.14609933D-03
  0.35304465D-04 -0.12065921D-17  0.24899869D-03  0.55704268D-04  0.10829304D-18
  0.18929930D-03 -0.16161766D-03 -0.71388936D-18 -0.18367407D-18  0.20444465D-03
  0.48546028D-04 -0.62097146D-19 -0.13362449D-03 -0.35454261D-04  0.61311936D-18
 -0.47970945D-03 -0.11018382D-03 -0.18914420D-17  0.33140453D-03  0.61781339D-03
  0.10442135D-02  0.15697949D-02  0.19286744D-02  0.16290738D-02  0.61442671D-03
 -0.30408321D-05 -0.24644107D-03 -0.46141544D-03 -0.78559926D-03 -0.12152026D-02
 -0.16003791D-02 -0.16628964D-02 -0.10566960D-02  0.70817308D-03  0.88943112D-03
 -0.40256012D-02  0.42505624D-03 -0.43402814D-18 -0.40692897D-18 -0.28975767D-18
  0.21822426D-03  0.20459911D-03  0.14568676D-03 -0.58683642D-04 -0.55019644D-04
 -0.39177264D-04  0.30029846D-18 -0.55654731D-04 -0.15622159D-02 -0.25946309D-17
  0.22853375D-03  0.15904817D-02 -0.82961789D-20 -0.40325951D-04 -0.11446490D-04
  0.15817421D-04 -0.27605147D-03  0.26023405D-03 -0.55705455D-19 -0.16114118D-17
 -0.18944921D-03  0.54703748D-03  0.10749807D-03 -0.65453555D-03  0.15164390D-17
 -0.18140968D-17  0.39034220D-02  0.45871160D-04  0.21615429D-03 -0.26202545D-03
 -0.40516432D-18  0.80545092D-18  0.50261683D-03 -0.34258024D-18 -0.14609933D-03