 Molden2AIM, Version 4.0.0 (06/02/2016)           Time: Mon Jul  2 18:31:34 2018
GAUSSIAN             25 MOL ORBITALS    741 PRIMITIVES       15 NUCLEI
  C    1    (CENTRE  1)  -0.01071664  1.73100236  0.00000000  CHARGE =  6.0
  C    2    (CENTRE  2)  -0.01636692  0.37236108  2.26870503  CHARGE =  6.0
  C    3    (CENTRE  3)  -0.01636692  0.37236108 -2.26870503  CHARGE =  6.0
  C    4    (CENTRE  4)  -0.01313738 -2.26205886  2.27486554  CHARGE =  6.0
  C    5    (CENTRE  5)  -0.01313738 -2.26205886 -2.27486554  CHARGE =  6.0
  C    6    (CENTRE  6)  -0.00926155 -3.59171174  0.00000000  CHARGE =  6.0
  C    7    (CENTRE  7)   0.05008530  4.57078829  0.00000000  CHARGE =  6.0
  H    8    (CENTRE  8)   2.00992215  5.26698229  0.00000000  CHARGE =  1.0
  H    9    (CENTRE  9)  -0.88460348  5.34771895 -1.68118540  CHARGE =  1.0
  H   10    (CENTRE 10)  -0.88460348  5.34771895  1.68118540  CHARGE =  1.0
  H   11    (CENTRE 11)  -0.02118194 -3.28181177  4.06677944  CHARGE =  1.0
  H   12    (CENTRE 12)  -0.02118194 -3.28181177 -4.06677944  CHARGE =  1.0
  H   13    (CENTRE 13)  -0.01193551 -5.65263193  0.00000000  CHARGE =  1.0
  H   14    (CENTRE 14)  -0.02638247  1.39467835  4.06121797  CHARGE =  1.0
  H   15    (CENTRE 15)  -0.02638247  1.39467835 -4.06121797  CHARGE =  1.0
CENTRE ASSIGNMENTS    1  1  1  1  1  1  1  1  1  1  1  1  1  1  1  1  1  1  1  1
CENTRE ASSIGNMENTS    1  1  1  1  1  1  1  1  1  1  1  1  1  1  1  1  1  1  1  1
CENTRE ASSIGNMENTS    1  1  1  1  1  1  1  1  1  1  1  1  1  1  1  1  1  1  1  1
CENTRE ASSIGNMENTS    1  1  1  1  1  1  1  1  1  1  1  1  1  1  1  2  2  2  2  2
CENTRE ASSIGNMENTS    2  2  2  2  2  2  2  2  2  2  2  2  2  2  2  2  2  2  2  2
CENTRE ASSIGNMENTS    2  2  2  2  2  2  2  2  2  2  2  2  2  2  2  2  2  2  2  2
CENTRE ASSIGNMENTS    2  2  2  2  2  2  2  2  2  2  2  2  2  2  2  2  2  2  2  2
CENTRE ASSIGNMENTS    2  2  2  2  2  2  2  2  2  2  3  3  3  3  3  3  3  3  3  3
CENTRE ASSIGNMENTS    3  3  3  3  3  3  3  3  3  3  3  3  3  3  3  3  3  3  3  3
CENTRE ASSIGNMENTS    3  3  3  3  3  3  3  3  3  3  3  3  3  3  3  3  3  3  3  3
CENTRE ASSIGNMENTS    3  3  3  3  3  3  3  3  3  3  3  3  3  3  3  3  3  3  3  3
CENTRE ASSIGNMENTS    3  3  3  3  3  4  4  4  4  4  4  4  4  4  4  4  4  4  4  4
CENTRE ASSIGNMENTS    4  4  4  4  4  4  4  4  4  4  4  4  4  4  4  4  4  4  4  4
CENTRE ASSIGNMENTS    4  4  4  4  4  4  4  4  4  4  4  4  4  4  4  4  4  4  4  4
CENTRE ASSIGNMENTS    4  4  4  4  4  4  4  4  4  4  4  4  4  4  4  4  4  4  4  4
CENTRE ASSIGNMENTS    5  5  5  5  5  5  5  5  5  5  5  5  5  5  5  5  5  5  5  5
CENTRE ASSIGNMENTS    5  5  5  5  5  5  5  5  5  5  5  5  5  5  5  5  5  5  5  5
CENTRE ASSIGNMENTS    5  5  5  5  5  5  5  5  5  5  5  5  5  5  5  5  5  5  5  5
CENTRE ASSIGNMENTS    5  5  5  5  5  5  5  5  5  5  5  5  5  5  5  6  6  6  6  6
CENTRE ASSIGNMENTS    6  6  6  6  6  6  6  6  6  6  6  6  6  6  6  6  6  6  6  6
CENTRE ASSIGNMENTS    6  6  6  6  6  6  6  6  6  6  6  6  6  6  6  6  6  6  6  6
CENTRE ASSIGNMENTS    6  6  6  6  6  6  6  6  6  6  6  6  6  6  6  6  6  6  6  6
CENTRE ASSIGNMENTS    6  6  6  6  6  6  6  6  6  6  7  7  7  7  7  7  7  7  7  7
CENTRE ASSIGNMENTS    7  7  7  7  7  7  7  7  7  7  7  7  7  7  7  7  7  7  7  7
CENTRE ASSIGNMENTS    7  7  7  7  7  7  7  7  7  7  7  7  7  7  7  7  7  7  7  7
CENTRE ASSIGNMENTS    7  7  7  7  7  7  7  7  7  7  7  7  7  7  7  7  7  7  7  7
CENTRE ASSIGNMENTS    7  7  7  7  7  8  8  8  8  8  8  8  8  8  8  8  8  8  8  8
CENTRE ASSIGNMENTS    8  8  8  8  8  8  8  8  8  8  8  8  9  9  9  9  9  9  9  9
CENTRE ASSIGNMENTS    9  9  9  9  9  9  9  9  9  9  9  9  9  9  9  9  9  9  9 10
CENTRE ASSIGNMENTS   10 10 10 10 10 10 10 10 10 10 10 10 10 10 10 10 10 10 10 10
CENTRE ASSIGNMENTS   10 10 10 10 10 10 11 11 11 11 11 11 11 11 11 11 11 11 11 11
CENTRE ASSIGNMENTS   11 11 11 11 11 11 11 11 11 11 11 11 11 12 12 12 12 12 12 12
CENTRE ASSIGNMENTS   12 12 12 12 12 12 12 12 12 12 12 12 12 12 12 12 12 12 12 12
CENTRE ASSIGNMENTS   13 13 13 13 13 13 13 13 13 13 13 13 13 13 13 13 13 13 13 13
CENTRE ASSIGNMENTS   13 13 13 13 13 13 13 14 14 14 14 14 14 14 14 14 14 14 14 14
CENTRE ASSIGNMENTS   14 14 14 14 14 14 14 14 14 14 14 14 14 14 15 15 15 15 15 15
CENTRE ASSIGNMENTS   15 15 15 15 15 15 15 15 15 15 15 15 15 15 15 15 15 15 15 15
CENTRE ASSIGNMENTS   15
TYPE ASSIGNMENTS      1  1  1  1  1  1  1  1  1  1  1  1  1  1  1  1  1  1  1  2
TYPE ASSIGNMENTS      2  2  3  3  3  4  4  4  2  3  4  2  3  4  2  3  4  5  6  7
TYPE ASSIGNMENTS      8  9 10  5  6  7  8  9 10  5  6  7  8  9 10 11 12 13 17 14
TYPE ASSIGNMENTS     15 18 19 16 20 11 12 13 17 14 15 18 19 16 20  1  1  1  1  1
TYPE ASSIGNMENTS      1  1  1  1  1  1  1  1  1  1  1  1  1  1  2  2  2  3  3  3
TYPE ASSIGNMENTS      4  4  4  2  3  4  2  3  4  2  3  4  5  6  7  8  9 10  5  6
TYPE ASSIGNMENTS      7  8  9 10  5  6  7  8  9 10 11 12 13 17 14 15 18 19 16 20
TYPE ASSIGNMENTS     11 12 13 17 14 15 18 19 16 20  1  1  1  1  1  1  1  1  1  1
TYPE ASSIGNMENTS      1  1  1  1  1  1  1  1  1  2  2  2  3  3  3  4  4  4  2  3
TYPE ASSIGNMENTS      4  2  3  4  2  3  4  5  6  7  8  9 10  5  6  7  8  9 10  5
TYPE ASSIGNMENTS      6  7  8  9 10 11 12 13 17 14 15 18 19 16 20 11 12 13 17 14
TYPE ASSIGNMENTS     15 18 19 16 20  1  1  1  1  1  1  1  1  1  1  1  1  1  1  1
TYPE ASSIGNMENTS      1  1  1  1  2  2  2  3  3  3  4  4  4  2  3  4  2  3  4  2
TYPE ASSIGNMENTS      3  4  5  6  7  8  9 10  5  6  7  8  9 10  5  6  7  8  9 10
TYPE ASSIGNMENTS     11 12 13 17 14 15 18 19 16 20 11 12 13 17 14 15 18 19 16 20
TYPE ASSIGNMENTS      1  1  1  1  1  1  1  1  1  1  1  1  1  1  1  1  1  1  1  2
TYPE ASSIGNMENTS      2  2  3  3  3  4  4  4  2  3  4  2  3  4  2  3  4  5  6  7
TYPE ASSIGNMENTS      8  9 10  5  6  7  8  9 10  5  6  7  8  9 10 11 12 13 17 14
TYPE ASSIGNMENTS     15 18 19 16 20 11 12 13 17 14 15 18 19 16 20  1  1  1  1  1
TYPE ASSIGNMENTS      1  1  1  1  1  1  1  1  1  1  1  1  1  1  2  2  2  3  3  3
TYPE ASSIGNMENTS      4  4  4  2  3  4  2  3  4  2  3  4  5  6  7  8  9 10  5  6
TYPE ASSIGNMENTS      7  8  9 10  5  6  7  8  9 10 11 12 13 17 14 15 18 19 16 20
TYPE ASSIGNMENTS     11 12 13 17 14 15 18 19 16 20  1  1  1  1  1  1  1  1  1  1
TYPE ASSIGNMENTS      1  1  1  1  1  1  1  1  1  2  2  2  3  3  3  4  4  4  2  3
TYPE ASSIGNMENTS      4  2  3  4  2  3  4  5  6  7  8  9 10  5  6  7  8  9 10  5
TYPE ASSIGNMENTS      6  7  8  9 10 11 12 13 17 14 15 18 19 16 20 11 12 13 17 14
TYPE ASSIGNMENTS     15 18 19 16 20  1  1  1  1  1  1  2  3  4  2  3  4  2  3  4
TYPE ASSIGNMENTS      5  6  7  8  9 10  5  6  7  8  9 10  1  1  1  1  1  1  2  3
TYPE ASSIGNMENTS      4  2  3  4  2  3  4  5  6  7  8  9 10  5  6  7  8  9 10  1
TYPE ASSIGNMENTS      1  1  1  1  1  2  3  4  2  3  4  2  3  4  5  6  7  8  9 10
TYPE ASSIGNMENTS      5  6  7  8  9 10  1  1  1  1  1  1  2  3  4  2  3  4  2  3
TYPE ASSIGNMENTS      4  5  6  7  8  9 10  5  6  7  8  9 10  1  1  1  1  1  1  2
TYPE ASSIGNMENTS      3  4  2  3  4  2  3  4  5  6  7  8  9 10  5  6  7  8  9 10
TYPE ASSIGNMENTS      1  1  1  1  1  1  2  3  4  2  3  4  2  3  4  5  6  7  8  9
TYPE ASSIGNMENTS     10  5  6  7  8  9 10  1  1  1  1  1  1  2  3  4  2  3  4  2
TYPE ASSIGNMENTS      3  4  5  6  7  8  9 10  5  6  7  8  9 10  1  1  1  1  1  1
TYPE ASSIGNMENTS      2  3  4  2  3  4  2  3  4  5  6  7  8  9 10  5  6  7  8  9
TYPE ASSIGNMENTS     10
EXPONENTS  0.8236000D+04 0.1235000D+04 0.2808000D+03 0.7927000D+02 0.2559000D+02
EXPONENTS  0.8997000D+01 0.3319000D+01 0.3643000D+00 0.8236000D+04 0.1235000D+04
EXPONENTS  0.2808000D+03 0.7927000D+02 0.2559000D+02 0.8997000D+01 0.3319000D+01
EXPONENTS  0.3643000D+00 0.9059000D+00 0.1285000D+00 0.4402000D-01 0.1871000D+02
EXPONENTS  0.4133000D+01 0.1200000D+01 0.1871000D+02 0.4133000D+01 0.1200000D+01
EXPONENTS  0.1871000D+02 0.4133000D+01 0.1200000D+01 0.3827000D+00 0.3827000D+00
EXPONENTS  0.3827000D+00 0.1209000D+00 0.1209000D+00 0.1209000D+00 0.3569000D-01
EXPONENTS  0.3569000D-01 0.3569000D-01 0.1097000D+01 0.1097000D+01 0.1097000D+01
EXPONENTS  0.1097000D+01 0.1097000D+01 0.1097000D+01 0.3180000D+00 0.3180000D+00
EXPONENTS  0.3180000D+00 0.3180000D+00 0.3180000D+00 0.3180000D+00 0.1000000D+00
EXPONENTS  0.1000000D+00 0.1000000D+00 0.1000000D+00 0.1000000D+00 0.1000000D+00
EXPONENTS  0.7610000D+00 0.7610000D+00 0.7610000D+00 0.7610000D+00 0.7610000D+00
EXPONENTS  0.7610000D+00 0.7610000D+00 0.7610000D+00 0.7610000D+00 0.7610000D+00
EXPONENTS  0.2680000D+00 0.2680000D+00 0.2680000D+00 0.2680000D+00 0.2680000D+00
EXPONENTS  0.2680000D+00 0.2680000D+00 0.2680000D+00 0.2680000D+00 0.2680000D+00
EXPONENTS  0.8236000D+04 0.1235000D+04 0.2808000D+03 0.7927000D+02 0.2559000D+02
EXPONENTS  0.8997000D+01 0.3319000D+01 0.3643000D+00 0.8236000D+04 0.1235000D+04
EXPONENTS  0.2808000D+03 0.7927000D+02 0.2559000D+02 0.8997000D+01 0.3319000D+01
EXPONENTS  0.3643000D+00 0.9059000D+00 0.1285000D+00 0.4402000D-01 0.1871000D+02
EXPONENTS  0.4133000D+01 0.1200000D+01 0.1871000D+02 0.4133000D+01 0.1200000D+01
EXPONENTS  0.1871000D+02 0.4133000D+01 0.1200000D+01 0.3827000D+00 0.3827000D+00
EXPONENTS  0.3827000D+00 0.1209000D+00 0.1209000D+00 0.1209000D+00 0.3569000D-01
EXPONENTS  0.3569000D-01 0.3569000D-01 0.1097000D+01 0.1097000D+01 0.1097000D+01
EXPONENTS  0.1097000D+01 0.1097000D+01 0.1097000D+01 0.3180000D+00 0.3180000D+00
EXPONENTS  0.3180000D+00 0.3180000D+00 0.3180000D+00 0.3180000D+00 0.1000000D+00
EXPONENTS  0.1000000D+00 0.1000000D+00 0.1000000D+00 0.1000000D+00 0.1000000D+00
EXPONENTS  0.7610000D+00 0.7610000D+00 0.7610000D+00 0.7610000D+00 0.7610000D+00
EXPONENTS  0.7610000D+00 0.7610000D+00 0.7610000D+00 0.7610000D+00 0.7610000D+00
EXPONENTS  0.2680000D+00 0.2680000D+00 0.2680000D+00 0.2680000D+00 0.2680000D+00
EXPONENTS  0.2680000D+00 0.2680000D+00 0.2680000D+00 0.2680000D+00 0.2680000D+00
EXPONENTS  0.8236000D+04 0.1235000D+04 0.2808000D+03 0.7927000D+02 0.2559000D+02
EXPONENTS  0.8997000D+01 0.3319000D+01 0.3643000D+00 0.8236000D+04 0.1235000D+04
EXPONENTS  0.2808000D+03 0.7927000D+02 0.2559000D+02 0.8997000D+01 0.3319000D+01
EXPONENTS  0.3643000D+00 0.9059000D+00 0.1285000D+00 0.4402000D-01 0.1871000D+02
EXPONENTS  0.4133000D+01 0.1200000D+01 0.1871000D+02 0.4133000D+01 0.1200000D+01
EXPONENTS  0.1871000D+02 0.4133000D+01 0.1200000D+01 0.3827000D+00 0.3827000D+00
EXPONENTS  0.3827000D+00 0.1209000D+00 0.1209000D+00 0.1209000D+00 0.3569000D-01
EXPONENTS  0.3569000D-01 0.3569000D-01 0.1097000D+01 0.1097000D+01 0.1097000D+01
EXPONENTS  0.1097000D+01 0.1097000D+01 0.1097000D+01 0.3180000D+00 0.3180000D+00
EXPONENTS  0.3180000D+00 0.3180000D+00 0.3180000D+00 0.3180000D+00 0.1000000D+00
EXPONENTS  0.1000000D+00 0.1000000D+00 0.1000000D+00 0.1000000D+00 0.1000000D+00
EXPONENTS  0.7610000D+00 0.7610000D+00 0.7610000D+00 0.7610000D+00 0.7610000D+00
EXPONENTS  0.7610000D+00 0.7610000D+00 0.7610000D+00 0.7610000D+00 0.7610000D+00
EXPONENTS  0.2680000D+00 0.2680000D+00 0.2680000D+00 0.2680000D+00 0.2680000D+00
EXPONENTS  0.2680000D+00 0.2680000D+00 0.2680000D+00 0.2680000D+00 0.2680000D+00
EXPONENTS  0.8236000D+04 0.1235000D+04 0.2808000D+03 0.7927000D+02 0.2559000D+02
EXPONENTS  0.8997000D+01 0.3319000D+01 0.3643000D+00 0.8236000D+04 0.1235000D+04
EXPONENTS  0.2808000D+03 0.7927000D+02 0.2559000D+02 0.8997000D+01 0.3319000D+01
EXPONENTS  0.3643000D+00 0.9059000D+00 0.1285000D+00 0.4402000D-01 0.1871000D+02
EXPONENTS  0.4133000D+01 0.1200000D+01 0.1871000D+02 0.4133000D+01 0.1200000D+01
EXPONENTS  0.1871000D+02 0.4133000D+01 0.1200000D+01 0.3827000D+00 0.3827000D+00
EXPONENTS  0.3827000D+00 0.1209000D+00 0.1209000D+00 0.1209000D+00 0.3569000D-01
EXPONENTS  0.3569000D-01 0.3569000D-01 0.1097000D+01 0.1097000D+01 0.1097000D+01
EXPONENTS  0.1097000D+01 0.1097000D+01 0.1097000D+01 0.3180000D+00 0.3180000D+00
EXPONENTS  0.3180000D+00 0.3180000D+00 0.3180000D+00 0.3180000D+00 0.1000000D+00
EXPONENTS  0.1000000D+00 0.1000000D+00 0.1000000D+00 0.1000000D+00 0.1000000D+00
EXPONENTS  0.7610000D+00 0.7610000D+00 0.7610000D+00 0.7610000D+00 0.7610000D+00
EXPONENTS  0.7610000D+00 0.7610000D+00 0.7610000D+00 0.7610000D+00 0.7610000D+00
EXPONENTS  0.2680000D+00 0.2680000D+00 0.2680000D+00 0.2680000D+00 0.2680000D+00
EXPONENTS  0.2680000D+00 0.2680000D+00 0.2680000D+00 0.2680000D+00 0.2680000D+00
EXPONENTS  0.8236000D+04 0.1235000D+04 0.2808000D+03 0.7927000D+02 0.2559000D+02
EXPONENTS  0.8997000D+01 0.3319000D+01 0.3643000D+00 0.8236000D+04 0.1235000D+04
EXPONENTS  0.2808000D+03 0.7927000D+02 0.2559000D+02 0.8997000D+01 0.3319000D+01
EXPONENTS  0.3643000D+00 0.9059000D+00 0.1285000D+00 0.4402000D-01 0.1871000D+02
EXPONENTS  0.4133000D+01 0.1200000D+01 0.1871000D+02 0.4133000D+01 0.1200000D+01
EXPONENTS  0.1871000D+02 0.4133000D+01 0.1200000D+01 0.3827000D+00 0.3827000D+00
EXPONENTS  0.3827000D+00 0.1209000D+00 0.1209000D+00 0.1209000D+00 0.3569000D-01
EXPONENTS  0.3569000D-01 0.3569000D-01 0.1097000D+01 0.1097000D+01 0.1097000D+01
EXPONENTS  0.1097000D+01 0.1097000D+01 0.1097000D+01 0.3180000D+00 0.3180000D+00
EXPONENTS  0.3180000D+00 0.3180000D+00 0.3180000D+00 0.3180000D+00 0.1000000D+00
EXPONENTS  0.1000000D+00 0.1000000D+00 0.1000000D+00 0.1000000D+00 0.1000000D+00
EXPONENTS  0.7610000D+00 0.7610000D+00 0.7610000D+00 0.7610000D+00 0.7610000D+00
EXPONENTS  0.7610000D+00 0.7610000D+00 0.7610000D+00 0.7610000D+00 0.7610000D+00
EXPONENTS  0.2680000D+00 0.2680000D+00 0.2680000D+00 0.2680000D+00 0.2680000D+00
EXPONENTS  0.2680000D+00 0.2680000D+00 0.2680000D+00 0.2680000D+00 0.2680000D+00
EXPONENTS  0.8236000D+04 0.1235000D+04 0.2808000D+03 0.7927000D+02 0.2559000D+02
EXPONENTS  0.8997000D+01 0.3319000D+01 0.3643000D+00 0.8236000D+04 0.1235000D+04
EXPONENTS  0.2808000D+03 0.7927000D+02 0.2559000D+02 0.8997000D+01 0.3319000D+01
EXPONENTS  0.3643000D+00 0.9059000D+00 0.1285000D+00 0.4402000D-01 0.1871000D+02
EXPONENTS  0.4133000D+01 0.1200000D+01 0.1871000D+02 0.4133000D+01 0.1200000D+01
EXPONENTS  0.1871000D+02 0.4133000D+01 0.1200000D+01 0.3827000D+00 0.3827000D+00
EXPONENTS  0.3827000D+00 0.1209000D+00 0.1209000D+00 0.1209000D+00 0.3569000D-01
EXPONENTS  0.3569000D-01 0.3569000D-01 0.1097000D+01 0.1097000D+01 0.1097000D+01
EXPONENTS  0.1097000D+01 0.1097000D+01 0.1097000D+01 0.3180000D+00 0.3180000D+00
EXPONENTS  0.3180000D+00 0.3180000D+00 0.3180000D+00 0.3180000D+00 0.1000000D+00
EXPONENTS  0.1000000D+00 0.1000000D+00 0.1000000D+00 0.1000000D+00 0.1000000D+00
EXPONENTS  0.7610000D+00 0.7610000D+00 0.7610000D+00 0.7610000D+00 0.7610000D+00
EXPONENTS  0.7610000D+00 0.7610000D+00 0.7610000D+00 0.7610000D+00 0.7610000D+00
EXPONENTS  0.2680000D+00 0.2680000D+00 0.2680000D+00 0.2680000D+00 0.2680000D+00
EXPONENTS  0.2680000D+00 0.2680000D+00 0.2680000D+00 0.2680000D+00 0.2680000D+00
EXPONENTS  0.8236000D+04 0.1235000D+04 0.2808000D+03 0.7927000D+02 0.2559000D+02
EXPONENTS  0.8997000D+01 0.3319000D+01 0.3643000D+00 0.8236000D+04 0.1235000D+04
EXPONENTS  0.2808000D+03 0.7927000D+02 0.2559000D+02 0.8997000D+01 0.3319000D+01
EXPONENTS  0.3643000D+00 0.9059000D+00 0.1285000D+00 0.4402000D-01 0.1871000D+02
EXPONENTS  0.4133000D+01 0.1200000D+01 0.1871000D+02 0.4133000D+01 0.1200000D+01
EXPONENTS  0.1871000D+02 0.4133000D+01 0.1200000D+01 0.3827000D+00 0.3827000D+00
EXPONENTS  0.3827000D+00 0.1209000D+00 0.1209000D+00 0.1209000D+00 0.3569000D-01
EXPONENTS  0.3569000D-01 0.3569000D-01 0.1097000D+01 0.1097000D+01 0.1097000D+01
EXPONENTS  0.1097000D+01 0.1097000D+01 0.1097000D+01 0.3180000D+00 0.3180000D+00
EXPONENTS  0.3180000D+00 0.3180000D+00 0.3180000D+00 0.3180000D+00 0.1000000D+00
EXPONENTS  0.1000000D+00 0.1000000D+00 0.1000000D+00 0.1000000D+00 0.1000000D+00
EXPONENTS  0.7610000D+00 0.7610000D+00 0.7610000D+00 0.7610000D+00 0.7610000D+00
EXPONENTS  0.7610000D+00 0.7610000D+00 0.7610000D+00 0.7610000D+00 0.7610000D+00
EXPONENTS  0.2680000D+00 0.2680000D+00 0.2680000D+00 0.2680000D+00 0.2680000D+00
EXPONENTS  0.2680000D+00 0.2680000D+00 0.2680000D+00 0.2680000D+00 0.2680000D+00
EXPONENTS  0.3387000D+02 0.5095000D+01 0.1159000D+01 0.3258000D+00 0.1027000D+00
EXPONENTS  0.2526000D-01 0.1407000D+01 0.1407000D+01 0.1407000D+01 0.3880000D+00
EXPONENTS  0.3880000D+00 0.3880000D+00 0.1020000D+00 0.1020000D+00 0.1020000D+00
EXPONENTS  0.1057000D+01 0.1057000D+01 0.1057000D+01 0.1057000D+01 0.1057000D+01
EXPONENTS  0.1057000D+01 0.2470000D+00 0.2470000D+00 0.2470000D+00 0.2470000D+00
EXPONENTS  0.2470000D+00 0.2470000D+00 0.3387000D+02 0.5095000D+01 0.1159000D+01
EXPONENTS  0.3258000D+00 0.1027000D+00 0.2526000D-01 0.1407000D+01 0.1407000D+01
EXPONENTS  0.1407000D+01 0.3880000D+00 0.3880000D+00 0.3880000D+00 0.1020000D+00
EXPONENTS  0.1020000D+00 0.1020000D+00 0.1057000D+01 0.1057000D+01 0.1057000D+01
EXPONENTS  0.1057000D+01 0.1057000D+01 0.1057000D+01 0.2470000D+00 0.2470000D+00
EXPONENTS  0.2470000D+00 0.2470000D+00 0.2470000D+00 0.2470000D+00 0.3387000D+02
EXPONENTS  0.5095000D+01 0.1159000D+01 0.3258000D+00 0.1027000D+00 0.2526000D-01
EXPONENTS  0.1407000D+01 0.1407000D+01 0.1407000D+01 0.3880000D+00 0.3880000D+00
EXPONENTS  0.3880000D+00 0.1020000D+00 0.1020000D+00 0.1020000D+00 0.1057000D+01
EXPONENTS  0.1057000D+01 0.1057000D+01 0.1057000D+01 0.1057000D+01 0.1057000D+01
EXPONENTS  0.2470000D+00 0.2470000D+00 0.2470000D+00 0.2470000D+00 0.2470000D+00
EXPONENTS  0.2470000D+00 0.3387000D+02 0.5095000D+01 0.1159000D+01 0.3258000D+00
EXPONENTS  0.1027000D+00 0.2526000D-01 0.1407000D+01 0.1407000D+01 0.1407000D+01
EXPONENTS  0.3880000D+00 0.3880000D+00 0.3880000D+00 0.1020000D+00 0.1020000D+00
EXPONENTS  0.1020000D+00 0.1057000D+01 0.1057000D+01 0.1057000D+01 0.1057000D+01
EXPONENTS  0.1057000D+01 0.1057000D+01 0.2470000D+00 0.2470000D+00 0.2470000D+00
EXPONENTS  0.2470000D+00 0.2470000D+00 0.2470000D+00 0.3387000D+02 0.5095000D+01
EXPONENTS  0.1159000D+01 0.3258000D+00 0.1027000D+00 0.2526000D-01 0.1407000D+01
EXPONENTS  0.1407000D+01 0.1407000D+01 0.3880000D+00 0.3880000D+00 0.3880000D+00
EXPONENTS  0.1020000D+00 0.1020000D+00 0.1020000D+00 0.1057000D+01 0.1057000D+01
EXPONENTS  0.1057000D+01 0.1057000D+01 0.1057000D+01 0.1057000D+01 0.2470000D+00
EXPONENTS  0.2470000D+00 0.2470000D+00 0.2470000D+00 0.2470000D+00 0.2470000D+00
EXPONENTS  0.3387000D+02 0.5095000D+01 0.1159000D+01 0.3258000D+00 0.1027000D+00
EXPONENTS  0.2526000D-01 0.1407000D+01 0.1407000D+01 0.1407000D+01 0.3880000D+00
EXPONENTS  0.3880000D+00 0.3880000D+00 0.1020000D+00 0.1020000D+00 0.1020000D+00
EXPONENTS  0.1057000D+01 0.1057000D+01 0.1057000D+01 0.1057000D+01 0.1057000D+01
EXPONENTS  0.1057000D+01 0.2470000D+00 0.2470000D+00 0.2470000D+00 0.2470000D+00
EXPONENTS  0.2470000D+00 0.2470000D+00 0.3387000D+02 0.5095000D+01 0.1159000D+01
EXPONENTS  0.3258000D+00 0.1027000D+00 0.2526000D-01 0.1407000D+01 0.1407000D+01
EXPONENTS  0.1407000D+01 0.3880000D+00 0.3880000D+00 0.3880000D+00 0.1020000D+00
EXPONENTS  0.1020000D+00 0.1020000D+00 0.1057000D+01 0.1057000D+01 0.1057000D+01
EXPONENTS  0.1057000D+01 0.1057000D+01 0.1057000D+01 0.2470000D+00 0.2470000D+00
EXPONENTS  0.2470000D+00 0.2470000D+00 0.2470000D+00 0.2470000D+00 0.3387000D+02
EXPONENTS  0.5095000D+01 0.1159000D+01 0.3258000D+00 0.1027000D+00 0.2526000D-01
EXPONENTS  0.1407000D+01 0.1407000D+01 0.1407000D+01 0.3880000D+00 0.3880000D+00
EXPONENTS  0.3880000D+00 0.1020000D+00 0.1020000D+00 0.1020000D+00 0.1057000D+01
EXPONENTS  0.1057000D+01 0.1057000D+01 0.1057000D+01 0.1057000D+01 0.1057000D+01
EXPONENTS  0.2470000D+00 0.2470000D+00 0.2470000D+00 0.2470000D+00 0.2470000D+00
EXPONENTS  0.2470000D+00
MO    1     MO 0.0        OCC NO =    2.0000000  ORB. ENERGY =  -10.581361
  0.32873158D+00  0.61283040D+00  0.10357913D+01  0.15571337D+01  0.19131186D+01
  0.16159345D+01  0.60947104D+00 -0.30163062D-02 -0.22729202D-02 -0.42556238D-02
 -0.72455636D-02 -0.11207785D-01 -0.14760259D-01 -0.15336854D-01 -0.97458825D-02
  0.65314638D-02  0.34129939D-01 -0.22819588D-02 -0.20375431D-03  0.12930094D-04
  0.12122785D-04  0.86321453D-05  0.47377049D-03  0.44418995D-03  0.31628970D-03
 -0.12386009D-13 -0.11612670D-13 -0.82689132D-14  0.45568910D-04 -0.23008251D-02
  0.39038480D-12  0.27601597D-03 -0.32294400D-02 -0.64646346D-11 -0.15464964D-06
 -0.46878595D-03  0.11504788D-11 -0.26751053D-02  0.14433952D-02  0.12317101D-02
  0.26552485D-03  0.37179371D-14  0.41833130D-13  0.11358825D-02 -0.22044163D-02
  0.10685338D-02 -0.39925675D-03  0.27778644D-14 -0.35573548D-12  0.80225956D-04
 -0.25220948D-03  0.17198353D-03 -0.10185555D-04  0.52628847D-14  0.72493567D-12
 -0.79972830D-05  0.38576723D-03  0.15036152D-13 -0.33970771D-04  0.18412766D-03
 -0.36824680D-13  0.57962620D-04 -0.13414294D-02 -0.82837754D-14 -0.34548355D-14
 -0.31081914D-04 -0.27381056D-03 -0.15798856D-12 -0.12768259D-03 -0.22478024D-03
  0.13936010D-12  0.22092833D-03  0.10462119D-02  0.33460557D-12 -0.43432998D-13
  0.10553683D-01  0.19674464D-01  0.33253310D-01  0.49990617D-01  0.61419249D-01
  0.51878374D-01  0.19566614D-01 -0.96836265D-04 -0.34287009D-03 -0.64196098D-03
 -0.10929935D-02 -0.16906947D-02 -0.22265855D-02 -0.23135650D-02 -0.14701667D-02
  0.98527152D-03  0.24751283D-02 -0.54993525D-02 -0.31676416D-02  0.83629990D-04
  0.78408431D-04  0.55831474D-04  0.37189963D-03  0.34867954D-03  0.24828061D-03
 -0.59660479D-03 -0.55935491D-03 -0.39829402D-03 -0.17472931D-03  0.18754453D-02
 -0.88751304D-03 -0.97315302D-04 -0.21042480D-02  0.41592675D-03  0.18292234D-05
  0.24070756D-03  0.65815068D-04 -0.16765934D-03  0.23645872D-04  0.14401347D-03
  0.57097433D-04  0.18590343D-05 -0.52358957D-03  0.79417726D-03 -0.10192666D-02
  0.22508934D-03 -0.23859240D-03  0.15217241D-03  0.28642897D-02  0.12421746D-03
  0.10240447D-03 -0.22662193D-03 -0.87860434D-05  0.23723335D-04 -0.40763233D-03
  0.17972330D-04  0.33141682D-03  0.13116420D-03 -0.50371801D-05  0.17083708D-03
 -0.52500087D-03 -0.48879809D-04 -0.11650875D-02  0.13150826D-03  0.95088604D-04
 -0.29441245D-05  0.32960538D-03  0.55678075D-04 -0.33122292D-06  0.32482159D-03
 -0.11936163D-03  0.91635963D-05 -0.13136377D-02 -0.47672600D-04  0.11608388D-03
  0.10553683D-01  0.19674464D-01  0.33253310D-01  0.49990617D-01  0.61419249D-01
  0.51878374D-01  0.19566614D-01 -0.96836265D-04 -0.34287009D-03 -0.64196098D-03
 -0.10929935D-02 -0.16906947D-02 -0.22265855D-02 -0.23135650D-02 -0.14701667D-02
  0.98527152D-03  0.24751283D-02 -0.54993525D-02 -0.31676416D-02  0.83629990D-04
  0.78408431D-04  0.55831474D-04  0.37189963D-03  0.34867954D-03  0.24828061D-03
  0.59660479D-03  0.55935491D-03  0.39829402D-03 -0.17472931D-03  0.18754453D-02
  0.88751304D-03 -0.97315302D-04 -0.21042480D-02 -0.41592676D-03  0.18292234D-05
  0.24070756D-03 -0.65815067D-04 -0.16765934D-03  0.23645872D-04  0.14401347D-03
  0.57097433D-04 -0.18590343D-05  0.52358957D-03  0.79417726D-03 -0.10192666D-02
  0.22508934D-03 -0.23859240D-03 -0.15217241D-03 -0.28642897D-02  0.12421746D-03
  0.10240447D-03 -0.22662193D-03 -0.87860434D-05 -0.23723335D-04  0.40763232D-03
  0.17972330D-04  0.33141682D-03 -0.13116420D-03 -0.50371801D-05  0.17083708D-03
  0.52500087D-03 -0.48879809D-04 -0.11650875D-02 -0.13150826D-03 -0.95088604D-04
 -0.29441245D-05  0.32960538D-03 -0.55678075D-04 -0.33122294D-06  0.32482159D-03
  0.11936163D-03  0.91635963D-05 -0.13136377D-02  0.47672600D-04 -0.11608388D-03
  0.57672455D-03  0.10751457D-02  0.18171856D-02  0.27318252D-02  0.33563629D-02
  0.28349850D-02  0.10692520D-02 -0.52917880D-05 -0.13426597D-03 -0.25138825D-03
 -0.42801001D-03 -0.66206640D-03 -0.87191816D-03 -0.90597881D-03 -0.57570887D-03
  0.38582669D-03  0.48617800D-03 -0.43072430D-03  0.18503523D-02  0.33131279D-04
  0.31062680D-04  0.22118479D-04 -0.27009846D-03 -0.25323447D-03 -0.18031803D-03
 -0.14346883D-03 -0.13451115D-03 -0.95779949D-04 -0.50779930D-04  0.28029409D-02
 -0.28797950D-03  0.37604954D-04 -0.15311929D-04 -0.41590248D-03 -0.32005347D-05
  0.14137736D-03  0.21550959D-04  0.19994276D-06  0.16751924D-03 -0.16771918D-03
  0.21092422D-04 -0.83498891D-05 -0.63823826D-03  0.27594033D-03  0.11174990D-02
 -0.13934394D-02 -0.88855916D-04  0.29723557D-04  0.23249151D-02 -0.60392198D-04
 -0.22982920D-03  0.29022140D-03  0.12727533D-04 -0.17259241D-04 -0.62048938D-03
  0.39682102D-05 -0.50613770D-04 -0.94155164D-04 -0.25111306D-04 -0.16193658D-03
 -0.10416221D-03  0.13206675D-04  0.31377789D-03  0.38662770D-03 -0.60583114D-06
  0.54544445D-07  0.18367831D-03 -0.13489742D-03 -0.13662164D-04  0.15005326D-03
  0.10704850D-03  0.13498531D-04 -0.70108818D-03  0.29764377D-03  0.35674104D-04
  0.57672455D-03  0.10751457D-02  0.18171856D-02  0.27318252D-02  0.33563629D-02
  0.28349850D-02  0.10692520D-02 -0.52917880D-05 -0.13426597D-03 -0.25138825D-03
 -0.42801001D-03 -0.66206640D-03 -0.87191816D-03 -0.90597881D-03 -0.57570887D-03
  0.38582669D-03  0.48617800D-03 -0.43072430D-03  0.18503523D-02  0.33131279D-04
  0.31062680D-04  0.22118479D-04 -0.27009846D-03 -0.25323447D-03 -0.18031803D-03
  0.14346883D-03  0.13451115D-03  0.95779949D-04 -0.50779930D-04  0.28029409D-02
  0.28797950D-03  0.37604954D-04 -0.15311933D-04  0.41590248D-03 -0.32005347D-05
  0.14137736D-03 -0.21550960D-04  0.19994272D-06  0.16751924D-03 -0.16771918D-03
  0.21092422D-04  0.83498891D-05  0.63823826D-03  0.27594033D-03  0.11174990D-02
 -0.13934394D-02 -0.88855916D-04 -0.29723557D-04 -0.23249151D-02 -0.60392198D-04
 -0.22982920D-03  0.29022140D-03  0.12727533D-04  0.17259241D-04  0.62048937D-03
  0.39682102D-05 -0.50613770D-04  0.94155164D-04 -0.25111306D-04 -0.16193658D-03
  0.10416221D-03  0.13206675D-04  0.31377789D-03 -0.38662770D-03  0.60583113D-06
  0.54544444D-07  0.18367831D-03  0.13489742D-03 -0.13662164D-04  0.15005326D-03
 -0.10704850D-03  0.13498531D-04 -0.70108818D-03 -0.29764377D-03 -0.35674104D-04
 -0.69336301D-03 -0.12925863D-02 -0.21846986D-02 -0.32843176D-02 -0.40351636D-02
 -0.34083407D-02 -0.12855007D-02  0.63620148D-05  0.30915231D-03  0.57883067D-03
  0.98550874D-03  0.15244322D-02  0.20076235D-02  0.20860494D-02  0.13255908D-02
 -0.88838011D-03 -0.13216085D-02  0.18019520D-02  0.48056404D-03  0.23348117D-04
  0.21890344D-04  0.15587229D-04 -0.20845482D-03 -0.19543964D-03 -0.13916467D-03
  0.34565412D-13  0.32407271D-13  0.23075907D-13 -0.47504692D-04 -0.74517953D-03
 -0.35973254D-12 -0.60261308D-04 -0.11847238D-02  0.42569875D-11  0.22939843D-05
 -0.23225705D-04 -0.99798022D-12 -0.18387640D-03  0.12341091D-03  0.60465486D-04
  0.10972444D-04  0.97679664D-14  0.37676543D-13 -0.58340633D-03  0.11660132D-02
 -0.58260689D-03 -0.23625384D-04 -0.20060843D-13 -0.66988840D-13 -0.43113032D-05
 -0.38219388D-03  0.38650518D-03 -0.28937812D-04  0.12933793D-13  0.48734638D-12
 -0.31349890D-05 -0.12760958D-03 -0.81050844D-14  0.18130274D-04 -0.19123468D-03
 -0.37262711D-13 -0.87253074D-05  0.57406341D-03  0.61577965D-13 -0.41780726D-14
  0.26639231D-05 -0.41656749D-04  0.15088368D-12 -0.46398940D-06  0.57686998D-04
 -0.61970328D-13 -0.75277798D-05  0.67283249D-04 -0.39068071D-12 -0.95838083D-14
  0.38586917D-02  0.71934786D-02  0.12158246D-01  0.18277826D-01  0.22456421D-01
  0.18968038D-01  0.71540460D-02 -0.35405773D-04 -0.15018996D-03 -0.28120299D-03
 -0.47877214D-03 -0.74058771D-03 -0.97532796D-03 -0.10134282D-02 -0.64398814D-03
  0.43158588D-03  0.28333428D-03  0.84471425D-02  0.17612095D-02  0.21969615D-04
  0.20597910D-04  0.14666939D-04  0.85148379D-05  0.79832017D-05  0.56845152D-05
  0.56000503D-13  0.52504031D-13  0.37385998D-13 -0.20020740D-03 -0.33988621D-02
 -0.30520166D-12 -0.40496159D-03 -0.19446069D-02  0.36782346D-12 -0.79285269D-05
 -0.11240895D-03 -0.18346131D-13 -0.58646662D-03  0.96973810D-03 -0.38327149D-03
  0.18937516D-03  0.55251235D-13  0.18844677D-14  0.75697279D-04 -0.92669635D-04
  0.16972356D-04 -0.46706824D-03  0.90962082D-13  0.52110247D-13 -0.90989143D-04
  0.58654933D-04  0.32334210D-04  0.48933888D-04 -0.94531368D-13  0.10611255D-12
 -0.19390725D-04  0.35733888D-03  0.54057029D-14  0.47448618D-04 -0.49594066D-03
 -0.42724972D-13  0.10723556D-04 -0.57607599D-03  0.26507863D-13  0.66726974D-13
  0.15336382D-03  0.11322754D-05  0.37738728D-15  0.49667966D-04 -0.36667747D-03
 -0.29433785D-14 -0.50975943D-03  0.36328064D-03  0.18112166D-14 -0.53567381D-13
 -0.19926753D-05 -0.35938721D-05 -0.52991622D-05 -0.30934135D-03  0.44239865D-03
  0.66074601D-04 -0.13352443D-04  0.78025956D-04  0.19814838D-13 -0.60793849D-03
  0.77446582D-03 -0.10565995D-13 -0.58195353D-04 -0.10132446D-04 -0.10058604D-13
  0.50747892D-03 -0.57504882D-03  0.67569898D-04 -0.45930831D-03 -0.29704132D-13
  0.15928225D-13  0.10238494D-03 -0.81936152D-04 -0.20448793D-04  0.30342431D-04
  0.13174264D-13 -0.46747439D-14  0.17020435D-04  0.30697056D-04  0.45262791D-04
 -0.17042845D-02 -0.45446333D-03  0.63653305D-04  0.70868348D-04 -0.10134840D-04
 -0.65297999D-04 -0.62894019D-04  0.53536790D-03  0.28675607D-03 -0.83216512D-04
  0.68060686D-04  0.52423981D-04  0.16547712D-03 -0.51483472D-03  0.34935760D-03
  0.59904725D-04  0.32016556D-03  0.31980205D-03 -0.11998175D-04 -0.89275221D-04
  0.10127340D-03 -0.13808001D-03  0.25056286D-04  0.74154530D-05  0.17020435D-04
  0.30697056D-04  0.45262791D-04 -0.17042845D-02 -0.45446334D-03  0.63653305D-04
  0.70868348D-04 -0.10134840D-04  0.65297999D-04 -0.62894019D-04  0.53536790D-03
 -0.28675607D-03 -0.83216513D-04  0.68060686D-04 -0.52423980D-04  0.16547712D-03
 -0.51483472D-03  0.34935760D-03  0.59904725D-04 -0.32016556D-03 -0.31980205D-03
 -0.11998175D-04 -0.89275221D-04  0.10127340D-03 -0.13808001D-03 -0.25056286D-04
 -0.74154530D-05 -0.20481097D-04 -0.36938502D-04 -0.54465799D-04  0.21775567D-02
 -0.39825589D-02  0.77834932D-04  0.40012799D-05 -0.23008841D-04 -0.16340792D-03
 -0.24824635D-05  0.16055137D-02 -0.11453646D-02  0.12136190D-04 -0.12786211D-03
  0.23832281D-03 -0.20227497D-03  0.16710162D-03  0.35173344D-04  0.47009274D-05
  0.26932686D-05 -0.64700174D-03 -0.99395247D-04  0.53035546D-04  0.46359701D-04
 -0.99076678D-05 -0.46052712D-05 -0.16303608D-03 -0.20481097D-04 -0.36938502D-04
 -0.54465799D-04  0.21775567D-02 -0.39825589D-02  0.77834932D-04  0.40012799D-05
 -0.23008841D-04  0.16340792D-03 -0.24824635D-05  0.16055137D-02  0.11453646D-02
  0.12136190D-04 -0.12786211D-03 -0.23832281D-03 -0.20227497D-03  0.16710162D-03