 Molden2AIM, Version 4.0.0 (06/02/2016)           Time: Fri Jun 29 23:12:38 2018
GAUSSIAN             33 MOL ORBITALS    526 PRIMITIVES        2 NUCLEI
  As   1    (CENTRE  1)   0.00000000  0.00000000  1.97269644  CHARGE = 33.0
  As   2    (CENTRE  2)   0.00000000  0.00000000 -1.97269644  CHARGE = 33.0
CENTRE ASSIGNMENTS    1  1  1  1  1  1  1  1  1  1  1  1  1  1  1  1  1  1  1  1
CENTRE ASSIGNMENTS    1  1  1  1  1  1  1  1  1  1  1  1  1  1  1  1  1  1  1  1
CENTRE ASSIGNMENTS    1  1  1  1  1  1  1  1  1  1  1  1  1  1  1  1  1  1  1  1
CENTRE ASSIGNMENTS    1  1  1  1  1  1  1  1  1  1  1  1  1  1  1  1  1  1  1  1
CENTRE ASSIGNMENTS    1  1  1  1  1  1  1  1  1  1  1  1  1  1  1  1  1  1  1  1
CENTRE ASSIGNMENTS    1  1  1  1  1  1  1  1  1  1  1  1  1  1  1  1  1  1  1  1
CENTRE ASSIGNMENTS    1  1  1  1  1  1  1  1  1  1  1  1  1  1  1  1  1  1  1  1
CENTRE ASSIGNMENTS    1  1  1  1  1  1  1  1  1  1  1  1  1  1  1  1  1  1  1  1
CENTRE ASSIGNMENTS    1  1  1  1  1  1  1  1  1  1  1  1  1  1  1  1  1  1  1  1
CENTRE ASSIGNMENTS    1  1  1  1  1  1  1  1  1  1  1  1  1  1  1  1  1  1  1  1
CENTRE ASSIGNMENTS    1  1  1  1  1  1  1  1  1  1  1  1  1  1  1  1  1  1  1  1
CENTRE ASSIGNMENTS    1  1  1  1  1  1  1  1  1  1  1  1  1  1  1  1  1  1  1  1
CENTRE ASSIGNMENTS    1  1  1  1  1  1  1  1  1  1  1  1  1  1  1  1  1  1  1  1
CENTRE ASSIGNMENTS    1  1  1  2  2  2  2  2  2  2  2  2  2  2  2  2  2  2  2  2
CENTRE ASSIGNMENTS    2  2  2  2  2  2  2  2  2  2  2  2  2  2  2  2  2  2  2  2
CENTRE ASSIGNMENTS    2  2  2  2  2  2  2  2  2  2  2  2  2  2  2  2  2  2  2  2
CENTRE ASSIGNMENTS    2  2  2  2  2  2  2  2  2  2  2  2  2  2  2  2  2  2  2  2
CENTRE ASSIGNMENTS    2  2  2  2  2  2  2  2  2  2  2  2  2  2  2  2  2  2  2  2
CENTRE ASSIGNMENTS    2  2  2  2  2  2  2  2  2  2  2  2  2  2  2  2  2  2  2  2
CENTRE ASSIGNMENTS    2  2  2  2  2  2  2  2  2  2  2  2  2  2  2  2  2  2  2  2
CENTRE ASSIGNMENTS    2  2  2  2  2  2  2  2  2  2  2  2  2  2  2  2  2  2  2  2
CENTRE ASSIGNMENTS    2  2  2  2  2  2  2  2  2  2  2  2  2  2  2  2  2  2  2  2
CENTRE ASSIGNMENTS    2  2  2  2  2  2  2  2  2  2  2  2  2  2  2  2  2  2  2  2
CENTRE ASSIGNMENTS    2  2  2  2  2  2  2  2  2  2  2  2  2  2  2  2  2  2  2  2
CENTRE ASSIGNMENTS    2  2  2  2  2  2  2  2  2  2  2  2  2  2  2  2  2  2  2  2
CENTRE ASSIGNMENTS    2  2  2  2  2  2  2  2  2  2  2  2  2  2  2  2  2  2  2  2
CENTRE ASSIGNMENTS    2  2  2  2  2  2
TYPE ASSIGNMENTS      1  1  1  1  1  1  1  1  1  1  1  1  1  1  1  1  1  1  1  1
TYPE ASSIGNMENTS      1  1  1  1  1  1  1  1  1  1  1  1  1  1  1  1  1  1  1  1
TYPE ASSIGNMENTS      1  1  1  1  1  1  1  1  1  1  1  1  1  1  1  1  1  1  1  1
TYPE ASSIGNMENTS      1  1  1  1  1  1  1  1  1  1  1  1  1  1  1  2  2  2  2  2
TYPE ASSIGNMENTS      2  2  2  2  2  2  3  3  3  3  3  3  3  3  3  3  3  4  4  4
TYPE ASSIGNMENTS      4  4  4  4  4  4  4  4  2  2  2  2  2  2  2  2  2  2  2  3
TYPE ASSIGNMENTS      3  3  3  3  3  3  3  3  3  3  4  4  4  4  4  4  4  4  4  4
TYPE ASSIGNMENTS      4  2  2  2  2  2  2  2  2  2  2  2  3  3  3  3  3  3  3  3
TYPE ASSIGNMENTS      3  3  3  4  4  4  4  4  4  4  4  4  4  4  2  3  4  2  3  4
TYPE ASSIGNMENTS      2  3  4  5  5  5  5  5  5  5  6  6  6  6  6  6  6  7  7  7
TYPE ASSIGNMENTS      7  7  7  7  8  8  8  8  8  8  8  9  9  9  9  9  9  9 10 10
TYPE ASSIGNMENTS     10 10 10 10 10  5  6  7  8  9 10  5  6  7  8  9 10  5  6  7
TYPE ASSIGNMENTS      8  9 10 11 12 13 17 14 15 18 19 16 20 11 12 13 17 14 15 18
TYPE ASSIGNMENTS     19 16 20  1  1  1  1  1  1  1  1  1  1  1  1  1  1  1  1  1
TYPE ASSIGNMENTS      1  1  1  1  1  1  1  1  1  1  1  1  1  1  1  1  1  1  1  1
TYPE ASSIGNMENTS      1  1  1  1  1  1  1  1  1  1  1  1  1  1  1  1  1  1  1  1
TYPE ASSIGNMENTS      1  1  1  1  1  1  1  1  1  1  1  1  1  1  1  1  1  1  2  2
TYPE ASSIGNMENTS      2  2  2  2  2  2  2  2  2  3  3  3  3  3  3  3  3  3  3  3
TYPE ASSIGNMENTS      4  4  4  4  4  4  4  4  4  4  4  2  2  2  2  2  2  2  2  2
TYPE ASSIGNMENTS      2  2  3  3  3  3  3  3  3  3  3  3  3  4  4  4  4  4  4  4
TYPE ASSIGNMENTS      4  4  4  4  2  2  2  2  2  2  2  2  2  2  2  3  3  3  3  3
TYPE ASSIGNMENTS      3  3  3  3  3  3  4  4  4  4  4  4  4  4  4  4  4  2  3  4
TYPE ASSIGNMENTS      2  3  4  2  3  4  5  5  5  5  5  5  5  6  6  6  6  6  6  6
TYPE ASSIGNMENTS      7  7  7  7  7  7  7  8  8  8  8  8  8  8  9  9  9  9  9  9
TYPE ASSIGNMENTS      9 10 10 10 10 10 10 10  5  6  7  8  9 10  5  6  7  8  9 10
TYPE ASSIGNMENTS      5  6  7  8  9 10 11 12 13 17 14 15 18 19 16 20 11 12 13 17
TYPE ASSIGNMENTS     14 15 18 19 16 20
EXPONENTS  0.8482340D+07 0.1270151D+07 0.2890570D+06 0.8187985D+05 0.2671656D+05
EXPONENTS  0.9647584D+04 0.3764119D+04 0.1561566D+04 0.6808147D+03 0.3092412D+03
EXPONENTS  0.1452574D+03 0.6973905D+02 0.3177032D+02 0.1539176D+02 0.7341526D+01
EXPONENTS  0.3323716D+01 0.1485867D+01 0.2115000D+00 0.8482340D+07 0.1270151D+07
EXPONENTS  0.2890570D+06 0.8187985D+05 0.2671656D+05 0.9647584D+04 0.3764119D+04
EXPONENTS  0.1561566D+04 0.6808147D+03 0.3092412D+03 0.1452574D+03 0.6973905D+02
EXPONENTS  0.3177032D+02 0.1539176D+02 0.7341526D+01 0.3323716D+01 0.1485867D+01
EXPONENTS  0.2115000D+00 0.8482340D+07 0.1270151D+07 0.2890570D+06 0.8187985D+05
EXPONENTS  0.2671656D+05 0.9647584D+04 0.3764119D+04 0.1561566D+04 0.6808147D+03
EXPONENTS  0.3092412D+03 0.1452574D+03 0.6973905D+02 0.3177032D+02 0.1539176D+02
EXPONENTS  0.7341526D+01 0.3323716D+01 0.1485867D+01 0.2115000D+00 0.8482340D+07
EXPONENTS  0.1270151D+07 0.2890570D+06 0.8187985D+05 0.2671656D+05 0.9647584D+04
EXPONENTS  0.3764119D+04 0.1561566D+04 0.6808147D+03 0.3092412D+03 0.1452574D+03
EXPONENTS  0.6973905D+02 0.3177032D+02 0.1539176D+02 0.7341526D+01 0.3323716D+01
EXPONENTS  0.1485867D+01 0.2115000D+00 0.4210860D+00 0.8897400D-01 0.3340700D-01
EXPONENTS  0.7423861D+04 0.1759517D+04 0.5702292D+03 0.2165800D+03 0.9073425D+02
EXPONENTS  0.4030879D+02 0.1855550D+02 0.8396543D+01 0.3767367D+01 0.1629701D+01
EXPONENTS  0.2225030D+00 0.7423861D+04 0.1759517D+04 0.5702292D+03 0.2165800D+03
EXPONENTS  0.9073425D+02 0.4030879D+02 0.1855550D+02 0.8396543D+01 0.3767367D+01
EXPONENTS  0.1629701D+01 0.2225030D+00 0.7423861D+04 0.1759517D+04 0.5702292D+03
EXPONENTS  0.2165800D+03 0.9073425D+02 0.4030879D+02 0.1855550D+02 0.8396543D+01
EXPONENTS  0.3767367D+01 0.1629701D+01 0.2225030D+00 0.7423861D+04 0.1759517D+04
EXPONENTS  0.5702292D+03 0.2165800D+03 0.9073425D+02 0.4030879D+02 0.1855550D+02
EXPONENTS  0.8396543D+01 0.3767367D+01 0.1629701D+01 0.2225030D+00 0.7423861D+04
EXPONENTS  0.1759517D+04 0.5702292D+03 0.2165800D+03 0.9073425D+02 0.4030879D+02
EXPONENTS  0.1855550D+02 0.8396543D+01 0.3767367D+01 0.1629701D+01 0.2225030D+00
EXPONENTS  0.7423861D+04 0.1759517D+04 0.5702292D+03 0.2165800D+03 0.9073425D+02
EXPONENTS  0.4030879D+02 0.1855550D+02 0.8396543D+01 0.3767367D+01 0.1629701D+01
EXPONENTS  0.2225030D+00 0.7423861D+04 0.1759517D+04 0.5702292D+03 0.2165800D+03
EXPONENTS  0.9073425D+02 0.4030879D+02 0.1855550D+02 0.8396543D+01 0.3767367D+01
EXPONENTS  0.1629701D+01 0.2225030D+00 0.7423861D+04 0.1759517D+04 0.5702292D+03
EXPONENTS  0.2165800D+03 0.9073425D+02 0.4030879D+02 0.1855550D+02 0.8396543D+01
EXPONENTS  0.3767367D+01 0.1629701D+01 0.2225030D+00 0.7423861D+04 0.1759517D+04
EXPONENTS  0.5702292D+03 0.2165800D+03 0.9073425D+02 0.4030879D+02 0.1855550D+02
EXPONENTS  0.8396543D+01 0.3767367D+01 0.1629701D+01 0.2225030D+00 0.5682630D+00
EXPONENTS  0.5682630D+00 0.5682630D+00 0.8040500D-01 0.8040500D-01 0.8040500D-01
EXPONENTS  0.2679900D-01 0.2679900D-01 0.2679900D-01 0.3210196D+03 0.9624931D+02
EXPONENTS  0.3664496D+02 0.1549396D+02 0.6891138D+01 0.3054831D+01 0.1314241D+01
EXPONENTS  0.3210196D+03 0.9624931D+02 0.3664496D+02 0.1549396D+02 0.6891138D+01
EXPONENTS  0.3054831D+01 0.1314241D+01 0.3210196D+03 0.9624931D+02 0.3664496D+02
EXPONENTS  0.1549396D+02 0.6891138D+01 0.3054831D+01 0.1314241D+01 0.3210196D+03
EXPONENTS  0.9624931D+02 0.3664496D+02 0.1549396D+02 0.6891138D+01 0.3054831D+01
EXPONENTS  0.1314241D+01 0.3210196D+03 0.9624931D+02 0.3664496D+02 0.1549396D+02
EXPONENTS  0.6891138D+01 0.3054831D+01 0.1314241D+01 0.3210196D+03 0.9624931D+02
EXPONENTS  0.3664496D+02 0.1549396D+02 0.6891138D+01 0.3054831D+01 0.1314241D+01
EXPONENTS  0.5134300D+00 0.5134300D+00 0.5134300D+00 0.5134300D+00 0.5134300D+00
EXPONENTS  0.5134300D+00 0.1877000D+00 0.1877000D+00 0.1877000D+00 0.1877000D+00
EXPONENTS  0.1877000D+00 0.1877000D+00 0.7000000D-01 0.7000000D-01 0.7000000D-01
EXPONENTS  0.7000000D-01 0.7000000D-01 0.7000000D-01 0.4158000D+00 0.4158000D+00
EXPONENTS  0.4158000D+00 0.4158000D+00 0.4158000D+00 0.4158000D+00 0.4158000D+00
EXPONENTS  0.4158000D+00 0.4158000D+00 0.4158000D+00 0.1690000D+00 0.1690000D+00
EXPONENTS  0.1690000D+00 0.1690000D+00 0.1690000D+00 0.1690000D+00 0.1690000D+00
EXPONENTS  0.1690000D+00 0.1690000D+00 0.1690000D+00 0.8482340D+07 0.1270151D+07
EXPONENTS  0.2890570D+06 0.8187985D+05 0.2671656D+05 0.9647584D+04 0.3764119D+04
EXPONENTS  0.1561566D+04 0.6808147D+03 0.3092412D+03 0.1452574D+03 0.6973905D+02
EXPONENTS  0.3177032D+02 0.1539176D+02 0.7341526D+01 0.3323716D+01 0.1485867D+01
EXPONENTS  0.2115000D+00 0.8482340D+07 0.1270151D+07 0.2890570D+06 0.8187985D+05
EXPONENTS  0.2671656D+05 0.9647584D+04 0.3764119D+04 0.1561566D+04 0.6808147D+03
EXPONENTS  0.3092412D+03 0.1452574D+03 0.6973905D+02 0.3177032D+02 0.1539176D+02
EXPONENTS  0.7341526D+01 0.3323716D+01 0.1485867D+01 0.2115000D+00 0.8482340D+07
EXPONENTS  0.1270151D+07 0.2890570D+06 0.8187985D+05 0.2671656D+05 0.9647584D+04
EXPONENTS  0.3764119D+04 0.1561566D+04 0.6808147D+03 0.3092412D+03 0.1452574D+03
EXPONENTS  0.6973905D+02 0.3177032D+02 0.1539176D+02 0.7341526D+01 0.3323716D+01
EXPONENTS  0.1485867D+01 0.2115000D+00 0.8482340D+07 0.1270151D+07 0.2890570D+06
EXPONENTS  0.8187985D+05 0.2671656D+05 0.9647584D+04 0.3764119D+04 0.1561566D+04
EXPONENTS  0.6808147D+03 0.3092412D+03 0.1452574D+03 0.6973905D+02 0.3177032D+02
EXPONENTS  0.1539176D+02 0.7341526D+01 0.3323716D+01 0.1485867D+01 0.2115000D+00
EXPONENTS  0.4210860D+00 0.8897400D-01 0.3340700D-01 0.7423861D+04 0.1759517D+04
EXPONENTS  0.5702292D+03 0.2165800D+03 0.9073425D+02 0.4030879D+02 0.1855550D+02
EXPONENTS  0.8396543D+01 0.3767367D+01 0.1629701D+01 0.2225030D+00 0.7423861D+04
EXPONENTS  0.1759517D+04 0.5702292D+03 0.2165800D+03 0.9073425D+02 0.4030879D+02
EXPONENTS  0.1855550D+02 0.8396543D+01 0.3767367D+01 0.1629701D+01 0.2225030D+00
EXPONENTS  0.7423861D+04 0.1759517D+04 0.5702292D+03 0.2165800D+03 0.9073425D+02
EXPONENTS  0.4030879D+02 0.1855550D+02 0.8396543D+01 0.3767367D+01 0.1629701D+01
EXPONENTS  0.2225030D+00 0.7423861D+04 0.1759517D+04 0.5702292D+03 0.2165800D+03
EXPONENTS  0.9073425D+02 0.4030879D+02 0.1855550D+02 0.8396543D+01 0.3767367D+01
EXPONENTS  0.1629701D+01 0.2225030D+00 0.7423861D+04 0.1759517D+04 0.5702292D+03
EXPONENTS  0.2165800D+03 0.9073425D+02 0.4030879D+02 0.1855550D+02 0.8396543D+01
EXPONENTS  0.3767367D+01 0.1629701D+01 0.2225030D+00 0.7423861D+04 0.1759517D+04
EXPONENTS  0.5702292D+03 0.2165800D+03 0.9073425D+02 0.4030879D+02 0.1855550D+02
EXPONENTS  0.8396543D+01 0.3767367D+01 0.1629701D+01 0.2225030D+00 0.7423861D+04
EXPONENTS  0.1759517D+04 0.5702292D+03 0.2165800D+03 0.9073425D+02 0.4030879D+02
EXPONENTS  0.1855550D+02 0.8396543D+01 0.3767367D+01 0.1629701D+01 0.2225030D+00
EXPONENTS  0.7423861D+04 0.1759517D+04 0.5702292D+03 0.2165800D+03 0.9073425D+02
EXPONENTS  0.4030879D+02 0.1855550D+02 0.8396543D+01 0.3767367D+01 0.1629701D+01
EXPONENTS  0.2225030D+00 0.7423861D+04 0.1759517D+04 0.5702292D+03 0.2165800D+03
EXPONENTS  0.9073425D+02 0.4030879D+02 0.1855550D+02 0.8396543D+01 0.3767367D+01
EXPONENTS  0.1629701D+01 0.2225030D+00 0.5682630D+00 0.5682630D+00 0.5682630D+00
EXPONENTS  0.8040500D-01 0.8040500D-01 0.8040500D-01 0.2679900D-01 0.2679900D-01
EXPONENTS  0.2679900D-01 0.3210196D+03 0.9624931D+02 0.3664496D+02 0.1549396D+02
EXPONENTS  0.6891138D+01 0.3054831D+01 0.1314241D+01 0.3210196D+03 0.9624931D+02
EXPONENTS  0.3664496D+02 0.1549396D+02 0.6891138D+01 0.3054831D+01 0.1314241D+01
EXPONENTS  0.3210196D+03 0.9624931D+02 0.3664496D+02 0.1549396D+02 0.6891138D+01
EXPONENTS  0.3054831D+01 0.1314241D+01 0.3210196D+03 0.9624931D+02 0.3664496D+02
EXPONENTS  0.1549396D+02 0.6891138D+01 0.3054831D+01 0.1314241D+01 0.3210196D+03
EXPONENTS  0.9624931D+02 0.3664496D+02 0.1549396D+02 0.6891138D+01 0.3054831D+01
EXPONENTS  0.1314241D+01 0.3210196D+03 0.9624931D+02 0.3664496D+02 0.1549396D+02
EXPONENTS  0.6891138D+01 0.3054831D+01 0.1314241D+01 0.5134300D+00 0.5134300D+00
EXPONENTS  0.5134300D+00 0.5134300D+00 0.5134300D+00 0.5134300D+00 0.1877000D+00
EXPONENTS  0.1877000D+00 0.1877000D+00 0.1877000D+00 0.1877000D+00 0.1877000D+00
EXPONENTS  0.7000000D-01 0.7000000D-01 0.7000000D-01 0.7000000D-01 0.7000000D-01
EXPONENTS  0.7000000D-01 0.4158000D+00 0.4158000D+00 0.4158000D+00 0.4158000D+00
EXPONENTS  0.4158000D+00 0.4158000D+00 0.4158000D+00 0.4158000D+00 0.4158000D+00
EXPONENTS  0.4158000D+00 0.1690000D+00 0.1690000D+00 0.1690000D+00 0.1690000D+00
EXPONENTS  0.1690000D+00 0.1690000D+00 0.1690000D+00 0.1690000D+00 0.1690000D+00
EXPONENTS  0.1690000D+00
MO    1     MO 0.0        OCC NO =    2.0000000  ORB. ENERGY = -425.261614
  0.55124178D+00  0.10303194D+01  0.17835714D+01  0.29213887D+01  0.45720695D+01
  0.68560563D+01  0.97505087D+01  0.12802921D+02  0.14583859D+02  0.12794053D+02
  0.68087385D+01  0.14703411D+01  0.55266898D-01  0.13197885D-02 -0.35033710D-03
  0.31358939D-04 -0.25404609D-04 -0.15120185D-05  0.34641405D-04  0.65518644D-04
  0.11330392D-03  0.18557604D-03  0.29189076D-03  0.44026091D-03  0.64039569D-03
  0.87640667D-03  0.11043247D-02  0.11721136D-02  0.89670954D-03  0.14116848D-03
 -0.58812769D-03 -0.46966127D-03 -0.79427451D-04 -0.15671989D-05 -0.24866259D-06
 -0.75807260D-08 -0.88215548D-04 -0.16987907D-03 -0.29473783D-03 -0.48323244D-03
 -0.76059563D-03 -0.11474752D-02 -0.16748323D-02 -0.23024527D-02 -0.29413849D-02
 -0.31995816D-02 -0.25819061D-02 -0.43604730D-03  0.23052463D-02  0.27752438D-02
  0.17389490D-03 -0.12233547D-02 -0.49390147D-03  0.24325525D-05  0.32257272D-04
  0.69883540D-04  0.11896835D-03  0.19470618D-03  0.30642810D-03  0.46239382D-03
  0.67494242D-03  0.92887965D-03  0.11882899D-02  0.12981947D-02  0.10541218D-02
  0.18207363D-03 -0.98880833D-03 -0.12569073D-02 -0.65022740D-04  0.72030491D-03
  0.53656911D-03 -0.20787170D-03  0.19338618D-03  0.11559548D-03  0.18619323D-04
  0.25836407D-16  0.36996196D-16  0.48758438D-16  0.55854290D-16  0.51112904D-16
  0.32463487D-16  0.11121158D-16  0.12218950D-17  0.14404378D-19  0.27763272D-20
  0.28616217D-22 -0.44888321D-16 -0.64277402D-16 -0.84713187D-16 -0.97041562D-16
 -0.88803850D-16 -0.56402246D-16 -0.19321963D-16 -0.21229272D-17 -0.25026249D-19
 -0.48236066D-20 -0.49717979D-22  0.54544509D-03  0.78104489D-03  0.10293633D-02
  0.11791674D-02  0.10790696D-02  0.68535262D-03  0.23478423D-03  0.25796025D-04
  0.30409791D-06  0.58612407D-07  0.60413103D-09  0.71906748D-17  0.10367311D-16
  0.13776392D-16  0.16253410D-16  0.15526400D-16  0.10595989D-16  0.32853885D-17
 -0.16344536D-17 -0.16400248D-17 -0.41312844D-18  0.48003372D-21 -0.19796775D-17
 -0.28542428D-17 -0.37928029D-17 -0.44747552D-17 -0.42746007D-17 -0.29172006D-17
 -0.90450616D-18  0.44998432D-18  0.45151815D-18  0.11373912D-18 -0.13215894D-21
 -0.27539070D-02 -0.39705050D-02 -0.52761255D-02 -0.62247815D-02 -0.59463489D-02
 -0.40580849D-02 -0.12582483D-02  0.62596812D-03  0.62810182D-03  0.15822122D-03
 -0.18384481D-06 -0.21930469D-17 -0.31703403D-17 -0.42123790D-17 -0.49917141D-17
 -0.47868999D-17 -0.33036352D-17 -0.99906686D-18  0.62568071D-18  0.63294285D-18
  0.18343782D-18 -0.71368434D-19 -0.19299493D-17 -0.27899978D-17 -0.37070242D-17
 -0.43928632D-17 -0.42126204D-17 -0.29073015D-17 -0.87920983D-18  0.55061844D-18
  0.55700934D-18  0.16143097D-18 -0.62806436D-19  0.20129938D-02  0.29100497D-02
  0.38665351D-02  0.45818854D-02  0.43938868D-02  0.30324008D-02  0.91704167D-03
 -0.57431120D-03 -0.58097710D-03 -0.16837724D-03  0.65508957D-04  0.17609600D-18
  0.11033898D-19 -0.46115984D-04  0.68457915D-21 -0.63752660D-20 -0.32620441D-04
 -0.45047566D-21 -0.40133806D-21 -0.11035788D-05 -0.22283687D-03 -0.22760450D-03
 -0.18637105D-03 -0.11739125D-03 -0.51127525D-04 -0.14477327D-04 -0.24113773D-05
 -0.22283687D-03 -0.22760450D-03 -0.18637105D-03 -0.11739125D-03 -0.51127525D-04
 -0.14477327D-04 -0.24113773D-05  0.44567374D-03  0.45520900D-03  0.37274210D-03
  0.23478251D-03  0.10225505D-03  0.28954654D-04  0.48227546D-05 -0.39822668D-18
 -0.40674680D-18 -0.33305945D-18 -0.20978723D-18 -0.91368832D-19 -0.25872101D-19
 -0.43093173D-20 -0.51518876D-17 -0.52621131D-17 -0.43088144D-17 -0.27140327D-17
 -0.11820453D-17 -0.33470926D-18 -0.55749953D-19  0.16854809D-17  0.17215421D-17
  0.14096628D-17  0.88791735D-18  0.38671549D-18  0.10950279D-18  0.18239040D-19
  0.90960405D-05  0.90960405D-05 -0.18192081D-04  0.12484161D-20 -0.38546252D-21
 -0.44216969D-19  0.44338689D-05  0.44338689D-05 -0.88677379D-05 -0.28769753D-23
  0.24003253D-19  0.46003848D-19 -0.11435718D-05 -0.11435718D-05  0.22871436D-05
 -0.21500556D-23  0.63086091D-21  0.10279722D-20  0.12760802D-20  0.25145537D-20
  0.78375202D-05  0.12549715D-20  0.25733755D-20 -0.11756280D-04 -0.50832122D-20
 -0.10117037D-19 -0.11756280D-04  0.15234873D-21  0.12455651D-20  0.23469763D-20
  0.46518874D-06  0.12507381D-20  0.23381596D-20 -0.69778311D-06 -0.49874334D-20
 -0.93790886D-20 -0.69778311D-06 -0.83108946D-22 -0.52566057D+00 -0.98250588D+00
 -0.17008021D+01 -0.27858172D+01 -0.43598957D+01 -0.65378906D+01 -0.92980216D+01
 -0.12208782D+02 -0.13907073D+02 -0.12200326D+02 -0.64927686D+01 -0.14021077D+01
 -0.52702153D-01 -0.12585417D-02  0.33407918D-03 -0.29903680D-04  0.24225669D-04
  0.14418510D-05 -0.33635339D-04 -0.63615831D-04 -0.11001331D-03 -0.18018649D-03
 -0.28341358D-03 -0.42747472D-03 -0.62179712D-03 -0.85095380D-03 -0.10722525D-02
 -0.11380727D-02 -0.87066703D-03 -0.13706862D-03  0.57104710D-03  0.45602122D-03
  0.77120695D-04  0.15216838D-05  0.24144085D-06  0.73605642D-08  0.84956455D-04
  0.16360294D-03  0.28384884D-03  0.46537958D-03  0.73249569D-03  0.11050822D-02
  0.16129562D-02  0.22173893D-02  0.28327165D-02  0.30813742D-02  0.24865185D-02
  0.41993768D-03 -0.22200798D-02 -0.26727134D-02 -0.16747042D-03  0.11781582D-02
  0.47565445D-03 -0.23426827D-05 -0.31137778D-04 -0.67458220D-04 -0.11483953D-03
 -0.18794887D-03 -0.29579346D-03 -0.44634636D-03 -0.65151842D-03 -0.89664272D-03
 -0.11470501D-02 -0.12531406D-02 -0.10175383D-02 -0.17575473D-03  0.95449157D-03
  0.12132861D-02  0.62766115D-04 -0.69530660D-03 -0.51794739D-03  0.20065748D-03
 -0.18684685D-03 -0.11442114D-03 -0.18591703D-04 -0.98208426D-17 -0.14062862D-16
 -0.18533883D-16 -0.21231133D-16 -0.19428854D-16 -0.12339904D-16 -0.42273348D-17
 -0.46446234D-18 -0.54753407D-20 -0.10553275D-20 -0.10877494D-22  0.85887355D-17
  0.12298558D-16  0.16208652D-16  0.18567509D-16  0.16991341D-16  0.10791760D-16
  0.36969802D-17  0.40619164D-18  0.47884133D-20  0.92292784D-21  0.95128211D-23
  0.53949591D-03  0.77252601D-03  0.10181361D-02  0.11663062D-02  0.10673002D-02
  0.67787746D-03  0.23222344D-03  0.25514667D-04  0.30078111D-06  0.57973120D-07
  0.59754176D-09 -0.35512236D-17 -0.51200533D-17 -0.68036795D-17 -0.80269924D-17
 -0.76679474D-17 -0.52329895D-17 -0.16225388D-17  0.80719962D-18  0.80995107D-18
  0.20402973D-18 -0.23707191D-21 -0.19349468D-17 -0.27897514D-17 -0.37071048D-17
 -0.43736484D-17 -0.41780164D-17 -0.28512866D-17 -0.88406891D-18  0.43981695D-18
  0.44131613D-18  0.11116920D-18 -0.12917281D-21 -0.27091253D-02 -0.39059399D-02
 -0.51903294D-02 -0.61235592D-02 -0.58496543D-02 -0.39920956D-02 -0.12377877D-02
  0.61578914D-03  0.61788814D-03  0.15564835D-03 -0.18085527D-06  0.11860214D-17
  0.17145513D-17  0.22780961D-17  0.26995682D-17  0.25888027D-17  0.17866385D-17
  0.54030521D-18 -0.33837430D-18 -0.34230173D-18 -0.99204980D-19  0.38596753D-19
  0.18746109D-17  0.27099988D-17  0.36007308D-17  0.42669044D-17  0.40918298D-17
  0.28239390D-17  0.85399980D-18 -0.53483028D-18 -0.54103793D-18 -0.15680218D-18
  0.61005555D-19  0.19794245D-02  0.28615208D-02  0.38020556D-02  0.45054764D-02
  0.43206130D-02  0.29818316D-02  0.90174881D-03 -0.56473381D-03 -0.57128855D-03
 -0.16556933D-03  0.64416510D-04 -0.87488107D-19 -0.72368653D-19 -0.46110267D-04
  0.42803595D-20  0.78075042D-20 -0.31975864D-04  0.92997223D-22  0.26161710D-21
 -0.10840100D-05  0.21735197D-03  0.22200225D-03  0.18178372D-03  0.11450179D-03
  0.49869075D-04  0.14120983D-04  0.23520238D-05  0.21735197D-03  0.22200225D-03
  0.18178372D-03  0.11450179D-03  0.49869075D-04  0.14120983D-04  0.23520238D-05
 -0.43470395D-03 -0.44400451D-03 -0.36356744D-03 -0.22900358D-03 -0.99738149D-04
 -0.28241966D-04 -0.47040476D-05 -0.22404447D-17 -0.22883793D-17 -0.18738103D-17
 -0.11802742D-17 -0.51404595D-18 -0.14555783D-18 -0.24244450D-19  0.87164304D-17
  0.89029198D-17  0.72900426D-17  0.45918465D-17  0.19998913D-17  0.56629145D-18
  0.94322823D-19 -0.29619070D-17 -0.30252775D-17 -0.24772100D-17 -0.15603431D-17
 -0.67957774D-18 -0.19242999D-18 -0.32051588D-19 -0.87810904D-05 -0.87810904D-05
  0.17562181D-04  0.85890013D-20 -0.57230454D-19 -0.30933478D-19 -0.46080996D-05
 -0.46080996D-05  0.92161993D-05 -0.94701800D-21  0.30263169D-19  0.44524108D-19
  0.10949966D-05  0.10949966D-05 -0.21899931D-05  0.57978868D-22  0.28813470D-21
  0.13197204D-20 -0.88183545D-21 -0.16967201D-20  0.76942523D-05 -0.98575584D-21
 -0.16825543D-20 -0.11541378D-04  0.36312622D-20  0.67727146D-20 -0.11541378D-04
  0.24357091D-21 -0.16271694D-20 -0.27102916D-20  0.57877619D-06 -0.16150387D-20
 -0.27127317D-20 -0.86816428D-06  0.64965468D-20  0.10843607D-19 -0.86816428D-06
 -0.76237491D-22
MO    2     MO 0.0        OCC NO =    2.0000000  ORB. ENERGY = -425.261613
  0.52566699D+00  0.98251788D+00  0.17008228D+01  0.27858512D+01  0.43599490D+01
  0.65379704D+01  0.92981351D+01  0.12208931D+02  0.13907242D+02  0.12200475D+02
  0.64928479D+01  0.14021248D+01  0.52702797D-01  0.12585571D-02 -0.33408326D-03
  0.29904045D-04 -0.24225965D-04 -0.14418686D-05  0.20365702D-04  0.38518447D-04
  0.66611437D-04  0.10910026D-03  0.17160274D-03  0.25882964D-03  0.37648898D-03
  0.51523997D-03  0.64923309D-03  0.68908623D-03  0.52717604D-03  0.82993026D-04
 -0.34576060D-03 -0.27611412D-03 -0.46695443D-04 -0.92135712D-06 -0.14618887D-06
 -0.44567131D-08 -0.66543681D-04 -0.12814497D-03 -0.22232974D-03 -0.36451698D-03
 -0.57374051D-03 -0.86557560D-03 -0.12633771D-02 -0.17368103D-02 -0.22187765D-02
 -0.24135421D-02 -0.19476106D-02 -0.32892379D-03  0.17389177D-02  0.20934511D-02
  0.13117423D-03 -0.92281377D-03 -0.37256496D-03  0.18349486D-05  0.22811220D-04
  0.49419207D-04  0.84130272D-04  0.13768943D-03  0.21669528D-03  0.32698881D-03
  0.47729578D-03  0.65687135D-03  0.84031721D-03  0.91803806D-03  0.74543820D-03
  0.12875613D-03 -0.69925083D-03 -0.88884109D-03 -0.45981818D-04  0.50937455D-03
  0.37944299D-03 -0.14699963D-03  0.13312976D-03  0.21986733D-04  0.13941154D-06
  0.28479543D-16  0.40781010D-16  0.53746561D-16  0.61568339D-16  0.56341895D-16
  0.35784591D-16  0.12258883D-16  0.13468982D-17  0.15877986D-19  0.30603531D-20
  0.31543736D-22 -0.42476351D-16 -0.60823605D-16 -0.80161321D-16 -0.91827258D-16
 -0.84032181D-16 -0.53371603D-16 -0.18283742D-16 -0.20088567D-17 -0.23681522D-19
 -0.45644213D-20 -0.47046499D-22  0.11233791D-03  0.16086120D-03  0.21200398D-03
  0.24285708D-03  0.22224131D-03  0.14115276D-03  0.48355318D-04  0.53128566D-05
  0.62630913D-07  0.12071601D-07  0.12442466D-09  0.62484470D-17  0.90088334D-17
  0.11971207D-16  0.14123649D-16  0.13491903D-16  0.92075468D-17  0.28548887D-17
 -0.14202834D-17 -0.14251247D-17 -0.35899428D-18  0.41713265D-21 -0.31258714D-17
 -0.45067926D-17 -0.59887605D-17 -0.70655495D-17 -0.67495096D-17 -0.46062017D-17
 -0.14281973D-17  0.71051629D-18  0.71293819D-18  0.17959182D-18 -0.20867633D-21
 -0.87772432D-03 -0.12654780D-02 -0.16816049D-02 -0.19839603D-02 -0.18952183D-02
 -0.12933914D-02 -0.40102849D-03  0.19950835D-03  0.20018840D-03  0.50428213D-04
 -0.58594955D-07 -0.16688634D-17 -0.24125636D-17 -0.32055335D-17 -0.37985914D-17
 -0.36427321D-17 -0.25139983D-17 -0.76026927D-18  0.47613011D-18  0.48165645D-18
  0.13959239D-18 -0.54309906D-19 -0.10019293D-17 -0.14484218D-17 -0.19244943D-17
 -0.22805462D-17 -0.21869735D-17 -0.15093198D-17 -0.45644004D-18  0.28585247D-18
  0.28917029D-18  0.83806568D-19 -0.32605837D-19  0.65918003D-03  0.95293222D-03
  0.12661454D-02  0.15003958D-02  0.14388333D-02  0.99299764D-03  0.30029678D-03
 -0.18806540D-03 -0.19024823D-03 -0.55137238D-04  0.21451729D-04  0.15406838D-18
 -0.23875833D-19  0.97504426D-06  0.56017688D-20  0.13924625D-20 -0.12800435D-04
 -0.52211200D-21 -0.40149284D-21 -0.38592127D-06 -0.11022306D-03 -0.11258130D-03
 -0.92185768D-04 -0.58065902D-04 -0.25289498D-04 -0.71610024D-05 -0.11927532D-05
 -0.11022306D-03 -0.11258130D-03 -0.92185768D-04 -0.58065902D-04 -0.25289498D-04
 -0.71610024D-05 -0.11927532D-05  0.22044613D-03  0.22516261D-03  0.18437154D-03
  0.11613180D-03  0.50578995D-04  0.14322005D-04  0.23855065D-05 -0.39268961D-18
 -0.40109126D-18 -0.32842848D-18 -0.20687028D-18 -0.90098410D-19 -0.25512366D-19
 -0.42493991D-20 -0.52004331D-17 -0.53116972D-17 -0.43494157D-17 -0.27396066D-17
 -0.11931835D-17 -0.33786317D-18 -0.56275277D-19  0.10622214D-17  0.10849478D-17
  0.88839573D-18  0.55958203D-18  0.24371529D-18  0.69010695D-19  0.11494582D-19
  0.64170382D-05  0.64170382D-05 -0.12834076D-04  0.17203196D-20  0.13513354D-19
 -0.73281595D-20 -0.37747641D-05 -0.37747641D-05  0.75495283D-05 -0.30283788D-21
  0.69415228D-20  0.10672384D-19 -0.99586932D-06 -0.99586932D-06  0.19917386D-05
  0.17345139D-22 -0.13250842D-21  0.29042234D-21  0.18168341D-20  0.14657092D-20
  0.28311658D-05  0.18321015D-20  0.15185302D-20 -0.42467487D-05 -0.72826038D-20
 -0.59156578D-20 -0.42467487D-05 -0.20331911D-21  0.17731604D-21 -0.64183549D-23
 -0.24032950D-05  0.17831631D-21 -0.15777583D-22  0.36049424D-05 -0.71026445D-21
  0.35032647D-22  0.36049424D-05  0.12316626D-21  0.55124790D+00  0.10303309D+01
  0.17835912D+01  0.29214211D+01  0.45721203D+01  0.68561324D+01  0.97506170D+01
  0.12803063D+02  0.14584021D+02  0.12794196D+02  0.68088141D+01  0.14703574D+01
  0.55267511D-01  0.13198032D-02 -0.35034099D-03  0.31359287D-04 -0.25404891D-04
 -0.15120353D-05  0.21987558D-04  0.41585929D-04  0.71916151D-04  0.11778864D-03
  0.18526861D-03  0.27944197D-03  0.40647132D-03  0.55627197D-03  0.70093586D-03
  0.74396278D-03  0.56915859D-03  0.89602316D-04 -0.37329582D-03 -0.29810293D-03
 -0.50414113D-04 -0.99473094D-06 -0.15783087D-06 -0.48116309D-08 -0.70657237D-04
 -0.13606655D-03 -0.23607359D-03 -0.38705047D-03 -0.60920764D-03 -0.91908322D-03
 -0.13414758D-02 -0.18441754D-02 -0.23559354D-02 -0.25627410D-02 -0.20680068D-02
 -0.34925700D-03  0.18464130D-02  0.22228628D-02  0.13928308D-03 -0.97985971D-03
 -0.39559595D-03  0.19483804D-05  0.24317116D-04  0.52681645D-04  0.89684183D-04
  0.14677909D-03  0.23100055D-03  0.34857517D-03  0.50880475D-03  0.70023510D-03
  0.89579126D-03  0.97864290D-03  0.79464875D-03  0.13725604D-03 -0.74541229D-03
 -0.94751847D-03 -0.49017335D-04  0.54300122D-03  0.40449215D-03 -0.15670390D-03
  0.14216188D-03  0.27450587D-04  0.10233284D-05  0.10659551D-16  0.15263842D-16
  0.20116691D-16  0.23044289D-16  0.21088094D-16  0.13393742D-16  0.45883526D-17
  0.50412780D-18  0.59429393D-20  0.11454534D-20  0.11806441D-22 -0.84907155D-17
 -0.12158199D-16 -0.16023668D-16 -0.18355605D-16 -0.16797425D-16 -0.10668598D-16
 -0.36547879D-17 -0.40155593D-18 -0.47337649D-20 -0.91239482D-21 -0.94042549D-23
 -0.13810976D-03 -0.19776496D-03 -0.26064059D-03 -0.29857181D-03 -0.27322650D-03
 -0.17353514D-03 -0.59448688D-04 -0.65316985D-05 -0.76999301D-07 -0.14840991D-07
 -0.15296937D-09  0.22175103D-17  0.31971433D-17  0.42484594D-17  0.50123395D-17
  0.47881390D-17  0.32676647D-17  0.10131709D-17 -0.50404414D-18 -0.50576225D-18
 -0.12740342D-18  0.14803613D-21 -0.11396989D-18 -0.16431855D-18 -0.21835139D-18
 -0.25761133D-18 -0.24608845D-18 -0.16794302D-18 -0.52072354D-19  0.25905564D-19
  0.25993867D-19  0.65479531D-20 -0.76083803D-23  0.10074941D-02  0.14525763D-02
  0.19302268D-02  0.22772847D-02  0.21754225D-02  0.14846167D-02  0.46031973D-03
 -0.22900525D-03 -0.22978584D-03 -0.57883921D-04  0.67258100D-07 -0.21650802D-18
 -0.31299108D-18 -0.41586609D-18 -0.49280576D-18 -0.47258553D-18 -0.32615059D-18
 -0.98632633D-19  0.61770177D-19  0.62487129D-19  0.18109854D-19 -0.70458313D-20
 -0.51601022D-18 -0.74596127D-18 -0.99114645D-18 -0.11745191D-17 -0.11263276D-17
 -0.77732473D-18 -0.23507419D-18  0.14721876D-18  0.14892750D-18  0.43161772D-19
 -0.16792547D-19 -0.75401658D-03 -0.10900310D-02 -0.14483063D-02 -0.17162584D-02
 -0.16458389D-02 -0.11358607D-02 -0.34350063D-03  0.21512246D-03  0.21761933D-03
  0.63069859D-04 -0.24537999D-04  0.51429001D-19  0.17152341D-19  0.12157130D-05
  0.26736279D-20  0.84524629D-20  0.14334867D-04 -0.79913894D-22 -0.38903714D-21
  0.43788562D-06 -0.12067938D-03 -0.12326134D-03 -0.10093098D-03 -0.63574327D-04
 -0.27688587D-04 -0.78403314D-05 -0.13059038D-05 -0.12067938D-03 -0.12326134D-03
 -0.10093098D-03 -0.63574327D-04 -0.27688587D-04 -0.78403314D-05 -0.13059038D-05
  0.24135876D-03  0.24652267D-03  0.20186195D-03  0.12714865D-03  0.55377175D-04
  0.15680663D-04  0.26118077D-05  0.23442151D-17  0.23943700D-17  0.19605994D-17
  0.12349409D-17  0.53785497D-18  0.15229961D-18  0.25367378D-19 -0.85858169D-17
 -0.87695118D-17 -0.71808032D-17 -0.45230389D-17 -0.19699234D-17 -0.55780572D-18
 -0.92909419D-19  0.41787571D-17  0.42681623D-17  0.34949304D-17  0.22013841D-17
  0.95877092D-18  0.27148664D-18  0.45219448D-19  0.68416945D-05  0.68416945D-05
 -0.13683389D-04 -0.89139080D-20  0.23997930D-19 -0.32977524D-19 -0.35599798D-05
 -0.35599798D-05  0.71199595D-05  0.10100882D-20  0.65336321D-20  0.13612071D-19
 -0.10490446D-05 -0.10490446D-05  0.20980893D-05 -0.60320429D-22  0.12039201D-21