 Molden2AIM, Version 4.0.0 (06/02/2016)           Time: Fri Jun 29 23:15:10 2018
GAUSSIAN              3 MOL ORBITALS    102 PRIMITIVES        2 NUCLEI
  B    1    (CENTRE  1)   0.00000000  0.00000000  2.65025774  CHARGE =  5.0
  H    2    (CENTRE  2)   0.00000000  0.00000000  0.30508494  CHARGE =  1.0
CENTRE ASSIGNMENTS    1  1  1  1  1  1  1  1  1  1  1  1  1  1  1  1  1  1  1  1
CENTRE ASSIGNMENTS    1  1  1  1  1  1  1  1  1  1  1  1  1  1  1  1  1  1  1  1
CENTRE ASSIGNMENTS    1  1  1  1  1  1  1  1  1  1  1  1  1  1  1  1  1  1  1  1
CENTRE ASSIGNMENTS    1  1  1  1  1  1  1  1  1  1  1  1  1  1  1  2  2  2  2  2
CENTRE ASSIGNMENTS    2  2  2  2  2  2  2  2  2  2  2  2  2  2  2  2  2  2  2  2
CENTRE ASSIGNMENTS    2  2
TYPE ASSIGNMENTS      1  1  1  1  1  1  1  1  1  1  1  1  1  1  1  1  1  1  1  2
TYPE ASSIGNMENTS      2  2  3  3  3  4  4  4  2  3  4  2  3  4  2  3  4  5  6  7
TYPE ASSIGNMENTS      8  9 10  5  6  7  8  9 10  5  6  7  8  9 10 11 12 13 17 14
TYPE ASSIGNMENTS     15 18 19 16 20 11 12 13 17 14 15 18 19 16 20  1  1  1  1  1
TYPE ASSIGNMENTS      1  2  3  4  2  3  4  2  3  4  5  6  7  8  9 10  5  6  7  8
TYPE ASSIGNMENTS      9 10
EXPONENTS  0.5473000D+04 0.8209000D+03 0.1868000D+03 0.5283000D+02 0.1708000D+02
EXPONENTS  0.5999000D+01 0.2208000D+01 0.2415000D+00 0.5473000D+04 0.8209000D+03
EXPONENTS  0.1868000D+03 0.5283000D+02 0.1708000D+02 0.5999000D+01 0.2208000D+01
EXPONENTS  0.2415000D+00 0.5879000D+00 0.8610000D-01 0.2914000D-01 0.1205000D+02
EXPONENTS  0.2613000D+01 0.7475000D+00 0.1205000D+02 0.2613000D+01 0.7475000D+00
EXPONENTS  0.1205000D+02 0.2613000D+01 0.7475000D+00 0.2385000D+00 0.2385000D+00
EXPONENTS  0.2385000D+00 0.7698000D-01 0.7698000D-01 0.7698000D-01 0.2096000D-01
EXPONENTS  0.2096000D-01 0.2096000D-01 0.6610000D+00 0.6610000D+00 0.6610000D+00
EXPONENTS  0.6610000D+00 0.6610000D+00 0.6610000D+00 0.1990000D+00 0.1990000D+00
EXPONENTS  0.1990000D+00 0.1990000D+00 0.1990000D+00 0.1990000D+00 0.6040000D-01
EXPONENTS  0.6040000D-01 0.6040000D-01 0.6040000D-01 0.6040000D-01 0.6040000D-01
EXPONENTS  0.4900000D+00 0.4900000D+00 0.4900000D+00 0.4900000D+00 0.4900000D+00
EXPONENTS  0.4900000D+00 0.4900000D+00 0.4900000D+00 0.4900000D+00 0.4900000D+00
EXPONENTS  0.1630000D+00 0.1630000D+00 0.1630000D+00 0.1630000D+00 0.1630000D+00
EXPONENTS  0.1630000D+00 0.1630000D+00 0.1630000D+00 0.1630000D+00 0.1630000D+00
EXPONENTS  0.3387000D+02 0.5095000D+01 0.1159000D+01 0.3258000D+00 0.1027000D+00
EXPONENTS  0.2526000D-01 0.1407000D+01 0.1407000D+01 0.1407000D+01 0.3880000D+00
EXPONENTS  0.3880000D+00 0.3880000D+00 0.1020000D+00 0.1020000D+00 0.1020000D+00
EXPONENTS  0.1057000D+01 0.1057000D+01 0.1057000D+01 0.1057000D+01 0.1057000D+01
EXPONENTS  0.1057000D+01 0.2470000D+00 0.2470000D+00 0.2470000D+00 0.2470000D+00
EXPONENTS  0.2470000D+00 0.2470000D+00
MO    1     MO 0.0        OCC NO =    2.0000000  ORB. ENERGY =   -6.724981
  0.25346709D+00  0.47231932D+00  0.79598869D+00  0.11876086D+01  0.14385255D+01
  0.11969604D+01  0.44455732D+00 -0.23600613D-02 -0.20621515D-02 -0.38518633D-02
 -0.65558907D-02 -0.10026511D-01 -0.13040073D-01 -0.13199510D-01 -0.86912079D-02
  0.59409202D-02  0.21481492D-01  0.37176147D-02 -0.52439463D-04  0.85979446D-17
  0.77489437D-17  0.56262357D-17  0.23143740D-15  0.20858420D-15  0.15144565D-15
 -0.33867899D-02 -0.30523626D-02 -0.22162132D-02 -0.95707253D-18 -0.37719191D-16
 -0.49935639D-02  0.85352261D-19 -0.60358251D-18 -0.60058591D-03 -0.49355109D-20
 -0.16018289D-18  0.87941975D-05 -0.19115369D-02 -0.19115369D-02  0.38230738D-02
  0.93791057D-19 -0.38548752D-18 -0.12097364D-16 -0.35252896D-03 -0.35252896D-03
  0.70505792D-03 -0.89612068D-20  0.91501698D-19  0.10311563D-16 -0.27060245D-05
 -0.27060245D-05  0.54120490D-05  0.68992701D-21  0.66092356D-21  0.49650020D-18
 -0.51292008D-19  0.22488165D-18 -0.77796075D-03 -0.51101412D-19 -0.35330514D-18
  0.11669411D-02  0.20497744D-18 -0.32133983D-18  0.11669411D-02  0.34301756D-19
  0.45622260D-20  0.38762558D-18 -0.16842168D-04  0.53509609D-20  0.40582160D-18
  0.25263252D-04 -0.19037639D-19 -0.15686983D-17  0.25263252D-04 -0.59678926D-21
  0.30554583D-03  0.55106449D-03  0.81254427D-03 -0.68689475D-02 -0.45742203D-02
 -0.23931983D-04 -0.24184100D-18 -0.17792785D-16 -0.88695110D-04  0.18951653D-18
  0.21108389D-16 -0.62874537D-02  0.33739990D-19  0.75698625D-17 -0.99306993D-03
  0.13684425D-02  0.13684425D-02 -0.27368851D-02 -0.17257416D-19 -0.77718969D-18
 -0.21255376D-16  0.28319450D-03  0.28319450D-03 -0.56638899D-03  0.37694652D-20
  0.60406567D-19  0.10314565D-16
MO    2     MO 0.0        OCC NO =    2.0000000  ORB. ENERGY =   -0.453200
 -0.45372555D-02 -0.84548786D-02 -0.14248809D-01 -0.21259106D-01 -0.25750712D-01
 -0.21426511D-01 -0.79579175D-02  0.42246910D-04 -0.37224538D-01 -0.69531184D-01
 -0.11834242D+00 -0.18099168D+00 -0.23539042D+00 -0.23826846D+00 -0.15688770D+00
  0.10724140D+00  0.40340472D-01  0.15223789D-01 -0.17305473D-02  0.11317361D-15
  0.10199832D-15  0.74057396D-16  0.12898450D-14  0.11624797D-14  0.84403565D-15
 -0.14184844D+00 -0.12784167D+00 -0.92821341D-01 -0.77367402D-17  0.48117483D-15
 -0.30698807D-01 -0.34818951D-17  0.22685144D-16  0.68281450D-03 -0.89018475D-20
  0.24618186D-18  0.10948670D-03 -0.66643749D-02 -0.66643749D-02  0.13328750D-01
 -0.14201694D-17 -0.55846036D-17 -0.23783666D-15 -0.82865375D-03 -0.82865375D-03
  0.16573075D-02  0.98456465D-19 -0.31480666D-17 -0.29375188D-16  0.16496659D-04
  0.16496659D-04 -0.32993318D-04  0.16657749D-19 -0.34073887D-19  0.17542313D-20
 -0.16705556D-17 -0.26783116D-16 -0.19423303D-02 -0.65926710D-18 -0.23142982D-16
  0.29134954D-02  0.56709338D-17  0.10349233D-15  0.29134954D-02 -0.26384209D-18
 -0.19354619D-18 -0.19158044D-17 -0.26745170D-03 -0.94511362D-19 -0.25047489D-17
  0.40117756D-03  0.67514995D-18  0.82521622D-17  0.40117756D-03 -0.55477044D-19
  0.40191553D-01  0.72487120D-01  0.10688222D+00  0.66327147D-01  0.20972673D-01
  0.14325493D-02  0.11659896D-17  0.11603748D-15  0.20275976D-01  0.68080653D-19
  0.11001246D-15  0.91744696D-02 -0.56431083D-19  0.74693614D-17  0.12441166D-02
 -0.24305423D-02 -0.24305423D-02  0.48610846D-02 -0.25010118D-18  0.44296298D-17
  0.14787559D-15 -0.24757384D-03 -0.24757384D-03  0.49514768D-03 -0.28272862D-18
 -0.10581826D-17 -0.14204507D-17
MO    3     MO 0.0        OCC NO =    2.0000000  ORB. ENERGY =   -0.209224
 -0.87424944D-03 -0.16291066D-02 -0.27454952D-02 -0.40962563D-02 -0.49617098D-02
 -0.41285122D-02 -0.15333509D-02  0.81402375D-05 -0.29194995D-01 -0.54532916D-01
 -0.92815297D-01 -0.14195076D+00 -0.18461538D+00 -0.18687261D+00 -0.12304614D+00
  0.84108826D-01  0.34633461D-01  0.45529306D-01  0.16005813D-02  0.54062730D-15
  0.48724325D-15  0.35377020D-15  0.31426076D-14  0.28322919D-14  0.20564276D-14
  0.29254254D+00  0.26365554D+00  0.19143102D+00  0.22174611D-15  0.10709216D-14
  0.76034634D-01  0.41558149D-16  0.10844135D-15  0.88213913D-02  0.20560862D-18
 -0.10619551D-18  0.11063877D-03  0.95967594D-02  0.95967594D-02 -0.19193519D-01
 -0.28866250D-17  0.12820600D-16  0.62958279D-15  0.24736761D-02  0.24736761D-02
 -0.49473521D-02  0.15583224D-18  0.12511990D-16  0.20751951D-15  0.26578013D-04
  0.26578013D-04 -0.53156025D-04 -0.93833521D-20  0.98565703D-19  0.62216764D-17
 -0.57241858D-18  0.24736845D-17  0.91810456D-03  0.99972698D-18  0.79055363D-18
 -0.13771568D-02  0.71752877D-18 -0.82116070D-17 -0.13771568D-02 -0.36500832D-18
 -0.10316751D-18  0.11707897D-17 -0.98315128D-05 -0.13194390D-18  0.62184612D-18
  0.14747269D-04  0.44144642D-18 -0.41342151D-17  0.14747269D-04  0.27104305D-19
 -0.30349771D-01 -0.54737062D-01 -0.80709767D-01 -0.46667410D-01 -0.23865348D-01
 -0.15010585D-03  0.23797526D-16 -0.49614939D-16 -0.80298259D-02  0.35851167D-16
  0.10720358D-15  0.90622345D-02  0.84032322D-18 -0.28825287D-18 -0.58220504D-03
 -0.12807635D-02 -0.12807635D-02  0.25615270D-02  0.47487051D-18  0.27056834D-16
  0.17382756D-15 -0.18144341D-04 -0.18144341D-04  0.36288683D-04 -0.11092369D-18
  0.11327048D-17  0.51745267D-18
END DATA
RHF
