 Molden2AIM, Version 4.0.0 (06/02/2016)           Time: Fri Jun 29 23:12:48 2018
GAUSSIAN              7 MOL ORBITALS    150 PRIMITIVES        2 NUCLEI
  C    1    (CENTRE  1)   0.00000000  0.00000000  0.00687104  CHARGE =  6.0
  N    2    (CENTRE  2)   0.00000000  0.00000000  2.21733660  CHARGE =  7.0
CENTRE ASSIGNMENTS    1  1  1  1  1  1  1  1  1  1  1  1  1  1  1  1  1  1  1  1
CENTRE ASSIGNMENTS    1  1  1  1  1  1  1  1  1  1  1  1  1  1  1  1  1  1  1  1
CENTRE ASSIGNMENTS    1  1  1  1  1  1  1  1  1  1  1  1  1  1  1  1  1  1  1  1
CENTRE ASSIGNMENTS    1  1  1  1  1  1  1  1  1  1  1  1  1  1  1  2  2  2  2  2
CENTRE ASSIGNMENTS    2  2  2  2  2  2  2  2  2  2  2  2  2  2  2  2  2  2  2  2
CENTRE ASSIGNMENTS    2  2  2  2  2  2  2  2  2  2  2  2  2  2  2  2  2  2  2  2
CENTRE ASSIGNMENTS    2  2  2  2  2  2  2  2  2  2  2  2  2  2  2  2  2  2  2  2
CENTRE ASSIGNMENTS    2  2  2  2  2  2  2  2  2  2
TYPE ASSIGNMENTS      1  1  1  1  1  1  1  1  1  1  1  1  1  1  1  1  1  1  1  2
TYPE ASSIGNMENTS      2  2  3  3  3  4  4  4  2  3  4  2  3  4  2  3  4  5  6  7
TYPE ASSIGNMENTS      8  9 10  5  6  7  8  9 10  5  6  7  8  9 10 11 12 13 17 14
TYPE ASSIGNMENTS     15 18 19 16 20 11 12 13 17 14 15 18 19 16 20  1  1  1  1  1
TYPE ASSIGNMENTS      1  1  1  1  1  1  1  1  1  1  1  1  1  1  2  2  2  3  3  3
TYPE ASSIGNMENTS      4  4  4  2  3  4  2  3  4  2  3  4  5  6  7  8  9 10  5  6
TYPE ASSIGNMENTS      7  8  9 10  5  6  7  8  9 10 11 12 13 17 14 15 18 19 16 20
TYPE ASSIGNMENTS     11 12 13 17 14 15 18 19 16 20
EXPONENTS  0.8236000D+04 0.1235000D+04 0.2808000D+03 0.7927000D+02 0.2559000D+02
EXPONENTS  0.8997000D+01 0.3319000D+01 0.3643000D+00 0.8236000D+04 0.1235000D+04
EXPONENTS  0.2808000D+03 0.7927000D+02 0.2559000D+02 0.8997000D+01 0.3319000D+01
EXPONENTS  0.3643000D+00 0.9059000D+00 0.1285000D+00 0.4402000D-01 0.1871000D+02
EXPONENTS  0.4133000D+01 0.1200000D+01 0.1871000D+02 0.4133000D+01 0.1200000D+01
EXPONENTS  0.1871000D+02 0.4133000D+01 0.1200000D+01 0.3827000D+00 0.3827000D+00
EXPONENTS  0.3827000D+00 0.1209000D+00 0.1209000D+00 0.1209000D+00 0.3569000D-01
EXPONENTS  0.3569000D-01 0.3569000D-01 0.1097000D+01 0.1097000D+01 0.1097000D+01
EXPONENTS  0.1097000D+01 0.1097000D+01 0.1097000D+01 0.3180000D+00 0.3180000D+00
EXPONENTS  0.3180000D+00 0.3180000D+00 0.3180000D+00 0.3180000D+00 0.1000000D+00
EXPONENTS  0.1000000D+00 0.1000000D+00 0.1000000D+00 0.1000000D+00 0.1000000D+00
EXPONENTS  0.7610000D+00 0.7610000D+00 0.7610000D+00 0.7610000D+00 0.7610000D+00
EXPONENTS  0.7610000D+00 0.7610000D+00 0.7610000D+00 0.7610000D+00 0.7610000D+00
EXPONENTS  0.2680000D+00 0.2680000D+00 0.2680000D+00 0.2680000D+00 0.2680000D+00
EXPONENTS  0.2680000D+00 0.2680000D+00 0.2680000D+00 0.2680000D+00 0.2680000D+00
EXPONENTS  0.1142000D+05 0.1712000D+04 0.3893000D+03 0.1100000D+03 0.3557000D+02
EXPONENTS  0.1254000D+02 0.4644000D+01 0.5118000D+00 0.1142000D+05 0.1712000D+04
EXPONENTS  0.3893000D+03 0.1100000D+03 0.3557000D+02 0.1254000D+02 0.4644000D+01
EXPONENTS  0.5118000D+00 0.1293000D+01 0.1787000D+00 0.5760000D-01 0.2663000D+02
EXPONENTS  0.5948000D+01 0.1742000D+01 0.2663000D+02 0.5948000D+01 0.1742000D+01
EXPONENTS  0.2663000D+02 0.5948000D+01 0.1742000D+01 0.5550000D+00 0.5550000D+00
EXPONENTS  0.5550000D+00 0.1725000D+00 0.1725000D+00 0.1725000D+00 0.4910000D-01
EXPONENTS  0.4910000D-01 0.4910000D-01 0.1654000D+01 0.1654000D+01 0.1654000D+01
EXPONENTS  0.1654000D+01 0.1654000D+01 0.1654000D+01 0.4690000D+00 0.4690000D+00
EXPONENTS  0.4690000D+00 0.4690000D+00 0.4690000D+00 0.4690000D+00 0.1510000D+00
EXPONENTS  0.1510000D+00 0.1510000D+00 0.1510000D+00 0.1510000D+00 0.1510000D+00
EXPONENTS  0.1093000D+01 0.1093000D+01 0.1093000D+01 0.1093000D+01 0.1093000D+01
EXPONENTS  0.1093000D+01 0.1093000D+01 0.1093000D+01 0.1093000D+01 0.1093000D+01
EXPONENTS  0.3640000D+00 0.3640000D+00 0.3640000D+00 0.3640000D+00 0.3640000D+00
EXPONENTS  0.3640000D+00 0.3640000D+00 0.3640000D+00 0.3640000D+00 0.3640000D+00
MO    1     MO 0.0        OCC NO =    2.0000000  ORB. ENERGY =  -13.874032
 -0.40133474D-03 -0.74817920D-03 -0.12645547D-02 -0.19010399D-02 -0.23356471D-02
 -0.19728274D-02 -0.74407790D-03  0.36824831D-05  0.29629525D-03  0.55475820D-03
  0.94452331D-03  0.14610339D-02  0.19241303D-02  0.19992946D-02  0.12704620D-02
 -0.85143408D-03  0.14845461D-02 -0.17456328D-02 -0.99094339D-04  0.49228481D-15
  0.46154830D-15  0.32864989D-15 -0.11605404D-15 -0.10880804D-15 -0.77477807D-16
  0.18142442D-02  0.17009692D-02  0.12111914D-02 -0.11416895D-16 -0.60465868D-17
 -0.39904927D-02 -0.37772465D-17 -0.11708060D-17 -0.11199627D-02 -0.33062854D-19
 -0.59713754D-20 -0.12513323D-04  0.13361018D-02  0.13361018D-02 -0.26722037D-02
 -0.16499188D-20 -0.21538402D-17 -0.26335443D-17  0.80616880D-03  0.80616880D-03
 -0.16123376D-02  0.14957102D-19 -0.75600481D-17 -0.37397216D-17  0.44040685D-04
  0.44040685D-04 -0.88081370D-04 -0.23175417D-20 -0.58514037D-18 -0.16834200D-18
  0.11084081D-17  0.92070910D-18 -0.14437454D-02  0.10997113D-17  0.90173364D-18
  0.21656181D-02 -0.44249355D-17 -0.36638609D-17  0.21656181D-02 -0.42562033D-19
  0.15970492D-18  0.10897935D-18 -0.15572667D-03  0.15988459D-18  0.11049491D-18
  0.23359000D-03 -0.63899935D-18 -0.43743297D-18  0.23359000D-03  0.11981981D-19
  0.41274699D+00  0.76909324D+00  0.13007295D+01  0.19588265D+01  0.24251543D+01
  0.20636969D+01  0.78527473D+00 -0.36777766D-02 -0.17455411D-02 -0.32729059D-02
 -0.55681868D-02 -0.86468062D-02 -0.11474815D-01 -0.12092880D-01 -0.74983568D-02
  0.49879098D-02  0.41614330D-01  0.30495707D-02 -0.62139480D-05  0.66979341D-17
  0.64332857D-17  0.45114640D-17 -0.18159509D-16 -0.17441991D-16 -0.12231528D-16
 -0.25332088D-02 -0.24331168D-02 -0.17062694D-02  0.27001047D-17  0.50365667D-17
 -0.52144514D-02  0.72117746D-17  0.24365571D-17  0.44998093D-03  0.31951929D-18
  0.82841308D-19  0.47549269D-04 -0.29833129D-02 -0.29833129D-02  0.59666257D-02
  0.46256243D-17  0.57412295D-17 -0.40221669D-17 -0.94510898D-04 -0.94510898D-04
  0.18902180D-03 -0.24077855D-18 -0.10944186D-16 -0.54648967D-17  0.10140065D-03
  0.10140065D-03 -0.20280131D-03  0.13301565D-19 -0.22208346D-17 -0.72907341D-18
  0.22332610D-17  0.60956003D-19 -0.12076916D-02  0.29703323D-17 -0.36671733D-19
  0.18115374D-02 -0.96701154D-17 -0.14619628D-18  0.18115374D-02 -0.47051299D-18
 -0.12019674D-17 -0.43487811D-18  0.17422524D-03 -0.12089049D-17 -0.44279725D-18
 -0.26133786D-03  0.48148071D-17  0.17474316D-17 -0.26133786D-03  0.47378849D-20
MO    2     MO 0.0        OCC NO =    2.0000000  ORB. ENERGY =   -9.767128
  0.32939286D+00  0.61406319D+00  0.10378750D+01  0.15602660D+01  0.19169671D+01
  0.16191852D+01  0.61069707D+00 -0.30223739D-02 -0.26398339D-02 -0.49426021D-02
 -0.84152029D-02 -0.13017039D-01 -0.17142983D-01 -0.17812657D-01 -0.11319144D-01
  0.75858271D-02  0.32705806D-01  0.68363823D-02  0.89124085D-03 -0.33690728D-16
 -0.31587199D-16 -0.22491967D-16  0.30016035D-16  0.28141941D-16  0.20038738D-16
  0.37037967D-02  0.34725449D-02  0.24726588D-02  0.60231016D-17 -0.85533444D-17
  0.71318632D-02  0.10143697D-17 -0.17634974D-17  0.14135625D-02  0.40237002D-19
 -0.52501009D-19  0.42942508D-04 -0.31970957D-02 -0.31970957D-02  0.63941914D-02
 -0.32927754D-17 -0.91322116D-17  0.51225935D-17 -0.38023989D-03 -0.38023989D-03
  0.76047979D-03 -0.94983851D-19  0.31392785D-17 -0.51379071D-17 -0.10886198D-04
 -0.10886198D-04  0.21772396D-04 -0.11073328D-20  0.21598825D-18 -0.33760702D-18
 -0.91645437D-19  0.63379292D-18  0.12748914D-02  0.70433647D-18  0.47737273D-18
 -0.19123370D-02 -0.42940016D-18 -0.23787515D-17 -0.19123370D-02 -0.64694494D-18
 -0.12462284D-18  0.18457216D-18 -0.43015371D-04 -0.17143189D-18  0.20727784D-18
  0.64523056D-04  0.54530043D-18 -0.76099431D-18  0.64523056D-04 -0.66436956D-19
 -0.71778349D-03 -0.13374838D-02 -0.22620205D-02 -0.34064775D-02 -0.42174401D-02
 -0.35888512D-02 -0.13656241D-02  0.63958002D-05  0.37414213D-03  0.70151998D-03
  0.11934942D-02  0.18533705D-02  0.24595305D-02  0.25920075D-02  0.16072100D-02
 -0.10691167D-02  0.95901148D-03 -0.88640574D-02 -0.21152249D-02  0.11322829D-17
  0.10875442D-17  0.76266106D-18 -0.26152590D-17 -0.25119250D-17 -0.17615352D-17
 -0.33645669D-02 -0.32316263D-02 -0.22662394D-02 -0.17597176D-17  0.36199702D-17
  0.68002400D-02 -0.24856159D-17  0.39880979D-17  0.43103335D-02 -0.99482289D-19
  0.15745985D-18  0.18710902D-03  0.43882047D-03  0.43882047D-03 -0.87764094D-03
  0.31969922D-19 -0.39308701D-17  0.60939164D-17  0.16881704D-02  0.16881704D-02
 -0.33763409D-02  0.15425308D-18  0.28853723D-17 -0.62785958D-17  0.18084102D-03
  0.18084102D-03 -0.36168204D-03  0.87547005D-20  0.73000987D-18 -0.11172954D-17
 -0.97057182D-18  0.41267646D-18  0.10452520D-02 -0.93608727D-18  0.20902049D-18
 -0.15678779D-02  0.38478027D-17 -0.14470499D-17 -0.15678779D-02 -0.10703120D-17
  0.19892930D-18 -0.40154777D-18  0.39442759D-03  0.19251718D-18 -0.37501306D-18
 -0.59164139D-03 -0.78930507D-18  0.15796564D-17 -0.59164139D-03 -0.33061220D-19
MO    3     MO 0.0        OCC NO =    2.0000000  ORB. ENERGY =   -0.587248
 -0.85675816D-02 -0.15971920D-01 -0.26995359D-01 -0.40582867D-01 -0.49860741D-01
 -0.42115366D-01 -0.15884367D-01  0.78612617D-04 -0.35384617D-01 -0.66251168D-01
 -0.11279828D+00 -0.17448179D+00 -0.22978638D+00 -0.23876277D+00 -0.15172302D+00
  0.10168124D+00  0.45989687D-01  0.22517282D-01  0.22110672D-02  0.23902632D-15
  0.22410237D-15  0.15957424D-15  0.28166236D-15  0.26407637D-15  0.18803811D-15
  0.27848625D+00  0.26109856D+00  0.18591773D+00  0.15869892D-15  0.15785189D-16
  0.53659692D-01 -0.12852535D-17 -0.19116072D-17  0.20524706D-02  0.54694938D-18
  0.66935573D-18 -0.12941050D-04 -0.21321153D-01 -0.21321153D-01  0.42642307D-01
 -0.78176085D-17 -0.27699135D-16  0.36958364D-16 -0.76142706D-03 -0.76142706D-03
  0.15228541D-02 -0.13580621D-16 -0.16145097D-16  0.10869862D-16  0.11760087D-03
  0.11760087D-03 -0.23520174D-03  0.87660995D-19  0.24173170D-18  0.25532237D-17
  0.60827159D-17 -0.70404869D-17  0.62413844D-02 -0.48460630D-18  0.55160987D-17
 -0.93620766D-02 -0.17763541D-16  0.15605362D-16 -0.93620766D-02 -0.48464815D-18
  0.88705784D-18 -0.14684431D-17 -0.47178089D-03 -0.51698286D-18  0.44348734D-18
  0.70767133D-03 -0.21441907D-17  0.39618421D-17  0.70767133D-03 -0.46126240D-17
 -0.96910671D-02 -0.18057876D-01 -0.30540396D-01 -0.45992144D-01 -0.56941258D-01
 -0.48454441D-01 -0.18437809D-01  0.86352124D-04 -0.65541357D-01 -0.12289066D+00
 -0.20907357D+00 -0.32466918D+00 -0.43085489D+00 -0.45406191D+00 -0.28154735D+00
  0.18728541D+00  0.96277703D-01  0.23791678D-01 -0.45794946D-02  0.32544107D-15
  0.31258226D-15  0.21920426D-15 -0.11165564D-15 -0.10724391D-15 -0.75206832D-16
 -0.37154612D+00 -0.35686560D+00 -0.25025879D+00  0.90026019D-16 -0.48429438D-16
 -0.74526461D-01  0.10021379D-16 -0.15475848D-16  0.70980408D-02 -0.41767792D-18
 -0.13642207D-17  0.72851992D-03 -0.23098193D-01 -0.23098193D-01  0.46196385D-01
 -0.83084860D-17 -0.67430982D-16 -0.15056459D-16 -0.75751383D-03 -0.75751383D-03
  0.15150277D-02  0.63997294D-17 -0.19444646D-16  0.10575183D-16  0.66495343D-03
  0.66495343D-03 -0.13299069D-02  0.18419603D-17 -0.15889411D-17  0.38686897D-17
 -0.15590713D-16  0.69347622D-17 -0.68540218D-02  0.20387912D-16 -0.94993264D-17
  0.10281033D-01  0.26384228D-16 -0.11304960D-16  0.10281033D-01 -0.27736963D-16
  0.14046057D-17 -0.11212678D-17  0.17777363D-03 -0.63407809D-17  0.25250926D-17
 -0.26666044D-03  0.21269637D-17  0.83871069D-18 -0.26666044D-03 -0.57967202D-17
MO    4     MO 0.0        OCC NO =    2.0000000  ORB. ENERGY =   -0.125503
 -0.37633063D-02 -0.70156585D-02 -0.11857699D-01 -0.17826005D-01 -0.21901307D-01
 -0.18499155D-01 -0.69772007D-02  0.34530556D-04 -0.43415668D-01 -0.81287829D-01
 -0.13839948D+00 -0.21408296D+00 -0.28193973D+00 -0.29295343D+00 -0.18615876D+00
  0.12475927D+00  0.58336248D-01  0.44460843D-01  0.50468500D-02 -0.17007764D-14
 -0.15945859D-14 -0.11354402D-14  0.73329043D-15  0.68750639D-15  0.48954551D-15
 -0.45194697D-01 -0.42372901D-01 -0.30172030D-01 -0.45920863D-15  0.17097076D-15
 -0.13009459D-01 -0.79941139D-16  0.59182942D-16 -0.43464587D-02 -0.37033401D-17
  0.19438854D-18 -0.16277650D-03 -0.39925550D-02 -0.39925550D-02  0.79851099D-02
 -0.53835781D-17 -0.21750438D-15  0.69830680D-16  0.96098609D-03  0.96098609D-03
 -0.19219722D-02  0.42036654D-17  0.23868847D-16 -0.15226895D-16  0.25344241D-04
  0.25344241D-04 -0.50688482D-04  0.53635385D-18 -0.45684399D-18 -0.62370186D-17
  0.72781993D-17 -0.70908142D-17  0.25357175D-02  0.17582166D-16 -0.15029082D-16
 -0.38035763D-02 -0.39416764D-16  0.36301525D-16 -0.38035763D-02 -0.30752202D-16
 -0.96423100D-18 -0.73887117D-20 -0.72557292D-04 -0.40180845D-17  0.31717690D-17
  0.10883594D-03  0.69107775D-17 -0.31496029D-17  0.10883594D-03  0.21968153D-19
  0.15714782D-02  0.29282182D-02  0.49523510D-02  0.74579662D-02  0.92334460D-02
  0.78572458D-02  0.29898270D-02 -0.14002635D-04  0.47234621D-01  0.88565356D-01
  0.15067602D+00  0.23398395D+00  0.31051032D+00  0.32723525D+00  0.20290673D+00
 -0.13497364D+00 -0.72556318D-01 -0.69336937D-01 -0.98186334D-02 -0.27232685D-14
 -0.26156668D-14 -0.18342861D-14  0.17927132D-14  0.17218796D-14  0.12075008D-14
 -0.66100091D+00 -0.63488347D+00 -0.44522411D+00 -0.72086171D-15  0.44854788D-15
 -0.14891284D+00 -0.10633327D-15  0.90636250D-16 -0.20373611D-01 -0.11516621D-17
  0.43927887D-17 -0.58948090D-03 -0.14722826D-01 -0.14722826D-01  0.29445652D-01
  0.30926644D-16  0.27352029D-15 -0.99908191D-16 -0.22157422D-02 -0.22157422D-02
  0.44314845D-02  0.20297994D-17  0.74984103D-16 -0.10010305D-16  0.76786663D-04
  0.76786663D-04 -0.15357333D-03 -0.33445069D-17  0.25055320D-17 -0.89962337D-17
  0.35541363D-16 -0.18595213D-16 -0.34391972D-02  0.79541467D-17 -0.12235424D-16
  0.51587957D-02 -0.11457824D-15  0.68021062D-16  0.51587957D-02 -0.52451580D-17
 -0.51264947D-18  0.20421419D-18  0.14727042D-03  0.43827721D-17 -0.29866444D-18
 -0.22090564D-03 -0.28448237D-17 -0.31397814D-18 -0.22090564D-03  0.45763176D-17
MO    5     MO 0.0        OCC NO =    2.0000000  ORB. ENERGY =   -0.044285
 -0.46930998D-16 -0.87490051D-16 -0.14787360D-15 -0.22230246D-15 -0.27312425D-15
 -0.23069710D-15 -0.87010456D-16  0.43061960D-18  0.23578542D-16  0.44146470D-16
  0.75163143D-16  0.11626595D-15  0.15311817D-15  0.15909959D-15  0.10110065D-15
 -0.67755301D-16  0.13346401D-15 -0.12950586D-15  0.92249554D-16  0.31325505D+00
  0.29369652D+00  0.20912942D+00  0.30669997D+00  0.28755072D+00  0.20475324D+00
  0.31861403D-15  0.29872091D-15  0.21270708D-15  0.74848040D-01  0.73281792D-01
  0.19494111D-15  0.97364491D-02  0.95327072D-02 -0.85265810D-16  0.28949047D-03
  0.28343268D-03  0.15659243D-16 -0.85830903D-16  0.94967647D-16 -0.91367437D-17
 -0.34513245D-15  0.47152602D-01  0.46165901D-01  0.19674824D-17 -0.38045570D-16
  0.36078087D-16 -0.12974210D-15  0.47742671D-02  0.46743622D-02 -0.10191837D-16
 -0.63984138D-17  0.16590251D-16 -0.20962811D-16 -0.10115169D-03 -0.99035020D-04
 -0.25485943D-02 -0.24952632D-02  0.30762951D-16 -0.25560518D-02 -0.25025647D-02
 -0.21297295D-15  0.10201835D-01  0.99883543D-02  0.12068410D-15 -0.42592536D-15
 -0.14591278D-04 -0.14285945D-04 -0.31958947D-18 -0.14986649D-04 -0.14673043D-04
 -0.91546384D-17  0.58760483D-04  0.57530879D-04  0.10113407D-16  0.44314200D-16
 -0.49202165D-16 -0.91680989D-16 -0.15505554D-15 -0.23350505D-15 -0.28909440D-15
 -0.24600628D-15 -0.93609929D-16  0.43841523D-18  0.14764802D-15  0.27684142D-15
  0.47098963D-15  0.73139716D-15  0.97060657D-15  0.10228861D-14  0.63425463D-15
 -0.42190642D-15 -0.40821157D-17  0.38065921D-16 -0.84601396D-16  0.62508747D+00
  0.60038904D+00  0.42103424D+00  0.61200708D+00  0.58782549D+00  0.41222381D+00
 -0.15053925D-14 -0.14459115D-14 -0.10139730D-14  0.15697677D+00  0.15369192D+00
 -0.21131774D-15  0.26331568D-01  0.25780562D-01 -0.11085323D-15  0.12691595D-02
  0.12426015D-02 -0.15098367D-17 -0.57581160D-15  0.11806560D-15  0.45774600D-15
  0.84136483D-15 -0.60881080D-01 -0.59607101D-01  0.26663777D-16  0.41018297D-17
 -0.30765607D-16 -0.85790911D-16 -0.11995019D-01 -0.11744014D-01  0.16815560D-17
 -0.95785364D-17  0.78969804D-17 -0.18078680D-16 -0.69763774D-03 -0.68303919D-03
 -0.49385464D-02 -0.48352039D-02 -0.13993808D-15 -0.49453274D-02 -0.48418430D-02
  0.24655665D-15  0.19760967D-01  0.19347455D-01  0.17325760D-15  0.54609376D-15
 -0.17389879D-03 -0.17025983D-03  0.30599654D-16 -0.17303719D-03 -0.16941627D-03
 -0.11779576D-15  0.69473355D-03  0.68019577D-03  0.25996803D-16 -0.17748745D-16
MO    6     MO 0.0        OCC NO =    2.0000000  ORB. ENERGY =   -0.044285
  0.23458833D-15  0.43732598D-15  0.73915795D-15  0.11111965D-14  0.13652333D-14
  0.11531578D-14  0.43492869D-15 -0.21524863D-17 -0.15174074D-16 -0.28410655D-16
 -0.48371571D-16 -0.74823465D-16 -0.98539871D-16 -0.10238924D-15 -0.65063764D-16
  0.43604222D-16 -0.14645956D-15  0.71041837D-15  0.30645177D-15 -0.30669997D+00
 -0.28755072D+00 -0.20475324D+00  0.31325505D+00  0.29369652D+00  0.20912942D+00
  0.27143060D-15  0.25448344D-15  0.18120737D-15 -0.73281792D-01  0.74848040D-01
  0.67749964D-15 -0.95327072D-02  0.97364491D-02  0.44333851D-15 -0.28343268D-03
  0.28949047D-03  0.46279166D-16  0.21319519D-16 -0.58578428D-15  0.56446476D-15
 -0.10524481D-15 -0.46165901D-01  0.47152602D-01 -0.94595970D-16 -0.67343787D-17
  0.10133035D-15 -0.85630422D-16 -0.46743622D-02  0.47742671D-02 -0.24579594D-16
 -0.76806348D-17  0.32260229D-16 -0.22222197D-16  0.99035020D-04 -0.10115169D-03
  0.24952632D-02 -0.25485943D-02  0.71591989D-16  0.25025647D-02 -0.25560518D-02
  0.18488338D-15 -0.99883543D-02  0.10201835D-01 -0.39965935D-15  0.98337040D-16
  0.14285945D-04 -0.14591278D-04 -0.11423591D-17  0.14673043D-04 -0.14986649D-04
 -0.19475244D-16 -0.57530879D-04  0.58760483D-04  0.22902321D-16  0.91258748D-17
 -0.30396111D-16 -0.56638676D-16 -0.95790201D-16 -0.14425473D-15 -0.17859672D-15
 -0.15197775D-15 -0.57830337D-16  0.27084414D-18 -0.17548148D-15 -0.32902942D-15
 -0.55977694D-15 -0.86927449D-15 -0.11535778D-14 -0.12157127D-14 -0.75381940D-15
  0.50144096D-15  0.28821418D-15 -0.95678677D-15 -0.51933936D-15 -0.61200708D+00
 -0.58782549D+00 -0.41222381D+00  0.62508747D+00  0.60038904D+00  0.42103424D+00
  0.16097412D-14  0.15461372D-14  0.10842581D-14 -0.15369192D+00  0.15697677D+00
  0.14656707D-14 -0.25780562D-01  0.26331568D-01  0.48425015D-15 -0.12426015D-02
  0.12691595D-02 -0.57675727D-17  0.42485037D-15  0.99674832D-16 -0.52452520D-15
  0.17391427D-15  0.59607101D-01 -0.60881080D-01  0.16916173D-15  0.17767050D-15
 -0.34683223D-15  0.34093928D-16  0.11744014D-01 -0.11995019D-01 -0.16119024D-16
 -0.10159260D-16  0.26278285D-16 -0.23004263D-18  0.68303919D-03 -0.69763774D-03
  0.48352039D-02 -0.49385464D-02  0.29522441D-15  0.48418430D-02 -0.49453274D-02
 -0.52692275D-15 -0.19347455D-01  0.19760967D-01 -0.35875050D-15  0.35774955D-15
  0.17025983D-03 -0.17389879D-03  0.00000000D+00  0.16941627D-03 -0.17303719D-03
 -0.11300959D-16 -0.68019577D-03  0.69473355D-03  0.11300959D-16  0.14420855D-16
MO    7     MO 0.0        OCC NO =    2.0000000  ORB. ENERGY =   -0.006827
 -0.13914201D-02 -0.25939234D-02 -0.43841874D-02 -0.65908698D-02 -0.80976451D-02
 -0.68397558D-02 -0.25797042D-02  0.12767100D-04 -0.20300755D-01 -0.38009419D-01
 -0.64714288D-01 -0.10010316D+00 -0.13183235D+00 -0.13698225D+00 -0.87046072D-01
  0.58336253D-01  0.23553703D-01  0.52457275D-01  0.17346095D-01  0.79251359D-16
  0.74303187D-16  0.52908296D-16 -0.44791388D-15 -0.41994774D-15 -0.29902781D-15
 -0.55987791D+00 -0.52492113D+00 -0.37377511D+00 -0.17759578D-17  0.17988086D-15
 -0.12277503D+00 -0.26383146D-16 -0.75624616D-16 -0.13055629D-01 -0.19940338D-18
  0.23037103D-16 -0.52999533D-03  0.19137910D-01  0.19137910D-01 -0.38275819D-01
  0.23298811D-15  0.15132003D-15  0.14420888D-15  0.10428395D-02  0.10428395D-02
 -0.20856791D-02 -0.99951288D-17  0.10676927D-16 -0.63233319D-16 -0.21923689D-03
 -0.21923689D-03  0.43847379D-03 -0.69964945D-18 -0.77820353D-18 -0.16382035D-17
  0.14389317D-17  0.15924810D-16 -0.55005623D-02  0.14422395D-16 -0.58920403D-17
  0.82508435D-02 -0.18739190D-16 -0.41882389D-16  0.82508435D-02 -0.49776021D-16
 -0.83885593D-19  0.43544252D-18  0.61317393D-03 -0.32160425D-17  0.57808425D-17
 -0.91976089D-03  0.34676993D-17 -0.70871701D-17 -0.91976089D-03 -0.29008343D-17
  0.61096205D-03  0.11384378D-02  0.19253837D-02  0.28995212D-02  0.35897954D-02
  0.30547539D-02  0.11623902D-02 -0.54439692D-05 -0.30292627D-02 -0.56798958D-02
 -0.96631927D-02 -0.15005918D-01 -0.19913726D-01 -0.20986334D-01 -0.13012866D-01
  0.86561633D-02  0.73316970D-03  0.16882466D-01 -0.23494428D-02  0.55379566D-15
  0.53191411D-15  0.37301489D-15  0.33517916D-15  0.32193558D-15  0.22576345D-15
  0.74483994D+00  0.71540986D+00  0.50169478D+00  0.13818359D-15  0.14711197D-15
  0.16323633D+00  0.54282276D-16  0.35006023D-16  0.24248406D-01  0.84562780D-17
 -0.10175172D-16  0.21214336D-02  0.20469312D-01  0.20469312D-01 -0.40938624D-01
 -0.68009096D-16 -0.90181867D-17 -0.53092737D-16  0.10407338D-02  0.10407338D-02
 -0.20814676D-02 -0.65863120D-17 -0.33983929D-16 -0.11127964D-15 -0.20322067D-03
 -0.20322067D-03  0.40644134D-03  0.40039956D-17 -0.64855763D-17 -0.66173659D-17
 -0.32844251D-17 -0.49749110D-17  0.54362369D-02 -0.18841411D-16  0.65281770D-17
 -0.81543553D-02  0.28694686D-16  0.83965560D-17 -0.81543553D-02 -0.17591109D-16
 -0.44501797D-17 -0.18738705D-17 -0.16595509D-03 -0.47457140D-17 -0.34744231D-18
  0.24893263D-03  0.18096253D-16  0.59690538D-17  0.24893263D-03  0.30759088D-17
END DATA
RHF
