 Molden2AIM, Version 4.0.0 (06/02/2016)           Time: Fri Jun 29 23:11:34 2018
GAUSSIAN             18 MOL ORBITALS    290 PRIMITIVES        2 NUCLEI
  H    1    (CENTRE  1)   0.00000000  0.00000000  2.54665162  CHARGE =  1.0
  Br   2    (CENTRE  2)   0.00000000  0.00000000 -0.13800670  CHARGE = 35.0
CENTRE ASSIGNMENTS    1  1  1  1  1  1  1  1  1  1  1  1  1  1  1  1  1  1  1  1
CENTRE ASSIGNMENTS    1  1  1  1  1  1  1  2  2  2  2  2  2  2  2  2  2  2  2  2
CENTRE ASSIGNMENTS    2  2  2  2  2  2  2  2  2  2  2  2  2  2  2  2  2  2  2  2
CENTRE ASSIGNMENTS    2  2  2  2  2  2  2  2  2  2  2  2  2  2  2  2  2  2  2  2
CENTRE ASSIGNMENTS    2  2  2  2  2  2  2  2  2  2  2  2  2  2  2  2  2  2  2  2
CENTRE ASSIGNMENTS    2  2  2  2  2  2  2  2  2  2  2  2  2  2  2  2  2  2  2  2
CENTRE ASSIGNMENTS    2  2  2  2  2  2  2  2  2  2  2  2  2  2  2  2  2  2  2  2
CENTRE ASSIGNMENTS    2  2  2  2  2  2  2  2  2  2  2  2  2  2  2  2  2  2  2  2
CENTRE ASSIGNMENTS    2  2  2  2  2  2  2  2  2  2  2  2  2  2  2  2  2  2  2  2
CENTRE ASSIGNMENTS    2  2  2  2  2  2  2  2  2  2  2  2  2  2  2  2  2  2  2  2
CENTRE ASSIGNMENTS    2  2  2  2  2  2  2  2  2  2  2  2  2  2  2  2  2  2  2  2
CENTRE ASSIGNMENTS    2  2  2  2  2  2  2  2  2  2  2  2  2  2  2  2  2  2  2  2
CENTRE ASSIGNMENTS    2  2  2  2  2  2  2  2  2  2  2  2  2  2  2  2  2  2  2  2
CENTRE ASSIGNMENTS    2  2  2  2  2  2  2  2  2  2  2  2  2  2  2  2  2  2  2  2
CENTRE ASSIGNMENTS    2  2  2  2  2  2  2  2  2  2
TYPE ASSIGNMENTS      1  1  1  1  1  1  2  3  4  2  3  4  2  3  4  5  6  7  8  9
TYPE ASSIGNMENTS     10  5  6  7  8  9 10  1  1  1  1  1  1  1  1  1  1  1  1  1
TYPE ASSIGNMENTS      1  1  1  1  1  1  1  1  1  1  1  1  1  1  1  1  1  1  1  1
TYPE ASSIGNMENTS      1  1  1  1  1  1  1  1  1  1  1  1  1  1  1  1  1  1  1  1
TYPE ASSIGNMENTS      1  1  1  1  1  1  1  1  1  1  1  1  1  1  1  1  1  1  1  1
TYPE ASSIGNMENTS      1  1  2  2  2  2  2  2  2  2  2  2  2  3  3  3  3  3  3  3
TYPE ASSIGNMENTS      3  3  3  3  4  4  4  4  4  4  4  4  4  4  4  2  2  2  2  2
TYPE ASSIGNMENTS      2  2  2  2  2  2  3  3  3  3  3  3  3  3  3  3  3  4  4  4
TYPE ASSIGNMENTS      4  4  4  4  4  4  4  4  2  2  2  2  2  2  2  2  2  2  2  3
TYPE ASSIGNMENTS      3  3  3  3  3  3  3  3  3  3  4  4  4  4  4  4  4  4  4  4
TYPE ASSIGNMENTS      4  2  3  4  2  3  4  2  3  4  5  5  5  5  5  5  5  6  6  6
TYPE ASSIGNMENTS      6  6  6  6  7  7  7  7  7  7  7  8  8  8  8  8  8  8  9  9
TYPE ASSIGNMENTS      9  9  9  9  9 10 10 10 10 10 10 10  5  6  7  8  9 10  5  6
TYPE ASSIGNMENTS      7  8  9 10  5  6  7  8  9 10 11 12 13 17 14 15 18 19 16 20
TYPE ASSIGNMENTS     11 12 13 17 14 15 18 19 16 20
EXPONENTS  0.3387000D+02 0.5095000D+01 0.1159000D+01 0.3258000D+00 0.1027000D+00
EXPONENTS  0.2526000D-01 0.1407000D+01 0.1407000D+01 0.1407000D+01 0.3880000D+00
EXPONENTS  0.3880000D+00 0.3880000D+00 0.1020000D+00 0.1020000D+00 0.1020000D+00
EXPONENTS  0.1057000D+01 0.1057000D+01 0.1057000D+01 0.1057000D+01 0.1057000D+01
EXPONENTS  0.1057000D+01 0.2470000D+00 0.2470000D+00 0.2470000D+00 0.2470000D+00
EXPONENTS  0.2470000D+00 0.2470000D+00 0.1063900D+08 0.1593400D+07 0.3626100D+06
EXPONENTS  0.1027000D+06 0.3350100D+05 0.1209300D+05 0.4715900D+04 0.1955600D+04
EXPONENTS  0.8526100D+03 0.3876700D+03 0.1826800D+03 0.8824500D+02 0.3926300D+02
EXPONENTS  0.1923400D+02 0.9405700D+01 0.4160100D+01 0.1899500D+01 0.3011400D+00
EXPONENTS  0.1063900D+08 0.1593400D+07 0.3626100D+06 0.1027000D+06 0.3350100D+05
EXPONENTS  0.1209300D+05 0.4715900D+04 0.1955600D+04 0.8526100D+03 0.3876700D+03
EXPONENTS  0.1826800D+03 0.8824500D+02 0.3926300D+02 0.1923400D+02 0.9405700D+01
EXPONENTS  0.4160100D+01 0.1899500D+01 0.3011400D+00 0.1063900D+08 0.1593400D+07
EXPONENTS  0.3626100D+06 0.1027000D+06 0.3350100D+05 0.1209300D+05 0.4715900D+04
EXPONENTS  0.1955600D+04 0.8526100D+03 0.3876700D+03 0.1826800D+03 0.8824500D+02
EXPONENTS  0.3926300D+02 0.1923400D+02 0.9405700D+01 0.4160100D+01 0.1899500D+01
EXPONENTS  0.3011400D+00 0.1063900D+08 0.1593400D+07 0.3626100D+06 0.1027000D+06
EXPONENTS  0.3350100D+05 0.1209300D+05 0.4715900D+04 0.1955600D+04 0.8526100D+03
EXPONENTS  0.3876700D+03 0.1826800D+03 0.8824500D+02 0.3926300D+02 0.1923400D+02
EXPONENTS  0.9405700D+01 0.4160100D+01 0.1899500D+01 0.3011400D+00 0.6047200D+00
EXPONENTS  0.1251500D+00 0.4559300D-01 0.8676500D+04 0.2055900D+04 0.6662300D+03
EXPONENTS  0.2531000D+03 0.1061200D+03 0.4724200D+02 0.2182500D+02 0.9968400D+01
EXPONENTS  0.4517100D+01 0.1998200D+01 0.2814500D+00 0.8676500D+04 0.2055900D+04
EXPONENTS  0.6662300D+03 0.2531000D+03 0.1061200D+03 0.4724200D+02 0.2182500D+02
EXPONENTS  0.9968400D+01 0.4517100D+01 0.1998200D+01 0.2814500D+00 0.8676500D+04
EXPONENTS  0.2055900D+04 0.6662300D+03 0.2531000D+03 0.1061200D+03 0.4724200D+02
EXPONENTS  0.2182500D+02 0.9968400D+01 0.4517100D+01 0.1998200D+01 0.2814500D+00
EXPONENTS  0.8676500D+04 0.2055900D+04 0.6662300D+03 0.2531000D+03 0.1061200D+03
EXPONENTS  0.4724200D+02 0.2182500D+02 0.9968400D+01 0.4517100D+01 0.1998200D+01
EXPONENTS  0.2814500D+00 0.8676500D+04 0.2055900D+04 0.6662300D+03 0.2531000D+03
EXPONENTS  0.1061200D+03 0.4724200D+02 0.2182500D+02 0.9968400D+01 0.4517100D+01
EXPONENTS  0.1998200D+01 0.2814500D+00 0.8676500D+04 0.2055900D+04 0.6662300D+03
EXPONENTS  0.2531000D+03 0.1061200D+03 0.4724200D+02 0.2182500D+02 0.9968400D+01
EXPONENTS  0.4517100D+01 0.1998200D+01 0.2814500D+00 0.8676500D+04 0.2055900D+04
EXPONENTS  0.6662300D+03 0.2531000D+03 0.1061200D+03 0.4724200D+02 0.2182500D+02
EXPONENTS  0.9968400D+01 0.4517100D+01 0.1998200D+01 0.2814500D+00 0.8676500D+04
EXPONENTS  0.2055900D+04 0.6662300D+03 0.2531000D+03 0.1061200D+03 0.4724200D+02
EXPONENTS  0.2182500D+02 0.9968400D+01 0.4517100D+01 0.1998200D+01 0.2814500D+00
EXPONENTS  0.8676500D+04 0.2055900D+04 0.6662300D+03 0.2531000D+03 0.1061200D+03
EXPONENTS  0.4724200D+02 0.2182500D+02 0.9968400D+01 0.4517100D+01 0.1998200D+01
EXPONENTS  0.2814500D+00 0.7098800D+00 0.7098800D+00 0.7098800D+00 0.1020400D+00
EXPONENTS  0.1020400D+00 0.1020400D+00 0.3514200D-01 0.3514200D-01 0.3514200D-01
EXPONENTS  0.4038300D+03 0.1211700D+03 0.4634500D+02 0.1972100D+02 0.8862400D+01
EXPONENTS  0.3996200D+01 0.1763600D+01 0.4038300D+03 0.1211700D+03 0.4634500D+02
EXPONENTS  0.1972100D+02 0.8862400D+01 0.3996200D+01 0.1763600D+01 0.4038300D+03
EXPONENTS  0.1211700D+03 0.4634500D+02 0.1972100D+02 0.8862400D+01 0.3996200D+01
EXPONENTS  0.1763600D+01 0.4038300D+03 0.1211700D+03 0.4634500D+02 0.1972100D+02
EXPONENTS  0.8862400D+01 0.3996200D+01 0.1763600D+01 0.4038300D+03 0.1211700D+03
EXPONENTS  0.4634500D+02 0.1972100D+02 0.8862400D+01 0.3996200D+01 0.1763600D+01
EXPONENTS  0.4038300D+03 0.1211700D+03 0.4634500D+02 0.1972100D+02 0.8862400D+01
EXPONENTS  0.3996200D+01 0.1763600D+01 0.7061900D+00 0.7061900D+00 0.7061900D+00
EXPONENTS  0.7061900D+00 0.7061900D+00 0.7061900D+00 0.2639000D+00 0.2639000D+00
EXPONENTS  0.2639000D+00 0.2639000D+00 0.2639000D+00 0.2639000D+00 0.1047000D+00
EXPONENTS  0.1047000D+00 0.1047000D+00 0.1047000D+00 0.1047000D+00 0.1047000D+00
EXPONENTS  0.5515000D+00 0.5515000D+00 0.5515000D+00 0.5515000D+00 0.5515000D+00
EXPONENTS  0.5515000D+00 0.5515000D+00 0.5515000D+00 0.5515000D+00 0.5515000D+00
EXPONENTS  0.2580000D+00 0.2580000D+00 0.2580000D+00 0.2580000D+00 0.2580000D+00
EXPONENTS  0.2580000D+00 0.2580000D+00 0.2580000D+00 0.2580000D+00 0.2580000D+00
MO    1     MO 0.0        OCC NO =    2.0000000  ORB. ENERGY = -482.264702
 -0.73059038D-05 -0.13176498D-04 -0.19428739D-04  0.67648479D-04 -0.11145476D-03
 -0.20919715D-05  0.15357739D-16 -0.45906172D-18  0.22730181D-05 -0.25382145D-18
  0.25667863D-18 -0.79689169D-04 -0.30923978D-19  0.28915297D-19  0.17686722D-04
 -0.23806570D-04 -0.23806570D-04  0.47613139D-04 -0.64857682D-22 -0.42436897D-19
  0.34379325D-19 -0.49616750D-05 -0.49616750D-05  0.99233501D-05  0.83665478D-22
  0.14023101D-18 -0.13609437D-18  0.78327672D+00  0.14734389D+01  0.25505954D+01
  0.41809139D+01  0.65494826D+01  0.98444301D+01  0.14070163D+02  0.18678492D+02
  0.21753641D+02  0.19980508D+02  0.11683389D+02  0.30657798D+01  0.16760498D+00
 -0.59989091D-02  0.16765058D-02 -0.49781114D-03  0.84868180D-04  0.69240762D-05
  0.61580640D-04  0.11314272D-03  0.19564983D-03  0.32040395D-03  0.50446162D-03
  0.76178647D-03  0.11119756D-02  0.15312579D-02  0.19565377D-02  0.21328554D-02
  0.17556684D-02  0.48139235D-03 -0.97099958D-03 -0.94628150D-03 -0.20707305D-03
 -0.69761005D-05 -0.23632799D-06  0.60118793D-09 -0.11774685D-03 -0.23083099D-03
 -0.40429476D-03 -0.66048608D-03 -0.10417456D-02 -0.15719476D-02 -0.23047876D-02
 -0.31821405D-02 -0.41256609D-02 -0.45879778D-02 -0.39849411D-02 -0.11575541D-02
  0.29181799D-02  0.42519937D-02  0.73199593D-03 -0.17857566D-02 -0.84997514D-03
  0.41047895D-05  0.42389157D-04  0.91847068D-04  0.15635507D-03  0.25521357D-03
  0.40231916D-03  0.60721581D-03  0.89027734D-03  0.12307452D-02  0.15973838D-02
  0.17845571D-02  0.15588510D-02  0.46173318D-03 -0.12002410D-02 -0.18463764D-02
 -0.32317225D-03  0.10194290D-02  0.86534105D-03 -0.32285101D-03  0.29838655D-03
  0.14193154D-03  0.15668542D-04 -0.55738076D-15 -0.79974271D-15 -0.10589019D-14
 -0.12227316D-14 -0.11335285D-14 -0.73386700D-15 -0.25902810D-15 -0.30360327D-16
 -0.44138296D-18 -0.64635622D-19 -0.66455457D-21  0.41791563D-15  0.59963493D-15
  0.79394853D-15  0.91678561D-15  0.84990243D-15  0.55024233D-15  0.19421533D-15
  0.22763712D-16  0.33094224D-18  0.48462807D-19  0.49827292D-21 -0.68209393D-03
 -0.97868403D-03 -0.12958297D-02 -0.14963161D-02 -0.13871539D-02 -0.89806872D-03
 -0.31698528D-03 -0.37153408D-04 -0.54014178D-06 -0.79097752D-07 -0.81324773D-09
 -0.10985219D-15 -0.15857289D-15 -0.21184960D-15 -0.25168382D-15 -0.24390091D-15
 -0.16954225D-15 -0.55167421D-16  0.24829717D-16  0.26824379D-16  0.69058542D-17
 -0.67360231D-20  0.10694173D-15  0.15437161D-15  0.20623678D-15  0.24501562D-15
  0.23743892D-15  0.16505034D-15  0.53705796D-16 -0.24171870D-16 -0.26113684D-16
 -0.67228881D-17  0.65575566D-20  0.36514790D-02  0.52709519D-02  0.70418658D-02
  0.83659526D-02  0.81072493D-02  0.56355724D-02  0.18337612D-02 -0.82533807D-03
 -0.89164048D-03 -0.22955011D-03  0.22390494D-06  0.24845535D-16  0.36101665D-16
  0.47997582D-16  0.57593776D-16  0.55722233D-16  0.39556297D-16  0.12294197D-16
 -0.70585521D-17 -0.81087095D-17 -0.21533391D-17  0.77693145D-18 -0.24411911D-16
 -0.35471589D-16 -0.47159889D-16 -0.56588603D-16 -0.54749723D-16 -0.38865929D-16
 -0.12079628D-16  0.69353606D-17  0.79671897D-17  0.21157573D-17 -0.76337181D-18
 -0.27135858D-02 -0.39429606D-02 -0.52422118D-02 -0.62902913D-02 -0.60858846D-02
 -0.43202695D-02 -0.13427506D-02  0.77092270D-03  0.88561904D-03  0.23518392D-03
 -0.84855092D-04 -0.26683063D-17  0.26140522D-17  0.34815842D-04 -0.58811314D-19
  0.58949272D-19  0.45193377D-04  0.72134461D-20 -0.71290733D-20  0.50521677D-06
 -0.25140411D-03 -0.26306731D-03 -0.22414743D-03 -0.14761803D-03 -0.68032755D-04
 -0.20372519D-04 -0.34662113D-05 -0.25140411D-03 -0.26306731D-03 -0.22414743D-03
 -0.14761803D-03 -0.68032755D-04 -0.20372519D-04 -0.34662113D-05  0.50280822D-03
  0.52613463D-03  0.44829486D-03  0.29523606D-03  0.13606551D-03  0.40745037D-04
  0.69324226D-05 -0.28728368D-17 -0.30061142D-17 -0.25613702D-17 -0.16868559D-17
 -0.77742166D-18 -0.23280017D-18 -0.39608976D-19  0.97592435D-17  0.10211997D-16
  0.87011678D-17  0.57303768D-17  0.26409601D-17  0.79083977D-18  0.13455468D-18
 -0.27343073D-17 -0.28611579D-17 -0.24378597D-17 -0.16055149D-17 -0.73993402D-18
 -0.22157444D-18 -0.37699013D-19  0.13622579D-04  0.13622579D-04 -0.27245159D-04
  0.15408121D-19 -0.18119790D-18  0.14087392D-18  0.80048206D-05  0.80048206D-05
 -0.16009641D-04 -0.17808425D-20  0.16505153D-18 -0.15657120D-18 -0.30175811D-05
 -0.30175811D-05  0.60351622D-05  0.13132182D-21  0.56914981D-20 -0.57069330D-20
 -0.17450722D-20  0.24156658D-20 -0.19295264D-04 -0.17100892D-20  0.24459252D-20
  0.28942895D-04  0.69453057D-20 -0.96929226D-20  0.28942895D-04  0.19965450D-21
 -0.13165397D-19  0.12677436D-19  0.16321126D-05 -0.13170803D-19  0.12682083D-19
 -0.24481688D-05  0.52666994D-19 -0.50714392D-19 -0.24481688D-05 -0.74972784D-22
MO    2     MO 0.0        OCC NO =    2.0000000  ORB. ENERGY =  -62.355173
  0.87199790D-04  0.15726841D-03  0.23189218D-03 -0.81505971D-03  0.15084734D-02
  0.28030990D-04  0.23998803D-16  0.37141301D-15 -0.28614806D-04 -0.65228230D-18
 -0.95701285D-17  0.96926082D-03  0.14119990D-17 -0.10992761D-17 -0.24308533D-03
  0.27400105D-03  0.27400105D-03 -0.54800211D-03 -0.15481365D-19  0.12253772D-17
 -0.29302975D-17  0.62386947D-04  0.62386947D-04 -0.12477389D-03  0.19053034D-19
 -0.54821948D-17  0.52616496D-17  0.46366214D-03  0.87220496D-03  0.15098298D-02
  0.24748999D-02  0.38769786D-02  0.58274290D-02  0.83288599D-02  0.11056769D-01
  0.12877109D-01  0.11827500D-01  0.69160043D-02  0.18147941D-02  0.99214087D-04
 -0.35510656D-05  0.99241077D-06 -0.29468024D-06  0.50237880D-07  0.40987200D-08
 -0.25339221D+00 -0.46556000D+00 -0.80506054D+00 -0.13183992D+01 -0.20757602D+01
 -0.31346013D+01 -0.45755607D+01 -0.63008249D+01 -0.80507674D+01 -0.87762798D+01
 -0.72242297D+01 -0.19808347D+01  0.39954721D+01  0.38937620D+01  0.85206483D+00
  0.28705280D-01  0.97244316D-03 -0.24737700D-05  0.14823317D-02  0.29059639D-02
  0.50897237D-02  0.83149523D-02  0.13114683D-01  0.19789470D-01  0.29015296D-01
  0.40060415D-01  0.51938527D-01  0.57758699D-01  0.50166986D-01  0.14572612D-01
 -0.36737378D-01 -0.53528949D-01 -0.92151999D-02  0.22481142D-01  0.10700457D-01
 -0.51675774D-04 -0.55772724D-03 -0.12084602D-02 -0.20572119D-02 -0.33579238D-02
 -0.52934375D-02 -0.79893260D-02 -0.11713654D-01 -0.16193295D-01 -0.21017272D-01
 -0.23479968D-01 -0.20510284D-01 -0.60751661D-02  0.15791942D-01  0.24293345D-01
  0.42520771D-02 -0.13412942D-01 -0.11385560D-01  0.42478505D-02 -0.42870288D-02
 -0.19387138D-02 -0.20889835D-03 -0.16243429D-12 -0.23306445D-12 -0.30858972D-12
 -0.35633370D-12 -0.33033773D-12 -0.21386667D-12 -0.75487080D-13 -0.88477367D-14
 -0.12862972D-15 -0.18836390D-16 -0.19366734D-18  0.16265861D-12  0.23338631D-12
  0.30901588D-12  0.35682579D-12  0.33079392D-12  0.21416202D-12  0.75591327D-13
  0.88599553D-14  0.12880735D-15  0.18862403D-16  0.19393480D-18  0.51920027D-01
  0.74496046D-01  0.98636726D-01  0.11389747D+00  0.10558820D+00  0.68359723D-01
  0.24128472D-01  0.28280649D-02  0.41114830D-04  0.60208092D-05  0.61903269D-07
  0.50307908D-14  0.72620043D-14  0.97018641D-14  0.11526112D-13  0.11169686D-13
  0.77643568D-14  0.25264472D-14 -0.11371017D-14 -0.12284493D-14 -0.31626050D-15
  0.30848291D-18 -0.49328024D-14 -0.71205569D-14 -0.95128938D-14 -0.11301610D-13
 -0.10952126D-13 -0.76131247D-14 -0.24772378D-14  0.11149536D-14  0.12045219D-14
  0.31010046D-15 -0.30247437D-18 -0.45555067D-01 -0.65759262D-01 -0.87852802D-01
 -0.10437182D+00 -0.10114430D+00 -0.70308189D-01 -0.22877610D-01  0.10296740D-01
  0.11123915D-01  0.28638178D-02 -0.27933898D-05 -0.98399214D-15 -0.14297842D-14
 -0.19009147D-14 -0.22809661D-14 -0.22068448D-14 -0.15666028D-14 -0.48690409D-15
  0.27954962D-15  0.32114045D-15  0.85281669D-16 -0.30769892D-16  0.98746013D-15
  0.14348234D-14  0.19076143D-14  0.22890051D-14  0.22146226D-14  0.15721242D-14
  0.48862014D-15 -0.28053486D-15 -0.32227228D-15 -0.85582237D-16  0.30878338D-16
  0.33647114D-01  0.48890749D-01  0.65000818D-01  0.77996482D-01  0.75461942D-01
  0.53569192D-01  0.16649440D-01 -0.95590579D-02 -0.10981235D-01 -0.29161636D-02
  0.10521609D-02  0.11235324D-15 -0.11131350D-15 -0.44526436D-03  0.22233254D-17
 -0.24750379D-17 -0.60676348D-03 -0.27933483D-18  0.29096186D-18 -0.67425453D-05
  0.90134305D-03  0.94315838D-03  0.80362142D-03  0.52924546D-03  0.24391348D-03
  0.73040285D-04  0.12427185D-04  0.90134305D-03  0.94315838D-03  0.80362142D-03
  0.52924546D-03  0.24391348D-03  0.73040285D-04  0.12427185D-04 -0.18026861D-02
 -0.18863168D-02 -0.16072428D-02 -0.10584909D-02 -0.48782695D-03 -0.14608057D-03
 -0.24854370D-04 -0.80983594D-15 -0.84740605D-15 -0.72203531D-15 -0.47551484D-15
 -0.21915063D-15 -0.65625012D-16 -0.11165539D-16 -0.30198779D-15 -0.31599769D-15
 -0.26924694D-15 -0.17731947D-15 -0.81721263D-16 -0.24471565D-16 -0.41636293D-17
  0.12568948D-14  0.13152050D-14  0.11206250D-14  0.73801629D-15  0.34012974D-15
  0.10185240D-15  0.17329322D-16 -0.15377534D-03 -0.15377534D-03  0.30755068D-03
  0.36865897D-17  0.51257415D-17 -0.10261602D-16 -0.98274305D-04 -0.98274305D-04
  0.19654861D-03 -0.41631537D-18 -0.62912943D-17  0.65369066D-17  0.40140045D-04
  0.40140045D-04 -0.80280089D-04  0.30320659D-19 -0.25246171D-18  0.17044893D-18
 -0.26235432D-19 -0.10380919D-18  0.23791900D-03 -0.31752351D-19 -0.48687565D-19
 -0.35687850D-03  0.11045865D-18  0.36011514D-18 -0.35687850D-03  0.21415433D-19
  0.52283321D-18 -0.46705674D-18 -0.22131190D-04  0.52358546D-18 -0.47396616D-18
  0.33196785D-04 -0.20920851D-17  0.18751364D-17  0.33196785D-04 -0.13625913D-19
MO    3     MO 0.0        OCC NO =    2.0000000  ORB. ENERGY =  -56.115323
  0.24583757D-04  0.44337819D-04  0.65376088D-04 -0.69347959D-03 -0.25712484D-03
 -0.50591126D-05 -0.38112027D-15 -0.80485768D-16 -0.15306967D-03 -0.28960704D-16
 -0.88833487D-17  0.47708321D-03  0.14943390D-19  0.10682207D-18  0.59253197D-04
 -0.72475649D-04 -0.72475649D-04  0.14495130D-03  0.11583443D-19  0.20896116D-16
 -0.19135593D-16  0.64822780D-05  0.64822780D-05 -0.12964556D-04 -0.36515804D-20
 -0.29483680D-17  0.32489982D-17  0.23547444D-05  0.44295611D-05  0.76677886D-05
  0.12568973D-04  0.19689539D-04  0.29595054D-04  0.42298766D-04  0.56152664D-04
  0.65397404D-04  0.60066883D-04  0.35123469D-04  0.92165739D-05  0.50386650D-06
 -0.18034364D-07  0.50400357D-08 -0.14965567D-08  0.25513700D-09  0.20815670D-10
  0.18820916D-03  0.34579854D-03  0.59796537D-03  0.97925187D-03  0.15417881D-02
  0.23282510D-02  0.33985355D-02  0.46799898D-02  0.59797741D-02  0.65186544D-02
  0.53658563D-02  0.14712814D-02 -0.29676699D-02 -0.28921239D-02 -0.63287820D-03
 -0.21321084D-04 -0.72229019D-06  0.18374131D-08  0.12187813D-04  0.23892996D-04
  0.41847990D-04  0.68365998D-04  0.10782965D-03  0.16271012D-03  0.23856536D-03
  0.32937895D-03  0.42704144D-03  0.47489521D-03  0.41247573D-03  0.11981682D-03
 -0.30205675D-03 -0.44011797D-03 -0.75767883D-04  0.18484119D-03  0.87979747D-04
 -0.42488107D-06 -0.34794938D-05 -0.75392228D-05 -0.12834331D-04 -0.20949085D-04
 -0.33024177D-04 -0.49843021D-04 -0.73077991D-04 -0.10102513D-03 -0.13112049D-03
 -0.14648452D-03 -0.12795754D-03 -0.37901148D-04  0.98521214D-04  0.15155893D-03
  0.26527440D-04 -0.83679344D-04 -0.71031108D-04  0.26501072D-04 -0.19002024D-03
  0.46195200D-03  0.22080612D-04  0.21299395D-12  0.30560860D-12  0.40464203D-12
  0.46724690D-12  0.43315937D-12  0.28043528D-12  0.98983354D-13  0.11601703D-13
  0.16866728D-15  0.24699446D-16  0.25394866D-18 -0.21221872D-12 -0.30449629D-12
 -0.40316927D-12 -0.46554628D-12 -0.43158282D-12 -0.27941458D-12 -0.98623087D-13
 -0.11559476D-13 -0.16805339D-15 -0.24609548D-16 -0.25302437D-18  0.52018323D+02
  0.74637084D+02  0.98823467D+02  0.11411310D+03  0.10578810D+03  0.68489143D+02
  0.24174152D+02  0.28334191D+01  0.41192669D-01  0.60322079D-02  0.62020465D-04
  0.14910535D-15  0.21523528D-15  0.28754919D-15  0.34161726D-15  0.33105331D-15
  0.23012428D-15  0.74880233D-16 -0.33702047D-16 -0.36409455D-16 -0.93735027D-17
  0.91429864D-20 -0.21556899D-15 -0.31117632D-15 -0.41572412D-15 -0.49389301D-15
 -0.47862018D-15 -0.33270208D-15 -0.10825807D-15  0.48724721D-16  0.52638954D-16
  0.13551738D-16 -0.13218469D-19 -0.32227423D-01 -0.46520655D-01 -0.62150483D-01
 -0.73836681D-01 -0.71553403D-01 -0.49738743D-01 -0.16184510D-01  0.72843137D-02
  0.78694891D-02  0.20259759D-02 -0.19761524D-05 -0.38142952D-16 -0.55423401D-16
 -0.73686054D-16 -0.88418164D-16 -0.85544965D-16 -0.60726964D-16 -0.18874093D-16
  0.10836314D-16  0.12448519D-16  0.33058136D-17 -0.11927478D-17  0.68326311D-16
  0.99281161D-16  0.13199545D-15  0.15838541D-15  0.15323858D-15  0.10878155D-15
  0.33809580D-16 -0.19411328D-16 -0.22299307D-16 -0.59217769D-17  0.21365956D-17
  0.24876896D-01  0.36147233D-01  0.48058166D-01  0.57666472D-01  0.55792567D-01
  0.39606226D-01  0.12309715D-01 -0.70674617D-02 -0.81189445D-02 -0.21560571D-02
  0.77791212D-03 -0.38100913D-17  0.23633221D-17 -0.20776763D-02 -0.63565101D-18
  0.57154601D-18  0.68607464D-04  0.72980307D-19 -0.72516795D-19  0.25770299D-05
 -0.29193797D-02 -0.30548163D-02 -0.26028670D-02 -0.17141847D-02 -0.79001669D-03
 -0.23657178D-03 -0.40250682D-04 -0.29193797D-02 -0.30548163D-02 -0.26028670D-02
 -0.17141847D-02 -0.79001669D-03 -0.23657178D-03 -0.40250682D-04  0.58387594D-02
  0.61096326D-02  0.52057340D-02  0.34283694D-02  0.15800334D-02  0.47314355D-03
  0.80501364D-04  0.62151785D-16  0.65035147D-16  0.55413426D-16  0.36493930D-16
  0.16818966D-16  0.50364666D-17  0.85691209D-18 -0.32831436D-13 -0.34354560D-13
 -0.29271924D-13 -0.19277775D-13 -0.88845524D-14 -0.26604936D-14 -0.45266043D-15
  0.32209729D-13  0.33704010D-13  0.28717621D-13  0.18912724D-13  0.87163116D-14
  0.26101136D-14  0.44408870D-15  0.69389067D-04  0.69389067D-04 -0.13877813D-03
 -0.30885472D-18  0.15153464D-15 -0.14914981D-15 -0.98271671D-04 -0.98271671D-04
  0.19654334D-03  0.35583017D-19 -0.19904788D-16  0.20284540D-16 -0.33991801D-05
 -0.33991801D-05  0.67983602D-05 -0.24990268D-20  0.13450208D-17 -0.13514902D-17
 -0.54412676D-18  0.48463534D-18  0.15958516D-04 -0.54548019D-18  0.50916342D-18
 -0.23937774D-04  0.21778605D-17 -0.19630695D-17 -0.23937774D-04 -0.67558432D-19
  0.35192097D-18 -0.36274373D-18  0.35149095D-04  0.35214072D-18 -0.36550762D-18
 -0.52723643D-04 -0.14079036D-17  0.14537388D-17 -0.52723643D-04  0.92809056D-20
MO    4     MO 0.0        OCC NO =    2.0000000  ORB. ENERGY =  -56.112249
 -0.50064634D-17 -0.90293629D-17 -0.13313790D-16  0.45871266D-16  0.46865611D-16
  0.12300632D-17  0.10265923D-03  0.33972896D-04  0.11521217D-16 -0.12283532D-03
 -0.40649743D-04 -0.46847195D-16 -0.13114691D-04 -0.43400286D-05 -0.83290246D-17
 -0.40627140D-16 -0.19359842D-16  0.59986982D-16  0.11331559D-15 -0.33153730D-04
 -0.10971524D-04  0.99625571D-18  0.60844397D-19 -0.10571001D-17 -0.30406812D-16
  0.65019326D-04  0.21516767D-04 -0.11061585D-16 -0.20808188D-16 -0.36019999D-16
 -0.59043671D-16 -0.92493054D-16 -0.13902494D-15 -0.19870156D-15 -0.26378126D-15
 -0.30720910D-15 -0.28216859D-15 -0.16499507D-15 -0.43295532D-16 -0.23669498D-17
  0.84717749D-19 -0.23675937D-19  0.70301847D-20 -0.11985248D-20 -0.97783137D-22
 -0.49337395D-15 -0.90648082D-15 -0.15675142D-14 -0.25670237D-14 -0.40416634D-14
 -0.61033077D-14 -0.89089654D-14 -0.12268187D-13 -0.15675458D-13 -0.17088086D-13
 -0.14066126D-13 -0.38568362D-14  0.77794888D-14  0.75814516D-14  0.16590352D-14
  0.55891368D-16  0.18934210D-17 -0.48166187D-20 -0.12536230D-16 -0.24576033D-16
 -0.43044313D-16 -0.70320400D-16 -0.11091221D-15 -0.16736157D-15 -0.24538532D-15
 -0.33879502D-15 -0.43924942D-15 -0.48847121D-15 -0.42426732D-15 -0.12324207D-15
  0.31069175D-15  0.45269978D-15  0.77933886D-16 -0.19012531D-15 -0.90494855D-16
  0.43702729D-18  0.30474146D-17  0.66030115D-17  0.11240580D-16  0.18347654D-16
  0.28923276D-16  0.43653576D-16  0.64003258D-16  0.88479960D-16  0.11483811D-15
  0.12829425D-15  0.11206793D-15  0.33194631D-16 -0.86286972D-16 -0.13273853D-15
 -0.23233296D-16  0.73288148D-16  0.62210554D-16 -0.23210202D-16  0.38173195D-16
 -0.36001192D-16 -0.12528555D-16  0.49380016D+02  0.70851580D+02  0.93811258D+02
  0.10832542D+03  0.10042265D+03  0.65015455D+02  0.22948068D+02  0.26897114D+01
  0.39103426D-01  0.57262615D-02  0.58874861D-04  0.16341269D+02  0.23446827D+02
  0.31044846D+02  0.35848001D+02  0.33232746D+02  0.21515486D+02  0.75941763D+01
  0.89010295D+00  0.12940449D-01  0.18949848D-02  0.19483386D-04 -0.13577321D-12
 -0.19481051D-12 -0.25793947D-12 -0.29784701D-12 -0.27611788D-12 -0.17876375D-12
 -0.63097039D-13 -0.73955170D-14 -0.10751713D-15 -0.15744687D-16 -0.16187983D-18
 -0.12334384D-01 -0.17804825D-01 -0.23786821D-01 -0.28259473D-01 -0.27385595D-01
 -0.19036482D-01 -0.61942887D-02  0.27879215D-02  0.30118853D-02  0.77540066D-03
 -0.75633174D-06 -0.40818028D-02 -0.58921292D-02 -0.78717438D-02 -0.93518731D-02
 -0.90626819D-02 -0.62997199D-02 -0.20498684D-02  0.92260347D-03  0.99671956D-03
  0.25660240D-03 -0.25029195D-06  0.13492795D-14  0.19477005D-14  0.26020813D-14
  0.30913524D-14  0.29957574D-14  0.20824336D-14  0.67760391D-15 -0.30497553D-15
 -0.32947532D-15 -0.84822413D-16  0.82736432D-19  0.11258800D-01  0.16359536D-01
  0.21750193D-01  0.26098725D-01  0.25250632D-01  0.17925009D-01  0.55711378D-02
 -0.31985959D-02 -0.36744766D-02 -0.97578956D-03  0.35206792D-03  0.37258610D-02
  0.54138413D-02  0.71977648D-02  0.86368196D-02  0.83561611D-02  0.59319014D-02
  0.18436499D-02 -0.10585075D-02 -0.12159901D-02 -0.32291686D-03  0.11650941D-03
 -0.97839682D-15 -0.14216540D-14 -0.18901055D-14 -0.22679957D-14 -0.21942959D-14
 -0.15576946D-14 -0.48413539D-15  0.27796000D-15  0.31931434D-15  0.84796728D-16
 -0.30594924D-16 -0.16230225D-02 -0.53710486D-03  0.73339078D-17 -0.33244262D-04
 -0.11001483D-04 -0.15476269D-16  0.37160273D-05  0.12297404D-05 -0.70663579D-18
 -0.25285969D-13 -0.26459042D-13 -0.22544520D-13 -0.14847271D-13 -0.68426652D-14
 -0.20490472D-14 -0.34862800D-15  0.17141817D-13  0.17937064D-13  0.15283339D-13
  0.10065234D-13  0.46387667D-14  0.13890862D-14  0.23634124D-15  0.81441526D-14
  0.85219782D-14  0.72611816D-14  0.47820370D-14  0.22038985D-14  0.65996097D-15
  0.11228676D-15  0.20828460D-13  0.21794739D-13  0.18570284D-13  0.12229936D-13
  0.56364134D-14  0.16878331D-14  0.28717050D-15  0.81598699D-02  0.85384247D-02
  0.72751948D-02  0.47912658D-02  0.22081518D-02  0.66123462D-03  0.11250346D-03
  0.27003359D-02  0.28256105D-02  0.24075714D-02  0.15855678D-02  0.73074098D-03
  0.21882157D-03  0.37230635D-04  0.13188129D-15 -0.66905492D-16 -0.64975800D-16
 -0.91040623D-16 -0.98233137D-04 -0.32508173D-04 -0.93699046D-17  0.13960814D-16
 -0.45909095D-17  0.96457226D-17  0.78120452D-04  0.25852306D-04  0.19598738D-17
  0.24330117D-18 -0.22031749D-17 -0.81432410D-18  0.22159490D-05  0.73332130D-06
 -0.81375167D-06 -0.26929385D-06 -0.84104091D-17 -0.81370685D-06 -0.26927902D-06
  0.12267831D-16  0.32549619D-05  0.10771606D-05  0.12963397D-16  0.53057789D-18
 -0.60417555D-05 -0.19993908D-05 -0.12260191D-17 -0.60417590D-05 -0.19993920D-05
  0.15543639D-17  0.24167026D-04  0.79975645D-05  0.21236935D-17  0.11958366D-18
MO    5     MO 0.0        OCC NO =    2.0000000  ORB. ENERGY =  -56.112249
  0.54564103D-16  0.98408607D-16  0.14510343D-15 -0.91725742D-15 -0.96630706D-16
 -0.19567753D-17 -0.33972896D-04  0.10265923D-03 -0.12484452D-15  0.40649743D-04
 -0.12283532D-03  0.36976171D-15  0.43400286D-05 -0.13114691D-04 -0.52534662D-16
  0.60366713D-15 -0.10901526D-15 -0.49465187D-15 -0.64602774D-15  0.10971524D-04
 -0.33153730D-04 -0.64628244D-16 -0.51207965D-16  0.11583621D-15  0.41277661D-16
 -0.21516767D-04  0.65019326D-04  0.21095690D-16  0.39683561D-16  0.68694201D-16
  0.11260294D-15  0.17639469D-15  0.26513623D-15  0.37894628D-15  0.50306061D-15
  0.58588240D-15  0.53812732D-15  0.31466421D-15  0.82569462D-16  0.45140403D-17
 -0.16156630D-18  0.45152683D-19 -0.13407355D-19  0.22857219D-20  0.18648347D-21
  0.98286204D-15  0.18058221D-14  0.31226826D-14  0.51138292D-14  0.80514943D-14
  0.12158545D-13  0.17747763D-13  0.24439748D-13  0.31227455D-13  0.34041585D-13
  0.28021466D-13  0.76832956D-14 -0.15497706D-13 -0.15103191D-13 -0.33050037D-14
 -0.11134253D-15 -0.37719292D-17  0.95953013D-20  0.25617739D-17  0.50221030D-17
  0.87960889D-17  0.14369947D-16  0.22664868D-16  0.34200273D-16  0.50144396D-16
  0.69232633D-16  0.89760452D-16  0.99818906D-16  0.86698864D-16  0.25184469D-16
 -0.63489742D-16 -0.92509028D-16 -0.15925760D-16  0.38852035D-16  0.18492589D-16
 -0.89306361D-19  0.12654364D-16  0.27418950D-16  0.46676415D-16  0.76188478D-16
  0.12010366D-15  0.18127111D-15  0.26577299D-15  0.36741230D-15  0.47686430D-15
  0.53274081D-15  0.46536116D-15  0.13784043D-15 -0.35830593D-15 -0.55119564D-15
 -0.96476068D-16  0.30432842D-15  0.25832881D-15 -0.96380169D-16 -0.43582215D-15
  0.30472596D-15  0.19615708D-16 -0.16341269D+02 -0.23446827D+02 -0.31044846D+02
 -0.35848001D+02 -0.33232746D+02 -0.21515486D+02 -0.75941763D+01 -0.89010295D+00
 -0.12940449D-01 -0.18949848D-02 -0.19483386D-04  0.49380016D+02  0.70851580D+02
  0.93811258D+02  0.10832542D+03  0.10042265D+03  0.65015455D+02  0.22948068D+02
  0.26897114D+01  0.39103426D-01  0.57262615D-02  0.58874861D-04  0.27286197D-12
  0.39150862D-12  0.51837823D-12  0.59857998D-12  0.55491118D-12  0.35925961D-12
  0.12680545D-12  0.14862692D-13  0.21607604D-15  0.31641930D-16  0.32532818D-18
  0.40818028D-02  0.58921292D-02  0.78717438D-02  0.93518731D-02  0.90626819D-02
  0.62997199D-02  0.20498684D-02 -0.92260347D-03 -0.99671956D-03 -0.25660240D-03
  0.25029195D-06 -0.12334384D-01 -0.17804825D-01 -0.23786821D-01 -0.28259473D-01
 -0.27385595D-01 -0.19036482D-01 -0.61942887D-02  0.27879215D-02  0.30118853D-02
  0.77540066D-03 -0.75633174D-06 -0.14928638D-13 -0.21549660D-13 -0.28789831D-13
 -0.34203202D-13 -0.33145525D-13 -0.23040368D-13 -0.74971147D-14  0.33742966D-14
  0.36453661D-14  0.93848833D-15 -0.91540871D-18 -0.37258610D-02 -0.54138413D-02
 -0.71977648D-02 -0.86368196D-02 -0.83561611D-02 -0.59319014D-02 -0.18436499D-02
  0.10585075D-02  0.12159901D-02  0.32291686D-03 -0.11650941D-03  0.11258800D-01
  0.16359536D-01  0.21750193D-01  0.26098725D-01  0.25250632D-01  0.17925009D-01
  0.55711378D-02 -0.31985959D-02 -0.36744766D-02 -0.97578956D-03  0.35206792D-03
  0.98762063D-14  0.14350566D-13  0.19079244D-13  0.22893772D-13  0.22149825D-13
  0.15723797D-13  0.48869956D-14 -0.28058046D-14 -0.32232466D-14 -0.85596147D-15
  0.30883357D-15  0.53710486D-03 -0.16230225D-02 -0.44507371D-15  0.11001483D-04
 -0.33244262D-04  0.15763020D-15 -0.12297404D-05  0.37160273D-05  0.64565007D-18