 Molden2AIM, Version 4.0.0 (06/02/2016)           Time: Fri Jun 29 23:12:17 2018
GAUSSIAN              2 MOL ORBITALS    104 PRIMITIVES        2 NUCLEI
  Li   1    (CENTRE  1)   0.00000000  0.00000000  0.73607856  CHARGE =  3.0
  H    2    (CENTRE  2)   0.00000000  0.00000000 -2.28565398  CHARGE =  1.0
CENTRE ASSIGNMENTS    1  1  1  1  1  1  1  1  1  1  1  1  1  1  1  1  1  1  1  1
CENTRE ASSIGNMENTS    1  1  1  1  1  1  1  1  1  1  1  1  1  1  1  1  1  1  1  1
CENTRE ASSIGNMENTS    1  1  1  1  1  1  1  1  1  1  1  1  1  1  1  1  1  1  1  1
CENTRE ASSIGNMENTS    1  1  1  1  1  1  1  1  1  1  1  1  1  1  1  1  1  2  2  2
CENTRE ASSIGNMENTS    2  2  2  2  2  2  2  2  2  2  2  2  2  2  2  2  2  2  2  2
CENTRE ASSIGNMENTS    2  2  2  2
TYPE ASSIGNMENTS      1  1  1  1  1  1  1  1  1  1  1  1  1  1  1  1  1  1  1  1
TYPE ASSIGNMENTS      1  2  2  2  3  3  3  4  4  4  2  3  4  2  3  4  2  3  4  5
TYPE ASSIGNMENTS      6  7  8  9 10  5  6  7  8  9 10  5  6  7  8  9 10 11 12 13
TYPE ASSIGNMENTS     17 14 15 18 19 16 20 11 12 13 17 14 15 18 19 16 20  1  1  1
TYPE ASSIGNMENTS      1  1  1  2  3  4  2  3  4  2  3  4  5  6  7  8  9 10  5  6
TYPE ASSIGNMENTS      7  8  9 10
EXPONENTS  0.5988000D+04 0.8989000D+03 0.2059000D+03 0.5924000D+02 0.1987000D+02
EXPONENTS  0.7406000D+01 0.2930000D+01 0.1189000D+01 0.4798000D+00 0.5988000D+04
EXPONENTS  0.8989000D+03 0.2059000D+03 0.5924000D+02 0.1987000D+02 0.7406000D+01
EXPONENTS  0.2930000D+01 0.1189000D+01 0.4798000D+00 0.7509000D-01 0.2832000D-01
EXPONENTS  0.7600000D-02 0.3266000D+01 0.6511000D+00 0.1696000D+00 0.3266000D+01
EXPONENTS  0.6511000D+00 0.1696000D+00 0.3266000D+01 0.6511000D+00 0.1696000D+00
EXPONENTS  0.5578000D-01 0.5578000D-01 0.5578000D-01 0.2050000D-01 0.2050000D-01
EXPONENTS  0.2050000D-01 0.9100000D-02 0.9100000D-02 0.9100000D-02 0.1874000D+00
EXPONENTS  0.1874000D+00 0.1874000D+00 0.1874000D+00 0.1874000D+00 0.1874000D+00
EXPONENTS  0.8010000D-01 0.8010000D-01 0.8010000D-01 0.8010000D-01 0.8010000D-01
EXPONENTS  0.8010000D-01 0.3710000D-01 0.3710000D-01 0.3710000D-01 0.3710000D-01
EXPONENTS  0.3710000D-01 0.3710000D-01 0.1829000D+00 0.1829000D+00 0.1829000D+00
EXPONENTS  0.1829000D+00 0.1829000D+00 0.1829000D+00 0.1829000D+00 0.1829000D+00
EXPONENTS  0.1829000D+00 0.1829000D+00 0.8160000D-01 0.8160000D-01 0.8160000D-01
EXPONENTS  0.8160000D-01 0.8160000D-01 0.8160000D-01 0.8160000D-01 0.8160000D-01
EXPONENTS  0.8160000D-01 0.8160000D-01 0.3387000D+02 0.5095000D+01 0.1159000D+01
EXPONENTS  0.3258000D+00 0.1027000D+00 0.2526000D-01 0.1407000D+01 0.1407000D+01
EXPONENTS  0.1407000D+01 0.3880000D+00 0.3880000D+00 0.3880000D+00 0.1020000D+00
EXPONENTS  0.1020000D+00 0.1020000D+00 0.1057000D+01 0.1057000D+01 0.1057000D+01
EXPONENTS  0.1057000D+01 0.1057000D+01 0.1057000D+01 0.2470000D+00 0.2470000D+00
EXPONENTS  0.2470000D+00 0.2470000D+00 0.2470000D+00 0.2470000D+00
MO    1     MO 0.0        OCC NO =    2.0000000  ORB. ENERGY =   -1.926074
  0.65160240D-01  0.12110919D+00  0.20624686D+00  0.32164696D+00  0.44935912D+00
  0.53564432D+00  0.50778907D+00  0.32249739D+00  0.79195872D-01 -0.61846235D-03
 -0.11435155D-02 -0.19283628D-02 -0.30726717D-02 -0.42830730D-02 -0.54573318D-02
 -0.54196938D-02 -0.48886916D-02 -0.27981957D-02 -0.49884022D-02  0.53299713D-03
 -0.13987848D-04  0.86873526D-18  0.63746589D-18  0.52346332D-18 -0.45133056D-20
 -0.33118011D-20 -0.27195281D-20  0.73938007D-02  0.54254685D-02  0.44551933D-02
  0.16860996D-18  0.62677968D-19  0.52905883D-03 -0.12503769D-19  0.59672953D-21
 -0.86641718D-04 -0.64615648D-20  0.10191469D-19  0.95719184D-05  0.41869464D-03
  0.41869464D-03 -0.83738928D-03 -0.84078366D-19  0.20704122D-18  0.39828348D-18
  0.36393688D-04  0.36393688D-04 -0.72787376D-04  0.33023534D-19 -0.23045249D-18
 -0.21645600D-18 -0.67063518D-05 -0.67063518D-05  0.13412704D-04 -0.59538944D-20
  0.22091191D-20  0.25424828D-19 -0.39037155D-19 -0.46440903D-20  0.15259958D-03
 -0.28672916D-19  0.54760192D-20 -0.22889936D-03  0.14578438D-18  0.84562516D-20
 -0.22889936D-03 -0.24013711D-19 -0.55311233D-20 -0.41330935D-20 -0.16090918D-04
 -0.11844786D-19 -0.11381873D-19  0.24136377D-04  0.28438156D-19  0.23781153D-19
  0.24136377D-04  0.43017429D-20 -0.60712896D-05 -0.10949821D-04 -0.16145505D-04
  0.31752822D-02  0.70687184D-02 -0.16524157D-03 -0.23084014D-19 -0.62212576D-18
 -0.24623037D-02  0.31562284D-19  0.40215682D-18  0.52201656D-02 -0.69249044D-18
 -0.40630428D-18  0.22608706D-02 -0.65710402D-03 -0.65710402D-03  0.13142080D-02
  0.52719032D-19  0.74125815D-18  0.18966491D-18 -0.50263806D-03 -0.50263806D-03
  0.10052761D-02 -0.12474577D-19 -0.23966227D-18 -0.40855040D-19
MO    2     MO 0.0        OCC NO =    2.0000000  ORB. ENERGY =   -0.163629
 -0.21516745D-02 -0.39991803D-02 -0.68105353D-02 -0.10621194D-01 -0.14838413D-01
 -0.17687661D-01 -0.16767845D-01 -0.10649276D-01 -0.26151490D-02 -0.55229996D-02
 -0.10211835D-01 -0.17220687D-01 -0.27439608D-01 -0.38248748D-01 -0.48735127D-01
 -0.48399012D-01 -0.43657050D-01 -0.24988479D-01  0.29491589D-01  0.41136045D-02
 -0.36598278D-04  0.30464819D-17  0.22354662D-17  0.18356819D-17 -0.10846915D-15
 -0.79593161D-16 -0.65358948D-16 -0.35019389D-01 -0.25696742D-01 -0.21101211D-01
 -0.86396236D-17 -0.14272313D-16 -0.42660964D-02 -0.52049036D-19  0.60652281D-18
  0.16149182D-05 -0.78563860D-19 -0.18057045D-18 -0.52771607D-05 -0.13530176D-02
 -0.13530176D-02  0.27060353D-02  0.28134153D-19 -0.29892864D-18  0.30668022D-17
 -0.85464582D-04 -0.85464582D-04  0.17092916D-03  0.10851425D-19 -0.60539796D-18
 -0.53504557D-18 -0.18184952D-04 -0.18184952D-04  0.36369903D-04  0.80690104D-20
 -0.81720615D-19  0.82848604D-19 -0.19578034D-18  0.30329869D-19 -0.19573173D-03
 -0.20914004D-18 -0.20759687D-18  0.29359760D-03  0.79648105D-18  0.11660727D-18
  0.29359760D-03  0.44620464D-19  0.24953515D-20 -0.83992139D-19 -0.58736366D-05
  0.38544803D-21 -0.35430989D-19  0.88104549D-05 -0.78715026D-20  0.28740741D-18
  0.88104549D-05 -0.60183155D-20  0.45510562D-01  0.82080172D-01  0.12102717D+00
  0.89374149D-01  0.31487239D-01  0.16202253D-02  0.60685076D-17 -0.15681259D-16
  0.68514593D-02  0.54870674D-17 -0.10397400D-16  0.34693324D-02  0.30362110D-17
 -0.81435961D-17 -0.78565481D-03 -0.16731314D-02 -0.16731314D-02  0.33462628D-02
  0.71467065D-18  0.10861295D-17 -0.20662271D-17 -0.19673402D-03 -0.19673402D-03
  0.39346804D-03 -0.10530199D-18  0.48899957D-18 -0.43878372D-17
END DATA
RHF
