 Molden2AIM, Version 4.0.0 (06/02/2016)           Time: Fri Jun 29 23:10:44 2018
GAUSSIAN             14 MOL ORBITALS    268 PRIMITIVES        2 NUCLEI
  Mg   1    (CENTRE  1)   0.00000000  0.00000000  2.01924417  CHARGE = 12.0
  S    2    (CENTRE  2)   0.00000000  0.00000000 -2.01924417  CHARGE = 16.0
CENTRE ASSIGNMENTS    1  1  1  1  1  1  1  1  1  1  1  1  1  1  1  1  1  1  1  1
CENTRE ASSIGNMENTS    1  1  1  1  1  1  1  1  1  1  1  1  1  1  1  1  1  1  1  1
CENTRE ASSIGNMENTS    1  1  1  1  1  1  1  1  1  1  1  1  1  1  1  1  1  1  1  1
CENTRE ASSIGNMENTS    1  1  1  1  1  1  1  1  1  1  1  1  1  1  1  1  1  1  1  1
CENTRE ASSIGNMENTS    1  1  1  1  1  1  1  1  1  1  1  1  1  1  1  1  1  1  1  1
CENTRE ASSIGNMENTS    1  1  1  1  1  1  1  1  1  1  1  1  1  1  1  1  1  1  1  1
CENTRE ASSIGNMENTS    1  1  1  1  1  1  1  1  1  1  1  1  1  1  1  1  1  2  2  2
CENTRE ASSIGNMENTS    2  2  2  2  2  2  2  2  2  2  2  2  2  2  2  2  2  2  2  2
CENTRE ASSIGNMENTS    2  2  2  2  2  2  2  2  2  2  2  2  2  2  2  2  2  2  2  2
CENTRE ASSIGNMENTS    2  2  2  2  2  2  2  2  2  2  2  2  2  2  2  2  2  2  2  2
CENTRE ASSIGNMENTS    2  2  2  2  2  2  2  2  2  2  2  2  2  2  2  2  2  2  2  2
CENTRE ASSIGNMENTS    2  2  2  2  2  2  2  2  2  2  2  2  2  2  2  2  2  2  2  2
CENTRE ASSIGNMENTS    2  2  2  2  2  2  2  2  2  2  2  2  2  2  2  2  2  2  2  2
CENTRE ASSIGNMENTS    2  2  2  2  2  2  2  2
TYPE ASSIGNMENTS      1  1  1  1  1  1  1  1  1  1  1  1  1  1  1  1  1  1  1  1
TYPE ASSIGNMENTS      1  1  1  1  1  1  1  1  1  1  1  1  1  1  1  1  1  1  1  1
TYPE ASSIGNMENTS      1  1  2  2  2  2  2  2  2  2  3  3  3  3  3  3  3  3  4  4
TYPE ASSIGNMENTS      4  4  4  4  4  4  2  2  2  2  2  2  2  2  3  3  3  3  3  3
TYPE ASSIGNMENTS      3  3  4  4  4  4  4  4  4  4  2  3  4  2  3  4  2  3  4  5
TYPE ASSIGNMENTS      6  7  8  9 10  5  6  7  8  9 10  5  6  7  8  9 10 11 12 13
TYPE ASSIGNMENTS     17 14 15 18 19 16 20 11 12 13 17 14 15 18 19 16 20  1  1  1
TYPE ASSIGNMENTS      1  1  1  1  1  1  1  1  1  1  1  1  1  1  1  1  1  1  1  1
TYPE ASSIGNMENTS      1  1  1  1  1  1  1  1  1  1  1  1  1  1  1  1  1  1  1  2
TYPE ASSIGNMENTS      2  2  2  2  2  2  3  3  3  3  3  3  3  4  4  4  4  4  4  4
TYPE ASSIGNMENTS      2  2  2  2  2  2  2  3  3  3  3  3  3  3  4  4  4  4  4  4
TYPE ASSIGNMENTS      4  2  3  4  2  3  4  2  3  4  5  6  7  8  9 10  5  6  7  8
TYPE ASSIGNMENTS      9 10  5  6  7  8  9 10 11 12 13 17 14 15 18 19 16 20 11 12
TYPE ASSIGNMENTS     13 17 14 15 18 19 16 20
EXPONENTS  0.1649000D+06 0.2471000D+05 0.5628000D+04 0.1596000D+04 0.5210000D+03
EXPONENTS  0.1880000D+03 0.7301000D+02 0.2990000D+02 0.1254000D+02 0.4306000D+01
EXPONENTS  0.1826000D+01 0.7417000D+00 0.7612000D-01 0.1649000D+06 0.2471000D+05
EXPONENTS  0.5628000D+04 0.1596000D+04 0.5210000D+03 0.1880000D+03 0.7301000D+02
EXPONENTS  0.2990000D+02 0.1254000D+02 0.4306000D+01 0.1826000D+01 0.7417000D+00
EXPONENTS  0.7612000D-01 0.1649000D+06 0.2471000D+05 0.5628000D+04 0.1596000D+04
EXPONENTS  0.5210000D+03 0.1880000D+03 0.7301000D+02 0.2990000D+02 0.1254000D+02
EXPONENTS  0.4306000D+01 0.1826000D+01 0.7417000D+00 0.7612000D-01 0.1457000D+00
EXPONENTS  0.3310000D-01 0.1290000D-01 0.3169000D+03 0.7486000D+02 0.2372000D+02
EXPONENTS  0.8669000D+01 0.3363000D+01 0.1310000D+01 0.4911000D+00 0.2364000D+00
EXPONENTS  0.3169000D+03 0.7486000D+02 0.2372000D+02 0.8669000D+01 0.3363000D+01
EXPONENTS  0.1310000D+01 0.4911000D+00 0.2364000D+00 0.3169000D+03 0.7486000D+02
EXPONENTS  0.2372000D+02 0.8669000D+01 0.3363000D+01 0.1310000D+01 0.4911000D+00
EXPONENTS  0.2364000D+00 0.3169000D+03 0.7486000D+02 0.2372000D+02 0.8669000D+01
EXPONENTS  0.3363000D+01 0.1310000D+01 0.4911000D+00 0.2364000D+00 0.3169000D+03
EXPONENTS  0.7486000D+02 0.2372000D+02 0.8669000D+01 0.3363000D+01 0.1310000D+01
EXPONENTS  0.4911000D+00 0.2364000D+00 0.3169000D+03 0.7486000D+02 0.2372000D+02
EXPONENTS  0.8669000D+01 0.3363000D+01 0.1310000D+01 0.4911000D+00 0.2364000D+00
EXPONENTS  0.8733000D-01 0.8733000D-01 0.8733000D-01 0.3237000D-01 0.3237000D-01
EXPONENTS  0.3237000D-01 0.7450000D-02 0.7450000D-02 0.7450000D-02 0.1260000D+00
EXPONENTS  0.1260000D+00 0.1260000D+00 0.1260000D+00 0.1260000D+00 0.1260000D+00
EXPONENTS  0.2940000D+00 0.2940000D+00 0.2940000D+00 0.2940000D+00 0.2940000D+00
EXPONENTS  0.2940000D+00 0.4680000D-01 0.4680000D-01 0.4680000D-01 0.4680000D-01
EXPONENTS  0.4680000D-01 0.4680000D-01 0.2520000D+00 0.2520000D+00 0.2520000D+00
EXPONENTS  0.2520000D+00 0.2520000D+00 0.2520000D+00 0.2520000D+00 0.2520000D+00
EXPONENTS  0.2520000D+00 0.2520000D+00 0.9400000D-01 0.9400000D-01 0.9400000D-01
EXPONENTS  0.9400000D-01 0.9400000D-01 0.9400000D-01 0.9400000D-01 0.9400000D-01
EXPONENTS  0.9400000D-01 0.9400000D-01 0.3741000D+06 0.5605000D+05 0.1276000D+05
EXPONENTS  0.3615000D+04 0.1183000D+04 0.4288000D+03 0.1678000D+03 0.6947000D+02
EXPONENTS  0.2984000D+02 0.1272000D+02 0.5244000D+01 0.2219000D+01 0.3490000D+00
EXPONENTS  0.3741000D+06 0.5605000D+05 0.1276000D+05 0.3615000D+04 0.1183000D+04
EXPONENTS  0.4288000D+03 0.1678000D+03 0.6947000D+02 0.2984000D+02 0.1272000D+02
EXPONENTS  0.5244000D+01 0.2219000D+01 0.3490000D+00 0.3741000D+06 0.5605000D+05
EXPONENTS  0.1276000D+05 0.3615000D+04 0.1183000D+04 0.4288000D+03 0.1678000D+03
EXPONENTS  0.6947000D+02 0.2984000D+02 0.1272000D+02 0.5244000D+01 0.2219000D+01
EXPONENTS  0.3490000D+00 0.7767000D+00 0.1322000D+00 0.4970000D-01 0.5744000D+03
EXPONENTS  0.1358000D+03 0.4319000D+02 0.1587000D+02 0.6208000D+01 0.2483000D+01
EXPONENTS  0.3229000D+00 0.5744000D+03 0.1358000D+03 0.4319000D+02 0.1587000D+02
EXPONENTS  0.6208000D+01 0.2483000D+01 0.3229000D+00 0.5744000D+03 0.1358000D+03
EXPONENTS  0.4319000D+02 0.1587000D+02 0.6208000D+01 0.2483000D+01 0.3229000D+00
EXPONENTS  0.5744000D+03 0.1358000D+03 0.4319000D+02 0.1587000D+02 0.6208000D+01
EXPONENTS  0.2483000D+01 0.3229000D+00 0.5744000D+03 0.1358000D+03 0.4319000D+02
EXPONENTS  0.1587000D+02 0.6208000D+01 0.2483000D+01 0.3229000D+00 0.5744000D+03
EXPONENTS  0.1358000D+03 0.4319000D+02 0.1587000D+02 0.6208000D+01 0.2483000D+01
EXPONENTS  0.3229000D+00 0.8688000D+00 0.8688000D+00 0.8688000D+00 0.1098000D+00
EXPONENTS  0.1098000D+00 0.1098000D+00 0.3510000D-01 0.3510000D-01 0.3510000D-01
EXPONENTS  0.2690000D+00 0.2690000D+00 0.2690000D+00 0.2690000D+00 0.2690000D+00
EXPONENTS  0.2690000D+00 0.8190000D+00 0.8190000D+00 0.8190000D+00 0.8190000D+00
EXPONENTS  0.8190000D+00 0.8190000D+00 0.1010000D+00 0.1010000D+00 0.1010000D+00
EXPONENTS  0.1010000D+00 0.1010000D+00 0.1010000D+00 0.5570000D+00 0.5570000D+00
EXPONENTS  0.5570000D+00 0.5570000D+00 0.5570000D+00 0.5570000D+00 0.5570000D+00
EXPONENTS  0.5570000D+00 0.5570000D+00 0.5570000D+00 0.2180000D+00 0.2180000D+00
EXPONENTS  0.2180000D+00 0.2180000D+00 0.2180000D+00 0.2180000D+00 0.2180000D+00
EXPONENTS  0.2180000D+00 0.2180000D+00 0.2180000D+00
MO    1     MO 0.0        OCC NO =    2.0000000  ORB. ENERGY =  -88.506563
  0.93045232D-04  0.17396785D-03  0.29988158D-03  0.48366381D-03  0.72591135D-03
  0.97289822D-03  0.10693062D-02  0.80035155D-03  0.27477055D-03  0.15487861D-04
 -0.10799209D-05  0.25649980D-06  0.15987294D-07 -0.20403176D-03 -0.38272422D-03
 -0.65835281D-03 -0.10743514D-02 -0.16304046D-02 -0.23089372D-02 -0.27916946D-02
 -0.27566830D-02 -0.13787199D-02  0.77201351D-03  0.12328383D-02  0.40237176D-03
 -0.23404759D-05  0.12223249D-03  0.22911397D-03  0.39461387D-03  0.64326710D-03
  0.97928396D-03  0.13877627D-02  0.16958663D-02  0.16980337D-02  0.88664851D-03
 -0.55205973D-03 -0.99815383D-03 -0.73163311D-03  0.33352888D-03  0.33515197D-03
  0.34027430D-05 -0.22265776D-05  0.44484670D-19  0.57494091D-19  0.61991507D-19
  0.51103406D-19  0.27900982D-19  0.89462058D-20  0.10075809D-20 -0.11562443D-22
 -0.54938922D-18 -0.71005661D-18 -0.76560005D-18 -0.63113114D-18 -0.34457936D-18
 -0.11048635D-18 -0.12443704D-19  0.14279709D-21 -0.39828471D-02 -0.51476199D-02
 -0.55502872D-02 -0.45754426D-02 -0.24980594D-02 -0.80098087D-03 -0.90211764D-04
  0.10352205D-05 -0.50485354D-19 -0.65246534D-19 -0.71406235D-19 -0.59658039D-19
 -0.33375282D-19 -0.11305474D-19 -0.17693709D-20  0.33419211D-20  0.60348912D-18
  0.77994052D-18  0.85357202D-18  0.71313707D-18  0.39895965D-18  0.13514276D-18
  0.21150611D-19 -0.39948477D-19  0.38104186D-02  0.49245293D-02  0.53894372D-02
  0.45027336D-02  0.25190235D-02  0.85328879D-03  0.13354455D-03 -0.25223391D-03
 -0.23858879D-20  0.17345611D-18 -0.19898995D-03 -0.24688127D-21  0.14868714D-19
  0.63658694D-05  0.10009205D-22 -0.13349175D-21 -0.16450806D-06 -0.20472514D-04
 -0.20472514D-04  0.40945028D-04  0.90170752D-23  0.41768394D-21 -0.13345643D-18
 -0.17056385D-04 -0.17056385D-04  0.34112771D-04 -0.10735986D-21 -0.34737183D-20
  0.99495715D-19 -0.48957398D-06 -0.48957398D-06  0.97914796D-06 -0.24134379D-22
  0.39585105D-21 -0.16045371D-19 -0.73239070D-21  0.64696498D-20  0.33361491D-05
 -0.84890111D-21  0.63631628D-20 -0.50042236D-05  0.30460732D-20 -0.25772112D-19
 -0.50042236D-05 -0.25601434D-21  0.75494612D-22 -0.47898975D-20 -0.10335914D-05
  0.81677500D-22 -0.47790062D-20  0.15503872D-05 -0.30816134D-21  0.19148699D-19
  0.15503872D-05  0.56133377D-22  0.58507122D+00  0.10937566D+01  0.18903530D+01
  0.30575611D+01  0.46213246D+01  0.63643222D+01  0.74384172D+01  0.64273536D+01
  0.29977406D+01  0.40702841D+00  0.10899218D-02  0.21379760D-02  0.97607536D-04
 -0.10742707D-02 -0.20062463D-02 -0.34801447D-02 -0.56429343D-02 -0.86879398D-02
 -0.12373578D-01 -0.15910815D-01 -0.16701621D-01 -0.11809229D-01  0.26152033D-03
  0.84850840D-02  0.46721175D-02 -0.19758306D-04  0.40262363D-03  0.75135526D-03
  0.13050142D-02  0.21138334D-02  0.32652540D-02  0.46551101D-02  0.60547777D-02
  0.64527609D-02  0.47858785D-02 -0.14896663D-03 -0.43357566D-02 -0.42475450D-02
  0.19838554D-02 -0.28829665D-02 -0.10805917D-02 -0.56129956D-04 -0.77915134D-17
 -0.10222041D-16 -0.11212021D-16 -0.92254288D-17 -0.48638285D-17 -0.12653383D-17
  0.14002258D-20  0.64788942D-16  0.84999564D-16  0.93231566D-16  0.76712410D-16
  0.40444300D-16  0.10521695D-16 -0.11643328D-19  0.13617509D-02  0.17865430D-02
  0.19595653D-02  0.16123614D-02  0.85006883D-03  0.22114773D-03 -0.24472251D-06
  0.11375372D-17  0.14935933D-17  0.16803932D-17  0.14158583D-17  0.79201130D-18
  0.19713000D-18 -0.90413316D-19 -0.14978869D-16 -0.19667347D-16 -0.22127091D-16
 -0.18643747D-16 -0.10429051D-16 -0.25957695D-17  0.11905450D-17 -0.10188510D-02
 -0.13377576D-02 -0.15050675D-02 -0.12681331D-02 -0.70937590D-03 -0.17656222D-03
  0.80979940D-04  0.46686114D-18 -0.42746502D-17 -0.10189341D-04  0.11837064D-19
 -0.40602484D-18 -0.34195943D-03 -0.13636994D-21 -0.13482451D-19 -0.15761439D-05
  0.47338538D-04  0.47338538D-04 -0.94677076D-04 -0.33760136D-20 -0.51460423D-20
  0.37346690D-19 -0.85528414D-04 -0.85528414D-04  0.17105683D-03  0.35261348D-19
  0.68758627D-20 -0.50682500D-19  0.17263006D-04  0.17263006D-04 -0.34526011D-04
  0.33502647D-21  0.12736267D-20 -0.10144408D-18  0.75074757D-21 -0.46882204D-19
  0.24530714D-04  0.19362706D-21 -0.46353337D-19 -0.36796071D-04 -0.24458698D-20
  0.18699995D-18 -0.36796071D-04 -0.11404466D-20  0.12303034D-21  0.14258591D-19
 -0.23026781D-04  0.20014556D-21  0.14226703D-19  0.34540171D-04 -0.56923658D-21
 -0.57002475D-19  0.34540171D-04  0.19352739D-21
MO    2     MO 0.0        OCC NO =    2.0000000  ORB. ENERGY =  -46.632773
  0.42659043D+00  0.79760155D+00  0.13748863D+01  0.22174845D+01  0.33281323D+01
  0.44605088D+01  0.49025165D+01  0.36694230D+01  0.12597581D+01  0.71008189D-01
 -0.49511827D-02  0.11759911D-02  0.73297969D-04 -0.19671078D-02 -0.36899149D-02
 -0.63473009D-02 -0.10358020D-01 -0.15719031D-01 -0.22260889D-01 -0.26915243D-01
 -0.26577689D-01 -0.13292493D-01  0.74431247D-02  0.11886021D-01  0.38793404D-02
 -0.22564960D-04  0.10314278D-02  0.19333199D-02  0.33298487D-02  0.54280457D-02
  0.82634385D-02  0.11710282D-01  0.14310136D-01  0.14328425D-01  0.74817578D-02
 -0.46584155D-02 -0.84226671D-02 -0.61736998D-02  0.28143985D-02 -0.50682226D-03
  0.60182919D-03 -0.40794471D-05 -0.29680025D-18 -0.38359868D-18 -0.41360529D-18
 -0.34096024D-18 -0.18615444D-18 -0.59688790D-19 -0.67225464D-20  0.77144239D-22
  0.44233504D-17  0.57169473D-17  0.61641496D-17  0.50814870D-17  0.27743450D-17
  0.88956945D-18  0.10018920D-18 -0.11497160D-20 -0.22362374D-02 -0.28902190D-02
 -0.31163034D-02 -0.25689602D-02 -0.14025780D-02 -0.44972437D-03 -0.50650933D-04
  0.58124220D-06  0.32355413D-17  0.41815663D-17  0.45763336D-17  0.38234069D-17
  0.21389788D-17  0.72455323D-18  0.11339670D-18 -0.21417942D-18 -0.93541567D-18
 -0.12089176D-17 -0.13230473D-17 -0.11053714D-17 -0.61839244D-18 -0.20947297D-18
 -0.32783712D-19  0.61920639D-19  0.30625086D-02  0.39579413D-02  0.43315970D-02
  0.36189358D-02  0.20245889D-02  0.68580503D-03  0.10733239D-03 -0.20272537D-03
  0.55655964D-19  0.94153776D-19 -0.13943269D-02 -0.32000389D-20  0.17373976D-19
 -0.10881590D-03  0.19222528D-21 -0.40352323D-21  0.11630324D-05 -0.16910844D-03
 -0.16910844D-03  0.33821688D-03  0.46677503D-21 -0.86266164D-20 -0.15588021D-18
  0.12415650D-04  0.12415650D-04 -0.24831301D-04  0.58710143D-21  0.49759453D-19
  0.12270147D-18 -0.12907652D-04 -0.12907652D-04  0.25815304D-04 -0.44382184D-22
 -0.23075373D-20 -0.52093631D-20  0.54127408D-20  0.59522762D-20 -0.58424408D-04
  0.57422392D-20  0.48450469D-20  0.87636612D-04 -0.21980462D-19 -0.22701876D-19
  0.87636612D-04 -0.80148953D-21 -0.89337638D-21 -0.53072590D-20 -0.13723131D-04
 -0.90340993D-21 -0.52727606D-20  0.20584697D-04  0.35835391D-20  0.21194538D-19
  0.20584697D-04 -0.22066290D-22  0.27492392D-03  0.51395430D-03  0.88827349D-03
  0.14367425D-02  0.21715522D-02  0.29905837D-02  0.34952990D-02  0.30202020D-02
  0.14086330D-02  0.19126193D-03  0.51215232D-06  0.10046311D-05  0.45865607D-07
 -0.49923040D-03 -0.93233404D-03 -0.16172776D-02 -0.26223598D-02 -0.40374214D-02
 -0.57501950D-02 -0.73940043D-02 -0.77615043D-02 -0.54879335D-02  0.12153259D-03
  0.39431512D-02  0.21712061D-02 -0.91819936D-05  0.27246016D-03  0.50845097D-03
  0.88311848D-03  0.14304560D-02  0.22096359D-02  0.31501680D-02  0.40973395D-02
  0.43666594D-02  0.32386605D-02 -0.10080747D-03 -0.29340577D-02 -0.28743639D-02
  0.13424984D-02 -0.28977364D-03 -0.30451006D-02 -0.18149395D-02  0.74454235D-18
  0.97679902D-18  0.10713996D-17  0.88156461D-18  0.46477830D-18  0.12091335D-18
 -0.13380294D-21  0.29639397D-17  0.38885275D-17  0.42651220D-17  0.35094099D-17
  0.18502303D-17  0.48134248D-18 -0.53265453D-21 -0.35651607D-02 -0.46772967D-02
 -0.51302815D-02 -0.42212770D-02 -0.22255407D-02 -0.57898050D-03  0.64070095D-06
 -0.56183064D-18 -0.73768705D-18 -0.82994767D-18 -0.69929366D-18 -0.39117507D-18
 -0.97362678D-19  0.44655216D-19 -0.24615951D-17 -0.32320893D-17 -0.36363184D-17
 -0.30638732D-17 -0.17138877D-17 -0.42658316D-18  0.19565159D-18  0.30665753D-02
  0.40264321D-02  0.45300076D-02  0.38168739D-02  0.21351057D-02  0.53142347D-03
 -0.24373641D-03 -0.77586090D-19 -0.23305959D-18  0.25891844D-03 -0.27523485D-19
 -0.25710581D-18 -0.14579604D-02 -0.23545341D-20 -0.99444331D-20 -0.81614507D-04
  0.12816902D-03  0.12816902D-03 -0.25633805D-03 -0.18590186D-20  0.48406591D-19
 -0.50156780D-19 -0.10912139D-03 -0.10912139D-03  0.21824278D-03  0.85804862D-20
 -0.95554829D-19  0.14995005D-18  0.46131291D-04  0.46131291D-04 -0.92262581D-04
  0.37771929D-22 -0.76502760D-20 -0.77847355D-19  0.25322095D-20 -0.55625108D-19
 -0.68146562D-04  0.40300301D-20 -0.56062250D-19  0.10221984D-03 -0.11626658D-19
  0.22293757D-18  0.10221984D-03  0.12091454D-19 -0.51942529D-20  0.16894589D-19
 -0.59654028D-05 -0.53139353D-20  0.16961967D-19  0.89481042D-05  0.20896694D-19
 -0.67645733D-19  0.89481042D-05 -0.16439899D-20
MO    3     MO 0.0        OCC NO =    2.0000000  ORB. ENERGY =   -7.789343
 -0.84824971D-04 -0.15859832D-03 -0.27338796D-03 -0.44093360D-03 -0.66177931D-03
 -0.88694564D-03 -0.97483624D-03 -0.72964294D-03 -0.25049541D-03 -0.14119556D-04
  0.98451323D-06 -0.23383883D-06 -0.14574865D-07  0.18110013D-03  0.33970892D-03
  0.58435893D-03  0.95360245D-03  0.14471594D-02  0.20494301D-02  0.24779292D-02
  0.24468527D-02  0.12237622D-02 -0.68524503D-03 -0.10942766D-02 -0.35714822D-03
  0.20774241D-05 -0.10600689D-03 -0.19870052D-03 -0.34223133D-03 -0.55787739D-03
 -0.84929011D-03 -0.12035458D-02 -0.14707506D-02 -0.14726303D-02 -0.76895144D-03
  0.47877724D-03  0.86565512D-03  0.63451336D-03 -0.28925499D-03 -0.25868684D-03
  0.93107056D-04  0.50733286D-06  0.43896625D-15  0.56734073D-15  0.61172038D-15
  0.50427868D-15  0.27532158D-15  0.88279454D-16  0.99426160D-17 -0.11409598D-18
 -0.21245783D-15 -0.27459055D-15 -0.29607011D-15 -0.24406877D-15 -0.13325449D-15
 -0.42726887D-16 -0.48121846D-17  0.55221980D-19  0.24681771D-02  0.31899888D-02
  0.34395224D-02  0.28354095D-02  0.15480516D-02  0.49636920D-03  0.55904383D-04
 -0.64152790D-06 -0.77041902D-19 -0.99567828D-19 -0.10896769D-18 -0.91039646D-19
 -0.50931507D-19 -0.17252433D-19 -0.27001039D-20  0.50998545D-20 -0.77868334D-17
 -0.10063590D-16 -0.11013659D-16 -0.92016233D-17 -0.51477852D-17 -0.17437501D-17
 -0.27290681D-18  0.51545609D-18 -0.23577399D-02 -0.30471086D-02 -0.33347757D-02
 -0.27861177D-02 -0.15586745D-02 -0.52798216D-03 -0.82632212D-04  0.15607261D-03
  0.12651800D-17 -0.16110883D-17  0.16416908D-03  0.10548895D-18 -0.21029485D-18
 -0.23811035D-04 -0.10851636D-20  0.16394591D-20  0.39028272D-06  0.17638560D-04
  0.17638560D-04 -0.35277120D-04 -0.43819035D-20 -0.94099700D-18  0.10724973D-17
 -0.35921605D-05 -0.35921605D-05  0.71843209D-05  0.53546998D-20  0.53191185D-18
 -0.12991742D-17 -0.60690675D-06 -0.60690675D-06  0.12138135D-05 -0.40062805D-20
 -0.12087803D-18  0.19401349D-18  0.39766128D-19 -0.15064329D-18 -0.77661570D-05
  0.40467686D-19 -0.14970868D-18  0.11649236D-04 -0.15976607D-18  0.60163855D-18
  0.11649236D-04 -0.38724845D-19 -0.34941165D-19  0.45930783D-19  0.60115419D-06
 -0.33745697D-19  0.45604089D-19 -0.90173128D-06  0.13856919D-18 -0.18339644D-18
 -0.90173128D-06  0.79144139D-20 -0.19430421D-02 -0.36324043D-02 -0.62779287D-02
 -0.10154268D-01 -0.15347582D-01 -0.21136138D-01 -0.24703245D-01 -0.21345468D-01
 -0.99556021D-02 -0.13517557D-02 -0.36196687D-05 -0.71002936D-05 -0.32415806D-06
 -0.15893223D+00 -0.29681270D+00 -0.51486755D+00 -0.83483994D+00 -0.12853311D+01
 -0.18306002D+01 -0.23539143D+01 -0.24709095D+01 -0.17471081D+01  0.38690441D-01
  0.12553198D+01  0.69121313D+00 -0.29231286D-02 -0.44212595D-03 -0.82507243D-03
 -0.14330521D-02 -0.23212264D-02 -0.35856154D-02 -0.51118335D-02 -0.66488256D-02
 -0.70858559D-02 -0.52554319D-02  0.16358208D-03  0.47611476D-02  0.46642813D-02
 -0.21784960D-02  0.50548100D-01  0.14092167D-02 -0.16833752D-03 -0.81073740D-15
 -0.10636433D-14 -0.11666546D-14 -0.95994189D-15 -0.50610035D-15 -0.13166339D-15
  0.14569897D-18  0.54818767D-14  0.71919238D-14  0.78884442D-14  0.64907369D-14
  0.34220448D-14  0.89025433D-15 -0.98515718D-18  0.30410000D-01  0.39896264D-01
  0.43760121D-01  0.36006521D-01  0.18983350D-01  0.49385704D-02 -0.54650317D-05
 -0.95362755D-16 -0.12521188D-15 -0.14087180D-15 -0.11869515D-15 -0.66396401D-16
 -0.16525929D-16  0.75795873D-17  0.17451488D-15  0.22913910D-15  0.25779693D-15
  0.21721341D-15  0.12150613D-15  0.30242629D-16 -0.13870727D-16  0.21974824D-02
  0.28853077D-02  0.32461658D-02  0.27351401D-02  0.15299990D-02  0.38081364D-03
 -0.17465948D-03 -0.30222247D-16  0.83979261D-16  0.57554209D-03 -0.29916443D-17
  0.39719732D-17  0.28293603D-03 -0.92771346D-19  0.20373632D-18 -0.83665302D-05
 -0.70401480D-05 -0.70401480D-05  0.14080296D-04 -0.61851527D-18  0.14637461D-18
 -0.31276068D-17 -0.22178753D-03 -0.22178753D-03  0.44357506D-03  0.66221382D-17
  0.75541219D-18  0.44331829D-16 -0.16632451D-04 -0.16632451D-04  0.33264902D-04
  0.62385274D-19 -0.74585059D-18  0.11681259D-17 -0.50661017D-18  0.36935836D-18
 -0.27270042D-05  0.44850342D-18  0.24507700D-18  0.40905062D-05  0.10713271D-17
 -0.13531521D-17  0.40905062D-05 -0.87236462D-18  0.12492418D-18 -0.95060577D-19
  0.15456434D-04  0.66978186D-19 -0.87795366D-19 -0.23184652D-04 -0.44175074D-18
  0.37297710D-18 -0.23184652D-04  0.61514535D-19
MO    4     MO 0.0        OCC NO =    2.0000000  ORB. ENERGY =   -5.731529
 -0.52943826D-04 -0.98989743D-04 -0.17063613D-03 -0.27521037D-03 -0.41305206D-03
 -0.55359048D-03 -0.60844773D-03 -0.45540940D-03 -0.15634766D-03 -0.88127743D-05
  0.61448766D-06 -0.14595139D-06 -0.90969573D-08  0.10371258D-03  0.19454479D-03
  0.33465117D-03  0.54610986D-03  0.82876048D-03  0.11736694D-02  0.14190626D-02
  0.14012657D-02  0.70082518D-03 -0.39242670D-03 -0.62667123D-03 -0.20453194D-03
  0.11897010D-05 -0.62419834D-04 -0.11700045D-03 -0.20151542D-03 -0.32849388D-03
 -0.50008588D-03 -0.70868158D-03 -0.86601927D-03 -0.86712610D-03 -0.45278021D-03
  0.28191749D-03  0.50972206D-03  0.37361930D-03 -0.17032147D-03  0.17750040D-03
  0.27782776D-05 -0.91644395D-06  0.76854840D-16  0.99330829D-16  0.10710088D-15
  0.88289833D-16  0.48203697D-16  0.15456093D-16  0.17407675D-17 -0.19976089D-19
 -0.31797121D-15 -0.41096103D-15 -0.44310803D-15 -0.36528116D-15 -0.19943295D-15
 -0.63946431D-16 -0.72020700D-17  0.82646988D-19 -0.19292206D-02 -0.24934159D-02
 -0.26884608D-02 -0.22162633D-02 -0.12100157D-02 -0.38798094D-03 -0.43696980D-04
  0.50144247D-06  0.35473818D-17  0.45845844D-17  0.50173993D-17  0.41919057D-17
  0.23451329D-17  0.79438546D-18  0.12432584D-18 -0.23482197D-18  0.15590803D-15
  0.20149326D-15  0.22051555D-15  0.18423496D-15  0.10306899D-15  0.34913375D-16
  0.54641419D-17 -0.10320465D-16  0.14118025D-02  0.18245929D-02  0.19968465D-02
  0.16683129D-02  0.93332624D-03  0.31615299D-03  0.49479742D-04 -0.93455471D-04
 -0.32544114D-18  0.33945868D-18  0.95001614D-04  0.87239747D-20 -0.20618914D-18
  0.83393480D-06  0.35986936D-21  0.12391622D-20  0.10474784D-06  0.15403006D-04
  0.15403006D-04 -0.30806012D-04  0.92685204D-20  0.37883906D-18 -0.13528073D-17
  0.33987800D-05  0.33987800D-05 -0.67975601D-05 -0.83656265D-20  0.37572028D-18
 -0.17519654D-17  0.72909152D-06  0.72909152D-06 -0.14581830D-05  0.10203987D-20
  0.59603803D-19  0.15815463D-18  0.31142588D-19 -0.40269567D-18  0.27582326D-04
  0.31602606D-19 -0.40239018D-18 -0.41373489D-04 -0.12503037D-18  0.16104772D-17
 -0.41373489D-04  0.91732285D-20  0.18154830D-19  0.19037916D-20  0.60366458D-06
  0.18227696D-19  0.14309197D-20 -0.90549687D-06 -0.72692185D-19 -0.71422944D-20
 -0.90549687D-06 -0.50249248D-20  0.34122524D-05  0.63790077D-05  0.11024917D-04
  0.17832308D-04  0.26952490D-04  0.37118001D-04  0.43382338D-04  0.37485613D-04
  0.17483423D-04  0.23738712D-05  0.63566421D-08  0.12469104D-07  0.56926669D-09
  0.53220313D-03  0.99391201D-03  0.17240942D-02  0.27955591D-02  0.43040815D-02
  0.61299788D-02  0.78823570D-02  0.82741293D-02  0.58503957D-02 -0.12955946D-03
 -0.42035850D-02 -0.23146080D-02  0.97884378D-05  0.18768709D-04  0.35025187D-04
  0.60834558D-04  0.98538487D-04  0.15221312D-03  0.21700268D-03  0.28224960D-03
  0.30080199D-03  0.22309858D-03 -0.69442304D-05 -0.20211569D-03 -0.19800362D-03
  0.92479433D-04 -0.19505679D-03  0.22181839D-03  0.75922011D-06 -0.44397087D-14
 -0.58246560D-14 -0.63887598D-14 -0.52567728D-14 -0.27714746D-14 -0.72100670D-15
  0.79786742D-18 -0.14059287D-13 -0.18445019D-13 -0.20231375D-13 -0.16646696D-13
 -0.87764672D-14 -0.22832220D-14  0.25266179D-17  0.96992402D+01  0.12724875D+02
  0.13957248D+02  0.11484245D+02  0.60547212D+01  0.15751523D+01 -0.17430666D-02
  0.45650196D-16  0.59938986D-16  0.67435400D-16  0.56819423D-16  0.31783989D-16
  0.79109701D-17 -0.36283521D-17  0.80420046D-16  0.10559201D-15  0.11879813D-15
  0.10009641D-15  0.55992527D-16  0.13936426D-16 -0.63919165D-17 -0.14174746D-01
 -0.18611528D-01 -0.20939224D-01 -0.17642879D-01 -0.98691792D-02 -0.24564186D-02
  0.11266319D-02 -0.26807769D-16 -0.76512860D-16  0.79037886D-01  0.14114644D-17
 -0.52324660D-18  0.54218448D-04  0.36754450D-19  0.23099769D-18 -0.56274234D-05
  0.30605275D-05  0.30605275D-05 -0.61210550D-05  0.15375035D-18  0.20382387D-17
 -0.11546471D-16 -0.33952435D-03 -0.33952435D-03  0.67904869D-03 -0.24218571D-17
 -0.26486598D-16  0.10107405D-15  0.57893073D-05  0.57893073D-05 -0.11578615D-04
 -0.20212217D-19  0.12063324D-18  0.32991220D-18  0.50879023D-18 -0.26013863D-17
  0.16477687D-03  0.59002221D-18 -0.30282828D-17 -0.24716530D-03 -0.21163929D-17
  0.10832442D-16 -0.24716530D-03  0.10378268D-17 -0.11929842D-18  0.45130297D-18
 -0.19068375D-04 -0.12236438D-18  0.47494778D-18  0.28602562D-04  0.48025963D-18
 -0.18288567D-17  0.28602562D-04 -0.76697430D-19
MO    5     MO 0.0        OCC NO =    2.0000000  ORB. ENERGY =   -5.723984
 -0.50280545D-17 -0.94010173D-17 -0.16205247D-16 -0.26136622D-16 -0.39227393D-16
 -0.52574271D-16 -0.57784043D-16 -0.43250053D-16 -0.14848276D-16 -0.83694573D-18
  0.58357653D-19 -0.13860947D-19 -0.86393448D-21  0.99784153D-17  0.18717583D-16
  0.32197526D-16  0.52542432D-16  0.79736871D-16  0.11292131D-15  0.13653114D-15
  0.13481885D-15  0.67427934D-16 -0.37756237D-16 -0.60293420D-16 -0.19678469D-16
  0.11446375D-18 -0.62509121D-17 -0.11716781D-16 -0.20180368D-16 -0.32896377D-16
 -0.50080122D-16 -0.70969530D-16 -0.86725804D-16 -0.86836646D-16 -0.45342788D-16
  0.28232075D-16  0.51045118D-16  0.37415373D-16 -0.17056510D-16 -0.26517844D-16
  0.70598270D-16 -0.15415999D-17 -0.31795550D-04 -0.41094072D-04 -0.44308614D-04
 -0.36526311D-04 -0.19942310D-04 -0.63943271D-05 -0.72017142D-06  0.82642905D-08
  0.27122480D-03  0.35054375D-03  0.37796468D-03  0.31157950D-03  0.17011340D-03
  0.54545372D-04  0.61432606D-05 -0.70496674D-07  0.36063753D-15  0.46610499D-15
  0.50256558D-15  0.41429567D-15  0.22619346D-15  0.72526952D-16  0.81684651D-17
 -0.93736806D-19  0.32374926D-04  0.41840882D-04  0.45790936D-04  0.38257127D-04
  0.21402688D-04  0.72499021D-05  0.11346509D-05 -0.21430859D-05 -0.27616704D-03
 -0.35691425D-03 -0.39060930D-03 -0.32634383D-03 -0.18257082D-03 -0.61843662D-04
 -0.96788850D-05  0.18281113D-04 -0.18235227D-15 -0.23566941D-15 -0.25791815D-15
 -0.21548385D-15 -0.12055097D-15 -0.40835184D-16 -0.63909387D-17  0.12070964D-16
 -0.50842490D-05  0.43370044D-04 -0.14488602D-16 -0.29693120D-06  0.25329049D-05
 -0.17002804D-16 -0.63034608D-08  0.53770257D-07  0.53303906D-18  0.29774568D-16
 -0.29878314D-16  0.10374630D-18 -0.14590801D-15  0.45362762D-05 -0.38695686D-04
 -0.35387491D-15  0.36667054D-15 -0.12795621D-16  0.18079762D-15  0.17193803D-05
 -0.14666788D-04 -0.11432287D-16  0.76054398D-17  0.38268476D-17 -0.42146623D-17
  0.30672297D-06 -0.26164314D-05  0.33911378D-06 -0.28927339D-05  0.13833671D-17
  0.33882683D-06 -0.28902862D-05 -0.11108483D-15 -0.13561682D-05  0.11568488D-04
  0.10693473D-15 -0.67736388D-16  0.12859955D-06 -0.10969896D-05 -0.11827578D-17
  0.12855721D-06 -0.10966284D-05  0.33019473D-16 -0.51435587D-06  0.43875973D-05
 -0.29471199D-16  0.50194474D-16 -0.23252179D-16 -0.43468598D-16 -0.75127309D-16
 -0.12151505D-15 -0.18366288D-15 -0.25293393D-15 -0.29562112D-15 -0.25543895D-15
 -0.11913764D-15 -0.16176317D-16 -0.43316192D-19 -0.84968462D-19 -0.38791652D-20
  0.12362886D-15  0.23088216D-15  0.40050083D-15  0.64939825D-15  0.99982253D-15
  0.14239719D-14  0.18310430D-14  0.19220502D-14  0.13590257D-14 -0.30096194D-16
 -0.97647755D-15 -0.53767504D-15  0.22738186D-17 -0.14893998D-16 -0.27794404D-16
 -0.48275554D-16 -0.78195686D-16 -0.12078945D-15 -0.17220351D-15 -0.22398052D-15
 -0.23870285D-15 -0.17704094D-15  0.55106271D-17  0.16038987D-15  0.15712672D-15
 -0.73387495D-16  0.23400996D-16 -0.11662322D-16 -0.94215869D-16 -0.11295555D+01
 -0.14819153D+01 -0.16254352D+01 -0.13374338D+01 -0.70512155D+00 -0.18343930D+00
  0.20299429D-03  0.96354192D+01  0.12641145D+02  0.13865410D+02  0.11408679D+02
  0.60148811D+01  0.15647878D+01 -0.17315972D-02  0.12965320D-13  0.17009794D-13
  0.18657152D-13  0.15351400D-13  0.80935616D-14  0.21055622D-14 -0.23300192D-17
  0.15137504D-02  0.19875635D-02  0.22361430D-02  0.18841195D-02  0.10539500D-02
  0.26232602D-03 -0.12031535D-03 -0.12912708D-01 -0.16954464D-01 -0.19074916D-01
 -0.16072059D-01 -0.89904842D-02 -0.22377132D-02  0.10263231D-02  0.25307953D-16
  0.33229497D-16  0.37385425D-16  0.31500047D-16  0.17620685D-16  0.43857525D-17
 -0.20115174D-17 -0.91103499D-02  0.77713794D-01  0.16786137D-15  0.40144805D-05
 -0.34244624D-04 -0.46404580D-17  0.66790648D-06 -0.56974263D-05  0.20245569D-18
 -0.17875289D-15  0.16620037D-15  0.12552513D-16 -0.61141883D-15  0.72454484D-05
 -0.61805670D-04 -0.62208766D-15  0.65783484D-15 -0.35747178D-16  0.32829956D-14
 -0.72739851D-04  0.62049096D-03  0.71507226D-16 -0.74300773D-16  0.27935466D-17
  0.14406595D-15  0.28052711D-05 -0.23929735D-04  0.63179680D-05 -0.53894007D-04
 -0.47617076D-17  0.62487512D-05 -0.53303569D-04  0.27834384D-15 -0.25202655D-04
  0.21498559D-03 -0.26405871D-15 -0.84522686D-14 -0.99174449D-06  0.84598537D-05
  0.26171652D-17 -0.98924743D-06  0.84385530D-05  0.82000097D-16  0.39644809D-05
 -0.33818114D-04 -0.89851593D-16  0.80670361D-15
MO    6     MO 0.0        OCC NO =    2.0000000  ORB. ENERGY =   -5.723984
 -0.33542993D-17 -0.62715760D-17 -0.10810791D-16 -0.17436178D-16 -0.26169250D-16
 -0.35073177D-16 -0.38548703D-16 -0.28852834D-16 -0.99055336D-17 -0.55834051D-18
  0.38931367D-19 -0.92468695D-20 -0.57634515D-21  0.81690272D-17  0.15323520D-16
  0.26359142D-16  0.43014902D-16  0.65278168D-16  0.92445270D-16  0.11177392D-15
  0.11037212D-15  0.55201213D-16 -0.30909891D-16 -0.49360402D-16 -0.16110168D-16
  0.93708016D-19 -0.49065968D-17 -0.91969810D-17 -0.15840397D-16 -0.25821713D-16
 -0.39309938D-16 -0.55706890D-16 -0.68074634D-16 -0.68161639D-16 -0.35591411D-16
  0.22160512D-16  0.40067403D-16  0.29368858D-16 -0.13388353D-16 -0.95403164D-16
 -0.66216675D-16 -0.23300892D-17  0.27122480D-03  0.35054375D-03  0.37796468D-03
  0.31157950D-03  0.17011340D-03  0.54545372D-04  0.61432606D-05 -0.70496674D-07
  0.31795550D-04  0.41094072D-04  0.44308614D-04  0.36526311D-04  0.19942310D-04
  0.63943271D-05  0.72017142D-06 -0.82642905D-08  0.77806779D-15  0.10056116D-14