 Molden2AIM, Version 4.0.0 (06/02/2016)           Time: Fri Jun 29 23:15:22 2018
GAUSSIAN             23 MOL ORBITALS    400 PRIMITIVES        2 NUCLEI
  Mg   1    (CENTRE  1)   0.00000000  0.00000000 -0.71579235  CHARGE = 12.0
  Se   2    (CENTRE  2)   0.00000000  0.00000000  3.55038154  CHARGE = 34.0
CENTRE ASSIGNMENTS    1  1  1  1  1  1  1  1  1  1  1  1  1  1  1  1  1  1  1  1
CENTRE ASSIGNMENTS    1  1  1  1  1  1  1  1  1  1  1  1  1  1  1  1  1  1  1  1
CENTRE ASSIGNMENTS    1  1  1  1  1  1  1  1  1  1  1  1  1  1  1  1  1  1  1  1
CENTRE ASSIGNMENTS    1  1  1  1  1  1  1  1  1  1  1  1  1  1  1  1  1  1  1  1
CENTRE ASSIGNMENTS    1  1  1  1  1  1  1  1  1  1  1  1  1  1  1  1  1  1  1  1
CENTRE ASSIGNMENTS    1  1  1  1  1  1  1  1  1  1  1  1  1  1  1  1  1  1  1  1
CENTRE ASSIGNMENTS    1  1  1  1  1  1  1  1  1  1  1  1  1  1  1  1  1  2  2  2
CENTRE ASSIGNMENTS    2  2  2  2  2  2  2  2  2  2  2  2  2  2  2  2  2  2  2  2
CENTRE ASSIGNMENTS    2  2  2  2  2  2  2  2  2  2  2  2  2  2  2  2  2  2  2  2
CENTRE ASSIGNMENTS    2  2  2  2  2  2  2  2  2  2  2  2  2  2  2  2  2  2  2  2
CENTRE ASSIGNMENTS    2  2  2  2  2  2  2  2  2  2  2  2  2  2  2  2  2  2  2  2
CENTRE ASSIGNMENTS    2  2  2  2  2  2  2  2  2  2  2  2  2  2  2  2  2  2  2  2
CENTRE ASSIGNMENTS    2  2  2  2  2  2  2  2  2  2  2  2  2  2  2  2  2  2  2  2
CENTRE ASSIGNMENTS    2  2  2  2  2  2  2  2  2  2  2  2  2  2  2  2  2  2  2  2
CENTRE ASSIGNMENTS    2  2  2  2  2  2  2  2  2  2  2  2  2  2  2  2  2  2  2  2
CENTRE ASSIGNMENTS    2  2  2  2  2  2  2  2  2  2  2  2  2  2  2  2  2  2  2  2
CENTRE ASSIGNMENTS    2  2  2  2  2  2  2  2  2  2  2  2  2  2  2  2  2  2  2  2
CENTRE ASSIGNMENTS    2  2  2  2  2  2  2  2  2  2  2  2  2  2  2  2  2  2  2  2
CENTRE ASSIGNMENTS    2  2  2  2  2  2  2  2  2  2  2  2  2  2  2  2  2  2  2  2
CENTRE ASSIGNMENTS    2  2  2  2  2  2  2  2  2  2  2  2  2  2  2  2  2  2  2  2
TYPE ASSIGNMENTS      1  1  1  1  1  1  1  1  1  1  1  1  1  1  1  1  1  1  1  1
TYPE ASSIGNMENTS      1  1  1  1  1  1  1  1  1  1  1  1  1  1  1  1  1  1  1  1
TYPE ASSIGNMENTS      1  1  2  2  2  2  2  2  2  2  3  3  3  3  3  3  3  3  4  4
TYPE ASSIGNMENTS      4  4  4  4  4  4  2  2  2  2  2  2  2  2  3  3  3  3  3  3
TYPE ASSIGNMENTS      3  3  4  4  4  4  4  4  4  4  2  3  4  2  3  4  2  3  4  5
TYPE ASSIGNMENTS      6  7  8  9 10  5  6  7  8  9 10  5  6  7  8  9 10 11 12 13
TYPE ASSIGNMENTS     17 14 15 18 19 16 20 11 12 13 17 14 15 18 19 16 20  1  1  1
TYPE ASSIGNMENTS      1  1  1  1  1  1  1  1  1  1  1  1  1  1  1  1  1  1  1  1
TYPE ASSIGNMENTS      1  1  1  1  1  1  1  1  1  1  1  1  1  1  1  1  1  1  1  1
TYPE ASSIGNMENTS      1  1  1  1  1  1  1  1  1  1  1  1  1  1  1  1  1  1  1  1
TYPE ASSIGNMENTS      1  1  1  1  1  1  1  1  1  1  1  1  2  2  2  2  2  2  2  2
TYPE ASSIGNMENTS      2  2  2  3  3  3  3  3  3  3  3  3  3  3  4  4  4  4  4  4
TYPE ASSIGNMENTS      4  4  4  4  4  2  2  2  2  2  2  2  2  2  2  2  3  3  3  3
TYPE ASSIGNMENTS      3  3  3  3  3  3  3  4  4  4  4  4  4  4  4  4  4  4  2  2
TYPE ASSIGNMENTS      2  2  2  2  2  2  2  2  2  3  3  3  3  3  3  3  3  3  3  3
TYPE ASSIGNMENTS      4  4  4  4  4  4  4  4  4  4  4  2  3  4  2  3  4  2  3  4
TYPE ASSIGNMENTS      5  5  5  5  5  5  5  6  6  6  6  6  6  6  7  7  7  7  7  7
TYPE ASSIGNMENTS      7  8  8  8  8  8  8  8  9  9  9  9  9  9  9 10 10 10 10 10
TYPE ASSIGNMENTS     10 10  5  6  7  8  9 10  5  6  7  8  9 10  5  6  7  8  9 10
TYPE ASSIGNMENTS     11 12 13 17 14 15 18 19 16 20 11 12 13 17 14 15 18 19 16 20
EXPONENTS  0.1649000D+06 0.2471000D+05 0.5628000D+04 0.1596000D+04 0.5210000D+03
EXPONENTS  0.1880000D+03 0.7301000D+02 0.2990000D+02 0.1254000D+02 0.4306000D+01
EXPONENTS  0.1826000D+01 0.7417000D+00 0.7612000D-01 0.1649000D+06 0.2471000D+05
EXPONENTS  0.5628000D+04 0.1596000D+04 0.5210000D+03 0.1880000D+03 0.7301000D+02
EXPONENTS  0.2990000D+02 0.1254000D+02 0.4306000D+01 0.1826000D+01 0.7417000D+00
EXPONENTS  0.7612000D-01 0.1649000D+06 0.2471000D+05 0.5628000D+04 0.1596000D+04
EXPONENTS  0.5210000D+03 0.1880000D+03 0.7301000D+02 0.2990000D+02 0.1254000D+02
EXPONENTS  0.4306000D+01 0.1826000D+01 0.7417000D+00 0.7612000D-01 0.1457000D+00
EXPONENTS  0.3310000D-01 0.1290000D-01 0.3169000D+03 0.7486000D+02 0.2372000D+02
EXPONENTS  0.8669000D+01 0.3363000D+01 0.1310000D+01 0.4911000D+00 0.2364000D+00
EXPONENTS  0.3169000D+03 0.7486000D+02 0.2372000D+02 0.8669000D+01 0.3363000D+01
EXPONENTS  0.1310000D+01 0.4911000D+00 0.2364000D+00 0.3169000D+03 0.7486000D+02
EXPONENTS  0.2372000D+02 0.8669000D+01 0.3363000D+01 0.1310000D+01 0.4911000D+00
EXPONENTS  0.2364000D+00 0.3169000D+03 0.7486000D+02 0.2372000D+02 0.8669000D+01
EXPONENTS  0.3363000D+01 0.1310000D+01 0.4911000D+00 0.2364000D+00 0.3169000D+03
EXPONENTS  0.7486000D+02 0.2372000D+02 0.8669000D+01 0.3363000D+01 0.1310000D+01
EXPONENTS  0.4911000D+00 0.2364000D+00 0.3169000D+03 0.7486000D+02 0.2372000D+02
EXPONENTS  0.8669000D+01 0.3363000D+01 0.1310000D+01 0.4911000D+00 0.2364000D+00
EXPONENTS  0.8733000D-01 0.8733000D-01 0.8733000D-01 0.3237000D-01 0.3237000D-01
EXPONENTS  0.3237000D-01 0.7450000D-02 0.7450000D-02 0.7450000D-02 0.1260000D+00
EXPONENTS  0.1260000D+00 0.1260000D+00 0.1260000D+00 0.1260000D+00 0.1260000D+00
EXPONENTS  0.2940000D+00 0.2940000D+00 0.2940000D+00 0.2940000D+00 0.2940000D+00
EXPONENTS  0.2940000D+00 0.4680000D-01 0.4680000D-01 0.4680000D-01 0.4680000D-01
EXPONENTS  0.4680000D-01 0.4680000D-01 0.2520000D+00 0.2520000D+00 0.2520000D+00
EXPONENTS  0.2520000D+00 0.2520000D+00 0.2520000D+00 0.2520000D+00 0.2520000D+00
EXPONENTS  0.2520000D+00 0.2520000D+00 0.9400000D-01 0.9400000D-01 0.9400000D-01
EXPONENTS  0.9400000D-01 0.9400000D-01 0.9400000D-01 0.9400000D-01 0.9400000D-01
EXPONENTS  0.9400000D-01 0.9400000D-01 0.9563600D+07 0.1432100D+07 0.3259100D+06
EXPONENTS  0.9231200D+05 0.3011600D+05 0.1087200D+05 0.4240100D+04 0.1758400D+04
EXPONENTS  0.7665900D+03 0.3484300D+03 0.1640300D+03 0.7914200D+02 0.3552400D+02
EXPONENTS  0.1730500D+02 0.8378400D+01 0.3740500D+01 0.1689000D+01 0.2552000D+00
EXPONENTS  0.9563600D+07 0.1432100D+07 0.3259100D+06 0.9231200D+05 0.3011600D+05
EXPONENTS  0.1087200D+05 0.4240100D+04 0.1758400D+04 0.7665900D+03 0.3484300D+03
EXPONENTS  0.1640300D+03 0.7914200D+02 0.3552400D+02 0.1730500D+02 0.8378400D+01
EXPONENTS  0.3740500D+01 0.1689000D+01 0.2552000D+00 0.9563600D+07 0.1432100D+07
EXPONENTS  0.3259100D+06 0.9231200D+05 0.3011600D+05 0.1087200D+05 0.4240100D+04
EXPONENTS  0.1758400D+04 0.7665900D+03 0.3484300D+03 0.1640300D+03 0.7914200D+02
EXPONENTS  0.3552400D+02 0.1730500D+02 0.8378400D+01 0.3740500D+01 0.1689000D+01
EXPONENTS  0.2552000D+00 0.9563600D+07 0.1432100D+07 0.3259100D+06 0.9231200D+05
EXPONENTS  0.3011600D+05 0.1087200D+05 0.4240100D+04 0.1758400D+04 0.7665900D+03
EXPONENTS  0.3484300D+03 0.1640300D+03 0.7914200D+02 0.3552400D+02 0.1730500D+02
EXPONENTS  0.8378400D+01 0.3740500D+01 0.1689000D+01 0.2552000D+00 0.5092700D+00
EXPONENTS  0.1065100D+00 0.3920100D-01 0.8004300D+04 0.1896900D+04 0.6147100D+03
EXPONENTS  0.2335000D+03 0.9785600D+02 0.4351400D+02 0.2006300D+02 0.9112700D+01
EXPONENTS  0.4106300D+01 0.1794900D+01 0.2461500D+00 0.8004300D+04 0.1896900D+04
EXPONENTS  0.6147100D+03 0.2335000D+03 0.9785600D+02 0.4351400D+02 0.2006300D+02
EXPONENTS  0.9112700D+01 0.4106300D+01 0.1794900D+01 0.2461500D+00 0.8004300D+04
EXPONENTS  0.1896900D+04 0.6147100D+03 0.2335000D+03 0.9785600D+02 0.4351400D+02
EXPONENTS  0.2006300D+02 0.9112700D+01 0.4106300D+01 0.1794900D+01 0.2461500D+00
EXPONENTS  0.8004300D+04 0.1896900D+04 0.6147100D+03 0.2335000D+03 0.9785600D+02
EXPONENTS  0.4351400D+02 0.2006300D+02 0.9112700D+01 0.4106300D+01 0.1794900D+01
EXPONENTS  0.2461500D+00 0.8004300D+04 0.1896900D+04 0.6147100D+03 0.2335000D+03
EXPONENTS  0.9785600D+02 0.4351400D+02 0.2006300D+02 0.9112700D+01 0.4106300D+01
EXPONENTS  0.1794900D+01 0.2461500D+00 0.8004300D+04 0.1896900D+04 0.6147100D+03
EXPONENTS  0.2335000D+03 0.9785600D+02 0.4351400D+02 0.2006300D+02 0.9112700D+01
EXPONENTS  0.4106300D+01 0.1794900D+01 0.2461500D+00 0.8004300D+04 0.1896900D+04
EXPONENTS  0.6147100D+03 0.2335000D+03 0.9785600D+02 0.4351400D+02 0.2006300D+02
EXPONENTS  0.9112700D+01 0.4106300D+01 0.1794900D+01 0.2461500D+00 0.8004300D+04
EXPONENTS  0.1896900D+04 0.6147100D+03 0.2335000D+03 0.9785600D+02 0.4351400D+02
EXPONENTS  0.2006300D+02 0.9112700D+01 0.4106300D+01 0.1794900D+01 0.2461500D+00
EXPONENTS  0.8004300D+04 0.1896900D+04 0.6147100D+03 0.2335000D+03 0.9785600D+02
EXPONENTS  0.4351400D+02 0.2006300D+02 0.9112700D+01 0.4106300D+01 0.1794900D+01
EXPONENTS  0.2461500D+00 0.6243200D+00 0.6243200D+00 0.6243200D+00 0.8891700D-01
EXPONENTS  0.8891700D-01 0.8891700D-01 0.3025100D-01 0.3025100D-01 0.3025100D-01
EXPONENTS  0.3618500D+03 0.1085500D+03 0.4143300D+02 0.1757900D+02 0.7862700D+01
EXPONENTS  0.3518000D+01 0.1534800D+01 0.3618500D+03 0.1085500D+03 0.4143300D+02
EXPONENTS  0.1757900D+02 0.7862700D+01 0.3518000D+01 0.1534800D+01 0.3618500D+03
EXPONENTS  0.1085500D+03 0.4143300D+02 0.1757900D+02 0.7862700D+01 0.3518000D+01
EXPONENTS  0.1534800D+01 0.3618500D+03 0.1085500D+03 0.4143300D+02 0.1757900D+02
EXPONENTS  0.7862700D+01 0.3518000D+01 0.1534800D+01 0.3618500D+03 0.1085500D+03
EXPONENTS  0.4143300D+02 0.1757900D+02 0.7862700D+01 0.3518000D+01 0.1534800D+01
EXPONENTS  0.3618500D+03 0.1085500D+03 0.4143300D+02 0.1757900D+02 0.7862700D+01
EXPONENTS  0.3518000D+01 0.1534800D+01 0.6081300D+00 0.6081300D+00 0.6081300D+00
EXPONENTS  0.6081300D+00 0.6081300D+00 0.6081300D+00 0.2220000D+00 0.2220000D+00
EXPONENTS  0.2220000D+00 0.2220000D+00 0.2220000D+00 0.2220000D+00 0.8370000D-01
EXPONENTS  0.8370000D-01 0.8370000D-01 0.8370000D-01 0.8370000D-01 0.8370000D-01
EXPONENTS  0.4620000D+00 0.4620000D+00 0.4620000D+00 0.4620000D+00 0.4620000D+00
EXPONENTS  0.4620000D+00 0.4620000D+00 0.4620000D+00 0.4620000D+00 0.4620000D+00
EXPONENTS  0.1880000D+00 0.1880000D+00 0.1880000D+00 0.1880000D+00 0.1880000D+00
EXPONENTS  0.1880000D+00 0.1880000D+00 0.1880000D+00 0.1880000D+00 0.1880000D+00
MO    1     MO 0.0        OCC NO =    2.0000000  ORB. ENERGY = -453.227272
 -0.81993278D-05 -0.15330387D-04 -0.26426151D-04 -0.42621401D-04 -0.63968728D-04
 -0.85733694D-04 -0.94229351D-04 -0.70528544D-04 -0.24213318D-04 -0.13648206D-05
  0.95164746D-07 -0.22603264D-07 -0.14088316D-08  0.17666490D-04  0.33138928D-04
  0.57004769D-04  0.93024826D-04  0.14117178D-03  0.19992386D-03  0.24172435D-03
  0.23869280D-03  0.11937917D-03 -0.66846304D-04 -0.10674772D-03 -0.34840148D-04
  0.20265469D-06 -0.10290100D-04 -0.19287880D-04 -0.33220431D-04 -0.54153217D-04
 -0.82440681D-04 -0.11682832D-03 -0.14276591D-03 -0.14294838D-03 -0.74642197D-04
  0.46474957D-04  0.84029234D-04  0.61592279D-04 -0.28078013D-04 -0.29516251D-04
 -0.60038929D-05  0.64260703D-06  0.12415537D-19  0.16046427D-19  0.17301642D-19
  0.14262806D-19  0.77870797D-20  0.24968589D-20  0.28121277D-21 -0.32270428D-23
  0.34064225D-19  0.44026215D-19  0.47470121D-19  0.39132536D-19  0.21365233D-19
  0.68505750D-20  0.77155707D-21 -0.88539639D-23 -0.23490276D-03 -0.30359943D-03
 -0.32734818D-03 -0.26985321D-03 -0.14733205D-03 -0.47240732D-04 -0.53205638D-05
  0.61055859D-07 -0.16502640D-19 -0.21327770D-19 -0.23341252D-19 -0.19501005D-19
 -0.10909703D-19 -0.36955303D-20 -0.57837152D-21  0.10924063D-20 -0.36105740D-19
 -0.46662531D-19 -0.51067780D-19 -0.42665792D-19 -0.23869085D-19 -0.80853644D-20
 -0.12654055D-20  0.23900503D-20  0.21550767D-03  0.27851897D-03  0.30481299D-03
  0.25466327D-03  0.14246962D-03  0.48259863D-04  0.75529432D-05 -0.14265714D-04
 -0.56590012D-20 -0.92168842D-20 -0.15112401D-04 -0.62995327D-21 -0.14333870D-20
 -0.21223063D-06  0.79456039D-23  0.19703523D-22  0.66454615D-08  0.40694869D-06
  0.40694869D-06 -0.81389739D-06 -0.58038257D-22 -0.35188407D-20 -0.54152745D-20
  0.60291812D-06  0.60291812D-06 -0.12058362D-05  0.70234133D-22  0.53413164D-21
  0.29702650D-20  0.59212361D-07  0.59212361D-07 -0.11842472D-06  0.14289061D-22
 -0.66285846D-21 -0.12592163D-20 -0.13346648D-21 -0.69869432D-21  0.11784642D-05
 -0.11917150D-21 -0.71974205D-21 -0.17676963D-05  0.51957094D-21  0.28158250D-20
 -0.17676963D-05 -0.10901100D-21  0.14097616D-21  0.24351205D-21  0.12245725D-06
  0.13985641D-21  0.24551016D-21 -0.18368587D-06 -0.56278489D-21 -0.97604632D-21
 -0.18368587D-06 -0.44241065D-23  0.77214768D+00  0.14427219D+01  0.25022205D+01
  0.40992764D+01  0.64191413D+01  0.96398384D+01  0.13749170D+02  0.18165439D+02
  0.20949216D+02  0.18854966D+02  0.10578105D+02  0.25573135D+01  0.12140857D+00
 -0.20776655D-02  0.58435777D-03 -0.22772329D-03  0.21540023D-04  0.21238917D-05
  0.39846124D-04  0.73377256D-04  0.12736448D-03  0.20859917D-03  0.32832549D-03
  0.49556385D-03  0.72238774D-03  0.99199013D-03  0.12598148D-02  0.13567407D-02
  0.10823822D-02  0.24244498D-03 -0.64829242D-03 -0.57650986D-03 -0.11259471D-03
 -0.31191052D-05 -0.22587500D-06 -0.46129854D-08 -0.96046088D-04 -0.17340232D-03
 -0.30186042D-03 -0.49430917D-03 -0.77930656D-03 -0.11759522D-02 -0.17210935D-02
 -0.23714407D-02 -0.30550510D-02 -0.33626505D-02 -0.28308064D-02 -0.67411631D-03
  0.22706829D-02  0.30341084D-02  0.37274642D-03 -0.13024266D-02 -0.57493662D-03
  0.28533071D-05  0.29972996D-04  0.64936162D-04  0.11054531D-03  0.18044900D-03
  0.28448559D-03  0.42930474D-03  0.62832392D-03  0.86673347D-03  0.11179956D-02
  0.12359620D-02  0.10467682D-02  0.25426694D-03 -0.88215649D-03 -0.12450627D-02
 -0.14855313D-03  0.69816554D-03  0.55808234D-03 -0.21142799D-03  0.22267712D-03
  0.90836848D-04  0.71295935D-05 -0.44844585D-16 -0.64272691D-16 -0.84874554D-16
 -0.97559021D-16 -0.89748201D-16 -0.57414383D-16 -0.19873345D-16 -0.22342392D-17
 -0.28424968D-19 -0.49255558D-20 -0.50333820D-22 -0.49494866D-16 -0.70937621D-16
 -0.93675850D-16 -0.10767567D-15 -0.99054883D-16 -0.63368122D-16 -0.21934165D-16
 -0.24659246D-17 -0.31372572D-19 -0.54363246D-20 -0.55553321D-22  0.57211223D-04
  0.81996950D-04  0.10828012D-03  0.12446254D-03  0.11449775D-03  0.73247351D-04
  0.25353749D-04  0.28503676D-05  0.36263624D-07  0.62838594D-08  0.64214205D-10
 -0.41528884D-17 -0.59902143D-17 -0.79781903D-17 -0.94418948D-17 -0.90733063D-17
 -0.62365727D-17 -0.19635522D-17  0.94896707D-18  0.97386992D-18  0.24525659D-18
 -0.26739886D-21 -0.65196638D-17 -0.94041014D-17 -0.12525046D-16 -0.14822932D-16
 -0.14244281D-16 -0.97908622D-17 -0.30826016D-17  0.14897935D-17  0.15288888D-17
  0.38503094D-18 -0.41979232D-21 -0.73989147D-03 -0.10672352D-02 -0.14214191D-02
 -0.16821973D-02 -0.16165284D-02 -0.11111271D-02 -0.34983256D-03  0.16907092D-03
  0.17350769D-03  0.43695674D-04 -0.47640610D-07 -0.19306191D-18 -0.27987934D-18
 -0.37146983D-18 -0.44331370D-18 -0.42591922D-18 -0.29812075D-18 -0.90014913D-19
  0.55102555D-19  0.59261814D-19  0.15937440D-19 -0.59409579D-20 -0.62386056D-18
 -0.90440254D-18 -0.12003682D-17 -0.14325246D-17 -0.13763161D-17 -0.96334787D-18
 -0.29087433D-18  0.17805848D-18  0.19149872D-18  0.51500269D-19 -0.19197621D-19
  0.53157682D-03  0.77062000D-03  0.10228053D-02  0.12206203D-02  0.11727263D-02
  0.82084591D-03  0.24784713D-03 -0.15171942D-03 -0.16317153D-03 -0.43882160D-04
  0.16357838D-04 -0.61051538D-19 -0.95235218D-19 -0.80013679D-05  0.97766010D-20
  0.18147171D-19 -0.26273328D-04  0.22251724D-21  0.49482308D-21 -0.46565309D-06
 -0.11473339D-03 -0.11876002D-03 -0.99362617D-04 -0.64117103D-04 -0.28802279D-04
 -0.84097994D-05 -0.14187847D-05 -0.11473339D-03 -0.11876002D-03 -0.99362617D-04
 -0.64117103D-04 -0.28802279D-04 -0.84097994D-05 -0.14187847D-05  0.22946677D-03
  0.23752004D-03  0.19872523D-03  0.12823421D-03  0.57604559D-04  0.16819599D-04
  0.28375694D-05  0.38135284D-17  0.39473663D-17  0.33026320D-17  0.21311355D-17
  0.95733520D-18  0.27952638D-18  0.47157814D-19 -0.75234361D-17 -0.77874752D-17
 -0.65155254D-17 -0.42043641D-17 -0.18886578D-17 -0.55145752D-18 -0.93034263D-19
 -0.13925827D-17 -0.14414562D-17 -0.12060192D-17 -0.77822485D-18 -0.34958924D-18
 -0.10207440D-18 -0.17220577D-19  0.63616097D-05  0.63616097D-05 -0.12723219D-04
 -0.17625899D-19  0.38236353D-19  0.38603651D-20 -0.26632098D-05 -0.26632098D-05
  0.53264195D-05  0.19449451D-20 -0.53824244D-20  0.10930306D-20 -0.14431910D-05
 -0.14431910D-05  0.28863820D-05 -0.14220142D-21 -0.21349202D-20 -0.44725699D-20
  0.14040857D-20  0.21111767D-20  0.34641123D-05  0.13773371D-20  0.21753528D-20
 -0.51961684D-05 -0.55895942D-20 -0.85088828D-20 -0.51961684D-05 -0.42698468D-22
 -0.52109456D-21 -0.72140610D-21 -0.18534390D-05 -0.51711158D-21 -0.73054992D-21
  0.27801585D-05  0.20803953D-20  0.28947682D-20  0.27801585D-05 -0.30270960D-22
MO    2     MO 0.0        OCC NO =    2.0000000  ORB. ENERGY =  -57.859481
  0.11422488D-03  0.21356771D-03  0.36814286D-03  0.59375897D-03  0.89114870D-03
  0.11943566D-02  0.13127096D-02  0.98253353D-03  0.33731587D-03  0.19013323D-04
 -0.13257406D-05  0.31488620D-06  0.19626441D-07 -0.24473849D-03 -0.45908221D-03
 -0.78970193D-03 -0.12886972D-02 -0.19556894D-02 -0.27695973D-02 -0.33486705D-02
 -0.33066736D-02 -0.16537907D-02  0.92603928D-03  0.14788040D-02  0.48264966D-03
 -0.28074283D-05  0.14247388D-03  0.26705467D-03  0.45996093D-03  0.74979051D-03
  0.11414509D-02  0.16175727D-02  0.19766975D-02  0.19792238D-02  0.10334753D-02
 -0.64347943D-03 -0.11634456D-02 -0.85278971D-03  0.38876042D-03  0.41907272D-03
  0.73440072D-04 -0.94180610D-05  0.33232128D-17  0.42950774D-17  0.46310554D-17
  0.38176633D-17  0.20843338D-17  0.66832339D-18  0.75271001D-19 -0.86376855D-21
  0.52593100D-18  0.67973809D-18  0.73290991D-18  0.60418264D-18  0.32986626D-18
  0.10576873D-18  0.11912374D-19 -0.13669984D-21  0.32804501D-02  0.42398088D-02
  0.45714635D-02  0.37685381D-02  0.20575128D-02  0.65972348D-03  0.74302422D-04
 -0.85265367D-06 -0.40621970D-17 -0.52499240D-17 -0.57455513D-17 -0.48002576D-17
 -0.26854713D-17 -0.90967095D-18 -0.14236868D-18  0.26890060D-18 -0.60896416D-18
 -0.78701638D-18 -0.86131589D-18 -0.71960687D-18 -0.40257914D-18 -0.13636882D-18
 -0.21342496D-19  0.40310903D-19 -0.30040206D-02 -0.38823524D-02 -0.42488720D-02
 -0.35498212D-02 -0.19859232D-02 -0.67270749D-03 -0.10528255D-03  0.19885371D-03
 -0.27419258D-18  0.42270665D-19  0.20793137D-03 -0.46187493D-19  0.57343214D-20
  0.88493046D-06  0.14189894D-20 -0.32007420D-21 -0.84737819D-07 -0.48490723D-05
 -0.48490723D-05  0.96981446D-05  0.68711763D-21 -0.12988057D-18  0.89034516D-19
 -0.77776382D-05 -0.77776382D-05  0.15555276D-04 -0.30087558D-20  0.23445197D-18
 -0.10243672D-18 -0.70345052D-06 -0.70345052D-06  0.14069010D-05  0.57005355D-21
 -0.44362331D-19 -0.21568419D-21 -0.45608731D-19  0.44189836D-20 -0.17196277D-04
 -0.47226407D-19  0.68102882D-20  0.25794415D-04  0.18405260D-18 -0.20067239D-19
  0.25794415D-04 -0.71618753D-20  0.75288474D-20 -0.24053923D-20 -0.18657375D-05
  0.76588018D-20 -0.26497207D-20  0.27986062D-05 -0.30245344D-19  0.98658976D-20
  0.27986062D-05  0.19124546D-20  0.35946132D-03  0.67163672D-03  0.11648698D-02
  0.19083543D-02  0.29883312D-02  0.44876766D-02  0.64007118D-02  0.84566370D-02
  0.97525812D-02  0.87776359D-02  0.49244720D-02  0.11905174D-02  0.56519867D-04
 -0.96722480D-06  0.27203866D-06 -0.10601303D-06  0.10027622D-07  0.98874469D-09
 -0.24602725D+00 -0.45306300D+00 -0.78640355D+00 -0.12879817D+01 -0.20272239D+01
 -0.30598261D+01 -0.44603352D+01 -0.61249772D+01 -0.77786431D+01 -0.83771052D+01
 -0.66830971D+01 -0.14969604D+01  0.40028386D+01  0.35596219D+01  0.69520860D+00
  0.19258708D-01  0.13946502D-02  0.28482572D-04  0.13309464D-02  0.24029005D-02
  0.41829923D-02  0.68498264D-02  0.10799141D-01  0.16295607D-01  0.23849834D-01
  0.32861937D-01  0.42334980D-01  0.46597500D-01  0.39227539D-01  0.93414808D-02
 -0.31465699D-01 -0.42044770D-01 -0.51652860D-02  0.18048211D-01  0.79671110D-02
 -0.39539339D-04 -0.43678106D-03 -0.94628131D-03 -0.16109200D-02 -0.26295905D-02
 -0.41456623D-02 -0.62560373D-02 -0.91562415D-02 -0.12630461D-01 -0.16291975D-01
 -0.18011039D-01 -0.15254014D-01 -0.37053014D-02  0.12855213D-01  0.18143659D-01
  0.21647884D-02 -0.10174007D-01 -0.81326470D-02  0.30810314D-02 -0.35021773D-02
 -0.13028886D-02 -0.82125505D-04 -0.23829380D-13 -0.34153028D-13 -0.45100384D-13
 -0.51840618D-13 -0.47690128D-13 -0.30508681D-13 -0.10560238D-13 -0.11872233D-14
 -0.15104374D-16 -0.26173269D-17 -0.26746233D-19 -0.50174842D-14 -0.71912184D-14
 -0.94962799D-14 -0.10915495D-13 -0.10041573D-13 -0.64238694D-14 -0.22235503D-14
 -0.24998023D-15 -0.31803578D-17 -0.55110105D-18 -0.56316530D-20 -0.21745029D-01
 -0.31165669D-01 -0.41155462D-01 -0.47306129D-01 -0.43518681D-01 -0.27840093D-01
 -0.96365359D-02 -0.10833771D-02 -0.13783197D-04 -0.23883898D-05 -0.24406745D-07
  0.81725919D-15  0.11788320D-14  0.15700517D-14  0.18580984D-14  0.17855628D-14
  0.12273136D-14  0.38641325D-15 -0.18675004D-15 -0.19165074D-15 -0.48264769D-16
  0.52622212D-19 -0.76533219D-16 -0.11039314D-15 -0.14702938D-15 -0.17400386D-15
 -0.16721118D-15 -0.11493326D-15 -0.36186134D-16  0.17488432D-16  0.17947364D-16
  0.45198124D-17 -0.49278704D-20  0.10894222D-01  0.15714057D-01  0.20929090D-01
  0.24768808D-01  0.23801895D-01  0.16360326D-01  0.51509628D-02 -0.24894138D-02
 -0.25547412D-02 -0.64337863D-03  0.70146418D-06 -0.14079347D-15 -0.20410646D-15
 -0.27090027D-15 -0.32329356D-15 -0.31060836D-15 -0.21740930D-15 -0.65644805D-16
  0.40184414D-16  0.43217619D-16  0.11622631D-16 -0.43325379D-17  0.14000290D-16
  0.20296039D-16  0.26937915D-16  0.32147825D-16  0.30886428D-16  0.21618853D-16
  0.65276205D-17 -0.39958776D-17 -0.42974950D-17 -0.11557370D-17  0.43082104D-18
 -0.78341127D-02 -0.11357011D-01 -0.15073592D-01 -0.17988890D-01 -0.17283053D-01
 -0.12097216D-01 -0.36526468D-02  0.22359648D-02  0.24047402D-02  0.64671329D-03
 -0.24107362D-03  0.16870916D-16 -0.13725263D-17  0.12141696D-03  0.92336022D-18
 -0.14581476D-18  0.36769682D-03 -0.10253047D-19  0.61611237D-20  0.56180160D-05
  0.34218112D-03  0.35419015D-03  0.29633930D-03  0.19122300D-03  0.85899984D-04
  0.25081405D-04  0.42313868D-05  0.34218112D-03  0.35419015D-03  0.29633930D-03
  0.19122300D-03  0.85899984D-04  0.25081405D-04  0.42313868D-05 -0.68436223D-03
 -0.70838030D-03 -0.59267860D-03 -0.38244599D-03 -0.17179997D-03 -0.50162810D-04
 -0.84627735D-05  0.12101184D-15  0.12525882D-15  0.10479995D-15  0.67625729D-16
  0.30378402D-16  0.88700017D-17  0.14964236D-17 -0.50092984D-15 -0.51851026D-15
 -0.43382055D-15 -0.27993744D-15 -0.12575173D-15 -0.36717469D-16 -0.61944620D-17
  0.40134633D-15  0.41543180D-15  0.34757818D-15  0.22428663D-15  0.10075262D-15
  0.29418134D-16  0.49630195D-17 -0.83331821D-04 -0.83331821D-04  0.16666364D-03
 -0.43284844D-18  0.16377784D-17 -0.15207269D-17  0.35631674D-04  0.35631674D-04
 -0.71263349D-04  0.44823167D-19  0.12065562D-19  0.14186109D-18  0.20456363D-04
  0.20456363D-04 -0.40912725D-04 -0.50873179D-20 -0.12633892D-18  0.20613887D-19
  0.65523012D-19  0.29227085D-19 -0.49731814D-04  0.66953523D-19  0.19398197D-19
  0.74597721D-04 -0.26352256D-18 -0.10707945D-18  0.74597721D-04  0.21228957D-20
 -0.12286507D-19  0.21126352D-20  0.26142086D-04 -0.12655270D-19  0.34341008D-20
 -0.39213129D-04  0.49514790D-19 -0.97720063D-20 -0.39213129D-04  0.22620200D-20
MO    3     MO 0.0        OCC NO =    2.0000000  ORB. ENERGY =  -51.852439
  0.71463053D-04  0.13361538D-03  0.23032296D-03  0.37147624D-03  0.55753358D-03
  0.74723095D-03  0.82127672D-03  0.61470711D-03  0.21103652D-03  0.11895396D-04
 -0.82942936D-06  0.19700374D-06  0.12278983D-07 -0.15959201D-03 -0.29936384D-03
 -0.51495832D-03 -0.84034912D-03 -0.12752895D-02 -0.18060323D-02 -0.21836413D-02
 -0.21562555D-02 -0.10784237D-02  0.60386281D-03  0.96431627D-03  0.31473199D-03
 -0.18307016D-05  0.10016430D-03  0.18774911D-03  0.32336921D-03  0.52712990D-03
  0.80248137D-03  0.11372122D-02  0.13896900D-02  0.13914661D-02  0.72657058D-03
 -0.45238936D-03 -0.81794442D-03 -0.59954207D-03  0.27331266D-03  0.50354368D-04
  0.11725967D-04 -0.98901777D-06 -0.74865802D-16 -0.96760103D-16 -0.10432906D-15
 -0.86004853D-16 -0.46956164D-16 -0.15056083D-16 -0.16957156D-17  0.19459099D-19
  0.52249870D-16  0.67530202D-16  0.72812683D-16  0.60023966D-16  0.32771350D-16
  0.10507847D-16  0.11834632D-17 -0.13580772D-19  0.23884811D-02  0.30869859D-02
  0.33284622D-02  0.27438558D-02  0.14980659D-02  0.48034173D-03  0.54099263D-04
 -0.62081334D-06  0.10359843D-15  0.13388910D-15  0.14652911D-15  0.12242123D-15
  0.68487720D-16  0.23199388D-16  0.36308363D-17 -0.68577866D-17  0.41319604D-17
  0.53400853D-17  0.58442244D-17  0.48826964D-17  0.27315911D-17  0.92529348D-18
  0.14481370D-18 -0.27351865D-18 -0.25250076D-02 -0.32632829D-02 -0.35713582D-02
 -0.29837762D-02 -0.16692532D-02 -0.56543936D-03 -0.88494477D-04  0.16714503D-03
 -0.18582868D-17 -0.25873196D-18  0.17865560D-03 -0.28362814D-18 -0.23045796D-19
  0.23718856D-05  0.92554850D-20  0.35911398D-21  0.35408562D-07 -0.29367031D-04
 -0.29367031D-04  0.58734062D-04 -0.13541945D-20 -0.74670086D-18 -0.21750020D-18
 -0.33518564D-04 -0.33518564D-04  0.67037127D-04  0.21114040D-20  0.13439402D-17
  0.10788196D-18 -0.15221511D-05 -0.15221511D-05  0.30443022D-05 -0.12044305D-21
 -0.30353773D-18 -0.21783979D-19 -0.28985045D-18 -0.44603532D-20  0.20655656D-04
 -0.28957029D-18 -0.49685923D-20 -0.30983484D-04  0.11591217D-17  0.18349652D-19
 -0.30983484D-04  0.93244612D-21  0.48249553D-19  0.78019516D-20  0.29483982D-05
  0.48223587D-19  0.78368010D-20 -0.44225973D-05 -0.19297225D-18 -0.31242656D-19
 -0.44225973D-05 -0.46917200D-21  0.50529241D-05  0.94411532D-05  0.16374498D-04
  0.26825610D-04  0.42006775D-04  0.63082975D-04  0.89974384D-04  0.11887439D-03
  0.13709139D-03  0.12338665D-03  0.69222978D-04  0.16735025D-04  0.79449604D-06
 -0.13596215D-07  0.38240295D-08 -0.14902182D-08  0.14095763D-09  0.13898719D-10
 -0.10422360D-03 -0.19192938D-03 -0.33314118D-03 -0.54562285D-03 -0.85878525D-03
 -0.12962226D-02 -0.18895150D-02 -0.25947011D-02 -0.32952373D-02 -0.35487615D-02
 -0.28311353D-02 -0.63415172D-03  0.16957074D-02  0.15079492D-02  0.29450860D-03
  0.81584942D-05  0.59081041D-06  0.12065965D-07  0.13154283D-04  0.23748840D-04
  0.41342208D-04  0.67699611D-04  0.10673229D-03  0.16105609D-03  0.23571758D-03
  0.32478784D-03  0.41841377D-03  0.46054198D-03  0.38770167D-03  0.92325641D-04
 -0.31098826D-03 -0.41554551D-03 -0.51050615D-04  0.17837778D-03  0.78742188D-04
 -0.39078331D-06 -0.80665988D-05 -0.17476197D-04 -0.29750935D-04 -0.48564037D-04
 -0.76563289D-04 -0.11553830D-03 -0.16910011D-03 -0.23326301D-03 -0.30088489D-03
 -0.33263307D-03 -0.28171554D-03 -0.68430577D-04  0.23741379D-03  0.33508233D-03
  0.39979937D-04 -0.18789651D-03 -0.15019607D-03  0.56901377D-04  0.14616156D-03
 -0.60601661D-03  0.12772560D-04 -0.41316674D-11 -0.59216375D-11 -0.78197496D-11
 -0.89884079D-11 -0.82687734D-11 -0.52897609D-11 -0.18309914D-11 -0.20584722D-12
 -0.26188784D-14 -0.45380636D-15 -0.46374072D-17 -0.97787777D-13 -0.14015256D-12
 -0.18507684D-12 -0.21273649D-12 -0.19570428D-12 -0.12519739D-12 -0.43335671D-13
 -0.48719657D-14 -0.61983279D-16 -0.10740631D-16 -0.10975756D-18  0.48627803D+02
  0.69694919D+02  0.92034814D+02  0.10578938D+03  0.97319616D+02  0.62258025D+02
  0.21549917D+02  0.24227260D+01  0.30822980D-01  0.53410897D-02  0.54580125D-04
  0.12180245D-14  0.17569044D-14  0.23399693D-14  0.27692676D-14  0.26611622D-14
  0.18291603D-14  0.57590152D-15 -0.27832801D-15 -0.28563191D-15 -0.71932714D-16
  0.78426948D-19  0.21401268D-16  0.30869643D-16  0.41114370D-16  0.48657345D-16
  0.46757881D-16  0.32139213D-16  0.10118863D-16 -0.48903551D-17 -0.50186880D-17
 -0.12638919D-17  0.13779987D-20 -0.33029066D-01 -0.47641825D-01 -0.63452746D-01
 -0.75093991D-01 -0.72162506D-01 -0.49601182D-01 -0.15616672D-01  0.75473966D-02
  0.77454558D-02  0.19505932D-02 -0.21266968D-05 -0.83958688D-15 -0.12171382D-14
 -0.16154465D-14 -0.19278809D-14 -0.18522359D-14 -0.12964664D-14 -0.39145650D-15
  0.23962978D-15  0.25771755D-15  0.69308678D-16 -0.25836014D-16 -0.22256335D-16
 -0.32264719D-16 -0.42823345D-16 -0.51105566D-16 -0.49100316D-16 -0.34367604D-16
 -0.10376993D-16  0.63522676D-17  0.68317503D-17  0.18372811D-17 -0.68487848D-18
  0.22588560D-01  0.32746341D-01  0.43462578D-01  0.51868429D-01  0.49833247D-01
  0.34880616D-01  0.10531892D-01 -0.64470892D-02 -0.69337293D-02 -0.18647066D-02
  0.69510180D-03  0.12931453D-15  0.29829060D-17 -0.19576367D-02  0.62230954D-17
  0.44289948D-18  0.57583391D-04 -0.82603087D-19  0.64475657D-20 -0.29233899D-05
  0.17138492D-02  0.17739977D-02  0.14842458D-02  0.95775999D-03  0.43023888D-03
  0.12562279D-03  0.21193335D-04  0.17138492D-02  0.17739977D-02  0.14842458D-02
  0.95775999D-03  0.43023888D-03  0.12562279D-03  0.21193335D-04 -0.34276984D-02
 -0.35479954D-02 -0.29684915D-02 -0.19155200D-02 -0.86047776D-03 -0.25124558D-03
 -0.42386669D-04 -0.36246595D-16 -0.37518690D-16 -0.31390659D-16 -0.20255889D-16
 -0.90992221D-17 -0.26568256D-17 -0.44822276D-18 -0.45624332D-14 -0.47225544D-14
 -0.39512065D-14 -0.25496502D-14 -0.11453377D-14 -0.33442008D-15 -0.56418717D-16
 -0.42624552D-15 -0.44120484D-15 -0.36914164D-15 -0.23820118D-15 -0.10700323D-15
 -0.31243210D-16 -0.52709211D-17 -0.59357753D-04 -0.59357753D-04  0.11871551D-03
  0.15778588D-18  0.15433567D-16  0.20392491D-17  0.61057385D-04  0.61057385D-04
 -0.12211477D-03 -0.15990863D-19 -0.54429834D-18 -0.31276505D-18 -0.10341985D-05
 -0.10341985D-05  0.20683970D-05  0.15738277D-20 -0.75805177D-18 -0.92912159D-19
  0.52488166D-18  0.68449685D-19  0.40167454D-04  0.53476406D-18  0.47902890D-19
 -0.60251181D-04 -0.21094090D-17 -0.25325194D-18 -0.60251181D-04  0.26352310D-19
 -0.82964285D-19 -0.26683599D-19  0.43174701D-05 -0.84175755D-19 -0.24081362D-19
 -0.64762052D-05  0.33306861D-18  0.10413216D-18 -0.64762052D-05 -0.47266542D-20
MO    4     MO 0.0        OCC NO =    2.0000000  ORB. ENERGY =  -51.849972
  0.43881935D-16  0.82046611D-16  0.14142997D-15  0.22810523D-15  0.34235387D-15
  0.45883766D-15  0.50430552D-15  0.37746131D-15  0.12958712D-15  0.73043755D-17