 Molden2AIM, Version 4.0.0 (06/02/2016)           Time: Fri Jun 29 23:06:37 2018
GAUSSIAN             11 MOL ORBITALS    280 PRIMITIVES        2 NUCLEI
  Na   1    (CENTRE  1)   0.00000000  0.00000000  2.94866628  CHARGE = 11.0
  Na   2    (CENTRE  2)   0.00000000  0.00000000 -2.94866628  CHARGE = 11.0
CENTRE ASSIGNMENTS    1  1  1  1  1  1  1  1  1  1  1  1  1  1  1  1  1  1  1  1
CENTRE ASSIGNMENTS    1  1  1  1  1  1  1  1  1  1  1  1  1  1  1  1  1  1  1  1
CENTRE ASSIGNMENTS    1  1  1  1  1  1  1  1  1  1  1  1  1  1  1  1  1  1  1  1
CENTRE ASSIGNMENTS    1  1  1  1  1  1  1  1  1  1  1  1  1  1  1  1  1  1  1  1
CENTRE ASSIGNMENTS    1  1  1  1  1  1  1  1  1  1  1  1  1  1  1  1  1  1  1  1
CENTRE ASSIGNMENTS    1  1  1  1  1  1  1  1  1  1  1  1  1  1  1  1  1  1  1  1
CENTRE ASSIGNMENTS    1  1  1  1  1  1  1  1  1  1  1  1  1  1  1  1  1  1  1  1
CENTRE ASSIGNMENTS    2  2  2  2  2  2  2  2  2  2  2  2  2  2  2  2  2  2  2  2
CENTRE ASSIGNMENTS    2  2  2  2  2  2  2  2  2  2  2  2  2  2  2  2  2  2  2  2
CENTRE ASSIGNMENTS    2  2  2  2  2  2  2  2  2  2  2  2  2  2  2  2  2  2  2  2
CENTRE ASSIGNMENTS    2  2  2  2  2  2  2  2  2  2  2  2  2  2  2  2  2  2  2  2
CENTRE ASSIGNMENTS    2  2  2  2  2  2  2  2  2  2  2  2  2  2  2  2  2  2  2  2
CENTRE ASSIGNMENTS    2  2  2  2  2  2  2  2  2  2  2  2  2  2  2  2  2  2  2  2
CENTRE ASSIGNMENTS    2  2  2  2  2  2  2  2  2  2  2  2  2  2  2  2  2  2  2  2
TYPE ASSIGNMENTS      1  1  1  1  1  1  1  1  1  1  1  1  1  1  1  1  1  1  1  1
TYPE ASSIGNMENTS      1  1  1  1  1  1  1  1  1  1  1  1  1  1  1  1  1  1  1  1
TYPE ASSIGNMENTS      1  1  1  1  1  2  2  2  2  2  2  2  2  3  3  3  3  3  3  3
TYPE ASSIGNMENTS      3  4  4  4  4  4  4  4  4  2  2  2  2  2  2  2  2  3  3  3
TYPE ASSIGNMENTS      3  3  3  3  3  4  4  4  4  4  4  4  4  2  3  4  2  3  4  2
TYPE ASSIGNMENTS      3  4  5  6  7  8  9 10  5  6  7  8  9 10  5  6  7  8  9 10
TYPE ASSIGNMENTS     11 12 13 17 14 15 18 19 16 20 11 12 13 17 14 15 18 19 16 20
TYPE ASSIGNMENTS      1  1  1  1  1  1  1  1  1  1  1  1  1  1  1  1  1  1  1  1
TYPE ASSIGNMENTS      1  1  1  1  1  1  1  1  1  1  1  1  1  1  1  1  1  1  1  1
TYPE ASSIGNMENTS      1  1  1  1  1  2  2  2  2  2  2  2  2  3  3  3  3  3  3  3
TYPE ASSIGNMENTS      3  4  4  4  4  4  4  4  4  2  2  2  2  2  2  2  2  3  3  3
TYPE ASSIGNMENTS      3  3  3  3  3  4  4  4  4  4  4  4  4  2  3  4  2  3  4  2
TYPE ASSIGNMENTS      3  4  5  6  7  8  9 10  5  6  7  8  9 10  5  6  7  8  9 10
TYPE ASSIGNMENTS     11 12 13 17 14 15 18 19 16 20 11 12 13 17 14 15 18 19 16 20
EXPONENTS  0.4230000D+06 0.6334000D+05 0.1441000D+05 0.4077000D+04 0.1328000D+04
EXPONENTS  0.4786000D+03 0.1862000D+03 0.7692000D+02 0.3332000D+02 0.1500000D+02
EXPONENTS  0.6869000D+01 0.2683000D+01 0.1109000D+01 0.6015000D-01 0.4230000D+06
EXPONENTS  0.6334000D+05 0.1441000D+05 0.4077000D+04 0.1328000D+04 0.4786000D+03
EXPONENTS  0.1862000D+03 0.7692000D+02 0.3332000D+02 0.1500000D+02 0.6869000D+01
EXPONENTS  0.2683000D+01 0.1109000D+01 0.6015000D-01 0.4230000D+06 0.6334000D+05
EXPONENTS  0.1441000D+05 0.4077000D+04 0.1328000D+04 0.4786000D+03 0.1862000D+03
EXPONENTS  0.7692000D+02 0.3332000D+02 0.1500000D+02 0.6869000D+01 0.2683000D+01
EXPONENTS  0.1109000D+01 0.6015000D-01 0.4540000D+00 0.2382000D-01 0.6650000D-02
EXPONENTS  0.2433000D+03 0.5739000D+02 0.1810000D+02 0.6575000D+01 0.2521000D+01
EXPONENTS  0.9607000D+00 0.3512000D+00 0.9827000D-01 0.2433000D+03 0.5739000D+02
EXPONENTS  0.1810000D+02 0.6575000D+01 0.2521000D+01 0.9607000D+00 0.3512000D+00
EXPONENTS  0.9827000D-01 0.2433000D+03 0.5739000D+02 0.1810000D+02 0.6575000D+01
EXPONENTS  0.2521000D+01 0.9607000D+00 0.3512000D+00 0.9827000D-01 0.2433000D+03
EXPONENTS  0.5739000D+02 0.1810000D+02 0.6575000D+01 0.2521000D+01 0.9607000D+00
EXPONENTS  0.3512000D+00 0.9827000D-01 0.2433000D+03 0.5739000D+02 0.1810000D+02
EXPONENTS  0.6575000D+01 0.2521000D+01 0.9607000D+00 0.3512000D+00 0.9827000D-01
EXPONENTS  0.2433000D+03 0.5739000D+02 0.1810000D+02 0.6575000D+01 0.2521000D+01
EXPONENTS  0.9607000D+00 0.3512000D+00 0.9827000D-01 0.3734000D-01 0.3734000D-01
EXPONENTS  0.3734000D-01 0.1500000D-01 0.1500000D-01 0.1500000D-01 0.7000000D-02
EXPONENTS  0.7000000D-02 0.7000000D-02 0.1367000D+00 0.1367000D+00 0.1367000D+00
EXPONENTS  0.1367000D+00 0.1367000D+00 0.1367000D+00 0.6360000D-01 0.6360000D-01
EXPONENTS  0.6360000D-01 0.6360000D-01 0.6360000D-01 0.6360000D-01 0.2230000D-01
EXPONENTS  0.2230000D-01 0.2230000D-01 0.2230000D-01 0.2230000D-01 0.2230000D-01
EXPONENTS  0.1397000D+00 0.1397000D+00 0.1397000D+00 0.1397000D+00 0.1397000D+00
EXPONENTS  0.1397000D+00 0.1397000D+00 0.1397000D+00 0.1397000D+00 0.1397000D+00
EXPONENTS  0.7140000D-01 0.7140000D-01 0.7140000D-01 0.7140000D-01 0.7140000D-01
EXPONENTS  0.7140000D-01 0.7140000D-01 0.7140000D-01 0.7140000D-01 0.7140000D-01
EXPONENTS  0.4230000D+06 0.6334000D+05 0.1441000D+05 0.4077000D+04 0.1328000D+04
EXPONENTS  0.4786000D+03 0.1862000D+03 0.7692000D+02 0.3332000D+02 0.1500000D+02
EXPONENTS  0.6869000D+01 0.2683000D+01 0.1109000D+01 0.6015000D-01 0.4230000D+06
EXPONENTS  0.6334000D+05 0.1441000D+05 0.4077000D+04 0.1328000D+04 0.4786000D+03
EXPONENTS  0.1862000D+03 0.7692000D+02 0.3332000D+02 0.1500000D+02 0.6869000D+01
EXPONENTS  0.2683000D+01 0.1109000D+01 0.6015000D-01 0.4230000D+06 0.6334000D+05
EXPONENTS  0.1441000D+05 0.4077000D+04 0.1328000D+04 0.4786000D+03 0.1862000D+03
EXPONENTS  0.7692000D+02 0.3332000D+02 0.1500000D+02 0.6869000D+01 0.2683000D+01
EXPONENTS  0.1109000D+01 0.6015000D-01 0.4540000D+00 0.2382000D-01 0.6650000D-02
EXPONENTS  0.2433000D+03 0.5739000D+02 0.1810000D+02 0.6575000D+01 0.2521000D+01
EXPONENTS  0.9607000D+00 0.3512000D+00 0.9827000D-01 0.2433000D+03 0.5739000D+02
EXPONENTS  0.1810000D+02 0.6575000D+01 0.2521000D+01 0.9607000D+00 0.3512000D+00
EXPONENTS  0.9827000D-01 0.2433000D+03 0.5739000D+02 0.1810000D+02 0.6575000D+01
EXPONENTS  0.2521000D+01 0.9607000D+00 0.3512000D+00 0.9827000D-01 0.2433000D+03
EXPONENTS  0.5739000D+02 0.1810000D+02 0.6575000D+01 0.2521000D+01 0.9607000D+00
EXPONENTS  0.3512000D+00 0.9827000D-01 0.2433000D+03 0.5739000D+02 0.1810000D+02
EXPONENTS  0.6575000D+01 0.2521000D+01 0.9607000D+00 0.3512000D+00 0.9827000D-01
EXPONENTS  0.2433000D+03 0.5739000D+02 0.1810000D+02 0.6575000D+01 0.2521000D+01
EXPONENTS  0.9607000D+00 0.3512000D+00 0.9827000D-01 0.3734000D-01 0.3734000D-01
EXPONENTS  0.3734000D-01 0.1500000D-01 0.1500000D-01 0.1500000D-01 0.7000000D-02
EXPONENTS  0.7000000D-02 0.7000000D-02 0.1367000D+00 0.1367000D+00 0.1367000D+00
EXPONENTS  0.1367000D+00 0.1367000D+00 0.1367000D+00 0.6360000D-01 0.6360000D-01
EXPONENTS  0.6360000D-01 0.6360000D-01 0.6360000D-01 0.6360000D-01 0.2230000D-01
EXPONENTS  0.2230000D-01 0.2230000D-01 0.2230000D-01 0.2230000D-01 0.2230000D-01
EXPONENTS  0.1397000D+00 0.1397000D+00 0.1397000D+00 0.1397000D+00 0.1397000D+00
EXPONENTS  0.1397000D+00 0.1397000D+00 0.1397000D+00 0.1397000D+00 0.1397000D+00
EXPONENTS  0.7140000D-01 0.7140000D-01 0.7140000D-01 0.7140000D-01 0.7140000D-01
EXPONENTS  0.7140000D-01 0.7140000D-01 0.7140000D-01 0.7140000D-01 0.7140000D-01
MO    1     MO 0.0        OCC NO =    2.0000000  ORB. ENERGY =  -38.237364
 -0.15112427D+00 -0.28283709D+00 -0.48992538D+00 -0.80091775D+00 -0.12437940D+01
 -0.18212119D+01 -0.24407725D+01 -0.28004190D+01 -0.24394036D+01 -0.12479276D+01
 -0.24107585D+00 -0.74744307D-02 -0.32600557D-03  0.32526162D-06  0.27734338D-03
  0.52033016D-03  0.89889972D-03  0.14789648D-02  0.22976746D-02  0.34402252D-02
  0.47423695D-02  0.59726118D-02  0.61280050D-02  0.46980669D-02  0.70663086D-03
 -0.26880747D-02 -0.23019498D-02 -0.18746679D-05 -0.71142552D-04 -0.13321771D-03
 -0.23078944D-03 -0.37837372D-03 -0.59076984D-03 -0.88025299D-03 -0.12247650D-02
 -0.15358038D-02 -0.16136491D-02 -0.12399806D-02 -0.20957520D-03  0.83348633D-03
  0.80901958D-03 -0.49218778D-03  0.11696282D-02 -0.59397034D-03 -0.97431463D-04
  0.22511593D-17  0.28695135D-17  0.30173837D-17  0.24084480D-17  0.12553893D-17
  0.39214375D-18  0.45282845D-19  0.13402402D-21 -0.21532540D-17 -0.27447152D-17
 -0.28861544D-17 -0.23037019D-17 -0.12007910D-17 -0.37508899D-18 -0.43313445D-19
 -0.12819517D-21  0.33305990D-02  0.42454564D-02  0.44642310D-02  0.35633082D-02
  0.18573533D-02  0.58017821D-03  0.66996146D-04  0.19828906D-06  0.52066709D-18
  0.67070433D-18  0.70534425D-18  0.57764200D-18  0.29745145D-18  0.10431909D-18
  0.12655770D-19 -0.24490822D-19 -0.19899904D-17 -0.25634329D-17 -0.26958268D-17
 -0.22077486D-17 -0.11368599D-17 -0.39870772D-18 -0.48370373D-19  0.93603958D-19
 -0.35170526D-02 -0.45305387D-02 -0.47645278D-02 -0.39019122D-02 -0.20092539D-02
 -0.70466472D-03 -0.85488426D-04  0.16543298D-03 -0.17530213D-19  0.42848565D-19
  0.19384127D-03 -0.38756056D-20 -0.13511123D-19  0.12736130D-04  0.12237441D-21
  0.87888251D-21  0.38558605D-05  0.15315993D-04  0.15315993D-04 -0.30631987D-04
 -0.12656309D-20 -0.20295917D-20  0.20074602D-19  0.14709650D-04  0.14709650D-04
 -0.29419299D-04  0.67228024D-21  0.15207444D-19 -0.58776804D-19  0.11789870D-05
  0.11789870D-05 -0.23579740D-05 -0.20462450D-21  0.15153808D-20  0.23814799D-20
 -0.58971481D-21 -0.61135770D-21  0.85612376D-05 -0.56529049D-21 -0.70966366D-21
 -0.12841856D-04  0.23344349D-20  0.25437368D-20 -0.12841856D-04 -0.65415173D-21
  0.11040407D-20 -0.24568735D-20  0.86226961D-06  0.10993630D-20 -0.24342630D-20
 -0.12934044D-05 -0.44114853D-20  0.98048835D-20 -0.12934044D-05  0.28193579D-21
  0.15112439D+00  0.28283730D+00  0.48992576D+00  0.80091836D+00  0.12437950D+01
  0.18212133D+01  0.24407744D+01  0.28004212D+01  0.24394055D+01  0.12479285D+01
  0.24107603D+00  0.74744364D-02  0.32600582D-03 -0.32526187D-06 -0.27734351D-03
 -0.52033041D-03 -0.89890015D-03 -0.14789655D-02 -0.22976757D-02 -0.34402269D-02
 -0.47423718D-02 -0.59726146D-02 -0.61280079D-02 -0.46980691D-02 -0.70663120D-03
  0.26880760D-02  0.23019509D-02  0.18746688D-05  0.71142554D-04  0.13321772D-03
  0.23078944D-03  0.37837373D-03  0.59076985D-03  0.88025301D-03  0.12247650D-02
  0.15358038D-02  0.16136492D-02  0.12399807D-02  0.20957520D-03 -0.83348635D-03
 -0.80901959D-03  0.49218779D-03 -0.11696288D-02  0.59397035D-03  0.97431462D-04
  0.33513353D-18  0.42718886D-18  0.44920253D-18  0.35854933D-18  0.18689172D-18
  0.58379040D-19  0.67413264D-20  0.19952361D-22  0.12206057D-17  0.15558848D-17
  0.16360618D-17  0.13058895D-17  0.68068720D-18  0.21262507D-18  0.24552904D-19
  0.72669439D-22  0.33305984D-02  0.42454556D-02  0.44642301D-02  0.35633075D-02
  0.18573530D-02  0.58017810D-03  0.66996133D-04  0.19828902D-06 -0.88013732D-18
 -0.11337608D-17 -0.11923162D-17 -0.97644791D-18 -0.50281290D-18 -0.17634133D-18
 -0.21393355D-19  0.41399365D-19  0.24560075D-17  0.31637391D-17  0.33271370D-17
  0.27247604D-17  0.14030904D-17  0.49207732D-18  0.59697775D-19 -0.11552419D-18
 -0.35170520D-02 -0.45305380D-02 -0.47645271D-02 -0.39019117D-02 -0.20092536D-02
 -0.70466461D-03 -0.85488414D-04  0.16543296D-03  0.13262734D-19 -0.35265164D-19
  0.19384128D-03  0.36631455D-20  0.11207383D-19  0.12736127D-04  0.43700508D-21
 -0.32901557D-21  0.38558609D-05 -0.15315990D-04 -0.15315990D-04  0.30631979D-04
  0.29433883D-21 -0.31568027D-20  0.16117051D-19 -0.14709653D-04 -0.14709653D-04
  0.29419305D-04 -0.18907049D-21  0.16654518D-19 -0.57642626D-19 -0.11789868D-05
 -0.11789868D-05  0.23579736D-05  0.14246851D-21  0.93692685D-21  0.24572044D-20
 -0.28851798D-21  0.10277690D-20  0.85612384D-05 -0.18895677D-21  0.12046034D-20
 -0.12841858D-04  0.10545107D-20 -0.42879105D-20 -0.12841858D-04 -0.46201990D-21
 -0.59927561D-21  0.21275937D-20  0.86227025D-06 -0.62328140D-21  0.20853470D-20
 -0.12934054D-05  0.24211082D-20 -0.84681280D-20 -0.12934054D-05  0.22295198D-21
MO    2     MO 0.0        OCC NO =    2.0000000  ORB. ENERGY =  -38.237352
  0.15108259D+00  0.28275907D+00  0.48979024D+00  0.80069682D+00  0.12434509D+01
  0.18207095D+01  0.24400993D+01  0.27996466D+01  0.24387307D+01  0.12475834D+01
  0.24100935D+00  0.74723689D-02  0.32591565D-03 -0.32517190D-06 -0.17217403D-03
 -0.32301959D-03 -0.55803457D-03 -0.91813743D-03 -0.14263903D-02 -0.21356827D-02
 -0.29440505D-02 -0.37077816D-02 -0.38042493D-02 -0.29165475D-02 -0.43867457D-03
  0.16687497D-02  0.14290444D-02  0.11637889D-05  0.20346547D-05  0.38099848D-05
  0.66005055D-05  0.10821370D-04  0.16895832D-04  0.25174960D-04  0.35027894D-04
  0.43923506D-04  0.46149859D-04  0.35463058D-04  0.59937849D-05 -0.23837448D-04
 -0.23137706D-04  0.14076416D-04 -0.89728667D-03  0.86322596D-05 -0.13023086D-05
 -0.12629834D-17 -0.16099029D-17 -0.16928635D-17 -0.13512281D-17 -0.70431968D-18
 -0.22000711D-18 -0.25405346D-19 -0.75192418D-22  0.28741002D-17  0.36635654D-17
  0.38523542D-17  0.30749138D-17  0.16027806D-17  0.50065779D-18  0.57813516D-19
  0.17111115D-21  0.84645899D-03  0.10789665D-02  0.11345672D-02  0.90560113D-03
  0.47203924D-03  0.14745007D-03  0.17026814D-04  0.50394405D-07 -0.14579430D-18
 -0.18780690D-18 -0.19750657D-18 -0.16174810D-18 -0.83290701D-19 -0.29210852D-19
 -0.35437985D-20  0.68577838D-20  0.11676989D-17  0.15041871D-17  0.15818740D-17
  0.12954765D-17  0.66709373D-18  0.23395620D-18  0.28383069D-19 -0.54925514D-19
 -0.66821133D-03 -0.86076543D-03 -0.90522146D-03 -0.74133153D-03 -0.38174188D-03
 -0.13388055D-03 -0.16242104D-04  0.31430918D-04 -0.33071895D-19  0.34485666D-19
 -0.16568046D-04  0.74239653D-20 -0.37611137D-20  0.45971399D-05  0.17617741D-21
  0.18680282D-21 -0.45087572D-06  0.47285786D-05  0.47285786D-05 -0.94571573D-05
 -0.28292414D-20 -0.16131851D-19  0.79401129D-20 -0.39250631D-05 -0.39250631D-05
  0.78501262D-05  0.13148578D-20  0.26971732D-19 -0.15726160D-19  0.26049786D-06
  0.26049786D-06 -0.52099573D-06 -0.32928388D-21 -0.10177624D-20 -0.58184427D-21
 -0.65667461D-21  0.98844183D-21 -0.97060853D-06 -0.71479674D-21  0.11074882D-20
  0.14559128D-05  0.26848206D-20 -0.40728136D-20  0.14559128D-05 -0.11909508D-20
  0.11956540D-20 -0.12895983D-20 -0.83728855D-06  0.12130887D-20 -0.13145941D-20
  0.12559328D-05 -0.48000508D-20  0.51833889D-20  0.12559328D-05  0.47190647D-21
  0.15108247D+00  0.28275885D+00  0.48978987D+00  0.80069621D+00  0.12434500D+01
  0.18207082D+01  0.24400974D+01  0.27996444D+01  0.24387289D+01  0.12475824D+01
  0.24100917D+00  0.74723632D-02  0.32591540D-03 -0.32517165D-06 -0.17217382D-03
 -0.32301919D-03 -0.55803389D-03 -0.91813630D-03 -0.14263885D-02 -0.21356801D-02
 -0.29440469D-02 -0.37077771D-02 -0.38042446D-02 -0.29165439D-02 -0.43867403D-03
  0.16687476D-02  0.14290426D-02  0.11637875D-05  0.20346004D-05  0.38098831D-05
  0.66003292D-05  0.10821081D-04  0.16895381D-04  0.25174287D-04  0.35026958D-04
  0.43922333D-04  0.46148627D-04  0.35462111D-04  0.59936249D-05 -0.23836811D-04
 -0.23137088D-04  0.14076040D-04 -0.89728577D-03  0.86318042D-05 -0.13023830D-05
  0.27991416D-18  0.35680168D-18  0.37518820D-18  0.29947177D-18  0.15609789D-18
  0.48760026D-19  0.56305696D-20  0.16664845D-22  0.17284890D-17  0.22032748D-17
  0.23168128D-17  0.18492587D-17  0.96391516D-18  0.30109649D-18  0.34769152D-19
  0.10290655D-21 -0.84646153D-03 -0.10789697D-02 -0.11345706D-02 -0.90560385D-03
 -0.47204065D-03 -0.14745051D-03 -0.17026865D-04 -0.50394557D-07 -0.80970113D-18
 -0.10430274D-17 -0.10968968D-17 -0.89830410D-18 -0.46257346D-18 -0.16222897D-18
 -0.19681274D-19  0.38086230D-19  0.18922210D-17  0.24374899D-17  0.25633792D-17
  0.20992806D-17  0.10810053D-17  0.37911897D-18  0.45993908D-19 -0.89005140D-19
  0.66821401D-03  0.86076889D-03  0.90522510D-03  0.74133451D-03  0.38174341D-03
  0.13388109D-03  0.16242170D-04 -0.31431045D-04  0.20904473D-19  0.32392335D-20
  0.16567897D-04 -0.51900758D-20 -0.34866843D-20 -0.45971497D-05 -0.54255873D-21
  0.63866351D-21  0.45087277D-06  0.47285903D-05  0.47285903D-05 -0.94571806D-05
  0.58959888D-21 -0.10809837D-19  0.48045002D-20 -0.39250518D-05 -0.39250518D-05
  0.78501036D-05 -0.32478622D-21  0.24538025D-19 -0.15291897D-19  0.26049877D-06
  0.26049877D-06 -0.52099753D-06  0.21809770D-21 -0.72915751D-21  0.86671862D-22
  0.55599676D-21  0.16257919D-21  0.97060200D-06  0.62983718D-21  0.37759873D-21
 -0.14559030D-05 -0.22978275D-20 -0.86533629D-21 -0.14559030D-05 -0.75166102D-21
 -0.97253212D-21  0.21831525D-21  0.83728789D-06 -0.98939823D-21  0.16925481D-21
 -0.12559318D-05  0.39069946D-20 -0.82420056D-21 -0.12559318D-05  0.33074716D-21
MO    3     MO 0.0        OCC NO =    2.0000000  ORB. ENERGY =   -2.173603
 -0.43322793D-03 -0.81080904D-03 -0.14044690D-02 -0.22959908D-02 -0.35655842D-02
 -0.52208679D-02 -0.69969623D-02 -0.80279608D-02 -0.69930380D-02 -0.35774338D-02
 -0.69109211D-03 -0.21426949D-04 -0.93456013D-06  0.93242745D-09 -0.36420639D-01
 -0.68329583D-01 -0.11804321D+00 -0.19421716D+00 -0.30172986D+00 -0.45176922D+00
 -0.62276638D+00 -0.78432138D+00 -0.80472756D+00 -0.61694857D+00 -0.92794529D-01
  0.35299707D+00  0.30229128D+00  0.24618076D-03 -0.18659302D-04 -0.34940405D-04
 -0.60531563D-04 -0.99240038D-04 -0.15494739D-03 -0.23087317D-03 -0.32123193D-03
 -0.40281134D-03 -0.42322866D-03 -0.32522271D-03 -0.54967482D-04  0.21860719D-03
  0.21219004D-03 -0.12909124D-03  0.70486220D-01  0.33092808D-04 -0.14816750D-05
 -0.34216962D-15 -0.43615764D-15 -0.45863348D-15 -0.36607704D-15 -0.19081549D-15
 -0.59604702D-16 -0.68828598D-17 -0.20371258D-19  0.10370333D-14  0.13218882D-14
  0.13900071D-14  0.11094909D-14  0.57831556D-15  0.18064742D-15  0.20860282D-16
  0.61740352D-19  0.24425695D-01  0.31135007D-01  0.32739439D-01  0.26132319D-01
  0.13621317D-01  0.42548670D-02  0.49133126D-03  0.14541973D-05 -0.26099099D-16
 -0.33619906D-16 -0.35356276D-16 -0.28955039D-16 -0.14910132D-16 -0.52291268D-17
 -0.63438656D-18  0.12276335D-17 -0.19277763D-15 -0.24832911D-15 -0.26115458D-15
 -0.21387267D-15 -0.11013177D-15 -0.38624273D-16 -0.46858147D-17  0.90677572D-17
 -0.34768462D-02 -0.44787463D-02 -0.47100605D-02 -0.38573063D-02 -0.19862845D-02
 -0.69660911D-03 -0.84511138D-04  0.16354178D-03 -0.19785818D-17  0.62927615D-20
 -0.93470266D-04  0.11223655D-18  0.13794262D-18  0.10818418D-04  0.28478779D-19
 -0.36943766D-19 -0.22161874D-05  0.10693311D-04  0.10693311D-04 -0.21386622D-04
  0.20259297D-18 -0.26196594D-18  0.38173133D-19 -0.18574685D-04 -0.18574685D-04
  0.37149370D-04 -0.13519638D-19  0.52130639D-18  0.39970743D-19 -0.66409731D-07
 -0.66409731D-07  0.13281946D-06 -0.11916048D-19 -0.18788226D-19 -0.46660680D-19
 -0.22302369D-19  0.59084195D-19 -0.40141409D-05  0.14057921D-19 -0.89142292D-19
  0.60212113D-05  0.52849186D-19 -0.88110292D-19  0.60212113D-05 -0.54203217D-19
  0.16430541D-19 -0.63055101D-20 -0.51650330D-05  0.13097986D-19  0.10996491D-19
  0.77475494D-05 -0.62389610D-19  0.79200388D-20  0.77475494D-05  0.20045653D-19
 -0.43322796D-03 -0.81080909D-03 -0.14044691D-02 -0.22959909D-02 -0.35655844D-02
 -0.52208682D-02 -0.69969627D-02 -0.80279613D-02 -0.69930384D-02 -0.35774341D-02
 -0.69109215D-03 -0.21426951D-04 -0.93456019D-06  0.93242751D-09 -0.36420642D-01
 -0.68329587D-01 -0.11804322D+00 -0.19421717D+00 -0.30172988D+00 -0.45176925D+00
 -0.62276642D+00 -0.78432143D+00 -0.80472762D+00 -0.61694861D+00 -0.92794535D-01
  0.35299709D+00  0.30229130D+00  0.24618078D-03 -0.18659296D-04 -0.34940393D-04
 -0.60531542D-04 -0.99240004D-04 -0.15494734D-03 -0.23087309D-03 -0.32123183D-03
 -0.40281120D-03 -0.42322852D-03 -0.32522260D-03 -0.54967464D-04  0.21860712D-03
  0.21218997D-03 -0.12909120D-03  0.70486225D-01  0.33092852D-04 -0.14816668D-05
 -0.31513998D-15 -0.40170343D-15 -0.42240380D-15 -0.33715883D-15 -0.17574205D-15
 -0.54896237D-16 -0.63391492D-17 -0.18762034D-19  0.10378638D-14  0.13229469D-14
  0.13911203D-14  0.11103795D-14  0.57877873D-15  0.18079210D-15  0.20876989D-16
  0.61789800D-19 -0.24425696D-01 -0.31135008D-01 -0.32739441D-01 -0.26132321D-01
 -0.13621318D-01 -0.42548673D-02 -0.49133129D-03 -0.14541974D-05  0.19728258D-16
  0.25413221D-16  0.26725740D-16  0.21887057D-16  0.11270539D-16  0.39526867D-17
  0.47953156D-18 -0.92796579D-18 -0.11895181D-16 -0.15322938D-16 -0.16114323D-16
 -0.13196832D-16 -0.67955879D-17 -0.23832782D-17 -0.28913424D-18  0.55951831D-18
  0.34768462D-02  0.44787463D-02  0.47100605D-02  0.38573062D-02  0.19862845D-02
  0.69660911D-03  0.84511137D-04 -0.16354178D-03  0.88146512D-18 -0.40089802D-18
  0.93470284D-04 -0.15632603D-18 -0.73718655D-19 -0.10818417D-04 -0.30053679D-19
  0.12915238D-19  0.22161878D-05  0.10693313D-04  0.10693313D-04 -0.21386625D-04
  0.22363943D-18 -0.59447530D-18  0.85964420D-18 -0.18574686D-04 -0.18574686D-04
  0.37149373D-04 -0.44013836D-19  0.55541510D-18 -0.20715083D-18 -0.66409839D-07
 -0.66409839D-07  0.13281968D-06  0.11177364D-19 -0.13194092D-19 -0.15919685D-19
  0.63275857D-19 -0.18569140D-19  0.40141402D-05 -0.61945344D-19 -0.24801308D-18
 -0.60212104D-05 -0.12788223D-18  0.30372050D-18 -0.60212104D-05 -0.36177442D-18
 -0.32115727D-19  0.74994925D-20  0.51650331D-05 -0.18515125D-19  0.33675461D-19
 -0.77475497D-05  0.11486231D-18 -0.56173939D-19 -0.77475497D-05  0.54945106D-19
MO    4     MO 0.0        OCC NO =    2.0000000  ORB. ENERGY =   -2.173488
 -0.39682553D-03 -0.74268002D-03 -0.12864571D-02 -0.21030679D-02 -0.32659825D-02
 -0.47821794D-02 -0.64090357D-02 -0.73534036D-02 -0.64054412D-02 -0.32768365D-02
 -0.63302242D-03 -0.19626529D-04 -0.85603280D-06  0.85407932D-09 -0.36565148D-01
 -0.68600699D-01 -0.11851158D+00 -0.19498777D+00 -0.30292705D+00 -0.45356174D+00
 -0.62523737D+00 -0.78743338D+00 -0.80792053D+00 -0.61939648D+00 -0.93162715D-01
  0.35439768D+00  0.30349070D+00  0.24715755D-03  0.93519405D-04  0.17511940D-03
  0.30338089D-03  0.49738565D-03  0.77658788D-03  0.11571237D-02  0.16099969D-02
  0.20188684D-02  0.21211990D-02  0.16299985D-02  0.27549402D-03 -0.10956473D-02
 -0.10634849D-02  0.64699827D-03  0.70593174D-01  0.64177498D-03  0.25281654D-03
 -0.37900804D-15 -0.48311493D-15 -0.50801054D-15 -0.40548935D-15 -0.21135893D-15
 -0.66021819D-16 -0.76238771D-17 -0.22564454D-19  0.74951697D-15  0.95539619D-15
  0.10046292D-14  0.80188576D-15  0.41797822D-15  0.13056313D-15  0.15076792D-16
  0.44622909D-19  0.20416776D-01  0.26024908D-01  0.27366009D-01  0.21843297D-01
  0.11385690D-01  0.35565280D-02  0.41069048D-03  0.12155241D-05  0.34633441D-16
  0.44613534D-16  0.46917693D-16  0.38423266D-16  0.19785709D-16  0.69390387D-17
  0.84182944D-18 -0.16290668D-17  0.68260227D-16  0.87930331D-16  0.92471677D-16
  0.75729722D-16  0.38996326D-16  0.13676387D-16  0.16591903D-17 -0.32107831D-17
  0.13799021D-03  0.17775396D-03  0.18693443D-03  0.15309004D-03  0.78832311D-04
  0.27647251D-04  0.33541058D-05 -0.64906999D-05 -0.40233119D-19  0.95223814D-18
 -0.26650130D-03  0.53814224D-19  0.13959044D-18 -0.80811169D-05  0.51360419D-20
 -0.14178169D-19 -0.11412892D-04  0.20566874D-04  0.20566874D-04 -0.41133747D-04
  0.22654099D-18  0.31138030D-18 -0.11811512D-18 -0.18731597D-04 -0.18731597D-04
  0.37463193D-04 -0.33885102D-19  0.23544168D-18 -0.84072651D-18 -0.16428424D-05
 -0.16428424D-05  0.32856849D-05  0.24105189D-20 -0.31188359D-19 -0.52822321D-19
  0.39383996D-19  0.19048051D-19  0.94797931D-05  0.66783918D-19 -0.14809288D-18
 -0.14219690D-04 -0.18493591D-18  0.90948732D-19 -0.14219690D-04  0.74919733D-19
  0.64792758D-20 -0.49059668D-19 -0.25250949D-05  0.50199971D-20 -0.24974520D-19
  0.37876423D-05 -0.24457825D-19  0.17215352D-18  0.37876423D-05 -0.10054531D-19
  0.39682550D-03  0.74267997D-03  0.12864571D-02  0.21030678D-02  0.32659823D-02
  0.47821791D-02  0.64090353D-02  0.73534031D-02  0.64054407D-02  0.32768362D-02
  0.63302237D-03  0.19626528D-04  0.85603274D-06 -0.85407926D-09  0.36565145D-01
  0.68600694D-01  0.11851157D+00  0.19498776D+00  0.30292703D+00  0.45356171D+00
  0.62523733D+00  0.78743333D+00  0.80792048D+00  0.61939644D+00  0.93162709D-01
 -0.35439766D+00 -0.30349068D+00 -0.24715753D-03 -0.93519406D-04 -0.17511940D-03
 -0.30338089D-03 -0.49738566D-03 -0.77658789D-03 -0.11571238D-02 -0.16099969D-02
 -0.20188685D-02 -0.21211990D-02 -0.16299985D-02 -0.27549403D-03  0.10956473D-02
  0.10634849D-02 -0.64699828D-03 -0.70593169D-01 -0.64177498D-03 -0.25281654D-03
  0.32361824D-15  0.41251052D-15  0.43376779D-15  0.34622947D-15  0.18047006D-15
  0.56373119D-16  0.65096923D-17  0.19266792D-19 -0.10468906D-14 -0.13344532D-14
 -0.14032195D-14 -0.11200370D-14 -0.58381264D-15 -0.18236454D-15 -0.21058566D-16
 -0.62327215D-19  0.20416774D-01  0.26024906D-01  0.27366007D-01  0.21843295D-01
  0.11385689D-01  0.35565277D-02  0.41069044D-03  0.12155240D-05 -0.29098846D-16
 -0.37484071D-16 -0.39420014D-16 -0.32283039D-16 -0.16623855D-16 -0.58301461D-17
 -0.70730094D-18  0.13687339D-17  0.21391398D-16  0.27555618D-16  0.28978785D-16
  0.23732190D-16  0.12220673D-16  0.42859079D-17  0.51995725D-18 -0.10061956D-17
  0.13799044D-03  0.17775424D-03  0.18693473D-03  0.15309029D-03  0.78832439D-04
  0.27647296D-04  0.33541112D-05 -0.64907104D-05 -0.15399234D-18 -0.97166018D-18
 -0.26650129D-03 -0.67975016D-19 -0.12588492D-18 -0.80811176D-05 -0.25425673D-20
  0.98989179D-20 -0.11412892D-04 -0.20566873D-04 -0.20566873D-04  0.41133746D-04
 -0.20585590D-18  0.36603389D-18 -0.48170634D-18  0.18731595D-04  0.18731595D-04
 -0.37463191D-04  0.37424227D-19  0.22886857D-18 -0.75258744D-18  0.16428424D-05
  0.16428424D-05 -0.32856848D-05 -0.30568444D-20 -0.32645910D-19 -0.55433020D-19
 -0.76523968D-19 -0.32466869D-20  0.94797934D-05  0.48742069D-19  0.24104592D-18
 -0.14219690D-04  0.18082984D-18 -0.23130586D-18 -0.14219690D-04  0.32573125D-18
 -0.22538148D-20  0.41589111D-19 -0.25250945D-05 -0.16839545D-19  0.87352213D-20
  0.37876418D-05  0.23600989D-19 -0.13350255D-18  0.37876418D-05 -0.38713403D-19
MO    5     MO 0.0        OCC NO =    2.0000000  ORB. ENERGY =   -1.085843
  0.14700577D-03  0.27512910D-03  0.47657374D-03  0.77909082D-03  0.12098977D-02
  0.17715795D-02  0.23742556D-02  0.27241009D-02  0.23729240D-02  0.12139186D-02
  0.23450595D-03  0.72707345D-05  0.31712114D-06 -0.31639746D-09 -0.57944931D-03
 -0.10871179D-02 -0.18780576D-02 -0.30899787D-02 -0.48004967D-02 -0.71876105D-02
 -0.99081609D-02 -0.12478487D-01 -0.12803148D-01 -0.98156000D-02 -0.14763532D-02
  0.56161538D-02  0.48094289D-02  0.39167153D-05  0.10851138D-03  0.20319257D-03
  0.35201549D-03  0.57712091D-03  0.90108169D-03  0.13426208D-02  0.18680935D-02
  0.23425106D-02  0.24612456D-02  0.18913015D-02  0.31965812D-03 -0.12712891D-02
 -0.12339708D-02  0.75071773D-03 -0.58868131D-03 -0.14398345D-03 -0.38350166D-05
  0.14075101D-12  0.17941285D-12  0.18865826D-12  0.15058529D-12  0.78491693D-13
  0.24518313D-13  0.28312550D-14  0.83796895D-17 -0.45843442D-13 -0.58435835D-13
 -0.61447118D-13 -0.49046526D-13 -0.25565212D-13 -0.79857605D-14 -0.92215661D-15
 -0.27293147D-17 -0.21830586D+01 -0.27827066D+01 -0.29261036D+01 -0.23355890D+01
 -0.12174120D+01 -0.38028085D+00 -0.43912974D-01 -0.12996960D-03 -0.75663599D-15
 -0.97467085D-15 -0.10250098D-14 -0.83943222D-15 -0.43225793D-15 -0.15159702D-15
 -0.18391428D-16  0.35590184D-16  0.17089236D-15  0.22013730D-15  0.23150675D-15
  0.18959256D-15  0.97628949D-16  0.34239413D-16  0.41538528D-17 -0.80383309D-17
  0.17384977D-01  0.22394693D-01  0.23551313D-01  0.19287359D-01  0.99318487D-02
  0.34831950D-02  0.42257382D-03 -0.81774400D-03 -0.25591417D-18 -0.61729506D-18
  0.12902778D-03  0.12211583D-17  0.20757638D-18  0.13736134D-04  0.73422608D-19
 -0.15553936D-19  0.14237100D-05 -0.32497479D-04 -0.32497479D-04  0.64994959D-04
 -0.21731615D-18  0.59092946D-17 -0.76052681D-17  0.17926407D-04  0.17926407D-04
 -0.35852815D-04  0.42411502D-19 -0.98344577D-18  0.12311066D-17  0.27993890D-05
  0.27993890D-05 -0.55987779D-05 -0.15108810D-19 -0.81050503D-19 -0.59406703D-19
  0.74606504D-19 -0.20607447D-18 -0.19776022D-04 -0.69998902D-19 -0.32032237D-18
  0.29664033D-04 -0.15382061D-18  0.93854579D-18  0.29664033D-04 -0.77953586D-19
  0.49036675D-20  0.40643438D-19  0.75036560D-05  0.13641991D-19  0.50842804D-19
 -0.11255484D-04 -0.28352994D-19 -0.17277312D-18 -0.11255484D-04  0.46532820D-19
  0.14700577D-03  0.27512910D-03  0.47657374D-03  0.77909082D-03  0.12098977D-02
  0.17715795D-02  0.23742557D-02  0.27241009D-02  0.23729240D-02  0.12139186D-02
  0.23450596D-03  0.72707346D-05  0.31712114D-06 -0.31639747D-09 -0.57944932D-03
 -0.10871179D-02 -0.18780576D-02 -0.30899788D-02 -0.48004967D-02 -0.71876105D-02
 -0.99081609D-02 -0.12478487D-01 -0.12803148D-01 -0.98156000D-02 -0.14763532D-02
  0.56161538D-02  0.48094290D-02  0.39167153D-05  0.10851138D-03  0.20319257D-03
  0.35201549D-03  0.57712092D-03  0.90108170D-03  0.13426208D-02  0.18680935D-02
  0.23425107D-02  0.24612457D-02  0.18913015D-02  0.31965812D-03 -0.12712891D-02
 -0.12339708D-02  0.75071774D-03 -0.58868132D-03 -0.14398341D-03 -0.38349561D-05
 -0.14993384D-13 -0.19111804D-13 -0.20096664D-13 -0.16040972D-13 -0.83612620D-14
 -0.26117928D-14 -0.30159707D-15 -0.89263942D-18  0.56942015D-13  0.72582993D-13
  0.76323300D-13  0.60920557D-13  0.31754480D-13  0.99190916D-14  0.11454082D-14
  0.33900745D-17  0.21830586D+01  0.27827066D+01  0.29261036D+01  0.23355890D+01
  0.12174120D+01  0.38028085D+00  0.43912975D-01  0.12996960D-03  0.44323072D-16
  0.57095363D-16  0.60044172D-16  0.49173202D-16  0.25321290D-16  0.88804203D-17
  0.10773537D-17 -0.20848417D-17 -0.31093392D-15 -0.40053372D-15 -0.42122012D-15
 -0.34495841D-15 -0.17763317D-15 -0.62297665D-16 -0.75578203D-17  0.14625521D-16
 -0.17384977D-01 -0.22394693D-01 -0.23551313D-01 -0.19287359D-01 -0.99318488D-02
 -0.34831951D-02 -0.42257382D-03  0.81774400D-03 -0.10287528D-17 -0.11532681D-18
 -0.12902777D-03 -0.25836365D-18 -0.29480466D-19 -0.13736133D-04 -0.10696173D-18
 -0.49149192D-20 -0.14237074D-05 -0.32497479D-04 -0.32497479D-04  0.64994957D-04
 -0.99643198D-18  0.34579427D-18  0.45216407D-17  0.17926407D-04  0.17926407D-04
 -0.35852813D-04  0.14394958D-18 -0.55875330D-19 -0.81846961D-18  0.27993888D-05
  0.27993888D-05 -0.55987777D-05  0.27739566D-20 -0.16517071D-18  0.37153599D-19
 -0.44724282D-18  0.16779154D-19  0.19776022D-04 -0.30134848D-18  0.95031363D-19