 Molden2AIM, Version 4.0.0 (06/02/2016)           Time: Fri Jun 29 23:12:07 2018
GAUSSIAN             23 MOL ORBITALS    403 PRIMITIVES        2 NUCLEI
  Na   1    (CENTRE  1)   0.00000000  0.00000000 -0.95575166  CHARGE = 11.0
  Br   2    (CENTRE  2)   0.00000000  0.00000000  3.79034085  CHARGE = 35.0
CENTRE ASSIGNMENTS    1  1  1  1  1  1  1  1  1  1  1  1  1  1  1  1  1  1  1  1
CENTRE ASSIGNMENTS    1  1  1  1  1  1  1  1  1  1  1  1  1  1  1  1  1  1  1  1
CENTRE ASSIGNMENTS    1  1  1  1  1  1  1  1  1  1  1  1  1  1  1  1  1  1  1  1
CENTRE ASSIGNMENTS    1  1  1  1  1  1  1  1  1  1  1  1  1  1  1  1  1  1  1  1
CENTRE ASSIGNMENTS    1  1  1  1  1  1  1  1  1  1  1  1  1  1  1  1  1  1  1  1
CENTRE ASSIGNMENTS    1  1  1  1  1  1  1  1  1  1  1  1  1  1  1  1  1  1  1  1
CENTRE ASSIGNMENTS    1  1  1  1  1  1  1  1  1  1  1  1  1  1  1  1  1  1  1  1
CENTRE ASSIGNMENTS    2  2  2  2  2  2  2  2  2  2  2  2  2  2  2  2  2  2  2  2
CENTRE ASSIGNMENTS    2  2  2  2  2  2  2  2  2  2  2  2  2  2  2  2  2  2  2  2
CENTRE ASSIGNMENTS    2  2  2  2  2  2  2  2  2  2  2  2  2  2  2  2  2  2  2  2
CENTRE ASSIGNMENTS    2  2  2  2  2  2  2  2  2  2  2  2  2  2  2  2  2  2  2  2
CENTRE ASSIGNMENTS    2  2  2  2  2  2  2  2  2  2  2  2  2  2  2  2  2  2  2  2
CENTRE ASSIGNMENTS    2  2  2  2  2  2  2  2  2  2  2  2  2  2  2  2  2  2  2  2
CENTRE ASSIGNMENTS    2  2  2  2  2  2  2  2  2  2  2  2  2  2  2  2  2  2  2  2
CENTRE ASSIGNMENTS    2  2  2  2  2  2  2  2  2  2  2  2  2  2  2  2  2  2  2  2
CENTRE ASSIGNMENTS    2  2  2  2  2  2  2  2  2  2  2  2  2  2  2  2  2  2  2  2
CENTRE ASSIGNMENTS    2  2  2  2  2  2  2  2  2  2  2  2  2  2  2  2  2  2  2  2
CENTRE ASSIGNMENTS    2  2  2  2  2  2  2  2  2  2  2  2  2  2  2  2  2  2  2  2
CENTRE ASSIGNMENTS    2  2  2  2  2  2  2  2  2  2  2  2  2  2  2  2  2  2  2  2
CENTRE ASSIGNMENTS    2  2  2  2  2  2  2  2  2  2  2  2  2  2  2  2  2  2  2  2
CENTRE ASSIGNMENTS    2  2  2
TYPE ASSIGNMENTS      1  1  1  1  1  1  1  1  1  1  1  1  1  1  1  1  1  1  1  1
TYPE ASSIGNMENTS      1  1  1  1  1  1  1  1  1  1  1  1  1  1  1  1  1  1  1  1
TYPE ASSIGNMENTS      1  1  1  1  1  2  2  2  2  2  2  2  2  3  3  3  3  3  3  3
TYPE ASSIGNMENTS      3  4  4  4  4  4  4  4  4  2  2  2  2  2  2  2  2  3  3  3
TYPE ASSIGNMENTS      3  3  3  3  3  4  4  4  4  4  4  4  4  2  3  4  2  3  4  2
TYPE ASSIGNMENTS      3  4  5  6  7  8  9 10  5  6  7  8  9 10  5  6  7  8  9 10
TYPE ASSIGNMENTS     11 12 13 17 14 15 18 19 16 20 11 12 13 17 14 15 18 19 16 20
TYPE ASSIGNMENTS      1  1  1  1  1  1  1  1  1  1  1  1  1  1  1  1  1  1  1  1
TYPE ASSIGNMENTS      1  1  1  1  1  1  1  1  1  1  1  1  1  1  1  1  1  1  1  1
TYPE ASSIGNMENTS      1  1  1  1  1  1  1  1  1  1  1  1  1  1  1  1  1  1  1  1
TYPE ASSIGNMENTS      1  1  1  1  1  1  1  1  1  1  1  1  1  1  1  2  2  2  2  2
TYPE ASSIGNMENTS      2  2  2  2  2  2  3  3  3  3  3  3  3  3  3  3  3  4  4  4
TYPE ASSIGNMENTS      4  4  4  4  4  4  4  4  2  2  2  2  2  2  2  2  2  2  2  3
TYPE ASSIGNMENTS      3  3  3  3  3  3  3  3  3  3  4  4  4  4  4  4  4  4  4  4
TYPE ASSIGNMENTS      4  2  2  2  2  2  2  2  2  2  2  2  3  3  3  3  3  3  3  3
TYPE ASSIGNMENTS      3  3  3  4  4  4  4  4  4  4  4  4  4  4  2  3  4  2  3  4
TYPE ASSIGNMENTS      2  3  4  5  5  5  5  5  5  5  6  6  6  6  6  6  6  7  7  7
TYPE ASSIGNMENTS      7  7  7  7  8  8  8  8  8  8  8  9  9  9  9  9  9  9 10 10
TYPE ASSIGNMENTS     10 10 10 10 10  5  6  7  8  9 10  5  6  7  8  9 10  5  6  7
TYPE ASSIGNMENTS      8  9 10 11 12 13 17 14 15 18 19 16 20 11 12 13 17 14 15 18
TYPE ASSIGNMENTS     19 16 20
EXPONENTS  0.4230000D+06 0.6334000D+05 0.1441000D+05 0.4077000D+04 0.1328000D+04
EXPONENTS  0.4786000D+03 0.1862000D+03 0.7692000D+02 0.3332000D+02 0.1500000D+02
EXPONENTS  0.6869000D+01 0.2683000D+01 0.1109000D+01 0.6015000D-01 0.4230000D+06
EXPONENTS  0.6334000D+05 0.1441000D+05 0.4077000D+04 0.1328000D+04 0.4786000D+03
EXPONENTS  0.1862000D+03 0.7692000D+02 0.3332000D+02 0.1500000D+02 0.6869000D+01
EXPONENTS  0.2683000D+01 0.1109000D+01 0.6015000D-01 0.4230000D+06 0.6334000D+05
EXPONENTS  0.1441000D+05 0.4077000D+04 0.1328000D+04 0.4786000D+03 0.1862000D+03
EXPONENTS  0.7692000D+02 0.3332000D+02 0.1500000D+02 0.6869000D+01 0.2683000D+01
EXPONENTS  0.1109000D+01 0.6015000D-01 0.4540000D+00 0.2382000D-01 0.6650000D-02
EXPONENTS  0.2433000D+03 0.5739000D+02 0.1810000D+02 0.6575000D+01 0.2521000D+01
EXPONENTS  0.9607000D+00 0.3512000D+00 0.9827000D-01 0.2433000D+03 0.5739000D+02
EXPONENTS  0.1810000D+02 0.6575000D+01 0.2521000D+01 0.9607000D+00 0.3512000D+00
EXPONENTS  0.9827000D-01 0.2433000D+03 0.5739000D+02 0.1810000D+02 0.6575000D+01
EXPONENTS  0.2521000D+01 0.9607000D+00 0.3512000D+00 0.9827000D-01 0.2433000D+03
EXPONENTS  0.5739000D+02 0.1810000D+02 0.6575000D+01 0.2521000D+01 0.9607000D+00
EXPONENTS  0.3512000D+00 0.9827000D-01 0.2433000D+03 0.5739000D+02 0.1810000D+02
EXPONENTS  0.6575000D+01 0.2521000D+01 0.9607000D+00 0.3512000D+00 0.9827000D-01
EXPONENTS  0.2433000D+03 0.5739000D+02 0.1810000D+02 0.6575000D+01 0.2521000D+01
EXPONENTS  0.9607000D+00 0.3512000D+00 0.9827000D-01 0.3734000D-01 0.3734000D-01
EXPONENTS  0.3734000D-01 0.1500000D-01 0.1500000D-01 0.1500000D-01 0.7000000D-02
EXPONENTS  0.7000000D-02 0.7000000D-02 0.1367000D+00 0.1367000D+00 0.1367000D+00
EXPONENTS  0.1367000D+00 0.1367000D+00 0.1367000D+00 0.6360000D-01 0.6360000D-01
EXPONENTS  0.6360000D-01 0.6360000D-01 0.6360000D-01 0.6360000D-01 0.2230000D-01
EXPONENTS  0.2230000D-01 0.2230000D-01 0.2230000D-01 0.2230000D-01 0.2230000D-01
EXPONENTS  0.1397000D+00 0.1397000D+00 0.1397000D+00 0.1397000D+00 0.1397000D+00
EXPONENTS  0.1397000D+00 0.1397000D+00 0.1397000D+00 0.1397000D+00 0.1397000D+00
EXPONENTS  0.7140000D-01 0.7140000D-01 0.7140000D-01 0.7140000D-01 0.7140000D-01
EXPONENTS  0.7140000D-01 0.7140000D-01 0.7140000D-01 0.7140000D-01 0.7140000D-01
EXPONENTS  0.1063900D+08 0.1593400D+07 0.3626100D+06 0.1027000D+06 0.3350100D+05
EXPONENTS  0.1209300D+05 0.4715900D+04 0.1955600D+04 0.8526100D+03 0.3876700D+03
EXPONENTS  0.1826800D+03 0.8824500D+02 0.3926300D+02 0.1923400D+02 0.9405700D+01
EXPONENTS  0.4160100D+01 0.1899500D+01 0.3011400D+00 0.1063900D+08 0.1593400D+07
EXPONENTS  0.3626100D+06 0.1027000D+06 0.3350100D+05 0.1209300D+05 0.4715900D+04
EXPONENTS  0.1955600D+04 0.8526100D+03 0.3876700D+03 0.1826800D+03 0.8824500D+02
EXPONENTS  0.3926300D+02 0.1923400D+02 0.9405700D+01 0.4160100D+01 0.1899500D+01
EXPONENTS  0.3011400D+00 0.1063900D+08 0.1593400D+07 0.3626100D+06 0.1027000D+06
EXPONENTS  0.3350100D+05 0.1209300D+05 0.4715900D+04 0.1955600D+04 0.8526100D+03
EXPONENTS  0.3876700D+03 0.1826800D+03 0.8824500D+02 0.3926300D+02 0.1923400D+02
EXPONENTS  0.9405700D+01 0.4160100D+01 0.1899500D+01 0.3011400D+00 0.1063900D+08
EXPONENTS  0.1593400D+07 0.3626100D+06 0.1027000D+06 0.3350100D+05 0.1209300D+05
EXPONENTS  0.4715900D+04 0.1955600D+04 0.8526100D+03 0.3876700D+03 0.1826800D+03
EXPONENTS  0.8824500D+02 0.3926300D+02 0.1923400D+02 0.9405700D+01 0.4160100D+01
EXPONENTS  0.1899500D+01 0.3011400D+00 0.6047200D+00 0.1251500D+00 0.4559300D-01
EXPONENTS  0.8676500D+04 0.2055900D+04 0.6662300D+03 0.2531000D+03 0.1061200D+03
EXPONENTS  0.4724200D+02 0.2182500D+02 0.9968400D+01 0.4517100D+01 0.1998200D+01
EXPONENTS  0.2814500D+00 0.8676500D+04 0.2055900D+04 0.6662300D+03 0.2531000D+03
EXPONENTS  0.1061200D+03 0.4724200D+02 0.2182500D+02 0.9968400D+01 0.4517100D+01
EXPONENTS  0.1998200D+01 0.2814500D+00 0.8676500D+04 0.2055900D+04 0.6662300D+03
EXPONENTS  0.2531000D+03 0.1061200D+03 0.4724200D+02 0.2182500D+02 0.9968400D+01
EXPONENTS  0.4517100D+01 0.1998200D+01 0.2814500D+00 0.8676500D+04 0.2055900D+04
EXPONENTS  0.6662300D+03 0.2531000D+03 0.1061200D+03 0.4724200D+02 0.2182500D+02
EXPONENTS  0.9968400D+01 0.4517100D+01 0.1998200D+01 0.2814500D+00 0.8676500D+04
EXPONENTS  0.2055900D+04 0.6662300D+03 0.2531000D+03 0.1061200D+03 0.4724200D+02
EXPONENTS  0.2182500D+02 0.9968400D+01 0.4517100D+01 0.1998200D+01 0.2814500D+00
EXPONENTS  0.8676500D+04 0.2055900D+04 0.6662300D+03 0.2531000D+03 0.1061200D+03
EXPONENTS  0.4724200D+02 0.2182500D+02 0.9968400D+01 0.4517100D+01 0.1998200D+01
EXPONENTS  0.2814500D+00 0.8676500D+04 0.2055900D+04 0.6662300D+03 0.2531000D+03
EXPONENTS  0.1061200D+03 0.4724200D+02 0.2182500D+02 0.9968400D+01 0.4517100D+01
EXPONENTS  0.1998200D+01 0.2814500D+00 0.8676500D+04 0.2055900D+04 0.6662300D+03
EXPONENTS  0.2531000D+03 0.1061200D+03 0.4724200D+02 0.2182500D+02 0.9968400D+01
EXPONENTS  0.4517100D+01 0.1998200D+01 0.2814500D+00 0.8676500D+04 0.2055900D+04
EXPONENTS  0.6662300D+03 0.2531000D+03 0.1061200D+03 0.4724200D+02 0.2182500D+02
EXPONENTS  0.9968400D+01 0.4517100D+01 0.1998200D+01 0.2814500D+00 0.7098800D+00
EXPONENTS  0.7098800D+00 0.7098800D+00 0.1020400D+00 0.1020400D+00 0.1020400D+00
EXPONENTS  0.3514200D-01 0.3514200D-01 0.3514200D-01 0.4038300D+03 0.1211700D+03
EXPONENTS  0.4634500D+02 0.1972100D+02 0.8862400D+01 0.3996200D+01 0.1763600D+01
EXPONENTS  0.4038300D+03 0.1211700D+03 0.4634500D+02 0.1972100D+02 0.8862400D+01
EXPONENTS  0.3996200D+01 0.1763600D+01 0.4038300D+03 0.1211700D+03 0.4634500D+02
EXPONENTS  0.1972100D+02 0.8862400D+01 0.3996200D+01 0.1763600D+01 0.4038300D+03
EXPONENTS  0.1211700D+03 0.4634500D+02 0.1972100D+02 0.8862400D+01 0.3996200D+01
EXPONENTS  0.1763600D+01 0.4038300D+03 0.1211700D+03 0.4634500D+02 0.1972100D+02
EXPONENTS  0.8862400D+01 0.3996200D+01 0.1763600D+01 0.4038300D+03 0.1211700D+03
EXPONENTS  0.4634500D+02 0.1972100D+02 0.8862400D+01 0.3996200D+01 0.1763600D+01
EXPONENTS  0.7061900D+00 0.7061900D+00 0.7061900D+00 0.7061900D+00 0.7061900D+00
EXPONENTS  0.7061900D+00 0.2639000D+00 0.2639000D+00 0.2639000D+00 0.2639000D+00
EXPONENTS  0.2639000D+00 0.2639000D+00 0.1047000D+00 0.1047000D+00 0.1047000D+00
EXPONENTS  0.1047000D+00 0.1047000D+00 0.1047000D+00 0.5515000D+00 0.5515000D+00
EXPONENTS  0.5515000D+00 0.5515000D+00 0.5515000D+00 0.5515000D+00 0.5515000D+00
EXPONENTS  0.5515000D+00 0.5515000D+00 0.5515000D+00 0.2580000D+00 0.2580000D+00
EXPONENTS  0.2580000D+00 0.2580000D+00 0.2580000D+00 0.2580000D+00 0.2580000D+00
EXPONENTS  0.2580000D+00 0.2580000D+00 0.2580000D+00
MO    1     MO 0.0        OCC NO =    2.0000000  ORB. ENERGY = -482.143169
 -0.55710818D-05 -0.10426575D-04 -0.18060728D-04 -0.29525226D-04 -0.45851525D-04
 -0.67137597D-04 -0.89977230D-04 -0.10323533D-03 -0.89926766D-04 -0.46003905D-04
 -0.88870785D-05 -0.27553922D-06 -0.12017948D-07  0.11990523D-10  0.17181515D-04
  0.32234629D-04  0.55687140D-04  0.91622366D-04  0.14234171D-03  0.21312311D-03
  0.29379139D-03  0.37000531D-03  0.37963197D-03  0.29104682D-03  0.43776020D-04
 -0.16652713D-03 -0.14260657D-03 -0.11613631D-06 -0.12698726D-04 -0.23778950D-04
 -0.41195201D-04 -0.67538539D-04 -0.10545059D-03 -0.15712244D-03 -0.21861676D-03
 -0.27413622D-03 -0.28803138D-03 -0.22133271D-03 -0.37408525D-04  0.14877473D-03
  0.14440749D-03 -0.87853997D-04  0.23123527D-04 -0.55562817D-05  0.15291562D-06
 -0.49090800D-19 -0.62575186D-19 -0.65799776D-19 -0.52520777D-19 -0.27376145D-19
 -0.85514385D-20 -0.98747835D-21 -0.29226480D-23 -0.24532444D-18 -0.31271078D-18
 -0.32882522D-18 -0.26246527D-18 -0.13680847D-18 -0.42734623D-19 -0.49347855D-20
 -0.14605527D-22 -0.11612596D-02 -0.14802373D-02 -0.15565161D-02 -0.12423969D-02
 -0.64759203D-03 -0.20228719D-03 -0.23359136D-04 -0.69136234D-07 -0.34761730D-19
 -0.44778791D-19 -0.47091485D-19 -0.38565594D-19 -0.19858999D-19 -0.69647423D-20
 -0.84494774D-21  0.16351011D-20  0.24244860D-18  0.31231343D-18  0.32844351D-18
  0.26897896D-18  0.13850825D-18  0.48576179D-19  0.58931588D-20 -0.11404150D-19
  0.10999690D-02  0.14169399D-02  0.14901207D-02  0.12203350D-02  0.62840033D-03
  0.22038605D-03  0.26736767D-04 -0.51739672D-04  0.52902882D-21 -0.62064539D-20
 -0.82188445D-05 -0.11289087D-21  0.11802642D-20  0.48952016D-06  0.13871550D-22
 -0.14338175D-21 -0.48948520D-07  0.53995462D-05  0.53995462D-05 -0.10799092D-04
  0.22869345D-22  0.96602281D-21 -0.22223818D-20  0.14127783D-05  0.14127783D-05
 -0.28255567D-05  0.22583201D-23  0.77824046D-21 -0.82163467D-20 -0.51997498D-09
 -0.51997498D-09  0.10399500D-08  0.12366766D-24 -0.26232284D-22  0.20723043D-21
 -0.62584835D-22 -0.23486348D-21 -0.11013977D-05 -0.61221593D-22 -0.22692556D-21
  0.16520966D-05  0.24897610D-21  0.93151599D-21  0.16520966D-05  0.32010244D-23
 -0.43837529D-22  0.50614605D-21 -0.16565806D-06 -0.45198109D-22  0.50336829D-21
  0.24848710D-06  0.17671070D-21 -0.20218064D-20  0.24848710D-06  0.29670402D-23
  0.78328117D+00  0.14734473D+01  0.25506099D+01  0.41809376D+01  0.65495197D+01
  0.98444859D+01  0.14070243D+02  0.18678598D+02  0.21753764D+02  0.19980622D+02
  0.11683455D+02  0.30657971D+01  0.16760593D+00 -0.59989431D-02  0.16765153D-02
 -0.49781396D-03  0.84868662D-04  0.69241155D-05  0.52107798D-04  0.95738171D-04
  0.16555336D-03  0.27111677D-03  0.42686117D-03  0.64460219D-03  0.94092234D-03
  0.12957072D-02  0.16555669D-02  0.18047620D-02  0.14855970D-02  0.40734061D-03
 -0.82163242D-03 -0.80071668D-03 -0.17521937D-03 -0.59029791D-05 -0.19997407D-06
  0.50870824D-09 -0.10576841D-03 -0.20734845D-03 -0.36316567D-03 -0.59329453D-03
 -0.93576837D-03 -0.14120327D-02 -0.20703205D-02 -0.28584199D-02 -0.37059556D-02
 -0.41212407D-02 -0.35795512D-02 -0.10397956D-02  0.26213121D-02  0.38194365D-02
  0.65752965D-03 -0.16040908D-02 -0.76350678D-03  0.36872074D-05  0.36800952D-04
  0.79738777D-04  0.13574262D-03  0.22156851D-03  0.34928102D-03  0.52716594D-03
  0.77291119D-03  0.10684948D-02  0.13867991D-02  0.15492971D-02  0.13533461D-02
  0.40086243D-03 -0.10420121D-02 -0.16029668D-02 -0.28056813D-03  0.88503666D-03
  0.75126228D-03 -0.28028924D-03  0.26275946D-03  0.16477561D-03  0.44400086D-04
  0.27550921D-16  0.39530693D-16  0.52340739D-16  0.60438725D-16  0.56029478D-16
  0.36274505D-16  0.12803568D-16  0.15006886D-17  0.21817235D-19  0.31948912D-20
  0.32848443D-22  0.56673755D-16  0.81316804D-16  0.10766777D-15  0.12432577D-15
  0.11525571D-15  0.74618647D-16  0.26337642D-16  0.30869988D-17  0.44879248D-19
  0.65720664D-20  0.67571049D-22  0.51461624D-04  0.73838319D-04  0.97765859D-04
  0.11289187D-03  0.10465595D-03  0.67756173D-04  0.23915441D-04  0.28030959D-05
  0.40751826D-07  0.59676513D-08  0.61356723D-10  0.38019060D-17  0.54880950D-17
  0.73319638D-17  0.87105979D-17  0.84412371D-17  0.58677365D-17  0.19093052D-17
 -0.85933885D-18 -0.92837266D-18 -0.23900670D-18  0.23312897D-21  0.20126449D-16
  0.29052760D-16  0.38813792D-16  0.46111976D-16  0.44686040D-16  0.31062498D-16
  0.10107439D-16 -0.45491496D-17 -0.49145993D-17 -0.12652485D-17  0.12341331D-20
 -0.49966252D-03 -0.72126859D-03 -0.96359759D-03 -0.11447835D-02 -0.11093830D-02
 -0.77116267D-03 -0.25092894D-03  0.11293793D-03  0.12201065D-03  0.31411268D-04
 -0.30638792D-07  0.11951293D-18  0.17365759D-18  0.23087978D-18  0.27703976D-18
  0.26803719D-18  0.19027520D-18  0.59138010D-19 -0.33953315D-19 -0.39004821D-19
 -0.10358073D-19  0.37372251D-20 -0.75142484D-17 -0.10918536D-16 -0.14516321D-16
 -0.17418580D-16 -0.16852553D-16 -0.11963350D-16 -0.37182394D-17  0.21347785D-17
  0.24523866D-17  0.65125281D-18 -0.23497405D-18  0.37264545D-03  0.54147037D-03
  0.71989113D-03  0.86381952D-03  0.83574921D-03  0.59328463D-03  0.18439435D-03
 -0.10586761D-03 -0.12161838D-03 -0.32296829D-04  0.11652797D-04  0.70182940D-19
  0.56368190D-18 -0.11875981D-05 -0.65043758D-20  0.73122734D-19 -0.58877664D-04
  0.26128096D-21 -0.23449177D-20 -0.29466670D-05 -0.14541705D-03 -0.15216328D-03
 -0.12965126D-03 -0.85385154D-04 -0.39351475D-04 -0.11783863D-04 -0.20049244D-05
 -0.14541705D-03 -0.15216328D-03 -0.12965126D-03 -0.85385154D-04 -0.39351475D-04
 -0.11783863D-04 -0.20049244D-05  0.29083411D-03  0.30432655D-03  0.25930251D-03
  0.17077031D-03  0.78702951D-04  0.23567726D-04  0.40098488D-05  0.16916192D-17
  0.17700973D-17  0.15082176D-17  0.99327532D-18  0.45777102D-18  0.13708027D-18
  0.23323046D-19  0.53454015D-17  0.55933868D-17  0.47658649D-17  0.31386823D-17
  0.14465252D-17  0.43316432D-18  0.73699237D-19 -0.32928737D-17 -0.34456376D-17
 -0.29358676D-17 -0.19334908D-17 -0.89108834D-18 -0.26683785D-18 -0.45400197D-19
  0.95943310D-05  0.95943310D-05 -0.19188662D-04 -0.92409440D-20 -0.28197788D-19
 -0.17581806D-19 -0.53169337D-05 -0.53169337D-05  0.10633867D-04  0.98832532D-21
  0.23297805D-20  0.20796634D-19 -0.34420995D-05 -0.34420995D-05  0.68841990D-05
 -0.80990712D-22  0.15735384D-20 -0.16081950D-19 -0.12774770D-20  0.70020013D-20
  0.86439605D-05 -0.15898304D-20  0.63861296D-20 -0.12965941D-04  0.54222613D-20
 -0.27392134D-19 -0.12965941D-04 -0.25229552D-21  0.50010480D-21 -0.24589956D-20
 -0.47562769D-05  0.54134628D-21 -0.23522511D-20  0.71344153D-05 -0.20416607D-20
  0.97292379D-20  0.71344153D-05  0.10746377D-21
MO    2     MO 0.0        OCC NO =    2.0000000  ORB. ENERGY =  -62.233989
  0.72870942D-04  0.13638183D-03  0.23623819D-03  0.38619628D-03  0.59974776D-03
  0.87817414D-03  0.11769214D-02  0.13503402D-02  0.11762613D-02  0.60174092D-03
  0.11624489D-03  0.36041120D-05  0.15719734D-06 -0.15683861D-09 -0.22493071D-03
 -0.42199758D-03 -0.72902464D-03 -0.11994684D-02 -0.18634574D-02 -0.27900876D-02
 -0.38461512D-02 -0.48439009D-02 -0.49699277D-02 -0.38102209D-02 -0.57309097D-03
  0.21800793D-02  0.18669248D-02  0.15203911D-05  0.16639189D-03  0.31157650D-03
  0.53978231D-03  0.88496009D-03  0.13817232D-02  0.20587814D-02  0.28645439D-02
  0.35920175D-02  0.37740864D-02  0.29001311D-02  0.49016535D-03 -0.19494011D-02
 -0.18921770D-02  0.11511543D-02 -0.30034860D-03  0.71110311D-04 -0.19749600D-05
 -0.34219784D-15 -0.43619362D-15 -0.45867131D-15 -0.36610723D-15 -0.19083123D-15
 -0.59609618D-16 -0.68834274D-17 -0.20372938D-19  0.40677034D-17  0.51850304D-17
  0.54522226D-17  0.43519140D-17  0.22684095D-17  0.70857910D-18  0.81823253D-19
  0.24217298D-21  0.15223636D-01  0.19405303D-01  0.20405287D-01  0.16287312D-01
  0.84896654D-02  0.26519019D-02  0.30622868D-03  0.90634762D-06  0.96172864D-18
  0.12388637D-17  0.13028474D-17  0.10669675D-17  0.54942513D-18  0.19268869D-18
  0.23376582D-19 -0.45237207D-19 -0.38911258D-17 -0.50124062D-17 -0.52712824D-17
 -0.43169192D-17 -0.22229580D-17 -0.77961277D-18 -0.94580965D-19  0.18302841D-18
 -0.14416626D-01 -0.18570971D-01 -0.19530107D-01 -0.15994190D-01 -0.82360618D-02
 -0.28884662D-02 -0.35042259D-03  0.67812048D-03 -0.41497875D-19  0.15122031D-18
  0.10740169D-03  0.97203392D-21 -0.23252114D-19 -0.65397448D-05 -0.33769560D-21
  0.29841864D-20  0.65891940D-06 -0.70542752D-04 -0.70542752D-04  0.14108550D-03
 -0.17553957D-20  0.30168714D-19 -0.63720811D-19 -0.18563050D-04 -0.18563050D-04
  0.37126099D-04 -0.60452978D-21 -0.40743327D-19  0.18596644D-18  0.15163653D-07
  0.15163653D-07 -0.30327306D-07 -0.27162149D-22 -0.90192898D-21 -0.31401514D-20
 -0.60312154D-20  0.18612506D-19  0.14260086D-04 -0.60781941D-20  0.17842141D-19
 -0.21390129D-04  0.24171840D-19 -0.73679659D-19 -0.21390129D-04  0.82241824D-21
  0.25824550D-20 -0.11975671D-19  0.21981722D-05  0.27567952D-20 -0.11654151D-19
 -0.32972583D-05 -0.10504160D-19  0.47581162D-19 -0.32972583D-05 -0.69876538D-21
  0.41035294D-03  0.77192386D-03  0.13362383D-02  0.21903502D-02  0.34312260D-02
  0.51574248D-02  0.73712556D-02  0.97855251D-02  0.11396573D-01  0.10467642D-01
  0.61208420D-02  0.16061396D-02  0.87807023D-04 -0.31427845D-05  0.87830910D-06
 -0.26079961D-06  0.44461818D-07  0.36274728D-08 -0.25327945D+00 -0.46535283D+00
 -0.80470228D+00 -0.13178125D+01 -0.20748365D+01 -0.31332064D+01 -0.45735245D+01
 -0.62980210D+01 -0.80471848D+01 -0.87723744D+01 -0.72210149D+01 -0.19799532D+01
  0.39936941D+01  0.38920293D+01  0.85168566D+00  0.28692506D-01  0.97201041D-03
 -0.24726691D-05  0.13388259D-02  0.26246351D-02  0.45969833D-02  0.75099748D-02
  0.11845039D-01  0.17873635D-01  0.26206301D-01  0.36182133D-01  0.46910315D-01
  0.52167031D-01  0.45310278D-01  0.13161825D-01 -0.33180802D-01 -0.48346766D-01
 -0.83230687D-02  0.20304724D-01  0.96645366D-02 -0.46672999D-04 -0.49086321D-03
 -0.10635820D-02 -0.18105798D-02 -0.29553538D-02 -0.46588252D-02 -0.70315128D-02
 -0.10309344D-01 -0.14251936D-01 -0.18497583D-01 -0.20665035D-01 -0.18051376D-01
 -0.53468351D-02  0.13898700D-01  0.21380898D-01  0.37423101D-02 -0.11804910D-01
 -0.10020583D-01  0.37385901D-02 -0.38590779D-02 -0.21904675D-02 -0.57475677D-03
  0.97341081D-14  0.13966722D-13  0.18492682D-13  0.21353808D-13  0.19795963D-13
  0.12816267D-13  0.45236716D-14  0.53021332D-15  0.77083203D-17  0.11287977D-17
  0.11605793D-19  0.30316680D-13  0.43499068D-13  0.57595079D-13  0.66505997D-13
  0.61654119D-13  0.39916001D-13  0.14088882D-13  0.16513385D-14  0.24007405D-16
  0.35156173D-17  0.36146005D-19 -0.15228514D-01 -0.21850222D-01 -0.28930855D-01
 -0.33406941D-01 -0.30969771D-01 -0.20050394D-01 -0.70770529D-02 -0.82949162D-03
 -0.12059273D-04 -0.17659463D-05 -0.18156670D-07 -0.20428328D-15 -0.29488527D-15
 -0.39395967D-15 -0.46803617D-15 -0.45356293D-15 -0.31528409D-15 -0.10259042D-15
  0.46173830D-16  0.49883141D-16  0.12842262D-16 -0.12526441D-19 -0.92893887D-15
 -0.13409339D-14 -0.17914557D-14 -0.21283043D-14 -0.20624900D-14 -0.14336936D-14
 -0.46651016D-15  0.20996659D-15  0.22683397D-15  0.58397712D-16 -0.56961576D-19
  0.67788227D-02  0.97853085D-02  0.13072938D-01  0.15531052D-01  0.15050780D-01
  0.10462212D-01  0.34043033D-02 -0.15322067D-02 -0.16552944D-02 -0.42615047D-03
  0.41567044D-06  0.10844144D-16  0.15757023D-16  0.20949144D-16  0.25137523D-16
  0.24320665D-16  0.17264840D-16  0.53659558D-17 -0.30807933D-17 -0.35391476D-17
 -0.93985175D-18  0.33910144D-18  0.20049612D-15  0.29132976D-15  0.38732630D-15
  0.46476474D-15  0.44966194D-15  0.31920762D-15  0.99210532D-16 -0.56960429D-16
 -0.65434888D-16 -0.17376810D-16  0.62696071D-17 -0.50042735D-02 -0.72714314D-02
 -0.96674523D-02 -0.11600274D-01 -0.11223316D-01 -0.79672475D-02 -0.24762406D-02
  0.14217011D-02  0.16332190D-02  0.43371566D-03 -0.15648596D-03 -0.38726299D-17
 -0.21816414D-16  0.20696906D-04  0.10073123D-18 -0.15258191D-17  0.77224204D-03
  0.32800864D-19  0.22083438D-19  0.38307916D-04  0.16587143D-02  0.17356658D-02
  0.14788801D-02  0.97395436D-03  0.44886657D-03  0.13441382D-03  0.22869372D-04
  0.16587143D-02  0.17356658D-02  0.14788801D-02  0.97395436D-03  0.44886657D-03
  0.13441382D-03  0.22869372D-04 -0.33174285D-02 -0.34713315D-02 -0.29577602D-02
 -0.19479087D-02 -0.89773314D-03 -0.26882764D-03 -0.45738744D-04 -0.36824447D-15
 -0.38532816D-15 -0.32832021D-15 -0.21622368D-15 -0.99651057D-16 -0.29840670D-16
 -0.50771371D-17  0.15679857D-14  0.16407281D-14  0.13979882D-14  0.92068091D-15
  0.42431442D-15  0.12706164D-15  0.21618461D-16 -0.18910243D-14 -0.19787532D-14
 -0.16860036D-14 -0.11103609D-14 -0.51173226D-15 -0.15323905D-15 -0.26072326D-16
 -0.12294207D-03 -0.12294207D-03  0.24588415D-03  0.14635429D-17 -0.74162224D-17
  0.93457252D-17  0.68829821D-04  0.68829821D-04 -0.13765964D-03 -0.15396273D-18
  0.99814336D-18 -0.15945581D-17  0.45225573D-04  0.45225573D-04 -0.90451147D-04
  0.13078914D-19 -0.14170441D-18  0.40212045D-18 -0.18154978D-19 -0.98302399D-19
 -0.11280680D-03  0.11653646D-18  0.45433689D-19  0.16921019D-03 -0.62071529D-19
  0.24947351D-18  0.16921019D-03  0.23147548D-20  0.23129219D-20  0.22582646D-19
  0.62237698D-04 -0.13807264D-19  0.26579504D-20 -0.93356548D-04  0.68684987D-20
 -0.70405887D-19 -0.93356548D-04 -0.80438461D-20
MO    3     MO 0.0        OCC NO =    2.0000000  ORB. ENERGY =  -55.992290
  0.15563973D-05  0.29128801D-05  0.50456392D-05  0.82484846D-05  0.12809575D-04
  0.18756281D-04  0.25137007D-04  0.28840931D-04  0.25122908D-04  0.12852145D-04
  0.24827898D-05  0.76977600D-07  0.33574633D-08 -0.33498015D-11  0.85705925D-06
  0.16079482D-05  0.27778213D-05  0.45703650D-05  0.71003796D-05  0.10631142D-04
  0.14655088D-04  0.18456840D-04  0.18937043D-04  0.14518182D-04  0.21836632D-05
 -0.83068121D-05 -0.71135913D-05 -0.57931850D-08 -0.22550621D-05 -0.42227079D-05
 -0.73155165D-05 -0.11993613D-04 -0.18726102D-04 -0.27902080D-04 -0.38822350D-04
 -0.48681594D-04 -0.51149122D-04 -0.39304654D-04 -0.66430719D-05  0.26419680D-04
  0.25644138D-04 -0.15601268D-04 -0.60798842D-04 -0.34258788D-04  0.93113804D-06
  0.34009305D-15  0.43351067D-15  0.45585011D-15  0.36385537D-15  0.18965746D-15
  0.59242970D-16  0.68410888D-17  0.20247628D-19 -0.36629920D-15 -0.46691519D-15
 -0.49097601D-15 -0.39189254D-15 -0.20427167D-15 -0.63807986D-16 -0.73682345D-17
 -0.21807826D-19  0.31276907D-03  0.39868127D-03  0.41922590D-03  0.33462226D-03
  0.17441988D-03  0.54483232D-04  0.62914575D-05  0.18620880D-07 -0.33483884D-15
 -0.43132716D-15 -0.45360395D-15 -0.37147917D-15 -0.19128979D-15 -0.67087173D-16
 -0.81388733D-17  0.15749946D-16  0.37007413D-15  0.47671599D-15  0.50133698D-15
  0.41057015D-15  0.21141933D-15  0.74146798D-16  0.89953320D-17 -0.17407322D-16
 -0.41306891D-03 -0.53210029D-03 -0.55958172D-03 -0.45826971D-03 -0.23598179D-03
 -0.82761086D-04 -0.10040399D-04  0.19429685D-04  0.10504675D-16 -0.11701100D-16
 -0.15807607D-04 -0.21538236D-17  0.23610406D-17 -0.51763600D-06  0.25414631D-18
 -0.27956524D-18  0.35636505D-07 -0.10833207D-04 -0.10833207D-04  0.21666414D-04
  0.28789792D-21 -0.12171228D-17  0.16048918D-17  0.13253060D-05  0.13253060D-05
 -0.26506119D-05 -0.21048308D-21  0.14016543D-16 -0.15516022D-16  0.13871138D-06
  0.13871138D-06 -0.27742276D-06 -0.26761603D-22 -0.39345382D-18  0.42376186D-18
  0.94517696D-18 -0.10773672D-17  0.57937428D-05  0.94435510D-18 -0.10778843D-17
 -0.86906141D-05 -0.37798860D-17  0.43099860D-17 -0.86906141D-05  0.25185773D-20
 -0.88121037D-18  0.97686298D-18 -0.41177791D-06 -0.88113853D-18  0.97687396D-18
  0.61766686D-06  0.35247696D-17 -0.39074629D-17  0.61766686D-06 -0.44321013D-21
  0.39509741D-05  0.74322636D-05  0.12865615D-04  0.21089204D-04  0.33036647D-04
  0.49656893D-04  0.70972174D-04  0.94217325D-04  0.10972887D-03  0.10078491D-03
  0.58932899D-04  0.15464288D-04  0.84542657D-06 -0.30259465D-07  0.84565656D-08
 -0.25110397D-08  0.42808879D-09  0.34926157D-10 -0.72628822D-04 -0.13344165D-03
 -0.23075137D-03 -0.37788762D-03 -0.59496707D-03 -0.89845857D-03 -0.13114751D-02
 -0.18059809D-02 -0.23075601D-02 -0.25155109D-02 -0.20706528D-02 -0.56775894D-03
  0.11452066D-02  0.11160539D-02  0.24422403D-03  0.82276826D-05  0.27872760D-06
 -0.70904705D-09  0.87300955D-05  0.17114484D-04  0.29975595D-04  0.48970368D-04
  0.77238065D-04  0.11654879D-03  0.17088368D-03  0.23593319D-03  0.30588856D-03
  0.34016608D-03  0.29545518D-03  0.85824445D-04 -0.21636238D-03 -0.31525524D-03
 -0.54272317D-04  0.13240121D-03  0.63019640D-04 -0.30434109D-06 -0.48189032D-05
 -0.10441400D-04 -0.17774827D-04 -0.29013304D-04 -0.45736628D-04 -0.69029781D-04
 -0.10120891D-03 -0.13991413D-03 -0.18159450D-03 -0.20287282D-03 -0.17721400D-03
 -0.52490959D-04  0.13644634D-03  0.20990059D-03  0.36739013D-04 -0.11589119D-03
 -0.98374091D-04  0.36702494D-04  0.25407672D-04 -0.13967331D-03  0.11870885D-03
  0.74614420D-10  0.10705848D-09  0.14175112D-09  0.16368238D-09  0.15174110D-09
  0.98239955D-10  0.34675096D-10  0.40642203D-11  0.59086241D-13  0.86525222D-14
  0.88961366D-16 -0.81756863D-10 -0.11730662D-09 -0.15532021D-09 -0.17935083D-09
 -0.16626647D-09 -0.10764394D-09 -0.37994359D-10 -0.44532665D-11 -0.64742253D-13
 -0.94807822D-14 -0.97477165D-16  0.52014984D+02  0.74632293D+02  0.98817123D+02
  0.11410578D+03  0.10578131D+03  0.68484747D+02  0.24172601D+02  0.28332372D+01
  0.41190025D-01  0.60318207D-02  0.62016484D-04 -0.19158744D-13 -0.27655867D-13
 -0.36947578D-13 -0.43894856D-13 -0.42537480D-13 -0.29568975D-13 -0.96214607D-14
  0.43304209D-14  0.46782993D-14  0.12044138D-14 -0.11747945D-17  0.21066326D-13
  0.30409484D-13  0.40626344D-13  0.48265343D-13  0.46772817D-13  0.32513074D-13
  0.10579442D-13 -0.47615887D-14 -0.51441044D-14 -0.13243339D-14  0.12917655D-17
 -0.18267503D-01 -0.26369351D-01 -0.35228822D-01 -0.41852921D-01 -0.40558689D-01
 -0.28193462D-01 -0.91738823D-02  0.41289750D-02  0.44606706D-02  0.11483860D-02
 -0.11201445D-05  0.16976835D-13  0.24668095D-13  0.32796518D-13  0.39353551D-13
  0.38074735D-13  0.27028628D-13  0.84005657D-14 -0.48230749D-14 -0.55406423D-14
 -0.14713663D-14  0.53087354D-15 -0.18622797D-13 -0.27059750D-13 -0.35976251D-13
 -0.43169011D-13 -0.41766209D-13 -0.29649146D-13 -0.92150290D-14  0.52906883D-14
  0.60778264D-14  0.16140202D-14 -0.58234353D-15  0.15147468D-01  0.22009943D-01
  0.29262475D-01  0.35112944D-01  0.33971929D-01  0.24116114D-01  0.74953488D-02
 -0.43033565D-02 -0.49436013D-02 -0.13128168D-02  0.47366838D-03 -0.24861837D-14
  0.27257810D-14 -0.18580710D-02 -0.13778368D-15  0.15123992D-15 -0.72308517D-04
  0.53580189D-17 -0.56961059D-17 -0.27798609D-05  0.12979737D-02  0.13581896D-02
  0.11572502D-02  0.76213677D-03  0.35124615D-03  0.10518123D-03  0.17895694D-04
  0.12979737D-02  0.13581896D-02  0.11572502D-02  0.76213677D-03  0.35124615D-03
  0.10518123D-03  0.17895694D-04 -0.25959474D-02 -0.27163792D-02 -0.23145005D-02
 -0.15242735D-02 -0.70249229D-03 -0.21036245D-03 -0.35791388D-04 -0.81612277D-16
 -0.85398454D-16 -0.72764054D-16 -0.47920630D-16 -0.22085192D-16 -0.66134464D-17
 -0.11252218D-17 -0.23813139D-14 -0.24917884D-14 -0.21231371D-14 -0.13982463D-14
 -0.64441008D-15 -0.19296964D-15 -0.32832149D-16  0.10592246D-13  0.11083644D-13
  0.94438583D-14  0.62194947D-14  0.28663799D-14  0.85834211D-15  0.14603963D-15
 -0.38086969D-04 -0.38086969D-04  0.76173938D-04  0.39680950D-18  0.81981518D-16
 -0.12849820D-15  0.23773820D-04  0.23773820D-04 -0.47547640D-04 -0.54817993D-19
 -0.45048070D-16  0.54613227D-16 -0.39701628D-05 -0.39701628D-05  0.79403256D-05
  0.57935326D-20  0.25234015D-16 -0.28235631D-16 -0.75990012D-17  0.82505501D-17
  0.12618464D-04 -0.76021839D-17  0.82340620D-17 -0.18927696D-04  0.30399188D-16
 -0.32985712D-16 -0.18927696D-04 -0.77032318D-19  0.23976220D-17 -0.25741662D-17
 -0.10710183D-05  0.23988256D-17 -0.25711181D-17  0.16065275D-05 -0.95916915D-17
  0.10293617D-16  0.16065275D-05  0.13479787D-19