 Molden2AIM, Version 4.0.0 (06/02/2016)           Time: Fri Jun 29 23:12:32 2018
GAUSSIAN             11 MOL ORBITALS    206 PRIMITIVES        2 NUCLEI
  N    1    (CENTRE  1)   0.00000000  0.00000000  0.07309083  CHARGE =  7.0
  S    2    (CENTRE  2)   0.00000000  0.00000000  2.76149836  CHARGE = 16.0
CENTRE ASSIGNMENTS    1  1  1  1  1  1  1  1  1  1  1  1  1  1  1  1  1  1  1  1
CENTRE ASSIGNMENTS    1  1  1  1  1  1  1  1  1  1  1  1  1  1  1  1  1  1  1  1
CENTRE ASSIGNMENTS    1  1  1  1  1  1  1  1  1  1  1  1  1  1  1  1  1  1  1  1
CENTRE ASSIGNMENTS    1  1  1  1  1  1  1  1  1  1  1  1  1  1  1  2  2  2  2  2
CENTRE ASSIGNMENTS    2  2  2  2  2  2  2  2  2  2  2  2  2  2  2  2  2  2  2  2
CENTRE ASSIGNMENTS    2  2  2  2  2  2  2  2  2  2  2  2  2  2  2  2  2  2  2  2
CENTRE ASSIGNMENTS    2  2  2  2  2  2  2  2  2  2  2  2  2  2  2  2  2  2  2  2
CENTRE ASSIGNMENTS    2  2  2  2  2  2  2  2  2  2  2  2  2  2  2  2  2  2  2  2
CENTRE ASSIGNMENTS    2  2  2  2  2  2  2  2  2  2  2  2  2  2  2  2  2  2  2  2
CENTRE ASSIGNMENTS    2  2  2  2  2  2  2  2  2  2  2  2  2  2  2  2  2  2  2  2
CENTRE ASSIGNMENTS    2  2  2  2  2  2
TYPE ASSIGNMENTS      1  1  1  1  1  1  1  1  1  1  1  1  1  1  1  1  1  1  1  2
TYPE ASSIGNMENTS      2  2  3  3  3  4  4  4  2  3  4  2  3  4  2  3  4  5  6  7
TYPE ASSIGNMENTS      8  9 10  5  6  7  8  9 10  5  6  7  8  9 10 11 12 13 17 14
TYPE ASSIGNMENTS     15 18 19 16 20 11 12 13 17 14 15 18 19 16 20  1  1  1  1  1
TYPE ASSIGNMENTS      1  1  1  1  1  1  1  1  1  1  1  1  1  1  1  1  1  1  1  1
TYPE ASSIGNMENTS      1  1  1  1  1  1  1  1  1  1  1  1  1  1  1  1  1  2  2  2
TYPE ASSIGNMENTS      2  2  2  2  3  3  3  3  3  3  3  4  4  4  4  4  4  4  2  2
TYPE ASSIGNMENTS      2  2  2  2  2  3  3  3  3  3  3  3  4  4  4  4  4  4  4  2
TYPE ASSIGNMENTS      3  4  2  3  4  2  3  4  5  6  7  8  9 10  5  6  7  8  9 10
TYPE ASSIGNMENTS      5  6  7  8  9 10 11 12 13 17 14 15 18 19 16 20 11 12 13 17
TYPE ASSIGNMENTS     14 15 18 19 16 20
EXPONENTS  0.1142000D+05 0.1712000D+04 0.3893000D+03 0.1100000D+03 0.3557000D+02
EXPONENTS  0.1254000D+02 0.4644000D+01 0.5118000D+00 0.1142000D+05 0.1712000D+04
EXPONENTS  0.3893000D+03 0.1100000D+03 0.3557000D+02 0.1254000D+02 0.4644000D+01
EXPONENTS  0.5118000D+00 0.1293000D+01 0.1787000D+00 0.5760000D-01 0.2663000D+02
EXPONENTS  0.5948000D+01 0.1742000D+01 0.2663000D+02 0.5948000D+01 0.1742000D+01
EXPONENTS  0.2663000D+02 0.5948000D+01 0.1742000D+01 0.5550000D+00 0.5550000D+00
EXPONENTS  0.5550000D+00 0.1725000D+00 0.1725000D+00 0.1725000D+00 0.4910000D-01
EXPONENTS  0.4910000D-01 0.4910000D-01 0.1654000D+01 0.1654000D+01 0.1654000D+01
EXPONENTS  0.1654000D+01 0.1654000D+01 0.1654000D+01 0.4690000D+00 0.4690000D+00
EXPONENTS  0.4690000D+00 0.4690000D+00 0.4690000D+00 0.4690000D+00 0.1510000D+00
EXPONENTS  0.1510000D+00 0.1510000D+00 0.1510000D+00 0.1510000D+00 0.1510000D+00
EXPONENTS  0.1093000D+01 0.1093000D+01 0.1093000D+01 0.1093000D+01 0.1093000D+01
EXPONENTS  0.1093000D+01 0.1093000D+01 0.1093000D+01 0.1093000D+01 0.1093000D+01
EXPONENTS  0.3640000D+00 0.3640000D+00 0.3640000D+00 0.3640000D+00 0.3640000D+00
EXPONENTS  0.3640000D+00 0.3640000D+00 0.3640000D+00 0.3640000D+00 0.3640000D+00
EXPONENTS  0.3741000D+06 0.5605000D+05 0.1276000D+05 0.3615000D+04 0.1183000D+04
EXPONENTS  0.4288000D+03 0.1678000D+03 0.6947000D+02 0.2984000D+02 0.1272000D+02
EXPONENTS  0.5244000D+01 0.2219000D+01 0.3490000D+00 0.3741000D+06 0.5605000D+05
EXPONENTS  0.1276000D+05 0.3615000D+04 0.1183000D+04 0.4288000D+03 0.1678000D+03
EXPONENTS  0.6947000D+02 0.2984000D+02 0.1272000D+02 0.5244000D+01 0.2219000D+01
EXPONENTS  0.3490000D+00 0.3741000D+06 0.5605000D+05 0.1276000D+05 0.3615000D+04
EXPONENTS  0.1183000D+04 0.4288000D+03 0.1678000D+03 0.6947000D+02 0.2984000D+02
EXPONENTS  0.1272000D+02 0.5244000D+01 0.2219000D+01 0.3490000D+00 0.7767000D+00
EXPONENTS  0.1322000D+00 0.4970000D-01 0.5744000D+03 0.1358000D+03 0.4319000D+02
EXPONENTS  0.1587000D+02 0.6208000D+01 0.2483000D+01 0.3229000D+00 0.5744000D+03
EXPONENTS  0.1358000D+03 0.4319000D+02 0.1587000D+02 0.6208000D+01 0.2483000D+01
EXPONENTS  0.3229000D+00 0.5744000D+03 0.1358000D+03 0.4319000D+02 0.1587000D+02
EXPONENTS  0.6208000D+01 0.2483000D+01 0.3229000D+00 0.5744000D+03 0.1358000D+03
EXPONENTS  0.4319000D+02 0.1587000D+02 0.6208000D+01 0.2483000D+01 0.3229000D+00
EXPONENTS  0.5744000D+03 0.1358000D+03 0.4319000D+02 0.1587000D+02 0.6208000D+01
EXPONENTS  0.2483000D+01 0.3229000D+00 0.5744000D+03 0.1358000D+03 0.4319000D+02
EXPONENTS  0.1587000D+02 0.6208000D+01 0.2483000D+01 0.3229000D+00 0.8688000D+00
EXPONENTS  0.8688000D+00 0.8688000D+00 0.1098000D+00 0.1098000D+00 0.1098000D+00
EXPONENTS  0.3510000D-01 0.3510000D-01 0.3510000D-01 0.2690000D+00 0.2690000D+00
EXPONENTS  0.2690000D+00 0.2690000D+00 0.2690000D+00 0.2690000D+00 0.8190000D+00
EXPONENTS  0.8190000D+00 0.8190000D+00 0.8190000D+00 0.8190000D+00 0.8190000D+00
EXPONENTS  0.1010000D+00 0.1010000D+00 0.1010000D+00 0.1010000D+00 0.1010000D+00
EXPONENTS  0.1010000D+00 0.5570000D+00 0.5570000D+00 0.5570000D+00 0.5570000D+00
EXPONENTS  0.5570000D+00 0.5570000D+00 0.5570000D+00 0.5570000D+00 0.5570000D+00
EXPONENTS  0.5570000D+00 0.2180000D+00 0.2180000D+00 0.2180000D+00 0.2180000D+00
EXPONENTS  0.2180000D+00 0.2180000D+00 0.2180000D+00 0.2180000D+00 0.2180000D+00
EXPONENTS  0.2180000D+00
MO    1     MO 0.0        OCC NO =    2.0000000  ORB. ENERGY =  -89.027584
  0.40236141D-04  0.74974124D-04  0.12680004D-03  0.19095383D-03  0.23641323D-03
  0.20117699D-03  0.76551556D-04 -0.35852360D-06 -0.32118501D-04 -0.60222490D-04
 -0.10245637D-03 -0.15910393D-03 -0.21114017D-03 -0.22251276D-03 -0.13797210D-03
  0.91779096D-04  0.23509380D-03 -0.81460535D-03 -0.19574609D-03 -0.55876956D-17
 -0.53669149D-17 -0.37636512D-17  0.53545650D-18  0.51429957D-18  0.36066236D-18
  0.65679183D-03  0.63084070D-03  0.44238904D-03 -0.23654647D-18 -0.35696929D-18
 -0.81672476D-03 -0.76003118D-18 -0.12673556D-17 -0.81741508D-03 -0.25056918D-19
 -0.43271857D-19 -0.32561640D-04 -0.16049931D-03 -0.16049931D-03  0.32099862D-03
  0.81858737D-21  0.18727508D-17  0.30137006D-17  0.30623061D-03  0.30623061D-03
 -0.61246122D-03 -0.97361787D-22 -0.12002927D-17 -0.19397293D-17  0.61387536D-04
  0.61387536D-04 -0.12277507D-03  0.76672780D-22 -0.26489410D-18 -0.44189189D-18
 -0.10362073D-18 -0.18985364D-18 -0.18511917D-04 -0.10407590D-18 -0.18975916D-18
  0.27767875D-04  0.41493807D-18  0.75932009D-18  0.27767875D-04 -0.90915602D-21
  0.12969374D-18  0.21070945D-18 -0.10172183D-03  0.12966729D-18  0.21060403D-18
  0.15258274D-03 -0.51874850D-18 -0.84273237D-18  0.15258274D-03  0.34283332D-22
  0.58526232D+00  0.10941139D+01  0.18909704D+01  0.30585598D+01  0.46228340D+01
  0.63664010D+01  0.74408468D+01  0.64294530D+01  0.29987198D+01  0.40716136D+00
  0.10902778D-02  0.21386744D-02  0.97639418D-04 -0.14245646D-02 -0.26604350D-02
 -0.46149361D-02 -0.74829594D-02 -0.11520868D-01 -0.16408304D-01 -0.21098948D-01
 -0.22147617D-01 -0.15659935D-01  0.34679582D-03  0.11251866D-01  0.61955826D-02
 -0.26201014D-04  0.59805697D-03  0.11160628D-02  0.19384675D-02  0.31398872D-02
  0.48502068D-02  0.69146986D-02  0.89937642D-02  0.95849283D-02  0.71089420D-02
 -0.22127497D-03 -0.64403311D-02 -0.63093016D-02  0.29468180D-02 -0.31930276D-02
  0.36551868D-03  0.75025989D-04  0.16192445D-16  0.21243606D-16  0.23300998D-16
  0.19172430D-16  0.10108084D-16  0.26296458D-17 -0.29099712D-20  0.35847297D-16
  0.47029701D-16  0.51584414D-16  0.42444473D-16  0.22377566D-16  0.58215849D-17
 -0.64421773D-20 -0.19775640D-01 -0.25944562D-01 -0.28457231D-01 -0.23415060D-01
 -0.12344883D-01 -0.32115550D-02  0.35539131D-05 -0.15212137D-16 -0.19973629D-16
 -0.22471679D-16 -0.18934089D-16 -0.10591464D-16 -0.26361937D-17  0.12090855D-17
 -0.26249409D-16 -0.34465633D-16 -0.38776161D-16 -0.32671848D-16 -0.18276174D-16
 -0.45489024D-17  0.20863458D-17  0.17936938D-01  0.23551309D-01  0.26496811D-01
  0.22325567D-01  0.12488609D-01  0.31083893D-02 -0.14256571D-02 -0.10984456D-17
 -0.24282560D-17  0.32121748D-03  0.25477312D-18  0.41862044D-18  0.38020661D-04
  0.62818508D-20  0.11737422D-19  0.22498087D-05 -0.62469563D-04 -0.62469563D-04
  0.12493913D-03 -0.96892355D-21 -0.78024576D-18 -0.12774056D-17 -0.32422541D-03
 -0.32422541D-03  0.64845081D-03  0.91616716D-20 -0.17111964D-18 -0.25693083D-18
  0.15839127D-04  0.15839127D-04 -0.31678253D-04  0.60006164D-22 -0.65338499D-19
 -0.11208337D-18 -0.13968820D-18 -0.22198422D-18 -0.19373206D-03 -0.14182311D-18
 -0.22268908D-18  0.29059809D-03  0.56088771D-18  0.88864175D-18  0.29059809D-03
 -0.10168125D-20 -0.25516283D-19 -0.42947160D-19  0.25424565D-04 -0.25302612D-19
 -0.42869460D-19 -0.38136847D-04  0.10185146D-18  0.17171094D-18 -0.38136847D-04
  0.18689964D-21
MO    2     MO 0.0        OCC NO =    2.0000000  ORB. ENERGY =  -14.596544
  0.41121141D+00  0.76623191D+00  0.12958903D+01  0.19515389D+01  0.24161318D+01
  0.20560191D+01  0.78235320D+00 -0.36640938D-02 -0.57794684D-03 -0.10836557D-02
 -0.18436208D-02 -0.28629485D-02 -0.37992992D-02 -0.40039398D-02 -0.24826981D-02
  0.16514917D-02  0.41020584D-01 -0.13363625D-02 -0.59845487D-03 -0.83592663D-17
 -0.80289753D-17 -0.56304717D-17 -0.34032878D-16 -0.32688173D-16 -0.22923203D-16
  0.68931140D-02  0.66207536D-02  0.46429294D-02  0.96024540D-18  0.42274027D-17
 -0.16175766D-04  0.14969187D-18 -0.26323119D-18 -0.11930495D-02  0.74007255D-20
 -0.40954344D-21 -0.63284750D-04 -0.19359182D-02 -0.19359182D-02  0.38718364D-02
 -0.26962997D-17 -0.32912655D-17 -0.61286524D-17  0.41798554D-03  0.41798554D-03
 -0.83597108D-03 -0.30620426D-20  0.71447406D-18  0.17129752D-17  0.79252372D-04
  0.79252372D-04 -0.15850474D-03  0.11211597D-20  0.58062461D-19 -0.17129289D-19
  0.41942103D-20 -0.32475950D-19  0.27309843D-03  0.12158216D-18  0.60133949D-18
 -0.40964764D-03 -0.13416479D-18 -0.50391164D-18 -0.40964764D-03 -0.15326153D-17
 -0.41499982D-19 -0.85114991D-19 -0.20134510D-03 -0.39120840D-19 -0.10482086D-18
  0.30201765D-03  0.16362079D-18  0.36016583D-18  0.30201765D-03 -0.29041743D-19
  0.23858273D-03  0.44601654D-03  0.77085584D-03  0.12468247D-02  0.18845026D-02
  0.25952693D-02  0.30332681D-02  0.26209725D-02  0.12224309D-02  0.16597971D-03
  0.44445276D-06  0.87183258D-06  0.39802799D-07 -0.47327983D-03 -0.88387025D-03
 -0.15332097D-02 -0.24860465D-02 -0.38275516D-02 -0.54512933D-02 -0.70096555D-02
 -0.73580524D-02 -0.52026645D-02  0.11521518D-03  0.37381817D-02  0.20583443D-02
 -0.87047031D-05  0.28429117D-03  0.53052938D-03  0.92146603D-03  0.14925705D-02
  0.23055846D-02  0.32869573D-02  0.42752578D-02  0.45562723D-02  0.33792924D-02
 -0.10518483D-03 -0.30614629D-02 -0.29991770D-02  0.14007935D-02  0.37652271D-03
  0.10772944D-02  0.33624019D-03 -0.52672529D-17 -0.69103490D-17 -0.75795996D-17
 -0.62366147D-17 -0.32880666D-17 -0.85539952D-18  0.94658678D-21 -0.10979126D-16
 -0.14404016D-16 -0.15799010D-16 -0.12999675D-16 -0.68536860D-17 -0.17830052D-17
  0.19730770D-20 -0.94112395D-02 -0.12347034D-01 -0.13542814D-01 -0.11143242D-01
 -0.58749376D-02 -0.15283811D-02  0.16913095D-05  0.46301955D-17  0.60794748D-17
  0.68398191D-17  0.57630647D-17  0.32237776D-17  0.80239169D-18 -0.36801549D-18
  0.99677140D-17  0.13087669D-16  0.14724510D-16  0.12406513D-16  0.69400295D-17
  0.17273592D-17 -0.79225017D-18  0.94234906D-02  0.12373100D-01  0.13920572D-01
  0.11729135D-01  0.65611135D-02  0.16330478D-02 -0.74899440D-03  0.25636603D-18
  0.53328152D-18 -0.11983892D-02 -0.69143455D-19  0.78730372D-19 -0.21041435D-03
 -0.76705047D-21  0.68115647D-21 -0.14097250D-04  0.67309283D-04  0.67309283D-04
 -0.13461857D-03  0.14489547D-19  0.31112190D-18  0.62024375D-18 -0.26438351D-03
 -0.26438351D-03  0.52876701D-03  0.26189306D-19  0.15794917D-18  0.67273671D-18
 -0.31638244D-05 -0.31638244D-05  0.63276488D-05 -0.13073627D-20  0.12070249D-19
 -0.56819753D-19  0.61382602D-19  0.23914911D-18  0.29124234D-03  0.60346952D-19
  0.23610790D-18 -0.43686351D-03 -0.24449476D-18 -0.95355523D-18 -0.43686351D-03
 -0.13658958D-18  0.12568988D-19  0.11624833D-19  0.21526769D-04  0.12330602D-19
  0.12874220D-19 -0.32290154D-04 -0.50037565D-19 -0.47748719D-19 -0.32290154D-04
  0.41224725D-20
MO    3     MO 0.0        OCC NO =    2.0000000  ORB. ENERGY =   -8.310023
 -0.16368775D-03 -0.30500801D-03 -0.51584501D-03 -0.77683400D-03 -0.96177089D-03
 -0.81842362D-03 -0.31142529D-03  0.14585375D-05  0.42313998D-04  0.79339141D-04
  0.13497949D-03  0.20960889D-03  0.27816319D-03  0.29314582D-03  0.18176911D-03
 -0.12091288D-03 -0.28849634D-03  0.64616837D-03  0.17520562D-03 -0.55752737D-16
 -0.53549837D-16 -0.37552842D-16 -0.67344997D-15 -0.64684064D-15 -0.45360931D-15
 -0.51710882D-03 -0.49667684D-03 -0.34830409D-03 -0.41500992D-16 -0.33968149D-16
  0.84676493D-03  0.53970062D-17 -0.74247997D-17  0.86533712D-03  0.79790675D-18
 -0.32732560D-18  0.30697408D-04  0.15341836D-03  0.15341836D-03 -0.30683672D-03
  0.41118417D-19 -0.16780031D-16  0.18912447D-16 -0.37729082D-03 -0.37729082D-03
  0.75458163D-03  0.76075478D-20  0.84215292D-17 -0.16031855D-16 -0.70924231D-04
 -0.70924231D-04  0.14184846D-03  0.53221668D-20  0.29654344D-17 -0.32612884D-17
  0.63517134D-18 -0.66826974D-19  0.58612041D-03  0.62250362D-18 -0.56766022D-19
 -0.87918062D-03 -0.25280176D-17  0.25724694D-18 -0.87918062D-03  0.16344623D-18
 -0.94867221D-18  0.15657082D-17  0.11689479D-03 -0.94540826D-18  0.15658671D-17
 -0.17534219D-03  0.37914249D-17 -0.62629918D-17 -0.17534219D-03  0.18462991D-20
 -0.21597725D-02 -0.40375693D-02 -0.69781803D-02 -0.11286893D-01 -0.17059479D-01
 -0.23493701D-01 -0.27458690D-01 -0.23726380D-01 -0.11066068D-01 -0.15025330D-02
 -0.40234131D-05 -0.78922732D-05 -0.36031524D-06 -0.15852321D+00 -0.29604884D+00
 -0.51354252D+00 -0.83269144D+00 -0.12820233D+01 -0.18258891D+01 -0.23478564D+01
 -0.24645505D+01 -0.17426119D+01  0.38590870D-01  0.12520892D+01  0.68943427D+00
 -0.29156058D-02 -0.67188702D-03 -0.12538406D-02 -0.21777710D-02 -0.35275058D-02
 -0.54489642D-02 -0.77683172D-02 -0.10104043D-01 -0.10768186D-01 -0.79865398D-02
  0.24859133D-03  0.72353890D-02  0.70881840D-02 -0.33106023D-02  0.50713185D-01
  0.97014526D-04 -0.77589015D-04 -0.43998008D-15 -0.57722990D-15 -0.63313322D-15
 -0.52095205D-15 -0.27465622D-15 -0.71452568D-16  0.79069551D-19 -0.43444516D-16
 -0.56996840D-16 -0.62516846D-16 -0.51439851D-16 -0.27120107D-16 -0.70553700D-17
  0.78074862D-20  0.25030370D-02  0.32838482D-02  0.36018809D-02  0.29636847D-02
  0.15625132D-02  0.40649208D-03 -0.44982493D-06  0.11169701D-15  0.14665886D-15
  0.16500110D-15  0.13902590D-15  0.77769142D-16  0.19356581D-16 -0.88778608D-17
 -0.19100269D-15 -0.25078770D-15 -0.28215307D-15 -0.23773529D-15 -0.13298579D-15
 -0.33099892D-16  0.15181205D-16 -0.16533022D-01 -0.21707959D-01 -0.24422917D-01
 -0.20578154D-01 -0.11511131D-01 -0.28650971D-02  0.13140716D-02  0.45444066D-17
 -0.17968745D-16  0.18298531D-03 -0.33350120D-17  0.32286726D-17 -0.11766512D-03
 -0.12041520D-18  0.17010638D-19 -0.28137939D-05  0.27586733D-04  0.27586733D-04
 -0.55173467D-04 -0.88001690D-20  0.54857691D-17 -0.10635129D-16  0.26507763D-03
  0.26507763D-03 -0.53015527D-03 -0.58551657D-18  0.42368029D-17  0.40613060D-17
 -0.20306529D-04 -0.20306529D-04  0.40613058D-04 -0.91144961D-21  0.10088343D-17
 -0.69495899D-18  0.16453585D-17 -0.26523963D-17  0.62730330D-04  0.15721944D-17
 -0.26500741D-17 -0.94095495D-04 -0.65082701D-17  0.10607263D-16 -0.94095495D-04
 -0.49674166D-18  0.14444338D-18 -0.27645911D-18 -0.29021569D-04  0.14328309D-18
 -0.28189588D-18  0.43532353D-04 -0.57661322D-18  0.11112732D-17  0.43532353D-04
  0.30208323D-19
MO    4     MO 0.0        OCC NO =    2.0000000  ORB. ENERGY =   -6.248447
  0.18489334D-16  0.34452151D-16  0.58267224D-16  0.87747211D-16  0.10863674D-15
  0.92444962D-16  0.35177013D-16 -0.16474896D-18 -0.12573898D-16 -0.23576176D-16
 -0.40110091D-16 -0.62286736D-16 -0.82658121D-16 -0.87110313D-16 -0.54013951D-16
  0.35930101D-16  0.15815930D-17 -0.14420604D-15 -0.55932766D-16 -0.19658437D-03
 -0.18881694D-03 -0.13241147D-03  0.28098321D-03  0.26988102D-03  0.18925920D-03
  0.49475326D-16  0.47520459D-16  0.33324626D-16  0.19215372D-04 -0.27465036D-04
 -0.61561131D-16  0.16033381D-03 -0.22916934D-03 -0.63352654D-16  0.44327188D-05
 -0.63358017D-05 -0.36028325D-17 -0.78555740D-16  0.47403276D-16  0.31152463D-16
 -0.95618008D-16 -0.46295174D-03  0.66170910D-03  0.11250637D-16  0.26595661D-16
 -0.37846297D-16  0.51873356D-16  0.26975313D-03 -0.38556525D-03  0.42384124D-17
 -0.24947659D-17 -0.17436465D-17 -0.89147427D-17  0.59446570D-04 -0.84968546D-04
  0.56503345D-04 -0.80761718D-04 -0.60963063D-17  0.56454334D-04 -0.80691666D-04
  0.12653220D-15 -0.22596437D-03  0.32297682D-03 -0.10824328D-15 -0.22101179D-15
 -0.35053689D-04  0.50103161D-04 -0.42670027D-17 -0.35019412D-04  0.50054166D-04
  0.13469710D-16  0.14018048D-03 -0.20036365D-03 -0.66870211D-18  0.12330965D-16
  0.19953761D-16  0.37302397D-16  0.64470188D-16  0.10427764D-15  0.15760954D-15
  0.21705420D-15  0.25368604D-15  0.21920388D-15  0.10223747D-15  0.13881640D-16
  0.37171611D-19  0.72915334D-19  0.33288896D-20 -0.36037039D-16 -0.67300705D-16
 -0.11674349D-15 -0.18929553D-15 -0.29144201D-15 -0.41507889D-15 -0.53373757D-15
 -0.56026563D-15 -0.39614750D-15  0.87728523D-17  0.28463710D-15  0.15672891D-15
 -0.66280391D-18  0.21411281D-16  0.39956618D-16  0.69399863D-16  0.11241238D-15
  0.17364423D-15  0.24755594D-15  0.32198941D-15  0.34315392D-15  0.25451013D-15
 -0.79219551D-17 -0.23057292D-15 -0.22588188D-15  0.10550023D-15 -0.33801597D-16
  0.60662779D-16  0.46647416D-16 -0.55628675D+01 -0.72981793D+01 -0.80049903D+01
 -0.65866329D+01 -0.34726031D+01 -0.90340720D+00  0.99971217D-03  0.79511529D+01
  0.10431480D+02  0.11441743D+02  0.94144477D+01  0.49634830D+01  0.12912637D+01
 -0.14289149D-02 -0.47251995D-15 -0.61992044D-15 -0.67995824D-15 -0.55948041D-15
 -0.29496914D-15 -0.76737029D-16  0.84917346D-19  0.91079990D-02  0.11958858D-01
  0.13454522D-01  0.11336452D-01  0.63414522D-02  0.15783746D-02 -0.72391862D-03
 -0.13018303D-01 -0.17093111D-01 -0.19230902D-01 -0.16203489D-01 -0.90640045D-02
 -0.22560123D-02  0.10347159D-02  0.96362076D-15  0.12652399D-14  0.14234802D-14
  0.11993897D-14  0.67092179D-15  0.16699107D-15 -0.76590150D-16 -0.44931318D-01
  0.64221515D-01  0.24845949D-16 -0.94978181D-04  0.13575481D-03 -0.39867121D-16
  0.17287871D-05 -0.24710009D-05 -0.24010106D-17 -0.16187370D-16  0.62813806D-17
  0.99059893D-17 -0.23063625D-17  0.19473660D-03 -0.27834214D-03  0.37739390D-16
 -0.70035203D-16  0.32295813D-16 -0.29477808D-17 -0.85143058D-05  0.12169721D-04
 -0.19814651D-17 -0.19666244D-17  0.39480895D-17 -0.61871030D-18  0.91643107D-05
 -0.13098790D-04  0.71179782D-04 -0.10173913D-03 -0.30609560D-17  0.71711096D-04
 -0.10249856D-03  0.65272051D-16 -0.28525044D-03  0.40771596D-03 -0.56089183D-16
  0.34784372D-18  0.20095292D-05 -0.28722729D-05 -0.12247921D-17  0.19824149D-05
 -0.28335178D-05  0.41185820D-17 -0.80110024D-05  0.11450337D-04 -0.44420582D-18
  0.37761003D-17
MO    5     MO 0.0        OCC NO =    2.0000000  ORB. ENERGY =   -6.248447
 -0.17832569D-15 -0.33228367D-15 -0.56197500D-15 -0.84630320D-15 -0.10477783D-14
 -0.89161202D-15 -0.33927482D-15  0.15889687D-17  0.11350054D-15  0.21281457D-15
  0.36206090D-15  0.56224234D-15  0.74612829D-15  0.78631680D-15  0.48756658D-15
 -0.32432947D-15  0.12767688D-15  0.25233071D-15  0.25360618D-15  0.28098321D-03
  0.26988102D-03  0.18925920D-03  0.19658437D-03  0.18881694D-03  0.13241147D-03
  0.11612215D-16  0.11153394D-16  0.78215298D-17 -0.27465036D-04 -0.19215372D-04
 -0.22030959D-15 -0.22916934D-03 -0.16033381D-03  0.13726362D-15 -0.63358017D-05
 -0.44327188D-05  0.24842484D-16 -0.10850286D-15  0.21121513D-15 -0.10271227D-15
 -0.25464564D-15  0.66170910D-03  0.46295174D-03  0.37595551D-16 -0.65790602D-16
  0.28195051D-16  0.10313829D-15 -0.38556525D-03 -0.26975313D-03 -0.11684160D-16
 -0.10873436D-16  0.22557596D-16 -0.15829974D-16 -0.84968546D-04 -0.59446570D-04
 -0.80761718D-04 -0.56503345D-04 -0.17337627D-16 -0.80691666D-04 -0.56454334D-04
  0.52855539D-16  0.32297682D-03  0.22596437D-03 -0.84265615D-18 -0.82658917D-17
  0.50103161D-04  0.35053689D-04  0.10402676D-16  0.50054166D-04  0.35019412D-04
 -0.15514138D-16 -0.20036365D-03 -0.14018048D-03 -0.15693892D-16  0.11702945D-17
  0.37469995D-16  0.70047978D-16  0.12106478D-15  0.19581684D-15  0.29596569D-15
  0.40759332D-15  0.47638210D-15  0.41163007D-15  0.19198573D-15  0.26067515D-16
  0.69802382D-19  0.13692342D-18  0.62511260D-20 -0.51284807D-16 -0.95776562D-16
 -0.16613927D-15 -0.26938908D-15 -0.41475515D-15 -0.59070450D-15 -0.75956930D-15
 -0.79732174D-15 -0.56376297D-15  0.12484767D-16  0.40507098D-15  0.22304308D-15
 -0.94324539D-18  0.21725280D-16  0.40542586D-16  0.70417619D-16  0.11406092D-15
  0.17619074D-15  0.25118637D-15  0.32671142D-15  0.34818630D-15  0.25824254D-15
 -0.80381313D-17 -0.23395429D-15 -0.22919445D-15  0.10704740D-15 -0.15465772D-15
 -0.24075593D-15 -0.18478137D-15  0.79511529D+01  0.10431480D+02  0.11441743D+02
  0.94144477D+01  0.49634830D+01  0.12912637D+01 -0.14289149D-02  0.55628675D+01
  0.72981793D+01  0.80049903D+01  0.65866329D+01  0.34726031D+01  0.90340720D+00
 -0.99971217D-03 -0.15456170D-12 -0.20277653D-12 -0.22241495D-12 -0.18300654D-12
 -0.96484668D-13 -0.25100750D-13  0.27776539D-16 -0.13018303D-01 -0.17093111D-01
 -0.19230902D-01 -0.16203489D-01 -0.90640045D-02 -0.22560123D-02  0.10347159D-02
 -0.91079990D-02 -0.11958858D-01 -0.13454522D-01 -0.11336452D-01 -0.63414522D-02
 -0.15783746D-02  0.72391862D-03  0.14843223D-14  0.19489243D-14  0.21926712D-14
  0.18474913D-14  0.10334607D-14  0.25722627D-15 -0.11797636D-15  0.64221515D-01
  0.44931318D-01 -0.11533774D-14  0.13575481D-03  0.94978181D-04  0.11883131D-15
 -0.24710009D-05 -0.17287871D-05  0.78006727D-17 -0.17267088D-16 -0.12346219D-16
  0.29613307D-16 -0.39068266D-17 -0.27834214D-03 -0.19473660D-03 -0.21813963D-16
 -0.33108479D-16  0.54922441D-16  0.18317623D-17  0.12169721D-04  0.85143058D-05
  0.57959660D-17  0.45403574D-17 -0.10336323D-16  0.10702353D-17 -0.13098790D-04
 -0.91643107D-05 -0.10173913D-03 -0.71179782D-04 -0.36258939D-16 -0.10249856D-03
 -0.71711096D-04  0.61805425D-16  0.40771596D-03  0.28525044D-03  0.46971391D-16
  0.74054321D-18 -0.28722729D-05 -0.20095292D-05 -0.49880348D-17 -0.28335178D-05
 -0.19824149D-05  0.74085605D-17  0.11450337D-04  0.80110024D-05  0.75555440D-17
 -0.10588749D-18
MO    6     MO 0.0        OCC NO =    2.0000000  ORB. ENERGY =   -6.245038
  0.34644761D-03  0.64555411D-03  0.10917938D-02  0.16441810D-02  0.20356028D-02
  0.17322061D-02  0.65913638D-03 -0.30870168D-05 -0.18061750D-05 -0.33865950D-05
 -0.57616057D-05 -0.89471653D-05 -0.11873409D-04 -0.12512943D-04 -0.77588229D-05
  0.51611720D-05 -0.14832671D-03  0.28657712D-02  0.87217293D-03  0.33442186D-15
  0.32120820D-15  0.22525336D-15  0.46160711D-15  0.44336811D-15  0.31092032D-15
 -0.16492164D-02 -0.15840526D-02 -0.11108470D-02 -0.16557434D-15 -0.25441892D-16
  0.10597046D-02  0.10174281D-17  0.10590608D-16  0.11636427D-02  0.99737463D-18
 -0.26742505D-18  0.85634091D-04  0.11030741D-03  0.11030741D-03 -0.22061483D-03
 -0.20045922D-18 -0.30004734D-16 -0.28295771D-16 -0.10620242D-03 -0.10620242D-03
  0.21240484D-03 -0.62219961D-20  0.24715534D-16  0.26168408D-16 -0.35143443D-04
 -0.35143443D-04  0.70286886D-04 -0.22083172D-20  0.34852115D-17  0.42434664D-17
 -0.16094422D-17 -0.11884856D-17 -0.14464976D-02 -0.14745549D-17 -0.12802401D-17
  0.21697464D-02  0.63028816D-17  0.48456970D-17  0.21697464D-02 -0.84279076D-18
 -0.16107671D-17 -0.23735630D-17  0.19577444D-05 -0.15964920D-17 -0.23626356D-17
 -0.29366166D-05  0.64287934D-17  0.94833247D-17 -0.29366166D-05  0.40459797D-19
 -0.17177693D-03 -0.32112700D-03 -0.55500771D-03 -0.89770007D-03 -0.13568211D-02
 -0.18685653D-02 -0.21839196D-02 -0.18870713D-02 -0.88013678D-03 -0.11950356D-03
 -0.32000109D-06 -0.62770985D-06 -0.28657577D-07  0.42385036D-04  0.79155860D-04
  0.13730809D-03  0.22264031D-03  0.34278011D-03  0.48819587D-03  0.62775652D-03
  0.65895754D-03  0.46592968D-03 -0.10318208D-04 -0.33477650D-03 -0.18433702D-03
  0.77955815D-06 -0.12234193D-03 -0.22830814D-03 -0.39654390D-03 -0.64231314D-03
 -0.99218583D-03 -0.14145100D-02 -0.18398154D-02 -0.19607473D-02 -0.14542455D-02
  0.45265262D-04  0.13174707D-02  0.12906665D-02 -0.60281782D-03  0.13205862D-02
 -0.23367007D-02 -0.58949506D-03  0.12548985D-12  0.16463585D-12  0.18058044D-12
  0.14858444D-12  0.78336658D-13  0.20379496D-13 -0.22551990D-16  0.87028207D-13
  0.11417627D-12  0.12523396D-12  0.10304449D-12  0.54327093D-13  0.14133342D-13
 -0.15639984D-16  0.97260969D+01  0.12760110D+02  0.13995895D+02  0.11516044D+02
  0.60714864D+01  0.15795138D+01 -0.17478930D-02  0.15081368D-15  0.19801928D-15
  0.22278504D-15  0.18771324D-15  0.10500416D-15  0.26135321D-16 -0.11986917D-16
  0.22986188D-15  0.30181004D-15  0.33955665D-15  0.28610215D-15  0.16004153D-15
  0.39834011D-16 -0.18269797D-16 -0.38357611D-01 -0.50363777D-01 -0.56662645D-01
 -0.47742562D-01 -0.26706520D-01 -0.66471984D-02  0.30487255D-02  0.10493976D-14
  0.74207025D-15  0.77160318D-01 -0.18597166D-17 -0.31967670D-17  0.82697058D-03
 -0.42697467D-19  0.50505829D-19  0.17677344D-04  0.30368795D-03  0.30368795D-03
 -0.60737589D-03 -0.85008516D-20  0.14113002D-16  0.16115068D-16  0.30583530D-03
  0.30583530D-03 -0.61167060D-03 -0.93470268D-18  0.12872322D-17  0.57039688D-17
  0.21400760D-04  0.21400760D-04 -0.42801520D-04  0.27284421D-20  0.30428446D-18
  0.56334194D-18  0.36979313D-17  0.23913863D-17  0.53335958D-03  0.39117218D-17
  0.24380800D-17 -0.80003938D-03 -0.15005516D-16 -0.96122390D-17 -0.80003938D-03
  0.15397997D-18  0.38263816D-18  0.61293073D-18  0.19206465D-04  0.36383793D-18
  0.60962145D-18 -0.28809697D-04 -0.15117524D-17 -0.24484136D-17 -0.28809697D-04
 -0.23842871D-19
MO    7     MO 0.0        OCC NO =    2.0000000  ORB. ENERGY =   -1.282537
 -0.66475317D-02 -0.12386697D-01 -0.20949009D-01 -0.31548047D-01 -0.39058529D-01
 -0.33237045D-01 -0.12647309D-01  0.59232743D-04 -0.60719754D-01 -0.11385011D+00
 -0.19369291D+00 -0.30078463D+00 -0.39915870D+00 -0.42065848D+00 -0.26083509D+00
  0.17350760D+00  0.89450319D-01  0.33171851D-01  0.42576233D-03  0.26385403D-15
  0.25342864D-15  0.17772165D-15  0.45993590D-15  0.44176294D-15  0.30979467D-15
  0.37288522D+00  0.35815180D+00  0.25116076D+00  0.62584376D-16  0.54396926D-16
  0.89477375D-01 -0.26244568D-16  0.12223821D-16  0.51742843D-02 -0.58974219D-18
 -0.74378586D-18 -0.10035895D-03 -0.22234258D-01 -0.22234258D-01  0.44468517D-01
  0.57828782D-16 -0.27380344D-18 -0.46448693D-16 -0.42712321D-02 -0.42712321D-02
  0.85424642D-02  0.19155091D-17  0.58984442D-17 -0.11279245D-17 -0.44237300D-04
 -0.44237300D-04  0.88474601D-04 -0.13372300D-17 -0.91699673D-17  0.30818724D-17
 -0.29899430D-18  0.46824542D-18  0.94147108D-02 -0.76708116D-17  0.70236584D-17
 -0.14122066D-01  0.85677945D-17 -0.84283947D-17 -0.14122066D-01  0.16105328D-16
  0.54074690D-18 -0.58498447D-18  0.59784467D-03 -0.72282512D-20 -0.30361956D-17
 -0.89676701D-03 -0.16150125D-17  0.47911490D-17 -0.89676701D-03  0.47975070D-17
 -0.20871531D-03 -0.39018115D-03 -0.67435485D-03 -0.10907387D-02 -0.16485877D-02
 -0.22703758D-02 -0.26535429D-02 -0.22928612D-02 -0.10693987D-02 -0.14520123D-03
 -0.38881313D-06 -0.76269063D-06 -0.34820013D-07  0.28233148D-02  0.52726607D-02
  0.91462457D-02  0.14830321D-01  0.22832968D-01  0.32519275D-01  0.41815566D-01
  0.43893901D-01  0.31036099D-01 -0.68730740D-03 -0.22299838D-01 -0.12278896D-01
  0.51927243D-04  0.27853668D-01  0.51979065D-01  0.90281414D-01  0.14623586D+00
  0.22589161D+00  0.32204242D+00  0.41887200D+00  0.44640464D+00  0.33108904D+00
 -0.10305572D-01 -0.29994942D+00 -0.29384690D+00  0.13724393D+00  0.28916225D-01
  0.14047276D-01 -0.12617641D-02  0.14365907D-16  0.18847288D-16  0.20672602D-16
  0.17009745D-16  0.89678739D-17  0.23330169D-17 -0.25817211D-20 -0.64235900D-16
 -0.84274003D-16 -0.92435736D-16 -0.76057588D-16 -0.40099065D-16 -0.10431881D-16
  0.11543940D-19  0.47178805D+00  0.61896023D+00  0.67890503D+00  0.55861382D+00
  0.29451225D+00  0.76618168D-01 -0.84785814D-04  0.71150475D-16  0.93421007D-16
  0.10510493D-15  0.88558852D-16  0.49538580D-16  0.12330052D-16 -0.56551558D-17
  0.15724633D-15  0.20646539D-15  0.23228748D-15  0.19571977D-15  0.10948289D-15
  0.27250069D-16 -0.12498195D-16  0.53098973D+00  0.69719275D+00  0.78438886D+00
  0.66090692D+00  0.36970206D+00  0.92018091D-01 -0.42203930D-01 -0.81127379D-17
 -0.81545380D-17 -0.92970804D-01  0.12373804D-16 -0.69208968D-17  0.12301607D-02
 -0.29509115D-18  0.25801771D-18  0.48546017D-04 -0.12773292D-02 -0.12773292D-02
  0.25546584D-02 -0.49174802D-18 -0.15820953D-17  0.72508953D-17 -0.25072847D-01
 -0.25072847D-01  0.50145694D-01  0.36872804D-17  0.11233649D-16  0.21013975D-16
  0.12105609D-03  0.12105609D-03 -0.24211218D-03 -0.20509618D-19 -0.36241995D-17
  0.12172813D-17  0.94158847D-18  0.18187070D-18 -0.47562963D-02 -0.25482188D-17
  0.18490399D-17  0.71344444D-02 -0.27654664D-18 -0.23946520D-17  0.71344444D-02
 -0.12751528D-16 -0.35835187D-18  0.40786710D-18  0.20620173D-03  0.86184397D-18
  0.96837930D-19 -0.30930260D-03  0.21321165D-18 -0.13204392D-17 -0.30930260D-03
  0.15471646D-17
MO    8     MO 0.0        OCC NO =    2.0000000  ORB. ENERGY =   -0.896097
  0.64361599D-03  0.11992836D-02  0.20282893D-02  0.30544912D-02  0.37816583D-02
  0.32180205D-02  0.12245162D-02 -0.57349317D-05  0.51262862D-01  0.96118345D-01
  0.16352590D+00  0.25393846D+00  0.33699111D+00  0.35514237D+00  0.22021093D+00
 -0.14648439D+00 -0.81325216D-01 -0.51379895D-01  0.44551420D-03  0.17378100D-14
  0.16691457D-14  0.11705202D-14  0.10080048D-14  0.96817659D-15  0.67895225D-15
  0.76643044D-01  0.73614727D-01  0.51623728D-01  0.33221291D-15  0.25177605D-15
  0.16887580D-01  0.46875279D-16  0.18484208D-16  0.23512782D-02 -0.33765241D-17
 -0.28700663D-17  0.19231478D-03 -0.22217342D-02 -0.22217342D-02  0.44434683D-02