 Molden2AIM, Version 4.0.0 (06/02/2016)           Time: Fri Jun 29 23:07:21 2018
GAUSSIAN             15 MOL ORBITALS    262 PRIMITIVES        2 NUCLEI
  P    1    (CENTRE  1)   0.00000000  0.00000000  1.77727230  CHARGE = 15.0
  P    2    (CENTRE  2)   0.00000000  0.00000000 -1.77727230  CHARGE = 15.0
CENTRE ASSIGNMENTS    1  1  1  1  1  1  1  1  1  1  1  1  1  1  1  1  1  1  1  1
CENTRE ASSIGNMENTS    1  1  1  1  1  1  1  1  1  1  1  1  1  1  1  1  1  1  1  1
CENTRE ASSIGNMENTS    1  1  1  1  1  1  1  1  1  1  1  1  1  1  1  1  1  1  1  1
CENTRE ASSIGNMENTS    1  1  1  1  1  1  1  1  1  1  1  1  1  1  1  1  1  1  1  1
CENTRE ASSIGNMENTS    1  1  1  1  1  1  1  1  1  1  1  1  1  1  1  1  1  1  1  1
CENTRE ASSIGNMENTS    1  1  1  1  1  1  1  1  1  1  1  1  1  1  1  1  1  1  1  1
CENTRE ASSIGNMENTS    1  1  1  1  1  1  1  1  1  1  1  2  2  2  2  2  2  2  2  2
CENTRE ASSIGNMENTS    2  2  2  2  2  2  2  2  2  2  2  2  2  2  2  2  2  2  2  2
CENTRE ASSIGNMENTS    2  2  2  2  2  2  2  2  2  2  2  2  2  2  2  2  2  2  2  2
CENTRE ASSIGNMENTS    2  2  2  2  2  2  2  2  2  2  2  2  2  2  2  2  2  2  2  2
CENTRE ASSIGNMENTS    2  2  2  2  2  2  2  2  2  2  2  2  2  2  2  2  2  2  2  2
CENTRE ASSIGNMENTS    2  2  2  2  2  2  2  2  2  2  2  2  2  2  2  2  2  2  2  2
CENTRE ASSIGNMENTS    2  2  2  2  2  2  2  2  2  2  2  2  2  2  2  2  2  2  2  2
CENTRE ASSIGNMENTS    2  2
TYPE ASSIGNMENTS      1  1  1  1  1  1  1  1  1  1  1  1  1  1  1  1  1  1  1  1
TYPE ASSIGNMENTS      1  1  1  1  1  1  1  1  1  1  1  1  1  1  1  1  1  1  1  1
TYPE ASSIGNMENTS      1  1  2  2  2  2  2  2  2  3  3  3  3  3  3  3  4  4  4  4
TYPE ASSIGNMENTS      4  4  4  2  2  2  2  2  2  2  3  3  3  3  3  3  3  4  4  4
TYPE ASSIGNMENTS      4  4  4  4  2  3  4  2  3  4  2  3  4  5  6  7  8  9 10  5
TYPE ASSIGNMENTS      6  7  8  9 10  5  6  7  8  9 10 11 12 13 17 14 15 18 19 16
TYPE ASSIGNMENTS     20 11 12 13 17 14 15 18 19 16 20  1  1  1  1  1  1  1  1  1
TYPE ASSIGNMENTS      1  1  1  1  1  1  1  1  1  1  1  1  1  1  1  1  1  1  1  1
TYPE ASSIGNMENTS      1  1  1  1  1  1  1  1  1  1  1  1  1  2  2  2  2  2  2  2
TYPE ASSIGNMENTS      3  3  3  3  3  3  3  4  4  4  4  4  4  4  2  2  2  2  2  2
TYPE ASSIGNMENTS      2  3  3  3  3  3  3  3  4  4  4  4  4  4  4  2  3  4  2  3
TYPE ASSIGNMENTS      4  2  3  4  5  6  7  8  9 10  5  6  7  8  9 10  5  6  7  8
TYPE ASSIGNMENTS      9 10 11 12 13 17 14 15 18 19 16 20 11 12 13 17 14 15 18 19
TYPE ASSIGNMENTS     16 20
EXPONENTS  0.3124000D+06 0.4680000D+05 0.1065000D+05 0.3018000D+04 0.9868000D+03
EXPONENTS  0.3574000D+03 0.1396000D+03 0.5763000D+02 0.2460000D+02 0.1012000D+02
EXPONENTS  0.4283000D+01 0.1805000D+01 0.2782000D+00 0.3124000D+06 0.4680000D+05
EXPONENTS  0.1065000D+05 0.3018000D+04 0.9868000D+03 0.3574000D+03 0.1396000D+03
EXPONENTS  0.5763000D+02 0.2460000D+02 0.1012000D+02 0.4283000D+01 0.1805000D+01
EXPONENTS  0.2782000D+00 0.3124000D+06 0.4680000D+05 0.1065000D+05 0.3018000D+04
EXPONENTS  0.9868000D+03 0.3574000D+03 0.1396000D+03 0.5763000D+02 0.2460000D+02
EXPONENTS  0.1012000D+02 0.4283000D+01 0.1805000D+01 0.2782000D+00 0.6158000D+00
EXPONENTS  0.1055000D+00 0.4090000D-01 0.5049000D+03 0.1194000D+03 0.3796000D+02
EXPONENTS  0.1395000D+02 0.5457000D+01 0.2177000D+01 0.2877000D+00 0.5049000D+03
EXPONENTS  0.1194000D+03 0.3796000D+02 0.1395000D+02 0.5457000D+01 0.2177000D+01
EXPONENTS  0.2877000D+00 0.5049000D+03 0.1194000D+03 0.3796000D+02 0.1395000D+02
EXPONENTS  0.5457000D+01 0.2177000D+01 0.2877000D+00 0.5049000D+03 0.1194000D+03
EXPONENTS  0.3796000D+02 0.1395000D+02 0.5457000D+01 0.2177000D+01 0.2877000D+00
EXPONENTS  0.5049000D+03 0.1194000D+03 0.3796000D+02 0.1395000D+02 0.5457000D+01
EXPONENTS  0.2177000D+01 0.2877000D+00 0.5049000D+03 0.1194000D+03 0.3796000D+02
EXPONENTS  0.1395000D+02 0.5457000D+01 0.2177000D+01 0.2877000D+00 0.8010000D+00
EXPONENTS  0.8010000D+00 0.8010000D+00 0.9714000D-01 0.9714000D-01 0.9714000D-01
EXPONENTS  0.3070000D-01 0.3070000D-01 0.3070000D-01 0.2160000D+00 0.2160000D+00
EXPONENTS  0.2160000D+00 0.2160000D+00 0.2160000D+00 0.2160000D+00 0.6520000D+00
EXPONENTS  0.6520000D+00 0.6520000D+00 0.6520000D+00 0.6520000D+00 0.6520000D+00
EXPONENTS  0.7750000D-01 0.7750000D-01 0.7750000D-01 0.7750000D-01 0.7750000D-01
EXPONENTS  0.7750000D-01 0.4520000D+00 0.4520000D+00 0.4520000D+00 0.4520000D+00
EXPONENTS  0.4520000D+00 0.4520000D+00 0.4520000D+00 0.4520000D+00 0.4520000D+00
EXPONENTS  0.4520000D+00 0.1650000D+00 0.1650000D+00 0.1650000D+00 0.1650000D+00
EXPONENTS  0.1650000D+00 0.1650000D+00 0.1650000D+00 0.1650000D+00 0.1650000D+00
EXPONENTS  0.1650000D+00 0.3124000D+06 0.4680000D+05 0.1065000D+05 0.3018000D+04
EXPONENTS  0.9868000D+03 0.3574000D+03 0.1396000D+03 0.5763000D+02 0.2460000D+02
EXPONENTS  0.1012000D+02 0.4283000D+01 0.1805000D+01 0.2782000D+00 0.3124000D+06
EXPONENTS  0.4680000D+05 0.1065000D+05 0.3018000D+04 0.9868000D+03 0.3574000D+03
EXPONENTS  0.1396000D+03 0.5763000D+02 0.2460000D+02 0.1012000D+02 0.4283000D+01
EXPONENTS  0.1805000D+01 0.2782000D+00 0.3124000D+06 0.4680000D+05 0.1065000D+05
EXPONENTS  0.3018000D+04 0.9868000D+03 0.3574000D+03 0.1396000D+03 0.5763000D+02
EXPONENTS  0.2460000D+02 0.1012000D+02 0.4283000D+01 0.1805000D+01 0.2782000D+00
EXPONENTS  0.6158000D+00 0.1055000D+00 0.4090000D-01 0.5049000D+03 0.1194000D+03
EXPONENTS  0.3796000D+02 0.1395000D+02 0.5457000D+01 0.2177000D+01 0.2877000D+00
EXPONENTS  0.5049000D+03 0.1194000D+03 0.3796000D+02 0.1395000D+02 0.5457000D+01
EXPONENTS  0.2177000D+01 0.2877000D+00 0.5049000D+03 0.1194000D+03 0.3796000D+02
EXPONENTS  0.1395000D+02 0.5457000D+01 0.2177000D+01 0.2877000D+00 0.5049000D+03
EXPONENTS  0.1194000D+03 0.3796000D+02 0.1395000D+02 0.5457000D+01 0.2177000D+01
EXPONENTS  0.2877000D+00 0.5049000D+03 0.1194000D+03 0.3796000D+02 0.1395000D+02
EXPONENTS  0.5457000D+01 0.2177000D+01 0.2877000D+00 0.5049000D+03 0.1194000D+03
EXPONENTS  0.3796000D+02 0.1395000D+02 0.5457000D+01 0.2177000D+01 0.2877000D+00
EXPONENTS  0.8010000D+00 0.8010000D+00 0.8010000D+00 0.9714000D-01 0.9714000D-01
EXPONENTS  0.9714000D-01 0.3070000D-01 0.3070000D-01 0.3070000D-01 0.2160000D+00
EXPONENTS  0.2160000D+00 0.2160000D+00 0.2160000D+00 0.2160000D+00 0.2160000D+00
EXPONENTS  0.6520000D+00 0.6520000D+00 0.6520000D+00 0.6520000D+00 0.6520000D+00
EXPONENTS  0.6520000D+00 0.7750000D-01 0.7750000D-01 0.7750000D-01 0.7750000D-01
EXPONENTS  0.7750000D-01 0.7750000D-01 0.4520000D+00 0.4520000D+00 0.4520000D+00
EXPONENTS  0.4520000D+00 0.4520000D+00 0.4520000D+00 0.4520000D+00 0.4520000D+00
EXPONENTS  0.4520000D+00 0.4520000D+00 0.1650000D+00 0.1650000D+00 0.1650000D+00
EXPONENTS  0.1650000D+00 0.1650000D+00 0.1650000D+00 0.1650000D+00 0.1650000D+00
EXPONENTS  0.1650000D+00 0.1650000D+00
MO    1     MO 0.0        OCC NO =    2.0000000  ORB. ENERGY =  -76.787971
  0.38468901D+00  0.71974733D+00  0.12427911D+01  0.20099106D+01  0.30335517D+01
  0.41560597D+01  0.48028674D+01  0.40362101D+01  0.17728803D+01  0.20263730D+00
 -0.27310733D-02  0.16986513D-02  0.83556622D-04 -0.87471903D-03 -0.16360703D-02
 -0.28327674D-02 -0.45997520D-02 -0.70641443D-02 -0.10046835D-01 -0.12782984D-01
 -0.13247671D-01 -0.88404887D-02  0.87067542D-03  0.66505415D-02  0.34147809D-02
 -0.14978804D-04  0.34912999D-03  0.65242657D-03  0.11313308D-02  0.18345739D-02
  0.28277996D-02  0.40238043D-02  0.51814427D-02  0.54470017D-02  0.38185152D-02
 -0.44336378D-03 -0.35893116D-02 -0.33780299D-02  0.16473275D-02 -0.22185618D-02
 -0.84055529D-03 -0.59146035D-04  0.33646750D-16  0.44016370D-16  0.48155451D-16
  0.39666740D-16  0.21208901D-16  0.58602250D-17 -0.48033632D-20 -0.82061986D-17
 -0.10735274D-16 -0.11744766D-16 -0.96744305D-17 -0.51726973D-17 -0.14292664D-17
  0.11715055D-20 -0.73554641D-02 -0.96223508D-02 -0.10527189D-01 -0.86714848D-02
 -0.46364451D-02 -0.12810948D-02  0.10500558D-05 -0.26257535D-17 -0.34775642D-17
 -0.38417743D-17 -0.32904914D-17 -0.17950876D-17 -0.55176286D-18  0.24021823D-18
  0.34034964D-17  0.45076118D-17  0.49797001D-17  0.42651283D-17  0.23267889D-17
  0.71519390D-18 -0.31137038D-18  0.61505258D-02  0.81457946D-02  0.89989148D-02
  0.77075980D-02  0.42047864D-02  0.12924411D-02 -0.56268359D-03 -0.77684098D-18
  0.79616936D-18  0.47662481D-03  0.19238201D-19  0.45943775D-20  0.23664008D-03
  0.59883143D-21 -0.23487772D-20  0.29954525D-05 -0.35658655D-04 -0.35658655D-04
  0.71317310D-04 -0.28074216D-20 -0.12867149D-18  0.62158638D-19 -0.10797962D-03
 -0.10797962D-03  0.21595924D-03  0.13236075D-19  0.10730160D-18 -0.61051202D-19
  0.75661161D-05  0.75661161D-05 -0.15132232D-04  0.50930703D-21 -0.22301716D-20
  0.15629347D-20 -0.17695206D-19  0.11471931D-19 -0.77734457D-04 -0.17776075D-19
  0.11316393D-19  0.11660169D-03  0.70861692D-19 -0.45732185D-19  0.11660169D-03
 -0.44062601D-20 -0.47567162D-20  0.48307694D-22 -0.34962741D-05 -0.47338461D-20
  0.10332943D-21  0.52444111D-05  0.19003995D-19 -0.24825251D-21  0.52444111D-05
  0.49724716D-21 -0.38468869D+00 -0.71974673D+00 -0.12427900D+01 -0.20099090D+01
 -0.30335492D+01 -0.41560562D+01 -0.48028634D+01 -0.40362068D+01 -0.17728789D+01
 -0.20263713D+00  0.27310710D-02 -0.16986498D-02 -0.83556552D-04  0.87471831D-03
  0.16360690D-02  0.28327651D-02  0.45997483D-02  0.70641385D-02  0.10046827D-01
  0.12782973D-01  0.13247660D-01  0.88404815D-02 -0.87067471D-03 -0.66505361D-02
 -0.34147782D-02  0.14978791D-04 -0.34912970D-03 -0.65242603D-03 -0.11313299D-02
 -0.18345724D-02 -0.28277972D-02 -0.40238010D-02 -0.51814385D-02 -0.54469972D-02
 -0.38185120D-02  0.44336342D-03  0.35893086D-02  0.33780271D-02 -0.16473261D-02
  0.22185603D-02  0.84055517D-03  0.59146010D-04 -0.11140247D-16 -0.14573569D-16
 -0.15943995D-16 -0.13133431D-16 -0.70221461D-17 -0.19402871D-17  0.15903662D-20
 -0.32834704D-16 -0.42954059D-16 -0.46993245D-16 -0.38709404D-16 -0.20697035D-16
 -0.57187917D-17  0.46874366D-20 -0.73554601D-02 -0.96223455D-02 -0.10527183D-01
 -0.86714801D-02 -0.46364425D-02 -0.12810941D-02  0.10500553D-05  0.33532351D-17
  0.44410454D-17  0.49061622D-17  0.42021429D-17  0.22924280D-17  0.70463225D-18
 -0.30677221D-18  0.36232218D-17  0.47986175D-17  0.53011833D-17  0.45404797D-17
  0.24770035D-17  0.76136592D-18 -0.33147206D-18  0.61505223D-02  0.81457900D-02
  0.89989098D-02  0.77075937D-02  0.42047840D-02  0.12924404D-02 -0.56268328D-03
  0.86106271D-18  0.21660646D-17  0.47662472D-03 -0.10352463D-19  0.60638579D-19
  0.23663991D-03 -0.11733452D-20 -0.15087091D-20  0.29954441D-05  0.35658705D-04
  0.35658705D-04 -0.71317409D-04 -0.30724881D-20 -0.12737658D-18  0.68185716D-19
  0.10797953D-03  0.10797953D-03 -0.21595907D-03  0.10936020D-19  0.92715806D-19
 -0.63915837D-19 -0.75661042D-05 -0.75661042D-05  0.15132208D-04  0.41174334D-21
 -0.12102071D-20  0.51229628D-20  0.19566919D-19  0.45019808D-21 -0.77734458D-04
  0.20270098D-19  0.50267104D-21  0.11660169D-03 -0.78970856D-19 -0.18532653D-20
  0.11660169D-03  0.48256365D-20  0.34330315D-20 -0.55322271D-20 -0.34962945D-05
  0.33528213D-20 -0.55659609D-20  0.52444417D-05 -0.13651916D-19  0.22162642D-19
  0.52444417D-05 -0.73403285D-21
MO    2     MO 0.0        OCC NO =    2.0000000  ORB. ENERGY =  -76.787965
  0.38467038D+00  0.71971246D+00  0.12427309D+01  0.20098133D+01  0.30334047D+01
  0.41558584D+01  0.48026347D+01  0.40360146D+01  0.17727944D+01  0.20262748D+00
 -0.27309410D-02  0.16985690D-02  0.83552574D-04 -0.85107594D-03 -0.15918484D-02
 -0.27561995D-02 -0.44754237D-02 -0.68732050D-02 -0.97752754D-02 -0.12437468D-01
 -0.12889595D-01 -0.86015360D-02  0.84714163D-03  0.64707817D-02  0.33224816D-02
 -0.14573936D-04  0.34343008D-03  0.64177502D-03  0.11128606D-02  0.18046226D-02
  0.27816328D-02  0.39581115D-02  0.50968503D-02  0.53580737D-02  0.37561739D-02
 -0.43612541D-03 -0.35307123D-02 -0.33228800D-02  0.16204331D-02 -0.18642650D-02
 -0.13867566D-03 -0.30219248D-04  0.31789434D-16  0.41586647D-16  0.45497249D-16
  0.37477118D-16  0.20038160D-16  0.55367380D-17 -0.45382154D-20 -0.99035631D-17
 -0.12955751D-16 -0.14174045D-16 -0.11675483D-16 -0.62426144D-17 -0.17248949D-17
  0.14138189D-20 -0.48195247D-02 -0.63048582D-02 -0.68977358D-02 -0.56818217D-02
 -0.30379404D-02 -0.83941242D-03  0.68802865D-06 -0.12454244D-17 -0.16494479D-17
 -0.18221968D-17 -0.15607171D-17 -0.85143026D-18 -0.26170734D-18  0.11393821D-18
  0.47762431D-17  0.63256861D-17  0.69881838D-17  0.59854008D-17  0.32652626D-17
  0.10036561D-17 -0.43695673D-18  0.40921374D-02  0.54196522D-02  0.59872598D-02
  0.51281063D-02  0.27975760D-02  0.85990152D-03 -0.37437101D-03 -0.56751755D-18
  0.95420882D-18  0.10706548D-03 -0.28737756D-19 -0.11641908D-19  0.20720672D-03
  0.10331255D-20 -0.91214437D-21  0.99570267D-05  0.59282642D-04  0.59282642D-04
 -0.11856528D-03 -0.36906506D-20  0.42098940D-19  0.18971593D-18 -0.10211902D-03
 -0.10211902D-03  0.20423803D-03  0.12797660D-19 -0.42893924D-19 -0.10118987D-18
  0.14292162D-04  0.14292162D-04 -0.28584324D-04  0.75895665D-21  0.25389362D-20
  0.19385121D-21  0.22372231D-20  0.29844289D-19  0.56535646D-06  0.22491377D-20
  0.29914636D-19 -0.84803469D-06 -0.89608070D-20 -0.11944750D-18 -0.84803469D-06
  0.41339151D-22  0.32887684D-20  0.46903416D-20  0.24302306D-04  0.32824841D-20
  0.47236516D-20 -0.36453459D-04 -0.13148789D-19 -0.18794677D-19 -0.36453459D-04
  0.12248790D-21  0.38467070D+00  0.71971306D+00  0.12427319D+01  0.20098150D+01
  0.30334073D+01  0.41558618D+01  0.48026388D+01  0.40360180D+01  0.17727959D+01
  0.20262765D+00 -0.27309433D-02  0.16985704D-02  0.83552644D-04 -0.85107667D-03
 -0.15918498D-02 -0.27562019D-02 -0.44754276D-02 -0.68732110D-02 -0.97752838D-02
 -0.12437479D-01 -0.12889606D-01 -0.86015434D-02  0.84714236D-03  0.64707872D-02
  0.33224845D-02 -0.14573949D-04  0.34343037D-03  0.64177557D-03  0.11128616D-02
  0.18046241D-02  0.27816351D-02  0.39581148D-02  0.50968546D-02  0.53580782D-02
  0.37561771D-02 -0.43612578D-03 -0.35307153D-02 -0.33228828D-02  0.16204345D-02
 -0.18642669D-02 -0.13867636D-03 -0.30219297D-04  0.10215017D-16  0.13363192D-16
  0.14619800D-16  0.12042662D-16  0.64389364D-17  0.17791406D-17 -0.14582816D-20
  0.35425498D-16  0.46343312D-16  0.50701207D-16  0.41763737D-16  0.22330117D-16
  0.61700280D-17 -0.50572948D-20  0.48195309D-02  0.63048662D-02  0.68977446D-02
  0.56818290D-02  0.30379443D-02  0.83941349D-03 -0.68802953D-06 -0.26122304D-17
 -0.34596542D-17 -0.38219885D-17 -0.32735448D-17 -0.17858426D-17 -0.54892118D-18
  0.23898106D-18 -0.56641780D-17 -0.75016726D-17 -0.82873331D-17 -0.70981260D-17
 -0.38722964D-17 -0.11902424D-17  0.51818985D-18 -0.40921425D-02 -0.54196590D-02
 -0.59872673D-02 -0.51281127D-02 -0.27975796D-02 -0.85990260D-03  0.37437148D-03
 -0.77059022D-18 -0.24302441D-17 -0.10706588D-03 -0.10815876D-19  0.14263751D-19
 -0.20720692D-03  0.15432760D-20  0.61504361D-21 -0.99570292D-05  0.59282612D-04
  0.59282612D-04 -0.11856522D-03  0.32544058D-20  0.37767523D-19  0.19422696D-18
 -0.10211911D-03 -0.10211911D-03  0.20423821D-03 -0.85767873D-20 -0.22239120D-19
 -0.17584299D-18  0.14292168D-04  0.14292168D-04 -0.28584336D-04 -0.68395943D-21
 -0.18593908D-21  0.24143957D-20 -0.86706765D-20 -0.30053592D-19 -0.56529123D-06
 -0.93316361D-20 -0.30265483D-19  0.84793684D-06  0.35343666D-19  0.12042626D-18
  0.84793684D-06 -0.83691624D-22  0.53982454D-21 -0.71398958D-20 -0.24302303D-04
  0.60248716D-21 -0.71185748D-20  0.36453455D-04 -0.22219608D-20  0.28538262D-19
  0.36453455D-04  0.11681318D-21
MO    3     MO 0.0        OCC NO =    2.0000000  ORB. ENERGY =   -6.504166
 -0.14166890D-02 -0.26506037D-02 -0.45768098D-02 -0.74018706D-02 -0.11171620D-01
 -0.15305464D-01 -0.17687454D-01 -0.14864096D-01 -0.65289623D-02 -0.74624962D-03
  0.10057686D-04 -0.62555999D-05 -0.30771283D-06 -0.10238629D+00 -0.19150284D+00
 -0.33157682D+00 -0.53840324D+00 -0.82686157D+00 -0.11759870D+01 -0.14962545D+01
 -0.15506464D+01 -0.10347836D+01  0.10191299D+00  0.77844916D+00  0.39970179D+00
 -0.17532763D-02 -0.44542192D-03 -0.83236931D-03 -0.14433579D-02 -0.23405592D-02
 -0.36077218D-02 -0.51335911D-02 -0.66105124D-02 -0.69493139D-02 -0.48716821D-02
  0.56564589D-03  0.45792629D-02  0.43097086D-02 -0.21016692D-02  0.27359378D-01
  0.35193926D-03  0.26579440D-04 -0.10536165D-14 -0.13783315D-14 -0.15079429D-14
 -0.12421269D-14 -0.66413690D-15 -0.18350747D-15  0.15041283D-18  0.39181583D-15
  0.51256989D-15  0.56076942D-15  0.46191852D-15  0.24697729D-15  0.68242222D-16
 -0.55935084D-19 -0.64740296D-02 -0.84692663D-02 -0.92656741D-02 -0.76323463D-02
 -0.40808414D-02 -0.11275761D-02  0.92422346D-06  0.26068293D-15  0.34525009D-15
  0.38140861D-15  0.32667764D-15  0.17821501D-15  0.54778622D-16 -0.23848694D-16
  0.11721478D-15  0.15523999D-15  0.17149848D-15  0.14688897D-15  0.80133494D-16
  0.24630935D-16 -0.10723447D-16 -0.51923469D-02 -0.68767765D-02 -0.75969907D-02
 -0.65068457D-02 -0.35497306D-02 -0.10910941D-02  0.47502417D-03  0.11226082D-15
  0.95725753D-16 -0.16916124D-03  0.14783135D-17  0.11118508D-17 -0.28818382D-03
  0.21679809D-18  0.83208610D-19 -0.12542884D-04 -0.91360375D-04 -0.91360375D-04
  0.18272075D-03  0.11485013D-17  0.17603051D-17 -0.63468926D-17  0.12880355D-03
  0.12880355D-03 -0.25760709D-03 -0.32243069D-17 -0.26673046D-17  0.14512551D-16
 -0.19303398D-04 -0.19303398D-04  0.38606796D-04 -0.58774942D-19 -0.40246758D-18
 -0.20337079D-18  0.10326946D-18 -0.70517237D-18 -0.60627592D-04  0.11948788D-18
 -0.82906011D-18  0.90941388D-04 -0.42929626D-18  0.29445772D-17  0.90941388D-04
 -0.26421888D-18  0.58751600D-20 -0.19395621D-18 -0.32324863D-04  0.40385028D-20
 -0.18973787D-18  0.48487294D-04 -0.21663983D-19  0.77160650D-18  0.48487294D-04
 -0.27514999D-18 -0.14166890D-02 -0.26506037D-02 -0.45768098D-02 -0.74018705D-02
 -0.11171619D-01 -0.15305464D-01 -0.17687454D-01 -0.14864096D-01 -0.65289622D-02
 -0.74624961D-03  0.10057686D-04 -0.62555998D-05 -0.30771283D-06 -0.10238629D+00
 -0.19150284D+00 -0.33157681D+00 -0.53840323D+00 -0.82686155D+00 -0.11759869D+01
 -0.14962545D+01 -0.15506464D+01 -0.10347835D+01  0.10191299D+00  0.77844915D+00
  0.39970178D+00 -0.17532763D-02 -0.44542191D-03 -0.83236930D-03 -0.14433579D-02
 -0.23405592D-02 -0.36077218D-02 -0.51335910D-02 -0.66105123D-02 -0.69493138D-02
 -0.48716821D-02  0.56564588D-03  0.45792629D-02  0.43097086D-02 -0.21016692D-02
  0.27359378D-01  0.35193922D-03  0.26579434D-04  0.12872030D-14  0.16839072D-14
  0.18422535D-14  0.15175061D-14  0.81137588D-15  0.22419103D-15 -0.18375932D-18
  0.33583049D-14  0.43933038D-14  0.48064283D-14  0.39591642D-14  0.21168748D-14
  0.58491304D-15 -0.47942694D-18  0.64740295D-02  0.84692661D-02  0.92656739D-02
  0.76323462D-02  0.40808413D-02  0.11275761D-02 -0.92422345D-06  0.13247513D-16
  0.17545088D-16  0.19382609D-16  0.16601264D-16  0.90566177D-17  0.27837668D-17
 -0.12119546D-17  0.15083103D-15  0.19976156D-15  0.22068286D-15  0.18901554D-15
  0.10311513D-15  0.31694887D-16 -0.13798844D-16  0.51923469D-02  0.68767765D-02
  0.75969907D-02  0.65068457D-02  0.35497306D-02  0.10910941D-02 -0.47502417D-03
  0.28015447D-16  0.54914339D-16  0.16916124D-03 -0.12863711D-18 -0.12033283D-17
  0.28818381D-03 -0.33323363D-18 -0.23611113D-19  0.12542884D-04 -0.91360374D-04
 -0.91360374D-04  0.18272075D-03 -0.14064506D-17  0.24956527D-17 -0.51444917D-17
  0.12880355D-03  0.12880355D-03 -0.25760709D-03  0.78726283D-17 -0.22679637D-17
  0.12696101D-17 -0.19303398D-04 -0.19303398D-04  0.38606796D-04  0.73582176D-19
 -0.55001360D-18 -0.29533707D-18  0.28522596D-18  0.46496849D-18  0.60627592D-04
  0.39877070D-18  0.47060572D-18 -0.90941388D-04 -0.12544486D-17 -0.18655112D-17
 -0.90941388D-04  0.16297552D-18 -0.12854048D-18  0.16191299D-18  0.32324863D-04
 -0.13453656D-18  0.15918025D-18 -0.48487294D-04  0.52015800D-18 -0.64491923D-18
 -0.48487294D-04 -0.28150062D-18
MO    4     MO 0.0        OCC NO =    2.0000000  ORB. ENERGY =   -6.503666
  0.14085866D-02  0.26354442D-02  0.45506338D-02  0.73595373D-02  0.11107726D-01
  0.15217928D-01  0.17586295D-01  0.14779084D-01  0.64916214D-02  0.74198162D-03
 -0.10000164D-04  0.62198224D-05  0.30595294D-06  0.10242911D+00  0.19158293D+00
  0.33171548D+00  0.53862841D+00  0.82720737D+00  0.11764788D+01  0.14968803D+01
  0.15512949D+01  0.10352163D+01 -0.10195561D+00 -0.77877471D+00 -0.39986895D+00
  0.17540096D-02  0.42730127D-03  0.79850689D-03  0.13846392D-02  0.22453407D-02
  0.34609526D-02  0.49247465D-02  0.63415837D-02  0.66666022D-02  0.46734925D-02
 -0.54263430D-03 -0.43929695D-02 -0.41343812D-02  0.20161692D-02 -0.27609349D-01
 -0.21698526D-02 -0.21850858D-03 -0.22227211D-14 -0.29077434D-14 -0.31811732D-14
 -0.26204046D-14 -0.14010706D-14 -0.38712939D-15  0.31731257D-18  0.18208994D-14
  0.23820839D-14  0.26060832D-14  0.21466900D-14  0.11477862D-14  0.31714445D-15
 -0.25994906D-18  0.74247813D-02  0.97130309D-02  0.10626396D-01  0.87532041D-02
  0.46801385D-02  0.12931677D-02 -0.10599515D-05  0.63679686D-15  0.84337773D-15
  0.93170583D-15  0.79800889D-15  0.43534405D-15  0.13381335D-15 -0.58257645D-16
 -0.50985702D-15 -0.67525781D-15 -0.74597848D-15 -0.63893285D-15 -0.34856205D-15
 -0.10713883D-15  0.46644497D-16  0.27689930D-02  0.36672715D-02  0.40513499D-02
  0.34699935D-02  0.18930128D-02  0.58186249D-03 -0.25332256D-03  0.23376958D-15
 -0.21334011D-15  0.33849235D-03  0.46671231D-17 -0.23149030D-17  0.63947240D-03
  0.33906555D-18  0.12334505D-18  0.10864375D-04  0.21120783D-04  0.21120783D-04
 -0.42241567D-04 -0.64896363D-18  0.26912605D-17 -0.97065245D-18 -0.71025629D-04
 -0.71025629D-04  0.14205126D-03  0.25847726D-17 -0.22859164D-17 -0.95419272D-17
  0.16374893D-04  0.16374893D-04 -0.32749786D-04  0.59710484D-19 -0.63699845D-18
 -0.56535879D-19  0.31170110D-18 -0.11397224D-18 -0.48082552D-05  0.27922511D-18
 -0.13835304D-20  0.72123827D-05 -0.12143284D-17  0.34330026D-18  0.72123827D-05
  0.44177540D-18  0.53124562D-20 -0.10549326D-18 -0.21567368D-05  0.10478468D-19
 -0.10887835D-18  0.32351052D-05 -0.26415837D-19  0.42535814D-18  0.32351052D-05
 -0.23924274D-19 -0.14085866D-02 -0.26354442D-02 -0.45506339D-02 -0.73595374D-02
 -0.11107726D-01 -0.15217929D-01 -0.17586295D-01 -0.14779084D-01 -0.64916215D-02
 -0.74198163D-03  0.10000164D-04 -0.62198225D-05 -0.30595294D-06 -0.10242911D+00
 -0.19158293D+00 -0.33171549D+00 -0.53862841D+00 -0.82720738D+00 -0.11764788D+01
 -0.14968803D+01 -0.15512950D+01 -0.10352163D+01  0.10195561D+00  0.77877472D+00
  0.39986895D+00 -0.17540096D-02 -0.42730128D-03 -0.79850690D-03 -0.13846393D-02
 -0.22453407D-02 -0.34609527D-02 -0.49247466D-02 -0.63415838D-02 -0.66666023D-02
 -0.46734926D-02  0.54263431D-03  0.43929696D-02  0.41343813D-02 -0.20161692D-02
  0.27609350D-01  0.21698526D-02  0.21850858D-03  0.13119984D-14  0.17163443D-14
  0.18777408D-14  0.15467378D-14  0.82700539D-15  0.22850961D-15 -0.18729907D-18
  0.33704657D-14  0.44092124D-14  0.48238329D-14  0.39735008D-14  0.21245402D-14
  0.58703107D-15 -0.48116300D-18  0.74247814D-02  0.97130310D-02  0.10626396D-01
  0.87532042D-02  0.46801385D-02  0.12931677D-02 -0.10599515D-05  0.15024852D-17
  0.19899008D-17  0.21983058D-17  0.18828556D-17  0.10271690D-17  0.31572482D-18
 -0.13745553D-18  0.13389059D-15  0.17732553D-15  0.19589708D-15  0.16778644D-15
  0.91533855D-16  0.28135107D-16 -0.12249040D-16  0.27689930D-02  0.36672716D-02
  0.40513500D-02  0.34699936D-02  0.18930128D-02  0.58186251D-03 -0.25332256D-03
  0.26389045D-16  0.53649913D-16  0.33849235D-03 -0.53539188D-18  0.80965795D-18
  0.63947240D-03 -0.49146764D-18  0.26962715D-20  0.10864375D-04 -0.21120785D-04
 -0.21120785D-04  0.42241570D-04 -0.99113443D-18  0.37339784D-17 -0.19215944D-17
  0.71025631D-04  0.71025631D-04 -0.14205126D-03  0.74102191D-17 -0.33897219D-17
 -0.18598087D-17 -0.16374893D-04 -0.16374893D-04  0.32749786D-04  0.70682345D-19
 -0.85947938D-18  0.81844477D-19  0.36658611D-18  0.38856819D-18 -0.48082543D-05
  0.48627753D-18  0.38788553D-18  0.72123815D-05 -0.15860359D-17 -0.15535901D-17
  0.72123815D-05  0.30035096D-18 -0.17521646D-18 -0.13246650D-19 -0.21567363D-05
 -0.18322788D-18 -0.14633065D-19  0.32351044D-05  0.70887727D-18  0.54373017D-19
  0.32351044D-05 -0.52216163D-19
MO    5     MO 0.0        OCC NO =    2.0000000  ORB. ENERGY =   -4.642337
 -0.98810010D-16 -0.18487204D-15 -0.31921941D-15 -0.51625933D-15 -0.77918855D-15
 -0.10675124D-14 -0.12336494D-14 -0.10367282D-14 -0.45537647D-15 -0.52048779D-16
  0.70149490D-18 -0.43631022D-18 -0.21462091D-19  0.19226373D-15  0.35960918D-15
  0.62264386D-15  0.10110281D-14  0.15527029D-14  0.22082999D-14  0.28097070D-14
  0.29118456D-14  0.19431444D-14 -0.19137495D-15 -0.14617928D-14 -0.75057077D-15
  0.32923495D-17 -0.10262432D-15 -0.19177622D-15 -0.33254676D-15 -0.53926015D-15
 -0.83121187D-15 -0.11827691D-14 -0.15230488D-14 -0.16011080D-14 -0.11224258D-14
  0.13032368D-15  0.10550530D-14  0.99294822D-15 -0.48422037D-15 -0.16021077D-15
  0.43842312D-14  0.18672633D-14  0.51684820D+01  0.67613608D+01  0.73971657D+01
  0.60932135D+01  0.32579022D+01  0.90019000D+00 -0.73784531D-03 -0.22608399D+01
 -0.29576101D+01 -0.32357291D+01 -0.26653436D+01 -0.14250984D+01 -0.39376852D+00
  0.32275436D-03  0.16819539D-12  0.22003167D-12  0.24072236D-12  0.19828848D-12
  0.10602033D-12  0.29294445D-13 -0.24011341D-16 -0.13378106D-01 -0.17718047D-01
 -0.19573682D-01 -0.16764918D-01 -0.91458974D-02 -0.28112091D-02  0.12239020D-02
  0.58519612D-02  0.77503738D-02  0.85620810D-02  0.73334485D-02  0.40006737D-02
  0.12297022D-02 -0.53536928D-03  0.91809582D-14  0.12159318D-13  0.13432780D-13
  0.11505217D-13  0.62765314D-14  0.19292412D-14 -0.83992406D-15  0.55258270D-01
 -0.24171527D-01  0.19672888D-14 -0.37130154D-04  0.16241777D-04 -0.18245645D-14
  0.25852160D-05 -0.11308465D-05 -0.11096479D-15 -0.19048758D-15 -0.17234705D-15
  0.36283464D-15  0.39318053D-17 -0.12755502D-05  0.55796166D-06 -0.51884505D-18
 -0.14851463D-15  0.14903347D-15  0.15126539D-15 -0.13051261D-03  0.57089900D-04
 -0.52581662D-16 -0.52699408D-16  0.10528107D-15  0.16356378D-17  0.55919203D-05
 -0.24460638D-05 -0.29162328D-04  0.12756425D-04 -0.30187453D-16 -0.28944774D-04
  0.12661261D-04  0.69990876D-16  0.11643176D-03 -0.50930538D-04  0.20571483D-16
 -0.55364160D-16  0.66013985D-05 -0.28876381D-05 -0.30338783D-16  0.65952860D-05
 -0.28849643D-05  0.48136838D-16 -0.26399482D-04  0.11547878D-04  0.42879510D-16
  0.38381469D-17  0.20363371D-16  0.38099560D-16  0.65786689D-16  0.10639388D-15
  0.16057994D-15  0.21999949D-15  0.25423802D-15  0.21365530D-15  0.93846769D-16
  0.10726531D-16 -0.14456836D-18  0.89917480D-19  0.44230390D-20 -0.55080843D-16
 -0.10302295D-15 -0.17837867D-15 -0.28964526D-15 -0.44482744D-15 -0.63264673D-15
 -0.80494136D-15 -0.83420262D-15 -0.55668341D-15  0.54826218D-16  0.41878297D-15
  0.21502792D-15 -0.94321161D-18 -0.17918046D-17 -0.33483830D-17 -0.58062148D-17
 -0.94153984D-17 -0.14512830D-16 -0.20650964D-16 -0.26592195D-16 -0.27955097D-16
 -0.19597380D-16  0.22754312D-17  0.18421061D-16  0.17336722D-16 -0.84544124D-17
  0.24528134D-15 -0.38421075D-14 -0.19986685D-14  0.51684818D+01  0.67613606D+01
  0.73971655D+01  0.60932133D+01  0.32579021D+01  0.90018997D+00 -0.73784528D-03
 -0.22608399D+01 -0.29576100D+01 -0.32357290D+01 -0.26653435D+01 -0.14250984D+01
 -0.39376850D+00  0.32275436D-03  0.14742115D-12  0.19285500D-12  0.21099013D-12
  0.17379736D-12  0.92925484D-13  0.25676213D-13 -0.21045638D-16 -0.13378105D-01
 -0.17718046D-01 -0.19573681D-01 -0.16764918D-01 -0.91458971D-02 -0.28112090D-02
  0.12239019D-02  0.58519610D-02  0.77503735D-02  0.85620808D-02  0.73334483D-02
  0.40006736D-02  0.12297022D-02 -0.53536926D-03  0.43574020D-14  0.57709704D-14
  0.63753720D-14  0.54605256D-14  0.29789233D-14  0.91564292D-15 -0.39863887D-15
  0.55258268D-01 -0.24171526D-01  0.18492859D-14 -0.37130154D-04  0.16241778D-04
 -0.19969628D-14  0.25852161D-05 -0.11308465D-05 -0.10947920D-15  0.23119098D-15
  0.24381458D-15 -0.47500556D-15 -0.20809349D-16  0.12755415D-05 -0.55795785D-06
  0.17424905D-15  0.87640665D-17 -0.18301311D-15  0.12290632D-15  0.13051262D-03
 -0.57089902D-04  0.52564453D-16  0.50103498D-16 -0.10266795D-15  0.27020296D-18
 -0.55919202D-05  0.24460638D-05 -0.29162326D-04  0.12756425D-04 -0.68510673D-16
 -0.28944773D-04  0.12661261D-04  0.42946786D-16  0.11643175D-03 -0.50930535D-04
  0.16258523D-15  0.87881497D-16  0.66013988D-05 -0.28876382D-05 -0.33426615D-16
  0.65952862D-05 -0.28849644D-05  0.55750381D-16 -0.26399483D-04  0.11547879D-04
  0.44529463D-16 -0.11602278D-16
MO    6     MO 0.0        OCC NO =    2.0000000  ORB. ENERGY =   -4.642337
 -0.45189151D-16 -0.84548218D-16 -0.14598980D-15 -0.23610281D-15 -0.35634921D-15
 -0.48820944D-15 -0.56418949D-15 -0.47413080D-15 -0.20825902D-15 -0.23803663D-16
  0.32081728D-18 -0.19953938D-18 -0.98153383D-20  0.86564843D-16  0.16191047D-15
  0.28033923D-15  0.45520539D-15  0.69908910D-15  0.99426519D-15  0.12650428D-14
  0.13110297D-14  0.87488152D-15 -0.86164675D-16 -0.65815772D-15 -0.33793706D-15
  0.14823477D-17 -0.38924934D-16 -0.72739844D-16 -0.12613347D-15 -0.20453891D-15
 -0.31527486D-15 -0.44861891D-15 -0.57768545D-15 -0.60729294D-15 -0.42573097D-15
  0.49431176D-16  0.40017678D-15  0.37662072D-15 -0.18366257D-15  0.18094161D-15
 -0.11098989D-15 -0.65365256D-16  0.22608399D+01  0.29576101D+01  0.32357291D+01
  0.26653436D+01  0.14250984D+01  0.39376852D+00 -0.32275436D-03  0.51684820D+01
  0.67613608D+01  0.73971657D+01  0.60932135D+01  0.32579022D+01  0.90019000D+00
 -0.73784531D-03  0.26261093D-12  0.34354521D-12  0.37585050D-12  0.30959660D-12
  0.16553424D-12  0.45738716D-13 -0.37489971D-16 -0.58519612D-02 -0.77503738D-02
 -0.85620810D-02 -0.73334485D-02 -0.40006737D-02 -0.12297022D-02  0.53536928D-03
 -0.13378106D-01 -0.17718047D-01 -0.19573682D-01 -0.16764918D-01 -0.91458974D-02
 -0.28112091D-02  0.12239020D-02 -0.30552990D-14 -0.40464570D-14 -0.44702480D-14
 -0.38287810D-14 -0.20887449D-14 -0.64202543D-15  0.27951539D-15  0.24171527D-01
  0.55258270D-01  0.25587036D-14 -0.16241777D-04 -0.37130154D-04  0.75911431D-16
  0.11308465D-05  0.25852160D-05  0.14065188D-16  0.24841588D-17  0.30165942D-16