 Molden2AIM, Version 4.0.0 (06/02/2016)           Time: Fri Jun 29 23:11:53 2018
GAUSSIAN             24 MOL ORBITALS    394 PRIMITIVES        2 NUCLEI
  Si   1    (CENTRE  1)   0.00000000  0.00000000 -0.53056707  CHARGE = 14.0
  Se   2    (CENTRE  2)   0.00000000  0.00000000  3.36515625  CHARGE = 34.0
CENTRE ASSIGNMENTS    1  1  1  1  1  1  1  1  1  1  1  1  1  1  1  1  1  1  1  1
CENTRE ASSIGNMENTS    1  1  1  1  1  1  1  1  1  1  1  1  1  1  1  1  1  1  1  1
CENTRE ASSIGNMENTS    1  1  1  1  1  1  1  1  1  1  1  1  1  1  1  1  1  1  1  1
CENTRE ASSIGNMENTS    1  1  1  1  1  1  1  1  1  1  1  1  1  1  1  1  1  1  1  1
CENTRE ASSIGNMENTS    1  1  1  1  1  1  1  1  1  1  1  1  1  1  1  1  1  1  1  1
CENTRE ASSIGNMENTS    1  1  1  1  1  1  1  1  1  1  1  1  1  1  1  1  1  1  1  1
CENTRE ASSIGNMENTS    1  1  1  1  1  1  1  1  1  1  1  2  2  2  2  2  2  2  2  2
CENTRE ASSIGNMENTS    2  2  2  2  2  2  2  2  2  2  2  2  2  2  2  2  2  2  2  2
CENTRE ASSIGNMENTS    2  2  2  2  2  2  2  2  2  2  2  2  2  2  2  2  2  2  2  2
CENTRE ASSIGNMENTS    2  2  2  2  2  2  2  2  2  2  2  2  2  2  2  2  2  2  2  2
CENTRE ASSIGNMENTS    2  2  2  2  2  2  2  2  2  2  2  2  2  2  2  2  2  2  2  2
CENTRE ASSIGNMENTS    2  2  2  2  2  2  2  2  2  2  2  2  2  2  2  2  2  2  2  2
CENTRE ASSIGNMENTS    2  2  2  2  2  2  2  2  2  2  2  2  2  2  2  2  2  2  2  2
CENTRE ASSIGNMENTS    2  2  2  2  2  2  2  2  2  2  2  2  2  2  2  2  2  2  2  2
CENTRE ASSIGNMENTS    2  2  2  2  2  2  2  2  2  2  2  2  2  2  2  2  2  2  2  2
CENTRE ASSIGNMENTS    2  2  2  2  2  2  2  2  2  2  2  2  2  2  2  2  2  2  2  2
CENTRE ASSIGNMENTS    2  2  2  2  2  2  2  2  2  2  2  2  2  2  2  2  2  2  2  2
CENTRE ASSIGNMENTS    2  2  2  2  2  2  2  2  2  2  2  2  2  2  2  2  2  2  2  2
CENTRE ASSIGNMENTS    2  2  2  2  2  2  2  2  2  2  2  2  2  2  2  2  2  2  2  2
CENTRE ASSIGNMENTS    2  2  2  2  2  2  2  2  2  2  2  2  2  2
TYPE ASSIGNMENTS      1  1  1  1  1  1  1  1  1  1  1  1  1  1  1  1  1  1  1  1
TYPE ASSIGNMENTS      1  1  1  1  1  1  1  1  1  1  1  1  1  1  1  1  1  1  1  1
TYPE ASSIGNMENTS      1  1  2  2  2  2  2  2  2  3  3  3  3  3  3  3  4  4  4  4
TYPE ASSIGNMENTS      4  4  4  2  2  2  2  2  2  2  3  3  3  3  3  3  3  4  4  4
TYPE ASSIGNMENTS      4  4  4  4  2  3  4  2  3  4  2  3  4  5  6  7  8  9 10  5
TYPE ASSIGNMENTS      6  7  8  9 10  5  6  7  8  9 10 11 12 13 17 14 15 18 19 16
TYPE ASSIGNMENTS     20 11 12 13 17 14 15 18 19 16 20  1  1  1  1  1  1  1  1  1
TYPE ASSIGNMENTS      1  1  1  1  1  1  1  1  1  1  1  1  1  1  1  1  1  1  1  1
TYPE ASSIGNMENTS      1  1  1  1  1  1  1  1  1  1  1  1  1  1  1  1  1  1  1  1
TYPE ASSIGNMENTS      1  1  1  1  1  1  1  1  1  1  1  1  1  1  1  1  1  1  1  1
TYPE ASSIGNMENTS      1  1  1  1  1  1  2  2  2  2  2  2  2  2  2  2  2  3  3  3
TYPE ASSIGNMENTS      3  3  3  3  3  3  3  3  4  4  4  4  4  4  4  4  4  4  4  2
TYPE ASSIGNMENTS      2  2  2  2  2  2  2  2  2  2  3  3  3  3  3  3  3  3  3  3
TYPE ASSIGNMENTS      3  4  4  4  4  4  4  4  4  4  4  4  2  2  2  2  2  2  2  2
TYPE ASSIGNMENTS      2  2  2  3  3  3  3  3  3  3  3  3  3  3  4  4  4  4  4  4
TYPE ASSIGNMENTS      4  4  4  4  4  2  3  4  2  3  4  2  3  4  5  5  5  5  5  5
TYPE ASSIGNMENTS      5  6  6  6  6  6  6  6  7  7  7  7  7  7  7  8  8  8  8  8
TYPE ASSIGNMENTS      8  8  9  9  9  9  9  9  9 10 10 10 10 10 10 10  5  6  7  8
TYPE ASSIGNMENTS      9 10  5  6  7  8  9 10  5  6  7  8  9 10 11 12 13 17 14 15
TYPE ASSIGNMENTS     18 19 16 20 11 12 13 17 14 15 18 19 16 20
EXPONENTS  0.2549000D+06 0.3819000D+05 0.8690000D+04 0.2462000D+04 0.8048000D+03
EXPONENTS  0.2913000D+03 0.1136000D+03 0.4675000D+02 0.1982000D+02 0.7708000D+01
EXPONENTS  0.3340000D+01 0.1402000D+01 0.2070000D+00 0.2549000D+06 0.3819000D+05
EXPONENTS  0.8690000D+04 0.2462000D+04 0.8048000D+03 0.2913000D+03 0.1136000D+03
EXPONENTS  0.4675000D+02 0.1982000D+02 0.7708000D+01 0.3340000D+01 0.1402000D+01
EXPONENTS  0.2070000D+00 0.2549000D+06 0.3819000D+05 0.8690000D+04 0.2462000D+04
EXPONENTS  0.8048000D+03 0.2913000D+03 0.1136000D+03 0.4675000D+02 0.1982000D+02
EXPONENTS  0.7708000D+01 0.3340000D+01 0.1402000D+01 0.2070000D+00 0.4387000D+00
EXPONENTS  0.7944000D-01 0.3300000D-01 0.4815000D+03 0.1139000D+03 0.3623000D+02
EXPONENTS  0.1334000D+02 0.5252000D+01 0.2120000D+01 0.2528000D+00 0.4815000D+03
EXPONENTS  0.1139000D+03 0.3623000D+02 0.1334000D+02 0.5252000D+01 0.2120000D+01
EXPONENTS  0.2528000D+00 0.4815000D+03 0.1139000D+03 0.3623000D+02 0.1334000D+02
EXPONENTS  0.5252000D+01 0.2120000D+01 0.2528000D+00 0.4815000D+03 0.1139000D+03
EXPONENTS  0.3623000D+02 0.1334000D+02 0.5252000D+01 0.2120000D+01 0.2528000D+00
EXPONENTS  0.4815000D+03 0.1139000D+03 0.3623000D+02 0.1334000D+02 0.5252000D+01
EXPONENTS  0.2120000D+01 0.2528000D+00 0.4815000D+03 0.1139000D+03 0.3623000D+02
EXPONENTS  0.1334000D+02 0.5252000D+01 0.2120000D+01 0.2528000D+00 0.8561000D+00
EXPONENTS  0.8561000D+00 0.8561000D+00 0.7889000D-01 0.7889000D-01 0.7889000D-01
EXPONENTS  0.2370000D-01 0.2370000D-01 0.2370000D-01 0.1590000D+00 0.1590000D+00
EXPONENTS  0.1590000D+00 0.1590000D+00 0.1590000D+00 0.1590000D+00 0.4810000D+00
EXPONENTS  0.4810000D+00 0.4810000D+00 0.4810000D+00 0.4810000D+00 0.4810000D+00
EXPONENTS  0.5560000D-01 0.5560000D-01 0.5560000D-01 0.5560000D-01 0.5560000D-01
EXPONENTS  0.5560000D-01 0.3360000D+00 0.3360000D+00 0.3360000D+00 0.3360000D+00
EXPONENTS  0.3360000D+00 0.3360000D+00 0.3360000D+00 0.3360000D+00 0.3360000D+00
EXPONENTS  0.3360000D+00 0.1250000D+00 0.1250000D+00 0.1250000D+00 0.1250000D+00
EXPONENTS  0.1250000D+00 0.1250000D+00 0.1250000D+00 0.1250000D+00 0.1250000D+00
EXPONENTS  0.1250000D+00 0.9563600D+07 0.1432100D+07 0.3259100D+06 0.9231200D+05
EXPONENTS  0.3011600D+05 0.1087200D+05 0.4240100D+04 0.1758400D+04 0.7665900D+03
EXPONENTS  0.3484300D+03 0.1640300D+03 0.7914200D+02 0.3552400D+02 0.1730500D+02
EXPONENTS  0.8378400D+01 0.3740500D+01 0.1689000D+01 0.2552000D+00 0.9563600D+07
EXPONENTS  0.1432100D+07 0.3259100D+06 0.9231200D+05 0.3011600D+05 0.1087200D+05
EXPONENTS  0.4240100D+04 0.1758400D+04 0.7665900D+03 0.3484300D+03 0.1640300D+03
EXPONENTS  0.7914200D+02 0.3552400D+02 0.1730500D+02 0.8378400D+01 0.3740500D+01
EXPONENTS  0.1689000D+01 0.2552000D+00 0.9563600D+07 0.1432100D+07 0.3259100D+06
EXPONENTS  0.9231200D+05 0.3011600D+05 0.1087200D+05 0.4240100D+04 0.1758400D+04
EXPONENTS  0.7665900D+03 0.3484300D+03 0.1640300D+03 0.7914200D+02 0.3552400D+02
EXPONENTS  0.1730500D+02 0.8378400D+01 0.3740500D+01 0.1689000D+01 0.2552000D+00
EXPONENTS  0.9563600D+07 0.1432100D+07 0.3259100D+06 0.9231200D+05 0.3011600D+05
EXPONENTS  0.1087200D+05 0.4240100D+04 0.1758400D+04 0.7665900D+03 0.3484300D+03
EXPONENTS  0.1640300D+03 0.7914200D+02 0.3552400D+02 0.1730500D+02 0.8378400D+01
EXPONENTS  0.3740500D+01 0.1689000D+01 0.2552000D+00 0.5092700D+00 0.1065100D+00
EXPONENTS  0.3920100D-01 0.8004300D+04 0.1896900D+04 0.6147100D+03 0.2335000D+03
EXPONENTS  0.9785600D+02 0.4351400D+02 0.2006300D+02 0.9112700D+01 0.4106300D+01
EXPONENTS  0.1794900D+01 0.2461500D+00 0.8004300D+04 0.1896900D+04 0.6147100D+03
EXPONENTS  0.2335000D+03 0.9785600D+02 0.4351400D+02 0.2006300D+02 0.9112700D+01
EXPONENTS  0.4106300D+01 0.1794900D+01 0.2461500D+00 0.8004300D+04 0.1896900D+04
EXPONENTS  0.6147100D+03 0.2335000D+03 0.9785600D+02 0.4351400D+02 0.2006300D+02
EXPONENTS  0.9112700D+01 0.4106300D+01 0.1794900D+01 0.2461500D+00 0.8004300D+04
EXPONENTS  0.1896900D+04 0.6147100D+03 0.2335000D+03 0.9785600D+02 0.4351400D+02
EXPONENTS  0.2006300D+02 0.9112700D+01 0.4106300D+01 0.1794900D+01 0.2461500D+00
EXPONENTS  0.8004300D+04 0.1896900D+04 0.6147100D+03 0.2335000D+03 0.9785600D+02
EXPONENTS  0.4351400D+02 0.2006300D+02 0.9112700D+01 0.4106300D+01 0.1794900D+01
EXPONENTS  0.2461500D+00 0.8004300D+04 0.1896900D+04 0.6147100D+03 0.2335000D+03
EXPONENTS  0.9785600D+02 0.4351400D+02 0.2006300D+02 0.9112700D+01 0.4106300D+01
EXPONENTS  0.1794900D+01 0.2461500D+00 0.8004300D+04 0.1896900D+04 0.6147100D+03
EXPONENTS  0.2335000D+03 0.9785600D+02 0.4351400D+02 0.2006300D+02 0.9112700D+01
EXPONENTS  0.4106300D+01 0.1794900D+01 0.2461500D+00 0.8004300D+04 0.1896900D+04
EXPONENTS  0.6147100D+03 0.2335000D+03 0.9785600D+02 0.4351400D+02 0.2006300D+02
EXPONENTS  0.9112700D+01 0.4106300D+01 0.1794900D+01 0.2461500D+00 0.8004300D+04
EXPONENTS  0.1896900D+04 0.6147100D+03 0.2335000D+03 0.9785600D+02 0.4351400D+02
EXPONENTS  0.2006300D+02 0.9112700D+01 0.4106300D+01 0.1794900D+01 0.2461500D+00
EXPONENTS  0.6243200D+00 0.6243200D+00 0.6243200D+00 0.8891700D-01 0.8891700D-01
EXPONENTS  0.8891700D-01 0.3025100D-01 0.3025100D-01 0.3025100D-01 0.3618500D+03
EXPONENTS  0.1085500D+03 0.4143300D+02 0.1757900D+02 0.7862700D+01 0.3518000D+01
EXPONENTS  0.1534800D+01 0.3618500D+03 0.1085500D+03 0.4143300D+02 0.1757900D+02
EXPONENTS  0.7862700D+01 0.3518000D+01 0.1534800D+01 0.3618500D+03 0.1085500D+03
EXPONENTS  0.4143300D+02 0.1757900D+02 0.7862700D+01 0.3518000D+01 0.1534800D+01
EXPONENTS  0.3618500D+03 0.1085500D+03 0.4143300D+02 0.1757900D+02 0.7862700D+01
EXPONENTS  0.3518000D+01 0.1534800D+01 0.3618500D+03 0.1085500D+03 0.4143300D+02
EXPONENTS  0.1757900D+02 0.7862700D+01 0.3518000D+01 0.1534800D+01 0.3618500D+03
EXPONENTS  0.1085500D+03 0.4143300D+02 0.1757900D+02 0.7862700D+01 0.3518000D+01
EXPONENTS  0.1534800D+01 0.6081300D+00 0.6081300D+00 0.6081300D+00 0.6081300D+00
EXPONENTS  0.6081300D+00 0.6081300D+00 0.2220000D+00 0.2220000D+00 0.2220000D+00
EXPONENTS  0.2220000D+00 0.2220000D+00 0.2220000D+00 0.8370000D-01 0.8370000D-01
EXPONENTS  0.8370000D-01 0.8370000D-01 0.8370000D-01 0.8370000D-01 0.4620000D+00
EXPONENTS  0.4620000D+00 0.4620000D+00 0.4620000D+00 0.4620000D+00 0.4620000D+00
EXPONENTS  0.4620000D+00 0.4620000D+00 0.4620000D+00 0.4620000D+00 0.1880000D+00
EXPONENTS  0.1880000D+00 0.1880000D+00 0.1880000D+00 0.1880000D+00 0.1880000D+00
EXPONENTS  0.1880000D+00 0.1880000D+00 0.1880000D+00 0.1880000D+00
MO    1     MO 0.0        OCC NO =    2.0000000  ORB. ENERGY = -453.286661
 -0.77566429D-06 -0.14509255D-05 -0.25056831D-05 -0.40473314D-05 -0.60951978D-05
 -0.82894403D-05 -0.94366873D-05 -0.76450108D-05 -0.31032609D-05 -0.28297471D-06
  0.10874781D-07 -0.36364485D-08 -0.20406925D-09  0.18410490D-05  0.34459368D-05
  0.59598802D-05  0.96867079D-05  0.14820584D-04  0.21031433D-04  0.26382186D-04
  0.26898924D-04  0.16527234D-04 -0.36019754D-05 -0.13193503D-04 -0.60342438D-05
  0.32030097D-07 -0.12528899D-05 -0.23433415D-05 -0.40580326D-05 -0.65888135D-05
 -0.10113695D-04 -0.14366053D-04 -0.18225617D-04 -0.18868438D-04 -0.12153567D-04
  0.29892330D-05  0.12185034D-04  0.10627470D-04 -0.54163118D-05 -0.11674803D-04
 -0.88077844D-04 -0.13950512D-04  0.90882391D-19  0.11987856D-18  0.13315563D-18
  0.11396245D-18  0.65117228D-19  0.21131960D-19  0.14879623D-22 -0.62401432D-19
 -0.82310704D-19 -0.91426973D-19 -0.78248602D-19 -0.44710622D-19 -0.14509572D-19
 -0.10216608D-22 -0.10662485D-03 -0.14064367D-03 -0.15622057D-03 -0.13370279D-03
 -0.76396698D-04 -0.24792394D-04 -0.17457040D-07 -0.66562459D-19 -0.91023307D-19
 -0.98951503D-19 -0.90832306D-19 -0.49507295D-19 -0.20891128D-19  0.72050966D-20
  0.44517185D-19  0.60876678D-19  0.66179081D-19  0.60748936D-19  0.33110637D-19
  0.13972053D-19 -0.48187916D-20  0.97338857D-04  0.13310963D-03  0.14470358D-03
  0.13283032D-03  0.72397918D-04  0.30550531D-04 -0.10536508D-04 -0.11896130D-19
  0.88032387D-20 -0.81626184D-05  0.60874526D-21  0.19417036D-22 -0.26442003D-04
  0.10968614D-22  0.22595255D-22 -0.58597069D-06 -0.17709329D-06 -0.17709329D-06
  0.35418658D-06 -0.13791146D-21  0.65469824D-20 -0.46250974D-20 -0.28279893D-05
 -0.28279893D-05  0.56559786D-05  0.20723829D-21 -0.10264046D-20  0.20280471D-20
  0.29367695D-06  0.29367695D-06 -0.58735391D-06  0.23121369D-22 -0.28239214D-21
  0.30086236D-21 -0.14063967D-20  0.11856757D-20  0.30136054D-05 -0.14106475D-20
  0.11744445D-20 -0.45204081D-05  0.56298376D-20 -0.47314716D-20 -0.45204081D-05
 -0.26712973D-21 -0.21543841D-21  0.14869189D-21  0.49398725D-06 -0.21514393D-21
  0.15033003D-21 -0.74098087D-06  0.86145916D-21 -0.59640570D-21 -0.74098087D-06
 -0.23562012D-23  0.77214240D+00  0.14427121D+01  0.25022034D+01  0.40992484D+01
  0.64190974D+01  0.96397725D+01  0.13749076D+02  0.18165314D+02  0.20949073D+02
  0.18854837D+02  0.10578033D+02  0.25572960D+01  0.12140774D+00 -0.20776513D-02
  0.58435377D-03 -0.22772173D-03  0.21539876D-04  0.21238771D-05  0.50957580D-04
  0.93839176D-04  0.16288124D-03  0.26676895D-03  0.41988206D-03  0.63375637D-03
  0.92383218D-03  0.12686157D-02  0.16111257D-02  0.17350802D-02  0.13842144D-02
  0.31005298D-03 -0.82907470D-03 -0.73727492D-03 -0.14399278D-03 -0.39888963D-05
 -0.28886231D-06 -0.58993586D-08 -0.11208311D-03 -0.20235568D-03 -0.35226271D-03
 -0.57684506D-03 -0.90942909D-03 -0.13723035D-02 -0.20084683D-02 -0.27674053D-02
 -0.35651596D-02 -0.39241196D-02 -0.33034724D-02 -0.78667498D-03  0.26498238D-02
  0.35407201D-02  0.43498470D-03 -0.15198956D-02 -0.67093505D-03  0.33297300D-05
  0.36912070D-04  0.79969590D-04  0.13613775D-03  0.22222491D-03  0.35034710D-03
  0.52869346D-03  0.77378774D-03  0.10673917D-02  0.13768237D-02  0.15221006D-02
  0.12891064D-02  0.31313250D-03 -0.10863853D-02 -0.15333083D-02 -0.18294479D-03
  0.85979845D-03  0.68728446D-03 -0.26037586D-03  0.24173094D-03  0.13564619D-03
  0.29520822D-04  0.16773663D-16  0.24040549D-16  0.31746468D-16  0.36490964D-16
  0.33569406D-16  0.21475269D-16  0.74334234D-17  0.83569454D-18  0.10632072D-19
  0.18423543D-20  0.18826856D-22 -0.12448333D-16 -0.17841348D-16 -0.23560185D-16
 -0.27081245D-16 -0.24913052D-16 -0.15937562D-16 -0.55166084D-17 -0.62019869D-18
 -0.78904391D-20 -0.13672767D-20 -0.13972080D-22  0.29072706D-03  0.41667931D-03
  0.55024101D-03  0.63247430D-03  0.58183682D-03  0.37221695D-03  0.12883872D-03
  0.14484553D-04  0.18427883D-06  0.31932336D-07  0.32631372D-09  0.65451706D-17
  0.94408929D-17  0.12574048D-16  0.14880923D-16  0.14300008D-16  0.98291669D-17
  0.30946616D-17 -0.14956220D-17 -0.15348702D-17 -0.38653729D-18  0.42143467D-21
 -0.14539468D-17 -0.20972038D-17 -0.27932041D-17 -0.33056543D-17 -0.31766096D-17
 -0.21834551D-17 -0.68744939D-18  0.33223808D-18  0.34095670D-18  0.85865549D-19
 -0.93617669D-22 -0.15978606D-02 -0.23047880D-02 -0.30696793D-02 -0.36328526D-02
 -0.34910349D-02 -0.23995766D-02 -0.75549410D-03  0.36512348D-03  0.37470507D-03
  0.94364642D-04 -0.10288408D-06 -0.18164561D-17 -0.26332928D-17 -0.34950377D-17
 -0.41709931D-17 -0.40073342D-17 -0.28049203D-17 -0.84692076D-18  0.51844185D-18
  0.55757495D-18  0.14995014D-18 -0.55896522D-19  0.90202506D-18  0.13076540D-17
  0.17355836D-17  0.20712530D-17  0.19899825D-17  0.13928816D-17  0.42056823D-18
 -0.25745050D-18 -0.27688342D-18 -0.74463007D-19  0.27757380D-19  0.11585127D-02
  0.16794808D-02  0.22290908D-02  0.26602066D-02  0.25558270D-02  0.17889427D-02
  0.54015534D-03 -0.33065565D-03 -0.35561425D-03 -0.95636303D-04  0.35650094D-04
  0.16681130D-18 -0.36935833D-19 -0.21193622D-04  0.57003300D-20 -0.38952527D-20
 -0.47363127D-04 -0.45036678D-21  0.23992715D-21 -0.15816897D-05 -0.16615070D-03
 -0.17198185D-03 -0.14389158D-03 -0.92850928D-04 -0.41709906D-04 -0.12178618D-04
 -0.20546074D-05 -0.16615070D-03 -0.17198185D-03 -0.14389158D-03 -0.92850928D-04
 -0.41709906D-04 -0.12178618D-04 -0.20546074D-05  0.33230139D-03  0.34396369D-03
  0.28778316D-03  0.18570186D-03  0.83419812D-04  0.24357235D-04  0.41092148D-05
  0.43292818D-17  0.44812203D-17  0.37492902D-17  0.24193569D-17  0.10868082D-17
  0.31733040D-18  0.53535583D-19 -0.12190222D-17 -0.12618044D-17 -0.10557104D-17
 -0.68123301D-18 -0.30601918D-18 -0.89352647D-19 -0.15074339D-19  0.75968482D-18
  0.78634639D-18  0.65791026D-18  0.42453894D-18  0.19070870D-18  0.55683853D-19
  0.93942072D-20  0.87998273D-05  0.87998273D-05 -0.17599655D-04 -0.20530371D-19
 -0.72418636D-20  0.58602477D-20 -0.23841234D-05 -0.23841234D-05  0.47682469D-05
  0.23636309D-20  0.10176734D-19 -0.76171017D-20 -0.23334765D-05 -0.23334765D-05
  0.46669529D-05 -0.18963354D-21 -0.16144107D-21  0.37581016D-21  0.11656038D-20
 -0.11045300D-20  0.54059193D-05  0.10769498D-20 -0.10153078D-20 -0.81088790D-05
 -0.45737611D-20  0.43288979D-20 -0.81088790D-05  0.49659574D-22  0.31613132D-21
 -0.15764414D-21 -0.20944984D-05  0.32759193D-21 -0.17127319D-21  0.31417476D-05
 -0.12759859D-20  0.64420560D-21  0.31417476D-05 -0.79917895D-22
MO    2     MO 0.0        OCC NO =    2.0000000  ORB. ENERGY =  -65.885213
  0.50597511D+00  0.94645609D+00  0.16344871D+01  0.26401228D+01  0.39759706D+01
  0.54073012D+01  0.61556642D+01  0.49869322D+01  0.20242943D+01  0.18458780D+00
 -0.70937500D-02  0.23720989D-02  0.13311681D-03 -0.11215711D-02 -0.20992723D-02
 -0.36307723D-02 -0.59011640D-02 -0.90287327D-02 -0.12812396D-01 -0.16072086D-01
 -0.16386884D-01 -0.10068428D-01  0.21943314D-02  0.80375113D-02  0.36760747D-02
 -0.19512806D-04  0.46302269D-03  0.86601408D-03  0.14997017D-02  0.24349866D-02
  0.37376552D-02  0.53091725D-02  0.67355275D-02  0.69730908D-02  0.44915178D-02
 -0.11047122D-02 -0.45031468D-02 -0.39275275D-02  0.20016725D-02 -0.23599786D-02
 -0.38635850D-04  0.12357280D-03 -0.13239813D-16 -0.17463996D-16 -0.19398209D-16
 -0.16602133D-16 -0.94863254D-17 -0.30785194D-17 -0.21676743D-20  0.35597041D-16
  0.46954331D-16  0.52154728D-16  0.44637096D-16  0.25505278D-16  0.82770187D-17
  0.58280877D-20  0.82826391D-02  0.10925228D-01  0.12135244D-01  0.10386059D-01
  0.59345105D-02  0.19258780D-02  0.13560663D-05  0.23326741D-17  0.31899019D-17
  0.34677447D-17  0.31832083D-17  0.17349778D-17  0.73212729D-18 -0.25250182D-18
 -0.28699628D-17 -0.39246372D-17 -0.42664759D-17 -0.39164018D-17 -0.21345980D-17
 -0.90075936D-18  0.31066098D-18 -0.65626355D-02 -0.89743196D-02 -0.97559894D-02
 -0.89554881D-02 -0.48811047D-02 -0.20597324D-02  0.71037673D-03  0.13453136D-17
 -0.29537400D-17 -0.51145371D-03 -0.54024394D-20 -0.29885951D-19  0.33071939D-04
 -0.92334368D-21  0.11223105D-20  0.20347343D-05 -0.94426649D-05 -0.94426649D-05
  0.18885330D-04 -0.15834936D-19 -0.61345556D-19  0.25269096D-19 -0.13018022D-03
 -0.13018022D-03  0.26036044D-03  0.53541903D-19  0.53023496D-20  0.10991010D-19
  0.30818879D-05  0.30818879D-05 -0.61637758D-05 -0.75170625D-21 -0.20518968D-21
 -0.35112347D-20  0.11900952D-19 -0.81083157D-20  0.38622289D-04  0.12294406D-19
 -0.86490706D-20 -0.57933434D-04 -0.47997263D-19  0.32974018D-19 -0.57933434D-04
  0.21296050D-19  0.89116652D-21 -0.30690147D-22 -0.62017155D-05  0.87106178D-21
  0.19051000D-21  0.93025733D-05 -0.35445613D-20 -0.98439563D-22  0.93025733D-05
 -0.91022517D-20  0.14013666D-04  0.26183882D-04  0.45412664D-04  0.74397545D-04
  0.11650065D-03  0.17495291D-03  0.24953294D-03  0.32968356D-03  0.38020619D-03
  0.34219776D-03  0.19198145D-03  0.46412543D-04  0.22034375D-05 -0.37707438D-07
  0.10605478D-07 -0.41329377D-08  0.39092872D-09  0.38546395D-10 -0.30327309D-04
 -0.55848211D-04 -0.96938464D-04 -0.15876705D-03 -0.24989202D-03 -0.37717892D-03
 -0.54981700D-03 -0.75501425D-03 -0.95885848D-03 -0.10326298D-02 -0.82381261D-03
 -0.18452745D-03  0.49342226D-03  0.43878779D-03  0.85697036D-04  0.23739842D-05
  0.17191586D-06  0.35109923D-08  0.48095306D-04  0.86831622D-04  0.15115732D-03
  0.24752649D-03  0.39023960D-03  0.58886083D-03  0.86184164D-03  0.11875045D-02
  0.15298240D-02  0.16838552D-02  0.14175330D-02  0.33756534D-03 -0.11370498D-02
 -0.15193370D-02 -0.18665365D-03  0.65219321D-03  0.28790088D-03 -0.14288003D-05
 -0.23909300D-04 -0.51799232D-04 -0.88181406D-04 -0.14394321D-03 -0.22693265D-03
 -0.34245411D-03 -0.50121065D-03 -0.69138868D-03 -0.89181912D-03 -0.98592032D-03
 -0.83500141D-03 -0.20282739D-03  0.70369154D-03  0.99317991D-03  0.11850004D-03
 -0.55692294D-03 -0.44517932D-03  0.16865498D-03  0.23386853D-03 -0.32939100D-03
 -0.19356774D-03  0.61977445D-18  0.88828052D-18  0.11730085D-17  0.13483142D-17
  0.12403647D-17  0.79349530D-18  0.27465950D-18  0.30878295D-19  0.39284718D-21
  0.68073628D-22  0.69563840D-24 -0.39645428D-18 -0.56821093D-18 -0.75034433D-18
 -0.86248298D-18 -0.79343043D-18 -0.50757918D-18 -0.17569284D-18 -0.19752077D-19
 -0.25129456D-21 -0.43545005D-22 -0.44498256D-24  0.32688379D-02  0.46850028D-02
  0.61867260D-02  0.71113296D-02  0.65419787D-02  0.41850830D-02  0.14486196D-02
  0.16285948D-03  0.20719695D-05  0.35903651D-06  0.36689624D-08 -0.25677535D-17
 -0.37037821D-17 -0.49329585D-17 -0.58379749D-17 -0.56100747D-17 -0.38561069D-17
 -0.12140750D-17  0.58675150D-18  0.60214907D-18  0.15164348D-18 -0.16533417D-21
  0.24125523D-17  0.34799166D-17  0.46347986D-17  0.54851137D-17  0.52709883D-17
  0.36230345D-17  0.11406934D-17 -0.55128683D-18 -0.56575373D-18 -0.14247779D-18
  0.15534097D-21 -0.13362116D-01 -0.19273800D-01 -0.25670208D-01 -0.30379747D-01
 -0.29193796D-01 -0.20066470D-01 -0.63178230D-02  0.30533468D-02  0.31334729D-02
  0.78912477D-03 -0.86036858D-06  0.17446666D-17  0.25292204D-17  0.33569076D-17
  0.40061480D-17  0.38489572D-17  0.26940649D-17  0.81344895D-18 -0.49795211D-18
 -0.53553860D-18 -0.14402385D-18  0.53687392D-19 -0.16838230D-17 -0.24410163D-17
 -0.32398387D-17 -0.38664375D-17 -0.37147285D-17 -0.26001120D-17 -0.78508070D-18
  0.48058651D-18  0.51686221D-18  0.13900115D-18 -0.51815096D-19  0.94589012D-02
  0.13712446D-01  0.18199843D-01  0.21719771D-01  0.20867544D-01  0.14606168D-01
  0.44102027D-02 -0.26997020D-02 -0.29034813D-02 -0.78084109D-03  0.29107209D-03
 -0.75262691D-19  0.61291733D-19 -0.36112961D-03  0.31799884D-19  0.87949867D-20
  0.25523652D-03 -0.43673534D-21  0.93104276D-21  0.12885705D-04  0.37268445D-03
  0.38576401D-03  0.32275611D-03  0.20826934D-03  0.93557437D-04  0.27317257D-04
  0.46085887D-05  0.37268445D-03  0.38576401D-03  0.32275611D-03  0.20826934D-03
  0.93557437D-04  0.27317257D-04  0.46085887D-05 -0.74536889D-03 -0.77152803D-03
 -0.64551223D-03 -0.41653869D-03 -0.18711487D-03 -0.54634515D-04 -0.92171775D-05
 -0.87166859D-18 -0.90226028D-18 -0.75489162D-18 -0.48711946D-18 -0.21882072D-18
 -0.63892109D-19 -0.10778990D-19 -0.17022083D-17 -0.17619483D-17 -0.14741644D-17
 -0.95125466D-18 -0.42731660D-18 -0.12476953D-18 -0.21049384D-19  0.38520473D-18
  0.39872370D-18  0.33359906D-18  0.21526613D-18  0.96700486D-19  0.28234977D-19
  0.47634137D-20 -0.54514058D-04 -0.54514058D-04  0.10902812D-03  0.37093217D-19
  0.11813973D-18 -0.41730351D-19  0.99925767D-04  0.99925767D-04 -0.19985153D-03
 -0.92559732D-20 -0.91913783D-19  0.50935478D-19  0.15816823D-04  0.15816823D-04
 -0.31633646D-04  0.65702559D-20 -0.82948199D-20 -0.27847702D-20  0.90164546D-21
  0.88383544D-20  0.25831217D-04  0.18797056D-20  0.96153176D-20 -0.38746825D-04
 -0.45846420D-20 -0.36130381D-19 -0.38746825D-04  0.17891563D-19 -0.73547246D-20
  0.19773202D-20  0.34215075D-04 -0.75263996D-20  0.17237271D-20 -0.51322612D-04
  0.29590573D-19 -0.76556877D-20 -0.51322612D-04 -0.12200760D-19
MO    3     MO 0.0        OCC NO =    2.0000000  ORB. ENERGY =  -57.919654
  0.11629380D-04  0.21753437D-04  0.37567209D-04  0.60680835D-04  0.91384088D-04
  0.12428193D-03  0.14148238D-03  0.11462013D-03  0.46526574D-04  0.42425836D-05
 -0.16304343D-06  0.54520549D-07  0.30595696D-08 -0.27171118D-04 -0.50856852D-04
 -0.87958881D-04 -0.14296126D-03 -0.21872956D-03 -0.31039237D-03 -0.38936145D-03
 -0.39698773D-03 -0.24391715D-03  0.53159748D-04  0.19471629D-03  0.89056376D-04
 -0.47271613D-06  0.18273211D-04  0.34177283D-04  0.59185794D-04  0.96096853D-04
  0.14750673D-03  0.20952672D-03  0.26581788D-03  0.27519333D-03  0.17725794D-03
 -0.43597514D-04 -0.17771688D-03 -0.15500005D-03  0.78996092D-04  0.16093946D-03
  0.12784265D-02  0.20109637D-03 -0.73948834D-15 -0.97542323D-15 -0.10834556D-14
 -0.92728528D-15 -0.52984336D-15 -0.17194572D-15 -0.12107194D-18  0.36951119D-15
  0.48740430D-15  0.54138645D-15  0.46335049D-15  0.26475475D-15  0.85918687D-16
  0.60497828D-19  0.16315056D-02  0.21520400D-02  0.23903878D-02  0.20458350D-02
  0.11689737D-02  0.37935744D-03  0.26711653D-06 -0.46905220D-17 -0.64142285D-17
 -0.69729124D-17 -0.64007690D-17 -0.34886790D-17 -0.14721555D-17  0.50772859D-18
  0.75316811D-18  0.10299477D-17  0.11196569D-17  0.10277865D-17  0.56018537D-18
  0.23638747D-18 -0.81527170D-19 -0.14732048D-02 -0.20145886D-02 -0.21900608D-02
 -0.20103613D-02 -0.10957285D-02 -0.46237639D-03  0.15946801D-03 -0.51903068D-18
  0.62990007D-18  0.10296463D-03 -0.34538259D-20 -0.28947137D-19  0.38563493D-03
  0.23203917D-21 -0.11013363D-20  0.84368438D-05  0.13361671D-05  0.13361671D-05
 -0.26723343D-05 -0.19927719D-19  0.15828041D-19 -0.74147717D-20  0.39216603D-04
  0.39216603D-04 -0.78433206D-04  0.18257183D-19 -0.28811031D-19  0.18590034D-19
 -0.43250497D-05 -0.43250497D-05  0.86500993D-05  0.35081084D-20 -0.18806205D-20
 -0.79000228D-20 -0.64067637D-20 -0.72333890D-20 -0.41482593D-04 -0.58657956D-20
 -0.60653756D-20  0.62223890D-04  0.25086087D-19  0.27765543D-19  0.62223890D-04
 -0.72294700D-20 -0.65798353D-21  0.75660705D-21 -0.70217971D-05 -0.70928751D-21
  0.55439902D-21  0.10532696D-04  0.26832381D-20 -0.28242202D-20  0.10532696D-04
 -0.88772291D-20  0.43415787D-03  0.81120374D-03  0.14069313D-02  0.23049129D-02
  0.36093105D-02  0.54202219D-02  0.77307883D-02  0.10213938D-01  0.11779181D-01
  0.10601640D-01  0.59477839D-02  0.14379086D-02  0.68264772D-04 -0.11682154D-05
  0.32856866D-06 -0.12804268D-06  0.12111376D-07  0.11942072D-08 -0.24618562D+00
 -0.45335465D+00 -0.78690979D+00 -0.12888108D+01 -0.20285289D+01 -0.30617958D+01
 -0.44632064D+01 -0.61289201D+01 -0.77836504D+01 -0.83824978D+01 -0.66873992D+01
 -0.14979241D+01  0.40054153D+01  0.35619134D+01  0.69565612D+00  0.19271106D-01
  0.13955480D-02  0.28500907D-04  0.15589949D-02  0.28146210D-02  0.48997192D-02
  0.80234970D-02  0.12649500D-01  0.19087747D-01  0.27936339D-01  0.38492604D-01
  0.49588787D-01  0.54581661D-01  0.45948908D-01  0.10942079D-01 -0.36857130D-01
 -0.49248852D-01 -0.60503222D-02  0.21140648D-01  0.93322207D-02 -0.46314133D-04
 -0.53552201D-03 -0.11602025D-02 -0.19750927D-02 -0.32240491D-02 -0.50828518D-02
 -0.76703090D-02 -0.11226148D-01 -0.15485768D-01 -0.19975021D-01 -0.22082706D-01
 -0.18702414D-01 -0.45429407D-02  0.15761328D-01  0.22245307D-01  0.26541715D-02
 -0.12473995D-01 -0.99711546D-02  0.37775450D-02 -0.37591084D-02 -0.19826124D-02
 -0.42396316D-03  0.32896646D-14  0.47148524D-14  0.62261434D-14  0.71566380D-14
  0.65836596D-14  0.42117474D-14  0.14578491D-14  0.16389710D-15  0.20851706D-17
  0.36132404D-18  0.36923385D-20 -0.12724743D-14 -0.18237508D-14 -0.24083330D-14
 -0.27682573D-14 -0.25466237D-14 -0.16291449D-14 -0.56391025D-15 -0.63396996D-16
 -0.80656432D-18 -0.13976366D-18 -0.14282325D-20 -0.53930124D-02 -0.77294374D-02
 -0.10207019D-01 -0.11732453D-01 -0.10793124D-01 -0.69046569D-02 -0.23899696D-02
 -0.26868973D-03 -0.34183883D-05 -0.59234761D-06 -0.60531480D-08 -0.28534839D-16
 -0.41159258D-16 -0.54818806D-16 -0.64876040D-16 -0.62343438D-16 -0.42852007D-16
 -0.13491730D-16  0.65204312D-17  0.66915408D-17  0.16851783D-17 -0.18373197D-20
  0.24698578D-16  0.35625752D-16  0.47448893D-16  0.56154019D-16  0.53961903D-16
  0.37090926D-16  0.11677884D-16 -0.56438158D-17 -0.57919211D-17 -0.14586207D-17
  0.15903080D-20  0.21994760D-01  0.31725708D-01  0.42254539D-01  0.50006692D-01
  0.48054553D-01  0.33030486D-01  0.10399475D-01 -0.50259726D-02 -0.51578644D-02
 -0.12989417D-02  0.14162128D-05 -0.17477801D-17 -0.25337342D-17 -0.33628984D-17
 -0.40132975D-17 -0.38558262D-17 -0.26988728D-17 -0.81490065D-18  0.49884077D-18
  0.53649434D-18  0.14428088D-18 -0.53783204D-19 -0.86284754D-17 -0.12508589D-16
 -0.16602023D-16 -0.19812926D-16 -0.19035518D-16 -0.13323848D-16 -0.40230176D-17
  0.24626869D-17  0.26485758D-17  0.71228867D-18 -0.26551798D-18 -0.16155375D-01
 -0.23420237D-01 -0.31084508D-01 -0.37096386D-01 -0.35640820D-01 -0.24946674D-01
 -0.75324267D-02  0.46109688D-02  0.49590146D-02  0.13336412D-02 -0.49713795D-03
 -0.47733966D-18  0.70495938D-18  0.28597367D-03  0.22510382D-19  0.87445155D-19
  0.68357951D-03 -0.14003700D-20 -0.10903663D-20  0.22681079D-04  0.25794098D-02
  0.26699356D-02  0.22338476D-02  0.14414661D-02  0.64752626D-03  0.18906719D-03
  0.31896794D-04  0.25794098D-02  0.26699356D-02  0.22338476D-02  0.14414661D-02
  0.64752626D-03  0.18906719D-03  0.31896794D-04 -0.51588195D-02 -0.53398712D-02
 -0.44676953D-02 -0.28829321D-02 -0.12950525D-02 -0.37813438D-03 -0.63793587D-04
  0.89582245D-15  0.92726184D-15  0.77580961D-15  0.50061750D-15  0.22488422D-15
  0.65662554D-16  0.11077675D-16 -0.53830183D-16 -0.55719383D-16 -0.46618582D-16
 -0.30082224D-16 -0.13513346D-16 -0.39456784D-17 -0.66566012D-18 -0.24026042D-16
 -0.24869249D-16 -0.20807286D-16 -0.13426608D-16 -0.60314159D-17 -0.17610758D-17
 -0.29710428D-18 -0.12486224D-03 -0.12486224D-03  0.24972448D-03 -0.35362564D-17
  0.24840551D-18 -0.12321779D-19  0.35275046D-04  0.35275046D-04 -0.70550092D-04
  0.37313563D-18 -0.15624610D-20  0.23587780D-19  0.33529755D-04  0.33529755D-04
 -0.67059510D-04 -0.23450496D-19 -0.15926937D-20 -0.18529715D-19  0.72515099D-20
  0.13360973D-19 -0.75154313D-04  0.14118827D-19 -0.11235362D-20  0.11273147D-03
 -0.35873357D-19 -0.38959382D-19  0.11273147D-03  0.24535863D-19 -0.57627405D-21
 -0.27690075D-20  0.29873797D-04 -0.16602733D-20 -0.83992396D-21 -0.44810696D-04
  0.33890955D-20  0.91469466D-20 -0.44810696D-04 -0.11585586D-19
MO    4     MO 0.0        OCC NO =    2.0000000  ORB. ENERGY =  -51.911038
 -0.19975081D-16 -0.37364558D-16 -0.64526913D-16 -0.10422779D-15 -0.15696490D-15
 -0.21347152D-15 -0.24301569D-15 -0.19687603D-15 -0.79915871D-16 -0.72872282D-17
  0.28004980D-18 -0.93646636D-19 -0.52552370D-20  0.41813697D-16  0.78263727D-16
  0.13536013D-15  0.22000342D-15  0.33660343D-15  0.47766354D-15  0.59918924D-15
  0.61092534D-15  0.37536468D-15 -0.81807660D-16 -0.29964935D-15 -0.13704906D-15
  0.72746395D-18 -0.23187643D-16 -0.43368987D-16 -0.75103334D-16 -0.12194132D-15
 -0.18717746D-15 -0.26587724D-15 -0.33730745D-15 -0.34920435D-15 -0.22493003D-15
  0.55322712D-16  0.22551240D-15  0.19668605D-15 -0.10024145D-15  0.38514482D-16