 Molden2AIM, Version 4.0.0 (06/02/2016)           Time: Thu Jun 28 06:57:44 2018
GAUSSIAN             32 MOL ORBITALS    524 PRIMITIVES        4 NUCLEI
  Al   1    (CENTRE  1)   0.00000000 -0.00000567  0.00000000  CHARGE = 13.0
  Cl   2    (CENTRE  2)   0.00000000  3.96290119  0.00000000  CHARGE = 17.0
  Cl   3    (CENTRE  3)   3.43195996 -1.98144776  0.00000000  CHARGE = 17.0
  Cl   4    (CENTRE  4)  -3.43195996 -1.98144776  0.00000000  CHARGE = 17.0
CENTRE ASSIGNMENTS    1  1  1  1  1  1  1  1  1  1  1  1  1  1  1  1  1  1  1  1
CENTRE ASSIGNMENTS    1  1  1  1  1  1  1  1  1  1  1  1  1  1  1  1  1  1  1  1
CENTRE ASSIGNMENTS    1  1  1  1  1  1  1  1  1  1  1  1  1  1  1  1  1  1  1  1
CENTRE ASSIGNMENTS    1  1  1  1  1  1  1  1  1  1  1  1  1  1  1  1  1  1  1  1
CENTRE ASSIGNMENTS    1  1  1  1  1  1  1  1  1  1  1  1  1  1  1  1  1  1  1  1
CENTRE ASSIGNMENTS    1  1  1  1  1  1  1  1  1  1  1  1  1  1  1  1  1  1  1  1
CENTRE ASSIGNMENTS    1  1  1  1  1  1  1  1  1  1  1  2  2  2  2  2  2  2  2  2
CENTRE ASSIGNMENTS    2  2  2  2  2  2  2  2  2  2  2  2  2  2  2  2  2  2  2  2
CENTRE ASSIGNMENTS    2  2  2  2  2  2  2  2  2  2  2  2  2  2  2  2  2  2  2  2
CENTRE ASSIGNMENTS    2  2  2  2  2  2  2  2  2  2  2  2  2  2  2  2  2  2  2  2
CENTRE ASSIGNMENTS    2  2  2  2  2  2  2  2  2  2  2  2  2  2  2  2  2  2  2  2
CENTRE ASSIGNMENTS    2  2  2  2  2  2  2  2  2  2  2  2  2  2  2  2  2  2  2  2
CENTRE ASSIGNMENTS    2  2  2  2  2  2  2  2  2  2  2  2  2  2  2  2  2  2  2  2
CENTRE ASSIGNMENTS    2  2  3  3  3  3  3  3  3  3  3  3  3  3  3  3  3  3  3  3
CENTRE ASSIGNMENTS    3  3  3  3  3  3  3  3  3  3  3  3  3  3  3  3  3  3  3  3
CENTRE ASSIGNMENTS    3  3  3  3  3  3  3  3  3  3  3  3  3  3  3  3  3  3  3  3
CENTRE ASSIGNMENTS    3  3  3  3  3  3  3  3  3  3  3  3  3  3  3  3  3  3  3  3
CENTRE ASSIGNMENTS    3  3  3  3  3  3  3  3  3  3  3  3  3  3  3  3  3  3  3  3
CENTRE ASSIGNMENTS    3  3  3  3  3  3  3  3  3  3  3  3  3  3  3  3  3  3  3  3
CENTRE ASSIGNMENTS    3  3  3  3  3  3  3  3  3  3  3  3  3  4  4  4  4  4  4  4
CENTRE ASSIGNMENTS    4  4  4  4  4  4  4  4  4  4  4  4  4  4  4  4  4  4  4  4
CENTRE ASSIGNMENTS    4  4  4  4  4  4  4  4  4  4  4  4  4  4  4  4  4  4  4  4
CENTRE ASSIGNMENTS    4  4  4  4  4  4  4  4  4  4  4  4  4  4  4  4  4  4  4  4
CENTRE ASSIGNMENTS    4  4  4  4  4  4  4  4  4  4  4  4  4  4  4  4  4  4  4  4
CENTRE ASSIGNMENTS    4  4  4  4  4  4  4  4  4  4  4  4  4  4  4  4  4  4  4  4
CENTRE ASSIGNMENTS    4  4  4  4  4  4  4  4  4  4  4  4  4  4  4  4  4  4  4  4
CENTRE ASSIGNMENTS    4  4  4  4
TYPE ASSIGNMENTS      1  1  1  1  1  1  1  1  1  1  1  1  1  1  1  1  1  1  1  1
TYPE ASSIGNMENTS      1  1  1  1  1  1  1  1  1  1  1  1  1  1  1  1  1  1  1  1
TYPE ASSIGNMENTS      1  1  2  2  2  2  2  2  2  3  3  3  3  3  3  3  4  4  4  4
TYPE ASSIGNMENTS      4  4  4  2  2  2  2  2  2  2  3  3  3  3  3  3  3  4  4  4
TYPE ASSIGNMENTS      4  4  4  4  2  3  4  2  3  4  2  3  4  5  6  7  8  9 10  5
TYPE ASSIGNMENTS      6  7  8  9 10  5  6  7  8  9 10 11 12 13 17 14 15 18 19 16
TYPE ASSIGNMENTS     20 11 12 13 17 14 15 18 19 16 20  1  1  1  1  1  1  1  1  1
TYPE ASSIGNMENTS      1  1  1  1  1  1  1  1  1  1  1  1  1  1  1  1  1  1  1  1
TYPE ASSIGNMENTS      1  1  1  1  1  1  1  1  1  1  1  1  1  2  2  2  2  2  2  2
TYPE ASSIGNMENTS      3  3  3  3  3  3  3  4  4  4  4  4  4  4  2  2  2  2  2  2
TYPE ASSIGNMENTS      2  3  3  3  3  3  3  3  4  4  4  4  4  4  4  2  3  4  2  3
TYPE ASSIGNMENTS      4  2  3  4  5  6  7  8  9 10  5  6  7  8  9 10  5  6  7  8
TYPE ASSIGNMENTS      9 10 11 12 13 17 14 15 18 19 16 20 11 12 13 17 14 15 18 19
TYPE ASSIGNMENTS     16 20  1  1  1  1  1  1  1  1  1  1  1  1  1  1  1  1  1  1
TYPE ASSIGNMENTS      1  1  1  1  1  1  1  1  1  1  1  1  1  1  1  1  1  1  1  1
TYPE ASSIGNMENTS      1  1  1  1  2  2  2  2  2  2  2  3  3  3  3  3  3  3  4  4
TYPE ASSIGNMENTS      4  4  4  4  4  2  2  2  2  2  2  2  3  3  3  3  3  3  3  4
TYPE ASSIGNMENTS      4  4  4  4  4  4  2  3  4  2  3  4  2  3  4  5  6  7  8  9
TYPE ASSIGNMENTS     10  5  6  7  8  9 10  5  6  7  8  9 10 11 12 13 17 14 15 18
TYPE ASSIGNMENTS     19 16 20 11 12 13 17 14 15 18 19 16 20  1  1  1  1  1  1  1
TYPE ASSIGNMENTS      1  1  1  1  1  1  1  1  1  1  1  1  1  1  1  1  1  1  1  1
TYPE ASSIGNMENTS      1  1  1  1  1  1  1  1  1  1  1  1  1  1  1  2  2  2  2  2
TYPE ASSIGNMENTS      2  2  3  3  3  3  3  3  3  4  4  4  4  4  4  4  2  2  2  2
TYPE ASSIGNMENTS      2  2  2  3  3  3  3  3  3  3  4  4  4  4  4  4  4  2  3  4
TYPE ASSIGNMENTS      2  3  4  2  3  4  5  6  7  8  9 10  5  6  7  8  9 10  5  6
TYPE ASSIGNMENTS      7  8  9 10 11 12 13 17 14 15 18 19 16 20 11 12 13 17 14 15
TYPE ASSIGNMENTS     18 19 16 20
EXPONENTS  0.2055000D+06 0.3078000D+05 0.7006000D+04 0.1985000D+04 0.6491000D+03
EXPONENTS  0.2350000D+03 0.9162000D+02 0.3767000D+02 0.1591000D+02 0.5850000D+01
EXPONENTS  0.2542000D+01 0.1057000D+01 0.1455000D+00 0.2055000D+06 0.3078000D+05
EXPONENTS  0.7006000D+04 0.1985000D+04 0.6491000D+03 0.2350000D+03 0.9162000D+02
EXPONENTS  0.3767000D+02 0.1591000D+02 0.5850000D+01 0.2542000D+01 0.1057000D+01
EXPONENTS  0.1455000D+00 0.2055000D+06 0.3078000D+05 0.7006000D+04 0.1985000D+04
EXPONENTS  0.6491000D+03 0.2350000D+03 0.9162000D+02 0.3767000D+02 0.1591000D+02
EXPONENTS  0.5850000D+01 0.2542000D+01 0.1057000D+01 0.1455000D+00 0.2931000D+00
EXPONENTS  0.5650000D-01 0.2210000D-01 0.4444000D+03 0.1051000D+03 0.3347000D+02
EXPONENTS  0.1233000D+02 0.4869000D+01 0.1961000D+01 0.1888000D+00 0.4444000D+03
EXPONENTS  0.1051000D+03 0.3347000D+02 0.1233000D+02 0.4869000D+01 0.1961000D+01
EXPONENTS  0.1888000D+00 0.4444000D+03 0.1051000D+03 0.3347000D+02 0.1233000D+02
EXPONENTS  0.4869000D+01 0.1961000D+01 0.1888000D+00 0.4444000D+03 0.1051000D+03
EXPONENTS  0.3347000D+02 0.1233000D+02 0.4869000D+01 0.1961000D+01 0.1888000D+00
EXPONENTS  0.4444000D+03 0.1051000D+03 0.3347000D+02 0.1233000D+02 0.4869000D+01
EXPONENTS  0.1961000D+01 0.1888000D+00 0.4444000D+03 0.1051000D+03 0.3347000D+02
EXPONENTS  0.1233000D+02 0.4869000D+01 0.1961000D+01 0.1888000D+00 0.7834000D+00
EXPONENTS  0.7834000D+00 0.7834000D+00 0.5557000D-01 0.5557000D-01 0.5557000D-01
EXPONENTS  0.1460000D-01 0.1460000D-01 0.1460000D-01 0.1090000D+00 0.1090000D+00
EXPONENTS  0.1090000D+00 0.1090000D+00 0.1090000D+00 0.1090000D+00 0.3330000D+00
EXPONENTS  0.3330000D+00 0.3330000D+00 0.3330000D+00 0.3330000D+00 0.3330000D+00
EXPONENTS  0.3560000D-01 0.3560000D-01 0.3560000D-01 0.3560000D-01 0.3560000D-01
EXPONENTS  0.3560000D-01 0.2440000D+00 0.2440000D+00 0.2440000D+00 0.2440000D+00
EXPONENTS  0.2440000D+00 0.2440000D+00 0.2440000D+00 0.2440000D+00 0.2440000D+00
EXPONENTS  0.2440000D+00 0.8580000D-01 0.8580000D-01 0.8580000D-01 0.8580000D-01
EXPONENTS  0.8580000D-01 0.8580000D-01 0.8580000D-01 0.8580000D-01 0.8580000D-01
EXPONENTS  0.8580000D-01 0.4561000D+06 0.6833000D+05 0.1555000D+05 0.4405000D+04
EXPONENTS  0.1439000D+04 0.5204000D+03 0.2031000D+03 0.8396000D+02 0.3620000D+02
EXPONENTS  0.1583000D+02 0.6334000D+01 0.2694000D+01 0.4313000D+00 0.4561000D+06
EXPONENTS  0.6833000D+05 0.1555000D+05 0.4405000D+04 0.1439000D+04 0.5204000D+03
EXPONENTS  0.2031000D+03 0.8396000D+02 0.3620000D+02 0.1583000D+02 0.6334000D+01
EXPONENTS  0.2694000D+01 0.4313000D+00 0.4561000D+06 0.6833000D+05 0.1555000D+05
EXPONENTS  0.4405000D+04 0.1439000D+04 0.5204000D+03 0.2031000D+03 0.8396000D+02
EXPONENTS  0.3620000D+02 0.1583000D+02 0.6334000D+01 0.2694000D+01 0.4313000D+00
EXPONENTS  0.9768000D+00 0.1625000D+00 0.5910000D-01 0.6633000D+03 0.1568000D+03
EXPONENTS  0.4998000D+02 0.1842000D+02 0.7240000D+01 0.2922000D+01 0.3818000D+00
EXPONENTS  0.6633000D+03 0.1568000D+03 0.4998000D+02 0.1842000D+02 0.7240000D+01
EXPONENTS  0.2922000D+01 0.3818000D+00 0.6633000D+03 0.1568000D+03 0.4998000D+02
EXPONENTS  0.1842000D+02 0.7240000D+01 0.2922000D+01 0.3818000D+00 0.6633000D+03
EXPONENTS  0.1568000D+03 0.4998000D+02 0.1842000D+02 0.7240000D+01 0.2922000D+01
EXPONENTS  0.3818000D+00 0.6633000D+03 0.1568000D+03 0.4998000D+02 0.1842000D+02
EXPONENTS  0.7240000D+01 0.2922000D+01 0.3818000D+00 0.6633000D+03 0.1568000D+03
EXPONENTS  0.4998000D+02 0.1842000D+02 0.7240000D+01 0.2922000D+01 0.3818000D+00
EXPONENTS  0.1022000D+01 0.1022000D+01 0.1022000D+01 0.1301000D+00 0.1301000D+00
EXPONENTS  0.1301000D+00 0.4190000D-01 0.4190000D-01 0.4190000D-01 0.1046000D+01
EXPONENTS  0.1046000D+01 0.1046000D+01 0.1046000D+01 0.1046000D+01 0.1046000D+01
EXPONENTS  0.3440000D+00 0.3440000D+00 0.3440000D+00 0.3440000D+00 0.3440000D+00
EXPONENTS  0.3440000D+00 0.1350000D+00 0.1350000D+00 0.1350000D+00 0.1350000D+00
EXPONENTS  0.1350000D+00 0.1350000D+00 0.7060000D+00 0.7060000D+00 0.7060000D+00
EXPONENTS  0.7060000D+00 0.7060000D+00 0.7060000D+00 0.7060000D+00 0.7060000D+00
EXPONENTS  0.7060000D+00 0.7060000D+00 0.3120000D+00 0.3120000D+00 0.3120000D+00
EXPONENTS  0.3120000D+00 0.3120000D+00 0.3120000D+00 0.3120000D+00 0.3120000D+00
EXPONENTS  0.3120000D+00 0.3120000D+00 0.4561000D+06 0.6833000D+05 0.1555000D+05
EXPONENTS  0.4405000D+04 0.1439000D+04 0.5204000D+03 0.2031000D+03 0.8396000D+02
EXPONENTS  0.3620000D+02 0.1583000D+02 0.6334000D+01 0.2694000D+01 0.4313000D+00
EXPONENTS  0.4561000D+06 0.6833000D+05 0.1555000D+05 0.4405000D+04 0.1439000D+04
EXPONENTS  0.5204000D+03 0.2031000D+03 0.8396000D+02 0.3620000D+02 0.1583000D+02
EXPONENTS  0.6334000D+01 0.2694000D+01 0.4313000D+00 0.4561000D+06 0.6833000D+05
EXPONENTS  0.1555000D+05 0.4405000D+04 0.1439000D+04 0.5204000D+03 0.2031000D+03
EXPONENTS  0.8396000D+02 0.3620000D+02 0.1583000D+02 0.6334000D+01 0.2694000D+01
EXPONENTS  0.4313000D+00 0.9768000D+00 0.1625000D+00 0.5910000D-01 0.6633000D+03
EXPONENTS  0.1568000D+03 0.4998000D+02 0.1842000D+02 0.7240000D+01 0.2922000D+01
EXPONENTS  0.3818000D+00 0.6633000D+03 0.1568000D+03 0.4998000D+02 0.1842000D+02
EXPONENTS  0.7240000D+01 0.2922000D+01 0.3818000D+00 0.6633000D+03 0.1568000D+03
EXPONENTS  0.4998000D+02 0.1842000D+02 0.7240000D+01 0.2922000D+01 0.3818000D+00
EXPONENTS  0.6633000D+03 0.1568000D+03 0.4998000D+02 0.1842000D+02 0.7240000D+01
EXPONENTS  0.2922000D+01 0.3818000D+00 0.6633000D+03 0.1568000D+03 0.4998000D+02
EXPONENTS  0.1842000D+02 0.7240000D+01 0.2922000D+01 0.3818000D+00 0.6633000D+03
EXPONENTS  0.1568000D+03 0.4998000D+02 0.1842000D+02 0.7240000D+01 0.2922000D+01
EXPONENTS  0.3818000D+00 0.1022000D+01 0.1022000D+01 0.1022000D+01 0.1301000D+00
EXPONENTS  0.1301000D+00 0.1301000D+00 0.4190000D-01 0.4190000D-01 0.4190000D-01
EXPONENTS  0.1046000D+01 0.1046000D+01 0.1046000D+01 0.1046000D+01 0.1046000D+01
EXPONENTS  0.1046000D+01 0.3440000D+00 0.3440000D+00 0.3440000D+00 0.3440000D+00
EXPONENTS  0.3440000D+00 0.3440000D+00 0.1350000D+00 0.1350000D+00 0.1350000D+00
EXPONENTS  0.1350000D+00 0.1350000D+00 0.1350000D+00 0.7060000D+00 0.7060000D+00
EXPONENTS  0.7060000D+00 0.7060000D+00 0.7060000D+00 0.7060000D+00 0.7060000D+00
EXPONENTS  0.7060000D+00 0.7060000D+00 0.7060000D+00 0.3120000D+00 0.3120000D+00
EXPONENTS  0.3120000D+00 0.3120000D+00 0.3120000D+00 0.3120000D+00 0.3120000D+00
EXPONENTS  0.3120000D+00 0.3120000D+00 0.3120000D+00 0.4561000D+06 0.6833000D+05
EXPONENTS  0.1555000D+05 0.4405000D+04 0.1439000D+04 0.5204000D+03 0.2031000D+03
EXPONENTS  0.8396000D+02 0.3620000D+02 0.1583000D+02 0.6334000D+01 0.2694000D+01
EXPONENTS  0.4313000D+00 0.4561000D+06 0.6833000D+05 0.1555000D+05 0.4405000D+04
EXPONENTS  0.1439000D+04 0.5204000D+03 0.2031000D+03 0.8396000D+02 0.3620000D+02
EXPONENTS  0.1583000D+02 0.6334000D+01 0.2694000D+01 0.4313000D+00 0.4561000D+06
EXPONENTS  0.6833000D+05 0.1555000D+05 0.4405000D+04 0.1439000D+04 0.5204000D+03
EXPONENTS  0.2031000D+03 0.8396000D+02 0.3620000D+02 0.1583000D+02 0.6334000D+01
EXPONENTS  0.2694000D+01 0.4313000D+00 0.9768000D+00 0.1625000D+00 0.5910000D-01
EXPONENTS  0.6633000D+03 0.1568000D+03 0.4998000D+02 0.1842000D+02 0.7240000D+01
EXPONENTS  0.2922000D+01 0.3818000D+00 0.6633000D+03 0.1568000D+03 0.4998000D+02
EXPONENTS  0.1842000D+02 0.7240000D+01 0.2922000D+01 0.3818000D+00 0.6633000D+03
EXPONENTS  0.1568000D+03 0.4998000D+02 0.1842000D+02 0.7240000D+01 0.2922000D+01
EXPONENTS  0.3818000D+00 0.6633000D+03 0.1568000D+03 0.4998000D+02 0.1842000D+02
EXPONENTS  0.7240000D+01 0.2922000D+01 0.3818000D+00 0.6633000D+03 0.1568000D+03
EXPONENTS  0.4998000D+02 0.1842000D+02 0.7240000D+01 0.2922000D+01 0.3818000D+00
EXPONENTS  0.6633000D+03 0.1568000D+03 0.4998000D+02 0.1842000D+02 0.7240000D+01
EXPONENTS  0.2922000D+01 0.3818000D+00 0.1022000D+01 0.1022000D+01 0.1022000D+01
EXPONENTS  0.1301000D+00 0.1301000D+00 0.1301000D+00 0.4190000D-01 0.4190000D-01
EXPONENTS  0.4190000D-01 0.1046000D+01 0.1046000D+01 0.1046000D+01 0.1046000D+01
EXPONENTS  0.1046000D+01 0.1046000D+01 0.3440000D+00 0.3440000D+00 0.3440000D+00
EXPONENTS  0.3440000D+00 0.3440000D+00 0.3440000D+00 0.1350000D+00 0.1350000D+00
EXPONENTS  0.1350000D+00 0.1350000D+00 0.1350000D+00 0.1350000D+00 0.7060000D+00
EXPONENTS  0.7060000D+00 0.7060000D+00 0.7060000D+00 0.7060000D+00 0.7060000D+00
EXPONENTS  0.7060000D+00 0.7060000D+00 0.7060000D+00 0.7060000D+00 0.3120000D+00
EXPONENTS  0.3120000D+00 0.3120000D+00 0.3120000D+00 0.3120000D+00 0.3120000D+00
EXPONENTS  0.3120000D+00 0.3120000D+00 0.3120000D+00 0.3120000D+00
MO    1     MO 0.0        OCC NO =    2.0000000  ORB. ENERGY = -102.684363
  0.91235184D-04  0.17057818D-03  0.29452327D-03  0.47509277D-03  0.71303442D-03
  0.96147587D-03  0.10758055D-02  0.83927375D-03  0.31569781D-03  0.23286723D-04
 -0.13731651D-05  0.37923302D-06  0.23687213D-07 -0.18740104D-03 -0.35096267D-03
 -0.60603584D-03 -0.98586776D-03 -0.15007837D-02 -0.21232133D-02 -0.26182662D-02
 -0.26245046D-02 -0.14765699D-02  0.52538519D-03  0.12443655D-02  0.50104195D-03
 -0.29710695D-05  0.10980904D-03  0.20547763D-03  0.35531446D-03  0.57729662D-03
  0.88186780D-03  0.12483075D-02  0.15571607D-02  0.15832111D-02  0.93342468D-03
 -0.37233066D-03 -0.98479535D-03 -0.80423590D-03  0.42956828D-03 -0.14026965D-03
  0.83568802D-03  0.45542966D-06 -0.77180126D-12 -0.10218959D-11 -0.11454703D-11
 -0.10086306D-11 -0.60578432D-12 -0.22024751D-12 -0.28239164D-15 -0.67066321D-03
 -0.88798504D-03 -0.99536610D-03 -0.87645808D-03 -0.52640139D-03 -0.19138593D-03
 -0.24538659D-06  0.18750367D-16  0.24826240D-16  0.27828394D-16  0.24503969D-16
  0.14717103D-16  0.53507580D-17  0.68605056D-20  0.66856363D-12  0.93306692D-12
  0.10009745D-11  0.96319231D-12  0.53057835D-12  0.25817351D-12 -0.71696632D-13
  0.58212026D-03  0.81242403D-03  0.87155131D-03  0.83865429D-03  0.46197609D-03
  0.22479241D-03 -0.62426462D-04  0.16129394D-18  0.22510653D-18  0.24148952D-18
  0.23237441D-18  0.12800438D-18  0.62285503D-19 -0.17297130D-19  0.13319212D-13
  0.11044067D-04 -0.10819047D-18 -0.13225867D-13 -0.88612323D-05 -0.23182110D-19
  0.39156419D-15  0.44024652D-07  0.27585368D-21  0.35462435D-04  0.24379018D-04
 -0.59841453D-04  0.16635323D-13 -0.30575766D-21  0.21402291D-19  0.31297687D-04
  0.51225021D-05 -0.36420189D-04  0.30205591D-13 -0.10349445D-19 -0.22348546D-20
  0.68327856D-06  0.10265428D-05 -0.17098214D-05  0.60804432D-16  0.18127405D-22
  0.41648380D-21  0.91612770D-15  0.10833059D-05 -0.21019354D-20 -0.31222152D-14
 -0.30849550D-05  0.17374590D-20  0.37383205D-15 -0.16496270D-06  0.45683471D-20
  0.51006617D-20  0.54856900D-15  0.42585303D-05  0.12914956D-20 -0.14278808D-14
 -0.12919262D-04 -0.40687136D-20 -0.21782616D-15  0.14367100D-06  0.19422667D-21
 -0.10260906D-21  0.25977595D+00  0.48604181D+00  0.83977257D+00  0.13613693D+01
  0.20673478D+01  0.28733704D+01  0.34160229D+01  0.30427304D+01  0.15105025D+01
  0.24336615D+00  0.37363187D-02  0.66767648D-03  0.24950029D-04 -0.42364236D-03
 -0.79130310D-03 -0.13733449D-02 -0.22283807D-02 -0.34492686D-02 -0.49373147D-02
 -0.64447379D-02 -0.68679436D-02 -0.51339273D-02 -0.27101090D-03  0.34823556D-02
  0.20689193D-02 -0.77568962D-05  0.16848733D-03  0.31445733D-03  0.54649916D-03
  0.88571437D-03  0.13756531D-02  0.19706627D-02  0.26020765D-02  0.28136166D-02
  0.22059119D-02  0.10976545D-03 -0.18910242D-02 -0.19575606D-02  0.88582387D-03
 -0.11486996D-02 -0.58157056D-03 -0.20516970D-03  0.63665189D-13  0.83861343D-13
  0.92518707D-13  0.76847421D-13  0.40815532D-13  0.10527516D-13 -0.10821929D-16
 -0.12995017D-02 -0.17117354D-02 -0.18884452D-02 -0.15685708D-02 -0.83310604D-03
 -0.21488235D-03  0.22089175D-06  0.11749271D-17  0.15476427D-17  0.17074125D-17
  0.14182023D-17  0.75324171D-18  0.19428301D-18 -0.19971633D-21 -0.53662927D-13
 -0.70455489D-13 -0.80218758D-13 -0.67925949D-13 -0.38910599D-13 -0.88508113D-14
  0.41426668D-14  0.10242644D-02  0.13447840D-02  0.15311355D-02  0.12965027D-02
  0.74268666D-03  0.16893545D-03 -0.79071087D-04  0.26047781D-19  0.34198827D-19
  0.38937880D-19  0.32970998D-19  0.18887057D-19  0.42961502D-20 -0.20108347D-20
 -0.50203627D-14  0.51615490D-04 -0.18420396D-19 -0.14398003D-14  0.20188402D-03
 -0.10285961D-19  0.83168333D-16  0.95877760D-05  0.90971754D-21 -0.58988542D-05
  0.75753894D-04 -0.69855039D-04  0.93655712D-14  0.17296170D-19 -0.20015372D-19
  0.10969995D-05 -0.30642827D-04  0.29545827D-04 -0.65557059D-14 -0.30601760D-20
  0.40644372D-20  0.12952287D-04 -0.19213334D-04  0.62610468D-05  0.38026499D-14
  0.30761909D-21  0.50793099D-20 -0.48624841D-15 -0.18565449D-04  0.52357705D-20
  0.96263752D-14  0.49758937D-05 -0.30087788D-19 -0.81676300D-14  0.50720453D-04
  0.14380476D-19 -0.20097967D-20 -0.55766779D-16  0.11410506D-04 -0.97385392D-21
 -0.22587004D-14 -0.58285610D-05  0.97046769D-20  0.24260007D-14 -0.28402956D-04
 -0.67831152D-20  0.16547081D-20  0.39588066D+00  0.74069423D+00  0.12797555D+01
  0.20746330D+01  0.31504957D+01  0.43788185D+01  0.52057836D+01  0.46369116D+01
  0.23019018D+01  0.37087325D+00  0.56938923D-02  0.10174930D-02  0.38022125D-04
 -0.60794274D-03 -0.11355497D-02 -0.19708017D-02 -0.31978102D-02 -0.49498304D-02
 -0.70852325D-02 -0.92484416D-02 -0.98557577D-02 -0.73673790D-02 -0.38891085D-03
  0.49973114D-02  0.29689771D-02 -0.11131438D-04  0.23725794D-03  0.44280776D-03
  0.76956092D-03  0.12472319D-02  0.19371463D-02  0.27750181D-02  0.36641528D-02
  0.39620360D-02  0.31062876D-02  0.15456784D-03 -0.26628739D-02 -0.27565681D-02
  0.12473861D-02 -0.16960607D-02 -0.75083567D-03 -0.22401564D-03 -0.13075414D-02
 -0.17223254D-02 -0.19001284D-02 -0.15782751D-02 -0.83826024D-03 -0.21621177D-03
  0.22225835D-06  0.86570609D-03  0.11403292D-02  0.12580503D-02  0.10449553D-02
  0.55500117D-03  0.14315099D-03 -0.14715435D-06 -0.53712016D-17 -0.70750779D-17
 -0.78054684D-17 -0.64833387D-17 -0.34434587D-17 -0.88816844D-18  0.91300697D-21
  0.99861177D-03  0.13111041D-02  0.14927884D-02  0.12640319D-02  0.72408615D-03
  0.16470448D-03 -0.77090760D-04 -0.66864383D-03 -0.87788033D-03 -0.99953134D-03
 -0.84636209D-03 -0.48482879D-03 -0.11028173D-03  0.51617919D-04  0.26386815D-17
  0.34643954D-17  0.39444691D-17  0.33400144D-17  0.19132888D-17  0.43520683D-18
 -0.20370075D-18  0.40792931D-04 -0.32702336D-04  0.59433654D-18  0.22134413D-03
 -0.13424019D-03  0.78819785D-19  0.98333969D-05 -0.43645638D-05  0.15343299D-20
  0.80499320D-04  0.54979319D-05 -0.85997252D-04 -0.12142821D-03 -0.49105354D-19
  0.76356078D-19 -0.35126853D-04 -0.24607864D-05  0.37587640D-04  0.51268328D-04
  0.19564072D-19 -0.21967837D-19 -0.15592305D-04  0.50778818D-05  0.10514423D-04
  0.40728820D-04 -0.18729438D-19  0.14581162D-19 -0.14290328D-04 -0.78992991D-05
  0.17153068D-19 -0.19623236D-04  0.63130052D-04 -0.29387674D-19  0.62494220D-04
 -0.39432154D-04 -0.22071530D-19  0.39921636D-19  0.86376157D-05  0.57504794D-05
 -0.51308971D-20  0.10147147D-04 -0.39032532D-04  0.12187886D-19 -0.36059994D-04
  0.21781094D-04  0.32048056D-20 -0.14872320D-19  0.39588066D+00  0.74069423D+00
  0.12797555D+01  0.20746330D+01  0.31504957D+01  0.43788185D+01  0.52057836D+01
  0.46369116D+01  0.23019018D+01  0.37087325D+00  0.56938923D-02  0.10174930D-02
  0.38022125D-04 -0.60794274D-03 -0.11355498D-02 -0.19708017D-02 -0.31978102D-02
 -0.49498304D-02 -0.70852325D-02 -0.92484416D-02 -0.98557577D-02 -0.73673790D-02
 -0.38891085D-03  0.49973114D-02  0.29689771D-02 -0.11131438D-04  0.23725794D-03
  0.44280776D-03  0.76956092D-03  0.12472319D-02  0.19371464D-02  0.27750181D-02
  0.36641528D-02  0.39620360D-02  0.31062876D-02  0.15456784D-03 -0.26628739D-02
 -0.27565681D-02  0.12473861D-02 -0.16960607D-02 -0.75083567D-03 -0.22401564D-03
  0.13075414D-02  0.17223254D-02  0.19001284D-02  0.15782751D-02  0.83826024D-03
  0.21621177D-03 -0.22225835D-06  0.86570609D-03  0.11403292D-02  0.12580503D-02
  0.10449553D-02  0.55500117D-03  0.14315099D-03 -0.14715435D-06 -0.19107786D-16
 -0.25169243D-16 -0.27767571D-16 -0.23064160D-16 -0.12249936D-16 -0.31596157D-17
  0.32479775D-20 -0.99861177D-03 -0.13111041D-02 -0.14927884D-02 -0.12640319D-02
 -0.72408615D-03 -0.16470448D-03  0.77090760D-04 -0.66864383D-03 -0.87788033D-03
 -0.99953134D-03 -0.84636209D-03 -0.48482879D-03 -0.11028173D-03  0.51617919D-04
  0.45755046D-17  0.60073021D-17  0.68397554D-17  0.57916239D-17  0.33176652D-17
  0.75465372D-18 -0.35321947D-18 -0.40792931D-04 -0.32702336D-04  0.12352275D-17
 -0.22134413D-03 -0.13424019D-03  0.84089571D-19 -0.98333969D-05 -0.43645638D-05
  0.91901388D-21  0.80499320D-04  0.54979319D-05 -0.85997252D-04  0.12142821D-03
  0.98664028D-19  0.82844109D-20 -0.35126853D-04 -0.24607864D-05  0.37587640D-04
 -0.51268328D-04 -0.29085670D-19 -0.16300883D-19 -0.15592305D-04  0.50778818D-05
  0.10514423D-04 -0.40728820D-04  0.17479448D-19  0.12997493D-19  0.14290328D-04
 -0.78992991D-05  0.68920265D-20  0.19623236D-04  0.63130052D-04 -0.13479820D-19
 -0.62494220D-04 -0.39432155D-04 -0.71962601D-20 -0.30187324D-19 -0.86376157D-05
  0.57504794D-05 -0.33414055D-20 -0.10147147D-04 -0.39032532D-04  0.70054486D-20
  0.36059994D-04  0.21781094D-04  0.30187679D-20  0.97881607D-20
MO    2     MO 0.0        OCC NO =    2.0000000  ORB. ENERGY = -102.684359
 -0.15004451D-12 -0.28053124D-12 -0.48437015D-12 -0.78133304D-12 -0.11726496D-11
 -0.15812340D-11 -0.17692595D-11 -0.13802616D-11 -0.51919361D-12 -0.38297122D-13
  0.22582942D-14 -0.62368300D-15 -0.38955764D-16  0.30810918D-12  0.57702358D-12
  0.99639363D-12  0.16208816D-11  0.24674635D-11  0.34908104D-11  0.43047352D-11
  0.43149918D-11  0.24276532D-11 -0.86379456D-12 -0.20458821D-11 -0.82377142D-12
  0.48847849D-14 -0.18045486D-12 -0.33767199D-12 -0.58390659D-12 -0.94870131D-12
 -0.14492188D-11 -0.20514081D-11 -0.25589626D-11 -0.26017724D-11 -0.15339449D-11
  0.61187018D-12  0.16183650D-11  0.13216423D-11 -0.70593171D-12  0.23826465D-12
 -0.13828796D-11 -0.11870287D-14  0.37242811D-02  0.49310979D-02  0.55273991D-02
  0.48670871D-02  0.29231762D-02  0.10627913D-02  0.13626641D-05 -0.36920751D-10
 -0.48884559D-10 -0.54796005D-10 -0.48249987D-10 -0.28978979D-10 -0.10536007D-10
 -0.13508803D-13 -0.27402595D-15 -0.36282138D-15 -0.40669615D-15 -0.35811158D-15
 -0.21508209D-15 -0.78198285D-16 -0.10026239D-18 -0.32325825D-02 -0.45114865D-02
 -0.48398272D-02 -0.46571462D-02 -0.25654077D-02 -0.12482988D-02  0.34666151D-03
  0.32043644D-10  0.44721045D-10  0.47975791D-10  0.46164928D-10  0.25430136D-10
  0.12374020D-10 -0.34363541D-11  0.36614768D-16  0.51100640D-16  0.54819685D-16
  0.52750496D-16  0.29057823D-16  0.14139212D-16 -0.39265605D-17 -0.61341585D-04
  0.61068457D-12  0.15536410D-16  0.49206934D-04 -0.49004666D-12 -0.52120618D-18
 -0.24446241D-06  0.23410595D-14 -0.10693322D-21  0.24830680D-12 -0.34870537D-12
  0.10039857D-12 -0.61550007D-04 -0.45768841D-19 -0.15030882D-19  0.68977987D-12
 -0.74894035D-12  0.59160485D-13 -0.14535848D-03 -0.21602507D-19 -0.55416024D-20
 -0.12366951D-13  0.94108596D-14  0.29560914D-14  0.19061496D-05 -0.14280048D-20
 -0.16818367D-20 -0.22870134D-06  0.23053624D-15 -0.19496230D-19 -0.22862160D-06
  0.65904710D-14  0.22800321D-19  0.91472562D-06 -0.72820797D-14  0.35688368D-19
 -0.28453377D-20  0.19943135D-06 -0.94071637D-14 -0.11550138D-20  0.19960726D-06
  0.20312493D-13  0.24059946D-20 -0.79790132D-06  0.79089974D-14  0.10590468D-20
  0.56478900D-20 -0.55644328D-08 -0.10411075D-07 -0.17988031D-07 -0.29160697D-07
 -0.44282844D-07 -0.61547946D-07 -0.73171629D-07 -0.65175659D-07 -0.32355149D-07
 -0.52129328D-08 -0.80032405D-10 -0.14301712D-10 -0.53443267D-12  0.76571182D-11
  0.14302397D-10  0.24822504D-10  0.40276836D-10  0.62343759D-10  0.89239427D-10
  0.11648533D-09  0.12413455D-09  0.92793099D-10  0.48983829D-11 -0.62941789D-10
 -0.37394654D-10  0.14020192D-12 -0.28749044D-11 -0.53655948D-11 -0.93249316D-11
 -0.15112971D-10 -0.23472810D-10 -0.33625478D-10 -0.44399310D-10 -0.48008824D-10
 -0.37639541D-10 -0.18729311D-11  0.32266603D-10  0.33401915D-10 -0.15114839D-10
  0.22554754D-10  0.73538831D-11  0.10315956D-11 -0.61556377D-03 -0.81083563D-03
 -0.89454165D-03 -0.74301966D-03 -0.39463579D-03 -0.10178808D-03  0.10463469D-06
  0.12129210D-10  0.15976892D-10  0.17626255D-10  0.14640631D-10  0.77759945D-11
  0.20056558D-11 -0.20617460D-14  0.10169264D-19  0.13395203D-19  0.14778047D-19
  0.12274867D-19  0.65194800D-20  0.16815641D-20 -0.17285907D-23  0.51146020D-03
  0.67150975D-03  0.76456325D-03  0.64740076D-03  0.37085608D-03  0.84356892D-04
 -0.39483668D-04 -0.82567250D-11 -0.10840475D-10 -0.12342678D-10 -0.10451273D-10
 -0.59868914D-11 -0.13618101D-11  0.63740207D-12  0.30972189D-18  0.40664213D-18
  0.46299199D-18  0.39204260D-18  0.22457709D-18  0.51083498D-19 -0.23909888D-19
  0.50831493D-04 -0.82786194D-13 -0.29814230D-19  0.35802866D-04 -0.24782056D-11
 -0.22152392D-19 -0.72897941D-05 -0.59516260D-13  0.46270352D-20  0.85856925D-12
 -0.15798152D-11  0.72124592D-12 -0.27178204D-04 -0.16021498D-19 -0.37699205D-18
 -0.39837754D-12  0.74905919D-12 -0.35068165D-12  0.17026350D-04  0.50531729D-20
  0.13777431D-18 -0.19401095D-12  0.36592536D-12 -0.17191441D-12 -0.15796803D-04
  0.21119806D-20 -0.32831765D-20  0.38968280D-05  0.69691102D-12 -0.10862108D-19
 -0.30298350D-04 -0.11307076D-11 -0.37383995D-19  0.18607866D-04 -0.96002548D-12
  0.69970319D-19  0.57490008D-19 -0.10847644D-05 -0.40831931D-12  0.13147724D-19
  0.85950659D-05  0.65830527D-12 -0.31489388D-20 -0.53407727D-05  0.56665267D-12
 -0.36294233D-19 -0.23503509D-19  0.43637080D+00  0.81645144D+00  0.14106472D+01
  0.22868237D+01  0.34727242D+01  0.48266782D+01  0.57382241D+01  0.51111687D+01
  0.25373372D+01  0.40880567D+00  0.62762560D-02  0.11215608D-02  0.41910977D-04
 -0.59089397D-03 -0.11037051D-02 -0.19155337D-02 -0.31081328D-02 -0.48110204D-02
 -0.68865386D-02 -0.89890840D-02 -0.95793690D-02 -0.71607728D-02 -0.37800447D-03
  0.48571699D-02  0.28857169D-02 -0.10819275D-04  0.22048828D-03  0.41150960D-03
  0.71516746D-03  0.11590761D-02  0.18002266D-02  0.25788766D-02  0.34051662D-02
  0.36819947D-02  0.28867316D-02  0.14364281D-03 -0.24746588D-02 -0.25617307D-02
  0.11592194D-02 -0.17549208D-02 -0.54267938D-03 -0.60417871D-04 -0.89170286D-03
 -0.11745728D-02 -0.12958289D-02 -0.10763349D-02 -0.57166761D-03 -0.14744975D-03
  0.15157333D-06  0.15934215D-03  0.20988938D-03  0.23155715D-03  0.19233483D-03
  0.10215370D-03  0.26348420D-04 -0.27085279D-07 -0.65672090D-17 -0.86504881D-17
 -0.95435149D-17 -0.79269861D-17 -0.42102149D-17 -0.10859372D-17  0.11163066D-20
  0.61348592D-03  0.80546204D-03  0.91707779D-03  0.77654381D-03  0.44483419D-03
  0.10118435D-03 -0.47359843D-04 -0.58872220D-04 -0.77294909D-04 -0.88005940D-04
 -0.74519815D-04 -0.42687819D-04 -0.97099979D-05  0.45448134D-05  0.38538928D-17
  0.50598788D-17  0.57610442D-17  0.48782156D-17  0.27944297D-17  0.63563582D-18
 -0.29751254D-18  0.12886599D-04  0.21913233D-04  0.69428902D-18  0.16701252D-03
 -0.75751971D-04  0.52694686D-19  0.12607695D-05 -0.49366497D-05 -0.45811415D-20
  0.68891774D-04 -0.17139065D-04 -0.51752709D-04 -0.17618891D-03 -0.10979868D-18
  0.47955667D-19 -0.32443390D-04  0.66609888D-05  0.25782401D-04  0.84758026D-04
  0.41308818D-19 -0.30180452D-19 -0.21013047D-04  0.73759156D-05  0.13637132D-04
  0.33373365D-04  0.13512377D-20  0.64943590D-20 -0.21484406D-04 -0.30813934D-04
 -0.17818894D-19 -0.43863867D-05  0.12144288D-03  0.11688194D-18  0.68839605D-04
 -0.29001083D-04 -0.63425260D-19 -0.91683601D-20  0.11065097D-04  0.17158874D-04
  0.12082779D-19  0.62249604D-05 -0.71152358D-04 -0.45750631D-19 -0.39420251D-04
  0.19675736D-04  0.95022951D-20  0.28972477D-20 -0.43637080D+00 -0.81645143D+00
 -0.14106472D+01 -0.22868236D+01 -0.34727241D+01 -0.48266782D+01 -0.57382241D+01
 -0.51111686D+01 -0.25373372D+01 -0.40880567D+00 -0.62762559D-02 -0.11215608D-02
 -0.41910976D-04  0.59089397D-03  0.11037051D-02  0.19155337D-02  0.31081328D-02
  0.48110204D-02  0.68865386D-02  0.89890840D-02  0.95793689D-02  0.71607727D-02
  0.37800447D-03 -0.48571698D-02 -0.28857169D-02  0.10819275D-04 -0.22048827D-03
 -0.41150959D-03 -0.71516746D-03 -0.11590761D-02 -0.18002266D-02 -0.25788765D-02
 -0.34051662D-02 -0.36819947D-02 -0.28867316D-02 -0.14364281D-03  0.24746588D-02
  0.25617306D-02 -0.11592194D-02  0.17549207D-02  0.54267937D-03  0.60417871D-04
 -0.89170286D-03 -0.11745728D-02 -0.12958289D-02 -0.10763349D-02 -0.57166761D-03
 -0.14744975D-03  0.15157333D-06 -0.15934214D-03 -0.20988936D-03 -0.23155714D-03
 -0.19233482D-03 -0.10215369D-03 -0.26348418D-04  0.27085278D-07  0.23401233D-16
  0.30824676D-16  0.34006838D-16  0.28246588D-16  0.15002449D-16  0.38695693D-17
 -0.39777857D-20  0.61348593D-03  0.80546205D-03  0.91707780D-03  0.77654381D-03
  0.44483419D-03  0.10118435D-03 -0.47359843D-04  0.58872211D-04  0.77294897D-04
  0.88005927D-04  0.74519804D-04  0.42687813D-04  0.97099965D-05 -0.45448127D-05
 -0.70501741D-17 -0.92563618D-17 -0.10539049D-16 -0.89240337D-17 -0.51120301D-17
 -0.11628095D-17  0.54425884D-18  0.12886600D-04 -0.21913234D-04 -0.14301304D-17
  0.16701252D-03  0.75751970D-04 -0.18519930D-18  0.12607695D-05  0.49366498D-05
 -0.82334060D-20 -0.68891773D-04  0.17139064D-04  0.51752709D-04 -0.17618890D-03
 -0.16118005D-18  0.16653413D-19  0.32443389D-04 -0.66609885D-05 -0.25782401D-04
  0.84758025D-04  0.31551848D-19  0.18197946D-20  0.21013047D-04 -0.73759157D-05