 Molden2AIM, Version 4.0.0 (06/02/2016)           Time: Thu Jun 28 03:22:45 2018
GAUSSIAN             23 MOL ORBITALS    450 PRIMITIVES        6 NUCLEI
  B    1    (CENTRE  1)  -1.62729230  0.00000000  0.00000000  CHARGE =  5.0
  B    2    (CENTRE  2)   1.62729230  0.00000000  0.00000000  CHARGE =  5.0
  F    3    (CENTRE  3)  -2.94555579 -2.13878258  0.00000000  CHARGE =  9.0
  F    4    (CENTRE  4)   2.94555579 -2.13878258  0.00000000  CHARGE =  9.0
  F    5    (CENTRE  5)  -2.94555579  2.13878258  0.00000000  CHARGE =  9.0
  F    6    (CENTRE  6)   2.94555579  2.13878258  0.00000000  CHARGE =  9.0
CENTRE ASSIGNMENTS    1  1  1  1  1  1  1  1  1  1  1  1  1  1  1  1  1  1  1  1
CENTRE ASSIGNMENTS    1  1  1  1  1  1  1  1  1  1  1  1  1  1  1  1  1  1  1  1
CENTRE ASSIGNMENTS    1  1  1  1  1  1  1  1  1  1  1  1  1  1  1  1  1  1  1  1
CENTRE ASSIGNMENTS    1  1  1  1  1  1  1  1  1  1  1  1  1  1  1  2  2  2  2  2
CENTRE ASSIGNMENTS    2  2  2  2  2  2  2  2  2  2  2  2  2  2  2  2  2  2  2  2
CENTRE ASSIGNMENTS    2  2  2  2  2  2  2  2  2  2  2  2  2  2  2  2  2  2  2  2
CENTRE ASSIGNMENTS    2  2  2  2  2  2  2  2  2  2  2  2  2  2  2  2  2  2  2  2
CENTRE ASSIGNMENTS    2  2  2  2  2  2  2  2  2  2  3  3  3  3  3  3  3  3  3  3
CENTRE ASSIGNMENTS    3  3  3  3  3  3  3  3  3  3  3  3  3  3  3  3  3  3  3  3
CENTRE ASSIGNMENTS    3  3  3  3  3  3  3  3  3  3  3  3  3  3  3  3  3  3  3  3
CENTRE ASSIGNMENTS    3  3  3  3  3  3  3  3  3  3  3  3  3  3  3  3  3  3  3  3
CENTRE ASSIGNMENTS    3  3  3  3  3  4  4  4  4  4  4  4  4  4  4  4  4  4  4  4
CENTRE ASSIGNMENTS    4  4  4  4  4  4  4  4  4  4  4  4  4  4  4  4  4  4  4  4
CENTRE ASSIGNMENTS    4  4  4  4  4  4  4  4  4  4  4  4  4  4  4  4  4  4  4  4
CENTRE ASSIGNMENTS    4  4  4  4  4  4  4  4  4  4  4  4  4  4  4  4  4  4  4  4
CENTRE ASSIGNMENTS    5  5  5  5  5  5  5  5  5  5  5  5  5  5  5  5  5  5  5  5
CENTRE ASSIGNMENTS    5  5  5  5  5  5  5  5  5  5  5  5  5  5  5  5  5  5  5  5
CENTRE ASSIGNMENTS    5  5  5  5  5  5  5  5  5  5  5  5  5  5  5  5  5  5  5  5
CENTRE ASSIGNMENTS    5  5  5  5  5  5  5  5  5  5  5  5  5  5  5  6  6  6  6  6
CENTRE ASSIGNMENTS    6  6  6  6  6  6  6  6  6  6  6  6  6  6  6  6  6  6  6  6
CENTRE ASSIGNMENTS    6  6  6  6  6  6  6  6  6  6  6  6  6  6  6  6  6  6  6  6
CENTRE ASSIGNMENTS    6  6  6  6  6  6  6  6  6  6  6  6  6  6  6  6  6  6  6  6
CENTRE ASSIGNMENTS    6  6  6  6  6  6  6  6  6  6
TYPE ASSIGNMENTS      1  1  1  1  1  1  1  1  1  1  1  1  1  1  1  1  1  1  1  2
TYPE ASSIGNMENTS      2  2  3  3  3  4  4  4  2  3  4  2  3  4  2  3  4  5  6  7
TYPE ASSIGNMENTS      8  9 10  5  6  7  8  9 10  5  6  7  8  9 10 11 12 13 17 14
TYPE ASSIGNMENTS     15 18 19 16 20 11 12 13 17 14 15 18 19 16 20  1  1  1  1  1
TYPE ASSIGNMENTS      1  1  1  1  1  1  1  1  1  1  1  1  1  1  2  2  2  3  3  3
TYPE ASSIGNMENTS      4  4  4  2  3  4  2  3  4  2  3  4  5  6  7  8  9 10  5  6
TYPE ASSIGNMENTS      7  8  9 10  5  6  7  8  9 10 11 12 13 17 14 15 18 19 16 20
TYPE ASSIGNMENTS     11 12 13 17 14 15 18 19 16 20  1  1  1  1  1  1  1  1  1  1
TYPE ASSIGNMENTS      1  1  1  1  1  1  1  1  1  2  2  2  3  3  3  4  4  4  2  3
TYPE ASSIGNMENTS      4  2  3  4  2  3  4  5  6  7  8  9 10  5  6  7  8  9 10  5
TYPE ASSIGNMENTS      6  7  8  9 10 11 12 13 17 14 15 18 19 16 20 11 12 13 17 14
TYPE ASSIGNMENTS     15 18 19 16 20  1  1  1  1  1  1  1  1  1  1  1  1  1  1  1
TYPE ASSIGNMENTS      1  1  1  1  2  2  2  3  3  3  4  4  4  2  3  4  2  3  4  2
TYPE ASSIGNMENTS      3  4  5  6  7  8  9 10  5  6  7  8  9 10  5  6  7  8  9 10
TYPE ASSIGNMENTS     11 12 13 17 14 15 18 19 16 20 11 12 13 17 14 15 18 19 16 20
TYPE ASSIGNMENTS      1  1  1  1  1  1  1  1  1  1  1  1  1  1  1  1  1  1  1  2
TYPE ASSIGNMENTS      2  2  3  3  3  4  4  4  2  3  4  2  3  4  2  3  4  5  6  7
TYPE ASSIGNMENTS      8  9 10  5  6  7  8  9 10  5  6  7  8  9 10 11 12 13 17 14
TYPE ASSIGNMENTS     15 18 19 16 20 11 12 13 17 14 15 18 19 16 20  1  1  1  1  1
TYPE ASSIGNMENTS      1  1  1  1  1  1  1  1  1  1  1  1  1  1  2  2  2  3  3  3
TYPE ASSIGNMENTS      4  4  4  2  3  4  2  3  4  2  3  4  5  6  7  8  9 10  5  6
TYPE ASSIGNMENTS      7  8  9 10  5  6  7  8  9 10 11 12 13 17 14 15 18 19 16 20
TYPE ASSIGNMENTS     11 12 13 17 14 15 18 19 16 20
EXPONENTS  0.5473000D+04 0.8209000D+03 0.1868000D+03 0.5283000D+02 0.1708000D+02
EXPONENTS  0.5999000D+01 0.2208000D+01 0.2415000D+00 0.5473000D+04 0.8209000D+03
EXPONENTS  0.1868000D+03 0.5283000D+02 0.1708000D+02 0.5999000D+01 0.2208000D+01
EXPONENTS  0.2415000D+00 0.5879000D+00 0.8610000D-01 0.2914000D-01 0.1205000D+02
EXPONENTS  0.2613000D+01 0.7475000D+00 0.1205000D+02 0.2613000D+01 0.7475000D+00
EXPONENTS  0.1205000D+02 0.2613000D+01 0.7475000D+00 0.2385000D+00 0.2385000D+00
EXPONENTS  0.2385000D+00 0.7698000D-01 0.7698000D-01 0.7698000D-01 0.2096000D-01
EXPONENTS  0.2096000D-01 0.2096000D-01 0.6610000D+00 0.6610000D+00 0.6610000D+00
EXPONENTS  0.6610000D+00 0.6610000D+00 0.6610000D+00 0.1990000D+00 0.1990000D+00
EXPONENTS  0.1990000D+00 0.1990000D+00 0.1990000D+00 0.1990000D+00 0.6040000D-01
EXPONENTS  0.6040000D-01 0.6040000D-01 0.6040000D-01 0.6040000D-01 0.6040000D-01
EXPONENTS  0.4900000D+00 0.4900000D+00 0.4900000D+00 0.4900000D+00 0.4900000D+00
EXPONENTS  0.4900000D+00 0.4900000D+00 0.4900000D+00 0.4900000D+00 0.4900000D+00
EXPONENTS  0.1630000D+00 0.1630000D+00 0.1630000D+00 0.1630000D+00 0.1630000D+00
EXPONENTS  0.1630000D+00 0.1630000D+00 0.1630000D+00 0.1630000D+00 0.1630000D+00
EXPONENTS  0.5473000D+04 0.8209000D+03 0.1868000D+03 0.5283000D+02 0.1708000D+02
EXPONENTS  0.5999000D+01 0.2208000D+01 0.2415000D+00 0.5473000D+04 0.8209000D+03
EXPONENTS  0.1868000D+03 0.5283000D+02 0.1708000D+02 0.5999000D+01 0.2208000D+01
EXPONENTS  0.2415000D+00 0.5879000D+00 0.8610000D-01 0.2914000D-01 0.1205000D+02
EXPONENTS  0.2613000D+01 0.7475000D+00 0.1205000D+02 0.2613000D+01 0.7475000D+00
EXPONENTS  0.1205000D+02 0.2613000D+01 0.7475000D+00 0.2385000D+00 0.2385000D+00
EXPONENTS  0.2385000D+00 0.7698000D-01 0.7698000D-01 0.7698000D-01 0.2096000D-01
EXPONENTS  0.2096000D-01 0.2096000D-01 0.6610000D+00 0.6610000D+00 0.6610000D+00
EXPONENTS  0.6610000D+00 0.6610000D+00 0.6610000D+00 0.1990000D+00 0.1990000D+00
EXPONENTS  0.1990000D+00 0.1990000D+00 0.1990000D+00 0.1990000D+00 0.6040000D-01
EXPONENTS  0.6040000D-01 0.6040000D-01 0.6040000D-01 0.6040000D-01 0.6040000D-01
EXPONENTS  0.4900000D+00 0.4900000D+00 0.4900000D+00 0.4900000D+00 0.4900000D+00
EXPONENTS  0.4900000D+00 0.4900000D+00 0.4900000D+00 0.4900000D+00 0.4900000D+00
EXPONENTS  0.1630000D+00 0.1630000D+00 0.1630000D+00 0.1630000D+00 0.1630000D+00
EXPONENTS  0.1630000D+00 0.1630000D+00 0.1630000D+00 0.1630000D+00 0.1630000D+00
EXPONENTS  0.1950000D+05 0.2923000D+04 0.6645000D+03 0.1875000D+03 0.6062000D+02
EXPONENTS  0.2142000D+02 0.7950000D+01 0.8815000D+00 0.1950000D+05 0.2923000D+04
EXPONENTS  0.6645000D+03 0.1875000D+03 0.6062000D+02 0.2142000D+02 0.7950000D+01
EXPONENTS  0.8815000D+00 0.2257000D+01 0.3041000D+00 0.9158000D-01 0.4388000D+02
EXPONENTS  0.9926000D+01 0.2930000D+01 0.4388000D+02 0.9926000D+01 0.2930000D+01
EXPONENTS  0.4388000D+02 0.9926000D+01 0.2930000D+01 0.9132000D+00 0.9132000D+00
EXPONENTS  0.9132000D+00 0.2672000D+00 0.2672000D+00 0.2672000D+00 0.7361000D-01
EXPONENTS  0.7361000D-01 0.7361000D-01 0.3107000D+01 0.3107000D+01 0.3107000D+01
EXPONENTS  0.3107000D+01 0.3107000D+01 0.3107000D+01 0.8550000D+00 0.8550000D+00
EXPONENTS  0.8550000D+00 0.8550000D+00 0.8550000D+00 0.8550000D+00 0.2920000D+00
EXPONENTS  0.2920000D+00 0.2920000D+00 0.2920000D+00 0.2920000D+00 0.2920000D+00
EXPONENTS  0.1917000D+01 0.1917000D+01 0.1917000D+01 0.1917000D+01 0.1917000D+01
EXPONENTS  0.1917000D+01 0.1917000D+01 0.1917000D+01 0.1917000D+01 0.1917000D+01
EXPONENTS  0.7240000D+00 0.7240000D+00 0.7240000D+00 0.7240000D+00 0.7240000D+00
EXPONENTS  0.7240000D+00 0.7240000D+00 0.7240000D+00 0.7240000D+00 0.7240000D+00
EXPONENTS  0.1950000D+05 0.2923000D+04 0.6645000D+03 0.1875000D+03 0.6062000D+02
EXPONENTS  0.2142000D+02 0.7950000D+01 0.8815000D+00 0.1950000D+05 0.2923000D+04
EXPONENTS  0.6645000D+03 0.1875000D+03 0.6062000D+02 0.2142000D+02 0.7950000D+01
EXPONENTS  0.8815000D+00 0.2257000D+01 0.3041000D+00 0.9158000D-01 0.4388000D+02
EXPONENTS  0.9926000D+01 0.2930000D+01 0.4388000D+02 0.9926000D+01 0.2930000D+01
EXPONENTS  0.4388000D+02 0.9926000D+01 0.2930000D+01 0.9132000D+00 0.9132000D+00
EXPONENTS  0.9132000D+00 0.2672000D+00 0.2672000D+00 0.2672000D+00 0.7361000D-01
EXPONENTS  0.7361000D-01 0.7361000D-01 0.3107000D+01 0.3107000D+01 0.3107000D+01
EXPONENTS  0.3107000D+01 0.3107000D+01 0.3107000D+01 0.8550000D+00 0.8550000D+00
EXPONENTS  0.8550000D+00 0.8550000D+00 0.8550000D+00 0.8550000D+00 0.2920000D+00
EXPONENTS  0.2920000D+00 0.2920000D+00 0.2920000D+00 0.2920000D+00 0.2920000D+00
EXPONENTS  0.1917000D+01 0.1917000D+01 0.1917000D+01 0.1917000D+01 0.1917000D+01
EXPONENTS  0.1917000D+01 0.1917000D+01 0.1917000D+01 0.1917000D+01 0.1917000D+01
EXPONENTS  0.7240000D+00 0.7240000D+00 0.7240000D+00 0.7240000D+00 0.7240000D+00
EXPONENTS  0.7240000D+00 0.7240000D+00 0.7240000D+00 0.7240000D+00 0.7240000D+00
EXPONENTS  0.1950000D+05 0.2923000D+04 0.6645000D+03 0.1875000D+03 0.6062000D+02
EXPONENTS  0.2142000D+02 0.7950000D+01 0.8815000D+00 0.1950000D+05 0.2923000D+04
EXPONENTS  0.6645000D+03 0.1875000D+03 0.6062000D+02 0.2142000D+02 0.7950000D+01
EXPONENTS  0.8815000D+00 0.2257000D+01 0.3041000D+00 0.9158000D-01 0.4388000D+02
EXPONENTS  0.9926000D+01 0.2930000D+01 0.4388000D+02 0.9926000D+01 0.2930000D+01
EXPONENTS  0.4388000D+02 0.9926000D+01 0.2930000D+01 0.9132000D+00 0.9132000D+00
EXPONENTS  0.9132000D+00 0.2672000D+00 0.2672000D+00 0.2672000D+00 0.7361000D-01
EXPONENTS  0.7361000D-01 0.7361000D-01 0.3107000D+01 0.3107000D+01 0.3107000D+01
EXPONENTS  0.3107000D+01 0.3107000D+01 0.3107000D+01 0.8550000D+00 0.8550000D+00
EXPONENTS  0.8550000D+00 0.8550000D+00 0.8550000D+00 0.8550000D+00 0.2920000D+00
EXPONENTS  0.2920000D+00 0.2920000D+00 0.2920000D+00 0.2920000D+00 0.2920000D+00
EXPONENTS  0.1917000D+01 0.1917000D+01 0.1917000D+01 0.1917000D+01 0.1917000D+01
EXPONENTS  0.1917000D+01 0.1917000D+01 0.1917000D+01 0.1917000D+01 0.1917000D+01
EXPONENTS  0.7240000D+00 0.7240000D+00 0.7240000D+00 0.7240000D+00 0.7240000D+00
EXPONENTS  0.7240000D+00 0.7240000D+00 0.7240000D+00 0.7240000D+00 0.7240000D+00
EXPONENTS  0.1950000D+05 0.2923000D+04 0.6645000D+03 0.1875000D+03 0.6062000D+02
EXPONENTS  0.2142000D+02 0.7950000D+01 0.8815000D+00 0.1950000D+05 0.2923000D+04
EXPONENTS  0.6645000D+03 0.1875000D+03 0.6062000D+02 0.2142000D+02 0.7950000D+01
EXPONENTS  0.8815000D+00 0.2257000D+01 0.3041000D+00 0.9158000D-01 0.4388000D+02
EXPONENTS  0.9926000D+01 0.2930000D+01 0.4388000D+02 0.9926000D+01 0.2930000D+01
EXPONENTS  0.4388000D+02 0.9926000D+01 0.2930000D+01 0.9132000D+00 0.9132000D+00
EXPONENTS  0.9132000D+00 0.2672000D+00 0.2672000D+00 0.2672000D+00 0.7361000D-01
EXPONENTS  0.7361000D-01 0.7361000D-01 0.3107000D+01 0.3107000D+01 0.3107000D+01
EXPONENTS  0.3107000D+01 0.3107000D+01 0.3107000D+01 0.8550000D+00 0.8550000D+00
EXPONENTS  0.8550000D+00 0.8550000D+00 0.8550000D+00 0.8550000D+00 0.2920000D+00
EXPONENTS  0.2920000D+00 0.2920000D+00 0.2920000D+00 0.2920000D+00 0.2920000D+00
EXPONENTS  0.1917000D+01 0.1917000D+01 0.1917000D+01 0.1917000D+01 0.1917000D+01
EXPONENTS  0.1917000D+01 0.1917000D+01 0.1917000D+01 0.1917000D+01 0.1917000D+01
EXPONENTS  0.7240000D+00 0.7240000D+00 0.7240000D+00 0.7240000D+00 0.7240000D+00
EXPONENTS  0.7240000D+00 0.7240000D+00 0.7240000D+00 0.7240000D+00 0.7240000D+00
MO    1     MO 0.0        OCC NO =    2.0000000  ORB. ENERGY =  -25.280727
  0.67475998D-12  0.12573710D-11  0.21190180D-11  0.31615574D-11  0.38295285D-11
  0.31864531D-11  0.11834652D-11 -0.62827681D-14 -0.52317287D-12 -0.97722715D-12
 -0.16632455D-11 -0.25437505D-11 -0.33082984D-11 -0.33487480D-11 -0.22049807D-11
  0.15072260D-11  0.21480979D-12  0.67445284D-12 -0.25233914D-13 -0.32600820D-12
 -0.29381664D-12 -0.21332994D-12  0.11429318D-03  0.10300735D-03  0.74790013D-04
 -0.33749845D-16 -0.30417229D-16 -0.22084881D-16 -0.21521065D-11  0.13205886D-02
  0.42989059D-16 -0.59115477D-12  0.60639583D-03 -0.15907925D-16  0.90867351D-15
 -0.78128881D-05  0.22166349D-18 -0.17680964D-12  0.10470864D-11 -0.87027681D-12
 -0.10422788D-02 -0.12093526D-16  0.94150433D-17 -0.14936564D-12  0.29262486D-12
 -0.14325922D-12 -0.42226948D-03  0.36895001D-17  0.28185922D-17 -0.61243821D-14
  0.11354890D-13 -0.52305081D-14  0.62956126D-05 -0.27821374D-18  0.44049897D-19
  0.46147412D-13  0.42355461D-04  0.37205757D-16 -0.53801549D-12  0.15301910D-03
 -0.40985638D-16  0.39957325D-12 -0.28008549D-03 -0.70631634D-16  0.20289820D-16
  0.14161390D-13  0.11104822D-04  0.18538915D-18 -0.71519621D-13  0.85819779D-05
 -0.29528648D-18  0.29035450D-13 -0.41896444D-04 -0.26088098D-18 -0.20190624D-21
 -0.24341598D-13 -0.45358974D-13 -0.76442417D-13 -0.11405146D-12 -0.13814815D-12
 -0.11494956D-12 -0.42692863D-13  0.22664743D-15  0.21980630D-13  0.41057306D-13
  0.69879742D-13  0.10687335D-12  0.13899514D-12  0.14069459D-12  0.92640251D-13
 -0.63324723D-13 -0.28064488D-12  0.96372752D-12  0.62698289D-13  0.16952625D-12
  0.15278644D-12  0.11093287D-12 -0.11429318D-03 -0.10300734D-03 -0.74790010D-04
 -0.10415231D-17 -0.93867825D-18 -0.68154128D-18 -0.76921925D-12 -0.13205886D-02
  0.14397180D-18 -0.39352264D-12 -0.60639582D-03  0.37270717D-18 -0.15742220D-14
  0.78128880D-05  0.14768180D-19  0.13339857D-12 -0.12819656D-12 -0.52020146D-14
 -0.10422788D-02  0.58219240D-18  0.34374232D-18  0.23045119D-12 -0.13724595D-12
 -0.93205240D-13 -0.42226948D-03 -0.42663882D-18  0.20112887D-18  0.12951681D-13
 -0.10375265D-13 -0.25764159D-14  0.62956128D-05 -0.55365452D-19  0.15072147D-19
 -0.21043702D-13 -0.42355461D-04  0.23057325D-18 -0.15664260D-13 -0.15301910D-03
 -0.63365267D-18  0.78795367D-13  0.28008548D-03 -0.58067089D-19 -0.29475168D-18
 -0.11599292D-13 -0.11104822D-04 -0.20631219D-19  0.30101311D-13 -0.85819781D-05
  0.97244491D-19  0.46965660D-14  0.41896444D-04 -0.35350834D-19  0.13534527D-18
 -0.29769162D+00 -0.55491008D+00 -0.94070901D+00 -0.14245107D+01 -0.17813556D+01
 -0.15335813D+01 -0.58956462D+00  0.25546800D-02 -0.98773414D-04 -0.18547898D-03
 -0.31583871D-03 -0.49475947D-03 -0.66303590D-03 -0.71318451D-03 -0.42819504D-03
  0.28159908D-03 -0.30069914D-01  0.81506043D-03  0.11159662D-02 -0.16530121D-02
 -0.16166098D-02 -0.10681624D-02 -0.29108056D-02 -0.28467043D-02 -0.18809379D-02
  0.82567134D-17  0.80748853D-17  0.53354182D-17  0.26642273D-03  0.58747846D-03
 -0.12790865D-17  0.37427012D-03  0.52916780D-03 -0.14485425D-17  0.74729047D-04
  0.65135761D-04  0.21701142D-18  0.43154853D-04 -0.51047602D-03  0.46732117D-03
 -0.10340670D-02 -0.16589170D-16 -0.19912917D-16 -0.58463643D-04  0.26068364D-03
 -0.20221999D-03  0.50617108D-03 -0.36004766D-18  0.88041162D-18  0.18275248D-04
  0.22849981D-04 -0.41125229D-04  0.89738955D-04 -0.40799833D-18 -0.15931912D-17
 -0.71491159D-04  0.12156642D-03 -0.21620767D-17  0.16577601D-04 -0.14152644D-03
  0.14709107D-17  0.19789588D-03 -0.22317283D-03  0.50153193D-17  0.21932590D-17
 -0.64338196D-06  0.64039841D-05  0.68843311D-18  0.12639356D-03  0.34238462D-04
 -0.96889023D-18 -0.12446341D-03 -0.53450415D-04 -0.10964091D-17 -0.15654455D-17
  0.29769162D+00  0.55491007D+00  0.94070900D+00  0.14245107D+01  0.17813556D+01
  0.15335812D+01  0.58956461D+00 -0.25546800D-02  0.98773412D-04  0.18547897D-03
  0.31583871D-03  0.49475946D-03  0.66303589D-03  0.71318449D-03  0.42819503D-03
 -0.28159907D-03  0.30069913D-01 -0.81506042D-03 -0.11159662D-02 -0.16530121D-02
 -0.16166097D-02 -0.10681624D-02  0.29108055D-02  0.28467042D-02  0.18809378D-02
  0.36726008D-18  0.35917234D-18  0.23732035D-18  0.26642273D-03 -0.58747845D-03
 -0.67672303D-18  0.37427011D-03 -0.52916779D-03  0.58778873D-18  0.74729046D-04
 -0.65135760D-04  0.62977486D-19 -0.43154852D-04  0.51047601D-03 -0.46732116D-03
 -0.10340669D-02 -0.21603360D-17  0.91701601D-18  0.58463642D-04 -0.26068363D-03
  0.20221999D-03  0.50617107D-03  0.69021022D-18 -0.21843652D-18 -0.18275249D-04
 -0.22849980D-04  0.41125229D-04  0.89738953D-04 -0.35033346D-18  0.22804922D-18
 -0.71491162D-04 -0.12156642D-03 -0.63834724D-19  0.16577606D-04  0.14152644D-03
 -0.40894330D-18  0.19789588D-03  0.22317282D-03  0.60044747D-18  0.23662200D-17
 -0.64338069D-06 -0.64039841D-05  0.26862471D-19  0.12639355D-03 -0.34238463D-04
  0.14242315D-18 -0.12446341D-03  0.53450415D-04 -0.22301057D-18 -0.50105650D-18
  0.29769163D+00  0.55491009D+00  0.94070902D+00  0.14245107D+01  0.17813556D+01
  0.15335813D+01  0.58956463D+00 -0.25546800D-02  0.98773415D-04  0.18547898D-03
  0.31583872D-03  0.49475948D-03  0.66303591D-03  0.71318451D-03  0.42819505D-03
 -0.28159908D-03  0.30069914D-01 -0.81506043D-03 -0.11159662D-02  0.16530121D-02
  0.16166098D-02  0.10681624D-02 -0.29108056D-02 -0.28467043D-02 -0.18809379D-02
 -0.12554071D-16 -0.12277607D-16 -0.81123342D-17 -0.26642274D-03  0.58747846D-03
 -0.14170395D-17 -0.37427012D-03  0.52916780D-03 -0.14311080D-17 -0.74729047D-04
  0.65135761D-04  0.57819002D-21 -0.43154853D-04  0.51047602D-03 -0.46732117D-03
 -0.10340670D-02  0.56975229D-17  0.10684399D-16  0.58463643D-04 -0.26068364D-03
  0.20221999D-03  0.50617108D-03 -0.15820890D-17  0.20987321D-18 -0.18275248D-04
 -0.22849981D-04  0.41125229D-04  0.89738956D-04 -0.26156096D-18  0.13045567D-17
  0.71491159D-04  0.12156642D-03  0.69569378D-18 -0.16577599D-04 -0.14152644D-03
 -0.60041534D-17 -0.19789588D-03 -0.22317283D-03  0.39170721D-17 -0.12138991D-16
  0.64338221D-06  0.64039845D-05  0.13659294D-18 -0.12639356D-03  0.34238462D-04
  0.55503762D-18  0.12446341D-03 -0.53450416D-04 -0.96481642D-18  0.24519516D-17
 -0.29769162D+00 -0.55491007D+00 -0.94070900D+00 -0.14245107D+01 -0.17813556D+01
 -0.15335812D+01 -0.58956461D+00  0.25546800D-02 -0.98773412D-04 -0.18547897D-03
 -0.31583871D-03 -0.49475946D-03 -0.66303589D-03 -0.71318449D-03 -0.42819503D-03
  0.28159907D-03 -0.30069913D-01  0.81506042D-03  0.11159662D-02  0.16530121D-02
  0.16166097D-02  0.10681624D-02  0.29108055D-02  0.28467042D-02  0.18809378D-02
 -0.70288214D-17 -0.68740338D-17 -0.45419648D-17 -0.26642273D-03 -0.58747845D-03
  0.20697756D-18 -0.37427011D-03 -0.52916779D-03 -0.11558447D-18 -0.74729046D-04
 -0.65135760D-04 -0.99600723D-19  0.43154852D-04 -0.51047601D-03  0.46732116D-03
 -0.10340669D-02 -0.22647059D-17  0.94227001D-17 -0.58463643D-04  0.26068363D-03
 -0.20221999D-03  0.50617107D-03  0.82800859D-18 -0.10956470D-17  0.18275249D-04
  0.22849980D-04 -0.41125229D-04  0.89738954D-04 -0.15406583D-18  0.27666011D-18
  0.71491162D-04 -0.12156642D-03 -0.19337941D-18 -0.16577606D-04  0.14152644D-03
  0.62283987D-18 -0.19789588D-03  0.22317282D-03 -0.42701641D-19  0.29793466D-18
  0.64338071D-06 -0.64039841D-05  0.98792834D-19 -0.12639355D-03 -0.34238463D-04
 -0.26825212D-18  0.12446341D-03  0.53450415D-04 -0.28126378D-19 -0.34395819D-19
MO    2     MO 0.0        OCC NO =    2.0000000  ORB. ENERGY =  -25.280725
 -0.81176267D-12 -0.15126666D-11 -0.25492616D-11 -0.38034773D-11 -0.46070728D-11
 -0.38334278D-11 -0.14237550D-11  0.75584160D-14  0.62943556D-12  0.11757137D-11
  0.20010707D-11  0.30604168D-11  0.39802536D-11  0.40289189D-11  0.26528388D-11
 -0.18133617D-11 -0.30832449D-12 -0.78980192D-12  0.67948338D-13  0.34549470D-12
  0.31137895D-12  0.22608131D-12 -0.17373242D-03 -0.15657727D-03 -0.11368525D-03
 -0.78744831D-16 -0.70969201D-16 -0.51528242D-16  0.27276498D-11 -0.11199772D-02
  0.57615394D-16  0.82260545D-12 -0.20691650D-03 -0.14887349D-16 -0.35023447D-15
  0.13234260D-05 -0.13798625D-18  0.22926827D-12 -0.12622593D-11  0.10329910D-11
  0.93862046D-03 -0.11404909D-15 -0.28688333D-16  0.20334715D-12 -0.35904410D-12
  0.15569696D-12  0.36112580D-03  0.16355797D-16  0.70331350D-17  0.33826110D-14
 -0.81256459D-14  0.47430349D-14  0.12857572D-04 -0.23060217D-18 -0.14675247D-17
 -0.45920549D-13 -0.10697144D-04  0.21885912D-16  0.63303954D-12 -0.13322465D-03
 -0.15666221D-16 -0.49527790D-12  0.16531608D-03 -0.49991514D-16  0.60428804D-18
 -0.16096595D-13 -0.63703237D-05  0.22007751D-18  0.90703780D-13  0.12411568D-04
 -0.40515430D-18 -0.42413995D-13  0.66994036D-05 -0.25507822D-18  0.12262941D-18
  0.13875140D-12  0.25855414D-12  0.43573524D-12  0.65011340D-12  0.78746880D-12
  0.65523271D-12  0.24335684D-12 -0.12919303D-14 -0.11017607D-12 -0.20579631D-12
 -0.35026636D-12 -0.53569374D-12 -0.69670149D-12 -0.70521984D-12 -0.46435150D-12
  0.31740987D-12  0.37100640D-12 -0.78554405D-12 -0.10794338D-12 -0.17498267D-12
 -0.15770407D-12 -0.11450338D-12 -0.17373242D-03 -0.15657727D-03 -0.11368526D-03
 -0.84852664D-18 -0.76473919D-18 -0.55525024D-18  0.13142475D-11 -0.11199772D-02
 -0.17724026D-18  0.62739069D-12 -0.20691651D-03  0.29982384D-18  0.23361716D-14
  0.13234262D-05  0.77885598D-20 -0.18937462D-12  0.30739012D-12 -0.11801551D-12
 -0.93862048D-03  0.99356218D-18  0.30164578D-18 -0.28802980D-12  0.20678246D-12
  0.81247346D-13 -0.36112581D-03 -0.74040856D-18  0.15611334D-18 -0.13147886D-13
  0.99031723D-14  0.32447133D-14 -0.12857572D-04 -0.63413535D-19  0.23942256D-19
  0.21901503D-13 -0.10697145D-04  0.38205682D-18  0.97964707D-13 -0.13322465D-03
 -0.10836440D-17 -0.16366922D-12  0.16531609D-03 -0.62526474D-19  0.36726828D-18
  0.99321240D-14 -0.63703239D-05 -0.12736083D-19 -0.12764158D-13  0.12411567D-04
  0.90268938D-19 -0.17032214D-13  0.66994045D-05 -0.52060688D-19 -0.16839037D-18
  0.29765411D+00  0.55484015D+00  0.94059046D+00  0.14243312D+01  0.17811311D+01
  0.15333880D+01  0.58949032D+00 -0.25543581D-02  0.12458642D-03  0.23395122D-03
  0.39837859D-03  0.62405770D-03  0.83631073D-03  0.89956495D-03  0.54009762D-03
 -0.35519091D-03  0.30070130D-01 -0.53366929D-03 -0.63362082D-03  0.16432744D-02
  0.16070864D-02  0.10618699D-02  0.28089773D-02  0.27471185D-02  0.18151373D-02
  0.21767518D-16  0.21288158D-16  0.14065986D-16 -0.27326296D-03 -0.49385344D-03
 -0.10225746D-17 -0.26400876D-03 -0.45217153D-03 -0.15980680D-17 -0.24510306D-04
 -0.43937345D-04  0.84715124D-19 -0.41684910D-04  0.48238701D-03 -0.44070210D-03
  0.87126020D-03 -0.74252038D-17 -0.20610791D-16  0.37711041D-04 -0.22511354D-03
  0.18740249D-03 -0.39903731D-03 -0.19786030D-18  0.20414848D-17  0.35662956D-04
 -0.40557136D-04  0.48941796D-05 -0.86494482D-04 -0.27720761D-18 -0.12435062D-17
 -0.13631943D-03 -0.10620603D-03  0.11649964D-17  0.27464629D-03  0.19476553D-04
 -0.74159383D-17  0.13431199D-03  0.29914153D-03  0.39209490D-17 -0.11828172D-17
  0.67532854D-04 -0.11174878D-04 -0.33043090D-18 -0.20243690D-03  0.26538509D-04
  0.11368295D-17 -0.16166004D-06  0.69861250D-05 -0.14553680D-18  0.96240198D-18
  0.29765412D+00  0.55484017D+00  0.94059049D+00  0.14243312D+01  0.17811312D+01
  0.15333880D+01  0.58949034D+00 -0.25543581D-02  0.12458642D-03  0.23395123D-03
  0.39837859D-03  0.62405771D-03  0.83631075D-03  0.89956497D-03  0.54009763D-03
 -0.35519092D-03  0.30070130D-01 -0.53366931D-03 -0.63362084D-03 -0.16432744D-02
 -0.16070865D-02 -0.10618700D-02  0.28089774D-02  0.27471186D-02  0.18151374D-02
  0.70957096D-18  0.69394490D-18  0.45851874D-18  0.27326297D-03 -0.49385345D-03
 -0.25208278D-18  0.26400876D-03 -0.45217155D-03  0.47282419D-18  0.24510308D-04
 -0.43937347D-04  0.12663691D-18 -0.41684911D-04  0.48238702D-03 -0.44070211D-03
 -0.87126022D-03 -0.22742344D-17 -0.13389400D-18  0.37711043D-04 -0.22511354D-03
  0.18740250D-03  0.39903732D-03  0.49498450D-18  0.20398955D-18  0.35662956D-04
 -0.40557136D-04  0.48941805D-05  0.86494484D-04 -0.57560122D-18  0.43189504D-18
  0.13631943D-03 -0.10620603D-03  0.36225684D-18 -0.27464629D-03  0.19476555D-04
 -0.77179699D-18 -0.13431199D-03  0.29914154D-03 -0.31497351D-18  0.17237314D-17
 -0.67532854D-04 -0.11174878D-04 -0.11636454D-18  0.20243690D-03  0.26538508D-04
  0.22653041D-18  0.16165730D-06  0.69861268D-05  0.12256320D-18 -0.24275197D-18
 -0.29765411D+00 -0.55484016D+00 -0.94059047D+00 -0.14243312D+01 -0.17811311D+01
 -0.15333880D+01 -0.58949033D+00  0.25543581D-02 -0.12458642D-03 -0.23395123D-03
 -0.39837859D-03 -0.62405770D-03 -0.83631074D-03 -0.89956496D-03 -0.54009762D-03
  0.35519092D-03 -0.30070130D-01  0.53366929D-03  0.63362082D-03 -0.16432744D-02
 -0.16070864D-02 -0.10618700D-02  0.28089774D-02  0.27471185D-02  0.18151373D-02
 -0.26563415D-16 -0.25978440D-16 -0.17165054D-16  0.27326297D-03 -0.49385344D-03
 -0.16693182D-17  0.26400876D-03 -0.45217154D-03  0.54793142D-18  0.24510306D-04
 -0.43937346D-04  0.18918094D-18  0.41684910D-04 -0.48238701D-03  0.44070210D-03
  0.87126021D-03 -0.18710868D-17  0.15739979D-16 -0.37711042D-04  0.22511354D-03
 -0.18740250D-03 -0.39903731D-03 -0.26776532D-18 -0.56676429D-18 -0.35662956D-04
  0.40557136D-04 -0.48941797D-05 -0.86494482D-04  0.30641119D-18 -0.22166243D-18
  0.13631943D-03 -0.10620603D-03  0.38019892D-18 -0.27464629D-03  0.19476552D-04
 -0.27972041D-17 -0.13431199D-03  0.29914153D-03  0.16566074D-17  0.13697505D-16
 -0.67532854D-04 -0.11174878D-04 -0.97026344D-19  0.20243690D-03  0.26538509D-04
  0.44188840D-18  0.16165979D-06  0.69861262D-05 -0.15080937D-18 -0.35582746D-17
 -0.29765412D+00 -0.55484017D+00 -0.94059049D+00 -0.14243312D+01 -0.17811312D+01
 -0.15333880D+01 -0.58949034D+00  0.25543581D-02 -0.12458642D-03 -0.23395123D-03
 -0.39837859D-03 -0.62405771D-03 -0.83631075D-03 -0.89956497D-03 -0.54009763D-03
  0.35519092D-03 -0.30070130D-01  0.53366931D-03  0.63362084D-03  0.16432744D-02
  0.16070865D-02  0.10618700D-02  0.28089774D-02  0.27471186D-02  0.18151374D-02
  0.12797479D-18  0.12515655D-18  0.82696227D-19 -0.27326297D-03 -0.49385345D-03
 -0.63805845D-18 -0.26400876D-03 -0.45217155D-03  0.59157240D-18 -0.24510308D-04
 -0.43937347D-04 -0.43565176D-20  0.41684911D-04 -0.48238702D-03  0.44070211D-03
 -0.87126022D-03 -0.49344329D-17  0.56284571D-17 -0.37711043D-04  0.22511354D-03
 -0.18740250D-03  0.39903732D-03  0.12747267D-17  0.37191682D-18 -0.35662956D-04
  0.40557136D-04 -0.48941804D-05  0.86494484D-04 -0.15211094D-18 -0.35005342D-18
 -0.13631943D-03 -0.10620603D-03  0.35817879D-19  0.27464629D-03  0.19476555D-04
 -0.39603375D-19  0.13431199D-03  0.29914154D-03 -0.67850263D-19  0.50320165D-18
  0.67532854D-04 -0.11174878D-04  0.57582245D-19 -0.20243690D-03  0.26538508D-04
 -0.21148190D-18 -0.16165742D-06  0.69861266D-05  0.38735165D-19 -0.98555418D-19
MO    3     MO 0.0        OCC NO =    2.0000000  ORB. ENERGY =  -25.280715
  0.24740370D-03  0.46102060D-03  0.77694723D-03  0.11591989D-02  0.14041134D-02
  0.11683270D-02  0.43392272D-03 -0.23036045D-05 -0.19255652D-03 -0.35967358D-03
 -0.61216625D-03 -0.93624072D-03 -0.12176366D-02 -0.12325243D-02 -0.81155472D-03
  0.55474243D-03  0.17705543D-03 -0.34835316D-05 -0.45637578D-04 -0.45544501D-04
 -0.41047226D-04 -0.29802948D-04 -0.50508918D-12 -0.45521433D-12 -0.33051512D-12
  0.13029920D-16  0.11743285D-16  0.85263867D-17 -0.10487480D-02 -0.39427183D-11
  0.29727713D-19 -0.37657111D-03 -0.11197200D-11 -0.50806547D-19 -0.51956725D-06
  0.12540941D-13 -0.33983289D-20 -0.10892958D-03  0.40904312D-03 -0.30011354D-03
  0.32606231D-11 -0.69757198D-19  0.26832294D-18 -0.12714762D-03  0.14611036D-03
 -0.18962744D-04  0.12507356D-11  0.42319734D-18 -0.22472544D-19 -0.43281332D-05
  0.47011395D-05 -0.37300634D-06  0.24366950D-13 -0.40787533D-19 -0.21726147D-19
  0.63229723D-05 -0.86018475D-13 -0.11030441D-18 -0.19037627D-03 -0.45385712D-12
  0.28640565D-18  0.17140735D-03  0.71191254D-12  0.44507577D-19 -0.17207672D-18
  0.16363121D-05 -0.28829192D-13 -0.86152273D-20 -0.20360947D-04  0.18049367D-13
  0.45840092D-21  0.15452011D-04  0.68438209D-13  0.25387281D-19 -0.47352071D-19
 -0.24740370D-03 -0.46102059D-03 -0.77694721D-03 -0.11591989D-02 -0.14041134D-02
 -0.11683270D-02 -0.43392271D-03  0.23036044D-05  0.19255652D-03  0.35967357D-03
  0.61216623D-03  0.93624070D-03  0.12176366D-02  0.12325242D-02  0.81155470D-03
 -0.55474242D-03 -0.17705543D-03  0.34835469D-05  0.45637578D-04 -0.45544496D-04
 -0.41047221D-04 -0.29802945D-04 -0.15919953D-12 -0.14347943D-12 -0.10417537D-12
  0.69904797D-18  0.63002073D-18  0.45743591D-18 -0.10487480D-02 -0.33663153D-12
 -0.22951023D-18 -0.37657111D-03  0.32945776D-12 -0.41781113D-20 -0.51956727D-06
 -0.74904691D-14  0.13188781D-19  0.10892958D-03 -0.40904311D-03  0.30011353D-03
 -0.32907555D-12  0.27417276D-19 -0.77169718D-19  0.12714762D-03 -0.14611036D-03
  0.18962741D-04 -0.12873603D-12  0.58958374D-18  0.27363132D-18  0.43281333D-05
 -0.47011395D-05  0.37300627D-06 -0.24885913D-13 -0.23935337D-19  0.71789794D-20
  0.63229717D-05  0.45238235D-13 -0.42947384D-19 -0.19037626D-03 -0.56222368D-13
  0.14299402D-19  0.17140735D-03 -0.79492336D-13  0.11454275D-18  0.51368890D-19
  0.16363119D-05  0.43803429D-14  0.24162217D-19 -0.20360946D-04  0.29826757D-13
 -0.11579931D-18  0.15452010D-04 -0.42967786D-13  0.43312662D-19 -0.20816654D-19
  0.29764973D+00  0.55483198D+00  0.94057661D+00  0.14243102D+01  0.17811049D+01
  0.15333654D+01  0.58948164D+00 -0.25543205D-02  0.12895275D-03  0.24215042D-03
  0.41234041D-03  0.64592881D-03  0.86562060D-03  0.93109167D-03  0.55902621D-03
 -0.36763916D-03  0.30044186D-01 -0.29242324D-03 -0.60125934D-03  0.16455313D-02
  0.16092937D-02  0.10633284D-02  0.26844398D-02  0.26253235D-02  0.17346623D-02
  0.44407790D-17  0.43429848D-17  0.28695937D-17 -0.25210306D-03 -0.40200039D-03
 -0.45542248D-18 -0.22923859D-03 -0.38372346D-03 -0.10339026D-18 -0.14326242D-04
 -0.51977134D-04 -0.67908498D-19 -0.84398563D-04  0.54495246D-03 -0.46055390D-03
  0.92924829D-03  0.25566194D-17 -0.30906329D-17  0.48213588D-04 -0.20814580D-03
  0.15993221D-03 -0.40704679D-03  0.24129163D-18 -0.21370382D-18  0.15852272D-04
 -0.48590198D-04  0.32737926D-04 -0.93548504D-04 -0.19189806D-18  0.62046422D-19
 -0.87333641D-04  0.16062359D-03  0.76182167D-18  0.25307393D-03 -0.17403330D-03
 -0.16421115D-17  0.89269936D-05 -0.30783748D-03 -0.64335348D-18  0.63873668D-18
  0.48525348D-04 -0.58675618D-04 -0.12138112D-18 -0.19391876D-03  0.19262041D-05