 Molden2AIM, Version 4.0.0 (06/02/2016)           Time: Thu Jun 28 01:46:50 2018
GAUSSIAN             21 MOL ORBITALS    612 PRIMITIVES       12 NUCLEI
  N    1    (CENTRE  1)  -4.56813701  3.78905962  0.30055338  CHARGE =  7.0
  B    2    (CENTRE  2)  -3.72915719  1.22616391  0.15936249  CHARGE =  5.0
  N    3    (CENTRE  3)  -1.07481386  0.81364804 -0.11634288  CHARGE =  7.0
  B    4    (CENTRE  4)   0.71598510  2.83041856 -0.25098020  CHARGE =  5.0
  N    5    (CENTRE  5)  -0.25016572  5.34740148 -0.09650831  CHARGE =  7.0
  B    6    (CENTRE  6)  -2.88017505  5.89352288  0.18023452  CHARGE =  5.0
  H    7    (CENTRE  7)  -6.43497855  4.12777791  0.49495518  CHARGE =  1.0
  H    8    (CENTRE  8)   0.97907655  6.80290066 -0.18675029  CHARGE =  1.0
  H    9    (CENTRE  9)  -0.43670815 -0.98064881 -0.22116977  CHARGE =  1.0
  H   10    (CENTRE 10)  -5.19394438 -0.50869160  0.26756254  CHARGE =  1.0
  H   11    (CENTRE 11)  -3.64052525  8.03202389  0.30554226  CHARGE =  1.0
  H   12    (CENTRE 12)   2.94083526  2.42677684 -0.48372453  CHARGE =  1.0
CENTRE ASSIGNMENTS    1  1  1  1  1  1  1  1  1  1  1  1  1  1  1  1  1  1  1  1
CENTRE ASSIGNMENTS    1  1  1  1  1  1  1  1  1  1  1  1  1  1  1  1  1  1  1  1
CENTRE ASSIGNMENTS    1  1  1  1  1  1  1  1  1  1  1  1  1  1  1  1  1  1  1  1
CENTRE ASSIGNMENTS    1  1  1  1  1  1  1  1  1  1  1  1  1  1  1  2  2  2  2  2
CENTRE ASSIGNMENTS    2  2  2  2  2  2  2  2  2  2  2  2  2  2  2  2  2  2  2  2
CENTRE ASSIGNMENTS    2  2  2  2  2  2  2  2  2  2  2  2  2  2  2  2  2  2  2  2
CENTRE ASSIGNMENTS    2  2  2  2  2  2  2  2  2  2  2  2  2  2  2  2  2  2  2  2
CENTRE ASSIGNMENTS    2  2  2  2  2  2  2  2  2  2  3  3  3  3  3  3  3  3  3  3
CENTRE ASSIGNMENTS    3  3  3  3  3  3  3  3  3  3  3  3  3  3  3  3  3  3  3  3
CENTRE ASSIGNMENTS    3  3  3  3  3  3  3  3  3  3  3  3  3  3  3  3  3  3  3  3
CENTRE ASSIGNMENTS    3  3  3  3  3  3  3  3  3  3  3  3  3  3  3  3  3  3  3  3
CENTRE ASSIGNMENTS    3  3  3  3  3  4  4  4  4  4  4  4  4  4  4  4  4  4  4  4
CENTRE ASSIGNMENTS    4  4  4  4  4  4  4  4  4  4  4  4  4  4  4  4  4  4  4  4
CENTRE ASSIGNMENTS    4  4  4  4  4  4  4  4  4  4  4  4  4  4  4  4  4  4  4  4
CENTRE ASSIGNMENTS    4  4  4  4  4  4  4  4  4  4  4  4  4  4  4  4  4  4  4  4
CENTRE ASSIGNMENTS    5  5  5  5  5  5  5  5  5  5  5  5  5  5  5  5  5  5  5  5
CENTRE ASSIGNMENTS    5  5  5  5  5  5  5  5  5  5  5  5  5  5  5  5  5  5  5  5
CENTRE ASSIGNMENTS    5  5  5  5  5  5  5  5  5  5  5  5  5  5  5  5  5  5  5  5
CENTRE ASSIGNMENTS    5  5  5  5  5  5  5  5  5  5  5  5  5  5  5  6  6  6  6  6
CENTRE ASSIGNMENTS    6  6  6  6  6  6  6  6  6  6  6  6  6  6  6  6  6  6  6  6
CENTRE ASSIGNMENTS    6  6  6  6  6  6  6  6  6  6  6  6  6  6  6  6  6  6  6  6
CENTRE ASSIGNMENTS    6  6  6  6  6  6  6  6  6  6  6  6  6  6  6  6  6  6  6  6
CENTRE ASSIGNMENTS    6  6  6  6  6  6  6  6  6  6  7  7  7  7  7  7  7  7  7  7
CENTRE ASSIGNMENTS    7  7  7  7  7  7  7  7  7  7  7  7  7  7  7  7  7  8  8  8
CENTRE ASSIGNMENTS    8  8  8  8  8  8  8  8  8  8  8  8  8  8  8  8  8  8  8  8
CENTRE ASSIGNMENTS    8  8  8  8  9  9  9  9  9  9  9  9  9  9  9  9  9  9  9  9
CENTRE ASSIGNMENTS    9  9  9  9  9  9  9  9  9  9  9 10 10 10 10 10 10 10 10 10
CENTRE ASSIGNMENTS   10 10 10 10 10 10 10 10 10 10 10 10 10 10 10 10 10 10 11 11
CENTRE ASSIGNMENTS   11 11 11 11 11 11 11 11 11 11 11 11 11 11 11 11 11 11 11 11
CENTRE ASSIGNMENTS   11 11 11 11 11 12 12 12 12 12 12 12 12 12 12 12 12 12 12 12
CENTRE ASSIGNMENTS   12 12 12 12 12 12 12 12 12 12 12 12
TYPE ASSIGNMENTS      1  1  1  1  1  1  1  1  1  1  1  1  1  1  1  1  1  1  1  2
TYPE ASSIGNMENTS      2  2  3  3  3  4  4  4  2  3  4  2  3  4  2  3  4  5  6  7
TYPE ASSIGNMENTS      8  9 10  5  6  7  8  9 10  5  6  7  8  9 10 11 12 13 17 14
TYPE ASSIGNMENTS     15 18 19 16 20 11 12 13 17 14 15 18 19 16 20  1  1  1  1  1
TYPE ASSIGNMENTS      1  1  1  1  1  1  1  1  1  1  1  1  1  1  2  2  2  3  3  3
TYPE ASSIGNMENTS      4  4  4  2  3  4  2  3  4  2  3  4  5  6  7  8  9 10  5  6
TYPE ASSIGNMENTS      7  8  9 10  5  6  7  8  9 10 11 12 13 17 14 15 18 19 16 20
TYPE ASSIGNMENTS     11 12 13 17 14 15 18 19 16 20  1  1  1  1  1  1  1  1  1  1
TYPE ASSIGNMENTS      1  1  1  1  1  1  1  1  1  2  2  2  3  3  3  4  4  4  2  3
TYPE ASSIGNMENTS      4  2  3  4  2  3  4  5  6  7  8  9 10  5  6  7  8  9 10  5
TYPE ASSIGNMENTS      6  7  8  9 10 11 12 13 17 14 15 18 19 16 20 11 12 13 17 14
TYPE ASSIGNMENTS     15 18 19 16 20  1  1  1  1  1  1  1  1  1  1  1  1  1  1  1
TYPE ASSIGNMENTS      1  1  1  1  2  2  2  3  3  3  4  4  4  2  3  4  2  3  4  2
TYPE ASSIGNMENTS      3  4  5  6  7  8  9 10  5  6  7  8  9 10  5  6  7  8  9 10
TYPE ASSIGNMENTS     11 12 13 17 14 15 18 19 16 20 11 12 13 17 14 15 18 19 16 20
TYPE ASSIGNMENTS      1  1  1  1  1  1  1  1  1  1  1  1  1  1  1  1  1  1  1  2
TYPE ASSIGNMENTS      2  2  3  3  3  4  4  4  2  3  4  2  3  4  2  3  4  5  6  7
TYPE ASSIGNMENTS      8  9 10  5  6  7  8  9 10  5  6  7  8  9 10 11 12 13 17 14
TYPE ASSIGNMENTS     15 18 19 16 20 11 12 13 17 14 15 18 19 16 20  1  1  1  1  1
TYPE ASSIGNMENTS      1  1  1  1  1  1  1  1  1  1  1  1  1  1  2  2  2  3  3  3
TYPE ASSIGNMENTS      4  4  4  2  3  4  2  3  4  2  3  4  5  6  7  8  9 10  5  6
TYPE ASSIGNMENTS      7  8  9 10  5  6  7  8  9 10 11 12 13 17 14 15 18 19 16 20
TYPE ASSIGNMENTS     11 12 13 17 14 15 18 19 16 20  1  1  1  1  1  1  2  3  4  2
TYPE ASSIGNMENTS      3  4  2  3  4  5  6  7  8  9 10  5  6  7  8  9 10  1  1  1
TYPE ASSIGNMENTS      1  1  1  2  3  4  2  3  4  2  3  4  5  6  7  8  9 10  5  6
TYPE ASSIGNMENTS      7  8  9 10  1  1  1  1  1  1  2  3  4  2  3  4  2  3  4  5
TYPE ASSIGNMENTS      6  7  8  9 10  5  6  7  8  9 10  1  1  1  1  1  1  2  3  4
TYPE ASSIGNMENTS      2  3  4  2  3  4  5  6  7  8  9 10  5  6  7  8  9 10  1  1
TYPE ASSIGNMENTS      1  1  1  1  2  3  4  2  3  4  2  3  4  5  6  7  8  9 10  5
TYPE ASSIGNMENTS      6  7  8  9 10  1  1  1  1  1  1  2  3  4  2  3  4  2  3  4
TYPE ASSIGNMENTS      5  6  7  8  9 10  5  6  7  8  9 10
EXPONENTS  0.1142000D+05 0.1712000D+04 0.3893000D+03 0.1100000D+03 0.3557000D+02
EXPONENTS  0.1254000D+02 0.4644000D+01 0.5118000D+00 0.1142000D+05 0.1712000D+04
EXPONENTS  0.3893000D+03 0.1100000D+03 0.3557000D+02 0.1254000D+02 0.4644000D+01
EXPONENTS  0.5118000D+00 0.1293000D+01 0.1787000D+00 0.5760000D-01 0.2663000D+02
EXPONENTS  0.5948000D+01 0.1742000D+01 0.2663000D+02 0.5948000D+01 0.1742000D+01
EXPONENTS  0.2663000D+02 0.5948000D+01 0.1742000D+01 0.5550000D+00 0.5550000D+00
EXPONENTS  0.5550000D+00 0.1725000D+00 0.1725000D+00 0.1725000D+00 0.4910000D-01
EXPONENTS  0.4910000D-01 0.4910000D-01 0.1654000D+01 0.1654000D+01 0.1654000D+01
EXPONENTS  0.1654000D+01 0.1654000D+01 0.1654000D+01 0.4690000D+00 0.4690000D+00
EXPONENTS  0.4690000D+00 0.4690000D+00 0.4690000D+00 0.4690000D+00 0.1510000D+00
EXPONENTS  0.1510000D+00 0.1510000D+00 0.1510000D+00 0.1510000D+00 0.1510000D+00
EXPONENTS  0.1093000D+01 0.1093000D+01 0.1093000D+01 0.1093000D+01 0.1093000D+01
EXPONENTS  0.1093000D+01 0.1093000D+01 0.1093000D+01 0.1093000D+01 0.1093000D+01
EXPONENTS  0.3640000D+00 0.3640000D+00 0.3640000D+00 0.3640000D+00 0.3640000D+00
EXPONENTS  0.3640000D+00 0.3640000D+00 0.3640000D+00 0.3640000D+00 0.3640000D+00
EXPONENTS  0.5473000D+04 0.8209000D+03 0.1868000D+03 0.5283000D+02 0.1708000D+02
EXPONENTS  0.5999000D+01 0.2208000D+01 0.2415000D+00 0.5473000D+04 0.8209000D+03
EXPONENTS  0.1868000D+03 0.5283000D+02 0.1708000D+02 0.5999000D+01 0.2208000D+01
EXPONENTS  0.2415000D+00 0.5879000D+00 0.8610000D-01 0.2914000D-01 0.1205000D+02
EXPONENTS  0.2613000D+01 0.7475000D+00 0.1205000D+02 0.2613000D+01 0.7475000D+00
EXPONENTS  0.1205000D+02 0.2613000D+01 0.7475000D+00 0.2385000D+00 0.2385000D+00
EXPONENTS  0.2385000D+00 0.7698000D-01 0.7698000D-01 0.7698000D-01 0.2096000D-01
EXPONENTS  0.2096000D-01 0.2096000D-01 0.6610000D+00 0.6610000D+00 0.6610000D+00
EXPONENTS  0.6610000D+00 0.6610000D+00 0.6610000D+00 0.1990000D+00 0.1990000D+00
EXPONENTS  0.1990000D+00 0.1990000D+00 0.1990000D+00 0.1990000D+00 0.6040000D-01
EXPONENTS  0.6040000D-01 0.6040000D-01 0.6040000D-01 0.6040000D-01 0.6040000D-01
EXPONENTS  0.4900000D+00 0.4900000D+00 0.4900000D+00 0.4900000D+00 0.4900000D+00
EXPONENTS  0.4900000D+00 0.4900000D+00 0.4900000D+00 0.4900000D+00 0.4900000D+00
EXPONENTS  0.1630000D+00 0.1630000D+00 0.1630000D+00 0.1630000D+00 0.1630000D+00
EXPONENTS  0.1630000D+00 0.1630000D+00 0.1630000D+00 0.1630000D+00 0.1630000D+00
EXPONENTS  0.1142000D+05 0.1712000D+04 0.3893000D+03 0.1100000D+03 0.3557000D+02
EXPONENTS  0.1254000D+02 0.4644000D+01 0.5118000D+00 0.1142000D+05 0.1712000D+04
EXPONENTS  0.3893000D+03 0.1100000D+03 0.3557000D+02 0.1254000D+02 0.4644000D+01
EXPONENTS  0.5118000D+00 0.1293000D+01 0.1787000D+00 0.5760000D-01 0.2663000D+02
EXPONENTS  0.5948000D+01 0.1742000D+01 0.2663000D+02 0.5948000D+01 0.1742000D+01
EXPONENTS  0.2663000D+02 0.5948000D+01 0.1742000D+01 0.5550000D+00 0.5550000D+00
EXPONENTS  0.5550000D+00 0.1725000D+00 0.1725000D+00 0.1725000D+00 0.4910000D-01
EXPONENTS  0.4910000D-01 0.4910000D-01 0.1654000D+01 0.1654000D+01 0.1654000D+01
EXPONENTS  0.1654000D+01 0.1654000D+01 0.1654000D+01 0.4690000D+00 0.4690000D+00
EXPONENTS  0.4690000D+00 0.4690000D+00 0.4690000D+00 0.4690000D+00 0.1510000D+00
EXPONENTS  0.1510000D+00 0.1510000D+00 0.1510000D+00 0.1510000D+00 0.1510000D+00
EXPONENTS  0.1093000D+01 0.1093000D+01 0.1093000D+01 0.1093000D+01 0.1093000D+01
EXPONENTS  0.1093000D+01 0.1093000D+01 0.1093000D+01 0.1093000D+01 0.1093000D+01
EXPONENTS  0.3640000D+00 0.3640000D+00 0.3640000D+00 0.3640000D+00 0.3640000D+00
EXPONENTS  0.3640000D+00 0.3640000D+00 0.3640000D+00 0.3640000D+00 0.3640000D+00
EXPONENTS  0.5473000D+04 0.8209000D+03 0.1868000D+03 0.5283000D+02 0.1708000D+02
EXPONENTS  0.5999000D+01 0.2208000D+01 0.2415000D+00 0.5473000D+04 0.8209000D+03
EXPONENTS  0.1868000D+03 0.5283000D+02 0.1708000D+02 0.5999000D+01 0.2208000D+01
EXPONENTS  0.2415000D+00 0.5879000D+00 0.8610000D-01 0.2914000D-01 0.1205000D+02
EXPONENTS  0.2613000D+01 0.7475000D+00 0.1205000D+02 0.2613000D+01 0.7475000D+00
EXPONENTS  0.1205000D+02 0.2613000D+01 0.7475000D+00 0.2385000D+00 0.2385000D+00
EXPONENTS  0.2385000D+00 0.7698000D-01 0.7698000D-01 0.7698000D-01 0.2096000D-01
EXPONENTS  0.2096000D-01 0.2096000D-01 0.6610000D+00 0.6610000D+00 0.6610000D+00
EXPONENTS  0.6610000D+00 0.6610000D+00 0.6610000D+00 0.1990000D+00 0.1990000D+00
EXPONENTS  0.1990000D+00 0.1990000D+00 0.1990000D+00 0.1990000D+00 0.6040000D-01
EXPONENTS  0.6040000D-01 0.6040000D-01 0.6040000D-01 0.6040000D-01 0.6040000D-01
EXPONENTS  0.4900000D+00 0.4900000D+00 0.4900000D+00 0.4900000D+00 0.4900000D+00
EXPONENTS  0.4900000D+00 0.4900000D+00 0.4900000D+00 0.4900000D+00 0.4900000D+00
EXPONENTS  0.1630000D+00 0.1630000D+00 0.1630000D+00 0.1630000D+00 0.1630000D+00
EXPONENTS  0.1630000D+00 0.1630000D+00 0.1630000D+00 0.1630000D+00 0.1630000D+00
EXPONENTS  0.1142000D+05 0.1712000D+04 0.3893000D+03 0.1100000D+03 0.3557000D+02
EXPONENTS  0.1254000D+02 0.4644000D+01 0.5118000D+00 0.1142000D+05 0.1712000D+04
EXPONENTS  0.3893000D+03 0.1100000D+03 0.3557000D+02 0.1254000D+02 0.4644000D+01
EXPONENTS  0.5118000D+00 0.1293000D+01 0.1787000D+00 0.5760000D-01 0.2663000D+02
EXPONENTS  0.5948000D+01 0.1742000D+01 0.2663000D+02 0.5948000D+01 0.1742000D+01
EXPONENTS  0.2663000D+02 0.5948000D+01 0.1742000D+01 0.5550000D+00 0.5550000D+00
EXPONENTS  0.5550000D+00 0.1725000D+00 0.1725000D+00 0.1725000D+00 0.4910000D-01
EXPONENTS  0.4910000D-01 0.4910000D-01 0.1654000D+01 0.1654000D+01 0.1654000D+01
EXPONENTS  0.1654000D+01 0.1654000D+01 0.1654000D+01 0.4690000D+00 0.4690000D+00
EXPONENTS  0.4690000D+00 0.4690000D+00 0.4690000D+00 0.4690000D+00 0.1510000D+00
EXPONENTS  0.1510000D+00 0.1510000D+00 0.1510000D+00 0.1510000D+00 0.1510000D+00
EXPONENTS  0.1093000D+01 0.1093000D+01 0.1093000D+01 0.1093000D+01 0.1093000D+01
EXPONENTS  0.1093000D+01 0.1093000D+01 0.1093000D+01 0.1093000D+01 0.1093000D+01
EXPONENTS  0.3640000D+00 0.3640000D+00 0.3640000D+00 0.3640000D+00 0.3640000D+00
EXPONENTS  0.3640000D+00 0.3640000D+00 0.3640000D+00 0.3640000D+00 0.3640000D+00
EXPONENTS  0.5473000D+04 0.8209000D+03 0.1868000D+03 0.5283000D+02 0.1708000D+02
EXPONENTS  0.5999000D+01 0.2208000D+01 0.2415000D+00 0.5473000D+04 0.8209000D+03
EXPONENTS  0.1868000D+03 0.5283000D+02 0.1708000D+02 0.5999000D+01 0.2208000D+01
EXPONENTS  0.2415000D+00 0.5879000D+00 0.8610000D-01 0.2914000D-01 0.1205000D+02
EXPONENTS  0.2613000D+01 0.7475000D+00 0.1205000D+02 0.2613000D+01 0.7475000D+00
EXPONENTS  0.1205000D+02 0.2613000D+01 0.7475000D+00 0.2385000D+00 0.2385000D+00
EXPONENTS  0.2385000D+00 0.7698000D-01 0.7698000D-01 0.7698000D-01 0.2096000D-01
EXPONENTS  0.2096000D-01 0.2096000D-01 0.6610000D+00 0.6610000D+00 0.6610000D+00
EXPONENTS  0.6610000D+00 0.6610000D+00 0.6610000D+00 0.1990000D+00 0.1990000D+00
EXPONENTS  0.1990000D+00 0.1990000D+00 0.1990000D+00 0.1990000D+00 0.6040000D-01
EXPONENTS  0.6040000D-01 0.6040000D-01 0.6040000D-01 0.6040000D-01 0.6040000D-01
EXPONENTS  0.4900000D+00 0.4900000D+00 0.4900000D+00 0.4900000D+00 0.4900000D+00
EXPONENTS  0.4900000D+00 0.4900000D+00 0.4900000D+00 0.4900000D+00 0.4900000D+00
EXPONENTS  0.1630000D+00 0.1630000D+00 0.1630000D+00 0.1630000D+00 0.1630000D+00
EXPONENTS  0.1630000D+00 0.1630000D+00 0.1630000D+00 0.1630000D+00 0.1630000D+00
EXPONENTS  0.3387000D+02 0.5095000D+01 0.1159000D+01 0.3258000D+00 0.1027000D+00
EXPONENTS  0.2526000D-01 0.1407000D+01 0.1407000D+01 0.1407000D+01 0.3880000D+00
EXPONENTS  0.3880000D+00 0.3880000D+00 0.1020000D+00 0.1020000D+00 0.1020000D+00
EXPONENTS  0.1057000D+01 0.1057000D+01 0.1057000D+01 0.1057000D+01 0.1057000D+01
EXPONENTS  0.1057000D+01 0.2470000D+00 0.2470000D+00 0.2470000D+00 0.2470000D+00
EXPONENTS  0.2470000D+00 0.2470000D+00 0.3387000D+02 0.5095000D+01 0.1159000D+01
EXPONENTS  0.3258000D+00 0.1027000D+00 0.2526000D-01 0.1407000D+01 0.1407000D+01
EXPONENTS  0.1407000D+01 0.3880000D+00 0.3880000D+00 0.3880000D+00 0.1020000D+00
EXPONENTS  0.1020000D+00 0.1020000D+00 0.1057000D+01 0.1057000D+01 0.1057000D+01
EXPONENTS  0.1057000D+01 0.1057000D+01 0.1057000D+01 0.2470000D+00 0.2470000D+00
EXPONENTS  0.2470000D+00 0.2470000D+00 0.2470000D+00 0.2470000D+00 0.3387000D+02
EXPONENTS  0.5095000D+01 0.1159000D+01 0.3258000D+00 0.1027000D+00 0.2526000D-01
EXPONENTS  0.1407000D+01 0.1407000D+01 0.1407000D+01 0.3880000D+00 0.3880000D+00
EXPONENTS  0.3880000D+00 0.1020000D+00 0.1020000D+00 0.1020000D+00 0.1057000D+01
EXPONENTS  0.1057000D+01 0.1057000D+01 0.1057000D+01 0.1057000D+01 0.1057000D+01
EXPONENTS  0.2470000D+00 0.2470000D+00 0.2470000D+00 0.2470000D+00 0.2470000D+00
EXPONENTS  0.2470000D+00 0.3387000D+02 0.5095000D+01 0.1159000D+01 0.3258000D+00
EXPONENTS  0.1027000D+00 0.2526000D-01 0.1407000D+01 0.1407000D+01 0.1407000D+01
EXPONENTS  0.3880000D+00 0.3880000D+00 0.3880000D+00 0.1020000D+00 0.1020000D+00
EXPONENTS  0.1020000D+00 0.1057000D+01 0.1057000D+01 0.1057000D+01 0.1057000D+01
EXPONENTS  0.1057000D+01 0.1057000D+01 0.2470000D+00 0.2470000D+00 0.2470000D+00
EXPONENTS  0.2470000D+00 0.2470000D+00 0.2470000D+00 0.3387000D+02 0.5095000D+01
EXPONENTS  0.1159000D+01 0.3258000D+00 0.1027000D+00 0.2526000D-01 0.1407000D+01
EXPONENTS  0.1407000D+01 0.1407000D+01 0.3880000D+00 0.3880000D+00 0.3880000D+00
EXPONENTS  0.1020000D+00 0.1020000D+00 0.1020000D+00 0.1057000D+01 0.1057000D+01
EXPONENTS  0.1057000D+01 0.1057000D+01 0.1057000D+01 0.1057000D+01 0.2470000D+00
EXPONENTS  0.2470000D+00 0.2470000D+00 0.2470000D+00 0.2470000D+00 0.2470000D+00
EXPONENTS  0.3387000D+02 0.5095000D+01 0.1159000D+01 0.3258000D+00 0.1027000D+00
EXPONENTS  0.2526000D-01 0.1407000D+01 0.1407000D+01 0.1407000D+01 0.3880000D+00
EXPONENTS  0.3880000D+00 0.3880000D+00 0.1020000D+00 0.1020000D+00 0.1020000D+00
EXPONENTS  0.1057000D+01 0.1057000D+01 0.1057000D+01 0.1057000D+01 0.1057000D+01
EXPONENTS  0.1057000D+01 0.2470000D+00 0.2470000D+00 0.2470000D+00 0.2470000D+00
EXPONENTS  0.2470000D+00 0.2470000D+00
MO    1     MO 0.0        OCC NO =    2.0000000  ORB. ENERGY =  -14.728594
 -0.51940641D-01 -0.96783737D-01 -0.16368556D+00 -0.24650139D+00 -0.30518471D+00
 -0.25969841D+00 -0.98820037D-01  0.46281639D-03  0.16400397D-03  0.30750898D-03
  0.52316428D-03  0.81241888D-03  0.10781271D-02  0.11361980D-02  0.70451523D-03
 -0.46864380D-03 -0.51223437D-02  0.14618006D-02 -0.51966609D-03  0.88181663D-04
  0.84697433D-04  0.59395686D-04  0.46037215D-03  0.44218194D-03  0.31008850D-03
  0.11866959D-05  0.11398072D-05  0.79931152D-06  0.42440806D-03 -0.11259755D-02
 -0.67824505D-04  0.94687423D-03 -0.13750561D-02 -0.12622118D-03 -0.36886663D-04
  0.35981755D-03  0.11824819D-04 -0.54298179D-03  0.21950547D-04  0.52103125D-03
 -0.30776036D-03  0.20777638D-03  0.84255496D-05 -0.10972519D-03  0.25531939D-03
 -0.14559420D-03 -0.14270736D-03 -0.10496144D-04  0.31814405D-04 -0.83102681D-04
  0.16139953D-03 -0.78296854D-04 -0.12340966D-02 -0.27532294D-04  0.13439255D-03
  0.21310025D-03  0.37487067D-04  0.32746779D-04 -0.39597756D-03 -0.42852141D-03
 -0.12583722D-03 -0.24332318D-03  0.31606021D-03  0.27596887D-04  0.14459738D-03
 -0.25005168D-04 -0.84840997D-04 -0.65392750D-05  0.72581790D-04  0.51487128D-03
  0.20381602D-04  0.24337153D-05 -0.26034829D-03 -0.76377735D-06 -0.15418082D-03
  0.30078664D-03  0.56049622D-03  0.94459115D-03  0.14093222D-02  0.17070826D-02
  0.14204199D-02  0.52755135D-03 -0.28006592D-05 -0.23901187D-03 -0.44644687D-03
 -0.75985483D-03 -0.11621141D-02 -0.15113983D-02 -0.15298777D-02 -0.10073469D-02
  0.68857719D-03  0.10080875D-02 -0.72378792D-03  0.38768351D-03  0.10250431D-02
  0.92382560D-03  0.67075730D-03 -0.11164280D-04 -0.10061867D-04 -0.73055678D-05
 -0.10307416D-03 -0.92896142D-04 -0.67448624D-04  0.27128078D-02 -0.16461057D-02
 -0.30921966D-03 -0.10171091D-02 -0.21170948D-03  0.96892646D-04 -0.37162803D-05
  0.26213019D-04  0.95705603D-06  0.48669001D-03 -0.36682164D-03 -0.11986836D-03
  0.48137000D-04 -0.12160793D-03 -0.16038850D-04  0.10022198D-02 -0.93895656D-03
 -0.63263199D-04  0.79713573D-03 -0.19778052D-03 -0.11865833D-03 -0.13998435D-04
  0.15987217D-04 -0.19887817D-05 -0.76729575D-04  0.66488500D-06  0.84980618D-05
 -0.12418921D-03  0.53749386D-04 -0.28341311D-04  0.87294127D-04 -0.20675455D-03
  0.92400938D-04  0.28527349D-03  0.45506392D-04 -0.73770065D-05  0.41294656D-04
  0.14635892D-04 -0.12648195D-03 -0.39160498D-05 -0.81769161D-04  0.37534172D-03
  0.11991649D-04  0.37861486D-04  0.41041377D-05 -0.24350015D-06 -0.80652497D-04
  0.32797709D+00  0.61113701D+00  0.10335859D+01  0.15565231D+01  0.19270766D+01
  0.16398552D+01  0.62399515D+00 -0.29224355D-02 -0.10248675D-02 -0.19216360D-02
 -0.32692747D-02 -0.50768384D-02 -0.67372598D-02 -0.71001470D-02 -0.44025441D-02
  0.29285740D-02  0.32238643D-01 -0.70623389D-02  0.26854208D-02  0.21764993D-03
  0.20905016D-03  0.14660040D-03 -0.14173994D-03 -0.13613952D-03 -0.95470430D-04
 -0.25938531D-04 -0.24913649D-04 -0.17471170D-04  0.82555262D-03 -0.33566924D-02
 -0.15887614D-03  0.17001833D-02 -0.59652555D-02 -0.30434334D-03 -0.67805513D-04
  0.53777454D-03  0.18979780D-04  0.59431018D-03  0.26857494D-02 -0.32800596D-02
 -0.18698914D-02 -0.83018124D-03  0.45980667D-03 -0.95529783D-03  0.12385649D-03
  0.83144134D-03 -0.10183688D-02  0.33904408D-03  0.70344512D-04  0.34382190D-03
 -0.78311063D-03  0.43928873D-03  0.37682204D-03  0.27697218D-04 -0.92879225D-04
 -0.83624567D-03 -0.10332656D-02  0.94010313D-04  0.30479129D-02  0.13505950D-02
  0.17537463D-03 -0.53917595D-03  0.17492019D-02 -0.45740557D-03  0.24727799D-03
  0.44551030D-03  0.39073813D-03 -0.84158853D-05 -0.13634488D-02 -0.87720899D-03
 -0.15171431D-03  0.26917958D-04 -0.29500541D-03  0.17696197D-03  0.54899451D-04
  0.85037750D-04  0.15846228D-03  0.26705277D-03  0.39844054D-03  0.48262271D-03
  0.40157806D-03  0.14914818D-03 -0.79179632D-06 -0.67528871D-04 -0.12613622D-03
 -0.21468447D-03 -0.32833621D-03 -0.42702072D-03 -0.43224177D-03 -0.28460929D-03
  0.19454615D-03  0.28655727D-03 -0.19835691D-03  0.96267313D-04 -0.38827762D-03
 -0.34993729D-03 -0.25407717D-03 -0.11456465D-02 -0.10325201D-02 -0.74967651D-03
  0.13142920D-04  0.11845127D-04  0.86003306D-05 -0.10044740D-02 -0.46417685D-02
 -0.42663275D-05  0.37504129D-03  0.91808903D-03 -0.16942599D-04  0.13295317D-05
  0.30168221D-04  0.55244210D-06  0.22946069D-03 -0.19808547D-03 -0.31375215D-04
  0.12132114D-02 -0.25049677D-04 -0.12987034D-03  0.60718807D-03 -0.59403835D-03
 -0.13149720D-04  0.28457057D-02 -0.60077685D-04 -0.31243160D-03 -0.19236046D-04
  0.19781508D-04 -0.54546236D-06 -0.53383611D-04  0.25730515D-05  0.62995877D-05
  0.82530954D-04 -0.42843870D-04  0.48685600D-05 -0.13841433D-03  0.40295251D-03
 -0.38310588D-04 -0.10917853D-03 -0.27442090D-03  0.23704908D-04 -0.13879137D-03
 -0.99196818D-04  0.16171961D-03  0.61481878D-06  0.31455392D-03 -0.43545218D-03
  0.16753022D-04 -0.16963461D-04 -0.49706651D-04 -0.18597479D-04  0.93573260D-04
 -0.24494851D+00 -0.45642548D+00 -0.77192990D+00 -0.11624837D+01 -0.14392302D+01
 -0.12247199D+01 -0.46602853D+00  0.21826104D-02  0.76798479D-03  0.14399787D-02
  0.24498322D-02  0.38043307D-02  0.50485681D-02  0.53204977D-02  0.32990480D-02
 -0.21945280D-02 -0.24102712D-01  0.57910082D-02 -0.21484885D-02 -0.30809988D-03
 -0.29592625D-03 -0.20752391D-03  0.11544337D-03  0.11088198D-03  0.77758099D-04
  0.33407353D-04  0.32087363D-04  0.22501874D-04 -0.12127244D-02 -0.24927284D-02
  0.64856840D-04 -0.25852393D-02 -0.42716846D-02  0.16160103D-03  0.97417298D-04
  0.47037921D-03  0.90369371D-06 -0.12015962D-02 -0.12553995D-02  0.24569957D-02
 -0.21020141D-02  0.69365748D-03  0.39806576D-04  0.32548993D-03  0.31298129D-03
 -0.63847122D-03 -0.11984404D-02 -0.22348214D-03  0.16452955D-03 -0.30600110D-03
  0.65365352D-03 -0.34765242D-03  0.72976079D-03  0.87816454D-05 -0.27815553D-04
  0.55948281D-03  0.13345412D-03 -0.51002794D-04 -0.24601544D-02 -0.15842061D-02
 -0.48987315D-04  0.78170600D-03  0.11838437D-02  0.20199570D-03  0.41100289D-03
 -0.39965821D-03 -0.81812344D-04 -0.45822599D-05  0.12279991D-02  0.52824601D-03
  0.12980826D-03 -0.29024485D-04 -0.28280898D-03 -0.11606148D-03 -0.10686650D-03
 -0.33953831D-03 -0.63270741D-03 -0.10662870D-02 -0.15908914D-02 -0.19270136D-02
 -0.16034189D-02 -0.59551811D-03  0.31614804D-05  0.26993936D-03  0.50421589D-03
  0.85817798D-03  0.13124885D-02  0.17069692D-02  0.17278398D-02  0.11376949D-02
 -0.77767721D-03 -0.11328281D-02  0.83509278D-03 -0.47763784D-03 -0.63357847D-03
 -0.57101600D-03 -0.41459464D-03  0.58299205D-03  0.52542471D-03  0.38149241D-03
  0.77106656D-04  0.69492787D-04  0.50456270D-04 -0.16751722D-02 -0.44484620D-04
  0.16754443D-03  0.64309490D-03 -0.83652737D-03 -0.83243191D-04  0.19587721D-05
  0.24452587D-04  0.36875452D-06 -0.25243359D-03  0.10183406D-03  0.15059953D-03
  0.26524121D-03  0.87706130D-04 -0.29700937D-04 -0.16410848D-03  0.65305336D-04
  0.98803148D-04  0.11549181D-02  0.80486988D-04 -0.11765680D-03 -0.27938517D-04
  0.25477937D-04  0.24605799D-05 -0.71575218D-04  0.44708255D-05  0.82445693D-05
  0.19516879D-04 -0.20115840D-04  0.23317393D-04  0.11818894D-03 -0.15568642D-03
 -0.46745529D-04 -0.17673958D-03  0.21603394D-03 -0.23206649D-04  0.89453516D-04
  0.79816521D-04 -0.31903998D-04  0.27277452D-05 -0.21834737D-03  0.74141111D-04
 -0.26943023D-04 -0.21102196D-04  0.21570882D-04  0.18759788D-04 -0.19763820D-04
 -0.45728260D-04 -0.82472800D-04 -0.12160610D-03  0.45712029D-04  0.17498371D-05
 -0.53629910D-04  0.26125005D-03 -0.72850901D-05 -0.26292490D-04  0.28097687D-03
 -0.70456694D-03 -0.43905982D-04  0.56536059D-04 -0.11000226D-03 -0.81051684D-05
  0.43664183D-03 -0.13181079D-03 -0.30483104D-03 -0.60073641D-03 -0.16368851D-03
  0.67768240D-04  0.63255065D-04 -0.47708581D-04 -0.15546483D-04  0.41257983D-04
 -0.14909980D-04 -0.54292269D-05 -0.20814092D-03 -0.37539073D-03 -0.55351340D-03
  0.22642683D-03  0.10402004D-03 -0.21854398D-03 -0.78031408D-03 -0.88343112D-03
  0.58204259D-04 -0.84349835D-03 -0.16558175D-02  0.46941761D-04 -0.17115841D-03
 -0.30328217D-03  0.10310259D-04  0.29548476D-03  0.11152527D-02 -0.14107374D-02
  0.33737751D-02 -0.26798641D-03 -0.22283221D-03  0.34427850D-04  0.45359978D-04
 -0.79787828D-04  0.37611964D-03 -0.14494179D-04 -0.32048877D-04  0.27394210D-03
  0.49406586D-03  0.72849982D-03 -0.31052923D-03 -0.19949832D-03  0.27096867D-03
  0.53171238D-03 -0.14555312D-02 -0.86407421D-04  0.58772132D-03 -0.22948761D-02
 -0.11059779D-03  0.11919378D-03 -0.43364595D-03 -0.21662064D-04  0.89248604D-03
 -0.27411062D-02  0.18486201D-02  0.27953110D-02  0.25927720D-03 -0.48924716D-03
  0.11819868D-03 -0.22708826D-03  0.10888958D-03  0.31584749D-03  0.54597106D-05
 -0.47011106D-04  0.28673468D-04  0.51713781D-04  0.76251939D-04 -0.35694432D-03
 -0.87880416D-03  0.63065752D-04  0.12312516D-03  0.51616951D-04 -0.11130650D-04
 -0.95708138D-04 -0.46486433D-03 -0.76926059D-06 -0.13290167D-03 -0.93993782D-04
  0.11256573D-04  0.10199129D-03 -0.27016677D-03  0.16817548D-03 -0.19921225D-03
  0.90883431D-05  0.45747136D-06  0.57395295D-04 -0.11401885D-03  0.56623556D-04
  0.65986449D-04  0.13347370D-05 -0.14184962D-04 -0.32327909D-04 -0.58304716D-04
 -0.85970269D-04  0.50539097D-03  0.11020596D-02 -0.80739896D-04 -0.68602186D-04
  0.10076177D-03  0.92152505D-05  0.68838477D-04 -0.53805074D-03 -0.19373308D-04
  0.85696850D-04 -0.17935933D-03 -0.12831566D-04 -0.80687561D-04  0.27618104D-03
 -0.19549348D-03 -0.70839561D-04 -0.25146739D-04  0.28914028D-04  0.16662019D-04
  0.45238944D-04 -0.61900962D-04  0.95487641D-04 -0.13632670D-04 -0.45694581D-05
  0.81208078D-05  0.14646211D-04  0.21595830D-04 -0.66524287D-04 -0.21174355D-03
  0.14598692D-04 -0.54831071D-04 -0.83429202D-04  0.36617323D-05  0.34069940D-04
 -0.35452224D-03 -0.11468980D-04  0.48374276D-04  0.54658726D-04 -0.36383710D-05
  0.37145532D-04 -0.81289524D-04  0.44143992D-04  0.48965648D-03  0.12686820D-04
 -0.54859508D-04  0.44969880D-04 -0.61266289D-04  0.16296408D-04  0.24845526D-03
 -0.74046081D-07 -0.28500297D-04
MO    2     MO 0.0        OCC NO =    2.0000000  ORB. ENERGY =  -14.728592
  0.30824256D+00  0.57436463D+00  0.97139458D+00  0.14628664D+01  0.18111235D+01
  0.15411844D+01  0.58644908D+00 -0.27465913D-02 -0.96758562D-03 -0.18142321D-02
 -0.30865486D-02 -0.47930840D-02 -0.63607013D-02 -0.67033060D-02 -0.41564774D-02
  0.27648903D-02  0.30342395D-01 -0.75256914D-02  0.27674943D-02 -0.10276361D-03
 -0.98703220D-04 -0.69217511D-04  0.11004995D-03  0.10570166D-03  0.74125299D-04
  0.15546590D-04  0.14932314D-04  0.10471569D-04 -0.33976028D-02  0.41521638D-03
  0.34830733D-03 -0.62542438D-02  0.90414696D-03  0.64684277D-03  0.54295364D-03
 -0.30827452D-04 -0.55070278D-04  0.27089731D-02  0.36716232D-03 -0.30761354D-02
 -0.97485970D-03 -0.11895231D-02  0.25605188D-03  0.30405293D-03 -0.11276381D-02
  0.82358522D-03 -0.59301615D-03  0.90127511D-04 -0.29243702D-04 -0.77911455D-03
  0.34749579D-03  0.43161876D-03  0.16848006D-03  0.24807003D-03 -0.21010329D-04
 -0.13568512D-02 -0.49379080D-03 -0.17970608D-03  0.24018991D-02  0.17328753D-02
  0.80140617D-03  0.16686545D-02 -0.25150290D-03 -0.26228794D-03 -0.37211857D-03
  0.54550370D-03  0.26041246D-03  0.28543864D-04 -0.13693340D-02 -0.78110162D-03
 -0.24029027D-03 -0.26717712D-03 -0.13575783D-06  0.15465868D-03  0.10782266D-03
  0.21374707D-03  0.39830368D-03  0.67125186D-03  0.10015023D-02  0.12130988D-02
  0.10093886D-02  0.37489217D-03 -0.19902237D-05 -0.17002330D-03 -0.31758410D-03
 -0.54052974D-03 -0.82668059D-03 -0.10751471D-02 -0.10882926D-02 -0.71658551D-03
  0.48982574D-03  0.70953884D-03 -0.53766132D-03  0.32766736D-03 -0.37570201D-03
 -0.33860345D-03 -0.24584807D-03  0.97194690D-03  0.87597236D-03  0.63601274D-03
  0.59243897D-04  0.53393880D-04  0.38767420D-04 -0.25643247D-02  0.25820726D-02
  0.31475564D-03  0.12125878D-03 -0.10044442D-02 -0.34533498D-04  0.27560269D-04
 -0.27672421D-05 -0.28172798D-05 -0.42702930D-03  0.53628607D-03 -0.10925677D-03
 -0.22660618D-03  0.59551262D-04  0.50523206D-04 -0.11525912D-02  0.12437898D-02
 -0.91198595D-04 -0.23585706D-04  0.21450588D-03  0.61461186D-04  0.29587548D-04
 -0.28191500D-04 -0.13960480D-05 -0.50370325D-04 -0.73884788D-05  0.39294639D-05
  0.74480111D-04 -0.14708683D-03  0.11989142D-04 -0.17091141D-03  0.15809764D-03
 -0.30082651D-04 -0.52528925D-04  0.28316285D-03 -0.58847740D-05  0.19959630D-04
 -0.94661409D-04  0.94876319D-04  0.25245224D-05  0.30178298D-03 -0.31469035D-03
  0.17958221D-04 -0.17798754D-04  0.30061396D-04 -0.25531788D-04  0.84216482D-04
 -0.13113564D+00 -0.24435196D+00 -0.41326042D+00 -0.62234730D+00 -0.77050633D+00
 -0.65566611D+00 -0.24949305D+00  0.11684824D-02  0.40733418D-03  0.76375539D-03
  0.12993752D-02  0.20177924D-02  0.26777279D-02  0.28219577D-02  0.17497938D-02
 -0.11639635D-02 -0.12866038D-01  0.23361869D-02 -0.93851223D-03  0.37948700D-03
  0.36449273D-03  0.25560746D-03  0.26806061D-03  0.25746901D-03  0.18055504D-03
 -0.31948723D-04 -0.30686367D-04 -0.21519399D-04 -0.13506907D-02  0.85828564D-03
  0.15528967D-03 -0.17947591D-02  0.16757303D-02  0.21781582D-03  0.37442304D-03
 -0.63419109D-04 -0.39014304D-04 -0.61237039D-04 -0.12465934D-02  0.13078304D-02
  0.34749844D-03  0.28651270D-03 -0.15182606D-03  0.43489477D-03 -0.12092400D-03
 -0.31397077D-03  0.13757449D-03 -0.14887366D-03 -0.46094440D-05  0.29930088D-03
 -0.14611433D-03 -0.15318655D-03 -0.11711450D-02 -0.11835497D-03  0.11846952D-03
  0.27002814D-03  0.35057044D-03 -0.61181828D-04 -0.12833853D-02 -0.48357939D-03
  0.42780881D-05  0.47330092D-03 -0.56813191D-03  0.17926740D-03 -0.98653817D-04
 -0.16776560D-03 -0.10210469D-04  0.27097421D-04  0.76868050D-03  0.27373243D-04
 -0.30108138D-05 -0.26538370D-03  0.32581634D-05 -0.78281448D-04  0.42578617D-04
 -0.39988764D-03 -0.74516443D-03 -0.12558082D-02 -0.18736555D-02 -0.22695198D-02
 -0.18884096D-02 -0.70136513D-03  0.37234000D-05  0.31771844D-03  0.59346175D-03
  0.10100749D-02  0.15447981D-02  0.20091016D-02  0.20336662D-02  0.13390661D-02
 -0.91532554D-03 -0.13410837D-02  0.95503812D-03 -0.50225393D-03  0.80595371D-03