 Molden2AIM, Version 4.0.0 (06/02/2016)           Time: Thu Jun 28 02:55:13 2018
GAUSSIAN              8 MOL ORBITALS    204 PRIMITIVES        4 NUCLEI
  B    1    (CENTRE  1)   0.09410647  0.05519134  0.00000000  CHARGE =  5.0
  H    2    (CENTRE  2)  -0.01098309  2.32926508  0.00000000  CHARGE =  1.0
  H    3    (CENTRE  3)   2.01001286 -1.17379771  0.00000000  CHARGE =  1.0
  F    4    (CENTRE  4)  -2.09313813 -1.21065871  0.00000000  CHARGE =  9.0
CENTRE ASSIGNMENTS    1  1  1  1  1  1  1  1  1  1  1  1  1  1  1  1  1  1  1  1
CENTRE ASSIGNMENTS    1  1  1  1  1  1  1  1  1  1  1  1  1  1  1  1  1  1  1  1
CENTRE ASSIGNMENTS    1  1  1  1  1  1  1  1  1  1  1  1  1  1  1  1  1  1  1  1
CENTRE ASSIGNMENTS    1  1  1  1  1  1  1  1  1  1  1  1  1  1  1  2  2  2  2  2
CENTRE ASSIGNMENTS    2  2  2  2  2  2  2  2  2  2  2  2  2  2  2  2  2  2  2  2
CENTRE ASSIGNMENTS    2  2  3  3  3  3  3  3  3  3  3  3  3  3  3  3  3  3  3  3
CENTRE ASSIGNMENTS    3  3  3  3  3  3  3  3  3  4  4  4  4  4  4  4  4  4  4  4
CENTRE ASSIGNMENTS    4  4  4  4  4  4  4  4  4  4  4  4  4  4  4  4  4  4  4  4
CENTRE ASSIGNMENTS    4  4  4  4  4  4  4  4  4  4  4  4  4  4  4  4  4  4  4  4
CENTRE ASSIGNMENTS    4  4  4  4  4  4  4  4  4  4  4  4  4  4  4  4  4  4  4  4
CENTRE ASSIGNMENTS    4  4  4  4
TYPE ASSIGNMENTS      1  1  1  1  1  1  1  1  1  1  1  1  1  1  1  1  1  1  1  2
TYPE ASSIGNMENTS      2  2  3  3  3  4  4  4  2  3  4  2  3  4  2  3  4  5  6  7
TYPE ASSIGNMENTS      8  9 10  5  6  7  8  9 10  5  6  7  8  9 10 11 12 13 17 14
TYPE ASSIGNMENTS     15 18 19 16 20 11 12 13 17 14 15 18 19 16 20  1  1  1  1  1
TYPE ASSIGNMENTS      1  2  3  4  2  3  4  2  3  4  5  6  7  8  9 10  5  6  7  8
TYPE ASSIGNMENTS      9 10  1  1  1  1  1  1  2  3  4  2  3  4  2  3  4  5  6  7
TYPE ASSIGNMENTS      8  9 10  5  6  7  8  9 10  1  1  1  1  1  1  1  1  1  1  1
TYPE ASSIGNMENTS      1  1  1  1  1  1  1  1  2  2  2  3  3  3  4  4  4  2  3  4
TYPE ASSIGNMENTS      2  3  4  2  3  4  5  6  7  8  9 10  5  6  7  8  9 10  5  6
TYPE ASSIGNMENTS      7  8  9 10 11 12 13 17 14 15 18 19 16 20 11 12 13 17 14 15
TYPE ASSIGNMENTS     18 19 16 20
EXPONENTS  0.5473000D+04 0.8209000D+03 0.1868000D+03 0.5283000D+02 0.1708000D+02
EXPONENTS  0.5999000D+01 0.2208000D+01 0.2415000D+00 0.5473000D+04 0.8209000D+03
EXPONENTS  0.1868000D+03 0.5283000D+02 0.1708000D+02 0.5999000D+01 0.2208000D+01
EXPONENTS  0.2415000D+00 0.5879000D+00 0.8610000D-01 0.2914000D-01 0.1205000D+02
EXPONENTS  0.2613000D+01 0.7475000D+00 0.1205000D+02 0.2613000D+01 0.7475000D+00
EXPONENTS  0.1205000D+02 0.2613000D+01 0.7475000D+00 0.2385000D+00 0.2385000D+00
EXPONENTS  0.2385000D+00 0.7698000D-01 0.7698000D-01 0.7698000D-01 0.2096000D-01
EXPONENTS  0.2096000D-01 0.2096000D-01 0.6610000D+00 0.6610000D+00 0.6610000D+00
EXPONENTS  0.6610000D+00 0.6610000D+00 0.6610000D+00 0.1990000D+00 0.1990000D+00
EXPONENTS  0.1990000D+00 0.1990000D+00 0.1990000D+00 0.1990000D+00 0.6040000D-01
EXPONENTS  0.6040000D-01 0.6040000D-01 0.6040000D-01 0.6040000D-01 0.6040000D-01
EXPONENTS  0.4900000D+00 0.4900000D+00 0.4900000D+00 0.4900000D+00 0.4900000D+00
EXPONENTS  0.4900000D+00 0.4900000D+00 0.4900000D+00 0.4900000D+00 0.4900000D+00
EXPONENTS  0.1630000D+00 0.1630000D+00 0.1630000D+00 0.1630000D+00 0.1630000D+00
EXPONENTS  0.1630000D+00 0.1630000D+00 0.1630000D+00 0.1630000D+00 0.1630000D+00
EXPONENTS  0.3387000D+02 0.5095000D+01 0.1159000D+01 0.3258000D+00 0.1027000D+00
EXPONENTS  0.2526000D-01 0.1407000D+01 0.1407000D+01 0.1407000D+01 0.3880000D+00
EXPONENTS  0.3880000D+00 0.3880000D+00 0.1020000D+00 0.1020000D+00 0.1020000D+00
EXPONENTS  0.1057000D+01 0.1057000D+01 0.1057000D+01 0.1057000D+01 0.1057000D+01
EXPONENTS  0.1057000D+01 0.2470000D+00 0.2470000D+00 0.2470000D+00 0.2470000D+00
EXPONENTS  0.2470000D+00 0.2470000D+00 0.3387000D+02 0.5095000D+01 0.1159000D+01
EXPONENTS  0.3258000D+00 0.1027000D+00 0.2526000D-01 0.1407000D+01 0.1407000D+01
EXPONENTS  0.1407000D+01 0.3880000D+00 0.3880000D+00 0.3880000D+00 0.1020000D+00
EXPONENTS  0.1020000D+00 0.1020000D+00 0.1057000D+01 0.1057000D+01 0.1057000D+01
EXPONENTS  0.1057000D+01 0.1057000D+01 0.1057000D+01 0.2470000D+00 0.2470000D+00
EXPONENTS  0.2470000D+00 0.2470000D+00 0.2470000D+00 0.2470000D+00 0.1950000D+05
EXPONENTS  0.2923000D+04 0.6645000D+03 0.1875000D+03 0.6062000D+02 0.2142000D+02
EXPONENTS  0.7950000D+01 0.8815000D+00 0.1950000D+05 0.2923000D+04 0.6645000D+03
EXPONENTS  0.1875000D+03 0.6062000D+02 0.2142000D+02 0.7950000D+01 0.8815000D+00
EXPONENTS  0.2257000D+01 0.3041000D+00 0.9158000D-01 0.4388000D+02 0.9926000D+01
EXPONENTS  0.2930000D+01 0.4388000D+02 0.9926000D+01 0.2930000D+01 0.4388000D+02
EXPONENTS  0.9926000D+01 0.2930000D+01 0.9132000D+00 0.9132000D+00 0.9132000D+00
EXPONENTS  0.2672000D+00 0.2672000D+00 0.2672000D+00 0.7361000D-01 0.7361000D-01
EXPONENTS  0.7361000D-01 0.3107000D+01 0.3107000D+01 0.3107000D+01 0.3107000D+01
EXPONENTS  0.3107000D+01 0.3107000D+01 0.8550000D+00 0.8550000D+00 0.8550000D+00
EXPONENTS  0.8550000D+00 0.8550000D+00 0.8550000D+00 0.2920000D+00 0.2920000D+00
EXPONENTS  0.2920000D+00 0.2920000D+00 0.2920000D+00 0.2920000D+00 0.1917000D+01
EXPONENTS  0.1917000D+01 0.1917000D+01 0.1917000D+01 0.1917000D+01 0.1917000D+01
EXPONENTS  0.1917000D+01 0.1917000D+01 0.1917000D+01 0.1917000D+01 0.7240000D+00
EXPONENTS  0.7240000D+00 0.7240000D+00 0.7240000D+00 0.7240000D+00 0.7240000D+00
EXPONENTS  0.7240000D+00 0.7240000D+00 0.7240000D+00 0.7240000D+00
MO    1     MO 0.0        OCC NO =    2.0000000  ORB. ENERGY =  -25.256959
  0.23813012D-03  0.44373988D-03  0.74782442D-03  0.11157479D-02  0.13514822D-02
  0.11245339D-02  0.41765772D-03 -0.22172570D-05 -0.18136964D-03 -0.33877776D-03
 -0.57660145D-03 -0.88184829D-03 -0.11468960D-02 -0.11609188D-02 -0.76440613D-03
  0.52251377D-03  0.25735468D-04  0.63365709D-03  0.89945370D-04 -0.21203429D-03
 -0.19109704D-03 -0.13874885D-03 -0.12268872D-03 -0.11057387D-03 -0.80283798D-04
 -0.29510952D-18 -0.26596904D-18 -0.19311077D-18 -0.85852720D-03 -0.49822980D-03
  0.22555261D-18 -0.18031086D-03 -0.10449353D-03  0.18161197D-19  0.26775854D-05
  0.15546089D-05 -0.66222016D-21  0.37911713D-03 -0.11320854D-03 -0.26590860D-03
  0.85644094D-03 -0.37341972D-19  0.14889048D-19  0.85040477D-04 -0.32562839D-04
 -0.52477638D-04  0.20564995D-03 -0.20106201D-18 -0.97806610D-19  0.24653379D-05
  0.72932617D-06 -0.31946640D-05  0.30768326D-05 -0.40572099D-20 -0.13332291D-20
 -0.44740453D-04  0.34945210D-04  0.67818344D-20 -0.45386255D-04 -0.20905109D-03
 -0.13592002D-19  0.17960762D-03  0.10421546D-03 -0.67535014D-20  0.45744229D-20
 -0.31605885D-05  0.27466062D-05 -0.76201679D-20 -0.33366474D-05 -0.15709310D-04
  0.25738556D-19  0.12818413D-04  0.74694912D-05 -0.28780521D-20  0.53074439D-19
 -0.49201333D-05 -0.88736630D-05 -0.13084211D-04  0.16762994D-03  0.37080735D-04
 -0.28189414D-04 -0.64598225D-04 -0.34577293D-04 -0.38879169D-19  0.31644261D-04
 -0.76694060D-04  0.36722962D-19  0.34286209D-04  0.32905891D-06  0.88644072D-20
 -0.95568244D-05  0.19845631D-04 -0.10288807D-04  0.90622315D-04  0.78663250D-19
  0.60159114D-19  0.73116721D-05 -0.95527232D-05  0.22410511D-05 -0.43270051D-04
 -0.17128647D-19 -0.35159368D-20 -0.47898710D-05 -0.86387297D-05 -0.12737802D-04
  0.16662607D-03  0.36401311D-04 -0.28083866D-04 -0.63510992D-04 -0.38836160D-04
 -0.63284997D-19 -0.48916673D-04  0.65822876D-04  0.73159437D-19  0.17611651D-04
  0.29580968D-04  0.22254177D-19  0.50925321D-04 -0.41089792D-04 -0.98355291D-05
  0.18706233D-04  0.76276272D-19  0.45692683D-19 -0.24387334D-04  0.21951219D-04
  0.24361148D-05 -0.72922506D-05 -0.25027158D-19  0.32844720D-21  0.59524807D+00
  0.11095682D+01  0.18809909D+01  0.28483745D+01  0.35619023D+01  0.30664661D+01
  0.11788615D+01 -0.51082000D-02  0.29307849D-03  0.55034950D-03  0.93715029D-03
  0.14680404D-02  0.19673468D-02  0.21161468D-02  0.12705317D-02 -0.83555512D-03
  0.60109343D-01 -0.41231345D-03 -0.89454162D-03  0.54062110D-02  0.52871563D-02
  0.34934477D-02  0.31327939D-02  0.30638040D-02  0.20243849D-02 -0.10090899D-16
 -0.98686787D-17 -0.65206533D-17 -0.87830757D-03 -0.50924171D-03  0.37824267D-17
 -0.59594578D-03 -0.34383819D-03 -0.61212241D-18 -0.58172419D-04 -0.33589168D-04
 -0.11869850D-19  0.92170379D-03 -0.56387927D-04 -0.86531586D-03  0.17002644D-02
  0.20216872D-17 -0.36592292D-17 -0.38266831D-03  0.72396112D-04  0.31027219D-03
 -0.79222450D-03  0.23074999D-18  0.35857510D-18 -0.47770549D-04  0.15729986D-04
  0.32040563D-04 -0.10971887D-03 -0.23098059D-18 -0.14913235D-18  0.38412241D-05
 -0.89900598D-04  0.11227002D-21  0.41652222D-05  0.27840661D-03  0.22329720D-18
 -0.15688895D-04 -0.87048147D-05 -0.22363401D-18  0.98339062D-18 -0.40114997D-04
  0.65251253D-04  0.45459610D-19 -0.40871055D-04 -0.28896152D-03 -0.14953313D-18
  0.16121605D-03  0.93207757D-04  0.13154301D-19 -0.20183683D-18
MO    2     MO 0.0        OCC NO =    2.0000000  ORB. ENERGY =   -7.114226
  0.25474083D+00  0.47469285D+00  0.79998875D+00  0.11935766D+01  0.14457545D+01
  0.12029755D+01  0.44679134D+00 -0.23719213D-02 -0.32088935D-02 -0.59938465D-02
 -0.10201557D-01 -0.15602156D-01 -0.20291529D-01 -0.20539627D-01 -0.13524303D-01
  0.92446072D-02  0.26612699D-01  0.61273092D-02 -0.71248845D-04 -0.25913435D-02
 -0.23354622D-02 -0.16956970D-02 -0.14958972D-02 -0.13481853D-02 -0.97886999D-03
 -0.16872317D-16 -0.15206266D-16 -0.11040736D-16 -0.38380053D-03 -0.21837557D-03
  0.10689931D-17 -0.28349325D-03 -0.16377242D-03 -0.15320963D-18  0.25663903D-05
  0.15278764D-05  0.55700200D-20  0.18220248D-02  0.14669189D-02 -0.32889437D-02
  0.63753125D-03 -0.70208976D-18 -0.15490438D-18  0.17686908D-03  0.89346062D-04
 -0.26621514D-03  0.14070988D-03  0.50123228D-20  0.92938548D-19  0.76119991D-06
 -0.49953059D-05  0.42341060D-05  0.94979719D-05  0.76966629D-20  0.10200021D-19
 -0.14082247D-05  0.60015172D-03  0.21622991D-18 -0.27036511D-05 -0.18031199D-02
 -0.13255617D-18  0.69283250D-05  0.26647408D-05 -0.51613357D-18 -0.79696649D-19
  0.25095009D-05 -0.43825871D-04 -0.14661397D-19  0.32356600D-05  0.13789600D-03
  0.16726512D-19 -0.10764163D-04 -0.64183926D-05  0.27257678D-19  0.22552871D-19
  0.26082748D-03  0.47041310D-03  0.69362384D-03 -0.28132069D-02 -0.22898818D-02
 -0.81495378D-05  0.10806266D-03 -0.19655203D-03 -0.17623666D-19 -0.40466630D-03
  0.41070120D-02  0.12225807D-18 -0.15866108D-04  0.66219192D-03 -0.51182824D-19
  0.15007926D-02 -0.26819332D-02  0.11811406D-02  0.80972021D-03  0.20218589D-18
 -0.14684633D-17  0.20620974D-03 -0.50232497D-03  0.29611523D-03  0.17529524D-03
 -0.28391842D-19 -0.90327799D-19  0.26045604D-03  0.46974319D-03  0.69263606D-03
 -0.28150547D-02 -0.22904578D-02 -0.78484800D-05 -0.11479859D-03  0.19514819D-03
  0.21048416D-18  0.33453955D-02 -0.24079114D-02  0.26376482D-18  0.56360848D-03
 -0.34588777D-03  0.24442638D-19 -0.12786497D-02  0.10069465D-03  0.11779550D-02
  0.40220754D-02 -0.15932316D-17  0.99413625D-18 -0.24660524D-03 -0.48097964D-04
  0.29470320D-03  0.70265132D-03 -0.12062043D-18  0.75392644D-20  0.79689663D-03
  0.14854498D-02  0.25182027D-02  0.38133010D-02  0.47685463D-02  0.41052742D-02
  0.15782173D-02 -0.68386738D-05 -0.74333961D-03 -0.13958601D-02 -0.23769091D-02
 -0.37234140D-02 -0.49898128D-02 -0.53672165D-02 -0.32224697D-02  0.21192317D-02
  0.57935272D-03 -0.34407751D-02 -0.33067920D-02  0.38942702D-02  0.38085112D-02
  0.25164444D-02  0.22500820D-02  0.22005311D-02  0.14539839D-02 -0.10271147D-17
 -0.10044957D-17 -0.66371281D-18 -0.11432655D-03 -0.62173476D-04 -0.59476921D-19
 -0.36137577D-02 -0.21003286D-02 -0.40887824D-19 -0.34916989D-03 -0.20300139D-03
  0.67437914D-19  0.27351859D-02 -0.78428887D-03 -0.19508970D-02  0.61269519D-02
 -0.22997475D-17 -0.68643047D-18 -0.13222660D-02  0.36245166D-03  0.95981437D-03
 -0.29321082D-02  0.37667918D-18  0.43725691D-18 -0.71088093D-03  0.10734679D-03
  0.60353413D-03 -0.14337753D-02  0.19659608D-18  0.11281136D-18  0.68829963D-03
 -0.14051665D-02  0.15302914D-17  0.72451205D-03  0.58330039D-02 -0.39222316D-17
 -0.27894109D-02 -0.16175045D-02 -0.66864251D-18 -0.68863149D-17 -0.39939059D-03
  0.74116090D-03 -0.57764274D-18 -0.41741223D-03 -0.31598701D-02  0.15133042D-17
  0.16155840D-02  0.93638742D-03  0.21962400D-18  0.25523434D-17
MO    3     MO 0.0        OCC NO =    2.0000000  ORB. ENERGY =   -1.361569
 -0.39980446D-02 -0.74500944D-02 -0.12555470D-01 -0.18732658D-01 -0.22690477D-01
 -0.18880168D-01 -0.70121925D-02  0.37226256D-04 -0.92994530D-02 -0.17370316D-01
 -0.29564365D-01 -0.45215434D-01 -0.58805354D-01 -0.59524349D-01 -0.39193765D-01
  0.26791101D-01  0.10248202D-01  0.79814489D-02  0.92872898D-03 -0.69622023D-01
 -0.62747222D-01 -0.45558552D-01 -0.40296107D-01 -0.36317083D-01 -0.26368557D-01
  0.62551531D-16  0.56374903D-16  0.40931836D-16 -0.72066529D-02 -0.41675775D-02
 -0.57105537D-16 -0.42206626D-03 -0.24262419D-03  0.10168204D-17  0.23043197D-04
  0.13273104D-04 -0.15935154D-19  0.10608862D-01 -0.68471259D-03 -0.99241492D-02
  0.19666309D-01  0.12415794D-16  0.16437306D-16  0.10396375D-02  0.27880243D-03
 -0.13184400D-02  0.13331167D-02 -0.31946080D-19  0.77791760D-18  0.10015120D-04
  0.13655015D-04 -0.23670135D-04 -0.66281527D-05  0.91409145D-19 -0.75709913D-19
 -0.46784241D-03  0.19178729D-02  0.88560516D-18 -0.48376114D-03 -0.68445134D-02
 -0.13002626D-17  0.18872884D-02  0.10908948D-02 -0.13565529D-17 -0.41838703D-17
 -0.11119356D-04  0.14976412D-03 -0.12087892D-18 -0.12916403D-04 -0.47608560D-03
  0.64241993D-18  0.46274471D-04  0.26793230D-04 -0.27978317D-18  0.13337712D-17
  0.77972358D-03  0.14062636D-02  0.20735348D-02 -0.47651837D-02 -0.30250432D-02
 -0.34808703D-03 -0.89520542D-03 -0.10718699D-02 -0.71086217D-19 -0.98096518D-03
  0.34385602D-02 -0.74049571D-18  0.58492439D-04  0.54451991D-03  0.59726841D-18
  0.33452559D-03 -0.10894804D-03 -0.22557756D-03  0.25158075D-02  0.93056200D-18
 -0.56688776D-17  0.35486524D-03 -0.45487737D-03  0.10001212D-03 -0.29071858D-04
 -0.15606272D-17  0.81224876D-18  0.78507542D-03  0.14159159D-02  0.20877671D-02
 -0.47475267D-02 -0.30215564D-02 -0.34848036D-03 -0.13947566D-02 -0.23637076D-03
 -0.45797562D-17  0.24793984D-02 -0.25726067D-02  0.20766243D-17  0.49907264D-03
 -0.22351690D-03 -0.18878804D-18  0.10954285D-02 -0.87032957D-03 -0.22509897D-03
  0.16333167D-02 -0.16967772D-17  0.36861572D-17 -0.26551930D-03  0.16436525D-03
  0.10115405D-03  0.68441084D-03 -0.16482340D-17 -0.14040609D-17 -0.72163533D-02
 -0.13451595D-01 -0.22803761D-01 -0.34531615D-01 -0.43181905D-01 -0.37175598D-01
 -0.14291657D-01  0.61928090D-04 -0.12565279D+00 -0.23595369D+00 -0.40178845D+00
 -0.62939923D+00 -0.84346901D+00 -0.90726464D+00 -0.54472050D+00  0.35823112D+00
  0.21369214D+00  0.92180732D-01 -0.25568455D-02  0.24353333D+00  0.23817028D+00
  0.15736917D+00  0.14095457D+00  0.13785049D+00  0.91083646D-01 -0.58531260D-15
 -0.57242293D-15 -0.37822404D-15  0.57091771D-01  0.33044250D-01 -0.14714220D-15
  0.31081534D-02  0.18004628D-02 -0.19688764D-16 -0.33572130D-03 -0.19505664D-03
  0.80507690D-18  0.21100068D-01 -0.53216724D-02 -0.15778395D-01  0.46017751D-01
 -0.29656773D-16 -0.33877042D-16  0.50259694D-02 -0.19373784D-02 -0.30885910D-02
  0.12118634D-01 -0.25705745D-16 -0.17548406D-16  0.28765331D-03  0.93631229D-04
 -0.38128454D-03  0.33775026D-03  0.12170170D-17  0.13381547D-17  0.30792179D-02
 -0.49186850D-02  0.66266782D-17  0.31778466D-02  0.21940434D-01 -0.27747520D-16
 -0.12415500D-01 -0.71843792D-02  0.78674854D-17 -0.37627542D-16  0.20061777D-03
 -0.14543209D-03 -0.72382861D-18  0.19914748D-03  0.89892941D-03  0.12004898D-17
 -0.80100078D-03 -0.46263315D-03  0.97099606D-18  0.25330860D-17
MO    4     MO 0.0        OCC NO =    2.0000000  ORB. ENERGY =   -0.659812
 -0.55254929D-02 -0.10296394D-01 -0.17352272D-01 -0.25889448D-01 -0.31359348D-01
 -0.26093314D-01 -0.96911924D-02  0.51448503D-04 -0.28602906D-01 -0.53426961D-01
 -0.90932956D-01 -0.13907192D+00 -0.18087128D+00 -0.18308274D+00 -0.12055070D+00
  0.82403056D-01  0.32793225D-01  0.14226481D-01 -0.35693862D-03 -0.84595445D-01
 -0.76242099D-01 -0.55356708D-01 -0.49071632D-01 -0.44226071D-01 -0.32110996D-01
  0.57456022D-17  0.51782548D-17  0.37597488D-17 -0.10869785D-01 -0.63266083D-02
  0.32236190D-16 -0.93434010D-04 -0.53694511D-04  0.74351415D-18 -0.18752096D-04
 -0.11109005D-04 -0.36494327D-17  0.11256508D-01  0.25669125D-02 -0.13823420D-01
  0.15171229D-01 -0.15226354D-16  0.61076844D-16  0.16434890D-02  0.51906247D-03
 -0.21625515D-02  0.19738170D-02  0.22903454D-17  0.61447549D-17  0.21633192D-04
 -0.41098004D-06 -0.21222212D-04  0.37721608D-04 -0.12527352D-17 -0.43321201D-18
 -0.50207107D-03  0.21952069D-02 -0.40963729D-18 -0.51917417D-03 -0.77619537D-02
  0.26813345D-17  0.20253874D-02  0.11763330D-02 -0.14524227D-17 -0.33532823D-17
 -0.44960078D-04  0.31348591D-03  0.76662839D-18 -0.49177130D-04 -0.10475912D-02
 -0.17851097D-17  0.18405736D-03  0.10713341D-03 -0.51477544D-18 -0.79959262D-18
  0.12397009D-01  0.22358516D-01  0.32967619D-01  0.11504066D-01 -0.25426245D-03
  0.10608895D-03 -0.72951716D-03 -0.91050137D-02 -0.81248119D-17 -0.99201142D-03
  0.25119976D-02  0.10488072D-16 -0.19438593D-03  0.41917414D-03  0.58165459D-17
 -0.71933520D-03  0.13522117D-02 -0.63287655D-03  0.12156032D-02  0.12752404D-17
  0.17792964D-16  0.62826363D-03 -0.77396279D-03  0.14569916D-03 -0.20236516D-03
  0.57917548D-18 -0.76466467D-17  0.12420241D-01  0.22400416D-01  0.33029400D-01
  0.11525763D-01 -0.25294262D-03  0.10256785D-03 -0.82739861D-02  0.39344997D-02
 -0.16602173D-17  0.16841470D-02 -0.21251118D-02  0.36863929D-17  0.26554195D-03
 -0.38059481D-03  0.91373810D-17  0.13621351D-02 -0.73106410D-03 -0.63107096D-03
 -0.11932861D-02  0.25566541D-17 -0.94087469D-17 -0.51420119D-03  0.36512288D-03
  0.14907831D-03  0.11063240D-02 -0.36115429D-17  0.40433467D-17  0.82156970D-03
  0.15314415D-02  0.25961699D-02  0.39313663D-02  0.49161874D-02  0.42323794D-02
  0.16270811D-02 -0.70504090D-05  0.31816430D-01  0.59745621D-01  0.10173649D+00
  0.15936961D+00  0.21357402D+00  0.22972766D+00  0.13792818D+00 -0.90707377D-01
 -0.59484669D-01 -0.62701956D-01 -0.56588362D-02  0.17807896D+01  0.17415733D+01
  0.11507311D+01  0.10297531D+01  0.10070760D+01  0.66541771D+00  0.10165110D-14
  0.99412559D-15  0.65686081D-15  0.39083000D+00  0.22599105D+00  0.21945752D-15
  0.51138948D-01  0.29578181D-01  0.50912155D-16  0.75685883D-03  0.43711773D-03
 -0.22823246D-17  0.43310958D-01 -0.83650789D-02 -0.34945879D-01  0.89919905D-01
 -0.26183395D-15  0.17059254D-15  0.10166879D-01 -0.22158559D-02 -0.79510230D-02
  0.21526073D-01 -0.80091203D-17 -0.23145339D-16  0.12800129D-02  0.48397067D-04
 -0.13284100D-02  0.21514800D-02  0.47081647D-17  0.51795568D-17  0.40001017D-02
 -0.77627907D-02  0.50780148D-17  0.41290917D-02  0.32624346D-01  0.20589520D-16
 -0.16129397D-01 -0.93359736D-02 -0.35823564D-16 -0.53043961D-16  0.62160143D-03
 -0.87889042D-03  0.86944254D-18  0.63681693D-03  0.40853672D-02 -0.31706897D-17
 -0.25016212D-02 -0.14486960D-02  0.56236203D-18  0.28365143D-17
MO    5     MO 0.0        OCC NO =    2.0000000  ORB. ENERGY =   -0.576069
 -0.37151144D-05 -0.69228723D-05 -0.11666955D-04 -0.17407001D-04 -0.21084737D-04
 -0.17544072D-04 -0.65159595D-05  0.34591859D-07 -0.80006675D-05 -0.14944333D-04
 -0.25435330D-04 -0.38900530D-04 -0.50592447D-04 -0.51211025D-04 -0.33719863D-04
  0.23049387D-04  0.68640377D-06  0.42194748D-04 -0.87705003D-05 -0.81291748D-01
 -0.73264624D-01 -0.53194868D-01  0.14039713D+00  0.12653367D+00  0.91871648D-01
  0.37909654D-15  0.34166279D-15  0.24806934D-15 -0.95226774D-02  0.16432969D-01
  0.45545398D-16 -0.37007732D-03  0.62233277D-03 -0.13070880D-16  0.64845869D-04
 -0.11253121D-03 -0.60686868D-17  0.10909092D-01 -0.10907164D-01 -0.19283469D-05
 -0.12495970D-01  0.19618451D-16  0.63100270D-16 -0.34107847D-02  0.34145059D-02
 -0.37211493D-05  0.39432856D-02 -0.32704644D-16  0.36995040D-16  0.29975371D-04
 -0.30120489D-04  0.14511760D-06 -0.34282662D-04 -0.21304931D-17 -0.17959245D-17
 -0.26309059D-02 -0.10841681D-03  0.46171682D-17  0.81575225D-02 -0.13398602D-03
 -0.62773301D-16 -0.26480478D-03  0.45923643D-03  0.48921796D-16 -0.34500529D-16
  0.57025686D-03 -0.87473827D-04 -0.24874162D-17 -0.15135100D-02 -0.81531322D-04
  0.35522825D-18 -0.19726059D-03  0.34395280D-03  0.71070203D-17  0.84152248D-17
  0.13161366D-01  0.23737066D-01  0.35000289D-01  0.19811727D-01  0.47486590D-02
  0.77249822D-03 -0.20746690D-02 -0.10989524D-01  0.28789546D-16 -0.36130983D-02
 -0.51167420D-02 -0.20780832D-16  0.33848127D-03 -0.47945690D-03  0.15260439D-16
 -0.22858569D-02  0.31710241D-02 -0.88516713D-03  0.26345587D-02  0.70398828D-18
  0.30667236D-16  0.31395826D-03  0.54838248D-03 -0.86234074D-03  0.20307202D-02
 -0.14244863D-17  0.26530893D-17 -0.13182265D-01 -0.23774758D-01 -0.35055867D-01
 -0.19821770D-01 -0.47578591D-02 -0.76688837D-03  0.10555998D-01 -0.37140175D-02
  0.12024993D-16  0.62414643D-02  0.56668030D-03  0.23602636D-18  0.25238305D-03
 -0.53558733D-03 -0.45931972D-17 -0.29205979D-02  0.20491442D-02  0.87145363D-03
  0.34165516D-02 -0.16019129D-16  0.59397388D-17 -0.13647388D-02  0.50136416D-03
  0.86337461D-03 -0.81327301D-03  0.30082840D-17  0.20608765D-17  0.37771841D-06
  0.70408347D-06  0.11935946D-05  0.18074540D-05  0.22602275D-05  0.19458454D-05
  0.74805400D-06 -0.32414404D-08  0.98950467D-05  0.18581145D-04  0.31640486D-04
  0.49564634D-04  0.66422440D-04  0.71446290D-04  0.42896259D-04 -0.28210384D-04
 -0.19154177D-04 -0.43944616D-04 -0.21903691D-04 -0.11538790D+01 -0.11284684D+01
 -0.74562681D+00  0.19959850D+01  0.19520298D+01  0.12897886D+01  0.55115773D-14
  0.53902022D-14  0.35615345D-14 -0.25373073D+00  0.43890282D+00  0.12558108D-14
 -0.47270792D-01  0.81750579D-01  0.19602141D-15 -0.94714121D-03  0.16341528D-02
  0.14990559D-16 -0.37550698D-01  0.37573223D-01 -0.22525012D-04  0.43208537D-01
  0.24798944D-15 -0.11552169D-17 -0.12852128D-01  0.12857294D-01 -0.51657211D-05
  0.14781947D-01  0.94774155D-16  0.12332155D-16 -0.44877294D-02  0.44902696D-02
 -0.25401717D-05  0.51623300D-02  0.72424543D-17 -0.34892837D-17 -0.96064381D-02
  0.80365637D-03  0.58776726D-16  0.27021954D-01  0.70924540D-03 -0.10400957D-15
  0.17973606D-02 -0.31202145D-02 -0.72320603D-16  0.34854942D-16 -0.30430055D-02
  0.17567936D-03 -0.70928248D-17  0.87502676D-02  0.13768516D-03  0.13615849D-16
  0.37874886D-03 -0.66472326D-03  0.76626260D-17  0.10080923D-16
MO    6     MO 0.0        OCC NO =    2.0000000  ORB. ENERGY =   -0.554391
 -0.62016475D-16 -0.11556364D-15 -0.19475670D-15 -0.29057540D-15 -0.35196792D-15
 -0.29286353D-15 -0.10877104D-15  0.57744257D-18 -0.48542417D-17 -0.90671690D-17
 -0.15432367D-16 -0.23602103D-16 -0.30695935D-16 -0.31071244D-16 -0.20458839D-16
  0.13984745D-16 -0.50850881D-17 -0.86459298D-16  0.39889835D-15  0.27771590D-15
  0.25029294D-15  0.18172891D-15  0.45582878D-15  0.41081813D-15  0.29828060D-15
  0.10792578D+00  0.97268688D-01  0.70623375D-01  0.22871330D-15 -0.98693716D-15
  0.17218779D-01 -0.18662673D-15 -0.33625388D-15  0.29379611D-03 -0.38024452D-16
  0.85997737D-16 -0.22374057D-04 -0.19346601D-15  0.18811551D-15  0.53505060D-17
  0.21518926D-15 -0.29232865D-01 -0.16912916D-01 -0.41168351D-16  0.55452673D-16
 -0.14284321D-16 -0.15915862D-15  0.58326896D-03  0.34060253D-03 -0.10754238D-16
  0.15235022D-16 -0.44807846D-17 -0.83178651D-17  0.93953157D-04  0.54240783D-04
 -0.15459222D-16 -0.49134453D-16 -0.15400871D-02  0.89152160D-17  0.77476363D-16
  0.47474744D-02  0.37462449D-16  0.69926995D-16 -0.12721304D-03  0.84842151D-02
 -0.38997623D-16 -0.89237784D-17  0.18262729D-03  0.74606538D-16 -0.70901347D-17
 -0.54824385D-03  0.42386329D-16  0.33861470D-16  0.36198691D-06 -0.95582402D-03
  0.67474577D-16  0.12169318D-15  0.17943652D-15  0.52836301D-15  0.50359511D-15
 -0.80244884D-15  0.26302512D-16 -0.67983084D-16  0.23467397D-02 -0.33829392D-15
 -0.24159556D-15  0.80168669D-03  0.63037737D-16 -0.30203781D-16 -0.16842466D-03
  0.47519057D-17  0.18651842D-15 -0.19127032D-15 -0.12450809D-15 -0.17696250D-02
 -0.29961076D-02  0.48571176D-17 -0.44525276D-17 -0.40458994D-18 -0.18691846D-16
  0.20347353D-03  0.14740560D-03  0.11336185D-15  0.20445276D-15  0.30146547D-15
 -0.10310403D-15 -0.15031955D-15  0.50754291D-15 -0.25470167D-15 -0.11211888D-15
  0.23554733D-02  0.51142676D-15  0.42253609D-15  0.80698594D-03  0.13210054D-15
  0.32133118D-15 -0.16861389D-03 -0.12730655D-15  0.32174620D-16  0.95131928D-16
  0.25738242D-15 -0.34778360D-02 -0.24020163D-04 -0.75961516D-16  0.11335511D-15
 -0.37393594D-16 -0.17110427D-15  0.22477052D-03  0.10095307D-03  0.15986218D-15
  0.29799003D-15  0.50516635D-15  0.76497074D-15  0.95659860D-15  0.82354228D-15
  0.31659972D-15 -0.13718784D-17 -0.10617570D-15 -0.19937917D-15 -0.33950834D-15
 -0.53183780D-15 -0.71272522D-15 -0.76663207D-15 -0.46028489D-15  0.30270271D-15
  0.94923976D-17 -0.14510021D-15 -0.42232642D-15 -0.13765088D-14 -0.13461956D-14
 -0.88948832D-15 -0.66758140D-14 -0.65288003D-14 -0.43138544D-14  0.24791458D+01
  0.24245504D+01  0.16020030D+01 -0.12275481D-15 -0.10557328D-14  0.55249809D+00
 -0.13408192D-15 -0.38500305D-15  0.95794345D-01 -0.25533846D-16  0.66357855D-16
  0.25003873D-02  0.42682763D-15 -0.37138196D-15 -0.55445671D-16  0.71568056D-15
  0.78243237D-01  0.45307228D-01  0.11377022D-15 -0.15566355D-15  0.41893333D-16
 -0.48303437D-15  0.28203029D-01  0.16332560D-01 -0.90177661D-16  0.42100086D-16
  0.48077575D-16  0.21930315D-15  0.72869775D-02  0.42166819D-02  0.21672007D-15
  0.60471602D-16 -0.50059480D-02 -0.43490829D-15 -0.46781452D-15  0.16550214D-01
 -0.21525192D-15  0.28639972D-15 -0.15323700D-02  0.31507557D-01 -0.11877878D-15
  0.22661769D-16 -0.17516086D-02  0.98821232D-16 -0.21365689D-16  0.58516467D-02
  0.25751512D-15 -0.46619618D-16 -0.59682105D-03  0.11231026D-01
MO    7     MO 0.0        OCC NO =    2.0000000  ORB. ENERGY =   -0.523764
 -0.31851562D-02 -0.59353300D-02 -0.10002673D-01 -0.14923905D-01 -0.18077015D-01
 -0.15041424D-01 -0.55864629D-02  0.29657357D-04 -0.22943035D-01 -0.42854968D-01
 -0.72939371D-01 -0.11155272D+00 -0.14508093D+00 -0.14685479D+00 -0.96696431D-01
  0.66097346D-01  0.24561258D-01  0.97629140D-02 -0.51082973D-03  0.20005817D+00
  0.18030350D+00  0.13091203D+00  0.11589149D+00  0.10444783D+00  0.75835894D-01
 -0.15082867D-15 -0.13593515D-15 -0.98697733D-16  0.37077459D-01  0.21459327D-01
  0.40019812D-16  0.65426120D-03  0.37382398D-03 -0.26671864D-16  0.42573996D-05
  0.26485637D-05  0.10438159D-16 -0.92175883D-02  0.95770783D-02 -0.35949004D-03
 -0.32576478D-01  0.66087966D-16 -0.13781100D-15 -0.12216808D-02  0.13326649D-02
 -0.11098417D-03 -0.44383414D-02  0.18720198D-17 -0.17336659D-16 -0.34318015D-04
  0.12458476D-04  0.21859539D-04 -0.80539729D-04 -0.70961325D-18 -0.72981388D-18
  0.40390146D-03 -0.17129461D-04  0.42451224D-17  0.41519619D-03  0.99019517D-03
 -0.13285121D-16 -0.16269006D-02 -0.93880678D-03  0.54975391D-18 -0.18547618D-16
  0.42895262D-04 -0.26329114D-04 -0.27904684D-18  0.45783942D-04  0.17993667D-03
  0.12636164D-17 -0.17446973D-03 -0.10094933D-03 -0.42647588D-18  0.14998713D-17
  0.30096271D-01  0.54279865D-01  0.80035629D-01  0.48106241D-01  0.13911765D-01
  0.24251578D-03  0.36808695D-02 -0.17315033D-01 -0.19577871D-16  0.26022225D-02
 -0.38683923D-02  0.40916773D-17  0.56286242D-03 -0.10228832D-02  0.28446396D-17
 -0.18595265D-02  0.31527488D-02 -0.12932223D-02 -0.34672991D-02  0.39456657D-17
  0.22885533D-16 -0.23109754D-03  0.29991215D-03 -0.68814602D-04 -0.10226001D-03
 -0.39999853D-18 -0.25150766D-17  0.30025039D-01  0.54151395D-01  0.79846200D-01
  0.47944504D-01  0.13852767D-01  0.24388554D-03 -0.13104973D-01  0.11842308D-01
 -0.87347072D-17 -0.20160857D-02  0.41775823D-02 -0.10144762D-16 -0.59691264D-03
  0.99812265D-03 -0.30197167D-17  0.38069746D-03  0.90589797D-03 -0.12865954D-02
 -0.60637223D-02  0.16052876D-16 -0.78605851D-17  0.12362009D-03 -0.53723383D-04
 -0.69896705D-04 -0.50344919D-03  0.28933084D-17 -0.19013364D-17 -0.11866600D-02
 -0.22119857D-02 -0.37498595D-02 -0.56783924D-02 -0.71008497D-02 -0.61131701D-02
 -0.23501258D-02  0.10183480D-04  0.10720724D-02  0.20131621D-02  0.34280678D-02
  0.53700480D-02  0.71964961D-02  0.77408018D-02  0.46475672D-02 -0.30564358D-02
 -0.13982782D-02  0.12636873D-01 -0.79815906D-03 -0.10192889D+01 -0.99684225D+00
 -0.65865582D+00 -0.59002331D+00 -0.57702991D+00 -0.38126806D+00 -0.69906713D-14
 -0.68367239D-14 -0.45173125D-14 -0.22524334D+00 -0.13038478D+00 -0.15696444D-14
 -0.32687523D-01 -0.18922534D-01 -0.26936276D-15 -0.12283290D-02 -0.70953867D-03
 -0.12910773D-16 -0.23439316D-01  0.53380758D-02  0.18101240D-01 -0.50155140D-01
 -0.81793548D-16 -0.71695574D-16 -0.37711522D-02  0.11930799D-02  0.25780722D-02
 -0.86351976D-02 -0.44022712D-16 -0.30448235D-16 -0.97011120D-03  0.78132289D-07
  0.97003307D-03 -0.16837262D-02 -0.21722753D-16 -0.12824452D-16 -0.21988753D-02
  0.58451378D-02  0.71309603D-17 -0.23221693D-02 -0.22705790D-01 -0.95859661D-17
  0.89187951D-02  0.51703763D-02 -0.11806915D-16 -0.39756617D-16 -0.12765524D-03
 -0.23122145D-04  0.42766970D-17 -0.11488591D-03 -0.21471569D-03 -0.18771029D-16
  0.49785164D-03  0.28408212D-03  0.59409381D-17 -0.37049522D-16
MO    8     MO 0.0        OCC NO =    2.0000000  ORB. ENERGY =   -0.401068
  0.22626842D-05  0.42163639D-05  0.71057393D-05  0.10601705D-04  0.12841624D-04
  0.10685188D-04  0.39685343D-05 -0.21068114D-07  0.11803330D-04  0.22047272D-04
  0.37524569D-04  0.57389687D-04  0.74638692D-04  0.75551276D-04  0.49746684D-04
 -0.34004604D-04 -0.87623577D-05 -0.20563386D-04  0.23045722D-05 -0.13059222D+00
 -0.11769694D+00 -0.85455611D-01  0.22562156D+00  0.20334264D+00  0.14763994D+00
  0.16581426D-15  0.14944099D-15  0.10850385D-15 -0.29402545D-01  0.50771329D-01
  0.38234111D-16 -0.11585532D-02  0.20003717D-02 -0.58126089D-16 -0.76200448D-05
  0.13140045D-04  0.16536575D-17 -0.19606998D-01  0.19613735D-01 -0.67369598D-05
  0.22683713D-01 -0.31718084D-16  0.91435168D-16 -0.12603942D-02  0.12596879D-02
  0.70622270D-06  0.14639457D-02 -0.37336987D-16  0.40784754D-17  0.22387781D-04