 Molden2AIM, Version 4.0.0 (06/02/2016)           Time: Thu Jun 28 02:32:10 2018
GAUSSIAN             15 MOL ORBITALS    300 PRIMITIVES        4 NUCLEI
  B    1    (CENTRE  1)  -5.55600457  5.33205312 -0.75182754  CHARGE =  5.0
  N    2    (CENTRE  2)  -6.01111298  7.45803848  0.21245813  CHARGE =  7.0
  F    3    (CENTRE  3)  -7.11241702  8.61074118  2.15533658  CHARGE =  9.0
  F    4    (CENTRE  4)  -4.83799368  3.42771186 -2.13728592  CHARGE =  9.0
CENTRE ASSIGNMENTS    1  1  1  1  1  1  1  1  1  1  1  1  1  1  1  1  1  1  1  1
CENTRE ASSIGNMENTS    1  1  1  1  1  1  1  1  1  1  1  1  1  1  1  1  1  1  1  1
CENTRE ASSIGNMENTS    1  1  1  1  1  1  1  1  1  1  1  1  1  1  1  1  1  1  1  1
CENTRE ASSIGNMENTS    1  1  1  1  1  1  1  1  1  1  1  1  1  1  1  2  2  2  2  2
CENTRE ASSIGNMENTS    2  2  2  2  2  2  2  2  2  2  2  2  2  2  2  2  2  2  2  2
CENTRE ASSIGNMENTS    2  2  2  2  2  2  2  2  2  2  2  2  2  2  2  2  2  2  2  2
CENTRE ASSIGNMENTS    2  2  2  2  2  2  2  2  2  2  2  2  2  2  2  2  2  2  2  2
CENTRE ASSIGNMENTS    2  2  2  2  2  2  2  2  2  2  3  3  3  3  3  3  3  3  3  3
CENTRE ASSIGNMENTS    3  3  3  3  3  3  3  3  3  3  3  3  3  3  3  3  3  3  3  3
CENTRE ASSIGNMENTS    3  3  3  3  3  3  3  3  3  3  3  3  3  3  3  3  3  3  3  3
CENTRE ASSIGNMENTS    3  3  3  3  3  3  3  3  3  3  3  3  3  3  3  3  3  3  3  3
CENTRE ASSIGNMENTS    3  3  3  3  3  4  4  4  4  4  4  4  4  4  4  4  4  4  4  4
CENTRE ASSIGNMENTS    4  4  4  4  4  4  4  4  4  4  4  4  4  4  4  4  4  4  4  4
CENTRE ASSIGNMENTS    4  4  4  4  4  4  4  4  4  4  4  4  4  4  4  4  4  4  4  4
CENTRE ASSIGNMENTS    4  4  4  4  4  4  4  4  4  4  4  4  4  4  4  4  4  4  4  4
TYPE ASSIGNMENTS      1  1  1  1  1  1  1  1  1  1  1  1  1  1  1  1  1  1  1  2
TYPE ASSIGNMENTS      2  2  3  3  3  4  4  4  2  3  4  2  3  4  2  3  4  5  6  7
TYPE ASSIGNMENTS      8  9 10  5  6  7  8  9 10  5  6  7  8  9 10 11 12 13 17 14
TYPE ASSIGNMENTS     15 18 19 16 20 11 12 13 17 14 15 18 19 16 20  1  1  1  1  1
TYPE ASSIGNMENTS      1  1  1  1  1  1  1  1  1  1  1  1  1  1  2  2  2  3  3  3
TYPE ASSIGNMENTS      4  4  4  2  3  4  2  3  4  2  3  4  5  6  7  8  9 10  5  6
TYPE ASSIGNMENTS      7  8  9 10  5  6  7  8  9 10 11 12 13 17 14 15 18 19 16 20
TYPE ASSIGNMENTS     11 12 13 17 14 15 18 19 16 20  1  1  1  1  1  1  1  1  1  1
TYPE ASSIGNMENTS      1  1  1  1  1  1  1  1  1  2  2  2  3  3  3  4  4  4  2  3
TYPE ASSIGNMENTS      4  2  3  4  2  3  4  5  6  7  8  9 10  5  6  7  8  9 10  5
TYPE ASSIGNMENTS      6  7  8  9 10 11 12 13 17 14 15 18 19 16 20 11 12 13 17 14
TYPE ASSIGNMENTS     15 18 19 16 20  1  1  1  1  1  1  1  1  1  1  1  1  1  1  1
TYPE ASSIGNMENTS      1  1  1  1  2  2  2  3  3  3  4  4  4  2  3  4  2  3  4  2
TYPE ASSIGNMENTS      3  4  5  6  7  8  9 10  5  6  7  8  9 10  5  6  7  8  9 10
TYPE ASSIGNMENTS     11 12 13 17 14 15 18 19 16 20 11 12 13 17 14 15 18 19 16 20
EXPONENTS  0.5473000D+04 0.8209000D+03 0.1868000D+03 0.5283000D+02 0.1708000D+02
EXPONENTS  0.5999000D+01 0.2208000D+01 0.2415000D+00 0.5473000D+04 0.8209000D+03
EXPONENTS  0.1868000D+03 0.5283000D+02 0.1708000D+02 0.5999000D+01 0.2208000D+01
EXPONENTS  0.2415000D+00 0.5879000D+00 0.8610000D-01 0.2914000D-01 0.1205000D+02
EXPONENTS  0.2613000D+01 0.7475000D+00 0.1205000D+02 0.2613000D+01 0.7475000D+00
EXPONENTS  0.1205000D+02 0.2613000D+01 0.7475000D+00 0.2385000D+00 0.2385000D+00
EXPONENTS  0.2385000D+00 0.7698000D-01 0.7698000D-01 0.7698000D-01 0.2096000D-01
EXPONENTS  0.2096000D-01 0.2096000D-01 0.6610000D+00 0.6610000D+00 0.6610000D+00
EXPONENTS  0.6610000D+00 0.6610000D+00 0.6610000D+00 0.1990000D+00 0.1990000D+00
EXPONENTS  0.1990000D+00 0.1990000D+00 0.1990000D+00 0.1990000D+00 0.6040000D-01
EXPONENTS  0.6040000D-01 0.6040000D-01 0.6040000D-01 0.6040000D-01 0.6040000D-01
EXPONENTS  0.4900000D+00 0.4900000D+00 0.4900000D+00 0.4900000D+00 0.4900000D+00
EXPONENTS  0.4900000D+00 0.4900000D+00 0.4900000D+00 0.4900000D+00 0.4900000D+00
EXPONENTS  0.1630000D+00 0.1630000D+00 0.1630000D+00 0.1630000D+00 0.1630000D+00
EXPONENTS  0.1630000D+00 0.1630000D+00 0.1630000D+00 0.1630000D+00 0.1630000D+00
EXPONENTS  0.1142000D+05 0.1712000D+04 0.3893000D+03 0.1100000D+03 0.3557000D+02
EXPONENTS  0.1254000D+02 0.4644000D+01 0.5118000D+00 0.1142000D+05 0.1712000D+04
EXPONENTS  0.3893000D+03 0.1100000D+03 0.3557000D+02 0.1254000D+02 0.4644000D+01
EXPONENTS  0.5118000D+00 0.1293000D+01 0.1787000D+00 0.5760000D-01 0.2663000D+02
EXPONENTS  0.5948000D+01 0.1742000D+01 0.2663000D+02 0.5948000D+01 0.1742000D+01
EXPONENTS  0.2663000D+02 0.5948000D+01 0.1742000D+01 0.5550000D+00 0.5550000D+00
EXPONENTS  0.5550000D+00 0.1725000D+00 0.1725000D+00 0.1725000D+00 0.4910000D-01
EXPONENTS  0.4910000D-01 0.4910000D-01 0.1654000D+01 0.1654000D+01 0.1654000D+01
EXPONENTS  0.1654000D+01 0.1654000D+01 0.1654000D+01 0.4690000D+00 0.4690000D+00
EXPONENTS  0.4690000D+00 0.4690000D+00 0.4690000D+00 0.4690000D+00 0.1510000D+00
EXPONENTS  0.1510000D+00 0.1510000D+00 0.1510000D+00 0.1510000D+00 0.1510000D+00
EXPONENTS  0.1093000D+01 0.1093000D+01 0.1093000D+01 0.1093000D+01 0.1093000D+01
EXPONENTS  0.1093000D+01 0.1093000D+01 0.1093000D+01 0.1093000D+01 0.1093000D+01
EXPONENTS  0.3640000D+00 0.3640000D+00 0.3640000D+00 0.3640000D+00 0.3640000D+00
EXPONENTS  0.3640000D+00 0.3640000D+00 0.3640000D+00 0.3640000D+00 0.3640000D+00
EXPONENTS  0.1950000D+05 0.2923000D+04 0.6645000D+03 0.1875000D+03 0.6062000D+02
EXPONENTS  0.2142000D+02 0.7950000D+01 0.8815000D+00 0.1950000D+05 0.2923000D+04
EXPONENTS  0.6645000D+03 0.1875000D+03 0.6062000D+02 0.2142000D+02 0.7950000D+01
EXPONENTS  0.8815000D+00 0.2257000D+01 0.3041000D+00 0.9158000D-01 0.4388000D+02
EXPONENTS  0.9926000D+01 0.2930000D+01 0.4388000D+02 0.9926000D+01 0.2930000D+01
EXPONENTS  0.4388000D+02 0.9926000D+01 0.2930000D+01 0.9132000D+00 0.9132000D+00
EXPONENTS  0.9132000D+00 0.2672000D+00 0.2672000D+00 0.2672000D+00 0.7361000D-01
EXPONENTS  0.7361000D-01 0.7361000D-01 0.3107000D+01 0.3107000D+01 0.3107000D+01
EXPONENTS  0.3107000D+01 0.3107000D+01 0.3107000D+01 0.8550000D+00 0.8550000D+00
EXPONENTS  0.8550000D+00 0.8550000D+00 0.8550000D+00 0.8550000D+00 0.2920000D+00
EXPONENTS  0.2920000D+00 0.2920000D+00 0.2920000D+00 0.2920000D+00 0.2920000D+00
EXPONENTS  0.1917000D+01 0.1917000D+01 0.1917000D+01 0.1917000D+01 0.1917000D+01
EXPONENTS  0.1917000D+01 0.1917000D+01 0.1917000D+01 0.1917000D+01 0.1917000D+01
EXPONENTS  0.7240000D+00 0.7240000D+00 0.7240000D+00 0.7240000D+00 0.7240000D+00
EXPONENTS  0.7240000D+00 0.7240000D+00 0.7240000D+00 0.7240000D+00 0.7240000D+00
EXPONENTS  0.1950000D+05 0.2923000D+04 0.6645000D+03 0.1875000D+03 0.6062000D+02
EXPONENTS  0.2142000D+02 0.7950000D+01 0.8815000D+00 0.1950000D+05 0.2923000D+04
EXPONENTS  0.6645000D+03 0.1875000D+03 0.6062000D+02 0.2142000D+02 0.7950000D+01
EXPONENTS  0.8815000D+00 0.2257000D+01 0.3041000D+00 0.9158000D-01 0.4388000D+02
EXPONENTS  0.9926000D+01 0.2930000D+01 0.4388000D+02 0.9926000D+01 0.2930000D+01
EXPONENTS  0.4388000D+02 0.9926000D+01 0.2930000D+01 0.9132000D+00 0.9132000D+00
EXPONENTS  0.9132000D+00 0.2672000D+00 0.2672000D+00 0.2672000D+00 0.7361000D-01
EXPONENTS  0.7361000D-01 0.7361000D-01 0.3107000D+01 0.3107000D+01 0.3107000D+01
EXPONENTS  0.3107000D+01 0.3107000D+01 0.3107000D+01 0.8550000D+00 0.8550000D+00
EXPONENTS  0.8550000D+00 0.8550000D+00 0.8550000D+00 0.8550000D+00 0.2920000D+00
EXPONENTS  0.2920000D+00 0.2920000D+00 0.2920000D+00 0.2920000D+00 0.2920000D+00
EXPONENTS  0.1917000D+01 0.1917000D+01 0.1917000D+01 0.1917000D+01 0.1917000D+01
EXPONENTS  0.1917000D+01 0.1917000D+01 0.1917000D+01 0.1917000D+01 0.1917000D+01
EXPONENTS  0.7240000D+00 0.7240000D+00 0.7240000D+00 0.7240000D+00 0.7240000D+00
EXPONENTS  0.7240000D+00 0.7240000D+00 0.7240000D+00 0.7240000D+00 0.7240000D+00
MO    1     MO 0.0        OCC NO =    2.0000000  ORB. ENERGY =  -25.318547
  0.45774325D-03  0.85297457D-03  0.14374981D-02  0.21447353D-02  0.25978732D-02
  0.21616240D-02  0.80283840D-03 -0.42621003D-05 -0.35184592D-03 -0.65720799D-03
 -0.11185713D-02 -0.17107314D-02 -0.22249076D-02 -0.22521109D-02 -0.14829008D-02
  0.10136445D-02  0.36293644D-03  0.67155231D-03 -0.16853191D-04  0.50590143D-04
  0.45594638D-04  0.33104664D-04 -0.21475018D-04 -0.19354475D-04 -0.14052604D-04
 -0.87277646D-04 -0.78659447D-04 -0.57111860D-04  0.36259170D-03 -0.11606405D-02
 -0.71853877D-03  0.98852083D-04 -0.32944925D-03 -0.19714875D-03 -0.11402202D-05
  0.22085437D-05  0.21213064D-05 -0.40543378D-03  0.45673263D-03 -0.51298854D-04
 -0.74351321D-03 -0.48989796D-03  0.14341582D-02 -0.46348393D-04  0.24152364D-04
  0.22196029D-04 -0.12582796D-03 -0.10017512D-03  0.22936368D-03 -0.40116747D-05
  0.29950507D-05  0.10166240D-05 -0.89683149D-05 -0.73870123D-05  0.16727346D-04
 -0.62984543D-04 -0.95212246D-05  0.62828865D-04  0.13235127D-03  0.12833570D-03
  0.77034836D-04  0.56602354D-04 -0.99772028D-04 -0.26552143D-03  0.32859036D-03
 -0.66786109D-05 -0.20262536D-05  0.75297734D-05  0.15879464D-04  0.14820183D-04
  0.90504232D-05  0.41563686D-05 -0.87414223D-05 -0.31639743D-04  0.32781642D-04
  0.21972911D-04  0.40943284D-04  0.69245358D-04  0.10427967D-03  0.12910500D-03
  0.10986253D-03  0.41804719D-04 -0.19578933D-06 -0.19533038D-04 -0.36624628D-04
 -0.62309390D-04 -0.96759904D-04 -0.12840602D-03 -0.13532232D-03 -0.83908471D-04
  0.55815947D-04  0.20451702D-03  0.31750047D-03  0.35711047D-03  0.41490860D-04
  0.39851475D-04  0.27946605D-04 -0.25680341D-03 -0.24665661D-03 -0.17297264D-03
 -0.93747148D-04 -0.90043015D-04 -0.63144377D-04 -0.99078121D-04  0.22832257D-03
  0.18728014D-03  0.76814162D-04 -0.90735221D-04 -0.13661969D-03  0.13658118D-04
 -0.41107327D-04 -0.26757276D-04  0.55734613D-04 -0.83683908D-04  0.27949294D-04
  0.83604428D-04  0.31229799D-04 -0.16856617D-03  0.92787141D-04 -0.16212174D-03
  0.69334597D-04  0.10715767D-03  0.17861388D-04 -0.22806631D-03 -0.40819766D-05
  0.37141370D-05  0.36783963D-06 -0.10946376D-04 -0.56399959D-05  0.20145692D-04
  0.68076258D-04  0.12063046D-03 -0.98814353D-04 -0.18347862D-03 -0.28108629D-03
 -0.10950427D-03 -0.20750151D-04 -0.80805073D-04  0.40594733D-03 -0.24561434D-03
 -0.60860039D-05  0.35524900D-04 -0.95332522D-05 -0.14061980D-04 -0.34598717D-04
 -0.73947193D-05  0.32319992D-04 -0.71975984D-04  0.35994476D-04  0.73972618D-04
  0.70455526D-04  0.13133215D-03  0.22264029D-03  0.33714301D-03  0.42159852D-03
  0.36295705D-03  0.13953394D-03 -0.60462341D-06 -0.27519986D-04 -0.51677659D-04
 -0.87998141D-04 -0.13784857D-03 -0.18473330D-03 -0.19870557D-03 -0.11930256D-03
  0.78458384D-04 -0.86218469D-05  0.10065813D-03 -0.66081828D-05 -0.28071646D-04
 -0.27453457D-04 -0.18139660D-04 -0.28946470D-04 -0.28309016D-04 -0.18704963D-04
  0.43453131D-04  0.42496213D-04  0.28079044D-04  0.52907232D-04 -0.13687978D-04
 -0.88941551D-04 -0.65303092D-05 -0.15976752D-04  0.91325788D-05  0.21864040D-06
  0.63928939D-05  0.21313593D-06 -0.23389528D-04  0.54399479D-05  0.17949580D-04
 -0.20079513D-04 -0.72152611D-04  0.42304270D-04  0.60898019D-05 -0.84113506D-05
  0.23215487D-05  0.21141532D-05  0.59883623D-05 -0.63971006D-05  0.13866954D-04
 -0.10391112D-04 -0.34758423D-05  0.15041554D-04  0.29054701D-04 -0.31370764D-04
 -0.77328633D-04 -0.22589682D-04  0.49873624D-04  0.10139656D-03  0.86816150D-04
  0.46089274D-04  0.13058934D-03 -0.19047103D-04 -0.19571015D-03  0.10827881D-03
  0.32999297D-04  0.56979892D-05 -0.15966487D-04 -0.31047569D-04 -0.33917626D-04
 -0.14517045D-04 -0.67950323D-04  0.16823659D-04  0.62416505D-04 -0.61179766D-04
  0.59530868D+00  0.11096812D+01  0.18811824D+01  0.28486646D+01  0.35622651D+01
  0.30667784D+01  0.11789816D+01 -0.51087202D-02  0.24992239D-03  0.46930999D-03
  0.79915398D-03  0.12518700D-02  0.16776530D-02  0.18045421D-02  0.10834447D-02
 -0.71251880D-03  0.60165588D-01 -0.10757117D-02 -0.15006921D-02 -0.22386142D-02
 -0.21893158D-02 -0.14465735D-02  0.59212374D-02  0.57908408D-02  0.38262534D-02
  0.43219989D-02  0.42268206D-02  0.27928391D-02  0.41719513D-03 -0.11003927D-02
 -0.80522386D-03  0.31863580D-03 -0.86182693D-03 -0.61642684D-03  0.28508604D-04
 -0.81372386D-04 -0.55617812D-04 -0.70426397D-03  0.71883152D-03 -0.14567552D-04
 -0.13269025D-02 -0.98304435D-03  0.25402150D-02  0.34446111D-03 -0.35087773D-03
  0.64166203D-05  0.63066443D-03  0.48523795D-03 -0.12147343D-02  0.60824703D-04
 -0.68143338D-04  0.73186358D-05  0.10557154D-03  0.75239817D-04 -0.20540416D-03
  0.68654516D-04 -0.14715635D-04 -0.50180723D-04 -0.11120196D-03 -0.90620962D-04
 -0.63096054D-04 -0.94761589D-04  0.13476787D-03  0.21363822D-03 -0.33120709D-03
 -0.96386657D-04  0.84798670D-05  0.92911765D-04  0.20337181D-03  0.15706931D-03
  0.11414189D-03  0.85788165D-04 -0.18250891D-03 -0.39287719D-03  0.48644363D-03
MO    2     MO 0.0        OCC NO =    2.0000000  ORB. ENERGY =  -25.302900
 -0.33039293D-04 -0.61566560D-04 -0.10375668D-03 -0.15480412D-03 -0.18751100D-03
 -0.15602312D-03 -0.57947798D-04  0.30763268D-06  0.23143666D-04  0.43229724D-04
  0.73577208D-04  0.11252822D-03  0.14634963D-03  0.14813900D-03  0.97542018D-04
 -0.66675351D-04 -0.36015568D-03 -0.19907978D-03 -0.18131177D-04  0.27549801D-04
  0.24829406D-04  0.18027759D-04 -0.24728184D-03 -0.22286408D-03 -0.16181378D-03
 -0.69979840D-04 -0.63069707D-04 -0.45792697D-04 -0.22168676D-03  0.34576942D-03
  0.40232057D-03 -0.23053067D-04  0.13977515D-04  0.39755221D-04  0.66921233D-06
 -0.18176183D-05 -0.12926238D-05 -0.81741508D-04  0.44274685D-04  0.37466823D-04
 -0.20904103D-03 -0.17789823D-03  0.38135278D-03 -0.66652996D-05 -0.28328778D-04
  0.34994077D-04 -0.75364373D-04 -0.62795043D-04  0.12439273D-03 -0.13572553D-05
 -0.16155800D-05  0.29728353D-05 -0.59515234D-05 -0.69110903D-05  0.10185993D-04
  0.47356432D-04  0.35866833D-04 -0.72913171D-04 -0.15329793D-03 -0.14011707D-03
 -0.85213998D-04  0.11228632D-04  0.32516573D-04  0.30395351D-03 -0.22845509D-03
  0.43137211D-05 -0.12223809D-05 -0.53314464D-05 -0.12368669D-04 -0.55597841D-05
 -0.63001746D-05 -0.57249433D-06  0.92269269D-05  0.22294514D-04 -0.20303755D-04
  0.10089306D-03  0.18799935D-03  0.31795404D-03  0.47882116D-03  0.59281166D-03
  0.50445597D-03  0.19195480D-03 -0.89900623D-06 -0.61408640D-04 -0.11514177D-03
 -0.19589042D-03 -0.30419713D-03 -0.40368729D-03 -0.42543099D-03 -0.26379435D-03
  0.17547611D-03 -0.55557401D-03  0.74961302D-03  0.36062321D-03  0.50182739D-03
  0.48199921D-03  0.33801111D-03 -0.61529655D-03 -0.59098498D-03 -0.41443946D-03
 -0.89399462D-03 -0.85867114D-03 -0.60215948D-03 -0.87841508D-03  0.13884925D-02
  0.15954708D-02 -0.13806077D-04  0.38900634D-04  0.26648461D-04 -0.15031138D-05
 -0.60214520D-05  0.19453312D-05 -0.54579834D-04 -0.32502424D-03  0.37960408D-03
 -0.28470948D-03 -0.76084620D-03  0.46330079D-03 -0.12169106D-03 -0.26507678D-03
  0.38676784D-03 -0.50638756D-03 -0.85165880D-03  0.86072840D-03 -0.64227403D-05
 -0.14343069D-04  0.20765809D-04 -0.32287637D-04 -0.44398903D-04  0.54568989D-04
  0.41083659D-03 -0.32022948D-03 -0.52871221D-04 -0.12007046D-03 -0.16254280D-03
 -0.94410372D-04 -0.11124393D-02  0.11232312D-02  0.25302403D-03 -0.21047275D-02
 -0.18263246D-04  0.54600056D-05  0.38253619D-04  0.90460599D-04  0.35200763D-04
  0.46491604D-04 -0.35670863D-04 -0.51580780D-04 -0.16125246D-03  0.11661226D-03
  0.59523143D+00  0.11095372D+01  0.18809383D+01  0.28482949D+01  0.35618028D+01
  0.30663804D+01  0.11788286D+01 -0.51080572D-02  0.28416409D-03  0.53360983D-03
  0.90864551D-03  0.14233878D-02  0.19075071D-02  0.20517811D-02  0.12318867D-02
 -0.81014050D-03  0.60445624D-01 -0.23584522D-03 -0.65037985D-03  0.42007312D-02
  0.41082233D-02  0.27144769D-02 -0.46694219D-02 -0.45665926D-02 -0.30173408D-02
 -0.74364467D-02 -0.72726824D-02 -0.48053688D-02 -0.70552966D-03  0.82766750D-03
  0.12532915D-02 -0.36942318D-03  0.53792122D-03  0.66653372D-03 -0.25210393D-04
  0.42278714D-04  0.46019235D-04 -0.63132470D-03 -0.44815439D-03  0.10794791D-02
 -0.17725603D-02 -0.28387243D-02  0.31404174D-02  0.30212326D-03  0.20979123D-03
 -0.51191449D-03  0.86805220D-03  0.13459884D-02 -0.15346669D-02  0.58213071D-04
  0.33750858D-05 -0.61588157D-04  0.16718893D-03  0.18917585D-03 -0.29877861D-03
 -0.13313647D-03  0.18405388D-03  0.46017740D-04  0.13018551D-03  0.10622643D-04
  0.79875390D-04  0.26922389D-03 -0.56278427D-03 -0.21792861D-03  0.94410570D-03
  0.19789857D-03 -0.21647218D-03 -0.21417388D-04 -0.66746368D-04 -0.14485518D-04
 -0.48381206D-04 -0.52694933D-03  0.66390207D-03  0.11263337D-03 -0.11273255D-02
 -0.52738482D-05 -0.98306815D-05 -0.16665422D-04 -0.25236360D-04 -0.31558157D-04
 -0.27168634D-04 -0.10444615D-04  0.45258225D-07 -0.17236051D-04 -0.32366252D-04
 -0.55114145D-04 -0.86335982D-04 -0.11570037D-03 -0.12445135D-03 -0.74720428D-04
  0.49139297D-04 -0.79929058D-05  0.30157315D-03  0.77399257D-04  0.47695757D-04
  0.46645409D-04  0.30820594D-04 -0.66318426D-04 -0.64857972D-04 -0.42854404D-04
 -0.86316084D-04 -0.84415244D-04 -0.55776721D-04 -0.69878326D-04  0.15347330D-03
  0.13191395D-03 -0.71224746D-04  0.33585289D-04  0.12303493D-03 -0.13820736D-04
  0.78526449D-05  0.23649875D-04 -0.52450350D-04  0.11516667D-03 -0.62716321D-04
 -0.60449398D-04  0.32675092D-04  0.12996835D-03  0.10925480D-04 -0.48089665D-04
  0.37164185D-04 -0.69741613D-05 -0.47220118D-04  0.38514974D-05 -0.23672233D-05
 -0.16235369D-04  0.18602592D-04 -0.27898948D-04 -0.33289129D-04  0.45739416D-04
 -0.58407327D-05  0.89219672D-05 -0.55077060D-05 -0.11671966D-04 -0.33101045D-05
 -0.46869963D-05  0.29194164D-04 -0.23455797D-04  0.21210114D-04  0.37628776D-04
  0.25777730D-05 -0.22659552D-04  0.10640862D-04  0.19108416D-04  0.27394417D-04
  0.10116103D-04 -0.26841735D-04  0.40584238D-04 -0.42038690D-04 -0.31388818D-04
MO    3     MO 0.0        OCC NO =    2.0000000  ORB. ENERGY =  -14.820080
 -0.12748689D-03 -0.23756347D-03 -0.40036015D-03 -0.59733405D-03 -0.72353827D-03
 -0.60203775D-03 -0.22359995D-03  0.11870451D-05  0.82163615D-04  0.15347225D-03
  0.26121054D-03  0.39949269D-03  0.51956394D-03  0.52591649D-03  0.34628934D-03
 -0.23670787D-03  0.15876075D-02  0.90904545D-05 -0.12060342D-03 -0.62132503D-03
 -0.55997252D-03 -0.40657636D-03  0.24576691D-02  0.22149875D-02  0.16082245D-02
  0.12735267D-02  0.11477728D-02  0.83335746D-03  0.18434002D-02 -0.77181831D-02
 -0.38208212D-02  0.28021036D-03 -0.10673718D-02 -0.57113880D-03 -0.22416232D-05
  0.13019541D-05  0.38783527D-05  0.54392593D-03 -0.73949754D-03  0.19557160D-03
  0.50495744D-03  0.52303818D-03 -0.11191460D-02  0.73680804D-04 -0.17258841D-03
  0.98907602D-04 -0.38749172D-04 -0.43902219D-04  0.18717740D-04  0.54133010D-05
 -0.16778641D-04  0.11365340D-04 -0.42122316D-05 -0.10525291D-04  0.33954137D-05
 -0.54804118D-03 -0.66867731D-03  0.82257917D-03  0.16353698D-02  0.19371430D-02
  0.94451317D-03  0.87537180D-05  0.68888917D-04 -0.34122507D-02  0.24195283D-02
 -0.23184917D-04 -0.27655432D-04  0.33729485D-04  0.66984521D-04  0.79062236D-04
  0.38361066D-04  0.25702294D-05  0.39040608D-05 -0.13954952D-03  0.96359779D-04
  0.41289941D+00  0.76937726D+00  0.13012098D+01  0.19595499D+01  0.24260499D+01
  0.20644590D+01  0.78556472D+00 -0.36791347D-02 -0.14361760D-02 -0.26928434D-02
 -0.45813279D-02 -0.71143184D-02 -0.94411144D-02 -0.99496386D-02 -0.61694106D-02
  0.41038943D-02  0.40642043D-01  0.42601537D-02  0.96519548D-03 -0.39556073D-02
 -0.37993135D-02 -0.26643409D-02  0.14496628D-02  0.13923838D-02  0.97643563D-03
  0.67212466D-02  0.64556770D-02  0.45271663D-02  0.16236760D-02 -0.55411421D-02
 -0.32402368D-02  0.58674899D-03 -0.86765968D-03 -0.10592627D-02  0.31818921D-04
 -0.37760899D-04 -0.56698234D-04 -0.23316729D-02  0.22869726D-02  0.44700224D-04
 -0.36556564D-02 -0.36181100D-02  0.71693895D-02  0.13420689D-03  0.46522978D-03
 -0.59943667D-03  0.72422910D-03  0.12309730D-02 -0.12079098D-02  0.31133621D-04
 -0.84132707D-05 -0.22720350D-04  0.40142144D-04  0.91700814D-04 -0.79740710D-04
 -0.31537485D-03 -0.31581072D-03  0.35417148D-03  0.67451217D-03  0.96233265D-03
  0.40453267D-03  0.27161238D-03 -0.14900499D-04 -0.14670471D-02  0.13185840D-02
 -0.20280301D-05  0.20181431D-03 -0.15983409D-03 -0.32801903D-03 -0.30089051D-03
 -0.17167504D-03  0.33410312D-03 -0.30455243D-03  0.65117732D-03  0.14986641D-03
  0.11662301D-03  0.21739034D-03  0.36853007D-03  0.55806314D-03  0.69785991D-03
  0.60079238D-03  0.23096652D-03 -0.10008158D-05 -0.96975409D-04 -0.18210264D-03
 -0.31008940D-03 -0.48575320D-03 -0.65096644D-03 -0.70020218D-03 -0.42040047D-03
  0.27647303D-03 -0.35860743D-03  0.18760594D-02  0.44794572D-03 -0.34568357D-03
 -0.33807098D-03 -0.22337779D-03  0.53468135D-03  0.52290668D-03  0.34550655D-03
  0.62721155D-03  0.61339920D-03  0.40529879D-03  0.96465369D-03 -0.12478397D-02
 -0.17255583D-02  0.26177555D-03 -0.68380996D-03 -0.50187496D-03  0.14677271D-04
 -0.34309377D-04 -0.27810066D-04 -0.38780239D-03 -0.51814848D-04  0.43961724D-03
 -0.63121309D-03 -0.14160148D-02  0.11955757D-02 -0.15341620D-03 -0.18398842D-03
  0.33740461D-03 -0.64760252D-03 -0.78725535D-03  0.11123219D-02 -0.18324757D-04
  0.68286179D-04 -0.49961422D-04 -0.11774211D-03  0.85433123D-04  0.20701457D-03
 -0.72621672D-03  0.33235008D-03 -0.10169735D-04 -0.77037536D-04  0.18493961D-03
 -0.45135020D-04  0.22556877D-02 -0.11819899D-02  0.75644225D-04  0.21234246D-02
  0.23779236D-03 -0.64927414D-04 -0.24379150D-04 -0.29567104D-04 -0.11581356D-03
 -0.12542977D-04 -0.68380997D-03  0.31059581D-03  0.85680426D-04 -0.63091550D-03
 -0.25302506D-04 -0.47164967D-04 -0.79956214D-04 -0.12107727D-03 -0.15140755D-03
 -0.13034780D-03 -0.50110454D-04  0.21713680D-06  0.15316888D-04  0.28762403D-04
  0.48977413D-04  0.76722827D-04  0.10281761D-03  0.11059421D-03  0.66400617D-04
 -0.43667839D-04  0.20568800D-03 -0.59573247D-02 -0.29484979D-02 -0.79951088D-03
 -0.78190418D-03 -0.51663715D-03  0.13092910D-02  0.12804580D-02  0.84605274D-03
  0.14668148D-02  0.14345128D-02  0.94784326D-03  0.10836740D-02 -0.22492685D-02
 -0.20321053D-02  0.11947410D-02 -0.17718844D-02 -0.21795888D-02  0.53892829D-04
 -0.18718858D-03 -0.10849665D-03  0.25076216D-03 -0.11828631D-02  0.93210094D-03
 -0.28664918D-03 -0.12112877D-02  0.28533975D-03  0.15980995D-03  0.40492768D-03
 -0.56473764D-03  0.79765303D-03  0.11732963D-02 -0.13598215D-02  0.72499162D-04
  0.88651952D-04 -0.16115111D-03  0.26035300D-03  0.37607763D-03 -0.45640269D-03
 -0.57625458D-04 -0.25163992D-03  0.39196048D-03  0.85162154D-03  0.57308855D-03
  0.44196869D-03 -0.67874517D-03  0.18183121D-03 -0.16178501D-02  0.36290156D-03
 -0.66053529D-04  0.27970576D-03 -0.15787880D-03 -0.31101968D-03 -0.31324170D-03
 -0.15560025D-03  0.50918026D-03 -0.52587559D-03  0.62923664D-03  0.47548641D-03
MO    4     MO 0.0        OCC NO =    2.0000000  ORB. ENERGY =   -7.157667
  0.25614153D+00  0.47730297D+00  0.80438752D+00  0.12001396D+01  0.14537040D+01
  0.12095901D+01  0.44924804D+00 -0.23849634D-02 -0.44325051D-02 -0.82794132D-02
 -0.14091603D-01 -0.21551552D-01 -0.28029071D-01 -0.28371774D-01 -0.18681375D-01
  0.12769750D-01  0.33990926D-01  0.11675310D-02 -0.13031533D-03  0.17626213D-02
  0.15885719D-02  0.11534062D-02 -0.78797718D-03 -0.71016866D-03 -0.51562850D-03
 -0.30162677D-02 -0.27184275D-02 -0.19737546D-02  0.82365598D-03  0.17718075D-02
 -0.12146698D-02  0.30271016D-03 -0.72703595D-03 -0.57644308D-03 -0.24690100D-05
  0.44011720D-05  0.45413513D-05 -0.36726588D-02  0.50045293D-02 -0.13318705D-02
 -0.49362390D-02 -0.31885488D-02  0.10086261D-01  0.57662357D-03 -0.69497966D-03
  0.11835609D-03  0.99159004D-03  0.62942480D-03 -0.19336698D-02  0.37785371D-04
 -0.59131240D-04  0.21345869D-04  0.45948686D-04  0.19744746D-04 -0.96160234D-04
 -0.85253778D-04  0.45222104D-03 -0.65498961D-04 -0.31437886D-04 -0.50021354D-03
 -0.45885831D-04  0.28719922D-03 -0.85644958D-03  0.24238271D-03  0.66303693D-03
  0.22379932D-04 -0.15201986D-04 -0.22599046D-04 -0.54501311D-04 -0.17853765D-04
 -0.28101540D-04 -0.12638485D-04  0.63459723D-04  0.95898677D-04 -0.11644927D-03
 -0.12711196D-03 -0.23685442D-03 -0.40058021D-03 -0.60325159D-03 -0.74686461D-03
 -0.63554807D-03 -0.24183777D-03  0.11326294D-05 -0.19896887D-03 -0.37306849D-03
 -0.63470051D-03 -0.98562287D-03 -0.13079789D-02 -0.13784302D-02 -0.85471465D-03
  0.56855652D-03  0.20074836D-02 -0.33440625D-02 -0.48220755D-03  0.73224046D-03
  0.70330821D-03  0.49320826D-03 -0.40677060D-02 -0.39069830D-02 -0.27398462D-02
 -0.16133126D-02 -0.15495675D-02 -0.10866637D-02 -0.74266528D-03  0.35398288D-02
  0.15798141D-02 -0.12386186D-02  0.32875917D-02  0.23867373D-02 -0.30250414D-04
  0.11915225D-03  0.61908475D-04 -0.59897337D-03  0.77745015D-03 -0.17847678D-03
 -0.12039817D-02 -0.51199471D-03  0.22995307D-02  0.18434040D-02 -0.25072878D-02
  0.66388384D-03  0.28419809D-02  0.15448847D-02 -0.56525418D-02  0.35743184D-03
 -0.46846379D-03  0.11103195D-03  0.64563617D-03  0.31066253D-03 -0.12520689D-02
  0.42380099D-04  0.74244252D-03 -0.38277921D-03 -0.67668360D-03 -0.11933991D-02
 -0.41016772D-03  0.54954330D-03 -0.10339284D-02  0.15585054D-02  0.59719240D-04
  0.24707302D-03  0.24698852D-03 -0.33242338D-03 -0.67039996D-03 -0.72177646D-03
 -0.37088892D-03 -0.70819106D-04 -0.19189104D-04  0.13681591D-02 -0.86437530D-03
  0.24726814D-04  0.46091852D-04  0.78137021D-04  0.11832248D-03  0.14796267D-03
  0.12738208D-03  0.48970322D-04 -0.21219642D-06 -0.95040404D-05 -0.17846905D-04
 -0.30390201D-04 -0.47606070D-04 -0.63797734D-04 -0.68623065D-04 -0.41201198D-04
  0.27095641D-04 -0.17482337D-03  0.46669808D-03  0.10092304D-02 -0.57373704D-04
 -0.56110229D-04 -0.37074401D-04  0.13070264D-02  0.12782433D-02  0.84458936D-03
  0.22428013D-03  0.21934107D-03  0.14492792D-03  0.88476944D-04 -0.13598725D-02
 -0.28113794D-03  0.36041857D-03  0.48111263D-03 -0.55019131D-03  0.67105801D-04
 -0.24517384D-04 -0.11366266D-03 -0.50865946D-03  0.83352517D-03 -0.32486571D-03
  0.42610448D-03 -0.40789550D-03 -0.41308082D-03  0.16302322D-03 -0.43447495D-03
  0.27145173D-03 -0.47252435D-03 -0.11674727D-03  0.66911343D-03 -0.37967563D-04
 -0.82521192D-04  0.12048875D-03 -0.74000194D-04 -0.28324884D-03  0.13226828D-03
 -0.24084543D-03 -0.24075765D-03  0.24547281D-03  0.51481896D-03  0.26649480D-03
  0.18648967D-03  0.20771732D-03  0.45577814D-03 -0.92290810D-03 -0.70258206D-03
  0.79827627D-04  0.19293750D-03 -0.15495829D-03 -0.31854691D-03 -0.22570045D-03
 -0.13414702D-03  0.79064023D-04 -0.35311206D-03  0.59902189D-03  0.42033030D-03
  0.94362942D-03  0.17589661D-02  0.29818800D-02  0.45154451D-02  0.56465800D-02
  0.48611794D-02  0.18688148D-02 -0.80978806D-05 -0.89732103D-03 -0.16850100D-02
 -0.28692814D-02 -0.44947123D-02 -0.60234433D-02 -0.64790254D-02 -0.38899983D-02
  0.25582266D-02  0.11492235D-02 -0.52684674D-03 -0.29859426D-02 -0.18126690D-02
 -0.17727507D-02 -0.11713313D-02  0.48055655D-02  0.46997381D-02  0.31053157D-02
  0.35005496D-02  0.34234611D-02  0.22620255D-02  0.33045007D-04 -0.21744737D-03
 -0.79347930D-04  0.13523758D-02 -0.47104394D-02 -0.27139148D-02  0.12431233D-03
 -0.53857867D-03 -0.25908466D-03 -0.30645609D-02  0.32794360D-02 -0.21487507D-03
 -0.57236138D-02 -0.39945965D-02  0.11009053D-01  0.16263144D-02 -0.18210843D-02
  0.19476989D-03  0.29745853D-02  0.19818558D-02 -0.57449552D-02  0.86251714D-03
 -0.11122828D-02  0.24976564D-03  0.13448917D-02  0.82960014D-03 -0.26705294D-02
  0.16329584D-02  0.15887441D-03 -0.18631191D-02 -0.40467913D-02 -0.31575042D-02
 -0.22457973D-02 -0.85208397D-03  0.26808810D-02  0.78351546D-02 -0.81539705D-02
 -0.11120991D-02 -0.70905206D-04  0.12499047D-02  0.27219230D-02  0.20987005D-02
  0.15107491D-02  0.61437443D-03 -0.18859848D-02 -0.52604632D-02  0.55850580D-02
MO    5     MO 0.0        OCC NO =    2.0000000  ORB. ENERGY =   -1.425638
 -0.38883796D-02 -0.72457408D-02 -0.12211077D-01 -0.18218827D-01 -0.22068085D-01
 -0.18362291D-01 -0.68198504D-02  0.36205152D-04 -0.10247741D-01 -0.19141609D-01
 -0.32579116D-01 -0.49826162D-01 -0.64801880D-01 -0.65594192D-01 -0.43190449D-01
  0.29523055D-01  0.12532228D-01  0.66383317D-02 -0.18884406D-03  0.25893340D-01
  0.23336512D-01  0.16943821D-01 -0.69639663D-01 -0.62763120D-01 -0.45570095D-01
 -0.50048628D-01 -0.45106594D-01 -0.32750313D-01 -0.35710767D-03  0.42298001D-02
  0.99621072D-03  0.53052097D-03 -0.12619216D-02 -0.10097680D-02 -0.45941355D-05
  0.73617523D-05  0.84173999D-05 -0.79639296D-02  0.88431090D-02 -0.87917933D-03
 -0.14048101D-01 -0.99829219D-02  0.27241039D-01 -0.45436739D-03  0.67610634D-03
 -0.22173895D-03 -0.63925762D-03 -0.28265090D-03  0.12992704D-02  0.28177442D-04
 -0.42446073D-04  0.14268631D-04  0.31740921D-04  0.18655824D-04 -0.67106816D-04
 -0.38803546D-03  0.32608226D-03  0.22504871D-03  0.55048646D-03  0.20937027D-03
  0.30658706D-03  0.61361990D-03 -0.11876171D-02 -0.98173320D-03  0.21393150D-02
 -0.77790065D-04 -0.95173564D-05  0.80350597D-04  0.17101173D-03  0.15547356D-03
  0.98186476D-04  0.62358464D-04 -0.12692149D-03 -0.33923827D-03  0.40456639D-03
 -0.57662707D-03 -0.10744596D-02 -0.18171806D-02 -0.27365733D-02 -0.33880553D-02
 -0.28830821D-02 -0.10970659D-02  0.51380278D-05  0.12190957D-03  0.22858159D-03
  0.38888530D-03  0.60389780D-03  0.80140751D-03  0.84457351D-03  0.52368945D-03
 -0.34835843D-03  0.88815885D-03 -0.12253381D-01 -0.93658924D-03 -0.58658639D-03
 -0.56340922D-03 -0.39510143D-03  0.26554536D-02  0.25505315D-02  0.17886087D-02
  0.12163564D-02  0.11682958D-02  0.81928963D-03 -0.15938061D-02  0.73327444D-02
  0.33631184D-02 -0.16313375D-02  0.63530036D-02  0.33354701D-02 -0.70692632D-04
  0.25808651D-03  0.14283898D-03  0.11978212D-02 -0.20741154D-02  0.87629427D-03
  0.99886611D-03  0.33537575D-03 -0.23114943D-02  0.13594012D-02 -0.25187729D-02
  0.11593717D-02  0.13077162D-02  0.43265955D-04 -0.29208458D-02  0.36256153D-03
 -0.68995020D-03  0.32738867D-03  0.39781667D-03 -0.32722704D-04 -0.86210942D-03
  0.22731889D-03  0.10360041D-02 -0.52429311D-03 -0.88213002D-03 -0.18091240D-02
 -0.54862817D-03  0.20017334D-03 -0.12988883D-02  0.21215075D-02 -0.36230961D-03
 -0.13105910D-03  0.79590853D-04  0.17411446D-03  0.41504533D-03  0.15528615D-03
  0.21699801D-03 -0.21868015D-04 -0.39405871D-03 -0.73934141D-03  0.78087174D-03