 Molden2AIM, Version 4.0.0 (06/02/2016)           Time: Thu Jun 28 04:39:32 2018
GAUSSIAN             24 MOL ORBITALS    450 PRIMITIVES        6 NUCLEI
  N    1    (CENTRE  1)   0.00000000  0.00000000 -1.20594384  CHARGE =  7.0
  F    2    (CENTRE  2)   2.06603190  0.00000000 -2.67087843  CHARGE =  9.0
  F    3    (CENTRE  3)  -2.06603190  0.00000000 -2.67087843  CHARGE =  9.0
  B    4    (CENTRE  4)   0.00000000  0.00000000  1.44974308  CHARGE =  5.0
  F    5    (CENTRE  5)  -2.20114165  0.00000000  2.65902607  CHARGE =  9.0
  F    6    (CENTRE  6)   2.20114165  0.00000000  2.65902796  CHARGE =  9.0
CENTRE ASSIGNMENTS    1  1  1  1  1  1  1  1  1  1  1  1  1  1  1  1  1  1  1  1
CENTRE ASSIGNMENTS    1  1  1  1  1  1  1  1  1  1  1  1  1  1  1  1  1  1  1  1
CENTRE ASSIGNMENTS    1  1  1  1  1  1  1  1  1  1  1  1  1  1  1  1  1  1  1  1
CENTRE ASSIGNMENTS    1  1  1  1  1  1  1  1  1  1  1  1  1  1  1  2  2  2  2  2
CENTRE ASSIGNMENTS    2  2  2  2  2  2  2  2  2  2  2  2  2  2  2  2  2  2  2  2
CENTRE ASSIGNMENTS    2  2  2  2  2  2  2  2  2  2  2  2  2  2  2  2  2  2  2  2
CENTRE ASSIGNMENTS    2  2  2  2  2  2  2  2  2  2  2  2  2  2  2  2  2  2  2  2
CENTRE ASSIGNMENTS    2  2  2  2  2  2  2  2  2  2  3  3  3  3  3  3  3  3  3  3
CENTRE ASSIGNMENTS    3  3  3  3  3  3  3  3  3  3  3  3  3  3  3  3  3  3  3  3
CENTRE ASSIGNMENTS    3  3  3  3  3  3  3  3  3  3  3  3  3  3  3  3  3  3  3  3
CENTRE ASSIGNMENTS    3  3  3  3  3  3  3  3  3  3  3  3  3  3  3  3  3  3  3  3
CENTRE ASSIGNMENTS    3  3  3  3  3  4  4  4  4  4  4  4  4  4  4  4  4  4  4  4
CENTRE ASSIGNMENTS    4  4  4  4  4  4  4  4  4  4  4  4  4  4  4  4  4  4  4  4
CENTRE ASSIGNMENTS    4  4  4  4  4  4  4  4  4  4  4  4  4  4  4  4  4  4  4  4
CENTRE ASSIGNMENTS    4  4  4  4  4  4  4  4  4  4  4  4  4  4  4  4  4  4  4  4
CENTRE ASSIGNMENTS    5  5  5  5  5  5  5  5  5  5  5  5  5  5  5  5  5  5  5  5
CENTRE ASSIGNMENTS    5  5  5  5  5  5  5  5  5  5  5  5  5  5  5  5  5  5  5  5
CENTRE ASSIGNMENTS    5  5  5  5  5  5  5  5  5  5  5  5  5  5  5  5  5  5  5  5
CENTRE ASSIGNMENTS    5  5  5  5  5  5  5  5  5  5  5  5  5  5  5  6  6  6  6  6
CENTRE ASSIGNMENTS    6  6  6  6  6  6  6  6  6  6  6  6  6  6  6  6  6  6  6  6
CENTRE ASSIGNMENTS    6  6  6  6  6  6  6  6  6  6  6  6  6  6  6  6  6  6  6  6
CENTRE ASSIGNMENTS    6  6  6  6  6  6  6  6  6  6  6  6  6  6  6  6  6  6  6  6
CENTRE ASSIGNMENTS    6  6  6  6  6  6  6  6  6  6
TYPE ASSIGNMENTS      1  1  1  1  1  1  1  1  1  1  1  1  1  1  1  1  1  1  1  2
TYPE ASSIGNMENTS      2  2  3  3  3  4  4  4  2  3  4  2  3  4  2  3  4  5  6  7
TYPE ASSIGNMENTS      8  9 10  5  6  7  8  9 10  5  6  7  8  9 10 11 12 13 17 14
TYPE ASSIGNMENTS     15 18 19 16 20 11 12 13 17 14 15 18 19 16 20  1  1  1  1  1
TYPE ASSIGNMENTS      1  1  1  1  1  1  1  1  1  1  1  1  1  1  2  2  2  3  3  3
TYPE ASSIGNMENTS      4  4  4  2  3  4  2  3  4  2  3  4  5  6  7  8  9 10  5  6
TYPE ASSIGNMENTS      7  8  9 10  5  6  7  8  9 10 11 12 13 17 14 15 18 19 16 20
TYPE ASSIGNMENTS     11 12 13 17 14 15 18 19 16 20  1  1  1  1  1  1  1  1  1  1
TYPE ASSIGNMENTS      1  1  1  1  1  1  1  1  1  2  2  2  3  3  3  4  4  4  2  3
TYPE ASSIGNMENTS      4  2  3  4  2  3  4  5  6  7  8  9 10  5  6  7  8  9 10  5
TYPE ASSIGNMENTS      6  7  8  9 10 11 12 13 17 14 15 18 19 16 20 11 12 13 17 14
TYPE ASSIGNMENTS     15 18 19 16 20  1  1  1  1  1  1  1  1  1  1  1  1  1  1  1
TYPE ASSIGNMENTS      1  1  1  1  2  2  2  3  3  3  4  4  4  2  3  4  2  3  4  2
TYPE ASSIGNMENTS      3  4  5  6  7  8  9 10  5  6  7  8  9 10  5  6  7  8  9 10
TYPE ASSIGNMENTS     11 12 13 17 14 15 18 19 16 20 11 12 13 17 14 15 18 19 16 20
TYPE ASSIGNMENTS      1  1  1  1  1  1  1  1  1  1  1  1  1  1  1  1  1  1  1  2
TYPE ASSIGNMENTS      2  2  3  3  3  4  4  4  2  3  4  2  3  4  2  3  4  5  6  7
TYPE ASSIGNMENTS      8  9 10  5  6  7  8  9 10  5  6  7  8  9 10 11 12 13 17 14
TYPE ASSIGNMENTS     15 18 19 16 20 11 12 13 17 14 15 18 19 16 20  1  1  1  1  1
TYPE ASSIGNMENTS      1  1  1  1  1  1  1  1  1  1  1  1  1  1  2  2  2  3  3  3
TYPE ASSIGNMENTS      4  4  4  2  3  4  2  3  4  2  3  4  5  6  7  8  9 10  5  6
TYPE ASSIGNMENTS      7  8  9 10  5  6  7  8  9 10 11 12 13 17 14 15 18 19 16 20
TYPE ASSIGNMENTS     11 12 13 17 14 15 18 19 16 20
EXPONENTS  0.1142000D+05 0.1712000D+04 0.3893000D+03 0.1100000D+03 0.3557000D+02
EXPONENTS  0.1254000D+02 0.4644000D+01 0.5118000D+00 0.1142000D+05 0.1712000D+04
EXPONENTS  0.3893000D+03 0.1100000D+03 0.3557000D+02 0.1254000D+02 0.4644000D+01
EXPONENTS  0.5118000D+00 0.1293000D+01 0.1787000D+00 0.5760000D-01 0.2663000D+02
EXPONENTS  0.5948000D+01 0.1742000D+01 0.2663000D+02 0.5948000D+01 0.1742000D+01
EXPONENTS  0.2663000D+02 0.5948000D+01 0.1742000D+01 0.5550000D+00 0.5550000D+00
EXPONENTS  0.5550000D+00 0.1725000D+00 0.1725000D+00 0.1725000D+00 0.4910000D-01
EXPONENTS  0.4910000D-01 0.4910000D-01 0.1654000D+01 0.1654000D+01 0.1654000D+01
EXPONENTS  0.1654000D+01 0.1654000D+01 0.1654000D+01 0.4690000D+00 0.4690000D+00
EXPONENTS  0.4690000D+00 0.4690000D+00 0.4690000D+00 0.4690000D+00 0.1510000D+00
EXPONENTS  0.1510000D+00 0.1510000D+00 0.1510000D+00 0.1510000D+00 0.1510000D+00
EXPONENTS  0.1093000D+01 0.1093000D+01 0.1093000D+01 0.1093000D+01 0.1093000D+01
EXPONENTS  0.1093000D+01 0.1093000D+01 0.1093000D+01 0.1093000D+01 0.1093000D+01
EXPONENTS  0.3640000D+00 0.3640000D+00 0.3640000D+00 0.3640000D+00 0.3640000D+00
EXPONENTS  0.3640000D+00 0.3640000D+00 0.3640000D+00 0.3640000D+00 0.3640000D+00
EXPONENTS  0.1950000D+05 0.2923000D+04 0.6645000D+03 0.1875000D+03 0.6062000D+02
EXPONENTS  0.2142000D+02 0.7950000D+01 0.8815000D+00 0.1950000D+05 0.2923000D+04
EXPONENTS  0.6645000D+03 0.1875000D+03 0.6062000D+02 0.2142000D+02 0.7950000D+01
EXPONENTS  0.8815000D+00 0.2257000D+01 0.3041000D+00 0.9158000D-01 0.4388000D+02
EXPONENTS  0.9926000D+01 0.2930000D+01 0.4388000D+02 0.9926000D+01 0.2930000D+01
EXPONENTS  0.4388000D+02 0.9926000D+01 0.2930000D+01 0.9132000D+00 0.9132000D+00
EXPONENTS  0.9132000D+00 0.2672000D+00 0.2672000D+00 0.2672000D+00 0.7361000D-01
EXPONENTS  0.7361000D-01 0.7361000D-01 0.3107000D+01 0.3107000D+01 0.3107000D+01
EXPONENTS  0.3107000D+01 0.3107000D+01 0.3107000D+01 0.8550000D+00 0.8550000D+00
EXPONENTS  0.8550000D+00 0.8550000D+00 0.8550000D+00 0.8550000D+00 0.2920000D+00
EXPONENTS  0.2920000D+00 0.2920000D+00 0.2920000D+00 0.2920000D+00 0.2920000D+00
EXPONENTS  0.1917000D+01 0.1917000D+01 0.1917000D+01 0.1917000D+01 0.1917000D+01
EXPONENTS  0.1917000D+01 0.1917000D+01 0.1917000D+01 0.1917000D+01 0.1917000D+01
EXPONENTS  0.7240000D+00 0.7240000D+00 0.7240000D+00 0.7240000D+00 0.7240000D+00
EXPONENTS  0.7240000D+00 0.7240000D+00 0.7240000D+00 0.7240000D+00 0.7240000D+00
EXPONENTS  0.1950000D+05 0.2923000D+04 0.6645000D+03 0.1875000D+03 0.6062000D+02
EXPONENTS  0.2142000D+02 0.7950000D+01 0.8815000D+00 0.1950000D+05 0.2923000D+04
EXPONENTS  0.6645000D+03 0.1875000D+03 0.6062000D+02 0.2142000D+02 0.7950000D+01
EXPONENTS  0.8815000D+00 0.2257000D+01 0.3041000D+00 0.9158000D-01 0.4388000D+02
EXPONENTS  0.9926000D+01 0.2930000D+01 0.4388000D+02 0.9926000D+01 0.2930000D+01
EXPONENTS  0.4388000D+02 0.9926000D+01 0.2930000D+01 0.9132000D+00 0.9132000D+00
EXPONENTS  0.9132000D+00 0.2672000D+00 0.2672000D+00 0.2672000D+00 0.7361000D-01
EXPONENTS  0.7361000D-01 0.7361000D-01 0.3107000D+01 0.3107000D+01 0.3107000D+01
EXPONENTS  0.3107000D+01 0.3107000D+01 0.3107000D+01 0.8550000D+00 0.8550000D+00
EXPONENTS  0.8550000D+00 0.8550000D+00 0.8550000D+00 0.8550000D+00 0.2920000D+00
EXPONENTS  0.2920000D+00 0.2920000D+00 0.2920000D+00 0.2920000D+00 0.2920000D+00
EXPONENTS  0.1917000D+01 0.1917000D+01 0.1917000D+01 0.1917000D+01 0.1917000D+01
EXPONENTS  0.1917000D+01 0.1917000D+01 0.1917000D+01 0.1917000D+01 0.1917000D+01
EXPONENTS  0.7240000D+00 0.7240000D+00 0.7240000D+00 0.7240000D+00 0.7240000D+00
EXPONENTS  0.7240000D+00 0.7240000D+00 0.7240000D+00 0.7240000D+00 0.7240000D+00
EXPONENTS  0.5473000D+04 0.8209000D+03 0.1868000D+03 0.5283000D+02 0.1708000D+02
EXPONENTS  0.5999000D+01 0.2208000D+01 0.2415000D+00 0.5473000D+04 0.8209000D+03
EXPONENTS  0.1868000D+03 0.5283000D+02 0.1708000D+02 0.5999000D+01 0.2208000D+01
EXPONENTS  0.2415000D+00 0.5879000D+00 0.8610000D-01 0.2914000D-01 0.1205000D+02
EXPONENTS  0.2613000D+01 0.7475000D+00 0.1205000D+02 0.2613000D+01 0.7475000D+00
EXPONENTS  0.1205000D+02 0.2613000D+01 0.7475000D+00 0.2385000D+00 0.2385000D+00
EXPONENTS  0.2385000D+00 0.7698000D-01 0.7698000D-01 0.7698000D-01 0.2096000D-01
EXPONENTS  0.2096000D-01 0.2096000D-01 0.6610000D+00 0.6610000D+00 0.6610000D+00
EXPONENTS  0.6610000D+00 0.6610000D+00 0.6610000D+00 0.1990000D+00 0.1990000D+00
EXPONENTS  0.1990000D+00 0.1990000D+00 0.1990000D+00 0.1990000D+00 0.6040000D-01
EXPONENTS  0.6040000D-01 0.6040000D-01 0.6040000D-01 0.6040000D-01 0.6040000D-01
EXPONENTS  0.4900000D+00 0.4900000D+00 0.4900000D+00 0.4900000D+00 0.4900000D+00
EXPONENTS  0.4900000D+00 0.4900000D+00 0.4900000D+00 0.4900000D+00 0.4900000D+00
EXPONENTS  0.1630000D+00 0.1630000D+00 0.1630000D+00 0.1630000D+00 0.1630000D+00
EXPONENTS  0.1630000D+00 0.1630000D+00 0.1630000D+00 0.1630000D+00 0.1630000D+00
EXPONENTS  0.1950000D+05 0.2923000D+04 0.6645000D+03 0.1875000D+03 0.6062000D+02
EXPONENTS  0.2142000D+02 0.7950000D+01 0.8815000D+00 0.1950000D+05 0.2923000D+04
EXPONENTS  0.6645000D+03 0.1875000D+03 0.6062000D+02 0.2142000D+02 0.7950000D+01
EXPONENTS  0.8815000D+00 0.2257000D+01 0.3041000D+00 0.9158000D-01 0.4388000D+02
EXPONENTS  0.9926000D+01 0.2930000D+01 0.4388000D+02 0.9926000D+01 0.2930000D+01
EXPONENTS  0.4388000D+02 0.9926000D+01 0.2930000D+01 0.9132000D+00 0.9132000D+00
EXPONENTS  0.9132000D+00 0.2672000D+00 0.2672000D+00 0.2672000D+00 0.7361000D-01
EXPONENTS  0.7361000D-01 0.7361000D-01 0.3107000D+01 0.3107000D+01 0.3107000D+01
EXPONENTS  0.3107000D+01 0.3107000D+01 0.3107000D+01 0.8550000D+00 0.8550000D+00
EXPONENTS  0.8550000D+00 0.8550000D+00 0.8550000D+00 0.8550000D+00 0.2920000D+00
EXPONENTS  0.2920000D+00 0.2920000D+00 0.2920000D+00 0.2920000D+00 0.2920000D+00
EXPONENTS  0.1917000D+01 0.1917000D+01 0.1917000D+01 0.1917000D+01 0.1917000D+01
EXPONENTS  0.1917000D+01 0.1917000D+01 0.1917000D+01 0.1917000D+01 0.1917000D+01
EXPONENTS  0.7240000D+00 0.7240000D+00 0.7240000D+00 0.7240000D+00 0.7240000D+00
EXPONENTS  0.7240000D+00 0.7240000D+00 0.7240000D+00 0.7240000D+00 0.7240000D+00
EXPONENTS  0.1950000D+05 0.2923000D+04 0.6645000D+03 0.1875000D+03 0.6062000D+02
EXPONENTS  0.2142000D+02 0.7950000D+01 0.8815000D+00 0.1950000D+05 0.2923000D+04
EXPONENTS  0.6645000D+03 0.1875000D+03 0.6062000D+02 0.2142000D+02 0.7950000D+01
EXPONENTS  0.8815000D+00 0.2257000D+01 0.3041000D+00 0.9158000D-01 0.4388000D+02
EXPONENTS  0.9926000D+01 0.2930000D+01 0.4388000D+02 0.9926000D+01 0.2930000D+01
EXPONENTS  0.4388000D+02 0.9926000D+01 0.2930000D+01 0.9132000D+00 0.9132000D+00
EXPONENTS  0.9132000D+00 0.2672000D+00 0.2672000D+00 0.2672000D+00 0.7361000D-01
EXPONENTS  0.7361000D-01 0.7361000D-01 0.3107000D+01 0.3107000D+01 0.3107000D+01
EXPONENTS  0.3107000D+01 0.3107000D+01 0.3107000D+01 0.8550000D+00 0.8550000D+00
EXPONENTS  0.8550000D+00 0.8550000D+00 0.8550000D+00 0.8550000D+00 0.2920000D+00
EXPONENTS  0.2920000D+00 0.2920000D+00 0.2920000D+00 0.2920000D+00 0.2920000D+00
EXPONENTS  0.1917000D+01 0.1917000D+01 0.1917000D+01 0.1917000D+01 0.1917000D+01
EXPONENTS  0.1917000D+01 0.1917000D+01 0.1917000D+01 0.1917000D+01 0.1917000D+01
EXPONENTS  0.7240000D+00 0.7240000D+00 0.7240000D+00 0.7240000D+00 0.7240000D+00
EXPONENTS  0.7240000D+00 0.7240000D+00 0.7240000D+00 0.7240000D+00 0.7240000D+00
MO    1     MO 0.0        OCC NO =    2.0000000  ORB. ENERGY =  -25.333528
  0.17328689D-06  0.32289460D-06  0.54609572D-06  0.82238989D-06  0.10181720D-05
  0.86641845D-06  0.32968820D-06 -0.15440705D-08 -0.11305614D-06 -0.21198132D-06
 -0.36064330D-06 -0.56004096D-06 -0.74320693D-06 -0.78323809D-06 -0.48565758D-06
  0.32305961D-06 -0.44118628D-06  0.10615827D-05  0.45503902D-06  0.13091946D-02
  0.12574657D-02  0.88182178D-03 -0.33240331D-16 -0.31926940D-16 -0.22389374D-16
  0.53829152D-06  0.51702257D-06  0.36257191D-06 -0.19341428D-02 -0.99410318D-16
 -0.86081304D-06 -0.16014019D-04  0.22801718D-16 -0.11519650D-06 -0.82862892D-05
 -0.22082553D-17  0.96566782D-08  0.32108060D-06 -0.22387001D-06 -0.97210593D-07
  0.51198204D-18  0.10126626D-02 -0.23476827D-16  0.31742209D-06 -0.35345661D-06
  0.36034527D-07 -0.96897418D-17  0.19391836D-02 -0.11507751D-17  0.34776492D-07
 -0.37507804D-07  0.27313121D-08 -0.11303390D-18  0.12718061D-03 -0.32866722D-18
 -0.16801594D-03 -0.63743101D-18  0.25508595D-06  0.14944467D-02  0.98465322D-18
 -0.13880059D-05 -0.99039889D-03  0.92763981D-18  0.62274800D-06  0.41979807D-18
 -0.79196378D-04 -0.48343165D-18  0.55196706D-08 -0.12914176D-04  0.79736841D-18
 -0.15327123D-08  0.25050331D-03  0.65292654D-18 -0.15026300D-07  0.32532149D-18
 -0.42060003D+00 -0.78401669D+00 -0.13291010D+01 -0.20126507D+01 -0.25168267D+01
 -0.21667534D+01 -0.83297910D+00  0.36094348D-02 -0.22256355D-03 -0.41793493D-03
 -0.71167111D-03 -0.11148286D-02 -0.14940015D-02 -0.16070000D-02 -0.96484069D-03
  0.63451983D-03 -0.42719230D-01  0.14122547D-03  0.47776967D-03  0.53571541D-02
  0.52391797D-02  0.34617476D-02 -0.56289949D-17 -0.55050341D-17 -0.36374088D-17
 -0.38962672D-02 -0.38104643D-02 -0.25177349D-02 -0.95061188D-03  0.11644262D-17
  0.74717305D-03 -0.47174079D-03 -0.13424827D-17  0.40925651D-03 -0.35987266D-04
  0.15565921D-19  0.36610256D-04 -0.87008548D-03  0.86285526D-03  0.72302212D-05
  0.74083119D-17  0.29463610D-02  0.57865749D-17  0.44275262D-03 -0.45965709D-03
  0.16904477D-04  0.44566174D-18 -0.14094371D-02 -0.51030098D-18  0.46602765D-04
 -0.73006572D-04  0.26403806D-04  0.10150494D-17 -0.23529193D-03 -0.58039220D-18
 -0.11683996D-03 -0.17153576D-17  0.16759241D-03 -0.14680613D-03  0.32399850D-17
 -0.72626285D-03  0.49732602D-03  0.19060878D-17  0.22348562D-03 -0.56016508D-17
  0.10409121D-04  0.84382655D-18 -0.14958181D-03  0.30710668D-03 -0.20509800D-17
  0.69592530D-03 -0.33833404D-03 -0.48049964D-18 -0.24717985D-03  0.28731136D-17
  0.42112258D+00  0.78499073D+00  0.13307523D+01  0.20151511D+01  0.25199536D+01
  0.21694453D+01  0.83401397D+00 -0.36139191D-02  0.22277129D-03  0.41832502D-03
  0.71233537D-03  0.11158691D-02  0.14953959D-02  0.16084999D-02  0.96574126D-03
 -0.63511208D-03  0.42772211D-01 -0.14167853D-03 -0.47845313D-03  0.53636521D-02
  0.52455346D-02  0.34659465D-02  0.59137013D-17  0.57834707D-17  0.38213836D-17
  0.39010141D-02  0.38151066D-02  0.25208022D-02 -0.95162870D-03  0.72098275D-18
 -0.74795454D-03 -0.47243471D-03 -0.18140899D-17 -0.40978318D-03 -0.36025359D-04
  0.23183769D-19 -0.36657533D-04  0.87127306D-03 -0.86405314D-03 -0.72199213D-05
 -0.98592669D-18  0.29496085D-02  0.70850879D-17 -0.44327880D-03  0.46023183D-03
 -0.16953035D-04 -0.11658925D-17 -0.14109285D-02 -0.10846723D-17 -0.46682358D-04
  0.73097231D-04 -0.26414873D-04 -0.13013286D-17 -0.23554554D-03 -0.89048136D-18
 -0.11672620D-03 -0.23330102D-17 -0.16757270D-03 -0.14718420D-03  0.47770802D-17
  0.72634958D-03  0.49736278D-03  0.22219503D-17 -0.22363149D-03  0.89780266D-17
  0.10342134D-04  0.99898042D-18  0.14967054D-03  0.30757535D-03 -0.23923627D-17
 -0.69649372D-03 -0.33860175D-03 -0.60457855D-18  0.24748209D-03 -0.38374860D-17
  0.17134577D-07  0.31929162D-07  0.53809468D-07  0.80283285D-07  0.97245469D-07
  0.80915475D-07  0.30052428D-07 -0.15954202D-09 -0.12978092D-07 -0.24241592D-07
 -0.41259312D-07 -0.63101565D-07 -0.82067329D-07 -0.83070740D-07 -0.54697870D-07
  0.37389012D-07 -0.22836604D-07 -0.80617263D-07 -0.30931189D-07  0.58802263D-04
  0.52995855D-04  0.38478427D-04  0.42824385D-18  0.38595707D-18  0.28022986D-18
 -0.83711905D-08 -0.75445804D-08 -0.54778546D-08 -0.73006488D-03 -0.11900130D-17
  0.25960689D-06 -0.19589411D-03  0.17343642D-18  0.68133180D-07  0.18360329D-05
  0.23890956D-20  0.22329570D-08  0.44539241D-07 -0.46449940D-07  0.19106994D-08
 -0.12915764D-18  0.36596860D-03  0.86213172D-18 -0.45563886D-07  0.26296526D-08
  0.42934233D-07 -0.13298746D-19  0.25091807D-03  0.13486874D-18  0.30298805D-08
 -0.29532717D-08 -0.76608850D-10 -0.92851840D-20  0.21394404D-04 -0.22212227D-19
  0.56173610D-04  0.44233882D-18 -0.37989823D-07  0.11134506D-03 -0.52974292D-18
  0.15894660D-06 -0.27986589D-03 -0.79727353D-18 -0.44977129D-07 -0.15259961D-18
  0.62812376D-05  0.15431956D-19 -0.77582073D-08  0.14543614D-04  0.26103971D-19
  0.32192910D-07 -0.33387326D-04 -0.72399840D-19 -0.89182884D-08 -0.27604088D-19
  0.34678137D-04  0.64641550D-04  0.10958332D-03  0.16594144D-03  0.20751036D-03
  0.17864709D-03  0.68678462D-04 -0.29759502D-06 -0.27035379D-04 -0.50767654D-04
 -0.86448560D-04 -0.13542116D-03 -0.18148028D-03 -0.19520651D-03 -0.11720173D-03
  0.77076791D-04 -0.93340284D-05 -0.17297572D-03 -0.26062736D-03  0.33199717D-04
  0.32468598D-04  0.21453376D-04  0.36569617D-18  0.35764287D-18  0.23630976D-18
  0.21663666D-04  0.21186593D-04  0.13998878D-04 -0.38612534D-04  0.13695801D-18
 -0.29644309D-04 -0.13930940D-03  0.26496158D-18  0.11500269D-03 -0.19660634D-04
 -0.24667275D-19  0.41730958D-04  0.42421283D-04 -0.61839425D-05 -0.36237340D-04
 -0.67877405D-18  0.97909560D-04  0.31208468D-18 -0.41668581D-04  0.54179066D-05
  0.36250675D-04  0.41219379D-18 -0.68792395D-04 -0.33251782D-18 -0.21725113D-05
  0.33875982D-04 -0.31703471D-04  0.31151004D-18  0.54650597D-04 -0.79649939D-19
 -0.30739393D-04  0.73790215D-18 -0.44720323D-04 -0.35946779D-04 -0.15238489D-17
  0.12031649D-03  0.12816496D-03 -0.68985759D-18  0.13844480D-04  0.50469332D-19
  0.16825416D-06 -0.29430402D-18  0.30997159D-04  0.19028505D-04  0.61900842D-18
 -0.83679870D-04 -0.19533268D-04  0.26390364D-18 -0.93116078D-05 -0.22013978D-18
 -0.34695498D-04 -0.64673911D-04 -0.10963818D-03 -0.16602451D-03 -0.20761424D-03
 -0.17873652D-03 -0.68712844D-04  0.29774400D-06  0.27049245D-04  0.50793691D-04
  0.86492897D-04  0.13549061D-03  0.18157336D-03  0.19530663D-03  0.11726184D-03
 -0.77116321D-04  0.93668448D-05  0.17269981D-03  0.26043344D-03  0.33080072D-04
  0.32351588D-04  0.21376062D-04  0.17171214D-18  0.16793072D-18  0.11095893D-18
 -0.21799946D-04 -0.21319871D-04 -0.14086940D-04 -0.38464510D-04  0.11468229D-18
  0.29814488D-04 -0.13911507D-03  0.39751583D-18 -0.11518100D-03 -0.19657455D-04
  0.15260189D-19 -0.41736506D-04 -0.42287120D-04  0.61796013D-05  0.36107518D-04
  0.11654923D-17  0.97904088D-04  0.24403167D-18  0.41571201D-04 -0.53823762D-05
 -0.36188825D-04 -0.59462662D-18 -0.68864587D-04 -0.38548004D-18  0.21078431D-05
 -0.33881139D-04  0.31773296D-04 -0.38099514D-18  0.54650308D-04 -0.47616959D-19
 -0.30770909D-04  0.10744250D-17  0.44743649D-04 -0.35950351D-04 -0.27618429D-17
 -0.12045794D-03  0.12826308D-03 -0.46143203D-18 -0.13773004D-04  0.39316870D-18
  0.19621164D-06 -0.36099597D-18 -0.31033559D-04  0.19008620D-04  0.94068566D-18
  0.83800364D-04 -0.19597255D-04  0.14230224D-18  0.93003126D-05  0.11788365D-18
MO    2     MO 0.0        OCC NO =    2.0000000  ORB. ENERGY =  -25.333515
  0.27918495D-03  0.52022004D-03  0.87982251D-03  0.13249639D-02  0.16403913D-02
  0.13958990D-02  0.53116531D-03 -0.24876738D-05 -0.18214408D-03 -0.34152186D-03
 -0.58103029D-03 -0.90227869D-03 -0.11973763D-02 -0.12618703D-02 -0.78244006D-03
  0.52047943D-03 -0.71086416D-03  0.17104748D-02  0.73314492D-03 -0.81255079D-06
 -0.78044532D-06 -0.54730213D-06  0.91702251D-16  0.88078916D-16  0.61767015D-16
  0.86710108D-03  0.83284023D-03  0.58404505D-03  0.12003865D-05  0.10672098D-17
 -0.13866579D-02  0.10175858D-07 -0.21337582D-18 -0.18572613D-03  0.51544807D-08
 -0.16597011D-19  0.15558520D-04  0.51720220D-03 -0.36060299D-03 -0.15659922D-03
  0.13819568D-20 -0.62848844D-06 -0.13900866D-18  0.51143621D-03 -0.56954523D-03
  0.58109016D-04 -0.13554958D-18 -0.12036928D-05  0.14886693D-18  0.56053818D-04
 -0.60446115D-04  0.43922978D-05  0.69603042D-20 -0.78847799D-07  0.33614087D-19
  0.10427828D-06 -0.24589272D-19  0.41100315D-03 -0.92742373D-06 -0.31803399D-18
 -0.22362117D-02  0.61458888D-06  0.39180181D-18  0.10032022D-02  0.65011071D-18
  0.49182486D-07  0.41499735D-19  0.88731946D-05  0.79625024D-08 -0.58188890D-19
 -0.24392742D-05 -0.15550996D-06 -0.66310315D-19 -0.24180310D-04 -0.34656802D-19
  0.42120737D+00  0.78514879D+00  0.13310202D+01  0.20155569D+01  0.25204610D+01
  0.21698821D+01  0.83418191D+00 -0.36146467D-02  0.16747345D-03  0.31448548D-03
  0.53551454D-03  0.83888036D-03  0.11241984D-02  0.12092269D-02  0.72601825D-03
 -0.47746015D-03  0.42706615D-01 -0.36516811D-03 -0.55086723D-03 -0.52378692D-02
 -0.51225217D-02 -0.33846667D-02  0.97977465D-17  0.95819821D-17  0.63312207D-17
  0.38262418D-02  0.37419810D-02  0.24724850D-02  0.81972482D-03 -0.57589953D-18
 -0.63003132D-03  0.55932161D-03  0.20689381D-18 -0.42450254D-03  0.30704173D-04
  0.67873012D-20 -0.38105738D-04  0.95718855D-03 -0.96546955D-03  0.82809927D-05
 -0.53389942D-17 -0.26178192D-02 -0.59227336D-17 -0.42414340D-03  0.46326914D-03
 -0.39125732D-04 -0.43913917D-18  0.12022776D-02  0.50279784D-18 -0.64162478D-04
  0.73081612D-04 -0.89191342D-05 -0.76854375D-19  0.20442223D-03  0.33729777D-19
 -0.91621002D-04  0.69297702D-18  0.15790175D-04  0.30468946D-03  0.55142387D-18
  0.70259118D-04 -0.29826453D-04 -0.26303549D-17 -0.11762964D-03  0.29273786D-17
  0.53968448D-04 -0.18685522D-18  0.71558117D-04 -0.37774696D-03  0.20599400D-18
 -0.45829151D-03  0.21584162D-03  0.35457165D-18  0.24361716D-03 -0.76516779D-18
  0.42068494D+00  0.78417494D+00  0.13293693D+01  0.20130569D+01  0.25173348D+01
  0.21671907D+01  0.83314724D+00 -0.36101634D-02  0.16719705D-03  0.31396644D-03
  0.53463070D-03  0.83749583D-03  0.11223429D-02  0.12072312D-02  0.72482001D-03
 -0.47667213D-03  0.42653552D-01 -0.36499240D-03 -0.55027377D-03  0.52312151D-02
  0.51160141D-02  0.33803668D-02  0.35803292D-17  0.35014837D-17  0.23135784D-17
  0.38214024D-02  0.37372481D-02  0.24693578D-02 -0.81854410D-03  0.41160568D-18
 -0.62910333D-03 -0.55873560D-03  0.79417431D-19 -0.42399399D-03 -0.30659481D-04
  0.37123575D-19 -0.38060267D-04  0.95610784D-03 -0.96439770D-03  0.82898579D-05
 -0.39010639D-17  0.26141599D-02  0.50664361D-17 -0.42359350D-03  0.46269817D-03
 -0.39104665D-04  0.33333809D-18 -0.12005271D-02 -0.46786888D-18 -0.64104606D-04
  0.72990917D-04 -0.88863114D-05  0.13885016D-18 -0.20412997D-03  0.10584615D-18
  0.91765960D-04  0.73926998D-18  0.15998203D-04 -0.30450691D-03 -0.87661452D-18
  0.69357613D-04  0.29209027D-04 -0.13411954D-17 -0.11735222D-03  0.38884564D-17
 -0.53981334D-04 -0.18346681D-18  0.71372396D-04  0.37736543D-03  0.25823098D-18
 -0.45742735D-03 -0.21542143D-03  0.29216945D-18  0.24331016D-03 -0.71360545D-18
  0.27665951D-04  0.51553688D-04  0.86882223D-04  0.12962756D-03  0.15701516D-03
  0.13064832D-03  0.48523464D-04 -0.25760087D-06 -0.20956608D-04 -0.39144550D-04
 -0.66624221D-04 -0.10189439D-03 -0.13251970D-03 -0.13413998D-03 -0.88324375D-04
  0.60374584D-04 -0.36667021D-04 -0.12994397D-03 -0.49854063D-04 -0.36660464D-07
 -0.33040440D-07 -0.23989502D-07  0.14237745D-18  0.12831844D-18  0.93167512D-19
 -0.13556780D-04 -0.12218121D-04 -0.88711481D-05  0.45314405D-06 -0.15544412D-18
  0.41886721D-03  0.12155791D-06  0.82393700D-20  0.10992285D-03 -0.11401241D-08
 -0.12244364D-20  0.35962609D-05  0.71891690D-04 -0.74924586D-04  0.30328959D-05
  0.98520079D-19 -0.22723159D-06 -0.38686470D-18 -0.73561714D-04  0.42557776D-05
  0.69305937D-04  0.64143169D-19 -0.15556063D-06 -0.11463268D-18  0.48770958D-05
 -0.47547802D-05 -0.12231561D-06  0.30288271D-20 -0.13266933D-07  0.23531861D-20
 -0.34914279D-07  0.62796146D-19 -0.61217214D-04 -0.69120667D-07 -0.79919890D-19
  0.25626230D-03  0.17386351D-06 -0.10846855D-18 -0.72610656D-04  0.84423503D-19
 -0.38986566D-08 -0.73374753D-21 -0.12503991D-04 -0.90330078D-08 -0.86870071D-20
  0.51905270D-04  0.20728977D-07  0.10888250D-19 -0.14393298D-04  0.70599449D-20
 -0.13961562D-04 -0.26024956D-04 -0.44118698D-04 -0.66808711D-04 -0.83544528D-04
 -0.71924056D-04 -0.27650233D-04  0.11981299D-06  0.11171664D-04  0.20978406D-04
  0.35722608D-04  0.55959254D-04  0.74991983D-04  0.80663989D-04  0.48430553D-04
 -0.31849969D-04  0.26441644D-04 -0.22218720D-03 -0.15601955D-03  0.96439613D-04
  0.94315835D-04  0.62318460D-04 -0.23182224D-18 -0.22671709D-18 -0.14980157D-18
 -0.10991982D-03 -0.10749918D-03 -0.71029254D-04 -0.11932328D-03 -0.17033975D-18
  0.13727370D-03 -0.15664396D-03  0.22241862D-18 -0.14394996D-03 -0.25707374D-05
  0.74714712D-20 -0.45058744D-05  0.10819425D-03 -0.35650458D-05 -0.10462921D-03
 -0.80626246D-19  0.40664652D-05  0.19855695D-19 -0.78567576D-04  0.28663902D-04
  0.49903674D-04  0.12155667D-18  0.58500383D-04 -0.21647867D-19 -0.52189771D-04
 -0.41478000D-05  0.56337571D-04  0.12994055D-18  0.18647467D-06 -0.41147802D-19
  0.25437995D-04  0.48549713D-18  0.18615686D-04  0.26592583D-05 -0.14465193D-17
 -0.11399174D-03 -0.78973244D-04 -0.99720726D-20  0.58144683D-04 -0.69818413D-18
 -0.22600183D-04 -0.16212598D-18 -0.29348514D-04  0.16114528D-04  0.48010064D-18
  0.97306953D-04  0.51686022D-04  0.62772948D-20 -0.92614108D-05 -0.28976556D-19
 -0.13918404D-04 -0.25944507D-04 -0.43982318D-04 -0.66602193D-04 -0.83286276D-04
 -0.71701725D-04 -0.27564761D-04  0.11944262D-06  0.11138041D-04  0.20915268D-04
  0.35615094D-04  0.55790833D-04  0.74766280D-04  0.80421215D-04  0.48284792D-04
 -0.31754111D-04  0.26430107D-04 -0.22240241D-03 -0.15634299D-03 -0.96480798D-04
 -0.94356113D-04 -0.62345073D-04 -0.24219986D-18 -0.23686617D-18 -0.15650749D-18
 -0.10989340D-03 -0.10747334D-03 -0.71012182D-04  0.11937104D-03  0.20194735D-19
  0.13723724D-03  0.15681695D-03  0.37858953D-19 -0.14380686D-03  0.25951403D-05
 -0.39600060D-20 -0.44540713D-05  0.10824662D-03 -0.35728936D-05 -0.10467373D-03
  0.80487983D-19 -0.41873291D-05 -0.81872858D-19 -0.78619042D-04  0.28670719D-04
  0.49948324D-04 -0.86635016D-19 -0.58415362D-04 -0.66720284D-20 -0.52192502D-04
 -0.41057996D-05  0.56298302D-04 -0.56404039D-19 -0.25434978D-06 -0.78279499D-21
 -0.25400030D-04 -0.68390556D-19  0.18560853D-04 -0.26148144D-05  0.14395607D-18
 -0.11384327D-03  0.78814905D-04  0.61215595D-19  0.58160713D-04 -0.15603312D-18
  0.22599971D-04 -0.34621392D-19 -0.29310211D-04 -0.16138089D-04  0.80680531D-19
  0.97203317D-04 -0.51661824D-04  0.23183645D-19 -0.92726831D-05  0.65316788D-19
MO    3     MO 0.0        OCC NO =    2.0000000  ORB. ENERGY =  -25.283040
  0.80324689D-07  0.14967323D-06  0.25313496D-06  0.38120722D-06  0.47195926D-06
  0.40161603D-06  0.15282231D-06 -0.71573207D-09 -0.47684531D-07 -0.89408942D-07
 -0.15211121D-06 -0.23621265D-06 -0.31346793D-06 -0.33035217D-06 -0.20483942D-06
  0.13625926D-06 -0.24382114D-06  0.25163429D-05  0.14741100D-05  0.78183305D-04
  0.75094130D-04  0.52661187D-04  0.25285485D-15  0.24286406D-15  0.17031304D-15
 -0.48327431D-06 -0.46417920D-06 -0.32551450D-06 -0.23647683D-03 -0.12825257D-15
  0.84559769D-06  0.14364357D-03  0.36919368D-16  0.44595606D-06 -0.19460429D-05
 -0.15786395D-17  0.13705325D-06 -0.22447521D-06 -0.10732371D-06  0.33179891D-06
 -0.30547882D-15 -0.26090930D-03 -0.89902407D-16  0.75976061D-07 -0.19721841D-06
  0.12124235D-06 -0.54551956D-17  0.43076359D-03  0.11491226D-16  0.83627220D-07
 -0.74586586D-07 -0.90406343D-08 -0.39045688D-17  0.97787401D-04 -0.25831887D-18
 -0.91591600D-05  0.59916229D-18  0.12390048D-06  0.35548628D-03 -0.24102183D-17
  0.93524976D-07 -0.32800880D-03  0.61273143D-18 -0.46522641D-06 -0.26517542D-18
  0.20403477D-04 -0.36498572D-18 -0.36464818D-07 -0.14303058D-03  0.45424516D-18
 -0.80570681D-07  0.81820154D-04  0.64071200D-18  0.18996513D-06 -0.83544306D-18
 -0.39696911D-04 -0.73996763D-04 -0.12544270D-03 -0.18995722D-03 -0.23754218D-03
 -0.20450169D-03 -0.78617914D-04  0.34066429D-06  0.23844447D-04  0.44775648D-04
  0.76245206D-04  0.11943766D-03  0.16006052D-03  0.17216667D-03  0.10336864D-03
 -0.67979569D-04 -0.87204541D-05  0.60228190D-04  0.14668678D-03  0.28436600D-04
  0.27810373D-04  0.18375490D-04  0.39253965D-17  0.38389521D-17  0.25365579D-17
 -0.37552857D-04 -0.36725874D-04 -0.24266338D-04  0.17710799D-04  0.81271448D-18
  0.45045723D-04 -0.13098151D-03 -0.14287844D-17 -0.37145575D-04 -0.18118213D-04
 -0.81209228D-19  0.13210859D-04 -0.13781403D-03 -0.33549938D-04  0.17136396D-03
  0.68883450D-18  0.27111355D-03 -0.15762755D-16  0.68729344D-04 -0.60781510D-05
 -0.62651193D-04 -0.11939748D-17 -0.16558054D-03  0.31120943D-17  0.44338257D-04
 -0.46278462D-05 -0.39710411D-04  0.15580423D-17 -0.38892900D-04 -0.12393061D-17
 -0.14115762D-04  0.57966973D-18  0.10878169D-03  0.63115781D-04 -0.24682644D-17
 -0.24521374D-03 -0.20768495D-04  0.72925516D-18 -0.81131320D-04  0.49464797D-17
 -0.98099324D-05  0.18099916D-18 -0.70861209D-04  0.18604692D-04 -0.48550368D-18
  0.18456991D-03  0.10825105D-04 -0.57493794D-19  0.28013722D-04  0.33633594D-18
  0.39710603D-04  0.74022284D-04  0.12548597D-03  0.19002274D-03  0.23762410D-03
  0.20457222D-03  0.78645030D-04 -0.34078179D-06 -0.23873330D-04 -0.44829886D-04
 -0.76337565D-04 -0.11958234D-03 -0.16025441D-03 -0.17237522D-03 -0.10349386D-03
  0.68061916D-04  0.87424073D-05 -0.61142365D-04 -0.14721669D-03  0.28496967D-04
  0.27869412D-04  0.18414499D-04  0.16284841D-16  0.15926219D-16  0.10523126D-16
  0.37831356D-04  0.36998240D-04  0.24446301D-04  0.17600904D-04 -0.35984288D-19
 -0.45322139D-04 -0.13141755D-03 -0.36697787D-18  0.36898881D-04 -0.18121262D-04
 -0.33391305D-18 -0.13283503D-04  0.13798132D-03  0.33564706D-04 -0.17154603D-03
  0.90045661D-17  0.27058998D-03  0.73247877D-17 -0.68807032D-04  0.61118797D-05
  0.62695153D-04  0.97720561D-18 -0.16538977D-03  0.68988218D-18 -0.44359284D-04
  0.46615637D-05  0.39697720D-04 -0.58420011D-18 -0.39100207D-04 -0.66995950D-18
 -0.14121431D-04 -0.11474082D-17 -0.10885885D-03  0.62546817D-04 -0.24986908D-17
  0.24494818D-03 -0.20182523D-04  0.59409154D-17  0.81628367D-04 -0.29122115D-16
 -0.97912952D-05  0.26887699D-18  0.70856161D-04  0.18769584D-04  0.20463012D-18