 Molden2AIM, Version 4.0.0 (06/02/2016)           Time: Thu Jun 28 05:07:02 2018
GAUSSIAN             47 MOL ORBITALS    751 PRIMITIVES        5 NUCLEI
  Br   1    (CENTRE  1)  -9.97508942 -3.35231178  0.67267069  CHARGE = 35.0
  O    2    (CENTRE  2)  -6.56375015 -3.08510451  0.01725887  CHARGE =  8.0
  Br   3    (CENTRE  3)  -5.42450041  0.23079414 -0.33996929  CHARGE = 35.0
  O    4    (CENTRE  4)  -3.72171356  4.49279174 -0.84197125  CHARGE =  8.0
  O    5    (CENTRE  5)  -1.51468163  4.73004307 -1.26265641  CHARGE =  8.0
CENTRE ASSIGNMENTS    1  1  1  1  1  1  1  1  1  1  1  1  1  1  1  1  1  1  1  1
CENTRE ASSIGNMENTS    1  1  1  1  1  1  1  1  1  1  1  1  1  1  1  1  1  1  1  1
CENTRE ASSIGNMENTS    1  1  1  1  1  1  1  1  1  1  1  1  1  1  1  1  1  1  1  1
CENTRE ASSIGNMENTS    1  1  1  1  1  1  1  1  1  1  1  1  1  1  1  1  1  1  1  1
CENTRE ASSIGNMENTS    1  1  1  1  1  1  1  1  1  1  1  1  1  1  1  1  1  1  1  1
CENTRE ASSIGNMENTS    1  1  1  1  1  1  1  1  1  1  1  1  1  1  1  1  1  1  1  1
CENTRE ASSIGNMENTS    1  1  1  1  1  1  1  1  1  1  1  1  1  1  1  1  1  1  1  1
CENTRE ASSIGNMENTS    1  1  1  1  1  1  1  1  1  1  1  1  1  1  1  1  1  1  1  1
CENTRE ASSIGNMENTS    1  1  1  1  1  1  1  1  1  1  1  1  1  1  1  1  1  1  1  1
CENTRE ASSIGNMENTS    1  1  1  1  1  1  1  1  1  1  1  1  1  1  1  1  1  1  1  1
CENTRE ASSIGNMENTS    1  1  1  1  1  1  1  1  1  1  1  1  1  1  1  1  1  1  1  1
CENTRE ASSIGNMENTS    1  1  1  1  1  1  1  1  1  1  1  1  1  1  1  1  1  1  1  1
CENTRE ASSIGNMENTS    1  1  1  1  1  1  1  1  1  1  1  1  1  1  1  1  1  1  1  1
CENTRE ASSIGNMENTS    1  1  1  2  2  2  2  2  2  2  2  2  2  2  2  2  2  2  2  2
CENTRE ASSIGNMENTS    2  2  2  2  2  2  2  2  2  2  2  2  2  2  2  2  2  2  2  2
CENTRE ASSIGNMENTS    2  2  2  2  2  2  2  2  2  2  2  2  2  2  2  2  2  2  2  2
CENTRE ASSIGNMENTS    2  2  2  2  2  2  2  2  2  2  2  2  2  2  2  2  2  2  3  3
CENTRE ASSIGNMENTS    3  3  3  3  3  3  3  3  3  3  3  3  3  3  3  3  3  3  3  3
CENTRE ASSIGNMENTS    3  3  3  3  3  3  3  3  3  3  3  3  3  3  3  3  3  3  3  3
CENTRE ASSIGNMENTS    3  3  3  3  3  3  3  3  3  3  3  3  3  3  3  3  3  3  3  3
CENTRE ASSIGNMENTS    3  3  3  3  3  3  3  3  3  3  3  3  3  3  3  3  3  3  3  3
CENTRE ASSIGNMENTS    3  3  3  3  3  3  3  3  3  3  3  3  3  3  3  3  3  3  3  3
CENTRE ASSIGNMENTS    3  3  3  3  3  3  3  3  3  3  3  3  3  3  3  3  3  3  3  3
CENTRE ASSIGNMENTS    3  3  3  3  3  3  3  3  3  3  3  3  3  3  3  3  3  3  3  3
CENTRE ASSIGNMENTS    3  3  3  3  3  3  3  3  3  3  3  3  3  3  3  3  3  3  3  3
CENTRE ASSIGNMENTS    3  3  3  3  3  3  3  3  3  3  3  3  3  3  3  3  3  3  3  3
CENTRE ASSIGNMENTS    3  3  3  3  3  3  3  3  3  3  3  3  3  3  3  3  3  3  3  3
CENTRE ASSIGNMENTS    3  3  3  3  3  3  3  3  3  3  3  3  3  3  3  3  3  3  3  3
CENTRE ASSIGNMENTS    3  3  3  3  3  3  3  3  3  3  3  3  3  3  3  3  3  3  3  3
CENTRE ASSIGNMENTS    3  3  3  3  3  3  3  3  3  3  3  3  3  3  3  3  3  3  3  3
CENTRE ASSIGNMENTS    3  4  4  4  4  4  4  4  4  4  4  4  4  4  4  4  4  4  4  4
CENTRE ASSIGNMENTS    4  4  4  4  4  4  4  4  4  4  4  4  4  4  4  4  4  4  4  4
CENTRE ASSIGNMENTS    4  4  4  4  4  4  4  4  4  4  4  4  4  4  4  4  4  4  4  4
CENTRE ASSIGNMENTS    4  4  4  4  4  4  4  4  4  4  4  4  4  4  4  4  5  5  5  5
CENTRE ASSIGNMENTS    5  5  5  5  5  5  5  5  5  5  5  5  5  5  5  5  5  5  5  5
CENTRE ASSIGNMENTS    5  5  5  5  5  5  5  5  5  5  5  5  5  5  5  5  5  5  5  5
CENTRE ASSIGNMENTS    5  5  5  5  5  5  5  5  5  5  5  5  5  5  5  5  5  5  5  5
CENTRE ASSIGNMENTS    5  5  5  5  5  5  5  5  5  5  5
TYPE ASSIGNMENTS      1  1  1  1  1  1  1  1  1  1  1  1  1  1  1  1  1  1  1  1
TYPE ASSIGNMENTS      1  1  1  1  1  1  1  1  1  1  1  1  1  1  1  1  1  1  1  1
TYPE ASSIGNMENTS      1  1  1  1  1  1  1  1  1  1  1  1  1  1  1  1  1  1  1  1
TYPE ASSIGNMENTS      1  1  1  1  1  1  1  1  1  1  1  1  1  1  1  2  2  2  2  2
TYPE ASSIGNMENTS      2  2  2  2  2  2  3  3  3  3  3  3  3  3  3  3  3  4  4  4
TYPE ASSIGNMENTS      4  4  4  4  4  4  4  4  2  2  2  2  2  2  2  2  2  2  2  3
TYPE ASSIGNMENTS      3  3  3  3  3  3  3  3  3  3  4  4  4  4  4  4  4  4  4  4
TYPE ASSIGNMENTS      4  2  2  2  2  2  2  2  2  2  2  2  3  3  3  3  3  3  3  3
TYPE ASSIGNMENTS      3  3  3  4  4  4  4  4  4  4  4  4  4  4  2  3  4  2  3  4
TYPE ASSIGNMENTS      2  3  4  5  5  5  5  5  5  5  6  6  6  6  6  6  6  7  7  7
TYPE ASSIGNMENTS      7  7  7  7  8  8  8  8  8  8  8  9  9  9  9  9  9  9 10 10
TYPE ASSIGNMENTS     10 10 10 10 10  5  6  7  8  9 10  5  6  7  8  9 10  5  6  7
TYPE ASSIGNMENTS      8  9 10 11 12 13 17 14 15 18 19 16 20 11 12 13 17 14 15 18
TYPE ASSIGNMENTS     19 16 20  1  1  1  1  1  1  1  1  1  1  1  1  1  1  1  1  1
TYPE ASSIGNMENTS      1  1  2  2  2  3  3  3  4  4  4  2  3  4  2  3  4  2  3  4
TYPE ASSIGNMENTS      5  6  7  8  9 10  5  6  7  8  9 10  5  6  7  8  9 10 11 12
TYPE ASSIGNMENTS     13 17 14 15 18 19 16 20 11 12 13 17 14 15 18 19 16 20  1  1
TYPE ASSIGNMENTS      1  1  1  1  1  1  1  1  1  1  1  1  1  1  1  1  1  1  1  1
TYPE ASSIGNMENTS      1  1  1  1  1  1  1  1  1  1  1  1  1  1  1  1  1  1  1  1
TYPE ASSIGNMENTS      1  1  1  1  1  1  1  1  1  1  1  1  1  1  1  1  1  1  1  1
TYPE ASSIGNMENTS      1  1  1  1  1  1  1  1  1  1  1  1  1  2  2  2  2  2  2  2
TYPE ASSIGNMENTS      2  2  2  2  3  3  3  3  3  3  3  3  3  3  3  4  4  4  4  4
TYPE ASSIGNMENTS      4  4  4  4  4  4  2  2  2  2  2  2  2  2  2  2  2  3  3  3
TYPE ASSIGNMENTS      3  3  3  3  3  3  3  3  4  4  4  4  4  4  4  4  4  4  4  2
TYPE ASSIGNMENTS      2  2  2  2  2  2  2  2  2  2  3  3  3  3  3  3  3  3  3  3
TYPE ASSIGNMENTS      3  4  4  4  4  4  4  4  4  4  4  4  2  3  4  2  3  4  2  3
TYPE ASSIGNMENTS      4  5  5  5  5  5  5  5  6  6  6  6  6  6  6  7  7  7  7  7
TYPE ASSIGNMENTS      7  7  8  8  8  8  8  8  8  9  9  9  9  9  9  9 10 10 10 10
TYPE ASSIGNMENTS     10 10 10  5  6  7  8  9 10  5  6  7  8  9 10  5  6  7  8  9
TYPE ASSIGNMENTS     10 11 12 13 17 14 15 18 19 16 20 11 12 13 17 14 15 18 19 16
TYPE ASSIGNMENTS     20  1  1  1  1  1  1  1  1  1  1  1  1  1  1  1  1  1  1  1
TYPE ASSIGNMENTS      2  2  2  3  3  3  4  4  4  2  3  4  2  3  4  2  3  4  5  6
TYPE ASSIGNMENTS      7  8  9 10  5  6  7  8  9 10  5  6  7  8  9 10 11 12 13 17
TYPE ASSIGNMENTS     14 15 18 19 16 20 11 12 13 17 14 15 18 19 16 20  1  1  1  1
TYPE ASSIGNMENTS      1  1  1  1  1  1  1  1  1  1  1  1  1  1  1  2  2  2  3  3
TYPE ASSIGNMENTS      3  4  4  4  2  3  4  2  3  4  2  3  4  5  6  7  8  9 10  5
TYPE ASSIGNMENTS      6  7  8  9 10  5  6  7  8  9 10 11 12 13 17 14 15 18 19 16
TYPE ASSIGNMENTS     20 11 12 13 17 14 15 18 19 16 20
EXPONENTS  0.1063900D+08 0.1593400D+07 0.3626100D+06 0.1027000D+06 0.3350100D+05
EXPONENTS  0.1209300D+05 0.4715900D+04 0.1955600D+04 0.8526100D+03 0.3876700D+03
EXPONENTS  0.1826800D+03 0.8824500D+02 0.3926300D+02 0.1923400D+02 0.9405700D+01
EXPONENTS  0.4160100D+01 0.1899500D+01 0.3011400D+00 0.1063900D+08 0.1593400D+07
EXPONENTS  0.3626100D+06 0.1027000D+06 0.3350100D+05 0.1209300D+05 0.4715900D+04
EXPONENTS  0.1955600D+04 0.8526100D+03 0.3876700D+03 0.1826800D+03 0.8824500D+02
EXPONENTS  0.3926300D+02 0.1923400D+02 0.9405700D+01 0.4160100D+01 0.1899500D+01
EXPONENTS  0.3011400D+00 0.1063900D+08 0.1593400D+07 0.3626100D+06 0.1027000D+06
EXPONENTS  0.3350100D+05 0.1209300D+05 0.4715900D+04 0.1955600D+04 0.8526100D+03
EXPONENTS  0.3876700D+03 0.1826800D+03 0.8824500D+02 0.3926300D+02 0.1923400D+02
EXPONENTS  0.9405700D+01 0.4160100D+01 0.1899500D+01 0.3011400D+00 0.1063900D+08
EXPONENTS  0.1593400D+07 0.3626100D+06 0.1027000D+06 0.3350100D+05 0.1209300D+05
EXPONENTS  0.4715900D+04 0.1955600D+04 0.8526100D+03 0.3876700D+03 0.1826800D+03
EXPONENTS  0.8824500D+02 0.3926300D+02 0.1923400D+02 0.9405700D+01 0.4160100D+01
EXPONENTS  0.1899500D+01 0.3011400D+00 0.6047200D+00 0.1251500D+00 0.4559300D-01
EXPONENTS  0.8676500D+04 0.2055900D+04 0.6662300D+03 0.2531000D+03 0.1061200D+03
EXPONENTS  0.4724200D+02 0.2182500D+02 0.9968400D+01 0.4517100D+01 0.1998200D+01
EXPONENTS  0.2814500D+00 0.8676500D+04 0.2055900D+04 0.6662300D+03 0.2531000D+03
EXPONENTS  0.1061200D+03 0.4724200D+02 0.2182500D+02 0.9968400D+01 0.4517100D+01
EXPONENTS  0.1998200D+01 0.2814500D+00 0.8676500D+04 0.2055900D+04 0.6662300D+03
EXPONENTS  0.2531000D+03 0.1061200D+03 0.4724200D+02 0.2182500D+02 0.9968400D+01
EXPONENTS  0.4517100D+01 0.1998200D+01 0.2814500D+00 0.8676500D+04 0.2055900D+04
EXPONENTS  0.6662300D+03 0.2531000D+03 0.1061200D+03 0.4724200D+02 0.2182500D+02
EXPONENTS  0.9968400D+01 0.4517100D+01 0.1998200D+01 0.2814500D+00 0.8676500D+04
EXPONENTS  0.2055900D+04 0.6662300D+03 0.2531000D+03 0.1061200D+03 0.4724200D+02
EXPONENTS  0.2182500D+02 0.9968400D+01 0.4517100D+01 0.1998200D+01 0.2814500D+00
EXPONENTS  0.8676500D+04 0.2055900D+04 0.6662300D+03 0.2531000D+03 0.1061200D+03
EXPONENTS  0.4724200D+02 0.2182500D+02 0.9968400D+01 0.4517100D+01 0.1998200D+01
EXPONENTS  0.2814500D+00 0.8676500D+04 0.2055900D+04 0.6662300D+03 0.2531000D+03
EXPONENTS  0.1061200D+03 0.4724200D+02 0.2182500D+02 0.9968400D+01 0.4517100D+01
EXPONENTS  0.1998200D+01 0.2814500D+00 0.8676500D+04 0.2055900D+04 0.6662300D+03
EXPONENTS  0.2531000D+03 0.1061200D+03 0.4724200D+02 0.2182500D+02 0.9968400D+01
EXPONENTS  0.4517100D+01 0.1998200D+01 0.2814500D+00 0.8676500D+04 0.2055900D+04
EXPONENTS  0.6662300D+03 0.2531000D+03 0.1061200D+03 0.4724200D+02 0.2182500D+02
EXPONENTS  0.9968400D+01 0.4517100D+01 0.1998200D+01 0.2814500D+00 0.7098800D+00
EXPONENTS  0.7098800D+00 0.7098800D+00 0.1020400D+00 0.1020400D+00 0.1020400D+00
EXPONENTS  0.3514200D-01 0.3514200D-01 0.3514200D-01 0.4038300D+03 0.1211700D+03
EXPONENTS  0.4634500D+02 0.1972100D+02 0.8862400D+01 0.3996200D+01 0.1763600D+01
EXPONENTS  0.4038300D+03 0.1211700D+03 0.4634500D+02 0.1972100D+02 0.8862400D+01
EXPONENTS  0.3996200D+01 0.1763600D+01 0.4038300D+03 0.1211700D+03 0.4634500D+02
EXPONENTS  0.1972100D+02 0.8862400D+01 0.3996200D+01 0.1763600D+01 0.4038300D+03
EXPONENTS  0.1211700D+03 0.4634500D+02 0.1972100D+02 0.8862400D+01 0.3996200D+01
EXPONENTS  0.1763600D+01 0.4038300D+03 0.1211700D+03 0.4634500D+02 0.1972100D+02
EXPONENTS  0.8862400D+01 0.3996200D+01 0.1763600D+01 0.4038300D+03 0.1211700D+03
EXPONENTS  0.4634500D+02 0.1972100D+02 0.8862400D+01 0.3996200D+01 0.1763600D+01
EXPONENTS  0.7061900D+00 0.7061900D+00 0.7061900D+00 0.7061900D+00 0.7061900D+00
EXPONENTS  0.7061900D+00 0.2639000D+00 0.2639000D+00 0.2639000D+00 0.2639000D+00
EXPONENTS  0.2639000D+00 0.2639000D+00 0.1047000D+00 0.1047000D+00 0.1047000D+00
EXPONENTS  0.1047000D+00 0.1047000D+00 0.1047000D+00 0.5515000D+00 0.5515000D+00
EXPONENTS  0.5515000D+00 0.5515000D+00 0.5515000D+00 0.5515000D+00 0.5515000D+00
EXPONENTS  0.5515000D+00 0.5515000D+00 0.5515000D+00 0.2580000D+00 0.2580000D+00
EXPONENTS  0.2580000D+00 0.2580000D+00 0.2580000D+00 0.2580000D+00 0.2580000D+00
EXPONENTS  0.2580000D+00 0.2580000D+00 0.2580000D+00 0.1533000D+05 0.2299000D+04
EXPONENTS  0.5224000D+03 0.1473000D+03 0.4755000D+02 0.1676000D+02 0.6207000D+01
EXPONENTS  0.6882000D+00 0.1533000D+05 0.2299000D+04 0.5224000D+03 0.1473000D+03
EXPONENTS  0.4755000D+02 0.1676000D+02 0.6207000D+01 0.6882000D+00 0.1752000D+01
EXPONENTS  0.2384000D+00 0.7376000D-01 0.3446000D+02 0.7749000D+01 0.2280000D+01
EXPONENTS  0.3446000D+02 0.7749000D+01 0.2280000D+01 0.3446000D+02 0.7749000D+01
EXPONENTS  0.2280000D+01 0.7156000D+00 0.7156000D+00 0.7156000D+00 0.2140000D+00
EXPONENTS  0.2140000D+00 0.2140000D+00 0.5974000D-01 0.5974000D-01 0.5974000D-01
EXPONENTS  0.2314000D+01 0.2314000D+01 0.2314000D+01 0.2314000D+01 0.2314000D+01
EXPONENTS  0.2314000D+01 0.6450000D+00 0.6450000D+00 0.6450000D+00 0.6450000D+00
EXPONENTS  0.6450000D+00 0.6450000D+00 0.2140000D+00 0.2140000D+00 0.2140000D+00
EXPONENTS  0.2140000D+00 0.2140000D+00 0.2140000D+00 0.1428000D+01 0.1428000D+01
EXPONENTS  0.1428000D+01 0.1428000D+01 0.1428000D+01 0.1428000D+01 0.1428000D+01
EXPONENTS  0.1428000D+01 0.1428000D+01 0.1428000D+01 0.5000000D+00 0.5000000D+00
EXPONENTS  0.5000000D+00 0.5000000D+00 0.5000000D+00 0.5000000D+00 0.5000000D+00
EXPONENTS  0.5000000D+00 0.5000000D+00 0.5000000D+00 0.1063900D+08 0.1593400D+07
EXPONENTS  0.3626100D+06 0.1027000D+06 0.3350100D+05 0.1209300D+05 0.4715900D+04
EXPONENTS  0.1955600D+04 0.8526100D+03 0.3876700D+03 0.1826800D+03 0.8824500D+02
EXPONENTS  0.3926300D+02 0.1923400D+02 0.9405700D+01 0.4160100D+01 0.1899500D+01
EXPONENTS  0.3011400D+00 0.1063900D+08 0.1593400D+07 0.3626100D+06 0.1027000D+06
EXPONENTS  0.3350100D+05 0.1209300D+05 0.4715900D+04 0.1955600D+04 0.8526100D+03
EXPONENTS  0.3876700D+03 0.1826800D+03 0.8824500D+02 0.3926300D+02 0.1923400D+02
EXPONENTS  0.9405700D+01 0.4160100D+01 0.1899500D+01 0.3011400D+00 0.1063900D+08
EXPONENTS  0.1593400D+07 0.3626100D+06 0.1027000D+06 0.3350100D+05 0.1209300D+05
EXPONENTS  0.4715900D+04 0.1955600D+04 0.8526100D+03 0.3876700D+03 0.1826800D+03
EXPONENTS  0.8824500D+02 0.3926300D+02 0.1923400D+02 0.9405700D+01 0.4160100D+01
EXPONENTS  0.1899500D+01 0.3011400D+00 0.1063900D+08 0.1593400D+07 0.3626100D+06
EXPONENTS  0.1027000D+06 0.3350100D+05 0.1209300D+05 0.4715900D+04 0.1955600D+04
EXPONENTS  0.8526100D+03 0.3876700D+03 0.1826800D+03 0.8824500D+02 0.3926300D+02
EXPONENTS  0.1923400D+02 0.9405700D+01 0.4160100D+01 0.1899500D+01 0.3011400D+00
EXPONENTS  0.6047200D+00 0.1251500D+00 0.4559300D-01 0.8676500D+04 0.2055900D+04
EXPONENTS  0.6662300D+03 0.2531000D+03 0.1061200D+03 0.4724200D+02 0.2182500D+02
EXPONENTS  0.9968400D+01 0.4517100D+01 0.1998200D+01 0.2814500D+00 0.8676500D+04
EXPONENTS  0.2055900D+04 0.6662300D+03 0.2531000D+03 0.1061200D+03 0.4724200D+02
EXPONENTS  0.2182500D+02 0.9968400D+01 0.4517100D+01 0.1998200D+01 0.2814500D+00
EXPONENTS  0.8676500D+04 0.2055900D+04 0.6662300D+03 0.2531000D+03 0.1061200D+03
EXPONENTS  0.4724200D+02 0.2182500D+02 0.9968400D+01 0.4517100D+01 0.1998200D+01
EXPONENTS  0.2814500D+00 0.8676500D+04 0.2055900D+04 0.6662300D+03 0.2531000D+03
EXPONENTS  0.1061200D+03 0.4724200D+02 0.2182500D+02 0.9968400D+01 0.4517100D+01
EXPONENTS  0.1998200D+01 0.2814500D+00 0.8676500D+04 0.2055900D+04 0.6662300D+03
EXPONENTS  0.2531000D+03 0.1061200D+03 0.4724200D+02 0.2182500D+02 0.9968400D+01
EXPONENTS  0.4517100D+01 0.1998200D+01 0.2814500D+00 0.8676500D+04 0.2055900D+04
EXPONENTS  0.6662300D+03 0.2531000D+03 0.1061200D+03 0.4724200D+02 0.2182500D+02
EXPONENTS  0.9968400D+01 0.4517100D+01 0.1998200D+01 0.2814500D+00 0.8676500D+04
EXPONENTS  0.2055900D+04 0.6662300D+03 0.2531000D+03 0.1061200D+03 0.4724200D+02
EXPONENTS  0.2182500D+02 0.9968400D+01 0.4517100D+01 0.1998200D+01 0.2814500D+00
EXPONENTS  0.8676500D+04 0.2055900D+04 0.6662300D+03 0.2531000D+03 0.1061200D+03
EXPONENTS  0.4724200D+02 0.2182500D+02 0.9968400D+01 0.4517100D+01 0.1998200D+01
EXPONENTS  0.2814500D+00 0.8676500D+04 0.2055900D+04 0.6662300D+03 0.2531000D+03
EXPONENTS  0.1061200D+03 0.4724200D+02 0.2182500D+02 0.9968400D+01 0.4517100D+01
EXPONENTS  0.1998200D+01 0.2814500D+00 0.7098800D+00 0.7098800D+00 0.7098800D+00
EXPONENTS  0.1020400D+00 0.1020400D+00 0.1020400D+00 0.3514200D-01 0.3514200D-01
EXPONENTS  0.3514200D-01 0.4038300D+03 0.1211700D+03 0.4634500D+02 0.1972100D+02
EXPONENTS  0.8862400D+01 0.3996200D+01 0.1763600D+01 0.4038300D+03 0.1211700D+03
EXPONENTS  0.4634500D+02 0.1972100D+02 0.8862400D+01 0.3996200D+01 0.1763600D+01
EXPONENTS  0.4038300D+03 0.1211700D+03 0.4634500D+02 0.1972100D+02 0.8862400D+01
EXPONENTS  0.3996200D+01 0.1763600D+01 0.4038300D+03 0.1211700D+03 0.4634500D+02
EXPONENTS  0.1972100D+02 0.8862400D+01 0.3996200D+01 0.1763600D+01 0.4038300D+03
EXPONENTS  0.1211700D+03 0.4634500D+02 0.1972100D+02 0.8862400D+01 0.3996200D+01
EXPONENTS  0.1763600D+01 0.4038300D+03 0.1211700D+03 0.4634500D+02 0.1972100D+02
EXPONENTS  0.8862400D+01 0.3996200D+01 0.1763600D+01 0.7061900D+00 0.7061900D+00
EXPONENTS  0.7061900D+00 0.7061900D+00 0.7061900D+00 0.7061900D+00 0.2639000D+00
EXPONENTS  0.2639000D+00 0.2639000D+00 0.2639000D+00 0.2639000D+00 0.2639000D+00
EXPONENTS  0.1047000D+00 0.1047000D+00 0.1047000D+00 0.1047000D+00 0.1047000D+00
EXPONENTS  0.1047000D+00 0.5515000D+00 0.5515000D+00 0.5515000D+00 0.5515000D+00
EXPONENTS  0.5515000D+00 0.5515000D+00 0.5515000D+00 0.5515000D+00 0.5515000D+00
EXPONENTS  0.5515000D+00 0.2580000D+00 0.2580000D+00 0.2580000D+00 0.2580000D+00
EXPONENTS  0.2580000D+00 0.2580000D+00 0.2580000D+00 0.2580000D+00 0.2580000D+00
EXPONENTS  0.2580000D+00 0.1533000D+05 0.2299000D+04 0.5224000D+03 0.1473000D+03
EXPONENTS  0.4755000D+02 0.1676000D+02 0.6207000D+01 0.6882000D+00 0.1533000D+05
EXPONENTS  0.2299000D+04 0.5224000D+03 0.1473000D+03 0.4755000D+02 0.1676000D+02
EXPONENTS  0.6207000D+01 0.6882000D+00 0.1752000D+01 0.2384000D+00 0.7376000D-01
EXPONENTS  0.3446000D+02 0.7749000D+01 0.2280000D+01 0.3446000D+02 0.7749000D+01
EXPONENTS  0.2280000D+01 0.3446000D+02 0.7749000D+01 0.2280000D+01 0.7156000D+00
EXPONENTS  0.7156000D+00 0.7156000D+00 0.2140000D+00 0.2140000D+00 0.2140000D+00
EXPONENTS  0.5974000D-01 0.5974000D-01 0.5974000D-01 0.2314000D+01 0.2314000D+01
EXPONENTS  0.2314000D+01 0.2314000D+01 0.2314000D+01 0.2314000D+01 0.6450000D+00
EXPONENTS  0.6450000D+00 0.6450000D+00 0.6450000D+00 0.6450000D+00 0.6450000D+00
EXPONENTS  0.2140000D+00 0.2140000D+00 0.2140000D+00 0.2140000D+00 0.2140000D+00
EXPONENTS  0.2140000D+00 0.1428000D+01 0.1428000D+01 0.1428000D+01 0.1428000D+01
EXPONENTS  0.1428000D+01 0.1428000D+01 0.1428000D+01 0.1428000D+01 0.1428000D+01
EXPONENTS  0.1428000D+01 0.5000000D+00 0.5000000D+00 0.5000000D+00 0.5000000D+00
EXPONENTS  0.5000000D+00 0.5000000D+00 0.5000000D+00 0.5000000D+00 0.5000000D+00
EXPONENTS  0.5000000D+00 0.1533000D+05 0.2299000D+04 0.5224000D+03 0.1473000D+03
EXPONENTS  0.4755000D+02 0.1676000D+02 0.6207000D+01 0.6882000D+00 0.1533000D+05
EXPONENTS  0.2299000D+04 0.5224000D+03 0.1473000D+03 0.4755000D+02 0.1676000D+02
EXPONENTS  0.6207000D+01 0.6882000D+00 0.1752000D+01 0.2384000D+00 0.7376000D-01
EXPONENTS  0.3446000D+02 0.7749000D+01 0.2280000D+01 0.3446000D+02 0.7749000D+01
EXPONENTS  0.2280000D+01 0.3446000D+02 0.7749000D+01 0.2280000D+01 0.7156000D+00
EXPONENTS  0.7156000D+00 0.7156000D+00 0.2140000D+00 0.2140000D+00 0.2140000D+00
EXPONENTS  0.5974000D-01 0.5974000D-01 0.5974000D-01 0.2314000D+01 0.2314000D+01
EXPONENTS  0.2314000D+01 0.2314000D+01 0.2314000D+01 0.2314000D+01 0.6450000D+00
EXPONENTS  0.6450000D+00 0.6450000D+00 0.6450000D+00 0.6450000D+00 0.6450000D+00
EXPONENTS  0.2140000D+00 0.2140000D+00 0.2140000D+00 0.2140000D+00 0.2140000D+00
EXPONENTS  0.2140000D+00 0.1428000D+01 0.1428000D+01 0.1428000D+01 0.1428000D+01
EXPONENTS  0.1428000D+01 0.1428000D+01 0.1428000D+01 0.1428000D+01 0.1428000D+01
EXPONENTS  0.1428000D+01 0.5000000D+00 0.5000000D+00 0.5000000D+00 0.5000000D+00
EXPONENTS  0.5000000D+00 0.5000000D+00 0.5000000D+00 0.5000000D+00 0.5000000D+00
EXPONENTS  0.5000000D+00
MO    1     MO 0.0        OCC NO =    2.0000000  ORB. ENERGY = -485.430412
 -0.16506248D-04 -0.31050264D-04 -0.53749537D-04 -0.88105776D-04 -0.13801940D-03
 -0.20745492D-03 -0.29650519D-03 -0.39361801D-03 -0.45842164D-03 -0.42105584D-03
 -0.24620791D-03 -0.64606187D-04 -0.35319950D-05  0.12641699D-06 -0.35329559D-07
  0.10490538D-07 -0.17884551D-08 -0.14591334D-09 -0.48870723D-05 -0.89790661D-05
 -0.15526875D-04 -0.25427427D-04 -0.40034341D-04 -0.60455778D-04 -0.88246974D-04
 -0.12152144D-03 -0.15527187D-03 -0.16926453D-03 -0.13933077D-03 -0.38203552D-04
  0.77059042D-04  0.75097402D-04  0.16433427D-04  0.55362703D-06  0.18755115D-07
 -0.47710593D-10  0.63229024D-05  0.12395421D-04  0.21710273D-04  0.35467522D-04
  0.55940825D-04  0.84412208D-04  0.12376507D-03  0.17087815D-03  0.22154437D-03
  0.24637038D-03  0.21398784D-03  0.62159640D-04 -0.15670370D-03 -0.22832833D-03
 -0.39307538D-04  0.95893563D-04  0.45642918D-04 -0.22042359D-06 -0.29984951D-05
 -0.64970148D-05 -0.11060137D-04 -0.18053122D-04 -0.28458976D-04 -0.42952815D-04
 -0.62975827D-04 -0.87059609D-04 -0.11299464D-03 -0.12623477D-03 -0.11026893D-03
 -0.32661764D-04  0.84901826D-04  0.13060771D-03  0.22860337D-04 -0.72111668D-04
 -0.61211901D-04  0.22837613D-04 -0.58159299D-05 -0.50367842D-05 -0.85720601D-05
  0.10669647D-03  0.15309055D-03  0.20270003D-03  0.23406110D-03  0.21698541D-03
  0.14048031D-03  0.49584390D-04  0.58117181D-05  0.84491624D-07  0.12372858D-07
  0.12721219D-09  0.17686815D-04  0.25377448D-04  0.33601091D-04  0.38799739D-04
  0.35969143D-04  0.23287079D-04  0.82194838D-05  0.96339437D-06  0.14005971D-07
  0.20510186D-08  0.21087656D-10 -0.20884965D-04 -0.29966227D-04 -0.39676877D-04
 -0.45815552D-04 -0.42473124D-04 -0.27497875D-04 -0.97057400D-05 -0.11375964D-05
 -0.16538546D-07 -0.24218860D-08 -0.24900749D-10 -0.44226267D-03 -0.63841125D-03
 -0.85290217D-03 -0.10132739D-02 -0.98194012D-03 -0.68257364D-03 -0.22210291D-03
  0.99963937D-04  0.10799440D-03  0.27802829D-04 -0.27119092D-07 -0.85037046D-04
 -0.12275195D-03 -0.16399367D-03 -0.19482952D-03 -0.18880474D-03 -0.13124338D-03
 -0.42705336D-04  0.19220790D-04  0.20764866D-04  0.53458511D-05 -0.52143842D-08
  0.87075189D-04  0.12569404D-03  0.16792423D-03  0.19949913D-03  0.19332995D-03
  0.13438898D-03  0.43728885D-04 -0.19681468D-04 -0.21262552D-04 -0.54739789D-05
  0.53393610D-08  0.32951319D-03  0.47879728D-03  0.63656654D-03  0.76383578D-03
  0.73901450D-03  0.52461424D-03  0.16305143D-03 -0.93613843D-04 -0.10754152D-03
 -0.28558597D-04  0.10304031D-04  0.78464681D-04  0.11401266D-03  0.15158116D-03
  0.18188689D-03  0.17597637D-03  0.12492274D-03  0.38826300D-04 -0.22291612D-04
 -0.25608114D-04 -0.68004598D-05  0.24536271D-05 -0.65527606D-04 -0.95214518D-04
 -0.12658881D-03 -0.15189780D-03 -0.14696180D-03 -0.10432576D-03 -0.32424710D-04
  0.18616223D-04  0.21385907D-04  0.56792157D-05 -0.20490787D-05 -0.15542042D-05
  0.30448533D-05  0.16137470D-06 -0.74553240D-05 -0.54420343D-05  0.16406874D-05
 -0.53627345D-06 -0.28417385D-06  0.11346079D-06 -0.98868928D-06 -0.10345568D-05
 -0.88149777D-06 -0.58053292D-06 -0.26755034D-06 -0.80118382D-07 -0.13631464D-07
 -0.43874604D-04 -0.45910046D-04 -0.39117817D-04 -0.25762040D-04 -0.11872957D-04
 -0.35553762D-05 -0.60491712D-06  0.44863294D-04  0.46944603D-04  0.39999314D-04
  0.26342572D-04  0.12140507D-04  0.36354946D-05  0.61854858D-06 -0.20868103D-03
 -0.21836221D-03 -0.18605629D-03 -0.12253213D-03 -0.56471413D-04 -0.16910456D-04
 -0.28771707D-05  0.27629881D-04  0.28911694D-04  0.24634310D-04  0.16223556D-04
  0.74769538D-05  0.22389859D-05  0.38094447D-06  0.47289953D-04  0.49483840D-04
  0.42162880D-04  0.27767444D-04  0.12797188D-04  0.38321387D-05  0.65200592D-06
  0.10218012D-05  0.22629452D-05 -0.32847465D-05  0.13338971D-04 -0.23049769D-05
 -0.30167015D-05 -0.41814221D-06 -0.10633008D-05  0.14814430D-05 -0.47702291D-05
  0.96619738D-06  0.11282591D-05 -0.82158987D-06 -0.23933387D-06  0.10609237D-05
 -0.21985671D-05  0.83935815D-06  0.53459850D-06 -0.15171110D-05 -0.18956777D-05
  0.11297119D-05  0.98870000D-05  0.63613992D-05 -0.16648761D-05 -0.53356670D-05
 -0.67436604D-06 -0.17242597D-05 -0.42134510D-05  0.75858036D-07  0.82851718D-06
 -0.77007022D-06 -0.36912758D-05 -0.35031156D-05  0.16074606D-05  0.34637017D-05
  0.10175640D-05  0.70275011D-06  0.24772542D-05 -0.14848502D-04 -0.27675697D-04
 -0.46928813D-04 -0.71028944D-04 -0.88623383D-04 -0.76115667D-04 -0.29222285D-04
  0.13071307D-06  0.10094660D-04  0.18932785D-04  0.32276247D-04  0.50441492D-04
  0.67449885D-04  0.72020752D-04  0.44032076D-04 -0.29049689D-04  0.23089913D-05
  0.18195043D-04 -0.16245607D-04  0.48173277D-05  0.46711874D-05  0.31511554D-05
 -0.14026946D-04 -0.13601419D-04 -0.91754372D-05 -0.30463839D-06 -0.29539676D-06
 -0.19927291D-06 -0.10361734D-04 -0.93288354D-05  0.23548207D-05  0.10125068D-04
  0.31723531D-04 -0.32760838D-05 -0.25582191D-06 -0.22896176D-05  0.14718543D-06
  0.83438173D-05 -0.40269127D-04  0.31925310D-04 -0.55174553D-04  0.11835799D-04
  0.16753144D-04 -0.98226742D-06  0.12960721D-04 -0.11978454D-04  0.20399518D-04
 -0.52670645D-05 -0.60516095D-05 -0.75606091D-05  0.13407936D-04 -0.58473270D-05
  0.77854343D-05  0.29886946D-06 -0.31268281D-05  0.42841309D-05 -0.26173890D-04
 -0.58641888D-05 -0.29126121D-04  0.21764863D-04  0.36236184D-05  0.16273728D-04
  0.56756806D-04  0.13968948D-04  0.18272049D-04 -0.45798945D-05  0.11875869D-04
  0.26973474D-05  0.21520146D-04 -0.10083912D-04 -0.19484832D-06 -0.77804620D-05
 -0.25543696D-04 -0.78971939D-05 -0.89057968D-05  0.78327909D+00  0.14734434D+01
  0.25506031D+01  0.41809265D+01  0.65495024D+01  0.98444598D+01  0.14070206D+02
  0.18678548D+02  0.21753706D+02  0.19980569D+02  0.11683424D+02  0.30657890D+01
  0.16760549D+00 -0.59989272D-02  0.16765108D-02 -0.49781264D-03  0.84868437D-04
  0.69240971D-05  0.44539675D-04  0.81833184D-04  0.14150843D-03  0.23173984D-03
  0.36486396D-03  0.55098033D-03  0.80426302D-03  0.11075190D-02  0.14151128D-02
  0.15426388D-02  0.12698293D-02  0.34817856D-03 -0.70229873D-03 -0.68442079D-03
 -0.14977055D-03 -0.50456320D-05 -0.17092989D-06  0.43482359D-09 -0.11237281D-03
 -0.22029571D-03 -0.38584248D-03 -0.63034106D-03 -0.99419967D-03 -0.15002029D-02
 -0.21995955D-02 -0.30369055D-02 -0.39373630D-02 -0.43785794D-02 -0.38030658D-02
 -0.11047226D-02  0.27849922D-02  0.40579299D-02  0.69858715D-03 -0.17042535D-02
 -0.81118171D-03  0.39174442D-05  0.38551098D-04  0.83530921D-04  0.14219815D-03
  0.23210567D-03  0.36589181D-03  0.55223642D-03  0.80966859D-03  0.11193093D-02
  0.14527512D-02  0.16229772D-02  0.14177073D-02  0.41992628D-03 -0.10915671D-02
 -0.16791992D-02 -0.29391113D-03  0.92712642D-03  0.78699012D-03 -0.29361898D-03
  0.30605113D-03  0.68977208D-04  0.21351338D-04  0.21566106D-03  0.30943544D-03
  0.40970898D-03  0.47309779D-03  0.43858341D-03  0.28394690D-03  0.10022283D-03
  0.11746980D-04  0.17077934D-06  0.25008733D-07  0.25712862D-09  0.42765530D-03
  0.61360964D-03  0.81245179D-03  0.93815163D-03  0.86970972D-03  0.56306593D-03
  0.19874159D-03  0.23294228D-04  0.33865497D-06  0.49592250D-07  0.50988535D-09
 -0.59126603D-04 -0.84836207D-04 -0.11232765D-03 -0.12970661D-03 -0.12024399D-03
 -0.77848153D-04 -0.27477539D-04 -0.32206045D-05 -0.46821629D-07 -0.68565064D-08
 -0.70495534D-10 -0.12518378D-02 -0.18070422D-02 -0.24141652D-02 -0.28681023D-02
 -0.27794110D-02 -0.19320452D-02 -0.62866897D-03  0.28295093D-03  0.30568140D-03
  0.78696741D-04 -0.76761404D-07 -0.27417628D-02 -0.39577661D-02 -0.52874809D-02
 -0.62816896D-02 -0.60874387D-02 -0.42315464D-02 -0.13769046D-02  0.61971634D-03
  0.66950041D-03  0.17236083D-03 -0.16812207D-06  0.35402586D-03  0.51104040D-03
  0.68273775D-03  0.81111340D-03  0.78603106D-03  0.54639185D-03  0.17779067D-03
 -0.80019909D-04 -0.86448199D-04 -0.22255824D-04  0.21708501D-07  0.90370461D-03
  0.13131229D-02  0.17458121D-02  0.20948537D-02  0.20267802D-02  0.14387779D-02
  0.44717580D-03 -0.25674014D-03 -0.29493742D-03 -0.78323225D-04  0.28259264D-04
  0.19820828D-02  0.28800543D-02  0.38290655D-02  0.45946136D-02  0.44453090D-02
  0.31556518D-02  0.98078451D-03 -0.56310459D-03 -0.64688217D-03 -0.17178525D-03
  0.61980653D-04 -0.25569882D-03 -0.37154173D-03 -0.49396904D-03 -0.59272865D-03
 -0.57346759D-03 -0.40709522D-03 -0.12652622D-03  0.72643372D-04  0.83451109D-04
  0.22161175D-04 -0.79958212D-05 -0.18709447D-04 -0.40049343D-04  0.52502135D-05
 -0.67710775D-05 -0.83501178D-05  0.16423779D-05 -0.63703001D-06 -0.13895884D-06
  0.12585492D-06 -0.87452197D-04 -0.91509302D-04 -0.77970823D-04 -0.51349682D-04
 -0.23665539D-04 -0.70866841D-05 -0.12057392D-05  0.28215867D-03  0.29524864D-03
  0.25156764D-03  0.16567631D-03  0.76355280D-04  0.22864712D-04  0.38902369D-05
 -0.19470647D-03 -0.20373934D-03 -0.17359682D-03 -0.11432663D-03 -0.52689741D-04
 -0.15778028D-04 -0.26844977D-05  0.35268792D-03  0.36904990D-03  0.31445027D-03
  0.20708927D-03  0.95441281D-04  0.28580046D-04  0.48626525D-05 -0.58556434D-04
 -0.61272999D-04 -0.52207875D-04 -0.34382832D-04 -0.15846024D-04 -0.47451175D-05
 -0.80734151D-06 -0.10816362D-03 -0.11318157D-03 -0.96436757D-04 -0.63510895D-04
 -0.29270281D-04 -0.87650329D-05 -0.14912960D-05  0.28915919D-05 -0.99513378D-05
  0.70597459D-05 -0.11233795D-04  0.21613247D-05  0.36077157D-05  0.41943456D-05
 -0.11127734D-04  0.69333888D-05 -0.16184842D-04  0.18291009D-05  0.46223662D-05
 -0.11958602D-05  0.49178619D-05 -0.37220017D-05  0.79458554D-05 -0.13599169D-05
 -0.22527530D-05 -0.29004869D-05  0.60786793D-05  0.25025663D-05  0.17100521D-04
 -0.81202513D-06 -0.18871697D-05 -0.83990600D-05 -0.17424013D-04 -0.56205293D-05
 -0.90201882D-05 -0.56525961D-06  0.12756946D-06 -0.37026272D-06  0.32352349D-06
 -0.19263888D-05  0.10347665D-05  0.13722554D-05  0.15436804D-05  0.76021644D-07
  0.14955815D-05  0.15498998D-05  0.28888138D-05  0.48984710D-05  0.74140640D-05
  0.92505872D-05  0.79450207D-05  0.30502479D-05 -0.13643946D-07 -0.89737457D-06
 -0.16830483D-05 -0.28692283D-05 -0.44840454D-05 -0.59960230D-05 -0.64023547D-05
 -0.39142741D-05  0.25824003D-05 -0.41743164D-05  0.22807288D-04 -0.10507870D-04
 -0.47263023D-05 -0.45829234D-05 -0.30916131D-05  0.13880330D-04  0.13459251D-04
  0.90795314D-05  0.27969164D-06  0.27120681D-06  0.18295451D-06  0.55825182D-05
 -0.10700576D-04 -0.57458629D-06  0.20747185D-04  0.11622135D-04 -0.43671984D-05
  0.21516886D-05  0.31999714D-05 -0.53962229D-06 -0.50639798D-05 -0.34286269D-06
  0.54068425D-05 -0.14067038D-04  0.46839133D-05  0.31361910D-05  0.62909593D-05
 -0.21529958D-05 -0.41379635D-05  0.77749546D-05 -0.43788352D-05 -0.16506211D-05
  0.25582592D-05 -0.24985834D-05 -0.59675776D-07 -0.38701824D-05 -0.82988748D-06
  0.92851175D-06 -0.89347417D-06  0.53935697D-05  0.14888570D-05  0.58858882D-05
  0.20968043D-05 -0.10337708D-05 -0.32054657D-05 -0.18277513D-04 -0.34328001D-05
 -0.88205057D-05  0.12969469D-05 -0.17908864D-05  0.10584239D-06 -0.26978864D-05
  0.19476261D-05 -0.13476411D-05 -0.11929543D-05  0.34250332D-05  0.10301140D-05
  0.69858335D-06  0.14914683D-05  0.27799051D-05  0.47137979D-05  0.71345527D-05
  0.89018387D-05  0.76454923D-05  0.29352532D-05 -0.13129567D-07 -0.96133033D-06