 Molden2AIM, Version 4.0.0 (06/02/2016)           Time: Thu Jun 28 06:02:31 2018
GAUSSIAN             52 MOL ORBITALS    787 PRIMITIVES        5 NUCLEI
  Br   1    (CENTRE  1)   0.00000000  0.00000000  0.00000000  CHARGE = 35.0
  Cl   2    (CENTRE  2)  -4.54387481  0.00000000  0.00000000  CHARGE = 17.0
  Cl   3    (CENTRE  3)   0.00000000 -4.54387481  0.00000000  CHARGE = 17.0
  Cl   4    (CENTRE  4)   4.54387481  0.00000000  0.00000000  CHARGE = 17.0
  Cl   5    (CENTRE  5)   0.00000000  4.54387481  0.00000000  CHARGE = 17.0
CENTRE ASSIGNMENTS    1  1  1  1  1  1  1  1  1  1  1  1  1  1  1  1  1  1  1  1
CENTRE ASSIGNMENTS    1  1  1  1  1  1  1  1  1  1  1  1  1  1  1  1  1  1  1  1
CENTRE ASSIGNMENTS    1  1  1  1  1  1  1  1  1  1  1  1  1  1  1  1  1  1  1  1
CENTRE ASSIGNMENTS    1  1  1  1  1  1  1  1  1  1  1  1  1  1  1  1  1  1  1  1
CENTRE ASSIGNMENTS    1  1  1  1  1  1  1  1  1  1  1  1  1  1  1  1  1  1  1  1
CENTRE ASSIGNMENTS    1  1  1  1  1  1  1  1  1  1  1  1  1  1  1  1  1  1  1  1
CENTRE ASSIGNMENTS    1  1  1  1  1  1  1  1  1  1  1  1  1  1  1  1  1  1  1  1
CENTRE ASSIGNMENTS    1  1  1  1  1  1  1  1  1  1  1  1  1  1  1  1  1  1  1  1
CENTRE ASSIGNMENTS    1  1  1  1  1  1  1  1  1  1  1  1  1  1  1  1  1  1  1  1
CENTRE ASSIGNMENTS    1  1  1  1  1  1  1  1  1  1  1  1  1  1  1  1  1  1  1  1
CENTRE ASSIGNMENTS    1  1  1  1  1  1  1  1  1  1  1  1  1  1  1  1  1  1  1  1
CENTRE ASSIGNMENTS    1  1  1  1  1  1  1  1  1  1  1  1  1  1  1  1  1  1  1  1
CENTRE ASSIGNMENTS    1  1  1  1  1  1  1  1  1  1  1  1  1  1  1  1  1  1  1  1
CENTRE ASSIGNMENTS    1  1  1  2  2  2  2  2  2  2  2  2  2  2  2  2  2  2  2  2
CENTRE ASSIGNMENTS    2  2  2  2  2  2  2  2  2  2  2  2  2  2  2  2  2  2  2  2
CENTRE ASSIGNMENTS    2  2  2  2  2  2  2  2  2  2  2  2  2  2  2  2  2  2  2  2
CENTRE ASSIGNMENTS    2  2  2  2  2  2  2  2  2  2  2  2  2  2  2  2  2  2  2  2
CENTRE ASSIGNMENTS    2  2  2  2  2  2  2  2  2  2  2  2  2  2  2  2  2  2  2  2
CENTRE ASSIGNMENTS    2  2  2  2  2  2  2  2  2  2  2  2  2  2  2  2  2  2  2  2
CENTRE ASSIGNMENTS    2  2  2  2  2  2  2  2  2  2  2  2  2  2  3  3  3  3  3  3
CENTRE ASSIGNMENTS    3  3  3  3  3  3  3  3  3  3  3  3  3  3  3  3  3  3  3  3
CENTRE ASSIGNMENTS    3  3  3  3  3  3  3  3  3  3  3  3  3  3  3  3  3  3  3  3
CENTRE ASSIGNMENTS    3  3  3  3  3  3  3  3  3  3  3  3  3  3  3  3  3  3  3  3
CENTRE ASSIGNMENTS    3  3  3  3  3  3  3  3  3  3  3  3  3  3  3  3  3  3  3  3
CENTRE ASSIGNMENTS    3  3  3  3  3  3  3  3  3  3  3  3  3  3  3  3  3  3  3  3
CENTRE ASSIGNMENTS    3  3  3  3  3  3  3  3  3  3  3  3  3  3  3  3  3  3  3  3
CENTRE ASSIGNMENTS    3  3  3  3  3  4  4  4  4  4  4  4  4  4  4  4  4  4  4  4
CENTRE ASSIGNMENTS    4  4  4  4  4  4  4  4  4  4  4  4  4  4  4  4  4  4  4  4
CENTRE ASSIGNMENTS    4  4  4  4  4  4  4  4  4  4  4  4  4  4  4  4  4  4  4  4
CENTRE ASSIGNMENTS    4  4  4  4  4  4  4  4  4  4  4  4  4  4  4  4  4  4  4  4
CENTRE ASSIGNMENTS    4  4  4  4  4  4  4  4  4  4  4  4  4  4  4  4  4  4  4  4
CENTRE ASSIGNMENTS    4  4  4  4  4  4  4  4  4  4  4  4  4  4  4  4  4  4  4  4
CENTRE ASSIGNMENTS    4  4  4  4  4  4  4  4  4  4  4  4  4  4  4  4  5  5  5  5
CENTRE ASSIGNMENTS    5  5  5  5  5  5  5  5  5  5  5  5  5  5  5  5  5  5  5  5
CENTRE ASSIGNMENTS    5  5  5  5  5  5  5  5  5  5  5  5  5  5  5  5  5  5  5  5
CENTRE ASSIGNMENTS    5  5  5  5  5  5  5  5  5  5  5  5  5  5  5  5  5  5  5  5
CENTRE ASSIGNMENTS    5  5  5  5  5  5  5  5  5  5  5  5  5  5  5  5  5  5  5  5
CENTRE ASSIGNMENTS    5  5  5  5  5  5  5  5  5  5  5  5  5  5  5  5  5  5  5  5
CENTRE ASSIGNMENTS    5  5  5  5  5  5  5  5  5  5  5  5  5  5  5  5  5  5  5  5
CENTRE ASSIGNMENTS    5  5  5  5  5  5  5
TYPE ASSIGNMENTS      1  1  1  1  1  1  1  1  1  1  1  1  1  1  1  1  1  1  1  1
TYPE ASSIGNMENTS      1  1  1  1  1  1  1  1  1  1  1  1  1  1  1  1  1  1  1  1
TYPE ASSIGNMENTS      1  1  1  1  1  1  1  1  1  1  1  1  1  1  1  1  1  1  1  1
TYPE ASSIGNMENTS      1  1  1  1  1  1  1  1  1  1  1  1  1  1  1  2  2  2  2  2
TYPE ASSIGNMENTS      2  2  2  2  2  2  3  3  3  3  3  3  3  3  3  3  3  4  4  4
TYPE ASSIGNMENTS      4  4  4  4  4  4  4  4  2  2  2  2  2  2  2  2  2  2  2  3
TYPE ASSIGNMENTS      3  3  3  3  3  3  3  3  3  3  4  4  4  4  4  4  4  4  4  4
TYPE ASSIGNMENTS      4  2  2  2  2  2  2  2  2  2  2  2  3  3  3  3  3  3  3  3
TYPE ASSIGNMENTS      3  3  3  4  4  4  4  4  4  4  4  4  4  4  2  3  4  2  3  4
TYPE ASSIGNMENTS      2  3  4  5  5  5  5  5  5  5  6  6  6  6  6  6  6  7  7  7
TYPE ASSIGNMENTS      7  7  7  7  8  8  8  8  8  8  8  9  9  9  9  9  9  9 10 10
TYPE ASSIGNMENTS     10 10 10 10 10  5  6  7  8  9 10  5  6  7  8  9 10  5  6  7
TYPE ASSIGNMENTS      8  9 10 11 12 13 17 14 15 18 19 16 20 11 12 13 17 14 15 18
TYPE ASSIGNMENTS     19 16 20  1  1  1  1  1  1  1  1  1  1  1  1  1  1  1  1  1
TYPE ASSIGNMENTS      1  1  1  1  1  1  1  1  1  1  1  1  1  1  1  1  1  1  1  1
TYPE ASSIGNMENTS      1  1  1  1  1  2  2  2  2  2  2  2  3  3  3  3  3  3  3  4
TYPE ASSIGNMENTS      4  4  4  4  4  4  2  2  2  2  2  2  2  3  3  3  3  3  3  3
TYPE ASSIGNMENTS      4  4  4  4  4  4  4  2  3  4  2  3  4  2  3  4  5  6  7  8
TYPE ASSIGNMENTS      9 10  5  6  7  8  9 10  5  6  7  8  9 10 11 12 13 17 14 15
TYPE ASSIGNMENTS     18 19 16 20 11 12 13 17 14 15 18 19 16 20  1  1  1  1  1  1
TYPE ASSIGNMENTS      1  1  1  1  1  1  1  1  1  1  1  1  1  1  1  1  1  1  1  1
TYPE ASSIGNMENTS      1  1  1  1  1  1  1  1  1  1  1  1  1  1  1  1  2  2  2  2
TYPE ASSIGNMENTS      2  2  2  3  3  3  3  3  3  3  4  4  4  4  4  4  4  2  2  2
TYPE ASSIGNMENTS      2  2  2  2  3  3  3  3  3  3  3  4  4  4  4  4  4  4  2  3
TYPE ASSIGNMENTS      4  2  3  4  2  3  4  5  6  7  8  9 10  5  6  7  8  9 10  5
TYPE ASSIGNMENTS      6  7  8  9 10 11 12 13 17 14 15 18 19 16 20 11 12 13 17 14
TYPE ASSIGNMENTS     15 18 19 16 20  1  1  1  1  1  1  1  1  1  1  1  1  1  1  1
TYPE ASSIGNMENTS      1  1  1  1  1  1  1  1  1  1  1  1  1  1  1  1  1  1  1  1
TYPE ASSIGNMENTS      1  1  1  1  1  1  1  2  2  2  2  2  2  2  3  3  3  3  3  3
TYPE ASSIGNMENTS      3  4  4  4  4  4  4  4  2  2  2  2  2  2  2  3  3  3  3  3
TYPE ASSIGNMENTS      3  3  4  4  4  4  4  4  4  2  3  4  2  3  4  2  3  4  5  6
TYPE ASSIGNMENTS      7  8  9 10  5  6  7  8  9 10  5  6  7  8  9 10 11 12 13 17
TYPE ASSIGNMENTS     14 15 18 19 16 20 11 12 13 17 14 15 18 19 16 20  1  1  1  1
TYPE ASSIGNMENTS      1  1  1  1  1  1  1  1  1  1  1  1  1  1  1  1  1  1  1  1
TYPE ASSIGNMENTS      1  1  1  1  1  1  1  1  1  1  1  1  1  1  1  1  1  1  2  2
TYPE ASSIGNMENTS      2  2  2  2  2  3  3  3  3  3  3  3  4  4  4  4  4  4  4  2
TYPE ASSIGNMENTS      2  2  2  2  2  2  3  3  3  3  3  3  3  4  4  4  4  4  4  4
TYPE ASSIGNMENTS      2  3  4  2  3  4  2  3  4  5  6  7  8  9 10  5  6  7  8  9
TYPE ASSIGNMENTS     10  5  6  7  8  9 10 11 12 13 17 14 15 18 19 16 20 11 12 13
TYPE ASSIGNMENTS     17 14 15 18 19 16 20
EXPONENTS  0.1063900D+08 0.1593400D+07 0.3626100D+06 0.1027000D+06 0.3350100D+05
EXPONENTS  0.1209300D+05 0.4715900D+04 0.1955600D+04 0.8526100D+03 0.3876700D+03
EXPONENTS  0.1826800D+03 0.8824500D+02 0.3926300D+02 0.1923400D+02 0.9405700D+01
EXPONENTS  0.4160100D+01 0.1899500D+01 0.3011400D+00 0.1063900D+08 0.1593400D+07
EXPONENTS  0.3626100D+06 0.1027000D+06 0.3350100D+05 0.1209300D+05 0.4715900D+04
EXPONENTS  0.1955600D+04 0.8526100D+03 0.3876700D+03 0.1826800D+03 0.8824500D+02
EXPONENTS  0.3926300D+02 0.1923400D+02 0.9405700D+01 0.4160100D+01 0.1899500D+01
EXPONENTS  0.3011400D+00 0.1063900D+08 0.1593400D+07 0.3626100D+06 0.1027000D+06
EXPONENTS  0.3350100D+05 0.1209300D+05 0.4715900D+04 0.1955600D+04 0.8526100D+03
EXPONENTS  0.3876700D+03 0.1826800D+03 0.8824500D+02 0.3926300D+02 0.1923400D+02
EXPONENTS  0.9405700D+01 0.4160100D+01 0.1899500D+01 0.3011400D+00 0.1063900D+08
EXPONENTS  0.1593400D+07 0.3626100D+06 0.1027000D+06 0.3350100D+05 0.1209300D+05
EXPONENTS  0.4715900D+04 0.1955600D+04 0.8526100D+03 0.3876700D+03 0.1826800D+03
EXPONENTS  0.8824500D+02 0.3926300D+02 0.1923400D+02 0.9405700D+01 0.4160100D+01
EXPONENTS  0.1899500D+01 0.3011400D+00 0.6047200D+00 0.1251500D+00 0.4559300D-01
EXPONENTS  0.8676500D+04 0.2055900D+04 0.6662300D+03 0.2531000D+03 0.1061200D+03
EXPONENTS  0.4724200D+02 0.2182500D+02 0.9968400D+01 0.4517100D+01 0.1998200D+01
EXPONENTS  0.2814500D+00 0.8676500D+04 0.2055900D+04 0.6662300D+03 0.2531000D+03
EXPONENTS  0.1061200D+03 0.4724200D+02 0.2182500D+02 0.9968400D+01 0.4517100D+01
EXPONENTS  0.1998200D+01 0.2814500D+00 0.8676500D+04 0.2055900D+04 0.6662300D+03
EXPONENTS  0.2531000D+03 0.1061200D+03 0.4724200D+02 0.2182500D+02 0.9968400D+01
EXPONENTS  0.4517100D+01 0.1998200D+01 0.2814500D+00 0.8676500D+04 0.2055900D+04
EXPONENTS  0.6662300D+03 0.2531000D+03 0.1061200D+03 0.4724200D+02 0.2182500D+02
EXPONENTS  0.9968400D+01 0.4517100D+01 0.1998200D+01 0.2814500D+00 0.8676500D+04
EXPONENTS  0.2055900D+04 0.6662300D+03 0.2531000D+03 0.1061200D+03 0.4724200D+02
EXPONENTS  0.2182500D+02 0.9968400D+01 0.4517100D+01 0.1998200D+01 0.2814500D+00
EXPONENTS  0.8676500D+04 0.2055900D+04 0.6662300D+03 0.2531000D+03 0.1061200D+03
EXPONENTS  0.4724200D+02 0.2182500D+02 0.9968400D+01 0.4517100D+01 0.1998200D+01
EXPONENTS  0.2814500D+00 0.8676500D+04 0.2055900D+04 0.6662300D+03 0.2531000D+03
EXPONENTS  0.1061200D+03 0.4724200D+02 0.2182500D+02 0.9968400D+01 0.4517100D+01
EXPONENTS  0.1998200D+01 0.2814500D+00 0.8676500D+04 0.2055900D+04 0.6662300D+03
EXPONENTS  0.2531000D+03 0.1061200D+03 0.4724200D+02 0.2182500D+02 0.9968400D+01
EXPONENTS  0.4517100D+01 0.1998200D+01 0.2814500D+00 0.8676500D+04 0.2055900D+04
EXPONENTS  0.6662300D+03 0.2531000D+03 0.1061200D+03 0.4724200D+02 0.2182500D+02
EXPONENTS  0.9968400D+01 0.4517100D+01 0.1998200D+01 0.2814500D+00 0.7098800D+00
EXPONENTS  0.7098800D+00 0.7098800D+00 0.1020400D+00 0.1020400D+00 0.1020400D+00
EXPONENTS  0.3514200D-01 0.3514200D-01 0.3514200D-01 0.4038300D+03 0.1211700D+03
EXPONENTS  0.4634500D+02 0.1972100D+02 0.8862400D+01 0.3996200D+01 0.1763600D+01
EXPONENTS  0.4038300D+03 0.1211700D+03 0.4634500D+02 0.1972100D+02 0.8862400D+01
EXPONENTS  0.3996200D+01 0.1763600D+01 0.4038300D+03 0.1211700D+03 0.4634500D+02
EXPONENTS  0.1972100D+02 0.8862400D+01 0.3996200D+01 0.1763600D+01 0.4038300D+03
EXPONENTS  0.1211700D+03 0.4634500D+02 0.1972100D+02 0.8862400D+01 0.3996200D+01
EXPONENTS  0.1763600D+01 0.4038300D+03 0.1211700D+03 0.4634500D+02 0.1972100D+02
EXPONENTS  0.8862400D+01 0.3996200D+01 0.1763600D+01 0.4038300D+03 0.1211700D+03
EXPONENTS  0.4634500D+02 0.1972100D+02 0.8862400D+01 0.3996200D+01 0.1763600D+01
EXPONENTS  0.7061900D+00 0.7061900D+00 0.7061900D+00 0.7061900D+00 0.7061900D+00
EXPONENTS  0.7061900D+00 0.2639000D+00 0.2639000D+00 0.2639000D+00 0.2639000D+00
EXPONENTS  0.2639000D+00 0.2639000D+00 0.1047000D+00 0.1047000D+00 0.1047000D+00
EXPONENTS  0.1047000D+00 0.1047000D+00 0.1047000D+00 0.5515000D+00 0.5515000D+00
EXPONENTS  0.5515000D+00 0.5515000D+00 0.5515000D+00 0.5515000D+00 0.5515000D+00
EXPONENTS  0.5515000D+00 0.5515000D+00 0.5515000D+00 0.2580000D+00 0.2580000D+00
EXPONENTS  0.2580000D+00 0.2580000D+00 0.2580000D+00 0.2580000D+00 0.2580000D+00
EXPONENTS  0.2580000D+00 0.2580000D+00 0.2580000D+00 0.4561000D+06 0.6833000D+05
EXPONENTS  0.1555000D+05 0.4405000D+04 0.1439000D+04 0.5204000D+03 0.2031000D+03
EXPONENTS  0.8396000D+02 0.3620000D+02 0.1583000D+02 0.6334000D+01 0.2694000D+01
EXPONENTS  0.4313000D+00 0.4561000D+06 0.6833000D+05 0.1555000D+05 0.4405000D+04
EXPONENTS  0.1439000D+04 0.5204000D+03 0.2031000D+03 0.8396000D+02 0.3620000D+02
EXPONENTS  0.1583000D+02 0.6334000D+01 0.2694000D+01 0.4313000D+00 0.4561000D+06
EXPONENTS  0.6833000D+05 0.1555000D+05 0.4405000D+04 0.1439000D+04 0.5204000D+03
EXPONENTS  0.2031000D+03 0.8396000D+02 0.3620000D+02 0.1583000D+02 0.6334000D+01
EXPONENTS  0.2694000D+01 0.4313000D+00 0.9768000D+00 0.1625000D+00 0.5910000D-01
EXPONENTS  0.6633000D+03 0.1568000D+03 0.4998000D+02 0.1842000D+02 0.7240000D+01
EXPONENTS  0.2922000D+01 0.3818000D+00 0.6633000D+03 0.1568000D+03 0.4998000D+02
EXPONENTS  0.1842000D+02 0.7240000D+01 0.2922000D+01 0.3818000D+00 0.6633000D+03
EXPONENTS  0.1568000D+03 0.4998000D+02 0.1842000D+02 0.7240000D+01 0.2922000D+01
EXPONENTS  0.3818000D+00 0.6633000D+03 0.1568000D+03 0.4998000D+02 0.1842000D+02
EXPONENTS  0.7240000D+01 0.2922000D+01 0.3818000D+00 0.6633000D+03 0.1568000D+03
EXPONENTS  0.4998000D+02 0.1842000D+02 0.7240000D+01 0.2922000D+01 0.3818000D+00
EXPONENTS  0.6633000D+03 0.1568000D+03 0.4998000D+02 0.1842000D+02 0.7240000D+01
EXPONENTS  0.2922000D+01 0.3818000D+00 0.1022000D+01 0.1022000D+01 0.1022000D+01
EXPONENTS  0.1301000D+00 0.1301000D+00 0.1301000D+00 0.4190000D-01 0.4190000D-01
EXPONENTS  0.4190000D-01 0.1046000D+01 0.1046000D+01 0.1046000D+01 0.1046000D+01
EXPONENTS  0.1046000D+01 0.1046000D+01 0.3440000D+00 0.3440000D+00 0.3440000D+00
EXPONENTS  0.3440000D+00 0.3440000D+00 0.3440000D+00 0.1350000D+00 0.1350000D+00
EXPONENTS  0.1350000D+00 0.1350000D+00 0.1350000D+00 0.1350000D+00 0.7060000D+00
EXPONENTS  0.7060000D+00 0.7060000D+00 0.7060000D+00 0.7060000D+00 0.7060000D+00
EXPONENTS  0.7060000D+00 0.7060000D+00 0.7060000D+00 0.7060000D+00 0.3120000D+00
EXPONENTS  0.3120000D+00 0.3120000D+00 0.3120000D+00 0.3120000D+00 0.3120000D+00
EXPONENTS  0.3120000D+00 0.3120000D+00 0.3120000D+00 0.3120000D+00 0.4561000D+06
EXPONENTS  0.6833000D+05 0.1555000D+05 0.4405000D+04 0.1439000D+04 0.5204000D+03
EXPONENTS  0.2031000D+03 0.8396000D+02 0.3620000D+02 0.1583000D+02 0.6334000D+01
EXPONENTS  0.2694000D+01 0.4313000D+00 0.4561000D+06 0.6833000D+05 0.1555000D+05
EXPONENTS  0.4405000D+04 0.1439000D+04 0.5204000D+03 0.2031000D+03 0.8396000D+02
EXPONENTS  0.3620000D+02 0.1583000D+02 0.6334000D+01 0.2694000D+01 0.4313000D+00
EXPONENTS  0.4561000D+06 0.6833000D+05 0.1555000D+05 0.4405000D+04 0.1439000D+04
EXPONENTS  0.5204000D+03 0.2031000D+03 0.8396000D+02 0.3620000D+02 0.1583000D+02
EXPONENTS  0.6334000D+01 0.2694000D+01 0.4313000D+00 0.9768000D+00 0.1625000D+00
EXPONENTS  0.5910000D-01 0.6633000D+03 0.1568000D+03 0.4998000D+02 0.1842000D+02
EXPONENTS  0.7240000D+01 0.2922000D+01 0.3818000D+00 0.6633000D+03 0.1568000D+03
EXPONENTS  0.4998000D+02 0.1842000D+02 0.7240000D+01 0.2922000D+01 0.3818000D+00
EXPONENTS  0.6633000D+03 0.1568000D+03 0.4998000D+02 0.1842000D+02 0.7240000D+01
EXPONENTS  0.2922000D+01 0.3818000D+00 0.6633000D+03 0.1568000D+03 0.4998000D+02
EXPONENTS  0.1842000D+02 0.7240000D+01 0.2922000D+01 0.3818000D+00 0.6633000D+03
EXPONENTS  0.1568000D+03 0.4998000D+02 0.1842000D+02 0.7240000D+01 0.2922000D+01
EXPONENTS  0.3818000D+00 0.6633000D+03 0.1568000D+03 0.4998000D+02 0.1842000D+02
EXPONENTS  0.7240000D+01 0.2922000D+01 0.3818000D+00 0.1022000D+01 0.1022000D+01
EXPONENTS  0.1022000D+01 0.1301000D+00 0.1301000D+00 0.1301000D+00 0.4190000D-01
EXPONENTS  0.4190000D-01 0.4190000D-01 0.1046000D+01 0.1046000D+01 0.1046000D+01
EXPONENTS  0.1046000D+01 0.1046000D+01 0.1046000D+01 0.3440000D+00 0.3440000D+00
EXPONENTS  0.3440000D+00 0.3440000D+00 0.3440000D+00 0.3440000D+00 0.1350000D+00
EXPONENTS  0.1350000D+00 0.1350000D+00 0.1350000D+00 0.1350000D+00 0.1350000D+00
EXPONENTS  0.7060000D+00 0.7060000D+00 0.7060000D+00 0.7060000D+00 0.7060000D+00
EXPONENTS  0.7060000D+00 0.7060000D+00 0.7060000D+00 0.7060000D+00 0.7060000D+00
EXPONENTS  0.3120000D+00 0.3120000D+00 0.3120000D+00 0.3120000D+00 0.3120000D+00
EXPONENTS  0.3120000D+00 0.3120000D+00 0.3120000D+00 0.3120000D+00 0.3120000D+00
EXPONENTS  0.4561000D+06 0.6833000D+05 0.1555000D+05 0.4405000D+04 0.1439000D+04
EXPONENTS  0.5204000D+03 0.2031000D+03 0.8396000D+02 0.3620000D+02 0.1583000D+02
EXPONENTS  0.6334000D+01 0.2694000D+01 0.4313000D+00 0.4561000D+06 0.6833000D+05
EXPONENTS  0.1555000D+05 0.4405000D+04 0.1439000D+04 0.5204000D+03 0.2031000D+03
EXPONENTS  0.8396000D+02 0.3620000D+02 0.1583000D+02 0.6334000D+01 0.2694000D+01
EXPONENTS  0.4313000D+00 0.4561000D+06 0.6833000D+05 0.1555000D+05 0.4405000D+04
EXPONENTS  0.1439000D+04 0.5204000D+03 0.2031000D+03 0.8396000D+02 0.3620000D+02
EXPONENTS  0.1583000D+02 0.6334000D+01 0.2694000D+01 0.4313000D+00 0.9768000D+00
EXPONENTS  0.1625000D+00 0.5910000D-01 0.6633000D+03 0.1568000D+03 0.4998000D+02
EXPONENTS  0.1842000D+02 0.7240000D+01 0.2922000D+01 0.3818000D+00 0.6633000D+03
EXPONENTS  0.1568000D+03 0.4998000D+02 0.1842000D+02 0.7240000D+01 0.2922000D+01
EXPONENTS  0.3818000D+00 0.6633000D+03 0.1568000D+03 0.4998000D+02 0.1842000D+02
EXPONENTS  0.7240000D+01 0.2922000D+01 0.3818000D+00 0.6633000D+03 0.1568000D+03
EXPONENTS  0.4998000D+02 0.1842000D+02 0.7240000D+01 0.2922000D+01 0.3818000D+00
EXPONENTS  0.6633000D+03 0.1568000D+03 0.4998000D+02 0.1842000D+02 0.7240000D+01
EXPONENTS  0.2922000D+01 0.3818000D+00 0.6633000D+03 0.1568000D+03 0.4998000D+02
EXPONENTS  0.1842000D+02 0.7240000D+01 0.2922000D+01 0.3818000D+00 0.1022000D+01
EXPONENTS  0.1022000D+01 0.1022000D+01 0.1301000D+00 0.1301000D+00 0.1301000D+00
EXPONENTS  0.4190000D-01 0.4190000D-01 0.4190000D-01 0.1046000D+01 0.1046000D+01
EXPONENTS  0.1046000D+01 0.1046000D+01 0.1046000D+01 0.1046000D+01 0.3440000D+00
EXPONENTS  0.3440000D+00 0.3440000D+00 0.3440000D+00 0.3440000D+00 0.3440000D+00
EXPONENTS  0.1350000D+00 0.1350000D+00 0.1350000D+00 0.1350000D+00 0.1350000D+00
EXPONENTS  0.1350000D+00 0.7060000D+00 0.7060000D+00 0.7060000D+00 0.7060000D+00
EXPONENTS  0.7060000D+00 0.7060000D+00 0.7060000D+00 0.7060000D+00 0.7060000D+00
EXPONENTS  0.7060000D+00 0.3120000D+00 0.3120000D+00 0.3120000D+00 0.3120000D+00
EXPONENTS  0.3120000D+00 0.3120000D+00 0.3120000D+00 0.3120000D+00 0.3120000D+00
EXPONENTS  0.3120000D+00 0.4561000D+06 0.6833000D+05 0.1555000D+05 0.4405000D+04
EXPONENTS  0.1439000D+04 0.5204000D+03 0.2031000D+03 0.8396000D+02 0.3620000D+02
EXPONENTS  0.1583000D+02 0.6334000D+01 0.2694000D+01 0.4313000D+00 0.4561000D+06
EXPONENTS  0.6833000D+05 0.1555000D+05 0.4405000D+04 0.1439000D+04 0.5204000D+03
EXPONENTS  0.2031000D+03 0.8396000D+02 0.3620000D+02 0.1583000D+02 0.6334000D+01
EXPONENTS  0.2694000D+01 0.4313000D+00 0.4561000D+06 0.6833000D+05 0.1555000D+05
EXPONENTS  0.4405000D+04 0.1439000D+04 0.5204000D+03 0.2031000D+03 0.8396000D+02
EXPONENTS  0.3620000D+02 0.1583000D+02 0.6334000D+01 0.2694000D+01 0.4313000D+00
EXPONENTS  0.9768000D+00 0.1625000D+00 0.5910000D-01 0.6633000D+03 0.1568000D+03
EXPONENTS  0.4998000D+02 0.1842000D+02 0.7240000D+01 0.2922000D+01 0.3818000D+00
EXPONENTS  0.6633000D+03 0.1568000D+03 0.4998000D+02 0.1842000D+02 0.7240000D+01
EXPONENTS  0.2922000D+01 0.3818000D+00 0.6633000D+03 0.1568000D+03 0.4998000D+02
EXPONENTS  0.1842000D+02 0.7240000D+01 0.2922000D+01 0.3818000D+00 0.6633000D+03
EXPONENTS  0.1568000D+03 0.4998000D+02 0.1842000D+02 0.7240000D+01 0.2922000D+01
EXPONENTS  0.3818000D+00 0.6633000D+03 0.1568000D+03 0.4998000D+02 0.1842000D+02
EXPONENTS  0.7240000D+01 0.2922000D+01 0.3818000D+00 0.6633000D+03 0.1568000D+03
EXPONENTS  0.4998000D+02 0.1842000D+02 0.7240000D+01 0.2922000D+01 0.3818000D+00
EXPONENTS  0.1022000D+01 0.1022000D+01 0.1022000D+01 0.1301000D+00 0.1301000D+00
EXPONENTS  0.1301000D+00 0.4190000D-01 0.4190000D-01 0.4190000D-01 0.1046000D+01
EXPONENTS  0.1046000D+01 0.1046000D+01 0.1046000D+01 0.1046000D+01 0.1046000D+01
EXPONENTS  0.3440000D+00 0.3440000D+00 0.3440000D+00 0.3440000D+00 0.3440000D+00
EXPONENTS  0.3440000D+00 0.1350000D+00 0.1350000D+00 0.1350000D+00 0.1350000D+00
EXPONENTS  0.1350000D+00 0.1350000D+00 0.7060000D+00 0.7060000D+00 0.7060000D+00
EXPONENTS  0.7060000D+00 0.7060000D+00 0.7060000D+00 0.7060000D+00 0.7060000D+00
EXPONENTS  0.7060000D+00 0.7060000D+00 0.3120000D+00 0.3120000D+00 0.3120000D+00
EXPONENTS  0.3120000D+00 0.3120000D+00 0.3120000D+00 0.3120000D+00 0.3120000D+00
EXPONENTS  0.3120000D+00 0.3120000D+00
MO    1     MO 0.0        OCC NO =    2.0000000  ORB. ENERGY = -485.377912
  0.78327360D+00  0.14734330D+01  0.25505852D+01  0.41808972D+01  0.65494565D+01
  0.98443908D+01  0.14070107D+02  0.18678417D+02  0.21753554D+02  0.19980429D+02
  0.11683343D+02  0.30657675D+01  0.16760431D+00 -0.59988852D-02  0.16764991D-02
 -0.49780915D-03  0.84867842D-04  0.69240486D-05  0.56892858D-04  0.10452981D-03
  0.18075613D-03  0.29601342D-03  0.46605983D-03  0.70379601D-03  0.10273273D-02
  0.14146920D-02  0.18075977D-02  0.19704933D-02  0.16220194D-02  0.44474670D-03
 -0.89708293D-03 -0.87424650D-03 -0.19130976D-03 -0.64450498D-05 -0.21833769D-06
  0.55542293D-09 -0.12801638D-03 -0.25096339D-03 -0.43955615D-03 -0.71809172D-03
 -0.11326036D-02 -0.17090483D-02 -0.25058043D-02 -0.34596774D-02 -0.44854889D-02
 -0.49881276D-02 -0.43324959D-02 -0.12585126D-02  0.31726949D-02  0.46228400D-02
  0.79583844D-03 -0.19415050D-02 -0.92410745D-03  0.44627971D-05  0.46367819D-04
  0.10046787D-03  0.17103061D-03  0.27916801D-03  0.44008098D-03  0.66420930D-03
  0.97383909D-03  0.13462634D-02  0.17473148D-02  0.19520562D-02  0.17051653D-02
  0.50507162D-03 -0.13128961D-02 -0.20196780D-02 -0.35350532D-03  0.11151130D-02
  0.94656228D-03 -0.35315393D-03  0.28469317D-03  0.20708221D-03  0.53486434D-04
 -0.72071482D-15 -0.10340982D-14 -0.13692009D-14 -0.15810391D-14 -0.14656960D-14
 -0.94891833D-15 -0.33493332D-15 -0.39257073D-16 -0.57072519D-18 -0.83576351D-19
 -0.85929468D-21 -0.23031816D-16 -0.33046579D-16 -0.43755427D-16 -0.50525121D-16
 -0.46839111D-16 -0.30324495D-16 -0.10703433D-16 -0.12545346D-17 -0.18238612D-19
 -0.26708417D-20 -0.27460400D-22 -0.12623748D-16 -0.18112843D-16 -0.23982367D-16
 -0.27692839D-16 -0.25672535D-16 -0.16620867D-16 -0.58665558D-17 -0.68761093D-18
 -0.99965902D-20 -0.14638894D-20 -0.15051056D-22 -0.34974356D-15 -0.50485885D-15
 -0.67447936D-15 -0.80130217D-15 -0.77652323D-15 -0.53978270D-15 -0.17564011D-15
  0.79051989D-16  0.85402522D-16  0.21986618D-16 -0.21445916D-19  0.10301860D-15
  0.14870853D-15  0.19867105D-15  0.23602730D-15  0.22872855D-15  0.15899552D-15
  0.51735616D-16 -0.23285133D-16 -0.25155712D-16 -0.64762610D-17  0.63169946D-20
  0.15500285D-16  0.22374840D-16  0.29892251D-16  0.35512911D-16  0.34414733D-16
  0.23922629D-16  0.77841941D-17 -0.35035051D-17 -0.37849544D-17 -0.97442491D-18
  0.95046153D-21  0.15394349D-15  0.22368672D-15  0.29739409D-15  0.35685232D-15
  0.34525620D-15  0.24509170D-15  0.76175117D-16 -0.43734947D-16 -0.50241745D-16
 -0.13342137D-16  0.48138846D-17 -0.56505829D-16 -0.82105476D-16 -0.10916018D-15
 -0.13098466D-15 -0.12672824D-15 -0.89962295D-16 -0.27960507D-16  0.16053160D-16
  0.18441517D-16  0.48973068D-17 -0.17669636D-17 -0.83080286D-17 -0.12071934D-16
 -0.16049776D-16 -0.19258621D-16 -0.18632801D-16 -0.13227119D-16 -0.41110218D-17
  0.23602894D-17  0.27114485D-17  0.72004899D-18 -0.25979592D-18 -0.90852623D-17
  0.75327701D-17  0.53003633D-18  0.81673562D-17 -0.17969512D-16  0.68931685D-19
  0.20500734D-17 -0.19890942D-17 -0.82258278D-20  0.15959002D-03  0.16699377D-03
  0.14228763D-03  0.93707159D-04  0.43186840D-04  0.12932369D-04  0.22003329D-05
  0.15959002D-03  0.16699377D-03  0.14228763D-03  0.93707159D-04  0.43186840D-04
  0.12932369D-04  0.22003329D-05 -0.31918005D-03 -0.33398753D-03 -0.28457525D-03
 -0.18741432D-03 -0.86373679D-04 -0.25864738D-04 -0.44006659D-05  0.56123055D-18
  0.58726730D-18  0.50038317D-18  0.32954015D-18  0.15187524D-18  0.45479287D-19
  0.77379151D-20  0.71024104D-18  0.74319072D-18  0.63323827D-18  0.41703527D-18
  0.19219914D-18  0.57554344D-19  0.97923837D-20 -0.47778520D-17 -0.49995073D-17
 -0.42598478D-17 -0.28054318D-17 -0.12929400D-17 -0.38717298D-18 -0.65874200D-19
 -0.96225148D-05 -0.96225148D-05  0.19245030D-04 -0.94661472D-20  0.35843543D-20
  0.41603607D-19  0.56520511D-05  0.56520511D-05 -0.11304102D-04 -0.44629835D-20
  0.19436379D-21 -0.39794143D-20  0.40964529D-05  0.40964529D-05 -0.81929058D-05
  0.13223171D-19 -0.37307713D-22  0.46685573D-21  0.11644549D-18  0.21045694D-17
  0.22639639D-19  0.83713148D-19 -0.22359511D-17 -0.33771087D-19 -0.43304961D-18
 -0.40777572D-17 -0.34147830D-19 -0.59585390D-21  0.44737455D-18 -0.19544929D-17
 -0.81079401D-20 -0.86050301D-18  0.26370943D-17  0.12209730D-19 -0.48162063D-18
  0.32263843D-17  0.12114091D-19  0.11089264D-21  0.87685334D-05  0.16405960D-04
  0.28345864D-04  0.45951951D-04  0.69781704D-04  0.96988362D-04  0.11530517D-03
  0.10270498D-03  0.50985826D-04  0.82146335D-05  0.12611651D-06  0.22536896D-07
  0.84216863D-09 -0.15301500D-04 -0.28581005D-04 -0.49603720D-04 -0.80486680D-04
 -0.12458382D-03 -0.17833042D-03 -0.23277690D-03 -0.24806263D-03 -0.18543185D-03
 -0.97886182D-05  0.12577888D-03  0.74727108D-04 -0.28017063D-06  0.80379833D-05
  0.15001738D-04  0.26071700D-04  0.42254555D-04  0.65627940D-04  0.94013918D-04
  0.12413662D-03  0.13422851D-03  0.10523689D-03  0.52365528D-05 -0.90214622D-04
 -0.93388858D-04  0.42259779D-04 -0.17681663D-04 -0.37851418D-04 -0.24172080D-04
  0.14253176D-03  0.18774632D-03  0.20712817D-03  0.17204375D-03  0.91376616D-04
  0.23568695D-04 -0.24227817D-07  0.12871450D-16  0.16954589D-16  0.18704883D-16
  0.15536556D-16  0.82518421D-17  0.21283908D-17 -0.21879134D-20  0.18469557D-18
  0.24328551D-18  0.26840091D-18  0.22293781D-18  0.11840769D-18  0.30540797D-19
 -0.31394901D-22 -0.12524390D-03 -0.16443605D-03 -0.18722255D-03 -0.15853236D-03
 -0.90813440D-04 -0.20656907D-04  0.96685694D-05 -0.10779570D-16 -0.14152785D-16
 -0.16113987D-16 -0.13644662D-16 -0.78161880D-17 -0.17779116D-17  0.83216047D-18
 -0.15372797D-18 -0.20183355D-18 -0.22980235D-18 -0.19458719D-18 -0.11146704D-18
 -0.25354883D-19  0.11867481D-19 -0.61862297D-05 -0.99992070D-18 -0.14287908D-19
 -0.29713735D-04  0.29223963D-18 -0.12494126D-19 -0.15495928D-05  0.15716480D-18
  0.20132489D-20  0.20686894D-05  0.77360296D-06 -0.28422923D-05  0.24784904D-18
 -0.87629222D-20 -0.38544708D-21 -0.28343109D-05  0.52326508D-06  0.23110458D-05
 -0.10646603D-19  0.48909794D-21  0.79359818D-22 -0.47138584D-05  0.24532528D-05
  0.22606056D-05  0.21469561D-18 -0.56918240D-20 -0.41552718D-22  0.13686457D-05
  0.66725387D-18  0.49716106D-20 -0.14495202D-05 -0.47363121D-18 -0.15272615D-19
 -0.26564168D-05 -0.15281304D-17  0.35778350D-21  0.20395581D-21 -0.11551646D-05
 -0.17819691D-18 -0.79302308D-21  0.11850340D-05 -0.55649307D-20  0.19662127D-20
  0.22804599D-05  0.54015567D-18  0.41285652D-21  0.81982594D-22  0.87685334D-05
  0.16405960D-04  0.28345864D-04  0.45951951D-04  0.69781704D-04  0.96988362D-04
  0.11530517D-03  0.10270498D-03  0.50985826D-04  0.82146335D-05  0.12611651D-06
  0.22536896D-07  0.84216863D-09 -0.15301500D-04 -0.28581005D-04 -0.49603720D-04
 -0.80486680D-04 -0.12458382D-03 -0.17833042D-03 -0.23277690D-03 -0.24806263D-03
 -0.18543185D-03 -0.97886182D-05  0.12577888D-03  0.74727108D-04 -0.28017063D-06
  0.80379833D-05  0.15001738D-04  0.26071700D-04  0.42254555D-04  0.65627940D-04
  0.94013918D-04  0.12413662D-03  0.13422851D-03  0.10523689D-03  0.52365528D-05
 -0.90214622D-04 -0.93388858D-04  0.42259779D-04 -0.17681663D-04 -0.37851418D-04
 -0.24172080D-04 -0.28639117D-16 -0.37724145D-16 -0.41618569D-16 -0.34569005D-16
 -0.18360439D-16 -0.47356927D-17  0.48681311D-20  0.14253176D-03  0.18774632D-03
  0.20712817D-03  0.17204375D-03  0.91376616D-04  0.23568695D-04 -0.24227817D-07
  0.17894316D-18  0.23570830D-18  0.26004148D-18  0.21599434D-18  0.11471984D-18
  0.29589593D-19 -0.30417096D-22  0.27822259D-16  0.36528586D-16  0.41590483D-16
  0.35217113D-16  0.20173718D-16  0.45888209D-17 -0.21478207D-17 -0.12524390D-03
 -0.16443605D-03 -0.18722255D-03 -0.15853236D-03 -0.90813440D-04 -0.20656907D-04
  0.96685694D-05 -0.14933925D-18 -0.19607148D-18 -0.22324181D-18 -0.18903199D-18
 -0.10828480D-18 -0.24631036D-19  0.11528681D-19  0.22127654D-17 -0.61862297D-05
 -0.13544292D-19  0.97038710D-18 -0.29713735D-04 -0.12297087D-19 -0.15247147D-18
 -0.15495928D-05  0.20363559D-20  0.77360296D-06  0.20686894D-05 -0.28422923D-05
  0.76590046D-19  0.40361380D-22 -0.71821042D-20  0.52326508D-06 -0.28343109D-05
  0.23110458D-05 -0.39462303D-18 -0.15481843D-23 -0.94413177D-22  0.24532528D-05
 -0.47138584D-05  0.22606056D-05  0.38442036D-18  0.20265972D-23 -0.55797160D-20
 -0.76857384D-19  0.13686457D-05  0.48934769D-20 -0.71400896D-18 -0.14495202D-05
  0.62047663D-21  0.94458111D-18 -0.26564168D-05 -0.15300907D-19 -0.62116080D-22
  0.43776022D-19 -0.11551646D-05 -0.69528089D-21  0.26500769D-18  0.11850340D-05
  0.42245840D-21 -0.39633576D-18  0.22804599D-05  0.16633843D-20  0.88889799D-23
  0.87685334D-05  0.16405960D-04  0.28345864D-04  0.45951951D-04  0.69781704D-04
  0.96988362D-04  0.11530517D-03  0.10270498D-03  0.50985826D-04  0.82146335D-05
  0.12611651D-06  0.22536896D-07  0.84216863D-09 -0.15301500D-04 -0.28581005D-04
 -0.49603720D-04 -0.80486680D-04 -0.12458382D-03 -0.17833042D-03 -0.23277690D-03
 -0.24806263D-03 -0.18543185D-03 -0.97886182D-05  0.12577888D-03  0.74727108D-04
 -0.28017063D-06  0.80379833D-05  0.15001738D-04  0.26071700D-04  0.42254555D-04
  0.65627940D-04  0.94013918D-04  0.12413662D-03  0.13422851D-03  0.10523689D-03
  0.52365528D-05 -0.90214622D-04 -0.93388858D-04  0.42259779D-04 -0.17681663D-04
 -0.37851418D-04 -0.24172080D-04 -0.14253176D-03 -0.18774632D-03 -0.20712817D-03
 -0.17204375D-03 -0.91376616D-04 -0.23568695D-04  0.24227817D-07  0.24264900D-16
  0.31962319D-16  0.35261926D-16  0.29289083D-16  0.15556143D-16  0.40123831D-17
 -0.41245935D-20  0.18349200D-18  0.24170015D-18  0.26665188D-18  0.22148504D-18
  0.11763609D-18  0.30341778D-19 -0.31190316D-22  0.12524390D-03  0.16443605D-03
  0.18722255D-03  0.15853236D-03  0.90813440D-04  0.20656907D-04 -0.96685694D-05
 -0.16540622D-16 -0.21716624D-16 -0.24725974D-16 -0.20936939D-16 -0.11993485D-16
 -0.27281017D-17  0.12769017D-17 -0.15236151D-18 -0.20003949D-18 -0.22775968D-18
 -0.19285754D-18 -0.11047622D-18 -0.25129508D-19  0.11761993D-19  0.61862297D-05
 -0.19346411D-17 -0.14191253D-19  0.29713735D-04  0.13291010D-18 -0.12454171D-19
  0.15495928D-05  0.13690842D-18  0.20108929D-20  0.20686894D-05  0.77360296D-06
 -0.28422923D-05  0.12215817D-19  0.85782346D-20 -0.28077388D-21 -0.28343109D-05
  0.52326508D-06  0.23110458D-05 -0.16321802D-18 -0.39982899D-21  0.63136733D-22