 Molden2AIM, Version 4.0.0 (06/02/2016)           Time: Thu Jun 28 01:01:28 2018
GAUSSIAN             50 MOL ORBITALS    826 PRIMITIVES        6 NUCLEI
  C    1    (CENTRE  1)  -5.59621794  2.26962722 -0.20443057  CHARGE =  6.0
  C    2    (CENTRE  2)  -3.06893979  2.29528970 -0.16118041  CHARGE =  6.0
  Br   3    (CENTRE  3)  -7.72812758  3.68468248  2.19933885  CHARGE = 35.0
  F    4    (CENTRE  4)  -6.78454576  1.13986390 -2.11576949  CHARGE =  9.0
  Br   5    (CENTRE  5)  -1.05051009  3.75399197  2.31343296  CHARGE = 35.0
  F    6    (CENTRE  6)  -1.79369969  1.19153279 -2.03139133  CHARGE =  9.0
CENTRE ASSIGNMENTS    1  1  1  1  1  1  1  1  1  1  1  1  1  1  1  1  1  1  1  1
CENTRE ASSIGNMENTS    1  1  1  1  1  1  1  1  1  1  1  1  1  1  1  1  1  1  1  1
CENTRE ASSIGNMENTS    1  1  1  1  1  1  1  1  1  1  1  1  1  1  1  1  1  1  1  1
CENTRE ASSIGNMENTS    1  1  1  1  1  1  1  1  1  1  1  1  1  1  1  2  2  2  2  2
CENTRE ASSIGNMENTS    2  2  2  2  2  2  2  2  2  2  2  2  2  2  2  2  2  2  2  2
CENTRE ASSIGNMENTS    2  2  2  2  2  2  2  2  2  2  2  2  2  2  2  2  2  2  2  2
CENTRE ASSIGNMENTS    2  2  2  2  2  2  2  2  2  2  2  2  2  2  2  2  2  2  2  2
CENTRE ASSIGNMENTS    2  2  2  2  2  2  2  2  2  2  3  3  3  3  3  3  3  3  3  3
CENTRE ASSIGNMENTS    3  3  3  3  3  3  3  3  3  3  3  3  3  3  3  3  3  3  3  3
CENTRE ASSIGNMENTS    3  3  3  3  3  3  3  3  3  3  3  3  3  3  3  3  3  3  3  3
CENTRE ASSIGNMENTS    3  3  3  3  3  3  3  3  3  3  3  3  3  3  3  3  3  3  3  3
CENTRE ASSIGNMENTS    3  3  3  3  3  3  3  3  3  3  3  3  3  3  3  3  3  3  3  3
CENTRE ASSIGNMENTS    3  3  3  3  3  3  3  3  3  3  3  3  3  3  3  3  3  3  3  3
CENTRE ASSIGNMENTS    3  3  3  3  3  3  3  3  3  3  3  3  3  3  3  3  3  3  3  3
CENTRE ASSIGNMENTS    3  3  3  3  3  3  3  3  3  3  3  3  3  3  3  3  3  3  3  3
CENTRE ASSIGNMENTS    3  3  3  3  3  3  3  3  3  3  3  3  3  3  3  3  3  3  3  3
CENTRE ASSIGNMENTS    3  3  3  3  3  3  3  3  3  3  3  3  3  3  3  3  3  3  3  3
CENTRE ASSIGNMENTS    3  3  3  3  3  3  3  3  3  3  3  3  3  3  3  3  3  3  3  3
CENTRE ASSIGNMENTS    3  3  3  3  3  3  3  3  3  3  3  3  3  3  3  3  3  3  3  3
CENTRE ASSIGNMENTS    3  3  3  3  3  3  3  3  3  3  3  3  3  3  3  3  3  3  3  3
CENTRE ASSIGNMENTS    3  3  3  3  3  3  3  3  3  3  3  3  3  4  4  4  4  4  4  4
CENTRE ASSIGNMENTS    4  4  4  4  4  4  4  4  4  4  4  4  4  4  4  4  4  4  4  4
CENTRE ASSIGNMENTS    4  4  4  4  4  4  4  4  4  4  4  4  4  4  4  4  4  4  4  4
CENTRE ASSIGNMENTS    4  4  4  4  4  4  4  4  4  4  4  4  4  4  4  4  4  4  4  4
CENTRE ASSIGNMENTS    4  4  4  4  4  4  4  4  5  5  5  5  5  5  5  5  5  5  5  5
CENTRE ASSIGNMENTS    5  5  5  5  5  5  5  5  5  5  5  5  5  5  5  5  5  5  5  5
CENTRE ASSIGNMENTS    5  5  5  5  5  5  5  5  5  5  5  5  5  5  5  5  5  5  5  5
CENTRE ASSIGNMENTS    5  5  5  5  5  5  5  5  5  5  5  5  5  5  5  5  5  5  5  5
CENTRE ASSIGNMENTS    5  5  5  5  5  5  5  5  5  5  5  5  5  5  5  5  5  5  5  5
CENTRE ASSIGNMENTS    5  5  5  5  5  5  5  5  5  5  5  5  5  5  5  5  5  5  5  5
CENTRE ASSIGNMENTS    5  5  5  5  5  5  5  5  5  5  5  5  5  5  5  5  5  5  5  5
CENTRE ASSIGNMENTS    5  5  5  5  5  5  5  5  5  5  5  5  5  5  5  5  5  5  5  5
CENTRE ASSIGNMENTS    5  5  5  5  5  5  5  5  5  5  5  5  5  5  5  5  5  5  5  5
CENTRE ASSIGNMENTS    5  5  5  5  5  5  5  5  5  5  5  5  5  5  5  5  5  5  5  5
CENTRE ASSIGNMENTS    5  5  5  5  5  5  5  5  5  5  5  5  5  5  5  5  5  5  5  5
CENTRE ASSIGNMENTS    5  5  5  5  5  5  5  5  5  5  5  5  5  5  5  5  5  5  5  5
CENTRE ASSIGNMENTS    5  5  5  5  5  5  5  5  5  5  5  5  5  5  5  5  5  5  5  5
CENTRE ASSIGNMENTS    5  5  5  5  5  5  5  5  5  5  5  6  6  6  6  6  6  6  6  6
CENTRE ASSIGNMENTS    6  6  6  6  6  6  6  6  6  6  6  6  6  6  6  6  6  6  6  6
CENTRE ASSIGNMENTS    6  6  6  6  6  6  6  6  6  6  6  6  6  6  6  6  6  6  6  6
CENTRE ASSIGNMENTS    6  6  6  6  6  6  6  6  6  6  6  6  6  6  6  6  6  6  6  6
CENTRE ASSIGNMENTS    6  6  6  6  6  6
TYPE ASSIGNMENTS      1  1  1  1  1  1  1  1  1  1  1  1  1  1  1  1  1  1  1  2
TYPE ASSIGNMENTS      2  2  3  3  3  4  4  4  2  3  4  2  3  4  2  3  4  5  6  7
TYPE ASSIGNMENTS      8  9 10  5  6  7  8  9 10  5  6  7  8  9 10 11 12 13 17 14
TYPE ASSIGNMENTS     15 18 19 16 20 11 12 13 17 14 15 18 19 16 20  1  1  1  1  1
TYPE ASSIGNMENTS      1  1  1  1  1  1  1  1  1  1  1  1  1  1  2  2  2  3  3  3
TYPE ASSIGNMENTS      4  4  4  2  3  4  2  3  4  2  3  4  5  6  7  8  9 10  5  6
TYPE ASSIGNMENTS      7  8  9 10  5  6  7  8  9 10 11 12 13 17 14 15 18 19 16 20
TYPE ASSIGNMENTS     11 12 13 17 14 15 18 19 16 20  1  1  1  1  1  1  1  1  1  1
TYPE ASSIGNMENTS      1  1  1  1  1  1  1  1  1  1  1  1  1  1  1  1  1  1  1  1
TYPE ASSIGNMENTS      1  1  1  1  1  1  1  1  1  1  1  1  1  1  1  1  1  1  1  1
TYPE ASSIGNMENTS      1  1  1  1  1  1  1  1  1  1  1  1  1  1  1  1  1  1  1  1
TYPE ASSIGNMENTS      1  1  1  1  1  2  2  2  2  2  2  2  2  2  2  2  3  3  3  3
TYPE ASSIGNMENTS      3  3  3  3  3  3  3  4  4  4  4  4  4  4  4  4  4  4  2  2
TYPE ASSIGNMENTS      2  2  2  2  2  2  2  2  2  3  3  3  3  3  3  3  3  3  3  3
TYPE ASSIGNMENTS      4  4  4  4  4  4  4  4  4  4  4  2  2  2  2  2  2  2  2  2
TYPE ASSIGNMENTS      2  2  3  3  3  3  3  3  3  3  3  3  3  4  4  4  4  4  4  4
TYPE ASSIGNMENTS      4  4  4  4  2  3  4  2  3  4  2  3  4  5  5  5  5  5  5  5
TYPE ASSIGNMENTS      6  6  6  6  6  6  6  7  7  7  7  7  7  7  8  8  8  8  8  8
TYPE ASSIGNMENTS      8  9  9  9  9  9  9  9 10 10 10 10 10 10 10  5  6  7  8  9
TYPE ASSIGNMENTS     10  5  6  7  8  9 10  5  6  7  8  9 10 11 12 13 17 14 15 18
TYPE ASSIGNMENTS     19 16 20 11 12 13 17 14 15 18 19 16 20  1  1  1  1  1  1  1
TYPE ASSIGNMENTS      1  1  1  1  1  1  1  1  1  1  1  1  2  2  2  3  3  3  4  4
TYPE ASSIGNMENTS      4  2  3  4  2  3  4  2  3  4  5  6  7  8  9 10  5  6  7  8
TYPE ASSIGNMENTS      9 10  5  6  7  8  9 10 11 12 13 17 14 15 18 19 16 20 11 12
TYPE ASSIGNMENTS     13 17 14 15 18 19 16 20  1  1  1  1  1  1  1  1  1  1  1  1
TYPE ASSIGNMENTS      1  1  1  1  1  1  1  1  1  1  1  1  1  1  1  1  1  1  1  1
TYPE ASSIGNMENTS      1  1  1  1  1  1  1  1  1  1  1  1  1  1  1  1  1  1  1  1
TYPE ASSIGNMENTS      1  1  1  1  1  1  1  1  1  1  1  1  1  1  1  1  1  1  1  1
TYPE ASSIGNMENTS      1  1  1  2  2  2  2  2  2  2  2  2  2  2  3  3  3  3  3  3
TYPE ASSIGNMENTS      3  3  3  3  3  4  4  4  4  4  4  4  4  4  4  4  2  2  2  2
TYPE ASSIGNMENTS      2  2  2  2  2  2  2  3  3  3  3  3  3  3  3  3  3  3  4  4
TYPE ASSIGNMENTS      4  4  4  4  4  4  4  4  4  2  2  2  2  2  2  2  2  2  2  2
TYPE ASSIGNMENTS      3  3  3  3  3  3  3  3  3  3  3  4  4  4  4  4  4  4  4  4
TYPE ASSIGNMENTS      4  4  2  3  4  2  3  4  2  3  4  5  5  5  5  5  5  5  6  6
TYPE ASSIGNMENTS      6  6  6  6  6  7  7  7  7  7  7  7  8  8  8  8  8  8  8  9
TYPE ASSIGNMENTS      9  9  9  9  9  9 10 10 10 10 10 10 10  5  6  7  8  9 10  5
TYPE ASSIGNMENTS      6  7  8  9 10  5  6  7  8  9 10 11 12 13 17 14 15 18 19 16
TYPE ASSIGNMENTS     20 11 12 13 17 14 15 18 19 16 20  1  1  1  1  1  1  1  1  1
TYPE ASSIGNMENTS      1  1  1  1  1  1  1  1  1  1  2  2  2  3  3  3  4  4  4  2
TYPE ASSIGNMENTS      3  4  2  3  4  2  3  4  5  6  7  8  9 10  5  6  7  8  9 10
TYPE ASSIGNMENTS      5  6  7  8  9 10 11 12 13 17 14 15 18 19 16 20 11 12 13 17
TYPE ASSIGNMENTS     14 15 18 19 16 20
EXPONENTS  0.8236000D+04 0.1235000D+04 0.2808000D+03 0.7927000D+02 0.2559000D+02
EXPONENTS  0.8997000D+01 0.3319000D+01 0.3643000D+00 0.8236000D+04 0.1235000D+04
EXPONENTS  0.2808000D+03 0.7927000D+02 0.2559000D+02 0.8997000D+01 0.3319000D+01
EXPONENTS  0.3643000D+00 0.9059000D+00 0.1285000D+00 0.4402000D-01 0.1871000D+02
EXPONENTS  0.4133000D+01 0.1200000D+01 0.1871000D+02 0.4133000D+01 0.1200000D+01
EXPONENTS  0.1871000D+02 0.4133000D+01 0.1200000D+01 0.3827000D+00 0.3827000D+00
EXPONENTS  0.3827000D+00 0.1209000D+00 0.1209000D+00 0.1209000D+00 0.3569000D-01
EXPONENTS  0.3569000D-01 0.3569000D-01 0.1097000D+01 0.1097000D+01 0.1097000D+01
EXPONENTS  0.1097000D+01 0.1097000D+01 0.1097000D+01 0.3180000D+00 0.3180000D+00
EXPONENTS  0.3180000D+00 0.3180000D+00 0.3180000D+00 0.3180000D+00 0.1000000D+00
EXPONENTS  0.1000000D+00 0.1000000D+00 0.1000000D+00 0.1000000D+00 0.1000000D+00
EXPONENTS  0.7610000D+00 0.7610000D+00 0.7610000D+00 0.7610000D+00 0.7610000D+00
EXPONENTS  0.7610000D+00 0.7610000D+00 0.7610000D+00 0.7610000D+00 0.7610000D+00
EXPONENTS  0.2680000D+00 0.2680000D+00 0.2680000D+00 0.2680000D+00 0.2680000D+00
EXPONENTS  0.2680000D+00 0.2680000D+00 0.2680000D+00 0.2680000D+00 0.2680000D+00
EXPONENTS  0.8236000D+04 0.1235000D+04 0.2808000D+03 0.7927000D+02 0.2559000D+02
EXPONENTS  0.8997000D+01 0.3319000D+01 0.3643000D+00 0.8236000D+04 0.1235000D+04
EXPONENTS  0.2808000D+03 0.7927000D+02 0.2559000D+02 0.8997000D+01 0.3319000D+01
EXPONENTS  0.3643000D+00 0.9059000D+00 0.1285000D+00 0.4402000D-01 0.1871000D+02
EXPONENTS  0.4133000D+01 0.1200000D+01 0.1871000D+02 0.4133000D+01 0.1200000D+01
EXPONENTS  0.1871000D+02 0.4133000D+01 0.1200000D+01 0.3827000D+00 0.3827000D+00
EXPONENTS  0.3827000D+00 0.1209000D+00 0.1209000D+00 0.1209000D+00 0.3569000D-01
EXPONENTS  0.3569000D-01 0.3569000D-01 0.1097000D+01 0.1097000D+01 0.1097000D+01
EXPONENTS  0.1097000D+01 0.1097000D+01 0.1097000D+01 0.3180000D+00 0.3180000D+00
EXPONENTS  0.3180000D+00 0.3180000D+00 0.3180000D+00 0.3180000D+00 0.1000000D+00
EXPONENTS  0.1000000D+00 0.1000000D+00 0.1000000D+00 0.1000000D+00 0.1000000D+00
EXPONENTS  0.7610000D+00 0.7610000D+00 0.7610000D+00 0.7610000D+00 0.7610000D+00
EXPONENTS  0.7610000D+00 0.7610000D+00 0.7610000D+00 0.7610000D+00 0.7610000D+00
EXPONENTS  0.2680000D+00 0.2680000D+00 0.2680000D+00 0.2680000D+00 0.2680000D+00
EXPONENTS  0.2680000D+00 0.2680000D+00 0.2680000D+00 0.2680000D+00 0.2680000D+00
EXPONENTS  0.1063900D+08 0.1593400D+07 0.3626100D+06 0.1027000D+06 0.3350100D+05
EXPONENTS  0.1209300D+05 0.4715900D+04 0.1955600D+04 0.8526100D+03 0.3876700D+03
EXPONENTS  0.1826800D+03 0.8824500D+02 0.3926300D+02 0.1923400D+02 0.9405700D+01
EXPONENTS  0.4160100D+01 0.1899500D+01 0.3011400D+00 0.1063900D+08 0.1593400D+07
EXPONENTS  0.3626100D+06 0.1027000D+06 0.3350100D+05 0.1209300D+05 0.4715900D+04
EXPONENTS  0.1955600D+04 0.8526100D+03 0.3876700D+03 0.1826800D+03 0.8824500D+02
EXPONENTS  0.3926300D+02 0.1923400D+02 0.9405700D+01 0.4160100D+01 0.1899500D+01
EXPONENTS  0.3011400D+00 0.1063900D+08 0.1593400D+07 0.3626100D+06 0.1027000D+06
EXPONENTS  0.3350100D+05 0.1209300D+05 0.4715900D+04 0.1955600D+04 0.8526100D+03
EXPONENTS  0.3876700D+03 0.1826800D+03 0.8824500D+02 0.3926300D+02 0.1923400D+02
EXPONENTS  0.9405700D+01 0.4160100D+01 0.1899500D+01 0.3011400D+00 0.1063900D+08
EXPONENTS  0.1593400D+07 0.3626100D+06 0.1027000D+06 0.3350100D+05 0.1209300D+05
EXPONENTS  0.4715900D+04 0.1955600D+04 0.8526100D+03 0.3876700D+03 0.1826800D+03
EXPONENTS  0.8824500D+02 0.3926300D+02 0.1923400D+02 0.9405700D+01 0.4160100D+01
EXPONENTS  0.1899500D+01 0.3011400D+00 0.6047200D+00 0.1251500D+00 0.4559300D-01
EXPONENTS  0.8676500D+04 0.2055900D+04 0.6662300D+03 0.2531000D+03 0.1061200D+03
EXPONENTS  0.4724200D+02 0.2182500D+02 0.9968400D+01 0.4517100D+01 0.1998200D+01
EXPONENTS  0.2814500D+00 0.8676500D+04 0.2055900D+04 0.6662300D+03 0.2531000D+03
EXPONENTS  0.1061200D+03 0.4724200D+02 0.2182500D+02 0.9968400D+01 0.4517100D+01
EXPONENTS  0.1998200D+01 0.2814500D+00 0.8676500D+04 0.2055900D+04 0.6662300D+03
EXPONENTS  0.2531000D+03 0.1061200D+03 0.4724200D+02 0.2182500D+02 0.9968400D+01
EXPONENTS  0.4517100D+01 0.1998200D+01 0.2814500D+00 0.8676500D+04 0.2055900D+04
EXPONENTS  0.6662300D+03 0.2531000D+03 0.1061200D+03 0.4724200D+02 0.2182500D+02
EXPONENTS  0.9968400D+01 0.4517100D+01 0.1998200D+01 0.2814500D+00 0.8676500D+04
EXPONENTS  0.2055900D+04 0.6662300D+03 0.2531000D+03 0.1061200D+03 0.4724200D+02
EXPONENTS  0.2182500D+02 0.9968400D+01 0.4517100D+01 0.1998200D+01 0.2814500D+00
EXPONENTS  0.8676500D+04 0.2055900D+04 0.6662300D+03 0.2531000D+03 0.1061200D+03
EXPONENTS  0.4724200D+02 0.2182500D+02 0.9968400D+01 0.4517100D+01 0.1998200D+01
EXPONENTS  0.2814500D+00 0.8676500D+04 0.2055900D+04 0.6662300D+03 0.2531000D+03
EXPONENTS  0.1061200D+03 0.4724200D+02 0.2182500D+02 0.9968400D+01 0.4517100D+01
EXPONENTS  0.1998200D+01 0.2814500D+00 0.8676500D+04 0.2055900D+04 0.6662300D+03
EXPONENTS  0.2531000D+03 0.1061200D+03 0.4724200D+02 0.2182500D+02 0.9968400D+01
EXPONENTS  0.4517100D+01 0.1998200D+01 0.2814500D+00 0.8676500D+04 0.2055900D+04
EXPONENTS  0.6662300D+03 0.2531000D+03 0.1061200D+03 0.4724200D+02 0.2182500D+02
EXPONENTS  0.9968400D+01 0.4517100D+01 0.1998200D+01 0.2814500D+00 0.7098800D+00
EXPONENTS  0.7098800D+00 0.7098800D+00 0.1020400D+00 0.1020400D+00 0.1020400D+00
EXPONENTS  0.3514200D-01 0.3514200D-01 0.3514200D-01 0.4038300D+03 0.1211700D+03
EXPONENTS  0.4634500D+02 0.1972100D+02 0.8862400D+01 0.3996200D+01 0.1763600D+01
EXPONENTS  0.4038300D+03 0.1211700D+03 0.4634500D+02 0.1972100D+02 0.8862400D+01
EXPONENTS  0.3996200D+01 0.1763600D+01 0.4038300D+03 0.1211700D+03 0.4634500D+02
EXPONENTS  0.1972100D+02 0.8862400D+01 0.3996200D+01 0.1763600D+01 0.4038300D+03
EXPONENTS  0.1211700D+03 0.4634500D+02 0.1972100D+02 0.8862400D+01 0.3996200D+01
EXPONENTS  0.1763600D+01 0.4038300D+03 0.1211700D+03 0.4634500D+02 0.1972100D+02
EXPONENTS  0.8862400D+01 0.3996200D+01 0.1763600D+01 0.4038300D+03 0.1211700D+03
EXPONENTS  0.4634500D+02 0.1972100D+02 0.8862400D+01 0.3996200D+01 0.1763600D+01
EXPONENTS  0.7061900D+00 0.7061900D+00 0.7061900D+00 0.7061900D+00 0.7061900D+00
EXPONENTS  0.7061900D+00 0.2639000D+00 0.2639000D+00 0.2639000D+00 0.2639000D+00
EXPONENTS  0.2639000D+00 0.2639000D+00 0.1047000D+00 0.1047000D+00 0.1047000D+00
EXPONENTS  0.1047000D+00 0.1047000D+00 0.1047000D+00 0.5515000D+00 0.5515000D+00
EXPONENTS  0.5515000D+00 0.5515000D+00 0.5515000D+00 0.5515000D+00 0.5515000D+00
EXPONENTS  0.5515000D+00 0.5515000D+00 0.5515000D+00 0.2580000D+00 0.2580000D+00
EXPONENTS  0.2580000D+00 0.2580000D+00 0.2580000D+00 0.2580000D+00 0.2580000D+00
EXPONENTS  0.2580000D+00 0.2580000D+00 0.2580000D+00 0.1950000D+05 0.2923000D+04
EXPONENTS  0.6645000D+03 0.1875000D+03 0.6062000D+02 0.2142000D+02 0.7950000D+01
EXPONENTS  0.8815000D+00 0.1950000D+05 0.2923000D+04 0.6645000D+03 0.1875000D+03
EXPONENTS  0.6062000D+02 0.2142000D+02 0.7950000D+01 0.8815000D+00 0.2257000D+01
EXPONENTS  0.3041000D+00 0.9158000D-01 0.4388000D+02 0.9926000D+01 0.2930000D+01
EXPONENTS  0.4388000D+02 0.9926000D+01 0.2930000D+01 0.4388000D+02 0.9926000D+01
EXPONENTS  0.2930000D+01 0.9132000D+00 0.9132000D+00 0.9132000D+00 0.2672000D+00
EXPONENTS  0.2672000D+00 0.2672000D+00 0.7361000D-01 0.7361000D-01 0.7361000D-01
EXPONENTS  0.3107000D+01 0.3107000D+01 0.3107000D+01 0.3107000D+01 0.3107000D+01
EXPONENTS  0.3107000D+01 0.8550000D+00 0.8550000D+00 0.8550000D+00 0.8550000D+00
EXPONENTS  0.8550000D+00 0.8550000D+00 0.2920000D+00 0.2920000D+00 0.2920000D+00
EXPONENTS  0.2920000D+00 0.2920000D+00 0.2920000D+00 0.1917000D+01 0.1917000D+01
EXPONENTS  0.1917000D+01 0.1917000D+01 0.1917000D+01 0.1917000D+01 0.1917000D+01
EXPONENTS  0.1917000D+01 0.1917000D+01 0.1917000D+01 0.7240000D+00 0.7240000D+00
EXPONENTS  0.7240000D+00 0.7240000D+00 0.7240000D+00 0.7240000D+00 0.7240000D+00
EXPONENTS  0.7240000D+00 0.7240000D+00 0.7240000D+00 0.1063900D+08 0.1593400D+07
EXPONENTS  0.3626100D+06 0.1027000D+06 0.3350100D+05 0.1209300D+05 0.4715900D+04
EXPONENTS  0.1955600D+04 0.8526100D+03 0.3876700D+03 0.1826800D+03 0.8824500D+02
EXPONENTS  0.3926300D+02 0.1923400D+02 0.9405700D+01 0.4160100D+01 0.1899500D+01
EXPONENTS  0.3011400D+00 0.1063900D+08 0.1593400D+07 0.3626100D+06 0.1027000D+06
EXPONENTS  0.3350100D+05 0.1209300D+05 0.4715900D+04 0.1955600D+04 0.8526100D+03
EXPONENTS  0.3876700D+03 0.1826800D+03 0.8824500D+02 0.3926300D+02 0.1923400D+02
EXPONENTS  0.9405700D+01 0.4160100D+01 0.1899500D+01 0.3011400D+00 0.1063900D+08
EXPONENTS  0.1593400D+07 0.3626100D+06 0.1027000D+06 0.3350100D+05 0.1209300D+05
EXPONENTS  0.4715900D+04 0.1955600D+04 0.8526100D+03 0.3876700D+03 0.1826800D+03
EXPONENTS  0.8824500D+02 0.3926300D+02 0.1923400D+02 0.9405700D+01 0.4160100D+01
EXPONENTS  0.1899500D+01 0.3011400D+00 0.1063900D+08 0.1593400D+07 0.3626100D+06
EXPONENTS  0.1027000D+06 0.3350100D+05 0.1209300D+05 0.4715900D+04 0.1955600D+04
EXPONENTS  0.8526100D+03 0.3876700D+03 0.1826800D+03 0.8824500D+02 0.3926300D+02
EXPONENTS  0.1923400D+02 0.9405700D+01 0.4160100D+01 0.1899500D+01 0.3011400D+00
EXPONENTS  0.6047200D+00 0.1251500D+00 0.4559300D-01 0.8676500D+04 0.2055900D+04
EXPONENTS  0.6662300D+03 0.2531000D+03 0.1061200D+03 0.4724200D+02 0.2182500D+02
EXPONENTS  0.9968400D+01 0.4517100D+01 0.1998200D+01 0.2814500D+00 0.8676500D+04
EXPONENTS  0.2055900D+04 0.6662300D+03 0.2531000D+03 0.1061200D+03 0.4724200D+02
EXPONENTS  0.2182500D+02 0.9968400D+01 0.4517100D+01 0.1998200D+01 0.2814500D+00
EXPONENTS  0.8676500D+04 0.2055900D+04 0.6662300D+03 0.2531000D+03 0.1061200D+03
EXPONENTS  0.4724200D+02 0.2182500D+02 0.9968400D+01 0.4517100D+01 0.1998200D+01
EXPONENTS  0.2814500D+00 0.8676500D+04 0.2055900D+04 0.6662300D+03 0.2531000D+03
EXPONENTS  0.1061200D+03 0.4724200D+02 0.2182500D+02 0.9968400D+01 0.4517100D+01
EXPONENTS  0.1998200D+01 0.2814500D+00 0.8676500D+04 0.2055900D+04 0.6662300D+03
EXPONENTS  0.2531000D+03 0.1061200D+03 0.4724200D+02 0.2182500D+02 0.9968400D+01
EXPONENTS  0.4517100D+01 0.1998200D+01 0.2814500D+00 0.8676500D+04 0.2055900D+04
EXPONENTS  0.6662300D+03 0.2531000D+03 0.1061200D+03 0.4724200D+02 0.2182500D+02
EXPONENTS  0.9968400D+01 0.4517100D+01 0.1998200D+01 0.2814500D+00 0.8676500D+04
EXPONENTS  0.2055900D+04 0.6662300D+03 0.2531000D+03 0.1061200D+03 0.4724200D+02
EXPONENTS  0.2182500D+02 0.9968400D+01 0.4517100D+01 0.1998200D+01 0.2814500D+00
EXPONENTS  0.8676500D+04 0.2055900D+04 0.6662300D+03 0.2531000D+03 0.1061200D+03
EXPONENTS  0.4724200D+02 0.2182500D+02 0.9968400D+01 0.4517100D+01 0.1998200D+01
EXPONENTS  0.2814500D+00 0.8676500D+04 0.2055900D+04 0.6662300D+03 0.2531000D+03
EXPONENTS  0.1061200D+03 0.4724200D+02 0.2182500D+02 0.9968400D+01 0.4517100D+01
EXPONENTS  0.1998200D+01 0.2814500D+00 0.7098800D+00 0.7098800D+00 0.7098800D+00
EXPONENTS  0.1020400D+00 0.1020400D+00 0.1020400D+00 0.3514200D-01 0.3514200D-01
EXPONENTS  0.3514200D-01 0.4038300D+03 0.1211700D+03 0.4634500D+02 0.1972100D+02
EXPONENTS  0.8862400D+01 0.3996200D+01 0.1763600D+01 0.4038300D+03 0.1211700D+03
EXPONENTS  0.4634500D+02 0.1972100D+02 0.8862400D+01 0.3996200D+01 0.1763600D+01
EXPONENTS  0.4038300D+03 0.1211700D+03 0.4634500D+02 0.1972100D+02 0.8862400D+01
EXPONENTS  0.3996200D+01 0.1763600D+01 0.4038300D+03 0.1211700D+03 0.4634500D+02
EXPONENTS  0.1972100D+02 0.8862400D+01 0.3996200D+01 0.1763600D+01 0.4038300D+03
EXPONENTS  0.1211700D+03 0.4634500D+02 0.1972100D+02 0.8862400D+01 0.3996200D+01
EXPONENTS  0.1763600D+01 0.4038300D+03 0.1211700D+03 0.4634500D+02 0.1972100D+02
EXPONENTS  0.8862400D+01 0.3996200D+01 0.1763600D+01 0.7061900D+00 0.7061900D+00
EXPONENTS  0.7061900D+00 0.7061900D+00 0.7061900D+00 0.7061900D+00 0.2639000D+00
EXPONENTS  0.2639000D+00 0.2639000D+00 0.2639000D+00 0.2639000D+00 0.2639000D+00
EXPONENTS  0.1047000D+00 0.1047000D+00 0.1047000D+00 0.1047000D+00 0.1047000D+00
EXPONENTS  0.1047000D+00 0.5515000D+00 0.5515000D+00 0.5515000D+00 0.5515000D+00
EXPONENTS  0.5515000D+00 0.5515000D+00 0.5515000D+00 0.5515000D+00 0.5515000D+00
EXPONENTS  0.5515000D+00 0.2580000D+00 0.2580000D+00 0.2580000D+00 0.2580000D+00
EXPONENTS  0.2580000D+00 0.2580000D+00 0.2580000D+00 0.2580000D+00 0.2580000D+00
EXPONENTS  0.2580000D+00 0.1950000D+05 0.2923000D+04 0.6645000D+03 0.1875000D+03
EXPONENTS  0.6062000D+02 0.2142000D+02 0.7950000D+01 0.8815000D+00 0.1950000D+05
EXPONENTS  0.2923000D+04 0.6645000D+03 0.1875000D+03 0.6062000D+02 0.2142000D+02
EXPONENTS  0.7950000D+01 0.8815000D+00 0.2257000D+01 0.3041000D+00 0.9158000D-01
EXPONENTS  0.4388000D+02 0.9926000D+01 0.2930000D+01 0.4388000D+02 0.9926000D+01
EXPONENTS  0.2930000D+01 0.4388000D+02 0.9926000D+01 0.2930000D+01 0.9132000D+00
EXPONENTS  0.9132000D+00 0.9132000D+00 0.2672000D+00 0.2672000D+00 0.2672000D+00
EXPONENTS  0.7361000D-01 0.7361000D-01 0.7361000D-01 0.3107000D+01 0.3107000D+01
EXPONENTS  0.3107000D+01 0.3107000D+01 0.3107000D+01 0.3107000D+01 0.8550000D+00
EXPONENTS  0.8550000D+00 0.8550000D+00 0.8550000D+00 0.8550000D+00 0.8550000D+00
EXPONENTS  0.2920000D+00 0.2920000D+00 0.2920000D+00 0.2920000D+00 0.2920000D+00
EXPONENTS  0.2920000D+00 0.1917000D+01 0.1917000D+01 0.1917000D+01 0.1917000D+01
EXPONENTS  0.1917000D+01 0.1917000D+01 0.1917000D+01 0.1917000D+01 0.1917000D+01
EXPONENTS  0.1917000D+01 0.7240000D+00 0.7240000D+00 0.7240000D+00 0.7240000D+00
EXPONENTS  0.7240000D+00 0.7240000D+00 0.7240000D+00 0.7240000D+00 0.7240000D+00
EXPONENTS  0.7240000D+00
MO    1     MO 0.0        OCC NO =    2.0000000  ORB. ENERGY = -485.418656
 -0.77989949D-05 -0.14539100D-04 -0.24573640D-04 -0.36942230D-04 -0.45387798D-04
 -0.38337251D-04 -0.14459401D-04  0.71560380D-07  0.57220474D-05  0.10713478D-04
  0.18240613D-04  0.28215455D-04  0.37158762D-04  0.38610334D-04  0.24535134D-04
 -0.16442876D-04 -0.13284610D-04  0.21626524D-05 -0.46341903D-05  0.59194039D-05
  0.55498174D-05  0.39518006D-05 -0.21994887D-05 -0.20621605D-05 -0.14683811D-05
 -0.37709685D-05 -0.35355227D-05 -0.25175028D-05 -0.51265857D-04  0.94782666D-05
  0.16152353D-04  0.36635368D-05 -0.53726806D-04 -0.91164517D-04 -0.18798577D-05
 -0.81735123D-06 -0.13805044D-05  0.15839476D-05 -0.32308150D-06 -0.12608661D-05
 -0.12426630D-04 -0.21109340D-04 -0.17061712D-05 -0.18888993D-04  0.33151292D-05
  0.15573864D-04  0.34865899D-04  0.59213411D-04  0.22166294D-04  0.82699605D-05
 -0.18508878D-05 -0.64190727D-05 -0.26201193D-04 -0.44453206D-04 -0.83406958D-05
  0.66559253D-06 -0.37780400D-05 -0.16652001D-05  0.71810157D-06  0.37426986D-05
  0.63677226D-05 -0.27148792D-05  0.75914214D-05 -0.13721225D-05 -0.63568053D-05
 -0.50301918D-05  0.27567297D-05 -0.52937467D-05  0.25690201D-05  0.12844153D-04
  0.21808444D-04  0.12521555D-04 -0.21114342D-04 -0.59272038D-05  0.18070300D-04
  0.31934892D-05  0.59533900D-05  0.10062278D-04  0.15126900D-04  0.18585144D-04
  0.15698125D-04  0.59207552D-05 -0.29302148D-07 -0.15396048D-05 -0.28826259D-05
 -0.49079173D-05 -0.75918017D-05 -0.99981358D-05 -0.10388704D-04 -0.66015547D-05
  0.44242085D-05 -0.14875272D-04 -0.44442559D-04  0.69835490D-05 -0.46876368D-05
 -0.43949575D-05 -0.31294715D-05 -0.47147832D-05 -0.44204089D-05 -0.31475945D-05
 -0.79848163D-05 -0.74862728D-05 -0.53306722D-05 -0.44461271D-04 -0.22915354D-04
 -0.38914312D-04 -0.94663126D-05  0.46421962D-04  0.78770626D-04 -0.10392085D-05
  0.98930951D-06  0.16743971D-05 -0.60301280D-05  0.87595440D-05 -0.27294159D-05
 -0.22087976D-04 -0.37468468D-04 -0.20731610D-04  0.15261884D-04 -0.10165979D-04
 -0.50959048D-05  0.50242343D-04  0.85283528D-04  0.91535466D-05 -0.36825109D-05
  0.36573105D-07  0.36459378D-05 -0.23237561D-04 -0.39421691D-04  0.65830131D-05
 -0.14374579D-05  0.22590691D-05  0.35388915D-05  0.64461701D-06 -0.83240578D-05
 -0.14153767D-04  0.36677566D-05  0.15468505D-05  0.35370922D-05  0.54601003D-05
 -0.74246832D-05 -0.48671515D-05  0.45915368D-06  0.32339931D-05 -0.13997927D-05
 -0.23861447D-05  0.19040056D-04  0.16001247D-04  0.10086837D-05  0.28593338D-04
 -0.36947556D-01 -0.69502853D-01 -0.12031287D+00 -0.19721581D+00 -0.30894238D+00
 -0.46436671D+00 -0.66369667D+00 -0.88107383D+00 -0.10261301D+01 -0.94249061D+00
 -0.55111133D+00 -0.14461437D+00 -0.79060112D-02  0.28297155D-03 -0.79081619D-04
  0.23482001D-04 -0.40032747D-05 -0.32661215D-06 -0.16985092D-04 -0.31206877D-04
 -0.53963883D-04 -0.88373400D-04 -0.13913995D-03 -0.21011495D-03 -0.30670367D-03
 -0.42234958D-03 -0.53964969D-03 -0.58828139D-03 -0.48424617D-03 -0.13277701D-03
  0.26781984D-03  0.26100213D-03  0.57114620D-04  0.19241390D-05  0.65183680D-07
 -0.16581887D-09  0.24506232D-04  0.48042031D-04  0.84144426D-04  0.13746461D-03
  0.21681480D-03  0.32716386D-03  0.47968722D-03  0.66228755D-03  0.85865910D-03
  0.95487945D-03  0.82937158D-03  0.24091761D-03 -0.60735037D-03 -0.88495229D-03
 -0.15234770D-03  0.37166316D-03  0.17690229D-03 -0.85431520D-06 -0.10885354D-04
 -0.23585933D-04 -0.40151311D-04 -0.65537751D-04 -0.10331383D-03 -0.15593042D-03
 -0.22861940D-03 -0.31605009D-03 -0.41020131D-03 -0.45826660D-03 -0.40030625D-03
 -0.11857110D-03  0.30821675D-03  0.47414154D-03  0.82989248D-04 -0.26178500D-03
 -0.22221587D-03  0.82906755D-04 -0.39265282D-04 -0.79608282D-04 -0.21690501D-04
  0.45977360D-03  0.65969371D-03  0.87346954D-03  0.10086098D-02  0.93502772D-03
  0.60535399D-03  0.21366773D-03  0.25043700D-04  0.36408905D-06  0.53316788D-07
  0.54817939D-09 -0.45578634D-04 -0.65397270D-04 -0.86589462D-04 -0.99986295D-04
 -0.92691895D-04 -0.60010423D-04 -0.21181475D-04 -0.24826516D-05 -0.36093159D-07
 -0.52854413D-08 -0.54342545D-10 -0.78129167D-04 -0.11210152D-03 -0.14842837D-03
 -0.17139272D-03 -0.15888893D-03 -0.10286759D-03 -0.36308482D-04 -0.42556672D-05
 -0.61869525D-07 -0.90601032D-08 -0.93151931D-10 -0.19193555D-02 -0.27706117D-02
 -0.37014710D-02 -0.43974612D-02 -0.42614769D-02 -0.29622701D-02 -0.96389427D-03
  0.43382891D-03  0.46867997D-03  0.12066022D-03 -0.11769291D-06  0.22484408D-03
  0.32456501D-03  0.43361109D-03  0.51514328D-03  0.49921332D-03  0.34701694D-03
  0.11291598D-03 -0.50821153D-04 -0.54903801D-04 -0.14134816D-04  0.13787207D-07
  0.38480015D-03  0.55546343D-03  0.74208587D-03  0.88162078D-03  0.85435811D-03
  0.59388787D-03  0.19324542D-03 -0.86975773D-04 -0.93962853D-04 -0.24190449D-04
  0.23595549D-07  0.14130257D-02  0.20531891D-02  0.27297387D-02  0.32754974D-02
  0.31690583D-02  0.22496624D-02  0.69920072D-03 -0.40143695D-03 -0.46116194D-03
 -0.12246561D-03  0.44185972D-04 -0.18406699D-03 -0.26745750D-03 -0.35558785D-03
 -0.42668080D-03 -0.41281556D-03 -0.29305098D-03 -0.91080982D-04  0.52292954D-04
  0.60072996D-04  0.15952912D-04 -0.57558604D-05 -0.31472266D-03 -0.45730598D-03
 -0.60799360D-03 -0.72955024D-03 -0.70584308D-03 -0.50106640D-03 -0.15573270D-03
  0.89411891D-04  0.10271441D-03  0.27276715D-04 -0.98415239D-05 -0.19478287D-04
 -0.36496430D-05 -0.61507462D-05  0.57744918D-05  0.15784296D-04  0.26747631D-04
 -0.73528784D-06  0.63273836D-06  0.10728072D-05  0.16369428D-04  0.17128842D-04
  0.14594690D-04  0.96117070D-05  0.44297496D-05  0.13264957D-05  0.22569200D-06
  0.24837509D-04  0.25989777D-04  0.22144681D-04  0.14583946D-04  0.67213067D-05
  0.20127062D-05  0.34244489D-06 -0.41206936D-04 -0.43118619D-04 -0.36739371D-04
 -0.24195653D-04 -0.11151056D-04 -0.33392018D-05 -0.56813688D-06  0.56646138D-04
  0.59274080D-04  0.50504688D-04  0.33261156D-04  0.15329076D-04  0.45903167D-05
  0.78100347D-06  0.95776444D-04  0.10021973D-03  0.85392573D-04  0.56237465D-04
  0.25918173D-04  0.77612389D-05  0.13205090D-05 -0.11901653D-03 -0.12453798D-03
 -0.10611302D-03 -0.69883449D-04 -0.32207201D-04 -0.96444984D-05 -0.16409296D-05
 -0.29284438D-05 -0.14620640D-05  0.43905078D-05 -0.46107146D-05 -0.77951766D-05
  0.10557868D-04  0.12000580D-04 -0.46086269D-05 -0.73919529D-05 -0.72631833D-05
 -0.12392886D-04 -0.50697674D-05  0.29720462D-05 -0.67523610D-06 -0.22968101D-05
  0.30462270D-06  0.49688253D-06 -0.29305553D-05  0.10806519D-05 -0.96071681D-06
  0.25526120D-06 -0.29187118D-05 -0.69888661D-06 -0.11593078D-05 -0.32324393D-06
  0.35810371D-05  0.39352415D-06  0.46988902D-05  0.44831742D-06  0.70893280D-06
  0.11741642D-05 -0.36429245D-06 -0.27524680D-05 -0.46935407D-05 -0.98065982D-06
  0.62566963D-06  0.11710481D-05 -0.11551257D-05  0.28566053D-05  0.53248360D-05
  0.90269062D-05  0.13669396D-04  0.17093628D-04  0.14716022D-04  0.56573759D-05
 -0.24514336D-07 -0.19970513D-05 -0.37501087D-05 -0.63857883D-05 -0.10003300D-04
 -0.13405598D-04 -0.14419529D-04 -0.86574660D-05  0.56935139D-05  0.15812210D-05
 -0.40836167D-04  0.10265912D-03  0.10421322D-04  0.10191825D-04  0.67341699D-05
  0.60187132D-05  0.58861700D-05  0.38892414D-05  0.10126543D-04  0.99035383D-05
  0.65436865D-05 -0.11095733D-04 -0.62786186D-05 -0.10591160D-04 -0.49438897D-04
 -0.53757325D-05 -0.89017323D-05  0.16385949D-05  0.41465224D-05  0.70094662D-05
  0.38761472D-05  0.45177492D-05 -0.83938965D-05  0.10217167D-04  0.17393338D-04
 -0.23241591D-04 -0.29021979D-05 -0.36626218D-06  0.32684600D-05 -0.77032011D-05
 -0.13078789D-04  0.65109928D-05 -0.66434494D-05  0.51525752D-05  0.14908742D-05
 -0.50394182D-05 -0.83764164D-05 -0.67058223D-05 -0.37005019D-05 -0.10290320D-04
 -0.15870492D-05  0.10541702D-04  0.31995866D-05  0.52302289D-05  0.55980402D-06
  0.27671374D-04 -0.46908139D-06 -0.17390338D-04  0.66833313D-06  0.29005979D-05
  0.47044843D-06 -0.25124931D-05 -0.97328939D-06 -0.15768187D-05  0.50749367D-06
 -0.77285043D-05  0.16547343D-06  0.52563516D-05  0.78239976D+00  0.14717892D+01
  0.25477397D+01  0.41762329D+01  0.65421497D+01  0.98334081D+01  0.14054410D+02
  0.18657579D+02  0.21729285D+02  0.19958138D+02  0.11670308D+02  0.30623473D+01
  0.16741733D+00 -0.59921926D-02  0.16746287D-02 -0.49725378D-03  0.84773161D-04
  0.69163239D-05  0.59475349D-04  0.10927465D-03  0.18896105D-03  0.30945012D-03
  0.48721531D-03  0.73574286D-03  0.10739599D-02  0.14789080D-02  0.18896485D-02
  0.20599383D-02  0.16956464D-02  0.46493472D-03 -0.93780349D-03 -0.91393046D-03
 -0.19999373D-03 -0.67376047D-05 -0.22824852D-06  0.58063479D-09 -0.13220637D-03
 -0.25917745D-03 -0.45394288D-03 -0.74159496D-03 -0.11696739D-02 -0.17649856D-02
 -0.25878196D-02 -0.35729131D-02 -0.46322995D-02 -0.51513897D-02 -0.44742991D-02
 -0.12997039D-02  0.32765376D-02  0.47741462D-02  0.82188634D-03 -0.20050508D-02
 -0.95435361D-03  0.46088650D-05  0.48168288D-04  0.10436905D-03  0.17767175D-03
  0.29000815D-03  0.45716939D-03  0.69000065D-03  0.10116534D-02  0.13985390D-02
  0.18151633D-02  0.20278549D-02  0.17713771D-02  0.52468363D-03 -0.13638760D-02
 -0.20981024D-02 -0.36723198D-03  0.11584130D-02  0.98331743D-03 -0.36686695D-03
  0.31286887D-03  0.16806932D-03  0.25233408D-04  0.48962411D-03  0.70252391D-03