 Molden2AIM, Version 4.0.0 (06/02/2016)           Time: Thu Jun 28 05:07:40 2018
GAUSSIAN             24 MOL ORBITALS    450 PRIMITIVES        6 NUCLEI
  C    1    (CENTRE  1)  -1.25215899  0.00000000  0.00000000  CHARGE =  6.0
  C    2    (CENTRE  2)   1.25215899  0.00000000  0.00000000  CHARGE =  6.0
  F    3    (CENTRE  3)  -2.62334426 -2.07943195  0.00000000  CHARGE =  9.0
  F    4    (CENTRE  4)   2.62334426 -2.07943195  0.00000000  CHARGE =  9.0
  F    5    (CENTRE  5)  -2.62334426  2.07943195  0.00000000  CHARGE =  9.0
  F    6    (CENTRE  6)   2.62334426  2.07943195  0.00000000  CHARGE =  9.0
CENTRE ASSIGNMENTS    1  1  1  1  1  1  1  1  1  1  1  1  1  1  1  1  1  1  1  1
CENTRE ASSIGNMENTS    1  1  1  1  1  1  1  1  1  1  1  1  1  1  1  1  1  1  1  1
CENTRE ASSIGNMENTS    1  1  1  1  1  1  1  1  1  1  1  1  1  1  1  1  1  1  1  1
CENTRE ASSIGNMENTS    1  1  1  1  1  1  1  1  1  1  1  1  1  1  1  2  2  2  2  2
CENTRE ASSIGNMENTS    2  2  2  2  2  2  2  2  2  2  2  2  2  2  2  2  2  2  2  2
CENTRE ASSIGNMENTS    2  2  2  2  2  2  2  2  2  2  2  2  2  2  2  2  2  2  2  2
CENTRE ASSIGNMENTS    2  2  2  2  2  2  2  2  2  2  2  2  2  2  2  2  2  2  2  2
CENTRE ASSIGNMENTS    2  2  2  2  2  2  2  2  2  2  3  3  3  3  3  3  3  3  3  3
CENTRE ASSIGNMENTS    3  3  3  3  3  3  3  3  3  3  3  3  3  3  3  3  3  3  3  3
CENTRE ASSIGNMENTS    3  3  3  3  3  3  3  3  3  3  3  3  3  3  3  3  3  3  3  3
CENTRE ASSIGNMENTS    3  3  3  3  3  3  3  3  3  3  3  3  3  3  3  3  3  3  3  3
CENTRE ASSIGNMENTS    3  3  3  3  3  4  4  4  4  4  4  4  4  4  4  4  4  4  4  4
CENTRE ASSIGNMENTS    4  4  4  4  4  4  4  4  4  4  4  4  4  4  4  4  4  4  4  4
CENTRE ASSIGNMENTS    4  4  4  4  4  4  4  4  4  4  4  4  4  4  4  4  4  4  4  4
CENTRE ASSIGNMENTS    4  4  4  4  4  4  4  4  4  4  4  4  4  4  4  4  4  4  4  4
CENTRE ASSIGNMENTS    5  5  5  5  5  5  5  5  5  5  5  5  5  5  5  5  5  5  5  5
CENTRE ASSIGNMENTS    5  5  5  5  5  5  5  5  5  5  5  5  5  5  5  5  5  5  5  5
CENTRE ASSIGNMENTS    5  5  5  5  5  5  5  5  5  5  5  5  5  5  5  5  5  5  5  5
CENTRE ASSIGNMENTS    5  5  5  5  5  5  5  5  5  5  5  5  5  5  5  6  6  6  6  6
CENTRE ASSIGNMENTS    6  6  6  6  6  6  6  6  6  6  6  6  6  6  6  6  6  6  6  6
CENTRE ASSIGNMENTS    6  6  6  6  6  6  6  6  6  6  6  6  6  6  6  6  6  6  6  6
CENTRE ASSIGNMENTS    6  6  6  6  6  6  6  6  6  6  6  6  6  6  6  6  6  6  6  6
CENTRE ASSIGNMENTS    6  6  6  6  6  6  6  6  6  6
TYPE ASSIGNMENTS      1  1  1  1  1  1  1  1  1  1  1  1  1  1  1  1  1  1  1  2
TYPE ASSIGNMENTS      2  2  3  3  3  4  4  4  2  3  4  2  3  4  2  3  4  5  6  7
TYPE ASSIGNMENTS      8  9 10  5  6  7  8  9 10  5  6  7  8  9 10 11 12 13 17 14
TYPE ASSIGNMENTS     15 18 19 16 20 11 12 13 17 14 15 18 19 16 20  1  1  1  1  1
TYPE ASSIGNMENTS      1  1  1  1  1  1  1  1  1  1  1  1  1  1  2  2  2  3  3  3
TYPE ASSIGNMENTS      4  4  4  2  3  4  2  3  4  2  3  4  5  6  7  8  9 10  5  6
TYPE ASSIGNMENTS      7  8  9 10  5  6  7  8  9 10 11 12 13 17 14 15 18 19 16 20
TYPE ASSIGNMENTS     11 12 13 17 14 15 18 19 16 20  1  1  1  1  1  1  1  1  1  1
TYPE ASSIGNMENTS      1  1  1  1  1  1  1  1  1  2  2  2  3  3  3  4  4  4  2  3
TYPE ASSIGNMENTS      4  2  3  4  2  3  4  5  6  7  8  9 10  5  6  7  8  9 10  5
TYPE ASSIGNMENTS      6  7  8  9 10 11 12 13 17 14 15 18 19 16 20 11 12 13 17 14
TYPE ASSIGNMENTS     15 18 19 16 20  1  1  1  1  1  1  1  1  1  1  1  1  1  1  1
TYPE ASSIGNMENTS      1  1  1  1  2  2  2  3  3  3  4  4  4  2  3  4  2  3  4  2
TYPE ASSIGNMENTS      3  4  5  6  7  8  9 10  5  6  7  8  9 10  5  6  7  8  9 10
TYPE ASSIGNMENTS     11 12 13 17 14 15 18 19 16 20 11 12 13 17 14 15 18 19 16 20
TYPE ASSIGNMENTS      1  1  1  1  1  1  1  1  1  1  1  1  1  1  1  1  1  1  1  2
TYPE ASSIGNMENTS      2  2  3  3  3  4  4  4  2  3  4  2  3  4  2  3  4  5  6  7
TYPE ASSIGNMENTS      8  9 10  5  6  7  8  9 10  5  6  7  8  9 10 11 12 13 17 14
TYPE ASSIGNMENTS     15 18 19 16 20 11 12 13 17 14 15 18 19 16 20  1  1  1  1  1
TYPE ASSIGNMENTS      1  1  1  1  1  1  1  1  1  1  1  1  1  1  2  2  2  3  3  3
TYPE ASSIGNMENTS      4  4  4  2  3  4  2  3  4  2  3  4  5  6  7  8  9 10  5  6
TYPE ASSIGNMENTS      7  8  9 10  5  6  7  8  9 10 11 12 13 17 14 15 18 19 16 20
TYPE ASSIGNMENTS     11 12 13 17 14 15 18 19 16 20
EXPONENTS  0.8236000D+04 0.1235000D+04 0.2808000D+03 0.7927000D+02 0.2559000D+02
EXPONENTS  0.8997000D+01 0.3319000D+01 0.3643000D+00 0.8236000D+04 0.1235000D+04
EXPONENTS  0.2808000D+03 0.7927000D+02 0.2559000D+02 0.8997000D+01 0.3319000D+01
EXPONENTS  0.3643000D+00 0.9059000D+00 0.1285000D+00 0.4402000D-01 0.1871000D+02
EXPONENTS  0.4133000D+01 0.1200000D+01 0.1871000D+02 0.4133000D+01 0.1200000D+01
EXPONENTS  0.1871000D+02 0.4133000D+01 0.1200000D+01 0.3827000D+00 0.3827000D+00
EXPONENTS  0.3827000D+00 0.1209000D+00 0.1209000D+00 0.1209000D+00 0.3569000D-01
EXPONENTS  0.3569000D-01 0.3569000D-01 0.1097000D+01 0.1097000D+01 0.1097000D+01
EXPONENTS  0.1097000D+01 0.1097000D+01 0.1097000D+01 0.3180000D+00 0.3180000D+00
EXPONENTS  0.3180000D+00 0.3180000D+00 0.3180000D+00 0.3180000D+00 0.1000000D+00
EXPONENTS  0.1000000D+00 0.1000000D+00 0.1000000D+00 0.1000000D+00 0.1000000D+00
EXPONENTS  0.7610000D+00 0.7610000D+00 0.7610000D+00 0.7610000D+00 0.7610000D+00
EXPONENTS  0.7610000D+00 0.7610000D+00 0.7610000D+00 0.7610000D+00 0.7610000D+00
EXPONENTS  0.2680000D+00 0.2680000D+00 0.2680000D+00 0.2680000D+00 0.2680000D+00
EXPONENTS  0.2680000D+00 0.2680000D+00 0.2680000D+00 0.2680000D+00 0.2680000D+00
EXPONENTS  0.8236000D+04 0.1235000D+04 0.2808000D+03 0.7927000D+02 0.2559000D+02
EXPONENTS  0.8997000D+01 0.3319000D+01 0.3643000D+00 0.8236000D+04 0.1235000D+04
EXPONENTS  0.2808000D+03 0.7927000D+02 0.2559000D+02 0.8997000D+01 0.3319000D+01
EXPONENTS  0.3643000D+00 0.9059000D+00 0.1285000D+00 0.4402000D-01 0.1871000D+02
EXPONENTS  0.4133000D+01 0.1200000D+01 0.1871000D+02 0.4133000D+01 0.1200000D+01
EXPONENTS  0.1871000D+02 0.4133000D+01 0.1200000D+01 0.3827000D+00 0.3827000D+00
EXPONENTS  0.3827000D+00 0.1209000D+00 0.1209000D+00 0.1209000D+00 0.3569000D-01
EXPONENTS  0.3569000D-01 0.3569000D-01 0.1097000D+01 0.1097000D+01 0.1097000D+01
EXPONENTS  0.1097000D+01 0.1097000D+01 0.1097000D+01 0.3180000D+00 0.3180000D+00
EXPONENTS  0.3180000D+00 0.3180000D+00 0.3180000D+00 0.3180000D+00 0.1000000D+00
EXPONENTS  0.1000000D+00 0.1000000D+00 0.1000000D+00 0.1000000D+00 0.1000000D+00
EXPONENTS  0.7610000D+00 0.7610000D+00 0.7610000D+00 0.7610000D+00 0.7610000D+00
EXPONENTS  0.7610000D+00 0.7610000D+00 0.7610000D+00 0.7610000D+00 0.7610000D+00
EXPONENTS  0.2680000D+00 0.2680000D+00 0.2680000D+00 0.2680000D+00 0.2680000D+00
EXPONENTS  0.2680000D+00 0.2680000D+00 0.2680000D+00 0.2680000D+00 0.2680000D+00
EXPONENTS  0.1950000D+05 0.2923000D+04 0.6645000D+03 0.1875000D+03 0.6062000D+02
EXPONENTS  0.2142000D+02 0.7950000D+01 0.8815000D+00 0.1950000D+05 0.2923000D+04
EXPONENTS  0.6645000D+03 0.1875000D+03 0.6062000D+02 0.2142000D+02 0.7950000D+01
EXPONENTS  0.8815000D+00 0.2257000D+01 0.3041000D+00 0.9158000D-01 0.4388000D+02
EXPONENTS  0.9926000D+01 0.2930000D+01 0.4388000D+02 0.9926000D+01 0.2930000D+01
EXPONENTS  0.4388000D+02 0.9926000D+01 0.2930000D+01 0.9132000D+00 0.9132000D+00
EXPONENTS  0.9132000D+00 0.2672000D+00 0.2672000D+00 0.2672000D+00 0.7361000D-01
EXPONENTS  0.7361000D-01 0.7361000D-01 0.3107000D+01 0.3107000D+01 0.3107000D+01
EXPONENTS  0.3107000D+01 0.3107000D+01 0.3107000D+01 0.8550000D+00 0.8550000D+00
EXPONENTS  0.8550000D+00 0.8550000D+00 0.8550000D+00 0.8550000D+00 0.2920000D+00
EXPONENTS  0.2920000D+00 0.2920000D+00 0.2920000D+00 0.2920000D+00 0.2920000D+00
EXPONENTS  0.1917000D+01 0.1917000D+01 0.1917000D+01 0.1917000D+01 0.1917000D+01
EXPONENTS  0.1917000D+01 0.1917000D+01 0.1917000D+01 0.1917000D+01 0.1917000D+01
EXPONENTS  0.7240000D+00 0.7240000D+00 0.7240000D+00 0.7240000D+00 0.7240000D+00
EXPONENTS  0.7240000D+00 0.7240000D+00 0.7240000D+00 0.7240000D+00 0.7240000D+00
EXPONENTS  0.1950000D+05 0.2923000D+04 0.6645000D+03 0.1875000D+03 0.6062000D+02
EXPONENTS  0.2142000D+02 0.7950000D+01 0.8815000D+00 0.1950000D+05 0.2923000D+04
EXPONENTS  0.6645000D+03 0.1875000D+03 0.6062000D+02 0.2142000D+02 0.7950000D+01
EXPONENTS  0.8815000D+00 0.2257000D+01 0.3041000D+00 0.9158000D-01 0.4388000D+02
EXPONENTS  0.9926000D+01 0.2930000D+01 0.4388000D+02 0.9926000D+01 0.2930000D+01
EXPONENTS  0.4388000D+02 0.9926000D+01 0.2930000D+01 0.9132000D+00 0.9132000D+00
EXPONENTS  0.9132000D+00 0.2672000D+00 0.2672000D+00 0.2672000D+00 0.7361000D-01
EXPONENTS  0.7361000D-01 0.7361000D-01 0.3107000D+01 0.3107000D+01 0.3107000D+01
EXPONENTS  0.3107000D+01 0.3107000D+01 0.3107000D+01 0.8550000D+00 0.8550000D+00
EXPONENTS  0.8550000D+00 0.8550000D+00 0.8550000D+00 0.8550000D+00 0.2920000D+00
EXPONENTS  0.2920000D+00 0.2920000D+00 0.2920000D+00 0.2920000D+00 0.2920000D+00
EXPONENTS  0.1917000D+01 0.1917000D+01 0.1917000D+01 0.1917000D+01 0.1917000D+01
EXPONENTS  0.1917000D+01 0.1917000D+01 0.1917000D+01 0.1917000D+01 0.1917000D+01
EXPONENTS  0.7240000D+00 0.7240000D+00 0.7240000D+00 0.7240000D+00 0.7240000D+00
EXPONENTS  0.7240000D+00 0.7240000D+00 0.7240000D+00 0.7240000D+00 0.7240000D+00
EXPONENTS  0.1950000D+05 0.2923000D+04 0.6645000D+03 0.1875000D+03 0.6062000D+02
EXPONENTS  0.2142000D+02 0.7950000D+01 0.8815000D+00 0.1950000D+05 0.2923000D+04
EXPONENTS  0.6645000D+03 0.1875000D+03 0.6062000D+02 0.2142000D+02 0.7950000D+01
EXPONENTS  0.8815000D+00 0.2257000D+01 0.3041000D+00 0.9158000D-01 0.4388000D+02
EXPONENTS  0.9926000D+01 0.2930000D+01 0.4388000D+02 0.9926000D+01 0.2930000D+01
EXPONENTS  0.4388000D+02 0.9926000D+01 0.2930000D+01 0.9132000D+00 0.9132000D+00
EXPONENTS  0.9132000D+00 0.2672000D+00 0.2672000D+00 0.2672000D+00 0.7361000D-01
EXPONENTS  0.7361000D-01 0.7361000D-01 0.3107000D+01 0.3107000D+01 0.3107000D+01
EXPONENTS  0.3107000D+01 0.3107000D+01 0.3107000D+01 0.8550000D+00 0.8550000D+00
EXPONENTS  0.8550000D+00 0.8550000D+00 0.8550000D+00 0.8550000D+00 0.2920000D+00
EXPONENTS  0.2920000D+00 0.2920000D+00 0.2920000D+00 0.2920000D+00 0.2920000D+00
EXPONENTS  0.1917000D+01 0.1917000D+01 0.1917000D+01 0.1917000D+01 0.1917000D+01
EXPONENTS  0.1917000D+01 0.1917000D+01 0.1917000D+01 0.1917000D+01 0.1917000D+01
EXPONENTS  0.7240000D+00 0.7240000D+00 0.7240000D+00 0.7240000D+00 0.7240000D+00
EXPONENTS  0.7240000D+00 0.7240000D+00 0.7240000D+00 0.7240000D+00 0.7240000D+00
EXPONENTS  0.1950000D+05 0.2923000D+04 0.6645000D+03 0.1875000D+03 0.6062000D+02
EXPONENTS  0.2142000D+02 0.7950000D+01 0.8815000D+00 0.1950000D+05 0.2923000D+04
EXPONENTS  0.6645000D+03 0.1875000D+03 0.6062000D+02 0.2142000D+02 0.7950000D+01
EXPONENTS  0.8815000D+00 0.2257000D+01 0.3041000D+00 0.9158000D-01 0.4388000D+02
EXPONENTS  0.9926000D+01 0.2930000D+01 0.4388000D+02 0.9926000D+01 0.2930000D+01
EXPONENTS  0.4388000D+02 0.9926000D+01 0.2930000D+01 0.9132000D+00 0.9132000D+00
EXPONENTS  0.9132000D+00 0.2672000D+00 0.2672000D+00 0.2672000D+00 0.7361000D-01
EXPONENTS  0.7361000D-01 0.7361000D-01 0.3107000D+01 0.3107000D+01 0.3107000D+01
EXPONENTS  0.3107000D+01 0.3107000D+01 0.3107000D+01 0.8550000D+00 0.8550000D+00
EXPONENTS  0.8550000D+00 0.8550000D+00 0.8550000D+00 0.8550000D+00 0.2920000D+00
EXPONENTS  0.2920000D+00 0.2920000D+00 0.2920000D+00 0.2920000D+00 0.2920000D+00
EXPONENTS  0.1917000D+01 0.1917000D+01 0.1917000D+01 0.1917000D+01 0.1917000D+01
EXPONENTS  0.1917000D+01 0.1917000D+01 0.1917000D+01 0.1917000D+01 0.1917000D+01
EXPONENTS  0.7240000D+00 0.7240000D+00 0.7240000D+00 0.7240000D+00 0.7240000D+00
EXPONENTS  0.7240000D+00 0.7240000D+00 0.7240000D+00 0.7240000D+00 0.7240000D+00
MO    1     MO 0.0        OCC NO =    2.0000000  ORB. ENERGY =  -25.314121
  0.72328601D-12  0.13483696D-11  0.22789821D-11  0.34260566D-11  0.42093064D-11
  0.35554322D-11  0.13409782D-11 -0.66365760D-14 -0.54041469D-12 -0.10118268D-11
 -0.17227217D-11 -0.26647886D-11 -0.35094328D-11 -0.36465255D-11 -0.23172032D-11
  0.15529357D-11 -0.15390462D-11  0.21296536D-10 -0.25481694D-12  0.23836440D-11
  0.22348178D-11  0.15913234D-11 -0.35752054D-03 -0.33519823D-03 -0.23868111D-03
 -0.14850040D-15 -0.13922856D-15 -0.99139030D-16 -0.13074766D-10  0.16830049D-02
  0.26820430D-16  0.92058779D-11  0.38594947D-04 -0.51115876D-17 -0.19631196D-13
  0.10579129D-04  0.10242045D-17 -0.52659581D-12  0.26685151D-11 -0.21419193D-11
 -0.15929261D-02  0.32240897D-16  0.20124775D-15 -0.27323479D-11  0.39586595D-11
 -0.12263116D-11 -0.59109957D-03 -0.10322758D-16 -0.47760668D-16  0.51047768D-12
 -0.66583363D-12  0.15535595D-12  0.10319659D-04 -0.54595813D-18  0.15443454D-16
  0.65540566D-12  0.70087665D-04  0.83241999D-17 -0.48098991D-11  0.44226099D-03
  0.49439952D-17  0.28436822D-11 -0.65252398D-03 -0.29916595D-16  0.50700169D-16
 -0.64290134D-12 -0.10441437D-04 -0.36137165D-18  0.26745126D-11  0.27735598D-04
 -0.11081376D-18 -0.74580860D-12  0.35887126D-05  0.11949287D-17  0.95473940D-18
 -0.64128568D-12 -0.11955023D-11 -0.20206095D-11 -0.30376380D-11 -0.37320892D-11
 -0.31523460D-11 -0.11889489D-11  0.58841745D-14  0.48167488D-12  0.90184735D-12
  0.15354723D-11  0.23751421D-11  0.31279786D-11  0.32501702D-11  0.20653372D-11
 -0.13841410D-11  0.14572108D-11 -0.21187155D-10  0.26870003D-12  0.23625301D-11
  0.22150221D-11  0.15772277D-11  0.35752054D-03  0.33519823D-03  0.23868111D-03
  0.20368358D-18  0.19096630D-18  0.13597938D-18 -0.12877446D-10 -0.16830049D-02
 -0.15649048D-19  0.92000155D-11 -0.38594947D-04  0.10726725D-17 -0.19042115D-13
 -0.10579129D-04 -0.11171478D-18  0.50835941D-12 -0.25129298D-11  0.20045704D-11
 -0.15929261D-02  0.22235660D-17  0.14734205D-17  0.27455592D-11 -0.39246640D-11
  0.11791048D-11 -0.59109957D-03  0.24820685D-18 -0.56192549D-18 -0.50588090D-12
  0.66320702D-12 -0.15732612D-12  0.10319659D-04 -0.12757889D-18 -0.41712503D-18
  0.63774527D-12 -0.70087664D-04  0.99515238D-18 -0.46755212D-11 -0.44226098D-03
 -0.50390361D-18  0.27622853D-11  0.65252397D-03 -0.24815535D-17 -0.69582843D-17
 -0.64927957D-12  0.10441437D-04 -0.20243596D-18  0.26925394D-11 -0.27735600D-04
  0.37562352D-18 -0.74470071D-12 -0.35887124D-05  0.23168436D-18  0.36412170D-17
 -0.29764890D+00 -0.55483044D+00 -0.94057400D+00 -0.14243062D+01 -0.17811000D+01
 -0.15333612D+01 -0.58948001D+00  0.25543134D-02 -0.12373573D-03 -0.23235379D-03
 -0.39565844D-03 -0.61979660D-03 -0.83060036D-03 -0.89342268D-03 -0.53640980D-03
  0.35276566D-03 -0.30149117D-01  0.35756510D-03  0.20870485D-03 -0.24765679D-02
 -0.24220293D-02 -0.16003372D-02 -0.37479752D-02 -0.36654379D-02 -0.24219098D-02
 -0.64788989D-17 -0.63362216D-17 -0.41866095D-17  0.44165780D-03  0.74029447D-03
 -0.41134299D-17  0.31144576D-03  0.54928739D-03 -0.25047280D-18  0.11765099D-04
  0.14475430D-04 -0.70189668D-19  0.34685571D-04 -0.59365367D-03  0.55896810D-03
 -0.17148357D-02 -0.11360727D-16  0.96286118D-17 -0.40521353D-04  0.31471371D-03
 -0.27419236D-03  0.82810380D-03 -0.10422222D-17  0.50209351D-19 -0.78927902D-05
  0.91963649D-04 -0.84070859D-04  0.20689692D-03 -0.80203777D-18 -0.21280868D-17
  0.43319195D-04  0.91989827D-04 -0.62188889D-17 -0.43069734D-03 -0.38699709D-03
  0.42135681D-17  0.30073975D-03  0.11102761D-03  0.14443099D-16  0.31740276D-17
 -0.66090546D-04  0.12228426D-04  0.13581972D-17  0.41332048D-03  0.18904882D-03
 -0.98273271D-18 -0.21504884D-03 -0.22573409D-03 -0.30918588D-17  0.10206812D-17
  0.29764890D+00  0.55483044D+00  0.94057399D+00  0.14243062D+01  0.17810999D+01
  0.15333611D+01  0.58948000D+00 -0.25543133D-02  0.12373573D-03  0.23235379D-03
  0.39565843D-03  0.61979660D-03  0.83060035D-03  0.89342267D-03  0.53640980D-03
 -0.35276565D-03  0.30149117D-01 -0.35756510D-03 -0.20870485D-03 -0.24765679D-02
 -0.24220293D-02 -0.16003372D-02  0.37479751D-02  0.36654378D-02  0.24219097D-02
  0.83281902D-17  0.81447881D-17  0.53816059D-17  0.44165780D-03 -0.74029447D-03
  0.10878310D-17  0.31144576D-03 -0.54928739D-03  0.49267324D-18  0.11765099D-04
 -0.14475430D-04 -0.51551859D-19 -0.34685571D-04  0.59365366D-03 -0.55896809D-03
 -0.17148356D-02 -0.22244961D-16  0.22908926D-17  0.40521354D-04 -0.31471371D-03
  0.27419235D-03  0.82810379D-03  0.17720593D-17 -0.62028658D-18  0.78927905D-05
 -0.91963649D-04  0.84070859D-04  0.20689692D-03 -0.62702664D-20  0.48436053D-18
  0.43319193D-04 -0.91989826D-04 -0.15348350D-17 -0.43069733D-03  0.38699709D-03
  0.55899207D-17  0.30073975D-03 -0.11102761D-03 -0.98541556D-18  0.12345529D-17
 -0.66090545D-04 -0.12228426D-04  0.42728492D-18  0.41332048D-03 -0.18904882D-03
 -0.18526831D-17 -0.21504884D-03  0.22573409D-03  0.57082831D-18 -0.60076055D-18
  0.29764890D+00  0.55483045D+00  0.94057401D+00  0.14243063D+01  0.17811000D+01
  0.15333612D+01  0.58948001D+00 -0.25543134D-02  0.12373573D-03  0.23235379D-03
  0.39565844D-03  0.61979660D-03  0.83060036D-03  0.89342268D-03  0.53640980D-03
 -0.35276566D-03  0.30149118D-01 -0.35756510D-03 -0.20870485D-03  0.24765679D-02
  0.24220293D-02  0.16003372D-02 -0.37479752D-02 -0.36654379D-02 -0.24219098D-02
  0.10146898D-16  0.99234442D-17  0.65568392D-17 -0.44165781D-03  0.74029448D-03
  0.27204543D-17 -0.31144577D-03  0.54928740D-03 -0.46211076D-17 -0.11765099D-04
  0.14475430D-04 -0.15123262D-17 -0.34685571D-04  0.59365367D-03 -0.55896810D-03
 -0.17148357D-02 -0.27584218D-16  0.55904572D-17  0.40521353D-04 -0.31471371D-03
  0.27419236D-03  0.82810381D-03  0.82700193D-17 -0.33388999D-17  0.78927893D-05
 -0.91963650D-04  0.84070861D-04  0.20689693D-03 -0.35066191D-17  0.29419255D-17
 -0.43319194D-04  0.91989826D-04 -0.35849795D-17  0.43069734D-03 -0.38699709D-03
  0.43239588D-17 -0.30073976D-03  0.11102761D-03  0.64309797D-17  0.28414670D-16
  0.66090546D-04  0.12228426D-04 -0.46827366D-18 -0.41332048D-03  0.18904882D-03
 -0.31661274D-18  0.21504884D-03 -0.22573410D-03  0.17214337D-17 -0.39374873D-17
 -0.29764890D+00 -0.55483044D+00 -0.94057400D+00 -0.14243062D+01 -0.17811000D+01
 -0.15333612D+01 -0.58948001D+00  0.25543134D-02 -0.12373573D-03 -0.23235379D-03
 -0.39565843D-03 -0.61979660D-03 -0.83060035D-03 -0.89342267D-03 -0.53640980D-03
  0.35276565D-03 -0.30149117D-01  0.35756510D-03  0.20870485D-03  0.24765679D-02
  0.24220293D-02  0.16003372D-02  0.37479752D-02  0.36654379D-02  0.24219098D-02
  0.41552397D-17  0.40637337D-17  0.26850806D-17 -0.44165780D-03 -0.74029447D-03
  0.27779925D-17 -0.31144576D-03 -0.54928740D-03 -0.22277363D-17 -0.11765098D-04
 -0.14475430D-04  0.10879795D-18  0.34685571D-04 -0.59365367D-03  0.55896810D-03
 -0.17148357D-02 -0.91628733D-17  0.14189577D-16 -0.40521353D-04  0.31471371D-03
 -0.27419236D-03  0.82810380D-03  0.39980585D-18 -0.21339044D-17 -0.78927895D-05
  0.91963650D-04 -0.84070860D-04  0.20689693D-03  0.11694648D-18  0.12740724D-17
 -0.43319192D-04 -0.91989825D-04  0.21112243D-17  0.43069733D-03  0.38699709D-03
 -0.59089989D-17 -0.30073976D-03 -0.11102761D-03 -0.42467407D-18  0.24618354D-17
  0.66090545D-04 -0.12228426D-04 -0.65894907D-18 -0.41332048D-03 -0.18904882D-03
  0.98770061D-18  0.21504884D-03  0.22573410D-03  0.98914660D-18 -0.37340336D-18
MO    2     MO 0.0        OCC NO =    2.0000000  ORB. ENERGY =  -25.314118
  0.10657903D-11  0.19868754D-11  0.33581695D-11  0.50484287D-11  0.62025780D-11
  0.52390686D-11  0.19759839D-11 -0.97792548D-14 -0.76408069D-12 -0.14306001D-11
 -0.24357191D-11 -0.37676871D-11 -0.49619114D-11 -0.51557438D-11 -0.32762437D-11
  0.21956624D-11 -0.11981175D-11  0.30309134D-11  0.17446078D-12  0.47039362D-12
  0.44102392D-12  0.31403530D-12 -0.30793447D-03 -0.28870814D-03 -0.20557740D-03
 -0.10309357D-15 -0.96656774D-16 -0.68825381D-16 -0.35732676D-11  0.16523942D-02
  0.19467121D-16  0.71840419D-12  0.55886980D-04  0.33263678D-18 -0.93890149D-14
  0.38144627D-05 -0.10814626D-17 -0.28800426D-12  0.21555059D-11 -0.18675016D-11
 -0.15334766D-02  0.20880378D-16  0.42969805D-15 -0.39856182D-13  0.75593416D-12
 -0.71607798D-12 -0.39010165D-03 -0.86292435D-19 -0.10489938D-15  0.94895266D-13
 -0.82695327D-13 -0.12199940D-13  0.26856903D-04 -0.54672805D-17  0.21837573D-16
  0.27997074D-12  0.81057222D-04 -0.12823037D-15 -0.20904647D-11  0.20349585D-03
  0.77877181D-16  0.12505524D-11 -0.44666751D-03  0.30681393D-15 -0.64920679D-16
  0.34411997D-13  0.52160990D-04 -0.20067494D-18 -0.36375106D-13 -0.17547796D-03
 -0.96018384D-18 -0.66860886D-13  0.18994986D-04  0.15622086D-17 -0.32903269D-17
  0.95653223D-12  0.17831936D-11  0.30139113D-11  0.45308959D-11  0.55667291D-11
  0.47019926D-11  0.17734186D-11 -0.87767477D-14 -0.68208487D-12 -0.12770781D-11
 -0.21743347D-11 -0.33633652D-11 -0.44294336D-11 -0.46024653D-11 -0.29246601D-11
  0.19600392D-11 -0.95794952D-12 -0.87632833D-13  0.16955090D-12 -0.79960909D-13
 -0.74968435D-13 -0.53381992D-13 -0.30793448D-03 -0.28870814D-03 -0.20557740D-03
 -0.21285320D-17 -0.19956341D-17 -0.14210104D-17  0.14523655D-11  0.16523943D-02
  0.24760135D-17  0.63075076D-12  0.55886980D-04  0.88796998D-19  0.88847753D-14
  0.38144628D-05 -0.95666117D-19 -0.20051595D-12  0.17252852D-11 -0.15247693D-11
  0.15334767D-02 -0.16861767D-17 -0.10711269D-17  0.40956107D-12  0.12187452D-12
 -0.53143559D-12  0.39010165D-03 -0.34799926D-17  0.16509044D-17  0.21494366D-13
  0.14826911D-13 -0.36321277D-13 -0.26856903D-04 -0.90823209D-19 -0.81868105D-19
 -0.17931822D-12  0.81057223D-04 -0.44577428D-18  0.13268906D-11  0.20349585D-03
 -0.97696759D-18 -0.78893590D-12 -0.44666752D-03  0.23142904D-17 -0.60874809D-17
 -0.13813936D-12  0.52160990D-04  0.22274253D-18  0.46523515D-12 -0.17547796D-03
  0.38172656D-18 -0.50817067D-13  0.18994986D-04 -0.10499541D-17  0.23766185D-17
 -0.29760947D+00 -0.55475694D+00 -0.94044941D+00 -0.14241176D+01 -0.17808640D+01
 -0.15331580D+01 -0.58940192D+00  0.25539750D-02 -0.15069793D-03 -0.28298403D-03
 -0.48187300D-03 -0.75485121D-03 -0.10115894D-02 -0.10881008D-02 -0.65329430D-03
  0.42963382D-03 -0.30155008D-01  0.15120994D-03  0.17397155D-03 -0.25096902D-02
 -0.24544222D-02 -0.16217405D-02 -0.36122559D-02 -0.35327074D-02 -0.23342091D-02
 -0.19478092D-16 -0.19049149D-16 -0.12586578D-16  0.49571715D-03  0.63194051D-03
 -0.36547684D-17  0.40941556D-03  0.30365943D-03  0.32803401D-17  0.15646334D-04
  0.11433649D-04 -0.83980441D-19  0.68533269D-05 -0.50004783D-03  0.49319450D-03
 -0.16997768D-02  0.23273451D-16  0.66673512D-18  0.16362114D-04  0.22880115D-03
 -0.24516327D-03  0.80194551D-03  0.74426354D-17 -0.36710850D-17  0.24355366D-04
  0.27703756D-04 -0.52059122D-04  0.19629658D-03 -0.20349869D-17  0.19695290D-17
  0.21229926D-03  0.10011355D-03 -0.41305545D-18 -0.59100900D-03 -0.35818645D-03
  0.13769719D-16 -0.45888790D-04  0.57845815D-04 -0.12530552D-16  0.26447269D-16
 -0.11135638D-03 -0.12801812D-04  0.12489233D-17  0.41918476D-03  0.20771656D-03
 -0.22870760D-17 -0.85115627D-04 -0.16931112D-03 -0.14596939D-17 -0.10034985D-16
 -0.29760947D+00 -0.55475695D+00 -0.94044942D+00 -0.14241176D+01 -0.17808640D+01
 -0.15331580D+01 -0.58940193D+00  0.25539750D-02 -0.15069794D-03 -0.28298403D-03
 -0.48187301D-03 -0.75485121D-03 -0.10115894D-02 -0.10881008D-02 -0.65329431D-03
  0.42963382D-03 -0.30155008D-01  0.15120995D-03  0.17397155D-03  0.25096903D-02
  0.24544223D-02  0.16217406D-02 -0.36122559D-02 -0.35327074D-02 -0.23342091D-02
 -0.15323297D-16 -0.14985850D-16 -0.99017845D-17 -0.49571715D-03  0.63194052D-03
  0.11421220D-18 -0.40941556D-03  0.30365944D-03  0.23888072D-17 -0.15646334D-04
  0.11433649D-04  0.45069708D-19  0.68533272D-05 -0.50004784D-03  0.49319451D-03
  0.16997768D-02  0.10839738D-17  0.11920364D-17  0.16362114D-04  0.22880116D-03
 -0.24516327D-03 -0.80194552D-03 -0.64014600D-19 -0.19772042D-18  0.24355366D-04
  0.27703757D-04 -0.52059123D-04 -0.19629659D-03 -0.44748280D-18  0.14104841D-17
 -0.21229927D-03  0.10011355D-03  0.10512197D-17  0.59100901D-03 -0.35818646D-03
  0.31800691D-17  0.45888787D-04  0.57845816D-04 -0.63337283D-17  0.45074026D-17
  0.11135638D-03 -0.12801812D-04 -0.27924401D-18 -0.41918476D-03  0.20771656D-03
 -0.10601701D-17  0.85115629D-04 -0.16931112D-03  0.18979021D-17 -0.15012936D-17
  0.29760947D+00  0.55475695D+00  0.94044941D+00  0.14241176D+01  0.17808640D+01
  0.15331580D+01  0.58940193D+00 -0.25539750D-02  0.15069794D-03  0.28298403D-03
  0.48187301D-03  0.75485121D-03  0.10115894D-02  0.10881008D-02  0.65329431D-03
 -0.42963382D-03  0.30155008D-01 -0.15120994D-03 -0.17397155D-03  0.25096902D-02
  0.24544222D-02  0.16217405D-02 -0.36122559D-02 -0.35327074D-02 -0.23342091D-02
  0.19194453D-17  0.18771756D-17  0.12403293D-17 -0.49571715D-03  0.63194052D-03
  0.92434371D-18 -0.40941556D-03  0.30365943D-03 -0.67701039D-17 -0.15646334D-04
  0.11433649D-04 -0.52351569D-18 -0.68533279D-05  0.50004784D-03 -0.49319451D-03
 -0.16997768D-02  0.15052394D-16  0.27499392D-16 -0.16362114D-04 -0.22880116D-03
  0.24516327D-03  0.80194552D-03 -0.36699826D-17  0.34955304D-18 -0.24355366D-04
 -0.27703757D-04  0.52059122D-04  0.19629659D-03 -0.28037493D-17  0.40892194D-17
 -0.21229927D-03  0.10011355D-03 -0.43324140D-17  0.59100901D-03 -0.35818645D-03
  0.72652782D-17  0.45888790D-04  0.57845817D-04  0.57319639D-17 -0.68380008D-16
  0.11135638D-03 -0.12801812D-04  0.10250552D-17 -0.41918476D-03  0.20771656D-03
 -0.43409661D-19  0.85115627D-04 -0.16931112D-03 -0.30317560D-17  0.70965407D-17
  0.29760947D+00  0.55475695D+00  0.94044942D+00  0.14241176D+01  0.17808640D+01
  0.15331581D+01  0.58940193D+00 -0.25539750D-02  0.15069794D-03  0.28298404D-03
  0.48187301D-03  0.75485122D-03  0.10115894D-02  0.10881008D-02  0.65329431D-03
 -0.42963383D-03  0.30155008D-01 -0.15120995D-03 -0.17397155D-03 -0.25096903D-02
 -0.24544223D-02 -0.16217406D-02 -0.36122559D-02 -0.35327074D-02 -0.23342092D-02
  0.18582135D-16  0.18172922D-16  0.12007618D-16  0.49571715D-03  0.63194052D-03
 -0.15834462D-17  0.40941556D-03  0.30365944D-03  0.13009878D-18  0.15646334D-04
  0.11433649D-04  0.44519331D-19 -0.68533283D-05  0.50004784D-03 -0.49319451D-03
  0.16997769D-02  0.17331564D-17 -0.37136137D-17 -0.16362113D-04 -0.22880116D-03
  0.24516327D-03 -0.80194553D-03  0.52172018D-18 -0.10024873D-17 -0.24355366D-04
 -0.27703758D-04  0.52059123D-04 -0.19629659D-03 -0.71354797D-18  0.48871522D-18
  0.21229927D-03  0.10011355D-03  0.10459264D-17 -0.59100901D-03 -0.35818646D-03
 -0.24572679D-17 -0.45888787D-04  0.57845818D-04 -0.68051141D-18 -0.35711151D-17
 -0.11135638D-03 -0.12801811D-04 -0.46366274D-18  0.41918477D-03  0.20771656D-03
  0.10303211D-17 -0.85115629D-04 -0.16931112D-03  0.36066710D-18  0.62199724D-18
MO    3     MO 0.0        OCC NO =    2.0000000  ORB. ENERGY =  -25.314110
 -0.17526501D-03 -0.32673382D-03 -0.55223771D-03 -0.83019417D-03 -0.10199895D-02
 -0.86154416D-03 -0.32494276D-03  0.16081598D-05  0.13128130D-03  0.24580001D-03
  0.41849555D-03  0.64734898D-03  0.85253584D-03  0.88583934D-03  0.56291114D-03
 -0.37724995D-03  0.38744518D-03 -0.52068960D-02 -0.34910340D-04 -0.61819025D-03
 -0.57959265D-03 -0.41270450D-03 -0.14742333D-11 -0.13821875D-11 -0.98419981D-12
  0.13838198D-15  0.12974190D-15  0.92383960D-16  0.33354815D-02  0.70823393D-11
 -0.47394455D-16 -0.22183517D-02  0.17957741D-12  0.14785833D-16 -0.28424057D-06
  0.40286715D-13 -0.19129174D-18  0.13505410D-03 -0.67012030D-03  0.53506620D-03
 -0.66704899D-11  0.12844772D-18  0.30270120D-18  0.70618549D-03 -0.10126601D-02
  0.30647462D-03 -0.22589348D-11 -0.10333061D-18  0.14796500D-19 -0.12105884D-03
  0.15762882D-03 -0.36569978D-04  0.94173285D-13  0.10622155D-18  0.59479132D-19
 -0.16474861D-03  0.29036754D-12  0.17452776D-18  0.12213216D-02  0.17893173D-11
 -0.38644478D-18 -0.72707579D-03 -0.26604200D-11 -0.13713849D-18  0.29017755D-18
  0.16163046D-03 -0.43899224D-13 -0.27233228D-18 -0.67148308D-03  0.10174030D-12
  0.50809483D-18  0.18659170D-03  0.29957370D-13  0.30890203D-18 -0.41935624D-18
  0.17526501D-03  0.32673382D-03  0.55223771D-03  0.83019417D-03  0.10199895D-02
  0.86154416D-03  0.32494276D-03 -0.16081598D-05 -0.13128130D-03 -0.24580001D-03
 -0.41849555D-03 -0.64734898D-03 -0.85253584D-03 -0.88583934D-03 -0.56291114D-03
  0.37724995D-03 -0.38744518D-03  0.52068960D-02  0.34910340D-04 -0.61819025D-03
 -0.57959265D-03 -0.41270450D-03  0.12783314D-11  0.11985170D-11  0.85341549D-12
  0.10942876D-17  0.10259642D-17  0.73054764D-18  0.33354815D-02 -0.60402882D-11
 -0.56978000D-18 -0.22183517D-02 -0.14483136D-12 -0.93859506D-18 -0.28424057D-06
 -0.37854659D-13 -0.40429335D-19 -0.13505410D-03  0.67012030D-03 -0.53506620D-03
 -0.57005993D-11 -0.68297672D-18  0.14960014D-18 -0.70618549D-03  0.10126601D-02
 -0.30647462D-03 -0.20080511D-11  0.15398644D-17 -0.10314669D-18  0.12105884D-03
 -0.15762882D-03  0.36569978D-04  0.77267665D-13  0.22730332D-18 -0.30320975D-19
 -0.16474861D-03 -0.23879861D-12 -0.23187324D-18  0.12213216D-02 -0.16598256D-11
  0.87174951D-18 -0.72707579D-03  0.23762215D-11 -0.17612978D-18  0.28509688D-18
  0.16163046D-03  0.75908146D-13  0.82189710D-19 -0.67148308D-03 -0.20965785D-12
 -0.33715107D-18  0.18659170D-03 -0.18066584D-13  0.90581940D-19 -0.41400104D-18
 -0.29782612D+00 -0.55516080D+00 -0.94113403D+00 -0.14251543D+01 -0.17821604D+01
 -0.15342741D+01 -0.58983099D+00  0.25558342D-02 -0.28552228D-05 -0.53616027D-05
 -0.91298847D-05 -0.14301910D-04 -0.19166242D-04 -0.20615878D-04 -0.12377746D-04
  0.81401266D-05 -0.30148792D-01 -0.56794287D-04 -0.31498239D-03 -0.25617485D-02
 -0.25053341D-02 -0.16553802D-02 -0.36484211D-02 -0.35680762D-02 -0.23575788D-02
 -0.10721607D-16 -0.10485497D-16 -0.69282114D-17  0.46595261D-03  0.61954524D-03
  0.12446853D-17  0.85925947D-03  0.72656707D-03 -0.12757348D-17 -0.40345194D-04
  0.13020199D-04 -0.12672822D-19 -0.61369232D-04 -0.73230025D-03  0.79366948D-03
 -0.16432270D-02  0.24034144D-18 -0.50039747D-17  0.40716813D-04  0.38719299D-03
 -0.42790980D-03  0.98081907D-03  0.23008529D-19  0.40242421D-18  0.11997505D-03
  0.96013860D-04 -0.21598891D-03  0.47657549D-03 -0.39678406D-18 -0.85003900D-18
 -0.10368100D-03 -0.15242270D-03 -0.93053421D-18 -0.87693341D-04 -0.97568445D-04
  0.15197305D-17  0.39873634D-03  0.55483654D-03  0.12718722D-17  0.19478433D-18
 -0.31930677D-04  0.88514262D-04  0.23323256D-18  0.41502800D-03  0.18484993D-03