 Molden2AIM, Version 4.0.0 (06/02/2016)           Time: Thu Jun 28 03:23:22 2018
GAUSSIAN             16 MOL ORBITALS    354 PRIMITIVES        6 NUCLEI
  C    1    (CENTRE  1)  -5.42847829  0.68208531  0.00657436  CHARGE =  6.0
  C    2    (CENTRE  2)  -2.92480849  0.80881412 -0.00645908  CHARGE =  6.0
  H    3    (CENTRE  3)  -6.70096884  2.28917265  0.18758366  CHARGE =  1.0
  F    4    (CENTRE  4)  -6.58906304 -1.56773758 -0.21570657  CHARGE =  9.0
  F    5    (CENTRE  5)  -1.76422563  3.05866346  0.21557429  CHARGE =  9.0
  H    6    (CENTRE  6)  -1.65231983 -0.79826378 -0.18756855  CHARGE =  1.0
CENTRE ASSIGNMENTS    1  1  1  1  1  1  1  1  1  1  1  1  1  1  1  1  1  1  1  1
CENTRE ASSIGNMENTS    1  1  1  1  1  1  1  1  1  1  1  1  1  1  1  1  1  1  1  1
CENTRE ASSIGNMENTS    1  1  1  1  1  1  1  1  1  1  1  1  1  1  1  1  1  1  1  1
CENTRE ASSIGNMENTS    1  1  1  1  1  1  1  1  1  1  1  1  1  1  1  2  2  2  2  2
CENTRE ASSIGNMENTS    2  2  2  2  2  2  2  2  2  2  2  2  2  2  2  2  2  2  2  2
CENTRE ASSIGNMENTS    2  2  2  2  2  2  2  2  2  2  2  2  2  2  2  2  2  2  2  2
CENTRE ASSIGNMENTS    2  2  2  2  2  2  2  2  2  2  2  2  2  2  2  2  2  2  2  2
CENTRE ASSIGNMENTS    2  2  2  2  2  2  2  2  2  2  3  3  3  3  3  3  3  3  3  3
CENTRE ASSIGNMENTS    3  3  3  3  3  3  3  3  3  3  3  3  3  3  3  3  3  4  4  4
CENTRE ASSIGNMENTS    4  4  4  4  4  4  4  4  4  4  4  4  4  4  4  4  4  4  4  4
CENTRE ASSIGNMENTS    4  4  4  4  4  4  4  4  4  4  4  4  4  4  4  4  4  4  4  4
CENTRE ASSIGNMENTS    4  4  4  4  4  4  4  4  4  4  4  4  4  4  4  4  4  4  4  4
CENTRE ASSIGNMENTS    4  4  4  4  4  4  4  4  4  4  4  4  5  5  5  5  5  5  5  5
CENTRE ASSIGNMENTS    5  5  5  5  5  5  5  5  5  5  5  5  5  5  5  5  5  5  5  5
CENTRE ASSIGNMENTS    5  5  5  5  5  5  5  5  5  5  5  5  5  5  5  5  5  5  5  5
CENTRE ASSIGNMENTS    5  5  5  5  5  5  5  5  5  5  5  5  5  5  5  5  5  5  5  5
CENTRE ASSIGNMENTS    5  5  5  5  5  5  5  6  6  6  6  6  6  6  6  6  6  6  6  6
CENTRE ASSIGNMENTS    6  6  6  6  6  6  6  6  6  6  6  6  6  6
TYPE ASSIGNMENTS      1  1  1  1  1  1  1  1  1  1  1  1  1  1  1  1  1  1  1  2
TYPE ASSIGNMENTS      2  2  3  3  3  4  4  4  2  3  4  2  3  4  2  3  4  5  6  7
TYPE ASSIGNMENTS      8  9 10  5  6  7  8  9 10  5  6  7  8  9 10 11 12 13 17 14
TYPE ASSIGNMENTS     15 18 19 16 20 11 12 13 17 14 15 18 19 16 20  1  1  1  1  1
TYPE ASSIGNMENTS      1  1  1  1  1  1  1  1  1  1  1  1  1  1  2  2  2  3  3  3
TYPE ASSIGNMENTS      4  4  4  2  3  4  2  3  4  2  3  4  5  6  7  8  9 10  5  6
TYPE ASSIGNMENTS      7  8  9 10  5  6  7  8  9 10 11 12 13 17 14 15 18 19 16 20
TYPE ASSIGNMENTS     11 12 13 17 14 15 18 19 16 20  1  1  1  1  1  1  2  3  4  2
TYPE ASSIGNMENTS      3  4  2  3  4  5  6  7  8  9 10  5  6  7  8  9 10  1  1  1
TYPE ASSIGNMENTS      1  1  1  1  1  1  1  1  1  1  1  1  1  1  1  1  2  2  2  3
TYPE ASSIGNMENTS      3  3  4  4  4  2  3  4  2  3  4  2  3  4  5  6  7  8  9 10
TYPE ASSIGNMENTS      5  6  7  8  9 10  5  6  7  8  9 10 11 12 13 17 14 15 18 19
TYPE ASSIGNMENTS     16 20 11 12 13 17 14 15 18 19 16 20  1  1  1  1  1  1  1  1
TYPE ASSIGNMENTS      1  1  1  1  1  1  1  1  1  1  1  2  2  2  3  3  3  4  4  4
TYPE ASSIGNMENTS      2  3  4  2  3  4  2  3  4  5  6  7  8  9 10  5  6  7  8  9
TYPE ASSIGNMENTS     10  5  6  7  8  9 10 11 12 13 17 14 15 18 19 16 20 11 12 13
TYPE ASSIGNMENTS     17 14 15 18 19 16 20  1  1  1  1  1  1  2  3  4  2  3  4  2
TYPE ASSIGNMENTS      3  4  5  6  7  8  9 10  5  6  7  8  9 10
EXPONENTS  0.8236000D+04 0.1235000D+04 0.2808000D+03 0.7927000D+02 0.2559000D+02
EXPONENTS  0.8997000D+01 0.3319000D+01 0.3643000D+00 0.8236000D+04 0.1235000D+04
EXPONENTS  0.2808000D+03 0.7927000D+02 0.2559000D+02 0.8997000D+01 0.3319000D+01
EXPONENTS  0.3643000D+00 0.9059000D+00 0.1285000D+00 0.4402000D-01 0.1871000D+02
EXPONENTS  0.4133000D+01 0.1200000D+01 0.1871000D+02 0.4133000D+01 0.1200000D+01
EXPONENTS  0.1871000D+02 0.4133000D+01 0.1200000D+01 0.3827000D+00 0.3827000D+00
EXPONENTS  0.3827000D+00 0.1209000D+00 0.1209000D+00 0.1209000D+00 0.3569000D-01
EXPONENTS  0.3569000D-01 0.3569000D-01 0.1097000D+01 0.1097000D+01 0.1097000D+01
EXPONENTS  0.1097000D+01 0.1097000D+01 0.1097000D+01 0.3180000D+00 0.3180000D+00
EXPONENTS  0.3180000D+00 0.3180000D+00 0.3180000D+00 0.3180000D+00 0.1000000D+00
EXPONENTS  0.1000000D+00 0.1000000D+00 0.1000000D+00 0.1000000D+00 0.1000000D+00
EXPONENTS  0.7610000D+00 0.7610000D+00 0.7610000D+00 0.7610000D+00 0.7610000D+00
EXPONENTS  0.7610000D+00 0.7610000D+00 0.7610000D+00 0.7610000D+00 0.7610000D+00
EXPONENTS  0.2680000D+00 0.2680000D+00 0.2680000D+00 0.2680000D+00 0.2680000D+00
EXPONENTS  0.2680000D+00 0.2680000D+00 0.2680000D+00 0.2680000D+00 0.2680000D+00
EXPONENTS  0.8236000D+04 0.1235000D+04 0.2808000D+03 0.7927000D+02 0.2559000D+02
EXPONENTS  0.8997000D+01 0.3319000D+01 0.3643000D+00 0.8236000D+04 0.1235000D+04
EXPONENTS  0.2808000D+03 0.7927000D+02 0.2559000D+02 0.8997000D+01 0.3319000D+01
EXPONENTS  0.3643000D+00 0.9059000D+00 0.1285000D+00 0.4402000D-01 0.1871000D+02
EXPONENTS  0.4133000D+01 0.1200000D+01 0.1871000D+02 0.4133000D+01 0.1200000D+01
EXPONENTS  0.1871000D+02 0.4133000D+01 0.1200000D+01 0.3827000D+00 0.3827000D+00
EXPONENTS  0.3827000D+00 0.1209000D+00 0.1209000D+00 0.1209000D+00 0.3569000D-01
EXPONENTS  0.3569000D-01 0.3569000D-01 0.1097000D+01 0.1097000D+01 0.1097000D+01
EXPONENTS  0.1097000D+01 0.1097000D+01 0.1097000D+01 0.3180000D+00 0.3180000D+00
EXPONENTS  0.3180000D+00 0.3180000D+00 0.3180000D+00 0.3180000D+00 0.1000000D+00
EXPONENTS  0.1000000D+00 0.1000000D+00 0.1000000D+00 0.1000000D+00 0.1000000D+00
EXPONENTS  0.7610000D+00 0.7610000D+00 0.7610000D+00 0.7610000D+00 0.7610000D+00
EXPONENTS  0.7610000D+00 0.7610000D+00 0.7610000D+00 0.7610000D+00 0.7610000D+00
EXPONENTS  0.2680000D+00 0.2680000D+00 0.2680000D+00 0.2680000D+00 0.2680000D+00
EXPONENTS  0.2680000D+00 0.2680000D+00 0.2680000D+00 0.2680000D+00 0.2680000D+00
EXPONENTS  0.3387000D+02 0.5095000D+01 0.1159000D+01 0.3258000D+00 0.1027000D+00
EXPONENTS  0.2526000D-01 0.1407000D+01 0.1407000D+01 0.1407000D+01 0.3880000D+00
EXPONENTS  0.3880000D+00 0.3880000D+00 0.1020000D+00 0.1020000D+00 0.1020000D+00
EXPONENTS  0.1057000D+01 0.1057000D+01 0.1057000D+01 0.1057000D+01 0.1057000D+01
EXPONENTS  0.1057000D+01 0.2470000D+00 0.2470000D+00 0.2470000D+00 0.2470000D+00
EXPONENTS  0.2470000D+00 0.2470000D+00 0.1950000D+05 0.2923000D+04 0.6645000D+03
EXPONENTS  0.1875000D+03 0.6062000D+02 0.2142000D+02 0.7950000D+01 0.8815000D+00
EXPONENTS  0.1950000D+05 0.2923000D+04 0.6645000D+03 0.1875000D+03 0.6062000D+02
EXPONENTS  0.2142000D+02 0.7950000D+01 0.8815000D+00 0.2257000D+01 0.3041000D+00
EXPONENTS  0.9158000D-01 0.4388000D+02 0.9926000D+01 0.2930000D+01 0.4388000D+02
EXPONENTS  0.9926000D+01 0.2930000D+01 0.4388000D+02 0.9926000D+01 0.2930000D+01
EXPONENTS  0.9132000D+00 0.9132000D+00 0.9132000D+00 0.2672000D+00 0.2672000D+00
EXPONENTS  0.2672000D+00 0.7361000D-01 0.7361000D-01 0.7361000D-01 0.3107000D+01
EXPONENTS  0.3107000D+01 0.3107000D+01 0.3107000D+01 0.3107000D+01 0.3107000D+01
EXPONENTS  0.8550000D+00 0.8550000D+00 0.8550000D+00 0.8550000D+00 0.8550000D+00
EXPONENTS  0.8550000D+00 0.2920000D+00 0.2920000D+00 0.2920000D+00 0.2920000D+00
EXPONENTS  0.2920000D+00 0.2920000D+00 0.1917000D+01 0.1917000D+01 0.1917000D+01
EXPONENTS  0.1917000D+01 0.1917000D+01 0.1917000D+01 0.1917000D+01 0.1917000D+01
EXPONENTS  0.1917000D+01 0.1917000D+01 0.7240000D+00 0.7240000D+00 0.7240000D+00
EXPONENTS  0.7240000D+00 0.7240000D+00 0.7240000D+00 0.7240000D+00 0.7240000D+00
EXPONENTS  0.7240000D+00 0.7240000D+00 0.1950000D+05 0.2923000D+04 0.6645000D+03
EXPONENTS  0.1875000D+03 0.6062000D+02 0.2142000D+02 0.7950000D+01 0.8815000D+00
EXPONENTS  0.1950000D+05 0.2923000D+04 0.6645000D+03 0.1875000D+03 0.6062000D+02
EXPONENTS  0.2142000D+02 0.7950000D+01 0.8815000D+00 0.2257000D+01 0.3041000D+00
EXPONENTS  0.9158000D-01 0.4388000D+02 0.9926000D+01 0.2930000D+01 0.4388000D+02
EXPONENTS  0.9926000D+01 0.2930000D+01 0.4388000D+02 0.9926000D+01 0.2930000D+01
EXPONENTS  0.9132000D+00 0.9132000D+00 0.9132000D+00 0.2672000D+00 0.2672000D+00
EXPONENTS  0.2672000D+00 0.7361000D-01 0.7361000D-01 0.7361000D-01 0.3107000D+01
EXPONENTS  0.3107000D+01 0.3107000D+01 0.3107000D+01 0.3107000D+01 0.3107000D+01
EXPONENTS  0.8550000D+00 0.8550000D+00 0.8550000D+00 0.8550000D+00 0.8550000D+00
EXPONENTS  0.8550000D+00 0.2920000D+00 0.2920000D+00 0.2920000D+00 0.2920000D+00
EXPONENTS  0.2920000D+00 0.2920000D+00 0.1917000D+01 0.1917000D+01 0.1917000D+01
EXPONENTS  0.1917000D+01 0.1917000D+01 0.1917000D+01 0.1917000D+01 0.1917000D+01
EXPONENTS  0.1917000D+01 0.1917000D+01 0.7240000D+00 0.7240000D+00 0.7240000D+00
EXPONENTS  0.7240000D+00 0.7240000D+00 0.7240000D+00 0.7240000D+00 0.7240000D+00
EXPONENTS  0.7240000D+00 0.7240000D+00 0.3387000D+02 0.5095000D+01 0.1159000D+01
EXPONENTS  0.3258000D+00 0.1027000D+00 0.2526000D-01 0.1407000D+01 0.1407000D+01
EXPONENTS  0.1407000D+01 0.3880000D+00 0.3880000D+00 0.3880000D+00 0.1020000D+00
EXPONENTS  0.1020000D+00 0.1020000D+00 0.1057000D+01 0.1057000D+01 0.1057000D+01
EXPONENTS  0.1057000D+01 0.1057000D+01 0.1057000D+01 0.2470000D+00 0.2470000D+00
EXPONENTS  0.2470000D+00 0.2470000D+00 0.2470000D+00 0.2470000D+00
MO    1     MO 0.0        OCC NO =    2.0000000  ORB. ENERGY =  -25.272525
  0.11916757D-03  0.22215545D-03  0.37548184D-03  0.56447220D-03  0.69351931D-03
  0.58578793D-03  0.22093765D-03 -0.10934328D-05 -0.83821119D-04 -0.15693958D-03
 -0.26720307D-03 -0.41332251D-03 -0.54433121D-03 -0.56559500D-03 -0.35941023D-03
  0.24086838D-03 -0.30646335D-03  0.60243070D-03  0.14646484D-03  0.65660901D-04
  0.61561268D-04  0.43835290D-04  0.33864961D-03  0.31750554D-03  0.22608286D-03
  0.34615626D-04  0.32454349D-04  0.23109430D-04 -0.39786911D-03 -0.12391612D-02
 -0.12501555D-03  0.26971640D-04 -0.32311211D-04 -0.36552426D-05 -0.63848451D-05
  0.15163684D-05  0.22695773D-06 -0.18601898D-03  0.47288275D-03 -0.28686376D-03
  0.88288813D-03  0.89753808D-04  0.15058045D-03 -0.79460240D-04  0.22141479D-03
 -0.14195455D-03  0.10072969D-02  0.10358401D-03  0.65758477D-04  0.18137065D-04
 -0.88807990D-05 -0.92562661D-05  0.11014101D-04  0.56996619D-06 -0.42765235D-07
  0.11155597D-03 -0.10585974D-03  0.50767653D-04 -0.50734433D-03 -0.17486463D-03
 -0.17995198D-04  0.17267643D-03  0.49244384D-03 -0.13430776D-03 -0.12857657D-03
  0.10352030D-04 -0.52730266D-04  0.26091341D-05 -0.15300617D-04  0.13638048D-03
  0.13557025D-04 -0.15755473D-04  0.21810318D-04 -0.21384427D-04 -0.22896035D-05
  0.10688972D-03  0.19926675D-03  0.33679591D-03  0.50631457D-03  0.62206595D-03
  0.52543414D-03  0.19817443D-03 -0.98077630D-06 -0.74806663D-04 -0.14006168D-03
 -0.23846699D-03 -0.36887217D-03 -0.48579167D-03 -0.50476867D-03 -0.32075783D-03
  0.21496444D-03 -0.28227869D-03  0.38959954D-03  0.11415860D-03 -0.31344492D-04
 -0.29387454D-04 -0.20925618D-04 -0.30864705D-03 -0.28937623D-03 -0.20605312D-03
 -0.31827310D-04 -0.29840126D-04 -0.21247948D-04  0.23392759D-03  0.11404313D-02
  0.11635766D-03  0.76828723D-04  0.16111879D-04  0.85486452D-06  0.95404320D-05
 -0.24438811D-05 -0.35747527D-06 -0.17234877D-03  0.42637463D-03 -0.25402587D-03
  0.81666129D-03  0.83192164D-04  0.13438926D-03 -0.39819372D-04  0.16481638D-03
 -0.12499701D-03  0.99756733D-03  0.10209175D-03  0.50251896D-04  0.12275029D-04
 -0.22146496D-05 -0.10060379D-04  0.11999140D-04  0.77338503D-06  0.15340367D-05
 -0.97288215D-04  0.94458585D-04 -0.48123524D-04  0.42976357D-03  0.18115836D-03
  0.18954773D-04 -0.13789892D-03 -0.46453411D-03  0.12541580D-03  0.10518203D-03
 -0.18336471D-04  0.50436281D-04 -0.24948350D-05  0.47537472D-04 -0.12962202D-03
 -0.12776937D-04  0.74719410D-05 -0.21686823D-04  0.20261442D-04  0.10698515D-04
 -0.30631971D-05 -0.55246021D-05 -0.81460226D-05  0.56251841D-03 -0.29932389D-04
 -0.19414749D-04 -0.48704154D-04 -0.74888607D-04 -0.72974618D-05  0.35351115D-03
 -0.30408687D-03 -0.35458563D-04  0.31279296D-04 -0.17505661D-05 -0.51237293D-06
  0.26665131D-04  0.41719421D-04 -0.68384552D-04 -0.20032759D-03 -0.22958456D-04
  0.25405242D-04  0.84701510D-05  0.17088686D-04 -0.25558837D-04 -0.46037857D-04
 -0.55412987D-05  0.94878600D-05  0.43953516D+00  0.81931258D+00  0.13889363D+01
  0.21032588D+01  0.26301325D+01  0.22642991D+01  0.87047925D+00 -0.37719291D-02
  0.18584713D-03  0.34898800D-03  0.59426637D-03  0.93091476D-03  0.12475353D-02
  0.13418924D-02  0.80567044D-03 -0.52984278D-03  0.44491477D-01 -0.66319527D-03
 -0.44166189D-03  0.29409250D-02  0.28761604D-02  0.19004008D-02  0.54349946D-02
  0.53153060D-02  0.35120474D-02  0.53556124D-03  0.52376719D-03  0.34607513D-03
 -0.57276791D-03 -0.10663540D-02 -0.10511989D-03 -0.51074767D-03 -0.77945465D-03
 -0.75888699D-04 -0.10237362D-04 -0.41974334D-04 -0.42697605D-05 -0.31381088D-03
  0.10488659D-02 -0.73505505D-03  0.19110076D-02  0.18988742D-03  0.35537580D-03
  0.17213497D-03 -0.52779539D-03  0.35566042D-03 -0.96439151D-03 -0.96480496D-04
 -0.17580852D-03  0.18076085D-04 -0.12105123D-03  0.10297514D-03 -0.28126247D-03
 -0.27483884D-04 -0.44203167D-04 -0.14736923D-03  0.82874473D-04 -0.29123228D-04
  0.59294641D-03  0.39373865D-04  0.52663055D-05 -0.15083873D-03 -0.28799728D-03
  0.82103379D-04  0.14950975D-03  0.12142668D-03 -0.10157164D-03  0.31553413D-04
 -0.52188370D-03 -0.61446063D-05 -0.99881771D-06  0.15760367D-03  0.31085951D-03
 -0.93661421D-04 -0.13611791D-03  0.40147586D+00  0.74836840D+00  0.12686684D+01
  0.19211379D+01  0.24023897D+01  0.20682337D+01  0.79510455D+00 -0.34453182D-02
  0.17265498D-03  0.32421547D-03  0.55208304D-03  0.86483481D-03  0.11589804D-02
  0.12466397D-02  0.74848082D-03 -0.49223248D-03  0.40637600D-01 -0.65278430D-03
 -0.42742368D-03 -0.26832412D-02 -0.26241513D-02 -0.17338877D-02 -0.49737449D-02
 -0.48642138D-02 -0.32139917D-02 -0.48953927D-03 -0.47875872D-03 -0.31633613D-03
  0.52347061D-03  0.98644846D-03  0.97195490D-04  0.44205803D-03  0.72203896D-03
  0.70512107D-04  0.91008884D-05  0.39860473D-04  0.40537458D-05 -0.29712925D-03
  0.95921267D-03 -0.66208343D-03  0.17265072D-02  0.17167635D-03  0.32264809D-03
  0.16416821D-03 -0.48285021D-03  0.31868200D-03 -0.86629613D-03 -0.86774470D-04
 -0.15937886D-03  0.23349063D-04 -0.11334217D-03  0.89993102D-04 -0.24655851D-03
 -0.24224068D-04 -0.40158011D-04  0.13235282D-03 -0.76419213D-04  0.25091866D-04
 -0.54347037D-03 -0.20834119D-04 -0.30011590D-05  0.14641193D-03  0.25009176D-03
 -0.72274439D-04 -0.13921489D-03 -0.10934870D-03  0.93043646D-04 -0.27879854D-04
  0.47094117D-03 -0.38026552D-05 -0.84734884D-07 -0.14289507D-03 -0.27532828D-03
  0.83724296D-04  0.12313860D-03 -0.41839296D-05 -0.75458893D-05 -0.11126409D-04
  0.56752381D-03 -0.94043895D-04 -0.23545004D-04  0.46268298D-04  0.81546723D-04
  0.80118692D-05 -0.38503884D-03  0.33676008D-03  0.39222229D-04 -0.22309784D-04
  0.48433927D-06  0.29838100D-06  0.33489905D-04  0.51033441D-04 -0.84523346D-04
 -0.22295118D-03 -0.25819683D-04  0.31038308D-04  0.10732932D-04  0.18086331D-04
 -0.28819262D-04 -0.49938011D-04 -0.60738680D-05  0.10430121D-04
MO    2     MO 0.0        OCC NO =    2.0000000  ORB. ENERGY =  -25.272523
 -0.13055280D-03 -0.24338010D-03 -0.41135524D-03 -0.61840167D-03 -0.75977791D-03
 -0.64175390D-03 -0.24204596D-03  0.11978990D-05  0.96018431D-04  0.17977680D-03
  0.30608538D-03  0.47346754D-03  0.62354010D-03  0.64789810D-03  0.41171016D-03
 -0.27591857D-03  0.25392366D-03 -0.23293076D-02 -0.35109566D-03 -0.37700476D-03
 -0.35346592D-03 -0.25168879D-03 -0.31692110D-03 -0.29713367D-03 -0.21157688D-03
 -0.29042277D-04 -0.27228980D-04 -0.19388656D-04  0.17972229D-02  0.10372135D-02
  0.89152613D-04 -0.11481004D-02  0.17793184D-03  0.30567235D-04 -0.35229986D-04
  0.10339296D-04  0.14480847D-05  0.14294942D-03 -0.49375166D-03  0.35080224D-03
 -0.69341332D-03 -0.67618669D-04 -0.17058095D-03  0.43532725D-03 -0.61679064D-03
  0.18146340D-03 -0.62159691D-04 -0.11664036D-04 -0.16754199D-03 -0.64085551D-04
  0.73423252D-04 -0.93377013D-05  0.11399651D-04  0.23177167D-05  0.17311131D-04
 -0.15293646D-03  0.12156025D-03 -0.26632052D-04  0.83628645D-03 -0.77620429D-04
 -0.11459837D-04 -0.37747707D-03 -0.28706032D-03  0.91355994D-04  0.25110204D-03
  0.88875740D-04  0.23020145D-04 -0.11537450D-05 -0.35763599D-03 -0.68667677D-04
 -0.79418263D-05  0.91008773D-04 -0.39275817D-06  0.11403061D-04 -0.93163731D-04
  0.14078086D-03  0.26244752D-03  0.44358255D-03  0.66684987D-03  0.81930211D-03
  0.69203161D-03  0.26100886D-03 -0.12917474D-05 -0.10319556D-03 -0.19321465D-03
 -0.32896447D-03 -0.50885802D-03 -0.67014811D-03 -0.69632682D-03 -0.44248443D-03
  0.29654278D-03 -0.28056485D-03  0.23741980D-02  0.36288865D-03 -0.38139413D-03
 -0.35758124D-03 -0.25461914D-03 -0.34621589D-03 -0.32459940D-03 -0.23113411D-03
 -0.32005991D-04 -0.30007651D-04 -0.21367235D-04  0.18258091D-02  0.11448998D-02
  0.99937354D-04 -0.11458437D-02  0.18012138D-03  0.30788512D-04 -0.34509396D-04
  0.10160236D-04  0.14204576D-05 -0.15916616D-03  0.53446082D-03 -0.37529466D-03
  0.77032241D-03  0.75341584D-04  0.18328914D-03 -0.44072626D-03  0.63427655D-03
 -0.19355029D-03  0.15289360D-03  0.20838727D-04  0.17270837D-03  0.65461595D-04
 -0.73925144D-04  0.84635488D-05 -0.10358095D-04 -0.22602821D-05 -0.17244924D-04
 -0.16238715D-03  0.13064195D-03 -0.31042165D-04  0.87870725D-03 -0.61509265D-04
 -0.98181949D-05 -0.39154581D-03 -0.33041659D-03  0.10294469D-03  0.26150552D-03
  0.87577834D-04  0.27692112D-04 -0.13827526D-05 -0.35479384D-03 -0.80707033D-04
 -0.91040329D-05  0.92060340D-04 -0.23693023D-05  0.13252291D-04 -0.92565471D-04
 -0.12546899D-04 -0.22628849D-04 -0.33366224D-04  0.80884931D-04 -0.71121562D-03
 -0.46611245D-04  0.24770568D-04 -0.77109223D-04 -0.83250711D-05  0.36509786D-03
 -0.37555511D-03 -0.43008313D-04 -0.97896049D-04  0.13924978D-04  0.25012125D-05
  0.76778451D-04  0.10503207D-03 -0.18181053D-03 -0.25958609D-03 -0.32609027D-04
  0.63328417D-04  0.25440140D-04  0.11819646D-04 -0.37259786D-04 -0.45276814D-04
 -0.60532078D-05  0.10849467D-04 -0.40152570D+00 -0.74846129D+00 -0.12688259D+01
 -0.19213764D+01 -0.24026879D+01 -0.20684904D+01 -0.79520324D+00  0.34457458D-02
 -0.13766187D-03 -0.25850461D-03 -0.44018877D-03 -0.68955310D-03 -0.92408227D-03
 -0.99397508D-03 -0.59678133D-03  0.39246851D-03 -0.40659115D-01  0.85259546D-04
  0.13767441D-03 -0.27200617D-02 -0.26601610D-02 -0.17576808D-02 -0.48620101D-02
 -0.47549397D-02 -0.31417897D-02 -0.47817989D-03 -0.46764949D-03 -0.30899579D-03
  0.51991379D-03  0.83662944D-03  0.81746462D-04  0.73743823D-03  0.60059212D-03
  0.54873835D-04  0.12120149D-04  0.21515417D-04  0.21152413D-05  0.17053122D-03
 -0.94571797D-03  0.77518675D-03 -0.19566016D-02 -0.19077888D-03 -0.34163212D-03
 -0.80435331D-04  0.47401764D-03 -0.39358231D-03  0.10426265D-02  0.10190717D-03
  0.17164064D-03  0.59198886D-04  0.79942943D-04 -0.13914183D-03  0.37155971D-03
  0.34515440D-04  0.42200135D-04  0.15960006D-03 -0.67868138D-04  0.42944523D-04
 -0.52118506D-03 -0.20345605D-03 -0.25035707D-04  0.42384873D-04  0.40706047D-03
 -0.10379786D-03 -0.10536256D-03 -0.12823927D-03  0.89958818D-04 -0.38875005D-04
  0.54060507D-03  0.10983617D-03  0.12042055D-04 -0.15588727D-03 -0.37971262D-03
  0.10458296D-03  0.13595501D-03  0.43958068D+00  0.81939743D+00  0.13890801D+01
  0.21034766D+01  0.26304049D+01  0.22645336D+01  0.87056940D+00 -0.37723197D-02
  0.15388373D-03  0.28896639D-03  0.49205992D-03  0.77080896D-03  0.10329747D-02
  0.11111036D-02  0.66710511D-03 -0.43871639D-03  0.44511128D-01 -0.14480668D-03
 -0.17699979D-03 -0.29745419D-02 -0.29090370D-02 -0.19221237D-02 -0.53330656D-02
 -0.52156217D-02 -0.34461817D-02 -0.52387202D-03 -0.51233540D-03 -0.33852166D-03
  0.56951574D-03  0.92952908D-03  0.90776275D-04  0.78055132D-03  0.66853267D-03
  0.61503943D-04  0.12995246D-04  0.25218006D-04  0.24950945D-05 -0.19817741D-03
  0.10366159D-02 -0.83843853D-03  0.21212122D-02  0.20694213D-03  0.37197922D-03
  0.95653792D-04 -0.51976662D-03  0.42411283D-03 -0.11254729D-02 -0.11008592D-03
 -0.18663004D-03 -0.57323914D-04 -0.90550822D-04  0.14787474D-03 -0.39544723D-03
 -0.36812942D-04 -0.46000128D-04  0.17225876D-03 -0.75079717D-04  0.45341015D-04
 -0.57262488D-03 -0.20619283D-03 -0.25272665D-04  0.55848601D-04  0.43143198D-03
 -0.11075038D-03 -0.11826241D-03 -0.13868218D-03  0.98773472D-04 -0.41520886D-04
  0.58554576D-03  0.10994569D-03  0.12033891D-04 -0.16949922D-03 -0.40626610D-03
  0.11252877D-03  0.14752325D-03  0.12218978D-04  0.22037431D-04  0.32494179D-04
 -0.29751128D-04  0.70560472D-03  0.44667356D-04  0.29067675D-04 -0.70027857D-04
 -0.76632628D-05  0.33168054D-03 -0.34656194D-03 -0.39575974D-04 -0.10032051D-03
  0.14024692D-04  0.25514369D-05 -0.74057076D-04 -0.10083546D-03  0.17489253D-03
  0.24043491D-03  0.30390201D-04 -0.60767167D-04 -0.24571480D-04 -0.10226946D-04
  0.34798426D-04  0.40935599D-04  0.55121744D-05 -0.99575431D-05
MO    3     MO 0.0        OCC NO =    2.0000000  ORB. ENERGY =  -10.639318
  0.23337717D+00  0.43506811D+00  0.73534175D+00  0.11054595D+01  0.13581847D+01
  0.11472041D+01  0.43268319D+00 -0.21413733D-02 -0.21177470D-02 -0.39650906D-02
 -0.67509061D-02 -0.10442625D-01 -0.13752570D-01 -0.14289801D-01 -0.90805272D-02
  0.60855581D-02  0.25257818D-01 -0.62844402D-02 -0.50164994D-03  0.10742966D-04
  0.10072213D-04  0.71720158D-05 -0.24520358D-02 -0.22989394D-02 -0.16369818D-02
 -0.25539697D-03 -0.23945089D-03 -0.17050330D-03  0.32551196D-03  0.14136016D-02
  0.14429770D-03  0.11356398D-02 -0.85389644D-03 -0.10130882D-03 -0.12419707D-05
 -0.45479927D-04 -0.47328770D-05  0.12897934D-02  0.18158890D-02 -0.31056824D-02
  0.36078915D-03 -0.55951795D-04  0.10336528D-02 -0.11755422D-02 -0.35709000D-03
  0.15326322D-02 -0.20125116D-02 -0.15210958D-03 -0.37661459D-03  0.62155218D-04
 -0.13582089D-03  0.73665676D-04 -0.84624947D-04 -0.85694982D-05 -0.43253826D-04
 -0.31343249D-03 -0.16301013D-03 -0.41139079D-04 -0.24272952D-03  0.75748124D-03
  0.11430574D-03  0.11830270D-02 -0.26845085D-03  0.91114933D-05 -0.32282026D-03
 -0.45943107D-03  0.70099389D-04  0.28667043D-06  0.13829970D-02 -0.21048005D-03
 -0.78645578D-05 -0.47037708D-05  0.18188232D-06  0.70045465D-05  0.29707399D-03
  0.23337842D+00  0.43507045D+00  0.73534570D+00  0.11054655D+01  0.13581920D+01
  0.11472103D+01  0.43268551D+00 -0.21413848D-02 -0.21177560D-02 -0.39651074D-02
 -0.67509346D-02 -0.10442669D-01 -0.13752628D-01 -0.14289862D-01 -0.90805656D-02
  0.60855839D-02  0.25257933D-01 -0.62843849D-02 -0.50165143D-03 -0.10726166D-04
 -0.10056463D-04 -0.71608006D-05  0.24520515D-02  0.22989542D-02  0.16369923D-02
  0.25537397D-03  0.23942933D-03  0.17048795D-03 -0.32555099D-03 -0.14135854D-02
 -0.14454255D-03 -0.11356501D-02  0.85388354D-03  0.10138796D-03  0.12422349D-05
  0.45479828D-04  0.47329359D-05  0.12897993D-02  0.18159095D-02 -0.31057089D-02
  0.36085968D-03 -0.56613050D-04  0.10334862D-02 -0.11755272D-02 -0.35710681D-03
  0.15326340D-02 -0.20125212D-02 -0.15199254D-03 -0.37654766D-03  0.62156665D-04
 -0.13582131D-03  0.73664647D-04 -0.84626395D-04 -0.85619421D-05 -0.43262052D-04
  0.31342329D-03  0.16302631D-03  0.41196487D-04  0.24271970D-03 -0.75747784D-03
 -0.11432316D-03 -0.11829896D-02  0.26839892D-03 -0.92662989D-05  0.32307004D-03
  0.45943051D-03 -0.70098686D-04 -0.28826301D-06 -0.13830218D-02  0.21048223D-03
  0.78814742D-05  0.47302382D-05 -0.18616758D-06 -0.70166851D-05 -0.29682366D-03
  0.19275243D-03  0.34763694D-03  0.51259047D-03  0.14340929D-02  0.22236051D-02
  0.69181514D-04  0.40613405D-04  0.50615119D-03  0.52251718D-04 -0.12093500D-02
  0.17246516D-02  0.19273662D-03  0.23038705D-03  0.21292761D-04 -0.20473504D-06
 -0.13862238D-03 -0.10472665D-02  0.11858889D-02  0.31509967D-02  0.35711629D-03
 -0.50488173D-03 -0.16066065D-03 -0.15586065D-03  0.31652130D-03  0.38207161D-03
  0.50039974D-04 -0.10372929D-03  0.38107068D-03  0.71033226D-03  0.12041878D-02
  0.18234952D-02  0.22802872D-02  0.19631149D-02  0.75469303D-03 -0.32702084D-05
 -0.30037736D-03 -0.56405548D-03 -0.96048920D-03 -0.15046007D-02 -0.20163419D-02
 -0.21688476D-02 -0.13021732D-02  0.85636390D-03 -0.82130974D-05  0.36399101D-02
  0.13355236D-02 -0.20285470D-04 -0.19838746D-04 -0.13108298D-04  0.39428387D-03
  0.38560102D-03  0.25478289D-03  0.41349592D-04  0.40438998D-04  0.26719756D-04
  0.11256686D-02  0.15407596D-02  0.14870803D-03 -0.43289960D-03  0.12565966D-02
  0.13569853D-03  0.87193835D-04  0.74947907D-04  0.68978827D-05  0.45263972D-04
  0.13115453D-02 -0.13568093D-02  0.31805333D-02  0.30143414D-03  0.52825175D-03
 -0.10351621D-03 -0.21592765D-03  0.31944386D-03 -0.78380359D-03 -0.72684998D-04
 -0.10444955D-03 -0.42514758D-03  0.18091535D-03  0.24423223D-03 -0.38182430D-03
 -0.25624137D-04 -0.91803686D-05  0.23835334D-03  0.42379014D-04 -0.20278783D-03
  0.71698333D-03  0.19204960D-02  0.16209557D-03 -0.14320433D-02 -0.20476330D-02
  0.44626791D-03  0.36609990D-03  0.10056590D-03 -0.12831342D-03  0.13490626D-03
 -0.12292743D-02 -0.97411632D-03 -0.84745772D-04  0.92757664D-03  0.13590566D-02
 -0.31997301D-03 -0.40339994D-03  0.38106988D-03  0.71033077D-03  0.12041853D-02
  0.18234914D-02  0.22802824D-02  0.19631107D-02  0.75469144D-03 -0.32702015D-05
 -0.30037691D-03 -0.56405464D-03 -0.96048778D-03 -0.15045984D-02 -0.20163389D-02
 -0.21688443D-02 -0.13021713D-02  0.85636263D-03 -0.82131619D-05  0.36399139D-02
  0.13355302D-02  0.20286135D-04  0.19839397D-04  0.13108729D-04 -0.39428402D-03
 -0.38560116D-03 -0.25478299D-03 -0.41363813D-04 -0.40452906D-04 -0.26728945D-04
 -0.11256700D-02 -0.15407859D-02 -0.14849551D-03  0.43289436D-03 -0.12566266D-02
 -0.13539888D-03 -0.87194287D-04 -0.74950958D-04 -0.68712567D-05  0.45256824D-04
  0.13115827D-02 -0.13568395D-02  0.31805565D-02  0.30123918D-03  0.52796878D-03
 -0.10351400D-03 -0.21592371D-03  0.31943771D-03 -0.78380167D-03 -0.72691322D-04
 -0.10450498D-03 -0.42514569D-03  0.18091893D-03  0.24422676D-03 -0.38182131D-03
 -0.25633546D-04 -0.92318720D-05 -0.23834693D-03 -0.42420651D-04  0.20250191D-03
 -0.71698094D-03 -0.19205456D-02 -0.16159119D-03  0.14320217D-02  0.20478076D-02
 -0.44591453D-03 -0.36618105D-03 -0.10056928D-03  0.12834603D-03 -0.13475097D-03
  0.12293029D-02  0.97413046D-03  0.84562365D-04 -0.92759510D-03 -0.13591685D-02
  0.31969055D-03  0.40316740D-03  0.19275295D-03  0.34763789D-03  0.51259186D-03
  0.14340873D-02  0.22235990D-02  0.69181046D-04 -0.40611064D-04 -0.50613947D-03
 -0.52403657D-04  0.12093555D-02 -0.17246888D-02 -0.19239760D-03 -0.23038754D-03
 -0.21298755D-04  0.24014855D-06 -0.13862284D-03 -0.10472572D-02  0.11858800D-02
  0.31510084D-02  0.35710446D-03 -0.50500286D-03 -0.16065991D-03 -0.15586087D-03
  0.31652077D-03  0.38207281D-03  0.50026093D-04 -0.10373636D-03
MO    4     MO 0.0        OCC NO =    2.0000000  ORB. ENERGY =  -10.638105
  0.23303921D+00  0.43443808D+00  0.73427689D+00  0.11038587D+01  0.13562179D+01
  0.11455429D+01  0.43205662D+00 -0.21382723D-02 -0.17588797D-02 -0.32931778D-02
 -0.56069170D-02 -0.86730480D-02 -0.11422099D-01 -0.11868293D-01 -0.75417672D-02
  0.50543170D-02  0.21624999D-01  0.11547990D-01  0.30874772D-04 -0.29286481D-02
 -0.27457937D-02 -0.19551687D-02 -0.26779309D-02 -0.25107304D-02 -0.17877896D-02
 -0.24796229D-03 -0.23248041D-03 -0.16553990D-03  0.43288005D-02  0.14850267D-02
  0.10936808D-03  0.34743601D-02  0.49648913D-03  0.15461343D-04 -0.69034271D-05
  0.43261654D-05  0.52514192D-06  0.23711608D-02  0.85484730D-03 -0.32260081D-02
  0.53410788D-03 -0.62891881D-04  0.85461245D-03  0.21334625D-02 -0.13368626D-02
 -0.79659994D-03 -0.94731856D-04 -0.71437728D-04 -0.11267151D-03  0.27710603D-03
 -0.26131757D-03 -0.15788452D-04 -0.33406214D-04 -0.95888850D-05 -0.51355319D-04
  0.16235923D-02 -0.15347287D-03 -0.13888038D-04 -0.37006152D-02  0.70304377D-03
 -0.16893913D-05 -0.11701619D-02 -0.24262515D-03  0.43353504D-04 -0.55380083D-03
  0.26686462D-04  0.10834373D-03 -0.54220902D-05  0.55222799D-04 -0.26283784D-03
 -0.31143691D-04 -0.13528218D-03 -0.62193336D-04  0.47409962D-04  0.44478459D-04
 -0.23303796D+00 -0.43443574D+00 -0.73427293D+00 -0.11038527D+01 -0.13562106D+01
 -0.11455367D+01 -0.43205429D+00  0.21382608D-02  0.17588677D-02  0.32931553D-02
  0.56068786D-02  0.86729887D-02  0.11422021D-01  0.11868211D-01  0.75417156D-02
 -0.50542824D-02 -0.21624862D-01 -0.11548018D-01 -0.30876940D-04 -0.29286479D-02
 -0.27457936D-02 -0.19551686D-02 -0.26779074D-02 -0.25107085D-02 -0.17877740D-02
 -0.24804829D-03 -0.23256104D-03 -0.16559731D-03  0.43288071D-02  0.14849802D-02
  0.10980621D-03  0.34743531D-02  0.49651157D-03  0.15292524D-04 -0.69034270D-05
  0.43265542D-05  0.52447626D-06 -0.23711500D-02 -0.85487105D-03  0.32260211D-02
 -0.53414602D-03  0.63336973D-04 -0.85426915D-03 -0.21334717D-02  0.13368714D-02
  0.79660021D-03  0.94749720D-04  0.71115777D-04  0.11257278D-03 -0.27710498D-03
  0.26131764D-03  0.15787336D-04  0.33401571D-04  0.96135094D-05  0.51344606D-04
  0.16235950D-02 -0.15348825D-03 -0.13985712D-04 -0.37006125D-02  0.70302609D-03
 -0.15483294D-05 -0.11701725D-02 -0.24256134D-03  0.43505467D-04 -0.55377923D-03
  0.26689663D-04  0.10836296D-03 -0.53950336D-05  0.55212686D-04 -0.26284555D-03
 -0.31031674D-04 -0.13528167D-03 -0.62243322D-04  0.47216775D-04  0.44494921D-04
  0.71716712D-04  0.12934404D-03  0.19071772D-03 -0.14804478D-02  0.22551018D-03
 -0.24794634D-04 -0.10970256D-02  0.92120341D-03  0.10769057D-03 -0.65715231D-03
  0.14708783D-02  0.16024738D-03  0.26189340D-03  0.33655616D-03  0.32270292D-04
 -0.18460942D-03 -0.64781182D-03  0.83242124D-03  0.31102696D-02  0.34624220D-03
 -0.34561387D-03  0.13524605D-03 -0.20741727D-03  0.72171224D-04  0.88768042D-04
  0.79699297D-05 -0.59902464D-04  0.17532384D-03  0.32681124D-03  0.55402539D-03
  0.83895773D-03  0.10491196D-02  0.90319423D-03  0.34722084D-03 -0.15045647D-05
 -0.16629488D-03 -0.31227232D-03 -0.53174591D-03 -0.83297682D-03 -0.11162869D-02
 -0.12007171D-02 -0.72090898D-03  0.47410007D-03  0.26014073D-03  0.48546854D-03
  0.10759141D-02  0.51411460D-03  0.50279285D-03  0.33221650D-03  0.13677514D-02