 Molden2AIM, Version 4.0.0 (06/02/2016)           Time: Thu Jun 28 05:05:59 2018
GAUSSIAN             16 MOL ORBITALS    354 PRIMITIVES        6 NUCLEI
  C    1    (CENTRE  1)   0.00000000  0.00000000  1.39243714  CHARGE =  6.0
  C    2    (CENTRE  2)   0.00000000  0.00000000 -1.10464885  CHARGE =  6.0
  H    3    (CENTRE  3)   0.00000000  1.78366903  2.40402832  CHARGE =  1.0
  H    4    (CENTRE  4)   0.00000000 -1.78366903  2.40402832  CHARGE =  1.0
  F    5    (CENTRE  5)   0.00000000  2.04058485 -2.54792151  CHARGE =  9.0
  F    6    (CENTRE  6)   0.00000000 -2.04058485 -2.54792151  CHARGE =  9.0
CENTRE ASSIGNMENTS    1  1  1  1  1  1  1  1  1  1  1  1  1  1  1  1  1  1  1  1
CENTRE ASSIGNMENTS    1  1  1  1  1  1  1  1  1  1  1  1  1  1  1  1  1  1  1  1
CENTRE ASSIGNMENTS    1  1  1  1  1  1  1  1  1  1  1  1  1  1  1  1  1  1  1  1
CENTRE ASSIGNMENTS    1  1  1  1  1  1  1  1  1  1  1  1  1  1  1  2  2  2  2  2
CENTRE ASSIGNMENTS    2  2  2  2  2  2  2  2  2  2  2  2  2  2  2  2  2  2  2  2
CENTRE ASSIGNMENTS    2  2  2  2  2  2  2  2  2  2  2  2  2  2  2  2  2  2  2  2
CENTRE ASSIGNMENTS    2  2  2  2  2  2  2  2  2  2  2  2  2  2  2  2  2  2  2  2
CENTRE ASSIGNMENTS    2  2  2  2  2  2  2  2  2  2  3  3  3  3  3  3  3  3  3  3
CENTRE ASSIGNMENTS    3  3  3  3  3  3  3  3  3  3  3  3  3  3  3  3  3  4  4  4
CENTRE ASSIGNMENTS    4  4  4  4  4  4  4  4  4  4  4  4  4  4  4  4  4  4  4  4
CENTRE ASSIGNMENTS    4  4  4  4  5  5  5  5  5  5  5  5  5  5  5  5  5  5  5  5
CENTRE ASSIGNMENTS    5  5  5  5  5  5  5  5  5  5  5  5  5  5  5  5  5  5  5  5
CENTRE ASSIGNMENTS    5  5  5  5  5  5  5  5  5  5  5  5  5  5  5  5  5  5  5  5
CENTRE ASSIGNMENTS    5  5  5  5  5  5  5  5  5  5  5  5  5  5  5  5  5  5  5  6
CENTRE ASSIGNMENTS    6  6  6  6  6  6  6  6  6  6  6  6  6  6  6  6  6  6  6  6
CENTRE ASSIGNMENTS    6  6  6  6  6  6  6  6  6  6  6  6  6  6  6  6  6  6  6  6
CENTRE ASSIGNMENTS    6  6  6  6  6  6  6  6  6  6  6  6  6  6  6  6  6  6  6  6
CENTRE ASSIGNMENTS    6  6  6  6  6  6  6  6  6  6  6  6  6  6
TYPE ASSIGNMENTS      1  1  1  1  1  1  1  1  1  1  1  1  1  1  1  1  1  1  1  2
TYPE ASSIGNMENTS      2  2  3  3  3  4  4  4  2  3  4  2  3  4  2  3  4  5  6  7
TYPE ASSIGNMENTS      8  9 10  5  6  7  8  9 10  5  6  7  8  9 10 11 12 13 17 14
TYPE ASSIGNMENTS     15 18 19 16 20 11 12 13 17 14 15 18 19 16 20  1  1  1  1  1
TYPE ASSIGNMENTS      1  1  1  1  1  1  1  1  1  1  1  1  1  1  2  2  2  3  3  3
TYPE ASSIGNMENTS      4  4  4  2  3  4  2  3  4  2  3  4  5  6  7  8  9 10  5  6
TYPE ASSIGNMENTS      7  8  9 10  5  6  7  8  9 10 11 12 13 17 14 15 18 19 16 20
TYPE ASSIGNMENTS     11 12 13 17 14 15 18 19 16 20  1  1  1  1  1  1  2  3  4  2
TYPE ASSIGNMENTS      3  4  2  3  4  5  6  7  8  9 10  5  6  7  8  9 10  1  1  1
TYPE ASSIGNMENTS      1  1  1  2  3  4  2  3  4  2  3  4  5  6  7  8  9 10  5  6
TYPE ASSIGNMENTS      7  8  9 10  1  1  1  1  1  1  1  1  1  1  1  1  1  1  1  1
TYPE ASSIGNMENTS      1  1  1  2  2  2  3  3  3  4  4  4  2  3  4  2  3  4  2  3
TYPE ASSIGNMENTS      4  5  6  7  8  9 10  5  6  7  8  9 10  5  6  7  8  9 10 11
TYPE ASSIGNMENTS     12 13 17 14 15 18 19 16 20 11 12 13 17 14 15 18 19 16 20  1
TYPE ASSIGNMENTS      1  1  1  1  1  1  1  1  1  1  1  1  1  1  1  1  1  1  2  2
TYPE ASSIGNMENTS      2  3  3  3  4  4  4  2  3  4  2  3  4  2  3  4  5  6  7  8
TYPE ASSIGNMENTS      9 10  5  6  7  8  9 10  5  6  7  8  9 10 11 12 13 17 14 15
TYPE ASSIGNMENTS     18 19 16 20 11 12 13 17 14 15 18 19 16 20
EXPONENTS  0.8236000D+04 0.1235000D+04 0.2808000D+03 0.7927000D+02 0.2559000D+02
EXPONENTS  0.8997000D+01 0.3319000D+01 0.3643000D+00 0.8236000D+04 0.1235000D+04
EXPONENTS  0.2808000D+03 0.7927000D+02 0.2559000D+02 0.8997000D+01 0.3319000D+01
EXPONENTS  0.3643000D+00 0.9059000D+00 0.1285000D+00 0.4402000D-01 0.1871000D+02
EXPONENTS  0.4133000D+01 0.1200000D+01 0.1871000D+02 0.4133000D+01 0.1200000D+01
EXPONENTS  0.1871000D+02 0.4133000D+01 0.1200000D+01 0.3827000D+00 0.3827000D+00
EXPONENTS  0.3827000D+00 0.1209000D+00 0.1209000D+00 0.1209000D+00 0.3569000D-01
EXPONENTS  0.3569000D-01 0.3569000D-01 0.1097000D+01 0.1097000D+01 0.1097000D+01
EXPONENTS  0.1097000D+01 0.1097000D+01 0.1097000D+01 0.3180000D+00 0.3180000D+00
EXPONENTS  0.3180000D+00 0.3180000D+00 0.3180000D+00 0.3180000D+00 0.1000000D+00
EXPONENTS  0.1000000D+00 0.1000000D+00 0.1000000D+00 0.1000000D+00 0.1000000D+00
EXPONENTS  0.7610000D+00 0.7610000D+00 0.7610000D+00 0.7610000D+00 0.7610000D+00
EXPONENTS  0.7610000D+00 0.7610000D+00 0.7610000D+00 0.7610000D+00 0.7610000D+00
EXPONENTS  0.2680000D+00 0.2680000D+00 0.2680000D+00 0.2680000D+00 0.2680000D+00
EXPONENTS  0.2680000D+00 0.2680000D+00 0.2680000D+00 0.2680000D+00 0.2680000D+00
EXPONENTS  0.8236000D+04 0.1235000D+04 0.2808000D+03 0.7927000D+02 0.2559000D+02
EXPONENTS  0.8997000D+01 0.3319000D+01 0.3643000D+00 0.8236000D+04 0.1235000D+04
EXPONENTS  0.2808000D+03 0.7927000D+02 0.2559000D+02 0.8997000D+01 0.3319000D+01
EXPONENTS  0.3643000D+00 0.9059000D+00 0.1285000D+00 0.4402000D-01 0.1871000D+02
EXPONENTS  0.4133000D+01 0.1200000D+01 0.1871000D+02 0.4133000D+01 0.1200000D+01
EXPONENTS  0.1871000D+02 0.4133000D+01 0.1200000D+01 0.3827000D+00 0.3827000D+00
EXPONENTS  0.3827000D+00 0.1209000D+00 0.1209000D+00 0.1209000D+00 0.3569000D-01
EXPONENTS  0.3569000D-01 0.3569000D-01 0.1097000D+01 0.1097000D+01 0.1097000D+01
EXPONENTS  0.1097000D+01 0.1097000D+01 0.1097000D+01 0.3180000D+00 0.3180000D+00
EXPONENTS  0.3180000D+00 0.3180000D+00 0.3180000D+00 0.3180000D+00 0.1000000D+00
EXPONENTS  0.1000000D+00 0.1000000D+00 0.1000000D+00 0.1000000D+00 0.1000000D+00
EXPONENTS  0.7610000D+00 0.7610000D+00 0.7610000D+00 0.7610000D+00 0.7610000D+00
EXPONENTS  0.7610000D+00 0.7610000D+00 0.7610000D+00 0.7610000D+00 0.7610000D+00
EXPONENTS  0.2680000D+00 0.2680000D+00 0.2680000D+00 0.2680000D+00 0.2680000D+00
EXPONENTS  0.2680000D+00 0.2680000D+00 0.2680000D+00 0.2680000D+00 0.2680000D+00
EXPONENTS  0.3387000D+02 0.5095000D+01 0.1159000D+01 0.3258000D+00 0.1027000D+00
EXPONENTS  0.2526000D-01 0.1407000D+01 0.1407000D+01 0.1407000D+01 0.3880000D+00
EXPONENTS  0.3880000D+00 0.3880000D+00 0.1020000D+00 0.1020000D+00 0.1020000D+00
EXPONENTS  0.1057000D+01 0.1057000D+01 0.1057000D+01 0.1057000D+01 0.1057000D+01
EXPONENTS  0.1057000D+01 0.2470000D+00 0.2470000D+00 0.2470000D+00 0.2470000D+00
EXPONENTS  0.2470000D+00 0.2470000D+00 0.3387000D+02 0.5095000D+01 0.1159000D+01
EXPONENTS  0.3258000D+00 0.1027000D+00 0.2526000D-01 0.1407000D+01 0.1407000D+01
EXPONENTS  0.1407000D+01 0.3880000D+00 0.3880000D+00 0.3880000D+00 0.1020000D+00
EXPONENTS  0.1020000D+00 0.1020000D+00 0.1057000D+01 0.1057000D+01 0.1057000D+01
EXPONENTS  0.1057000D+01 0.1057000D+01 0.1057000D+01 0.2470000D+00 0.2470000D+00
EXPONENTS  0.2470000D+00 0.2470000D+00 0.2470000D+00 0.2470000D+00 0.1950000D+05
EXPONENTS  0.2923000D+04 0.6645000D+03 0.1875000D+03 0.6062000D+02 0.2142000D+02
EXPONENTS  0.7950000D+01 0.8815000D+00 0.1950000D+05 0.2923000D+04 0.6645000D+03
EXPONENTS  0.1875000D+03 0.6062000D+02 0.2142000D+02 0.7950000D+01 0.8815000D+00
EXPONENTS  0.2257000D+01 0.3041000D+00 0.9158000D-01 0.4388000D+02 0.9926000D+01
EXPONENTS  0.2930000D+01 0.4388000D+02 0.9926000D+01 0.2930000D+01 0.4388000D+02
EXPONENTS  0.9926000D+01 0.2930000D+01 0.9132000D+00 0.9132000D+00 0.9132000D+00
EXPONENTS  0.2672000D+00 0.2672000D+00 0.2672000D+00 0.7361000D-01 0.7361000D-01
EXPONENTS  0.7361000D-01 0.3107000D+01 0.3107000D+01 0.3107000D+01 0.3107000D+01
EXPONENTS  0.3107000D+01 0.3107000D+01 0.8550000D+00 0.8550000D+00 0.8550000D+00
EXPONENTS  0.8550000D+00 0.8550000D+00 0.8550000D+00 0.2920000D+00 0.2920000D+00
EXPONENTS  0.2920000D+00 0.2920000D+00 0.2920000D+00 0.2920000D+00 0.1917000D+01
EXPONENTS  0.1917000D+01 0.1917000D+01 0.1917000D+01 0.1917000D+01 0.1917000D+01
EXPONENTS  0.1917000D+01 0.1917000D+01 0.1917000D+01 0.1917000D+01 0.7240000D+00
EXPONENTS  0.7240000D+00 0.7240000D+00 0.7240000D+00 0.7240000D+00 0.7240000D+00
EXPONENTS  0.7240000D+00 0.7240000D+00 0.7240000D+00 0.7240000D+00 0.1950000D+05
EXPONENTS  0.2923000D+04 0.6645000D+03 0.1875000D+03 0.6062000D+02 0.2142000D+02
EXPONENTS  0.7950000D+01 0.8815000D+00 0.1950000D+05 0.2923000D+04 0.6645000D+03
EXPONENTS  0.1875000D+03 0.6062000D+02 0.2142000D+02 0.7950000D+01 0.8815000D+00
EXPONENTS  0.2257000D+01 0.3041000D+00 0.9158000D-01 0.4388000D+02 0.9926000D+01
EXPONENTS  0.2930000D+01 0.4388000D+02 0.9926000D+01 0.2930000D+01 0.4388000D+02
EXPONENTS  0.9926000D+01 0.2930000D+01 0.9132000D+00 0.9132000D+00 0.9132000D+00
EXPONENTS  0.2672000D+00 0.2672000D+00 0.2672000D+00 0.7361000D-01 0.7361000D-01
EXPONENTS  0.7361000D-01 0.3107000D+01 0.3107000D+01 0.3107000D+01 0.3107000D+01
EXPONENTS  0.3107000D+01 0.3107000D+01 0.8550000D+00 0.8550000D+00 0.8550000D+00
EXPONENTS  0.8550000D+00 0.8550000D+00 0.8550000D+00 0.2920000D+00 0.2920000D+00
EXPONENTS  0.2920000D+00 0.2920000D+00 0.2920000D+00 0.2920000D+00 0.1917000D+01
EXPONENTS  0.1917000D+01 0.1917000D+01 0.1917000D+01 0.1917000D+01 0.1917000D+01
EXPONENTS  0.1917000D+01 0.1917000D+01 0.1917000D+01 0.1917000D+01 0.7240000D+00
EXPONENTS  0.7240000D+00 0.7240000D+00 0.7240000D+00 0.7240000D+00 0.7240000D+00
EXPONENTS  0.7240000D+00 0.7240000D+00 0.7240000D+00 0.7240000D+00
MO    1     MO 0.0        OCC NO =    2.0000000  ORB. ENERGY =  -25.292783
 -0.15431789D-13 -0.28768363D-13 -0.48623601D-13 -0.73097200D-13 -0.89808356D-13
 -0.75857513D-13 -0.28610663D-13  0.14159577D-15  0.24166184D-13  0.45246721D-13
  0.77036414D-13  0.11916362D-12  0.15693429D-12  0.16306478D-12  0.10362035D-12
 -0.69443949D-13 -0.29838305D-12 -0.26417309D-11 -0.11062131D-12 -0.16172954D-16
 -0.15163173D-16 -0.10797082D-16  0.31417843D-04  0.29456225D-04  0.20974587D-04
  0.75046554D-12  0.70360914D-12  0.50101163D-12  0.24303946D-16 -0.25175860D-03
 -0.37123780D-11 -0.33109358D-17  0.10255159D-03  0.24612949D-11  0.99222070D-19
  0.94619556D-05  0.75097175D-13  0.14096323D-12 -0.33458774D-12  0.19362451D-12
 -0.30273360D-15  0.17789579D-16 -0.57577300D-04 -0.25002175D-13 -0.14368011D-11
  0.14618033D-11  0.50034505D-16  0.45131248D-18 -0.89116032D-03 -0.75594317D-13
  0.16962457D-12 -0.94030257D-13 -0.73032830D-18  0.28068531D-18 -0.90766658D-05
 -0.53814321D-18 -0.28101183D-04  0.13194361D-12  0.84564241D-18  0.17456625D-03
  0.58545961D-12  0.76878722D-18 -0.90262705D-04 -0.98129043D-12 -0.69697051D-17
 -0.11520290D-18 -0.24556596D-04 -0.34027349D-12 -0.88938535D-20  0.29479254D-04
 -0.21544986D-12  0.35450254D-18  0.44190536D-04  0.12362703D-11  0.26642560D-17
  0.67450855D-12  0.12574373D-11  0.21252906D-11  0.31950079D-11  0.39254363D-11
  0.33156585D-11  0.12505444D-11 -0.61890140D-14 -0.49194020D-12 -0.92106727D-12
 -0.15681958D-11 -0.24257605D-11 -0.31946413D-11 -0.33194369D-11 -0.21093531D-11
  0.14136394D-11 -0.14549763D-11  0.69070512D-11  0.92468108D-12 -0.93996979D-18
 -0.88128143D-18 -0.62752488D-18 -0.43605188D-03 -0.40882635D-03 -0.29110872D-03
  0.14149010D-11  0.13265596D-11  0.94458949D-12  0.14455408D-17  0.20920257D-02
 -0.76858458D-11  0.14253012D-17  0.41449371D-04  0.23760803D-11  0.17439845D-19
  0.77355322D-05  0.17506296D-13 -0.18329519D-11  0.20983473D-11 -0.26539547D-12
  0.54323773D-19  0.12292705D-17 -0.20465705D-02 -0.90326096D-12  0.18047821D-11
 -0.90152110D-12  0.66341400D-19 -0.21447300D-17 -0.13289760D-02  0.61055351D-14
 -0.16790063D-12  0.16179509D-12  0.33909151D-18 -0.15660293D-18  0.65346461D-04
  0.21857348D-18  0.85333676D-04  0.39765674D-12  0.87014238D-18 -0.74560186D-03
  0.19743605D-11 -0.15258628D-17  0.48960083D-03 -0.31673307D-11 -0.44260907D-17
 -0.28965457D-18  0.97263826D-04 -0.17168100D-12 -0.27563202D-18 -0.18391981D-05
 -0.33426332D-12  0.11445957D-17 -0.28995228D-03  0.84930634D-12  0.18843930D-17
 -0.61988011D-05 -0.11179793D-04 -0.16484598D-04  0.71076217D-03 -0.21685855D-03
 -0.25656183D-04  0.20031585D-17 -0.53026395D-04  0.32007003D-04 -0.22825492D-17
 -0.39800019D-03 -0.20523455D-03  0.53080402D-18  0.93614348D-05  0.37201692D-04
 -0.79731649D-04  0.85110160D-04 -0.53785105D-05  0.92190271D-18  0.59866146D-18
  0.11850967D-03 -0.18152621D-04  0.21235367D-04 -0.30827459D-05  0.73587684D-19
 -0.84735077D-18  0.29458311D-04  0.61988011D-05  0.11179793D-04  0.16484598D-04
 -0.71076217D-03  0.21685855D-03  0.25656183D-04 -0.20623342D-17 -0.53026394D-04
 -0.32007003D-04  0.21429833D-17 -0.39800019D-03  0.20523455D-03 -0.15266558D-17
  0.93614348D-05 -0.37201692D-04  0.79731648D-04 -0.85110159D-04  0.53785110D-05
 -0.92523187D-17  0.55027192D-18  0.11850967D-03  0.18152621D-04 -0.21235367D-04
  0.30827461D-05  0.10462005D-18  0.31818779D-18  0.29458311D-04  0.42093140D+00
  0.78463437D+00  0.13301482D+01  0.20142363D+01  0.25188096D+01  0.21684604D+01
  0.83363536D+00 -0.36122785D-02  0.18030741D-03  0.33858539D-03  0.57655252D-03
  0.90316611D-03  0.12103488D-02  0.13018934D-02  0.78165507D-03 -0.51404926D-03
  0.42631673D-01 -0.52405986D-03 -0.21067555D-03  0.30524914D-17  0.29852699D-17
  0.19724941D-17 -0.49174501D-02 -0.48091588D-02 -0.31776146D-02  0.35087199D-02
  0.34314514D-02  0.22673050D-02 -0.18785981D-18  0.96442261D-03 -0.69412278D-03
 -0.66650175D-18  0.59740701D-03 -0.77890703D-03 -0.21342224D-18  0.12266064D-04
 -0.22973701D-04 -0.69406542D-03  0.62826514D-03  0.65800273D-04 -0.82345261D-17
  0.10352860D-17 -0.23610992D-02  0.33849556D-03 -0.32216667D-03 -0.16328888D-04
  0.20233377D-17 -0.38832847D-18  0.11561646D-02  0.12298675D-03 -0.49314235D-04
 -0.73672511D-04  0.59872812D-18  0.54481658D-18  0.35899373D-03 -0.19235894D-17
  0.16977139D-03 -0.15865051D-03  0.78743484D-17  0.16220113D-03 -0.17012766D-03
 -0.21035801D-17 -0.67151529D-03  0.64607920D-03 -0.59350036D-18  0.73859170D-18
 -0.28241110D-04  0.11292635D-03 -0.25852781D-17 -0.27029109D-03  0.20832329D-03
  0.36950298D-18  0.35501442D-03 -0.54710235D-03 -0.57253747D-19 -0.42093140D+00
 -0.78463437D+00 -0.13301481D+01 -0.20142363D+01 -0.25188096D+01 -0.21684604D+01
 -0.83363535D+00  0.36122784D-02 -0.18030741D-03 -0.33858539D-03 -0.57655252D-03
 -0.90316611D-03 -0.12103488D-02 -0.13018934D-02 -0.78165507D-03  0.51404926D-03
 -0.42631673D-01  0.52405986D-03  0.21067555D-03 -0.27329143D-16 -0.26727305D-16
 -0.17659860D-16 -0.49174501D-02 -0.48091588D-02 -0.31776146D-02 -0.35087199D-02
 -0.34314514D-02 -0.22673050D-02  0.55690114D-17  0.96442260D-03  0.69412278D-03
 -0.32543278D-17  0.59740701D-03  0.77890702D-03 -0.93393154D-19  0.12266064D-04
  0.22973701D-04  0.69406541D-03 -0.62826514D-03 -0.65800273D-04 -0.57076222D-17
  0.47705066D-18 -0.23610992D-02 -0.33849556D-03  0.32216667D-03  0.16328887D-04
  0.34596047D-17 -0.21370819D-17  0.11561646D-02 -0.12298675D-03  0.49314235D-04
  0.73672511D-04 -0.33362178D-17  0.10588820D-18  0.35899373D-03  0.29095397D-18
  0.16977139D-03  0.15865051D-03  0.23983736D-18  0.16220113D-03  0.17012766D-03
 -0.11126993D-17 -0.67151529D-03 -0.64607920D-03 -0.26568321D-17 -0.59145787D-20
 -0.28241111D-04 -0.11292635D-03 -0.10188345D-17 -0.27029109D-03 -0.20832329D-03
  0.10365782D-17  0.35501442D-03  0.54710235D-03  0.35250965D-18
MO    2     MO 0.0        OCC NO =    2.0000000  ORB. ENERGY =  -25.292769
 -0.76238019D-05 -0.14212500D-04 -0.24021629D-04 -0.36112377D-04 -0.44368227D-04
 -0.37476061D-04 -0.14134591D-04  0.69952881D-07  0.10543616D-04  0.19740975D-04
  0.33610700D-04  0.51990642D-04  0.68469846D-04  0.71144556D-04  0.45209172D-04
 -0.30298135D-04 -0.11666420D-03 -0.11177567D-02 -0.11331087D-04 -0.28975391D-15
 -0.27166271D-15 -0.19344003D-15 -0.66337122D-13 -0.62195268D-13 -0.44286736D-13
  0.28692188D-03  0.26900750D-03  0.19154937D-03  0.16152569D-16  0.56839020D-12
 -0.14202190D-02  0.10907331D-17 -0.27965616D-12  0.99485562D-03  0.26503959D-19
 -0.15568192D-13  0.28378878D-04  0.55488287D-04 -0.12855457D-03  0.73066281D-04
  0.75830086D-19  0.98597969D-18  0.15008067D-12 -0.95668025D-05 -0.55088716D-03
  0.56045396D-03 -0.26517117D-18 -0.12236589D-17  0.23704973D-11 -0.30750363D-04
  0.71563855D-04 -0.40813493D-04 -0.15860299D-19 -0.80130970D-19 -0.62615650D-13
 -0.13563439D-18  0.77185503D-13  0.51908696D-04 -0.27508827D-18 -0.44793834D-12
  0.22272998D-03  0.68199144D-18  0.21638183D-12 -0.37845607D-03  0.36249799D-19
 -0.36199820D-19  0.58625251D-13 -0.13278064D-03 -0.11840012D-18 -0.82479194D-13
 -0.81981393D-04  0.22699958D-18 -0.93396557D-13  0.48032332D-03 -0.22257024D-18
  0.26268604D-03  0.48970650D-03  0.82769026D-03  0.12442896D-02  0.15287535D-02
  0.12912767D-02  0.48702208D-03 -0.24102994D-05 -0.19152458D-03 -0.35859444D-03
 -0.61053771D-03 -0.94440900D-03 -0.12437534D-02 -0.12923395D-02 -0.82122373D-03
  0.55036505D-03 -0.56024622D-03  0.27656095D-02  0.32540067D-03  0.18161912D-17
  0.17027947D-17  0.12124913D-17  0.11253425D-11  0.10550802D-11  0.75127992D-12
  0.54417425D-03  0.51019795D-03  0.36329133D-03 -0.89002685D-18 -0.54111645D-11
 -0.29690165D-02 -0.69176649D-18 -0.17720123D-12  0.96879979D-03 -0.35180712D-19
 -0.30498218D-13  0.44103158D-05 -0.70727684D-03  0.81279549D-03 -0.10551866D-03
  0.26986662D-18  0.14774300D-17  0.52941289D-11 -0.34985163D-03  0.68440907D-03
 -0.33455743D-03 -0.32682133D-18 -0.14312989D-17  0.34056104D-11  0.40179186D-05
 -0.71664360D-04  0.67646441D-04  0.27171379D-19 -0.13595501D-18 -0.25241359D-12
 -0.11831182D-18 -0.22834174D-12  0.15346115D-03  0.20053878D-18  0.19293472D-11
  0.75870477D-03  0.15439667D-18 -0.12443220D-11 -0.12190882D-02  0.44401301D-18
  0.11176652D-18 -0.27364205D-12 -0.67986519D-04  0.17681940D-18  0.45501066D-14
 -0.12862666D-03 -0.51211895D-18  0.81637603D-12  0.33258621D-03  0.21287357D-19
 -0.11350868D-04 -0.20471757D-04 -0.30185594D-04 -0.14339223D-03 -0.63468957D-03
 -0.25629934D-04  0.12230746D-19 -0.78786441D-04  0.53488354D-04  0.27327527D-18
 -0.28589349D-03 -0.58052059D-03 -0.90009992D-19  0.14470225D-04  0.79130189D-05
 -0.17547235D-03  0.86748735D-04  0.88723612D-04 -0.12971874D-18 -0.19944814D-18
  0.29487261D-03 -0.52820924D-04  0.17874022D-04  0.34946902D-04  0.99114735D-20
  0.43405300D-19  0.59426345D-04 -0.11350868D-04 -0.20471757D-04 -0.30185594D-04
 -0.14339222D-03 -0.63468957D-03 -0.25629935D-04  0.24877561D-18  0.78786441D-04
  0.53488355D-04 -0.42534216D-18  0.28589349D-03 -0.58052059D-03 -0.15722452D-18
 -0.14470225D-04  0.79130191D-05 -0.17547235D-03  0.86748735D-04  0.88723612D-04
  0.64245629D-19  0.15151230D-18 -0.29487261D-03 -0.52820924D-04  0.17874022D-04
  0.34946902D-04 -0.29275205D-18 -0.20293663D-19 -0.59426345D-04  0.42103423D+00
  0.78482605D+00  0.13304731D+01  0.20147284D+01  0.25194249D+01  0.21689902D+01
  0.83383901D+00 -0.36131609D-02  0.11138908D-03  0.20916896D-03  0.35617866D-03
  0.55795176D-03  0.74772100D-03  0.80427475D-03  0.48288550D-03 -0.31756582D-03
  0.42613659D-01 -0.20922525D-03 -0.17920118D-03 -0.42326612D-17 -0.41394502D-17
 -0.27351098D-17 -0.48276413D-02 -0.47213278D-02 -0.31195809D-02  0.34718020D-02
  0.33953465D-02  0.22434490D-02  0.27589392D-18  0.86566473D-03 -0.63561755D-03
 -0.38624819D-19  0.72437777D-03 -0.68730132D-03 -0.76687624D-20  0.28033109D-04
  0.70215955D-05 -0.95421684D-03  0.95683894D-03 -0.26221063D-05 -0.16841926D-17
  0.21004282D-17 -0.21039391D-02  0.46884083D-03 -0.45964024D-03 -0.92005830D-05
  0.11971751D-18 -0.19432149D-18  0.11586583D-02  0.15741542D-03 -0.93868959D-04
 -0.63546461D-04 -0.89198235D-19 -0.78839444D-20  0.36558734D-03  0.42921098D-18
 -0.18722938D-03  0.89625715D-05 -0.12615882D-17  0.46042970D-03 -0.30205729D-03
 -0.26044741D-19  0.10125843D-03  0.27516957D-03 -0.17907611D-17 -0.82024352D-20
  0.96707331D-04  0.64742620D-04  0.24843377D-18 -0.42450403D-03  0.29024296D-03
 -0.22382646D-18  0.13438204D-03 -0.48447082D-03  0.58915336D-18  0.42103423D+00
  0.78482605D+00  0.13304731D+01  0.20147284D+01  0.25194249D+01  0.21689902D+01
  0.83383901D+00 -0.36131609D-02  0.11138908D-03  0.20916896D-03  0.35617866D-03
  0.55795176D-03  0.74772100D-03  0.80427475D-03  0.48288551D-03 -0.31756583D-03
  0.42613659D-01 -0.20922525D-03 -0.17920118D-03  0.19249262D-16  0.18825357D-16
  0.12438710D-16  0.48276414D-02  0.47213278D-02  0.31195809D-02  0.34718020D-02
  0.33953465D-02  0.22434490D-02 -0.22650494D-17 -0.86566474D-03 -0.63561755D-03
  0.10875666D-18 -0.72437777D-03 -0.68730133D-03  0.62517345D-20 -0.28033109D-04
  0.70215954D-05 -0.95421684D-03  0.95683895D-03 -0.26221059D-05 -0.79380457D-18
  0.46570046D-17  0.21039391D-02  0.46884083D-03 -0.45964024D-03 -0.92005831D-05
 -0.30063867D-18 -0.53933885D-19 -0.11586583D-02  0.15741542D-03 -0.93868959D-04
 -0.63546462D-04 -0.46235514D-19 -0.14899382D-18 -0.36558735D-03  0.12410754D-18
  0.18722937D-03  0.89625707D-05 -0.67126774D-19 -0.46042970D-03 -0.30205729D-03
 -0.30519586D-18 -0.10125842D-03  0.27516958D-03  0.37567756D-17 -0.32381824D-19
 -0.96707331D-04  0.64742621D-04  0.72145197D-19  0.42450403D-03  0.29024296D-03
  0.25000275D-19 -0.13438204D-03 -0.48447083D-03 -0.98094260D-18
MO    3     MO 0.0        OCC NO =    2.0000000  ORB. ENERGY =  -10.724902
  0.13575478D-02  0.25307778D-02  0.42774603D-02  0.64304239D-02  0.79005188D-02
  0.66732511D-02  0.25169048D-02 -0.12456302D-04 -0.20062287D-03 -0.37562930D-03
 -0.63954103D-03 -0.98927273D-03 -0.13028374D-02 -0.13537315D-02 -0.86023559D-03
  0.57650989D-03  0.24527961D-02 -0.12491561D-01 -0.17126130D-03 -0.11750866D-15
 -0.11017184D-15 -0.78448913D-16 -0.21651832D-13 -0.20299969D-13 -0.14454787D-13
 -0.22523958D-02 -0.21117643D-02 -0.15037020D-02 -0.42013493D-17  0.99548516D-13
  0.45979965D-02 -0.16213010D-17  0.14314226D-12  0.21146136D-02 -0.71300141D-19
 -0.41607022D-14 -0.30148554D-05  0.48310089D-04  0.10363036D-02 -0.10846137D-02
 -0.59680709D-18  0.54808586D-17 -0.18369007D-14  0.15181388D-02  0.14775655D-02
 -0.29957043D-02 -0.14870903D-18 -0.31480278D-17  0.13353137D-12  0.71014023D-04
  0.37737925D-04 -0.10875195D-03  0.22225134D-18  0.35598997D-18  0.12820312D-12
 -0.33364740D-18  0.96655797D-14  0.11392490D-02 -0.26243103D-17 -0.13091503D-13
 -0.17642839D-02  0.36252525D-17 -0.15905236D-13 -0.16534630D-02 -0.92541681D-18
 -0.21724748D-19  0.13259480D-13  0.46942317D-03 -0.33167537D-18 -0.11397860D-13
 -0.49271084D-04  0.39684961D-18 -0.28380579D-13 -0.13589984D-02 -0.11169276D-17
  0.32995360D+00  0.61510853D+00  0.10396418D+01  0.15629221D+01  0.19202304D+01
  0.16219416D+01  0.61173668D+00 -0.30275190D-02 -0.28106501D-02 -0.52624239D-02
 -0.89597269D-02 -0.13859335D-01 -0.18252257D-01 -0.18965264D-01 -0.12051574D-01
  0.80766846D-02  0.33186868D-01  0.51198541D-02 -0.39387080D-03  0.15855810D-16
  0.14865830D-16  0.10585356D-16 -0.35354183D-14 -0.33146794D-14 -0.23602492D-14
 -0.61863480D-02 -0.58000945D-02 -0.41300128D-02  0.70033172D-18  0.67073371D-13
  0.60934331D-02  0.17060266D-17  0.10206306D-12  0.34335623D-02 -0.15737113D-18
  0.70595609D-14 -0.42951356D-04 -0.46026704D-02  0.17963036D-02  0.28063668D-02
  0.91270165D-19  0.12046180D-16 -0.21477378D-13  0.65125681D-03 -0.14190028D-02
  0.76774596D-03  0.13352631D-17 -0.15643937D-17  0.76882222D-13  0.32898811D-04
 -0.20301994D-03  0.17012113D-03  0.33279321D-18  0.49338468D-18  0.10294892D-12
 -0.52349219D-18  0.27827428D-14  0.96476349D-03  0.96839293D-19 -0.99022880D-14
 -0.49846714D-03  0.14736373D-17  0.15540597D-14 -0.23958233D-02  0.59407838D-18
 -0.26906985D-18 -0.54103917D-14 -0.14973264D-03  0.15173794D-18  0.54692147D-14
 -0.92353461D-04  0.65547162D-18  0.10761960D-13  0.54155139D-03 -0.18067576D-17
  0.11841086D-03  0.21355887D-03  0.31489243D-03  0.18200888D-02  0.51455046D-03
  0.35354253D-04  0.61116319D-18 -0.13942884D-03 -0.62776482D-03  0.27710288D-17
 -0.85069725D-04  0.16720959D-02 -0.20865858D-18 -0.49199873D-04  0.44312747D-04
  0.40985860D-03  0.79860844D-04 -0.48971944D-03 -0.11481058D-17 -0.12656185D-17
 -0.69100282D-03  0.20290032D-03  0.62977828D-04 -0.26587815D-03 -0.14604736D-17
 -0.22127534D-18 -0.24350661D-03  0.11841086D-03  0.21355887D-03  0.31489243D-03
  0.18200888D-02  0.51455046D-03  0.35354253D-04 -0.41540638D-18  0.13942884D-03
 -0.62776482D-03  0.82970582D-18  0.85069725D-04  0.16720959D-02  0.23646553D-18
  0.49199874D-04  0.44312747D-04  0.40985860D-03  0.79860844D-04 -0.48971944D-03
  0.62686568D-18  0.10497583D-18  0.69100282D-03  0.20290032D-03  0.62977828D-04
 -0.26587815D-03 -0.24222864D-19 -0.81472572D-18  0.24350661D-03  0.28768896D-03
  0.53626468D-03  0.90910046D-03  0.13766460D-02  0.17215007D-02  0.14820517D-02
  0.56975480D-03 -0.24688408D-05 -0.26277189D-03 -0.49343907D-03 -0.84024163D-03
 -0.13162335D-02 -0.17639078D-02 -0.18973207D-02 -0.11391488D-02  0.74915220D-03
  0.24966820D-03  0.17021075D-02  0.12660349D-02 -0.10719472D-16 -0.10483409D-16
 -0.69268318D-17 -0.15433697D-02 -0.15093819D-02 -0.99731243D-03  0.84398405D-03
  0.82539796D-03  0.54537533D-03 -0.65310956D-18 -0.69681438D-03  0.89237942D-03
 -0.33593898D-17  0.17262947D-03 -0.97720495D-04 -0.26820744D-19 -0.26054019D-04
  0.15009290D-03 -0.13595460D-02  0.13860453D-02 -0.26499312D-04 -0.30546814D-17
 -0.24474430D-17 -0.48378527D-02  0.46277818D-03 -0.50281016D-03  0.40031978D-04
  0.15079934D-17  0.51772845D-19  0.17393253D-02  0.24224878D-03 -0.19024655D-03
 -0.52002227D-04  0.11855845D-17 -0.13245010D-17  0.54876261D-03 -0.44666089D-18
  0.26089985D-04 -0.23165311D-03  0.19532566D-17  0.11804646D-02 -0.15155291D-02
 -0.61327395D-18 -0.12587345D-02  0.22104885D-02 -0.45134029D-17  0.37658676D-18
 -0.18806902D-04  0.41438286D-03 -0.10334708D-17 -0.12981848D-02  0.12466337D-02
 -0.96289519D-19  0.13546055D-02 -0.24897823D-02  0.21705016D-17  0.28768896D-03
  0.53626468D-03  0.90910046D-03  0.13766460D-02  0.17215007D-02  0.14820517D-02
  0.56975480D-03 -0.24688408D-05 -0.26277189D-03 -0.49343907D-03 -0.84024163D-03
 -0.13162335D-02 -0.17639078D-02 -0.18973207D-02 -0.11391488D-02  0.74915220D-03
  0.24966820D-03  0.17021075D-02  0.12660349D-02 -0.88520805D-17 -0.86571414D-17
 -0.57201393D-17  0.15433697D-02  0.15093819D-02  0.99731243D-03  0.84398405D-03
  0.82539796D-03  0.54537533D-03 -0.21911317D-17  0.69681438D-03  0.89237942D-03
  0.55206198D-18 -0.17262947D-03 -0.97720495D-04  0.58891382D-18  0.26054019D-04
  0.15009290D-03 -0.13595460D-02  0.13860453D-02 -0.26499312D-04 -0.16647040D-18
  0.52769710D-18  0.48378527D-02  0.46277818D-03 -0.50281016D-03  0.40031978D-04
 -0.11498047D-17 -0.13638281D-17 -0.17393253D-02  0.24224878D-03 -0.19024655D-03
 -0.52002227D-04  0.78105242D-18  0.43169880D-18 -0.54876261D-03  0.70825288D-20
 -0.26089985D-04 -0.23165311D-03 -0.18607038D-18 -0.11804646D-02 -0.15155291D-02
  0.16482279D-18  0.12587345D-02  0.22104885D-02 -0.62206672D-17  0.28757260D-18
  0.18806902D-04  0.41438286D-03 -0.74736831D-18  0.12981848D-02  0.12466337D-02
 -0.11534948D-18 -0.13546055D-02 -0.24897823D-02  0.19527963D-17
MO    4     MO 0.0        OCC NO =    2.0000000  ORB. ENERGY =  -10.555635
  0.32999093D+00  0.61517813D+00  0.10397594D+01  0.15630990D+01  0.19204477D+01
  0.16221251D+01  0.61180590D+00 -0.30278615D-02 -0.29219730D-02 -0.54708553D-02
 -0.93145993D-02 -0.14408269D-01 -0.18975183D-01 -0.19716431D-01 -0.12528907D-01
  0.83965818D-02  0.33395515D-01  0.50700146D-02 -0.76257591D-04  0.62296247D-17
  0.58406691D-17  0.41589044D-17  0.11556961D-13  0.10835385D-13  0.77154400D-14
 -0.57589125D-03 -0.53993465D-03 -0.38446564D-03 -0.56112596D-18 -0.50817116D-13
 -0.21270899D-02 -0.12285935D-18 -0.42265780D-13 -0.36914280D-02 -0.35803379D-20
  0.13166524D-14 -0.37592333D-04 -0.48343774D-02  0.21463066D-02  0.26880708D-02
 -0.22884812D-17 -0.25979493D-17 -0.44013621D-14  0.36021460D-03 -0.51882477D-03
  0.15861017D-03  0.16081201D-18  0.35506200D-18 -0.79228251D-13  0.54437810D-04
 -0.38643733D-03  0.33199952D-03 -0.16071351D-19  0.22255674D-19 -0.27634770D-13
  0.73862476D-19 -0.69519004D-14 -0.12940966D-02 -0.96359860D-18  0.90162353D-14
 -0.20725522D-03  0.74201118D-18  0.11839466D-13  0.40895450D-02  0.43813228D-18
  0.18962060D-19 -0.59790397D-14  0.44337427D-03  0.56195932D-19  0.50100113D-14
  0.11596547D-03 -0.11308211D-18  0.12927108D-13 -0.14460883D-02 -0.20066534D-19
 -0.89831849D-03 -0.16746699D-02 -0.28304872D-02 -0.42551494D-02 -0.52279426D-02
 -0.44158333D-02 -0.16654899D-02  0.82426022D-05 -0.29260605D-03 -0.54785085D-03
 -0.93276295D-03 -0.14428425D-02 -0.19001728D-02 -0.19744012D-02 -0.12546433D-02
  0.84083279D-03  0.27444761D-02 -0.13254170D-01 -0.54284092D-03 -0.36196804D-18
 -0.33936805D-18 -0.24165027D-18  0.25426244D-14  0.23838720D-14  0.16974589D-14
  0.18597488D-02  0.17436327D-02  0.12415704D-02  0.18728098D-18 -0.24647213D-13
 -0.16467508D-02  0.12868885D-18 -0.18846465D-13 -0.29572693D-02  0.22335112D-20
 -0.16243318D-14 -0.92589278D-05  0.25469632D-03  0.84361829D-03 -0.10983146D-02
 -0.15653409D-19 -0.76195896D-18  0.13660754D-13  0.17632150D-02  0.35742961D-03
 -0.21206446D-02 -0.71551127D-19  0.30937697D-18 -0.46654104D-13  0.64044623D-04
  0.14351951D-03 -0.20756413D-03  0.76306224D-20  0.24311641D-19 -0.19981054D-13
  0.85616600D-19 -0.98112248D-17 -0.15924569D-02  0.12895494D-18  0.28114332D-14
  0.15523062D-02 -0.38580474D-18 -0.27819995D-14  0.32250644D-02  0.18459720D-18
 -0.11380512D-19  0.54109841D-14 -0.27086042D-03 -0.11312379D-20 -0.24674998D-14
  0.23013519D-03  0.35272775D-19 -0.13765452D-13  0.58244606D-03 -0.24350615D-19
  0.21163042D-03  0.38168417D-03  0.56279309D-03  0.11246175D-02  0.23103756D-02
  0.36992834D-04  0.44189491D-18  0.15006895D-02  0.55060347D-03  0.67092682D-19
  0.18564377D-02  0.13678301D-02  0.10319621D-19  0.21012472D-03 -0.36034600D-03
  0.16935615D-02 -0.20674725D-02  0.37391104D-03 -0.73895320D-18 -0.62128538D-18
 -0.41882499D-02  0.32753482D-03 -0.24259788D-03 -0.84936944D-04 -0.22487412D-19
  0.23612752D-19 -0.19382884D-03  0.21163042D-03  0.38168417D-03  0.56279309D-03
  0.11246175D-02  0.23103756D-02  0.36992834D-04  0.13093819D-18 -0.15006895D-02
  0.55060347D-03  0.95627547D-19 -0.18564377D-02  0.13678301D-02 -0.34534977D-19
 -0.21012472D-03 -0.36034600D-03  0.16935615D-02 -0.20674725D-02  0.37391104D-03
  0.13190701D-18 -0.25007345D-18  0.41882499D-02  0.32753482D-03 -0.24259788D-03