 Molden2AIM, Version 4.0.0 (06/02/2016)           Time: Thu Jun 28 03:21:29 2018
GAUSSIAN             21 MOL ORBITALS    504 PRIMITIVES        8 NUCLEI
  H    1    (CENTRE  1)   0.00000000  0.00000000 -4.44085072  CHARGE =  1.0
  H    2    (CENTRE  2)   0.00000000  0.00000000  4.44085072  CHARGE =  1.0
  C    3    (CENTRE  3)   0.00000000  0.00000000  2.38117964  CHARGE =  6.0
  C    4    (CENTRE  4)   0.00000000  0.00000000 -2.38117964  CHARGE =  6.0
  N    5    (CENTRE  5)   0.00000000  2.25199229  1.24185053  CHARGE =  7.0
  N    6    (CENTRE  6)   0.00000000 -2.25199229  1.24185053  CHARGE =  7.0
  N    7    (CENTRE  7)   0.00000000  2.25199229 -1.24185053  CHARGE =  7.0
  N    8    (CENTRE  8)   0.00000000 -2.25199229 -1.24185053  CHARGE =  7.0
CENTRE ASSIGNMENTS    1  1  1  1  1  1  1  1  1  1  1  1  1  1  1  1  1  1  1  1
CENTRE ASSIGNMENTS    1  1  1  1  1  1  1  2  2  2  2  2  2  2  2  2  2  2  2  2
CENTRE ASSIGNMENTS    2  2  2  2  2  2  2  2  2  2  2  2  2  2  3  3  3  3  3  3
CENTRE ASSIGNMENTS    3  3  3  3  3  3  3  3  3  3  3  3  3  3  3  3  3  3  3  3
CENTRE ASSIGNMENTS    3  3  3  3  3  3  3  3  3  3  3  3  3  3  3  3  3  3  3  3
CENTRE ASSIGNMENTS    3  3  3  3  3  3  3  3  3  3  3  3  3  3  3  3  3  3  3  3
CENTRE ASSIGNMENTS    3  3  3  3  3  3  3  3  3  4  4  4  4  4  4  4  4  4  4  4
CENTRE ASSIGNMENTS    4  4  4  4  4  4  4  4  4  4  4  4  4  4  4  4  4  4  4  4
CENTRE ASSIGNMENTS    4  4  4  4  4  4  4  4  4  4  4  4  4  4  4  4  4  4  4  4
CENTRE ASSIGNMENTS    4  4  4  4  4  4  4  4  4  4  4  4  4  4  4  4  4  4  4  4
CENTRE ASSIGNMENTS    4  4  4  4  5  5  5  5  5  5  5  5  5  5  5  5  5  5  5  5
CENTRE ASSIGNMENTS    5  5  5  5  5  5  5  5  5  5  5  5  5  5  5  5  5  5  5  5
CENTRE ASSIGNMENTS    5  5  5  5  5  5  5  5  5  5  5  5  5  5  5  5  5  5  5  5
CENTRE ASSIGNMENTS    5  5  5  5  5  5  5  5  5  5  5  5  5  5  5  5  5  5  5  6
CENTRE ASSIGNMENTS    6  6  6  6  6  6  6  6  6  6  6  6  6  6  6  6  6  6  6  6
CENTRE ASSIGNMENTS    6  6  6  6  6  6  6  6  6  6  6  6  6  6  6  6  6  6  6  6
CENTRE ASSIGNMENTS    6  6  6  6  6  6  6  6  6  6  6  6  6  6  6  6  6  6  6  6
CENTRE ASSIGNMENTS    6  6  6  6  6  6  6  6  6  6  6  6  6  6  7  7  7  7  7  7
CENTRE ASSIGNMENTS    7  7  7  7  7  7  7  7  7  7  7  7  7  7  7  7  7  7  7  7
CENTRE ASSIGNMENTS    7  7  7  7  7  7  7  7  7  7  7  7  7  7  7  7  7  7  7  7
CENTRE ASSIGNMENTS    7  7  7  7  7  7  7  7  7  7  7  7  7  7  7  7  7  7  7  7
CENTRE ASSIGNMENTS    7  7  7  7  7  7  7  7  7  8  8  8  8  8  8  8  8  8  8  8
CENTRE ASSIGNMENTS    8  8  8  8  8  8  8  8  8  8  8  8  8  8  8  8  8  8  8  8
CENTRE ASSIGNMENTS    8  8  8  8  8  8  8  8  8  8  8  8  8  8  8  8  8  8  8  8
CENTRE ASSIGNMENTS    8  8  8  8  8  8  8  8  8  8  8  8  8  8  8  8  8  8  8  8
CENTRE ASSIGNMENTS    8  8  8  8
TYPE ASSIGNMENTS      1  1  1  1  1  1  2  3  4  2  3  4  2  3  4  5  6  7  8  9
TYPE ASSIGNMENTS     10  5  6  7  8  9 10  1  1  1  1  1  1  2  3  4  2  3  4  2
TYPE ASSIGNMENTS      3  4  5  6  7  8  9 10  5  6  7  8  9 10  1  1  1  1  1  1
TYPE ASSIGNMENTS      1  1  1  1  1  1  1  1  1  1  1  1  1  2  2  2  3  3  3  4
TYPE ASSIGNMENTS      4  4  2  3  4  2  3  4  2  3  4  5  6  7  8  9 10  5  6  7
TYPE ASSIGNMENTS      8  9 10  5  6  7  8  9 10 11 12 13 17 14 15 18 19 16 20 11
TYPE ASSIGNMENTS     12 13 17 14 15 18 19 16 20  1  1  1  1  1  1  1  1  1  1  1
TYPE ASSIGNMENTS      1  1  1  1  1  1  1  1  2  2  2  3  3  3  4  4  4  2  3  4
TYPE ASSIGNMENTS      2  3  4  2  3  4  5  6  7  8  9 10  5  6  7  8  9 10  5  6
TYPE ASSIGNMENTS      7  8  9 10 11 12 13 17 14 15 18 19 16 20 11 12 13 17 14 15
TYPE ASSIGNMENTS     18 19 16 20  1  1  1  1  1  1  1  1  1  1  1  1  1  1  1  1
TYPE ASSIGNMENTS      1  1  1  2  2  2  3  3  3  4  4  4  2  3  4  2  3  4  2  3
TYPE ASSIGNMENTS      4  5  6  7  8  9 10  5  6  7  8  9 10  5  6  7  8  9 10 11
TYPE ASSIGNMENTS     12 13 17 14 15 18 19 16 20 11 12 13 17 14 15 18 19 16 20  1
TYPE ASSIGNMENTS      1  1  1  1  1  1  1  1  1  1  1  1  1  1  1  1  1  1  2  2
TYPE ASSIGNMENTS      2  3  3  3  4  4  4  2  3  4  2  3  4  2  3  4  5  6  7  8
TYPE ASSIGNMENTS      9 10  5  6  7  8  9 10  5  6  7  8  9 10 11 12 13 17 14 15
TYPE ASSIGNMENTS     18 19 16 20 11 12 13 17 14 15 18 19 16 20  1  1  1  1  1  1
TYPE ASSIGNMENTS      1  1  1  1  1  1  1  1  1  1  1  1  1  2  2  2  3  3  3  4
TYPE ASSIGNMENTS      4  4  2  3  4  2  3  4  2  3  4  5  6  7  8  9 10  5  6  7
TYPE ASSIGNMENTS      8  9 10  5  6  7  8  9 10 11 12 13 17 14 15 18 19 16 20 11
TYPE ASSIGNMENTS     12 13 17 14 15 18 19 16 20  1  1  1  1  1  1  1  1  1  1  1
TYPE ASSIGNMENTS      1  1  1  1  1  1  1  1  2  2  2  3  3  3  4  4  4  2  3  4
TYPE ASSIGNMENTS      2  3  4  2  3  4  5  6  7  8  9 10  5  6  7  8  9 10  5  6
TYPE ASSIGNMENTS      7  8  9 10 11 12 13 17 14 15 18 19 16 20 11 12 13 17 14 15
TYPE ASSIGNMENTS     18 19 16 20
EXPONENTS  0.3387000D+02 0.5095000D+01 0.1159000D+01 0.3258000D+00 0.1027000D+00
EXPONENTS  0.2526000D-01 0.1407000D+01 0.1407000D+01 0.1407000D+01 0.3880000D+00
EXPONENTS  0.3880000D+00 0.3880000D+00 0.1020000D+00 0.1020000D+00 0.1020000D+00
EXPONENTS  0.1057000D+01 0.1057000D+01 0.1057000D+01 0.1057000D+01 0.1057000D+01
EXPONENTS  0.1057000D+01 0.2470000D+00 0.2470000D+00 0.2470000D+00 0.2470000D+00
EXPONENTS  0.2470000D+00 0.2470000D+00 0.3387000D+02 0.5095000D+01 0.1159000D+01
EXPONENTS  0.3258000D+00 0.1027000D+00 0.2526000D-01 0.1407000D+01 0.1407000D+01
EXPONENTS  0.1407000D+01 0.3880000D+00 0.3880000D+00 0.3880000D+00 0.1020000D+00
EXPONENTS  0.1020000D+00 0.1020000D+00 0.1057000D+01 0.1057000D+01 0.1057000D+01
EXPONENTS  0.1057000D+01 0.1057000D+01 0.1057000D+01 0.2470000D+00 0.2470000D+00
EXPONENTS  0.2470000D+00 0.2470000D+00 0.2470000D+00 0.2470000D+00 0.8236000D+04
EXPONENTS  0.1235000D+04 0.2808000D+03 0.7927000D+02 0.2559000D+02 0.8997000D+01
EXPONENTS  0.3319000D+01 0.3643000D+00 0.8236000D+04 0.1235000D+04 0.2808000D+03
EXPONENTS  0.7927000D+02 0.2559000D+02 0.8997000D+01 0.3319000D+01 0.3643000D+00
EXPONENTS  0.9059000D+00 0.1285000D+00 0.4402000D-01 0.1871000D+02 0.4133000D+01
EXPONENTS  0.1200000D+01 0.1871000D+02 0.4133000D+01 0.1200000D+01 0.1871000D+02
EXPONENTS  0.4133000D+01 0.1200000D+01 0.3827000D+00 0.3827000D+00 0.3827000D+00
EXPONENTS  0.1209000D+00 0.1209000D+00 0.1209000D+00 0.3569000D-01 0.3569000D-01
EXPONENTS  0.3569000D-01 0.1097000D+01 0.1097000D+01 0.1097000D+01 0.1097000D+01
EXPONENTS  0.1097000D+01 0.1097000D+01 0.3180000D+00 0.3180000D+00 0.3180000D+00
EXPONENTS  0.3180000D+00 0.3180000D+00 0.3180000D+00 0.1000000D+00 0.1000000D+00
EXPONENTS  0.1000000D+00 0.1000000D+00 0.1000000D+00 0.1000000D+00 0.7610000D+00
EXPONENTS  0.7610000D+00 0.7610000D+00 0.7610000D+00 0.7610000D+00 0.7610000D+00
EXPONENTS  0.7610000D+00 0.7610000D+00 0.7610000D+00 0.7610000D+00 0.2680000D+00
EXPONENTS  0.2680000D+00 0.2680000D+00 0.2680000D+00 0.2680000D+00 0.2680000D+00
EXPONENTS  0.2680000D+00 0.2680000D+00 0.2680000D+00 0.2680000D+00 0.8236000D+04
EXPONENTS  0.1235000D+04 0.2808000D+03 0.7927000D+02 0.2559000D+02 0.8997000D+01
EXPONENTS  0.3319000D+01 0.3643000D+00 0.8236000D+04 0.1235000D+04 0.2808000D+03
EXPONENTS  0.7927000D+02 0.2559000D+02 0.8997000D+01 0.3319000D+01 0.3643000D+00
EXPONENTS  0.9059000D+00 0.1285000D+00 0.4402000D-01 0.1871000D+02 0.4133000D+01
EXPONENTS  0.1200000D+01 0.1871000D+02 0.4133000D+01 0.1200000D+01 0.1871000D+02
EXPONENTS  0.4133000D+01 0.1200000D+01 0.3827000D+00 0.3827000D+00 0.3827000D+00
EXPONENTS  0.1209000D+00 0.1209000D+00 0.1209000D+00 0.3569000D-01 0.3569000D-01
EXPONENTS  0.3569000D-01 0.1097000D+01 0.1097000D+01 0.1097000D+01 0.1097000D+01
EXPONENTS  0.1097000D+01 0.1097000D+01 0.3180000D+00 0.3180000D+00 0.3180000D+00
EXPONENTS  0.3180000D+00 0.3180000D+00 0.3180000D+00 0.1000000D+00 0.1000000D+00
EXPONENTS  0.1000000D+00 0.1000000D+00 0.1000000D+00 0.1000000D+00 0.7610000D+00
EXPONENTS  0.7610000D+00 0.7610000D+00 0.7610000D+00 0.7610000D+00 0.7610000D+00
EXPONENTS  0.7610000D+00 0.7610000D+00 0.7610000D+00 0.7610000D+00 0.2680000D+00
EXPONENTS  0.2680000D+00 0.2680000D+00 0.2680000D+00 0.2680000D+00 0.2680000D+00
EXPONENTS  0.2680000D+00 0.2680000D+00 0.2680000D+00 0.2680000D+00 0.1142000D+05
EXPONENTS  0.1712000D+04 0.3893000D+03 0.1100000D+03 0.3557000D+02 0.1254000D+02
EXPONENTS  0.4644000D+01 0.5118000D+00 0.1142000D+05 0.1712000D+04 0.3893000D+03
EXPONENTS  0.1100000D+03 0.3557000D+02 0.1254000D+02 0.4644000D+01 0.5118000D+00
EXPONENTS  0.1293000D+01 0.1787000D+00 0.5760000D-01 0.2663000D+02 0.5948000D+01
EXPONENTS  0.1742000D+01 0.2663000D+02 0.5948000D+01 0.1742000D+01 0.2663000D+02
EXPONENTS  0.5948000D+01 0.1742000D+01 0.5550000D+00 0.5550000D+00 0.5550000D+00
EXPONENTS  0.1725000D+00 0.1725000D+00 0.1725000D+00 0.4910000D-01 0.4910000D-01
EXPONENTS  0.4910000D-01 0.1654000D+01 0.1654000D+01 0.1654000D+01 0.1654000D+01
EXPONENTS  0.1654000D+01 0.1654000D+01 0.4690000D+00 0.4690000D+00 0.4690000D+00
EXPONENTS  0.4690000D+00 0.4690000D+00 0.4690000D+00 0.1510000D+00 0.1510000D+00
EXPONENTS  0.1510000D+00 0.1510000D+00 0.1510000D+00 0.1510000D+00 0.1093000D+01
EXPONENTS  0.1093000D+01 0.1093000D+01 0.1093000D+01 0.1093000D+01 0.1093000D+01
EXPONENTS  0.1093000D+01 0.1093000D+01 0.1093000D+01 0.1093000D+01 0.3640000D+00
EXPONENTS  0.3640000D+00 0.3640000D+00 0.3640000D+00 0.3640000D+00 0.3640000D+00
EXPONENTS  0.3640000D+00 0.3640000D+00 0.3640000D+00 0.3640000D+00 0.1142000D+05
EXPONENTS  0.1712000D+04 0.3893000D+03 0.1100000D+03 0.3557000D+02 0.1254000D+02
EXPONENTS  0.4644000D+01 0.5118000D+00 0.1142000D+05 0.1712000D+04 0.3893000D+03
EXPONENTS  0.1100000D+03 0.3557000D+02 0.1254000D+02 0.4644000D+01 0.5118000D+00
EXPONENTS  0.1293000D+01 0.1787000D+00 0.5760000D-01 0.2663000D+02 0.5948000D+01
EXPONENTS  0.1742000D+01 0.2663000D+02 0.5948000D+01 0.1742000D+01 0.2663000D+02
EXPONENTS  0.5948000D+01 0.1742000D+01 0.5550000D+00 0.5550000D+00 0.5550000D+00
EXPONENTS  0.1725000D+00 0.1725000D+00 0.1725000D+00 0.4910000D-01 0.4910000D-01
EXPONENTS  0.4910000D-01 0.1654000D+01 0.1654000D+01 0.1654000D+01 0.1654000D+01
EXPONENTS  0.1654000D+01 0.1654000D+01 0.4690000D+00 0.4690000D+00 0.4690000D+00
EXPONENTS  0.4690000D+00 0.4690000D+00 0.4690000D+00 0.1510000D+00 0.1510000D+00
EXPONENTS  0.1510000D+00 0.1510000D+00 0.1510000D+00 0.1510000D+00 0.1093000D+01
EXPONENTS  0.1093000D+01 0.1093000D+01 0.1093000D+01 0.1093000D+01 0.1093000D+01
EXPONENTS  0.1093000D+01 0.1093000D+01 0.1093000D+01 0.1093000D+01 0.3640000D+00
EXPONENTS  0.3640000D+00 0.3640000D+00 0.3640000D+00 0.3640000D+00 0.3640000D+00
EXPONENTS  0.3640000D+00 0.3640000D+00 0.3640000D+00 0.3640000D+00 0.1142000D+05
EXPONENTS  0.1712000D+04 0.3893000D+03 0.1100000D+03 0.3557000D+02 0.1254000D+02
EXPONENTS  0.4644000D+01 0.5118000D+00 0.1142000D+05 0.1712000D+04 0.3893000D+03
EXPONENTS  0.1100000D+03 0.3557000D+02 0.1254000D+02 0.4644000D+01 0.5118000D+00
EXPONENTS  0.1293000D+01 0.1787000D+00 0.5760000D-01 0.2663000D+02 0.5948000D+01
EXPONENTS  0.1742000D+01 0.2663000D+02 0.5948000D+01 0.1742000D+01 0.2663000D+02
EXPONENTS  0.5948000D+01 0.1742000D+01 0.5550000D+00 0.5550000D+00 0.5550000D+00
EXPONENTS  0.1725000D+00 0.1725000D+00 0.1725000D+00 0.4910000D-01 0.4910000D-01
EXPONENTS  0.4910000D-01 0.1654000D+01 0.1654000D+01 0.1654000D+01 0.1654000D+01
EXPONENTS  0.1654000D+01 0.1654000D+01 0.4690000D+00 0.4690000D+00 0.4690000D+00
EXPONENTS  0.4690000D+00 0.4690000D+00 0.4690000D+00 0.1510000D+00 0.1510000D+00
EXPONENTS  0.1510000D+00 0.1510000D+00 0.1510000D+00 0.1510000D+00 0.1093000D+01
EXPONENTS  0.1093000D+01 0.1093000D+01 0.1093000D+01 0.1093000D+01 0.1093000D+01
EXPONENTS  0.1093000D+01 0.1093000D+01 0.1093000D+01 0.1093000D+01 0.3640000D+00
EXPONENTS  0.3640000D+00 0.3640000D+00 0.3640000D+00 0.3640000D+00 0.3640000D+00
EXPONENTS  0.3640000D+00 0.3640000D+00 0.3640000D+00 0.3640000D+00 0.1142000D+05
EXPONENTS  0.1712000D+04 0.3893000D+03 0.1100000D+03 0.3557000D+02 0.1254000D+02
EXPONENTS  0.4644000D+01 0.5118000D+00 0.1142000D+05 0.1712000D+04 0.3893000D+03
EXPONENTS  0.1100000D+03 0.3557000D+02 0.1254000D+02 0.4644000D+01 0.5118000D+00
EXPONENTS  0.1293000D+01 0.1787000D+00 0.5760000D-01 0.2663000D+02 0.5948000D+01
EXPONENTS  0.1742000D+01 0.2663000D+02 0.5948000D+01 0.1742000D+01 0.2663000D+02
EXPONENTS  0.5948000D+01 0.1742000D+01 0.5550000D+00 0.5550000D+00 0.5550000D+00
EXPONENTS  0.1725000D+00 0.1725000D+00 0.1725000D+00 0.4910000D-01 0.4910000D-01
EXPONENTS  0.4910000D-01 0.1654000D+01 0.1654000D+01 0.1654000D+01 0.1654000D+01
EXPONENTS  0.1654000D+01 0.1654000D+01 0.4690000D+00 0.4690000D+00 0.4690000D+00
EXPONENTS  0.4690000D+00 0.4690000D+00 0.4690000D+00 0.1510000D+00 0.1510000D+00
EXPONENTS  0.1510000D+00 0.1510000D+00 0.1510000D+00 0.1510000D+00 0.1093000D+01
EXPONENTS  0.1093000D+01 0.1093000D+01 0.1093000D+01 0.1093000D+01 0.1093000D+01
EXPONENTS  0.1093000D+01 0.1093000D+01 0.1093000D+01 0.1093000D+01 0.3640000D+00
EXPONENTS  0.3640000D+00 0.3640000D+00 0.3640000D+00 0.3640000D+00 0.3640000D+00
EXPONENTS  0.3640000D+00 0.3640000D+00 0.3640000D+00 0.3640000D+00
MO    1     MO 0.0        OCC NO =    2.0000000  ORB. ENERGY =  -14.839944
  0.91030709D-13  0.16417763D-12  0.24207982D-12  0.21301657D-11  0.21232587D-11
  0.57547585D-13  0.81138719D-16 -0.20748012D-03  0.54571328D-12 -0.24848138D-16
  0.13138257D-04 -0.15440090D-12  0.14000481D-17  0.42541308D-04  0.25146083D-12
  0.33035682D-12 -0.13298769D-12 -0.19736913D-12 -0.72659932D-16 -0.58882534D-17
 -0.73121994D-05  0.86835640D-13  0.35102697D-13 -0.12193834D-12 -0.87886940D-17
  0.63259806D-17  0.14246747D-03  0.92403351D-13  0.16665325D-12  0.24573012D-12
  0.22554833D-11  0.22691425D-11  0.60540167D-13  0.16744320D-15 -0.20748012D-03
 -0.55135768D-12 -0.25024111D-16  0.13138256D-04  0.13968280D-12  0.92889468D-17
  0.42541308D-04 -0.25640424D-12  0.33864642D-12 -0.13641714D-12 -0.20222927D-12
 -0.10283795D-15  0.69196483D-16  0.73121999D-05  0.91006149D-13  0.32492023D-13
 -0.12349817D-12  0.31451100D-16 -0.30813844D-17 -0.14246747D-03  0.50236516D-12
  0.93652287D-12  0.15828886D-11  0.23796001D-11  0.29236137D-11  0.24694591D-11
  0.93138913D-12 -0.46094968D-14 -0.38782007D-12 -0.72612153D-12 -0.12362840D-11
 -0.19123434D-11 -0.25184890D-11 -0.26168714D-11 -0.16629043D-11  0.11144398D-11
  0.14115234D-11 -0.43985921D-11 -0.23207180D-12  0.34917231D-17  0.32737124D-17
  0.23310782D-17 -0.70264415D-03 -0.65877355D-03 -0.46908601D-03 -0.74954349D-12
 -0.70274467D-12 -0.50039607D-12 -0.87162804D-18 -0.24917897D-02  0.62385265D-12
 -0.27108425D-17  0.40012111D-03 -0.93654164D-12  0.19342026D-18 -0.26507724D-04
 -0.43814224D-13 -0.39821241D-12  0.46508852D-12 -0.66876114D-13 -0.30224069D-17
  0.55538899D-17  0.10137995D-02  0.66585253D-12 -0.17951382D-12 -0.48633871D-12
  0.77604767D-17 -0.51114023D-17 -0.20555719D-04  0.51446566D-13  0.30578652D-14
 -0.54504431D-13  0.17001687D-17 -0.55020159D-18 -0.15352709D-03 -0.22592513D-17
 -0.34231326D-03 -0.27504276D-12  0.16459436D-17 -0.12663419D-03 -0.73045624D-12
  0.51318104D-17  0.11535740D-02  0.15555845D-11  0.45941946D-17  0.77604243D-18
  0.57150238D-04 -0.25073507D-12 -0.20930476D-18 -0.25232533D-03  0.19377100D-12
 -0.21188225D-17  0.80874614D-04  0.55843423D-12 -0.55601593D-17  0.50095554D-12
  0.93389503D-12  0.15784471D-11  0.23729230D-11  0.29154101D-11  0.24625299D-11
  0.92877568D-12 -0.45965627D-14 -0.38650892D-12 -0.72366665D-12 -0.12321044D-11
 -0.19058782D-11 -0.25099745D-11 -0.26080243D-11 -0.16572823D-11  0.11106721D-11
  0.13880061D-11 -0.43103519D-11 -0.37942561D-12  0.46330176D-17  0.43437485D-17
  0.30930077D-17 -0.70264415D-03 -0.65877355D-03 -0.46908601D-03  0.74090939D-12
  0.69464965D-12  0.49463193D-12 -0.22729517D-17 -0.24917897D-02 -0.56645402D-12
 -0.75007017D-18  0.40012110D-03  0.94622259D-12 -0.18253641D-18 -0.26507724D-04
  0.36502756D-13 -0.39792223D-12  0.47308267D-12 -0.75160446D-13  0.67926185D-18
  0.18483466D-17 -0.10137995D-02  0.64827491D-12 -0.20100132D-12 -0.44727359D-12
 -0.77483595D-18  0.85575068D-18  0.20555721D-04  0.46899805D-13 -0.13806385D-13
 -0.33093420D-13 -0.20309330D-18  0.29956245D-18  0.15352709D-03  0.13438301D-17
 -0.34231326D-03  0.27560824D-12  0.71142813D-19 -0.12663419D-03  0.72218940D-12
 -0.41026332D-17  0.11535740D-02 -0.15490141D-11 -0.41005465D-17  0.25866045D-19
  0.57150238D-04  0.23603177D-12 -0.18401827D-19 -0.25232533D-03 -0.18704854D-12
 -0.59196309D-19  0.80874614D-04 -0.52104675D-12  0.27614612D-17 -0.20627775D+00
 -0.38436821D+00 -0.65006301D+00 -0.97895887D+00 -0.12120146D+01 -0.10313697D+01
 -0.39245520D+00  0.18380351D-02  0.62433454D-03  0.11706331D-02  0.19915952D-02
  0.30927371D-02  0.41042419D-02  0.43253076D-02  0.26819667D-02 -0.17840453D-02
 -0.20620387D-01 -0.40107744D-03  0.40639723D-03 -0.26752746D-17 -0.25695693D-17
 -0.18019593D-17  0.38077737D-02  0.36573211D-02  0.25647660D-02  0.27188458D-02
  0.26114189D-02  0.18313072D-02 -0.65731258D-18 -0.74670057D-03  0.15567677D-02
 -0.92946521D-17 -0.50547341D-03 -0.52261416D-03 -0.95196531D-18 -0.16849262D-04
  0.39253058D-04  0.12795107D-02  0.91968954D-03 -0.21992002D-02 -0.85628234D-17
  0.48677327D-17  0.20445472D-02 -0.62364040D-03 -0.95953418D-04  0.71959381D-03
  0.68023074D-17 -0.90959290D-18 -0.11668054D-02 -0.13921802D-03 -0.25122711D-04
  0.16434073D-03  0.15103879D-17  0.71718744D-18 -0.13196382D-03  0.90923794D-18
  0.17665118D-03 -0.16461779D-03  0.54746657D-17  0.10613162D-03  0.70473396D-04
 -0.82023795D-17 -0.63608516D-03  0.42337998D-03 -0.21231911D-17 -0.47558855D-19
  0.34108676D-05 -0.37768917D-03 -0.25143604D-17  0.66929574D-04  0.40593241D-03
  0.26570370D-17 -0.77162177D-04  0.72713509D-03  0.20245242D-17  0.20627775D+00
  0.38436821D+00  0.65006301D+00  0.97895887D+00  0.12120146D+01  0.10313697D+01
  0.39245520D+00 -0.18380351D-02 -0.62433454D-03 -0.11706331D-02 -0.19915952D-02
 -0.30927371D-02 -0.41042420D-02 -0.43253076D-02 -0.26819667D-02  0.17840453D-02
  0.20620387D-01  0.40107744D-03 -0.40639723D-03 -0.77900817D-17 -0.74822804D-17
 -0.52470915D-17  0.38077737D-02  0.36573211D-02  0.25647660D-02 -0.27188458D-02
 -0.26114189D-02 -0.18313072D-02  0.57351793D-17 -0.74670057D-03 -0.15567677D-02
  0.48363416D-17 -0.50547340D-03  0.52261416D-03  0.15292775D-18 -0.16849262D-04
 -0.39253058D-04 -0.12795107D-02 -0.91968954D-03  0.21992002D-02 -0.13007796D-16
  0.37796623D-17  0.20445472D-02  0.62364040D-03  0.95953418D-04 -0.71959382D-03
  0.58706093D-17 -0.21118786D-17 -0.11668054D-02  0.13921802D-03  0.25122712D-04
 -0.16434073D-03  0.94182058D-18  0.10504143D-17 -0.13196382D-03 -0.52673236D-18
  0.17665118D-03  0.16461779D-03 -0.45839900D-17  0.10613162D-03 -0.70473397D-04
  0.61641871D-17 -0.63608516D-03 -0.42337998D-03  0.12326511D-17  0.37278485D-18
  0.34108677D-05  0.37768917D-03  0.96941686D-18  0.66929575D-04 -0.40593241D-03
 -0.20877714D-17 -0.77162178D-04 -0.72713509D-03 -0.23622375D-18 -0.20627775D+00
 -0.38436821D+00 -0.65006301D+00 -0.97895887D+00 -0.12120146D+01 -0.10313697D+01
 -0.39245520D+00  0.18380351D-02  0.62433454D-03  0.11706331D-02  0.19915952D-02
  0.30927371D-02  0.41042419D-02  0.43253076D-02  0.26819667D-02 -0.17840453D-02
 -0.20620387D-01 -0.40107745D-03  0.40639723D-03  0.63737069D-17  0.61218693D-17
  0.42930773D-17  0.38077737D-02  0.36573211D-02  0.25647660D-02 -0.27188458D-02
 -0.26114189D-02 -0.18313072D-02 -0.78797820D-17 -0.74670057D-03 -0.15567677D-02
  0.34677582D-17 -0.50547341D-03  0.52261415D-03  0.73178492D-18 -0.16849262D-04
 -0.39253057D-04  0.12795107D-02  0.91968954D-03 -0.21992002D-02 -0.23897583D-17
 -0.19382348D-17 -0.20445472D-02 -0.62364040D-03 -0.95953418D-04  0.71959381D-03
 -0.10445662D-17 -0.93076908D-18  0.11668054D-02 -0.13921802D-03 -0.25122711D-04
  0.16434073D-03 -0.91166422D-19  0.13466701D-17  0.13196382D-03  0.22854459D-18
  0.17665118D-03  0.16461779D-03 -0.34905336D-18  0.10613162D-03 -0.70473397D-04
 -0.33658040D-18 -0.63608516D-03 -0.42337998D-03 -0.12140280D-17 -0.53990418D-18
  0.34108679D-05  0.37768917D-03  0.19376681D-18  0.66929574D-04 -0.40593241D-03
  0.14259457D-17 -0.77162178D-04 -0.72713509D-03  0.70578392D-18  0.20627775D+00
  0.38436821D+00  0.65006301D+00  0.97895887D+00  0.12120146D+01  0.10313697D+01
  0.39245520D+00 -0.18380351D-02 -0.62433454D-03 -0.11706331D-02 -0.19915952D-02
 -0.30927371D-02 -0.41042420D-02 -0.43253076D-02 -0.26819667D-02  0.17840453D-02
  0.20620387D-01  0.40107745D-03 -0.40639723D-03 -0.13257630D-16 -0.12733795D-16
 -0.89298163D-17  0.38077737D-02  0.36573211D-02  0.25647660D-02  0.27188458D-02
  0.26114189D-02  0.18313072D-02  0.47652697D-17 -0.74670057D-03  0.15567677D-02
  0.62705526D-18 -0.50547341D-03 -0.52261415D-03  0.24888057D-19 -0.16849262D-04
  0.39253057D-04 -0.12795107D-02 -0.91968954D-03  0.21992002D-02 -0.13013796D-16
  0.60598901D-17 -0.20445472D-02  0.62364040D-03  0.95953418D-04 -0.71959382D-03
  0.31408042D-17 -0.81221991D-18  0.11668054D-02  0.13921802D-03  0.25122711D-04
 -0.16434073D-03 -0.31468282D-18  0.93673546D-18  0.13196382D-03 -0.40101079D-19
  0.17665118D-03 -0.16461779D-03 -0.12464574D-17  0.10613162D-03  0.70473398D-04
  0.13667606D-17 -0.63608516D-03  0.42337998D-03 -0.79048035D-17  0.86153660D-19
  0.34108679D-05 -0.37768917D-03  0.23147283D-18  0.66929575D-04  0.40593241D-03
 -0.48993381D-18 -0.77162178D-04  0.72713509D-03  0.22240804D-17
MO    2     MO 0.0        OCC NO =    2.0000000  ORB. ENERGY =  -14.839920
  0.90238508D-04  0.16274887D-03  0.23997311D-03  0.24985308D-02  0.24887749D-02
  0.37279389D-04  0.61544102D-16  0.22018885D-12  0.58063239D-03 -0.82967932D-17
 -0.56128387D-13 -0.57935097D-05  0.17081286D-17 -0.71210376D-13  0.30760610D-03
  0.32661367D-03 -0.16601984D-03 -0.16059384D-03  0.38719925D-15  0.21788212D-15
  0.49715270D-15  0.83495802D-04  0.25127953D-04 -0.10862375D-03 -0.58798265D-16
  0.12156284D-17 -0.16121637D-12  0.90238508D-04  0.16274887D-03  0.23997311D-03
  0.24985308D-02  0.24887749D-02  0.37279389D-04 -0.17546389D-18  0.22203081D-12
 -0.58063239D-03  0.71099709D-18 -0.40898645D-13  0.57935116D-05  0.29492462D-18
 -0.59583202D-13 -0.30760610D-03  0.32661367D-03 -0.16601984D-03 -0.16059384D-03
 -0.74265978D-19 -0.81642079D-18 -0.17933630D-13  0.83495802D-04  0.25127953D-04
 -0.10862375D-03 -0.62306875D-18 -0.32339371D-18  0.15932557D-12  0.52972788D-03
  0.98753321D-03  0.16691051D-02  0.25092117D-02  0.30828565D-02  0.26039651D-02
  0.98211984D-03 -0.48605659D-05 -0.40683834D-03 -0.76172973D-03 -0.12969100D-02
 -0.20061226D-02 -0.26419929D-02 -0.27451999D-02 -0.17444513D-02  0.11690907D-02
  0.13977469D-02 -0.39639505D-02 -0.12981258D-04 -0.13250206D-17 -0.12422911D-17
 -0.88458524D-18  0.74011013D-12  0.69390030D-12  0.49409835D-12 -0.68159944D-03
 -0.63904280D-03 -0.45503654D-03  0.54524331D-19  0.22639538D-11  0.36517655D-03
  0.12934870D-17 -0.44505050D-12 -0.11537596D-02  0.22684954D-18  0.22277941D-13
 -0.34100345D-04 -0.39698036D-03  0.50375283D-03 -0.10677247D-03  0.16960557D-17
  0.28405515D-17 -0.93639139D-12  0.64025178D-03 -0.70569439D-04 -0.56968234D-03
  0.36364571D-17 -0.31244654D-17  0.12592571D-12  0.43652981D-04  0.15866460D-04
 -0.59519442D-04  0.55804421D-18 -0.37545667D-18  0.15881729D-12 -0.39116078D-18
  0.32910202D-12 -0.27435430D-03  0.72684442D-18  0.16547178D-12 -0.71096343D-03
  0.44663794D-18 -0.11527779D-11  0.15340263D-02 -0.70649586D-18 -0.95933897D-19
 -0.53829923D-13 -0.25705246D-03 -0.12932124D-18  0.24606327D-12  0.20993217D-03
  0.41712294D-18 -0.84573504D-13  0.56122521D-03  0.12878744D-18  0.52972788D-03
  0.98753321D-03  0.16691051D-02  0.25092117D-02  0.30828565D-02  0.26039651D-02
  0.98211984D-03 -0.48605659D-05 -0.40683834D-03 -0.76172973D-03 -0.12969100D-02
 -0.20061226D-02 -0.26419929D-02 -0.27451999D-02 -0.17444513D-02  0.11690907D-02
  0.13977469D-02 -0.39639505D-02 -0.12981247D-04 -0.22894246D-17 -0.21464811D-17
 -0.15284224D-17  0.75959250D-12  0.71216626D-12  0.50710480D-12  0.68159944D-03
  0.63904280D-03  0.45503654D-03  0.93258284D-18  0.22315996D-11 -0.36517655D-03
 -0.15114043D-17 -0.51184135D-12  0.11537596D-02 -0.21990845D-18  0.26974649D-13
  0.34100345D-04 -0.39698036D-03  0.50375283D-03 -0.10677247D-03 -0.67531308D-18
 -0.39563258D-17  0.93395180D-12  0.64025178D-03 -0.70569437D-04 -0.56968234D-03
 -0.94433304D-18  0.15419849D-17 -0.15378148D-12  0.43652981D-04  0.15866461D-04
 -0.59519443D-04 -0.12483432D-17 -0.39852064D-18 -0.17945155D-12 -0.13203711D-17
  0.32095364D-12  0.27435430D-03  0.12975570D-17  0.17539207D-12  0.71096343D-03
  0.26635563D-17 -0.11382530D-11 -0.15340263D-02  0.15968360D-17  0.32039305D-18
 -0.56688849D-13  0.25705246D-03  0.89388875D-18  0.24817597D-12 -0.20993217D-03
 -0.18550679D-17 -0.78109427D-13 -0.56122521D-03 -0.29536811D-17  0.20631861D+00
  0.38444434D+00  0.65019176D+00  0.97915277D+00  0.12122546D+01  0.10315740D+01
  0.39253293D+00 -0.18383992D-02 -0.64674159D-03 -0.12126465D-02 -0.20630725D-02
 -0.32037338D-02 -0.42515411D-02 -0.44805407D-02 -0.27782211D-02  0.18480737D-02
  0.20310051D-01  0.76868417D-03 -0.30898009D-03  0.18653191D-17  0.17916167D-17
  0.12564053D-17 -0.32815975D-02 -0.31519352D-02 -0.22103545D-02 -0.29823550D-02
 -0.28645163D-02 -0.20087966D-02  0.15567082D-17 -0.57597848D-03 -0.39129593D-03
 -0.37127663D-17  0.33305994D-04  0.47275412D-03 -0.65058404D-18  0.24809174D-04
  0.16109042D-04 -0.16242864D-02 -0.31296981D-03  0.19372562D-02 -0.68823098D-17
  0.14473627D-17 -0.15496382D-02  0.53975908D-03  0.19319081D-03 -0.73294989D-03
  0.49874610D-17 -0.33597666D-17  0.23389572D-03  0.70668729D-04  0.34188470D-04
 -0.10485720D-03  0.46397124D-18  0.14353051D-18  0.94412458D-05 -0.92075888D-19
 -0.67572570D-04  0.18643643D-03 -0.51481807D-18  0.39758617D-04 -0.49695555D-03
  0.79104573D-18  0.16295909D-03 -0.62353748D-04 -0.70029655D-17  0.68700909D-20
 -0.54088232D-05  0.15326523D-03 -0.41526730D-18 -0.15527044D-03 -0.15337008D-03
  0.39465703D-18  0.17149691D-03 -0.30642561D-03  0.95310146D-18  0.20631861D+00
  0.38444434D+00  0.65019176D+00  0.97915276D+00  0.12122546D+01  0.10315740D+01
  0.39253293D+00 -0.18383992D-02 -0.64674159D-03 -0.12126465D-02 -0.20630725D-02
 -0.32037338D-02 -0.42515411D-02 -0.44805407D-02 -0.27782211D-02  0.18480737D-02
  0.20310051D-01  0.76868417D-03 -0.30898009D-03  0.87838237D-18  0.84367577D-18
  0.59164369D-18  0.32815975D-02  0.31519352D-02  0.22103545D-02 -0.29823550D-02
 -0.28645163D-02 -0.20087966D-02 -0.19527611D-17  0.57597848D-03 -0.39129593D-03
 -0.58916447D-18 -0.33305993D-04  0.47275412D-03 -0.33644557D-18 -0.24809174D-04
  0.16109042D-04 -0.16242864D-02 -0.31296981D-03  0.19372562D-02 -0.17336863D-17
 -0.11692450D-17  0.15496382D-02  0.53975908D-03  0.19319081D-03 -0.73294989D-03
 -0.71115830D-18  0.25566083D-17 -0.23389572D-03  0.70668729D-04  0.34188470D-04
 -0.10485720D-03 -0.95165212D-18  0.10896790D-17 -0.94412455D-05 -0.90082155D-19
  0.67572570D-04  0.18643643D-03 -0.17674298D-18 -0.39758617D-04 -0.49695555D-03
  0.44698944D-18 -0.16295909D-03 -0.62353747D-04 -0.10318188D-16 -0.53256762D-19
  0.54088232D-05  0.15326523D-03  0.78203032D-19  0.15527044D-03 -0.15337007D-03
  0.81567253D-19 -0.17149691D-03 -0.30642561D-03  0.63561739D-17  0.20631861D+00
  0.38444434D+00  0.65019176D+00  0.97915277D+00  0.12122546D+01  0.10315740D+01
  0.39253293D+00 -0.18383992D-02 -0.64674159D-03 -0.12126465D-02 -0.20630725D-02
 -0.32037338D-02 -0.42515411D-02 -0.44805407D-02 -0.27782211D-02  0.18480737D-02
  0.20310051D-01  0.76868419D-03 -0.30898010D-03  0.12143783D-16  0.11663958D-16
  0.81795727D-17 -0.32815975D-02 -0.31519352D-02 -0.22103545D-02  0.29823550D-02
  0.28645163D-02  0.20087966D-02 -0.24412506D-17 -0.57597848D-03  0.39129593D-03
  0.30039155D-17  0.33305993D-04 -0.47275411D-03  0.74200796D-18  0.24809175D-04
 -0.16109041D-04 -0.16242864D-02 -0.31296981D-03  0.19372562D-02  0.44020828D-17
  0.65148727D-17  0.15496382D-02  0.53975908D-03  0.19319081D-03 -0.73294989D-03
 -0.26718835D-17 -0.94653383D-18 -0.23389572D-03  0.70668729D-04  0.34188470D-04
 -0.10485720D-03 -0.35758543D-18  0.14661588D-17 -0.94412469D-05 -0.12222349D-17
 -0.67572570D-04 -0.18643643D-03  0.18616204D-17  0.39758618D-04  0.49695555D-03
  0.18050842D-17  0.16295909D-03  0.62353748D-04  0.27196801D-17  0.59462181D-18
 -0.54088237D-05 -0.15326523D-03  0.19721019D-18 -0.15527044D-03  0.15337007D-03
 -0.19810756D-17  0.17149691D-03  0.30642561D-03 -0.33973904D-17  0.20631861D+00
  0.38444434D+00  0.65019176D+00  0.97915276D+00  0.12122546D+01  0.10315740D+01
  0.39253293D+00 -0.18383992D-02 -0.64674159D-03 -0.12126465D-02 -0.20630725D-02
 -0.32037338D-02 -0.42515411D-02 -0.44805407D-02 -0.27782211D-02  0.18480737D-02
  0.20310051D-01  0.76868418D-03 -0.30898010D-03 -0.75268163D-18 -0.72294170D-18
 -0.50697662D-18  0.32815975D-02  0.31519352D-02  0.22103545D-02  0.29823550D-02
  0.28645163D-02  0.20087966D-02 -0.15861455D-17  0.57597848D-03  0.39129593D-03
 -0.22284631D-19 -0.33305993D-04 -0.47275410D-03  0.22422790D-18 -0.24809175D-04
 -0.16109041D-04 -0.16242864D-02 -0.31296981D-03  0.19372562D-02 -0.90254310D-18
 -0.43854605D-17 -0.15496382D-02  0.53975908D-03  0.19319081D-03 -0.73294989D-03
 -0.23676338D-19  0.13418596D-17  0.23389572D-03  0.70668729D-04  0.34188469D-04
 -0.10485720D-03  0.54205547D-18  0.89037368D-18  0.94412467D-05  0.26269991D-17
  0.67572570D-04 -0.18643643D-03 -0.69740528D-17 -0.39758618D-04  0.49695555D-03
 -0.90694434D-18 -0.16295909D-03  0.62353747D-04 -0.88876244D-17 -0.23177618D-18
  0.54088236D-05 -0.15326523D-03 -0.49864019D-18  0.15527044D-03  0.15337007D-03
  0.11939687D-17 -0.17149691D-03  0.30642561D-03  0.56341429D-17
MO    3     MO 0.0        OCC NO =    2.0000000  ORB. ENERGY =  -14.839387
 -0.13305898D-03 -0.23997736D-03 -0.35384647D-03 -0.37130410D-02 -0.29709477D-02
  0.26194865D-04 -0.43885613D-16 -0.58612837D-13 -0.58880720D-03 -0.28773676D-16
 -0.11649965D-11 -0.82082336D-04  0.55037510D-17 -0.29967165D-12 -0.46813074D-03
 -0.36867356D-03  0.44170062D-03 -0.73027059D-04  0.64285790D-16  0.33631596D-16