 Molden2AIM, Version 4.0.0 (06/02/2016)           Time: Thu Jun 28 04:11:54 2018
GAUSSIAN             12 MOL ORBITALS    306 PRIMITIVES        6 NUCLEI
  C    1    (CENTRE  1)  -0.00000189  0.03286045  1.33543166  CHARGE =  6.0
  C    2    (CENTRE  2)  -0.00000756  0.10903153 -1.16721769  CHARGE =  6.0
  H    3    (CENTRE  3)   0.00000378  1.80200126  2.38227568  CHARGE =  1.0
  H    4    (CENTRE  4)   0.00000000 -1.74889806  2.36391699  CHARGE =  1.0
  H    5    (CENTRE  5)   0.00000189  1.81116643 -2.32975641  CHARGE =  1.0
  F    6    (CENTRE  6)   0.00000378 -2.00616160 -2.58465023  CHARGE =  9.0
CENTRE ASSIGNMENTS    1  1  1  1  1  1  1  1  1  1  1  1  1  1  1  1  1  1  1  1
CENTRE ASSIGNMENTS    1  1  1  1  1  1  1  1  1  1  1  1  1  1  1  1  1  1  1  1
CENTRE ASSIGNMENTS    1  1  1  1  1  1  1  1  1  1  1  1  1  1  1  1  1  1  1  1
CENTRE ASSIGNMENTS    1  1  1  1  1  1  1  1  1  1  1  1  1  1  1  2  2  2  2  2
CENTRE ASSIGNMENTS    2  2  2  2  2  2  2  2  2  2  2  2  2  2  2  2  2  2  2  2
CENTRE ASSIGNMENTS    2  2  2  2  2  2  2  2  2  2  2  2  2  2  2  2  2  2  2  2
CENTRE ASSIGNMENTS    2  2  2  2  2  2  2  2  2  2  2  2  2  2  2  2  2  2  2  2
CENTRE ASSIGNMENTS    2  2  2  2  2  2  2  2  2  2  3  3  3  3  3  3  3  3  3  3
CENTRE ASSIGNMENTS    3  3  3  3  3  3  3  3  3  3  3  3  3  3  3  3  3  4  4  4
CENTRE ASSIGNMENTS    4  4  4  4  4  4  4  4  4  4  4  4  4  4  4  4  4  4  4  4
CENTRE ASSIGNMENTS    4  4  4  4  5  5  5  5  5  5  5  5  5  5  5  5  5  5  5  5
CENTRE ASSIGNMENTS    5  5  5  5  5  5  5  5  5  5  5  6  6  6  6  6  6  6  6  6
CENTRE ASSIGNMENTS    6  6  6  6  6  6  6  6  6  6  6  6  6  6  6  6  6  6  6  6
CENTRE ASSIGNMENTS    6  6  6  6  6  6  6  6  6  6  6  6  6  6  6  6  6  6  6  6
CENTRE ASSIGNMENTS    6  6  6  6  6  6  6  6  6  6  6  6  6  6  6  6  6  6  6  6
CENTRE ASSIGNMENTS    6  6  6  6  6  6
TYPE ASSIGNMENTS      1  1  1  1  1  1  1  1  1  1  1  1  1  1  1  1  1  1  1  2
TYPE ASSIGNMENTS      2  2  3  3  3  4  4  4  2  3  4  2  3  4  2  3  4  5  6  7
TYPE ASSIGNMENTS      8  9 10  5  6  7  8  9 10  5  6  7  8  9 10 11 12 13 17 14
TYPE ASSIGNMENTS     15 18 19 16 20 11 12 13 17 14 15 18 19 16 20  1  1  1  1  1
TYPE ASSIGNMENTS      1  1  1  1  1  1  1  1  1  1  1  1  1  1  2  2  2  3  3  3
TYPE ASSIGNMENTS      4  4  4  2  3  4  2  3  4  2  3  4  5  6  7  8  9 10  5  6
TYPE ASSIGNMENTS      7  8  9 10  5  6  7  8  9 10 11 12 13 17 14 15 18 19 16 20
TYPE ASSIGNMENTS     11 12 13 17 14 15 18 19 16 20  1  1  1  1  1  1  2  3  4  2
TYPE ASSIGNMENTS      3  4  2  3  4  5  6  7  8  9 10  5  6  7  8  9 10  1  1  1
TYPE ASSIGNMENTS      1  1  1  2  3  4  2  3  4  2  3  4  5  6  7  8  9 10  5  6
TYPE ASSIGNMENTS      7  8  9 10  1  1  1  1  1  1  2  3  4  2  3  4  2  3  4  5
TYPE ASSIGNMENTS      6  7  8  9 10  5  6  7  8  9 10  1  1  1  1  1  1  1  1  1
TYPE ASSIGNMENTS      1  1  1  1  1  1  1  1  1  1  2  2  2  3  3  3  4  4  4  2
TYPE ASSIGNMENTS      3  4  2  3  4  2  3  4  5  6  7  8  9 10  5  6  7  8  9 10
TYPE ASSIGNMENTS      5  6  7  8  9 10 11 12 13 17 14 15 18 19 16 20 11 12 13 17
TYPE ASSIGNMENTS     14 15 18 19 16 20
EXPONENTS  0.8236000D+04 0.1235000D+04 0.2808000D+03 0.7927000D+02 0.2559000D+02
EXPONENTS  0.8997000D+01 0.3319000D+01 0.3643000D+00 0.8236000D+04 0.1235000D+04
EXPONENTS  0.2808000D+03 0.7927000D+02 0.2559000D+02 0.8997000D+01 0.3319000D+01
EXPONENTS  0.3643000D+00 0.9059000D+00 0.1285000D+00 0.4402000D-01 0.1871000D+02
EXPONENTS  0.4133000D+01 0.1200000D+01 0.1871000D+02 0.4133000D+01 0.1200000D+01
EXPONENTS  0.1871000D+02 0.4133000D+01 0.1200000D+01 0.3827000D+00 0.3827000D+00
EXPONENTS  0.3827000D+00 0.1209000D+00 0.1209000D+00 0.1209000D+00 0.3569000D-01
EXPONENTS  0.3569000D-01 0.3569000D-01 0.1097000D+01 0.1097000D+01 0.1097000D+01
EXPONENTS  0.1097000D+01 0.1097000D+01 0.1097000D+01 0.3180000D+00 0.3180000D+00
EXPONENTS  0.3180000D+00 0.3180000D+00 0.3180000D+00 0.3180000D+00 0.1000000D+00
EXPONENTS  0.1000000D+00 0.1000000D+00 0.1000000D+00 0.1000000D+00 0.1000000D+00
EXPONENTS  0.7610000D+00 0.7610000D+00 0.7610000D+00 0.7610000D+00 0.7610000D+00
EXPONENTS  0.7610000D+00 0.7610000D+00 0.7610000D+00 0.7610000D+00 0.7610000D+00
EXPONENTS  0.2680000D+00 0.2680000D+00 0.2680000D+00 0.2680000D+00 0.2680000D+00
EXPONENTS  0.2680000D+00 0.2680000D+00 0.2680000D+00 0.2680000D+00 0.2680000D+00
EXPONENTS  0.8236000D+04 0.1235000D+04 0.2808000D+03 0.7927000D+02 0.2559000D+02
EXPONENTS  0.8997000D+01 0.3319000D+01 0.3643000D+00 0.8236000D+04 0.1235000D+04
EXPONENTS  0.2808000D+03 0.7927000D+02 0.2559000D+02 0.8997000D+01 0.3319000D+01
EXPONENTS  0.3643000D+00 0.9059000D+00 0.1285000D+00 0.4402000D-01 0.1871000D+02
EXPONENTS  0.4133000D+01 0.1200000D+01 0.1871000D+02 0.4133000D+01 0.1200000D+01
EXPONENTS  0.1871000D+02 0.4133000D+01 0.1200000D+01 0.3827000D+00 0.3827000D+00
EXPONENTS  0.3827000D+00 0.1209000D+00 0.1209000D+00 0.1209000D+00 0.3569000D-01
EXPONENTS  0.3569000D-01 0.3569000D-01 0.1097000D+01 0.1097000D+01 0.1097000D+01
EXPONENTS  0.1097000D+01 0.1097000D+01 0.1097000D+01 0.3180000D+00 0.3180000D+00
EXPONENTS  0.3180000D+00 0.3180000D+00 0.3180000D+00 0.3180000D+00 0.1000000D+00
EXPONENTS  0.1000000D+00 0.1000000D+00 0.1000000D+00 0.1000000D+00 0.1000000D+00
EXPONENTS  0.7610000D+00 0.7610000D+00 0.7610000D+00 0.7610000D+00 0.7610000D+00
EXPONENTS  0.7610000D+00 0.7610000D+00 0.7610000D+00 0.7610000D+00 0.7610000D+00
EXPONENTS  0.2680000D+00 0.2680000D+00 0.2680000D+00 0.2680000D+00 0.2680000D+00
EXPONENTS  0.2680000D+00 0.2680000D+00 0.2680000D+00 0.2680000D+00 0.2680000D+00
EXPONENTS  0.3387000D+02 0.5095000D+01 0.1159000D+01 0.3258000D+00 0.1027000D+00
EXPONENTS  0.2526000D-01 0.1407000D+01 0.1407000D+01 0.1407000D+01 0.3880000D+00
EXPONENTS  0.3880000D+00 0.3880000D+00 0.1020000D+00 0.1020000D+00 0.1020000D+00
EXPONENTS  0.1057000D+01 0.1057000D+01 0.1057000D+01 0.1057000D+01 0.1057000D+01
EXPONENTS  0.1057000D+01 0.2470000D+00 0.2470000D+00 0.2470000D+00 0.2470000D+00
EXPONENTS  0.2470000D+00 0.2470000D+00 0.3387000D+02 0.5095000D+01 0.1159000D+01
EXPONENTS  0.3258000D+00 0.1027000D+00 0.2526000D-01 0.1407000D+01 0.1407000D+01
EXPONENTS  0.1407000D+01 0.3880000D+00 0.3880000D+00 0.3880000D+00 0.1020000D+00
EXPONENTS  0.1020000D+00 0.1020000D+00 0.1057000D+01 0.1057000D+01 0.1057000D+01
EXPONENTS  0.1057000D+01 0.1057000D+01 0.1057000D+01 0.2470000D+00 0.2470000D+00
EXPONENTS  0.2470000D+00 0.2470000D+00 0.2470000D+00 0.2470000D+00 0.3387000D+02
EXPONENTS  0.5095000D+01 0.1159000D+01 0.3258000D+00 0.1027000D+00 0.2526000D-01
EXPONENTS  0.1407000D+01 0.1407000D+01 0.1407000D+01 0.3880000D+00 0.3880000D+00
EXPONENTS  0.3880000D+00 0.1020000D+00 0.1020000D+00 0.1020000D+00 0.1057000D+01
EXPONENTS  0.1057000D+01 0.1057000D+01 0.1057000D+01 0.1057000D+01 0.1057000D+01
EXPONENTS  0.2470000D+00 0.2470000D+00 0.2470000D+00 0.2470000D+00 0.2470000D+00
EXPONENTS  0.2470000D+00 0.1950000D+05 0.2923000D+04 0.6645000D+03 0.1875000D+03
EXPONENTS  0.6062000D+02 0.2142000D+02 0.7950000D+01 0.8815000D+00 0.1950000D+05
EXPONENTS  0.2923000D+04 0.6645000D+03 0.1875000D+03 0.6062000D+02 0.2142000D+02
EXPONENTS  0.7950000D+01 0.8815000D+00 0.2257000D+01 0.3041000D+00 0.9158000D-01
EXPONENTS  0.4388000D+02 0.9926000D+01 0.2930000D+01 0.4388000D+02 0.9926000D+01
EXPONENTS  0.2930000D+01 0.4388000D+02 0.9926000D+01 0.2930000D+01 0.9132000D+00
EXPONENTS  0.9132000D+00 0.9132000D+00 0.2672000D+00 0.2672000D+00 0.2672000D+00
EXPONENTS  0.7361000D-01 0.7361000D-01 0.7361000D-01 0.3107000D+01 0.3107000D+01
EXPONENTS  0.3107000D+01 0.3107000D+01 0.3107000D+01 0.3107000D+01 0.8550000D+00
EXPONENTS  0.8550000D+00 0.8550000D+00 0.8550000D+00 0.8550000D+00 0.8550000D+00
EXPONENTS  0.2920000D+00 0.2920000D+00 0.2920000D+00 0.2920000D+00 0.2920000D+00
EXPONENTS  0.2920000D+00 0.1917000D+01 0.1917000D+01 0.1917000D+01 0.1917000D+01
EXPONENTS  0.1917000D+01 0.1917000D+01 0.1917000D+01 0.1917000D+01 0.1917000D+01
EXPONENTS  0.1917000D+01 0.7240000D+00 0.7240000D+00 0.7240000D+00 0.7240000D+00
EXPONENTS  0.7240000D+00 0.7240000D+00 0.7240000D+00 0.7240000D+00 0.7240000D+00
EXPONENTS  0.7240000D+00
MO    1     MO 0.0        OCC NO =    2.0000000  ORB. ENERGY =  -25.258471
 -0.13938844D-04 -0.25985174D-04 -0.43919522D-04 -0.66025428D-04 -0.81119867D-04
 -0.68518696D-04 -0.25842731D-04  0.12789712D-06  0.13335434D-04  0.24968139D-04
  0.42510394D-04  0.65757115D-04  0.86599808D-04  0.89982747D-04  0.57179996D-04
 -0.38320704D-04 -0.61760620D-04 -0.96674852D-03 -0.13716830D-03 -0.36276296D-09
 -0.34011333D-09 -0.24218095D-09 -0.42859712D-04 -0.40183704D-04 -0.28613191D-04
  0.19057096D-03  0.17867239D-03  0.12722539D-03  0.26530277D-09  0.24557707D-03
 -0.79291026D-03  0.29332195D-08 -0.58536285D-04  0.67281641D-03  0.21867126D-10
 -0.60505628D-05  0.26834597D-04  0.54696368D-04 -0.52708175D-04 -0.19881930D-05
 -0.21640315D-08  0.16130799D-08  0.45311054D-04  0.91223808D-05 -0.32722217D-03
  0.31809979D-03  0.34438153D-08 -0.14596223D-08  0.77003477D-03 -0.16672887D-04
  0.43181981D-04 -0.26509094D-04 -0.72510148D-09 -0.26622514D-09  0.38087928D-04
  0.98190165D-09  0.27180895D-04  0.50894904D-04 -0.20627005D-08 -0.14889291D-03
  0.11283058D-03 -0.88300444D-09  0.67350226D-04 -0.26551529D-03  0.12818430D-08
 -0.96128390D-10  0.25216299D-04 -0.76862779D-04  0.22265575D-09 -0.24337630D-04
 -0.47699691D-04  0.65729421D-10 -0.51311266D-04  0.27828803D-03  0.42207984D-09
  0.16568647D-03  0.30887724D-03  0.52205696D-03  0.78482261D-03  0.96424526D-03
  0.81445926D-03  0.30718407D-03 -0.15202711D-05 -0.11875443D-03 -0.22234576D-03
 -0.37856269D-03 -0.58557892D-03 -0.77118683D-03 -0.80131252D-03 -0.50919813D-03
  0.34125275D-03 -0.41548130D-03  0.18035315D-02  0.33227807D-03 -0.25543698D-08
 -0.23948840D-08 -0.17053001D-08  0.41700864D-03  0.39097211D-03  0.27839543D-03
  0.34475684D-03  0.32323145D-03  0.23016005D-03  0.68456029D-08 -0.13983861D-02
 -0.16225451D-02  0.15701422D-08 -0.14856833D-03  0.68401654D-03  0.10761710D-09
 -0.87042803D-05  0.16616547D-04 -0.45351292D-03  0.53607155D-03 -0.82558637D-04
 -0.10704437D-07 -0.95370982D-08  0.12421002D-02 -0.23610857D-03  0.44741539D-03
 -0.21130682D-03 -0.56974449D-08 -0.57338747D-08  0.11409758D-02 -0.16373553D-05
 -0.51043135D-04  0.52680490D-04  0.67879272D-09 -0.13916949D-09 -0.25550949D-04
 -0.30816614D-08 -0.69751647D-04  0.15849386D-03  0.68397174D-08  0.54655628D-03
  0.46346362D-03  0.24052667D-08 -0.33730134D-03 -0.93894519D-03  0.12614316D-07
 -0.21057688D-09 -0.89439275D-04 -0.25442076D-04  0.18896210D-08  0.23890084D-04
 -0.78728289D-04 -0.12578903D-08  0.24442774D-03  0.15505452D-03  0.20851141D-08
 -0.24510214D-05 -0.44205180D-05 -0.65180511D-05 -0.69031320D-03 -0.38927136D-03
 -0.69602389D-05 -0.52130696D-09 -0.58714732D-05  0.23430130D-05  0.11555576D-08
  0.15666211D-03 -0.13120670D-03  0.90933750D-09  0.25775498D-04 -0.16590391D-04
 -0.42522803D-04 -0.18183376D-04  0.60706179D-04 -0.62367895D-09  0.14239985D-09
  0.72069591D-04 -0.17386893D-04 -0.69190316D-05  0.24305924D-04 -0.47984570D-10
  0.28725406D-09  0.61898137D-05 -0.92254218D-05 -0.16638428D-04 -0.24533353D-04
  0.54705472D-03 -0.37583095D-03 -0.39034973D-04  0.24594425D-09  0.10998361D-03
  0.54917989D-04  0.76639501D-09  0.49821660D-03 -0.53490757D-03 -0.55380507D-09
  0.10864861D-05  0.33041097D-04 -0.16845776D-03  0.12380352D-03  0.44654235D-04
  0.16728201D-08 -0.46578911D-09 -0.29228517D-03 -0.43621696D-04  0.25880307D-04
  0.17741389D-04  0.20746568D-09 -0.50256696D-10 -0.58235895D-04  0.77556681D-05
  0.13987667D-04  0.20624807D-04  0.42265598D-03  0.31746565D-03  0.15342304D-04
  0.18270672D-08 -0.11213367D-04 -0.81627877D-04 -0.33910639D-08  0.19178470D-04
  0.13191617D-03 -0.14608705D-08 -0.49080302D-05  0.77960703D-04  0.76587552D-04
 -0.58791732D-04 -0.17795819D-04  0.26701291D-09 -0.99568720D-09 -0.63169776D-05
  0.24958387D-05  0.19898868D-05 -0.44857255D-05 -0.57805849D-09 -0.15127365D-08
 -0.46084899D-05  0.59533792D+00  0.11097357D+01  0.18812748D+01  0.28488045D+01
  0.35624400D+01  0.30669290D+01  0.11790395D+01 -0.51089711D-02  0.22350265D-03
  0.41969840D-03  0.71467399D-03  0.11195326D-02  0.15003054D-02  0.16137807D-02
  0.96891181D-03 -0.63719717D-03  0.60256710D-01 -0.56932091D-03 -0.40371998D-03
 -0.42870279D-07 -0.41926197D-07 -0.27702411D-07  0.66192737D-02  0.64735051D-02
  0.42773185D-02  0.45713980D-02  0.44707273D-02  0.29539986D-02  0.74958903D-08
 -0.12414223D-02 -0.89267180D-03  0.21406465D-08 -0.88788792D-03 -0.10152040D-02
  0.13788657D-09 -0.39736541D-04 -0.18852217D-04 -0.10788346D-02  0.10892222D-02
 -0.10387605D-04 -0.23396635D-07 -0.16258946D-07  0.30076566D-02  0.52293102D-03
 -0.53960836D-03  0.16677338D-04  0.11943355D-07  0.85313085D-08 -0.15702513D-02
  0.17863004D-03 -0.91108897D-04 -0.87521148D-04  0.12853473D-08  0.26097270D-08
 -0.49066603D-03  0.35270589D-08  0.19420596D-04 -0.17596342D-03 -0.21199458D-08
 -0.46945033D-03 -0.22253521D-03 -0.84612310D-08  0.41118854D-03  0.75042547D-03
 -0.10889096D-07 -0.27830196D-08 -0.52649226D-04  0.14925150D-03  0.46797759D-08
  0.46881192D-03  0.29182430D-03  0.36692830D-08 -0.31086424D-03 -0.73957879D-03
  0.11251718D-07
MO    2     MO 0.0        OCC NO =    2.0000000  ORB. ENERGY =  -10.632452
  0.26031672D-02  0.48528956D-02  0.82022484D-02  0.12330666D-01  0.15149648D-01
  0.12796300D-01  0.48262934D-02 -0.23885595D-04 -0.27171995D-03 -0.50874549D-03
 -0.86618272D-03 -0.13398530D-02 -0.17645392D-02 -0.18334693D-02 -0.11650874D-02
  0.78081449D-03  0.27679482D-02 -0.13161795D-01 -0.45954122D-03  0.25226678D-09
  0.23651614D-09  0.16841358D-09  0.52081091D-04  0.48829333D-04  0.34769394D-04
 -0.21346172D-02 -0.20013393D-02 -0.14250728D-02 -0.31138167D-08 -0.30982439D-03
  0.28487756D-02  0.16462505D-07  0.40210271D-03  0.26995210D-02  0.24757808D-09
  0.46296080D-04  0.17734045D-04  0.30830998D-04  0.77821675D-03 -0.80904775D-03
  0.17193240D-08  0.25149666D-08  0.23264378D-03  0.16738019D-02  0.90130145D-03
 -0.25751034D-02 -0.37319128D-08 -0.81973399D-09 -0.99154036D-03  0.78037419D-04
  0.50125580D-04 -0.12816300D-03  0.26602573D-09 -0.12500458D-08  0.21384435D-03
 -0.13378424D-08  0.12478250D-03  0.12417864D-02 -0.20525251D-08  0.16459596D-03
 -0.15304881D-02  0.60660524D-08 -0.53894346D-03 -0.21948711D-02 -0.79682293D-08
 -0.17192963D-08 -0.10777925D-04  0.37144503D-03  0.58274049D-08  0.24492784D-04
 -0.15187955D-03 -0.66951595D-09  0.78409905D-05 -0.96245555D-03 -0.15073589D-08
  0.32975081D+00  0.61473049D+00  0.10390028D+01  0.15619616D+01  0.19190503D+01
  0.16209447D+01  0.61136072D+00 -0.30256583D-02 -0.27026677D-02 -0.50602466D-02
 -0.86155029D-02 -0.13326873D-01 -0.17551023D-01 -0.18236637D-01 -0.11588564D-01
  0.77663862D-02  0.33150411D-01  0.48590011D-02 -0.12080036D-03  0.54915822D-09
  0.51487074D-09  0.36661864D-09 -0.32181527D-02 -0.30172228D-02 -0.21484423D-02
 -0.29350501D-02 -0.27517960D-02 -0.19594427D-02  0.42804321D-07  0.14205424D-02
  0.38848724D-02 -0.59729070D-08 -0.30892209D-03  0.39788638D-02 -0.14937224D-09
 -0.29413287D-04  0.60129642D-05 -0.43007199D-02  0.16567159D-02  0.26440040D-02
  0.16912502D-08 -0.25161841D-07  0.63038309D-03  0.48192167D-03 -0.10374562D-02
  0.55553457D-03  0.59228888D-08  0.23527785D-07 -0.20999439D-02  0.26578611D-04
 -0.24938271D-03  0.22280410D-03 -0.27482697D-09 -0.36925609D-10  0.58874071D-04
 -0.10469257D-07  0.26168653D-04  0.95961116D-03  0.12965660D-07 -0.40902924D-03
 -0.78866239D-04  0.18442110D-07  0.33052328D-03 -0.27999672D-02 -0.16259166D-07
  0.17657998D-08  0.41714523D-04 -0.30574107D-03 -0.71736426D-08 -0.57632878D-04
 -0.11116307D-03  0.18762432D-08 -0.67510690D-04  0.10283863D-02 -0.54276037D-08
  0.10809073D-03  0.19494609D-03  0.28744789D-03  0.28793051D-02 -0.10440165D-02
 -0.45388673D-04  0.44321143D-08 -0.30123367D-03 -0.59709534D-03 -0.16637947D-07
 -0.10436983D-02  0.89540591D-03 -0.11742280D-08  0.10386238D-03  0.55980269D-04
  0.19990103D-03  0.38407697D-03 -0.58397801D-03  0.42336884D-08  0.24495387D-08
 -0.31969907D-03  0.13431462D-03  0.13800182D-03 -0.27231644D-03  0.97698322D-09
  0.21470832D-09 -0.12985953D-03  0.96750534D-04  0.17449357D-03  0.25729067D-03
  0.16052336D-02  0.14591754D-02  0.72514806D-04  0.57562413D-08  0.28880333D-03
 -0.79718056D-03 -0.15130639D-07  0.18921468D-04  0.11186548D-02 -0.21690277D-08
  0.13859124D-03  0.78652360D-04  0.27415737D-03 -0.12900711D-04 -0.26125666D-03
 -0.49821603D-08  0.48106422D-08  0.27778454D-03  0.19409341D-03  0.50250062D-04
 -0.24434347D-03 -0.89334085D-09  0.13993954D-08  0.25326255D-03  0.17715592D-03
  0.31950800D-03  0.47111436D-03 -0.21172089D-03  0.28866186D-02  0.46988504D-04
  0.58034308D-08  0.10013104D-02 -0.65441450D-03  0.46583276D-08  0.22377966D-02
 -0.10872271D-02 -0.28167304D-08  0.29534577D-04  0.37440757D-03  0.13728021D-02
 -0.14220897D-02  0.49287664D-04 -0.26419752D-07  0.18926417D-07  0.42007029D-02
  0.25718770D-03 -0.27964950D-03  0.22461804D-04 -0.24022156D-08  0.29389051D-08
  0.28311246D-03  0.33950854D-03  0.63285863D-03  0.10728510D-02  0.16246126D-02
  0.20315837D-02  0.17490043D-02  0.67238112D-03 -0.29135374D-05 -0.29177315D-03
 -0.54789829D-03 -0.93297630D-03 -0.14615019D-02 -0.19585844D-02 -0.21067216D-02
 -0.12648729D-02  0.83183363D-03  0.16301966D-03  0.30074230D-02  0.11979555D-02
 -0.54562295D-08 -0.53360733D-08 -0.35257692D-08  0.11574733D-02  0.11319836D-02
  0.74794942D-03  0.40788154D-03  0.39889924D-03  0.26356959D-03 -0.70081734D-08
  0.12188510D-02  0.12375760D-02 -0.43559294D-08  0.46505593D-03  0.22876403D-03
 -0.83292198D-09  0.25071533D-04  0.14213370D-03 -0.16923700D-02  0.18392757D-02
 -0.14690567D-03 -0.27436849D-07 -0.20924539D-07  0.43286951D-02  0.52148838D-03
 -0.60241110D-03  0.80922727D-04  0.56644834D-08  0.46403203D-08 -0.12210218D-02
  0.23162561D-03 -0.85761917D-04 -0.14586369D-03  0.23324600D-08  0.19809074D-08
 -0.27487752D-03  0.12637392D-07  0.14846977D-03  0.83685147D-04 -0.18157230D-07
 -0.16929350D-02 -0.18617739D-02 -0.19754946D-07  0.12475257D-02  0.16107184D-02
 -0.12528624D-07 -0.88242505D-08 -0.13801305D-03  0.27289016D-03  0.16708865D-07
  0.15290880D-02  0.13189956D-02  0.97638861D-08 -0.11150489D-02 -0.21376661D-02
  0.27070316D-07
MO    3     MO 0.0        OCC NO =    2.0000000  ORB. ENERGY =  -10.546780
  0.32988862D+00  0.61498738D+00  0.10394370D+01  0.15626143D+01  0.19198522D+01
  0.16216221D+01  0.61161620D+00 -0.30269227D-02 -0.28501626D-02 -0.53364037D-02
 -0.90856839D-02 -0.14054172D-01 -0.18508849D-01 -0.19231880D-01 -0.12220997D-01
  0.81902277D-02  0.33349293D-01  0.42332180D-02  0.91293686D-05 -0.14646087D-07
 -0.13731637D-07 -0.97777437D-08  0.51855357D-04  0.48617693D-04  0.34618694D-04
  0.28289839D-03  0.26523523D-03  0.18886328D-03  0.36997365D-08 -0.18922658D-04
 -0.24259309D-02 -0.10326693D-07  0.46825822D-03 -0.34827017D-02 -0.19604879D-09
 -0.10663251D-04 -0.33783049D-04 -0.46467343D-02  0.20711813D-02  0.25755530D-02
  0.10959649D-07  0.45148023D-07 -0.11352564D-03  0.39401689D-03 -0.67173464D-03
  0.27771775D-03  0.54647203D-08 -0.10163668D-08  0.61250347D-03  0.47647592D-04
 -0.37122625D-03  0.32357866D-03  0.14903813D-08  0.15100751D-08  0.81724637D-04
 -0.10764974D-08  0.12487624D-04 -0.12622918D-02  0.12649527D-07 -0.53784964D-04
 -0.20025821D-03 -0.94200349D-08  0.16322092D-04  0.39871336D-02  0.65473838D-08
  0.14395151D-09  0.48690179D-04  0.43597544D-03 -0.34194761D-08 -0.66786382D-04
  0.11344350D-03  0.29876215D-08 -0.79284154D-04 -0.14213698D-02 -0.82557890D-08
 -0.20700321D-02 -0.38590105D-02 -0.65224076D-02 -0.98053150D-02 -0.12046962D-01
 -0.10175586D-01 -0.38378565D-02  0.18993766D-04 -0.27489067D-03 -0.51468207D-03
 -0.87629027D-03 -0.13554878D-02 -0.17851298D-02 -0.18548642D-02 -0.11786829D-02
  0.78992587D-03  0.25863808D-02 -0.13699857D-01 -0.57782770D-03  0.73461636D-08
  0.68874953D-08  0.49043070D-08  0.20498041D-04  0.19218216D-04  0.13684515D-04
  0.18884798D-02  0.17705699D-02  0.12607512D-02 -0.90664296D-08 -0.28374792D-03
 -0.15941018D-02 -0.82062792D-08 -0.28137053D-03 -0.22196336D-02  0.70983792D-10
  0.12146783D-04 -0.22040912D-04  0.22662591D-03  0.67360545D-03 -0.90023136D-03
  0.46400825D-08 -0.10268164D-07  0.83513391D-04  0.18315904D-02  0.37584262D-03
 -0.22074330D-02 -0.62272018D-08 -0.89869397D-08  0.51709905D-03  0.62256885D-04
  0.13042304D-03 -0.19267993D-03 -0.18670843D-08  0.68042895D-09  0.15839070D-03
  0.46756831D-08 -0.23752498D-03 -0.15086247D-02  0.27844214D-08  0.26661812D-04
  0.15657785D-02 -0.16811471D-07  0.68591314D-03  0.29600956D-02  0.21825244D-08
  0.32631932D-09 -0.17074317D-03 -0.26533043D-03  0.56046859D-08  0.55186199D-04
  0.16279793D-03 -0.65836439D-08  0.45704331D-03  0.63319336D-03 -0.52321882D-08
  0.21838060D-03  0.39385841D-03  0.58074399D-03  0.73038770D-03  0.12415470D-02
  0.39086418D-04  0.42522780D-08  0.14276161D-02  0.59651515D-03  0.53195064D-08
  0.19161705D-02  0.13797684D-02 -0.23465786D-08  0.32270582D-03 -0.28437909D-03
  0.16988715D-02 -0.19629378D-02  0.26406631D-03 -0.21987246D-07 -0.11476295D-07
 -0.42553279D-02  0.32204563D-03 -0.23932581D-03 -0.82719821D-04 -0.22549156D-08
 -0.17004922D-08 -0.18570026D-03  0.21864409D-03  0.39433362D-03  0.58144468D-03
  0.18806760D-02  0.31152146D-02  0.26389376D-04  0.15472210D-08 -0.13529110D-02
  0.56671657D-03 -0.18910585D-08 -0.16125056D-02  0.10294197D-02  0.38559024D-09
 -0.84931932D-04 -0.43024464D-03  0.16584169D-02 -0.19879018D-02  0.32948491D-03
  0.44949794D-08 -0.57162317D-08  0.41543429D-02  0.31780051D-03 -0.23868888D-03
 -0.79111628D-04 -0.64571515D-09 -0.29685552D-08  0.17383260D-03  0.85063990D-04
  0.15341641D-03  0.22621241D-03  0.31790356D-02  0.15300987D-02 -0.44430345D-06
  0.29922333D-08 -0.51511134D-03  0.79906412D-03 -0.24900121D-07 -0.62152933D-03
  0.55376294D-03 -0.26682802D-10 -0.30229147D-03 -0.54095415D-04  0.71770269D-04
 -0.14454853D-03  0.72778265D-04  0.31336678D-08 -0.21443648D-07 -0.58397947D-03
  0.10437762D-03  0.60646612D-04 -0.16502423D-03  0.14560485D-09 -0.41203572D-08
  0.12566197D-03  0.11791375D-03  0.21979633D-03  0.37260882D-03  0.56423957D-03
  0.70558357D-03  0.60744173D-03  0.23352278D-03 -0.10118924D-05 -0.73834712D-04
 -0.13864851D-03 -0.23609451D-03 -0.36984065D-03 -0.49562998D-03 -0.53311687D-03
 -0.32008267D-03  0.21049983D-03 -0.22151287D-03  0.18722479D-02 -0.34402851D-03
  0.80068767D-08  0.78305506D-08  0.51739758D-08 -0.67187845D-03 -0.65708245D-03
 -0.43416216D-03 -0.60514856D-03 -0.59182207D-03 -0.39104187D-03 -0.71243425D-08
  0.74252407D-03  0.72640982D-03 -0.11086499D-07  0.12719809D-02 -0.47074424D-03
 -0.12893118D-09 -0.15895317D-04 -0.64919542D-04 -0.19544313D-03 -0.39325392D-03
  0.58869705D-03  0.13325171D-07  0.67846684D-08  0.95696677D-04 -0.14981114D-03
  0.38552947D-03 -0.23571833D-03 -0.11809313D-07 -0.61505194D-08  0.45859005D-03
  0.66284652D-04  0.37827510D-03 -0.44455975D-03 -0.47609600D-08 -0.43062513D-08
 -0.10048915D-03  0.70262229D-08 -0.25052836D-03  0.52287150D-03 -0.14214589D-07
 -0.11773669D-02 -0.84720552D-03 -0.68640796D-08  0.19289520D-02 -0.72140898D-03
  0.28791921D-07 -0.77579817D-09  0.15924788D-03 -0.31378966D-03  0.11087227D-08
  0.23986751D-03  0.26123254D-03  0.12186718D-08 -0.71761116D-03  0.68013643D-03
 -0.18294727D-07
MO    4     MO 0.0        OCC NO =    2.0000000  ORB. ENERGY =   -1.373298
 -0.64869725D-03 -0.12093192D-02 -0.20439624D-02 -0.30727450D-02 -0.37752223D-02
 -0.31887788D-02 -0.12026900D-02  0.59521800D-05 -0.18817286D-02 -0.35231896D-02
 -0.59985318D-02 -0.92788165D-02 -0.12219875D-01 -0.12697233D-01 -0.80685214D-02
  0.54073354D-02  0.21433767D-02 -0.86530992D-02  0.41789872D-03  0.48530628D-08
  0.45500548D-08  0.32399101D-08 -0.59723037D-02 -0.55994143D-02 -0.39871166D-02
 -0.15679297D-01 -0.14700338D-01 -0.10467516D-01  0.36089384D-07 -0.18967559D-02
  0.98613084D-03  0.11974844D-07 -0.64634130D-03  0.13399807D-02  0.28934575D-10
  0.97130375D-04  0.22354608D-04 -0.15657029D-02  0.90543170D-04  0.14751598D-02
  0.45027552D-08  0.57694456D-08  0.31320172D-02 -0.14759992D-04  0.10477746D-02
 -0.10330147D-02 -0.40055242D-08 -0.42927795D-07 -0.45394043D-03 -0.88270101D-04
  0.19783996D-03 -0.10956986D-03 -0.18666762D-07 -0.28236166D-08 -0.11175269D-02
 -0.21128709D-08  0.31022329D-03 -0.11471836D-03 -0.35260455D-08  0.21924286D-03
  0.66826561D-04  0.98646583D-08 -0.11499127D-02  0.27732851D-03  0.42810972D-09
  0.33099613D-08 -0.11318370D-03  0.22328328D-03 -0.11952630D-07 -0.20883357D-03
  0.60847573D-04  0.20227459D-08  0.54838467D-03 -0.73069742D-03  0.15358862D-07
 -0.31521625D-02 -0.58763476D-02 -0.99320626D-02 -0.14931143D-01 -0.18344635D-01
 -0.15494977D-01 -0.58441351D-02  0.28922951D-04 -0.15486178D-01 -0.28995011D-01
 -0.49366488D-01 -0.76362450D-01 -0.10056666D+00 -0.10449520D+00 -0.66402010D-01
  0.44501083D-01  0.18773115D-01  0.15267900D-01 -0.65481031D-03  0.59123240D-06
  0.55431796D-06  0.39470741D-06 -0.10574018D+00 -0.99138137D-01 -0.70592259D-01
 -0.67798993D-01 -0.63565865D-01 -0.45262683D-01  0.14042122D-06 -0.23121185D-01
 -0.14348992D-01  0.10429775D-07  0.50283524D-03  0.83157386D-03  0.14227728D-09
 -0.81371100D-04 -0.26867486D-04 -0.13492111D-01  0.12520743D-01  0.97136873D-03
 -0.25489161D-06 -0.16336171D-06  0.30107994D-01 -0.30079752D-02  0.21891690D-02
  0.81880616D-03 -0.34432481D-07 -0.54867608D-07  0.43653373D-02  0.10016530D-03
 -0.54319572D-03  0.44303042D-03  0.15511599D-07 -0.54998179D-08 -0.18799497D-02
 -0.27184732D-07 -0.21387760D-03  0.15186131D-02  0.48339145D-07  0.36967816D-02
  0.16307406D-02  0.33215050D-07 -0.30551488D-02 -0.61865801D-02  0.59100512D-07
 -0.11882424D-08 -0.41263289D-04  0.51279719D-03  0.15767744D-07  0.36482928D-03
  0.38579337D-03 -0.12203017D-07 -0.24103941D-03 -0.19241849D-02  0.29180189D-07
  0.18634360D-03  0.33607837D-03  0.49554735D-03  0.92064957D-04  0.75014174D-02
 -0.10063932D-03 -0.33387853D-08  0.27582317D-04  0.33715512D-03  0.16509270D-07
  0.71516196D-03  0.36937239D-03  0.99789933D-08 -0.97186172D-03 -0.56368127D-03
  0.40341698D-03 -0.45781935D-04 -0.35763505D-03 -0.61660727D-08 -0.19999244D-07
 -0.77641724D-03  0.20725317D-03 -0.14085120D-03 -0.66401974D-04 -0.18856585D-08
 -0.15783604D-08 -0.21362396D-03  0.45641896D-03  0.82317039D-03  0.12137643D-02
 -0.21871254D-03 -0.72729599D-02  0.49754719D-04 -0.55610191D-08  0.17895297D-03
 -0.61116015D-03  0.29479222D-07 -0.93285574D-03  0.13867898D-02 -0.12078543D-07
 -0.75445813D-03  0.37239163D-03 -0.35822338D-04 -0.48729360D-03  0.52311594D-03
  0.14250200D-07 -0.60331897D-08  0.40178800D-03  0.54397867D-04 -0.65971053D-04
  0.11573187D-04  0.39637051D-08 -0.86506886D-09  0.39251244D-03  0.20383415D-02
  0.36762329D-02  0.54206033D-02 -0.27756551D-02 -0.90014851D-02  0.60240458D-04
 -0.78918857D-08 -0.26325216D-02  0.27287142D-03  0.22508008D-07  0.11526571D-02
 -0.15829119D-02 -0.10365301D-07  0.19666407D-02  0.32675825D-03 -0.10215755D-03
  0.45556834D-03 -0.35341079D-03  0.82153637D-08  0.46388134D-08  0.37485508D-03
 -0.40677322D-04 -0.18767289D-03  0.22835021D-03 -0.80951143D-08 -0.14816277D-07
  0.67220275D-03 -0.71838381D-02 -0.13390986D-01 -0.22701013D-01 -0.34376023D-01
 -0.42987338D-01 -0.37008094D-01 -0.14227262D-01  0.61649057D-04 -0.12253130D+00
 -0.23009207D+00 -0.39180712D+00 -0.61376353D+00 -0.82251534D+00 -0.88472615D+00
 -0.53118842D+00  0.34933185D+00  0.20763068D+00  0.92256055D-01  0.71932345D-02
 -0.13580915D-05 -0.13281838D-05 -0.87758722D-06  0.25474910D+00  0.24913905D+00
  0.16461670D+00  0.17044640D+00  0.16669286D+00  0.11014102D+00 -0.33659517D-06
  0.63193940D-01  0.42221058D-01 -0.27100922D-07  0.25526640D-02  0.16868155D-02
 -0.15124799D-08  0.29559646D-03  0.27551430D-03 -0.19824748D-01  0.21753929D-01
 -0.19291813D-02 -0.48015126D-06 -0.32422212D-06  0.56984964D-01 -0.73717701D-02
  0.77517783D-02 -0.38000823D-03 -0.17216244D-06 -0.12769805D-06  0.20606757D-01
  0.26674434D-03 -0.34651749D-03  0.79773154D-04  0.11303743D-08 -0.49882854D-10
 -0.11596575D-02  0.93397284D-07  0.23461900D-02 -0.58545337D-02 -0.23487299D-06
 -0.16700719D-01 -0.10881112D-01 -0.45318865D-07  0.96621490D-02  0.28444713D-01
 -0.41960105D-06  0.86313032D-08  0.21363928D-03 -0.17947953D-03 -0.16144559D-07
 -0.14182242D-02 -0.11951102D-02 -0.97493505D-08  0.77730638D-03  0.17335488D-02
 -0.46907948D-07
MO    5     MO 0.0        OCC NO =    2.0000000  ORB. ENERGY =   -0.876457
 -0.58386484D-02 -0.10884568D-01 -0.18396838D-01 -0.27656473D-01 -0.33979172D-01
 -0.28700843D-01 -0.10824902D-01  0.53573044D-04 -0.43419295D-01 -0.81294619D-01
 -0.13841104D+00 -0.21410084D+00 -0.28196328D+00 -0.29297790D+00 -0.18617431D+00
  0.12476969D+00  0.54315388D-01  0.29908008D-01 -0.26871872D-02 -0.21976592D-06
 -0.20604452D-06 -0.14671597D-06  0.11798780D-01  0.11062106D-01  0.78768783D-02
 -0.14484022D+00 -0.13579691D+00 -0.96695490D-01 -0.21580759D-07  0.18816140D-02
 -0.20001832D-01 -0.64104794D-08 -0.17888196D-03 -0.43489898D-02  0.10530653D-08
  0.10677411D-03  0.11370197D-03 -0.19392369D-01 -0.14435017D-02  0.20835870D-01
  0.40941626D-07  0.21952952D-06 -0.25137909D-02 -0.27075280D-02  0.25932633D-02
  0.11426464D-03 -0.24661250D-08  0.98162523D-08 -0.22395986D-02  0.17564484D-03
 -0.37479060D-03  0.19914576D-03 -0.10284419D-07 -0.28461460D-08 -0.15720363D-02
  0.12165250D-07 -0.30442553D-03 -0.44987870D-02  0.12667427D-07 -0.17586766D-03
  0.62667866D-02 -0.49163178D-07  0.10891443D-02  0.72295744D-02  0.19125908D-07
  0.13722695D-08 -0.21224097D-03  0.36313205D-03 -0.55610793D-08  0.38584812D-04
 -0.16853624D-03  0.14442709D-08  0.59813810D-03 -0.92085992D-03  0.66690282D-08
 -0.47727907D-02 -0.88975671D-02 -0.15038456D-01 -0.22607725D-01 -0.27776202D-01
 -0.23461443D-01 -0.88487932D-02  0.43793171D-04 -0.41866784D-01 -0.78387830D-01
 -0.13346199D+00 -0.20644540D+00 -0.27188133D+00 -0.28250212D+00 -0.17951741D+00
  0.12030840D+00  0.54985456D-01  0.20494477D-01  0.19140963D-02  0.68011223D-06
  0.63764845D-06  0.45404368D-06  0.24442775D-01  0.22916655D-01  0.16318024D-01
  0.17680058D+00  0.16576178D+00  0.11803227D+00  0.18410386D-06  0.37317734D-02