 Molden2AIM, Version 4.0.0 (06/02/2016)           Time: Thu Jun 28 06:09:49 2018
GAUSSIAN             16 MOL ORBITALS    408 PRIMITIVES        8 NUCLEI
  C    1    (CENTRE  1)  -2.00447596  2.48397696  0.55972932  CHARGE =  6.0
  O    2    (CENTRE  2)  -0.62951690  4.25282108  0.99515056  CHARGE =  8.0
  O    3    (CENTRE  3)  -1.10355659  0.15880313  0.00277601  CHARGE =  8.0
  H    4    (CENTRE  4)   0.72105524  0.28760687  0.04624727  CHARGE =  1.0
  C    5    (CENTRE  5)  -4.83323913  2.53550412  0.55940618  CHARGE =  6.0
  H    6    (CENTRE  6)  -5.48666485  4.44780870  0.98265758  CHARGE =  1.0
  H    7    (CENTRE  7)  -5.54401236  1.92020174 -1.28951887  CHARGE =  1.0
  H    8    (CENTRE  8)  -5.55235928  1.19965106  1.97442365  CHARGE =  1.0
CENTRE ASSIGNMENTS    1  1  1  1  1  1  1  1  1  1  1  1  1  1  1  1  1  1  1  1
CENTRE ASSIGNMENTS    1  1  1  1  1  1  1  1  1  1  1  1  1  1  1  1  1  1  1  1
CENTRE ASSIGNMENTS    1  1  1  1  1  1  1  1  1  1  1  1  1  1  1  1  1  1  1  1
CENTRE ASSIGNMENTS    1  1  1  1  1  1  1  1  1  1  1  1  1  1  1  2  2  2  2  2
CENTRE ASSIGNMENTS    2  2  2  2  2  2  2  2  2  2  2  2  2  2  2  2  2  2  2  2
CENTRE ASSIGNMENTS    2  2  2  2  2  2  2  2  2  2  2  2  2  2  2  2  2  2  2  2
CENTRE ASSIGNMENTS    2  2  2  2  2  2  2  2  2  2  2  2  2  2  2  2  2  2  2  2
CENTRE ASSIGNMENTS    2  2  2  2  2  2  2  2  2  2  3  3  3  3  3  3  3  3  3  3
CENTRE ASSIGNMENTS    3  3  3  3  3  3  3  3  3  3  3  3  3  3  3  3  3  3  3  3
CENTRE ASSIGNMENTS    3  3  3  3  3  3  3  3  3  3  3  3  3  3  3  3  3  3  3  3
CENTRE ASSIGNMENTS    3  3  3  3  3  3  3  3  3  3  3  3  3  3  3  3  3  3  3  3
CENTRE ASSIGNMENTS    3  3  3  3  3  4  4  4  4  4  4  4  4  4  4  4  4  4  4  4
CENTRE ASSIGNMENTS    4  4  4  4  4  4  4  4  4  4  4  4  5  5  5  5  5  5  5  5
CENTRE ASSIGNMENTS    5  5  5  5  5  5  5  5  5  5  5  5  5  5  5  5  5  5  5  5
CENTRE ASSIGNMENTS    5  5  5  5  5  5  5  5  5  5  5  5  5  5  5  5  5  5  5  5
CENTRE ASSIGNMENTS    5  5  5  5  5  5  5  5  5  5  5  5  5  5  5  5  5  5  5  5
CENTRE ASSIGNMENTS    5  5  5  5  5  5  5  6  6  6  6  6  6  6  6  6  6  6  6  6
CENTRE ASSIGNMENTS    6  6  6  6  6  6  6  6  6  6  6  6  6  6  7  7  7  7  7  7
CENTRE ASSIGNMENTS    7  7  7  7  7  7  7  7  7  7  7  7  7  7  7  7  7  7  7  7
CENTRE ASSIGNMENTS    7  8  8  8  8  8  8  8  8  8  8  8  8  8  8  8  8  8  8  8
CENTRE ASSIGNMENTS    8  8  8  8  8  8  8  8
TYPE ASSIGNMENTS      1  1  1  1  1  1  1  1  1  1  1  1  1  1  1  1  1  1  1  2
TYPE ASSIGNMENTS      2  2  3  3  3  4  4  4  2  3  4  2  3  4  2  3  4  5  6  7
TYPE ASSIGNMENTS      8  9 10  5  6  7  8  9 10  5  6  7  8  9 10 11 12 13 17 14
TYPE ASSIGNMENTS     15 18 19 16 20 11 12 13 17 14 15 18 19 16 20  1  1  1  1  1
TYPE ASSIGNMENTS      1  1  1  1  1  1  1  1  1  1  1  1  1  1  2  2  2  3  3  3
TYPE ASSIGNMENTS      4  4  4  2  3  4  2  3  4  2  3  4  5  6  7  8  9 10  5  6
TYPE ASSIGNMENTS      7  8  9 10  5  6  7  8  9 10 11 12 13 17 14 15 18 19 16 20
TYPE ASSIGNMENTS     11 12 13 17 14 15 18 19 16 20  1  1  1  1  1  1  1  1  1  1
TYPE ASSIGNMENTS      1  1  1  1  1  1  1  1  1  2  2  2  3  3  3  4  4  4  2  3
TYPE ASSIGNMENTS      4  2  3  4  2  3  4  5  6  7  8  9 10  5  6  7  8  9 10  5
TYPE ASSIGNMENTS      6  7  8  9 10 11 12 13 17 14 15 18 19 16 20 11 12 13 17 14
TYPE ASSIGNMENTS     15 18 19 16 20  1  1  1  1  1  1  2  3  4  2  3  4  2  3  4
TYPE ASSIGNMENTS      5  6  7  8  9 10  5  6  7  8  9 10  1  1  1  1  1  1  1  1
TYPE ASSIGNMENTS      1  1  1  1  1  1  1  1  1  1  1  2  2  2  3  3  3  4  4  4
TYPE ASSIGNMENTS      2  3  4  2  3  4  2  3  4  5  6  7  8  9 10  5  6  7  8  9
TYPE ASSIGNMENTS     10  5  6  7  8  9 10 11 12 13 17 14 15 18 19 16 20 11 12 13
TYPE ASSIGNMENTS     17 14 15 18 19 16 20  1  1  1  1  1  1  2  3  4  2  3  4  2
TYPE ASSIGNMENTS      3  4  5  6  7  8  9 10  5  6  7  8  9 10  1  1  1  1  1  1
TYPE ASSIGNMENTS      2  3  4  2  3  4  2  3  4  5  6  7  8  9 10  5  6  7  8  9
TYPE ASSIGNMENTS     10  1  1  1  1  1  1  2  3  4  2  3  4  2  3  4  5  6  7  8
TYPE ASSIGNMENTS      9 10  5  6  7  8  9 10
EXPONENTS  0.8236000D+04 0.1235000D+04 0.2808000D+03 0.7927000D+02 0.2559000D+02
EXPONENTS  0.8997000D+01 0.3319000D+01 0.3643000D+00 0.8236000D+04 0.1235000D+04
EXPONENTS  0.2808000D+03 0.7927000D+02 0.2559000D+02 0.8997000D+01 0.3319000D+01
EXPONENTS  0.3643000D+00 0.9059000D+00 0.1285000D+00 0.4402000D-01 0.1871000D+02
EXPONENTS  0.4133000D+01 0.1200000D+01 0.1871000D+02 0.4133000D+01 0.1200000D+01
EXPONENTS  0.1871000D+02 0.4133000D+01 0.1200000D+01 0.3827000D+00 0.3827000D+00
EXPONENTS  0.3827000D+00 0.1209000D+00 0.1209000D+00 0.1209000D+00 0.3569000D-01
EXPONENTS  0.3569000D-01 0.3569000D-01 0.1097000D+01 0.1097000D+01 0.1097000D+01
EXPONENTS  0.1097000D+01 0.1097000D+01 0.1097000D+01 0.3180000D+00 0.3180000D+00
EXPONENTS  0.3180000D+00 0.3180000D+00 0.3180000D+00 0.3180000D+00 0.1000000D+00
EXPONENTS  0.1000000D+00 0.1000000D+00 0.1000000D+00 0.1000000D+00 0.1000000D+00
EXPONENTS  0.7610000D+00 0.7610000D+00 0.7610000D+00 0.7610000D+00 0.7610000D+00
EXPONENTS  0.7610000D+00 0.7610000D+00 0.7610000D+00 0.7610000D+00 0.7610000D+00
EXPONENTS  0.2680000D+00 0.2680000D+00 0.2680000D+00 0.2680000D+00 0.2680000D+00
EXPONENTS  0.2680000D+00 0.2680000D+00 0.2680000D+00 0.2680000D+00 0.2680000D+00
EXPONENTS  0.1533000D+05 0.2299000D+04 0.5224000D+03 0.1473000D+03 0.4755000D+02
EXPONENTS  0.1676000D+02 0.6207000D+01 0.6882000D+00 0.1533000D+05 0.2299000D+04
EXPONENTS  0.5224000D+03 0.1473000D+03 0.4755000D+02 0.1676000D+02 0.6207000D+01
EXPONENTS  0.6882000D+00 0.1752000D+01 0.2384000D+00 0.7376000D-01 0.3446000D+02
EXPONENTS  0.7749000D+01 0.2280000D+01 0.3446000D+02 0.7749000D+01 0.2280000D+01
EXPONENTS  0.3446000D+02 0.7749000D+01 0.2280000D+01 0.7156000D+00 0.7156000D+00
EXPONENTS  0.7156000D+00 0.2140000D+00 0.2140000D+00 0.2140000D+00 0.5974000D-01
EXPONENTS  0.5974000D-01 0.5974000D-01 0.2314000D+01 0.2314000D+01 0.2314000D+01
EXPONENTS  0.2314000D+01 0.2314000D+01 0.2314000D+01 0.6450000D+00 0.6450000D+00
EXPONENTS  0.6450000D+00 0.6450000D+00 0.6450000D+00 0.6450000D+00 0.2140000D+00
EXPONENTS  0.2140000D+00 0.2140000D+00 0.2140000D+00 0.2140000D+00 0.2140000D+00
EXPONENTS  0.1428000D+01 0.1428000D+01 0.1428000D+01 0.1428000D+01 0.1428000D+01
EXPONENTS  0.1428000D+01 0.1428000D+01 0.1428000D+01 0.1428000D+01 0.1428000D+01
EXPONENTS  0.5000000D+00 0.5000000D+00 0.5000000D+00 0.5000000D+00 0.5000000D+00
EXPONENTS  0.5000000D+00 0.5000000D+00 0.5000000D+00 0.5000000D+00 0.5000000D+00
EXPONENTS  0.1533000D+05 0.2299000D+04 0.5224000D+03 0.1473000D+03 0.4755000D+02
EXPONENTS  0.1676000D+02 0.6207000D+01 0.6882000D+00 0.1533000D+05 0.2299000D+04
EXPONENTS  0.5224000D+03 0.1473000D+03 0.4755000D+02 0.1676000D+02 0.6207000D+01
EXPONENTS  0.6882000D+00 0.1752000D+01 0.2384000D+00 0.7376000D-01 0.3446000D+02
EXPONENTS  0.7749000D+01 0.2280000D+01 0.3446000D+02 0.7749000D+01 0.2280000D+01
EXPONENTS  0.3446000D+02 0.7749000D+01 0.2280000D+01 0.7156000D+00 0.7156000D+00
EXPONENTS  0.7156000D+00 0.2140000D+00 0.2140000D+00 0.2140000D+00 0.5974000D-01
EXPONENTS  0.5974000D-01 0.5974000D-01 0.2314000D+01 0.2314000D+01 0.2314000D+01
EXPONENTS  0.2314000D+01 0.2314000D+01 0.2314000D+01 0.6450000D+00 0.6450000D+00
EXPONENTS  0.6450000D+00 0.6450000D+00 0.6450000D+00 0.6450000D+00 0.2140000D+00
EXPONENTS  0.2140000D+00 0.2140000D+00 0.2140000D+00 0.2140000D+00 0.2140000D+00
EXPONENTS  0.1428000D+01 0.1428000D+01 0.1428000D+01 0.1428000D+01 0.1428000D+01
EXPONENTS  0.1428000D+01 0.1428000D+01 0.1428000D+01 0.1428000D+01 0.1428000D+01
EXPONENTS  0.5000000D+00 0.5000000D+00 0.5000000D+00 0.5000000D+00 0.5000000D+00
EXPONENTS  0.5000000D+00 0.5000000D+00 0.5000000D+00 0.5000000D+00 0.5000000D+00
EXPONENTS  0.3387000D+02 0.5095000D+01 0.1159000D+01 0.3258000D+00 0.1027000D+00
EXPONENTS  0.2526000D-01 0.1407000D+01 0.1407000D+01 0.1407000D+01 0.3880000D+00
EXPONENTS  0.3880000D+00 0.3880000D+00 0.1020000D+00 0.1020000D+00 0.1020000D+00
EXPONENTS  0.1057000D+01 0.1057000D+01 0.1057000D+01 0.1057000D+01 0.1057000D+01
EXPONENTS  0.1057000D+01 0.2470000D+00 0.2470000D+00 0.2470000D+00 0.2470000D+00
EXPONENTS  0.2470000D+00 0.2470000D+00 0.8236000D+04 0.1235000D+04 0.2808000D+03
EXPONENTS  0.7927000D+02 0.2559000D+02 0.8997000D+01 0.3319000D+01 0.3643000D+00
EXPONENTS  0.8236000D+04 0.1235000D+04 0.2808000D+03 0.7927000D+02 0.2559000D+02
EXPONENTS  0.8997000D+01 0.3319000D+01 0.3643000D+00 0.9059000D+00 0.1285000D+00
EXPONENTS  0.4402000D-01 0.1871000D+02 0.4133000D+01 0.1200000D+01 0.1871000D+02
EXPONENTS  0.4133000D+01 0.1200000D+01 0.1871000D+02 0.4133000D+01 0.1200000D+01
EXPONENTS  0.3827000D+00 0.3827000D+00 0.3827000D+00 0.1209000D+00 0.1209000D+00
EXPONENTS  0.1209000D+00 0.3569000D-01 0.3569000D-01 0.3569000D-01 0.1097000D+01
EXPONENTS  0.1097000D+01 0.1097000D+01 0.1097000D+01 0.1097000D+01 0.1097000D+01
EXPONENTS  0.3180000D+00 0.3180000D+00 0.3180000D+00 0.3180000D+00 0.3180000D+00
EXPONENTS  0.3180000D+00 0.1000000D+00 0.1000000D+00 0.1000000D+00 0.1000000D+00
EXPONENTS  0.1000000D+00 0.1000000D+00 0.7610000D+00 0.7610000D+00 0.7610000D+00
EXPONENTS  0.7610000D+00 0.7610000D+00 0.7610000D+00 0.7610000D+00 0.7610000D+00
EXPONENTS  0.7610000D+00 0.7610000D+00 0.2680000D+00 0.2680000D+00 0.2680000D+00
EXPONENTS  0.2680000D+00 0.2680000D+00 0.2680000D+00 0.2680000D+00 0.2680000D+00
EXPONENTS  0.2680000D+00 0.2680000D+00 0.3387000D+02 0.5095000D+01 0.1159000D+01
EXPONENTS  0.3258000D+00 0.1027000D+00 0.2526000D-01 0.1407000D+01 0.1407000D+01
EXPONENTS  0.1407000D+01 0.3880000D+00 0.3880000D+00 0.3880000D+00 0.1020000D+00
EXPONENTS  0.1020000D+00 0.1020000D+00 0.1057000D+01 0.1057000D+01 0.1057000D+01
EXPONENTS  0.1057000D+01 0.1057000D+01 0.1057000D+01 0.2470000D+00 0.2470000D+00
EXPONENTS  0.2470000D+00 0.2470000D+00 0.2470000D+00 0.2470000D+00 0.3387000D+02
EXPONENTS  0.5095000D+01 0.1159000D+01 0.3258000D+00 0.1027000D+00 0.2526000D-01
EXPONENTS  0.1407000D+01 0.1407000D+01 0.1407000D+01 0.3880000D+00 0.3880000D+00
EXPONENTS  0.3880000D+00 0.1020000D+00 0.1020000D+00 0.1020000D+00 0.1057000D+01
EXPONENTS  0.1057000D+01 0.1057000D+01 0.1057000D+01 0.1057000D+01 0.1057000D+01
EXPONENTS  0.2470000D+00 0.2470000D+00 0.2470000D+00 0.2470000D+00 0.2470000D+00
EXPONENTS  0.2470000D+00 0.3387000D+02 0.5095000D+01 0.1159000D+01 0.3258000D+00
EXPONENTS  0.1027000D+00 0.2526000D-01 0.1407000D+01 0.1407000D+01 0.1407000D+01
EXPONENTS  0.3880000D+00 0.3880000D+00 0.3880000D+00 0.1020000D+00 0.1020000D+00
EXPONENTS  0.1020000D+00 0.1057000D+01 0.1057000D+01 0.1057000D+01 0.1057000D+01
EXPONENTS  0.1057000D+01 0.1057000D+01 0.2470000D+00 0.2470000D+00 0.2470000D+00
EXPONENTS  0.2470000D+00 0.2470000D+00 0.2470000D+00
MO    1     MO 0.0        OCC NO =    2.0000000  ORB. ENERGY =  -19.678543
  0.34523946D-03  0.64360485D-03  0.10878056D-02  0.16353281D-02  0.20091895D-02
  0.16970818D-02  0.64007680D-03 -0.31677758D-05 -0.25460350D-03 -0.47669809D-03
 -0.81161929D-03 -0.12554516D-02 -0.16533856D-02 -0.17179736D-02 -0.10916951D-02
  0.73162866D-03 -0.21047015D-04  0.23331514D-02  0.19587242D-03 -0.22350973D-04
 -0.20955458D-04 -0.14921535D-04  0.24138697D-04  0.22631562D-04  0.16115021D-04
  0.59468992D-05  0.55755960D-05  0.39701565D-05  0.93969434D-03 -0.23556039D-02
 -0.56327842D-03 -0.50135516D-03  0.17660640D-03  0.40131168D-04  0.15814154D-04
 -0.11698216D-04 -0.27368723D-05 -0.54060767D-03  0.93943176D-03 -0.39882409D-03
 -0.14040564D-02 -0.33829638D-03  0.67575627D-03  0.43908412D-04  0.66952975D-04
 -0.11086139D-03 -0.11841361D-03 -0.30191396D-04  0.94217690D-04  0.12415577D-03
 -0.82910108D-04 -0.41245661D-04 -0.23138430D-03 -0.54348962D-04 -0.22801091D-04
  0.81288487D-04 -0.18199307D-03  0.89180657D-04 -0.68797042D-04  0.24459389D-03
  0.62474263D-04 -0.17506842D-03  0.30138531D-03 -0.33001623D-03  0.54672746D-04
  0.79604879D-04  0.17737550D-03 -0.24267129D-04 -0.17851017D-03 -0.46433647D-03
 -0.11053204D-03 -0.60304464D-04 -0.67790025D-04  0.18333343D-03 -0.69383309D-04
  0.69538455D-04  0.12961073D-03  0.21977686D-03  0.33264251D-03  0.41504073D-03
  0.35646464D-03  0.13685370D-03 -0.61215502D-06 -0.10542633D-03 -0.19772969D-03
 -0.33708578D-03 -0.52679946D-03 -0.70443125D-03 -0.75216835D-03 -0.45986098D-03
  0.30338834D-03 -0.26876917D-04  0.29393598D-03  0.43251515D-03  0.75208184D-04
  0.72926639D-04  0.49195880D-04  0.15736113D-03  0.15258736D-03  0.10293453D-03
  0.35788607D-04  0.34702910D-04  0.23410378D-04 -0.15493125D-03 -0.35132710D-03
 -0.82775768D-04  0.26219527D-03 -0.23968815D-03 -0.53814672D-04 -0.43904528D-04
 -0.14890546D-04 -0.37940992D-05 -0.74602367D-04  0.39420415D-03 -0.31960179D-03
 -0.47840977D-03 -0.11364448D-03  0.36548456D-03  0.79628431D-04 -0.18014103D-03
  0.10051259D-03  0.48021302D-03  0.11531108D-03 -0.14289359D-03 -0.10575982D-03
  0.63733751D-04  0.42026071D-04  0.91604999D-04  0.20384088D-04  0.10931925D-04
 -0.13757273D-03 -0.36930237D-04  0.13040711D-04  0.23852878D-03  0.68618821D-04
  0.16142882D-04  0.17418941D-03  0.42171889D-04 -0.55265014D-04  0.35514363D-04
  0.60771419D-04  0.10741551D-03 -0.23547445D-04 -0.14593881D-03 -0.24996206D-03
 -0.60355621D-04 -0.36375450D-04 -0.72284478D-04  0.13099796D-03 -0.58868509D-04
  0.49859561D+00  0.92931806D+00  0.15758155D+01  0.23850702D+01  0.29758712D+01
  0.25558765D+01  0.98125068D+00 -0.43891945D-02 -0.36524050D-03 -0.68501762D-03
 -0.11678049D-02 -0.18250517D-02 -0.24404419D-02 -0.26058229D-02 -0.15931490D-02
  0.10510630D-02  0.50011233D-01 -0.51794080D-03 -0.53362391D-04  0.35176437D-02
  0.34109311D-02  0.23009940D-02  0.64834596D-02  0.62867749D-02  0.42410212D-02
  0.15947544D-02  0.15463753D-02  0.10431756D-02  0.95849230D-03 -0.74608712D-03
 -0.17383495D-03 -0.59289002D-03 -0.13254140D-02 -0.32440143D-03 -0.24600598D-04
 -0.14701526D-04 -0.37533304D-05  0.23869814D-02  0.40872054D-03 -0.27957020D-02
 -0.21073431D-02 -0.43556629D-03  0.16266902D-02  0.77522352D-04 -0.75913365D-03
  0.68161130D-03  0.11321979D-02  0.26220309D-03 -0.72912058D-03  0.42089250D-04
 -0.21408667D-03  0.17199742D-03 -0.32761260D-04 -0.11608863D-04 -0.19868600D-03
  0.93778461D-03 -0.44922451D-04 -0.73954794D-04 -0.12353778D-02  0.36378855D-03
  0.13101429D-03 -0.15779760D-02 -0.22902120D-03  0.90850089D-04  0.18812396D-03
 -0.32574558D-03 -0.15957049D-03  0.10608127D-03  0.70619020D-03  0.12115662D-03
  0.17596418D-04  0.27104653D-03  0.35755485D-03 -0.33584022D-03  0.21652633D-03
  0.21580807D-03  0.38921874D-03  0.57390280D-03  0.41307334D-03 -0.98204190D-03
 -0.23199659D-04  0.37826039D-03 -0.59251297D-04 -0.12111482D-04  0.52581424D-03
 -0.10173621D-03 -0.18198206D-04  0.17844864D-03 -0.14928471D-03 -0.34359310D-04
 -0.19279582D-02  0.95726847D-03  0.97068972D-03 -0.47107417D-04 -0.53075769D-04
 -0.75282333D-05 -0.31556310D-04 -0.16422915D-04  0.47979225D-04  0.73803231D-04
  0.16098321D-04 -0.32522541D-04  0.13689118D-03  0.25519628D-03  0.43132667D-03
  0.64842526D-03  0.79666536D-03  0.67291125D-03  0.25379737D-03 -0.12560573D-05
 -0.10064837D-03 -0.18844551D-03 -0.32084460D-03 -0.49629781D-03 -0.65360676D-03
 -0.67913929D-03 -0.43156253D-03  0.28922317D-03  0.36267722D-03 -0.42292564D-02
 -0.15147310D-03 -0.18114488D-03 -0.16983484D-03 -0.12093252D-03 -0.59231251D-05
 -0.55533062D-05 -0.39542849D-05 -0.37599511D-05 -0.35251932D-05 -0.25101476D-05
  0.68194945D-03 -0.19017126D-03 -0.38375487D-04 -0.59532042D-03 -0.10837618D-03
 -0.34111428D-04 -0.13456399D-04 -0.12426142D-05 -0.48824842D-06  0.29787088D-04
  0.35913192D-04 -0.65700280D-04 -0.24534519D-03 -0.61662190D-04  0.51702148D-04
  0.46290773D-03 -0.43425783D-03 -0.28649906D-04  0.85176125D-03  0.21320579D-03
 -0.18551808D-03 -0.60294876D-05  0.20530519D-04 -0.14501031D-04 -0.49916284D-04
 -0.12148316D-04  0.16511000D-04 -0.28996083D-04 -0.14509041D-03  0.38514062D-04
  0.10834575D-03  0.29601141D-03  0.68153603D-04 -0.21357501D-04  0.13925981D-03
 -0.18369579D-03  0.58824324D-04  0.21003940D-04 -0.11842671D-03  0.55947000D-04
 -0.54339071D-04  0.14904310D-03  0.33474259D-04 -0.86727474D-05  0.20623703D-03
 -0.20131526D-03 -0.36709395D-04  0.95315472D-05  0.17190538D-04  0.25347438D-04
  0.20941935D-02 -0.31909524D-03  0.12713772D-04  0.55290356D-04 -0.21262108D-03
 -0.46783972D-04  0.54242299D-03 -0.64474008D-03 -0.13877516D-03  0.39065429D-05
  0.25996709D-04  0.61933445D-05  0.12720739D-04  0.63903032D-04 -0.76623771D-04
 -0.22724599D-03 -0.46720362D-04  0.62184755D-04 -0.10672094D-04  0.14022437D-04
 -0.33503429D-05 -0.31128531D-04 -0.38536337D-05  0.87543960D-05 -0.12423170D-04
 -0.22405698D-04 -0.33037189D-04  0.87816850D-03  0.56204997D-03 -0.26349644D-05
 -0.15605939D-04  0.97946343D-05  0.14984722D-03  0.41119892D-03  0.80124132D-04
  0.62523320D-04  0.81148054D-04  0.37561804D-04  0.47071781D-04  0.12944511D-03
 -0.88335836D-04 -0.41109272D-04 -0.65591756D-04  0.24481503D-03  0.83819600D-04
  0.43950967D-04 -0.15877297D-04 -0.28073669D-04 -0.12075009D-04 -0.11663223D-04
  0.18377802D-04 -0.11949758D-04 -0.21551881D-04 -0.31778235D-04  0.91284767D-03
  0.55757923D-03 -0.18257701D-05 -0.15360666D-04  0.77464101D-04 -0.12885753D-03
  0.39526858D-03  0.94701945D-04 -0.44652189D-04  0.80301947D-04  0.51308725D-04
 -0.27345592D-04  0.12321421D-03 -0.49009580D-04 -0.74204630D-04  0.38132360D-04
 -0.24247685D-03 -0.95313958D-04  0.43503193D-04 -0.11181096D-04 -0.32322097D-04
 -0.19146648D-04  0.53910056D-05 -0.19645127D-05
MO    2     MO 0.0        OCC NO =    2.0000000  ORB. ENERGY =  -19.623665
  0.50334026D-03  0.93834069D-03  0.15859611D-02  0.23842190D-02  0.29292885D-02
  0.24742524D-02  0.93319698D-03 -0.46184439D-05 -0.39262529D-03 -0.73511842D-03
 -0.12516020D-02 -0.19360380D-02 -0.25496939D-02 -0.26492953D-02 -0.16835082D-02
  0.11282481D-02  0.12974786D-02 -0.56962705D-03 -0.40986292D-03  0.58659724D-03
  0.54997220D-03  0.39161297D-03  0.89283428D-03  0.83708889D-03  0.59605716D-03
  0.22080264D-03  0.20701651D-03  0.14740809D-03  0.13009578D-02  0.12964808D-02
  0.32081738D-03 -0.10852591D-02 -0.25083600D-03 -0.66402692D-04  0.11205309D-04
  0.88642417D-06  0.44997170D-06  0.71671743D-04  0.24256754D-03 -0.31423928D-03
  0.13703942D-02  0.33545246D-03  0.29515895D-03 -0.23412679D-03 -0.11751767D-03
  0.35164446D-03 -0.81383422D-03 -0.19901102D-03 -0.24592950D-03  0.69184917D-04
 -0.98340351D-04  0.29155434D-04 -0.27984668D-03 -0.67356001D-04 -0.66543076D-04
  0.37975795D-03  0.14103649D-03  0.63273551D-04 -0.11711896D-02 -0.66416123D-03
 -0.15756528D-03  0.31915740D-04  0.24105175D-03 -0.32255370D-04 -0.62482940D-03
  0.18619947D-03  0.80483624D-04  0.17792828D-04 -0.66704655D-03 -0.30952212D-03
 -0.74081282D-04  0.10844815D-03  0.68071248D-04  0.20702796D-04 -0.40099058D-03
  0.49848464D+00  0.92911123D+00  0.15754648D+01  0.23845393D+01  0.29752089D+01
  0.25553076D+01  0.98103229D+00 -0.43882176D-02 -0.28046114D-03 -0.52601182D-03
 -0.89673483D-03 -0.14014220D-02 -0.18739682D-02 -0.20009612D-02 -0.12233484D-02
  0.80709099D-03  0.50058587D-01  0.18103420D-02  0.61153979D-03 -0.44871548D-02
 -0.43510307D-02 -0.29351796D-02 -0.62037145D-02 -0.60155162D-02 -0.40580317D-02
 -0.15251130D-02 -0.14788466D-02 -0.99762116D-03 -0.72567244D-04 -0.16965264D-03
 -0.40358554D-04  0.94725173D-03  0.77921781D-03  0.19062747D-03 -0.76500607D-05
 -0.10551739D-04 -0.28971529D-05  0.18543865D-03  0.11785381D-02 -0.13639768D-02
  0.42646463D-02  0.10515008D-02  0.13288488D-02 -0.19205775D-03 -0.32642717D-03
  0.51848492D-03 -0.10883699D-02 -0.27230727D-03 -0.43798984D-03 -0.11876313D-03
 -0.10903951D-03  0.22780263D-03 -0.46590349D-03 -0.11567356D-03 -0.17488884D-03
  0.40526479D-04  0.18522478D-04  0.52419152D-04 -0.35291923D-03 -0.24304754D-03
 -0.59622913D-04  0.23133979D-03  0.18748010D-03 -0.97634542D-04 -0.30395799D-03
 -0.22359978D-05  0.30014333D-04 -0.10203247D-03  0.34863297D-03  0.26815549D-03
  0.69103963D-04 -0.34192498D-03 -0.35819849D-03  0.23699345D-03  0.36156936D-03
  0.28073238D-03  0.52324904D-03  0.88725701D-03  0.13429048D-02  0.16755531D-02
  0.14390767D-02  0.55248951D-03 -0.24713195D-05 -0.13326409D-03 -0.24994011D-03
 -0.42609310D-03 -0.66590058D-03 -0.89043595D-03 -0.95077800D-03 -0.58128702D-03
  0.38349787D-03 -0.74873962D-04  0.10775144D-02  0.45146694D-03  0.25500912D-03
  0.24727307D-03  0.16680895D-03 -0.41985250D-03 -0.40711569D-03 -0.27463784D-03
 -0.10081621D-03 -0.97757816D-04 -0.65946845D-04 -0.45387569D-03  0.72484181D-03
  0.17324000D-03 -0.66795073D-04  0.19374783D-03  0.46942729D-04 -0.49605387D-04
  0.15476024D-04  0.33358010D-05 -0.12918773D-03  0.51615889D-03 -0.38697116D-03
  0.73332550D-03  0.18212551D-03  0.46471842D-03 -0.12982751D-03  0.14962230D-04
  0.11486528D-03 -0.74881368D-03 -0.18539295D-03 -0.53977193D-04  0.25501268D-04
 -0.16763458D-04 -0.87378101D-05 -0.79073040D-04 -0.18657255D-04 -0.50018566D-05
 -0.24270613D-03  0.16500245D-03 -0.49193669D-04  0.22085185D-03 -0.32714013D-03
 -0.90868097D-04  0.50726654D-03 -0.16786721D-03  0.23844910D-03 -0.15122276D-03
  0.16752311D-03 -0.30629151D-04  0.32390498D-04 -0.36819667D-03 -0.23401084D-04
 -0.14900006D-05 -0.13437267D-03  0.11528854D-03 -0.95681495D-04 -0.12185968D-03
 -0.21255082D-04 -0.38334416D-04 -0.56524073D-04 -0.67260769D-04 -0.52364992D-03
  0.68382858D-05 -0.21078527D-03  0.32117137D-03  0.75807015D-04 -0.50363970D-04
  0.12863233D-04  0.39562230D-05  0.94420391D-04 -0.79150419D-04 -0.18070339D-04
  0.20168983D-03 -0.11322696D-03 -0.88462872D-04 -0.28430166D-03 -0.65579114D-04
 -0.16228421D-04  0.24236154D-04 -0.28988846D-04  0.47526926D-05  0.58501247D-04
  0.13863306D-04 -0.16375564D-04  0.15102398D-03  0.28154303D-03  0.47585733D-03
  0.71536943D-03  0.87891400D-03  0.74238338D-03  0.27999970D-03 -0.13857341D-05
 -0.10885291D-03 -0.20380699D-03 -0.34699884D-03 -0.53675445D-03 -0.70688672D-03
 -0.73450058D-03 -0.46674215D-03  0.31279973D-03  0.13606665D-03 -0.17429346D-02
  0.17600260D-03 -0.18621690D-03 -0.17459018D-03 -0.12431861D-03  0.41452190D-05
  0.38864063D-05  0.27673528D-05 -0.11259331D-05 -0.10556338D-05 -0.75167417D-06
  0.12487681D-02  0.89644661D-05  0.93797514D-05 -0.42582556D-03  0.15402951D-03
  0.28052929D-04  0.87314224D-05  0.14891113D-04  0.32829824D-05  0.35484969D-03
 -0.88919692D-04 -0.26593000D-03  0.37285250D-03  0.91321630D-04  0.95904048D-04
  0.44370279D-03 -0.39133486D-03 -0.52367932D-04 -0.44596559D-03 -0.91576433D-04
 -0.17295947D-03 -0.10854243D-04  0.44077786D-04 -0.33223543D-04 -0.11001069D-03
 -0.24922589D-04  0.38205484D-04  0.89860191D-04 -0.11002194D-03  0.32994346D-04
 -0.29667484D-03  0.21008522D-03  0.44573449D-04  0.27094268D-04  0.11998059D-03
 -0.14355649D-03 -0.16302161D-03  0.46526705D-04 -0.12545796D-04  0.14892287D-04
 -0.29774082D-03 -0.22680556D-04 -0.78772717D-05  0.15816071D-03  0.60317945D-04
 -0.36799589D-04 -0.22872220D-03 -0.24486065D-04 -0.44161626D-04 -0.65116292D-04
  0.27255533D-03 -0.98173138D-03 -0.26815941D-04  0.13067013D-04 -0.38926164D-06
  0.39161629D-05  0.76598202D-03 -0.17989636D-03 -0.46624631D-04  0.49355352D-04
  0.82823204D-04  0.15983108D-04  0.22911910D-03 -0.10298310D-03 -0.12613600D-03
 -0.54079313D-03 -0.11412364D-03  0.13148945D-04  0.11226503D-04  0.96770265D-05
 -0.20903530D-04 -0.10016457D-03 -0.20815980D-04  0.15035114D-04  0.57775843D-05
  0.10420111D-04  0.15364448D-04  0.63718522D-03  0.39841157D-03  0.17837753D-04
 -0.66055142D-05 -0.30264659D-04  0.82028871D-04  0.63247283D-04  0.15488363D-03
  0.24971153D-03  0.30538750D-05  0.20930495D-04  0.52281264D-04 -0.93151812D-04
 -0.26701091D-05  0.95821921D-04 -0.96596509D-04  0.28592111D-04  0.10153671D-03
 -0.14808818D-04 -0.46387749D-05  0.19447593D-04 -0.62983697D-04  0.35275285D-04
  0.27539172D-04  0.47792346D-05  0.86195463D-05  0.12709516D-04  0.65067157D-03
  0.39962595D-03  0.17921316D-04 -0.11967459D-04  0.74341632D-05 -0.92535991D-04
  0.51683578D-04  0.25439353D-03 -0.15814566D-03  0.20859830D-05  0.39715527D-04
 -0.38963765D-04 -0.96751892D-04  0.56010917D-04  0.40740975D-04 -0.73673022D-04
 -0.54314864D-04 -0.14934935D-03 -0.12977768D-04  0.98819768D-05  0.30957910D-05
 -0.39035809D-04 -0.55844770D-04 -0.36946685D-04
MO    3     MO 0.0        OCC NO =    2.0000000  ORB. ENERGY =  -10.686124
  0.32998485D+00  0.61516679D+00  0.10397402D+01  0.15630702D+01  0.19204123D+01
  0.16220952D+01  0.61179462D+00 -0.30278057D-02 -0.28623892D-02 -0.53592958D-02
 -0.91246596D-02 -0.14114461D-01 -0.18588249D-01 -0.19314381D-01 -0.12273422D-01
  0.82253621D-02  0.33908834D-01  0.26584401D-02 -0.10701550D-02  0.13324390D-02
  0.12492462D-02  0.88953773D-03 -0.14157640D-02 -0.13273687D-02 -0.94516561D-03
 -0.33500906D-03 -0.31409229D-03 -0.22365242D-03  0.37618812D-02  0.25010452D-02
  0.63327905D-03 -0.40379025D-02 -0.62705875D-03 -0.16958617D-03  0.66462871D-04
 -0.27298599D-04 -0.57417125D-05  0.83402158D-03  0.28336939D-02 -0.36677154D-02
  0.32667663D-02  0.83559004D-03  0.33625370D-02 -0.11013977D-02  0.48816704D-03
  0.61323062D-03 -0.23209686D-04 -0.56792737D-05 -0.66243556D-04  0.24202133D-03
 -0.29771160D-03  0.55690270D-04 -0.50864685D-03 -0.12097523D-03 -0.18365597D-03
 -0.47822194D-03 -0.12584998D-03 -0.20996413D-03  0.26186407D-02  0.11027299D-02
  0.27071650D-03 -0.11839749D-02 -0.72518000D-03  0.35917589D-03  0.19823425D-02
  0.37539383D-03 -0.21165648D-04  0.17153880D-04 -0.15648830D-02  0.15556617D-04
  0.27211101D-06  0.43870152D-03  0.47940327D-04 -0.51733751D-04 -0.10205024D-02
  0.68872499D-03  0.12836948D-02  0.21767210D-02  0.32945686D-02  0.41106597D-02
  0.35305085D-02  0.13554308D-02 -0.60629254D-05 -0.61459978D-03 -0.11526971D-02
 -0.19650959D-02 -0.30710624D-02 -0.41065955D-02 -0.43848866D-02 -0.26808337D-02
  0.17686512D-02  0.12665144D-02  0.61639849D-03  0.15090967D-02 -0.24334570D-02
 -0.23596347D-02 -0.15917956D-02 -0.31504750D-02 -0.30549010D-02 -0.20608181D-02
 -0.77194813D-03 -0.74853001D-03 -0.50495392D-03  0.11825170D-02  0.18038896D-02
  0.43792612D-03  0.25593837D-02  0.27527005D-02  0.66514865D-03 -0.64221720D-04
 -0.22785231D-05 -0.20124638D-05  0.37324503D-03  0.68692745D-03 -0.10601725D-02
  0.31402807D-02  0.77870583D-03  0.90071052D-03 -0.32102641D-03 -0.12301863D-02
  0.15512127D-02 -0.45884876D-02 -0.11289152D-02 -0.14445595D-02 -0.24711316D-03
 -0.31274591D-03  0.55985907D-03 -0.12683314D-02 -0.31059927D-03 -0.45279763D-03
 -0.66067374D-03 -0.32976110D-04 -0.26808811D-03  0.23201434D-02  0.10600333D-02
  0.25121081D-03 -0.33812219D-03 -0.96110497D-03  0.55305351D-03  0.13898993D-02
 -0.14509554D-03 -0.21918186D-04 -0.21377643D-03  0.12653354D-02  0.82375799D-03
  0.20632398D-03 -0.83004880D-03 -0.75800343D-03  0.43500531D-03  0.10920603D-02
  0.43517040D-03  0.81110163D-03  0.13753596D-02  0.20816708D-02  0.25973174D-02
  0.22307493D-02  0.85642802D-03 -0.38308551D-05 -0.36939400D-03 -0.69280761D-03
 -0.11810851D-02 -0.18458061D-02 -0.24681945D-02 -0.26354562D-02 -0.16112663D-02
  0.10630156D-02  0.55292847D-03  0.87226807D-03  0.75135455D-03 -0.50246301D-03
 -0.48722010D-03 -0.32867580D-03  0.13530273D-02  0.13119813D-02  0.88505486D-03
  0.32278219D-03  0.31299015D-03  0.21114131D-03 -0.64518687D-03  0.89781603D-03
  0.21334344D-03  0.23246263D-02 -0.25019398D-03 -0.48653804D-04 -0.89433092D-04
  0.25163022D-04  0.49666335D-05 -0.10353815D-02  0.21734032D-02 -0.11380217D-02
 -0.39567003D-02 -0.95472960D-03  0.16802783D-02  0.26662278D-03 -0.10500063D-02
  0.78338352D-03  0.24851453D-02  0.59916959D-03 -0.92988119D-03  0.46099406D-04
 -0.19087628D-03  0.14477688D-03  0.12982354D-02  0.31805156D-03 -0.16630450D-03
 -0.41204340D-03 -0.40607219D-03  0.20706087D-03  0.10870746D-02  0.53787933D-03
  0.10545801D-03  0.14905558D-03  0.68033724D-03 -0.72664064D-03  0.47040197D-03
 -0.24934144D-03 -0.48423328D-03  0.13484215D-03  0.11189287D-02  0.10060642D-02
  0.25422043D-03 -0.37090440D-03  0.44663559D-03 -0.65874689D-03  0.77858308D-03
 -0.36647936D-04 -0.66096063D-04 -0.97458606D-04 -0.84321985D-03 -0.73410585D-03
 -0.20610020D-04  0.28079191D-03 -0.84718578D-03 -0.20630873D-03 -0.43311483D-03
 -0.85196172D-03 -0.21677755D-03  0.74842547D-04 -0.19745914D-03 -0.46962183D-04
  0.27077145D-03 -0.33946957D-04 -0.23682449D-03  0.14447793D-02  0.36654018D-03
  0.11500623D-03  0.89076728D-04  0.52222127D-04 -0.14129886D-03  0.89978838D-04
  0.25448349D-04  0.10220113D-03  0.74405767D-03  0.13870927D-02  0.23444310D-02
  0.35244477D-02  0.43301912D-02  0.36575387D-02  0.13794890D-02 -0.68271682D-05
 -0.15662704D-03 -0.29325523D-03 -0.49929212D-03 -0.77232899D-03 -0.10171301D-02
 -0.10568633D-02 -0.67158921D-03  0.45008347D-03  0.38624909D-03 -0.29140442D-02
  0.60263804D-03  0.39524106D-03  0.37056361D-03  0.26386337D-03  0.81256787D-04
  0.76183403D-04  0.54247121D-04  0.17806354D-04  0.16694589D-04  0.11887542D-04
  0.30396657D-02 -0.30773698D-03 -0.61993988D-04 -0.17674860D-02  0.14721528D-03
  0.14626646D-04  0.37334636D-04  0.39761043D-04  0.92183145D-05  0.13546073D-02
 -0.61824429D-03 -0.73636305D-03  0.35548024D-03  0.91217024D-04  0.75596034D-04
 -0.61170262D-03  0.14079613D-03  0.47090649D-03 -0.91423776D-03 -0.21043174D-03
 -0.17869745D-03 -0.71904678D-04  0.12703250D-03 -0.55127819D-04 -0.13862528D-03
 -0.29777114D-04  0.92540641D-04 -0.64738978D-03 -0.20461270D-05  0.56719931D-04
  0.12258584D-02 -0.20551810D-03 -0.63421954D-04  0.71631099D-03  0.21165648D-03
 -0.10673784D-03  0.25172241D-03 -0.81782035D-04  0.15714856D-03 -0.10554423D-03
 -0.37927508D-03 -0.45253933D-04 -0.17616630D-04  0.62462119D-03 -0.42619174D-03
  0.33424933D-03 -0.48944921D-03 -0.50997235D-04 -0.91975614D-04 -0.13561799D-03
 -0.12337219D-02 -0.22601237D-02 -0.46433353D-04  0.31016243D-04 -0.68032925D-04
 -0.75686390D-05 -0.16066245D-03 -0.53126374D-03 -0.12009112D-03 -0.59750675D-04
  0.18192792D-03  0.33749100D-04 -0.51129934D-03  0.63710697D-03 -0.12580764D-03
  0.29221601D-03  0.72394711D-04  0.35182484D-03 -0.19623354D-03  0.12416659D-03
  0.72066948D-04 -0.99811734D-04 -0.21515989D-04  0.26293700D-04 -0.31435240D-04
 -0.56694749D-04 -0.83596375D-04  0.12198965D-03 -0.32804117D-03  0.45671084D-04