 Molden2AIM, Version 4.0.0 (06/02/2016)           Time: Thu Jun 28 00:56:46 2018
GAUSSIAN             16 MOL ORBITALS    389 PRIMITIVES        7 NUCLEI
  C    1    (CENTRE  1)  -0.00709403  0.00145320 -0.13282885  CHARGE =  6.0
  S    2    (CENTRE  2)   0.15373867 -0.00055936  2.93268298  CHARGE = 16.0
  H    3    (CENTRE  3)   1.76224520 -0.00102801 -1.22591447  CHARGE =  1.0
  C    4    (CENTRE  4)  -2.35673981  0.00024944 -1.67298021  CHARGE =  6.0
  H    5    (CENTRE  5)  -4.05330758 -0.00014740 -0.48797453  CHARGE =  1.0
  H    6    (CENTRE  6)  -2.36823313  1.66358827 -2.92734450  CHARGE =  1.0
  H    7    (CENTRE  7)  -2.36705016 -1.66355614 -2.92673790  CHARGE =  1.0
CENTRE ASSIGNMENTS    1  1  1  1  1  1  1  1  1  1  1  1  1  1  1  1  1  1  1  1
CENTRE ASSIGNMENTS    1  1  1  1  1  1  1  1  1  1  1  1  1  1  1  1  1  1  1  1
CENTRE ASSIGNMENTS    1  1  1  1  1  1  1  1  1  1  1  1  1  1  1  1  1  1  1  1
CENTRE ASSIGNMENTS    1  1  1  1  1  1  1  1  1  1  1  1  1  1  1  2  2  2  2  2
CENTRE ASSIGNMENTS    2  2  2  2  2  2  2  2  2  2  2  2  2  2  2  2  2  2  2  2
CENTRE ASSIGNMENTS    2  2  2  2  2  2  2  2  2  2  2  2  2  2  2  2  2  2  2  2
CENTRE ASSIGNMENTS    2  2  2  2  2  2  2  2  2  2  2  2  2  2  2  2  2  2  2  2
CENTRE ASSIGNMENTS    2  2  2  2  2  2  2  2  2  2  2  2  2  2  2  2  2  2  2  2
CENTRE ASSIGNMENTS    2  2  2  2  2  2  2  2  2  2  2  2  2  2  2  2  2  2  2  2
CENTRE ASSIGNMENTS    2  2  2  2  2  2  2  2  2  2  2  2  2  2  2  2  2  2  2  2
CENTRE ASSIGNMENTS    2  2  2  2  2  2  3  3  3  3  3  3  3  3  3  3  3  3  3  3
CENTRE ASSIGNMENTS    3  3  3  3  3  3  3  3  3  3  3  3  3  4  4  4  4  4  4  4
CENTRE ASSIGNMENTS    4  4  4  4  4  4  4  4  4  4  4  4  4  4  4  4  4  4  4  4
CENTRE ASSIGNMENTS    4  4  4  4  4  4  4  4  4  4  4  4  4  4  4  4  4  4  4  4
CENTRE ASSIGNMENTS    4  4  4  4  4  4  4  4  4  4  4  4  4  4  4  4  4  4  4  4
CENTRE ASSIGNMENTS    4  4  4  4  4  4  4  4  5  5  5  5  5  5  5  5  5  5  5  5
CENTRE ASSIGNMENTS    5  5  5  5  5  5  5  5  5  5  5  5  5  5  5  6  6  6  6  6
CENTRE ASSIGNMENTS    6  6  6  6  6  6  6  6  6  6  6  6  6  6  6  6  6  6  6  6
CENTRE ASSIGNMENTS    6  6  7  7  7  7  7  7  7  7  7  7  7  7  7  7  7  7  7  7
CENTRE ASSIGNMENTS    7  7  7  7  7  7  7  7  7
TYPE ASSIGNMENTS      1  1  1  1  1  1  1  1  1  1  1  1  1  1  1  1  1  1  1  2
TYPE ASSIGNMENTS      2  2  3  3  3  4  4  4  2  3  4  2  3  4  2  3  4  5  6  7
TYPE ASSIGNMENTS      8  9 10  5  6  7  8  9 10  5  6  7  8  9 10 11 12 13 17 14
TYPE ASSIGNMENTS     15 18 19 16 20 11 12 13 17 14 15 18 19 16 20  1  1  1  1  1
TYPE ASSIGNMENTS      1  1  1  1  1  1  1  1  1  1  1  1  1  1  1  1  1  1  1  1
TYPE ASSIGNMENTS      1  1  1  1  1  1  1  1  1  1  1  1  1  1  1  1  1  2  2  2
TYPE ASSIGNMENTS      2  2  2  2  3  3  3  3  3  3  3  4  4  4  4  4  4  4  2  2
TYPE ASSIGNMENTS      2  2  2  2  2  3  3  3  3  3  3  3  4  4  4  4  4  4  4  2
TYPE ASSIGNMENTS      3  4  2  3  4  2  3  4  5  6  7  8  9 10  5  6  7  8  9 10
TYPE ASSIGNMENTS      5  6  7  8  9 10 11 12 13 17 14 15 18 19 16 20 11 12 13 17
TYPE ASSIGNMENTS     14 15 18 19 16 20  1  1  1  1  1  1  2  3  4  2  3  4  2  3
TYPE ASSIGNMENTS      4  5  6  7  8  9 10  5  6  7  8  9 10  1  1  1  1  1  1  1
TYPE ASSIGNMENTS      1  1  1  1  1  1  1  1  1  1  1  1  2  2  2  3  3  3  4  4
TYPE ASSIGNMENTS      4  2  3  4  2  3  4  2  3  4  5  6  7  8  9 10  5  6  7  8
TYPE ASSIGNMENTS      9 10  5  6  7  8  9 10 11 12 13 17 14 15 18 19 16 20 11 12
TYPE ASSIGNMENTS     13 17 14 15 18 19 16 20  1  1  1  1  1  1  2  3  4  2  3  4
TYPE ASSIGNMENTS      2  3  4  5  6  7  8  9 10  5  6  7  8  9 10  1  1  1  1  1
TYPE ASSIGNMENTS      1  2  3  4  2  3  4  2  3  4  5  6  7  8  9 10  5  6  7  8
TYPE ASSIGNMENTS      9 10  1  1  1  1  1  1  2  3  4  2  3  4  2  3  4  5  6  7
TYPE ASSIGNMENTS      8  9 10  5  6  7  8  9 10
EXPONENTS  0.8236000D+04 0.1235000D+04 0.2808000D+03 0.7927000D+02 0.2559000D+02
EXPONENTS  0.8997000D+01 0.3319000D+01 0.3643000D+00 0.8236000D+04 0.1235000D+04
EXPONENTS  0.2808000D+03 0.7927000D+02 0.2559000D+02 0.8997000D+01 0.3319000D+01
EXPONENTS  0.3643000D+00 0.9059000D+00 0.1285000D+00 0.4402000D-01 0.1871000D+02
EXPONENTS  0.4133000D+01 0.1200000D+01 0.1871000D+02 0.4133000D+01 0.1200000D+01
EXPONENTS  0.1871000D+02 0.4133000D+01 0.1200000D+01 0.3827000D+00 0.3827000D+00
EXPONENTS  0.3827000D+00 0.1209000D+00 0.1209000D+00 0.1209000D+00 0.3569000D-01
EXPONENTS  0.3569000D-01 0.3569000D-01 0.1097000D+01 0.1097000D+01 0.1097000D+01
EXPONENTS  0.1097000D+01 0.1097000D+01 0.1097000D+01 0.3180000D+00 0.3180000D+00
EXPONENTS  0.3180000D+00 0.3180000D+00 0.3180000D+00 0.3180000D+00 0.1000000D+00
EXPONENTS  0.1000000D+00 0.1000000D+00 0.1000000D+00 0.1000000D+00 0.1000000D+00
EXPONENTS  0.7610000D+00 0.7610000D+00 0.7610000D+00 0.7610000D+00 0.7610000D+00
EXPONENTS  0.7610000D+00 0.7610000D+00 0.7610000D+00 0.7610000D+00 0.7610000D+00
EXPONENTS  0.2680000D+00 0.2680000D+00 0.2680000D+00 0.2680000D+00 0.2680000D+00
EXPONENTS  0.2680000D+00 0.2680000D+00 0.2680000D+00 0.2680000D+00 0.2680000D+00
EXPONENTS  0.3741000D+06 0.5605000D+05 0.1276000D+05 0.3615000D+04 0.1183000D+04
EXPONENTS  0.4288000D+03 0.1678000D+03 0.6947000D+02 0.2984000D+02 0.1272000D+02
EXPONENTS  0.5244000D+01 0.2219000D+01 0.3490000D+00 0.3741000D+06 0.5605000D+05
EXPONENTS  0.1276000D+05 0.3615000D+04 0.1183000D+04 0.4288000D+03 0.1678000D+03
EXPONENTS  0.6947000D+02 0.2984000D+02 0.1272000D+02 0.5244000D+01 0.2219000D+01
EXPONENTS  0.3490000D+00 0.3741000D+06 0.5605000D+05 0.1276000D+05 0.3615000D+04
EXPONENTS  0.1183000D+04 0.4288000D+03 0.1678000D+03 0.6947000D+02 0.2984000D+02
EXPONENTS  0.1272000D+02 0.5244000D+01 0.2219000D+01 0.3490000D+00 0.7767000D+00
EXPONENTS  0.1322000D+00 0.4970000D-01 0.5744000D+03 0.1358000D+03 0.4319000D+02
EXPONENTS  0.1587000D+02 0.6208000D+01 0.2483000D+01 0.3229000D+00 0.5744000D+03
EXPONENTS  0.1358000D+03 0.4319000D+02 0.1587000D+02 0.6208000D+01 0.2483000D+01
EXPONENTS  0.3229000D+00 0.5744000D+03 0.1358000D+03 0.4319000D+02 0.1587000D+02
EXPONENTS  0.6208000D+01 0.2483000D+01 0.3229000D+00 0.5744000D+03 0.1358000D+03
EXPONENTS  0.4319000D+02 0.1587000D+02 0.6208000D+01 0.2483000D+01 0.3229000D+00
EXPONENTS  0.5744000D+03 0.1358000D+03 0.4319000D+02 0.1587000D+02 0.6208000D+01
EXPONENTS  0.2483000D+01 0.3229000D+00 0.5744000D+03 0.1358000D+03 0.4319000D+02
EXPONENTS  0.1587000D+02 0.6208000D+01 0.2483000D+01 0.3229000D+00 0.8688000D+00
EXPONENTS  0.8688000D+00 0.8688000D+00 0.1098000D+00 0.1098000D+00 0.1098000D+00
EXPONENTS  0.3510000D-01 0.3510000D-01 0.3510000D-01 0.2690000D+00 0.2690000D+00
EXPONENTS  0.2690000D+00 0.2690000D+00 0.2690000D+00 0.2690000D+00 0.8190000D+00
EXPONENTS  0.8190000D+00 0.8190000D+00 0.8190000D+00 0.8190000D+00 0.8190000D+00
EXPONENTS  0.1010000D+00 0.1010000D+00 0.1010000D+00 0.1010000D+00 0.1010000D+00
EXPONENTS  0.1010000D+00 0.5570000D+00 0.5570000D+00 0.5570000D+00 0.5570000D+00
EXPONENTS  0.5570000D+00 0.5570000D+00 0.5570000D+00 0.5570000D+00 0.5570000D+00
EXPONENTS  0.5570000D+00 0.2180000D+00 0.2180000D+00 0.2180000D+00 0.2180000D+00
EXPONENTS  0.2180000D+00 0.2180000D+00 0.2180000D+00 0.2180000D+00 0.2180000D+00
EXPONENTS  0.2180000D+00 0.3387000D+02 0.5095000D+01 0.1159000D+01 0.3258000D+00
EXPONENTS  0.1027000D+00 0.2526000D-01 0.1407000D+01 0.1407000D+01 0.1407000D+01
EXPONENTS  0.3880000D+00 0.3880000D+00 0.3880000D+00 0.1020000D+00 0.1020000D+00
EXPONENTS  0.1020000D+00 0.1057000D+01 0.1057000D+01 0.1057000D+01 0.1057000D+01
EXPONENTS  0.1057000D+01 0.1057000D+01 0.2470000D+00 0.2470000D+00 0.2470000D+00
EXPONENTS  0.2470000D+00 0.2470000D+00 0.2470000D+00 0.8236000D+04 0.1235000D+04
EXPONENTS  0.2808000D+03 0.7927000D+02 0.2559000D+02 0.8997000D+01 0.3319000D+01
EXPONENTS  0.3643000D+00 0.8236000D+04 0.1235000D+04 0.2808000D+03 0.7927000D+02
EXPONENTS  0.2559000D+02 0.8997000D+01 0.3319000D+01 0.3643000D+00 0.9059000D+00
EXPONENTS  0.1285000D+00 0.4402000D-01 0.1871000D+02 0.4133000D+01 0.1200000D+01
EXPONENTS  0.1871000D+02 0.4133000D+01 0.1200000D+01 0.1871000D+02 0.4133000D+01
EXPONENTS  0.1200000D+01 0.3827000D+00 0.3827000D+00 0.3827000D+00 0.1209000D+00
EXPONENTS  0.1209000D+00 0.1209000D+00 0.3569000D-01 0.3569000D-01 0.3569000D-01
EXPONENTS  0.1097000D+01 0.1097000D+01 0.1097000D+01 0.1097000D+01 0.1097000D+01
EXPONENTS  0.1097000D+01 0.3180000D+00 0.3180000D+00 0.3180000D+00 0.3180000D+00
EXPONENTS  0.3180000D+00 0.3180000D+00 0.1000000D+00 0.1000000D+00 0.1000000D+00
EXPONENTS  0.1000000D+00 0.1000000D+00 0.1000000D+00 0.7610000D+00 0.7610000D+00
EXPONENTS  0.7610000D+00 0.7610000D+00 0.7610000D+00 0.7610000D+00 0.7610000D+00
EXPONENTS  0.7610000D+00 0.7610000D+00 0.7610000D+00 0.2680000D+00 0.2680000D+00
EXPONENTS  0.2680000D+00 0.2680000D+00 0.2680000D+00 0.2680000D+00 0.2680000D+00
EXPONENTS  0.2680000D+00 0.2680000D+00 0.2680000D+00 0.3387000D+02 0.5095000D+01
EXPONENTS  0.1159000D+01 0.3258000D+00 0.1027000D+00 0.2526000D-01 0.1407000D+01
EXPONENTS  0.1407000D+01 0.1407000D+01 0.3880000D+00 0.3880000D+00 0.3880000D+00
EXPONENTS  0.1020000D+00 0.1020000D+00 0.1020000D+00 0.1057000D+01 0.1057000D+01
EXPONENTS  0.1057000D+01 0.1057000D+01 0.1057000D+01 0.1057000D+01 0.2470000D+00
EXPONENTS  0.2470000D+00 0.2470000D+00 0.2470000D+00 0.2470000D+00 0.2470000D+00
EXPONENTS  0.3387000D+02 0.5095000D+01 0.1159000D+01 0.3258000D+00 0.1027000D+00
EXPONENTS  0.2526000D-01 0.1407000D+01 0.1407000D+01 0.1407000D+01 0.3880000D+00
EXPONENTS  0.3880000D+00 0.3880000D+00 0.1020000D+00 0.1020000D+00 0.1020000D+00
EXPONENTS  0.1057000D+01 0.1057000D+01 0.1057000D+01 0.1057000D+01 0.1057000D+01
EXPONENTS  0.1057000D+01 0.2470000D+00 0.2470000D+00 0.2470000D+00 0.2470000D+00
EXPONENTS  0.2470000D+00 0.2470000D+00 0.3387000D+02 0.5095000D+01 0.1159000D+01
EXPONENTS  0.3258000D+00 0.1027000D+00 0.2526000D-01 0.1407000D+01 0.1407000D+01
EXPONENTS  0.1407000D+01 0.3880000D+00 0.3880000D+00 0.3880000D+00 0.1020000D+00
EXPONENTS  0.1020000D+00 0.1020000D+00 0.1057000D+01 0.1057000D+01 0.1057000D+01
EXPONENTS  0.1057000D+01 0.1057000D+01 0.1057000D+01 0.2470000D+00 0.2470000D+00
EXPONENTS  0.2470000D+00 0.2470000D+00 0.2470000D+00 0.2470000D+00
MO    1     MO 0.0        OCC NO =    2.0000000  ORB. ENERGY =  -89.920513
  0.10528061D-03  0.19626699D-03  0.33172578D-03  0.49869251D-03  0.61270137D-03
  0.51752426D-03  0.19519111D-03 -0.96601169D-06 -0.82588630D-04 -0.15463197D-03
 -0.26327416D-03 -0.40724510D-03 -0.53632747D-03 -0.55727860D-03 -0.35412553D-03
  0.23732670D-03  0.40004042D-03 -0.21771016D-02 -0.35524843D-03 -0.32703832D-04
 -0.30661921D-04 -0.21833115D-04 -0.11978255D-06 -0.11230376D-06 -0.79966966D-07
  0.22449670D-03  0.21047993D-03  0.14987425D-03  0.52422266D-04 -0.67684533D-07
 -0.53362829D-04  0.64745256D-05  0.83714394D-06  0.55189919D-03  0.25384044D-04
  0.15042877D-07  0.78821555D-05 -0.53076979D-05 -0.17050202D-03  0.17580972D-03
 -0.90145482D-06  0.10925763D-03 -0.11080050D-06  0.93886777D-04  0.30171728D-03
 -0.39560405D-03  0.13849947D-05 -0.21012630D-03  0.72445946D-06 -0.14205406D-03
  0.25710697D-04  0.11634336D-03  0.10794797D-06  0.20117403D-03 -0.11147083D-06
 -0.11454976D-04  0.34797891D-07 -0.69388508D-04  0.10945165D-04 -0.16678686D-06
  0.10896331D-03  0.23419764D-04  0.62393184D-07  0.99202219D-04  0.27259898D-06
 -0.25419745D-04 -0.10850163D-06 -0.12175589D-03  0.21935669D-04 -0.26913272D-06
  0.29933372D-03  0.54323565D-04  0.59463760D-06  0.65933934D-04 -0.89260980D-06
  0.58518400D+00  0.10939675D+01  0.18907174D+01  0.30581505D+01  0.46222154D+01
  0.63655491D+01  0.74398511D+01  0.64285926D+01  0.29983185D+01  0.40710688D+00
  0.10901319D-02  0.21383882D-02  0.97626352D-04 -0.12634367D-02 -0.23595219D-02
 -0.40929557D-02 -0.66365862D-02 -0.10217780D-01 -0.14552414D-01 -0.18712515D-01
 -0.19642573D-01 -0.13888691D-01  0.30757087D-03  0.99792038D-02  0.54948205D-02
 -0.23237503D-04  0.56428752D-03  0.10530440D-02  0.18290114D-02  0.29625926D-02
  0.45763385D-02  0.65242582D-02  0.84859287D-02  0.90437126D-02  0.67075335D-02
 -0.20878061D-03 -0.60766760D-02 -0.59530451D-02  0.27804251D-02 -0.26901486D-02
 -0.15435267D-02 -0.22348042D-03 -0.14813190D-02 -0.19434099D-02 -0.21316244D-02
 -0.17539344D-02 -0.92470889D-03 -0.24056555D-03  0.26621030D-06  0.31879676D-05
  0.41824399D-05  0.45874991D-05  0.37746669D-05  0.19900790D-05  0.51772451D-06
 -0.57291495D-09 -0.12907681D-01 -0.16934174D-01 -0.18574208D-01 -0.15283153D-01
 -0.80575804D-02 -0.20962016D-02  0.23196608D-05  0.13384891D-02  0.17574444D-02
  0.19772434D-02  0.16659771D-02  0.93192423D-03  0.23195404D-03 -0.10638530D-03
 -0.28723119D-05 -0.37713630D-05 -0.42430376D-05 -0.35750800D-05 -0.19998496D-05
 -0.49775850D-06  0.22829603D-06  0.11526525D-01  0.15134398D-01  0.17027218D-01
  0.14346719D-01  0.80253533D-02  0.19974941D-02 -0.91614704D-03  0.22318498D-04
  0.20546678D-06  0.17027370D-03 -0.17361734D-03 -0.51190218D-06  0.51520501D-03
 -0.39449548D-05 -0.22790784D-08  0.12460226D-04 -0.48010954D-04 -0.14727684D-04
  0.62738637D-04  0.13128226D-06  0.78612188D-04  0.22180216D-06 -0.20411375D-03
 -0.19856940D-03  0.40268315D-03 -0.84416460D-07  0.53176667D-04 -0.10373033D-05
  0.29686295D-04  0.20791507D-04 -0.50477802D-04 -0.48023982D-07  0.26865480D-04
  0.12913404D-06  0.73408813D-05 -0.38519638D-07 -0.95832654D-04  0.25072365D-04
 -0.22881380D-06  0.18396801D-03 -0.47095009D-04  0.34437271D-06  0.10352995D-03
 -0.24837852D-06  0.31526340D-05  0.21384232D-07  0.11819440D-04 -0.10804141D-04
  0.44829947D-07 -0.99104974D-05  0.13462386D-05 -0.10898264D-06 -0.25547822D-04
 -0.41010731D-07 -0.57053115D-05 -0.10289764D-04 -0.15172251D-04  0.78014189D-03
  0.21265190D-02 -0.28079101D-05 -0.56056997D-04  0.13742701D-06  0.31267764D-04
 -0.51181583D-04 -0.15686480D-06  0.47820590D-04 -0.15119670D-03  0.47121713D-06
  0.18925066D-03  0.37197612D-05  0.16698558D-04 -0.20418319D-04  0.47385050D-06
 -0.35212932D-05  0.32055453D-06 -0.18680857D-04  0.47663699D-04 -0.28982842D-04
  0.37595880D-06  0.10449450D-04  0.22707145D-06  0.22063102D-04  0.41130639D-04
  0.69518026D-04  0.10450836D-03  0.12840060D-03  0.10845483D-03  0.40905173D-04
 -0.20244198D-06 -0.15039842D-04 -0.28159330D-04 -0.47943668D-04 -0.74161565D-04
 -0.97668172D-04 -0.10148349D-03 -0.64488200D-04  0.43218492D-04 -0.81298280D-05
  0.10906452D-02  0.31653886D-03  0.16180649D-04  0.15170387D-04  0.10802219D-04
  0.16012715D-06  0.15012939D-06  0.10690107D-06 -0.74035909D-04 -0.69413371D-04
 -0.49426455D-04  0.21944801D-03 -0.58883063D-06  0.45401343D-03  0.22706011D-03
 -0.66481152D-06  0.23986722D-03  0.15611401D-04  0.81438652D-08  0.17874471D-04
  0.14702276D-05 -0.76243439D-04  0.74773212D-04 -0.19078012D-06  0.14358443D-03
 -0.31830729D-06  0.26545524D-03 -0.13533279D-03 -0.13012244D-03  0.12479717D-05
 -0.12646774D-03  0.22156190D-05 -0.78223213D-04  0.12114260D-05  0.77011787D-04
 -0.47640758D-07  0.84449378D-04  0.34590725D-06  0.53749160D-05 -0.40241845D-07
 -0.32484930D-04 -0.16096939D-04  0.37780771D-06  0.61655144D-05 -0.27808810D-07
 -0.25708218D-06  0.91289276D-04  0.48557725D-06 -0.78016535D-05  0.16612835D-06
 -0.55826283D-04  0.98705466D-04  0.77246822D-07  0.15393071D-03 -0.75300506D-04
 -0.57563187D-06  0.13548144D-04  0.91422153D-06 -0.79509987D-06 -0.14339954D-05
 -0.21144253D-05 -0.83742942D-03  0.99675007D-03  0.13318675D-05 -0.35647713D-04
 -0.27594454D-06  0.88562075D-04 -0.10188990D-03  0.80561166D-06  0.13548650D-03
  0.87313239D-04 -0.29061245D-07 -0.11834228D-03  0.34430036D-04  0.32724992D-04
 -0.67155029D-04  0.41658337D-06 -0.31668263D-05 -0.11164147D-06  0.12552624D-04
 -0.25811239D-04  0.13258616D-04  0.15135322D-06  0.30956727D-04  0.88068126D-07
  0.90669105D-06  0.16352547D-05  0.24111820D-05  0.13971805D-03 -0.53522126D-03
  0.10729055D-04  0.12392983D-04 -0.54927556D-04 -0.28249437D-04 -0.89916842D-04
 -0.82258084D-04  0.16390798D-03  0.36196569D-05  0.65760338D-04  0.24795199D-05
 -0.47486563D-04  0.28625811D-04  0.18860752D-04  0.42868619D-04 -0.57437778D-04
 -0.73844382D-04  0.12933376D-04 -0.67106400D-05 -0.62227357D-05 -0.21818355D-04
 -0.29009358D-04 -0.62734652D-04  0.87844326D-06  0.15843086D-05  0.23360621D-05
  0.13512442D-03 -0.53811414D-03  0.10772804D-04  0.12454188D-04  0.54846351D-04
 -0.28904851D-04 -0.90694782D-04  0.79693381D-04  0.16424376D-03  0.38097541D-05
 -0.66173956D-04  0.25763275D-05 -0.47620671D-04  0.28107931D-04  0.19512740D-04
 -0.43583827D-04 -0.57245054D-04  0.73362306D-04  0.12953252D-04 -0.68253090D-05
 -0.61279426D-05  0.21783860D-04 -0.28867485D-04  0.62619421D-04
MO    2     MO 0.0        OCC NO =    2.0000000  ORB. ENERGY =  -10.617989
  0.32895525D+00  0.61324738D+00  0.10364961D+01  0.15581931D+01  0.19144203D+01
  0.16170340D+01  0.60988573D+00 -0.30183585D-02 -0.21266312D-02 -0.39817247D-02
 -0.67792270D-02 -0.10486433D-01 -0.13810264D-01 -0.14349749D-01 -0.91186211D-02
  0.61110878D-02  0.32986478D-01 -0.40993910D-02 -0.13066395D-02 -0.64052711D-03
 -0.60053488D-03 -0.42761661D-03  0.26129180D-05  0.24497768D-05  0.17443870D-05
  0.74825866D-03  0.70154006D-03  0.49953831D-03  0.23791284D-02 -0.88503197D-05
 -0.38282401D-02 -0.63361839D-03  0.26365881D-05 -0.14657570D-02  0.86042468D-06
  0.11560092D-06 -0.99387081D-05  0.20392784D-02 -0.30182689D-02  0.97899053D-03
 -0.89914899D-05 -0.89993958D-03  0.39032066D-05  0.50927192D-03  0.68939501D-03
 -0.11986669D-02  0.81419324D-06 -0.20331082D-02  0.51069013D-05  0.14208328D-04
  0.13843191D-03 -0.15264024D-03 -0.25666140D-06  0.19001220D-03 -0.57488427D-06
  0.13454416D-03  0.20155370D-05  0.42674509D-03 -0.97441616D-03 -0.51137993D-05
 -0.21753102D-02  0.57078368D-03 -0.93281164D-06  0.89507497D-03  0.66472126D-05
 -0.62484116D-04 -0.13125301D-06 -0.59488866D-03  0.21503615D-03 -0.29710925D-06
  0.15855694D-02 -0.27583798D-04  0.69086828D-06  0.19909653D-03 -0.24904365D-05
  0.41440998D-03  0.77471538D-03  0.13389501D-02  0.21656916D-02  0.32733161D-02
  0.45078934D-02  0.52686822D-02  0.45525389D-02  0.21233204D-02  0.28830104D-03
  0.77199914D-06  0.15143432D-05  0.69136092D-07 -0.79948458D-03 -0.14930715D-02
 -0.25899635D-02 -0.41995363D-02 -0.64656643D-02 -0.92085582D-02 -0.11841011D-01
 -0.12429537D-01 -0.87885638D-02  0.19462642D-03  0.63146967D-02  0.34770434D-02
 -0.14704357D-04  0.46939545D-03  0.87596136D-03  0.15214400D-02  0.24643953D-02
  0.38067695D-02  0.54271219D-02  0.70589128D-02  0.75228982D-02  0.55795772D-02
 -0.17367152D-03 -0.50548063D-02 -0.49519655D-02  0.23128616D-02 -0.62875421D-04
  0.40325597D-02  0.88724908D-03  0.10495108D-02  0.13769011D-02  0.15102506D-02
  0.12426581D-02  0.65515395D-03  0.17044009D-03 -0.18860934D-06  0.36173536D-04
  0.47457710D-04  0.52053874D-04  0.42830753D-04  0.22581220D-04  0.58745661D-05
 -0.65008063D-08 -0.43194272D-01 -0.56668533D-01 -0.62156743D-01 -0.51143553D-01
 -0.26963893D-01 -0.70147304D-02  0.77625144D-05 -0.64445208D-03 -0.84616951D-03
 -0.95199775D-03 -0.80213008D-03 -0.44870032D-03 -0.11168060D-03  0.51222103D-04
 -0.33852694D-04 -0.44448793D-04 -0.50007889D-04 -0.42135427D-04 -0.23569967D-04
 -0.58665169D-05  0.26906673D-05  0.40776770D-01  0.53540147D-01  0.60236276D-01
  0.50753617D-01  0.28390862D-01  0.70664276D-02 -0.32410042D-02 -0.28062218D-03
 -0.22034863D-07 -0.21780972D-03 -0.16787186D-03  0.13906981D-05 -0.10991270D-02
  0.27606740D-05  0.33670317D-08 -0.36517243D-04 -0.44054440D-03 -0.77720938D-04
  0.51826534D-03  0.92575917D-06 -0.96465854D-04 -0.11919235D-05 -0.41786125D-03
 -0.53619883D-03  0.95406008D-03 -0.80243782D-06  0.23590394D-03 -0.27540855D-05
 -0.88118453D-05 -0.38703302D-04  0.47515148D-04  0.22481378D-07  0.10300249D-04
 -0.16464288D-06  0.10158511D-04 -0.40690343D-07 -0.18278399D-04 -0.45392918D-04
 -0.58096870D-06  0.29505982D-03  0.14917385D-04  0.70303973D-06 -0.24022462D-03
 -0.78190551D-06 -0.65759680D-05  0.53255436D-07 -0.21016902D-04 -0.27963398D-04
 -0.10202191D-06  0.89573985D-04  0.47691302D-04 -0.57744393D-07 -0.26523279D-04
 -0.51787171D-06  0.25564097D-03  0.46105901D-03  0.67983124D-03 -0.11654787D-02
  0.22651792D-03  0.18427154D-05  0.96628089D-03 -0.20561820D-05 -0.64523252D-03
  0.39000832D-02 -0.23800642D-05 -0.19801178D-02  0.30714092D-03  0.92796271D-07
 -0.32819964D-03 -0.23636898D-02  0.19807326D-02  0.38295724D-03  0.10488996D-04
  0.48094811D-02 -0.49430561D-05 -0.33754097D-03  0.39973428D-03 -0.62193311D-04
  0.17860895D-05  0.61371742D-03 -0.14048713D-06  0.16927136D-02  0.31556030D-02
  0.53335249D-02  0.80180350D-02  0.98510825D-02  0.83208139D-02  0.31383049D-02
 -0.15531646D-04 -0.33508384D-03 -0.62738268D-03 -0.10681727D-02 -0.16523007D-02
 -0.21760219D-02 -0.22610262D-02 -0.14367806D-02  0.96289697D-03  0.12463360D-02
 -0.18653482D-02  0.21770250D-03  0.83055571D-03  0.77869877D-03  0.55447991D-03
  0.82584691D-06  0.77428397D-06  0.55133631D-06  0.37576782D-03  0.35230621D-03
  0.25086301D-03  0.22797833D-02 -0.12680349D-05  0.21915472D-02 -0.43293137D-03
 -0.44422432D-05  0.22285741D-03  0.36178534D-04 -0.50802496D-07  0.13235911D-04
  0.64611148D-03 -0.95367981D-03  0.30756833D-03  0.23836519D-06  0.21720941D-02
 -0.32789121D-06 -0.27344967D-03  0.68469041D-03 -0.41124074D-03  0.29532600D-05
 -0.19559213D-02  0.69765231D-05  0.13939763D-04 -0.10015126D-04 -0.39246375D-05
 -0.83160908D-06 -0.74139186D-04  0.48011524D-06 -0.17757097D-03 -0.11641393D-07
  0.41081194D-03  0.87685321D-03  0.35759184D-06 -0.18839620D-02 -0.34414029D-03
 -0.32266766D-06  0.65152620D-03 -0.10851830D-06 -0.20395465D-03  0.81606045D-06
 -0.47547964D-04  0.10146356D-02  0.22491150D-06 -0.32169414D-04 -0.40277163D-03
 -0.26730929D-05  0.17481331D-03  0.13338338D-05 -0.57825467D-04 -0.10429061D-03
 -0.15377645D-03 -0.85800331D-03 -0.42855186D-03  0.31086913D-04  0.29649366D-03
 -0.53181173D-06  0.15533506D-03 -0.19692365D-03  0.16610612D-05 -0.77186899D-03
 -0.70228137D-04 -0.46413463D-06 -0.20308692D-04 -0.33831767D-03 -0.32380044D-04
  0.37069771D-03  0.51931113D-06 -0.94327156D-03 -0.29332407D-06 -0.16843329D-03
  0.11014918D-03  0.58284101D-04  0.34724505D-06 -0.31840415D-03  0.47041311D-06
 -0.58635042D-04 -0.10575071D-03 -0.15592936D-03  0.10427360D-02  0.51160609D-03
  0.16565089D-04  0.16387948D-03 -0.18012683D-03 -0.84068797D-04 -0.14961833D-02
 -0.95744540D-03  0.13270511D-03 -0.23929106D-04 -0.80605360D-04  0.19258154D-04
 -0.27405371D-03  0.66816234D-03 -0.39410863D-03  0.93579754D-03 -0.11240854D-02
 -0.48390328D-03 -0.21893924D-04  0.53141569D-04 -0.31247644D-04  0.15479883D-04
 -0.33987834D-03 -0.79364620D-04 -0.58726629D-04 -0.10591589D-03 -0.15617292D-03
  0.10240986D-02  0.50288072D-03  0.16492289D-04  0.16430481D-03  0.18001364D-03
 -0.86477844D-04 -0.14979541D-02  0.94700547D-03  0.13409331D-03 -0.24773872D-04
  0.79127032D-04  0.19437445D-04 -0.27380240D-03  0.66620783D-03 -0.39240543D-03
 -0.93839137D-03 -0.11231936D-02  0.48104687D-03 -0.21713617D-04  0.52489386D-04
 -0.30775769D-04 -0.15835157D-04 -0.33933107D-03  0.79106726D-04
MO    3     MO 0.0        OCC NO =    2.0000000  ORB. ENERGY =  -10.556356
 -0.87271989D-03 -0.16269483D-02 -0.27498293D-02 -0.41338941D-02 -0.50789665D-02
 -0.42899992D-02 -0.16180298D-02  0.80077200D-05 -0.33019259D-03 -0.61822470D-03
 -0.10525805D-02 -0.16281819D-02 -0.21442583D-02 -0.22280217D-02 -0.14158078D-02
  0.94884146D-03  0.10406702D-02 -0.75371168D-03  0.71430038D-03 -0.18068341D-03
 -0.16940218D-03 -0.12062445D-03  0.45849372D-06  0.42986701D-06  0.30609092D-06
 -0.51218860D-03 -0.48020937D-03 -0.34193768D-03 -0.15874747D-02 -0.90572696D-06
 -0.19861086D-03 -0.16100030D-02  0.47442264D-06  0.61061962D-03 -0.82140447D-04
 -0.17095837D-07 -0.14831515D-06  0.41799010D-03 -0.28181176D-03 -0.13617834D-03
  0.41925537D-06  0.34859453D-03 -0.55146620D-06 -0.12950126D-02  0.67025429D-03
  0.62475830D-03 -0.37718531D-06  0.11734286D-03  0.12222415D-05  0.31529815D-04
  0.51361034D-05 -0.36665919D-04  0.54866245D-07  0.25775546D-03 -0.50712708D-06
  0.27773852D-04 -0.38896462D-06 -0.30280865D-03 -0.64521472D-03  0.12865984D-05
  0.11890932D-02  0.56189316D-03 -0.11970455D-06 -0.28066728D-03  0.22019942D-05
 -0.10825473D-03  0.13275701D-06 -0.27769680D-03  0.12584143D-03  0.66657442D-06
  0.11465633D-02  0.19892277D-03 -0.10648454D-05 -0.31347294D-03  0.88076381D-06
  0.82644636D-04  0.15449935D-03  0.26702311D-03  0.43189789D-03  0.65278837D-03
  0.89899671D-03  0.10507187D-02  0.90790025D-03  0.42344791D-03  0.57495078D-04
  0.15395765D-06  0.30200127D-06  0.13787620D-07 -0.16298760D-03 -0.30438628D-03
 -0.52800510D-03 -0.85614201D-03 -0.13181281D-02 -0.18773105D-02 -0.24139776D-02
 -0.25339581D-02 -0.17916880D-02  0.39677680D-04  0.12873510D-02  0.70885038D-03
 -0.29977162D-05  0.99545518D-04  0.18576666D-03  0.32265446D-03  0.52262863D-03
  0.80730828D-03  0.11509393D-02  0.14969960D-02  0.15953942D-02  0.11832707D-02
 -0.36830824D-04 -0.10719816D-02 -0.10501720D-02  0.49049261D-03  0.25609014D-03
 -0.35417518D-03 -0.16823019D-03 -0.59565521D-03 -0.78146720D-03 -0.85715041D-03
 -0.70527694D-03 -0.37183595D-03 -0.96734140D-04  0.10704619D-06  0.10286145D-04
  0.13494863D-04  0.14801807D-04  0.12179162D-04  0.64210949D-05  0.16704654D-05
 -0.18485403D-08  0.23159980D-03  0.30384633D-03  0.33327311D-03  0.27422240D-03
  0.14457547D-03  0.37611704D-04 -0.41621186D-07  0.63165373D-03  0.82936519D-03
  0.93309176D-03  0.78620036D-03  0.43978946D-03  0.10946270D-03 -0.50204869D-04
 -0.97161996D-05 -0.12757429D-04 -0.14352968D-04 -0.12093461D-04 -0.67649124D-05
 -0.16837729D-05  0.77225939D-06  0.20138933D-03  0.26442542D-03  0.29749643D-03
  0.25066323D-03  0.14021750D-03  0.34899850D-04 -0.16006753D-04 -0.81596854D-04
  0.80621583D-07 -0.40200925D-03 -0.30534956D-03  0.41802533D-06  0.16377620D-03
  0.14220690D-05  0.72300923D-08  0.65564613D-05 -0.12208403D-03  0.16358123D-03
 -0.41497193D-04 -0.60396679D-06  0.20899304D-03 -0.13501459D-06 -0.12692213D-04
 -0.10638516D-03  0.11907737D-03  0.37251601D-06 -0.50381988D-04 -0.88205304D-06
  0.73563173D-05  0.48828915D-05 -0.12239209D-04 -0.80880528D-07  0.67078254D-04
 -0.59309220D-07  0.33181942D-04  0.65122971D-07 -0.34653375D-04 -0.45212607D-04
 -0.29221628D-06  0.29626575D-03 -0.54333218D-04  0.96847361D-07 -0.19230562D-03
  0.58816337D-06  0.11225011D-04  0.65322309D-07  0.33804087D-05  0.13046686D-04
 -0.10529448D-06  0.44166537D-04 -0.46721720D-04 -0.90672448D-07 -0.54307763D-04
  0.37716749D-06  0.10888314D-03  0.19637523D-03  0.28955517D-03  0.39252310D-02
  0.24565764D-02  0.11470733D-03 -0.61177737D-03 -0.88545822D-06  0.28797820D-03
 -0.34812026D-04  0.78426134D-05  0.15233125D-02 -0.29382434D-03  0.82458825D-06
  0.10228675D-03 -0.61360394D-03  0.16370949D-03  0.44989445D-03 -0.40829216D-05
 -0.10952991D-02  0.35215583D-05 -0.12802206D-03  0.81985059D-04  0.46036999D-04
 -0.64395430D-06 -0.21807090D-03  0.30233935D-06  0.32998886D+00  0.61517427D+00
  0.10397529D+01  0.15630892D+01  0.19204356D+01  0.16221149D+01  0.61180206D+00
 -0.30278425D-02 -0.28767337D-02 -0.53861531D-02 -0.91703865D-02 -0.14185194D-01
 -0.18681401D-01 -0.19411172D-01 -0.12334929D-01  0.82665823D-02  0.32914448D-01
 -0.60056893D-02 -0.82241276D-03  0.15034557D-03  0.14095853D-03  0.10037087D-03
  0.51864273D-06  0.48626052D-06  0.34624646D-06 -0.19123830D-03 -0.17929806D-03
 -0.12767090D-03  0.48460003D-03 -0.12895012D-05 -0.28193888D-03 -0.46841285D-03
 -0.31836936D-05 -0.76677396D-03 -0.47743460D-04 -0.82894945D-07 -0.45546920D-04
 -0.19090359D-03  0.44951801D-04  0.14595179D-03 -0.72422185D-06 -0.13911735D-02
 -0.62409198D-07 -0.33446100D-03  0.39747766D-03 -0.63016661D-04  0.86005063D-06
  0.87209505D-03  0.22223652D-05  0.27992974D-04  0.67268655D-04 -0.95261629D-04
 -0.48313869D-06 -0.91572117D-04  0.36994350D-06 -0.13272705D-03 -0.42328789D-06
  0.21291400D-03  0.66529598D-03  0.57468995D-06  0.21705049D-02 -0.26711482D-03
  0.69517371D-06 -0.28092468D-02  0.29317249D-05 -0.78922087D-04  0.19678025D-06
 -0.10170586D-03 -0.17680919D-03  0.55865685D-06 -0.80297042D-03  0.41357545D-03
 -0.11489976D-05  0.11080880D-02 -0.18539692D-05  0.98440357D-04  0.17754124D-03
  0.26178445D-03  0.27541649D-02  0.36135723D-03 -0.20821342D-04 -0.10857369D-02
 -0.36080891D-06  0.69229983D-03 -0.42046189D-03 -0.36406723D-06  0.10934420D-02
 -0.24273461D-04 -0.44151165D-06  0.11646312D-03 -0.10989373D-02  0.11686123D-02
 -0.69675056D-04 -0.98403578D-06  0.36747943D-02  0.12732956D-05 -0.15647413D-03
  0.12830892D-03  0.28165215D-04 -0.59197322D-07  0.35547331D-03  0.27660167D-06
  0.66155323D-04  0.11931385D-03  0.17592820D-03  0.14105697D-02 -0.41202152D-04
 -0.40120645D-04 -0.71489617D-04  0.10496957D-02 -0.97330556D-03  0.24295410D-03
  0.13188251D-02 -0.79905499D-03 -0.27480236D-04  0.65290392D-04 -0.19398383D-03
  0.14031830D-02 -0.11207574D-02 -0.28242564D-03  0.45716045D-04  0.12119243D-03
  0.36323113D-02  0.17851766D-03 -0.14247536D-03 -0.36042303D-04  0.59437673D-04
  0.13541761D-03  0.42446985D-03  0.66235747D-04  0.11945890D-03  0.17614207D-03
  0.14030597D-02 -0.48788363D-04 -0.40368687D-04 -0.70604731D-04 -0.10506563D-02
 -0.97360738D-03  0.24542672D-03 -0.13217758D-02 -0.79875470D-03 -0.27700579D-04
 -0.66308016D-04 -0.19421092D-03  0.14035341D-02 -0.11227324D-02 -0.28080173D-03
 -0.41146537D-04  0.12440546D-03 -0.36323608D-02  0.17857421D-03 -0.14279872D-03
 -0.35775488D-04 -0.58611800D-04  0.13576179D-03 -0.42427678D-03
MO    4     MO 0.0        OCC NO =    2.0000000  ORB. ENERGY =   -8.257072
 -0.22858102D-03 -0.42612700D-03 -0.72022969D-03 -0.10827411D-02 -0.13302726D-02
 -0.11236279D-02 -0.42379109D-03  0.20973658D-05  0.12655146D-03  0.23694427D-03
  0.40341789D-03  0.62402613D-03  0.82182046D-03  0.85392410D-03  0.54263043D-03
 -0.36365830D-03 -0.97613463D-03  0.63226713D-02  0.65499530D-03  0.58137806D-04
  0.54507888D-04  0.38812864D-04  0.21511330D-06  0.20168239D-06  0.14360988D-06
 -0.94737757D-04 -0.88822669D-04 -0.63247032D-04  0.12021904D-03 -0.31835902D-06
  0.19328632D-04 -0.33576505D-03 -0.20454217D-05 -0.33699357D-02 -0.61360350D-04