 Molden2AIM, Version 4.0.0 (06/02/2016)           Time: Thu Jun 28 03:57:34 2018
GAUSSIAN             29 MOL ORBITALS    623 PRIMITIVES        9 NUCLEI
  H    1    (CENTRE  1)   2.12830027 -3.39317522  0.00000000  CHARGE =  1.0
  H    2    (CENTRE  2)   3.83293339 -0.58426741  0.00000000  CHARGE =  1.0
  H    3    (CENTRE  3)  -4.02671535 -0.43340680  0.00000000  CHARGE =  1.0
  H    4    (CENTRE  4)  -2.43236476 -2.89029642  1.68076210  CHARGE =  1.0
  H    5    (CENTRE  5)  -2.43236287 -2.89029642 -1.68076210  CHARGE =  1.0
  C    6    (CENTRE  6)   0.01155756 -0.12838610  0.00000000  CHARGE =  6.0
  C    7    (CENTRE  7)  -2.37150802 -1.66476179  0.00000000  CHARGE =  6.0
  Se   8    (CENTRE  8)   0.03718603  3.27682478  0.00000000  CHARGE = 34.0
  N    9    (CENTRE  9)   2.15097509 -1.48433074  0.00000000  CHARGE =  7.0
CENTRE ASSIGNMENTS    1  1  1  1  1  1  1  1  1  1  1  1  1  1  1  1  1  1  1  1
CENTRE ASSIGNMENTS    1  1  1  1  1  1  1  2  2  2  2  2  2  2  2  2  2  2  2  2
CENTRE ASSIGNMENTS    2  2  2  2  2  2  2  2  2  2  2  2  2  2  3  3  3  3  3  3
CENTRE ASSIGNMENTS    3  3  3  3  3  3  3  3  3  3  3  3  3  3  3  3  3  3  3  3
CENTRE ASSIGNMENTS    3  4  4  4  4  4  4  4  4  4  4  4  4  4  4  4  4  4  4  4
CENTRE ASSIGNMENTS    4  4  4  4  4  4  4  4  5  5  5  5  5  5  5  5  5  5  5  5
CENTRE ASSIGNMENTS    5  5  5  5  5  5  5  5  5  5  5  5  5  5  5  6  6  6  6  6
CENTRE ASSIGNMENTS    6  6  6  6  6  6  6  6  6  6  6  6  6  6  6  6  6  6  6  6
CENTRE ASSIGNMENTS    6  6  6  6  6  6  6  6  6  6  6  6  6  6  6  6  6  6  6  6
CENTRE ASSIGNMENTS    6  6  6  6  6  6  6  6  6  6  6  6  6  6  6  6  6  6  6  6
CENTRE ASSIGNMENTS    6  6  6  6  6  6  6  6  6  6  7  7  7  7  7  7  7  7  7  7
CENTRE ASSIGNMENTS    7  7  7  7  7  7  7  7  7  7  7  7  7  7  7  7  7  7  7  7
CENTRE ASSIGNMENTS    7  7  7  7  7  7  7  7  7  7  7  7  7  7  7  7  7  7  7  7
CENTRE ASSIGNMENTS    7  7  7  7  7  7  7  7  7  7  7  7  7  7  7  7  7  7  7  7
CENTRE ASSIGNMENTS    7  7  7  7  7  8  8  8  8  8  8  8  8  8  8  8  8  8  8  8
CENTRE ASSIGNMENTS    8  8  8  8  8  8  8  8  8  8  8  8  8  8  8  8  8  8  8  8
CENTRE ASSIGNMENTS    8  8  8  8  8  8  8  8  8  8  8  8  8  8  8  8  8  8  8  8
CENTRE ASSIGNMENTS    8  8  8  8  8  8  8  8  8  8  8  8  8  8  8  8  8  8  8  8
CENTRE ASSIGNMENTS    8  8  8  8  8  8  8  8  8  8  8  8  8  8  8  8  8  8  8  8
CENTRE ASSIGNMENTS    8  8  8  8  8  8  8  8  8  8  8  8  8  8  8  8  8  8  8  8
CENTRE ASSIGNMENTS    8  8  8  8  8  8  8  8  8  8  8  8  8  8  8  8  8  8  8  8
CENTRE ASSIGNMENTS    8  8  8  8  8  8  8  8  8  8  8  8  8  8  8  8  8  8  8  8
CENTRE ASSIGNMENTS    8  8  8  8  8  8  8  8  8  8  8  8  8  8  8  8  8  8  8  8
CENTRE ASSIGNMENTS    8  8  8  8  8  8  8  8  8  8  8  8  8  8  8  8  8  8  8  8
CENTRE ASSIGNMENTS    8  8  8  8  8  8  8  8  8  8  8  8  8  8  8  8  8  8  8  8
CENTRE ASSIGNMENTS    8  8  8  8  8  8  8  8  8  8  8  8  8  8  8  8  8  8  8  8
CENTRE ASSIGNMENTS    8  8  8  8  8  8  8  8  8  8  8  8  8  8  8  8  8  8  8  8
CENTRE ASSIGNMENTS    8  8  8  8  8  8  8  8  9  9  9  9  9  9  9  9  9  9  9  9
CENTRE ASSIGNMENTS    9  9  9  9  9  9  9  9  9  9  9  9  9  9  9  9  9  9  9  9
CENTRE ASSIGNMENTS    9  9  9  9  9  9  9  9  9  9  9  9  9  9  9  9  9  9  9  9
CENTRE ASSIGNMENTS    9  9  9  9  9  9  9  9  9  9  9  9  9  9  9  9  9  9  9  9
CENTRE ASSIGNMENTS    9  9  9
TYPE ASSIGNMENTS      1  1  1  1  1  1  2  3  4  2  3  4  2  3  4  5  6  7  8  9
TYPE ASSIGNMENTS     10  5  6  7  8  9 10  1  1  1  1  1  1  2  3  4  2  3  4  2
TYPE ASSIGNMENTS      3  4  5  6  7  8  9 10  5  6  7  8  9 10  1  1  1  1  1  1
TYPE ASSIGNMENTS      2  3  4  2  3  4  2  3  4  5  6  7  8  9 10  5  6  7  8  9
TYPE ASSIGNMENTS     10  1  1  1  1  1  1  2  3  4  2  3  4  2  3  4  5  6  7  8
TYPE ASSIGNMENTS      9 10  5  6  7  8  9 10  1  1  1  1  1  1  2  3  4  2  3  4
TYPE ASSIGNMENTS      2  3  4  5  6  7  8  9 10  5  6  7  8  9 10  1  1  1  1  1
TYPE ASSIGNMENTS      1  1  1  1  1  1  1  1  1  1  1  1  1  1  2  2  2  3  3  3
TYPE ASSIGNMENTS      4  4  4  2  3  4  2  3  4  2  3  4  5  6  7  8  9 10  5  6
TYPE ASSIGNMENTS      7  8  9 10  5  6  7  8  9 10 11 12 13 17 14 15 18 19 16 20
TYPE ASSIGNMENTS     11 12 13 17 14 15 18 19 16 20  1  1  1  1  1  1  1  1  1  1
TYPE ASSIGNMENTS      1  1  1  1  1  1  1  1  1  2  2  2  3  3  3  4  4  4  2  3
TYPE ASSIGNMENTS      4  2  3  4  2  3  4  5  6  7  8  9 10  5  6  7  8  9 10  5
TYPE ASSIGNMENTS      6  7  8  9 10 11 12 13 17 14 15 18 19 16 20 11 12 13 17 14
TYPE ASSIGNMENTS     15 18 19 16 20  1  1  1  1  1  1  1  1  1  1  1  1  1  1  1
TYPE ASSIGNMENTS      1  1  1  1  1  1  1  1  1  1  1  1  1  1  1  1  1  1  1  1
TYPE ASSIGNMENTS      1  1  1  1  1  1  1  1  1  1  1  1  1  1  1  1  1  1  1  1
TYPE ASSIGNMENTS      1  1  1  1  1  1  1  1  1  1  1  1  1  1  1  1  1  1  1  1
TYPE ASSIGNMENTS      2  2  2  2  2  2  2  2  2  2  2  3  3  3  3  3  3  3  3  3
TYPE ASSIGNMENTS      3  3  4  4  4  4  4  4  4  4  4  4  4  2  2  2  2  2  2  2
TYPE ASSIGNMENTS      2  2  2  2  3  3  3  3  3  3  3  3  3  3  3  4  4  4  4  4
TYPE ASSIGNMENTS      4  4  4  4  4  4  2  2  2  2  2  2  2  2  2  2  2  3  3  3
TYPE ASSIGNMENTS      3  3  3  3  3  3  3  3  4  4  4  4  4  4  4  4  4  4  4  2
TYPE ASSIGNMENTS      3  4  2  3  4  2  3  4  5  5  5  5  5  5  5  6  6  6  6  6
TYPE ASSIGNMENTS      6  6  7  7  7  7  7  7  7  8  8  8  8  8  8  8  9  9  9  9
TYPE ASSIGNMENTS      9  9  9 10 10 10 10 10 10 10  5  6  7  8  9 10  5  6  7  8
TYPE ASSIGNMENTS      9 10  5  6  7  8  9 10 11 12 13 17 14 15 18 19 16 20 11 12
TYPE ASSIGNMENTS     13 17 14 15 18 19 16 20  1  1  1  1  1  1  1  1  1  1  1  1
TYPE ASSIGNMENTS      1  1  1  1  1  1  1  2  2  2  3  3  3  4  4  4  2  3  4  2
TYPE ASSIGNMENTS      3  4  2  3  4  5  6  7  8  9 10  5  6  7  8  9 10  5  6  7
TYPE ASSIGNMENTS      8  9 10 11 12 13 17 14 15 18 19 16 20 11 12 13 17 14 15 18
TYPE ASSIGNMENTS     19 16 20
EXPONENTS  0.3387000D+02 0.5095000D+01 0.1159000D+01 0.3258000D+00 0.1027000D+00
EXPONENTS  0.2526000D-01 0.1407000D+01 0.1407000D+01 0.1407000D+01 0.3880000D+00
EXPONENTS  0.3880000D+00 0.3880000D+00 0.1020000D+00 0.1020000D+00 0.1020000D+00
EXPONENTS  0.1057000D+01 0.1057000D+01 0.1057000D+01 0.1057000D+01 0.1057000D+01
EXPONENTS  0.1057000D+01 0.2470000D+00 0.2470000D+00 0.2470000D+00 0.2470000D+00
EXPONENTS  0.2470000D+00 0.2470000D+00 0.3387000D+02 0.5095000D+01 0.1159000D+01
EXPONENTS  0.3258000D+00 0.1027000D+00 0.2526000D-01 0.1407000D+01 0.1407000D+01
EXPONENTS  0.1407000D+01 0.3880000D+00 0.3880000D+00 0.3880000D+00 0.1020000D+00
EXPONENTS  0.1020000D+00 0.1020000D+00 0.1057000D+01 0.1057000D+01 0.1057000D+01
EXPONENTS  0.1057000D+01 0.1057000D+01 0.1057000D+01 0.2470000D+00 0.2470000D+00
EXPONENTS  0.2470000D+00 0.2470000D+00 0.2470000D+00 0.2470000D+00 0.3387000D+02
EXPONENTS  0.5095000D+01 0.1159000D+01 0.3258000D+00 0.1027000D+00 0.2526000D-01
EXPONENTS  0.1407000D+01 0.1407000D+01 0.1407000D+01 0.3880000D+00 0.3880000D+00
EXPONENTS  0.3880000D+00 0.1020000D+00 0.1020000D+00 0.1020000D+00 0.1057000D+01
EXPONENTS  0.1057000D+01 0.1057000D+01 0.1057000D+01 0.1057000D+01 0.1057000D+01
EXPONENTS  0.2470000D+00 0.2470000D+00 0.2470000D+00 0.2470000D+00 0.2470000D+00
EXPONENTS  0.2470000D+00 0.3387000D+02 0.5095000D+01 0.1159000D+01 0.3258000D+00
EXPONENTS  0.1027000D+00 0.2526000D-01 0.1407000D+01 0.1407000D+01 0.1407000D+01
EXPONENTS  0.3880000D+00 0.3880000D+00 0.3880000D+00 0.1020000D+00 0.1020000D+00
EXPONENTS  0.1020000D+00 0.1057000D+01 0.1057000D+01 0.1057000D+01 0.1057000D+01
EXPONENTS  0.1057000D+01 0.1057000D+01 0.2470000D+00 0.2470000D+00 0.2470000D+00
EXPONENTS  0.2470000D+00 0.2470000D+00 0.2470000D+00 0.3387000D+02 0.5095000D+01
EXPONENTS  0.1159000D+01 0.3258000D+00 0.1027000D+00 0.2526000D-01 0.1407000D+01
EXPONENTS  0.1407000D+01 0.1407000D+01 0.3880000D+00 0.3880000D+00 0.3880000D+00
EXPONENTS  0.1020000D+00 0.1020000D+00 0.1020000D+00 0.1057000D+01 0.1057000D+01
EXPONENTS  0.1057000D+01 0.1057000D+01 0.1057000D+01 0.1057000D+01 0.2470000D+00
EXPONENTS  0.2470000D+00 0.2470000D+00 0.2470000D+00 0.2470000D+00 0.2470000D+00
EXPONENTS  0.8236000D+04 0.1235000D+04 0.2808000D+03 0.7927000D+02 0.2559000D+02
EXPONENTS  0.8997000D+01 0.3319000D+01 0.3643000D+00 0.8236000D+04 0.1235000D+04
EXPONENTS  0.2808000D+03 0.7927000D+02 0.2559000D+02 0.8997000D+01 0.3319000D+01
EXPONENTS  0.3643000D+00 0.9059000D+00 0.1285000D+00 0.4402000D-01 0.1871000D+02
EXPONENTS  0.4133000D+01 0.1200000D+01 0.1871000D+02 0.4133000D+01 0.1200000D+01
EXPONENTS  0.1871000D+02 0.4133000D+01 0.1200000D+01 0.3827000D+00 0.3827000D+00
EXPONENTS  0.3827000D+00 0.1209000D+00 0.1209000D+00 0.1209000D+00 0.3569000D-01
EXPONENTS  0.3569000D-01 0.3569000D-01 0.1097000D+01 0.1097000D+01 0.1097000D+01
EXPONENTS  0.1097000D+01 0.1097000D+01 0.1097000D+01 0.3180000D+00 0.3180000D+00
EXPONENTS  0.3180000D+00 0.3180000D+00 0.3180000D+00 0.3180000D+00 0.1000000D+00
EXPONENTS  0.1000000D+00 0.1000000D+00 0.1000000D+00 0.1000000D+00 0.1000000D+00
EXPONENTS  0.7610000D+00 0.7610000D+00 0.7610000D+00 0.7610000D+00 0.7610000D+00
EXPONENTS  0.7610000D+00 0.7610000D+00 0.7610000D+00 0.7610000D+00 0.7610000D+00
EXPONENTS  0.2680000D+00 0.2680000D+00 0.2680000D+00 0.2680000D+00 0.2680000D+00
EXPONENTS  0.2680000D+00 0.2680000D+00 0.2680000D+00 0.2680000D+00 0.2680000D+00
EXPONENTS  0.8236000D+04 0.1235000D+04 0.2808000D+03 0.7927000D+02 0.2559000D+02
EXPONENTS  0.8997000D+01 0.3319000D+01 0.3643000D+00 0.8236000D+04 0.1235000D+04
EXPONENTS  0.2808000D+03 0.7927000D+02 0.2559000D+02 0.8997000D+01 0.3319000D+01
EXPONENTS  0.3643000D+00 0.9059000D+00 0.1285000D+00 0.4402000D-01 0.1871000D+02
EXPONENTS  0.4133000D+01 0.1200000D+01 0.1871000D+02 0.4133000D+01 0.1200000D+01
EXPONENTS  0.1871000D+02 0.4133000D+01 0.1200000D+01 0.3827000D+00 0.3827000D+00
EXPONENTS  0.3827000D+00 0.1209000D+00 0.1209000D+00 0.1209000D+00 0.3569000D-01
EXPONENTS  0.3569000D-01 0.3569000D-01 0.1097000D+01 0.1097000D+01 0.1097000D+01
EXPONENTS  0.1097000D+01 0.1097000D+01 0.1097000D+01 0.3180000D+00 0.3180000D+00
EXPONENTS  0.3180000D+00 0.3180000D+00 0.3180000D+00 0.3180000D+00 0.1000000D+00
EXPONENTS  0.1000000D+00 0.1000000D+00 0.1000000D+00 0.1000000D+00 0.1000000D+00
EXPONENTS  0.7610000D+00 0.7610000D+00 0.7610000D+00 0.7610000D+00 0.7610000D+00
EXPONENTS  0.7610000D+00 0.7610000D+00 0.7610000D+00 0.7610000D+00 0.7610000D+00
EXPONENTS  0.2680000D+00 0.2680000D+00 0.2680000D+00 0.2680000D+00 0.2680000D+00
EXPONENTS  0.2680000D+00 0.2680000D+00 0.2680000D+00 0.2680000D+00 0.2680000D+00
EXPONENTS  0.9563600D+07 0.1432100D+07 0.3259100D+06 0.9231200D+05 0.3011600D+05
EXPONENTS  0.1087200D+05 0.4240100D+04 0.1758400D+04 0.7665900D+03 0.3484300D+03
EXPONENTS  0.1640300D+03 0.7914200D+02 0.3552400D+02 0.1730500D+02 0.8378400D+01
EXPONENTS  0.3740500D+01 0.1689000D+01 0.2552000D+00 0.9563600D+07 0.1432100D+07
EXPONENTS  0.3259100D+06 0.9231200D+05 0.3011600D+05 0.1087200D+05 0.4240100D+04
EXPONENTS  0.1758400D+04 0.7665900D+03 0.3484300D+03 0.1640300D+03 0.7914200D+02
EXPONENTS  0.3552400D+02 0.1730500D+02 0.8378400D+01 0.3740500D+01 0.1689000D+01
EXPONENTS  0.2552000D+00 0.9563600D+07 0.1432100D+07 0.3259100D+06 0.9231200D+05
EXPONENTS  0.3011600D+05 0.1087200D+05 0.4240100D+04 0.1758400D+04 0.7665900D+03
EXPONENTS  0.3484300D+03 0.1640300D+03 0.7914200D+02 0.3552400D+02 0.1730500D+02
EXPONENTS  0.8378400D+01 0.3740500D+01 0.1689000D+01 0.2552000D+00 0.9563600D+07
EXPONENTS  0.1432100D+07 0.3259100D+06 0.9231200D+05 0.3011600D+05 0.1087200D+05
EXPONENTS  0.4240100D+04 0.1758400D+04 0.7665900D+03 0.3484300D+03 0.1640300D+03
EXPONENTS  0.7914200D+02 0.3552400D+02 0.1730500D+02 0.8378400D+01 0.3740500D+01
EXPONENTS  0.1689000D+01 0.2552000D+00 0.5092700D+00 0.1065100D+00 0.3920100D-01
EXPONENTS  0.8004300D+04 0.1896900D+04 0.6147100D+03 0.2335000D+03 0.9785600D+02
EXPONENTS  0.4351400D+02 0.2006300D+02 0.9112700D+01 0.4106300D+01 0.1794900D+01
EXPONENTS  0.2461500D+00 0.8004300D+04 0.1896900D+04 0.6147100D+03 0.2335000D+03
EXPONENTS  0.9785600D+02 0.4351400D+02 0.2006300D+02 0.9112700D+01 0.4106300D+01
EXPONENTS  0.1794900D+01 0.2461500D+00 0.8004300D+04 0.1896900D+04 0.6147100D+03
EXPONENTS  0.2335000D+03 0.9785600D+02 0.4351400D+02 0.2006300D+02 0.9112700D+01
EXPONENTS  0.4106300D+01 0.1794900D+01 0.2461500D+00 0.8004300D+04 0.1896900D+04
EXPONENTS  0.6147100D+03 0.2335000D+03 0.9785600D+02 0.4351400D+02 0.2006300D+02
EXPONENTS  0.9112700D+01 0.4106300D+01 0.1794900D+01 0.2461500D+00 0.8004300D+04
EXPONENTS  0.1896900D+04 0.6147100D+03 0.2335000D+03 0.9785600D+02 0.4351400D+02
EXPONENTS  0.2006300D+02 0.9112700D+01 0.4106300D+01 0.1794900D+01 0.2461500D+00
EXPONENTS  0.8004300D+04 0.1896900D+04 0.6147100D+03 0.2335000D+03 0.9785600D+02
EXPONENTS  0.4351400D+02 0.2006300D+02 0.9112700D+01 0.4106300D+01 0.1794900D+01
EXPONENTS  0.2461500D+00 0.8004300D+04 0.1896900D+04 0.6147100D+03 0.2335000D+03
EXPONENTS  0.9785600D+02 0.4351400D+02 0.2006300D+02 0.9112700D+01 0.4106300D+01
EXPONENTS  0.1794900D+01 0.2461500D+00 0.8004300D+04 0.1896900D+04 0.6147100D+03
EXPONENTS  0.2335000D+03 0.9785600D+02 0.4351400D+02 0.2006300D+02 0.9112700D+01
EXPONENTS  0.4106300D+01 0.1794900D+01 0.2461500D+00 0.8004300D+04 0.1896900D+04
EXPONENTS  0.6147100D+03 0.2335000D+03 0.9785600D+02 0.4351400D+02 0.2006300D+02
EXPONENTS  0.9112700D+01 0.4106300D+01 0.1794900D+01 0.2461500D+00 0.6243200D+00
EXPONENTS  0.6243200D+00 0.6243200D+00 0.8891700D-01 0.8891700D-01 0.8891700D-01
EXPONENTS  0.3025100D-01 0.3025100D-01 0.3025100D-01 0.3618500D+03 0.1085500D+03
EXPONENTS  0.4143300D+02 0.1757900D+02 0.7862700D+01 0.3518000D+01 0.1534800D+01
EXPONENTS  0.3618500D+03 0.1085500D+03 0.4143300D+02 0.1757900D+02 0.7862700D+01
EXPONENTS  0.3518000D+01 0.1534800D+01 0.3618500D+03 0.1085500D+03 0.4143300D+02
EXPONENTS  0.1757900D+02 0.7862700D+01 0.3518000D+01 0.1534800D+01 0.3618500D+03
EXPONENTS  0.1085500D+03 0.4143300D+02 0.1757900D+02 0.7862700D+01 0.3518000D+01
EXPONENTS  0.1534800D+01 0.3618500D+03 0.1085500D+03 0.4143300D+02 0.1757900D+02
EXPONENTS  0.7862700D+01 0.3518000D+01 0.1534800D+01 0.3618500D+03 0.1085500D+03
EXPONENTS  0.4143300D+02 0.1757900D+02 0.7862700D+01 0.3518000D+01 0.1534800D+01
EXPONENTS  0.6081300D+00 0.6081300D+00 0.6081300D+00 0.6081300D+00 0.6081300D+00
EXPONENTS  0.6081300D+00 0.2220000D+00 0.2220000D+00 0.2220000D+00 0.2220000D+00
EXPONENTS  0.2220000D+00 0.2220000D+00 0.8370000D-01 0.8370000D-01 0.8370000D-01
EXPONENTS  0.8370000D-01 0.8370000D-01 0.8370000D-01 0.4620000D+00 0.4620000D+00
EXPONENTS  0.4620000D+00 0.4620000D+00 0.4620000D+00 0.4620000D+00 0.4620000D+00
EXPONENTS  0.4620000D+00 0.4620000D+00 0.4620000D+00 0.1880000D+00 0.1880000D+00
EXPONENTS  0.1880000D+00 0.1880000D+00 0.1880000D+00 0.1880000D+00 0.1880000D+00
EXPONENTS  0.1880000D+00 0.1880000D+00 0.1880000D+00 0.1142000D+05 0.1712000D+04
EXPONENTS  0.3893000D+03 0.1100000D+03 0.3557000D+02 0.1254000D+02 0.4644000D+01
EXPONENTS  0.5118000D+00 0.1142000D+05 0.1712000D+04 0.3893000D+03 0.1100000D+03
EXPONENTS  0.3557000D+02 0.1254000D+02 0.4644000D+01 0.5118000D+00 0.1293000D+01
EXPONENTS  0.1787000D+00 0.5760000D-01 0.2663000D+02 0.5948000D+01 0.1742000D+01
EXPONENTS  0.2663000D+02 0.5948000D+01 0.1742000D+01 0.2663000D+02 0.5948000D+01
EXPONENTS  0.1742000D+01 0.5550000D+00 0.5550000D+00 0.5550000D+00 0.1725000D+00
EXPONENTS  0.1725000D+00 0.1725000D+00 0.4910000D-01 0.4910000D-01 0.4910000D-01
EXPONENTS  0.1654000D+01 0.1654000D+01 0.1654000D+01 0.1654000D+01 0.1654000D+01
EXPONENTS  0.1654000D+01 0.4690000D+00 0.4690000D+00 0.4690000D+00 0.4690000D+00
EXPONENTS  0.4690000D+00 0.4690000D+00 0.1510000D+00 0.1510000D+00 0.1510000D+00
EXPONENTS  0.1510000D+00 0.1510000D+00 0.1510000D+00 0.1093000D+01 0.1093000D+01
EXPONENTS  0.1093000D+01 0.1093000D+01 0.1093000D+01 0.1093000D+01 0.1093000D+01
EXPONENTS  0.1093000D+01 0.1093000D+01 0.1093000D+01 0.3640000D+00 0.3640000D+00
EXPONENTS  0.3640000D+00 0.3640000D+00 0.3640000D+00 0.3640000D+00 0.3640000D+00
EXPONENTS  0.3640000D+00 0.3640000D+00 0.3640000D+00
MO    1     MO 0.0        OCC NO =    2.0000000  ORB. ENERGY = -456.280170
 -0.15872381D-05 -0.28626492D-05 -0.42209746D-05  0.12910103D-04 -0.76940906D-04
  0.22425925D-05  0.10434866D-04 -0.16933695D-05  0.51715323D-12  0.16811852D-04
  0.15321281D-04  0.16353191D-11  0.11120898D-04 -0.10816395D-04  0.33442734D-12
 -0.88094594D-05  0.70950583D-05  0.17144011D-05  0.12036255D-04 -0.69837282D-11
 -0.73794190D-14 -0.96336404D-06  0.25117588D-05 -0.15483947D-05  0.33112234D-06
  0.11414779D-11 -0.57177983D-12  0.14235423D-05  0.25674171D-05  0.37856550D-05
  0.21867289D-04 -0.15965001D-04 -0.11617556D-06  0.34141508D-05  0.34478386D-05
 -0.17594565D-11 -0.14681821D-05  0.26932996D-04  0.15870907D-10  0.33457386D-05
 -0.12448982D-05  0.25189523D-11 -0.48484576D-05  0.10895876D-05  0.37588700D-05
 -0.27048588D-04 -0.74143759D-11 -0.69737960D-11 -0.34832119D-06 -0.29377730D-05
  0.32860942D-05  0.20070499D-05 -0.41698472D-11 -0.13585640D-11  0.76708251D-06
  0.13834649D-05  0.20399182D-05  0.11945931D-03 -0.36038098D-04  0.26411452D-05
  0.10548853D-04 -0.82126264D-05  0.66749166D-11  0.36719443D-05 -0.21116891D-04
 -0.20003225D-10 -0.53438044D-05  0.88510016D-05 -0.79398799D-12 -0.10013638D-04
  0.10752128D-04 -0.73848992D-06  0.24486434D-05 -0.20683322D-11  0.16146668D-10
 -0.30022594D-05 -0.12220548D-06  0.31244649D-05 -0.68306988D-05  0.15114479D-11
  0.39624308D-11  0.11235083D-06  0.20262935D-06  0.29877686D-06 -0.47632338D-05
  0.25057927D-04 -0.10639544D-05 -0.66758570D-05  0.39230456D-05  0.51064144D-05
  0.20075668D-04 -0.14207092D-04  0.29363770D-05  0.32723910D-05 -0.28245083D-05
 -0.11275515D-04  0.72476743D-05 -0.55736547D-05 -0.16740196D-05  0.68669896D-05
 -0.47778138D-05  0.31317866D-05 -0.34613476D-05  0.26103817D-05  0.85096589D-06
  0.92557073D-05  0.15917062D-05  0.75271909D-05  0.11235128D-06  0.20263016D-06
  0.29877806D-06 -0.47632253D-05  0.25058021D-04 -0.10639515D-05 -0.66758246D-05
  0.39230444D-05 -0.51064177D-05  0.20075627D-04 -0.14207081D-04 -0.29363799D-05
  0.32723883D-05 -0.28245021D-05  0.11275522D-04  0.72476773D-05 -0.55736588D-05
 -0.16740185D-05  0.68669959D-05  0.47778047D-05 -0.31317779D-05 -0.34613471D-05
  0.26103816D-05  0.85096547D-06  0.92557151D-05 -0.15917121D-05 -0.75271937D-05
 -0.11514507D-04 -0.21465659D-04 -0.36280745D-04 -0.54541843D-04 -0.67010956D-04
 -0.56601465D-04 -0.21347990D-04  0.10565239D-06  0.89837123D-05  0.16820344D-04
  0.28638075D-04  0.44298747D-04  0.58339891D-04  0.60618884D-04  0.38520580D-04
 -0.25815597D-04 -0.38263672D-04  0.22576661D-03  0.45373628D-04  0.73614036D-05
  0.69017838D-05  0.49144812D-05 -0.16728200D-04 -0.15683751D-04 -0.11167765D-04
  0.97277605D-11  0.91203938D-11  0.64942637D-11 -0.12028977D-04 -0.53286641D-04
 -0.18468039D-10  0.43961326D-04  0.13318741D-03  0.15924023D-10 -0.91377004D-06
  0.10932306D-04 -0.51806238D-12  0.12194416D-04 -0.36918346D-04  0.24723930D-04
 -0.22480337D-04  0.97323995D-11  0.64971671D-11 -0.28959977D-04  0.62025859D-04
 -0.33065883D-04  0.22678532D-04  0.27007760D-11  0.43298681D-11 -0.67015417D-05
  0.17431706D-04 -0.10730164D-04 -0.20742005D-04 -0.23337428D-11 -0.46147595D-11
 -0.53619567D-05  0.83316045D-07  0.24793973D-11  0.90895652D-05 -0.15859522D-04
 -0.71360196D-12  0.69963049D-05  0.15609574D-04 -0.67245898D-11 -0.12320976D-10
  0.63159924D-05  0.19269766D-04 -0.88957269D-12 -0.13454724D-04 -0.30706763D-04
 -0.12285375D-11 -0.54932532D-05 -0.27102536D-04  0.38972556D-11  0.27892546D-11
  0.24227895D-05  0.45166306D-05  0.76339013D-05  0.11476254D-04  0.14099904D-04
  0.11909623D-04  0.44918717D-05 -0.22230524D-07 -0.18461795D-05 -0.34566305D-05
 -0.58852092D-05 -0.91035238D-05 -0.11989021D-04 -0.12457360D-04 -0.79160933D-05
  0.53051816D-05  0.88107143D-05 -0.21095725D-04  0.77275078D-05 -0.29666519D-05
 -0.27814248D-05 -0.19805401D-05  0.45105477D-05  0.42289252D-05  0.30112467D-05
  0.20540525D-11  0.19258048D-11  0.13712877D-11 -0.15757443D-04 -0.26560343D-04
 -0.19051587D-10 -0.42690778D-05  0.16815282D-06  0.18761076D-10  0.18053250D-05
 -0.29719611D-05  0.12728686D-11  0.72391052D-06 -0.70152493D-05  0.62913388D-05
 -0.17432401D-04 -0.19025785D-10  0.84837279D-11 -0.32671378D-04  0.20319779D-04
  0.12351599D-04  0.20340689D-04 -0.14789381D-10  0.99745974D-11  0.31978839D-05
 -0.99673860D-05  0.67695021D-05 -0.68427404D-06 -0.41591909D-11 -0.48685074D-11
  0.54027614D-06  0.50383031D-05 -0.11915347D-11 -0.35336246D-05 -0.83963832D-05
  0.28505040D-11  0.19127962D-05 -0.67185262D-05  0.72409997D-12  0.97046619D-11
  0.94659712D-06  0.80782348D-05 -0.44226543D-11  0.13880476D-04 -0.25295644D-04
  0.15411293D-10 -0.16720268D-04  0.10609397D-05 -0.21433304D-11  0.76236747D-11
  0.77212755D+00  0.14426843D+01  0.25021553D+01  0.40991695D+01  0.64189739D+01
  0.96395872D+01  0.13748811D+02  0.18164965D+02  0.20948670D+02  0.18854475D+02
  0.10577829D+02  0.25572468D+01  0.12140540D+00 -0.20776113D-02  0.58434254D-03
 -0.22771736D-03  0.21539462D-04  0.21238363D-05  0.66066113D-04  0.12166177D-03
  0.21117428D-03  0.34586391D-03  0.54437388D-03  0.82166028D-03  0.11977414D-02
  0.16447505D-02  0.20888122D-02  0.22495182D-02  0.17946234D-02  0.40198132D-03
 -0.10748890D-02 -0.95587129D-03 -0.18668554D-03 -0.51715736D-05 -0.37450777D-06
 -0.76484733D-08 -0.16016324D-03 -0.28915989D-03 -0.50337231D-03 -0.82429340D-03
 -0.12995455D-02 -0.19609784D-02 -0.28700378D-02 -0.39545350D-02 -0.50945006D-02
 -0.56074432D-02 -0.47205578D-02 -0.11241337D-02  0.37865147D-02  0.50595774D-02
  0.62157943D-03 -0.21718830D-02 -0.95874504D-03  0.47580792D-05  0.57031972D-04
  0.12355913D-03  0.21034324D-03  0.34335448D-03  0.54131307D-03  0.81687183D-03
  0.11955612D-02  0.16492018D-02  0.21272979D-02  0.23517619D-02  0.19917679D-02
  0.48381367D-03 -0.16785484D-02 -0.23690785D-02 -0.28266370D-03  0.13284544D-02
  0.10619071D-02 -0.40230062D-03  0.28704688D-03 -0.99403588D-04 -0.34133154D-04
  0.13549496D-03  0.19419571D-03  0.25644288D-03  0.29476817D-03  0.27116829D-03
  0.17347378D-03  0.60046004D-04  0.67506067D-05  0.85884172D-07  0.14882243D-07
  0.15208033D-09  0.15956848D-02  0.22869864D-02  0.30200533D-02  0.34713990D-02
  0.31934701D-02  0.20429503D-02  0.70714434D-03  0.79499933D-04  0.10114329D-05
  0.17526385D-06  0.17910058D-08 -0.48466335D-10 -0.69463499D-10 -0.91729215D-10
 -0.10543811D-09 -0.96996469D-10 -0.62051298D-10 -0.21478361D-10 -0.24146814D-11
 -0.30720633D-13 -0.53233548D-14 -0.54398893D-16 -0.52993838D-03 -0.76439436D-03
 -0.10180744D-02 -0.12048536D-02 -0.11578190D-02 -0.79583147D-03 -0.25056336D-03
  0.12109501D-03  0.12427280D-03  0.31296502D-04 -0.34122015D-07 -0.78946232D-02
 -0.11387372D-01 -0.15166506D-01 -0.17949002D-01 -0.17248317D-01 -0.11855698D-01
 -0.37327045D-02  0.18039824D-02  0.18513226D-02  0.46623173D-03 -0.50832410D-06
  0.19757182D-09  0.28498178D-09  0.37955886D-09  0.44919395D-09  0.43165851D-09
  0.29670218D-09  0.93415124D-10 -0.45146686D-10 -0.46331428D-10 -0.11667973D-10
  0.12721382D-13  0.39246625D-03  0.56895322D-03  0.75514310D-03  0.90119105D-03
  0.86583066D-03  0.60603531D-03  0.18298698D-03 -0.11201533D-03 -0.12047048D-03
 -0.32398454D-04  0.12077087D-04  0.59848242D-02  0.86761218D-02  0.11515382D-01
  0.13742506D-01  0.13203286D-01  0.92415965D-02  0.27904180D-02 -0.17081521D-02
 -0.18370871D-02 -0.49405280D-03  0.18416677D-03 -0.14333801D-09 -0.20779525D-09
 -0.27579622D-09 -0.32913640D-09 -0.31622195D-09 -0.22133850D-09 -0.66831195D-10
  0.40910661D-10  0.43998686D-10  0.11832686D-10 -0.44108393D-11 -0.50496136D-05
 -0.27695531D-04  0.28165638D-11  0.84437956D-05  0.45364409D-05  0.29443393D-11
 -0.29989706D-07  0.59893253D-06  0.10999065D-12 -0.37418309D-03 -0.38731525D-03
 -0.32405398D-03 -0.20910684D-03 -0.93933651D-04 -0.27427106D-04 -0.46271208D-05
  0.90123326D-03  0.93286254D-03  0.78049553D-03  0.50364125D-03  0.22624253D-03
  0.66059158D-04  0.11144585D-04 -0.52705017D-03 -0.54554729D-03 -0.45644155D-03
 -0.29453441D-03 -0.13230888D-03 -0.38632053D-04 -0.65174640D-05  0.40142583D-04
  0.41551409D-04  0.34764703D-04  0.22433105D-04  0.10077258D-04  0.29423961D-05
  0.49640026D-06  0.11048017D-11  0.11435753D-11  0.95679198D-12  0.61740252D-12
  0.27734565D-12  0.80980442D-13  0.13661897D-13  0.29797817D-11  0.30843588D-11
  0.25805820D-11  0.16652082D-11  0.74803428D-12  0.21841390D-12  0.36847764D-13
  0.24648543D-04 -0.59069621D-04  0.34421078D-04 -0.34197947D-05  0.92065064D-13
  0.19934793D-12  0.88926295D-05 -0.13172820D-04  0.42801906D-05 -0.60033225D-05
 -0.40028426D-12  0.31971295D-11 -0.78205506D-06  0.28768454D-05 -0.20947903D-05
 -0.13142849D-05  0.21615672D-12 -0.69696440D-12 -0.77041937D-06  0.13125584D-04
  0.34002522D-12  0.26991554D-05 -0.15752630D-04  0.31125705D-12 -0.38789733D-06
 -0.23624123D-04 -0.13313327D-11  0.14336975D-11 -0.18900713D-06 -0.21861166D-05
  0.13121493D-12  0.34604720D-06  0.63891522D-06  0.18123102D-12  0.22097419D-06
  0.59194346D-05 -0.57487581D-12 -0.16663194D-12 -0.22980555D-05 -0.42820881D-05
 -0.72420845D-05 -0.10906178D-04 -0.13502556D-04 -0.11490066D-04 -0.43721819D-05
  0.20476793D-07  0.15346956D-05  0.28775685D-05  0.48956003D-05  0.76023503D-05
  0.10088761D-04  0.10632169D-04  0.65926232D-05 -0.43854155D-05 -0.73392522D-07
 -0.92244435D-04  0.23751939D-04 -0.18403122D-05 -0.17675979D-05 -0.12395616D-05
 -0.33279403D-05 -0.31964469D-05 -0.22415692D-05 -0.59313264D-12 -0.56969681D-12
 -0.39951073D-12  0.16654188D-04  0.12891921D-04  0.18442151D-11  0.14190883D-04
 -0.57000897D-04 -0.14018883D-10 -0.25146153D-05 -0.63051203D-06 -0.62620296D-12
  0.15137385D-04 -0.15103825D-04 -0.33559862D-07  0.58724725D-05  0.13039532D-11
  0.18022762D-11 -0.30797831D-05  0.34980895D-05 -0.41830645D-06  0.14558952D-04
 -0.76913617D-11 -0.29220410D-11  0.17641701D-05 -0.33105735D-05  0.15464034D-05
  0.56140475D-05  0.12357514D-11  0.19522847D-12  0.47887745D-05 -0.83749496D-06
 -0.32596197D-11  0.25322274D-05  0.15420394D-04  0.80195464D-11 -0.16898551D-04
 -0.12907909D-04  0.17593126D-11  0.66626941D-11  0.56981140D-05  0.27774382D-05
  0.25062122D-11 -0.22891930D-04 -0.15129114D-04 -0.73094018D-11  0.57975884D-05
  0.67967993D-05 -0.20923474D-12 -0.96063041D-11
MO    2     MO 0.0        OCC NO =    2.0000000  ORB. ENERGY =  -58.848996
  0.25960222D-04  0.46820329D-04  0.69036548D-04 -0.23359666D-03  0.13090457D-02
 -0.37988846D-04 -0.16918216D-03  0.17262452D-04 -0.68432055D-11 -0.26710932D-03
 -0.26650264D-03 -0.28675962D-10 -0.19134860D-03  0.18230524D-03 -0.52301010D-11
  0.14465045D-03 -0.11814025D-03 -0.26510204D-04 -0.19249277D-03  0.11480416D-09
 -0.42330388D-12  0.17119102D-04 -0.44691864D-04  0.27572762D-04 -0.30188952D-05
 -0.18969901D-10  0.10010136D-10 -0.22709015D-04 -0.40956644D-04 -0.60390548D-04
 -0.36621792D-03  0.31018651D-03  0.31719190D-05 -0.49325783D-04 -0.52989589D-04
  0.28913630D-10  0.36708415D-04 -0.43974841D-03 -0.26406629D-09 -0.64803688D-04
  0.22864147D-04 -0.42697250D-10  0.74196144D-04 -0.19610513D-04 -0.54585631D-04
  0.43572843D-03  0.12140257D-09  0.11449082D-09  0.54996018D-05  0.50222404D-04
 -0.55722006D-04 -0.42282076D-04  0.70369702D-10  0.22521530D-10 -0.11303776D-04
 -0.20386825D-04 -0.30060362D-04 -0.20292372D-02  0.69084539D-03 -0.45169641D-04
 -0.17753583D-03  0.13593770D-03 -0.11170563D-09 -0.76963557D-04  0.34927904D-03
  0.32879707D-09  0.99205536D-04 -0.15675494D-03  0.17115023D-10  0.15974007D-03
 -0.17415670D-03  0.14416628D-04 -0.43761803D-04  0.30332381D-10 -0.26020551D-09
  0.51179822D-04  0.33073446D-05 -0.54487167D-04  0.12208763D-03 -0.25108857D-10
 -0.65876903D-10 -0.18786699D-05 -0.33882586D-05 -0.49959853D-05  0.66024108D-04
 -0.43232314D-03  0.16767378D-04  0.11059747D-03 -0.63768009D-04 -0.81890235D-04
 -0.33049357D-03  0.23439528D-03 -0.41002495D-04 -0.56257956D-04  0.47384805D-04
  0.19496080D-03 -0.11862296D-03  0.94989311D-04  0.23633651D-04 -0.10803630D-03
  0.73933974D-04 -0.44360616D-04  0.60223249D-04 -0.45385713D-04 -0.14837536D-04
 -0.15624855D-03 -0.26411909D-04 -0.12651441D-03 -0.18786763D-05 -0.33882701D-05
 -0.49960023D-05  0.66023961D-04 -0.43232472D-03  0.16767329D-04  0.11059694D-03
 -0.63767986D-04  0.81890289D-04 -0.33049287D-03  0.23439509D-03  0.41002544D-04
 -0.56257906D-04  0.47384699D-04 -0.19496092D-03 -0.11862301D-03  0.94989376D-04
  0.23633638D-04 -0.10803641D-03 -0.73933806D-04  0.44360466D-04  0.60223240D-04
 -0.45385713D-04 -0.14837527D-04 -0.15624868D-03  0.26412005D-04  0.12651446D-03
  0.17124603D-03  0.31924154D-03  0.53957445D-03  0.81115714D-03  0.99660026D-03
  0.84178824D-03  0.31749155D-03 -0.15712834D-05 -0.13516239D-03 -0.25306665D-03
 -0.43086762D-03 -0.66648670D-03 -0.87773953D-03 -0.91202760D-03 -0.57955260D-03
  0.38840267D-03  0.63635539D-03 -0.38094466D-02 -0.71336292D-03 -0.11749609D-03
 -0.11016006D-03 -0.78440522D-04  0.26962267D-03  0.25278840D-03  0.18000040D-03
 -0.15825938D-09 -0.14837822D-09 -0.10565413D-09  0.17848686D-03  0.89272704D-03
  0.30503953D-09 -0.73265047D-03 -0.21832898D-02 -0.27608053D-09  0.10768378D-04
 -0.19134454D-03  0.87191189D-11 -0.20847720D-03  0.60155237D-03 -0.39307517D-03
  0.37968098D-03 -0.15866263D-09 -0.10745624D-09  0.48196130D-03 -0.10345749D-02
  0.55261362D-03 -0.38821994D-03 -0.45439584D-10 -0.68852544D-10  0.11018349D-03
 -0.29354317D-03  0.18335968D-03  0.35214405D-03  0.40237572D-10  0.79925056D-10
  0.86204218D-04 -0.12602409D-05 -0.39687413D-10 -0.14808550D-03  0.26701037D-03
  0.10012334D-10 -0.11052715D-03 -0.26322964D-03  0.10904990D-09  0.20131899D-09
 -0.10760629D-03 -0.31452250D-03  0.14862222D-10  0.23299039D-03  0.49393467D-03
  0.20037251D-10  0.89828487D-04  0.44963284D-03 -0.64623918D-10 -0.46283114D-10
 -0.41898345D-04 -0.78108042D-04 -0.13201635D-03 -0.19846382D-03 -0.24383573D-03
 -0.20595825D-03 -0.77679876D-04  0.38444204D-06  0.32103639D-04  0.60108142D-04
  0.10233926D-03  0.15830327D-03  0.20847983D-03  0.21662390D-03  0.13765476D-03
 -0.92253022D-04 -0.15864770D-03  0.40828885D-03 -0.18010115D-03  0.44142404D-04