 Molden2AIM, Version 4.0.0 (06/02/2016)           Time: Thu Jun 28 01:06:52 2018
GAUSSIAN             17 MOL ORBITALS    416 PRIMITIVES        8 NUCLEI
  C    1    (CENTRE  1)   0.00424055  1.54501929  0.00000000  CHARGE =  6.0
  H    2    (CENTRE  2)  -0.68245947  2.53153381  1.68649931  CHARGE =  1.0
  H    3    (CENTRE  3)  -0.68245947  2.53153381 -1.68649931  CHARGE =  1.0
  C    4    (CENTRE  4)   2.84493166  1.27147955  0.00000000  CHARGE =  6.0
  H    5    (CENTRE  5)   3.49275056  0.24868607 -1.68288237  CHARGE =  1.0
  H    6    (CENTRE  6)   3.49275056  0.24868607  1.68288237  CHARGE =  1.0
  H    7    (CENTRE  7)   3.71759395  3.15834274  0.00000000  CHARGE =  1.0
  Cl   8    (CENTRE  8)  -1.52997329 -1.49889108  0.00000000  CHARGE = 17.0
CENTRE ASSIGNMENTS    1  1  1  1  1  1  1  1  1  1  1  1  1  1  1  1  1  1  1  1
CENTRE ASSIGNMENTS    1  1  1  1  1  1  1  1  1  1  1  1  1  1  1  1  1  1  1  1
CENTRE ASSIGNMENTS    1  1  1  1  1  1  1  1  1  1  1  1  1  1  1  1  1  1  1  1
CENTRE ASSIGNMENTS    1  1  1  1  1  1  1  1  1  1  1  1  1  1  1  2  2  2  2  2
CENTRE ASSIGNMENTS    2  2  2  2  2  2  2  2  2  2  2  2  2  2  2  2  2  2  2  2
CENTRE ASSIGNMENTS    2  2  3  3  3  3  3  3  3  3  3  3  3  3  3  3  3  3  3  3
CENTRE ASSIGNMENTS    3  3  3  3  3  3  3  3  3  4  4  4  4  4  4  4  4  4  4  4
CENTRE ASSIGNMENTS    4  4  4  4  4  4  4  4  4  4  4  4  4  4  4  4  4  4  4  4
CENTRE ASSIGNMENTS    4  4  4  4  4  4  4  4  4  4  4  4  4  4  4  4  4  4  4  4
CENTRE ASSIGNMENTS    4  4  4  4  4  4  4  4  4  4  4  4  4  4  4  4  4  4  4  4
CENTRE ASSIGNMENTS    4  4  4  4  5  5  5  5  5  5  5  5  5  5  5  5  5  5  5  5
CENTRE ASSIGNMENTS    5  5  5  5  5  5  5  5  5  5  5  6  6  6  6  6  6  6  6  6
CENTRE ASSIGNMENTS    6  6  6  6  6  6  6  6  6  6  6  6  6  6  6  6  6  6  7  7
CENTRE ASSIGNMENTS    7  7  7  7  7  7  7  7  7  7  7  7  7  7  7  7  7  7  7  7
CENTRE ASSIGNMENTS    7  7  7  7  7  8  8  8  8  8  8  8  8  8  8  8  8  8  8  8
CENTRE ASSIGNMENTS    8  8  8  8  8  8  8  8  8  8  8  8  8  8  8  8  8  8  8  8
CENTRE ASSIGNMENTS    8  8  8  8  8  8  8  8  8  8  8  8  8  8  8  8  8  8  8  8
CENTRE ASSIGNMENTS    8  8  8  8  8  8  8  8  8  8  8  8  8  8  8  8  8  8  8  8
CENTRE ASSIGNMENTS    8  8  8  8  8  8  8  8  8  8  8  8  8  8  8  8  8  8  8  8
CENTRE ASSIGNMENTS    8  8  8  8  8  8  8  8  8  8  8  8  8  8  8  8  8  8  8  8
CENTRE ASSIGNMENTS    8  8  8  8  8  8  8  8  8  8  8  8  8  8  8  8
TYPE ASSIGNMENTS      1  1  1  1  1  1  1  1  1  1  1  1  1  1  1  1  1  1  1  2
TYPE ASSIGNMENTS      2  2  3  3  3  4  4  4  2  3  4  2  3  4  2  3  4  5  6  7
TYPE ASSIGNMENTS      8  9 10  5  6  7  8  9 10  5  6  7  8  9 10 11 12 13 17 14
TYPE ASSIGNMENTS     15 18 19 16 20 11 12 13 17 14 15 18 19 16 20  1  1  1  1  1
TYPE ASSIGNMENTS      1  2  3  4  2  3  4  2  3  4  5  6  7  8  9 10  5  6  7  8
TYPE ASSIGNMENTS      9 10  1  1  1  1  1  1  2  3  4  2  3  4  2  3  4  5  6  7
TYPE ASSIGNMENTS      8  9 10  5  6  7  8  9 10  1  1  1  1  1  1  1  1  1  1  1
TYPE ASSIGNMENTS      1  1  1  1  1  1  1  1  2  2  2  3  3  3  4  4  4  2  3  4
TYPE ASSIGNMENTS      2  3  4  2  3  4  5  6  7  8  9 10  5  6  7  8  9 10  5  6
TYPE ASSIGNMENTS      7  8  9 10 11 12 13 17 14 15 18 19 16 20 11 12 13 17 14 15
TYPE ASSIGNMENTS     18 19 16 20  1  1  1  1  1  1  2  3  4  2  3  4  2  3  4  5
TYPE ASSIGNMENTS      6  7  8  9 10  5  6  7  8  9 10  1  1  1  1  1  1  2  3  4
TYPE ASSIGNMENTS      2  3  4  2  3  4  5  6  7  8  9 10  5  6  7  8  9 10  1  1
TYPE ASSIGNMENTS      1  1  1  1  2  3  4  2  3  4  2  3  4  5  6  7  8  9 10  5
TYPE ASSIGNMENTS      6  7  8  9 10  1  1  1  1  1  1  1  1  1  1  1  1  1  1  1
TYPE ASSIGNMENTS      1  1  1  1  1  1  1  1  1  1  1  1  1  1  1  1  1  1  1  1
TYPE ASSIGNMENTS      1  1  1  1  1  1  1  2  2  2  2  2  2  2  3  3  3  3  3  3
TYPE ASSIGNMENTS      3  4  4  4  4  4  4  4  2  2  2  2  2  2  2  3  3  3  3  3
TYPE ASSIGNMENTS      3  3  4  4  4  4  4  4  4  2  3  4  2  3  4  2  3  4  5  6
TYPE ASSIGNMENTS      7  8  9 10  5  6  7  8  9 10  5  6  7  8  9 10 11 12 13 17
TYPE ASSIGNMENTS     14 15 18 19 16 20 11 12 13 17 14 15 18 19 16 20
EXPONENTS  0.8236000D+04 0.1235000D+04 0.2808000D+03 0.7927000D+02 0.2559000D+02
EXPONENTS  0.8997000D+01 0.3319000D+01 0.3643000D+00 0.8236000D+04 0.1235000D+04
EXPONENTS  0.2808000D+03 0.7927000D+02 0.2559000D+02 0.8997000D+01 0.3319000D+01
EXPONENTS  0.3643000D+00 0.9059000D+00 0.1285000D+00 0.4402000D-01 0.1871000D+02
EXPONENTS  0.4133000D+01 0.1200000D+01 0.1871000D+02 0.4133000D+01 0.1200000D+01
EXPONENTS  0.1871000D+02 0.4133000D+01 0.1200000D+01 0.3827000D+00 0.3827000D+00
EXPONENTS  0.3827000D+00 0.1209000D+00 0.1209000D+00 0.1209000D+00 0.3569000D-01
EXPONENTS  0.3569000D-01 0.3569000D-01 0.1097000D+01 0.1097000D+01 0.1097000D+01
EXPONENTS  0.1097000D+01 0.1097000D+01 0.1097000D+01 0.3180000D+00 0.3180000D+00
EXPONENTS  0.3180000D+00 0.3180000D+00 0.3180000D+00 0.3180000D+00 0.1000000D+00
EXPONENTS  0.1000000D+00 0.1000000D+00 0.1000000D+00 0.1000000D+00 0.1000000D+00
EXPONENTS  0.7610000D+00 0.7610000D+00 0.7610000D+00 0.7610000D+00 0.7610000D+00
EXPONENTS  0.7610000D+00 0.7610000D+00 0.7610000D+00 0.7610000D+00 0.7610000D+00
EXPONENTS  0.2680000D+00 0.2680000D+00 0.2680000D+00 0.2680000D+00 0.2680000D+00
EXPONENTS  0.2680000D+00 0.2680000D+00 0.2680000D+00 0.2680000D+00 0.2680000D+00
EXPONENTS  0.3387000D+02 0.5095000D+01 0.1159000D+01 0.3258000D+00 0.1027000D+00
EXPONENTS  0.2526000D-01 0.1407000D+01 0.1407000D+01 0.1407000D+01 0.3880000D+00
EXPONENTS  0.3880000D+00 0.3880000D+00 0.1020000D+00 0.1020000D+00 0.1020000D+00
EXPONENTS  0.1057000D+01 0.1057000D+01 0.1057000D+01 0.1057000D+01 0.1057000D+01
EXPONENTS  0.1057000D+01 0.2470000D+00 0.2470000D+00 0.2470000D+00 0.2470000D+00
EXPONENTS  0.2470000D+00 0.2470000D+00 0.3387000D+02 0.5095000D+01 0.1159000D+01
EXPONENTS  0.3258000D+00 0.1027000D+00 0.2526000D-01 0.1407000D+01 0.1407000D+01
EXPONENTS  0.1407000D+01 0.3880000D+00 0.3880000D+00 0.3880000D+00 0.1020000D+00
EXPONENTS  0.1020000D+00 0.1020000D+00 0.1057000D+01 0.1057000D+01 0.1057000D+01
EXPONENTS  0.1057000D+01 0.1057000D+01 0.1057000D+01 0.2470000D+00 0.2470000D+00
EXPONENTS  0.2470000D+00 0.2470000D+00 0.2470000D+00 0.2470000D+00 0.8236000D+04
EXPONENTS  0.1235000D+04 0.2808000D+03 0.7927000D+02 0.2559000D+02 0.8997000D+01
EXPONENTS  0.3319000D+01 0.3643000D+00 0.8236000D+04 0.1235000D+04 0.2808000D+03
EXPONENTS  0.7927000D+02 0.2559000D+02 0.8997000D+01 0.3319000D+01 0.3643000D+00
EXPONENTS  0.9059000D+00 0.1285000D+00 0.4402000D-01 0.1871000D+02 0.4133000D+01
EXPONENTS  0.1200000D+01 0.1871000D+02 0.4133000D+01 0.1200000D+01 0.1871000D+02
EXPONENTS  0.4133000D+01 0.1200000D+01 0.3827000D+00 0.3827000D+00 0.3827000D+00
EXPONENTS  0.1209000D+00 0.1209000D+00 0.1209000D+00 0.3569000D-01 0.3569000D-01
EXPONENTS  0.3569000D-01 0.1097000D+01 0.1097000D+01 0.1097000D+01 0.1097000D+01
EXPONENTS  0.1097000D+01 0.1097000D+01 0.3180000D+00 0.3180000D+00 0.3180000D+00
EXPONENTS  0.3180000D+00 0.3180000D+00 0.3180000D+00 0.1000000D+00 0.1000000D+00
EXPONENTS  0.1000000D+00 0.1000000D+00 0.1000000D+00 0.1000000D+00 0.7610000D+00
EXPONENTS  0.7610000D+00 0.7610000D+00 0.7610000D+00 0.7610000D+00 0.7610000D+00
EXPONENTS  0.7610000D+00 0.7610000D+00 0.7610000D+00 0.7610000D+00 0.2680000D+00
EXPONENTS  0.2680000D+00 0.2680000D+00 0.2680000D+00 0.2680000D+00 0.2680000D+00
EXPONENTS  0.2680000D+00 0.2680000D+00 0.2680000D+00 0.2680000D+00 0.3387000D+02
EXPONENTS  0.5095000D+01 0.1159000D+01 0.3258000D+00 0.1027000D+00 0.2526000D-01
EXPONENTS  0.1407000D+01 0.1407000D+01 0.1407000D+01 0.3880000D+00 0.3880000D+00
EXPONENTS  0.3880000D+00 0.1020000D+00 0.1020000D+00 0.1020000D+00 0.1057000D+01
EXPONENTS  0.1057000D+01 0.1057000D+01 0.1057000D+01 0.1057000D+01 0.1057000D+01
EXPONENTS  0.2470000D+00 0.2470000D+00 0.2470000D+00 0.2470000D+00 0.2470000D+00
EXPONENTS  0.2470000D+00 0.3387000D+02 0.5095000D+01 0.1159000D+01 0.3258000D+00
EXPONENTS  0.1027000D+00 0.2526000D-01 0.1407000D+01 0.1407000D+01 0.1407000D+01
EXPONENTS  0.3880000D+00 0.3880000D+00 0.3880000D+00 0.1020000D+00 0.1020000D+00
EXPONENTS  0.1020000D+00 0.1057000D+01 0.1057000D+01 0.1057000D+01 0.1057000D+01
EXPONENTS  0.1057000D+01 0.1057000D+01 0.2470000D+00 0.2470000D+00 0.2470000D+00
EXPONENTS  0.2470000D+00 0.2470000D+00 0.2470000D+00 0.3387000D+02 0.5095000D+01
EXPONENTS  0.1159000D+01 0.3258000D+00 0.1027000D+00 0.2526000D-01 0.1407000D+01
EXPONENTS  0.1407000D+01 0.1407000D+01 0.3880000D+00 0.3880000D+00 0.3880000D+00
EXPONENTS  0.1020000D+00 0.1020000D+00 0.1020000D+00 0.1057000D+01 0.1057000D+01
EXPONENTS  0.1057000D+01 0.1057000D+01 0.1057000D+01 0.1057000D+01 0.2470000D+00
EXPONENTS  0.2470000D+00 0.2470000D+00 0.2470000D+00 0.2470000D+00 0.2470000D+00
EXPONENTS  0.4561000D+06 0.6833000D+05 0.1555000D+05 0.4405000D+04 0.1439000D+04
EXPONENTS  0.5204000D+03 0.2031000D+03 0.8396000D+02 0.3620000D+02 0.1583000D+02
EXPONENTS  0.6334000D+01 0.2694000D+01 0.4313000D+00 0.4561000D+06 0.6833000D+05
EXPONENTS  0.1555000D+05 0.4405000D+04 0.1439000D+04 0.5204000D+03 0.2031000D+03
EXPONENTS  0.8396000D+02 0.3620000D+02 0.1583000D+02 0.6334000D+01 0.2694000D+01
EXPONENTS  0.4313000D+00 0.4561000D+06 0.6833000D+05 0.1555000D+05 0.4405000D+04
EXPONENTS  0.1439000D+04 0.5204000D+03 0.2031000D+03 0.8396000D+02 0.3620000D+02
EXPONENTS  0.1583000D+02 0.6334000D+01 0.2694000D+01 0.4313000D+00 0.9768000D+00
EXPONENTS  0.1625000D+00 0.5910000D-01 0.6633000D+03 0.1568000D+03 0.4998000D+02
EXPONENTS  0.1842000D+02 0.7240000D+01 0.2922000D+01 0.3818000D+00 0.6633000D+03
EXPONENTS  0.1568000D+03 0.4998000D+02 0.1842000D+02 0.7240000D+01 0.2922000D+01
EXPONENTS  0.3818000D+00 0.6633000D+03 0.1568000D+03 0.4998000D+02 0.1842000D+02
EXPONENTS  0.7240000D+01 0.2922000D+01 0.3818000D+00 0.6633000D+03 0.1568000D+03
EXPONENTS  0.4998000D+02 0.1842000D+02 0.7240000D+01 0.2922000D+01 0.3818000D+00
EXPONENTS  0.6633000D+03 0.1568000D+03 0.4998000D+02 0.1842000D+02 0.7240000D+01
EXPONENTS  0.2922000D+01 0.3818000D+00 0.6633000D+03 0.1568000D+03 0.4998000D+02
EXPONENTS  0.1842000D+02 0.7240000D+01 0.2922000D+01 0.3818000D+00 0.1022000D+01
EXPONENTS  0.1022000D+01 0.1022000D+01 0.1301000D+00 0.1301000D+00 0.1301000D+00
EXPONENTS  0.4190000D-01 0.4190000D-01 0.4190000D-01 0.1046000D+01 0.1046000D+01
EXPONENTS  0.1046000D+01 0.1046000D+01 0.1046000D+01 0.1046000D+01 0.3440000D+00
EXPONENTS  0.3440000D+00 0.3440000D+00 0.3440000D+00 0.3440000D+00 0.3440000D+00
EXPONENTS  0.1350000D+00 0.1350000D+00 0.1350000D+00 0.1350000D+00 0.1350000D+00
EXPONENTS  0.1350000D+00 0.7060000D+00 0.7060000D+00 0.7060000D+00 0.7060000D+00
EXPONENTS  0.7060000D+00 0.7060000D+00 0.7060000D+00 0.7060000D+00 0.7060000D+00
EXPONENTS  0.7060000D+00 0.3120000D+00 0.3120000D+00 0.3120000D+00 0.3120000D+00
EXPONENTS  0.3120000D+00 0.3120000D+00 0.3120000D+00 0.3120000D+00 0.3120000D+00
EXPONENTS  0.3120000D+00
MO    1     MO 0.0        OCC NO =    2.0000000  ORB. ENERGY = -102.660481
 -0.55784300D-07 -0.10399462D-06 -0.17576923D-06 -0.26423872D-06 -0.32464780D-06
 -0.27421697D-06 -0.10342455D-06  0.51185387D-09  0.83161941D-06  0.15570539D-05
  0.26510175D-05  0.41007210D-05  0.54005053D-05  0.56114710D-05  0.35658379D-05
 -0.23897416D-05 -0.84432058D-04  0.12543027D-02  0.68482016D-04  0.12220516D-04
  0.11457511D-04  0.81584301D-05 -0.11836763D-04 -0.11097718D-04 -0.79022363D-05
  0.73674874D-16  0.69074877D-16  0.49185428D-16 -0.13303455D-03 -0.18690122D-03
 -0.22578994D-15 -0.26014773D-03 -0.63355728D-03  0.11851627D-15 -0.15283774D-04
 -0.13811870D-04  0.91320142D-17 -0.55642675D-04  0.11673168D-03 -0.61089001D-04
  0.35792887D-03 -0.99028828D-16  0.47320862D-16  0.38015334D-04 -0.11818387D-03
  0.80168540D-04 -0.33279652D-03  0.25321816D-15 -0.25850302D-15 -0.70461052D-05
  0.62214242D-04 -0.55168137D-04  0.40784424D-04 -0.14380988D-15 -0.44786487D-16
  0.19525921D-05 -0.41070023D-05  0.58999093D-17  0.58536253D-04  0.13447399D-04
  0.34588489D-16 -0.64394029D-04 -0.11263920D-05 -0.52288217D-16  0.51260948D-16
  0.24708505D-04  0.29548737D-04 -0.12977978D-16  0.10302388D-03 -0.95603100D-04
  0.44356246D-16 -0.17714939D-03  0.69568887D-05 -0.54223121D-17  0.74705926D-16
 -0.81568214D-05 -0.14711163D-04 -0.21691602D-04 -0.37866411D-03  0.24579722D-03
 -0.45150530D-05 -0.23687204D-04 -0.34386291D-04  0.61568283D-04  0.12063829D-03
  0.25323166D-03  0.19806033D-05  0.79731825D-05 -0.55183773D-04  0.14245088D-04
  0.73807116D-04 -0.11955445D-03  0.45747338D-04 -0.63201600D-04 -0.10716050D-03
 -0.99762866D-04  0.67979285D-05 -0.15402865D-04  0.86049363D-05 -0.28788177D-04
  0.24089355D-04  0.12375464D-04 -0.81568214D-05 -0.14711163D-04 -0.21691602D-04
 -0.37866411D-03  0.24579722D-03 -0.45150530D-05 -0.23687204D-04 -0.34386291D-04
 -0.61568283D-04  0.12063829D-03  0.25323166D-03 -0.19806033D-05  0.79731825D-05
 -0.55183773D-04 -0.14245088D-04  0.73807116D-04 -0.11955445D-03  0.45747338D-04
 -0.63201600D-04  0.10716050D-03  0.99762866D-04  0.67979285D-05 -0.15402865D-04
  0.86049363D-05 -0.28788177D-04 -0.24089355D-04 -0.12375464D-04 -0.50160158D-05
 -0.93509939D-05 -0.15804827D-04 -0.23759832D-04 -0.29191699D-04 -0.24657056D-04
 -0.92997345D-05  0.46024905D-07  0.27077756D-05  0.50698104D-05  0.86317859D-05
  0.13352060D-04  0.17584194D-04  0.18271104D-04  0.11610466D-04 -0.77810644D-05
 -0.25571888D-04  0.87201516D-04  0.84406184D-04 -0.40491220D-04 -0.37963093D-04
 -0.27031984D-04  0.64323137D-05  0.60307029D-05  0.42942197D-05 -0.87742438D-16
 -0.82264112D-16 -0.58576949D-16  0.30128135D-03 -0.16619188D-03  0.18101450D-15
 -0.38015115D-04  0.63669748D-04 -0.32147488D-15 -0.86368928D-05  0.10954164D-06
 -0.20486022D-16 -0.81529464D-04  0.44817470D-04  0.36711994D-04  0.14402018D-03
 -0.62720341D-17 -0.27789265D-16 -0.10395111D-03 -0.71681961D-04  0.17563307D-03
 -0.45172657D-03  0.15890801D-15 -0.25705368D-15 -0.25057811D-05 -0.11392478D-04
  0.13898259D-04 -0.18859671D-04 -0.11384801D-15  0.68979534D-16 -0.23384217D-04
  0.41604703D-05  0.14267626D-16  0.20823306D-04  0.15065490D-03 -0.53595167D-16
  0.49329346D-04 -0.16313631D-03  0.10792289D-16 -0.90828950D-16  0.17419712D-04
 -0.14793564D-04  0.33955452D-17 -0.53865568D-04  0.42022752D-04 -0.52990463D-16
  0.16064302D-05  0.23579402D-05  0.42803827D-16 -0.72552100D-16  0.53995063D-05
  0.97382320D-05  0.14359017D-04 -0.34597191D-03 -0.15297355D-04 -0.15824980D-05
 -0.33919975D-04 -0.22126023D-04 -0.53874752D-04  0.11896805D-03 -0.13770465D-03
 -0.15829791D-03 -0.11710378D-04 -0.17796603D-04  0.64062449D-05  0.20662637D-04
  0.82961332D-05 -0.28958770D-04  0.76559155D-04  0.61427546D-04 -0.82808414D-04
  0.49547591D-05 -0.29422173D-05 -0.20125417D-05 -0.55387971D-05  0.93591821D-05
 -0.15879738D-04  0.53995063D-05  0.97382320D-05  0.14359017D-04 -0.34597191D-03
 -0.15297355D-04 -0.15824980D-05 -0.33919975D-04 -0.22126023D-04  0.53874752D-04
  0.11896805D-03 -0.13770465D-03  0.15829791D-03 -0.11710378D-04 -0.17796603D-04
 -0.64062449D-05  0.20662637D-04  0.82961332D-05 -0.28958770D-04  0.76559155D-04
 -0.61427546D-04  0.82808414D-04  0.49547591D-05 -0.29422173D-05 -0.20125417D-05
 -0.55387971D-05 -0.93591821D-05  0.15879738D-04  0.12126220D-04  0.21870137D-04
  0.32247504D-04  0.35747418D-03 -0.71563895D-05  0.16934772D-04 -0.27690559D-04
  0.20304262D-04 -0.67021788D-16  0.27575781D-04 -0.13748540D-03  0.11532303D-15
  0.37145930D-04 -0.13936906D-04 -0.39294500D-17 -0.23443336D-04  0.12508956D-05
  0.22192441D-04 -0.50564380D-04 -0.17186147D-16 -0.75733824D-16 -0.18861717D-04
  0.13222575D-04  0.56391420D-05 -0.18178579D-05  0.21306750D-16 -0.29319833D-16
  0.61732574D+00  0.11550188D+01  0.19956167D+01  0.32351274D+01  0.49127990D+01
  0.68282129D+01  0.81177601D+01  0.72306763D+01  0.35895242D+01  0.57832986D+00
  0.88789039D-02  0.15866514D-02  0.59290688D-04 -0.11910122D-02 -0.22246397D-02
 -0.38609701D-02 -0.62647854D-02 -0.96971437D-02 -0.13880580D-01 -0.18118493D-01
 -0.19308278D-01 -0.14433329D-01 -0.76190982D-03  0.97901630D-02  0.58164816D-02
 -0.21807445D-04  0.49884900D-03  0.93102978D-03  0.16180478D-02  0.26223795D-02
  0.40729659D-02  0.58346412D-02  0.77041001D-02  0.83304175D-02  0.65311553D-02
  0.32498813D-03 -0.55988514D-02 -0.57958491D-02  0.26227037D-02 -0.29462780D-02
 -0.17630289D-02 -0.48987201D-03  0.30491637D-02  0.40164330D-02  0.44310665D-02
  0.36805100D-02  0.19548083D-02  0.50420208D-03 -0.51830260D-06  0.51985165D-02
  0.68476130D-02  0.75545213D-02  0.62748983D-02  0.33327509D-02  0.85961368D-03
 -0.88365364D-06  0.43911347D-15  0.57841098D-15  0.63812282D-15  0.53003435D-15
  0.28151412D-15  0.72610703D-16 -0.74641334D-19 -0.26035386D-02 -0.34182553D-02
 -0.38919351D-02 -0.32955308D-02 -0.18878069D-02 -0.42941058D-03  0.20098779D-03
 -0.43836247D-02 -0.57553779D-02 -0.65529211D-02 -0.55487445D-02 -0.31785345D-02
 -0.72300632D-03  0.33840675D-03 -0.37990958D-15 -0.49879343D-15 -0.56791302D-15
 -0.48088542D-15 -0.27546968D-15 -0.62659796D-16  0.29328233D-16 -0.79442658D-04
 -0.12511058D-03 -0.22843673D-16 -0.37169396D-03 -0.68352163D-03 -0.13244991D-15
 -0.93797668D-05 -0.18771812D-04 -0.19164772D-17 -0.38887192D-04  0.16572279D-03
 -0.12683559D-03  0.31656612D-03  0.19311067D-16  0.75199894D-16  0.10339484D-04
 -0.28342082D-04  0.18002598D-04 -0.42131226D-04 -0.15162639D-16 -0.55603335D-16
  0.14364583D-04 -0.66417774D-04  0.52053191D-04 -0.11920168D-03 -0.12357564D-16
 -0.41993580D-16 -0.31728933D-04  0.40004630D-04 -0.15269016D-16  0.17061082D-03
  0.59752847D-05  0.25527076D-18 -0.75424025D-04 -0.12598917D-03  0.45551778D-16
  0.70610221D-17  0.10287671D-04 -0.16750564D-04  0.11538098D-16 -0.68357586D-04
  0.23360589D-05  0.35019718D-17  0.37494575D-04  0.47915632D-04 -0.38116267D-16
 -0.20460814D-16
MO    2     MO 0.0        OCC NO =    2.0000000  ORB. ENERGY =  -10.602217
  0.32968205D+00  0.61460230D+00  0.10387862D+01  0.15616359D+01  0.19186501D+01
  0.16206067D+01  0.61123323D+00 -0.30250273D-02 -0.26232516D-02 -0.49115547D-02
 -0.83623422D-02 -0.12935272D-01 -0.17035298D-01 -0.17700766D-01 -0.11248042D-01
  0.75381762D-02  0.32692884D-01 -0.38357551D-02 -0.95661080D-03 -0.11662913D-02
 -0.10934722D-02 -0.77861736D-03 -0.28407203D-02 -0.26633559D-02 -0.18964681D-02
 -0.24998659D-14 -0.23437832D-14 -0.16689133D-14  0.57637380D-03  0.33584177D-02
  0.16748436D-13 -0.86835448D-04  0.12164941D-02  0.79040765D-13 -0.21377622D-04
  0.42825884D-04  0.92497418D-15 -0.45737598D-03 -0.38478482D-03  0.84216080D-03
 -0.78002560D-03 -0.63874977D-14 -0.11703712D-14  0.93940269D-05 -0.93257545D-03
  0.92318142D-03 -0.18197565D-02 -0.51176391D-14  0.11654759D-13 -0.41323731D-04
 -0.44995479D-04  0.86319210D-04 -0.22838744D-03 -0.20855064D-13  0.72112174D-14
  0.55020049D-03 -0.49690157D-03  0.71900065D-15  0.39710845D-03 -0.50232957D-03
 -0.23496137D-15 -0.20477099D-02  0.19930343D-02 -0.19220406D-14 -0.10775474D-13
 -0.25710566D-03  0.24793927D-03 -0.83472445D-15  0.47373323D-03  0.28555444D-04
  0.17878154D-14  0.29758374D-03 -0.77237325D-03  0.71635792D-15  0.16259526D-14
  0.86585277D-04  0.15616011D-03  0.23025799D-03 -0.56629082D-03 -0.10408189D-02
 -0.37249748D-04 -0.52080995D-03  0.65367842D-03  0.11640701D-02 -0.60423554D-03
  0.14561241D-02  0.20826410D-02 -0.71053017D-04  0.22365692D-03  0.26134788D-03
  0.10057967D-02  0.38969665D-03 -0.13954933D-02  0.14613908D-02  0.21662012D-02
 -0.32638366D-02  0.15762513D-03 -0.10624682D-04 -0.14700045D-03  0.23663908D-03
  0.22662235D-03 -0.41783132D-03  0.86585277D-04  0.15616011D-03  0.23025799D-03
 -0.56629082D-03 -0.10408189D-02 -0.37249748D-04 -0.52080995D-03  0.65367842D-03
 -0.11640701D-02 -0.60423554D-03  0.14561241D-02 -0.20826410D-02 -0.71053017D-04
  0.22365692D-03 -0.26134788D-03  0.10057967D-02  0.38969665D-03 -0.13954933D-02
  0.14613908D-02 -0.21662012D-02  0.32638366D-02  0.15762513D-03 -0.10624682D-04
 -0.14700045D-03  0.23663908D-03 -0.22662235D-03  0.41783132D-03  0.14570017D-02
  0.27161825D-02  0.45908269D-02  0.69015166D-02  0.84793105D-02  0.71621333D-02
  0.27012932D-02 -0.13368851D-04 -0.21154589D-03 -0.39608066D-03 -0.67436121D-03
 -0.10431342D-02 -0.13737711D-02 -0.14274362D-02 -0.90707161D-03  0.60789830D-03
  0.83684626D-03  0.80109893D-03  0.28776182D-03 -0.51388283D-03 -0.48179782D-03
 -0.34306875D-03 -0.25410695D-04 -0.23824142D-04 -0.16964208D-04 -0.41602771D-15
 -0.39005243D-15 -0.27774056D-15 -0.14761157D-02  0.16255734D-03 -0.29630975D-14
 -0.63803141D-03  0.18707507D-03 -0.34632094D-13 -0.40838357D-04  0.18546293D-04
 -0.74382721D-15  0.81436468D-03 -0.47614825D-03 -0.33821642D-03 -0.14919817D-03
 -0.86527326D-14  0.82711328D-15 -0.13422607D-02  0.71040655D-03  0.63185410D-03
 -0.10242001D-03  0.22089248D-14 -0.75533760D-15  0.18511196D-04  0.80489506D-05
 -0.26560146D-04 -0.42852434D-04 -0.11700484D-13  0.72152587D-14  0.69569506D-03
  0.18115295D-03 -0.10051915D-15 -0.94570425D-03 -0.30695797D-03  0.15138429D-14
 -0.11413809D-02 -0.23650086D-03 -0.12122855D-14  0.68413341D-14  0.28646578D-03
  0.10661929D-03  0.69580423D-15 -0.53400687D-03 -0.14627707D-03 -0.33630443D-14
 -0.32539047D-03 -0.17358079D-03  0.12756317D-14 -0.17777933D-14 -0.28746586D-06
 -0.51845652D-06 -0.76446384D-06 -0.50063442D-05  0.11073347D-03  0.47001183D-04
 -0.22445481D-03  0.10289585D-03  0.65061969D-04  0.11004190D-02  0.44341544D-04
  0.33494443D-03  0.77965375D-04  0.36651812D-04 -0.19492006D-04 -0.59429301D-03
  0.15357657D-03  0.44071644D-03  0.55675922D-03  0.79457756D-03  0.41545886D-03
 -0.16727000D-03  0.87507675D-04  0.79762323D-04  0.37153571D-04  0.85213946D-04
 -0.26502122D-04 -0.28746586D-06 -0.51845652D-06 -0.76446384D-06 -0.50063442D-05
  0.11073347D-03  0.47001183D-04 -0.22445481D-03  0.10289585D-03 -0.65061969D-04
  0.11004190D-02  0.44341544D-04 -0.33494443D-03  0.77965375D-04  0.36651812D-04
  0.19492006D-04 -0.59429301D-03  0.15357657D-03  0.44071644D-03  0.55675922D-03
 -0.79457756D-03 -0.41545886D-03 -0.16727000D-03  0.87507675D-04  0.79762323D-04
  0.37153571D-04 -0.85213946D-04  0.26502122D-04 -0.48876617D-05 -0.88150992D-05
 -0.12997859D-04  0.30855030D-03  0.38130938D-03 -0.20039243D-04 -0.90716548D-04
  0.38963468D-04 -0.46578198D-14  0.11949659D-02 -0.77523531D-03  0.55012668D-14
 -0.17707269D-04 -0.21452880D-04 -0.12381357D-15 -0.76951036D-03  0.75615360D-03
  0.13356752D-04 -0.63378134D-03 -0.16109785D-14 -0.88491624D-15 -0.13876285D-03
  0.81205826D-04  0.57557020D-04 -0.25991845D-04  0.26236415D-14 -0.14502206D-14
 -0.68542712D-04 -0.12824368D-03 -0.22157666D-03 -0.35920161D-03 -0.54547630D-03
 -0.75814792D-03 -0.90132851D-03 -0.80283410D-03 -0.39855089D-03 -0.64212934D-04
 -0.98583958D-06 -0.17616856D-06 -0.65831444D-08  0.13057229D-03  0.24389030D-03
  0.42328344D-03  0.68681700D-03  0.10631111D-02  0.15217470D-02  0.19863552D-02
  0.21167929D-02  0.15823457D-02  0.83529217D-04 -0.10733090D-02 -0.63766885D-03
  0.23907801D-05 -0.90879036D-04 -0.16961263D-03 -0.29477181D-03 -0.47773839D-03
 -0.74200252D-03 -0.10629400D-02 -0.14035133D-02 -0.15176142D-02 -0.11898292D-02
 -0.59205506D-04  0.10199844D-02  0.10558730D-02 -0.47779746D-03 -0.71935557D-03
  0.40412371D-02  0.13153733D-02  0.22221559D-01  0.29270780D-01  0.32292527D-01
  0.26822656D-01  0.14246164D-01  0.36745013D-02 -0.37772624D-05  0.35255535D-01
  0.46439452D-01  0.51233594D-01  0.42555389D-01  0.22602201D-01  0.58297670D-02
 -0.59928022D-05 -0.52251562D-13 -0.68827034D-13 -0.75932342D-13 -0.63070538D-13
 -0.33498295D-13 -0.86401874D-14  0.88818190D-17 -0.19980789D-01 -0.26233311D-01
 -0.29868555D-01 -0.25291465D-01 -0.14487925D-01 -0.32955003D-02  0.15424755D-02
 -0.31873273D-01 -0.41847270D-01 -0.47646196D-01 -0.40344842D-01 -0.23111079D-01
 -0.52569686D-02  0.24605506D-02  0.42704410D-13  0.56067759D-13  0.63837269D-13
  0.54054777D-13  0.30964658D-13  0.70433853D-14 -0.32966920D-14 -0.11557907D-02
 -0.17835392D-02  0.52522540D-14  0.65919093D-03  0.15939671D-02 -0.71895294D-14
  0.24318883D-04  0.52932873D-04  0.32886113D-15  0.35000137D-04 -0.59184230D-04
  0.24184093D-04 -0.95881621D-04  0.40693061D-14  0.12036528D-13 -0.14373416D-03
  0.68586375D-03 -0.54212959D-03  0.13736181D-02 -0.25923020D-14 -0.73816386D-14
 -0.49250566D-04  0.13163055D-03 -0.82379987D-04  0.16512432D-03  0.68548531D-15
 -0.29991662D-14 -0.84938932D-04  0.64435093D-04 -0.23343124D-14  0.41476016D-03
  0.16193996D-03 -0.16955240D-15 -0.15994337D-03 -0.35524524D-03  0.71724896D-14
 -0.13146406D-16 -0.42927579D-04  0.52882463D-04  0.11797093D-14  0.24656631D-03
 -0.26839844D-04  0.86109375D-15 -0.11778357D-03 -0.13180755D-03 -0.44002216D-14
 -0.53027532D-15
MO    3     MO 0.0        OCC NO =    2.0000000  ORB. ENERGY =  -10.545838
 -0.97729554D-03 -0.18219011D-02 -0.30793338D-02 -0.46292474D-02 -0.56875652D-02
 -0.48040581D-02 -0.18119140D-02  0.89672633D-05 -0.19360947D-03 -0.36249802D-03
 -0.61718390D-03 -0.95468965D-03 -0.12572927D-02 -0.13064076D-02 -0.83016340D-03
  0.55635621D-03  0.55460149D-03  0.30558592D-02  0.40970011D-03  0.53581709D-03
  0.50236258D-03  0.35771208D-03  0.23221421D-04  0.21771558D-04  0.15502647D-04
 -0.87226347D-15 -0.81780245D-15 -0.58232406D-15  0.11021291D-02 -0.10041446D-03
  0.35944348D-14  0.18831206D-02 -0.47361278D-03 -0.15455944D-14  0.56915736D-04
 -0.13522807D-04 -0.23115258D-15  0.69197721D-03 -0.45047908D-03 -0.24149813D-03
 -0.16910181D-03  0.52208592D-14 -0.47445913D-15 -0.10498916D-02  0.62818416D-03
  0.42170742D-03  0.10951188D-02 -0.14230882D-13  0.57807798D-14  0.63341606D-04
  0.22933965D-04 -0.86275570D-04 -0.22759221D-03 -0.27314840D-14 -0.15804087D-14
 -0.61323333D-03 -0.59041845D-04  0.19344956D-15  0.58775577D-03 -0.14461916D-03
 -0.24126122D-15  0.12519442D-02  0.32174469D-03 -0.33908745D-15 -0.57354745D-14
 -0.28682779D-03 -0.10750234D-03  0.60821573D-15  0.25491737D-03  0.31753808D-03
 -0.34812922D-14  0.60556601D-03  0.49689504D-05  0.16566450D-14  0.11784939D-14
  0.38067552D-04  0.68656398D-04  0.10123382D-03  0.54426924D-03  0.57228364D-03
  0.48354590D-04  0.23982758D-03 -0.10817196D-03 -0.13463424D-03 -0.12029778D-02
 -0.23150495D-03 -0.34269613D-03  0.25737083D-04 -0.11839209D-03  0.28585783D-04
 -0.71894097D-03  0.25893991D-03  0.46000105D-03  0.51904078D-03  0.89425781D-03
  0.39202057D-03 -0.13348697D-03  0.88803101D-04  0.44683873D-04  0.15823607D-03
 -0.18129147D-05 -0.10825905D-04  0.38067552D-04  0.68656398D-04  0.10123382D-03
  0.54426924D-03  0.57228364D-03  0.48354590D-04  0.23982758D-03 -0.10817196D-03
  0.13463424D-03 -0.12029778D-02 -0.23150495D-03  0.34269613D-03  0.25737083D-04
 -0.11839209D-03 -0.28585783D-04 -0.71894097D-03  0.25893991D-03  0.46000105D-03
  0.51904078D-03 -0.89425781D-03 -0.39202057D-03 -0.13348697D-03  0.88803101D-04
  0.44683873D-04  0.15823607D-03  0.18129147D-05  0.10825905D-04  0.33001496D+00
  0.61522293D+00  0.10398351D+01  0.15632128D+01  0.19205875D+01  0.16222432D+01
  0.61185045D+00 -0.30280820D-02 -0.28915731D-02 -0.54139372D-02 -0.92176913D-02
 -0.14258367D-01 -0.18777768D-01 -0.19511303D-01 -0.12398557D-01  0.83092248D-02
  0.32809853D-01 -0.69774062D-02 -0.51994866D-03 -0.19806864D-03 -0.18570194D-03
 -0.13223085D-03  0.22609002D-03  0.21197376D-03  0.15093795D-03  0.14280582D-13
  0.13388954D-13  0.95337326D-14  0.12368841D-03 -0.49408755D-04 -0.60357595D-13
  0.12681101D-02 -0.46249336D-03 -0.20950999D-13  0.56164899D-04 -0.47293950D-05
 -0.49311401D-15 -0.82528337D-03  0.43490720D-03  0.39037616D-03 -0.66056486D-04
 -0.50497773D-14  0.17244246D-13  0.23898167D-03 -0.15614344D-03 -0.82838225D-04
  0.24947698D-03 -0.34857387D-13  0.38029492D-13 -0.67160689D-04 -0.21931335D-06
  0.67380002D-04  0.90235458D-05 -0.24026575D-14  0.33799613D-14 -0.79798413D-03
  0.83206827D-03 -0.17223727D-14  0.13788009D-02  0.43341533D-03  0.78156438D-14
  0.10151515D-02 -0.29296202D-02 -0.26485255D-14  0.18137832D-13  0.22736986D-03
 -0.26525251D-03 -0.17570715D-15 -0.46892275D-03 -0.30767995D-03  0.23851786D-14
 -0.21318683D-03  0.11034375D-02 -0.18580571D-14  0.82555066D-14  0.78721804D-04
  0.14197802D-03  0.20934650D-03  0.15746223D-02 -0.53831942D-03 -0.35925139D-04
  0.57283325D-03 -0.74205562D-03 -0.11967673D-02 -0.84915298D-05 -0.83457886D-03
 -0.13016176D-02  0.68429112D-04 -0.15750178D-03 -0.14299645D-03  0.10181213D-02
  0.26813423D-03 -0.12862555D-02  0.10813100D-02  0.20155516D-02 -0.31212368D-02
  0.13976985D-03 -0.60231875D-06 -0.13916753D-03  0.14359479D-03  0.19093572D-03
 -0.33755198D-03  0.78721804D-04  0.14197802D-03  0.20934650D-03  0.15746223D-02
 -0.53831942D-03 -0.35925139D-04  0.57283325D-03 -0.74205562D-03  0.11967673D-02
 -0.84915298D-05 -0.83457886D-03  0.13016176D-02  0.68429112D-04 -0.15750178D-03
  0.14299645D-03  0.10181213D-02  0.26813423D-03 -0.12862555D-02  0.10813100D-02
 -0.20155516D-02  0.31212368D-02  0.13976985D-03 -0.60231875D-06 -0.13916753D-03
  0.14359479D-03 -0.19093572D-03  0.33755198D-03  0.65975202D-04  0.11898899D-03
  0.17544920D-03  0.17613048D-02  0.11429555D-02 -0.36512351D-04  0.61407409D-03
  0.12977393D-02  0.21879234D-14  0.37623037D-03  0.14540285D-02 -0.52852323D-14
 -0.81336322D-04 -0.49063810D-05 -0.17140236D-14  0.77657706D-03 -0.19610763D-02
  0.11844993D-02 -0.30006294D-02  0.15962236D-14 -0.12336897D-14  0.12819917D-03
 -0.21429009D-03  0.86090924D-04 -0.43056799D-03  0.56925448D-15  0.19147465D-14
  0.36270963D-04  0.67863110D-04  0.11725242D-03  0.19007985D-03  0.28865141D-03
  0.40119152D-03  0.47695884D-03  0.42483825D-03  0.21090243D-03  0.33979760D-04
  0.52167983D-06  0.93223674D-07  0.34836232D-08 -0.68638039D-04 -0.12820600D-03
 -0.22250773D-03 -0.36103962D-03 -0.55884646D-03 -0.79993793D-03 -0.10441689D-02
 -0.11127362D-02 -0.83179288D-03 -0.43908868D-04  0.56420716D-03  0.33520388D-03
 -0.12567632D-05  0.40978205D-04  0.76479915D-04  0.13291536D-03  0.21541670D-03
  0.33457586D-03  0.47928958D-03  0.63285723D-03  0.68430639D-03  0.53650508D-03
  0.26696315D-04 -0.45992050D-03 -0.47610298D-03  0.21544333D-03  0.91351618D-04
 -0.13928527D-03 -0.99242026D-04 -0.53966533D-02 -0.71086035D-02 -0.78424550D-02