 Molden2AIM, Version 4.0.0 (06/02/2016)           Time: Thu Jun 28 06:01:22 2018
GAUSSIAN             40 MOL ORBITALS    750 PRIMITIVES       10 NUCLEI
  C    1    (CENTRE  1)  -0.00745875  1.34024101  0.35815790  CHARGE =  6.0
  C    2    (CENTRE  2)  -2.48743705 -0.13450126 -0.14047657  CHARGE =  6.0
  F    3    (CENTRE  3)  -2.23643985 -1.67627589 -2.13233294  CHARGE =  9.0
  F    4    (CENTRE  4)  -4.37749010  1.45735112 -0.57217883  CHARGE =  9.0
  F    5    (CENTRE  5)  -3.04775596 -1.53565381  1.89563152  CHARGE =  9.0
  C    6    (CENTRE  6)   2.48978598 -0.14440342 -0.00084471  CHARGE =  6.0
  O    7    (CENTRE  7)  -0.02152587  3.50424010  0.98767481  CHARGE =  8.0
  F    8    (CENTRE  8)   2.27166245 -2.49860155  0.90367081  CHARGE =  9.0
  F    9    (CENTRE  9)   4.37361616  1.01365287  1.18215786  CHARGE =  9.0
  F   10    (CENTRE 10)   3.03533290 -0.27709810 -2.47250443  CHARGE =  9.0
CENTRE ASSIGNMENTS    1  1  1  1  1  1  1  1  1  1  1  1  1  1  1  1  1  1  1  1
CENTRE ASSIGNMENTS    1  1  1  1  1  1  1  1  1  1  1  1  1  1  1  1  1  1  1  1
CENTRE ASSIGNMENTS    1  1  1  1  1  1  1  1  1  1  1  1  1  1  1  1  1  1  1  1
CENTRE ASSIGNMENTS    1  1  1  1  1  1  1  1  1  1  1  1  1  1  1  2  2  2  2  2
CENTRE ASSIGNMENTS    2  2  2  2  2  2  2  2  2  2  2  2  2  2  2  2  2  2  2  2
CENTRE ASSIGNMENTS    2  2  2  2  2  2  2  2  2  2  2  2  2  2  2  2  2  2  2  2
CENTRE ASSIGNMENTS    2  2  2  2  2  2  2  2  2  2  2  2  2  2  2  2  2  2  2  2
CENTRE ASSIGNMENTS    2  2  2  2  2  2  2  2  2  2  3  3  3  3  3  3  3  3  3  3
CENTRE ASSIGNMENTS    3  3  3  3  3  3  3  3  3  3  3  3  3  3  3  3  3  3  3  3
CENTRE ASSIGNMENTS    3  3  3  3  3  3  3  3  3  3  3  3  3  3  3  3  3  3  3  3
CENTRE ASSIGNMENTS    3  3  3  3  3  3  3  3  3  3  3  3  3  3  3  3  3  3  3  3
CENTRE ASSIGNMENTS    3  3  3  3  3  4  4  4  4  4  4  4  4  4  4  4  4  4  4  4
CENTRE ASSIGNMENTS    4  4  4  4  4  4  4  4  4  4  4  4  4  4  4  4  4  4  4  4
CENTRE ASSIGNMENTS    4  4  4  4  4  4  4  4  4  4  4  4  4  4  4  4  4  4  4  4
CENTRE ASSIGNMENTS    4  4  4  4  4  4  4  4  4  4  4  4  4  4  4  4  4  4  4  4
CENTRE ASSIGNMENTS    5  5  5  5  5  5  5  5  5  5  5  5  5  5  5  5  5  5  5  5
CENTRE ASSIGNMENTS    5  5  5  5  5  5  5  5  5  5  5  5  5  5  5  5  5  5  5  5
CENTRE ASSIGNMENTS    5  5  5  5  5  5  5  5  5  5  5  5  5  5  5  5  5  5  5  5
CENTRE ASSIGNMENTS    5  5  5  5  5  5  5  5  5  5  5  5  5  5  5  6  6  6  6  6
CENTRE ASSIGNMENTS    6  6  6  6  6  6  6  6  6  6  6  6  6  6  6  6  6  6  6  6
CENTRE ASSIGNMENTS    6  6  6  6  6  6  6  6  6  6  6  6  6  6  6  6  6  6  6  6
CENTRE ASSIGNMENTS    6  6  6  6  6  6  6  6  6  6  6  6  6  6  6  6  6  6  6  6
CENTRE ASSIGNMENTS    6  6  6  6  6  6  6  6  6  6  7  7  7  7  7  7  7  7  7  7
CENTRE ASSIGNMENTS    7  7  7  7  7  7  7  7  7  7  7  7  7  7  7  7  7  7  7  7
CENTRE ASSIGNMENTS    7  7  7  7  7  7  7  7  7  7  7  7  7  7  7  7  7  7  7  7
CENTRE ASSIGNMENTS    7  7  7  7  7  7  7  7  7  7  7  7  7  7  7  7  7  7  7  7
CENTRE ASSIGNMENTS    7  7  7  7  7  8  8  8  8  8  8  8  8  8  8  8  8  8  8  8
CENTRE ASSIGNMENTS    8  8  8  8  8  8  8  8  8  8  8  8  8  8  8  8  8  8  8  8
CENTRE ASSIGNMENTS    8  8  8  8  8  8  8  8  8  8  8  8  8  8  8  8  8  8  8  8
CENTRE ASSIGNMENTS    8  8  8  8  8  8  8  8  8  8  8  8  8  8  8  8  8  8  8  8
CENTRE ASSIGNMENTS    9  9  9  9  9  9  9  9  9  9  9  9  9  9  9  9  9  9  9  9
CENTRE ASSIGNMENTS    9  9  9  9  9  9  9  9  9  9  9  9  9  9  9  9  9  9  9  9
CENTRE ASSIGNMENTS    9  9  9  9  9  9  9  9  9  9  9  9  9  9  9  9  9  9  9  9
CENTRE ASSIGNMENTS    9  9  9  9  9  9  9  9  9  9  9  9  9  9  9 10 10 10 10 10
CENTRE ASSIGNMENTS   10 10 10 10 10 10 10 10 10 10 10 10 10 10 10 10 10 10 10 10
CENTRE ASSIGNMENTS   10 10 10 10 10 10 10 10 10 10 10 10 10 10 10 10 10 10 10 10
CENTRE ASSIGNMENTS   10 10 10 10 10 10 10 10 10 10 10 10 10 10 10 10 10 10 10 10
CENTRE ASSIGNMENTS   10 10 10 10 10 10 10 10 10 10
TYPE ASSIGNMENTS      1  1  1  1  1  1  1  1  1  1  1  1  1  1  1  1  1  1  1  2
TYPE ASSIGNMENTS      2  2  3  3  3  4  4  4  2  3  4  2  3  4  2  3  4  5  6  7
TYPE ASSIGNMENTS      8  9 10  5  6  7  8  9 10  5  6  7  8  9 10 11 12 13 17 14
TYPE ASSIGNMENTS     15 18 19 16 20 11 12 13 17 14 15 18 19 16 20  1  1  1  1  1
TYPE ASSIGNMENTS      1  1  1  1  1  1  1  1  1  1  1  1  1  1  2  2  2  3  3  3
TYPE ASSIGNMENTS      4  4  4  2  3  4  2  3  4  2  3  4  5  6  7  8  9 10  5  6
TYPE ASSIGNMENTS      7  8  9 10  5  6  7  8  9 10 11 12 13 17 14 15 18 19 16 20
TYPE ASSIGNMENTS     11 12 13 17 14 15 18 19 16 20  1  1  1  1  1  1  1  1  1  1
TYPE ASSIGNMENTS      1  1  1  1  1  1  1  1  1  2  2  2  3  3  3  4  4  4  2  3
TYPE ASSIGNMENTS      4  2  3  4  2  3  4  5  6  7  8  9 10  5  6  7  8  9 10  5
TYPE ASSIGNMENTS      6  7  8  9 10 11 12 13 17 14 15 18 19 16 20 11 12 13 17 14
TYPE ASSIGNMENTS     15 18 19 16 20  1  1  1  1  1  1  1  1  1  1  1  1  1  1  1
TYPE ASSIGNMENTS      1  1  1  1  2  2  2  3  3  3  4  4  4  2  3  4  2  3  4  2
TYPE ASSIGNMENTS      3  4  5  6  7  8  9 10  5  6  7  8  9 10  5  6  7  8  9 10
TYPE ASSIGNMENTS     11 12 13 17 14 15 18 19 16 20 11 12 13 17 14 15 18 19 16 20
TYPE ASSIGNMENTS      1  1  1  1  1  1  1  1  1  1  1  1  1  1  1  1  1  1  1  2
TYPE ASSIGNMENTS      2  2  3  3  3  4  4  4  2  3  4  2  3  4  2  3  4  5  6  7
TYPE ASSIGNMENTS      8  9 10  5  6  7  8  9 10  5  6  7  8  9 10 11 12 13 17 14
TYPE ASSIGNMENTS     15 18 19 16 20 11 12 13 17 14 15 18 19 16 20  1  1  1  1  1
TYPE ASSIGNMENTS      1  1  1  1  1  1  1  1  1  1  1  1  1  1  2  2  2  3  3  3
TYPE ASSIGNMENTS      4  4  4  2  3  4  2  3  4  2  3  4  5  6  7  8  9 10  5  6
TYPE ASSIGNMENTS      7  8  9 10  5  6  7  8  9 10 11 12 13 17 14 15 18 19 16 20
TYPE ASSIGNMENTS     11 12 13 17 14 15 18 19 16 20  1  1  1  1  1  1  1  1  1  1
TYPE ASSIGNMENTS      1  1  1  1  1  1  1  1  1  2  2  2  3  3  3  4  4  4  2  3
TYPE ASSIGNMENTS      4  2  3  4  2  3  4  5  6  7  8  9 10  5  6  7  8  9 10  5
TYPE ASSIGNMENTS      6  7  8  9 10 11 12 13 17 14 15 18 19 16 20 11 12 13 17 14
TYPE ASSIGNMENTS     15 18 19 16 20  1  1  1  1  1  1  1  1  1  1  1  1  1  1  1
TYPE ASSIGNMENTS      1  1  1  1  2  2  2  3  3  3  4  4  4  2  3  4  2  3  4  2
TYPE ASSIGNMENTS      3  4  5  6  7  8  9 10  5  6  7  8  9 10  5  6  7  8  9 10
TYPE ASSIGNMENTS     11 12 13 17 14 15 18 19 16 20 11 12 13 17 14 15 18 19 16 20
TYPE ASSIGNMENTS      1  1  1  1  1  1  1  1  1  1  1  1  1  1  1  1  1  1  1  2
TYPE ASSIGNMENTS      2  2  3  3  3  4  4  4  2  3  4  2  3  4  2  3  4  5  6  7
TYPE ASSIGNMENTS      8  9 10  5  6  7  8  9 10  5  6  7  8  9 10 11 12 13 17 14
TYPE ASSIGNMENTS     15 18 19 16 20 11 12 13 17 14 15 18 19 16 20  1  1  1  1  1
TYPE ASSIGNMENTS      1  1  1  1  1  1  1  1  1  1  1  1  1  1  2  2  2  3  3  3
TYPE ASSIGNMENTS      4  4  4  2  3  4  2  3  4  2  3  4  5  6  7  8  9 10  5  6
TYPE ASSIGNMENTS      7  8  9 10  5  6  7  8  9 10 11 12 13 17 14 15 18 19 16 20
TYPE ASSIGNMENTS     11 12 13 17 14 15 18 19 16 20
EXPONENTS  0.8236000D+04 0.1235000D+04 0.2808000D+03 0.7927000D+02 0.2559000D+02
EXPONENTS  0.8997000D+01 0.3319000D+01 0.3643000D+00 0.8236000D+04 0.1235000D+04
EXPONENTS  0.2808000D+03 0.7927000D+02 0.2559000D+02 0.8997000D+01 0.3319000D+01
EXPONENTS  0.3643000D+00 0.9059000D+00 0.1285000D+00 0.4402000D-01 0.1871000D+02
EXPONENTS  0.4133000D+01 0.1200000D+01 0.1871000D+02 0.4133000D+01 0.1200000D+01
EXPONENTS  0.1871000D+02 0.4133000D+01 0.1200000D+01 0.3827000D+00 0.3827000D+00
EXPONENTS  0.3827000D+00 0.1209000D+00 0.1209000D+00 0.1209000D+00 0.3569000D-01
EXPONENTS  0.3569000D-01 0.3569000D-01 0.1097000D+01 0.1097000D+01 0.1097000D+01
EXPONENTS  0.1097000D+01 0.1097000D+01 0.1097000D+01 0.3180000D+00 0.3180000D+00
EXPONENTS  0.3180000D+00 0.3180000D+00 0.3180000D+00 0.3180000D+00 0.1000000D+00
EXPONENTS  0.1000000D+00 0.1000000D+00 0.1000000D+00 0.1000000D+00 0.1000000D+00
EXPONENTS  0.7610000D+00 0.7610000D+00 0.7610000D+00 0.7610000D+00 0.7610000D+00
EXPONENTS  0.7610000D+00 0.7610000D+00 0.7610000D+00 0.7610000D+00 0.7610000D+00
EXPONENTS  0.2680000D+00 0.2680000D+00 0.2680000D+00 0.2680000D+00 0.2680000D+00
EXPONENTS  0.2680000D+00 0.2680000D+00 0.2680000D+00 0.2680000D+00 0.2680000D+00
EXPONENTS  0.8236000D+04 0.1235000D+04 0.2808000D+03 0.7927000D+02 0.2559000D+02
EXPONENTS  0.8997000D+01 0.3319000D+01 0.3643000D+00 0.8236000D+04 0.1235000D+04
EXPONENTS  0.2808000D+03 0.7927000D+02 0.2559000D+02 0.8997000D+01 0.3319000D+01
EXPONENTS  0.3643000D+00 0.9059000D+00 0.1285000D+00 0.4402000D-01 0.1871000D+02
EXPONENTS  0.4133000D+01 0.1200000D+01 0.1871000D+02 0.4133000D+01 0.1200000D+01
EXPONENTS  0.1871000D+02 0.4133000D+01 0.1200000D+01 0.3827000D+00 0.3827000D+00
EXPONENTS  0.3827000D+00 0.1209000D+00 0.1209000D+00 0.1209000D+00 0.3569000D-01
EXPONENTS  0.3569000D-01 0.3569000D-01 0.1097000D+01 0.1097000D+01 0.1097000D+01
EXPONENTS  0.1097000D+01 0.1097000D+01 0.1097000D+01 0.3180000D+00 0.3180000D+00
EXPONENTS  0.3180000D+00 0.3180000D+00 0.3180000D+00 0.3180000D+00 0.1000000D+00
EXPONENTS  0.1000000D+00 0.1000000D+00 0.1000000D+00 0.1000000D+00 0.1000000D+00
EXPONENTS  0.7610000D+00 0.7610000D+00 0.7610000D+00 0.7610000D+00 0.7610000D+00
EXPONENTS  0.7610000D+00 0.7610000D+00 0.7610000D+00 0.7610000D+00 0.7610000D+00
EXPONENTS  0.2680000D+00 0.2680000D+00 0.2680000D+00 0.2680000D+00 0.2680000D+00
EXPONENTS  0.2680000D+00 0.2680000D+00 0.2680000D+00 0.2680000D+00 0.2680000D+00
EXPONENTS  0.1950000D+05 0.2923000D+04 0.6645000D+03 0.1875000D+03 0.6062000D+02
EXPONENTS  0.2142000D+02 0.7950000D+01 0.8815000D+00 0.1950000D+05 0.2923000D+04
EXPONENTS  0.6645000D+03 0.1875000D+03 0.6062000D+02 0.2142000D+02 0.7950000D+01
EXPONENTS  0.8815000D+00 0.2257000D+01 0.3041000D+00 0.9158000D-01 0.4388000D+02
EXPONENTS  0.9926000D+01 0.2930000D+01 0.4388000D+02 0.9926000D+01 0.2930000D+01
EXPONENTS  0.4388000D+02 0.9926000D+01 0.2930000D+01 0.9132000D+00 0.9132000D+00
EXPONENTS  0.9132000D+00 0.2672000D+00 0.2672000D+00 0.2672000D+00 0.7361000D-01
EXPONENTS  0.7361000D-01 0.7361000D-01 0.3107000D+01 0.3107000D+01 0.3107000D+01
EXPONENTS  0.3107000D+01 0.3107000D+01 0.3107000D+01 0.8550000D+00 0.8550000D+00
EXPONENTS  0.8550000D+00 0.8550000D+00 0.8550000D+00 0.8550000D+00 0.2920000D+00
EXPONENTS  0.2920000D+00 0.2920000D+00 0.2920000D+00 0.2920000D+00 0.2920000D+00
EXPONENTS  0.1917000D+01 0.1917000D+01 0.1917000D+01 0.1917000D+01 0.1917000D+01
EXPONENTS  0.1917000D+01 0.1917000D+01 0.1917000D+01 0.1917000D+01 0.1917000D+01
EXPONENTS  0.7240000D+00 0.7240000D+00 0.7240000D+00 0.7240000D+00 0.7240000D+00
EXPONENTS  0.7240000D+00 0.7240000D+00 0.7240000D+00 0.7240000D+00 0.7240000D+00
EXPONENTS  0.1950000D+05 0.2923000D+04 0.6645000D+03 0.1875000D+03 0.6062000D+02
EXPONENTS  0.2142000D+02 0.7950000D+01 0.8815000D+00 0.1950000D+05 0.2923000D+04
EXPONENTS  0.6645000D+03 0.1875000D+03 0.6062000D+02 0.2142000D+02 0.7950000D+01
EXPONENTS  0.8815000D+00 0.2257000D+01 0.3041000D+00 0.9158000D-01 0.4388000D+02
EXPONENTS  0.9926000D+01 0.2930000D+01 0.4388000D+02 0.9926000D+01 0.2930000D+01
EXPONENTS  0.4388000D+02 0.9926000D+01 0.2930000D+01 0.9132000D+00 0.9132000D+00
EXPONENTS  0.9132000D+00 0.2672000D+00 0.2672000D+00 0.2672000D+00 0.7361000D-01
EXPONENTS  0.7361000D-01 0.7361000D-01 0.3107000D+01 0.3107000D+01 0.3107000D+01
EXPONENTS  0.3107000D+01 0.3107000D+01 0.3107000D+01 0.8550000D+00 0.8550000D+00
EXPONENTS  0.8550000D+00 0.8550000D+00 0.8550000D+00 0.8550000D+00 0.2920000D+00
EXPONENTS  0.2920000D+00 0.2920000D+00 0.2920000D+00 0.2920000D+00 0.2920000D+00
EXPONENTS  0.1917000D+01 0.1917000D+01 0.1917000D+01 0.1917000D+01 0.1917000D+01
EXPONENTS  0.1917000D+01 0.1917000D+01 0.1917000D+01 0.1917000D+01 0.1917000D+01
EXPONENTS  0.7240000D+00 0.7240000D+00 0.7240000D+00 0.7240000D+00 0.7240000D+00
EXPONENTS  0.7240000D+00 0.7240000D+00 0.7240000D+00 0.7240000D+00 0.7240000D+00
EXPONENTS  0.1950000D+05 0.2923000D+04 0.6645000D+03 0.1875000D+03 0.6062000D+02
EXPONENTS  0.2142000D+02 0.7950000D+01 0.8815000D+00 0.1950000D+05 0.2923000D+04
EXPONENTS  0.6645000D+03 0.1875000D+03 0.6062000D+02 0.2142000D+02 0.7950000D+01
EXPONENTS  0.8815000D+00 0.2257000D+01 0.3041000D+00 0.9158000D-01 0.4388000D+02
EXPONENTS  0.9926000D+01 0.2930000D+01 0.4388000D+02 0.9926000D+01 0.2930000D+01
EXPONENTS  0.4388000D+02 0.9926000D+01 0.2930000D+01 0.9132000D+00 0.9132000D+00
EXPONENTS  0.9132000D+00 0.2672000D+00 0.2672000D+00 0.2672000D+00 0.7361000D-01
EXPONENTS  0.7361000D-01 0.7361000D-01 0.3107000D+01 0.3107000D+01 0.3107000D+01
EXPONENTS  0.3107000D+01 0.3107000D+01 0.3107000D+01 0.8550000D+00 0.8550000D+00
EXPONENTS  0.8550000D+00 0.8550000D+00 0.8550000D+00 0.8550000D+00 0.2920000D+00
EXPONENTS  0.2920000D+00 0.2920000D+00 0.2920000D+00 0.2920000D+00 0.2920000D+00
EXPONENTS  0.1917000D+01 0.1917000D+01 0.1917000D+01 0.1917000D+01 0.1917000D+01
EXPONENTS  0.1917000D+01 0.1917000D+01 0.1917000D+01 0.1917000D+01 0.1917000D+01
EXPONENTS  0.7240000D+00 0.7240000D+00 0.7240000D+00 0.7240000D+00 0.7240000D+00
EXPONENTS  0.7240000D+00 0.7240000D+00 0.7240000D+00 0.7240000D+00 0.7240000D+00
EXPONENTS  0.8236000D+04 0.1235000D+04 0.2808000D+03 0.7927000D+02 0.2559000D+02
EXPONENTS  0.8997000D+01 0.3319000D+01 0.3643000D+00 0.8236000D+04 0.1235000D+04
EXPONENTS  0.2808000D+03 0.7927000D+02 0.2559000D+02 0.8997000D+01 0.3319000D+01
EXPONENTS  0.3643000D+00 0.9059000D+00 0.1285000D+00 0.4402000D-01 0.1871000D+02
EXPONENTS  0.4133000D+01 0.1200000D+01 0.1871000D+02 0.4133000D+01 0.1200000D+01
EXPONENTS  0.1871000D+02 0.4133000D+01 0.1200000D+01 0.3827000D+00 0.3827000D+00
EXPONENTS  0.3827000D+00 0.1209000D+00 0.1209000D+00 0.1209000D+00 0.3569000D-01
EXPONENTS  0.3569000D-01 0.3569000D-01 0.1097000D+01 0.1097000D+01 0.1097000D+01
EXPONENTS  0.1097000D+01 0.1097000D+01 0.1097000D+01 0.3180000D+00 0.3180000D+00
EXPONENTS  0.3180000D+00 0.3180000D+00 0.3180000D+00 0.3180000D+00 0.1000000D+00
EXPONENTS  0.1000000D+00 0.1000000D+00 0.1000000D+00 0.1000000D+00 0.1000000D+00
EXPONENTS  0.7610000D+00 0.7610000D+00 0.7610000D+00 0.7610000D+00 0.7610000D+00
EXPONENTS  0.7610000D+00 0.7610000D+00 0.7610000D+00 0.7610000D+00 0.7610000D+00
EXPONENTS  0.2680000D+00 0.2680000D+00 0.2680000D+00 0.2680000D+00 0.2680000D+00
EXPONENTS  0.2680000D+00 0.2680000D+00 0.2680000D+00 0.2680000D+00 0.2680000D+00
EXPONENTS  0.1533000D+05 0.2299000D+04 0.5224000D+03 0.1473000D+03 0.4755000D+02
EXPONENTS  0.1676000D+02 0.6207000D+01 0.6882000D+00 0.1533000D+05 0.2299000D+04
EXPONENTS  0.5224000D+03 0.1473000D+03 0.4755000D+02 0.1676000D+02 0.6207000D+01
EXPONENTS  0.6882000D+00 0.1752000D+01 0.2384000D+00 0.7376000D-01 0.3446000D+02
EXPONENTS  0.7749000D+01 0.2280000D+01 0.3446000D+02 0.7749000D+01 0.2280000D+01
EXPONENTS  0.3446000D+02 0.7749000D+01 0.2280000D+01 0.7156000D+00 0.7156000D+00
EXPONENTS  0.7156000D+00 0.2140000D+00 0.2140000D+00 0.2140000D+00 0.5974000D-01
EXPONENTS  0.5974000D-01 0.5974000D-01 0.2314000D+01 0.2314000D+01 0.2314000D+01
EXPONENTS  0.2314000D+01 0.2314000D+01 0.2314000D+01 0.6450000D+00 0.6450000D+00
EXPONENTS  0.6450000D+00 0.6450000D+00 0.6450000D+00 0.6450000D+00 0.2140000D+00
EXPONENTS  0.2140000D+00 0.2140000D+00 0.2140000D+00 0.2140000D+00 0.2140000D+00
EXPONENTS  0.1428000D+01 0.1428000D+01 0.1428000D+01 0.1428000D+01 0.1428000D+01
EXPONENTS  0.1428000D+01 0.1428000D+01 0.1428000D+01 0.1428000D+01 0.1428000D+01
EXPONENTS  0.5000000D+00 0.5000000D+00 0.5000000D+00 0.5000000D+00 0.5000000D+00
EXPONENTS  0.5000000D+00 0.5000000D+00 0.5000000D+00 0.5000000D+00 0.5000000D+00
EXPONENTS  0.1950000D+05 0.2923000D+04 0.6645000D+03 0.1875000D+03 0.6062000D+02
EXPONENTS  0.2142000D+02 0.7950000D+01 0.8815000D+00 0.1950000D+05 0.2923000D+04
EXPONENTS  0.6645000D+03 0.1875000D+03 0.6062000D+02 0.2142000D+02 0.7950000D+01
EXPONENTS  0.8815000D+00 0.2257000D+01 0.3041000D+00 0.9158000D-01 0.4388000D+02
EXPONENTS  0.9926000D+01 0.2930000D+01 0.4388000D+02 0.9926000D+01 0.2930000D+01
EXPONENTS  0.4388000D+02 0.9926000D+01 0.2930000D+01 0.9132000D+00 0.9132000D+00
EXPONENTS  0.9132000D+00 0.2672000D+00 0.2672000D+00 0.2672000D+00 0.7361000D-01
EXPONENTS  0.7361000D-01 0.7361000D-01 0.3107000D+01 0.3107000D+01 0.3107000D+01
EXPONENTS  0.3107000D+01 0.3107000D+01 0.3107000D+01 0.8550000D+00 0.8550000D+00
EXPONENTS  0.8550000D+00 0.8550000D+00 0.8550000D+00 0.8550000D+00 0.2920000D+00
EXPONENTS  0.2920000D+00 0.2920000D+00 0.2920000D+00 0.2920000D+00 0.2920000D+00
EXPONENTS  0.1917000D+01 0.1917000D+01 0.1917000D+01 0.1917000D+01 0.1917000D+01
EXPONENTS  0.1917000D+01 0.1917000D+01 0.1917000D+01 0.1917000D+01 0.1917000D+01
EXPONENTS  0.7240000D+00 0.7240000D+00 0.7240000D+00 0.7240000D+00 0.7240000D+00
EXPONENTS  0.7240000D+00 0.7240000D+00 0.7240000D+00 0.7240000D+00 0.7240000D+00
EXPONENTS  0.1950000D+05 0.2923000D+04 0.6645000D+03 0.1875000D+03 0.6062000D+02
EXPONENTS  0.2142000D+02 0.7950000D+01 0.8815000D+00 0.1950000D+05 0.2923000D+04
EXPONENTS  0.6645000D+03 0.1875000D+03 0.6062000D+02 0.2142000D+02 0.7950000D+01
EXPONENTS  0.8815000D+00 0.2257000D+01 0.3041000D+00 0.9158000D-01 0.4388000D+02
EXPONENTS  0.9926000D+01 0.2930000D+01 0.4388000D+02 0.9926000D+01 0.2930000D+01
EXPONENTS  0.4388000D+02 0.9926000D+01 0.2930000D+01 0.9132000D+00 0.9132000D+00
EXPONENTS  0.9132000D+00 0.2672000D+00 0.2672000D+00 0.2672000D+00 0.7361000D-01
EXPONENTS  0.7361000D-01 0.7361000D-01 0.3107000D+01 0.3107000D+01 0.3107000D+01
EXPONENTS  0.3107000D+01 0.3107000D+01 0.3107000D+01 0.8550000D+00 0.8550000D+00
EXPONENTS  0.8550000D+00 0.8550000D+00 0.8550000D+00 0.8550000D+00 0.2920000D+00
EXPONENTS  0.2920000D+00 0.2920000D+00 0.2920000D+00 0.2920000D+00 0.2920000D+00
EXPONENTS  0.1917000D+01 0.1917000D+01 0.1917000D+01 0.1917000D+01 0.1917000D+01
EXPONENTS  0.1917000D+01 0.1917000D+01 0.1917000D+01 0.1917000D+01 0.1917000D+01
EXPONENTS  0.7240000D+00 0.7240000D+00 0.7240000D+00 0.7240000D+00 0.7240000D+00
EXPONENTS  0.7240000D+00 0.7240000D+00 0.7240000D+00 0.7240000D+00 0.7240000D+00
EXPONENTS  0.1950000D+05 0.2923000D+04 0.6645000D+03 0.1875000D+03 0.6062000D+02
EXPONENTS  0.2142000D+02 0.7950000D+01 0.8815000D+00 0.1950000D+05 0.2923000D+04
EXPONENTS  0.6645000D+03 0.1875000D+03 0.6062000D+02 0.2142000D+02 0.7950000D+01
EXPONENTS  0.8815000D+00 0.2257000D+01 0.3041000D+00 0.9158000D-01 0.4388000D+02
EXPONENTS  0.9926000D+01 0.2930000D+01 0.4388000D+02 0.9926000D+01 0.2930000D+01
EXPONENTS  0.4388000D+02 0.9926000D+01 0.2930000D+01 0.9132000D+00 0.9132000D+00
EXPONENTS  0.9132000D+00 0.2672000D+00 0.2672000D+00 0.2672000D+00 0.7361000D-01
EXPONENTS  0.7361000D-01 0.7361000D-01 0.3107000D+01 0.3107000D+01 0.3107000D+01
EXPONENTS  0.3107000D+01 0.3107000D+01 0.3107000D+01 0.8550000D+00 0.8550000D+00
EXPONENTS  0.8550000D+00 0.8550000D+00 0.8550000D+00 0.8550000D+00 0.2920000D+00
EXPONENTS  0.2920000D+00 0.2920000D+00 0.2920000D+00 0.2920000D+00 0.2920000D+00
EXPONENTS  0.1917000D+01 0.1917000D+01 0.1917000D+01 0.1917000D+01 0.1917000D+01
EXPONENTS  0.1917000D+01 0.1917000D+01 0.1917000D+01 0.1917000D+01 0.1917000D+01
EXPONENTS  0.7240000D+00 0.7240000D+00 0.7240000D+00 0.7240000D+00 0.7240000D+00
EXPONENTS  0.7240000D+00 0.7240000D+00 0.7240000D+00 0.7240000D+00 0.7240000D+00
MO    1     MO 0.0        OCC NO =    2.0000000  ORB. ENERGY =  -25.322004
  0.19473375D-04  0.36302799D-04  0.61358125D-04  0.92241361D-04  0.11332917D-03
  0.95724600D-04  0.36103797D-04 -0.17867971D-06 -0.13046436D-04 -0.24427044D-04
 -0.41589133D-04 -0.64332064D-04 -0.84723066D-04 -0.88032692D-04 -0.55940824D-04
  0.37490239D-04  0.10379638D-04 -0.39416294D-03 -0.25138510D-03  0.96964991D-05
  0.90910842D-05  0.64733936D-05  0.39080061D-04  0.36640041D-04  0.26089892D-04
 -0.89076129D-05 -0.83514533D-05 -0.59467323D-05  0.34697766D-04 -0.55892621D-04
  0.24733778D-04 -0.61900154D-03 -0.17814680D-03 -0.75428554D-05 -0.66073988D-05
 -0.43765920D-05  0.92409081D-06 -0.48002041D-04  0.19583945D-04  0.28418097D-04
  0.74830929D-04 -0.15156403D-04  0.91555201D-06  0.68070871D-04 -0.26817387D-04
 -0.41253484D-04 -0.25648933D-03  0.53775959D-04 -0.98101963D-04 -0.39087604D-04
  0.35505463D-04  0.35821414D-05  0.65632580D-04  0.49080698D-05 -0.65392595D-05
  0.20042002D-04 -0.20757058D-04  0.12487732D-04 -0.44237386D-04  0.92914351D-04
  0.45383109D-05 -0.15888620D-04 -0.30643176D-04 -0.42001508D-04 -0.20542925D-04
 -0.53937707D-04  0.38915927D-04  0.64138022D-05  0.13543079D-03 -0.12597466D-03
  0.14205706D-04  0.26382334D-04  0.92268780D-05 -0.33447113D-04  0.48633595D-04
 -0.38251492D-04 -0.71309478D-04 -0.12052558D-03 -0.18118943D-03 -0.22261215D-03
 -0.18803154D-03 -0.70918580D-04  0.35098001D-06  0.28344071D-04  0.53069045D-04
  0.90354589D-04  0.13976481D-03  0.18406534D-03  0.19125568D-03  0.12153440D-03
 -0.81449527D-04 -0.40680713D-04 -0.78691921D-03 -0.28031706D-04 -0.67691398D-04
 -0.63464988D-04 -0.45190852D-04  0.15190144D-04  0.14241726D-04  0.10140957D-04
 -0.11054519D-04 -0.10364314D-04 -0.73800091D-05  0.12117536D-03 -0.14559798D-03
  0.29045960D-04 -0.26545215D-03  0.64784812D-04 -0.87441083D-04 -0.45463049D-05
  0.47412271D-05 -0.20429744D-05 -0.70860612D-04  0.19356069D-04  0.51504543D-04
  0.15600095D-03 -0.50803653D-04  0.44849287D-04  0.14509548D-03 -0.88411568D-04
 -0.56683914D-04 -0.15468130D-03  0.41060665D-04 -0.11576887D-03 -0.41489685D-05
  0.12162255D-04 -0.80132864D-05 -0.22781420D-04 -0.34586572D-05  0.41132406D-05
  0.10026728D-04 -0.12298517D-05 -0.19654201D-05 -0.77477569D-05 -0.45017386D-04
 -0.10624667D-04 -0.22332429D-04  0.48706941D-04  0.16520927D-04 -0.49838575D-04
  0.91909951D-05 -0.90428804D-05 -0.32353688D-05 -0.65367109D-04  0.37161805D-04
  0.73203849D-05  0.37794124D-04 -0.10033164D-04  0.23857216D-05 -0.55591788D-04
 -0.55226787D-02 -0.10294512D-01 -0.17451729D-01 -0.26427062D-01 -0.33047133D-01
 -0.28450503D-01 -0.10937412D-01  0.47393597D-04  0.19587701D-04  0.36782233D-04
  0.62633799D-04  0.98115475D-04  0.13148628D-03  0.14143122D-03  0.84915120D-04
 -0.55843756D-04 -0.54538022D-03  0.19972841D-03  0.38774931D-04  0.10793213D-04
  0.10555527D-04  0.69744827D-05 -0.85052908D-04 -0.83179886D-04 -0.54960468D-04
 -0.69949516D-04 -0.68409099D-04 -0.45200784D-04 -0.12318344D-04  0.54116221D-04
  0.22507811D-04  0.10751669D-04  0.26977040D-04  0.12686907D-03 -0.20083970D-05
  0.19965682D-05  0.77444542D-05 -0.44273256D-04  0.26037714D-04  0.18235542D-04
  0.84252564D-05  0.43765670D-04 -0.45961459D-05  0.12269846D-04 -0.71654483D-05
 -0.51043980D-05 -0.45729952D-05 -0.38169169D-04  0.28042858D-04 -0.20365992D-04
 -0.10790687D-04  0.31156679D-04 -0.34184106D-04  0.31117951D-04  0.85179563D-05
  0.19424036D-04 -0.21737256D-04 -0.15636533D-04  0.70024854D-04  0.22388324D-04
 -0.33235088D-04 -0.12829696D-03  0.42823444D-04  0.80144688D-04  0.10860816D-03
 -0.30140020D-05  0.68964703D-05  0.71629044D-05 -0.30047318D-04 -0.11126907D-04
  0.54986486D-05  0.39089324D-04 -0.95625038D-05 -0.26987362D-04 -0.52722356D-04
 -0.75147895D-04 -0.14007893D-03 -0.23746823D-03 -0.35959688D-03 -0.44967716D-03
 -0.38713015D-03 -0.14882696D-03  0.64489159D-06  0.17093332D-04  0.32098250D-04
  0.54657784D-04  0.85621094D-04  0.11474234D-03  0.12342086D-03  0.74101720D-04
 -0.48732409D-04 -0.24105850D-05 -0.18431572D-03 -0.52185313D-04  0.46508195D-04
  0.45483999D-04  0.30053201D-04 -0.27969573D-04 -0.27353632D-04 -0.18073701D-04
  0.22153980D-04  0.21666109D-04  0.14315714D-04 -0.80139546D-04  0.57056538D-04
 -0.26802593D-04  0.40449257D-04 -0.79443717D-05 -0.48417489D-04  0.65670426D-05
  0.19886051D-05 -0.23922384D-05 -0.46726317D-04  0.19155996D-04  0.27570321D-04
  0.10542456D-03 -0.17847216D-04 -0.52065107D-05  0.20537630D-04 -0.11450699D-04
 -0.90869320D-05 -0.35949355D-04  0.32097980D-05  0.63927925D-05  0.21226030D-04
 -0.12374178D-05 -0.19988612D-04 -0.35252554D-04 -0.49413354D-05  0.99310566D-05
 -0.24537807D-04 -0.21048332D-04  0.12012889D-04 -0.70792808D-05  0.56650955D-04
 -0.61131305D-04  0.80692702D-04  0.64940415D-05  0.25092637D-04 -0.59183058D-05
  0.97295678D-05  0.14816378D-04 -0.89125348D-05  0.19381165D-04 -0.58407181D-04
  0.31831684D-04 -0.48569869D-04  0.13958046D-04 -0.50940798D-05 -0.21092328D-04
 -0.26370055D-03 -0.49154925D-03 -0.83329683D-03 -0.12618570D-02 -0.15779566D-02
 -0.13584736D-02 -0.52224686D-03  0.22629811D-05  0.20812830D-04  0.39082809D-04
  0.66551283D-04  0.10425219D-03  0.13971020D-03  0.15027716D-03  0.90226208D-04
 -0.59336550D-04 -0.95118731D-05  0.17701426D-03  0.82179687D-04  0.21788591D-04
  0.21308766D-04  0.14079603D-04 -0.41180314D-04 -0.40273448D-04 -0.26610370D-04
  0.11032091D-04  0.10789144D-04  0.71288433D-05 -0.26231678D-04  0.41642819D-04
 -0.13961331D-04 -0.14209687D-04  0.32017237D-04 -0.40336311D-04  0.15231036D-05
  0.75238091D-05 -0.11008684D-05 -0.10341336D-04 -0.54448657D-05  0.15786201D-04
  0.53781651D-04 -0.59883305D-04 -0.28295040D-04 -0.71846912D-05  0.83915354D-05
 -0.12068442D-05 -0.18509250D-04  0.34079264D-04 -0.47204373D-05 -0.65825532D-05
  0.86225901D-05 -0.20400370D-05 -0.31865877D-04  0.68591886D-05 -0.38172532D-05
 -0.14604382D-05 -0.42770609D-04 -0.44339379D-06 -0.17117223D-05  0.82817547D-04
 -0.10773019D-04  0.60930370D-05  0.45494281D-04  0.12103200D-04 -0.17189710D-03
  0.30738083D-05  0.19580545D-04 -0.11767680D-05  0.34073274D-06 -0.43515377D-04
  0.13241395D-04 -0.95621576D-05 -0.15226257D-04 -0.97110907D-05  0.69868164D-04
  0.17641367D-03  0.32887520D-03  0.55585702D-03  0.83563518D-03  0.10266744D-02
  0.86719063D-03  0.32707240D-03 -0.16186996D-05 -0.12569748D-03 -0.23534535D-03
 -0.40069560D-03 -0.61981516D-03 -0.81627476D-03 -0.84816177D-03 -0.53896873D-03
  0.36120431D-03 -0.40299828D-03  0.21561808D-02  0.36002106D-03 -0.36544134D-05
 -0.34262448D-05 -0.24396904D-05  0.46183330D-03  0.43299807D-03  0.30832042D-03
 -0.17556729D-03 -0.16460550D-03 -0.11720892D-03 -0.15238802D-04 -0.17812983D-02
  0.66862985D-03 -0.29104359D-03  0.18901391D-03  0.14034317D-03 -0.17238376D-04
  0.15290132D-04 -0.78343999D-07 -0.45961498D-03  0.78572521D-03 -0.32611023D-03
  0.20733459D-03 -0.80357085D-04 -0.99883658D-03 -0.39145772D-03  0.52164895D-03
 -0.13019123D-03  0.11352814D-03 -0.20820724D-04 -0.59765168D-03 -0.83216611D-05
  0.66385667D-05  0.16830944D-05 -0.44120499D-04  0.51148316D-05  0.14632897D-04
  0.62006415D-04 -0.23557957D-03 -0.13824853D-03 -0.19064561D-03  0.54080987D-03
 -0.23489752D-03  0.46263694D-05  0.16592885D-03  0.64964311D-03  0.89207143D-04
  0.47275835D-07  0.24578001D-05 -0.33643699D-04 -0.56557313D-04 -0.21383180D-04
 -0.16077663D-04  0.56415486D-04  0.14009779D-04  0.11700876D-03  0.90128220D-04
 -0.18255365D-04 -0.34025652D-04 -0.57696232D-04 -0.87325935D-04 -0.10895727D-03
 -0.93579764D-04 -0.35927091D-04  0.16070408D-06  0.12495073D-04  0.23434818D-04
  0.39951228D-04  0.62435993D-04  0.83488819D-04  0.89146594D-04  0.54502480D-04
 -0.35957426D-04 -0.70522958D-05  0.15978145D-03  0.53871429D-05  0.24542811D-04
  0.23798271D-04  0.16054173D-04  0.56036876D-04  0.54336920D-04  0.36655365D-04
 -0.51146798D-04 -0.49595189D-04 -0.33456622D-04 -0.39241915D-04 -0.99280020D-04
  0.45736880D-04 -0.26286404D-04 -0.65197414D-04  0.54518765D-04 -0.15927516D-04
  0.39092709D-05  0.74196522D-05 -0.80869006D-04  0.22895722D-04  0.57973284D-04
  0.17254362D-04  0.87063082D-04  0.86645769D-04  0.31276185D-04  0.23935404D-04
 -0.55211589D-04 -0.30212585D-04 -0.45681643D-04 -0.46330866D-04  0.19234611D-04
 -0.98588249D-05 -0.93757859D-05  0.67869566D-05  0.29516537D-05 -0.13888689D-04
 -0.46273753D-05 -0.29969177D-04 -0.18861041D-04  0.57729319D-04  0.55687067D-04
  0.46241496D-04 -0.43847193D-04  0.34220465D-04  0.10341628D-04  0.32788352D-04
 -0.42520192D-05  0.11580870D-04  0.56202069D-05  0.41681123D-05 -0.33453026D-04
 -0.29825282D-04  0.85879453D-05 -0.12895856D-05  0.12964661D-04  0.31171903D-04
  0.59523712D+00  0.11095478D+01  0.18809563D+01  0.28483222D+01  0.35618369D+01
  0.30664097D+01  0.11788399D+01 -0.51081061D-02  0.26518920D-03  0.49797834D-03
  0.84797124D-03  0.13283419D-02  0.17801345D-02  0.19147746D-02  0.11496282D-02
 -0.75604385D-03  0.60303991D-01 -0.93544967D-03 -0.73845050D-03  0.47929253D-03
  0.46873763D-03  0.30971477D-03  0.77280903D-02  0.75579035D-02  0.49938264D-02
 -0.29283652D-02 -0.28638773D-02 -0.18922848D-02 -0.74247968D-04 -0.14761785D-02
  0.57468183D-03 -0.56620866D-04 -0.12763486D-02  0.39278122D-03 -0.68362000D-06
 -0.78363771D-04  0.31106094D-04 -0.99686315D-03  0.17400364D-02 -0.74317326D-03
  0.56592457D-03 -0.17632755D-03 -0.21783699D-02  0.49472551D-03 -0.85282156D-03
  0.35809605D-03 -0.27228510D-03  0.84414628D-04  0.10617468D-02  0.13758600D-03
 -0.24196857D-03  0.10438257D-03 -0.40223694D-04  0.33444437D-05  0.25882248D-03
 -0.28334636D-04  0.24245788D-03  0.17583327D-03  0.18967493D-03 -0.51009587D-03
  0.19933222D-03 -0.10467102D-03 -0.21727778D-03 -0.72683202D-03 -0.83116192D-04
  0.44776394D-04 -0.22025716D-03 -0.15362484D-03 -0.17458174D-03  0.46179868D-03
 -0.18290246D-03  0.40252554D-04  0.19897280D-03  0.64377698D-03  0.11898092D-03
 -0.17728702D-02 -0.33047069D-02 -0.56022906D-02 -0.84835190D-02 -0.10608670D-01
 -0.91330770D-02 -0.35110882D-02  0.15214120D-04 -0.15326329D-04 -0.28780131D-04
 -0.49007599D-04 -0.76770114D-04 -0.10288098D-03 -0.11066237D-03 -0.66441542D-04
  0.43694753D-04 -0.20009711D-03 -0.10548300D-03  0.30871034D-04  0.33231499D-04
  0.32499680D-04  0.21473913D-04  0.74689271D-04  0.73044476D-04  0.48263574D-04
  0.28998469D-04  0.28359870D-04  0.18738565D-04  0.60843055D-05 -0.37758191D-04
 -0.38188384D-05  0.29939383D-04 -0.12331450D-03 -0.10619417D-03 -0.86389178D-05
 -0.13444473D-04 -0.76639980D-05 -0.33323328D-06  0.16749357D-03 -0.16716033D-03
  0.38176421D-04 -0.12093929D-03 -0.14634100D-03 -0.25200790D-04 -0.41465006D-04
  0.66665796D-04 -0.92316753D-06  0.20911981D-04  0.51363428D-04 -0.33096847D-05
  0.27407883D-05  0.56889638D-06  0.70099959D-04  0.32196689D-04  0.71316342D-04
  0.10292322D-03 -0.16613126D-03 -0.10180541D-04 -0.42016531D-03  0.14067855D-03