 Molden2AIM, Version 4.0.0 (06/02/2016)           Time: Thu Jun 28 02:33:22 2018
GAUSSIAN             11 MOL ORBITALS    333 PRIMITIVES        7 NUCLEI
  H    1    (CENTRE  1)   1.73563219  0.00000000  2.76249236  CHARGE =  1.0
  H    2    (CENTRE  2)  -1.73563219  0.00000000  2.76249236  CHARGE =  1.0
  H    3    (CENTRE  3)   0.00000000 -2.99826215 -1.97266242  CHARGE =  1.0
  H    4    (CENTRE  4)   0.00000000  2.99826215 -1.97266242  CHARGE =  1.0
  C    5    (CENTRE  5)   0.00000000  0.00000000  1.62719025  CHARGE =  6.0
  C    6    (CENTRE  6)   0.00000000 -1.22699161 -0.94378403  CHARGE =  6.0
  C    7    (CENTRE  7)   0.00000000  1.22699161 -0.94378403  CHARGE =  6.0
CENTRE ASSIGNMENTS    1  1  1  1  1  1  1  1  1  1  1  1  1  1  1  1  1  1  1  1
CENTRE ASSIGNMENTS    1  1  1  1  1  1  1  2  2  2  2  2  2  2  2  2  2  2  2  2
CENTRE ASSIGNMENTS    2  2  2  2  2  2  2  2  2  2  2  2  2  2  3  3  3  3  3  3
CENTRE ASSIGNMENTS    3  3  3  3  3  3  3  3  3  3  3  3  3  3  3  3  3  3  3  3
CENTRE ASSIGNMENTS    3  4  4  4  4  4  4  4  4  4  4  4  4  4  4  4  4  4  4  4
CENTRE ASSIGNMENTS    4  4  4  4  4  4  4  4  5  5  5  5  5  5  5  5  5  5  5  5
CENTRE ASSIGNMENTS    5  5  5  5  5  5  5  5  5  5  5  5  5  5  5  5  5  5  5  5
CENTRE ASSIGNMENTS    5  5  5  5  5  5  5  5  5  5  5  5  5  5  5  5  5  5  5  5
CENTRE ASSIGNMENTS    5  5  5  5  5  5  5  5  5  5  5  5  5  5  5  5  5  5  5  5
CENTRE ASSIGNMENTS    5  5  5  6  6  6  6  6  6  6  6  6  6  6  6  6  6  6  6  6
CENTRE ASSIGNMENTS    6  6  6  6  6  6  6  6  6  6  6  6  6  6  6  6  6  6  6  6
CENTRE ASSIGNMENTS    6  6  6  6  6  6  6  6  6  6  6  6  6  6  6  6  6  6  6  6
CENTRE ASSIGNMENTS    6  6  6  6  6  6  6  6  6  6  6  6  6  6  6  6  6  6  7  7
CENTRE ASSIGNMENTS    7  7  7  7  7  7  7  7  7  7  7  7  7  7  7  7  7  7  7  7
CENTRE ASSIGNMENTS    7  7  7  7  7  7  7  7  7  7  7  7  7  7  7  7  7  7  7  7
CENTRE ASSIGNMENTS    7  7  7  7  7  7  7  7  7  7  7  7  7  7  7  7  7  7  7  7
CENTRE ASSIGNMENTS    7  7  7  7  7  7  7  7  7  7  7  7  7
TYPE ASSIGNMENTS      1  1  1  1  1  1  2  3  4  2  3  4  2  3  4  5  6  7  8  9
TYPE ASSIGNMENTS     10  5  6  7  8  9 10  1  1  1  1  1  1  2  3  4  2  3  4  2
TYPE ASSIGNMENTS      3  4  5  6  7  8  9 10  5  6  7  8  9 10  1  1  1  1  1  1
TYPE ASSIGNMENTS      2  3  4  2  3  4  2  3  4  5  6  7  8  9 10  5  6  7  8  9
TYPE ASSIGNMENTS     10  1  1  1  1  1  1  2  3  4  2  3  4  2  3  4  5  6  7  8
TYPE ASSIGNMENTS      9 10  5  6  7  8  9 10  1  1  1  1  1  1  1  1  1  1  1  1
TYPE ASSIGNMENTS      1  1  1  1  1  1  1  2  2  2  3  3  3  4  4  4  2  3  4  2
TYPE ASSIGNMENTS      3  4  2  3  4  5  6  7  8  9 10  5  6  7  8  9 10  5  6  7
TYPE ASSIGNMENTS      8  9 10 11 12 13 17 14 15 18 19 16 20 11 12 13 17 14 15 18
TYPE ASSIGNMENTS     19 16 20  1  1  1  1  1  1  1  1  1  1  1  1  1  1  1  1  1
TYPE ASSIGNMENTS      1  1  2  2  2  3  3  3  4  4  4  2  3  4  2  3  4  2  3  4
TYPE ASSIGNMENTS      5  6  7  8  9 10  5  6  7  8  9 10  5  6  7  8  9 10 11 12
TYPE ASSIGNMENTS     13 17 14 15 18 19 16 20 11 12 13 17 14 15 18 19 16 20  1  1
TYPE ASSIGNMENTS      1  1  1  1  1  1  1  1  1  1  1  1  1  1  1  1  1  2  2  2
TYPE ASSIGNMENTS      3  3  3  4  4  4  2  3  4  2  3  4  2  3  4  5  6  7  8  9
TYPE ASSIGNMENTS     10  5  6  7  8  9 10  5  6  7  8  9 10 11 12 13 17 14 15 18
TYPE ASSIGNMENTS     19 16 20 11 12 13 17 14 15 18 19 16 20
EXPONENTS  0.3387000D+02 0.5095000D+01 0.1159000D+01 0.3258000D+00 0.1027000D+00
EXPONENTS  0.2526000D-01 0.1407000D+01 0.1407000D+01 0.1407000D+01 0.3880000D+00
EXPONENTS  0.3880000D+00 0.3880000D+00 0.1020000D+00 0.1020000D+00 0.1020000D+00
EXPONENTS  0.1057000D+01 0.1057000D+01 0.1057000D+01 0.1057000D+01 0.1057000D+01
EXPONENTS  0.1057000D+01 0.2470000D+00 0.2470000D+00 0.2470000D+00 0.2470000D+00
EXPONENTS  0.2470000D+00 0.2470000D+00 0.3387000D+02 0.5095000D+01 0.1159000D+01
EXPONENTS  0.3258000D+00 0.1027000D+00 0.2526000D-01 0.1407000D+01 0.1407000D+01
EXPONENTS  0.1407000D+01 0.3880000D+00 0.3880000D+00 0.3880000D+00 0.1020000D+00
EXPONENTS  0.1020000D+00 0.1020000D+00 0.1057000D+01 0.1057000D+01 0.1057000D+01
EXPONENTS  0.1057000D+01 0.1057000D+01 0.1057000D+01 0.2470000D+00 0.2470000D+00
EXPONENTS  0.2470000D+00 0.2470000D+00 0.2470000D+00 0.2470000D+00 0.3387000D+02
EXPONENTS  0.5095000D+01 0.1159000D+01 0.3258000D+00 0.1027000D+00 0.2526000D-01
EXPONENTS  0.1407000D+01 0.1407000D+01 0.1407000D+01 0.3880000D+00 0.3880000D+00
EXPONENTS  0.3880000D+00 0.1020000D+00 0.1020000D+00 0.1020000D+00 0.1057000D+01
EXPONENTS  0.1057000D+01 0.1057000D+01 0.1057000D+01 0.1057000D+01 0.1057000D+01
EXPONENTS  0.2470000D+00 0.2470000D+00 0.2470000D+00 0.2470000D+00 0.2470000D+00
EXPONENTS  0.2470000D+00 0.3387000D+02 0.5095000D+01 0.1159000D+01 0.3258000D+00
EXPONENTS  0.1027000D+00 0.2526000D-01 0.1407000D+01 0.1407000D+01 0.1407000D+01
EXPONENTS  0.3880000D+00 0.3880000D+00 0.3880000D+00 0.1020000D+00 0.1020000D+00
EXPONENTS  0.1020000D+00 0.1057000D+01 0.1057000D+01 0.1057000D+01 0.1057000D+01
EXPONENTS  0.1057000D+01 0.1057000D+01 0.2470000D+00 0.2470000D+00 0.2470000D+00
EXPONENTS  0.2470000D+00 0.2470000D+00 0.2470000D+00 0.8236000D+04 0.1235000D+04
EXPONENTS  0.2808000D+03 0.7927000D+02 0.2559000D+02 0.8997000D+01 0.3319000D+01
EXPONENTS  0.3643000D+00 0.8236000D+04 0.1235000D+04 0.2808000D+03 0.7927000D+02
EXPONENTS  0.2559000D+02 0.8997000D+01 0.3319000D+01 0.3643000D+00 0.9059000D+00
EXPONENTS  0.1285000D+00 0.4402000D-01 0.1871000D+02 0.4133000D+01 0.1200000D+01
EXPONENTS  0.1871000D+02 0.4133000D+01 0.1200000D+01 0.1871000D+02 0.4133000D+01
EXPONENTS  0.1200000D+01 0.3827000D+00 0.3827000D+00 0.3827000D+00 0.1209000D+00
EXPONENTS  0.1209000D+00 0.1209000D+00 0.3569000D-01 0.3569000D-01 0.3569000D-01
EXPONENTS  0.1097000D+01 0.1097000D+01 0.1097000D+01 0.1097000D+01 0.1097000D+01
EXPONENTS  0.1097000D+01 0.3180000D+00 0.3180000D+00 0.3180000D+00 0.3180000D+00
EXPONENTS  0.3180000D+00 0.3180000D+00 0.1000000D+00 0.1000000D+00 0.1000000D+00
EXPONENTS  0.1000000D+00 0.1000000D+00 0.1000000D+00 0.7610000D+00 0.7610000D+00
EXPONENTS  0.7610000D+00 0.7610000D+00 0.7610000D+00 0.7610000D+00 0.7610000D+00
EXPONENTS  0.7610000D+00 0.7610000D+00 0.7610000D+00 0.2680000D+00 0.2680000D+00
EXPONENTS  0.2680000D+00 0.2680000D+00 0.2680000D+00 0.2680000D+00 0.2680000D+00
EXPONENTS  0.2680000D+00 0.2680000D+00 0.2680000D+00 0.8236000D+04 0.1235000D+04
EXPONENTS  0.2808000D+03 0.7927000D+02 0.2559000D+02 0.8997000D+01 0.3319000D+01
EXPONENTS  0.3643000D+00 0.8236000D+04 0.1235000D+04 0.2808000D+03 0.7927000D+02
EXPONENTS  0.2559000D+02 0.8997000D+01 0.3319000D+01 0.3643000D+00 0.9059000D+00
EXPONENTS  0.1285000D+00 0.4402000D-01 0.1871000D+02 0.4133000D+01 0.1200000D+01
EXPONENTS  0.1871000D+02 0.4133000D+01 0.1200000D+01 0.1871000D+02 0.4133000D+01
EXPONENTS  0.1200000D+01 0.3827000D+00 0.3827000D+00 0.3827000D+00 0.1209000D+00
EXPONENTS  0.1209000D+00 0.1209000D+00 0.3569000D-01 0.3569000D-01 0.3569000D-01
EXPONENTS  0.1097000D+01 0.1097000D+01 0.1097000D+01 0.1097000D+01 0.1097000D+01
EXPONENTS  0.1097000D+01 0.3180000D+00 0.3180000D+00 0.3180000D+00 0.3180000D+00
EXPONENTS  0.3180000D+00 0.3180000D+00 0.1000000D+00 0.1000000D+00 0.1000000D+00
EXPONENTS  0.1000000D+00 0.1000000D+00 0.1000000D+00 0.7610000D+00 0.7610000D+00
EXPONENTS  0.7610000D+00 0.7610000D+00 0.7610000D+00 0.7610000D+00 0.7610000D+00
EXPONENTS  0.7610000D+00 0.7610000D+00 0.7610000D+00 0.2680000D+00 0.2680000D+00
EXPONENTS  0.2680000D+00 0.2680000D+00 0.2680000D+00 0.2680000D+00 0.2680000D+00
EXPONENTS  0.2680000D+00 0.2680000D+00 0.2680000D+00 0.8236000D+04 0.1235000D+04
EXPONENTS  0.2808000D+03 0.7927000D+02 0.2559000D+02 0.8997000D+01 0.3319000D+01
EXPONENTS  0.3643000D+00 0.8236000D+04 0.1235000D+04 0.2808000D+03 0.7927000D+02
EXPONENTS  0.2559000D+02 0.8997000D+01 0.3319000D+01 0.3643000D+00 0.9059000D+00
EXPONENTS  0.1285000D+00 0.4402000D-01 0.1871000D+02 0.4133000D+01 0.1200000D+01
EXPONENTS  0.1871000D+02 0.4133000D+01 0.1200000D+01 0.1871000D+02 0.4133000D+01
EXPONENTS  0.1200000D+01 0.3827000D+00 0.3827000D+00 0.3827000D+00 0.1209000D+00
EXPONENTS  0.1209000D+00 0.1209000D+00 0.3569000D-01 0.3569000D-01 0.3569000D-01
EXPONENTS  0.1097000D+01 0.1097000D+01 0.1097000D+01 0.1097000D+01 0.1097000D+01
EXPONENTS  0.1097000D+01 0.3180000D+00 0.3180000D+00 0.3180000D+00 0.3180000D+00
EXPONENTS  0.3180000D+00 0.3180000D+00 0.1000000D+00 0.1000000D+00 0.1000000D+00
EXPONENTS  0.1000000D+00 0.1000000D+00 0.1000000D+00 0.7610000D+00 0.7610000D+00
EXPONENTS  0.7610000D+00 0.7610000D+00 0.7610000D+00 0.7610000D+00 0.7610000D+00
EXPONENTS  0.7610000D+00 0.7610000D+00 0.7610000D+00 0.2680000D+00 0.2680000D+00
EXPONENTS  0.2680000D+00 0.2680000D+00 0.2680000D+00 0.2680000D+00 0.2680000D+00
EXPONENTS  0.2680000D+00 0.2680000D+00 0.2680000D+00
MO    1     MO 0.0        OCC NO =    2.0000000  ORB. ENERGY =  -10.557427
  0.12492214D-03  0.22530223D-03  0.33220801D-03  0.19877824D-02 -0.22298517D-03
  0.11702334D-03 -0.18264866D-03  0.65795279D-13 -0.22927547D-03 -0.29832364D-03
 -0.17074244D-13  0.67446293D-03 -0.14242661D-03 -0.34672477D-13  0.18335326D-03
  0.26902371D-03  0.27332827D-03 -0.54235198D-03 -0.82807155D-13 -0.73975374D-03
 -0.26684874D-13  0.21934938D-04  0.16709029D-03 -0.18902523D-03  0.38953834D-13
  0.49167973D-04  0.80493013D-14  0.12492214D-03  0.22530223D-03  0.33220801D-03
  0.19877824D-02 -0.22298517D-03  0.11702334D-03  0.18264866D-03  0.65299497D-13
 -0.22927547D-03  0.29832364D-03 -0.16991847D-13  0.67446293D-03  0.14242661D-03
 -0.34302198D-13  0.18335326D-03  0.26902371D-03  0.27332827D-03 -0.54235198D-03
  0.82819471D-13  0.73975374D-03 -0.26677302D-13  0.21934938D-04  0.16709029D-03
 -0.18902523D-03 -0.38966237D-13 -0.49167973D-04  0.79176666D-14  0.21452964D-03
  0.38691305D-03  0.57050306D-03  0.55823118D-02  0.37738147D-02 -0.48873855D-04
  0.33459862D-16 -0.68745875D-03 -0.14930847D-03 -0.19005597D-15  0.71148408D-03
 -0.13350527D-02  0.96945810D-16  0.12256958D-03  0.24956794D-03  0.15040366D-02
 -0.99628083D-03 -0.50775574D-03 -0.19221277D-15  0.52950342D-16 -0.36546358D-02
  0.26567562D-03 -0.16098400D-03 -0.10469162D-03  0.44534241D-16 -0.65976468D-16
 -0.25164748D-03  0.21452964D-03  0.38691305D-03  0.57050306D-03  0.55823118D-02
  0.37738147D-02 -0.48873855D-04  0.13465680D-15  0.68745875D-03 -0.14930847D-03
 -0.50451987D-15 -0.71148408D-03 -0.13350527D-02  0.16517826D-15 -0.12256958D-03
  0.24956794D-03  0.15040366D-02 -0.99628083D-03 -0.50775574D-03  0.27935944D-15
 -0.74245961D-16  0.36546358D-02  0.26567562D-03 -0.16098400D-03 -0.10469162D-03
  0.29225480D-16 -0.33342314D-16  0.25164748D-03  0.14505298D-01  0.27041174D-01
  0.45704348D-01  0.68708606D-01  0.84416461D-01  0.71303196D-01  0.26892942D-01
 -0.13309467D-03 -0.29038213D-03 -0.54368697D-03 -0.92567358D-03 -0.14318763D-02
 -0.18857307D-02 -0.19593950D-02 -0.12451075D-02  0.83444212D-03  0.20660324D-02
 -0.13533658D-02  0.19981539D-02  0.43510874D-15  0.40794210D-15  0.29047908D-15
  0.89222142D-13  0.83651429D-13  0.59564801D-13 -0.11259900D-02 -0.10556872D-02
 -0.75171214D-03 -0.18376385D-14 -0.37121811D-12 -0.59077708D-03  0.49013371D-15
  0.24313674D-12 -0.74603041D-03  0.61995408D-16 -0.26803053D-13 -0.18415591D-03
 -0.27577247D-03 -0.15778606D-02  0.18536330D-02 -0.22256003D-16 -0.91711307D-15
  0.19463816D-12  0.25954809D-03  0.15499417D-02 -0.18094898D-02  0.67446825D-16
 -0.80527745D-15  0.75613738D-13  0.53640046D-04 -0.77888137D-05 -0.45851232D-04
  0.18129774D-15  0.41875412D-15 -0.20881643D-13 -0.48021659D-16  0.27263433D-13
  0.65709228D-04  0.49919323D-15 -0.44282087D-13 -0.27866370D-03 -0.35512826D-15
 -0.37508212D-13  0.81536019D-04  0.19875721D-15  0.42628663D-16  0.65629122D-14
  0.48931558D-03  0.12317506D-16 -0.40306063D-13 -0.11772763D-02 -0.14020349D-15
  0.20617326D-13 -0.29067046D-03 -0.15543073D-15  0.23315104D+00  0.43464654D+00
  0.73462922D+00  0.11043884D+01  0.13568687D+01  0.11460925D+01  0.43226393D+00
 -0.21392983D-02 -0.21451972D-02 -0.40164861D-02 -0.68384112D-02 -0.10577982D-01
 -0.13930831D-01 -0.14475025D-01 -0.91982287D-02  0.61644390D-02  0.25768652D-01
 -0.56466148D-02 -0.15450817D-02  0.40639020D-15  0.38101664D-15  0.27130655D-15
  0.15004976D-02  0.14068119D-02  0.10017339D-02  0.88590445D-03  0.83059173D-03
  0.59143079D-03 -0.24963092D-15  0.21803196D-02 -0.34428197D-03  0.31937813D-15
  0.74097651D-03  0.95401128D-03 -0.56701879D-17 -0.58327499D-04 -0.72713269D-04
 -0.26842726D-02  0.29397799D-02 -0.25550732D-03 -0.35407804D-17  0.15516208D-15
  0.41024848D-02  0.15915445D-02 -0.15855365D-02 -0.60080709D-05 -0.99237876D-16
  0.44581453D-17 -0.18087460D-02  0.14511890D-03 -0.26849571D-03  0.12337681D-03
  0.43789637D-16  0.13848814D-15 -0.17528019D-03 -0.73311400D-17 -0.94747381D-03
  0.10119515D-03 -0.54315598D-17  0.15308128D-02  0.30674661D-03  0.27424980D-16
  0.13116087D-02 -0.61033206D-03  0.69692090D-16 -0.31017445D-16 -0.25420355D-03
 -0.35599262D-03  0.90540298D-16 -0.46748098D-04 -0.42385859D-03  0.25120376D-17
  0.80935875D-03  0.14918364D-02 -0.35522401D-16  0.23315104D+00  0.43464654D+00
  0.73462922D+00  0.11043884D+01  0.13568687D+01  0.11460925D+01  0.43226393D+00
 -0.21392983D-02 -0.21451972D-02 -0.40164861D-02 -0.68384112D-02 -0.10577982D-01
 -0.13930831D-01 -0.14475025D-01 -0.91982287D-02  0.61644390D-02  0.25768652D-01
 -0.56466148D-02 -0.15450817D-02  0.26877580D-15  0.25199440D-15  0.17943502D-15
 -0.15004976D-02 -0.14068119D-02 -0.10017339D-02  0.88590445D-03  0.83059173D-03
  0.59143079D-03 -0.21778304D-15 -0.21803196D-02 -0.34428197D-03  0.35164348D-15
 -0.74097651D-03  0.95401128D-03  0.11002903D-16  0.58327498D-04 -0.72713269D-04
 -0.26842726D-02  0.29397799D-02 -0.25550732D-03 -0.97456659D-16  0.26839057D-15
 -0.41024848D-02  0.15915445D-02 -0.15855365D-02 -0.60080712D-05  0.18357222D-15
 -0.16823610D-15  0.18087460D-02  0.14511890D-03 -0.26849571D-03  0.12337681D-03
 -0.17414949D-15  0.87412642D-16  0.17528019D-03 -0.36723084D-16  0.94747381D-03
  0.10119515D-03  0.75480250D-16 -0.15308128D-02  0.30674661D-03  0.34689001D-16
 -0.13116087D-02 -0.61033206D-03  0.12386559D-15 -0.41207521D-16  0.25420355D-03
 -0.35599262D-03  0.15130791D-15  0.46748098D-04 -0.42385859D-03 -0.27685343D-16
 -0.80935875D-03  0.14918364D-02 -0.20638820D-15
MO    2     MO 0.0        OCC NO =    2.0000000  ORB. ENERGY =  -10.555951
 -0.26624006D-14 -0.48017491D-14 -0.70801763D-14 -0.13929867D-12 -0.36438987D-12
  0.33352654D-13 -0.61835491D-14 -0.92418026D-04  0.82252374D-15  0.43055731D-13
 -0.67502881D-03  0.32787394D-13  0.12145639D-13  0.14168172D-04  0.48732825D-13
 -0.74593464D-14  0.57255080D-14  0.17338384D-14  0.69160659D-03 -0.21107116D-13
  0.97135724D-03  0.89879372D-14 -0.61938287D-14 -0.27941085D-14 -0.62584756D-04
  0.10825965D-13  0.62900605D-04 -0.24817330D-14 -0.44759077D-14 -0.65997233D-14
 -0.16879204D-12 -0.42161327D-12  0.31431563D-13  0.46273814D-14 -0.92418026D-04
  0.10425907D-14 -0.56479623D-13 -0.67502881D-03  0.42497751D-13 -0.19849091D-13
  0.14168172D-04  0.50761483D-13 -0.10020513D-13  0.82003712D-14  0.18201413D-14
 -0.69160659D-03  0.27695911D-13  0.97135724D-03  0.85567578D-14 -0.61728944D-14
 -0.23838634D-14  0.62584756D-04 -0.98032013D-14  0.62900605D-04 -0.16873686D-03
 -0.30432387D-03 -0.44872537D-03 -0.23794042D-02 -0.54202235D-02  0.15372229D-04
 -0.11372685D-14  0.40111373D-03 -0.16919054D-04  0.22881014D-14  0.17994057D-02
 -0.11381507D-02 -0.50886233D-15 -0.82184874D-03  0.20574919D-04 -0.89039688D-03
  0.23802821D-02 -0.14898852D-02  0.90560285D-15  0.14178843D-15  0.13365144D-02
 -0.10924689D-03  0.10558242D-03  0.36644741D-05  0.20461618D-15  0.12825286D-15
  0.25530436D-03  0.16873686D-03  0.30432387D-03  0.44872537D-03  0.23794042D-02
  0.54202235D-02 -0.15372229D-04 -0.11236496D-14  0.40111373D-03  0.16919054D-04
  0.22038890D-14  0.17994057D-02  0.11381507D-02 -0.53669409D-15 -0.82184874D-03
 -0.20574919D-04  0.89039688D-03 -0.23802821D-02  0.14898852D-02 -0.88116075D-15
  0.11570268D-15  0.13365144D-02  0.10924689D-03 -0.10558242D-03 -0.36644741D-05
 -0.18809915D-15  0.99389497D-16  0.25530436D-03 -0.20445406D-13 -0.38114885D-13
 -0.64420869D-13 -0.96845668D-13 -0.11898609D-12 -0.10050278D-12 -0.37905950D-13
  0.18759866D-15  0.82787871D-14  0.15500502D-13  0.26390930D-13  0.40822756D-13
  0.53762134D-13  0.55862300D-13  0.35497984D-13 -0.23789924D-13 -0.56923326D-13
  0.39353933D-12  0.71452135D-12  0.26463594D-14  0.24811301D-14  0.17667125D-14
 -0.93296075D-03 -0.87471000D-03 -0.62284563D-03  0.29634797D-13  0.27784506D-13
  0.19784223D-13 -0.11685970D-13  0.44659231D-02 -0.27732948D-13 -0.10763968D-13
  0.12071197D-02  0.12439066D-12 -0.37446321D-15  0.47126002D-04 -0.56076661D-13
 -0.18192588D-13  0.22585673D-13 -0.43930845D-14 -0.20134340D-16 -0.68689990D-16
 -0.26116278D-02  0.32948989D-13 -0.58775597D-13  0.25826609D-13  0.40564202D-16
 -0.12507970D-13 -0.15333390D-02  0.18346558D-13 -0.99036559D-14 -0.84429021D-14
  0.90930906D-16 -0.38427523D-14 -0.87233468D-04 -0.66615319D-15 -0.16568965D-03
 -0.16804984D-13  0.22448588D-14  0.44435945D-03  0.27183786D-13 -0.24639926D-15
  0.52709498D-04  0.23231166D-13  0.70380202D-17 -0.42800661D-15 -0.17194557D-03
 -0.92831713D-14  0.73850663D-15  0.44386482D-03  0.32888164D-13  0.54551319D-15
  0.71971897D-04 -0.50386500D-14 -0.13071564D-15 -0.23346917D+00 -0.43523961D+00
 -0.73563161D+00 -0.11058953D+01 -0.13587201D+01 -0.11476563D+01 -0.43285375D+00
  0.21422174D-02  0.21082505D-02  0.39473101D-02  0.67206331D-02  0.10395798D-01
  0.13690900D-01  0.14225722D-01  0.90398075D-02 -0.60582688D-02 -0.23588963D-01
 -0.51805471D-02  0.13026627D-02 -0.70672422D-16 -0.66259887D-16 -0.47180987D-16
  0.16972434D-02  0.15912735D-02  0.11330815D-02 -0.13292552D-02 -0.12462612D-02
 -0.88741224D-03 -0.39388920D-15 -0.57023731D-02  0.76083196D-03 -0.27515245D-14
 -0.57109511D-02  0.94910649D-05 -0.38076864D-16  0.34287352D-04  0.50840580D-04
  0.29074420D-02 -0.35306804D-02  0.62323834D-03 -0.47137209D-15 -0.59265455D-15
 -0.22823840D-02 -0.99920681D-04 -0.16559367D-02  0.17558574D-02  0.22331669D-15
 -0.86354397D-15  0.84280267D-04 -0.53333109D-04 -0.25199311D-03  0.30532622D-03
 -0.55934107D-15 -0.58018228D-15  0.36019754D-03  0.26294585D-15 -0.16334712D-02
 -0.12515091D-04  0.27365019D-15  0.12776407D-02 -0.10254416D-02 -0.10624877D-14
  0.36227728D-02  0.10629868D-02 -0.40583646D-15  0.27992394D-15 -0.56132834D-03
  0.33340170D-03 -0.59670575D-15  0.53137829D-03  0.61709958D-04 -0.24306607D-15
  0.11526067D-02 -0.10619151D-02 -0.98620024D-15  0.23346917D+00  0.43523961D+00
  0.73563161D+00  0.11058953D+01  0.13587201D+01  0.11476563D+01  0.43285375D+00
 -0.21422174D-02 -0.21082505D-02 -0.39473101D-02 -0.67206331D-02 -0.10395798D-01
 -0.13690900D-01 -0.14225722D-01 -0.90398075D-02  0.60582688D-02  0.23588963D-01
  0.51805471D-02 -0.13026627D-02 -0.87865801D-16 -0.82379774D-16 -0.58659307D-16
  0.16972434D-02  0.15912735D-02  0.11330815D-02  0.13292552D-02  0.12462612D-02
  0.88741224D-03 -0.42094385D-15 -0.57023731D-02 -0.76083196D-03 -0.29734272D-14
 -0.57109511D-02 -0.94910647D-05 -0.38027563D-16  0.34287352D-04 -0.50840580D-04
 -0.29074420D-02  0.35306804D-02 -0.62323834D-03  0.40731848D-15 -0.39717301D-15
 -0.22823840D-02  0.99920681D-04  0.16559367D-02 -0.17558574D-02 -0.12303302D-15
 -0.10914499D-14  0.84280267D-04  0.53333109D-04  0.25199311D-03 -0.30532622D-03
  0.57060302D-15 -0.63613667D-15  0.36019754D-03  0.27251071D-15 -0.16334712D-02
  0.12515091D-04  0.24285831D-15  0.12776407D-02  0.10254416D-02 -0.10603904D-14
  0.36227728D-02 -0.10629868D-02  0.43191631D-15  0.28799074D-15 -0.56132834D-03
 -0.33340170D-03 -0.56104900D-15  0.53137829D-03 -0.61709958D-04 -0.30292322D-15
  0.11526067D-02  0.10619151D-02  0.98714271D-15
MO    3     MO 0.0        OCC NO =    2.0000000  ORB. ENERGY =  -10.550603
  0.19366068D-03  0.34927501D-03  0.51500580D-03  0.10189698D-02  0.40204549D-03
 -0.40694016D-04  0.10995117D-02 -0.39075068D-14  0.51861045D-03  0.18132312D-02
 -0.49627535D-14  0.20394289D-02 -0.15524541D-04  0.31950192D-15  0.22163845D-03
 -0.14609232D-02  0.16086141D-02 -0.14769090D-03  0.91428593D-14 -0.42340074D-02
  0.32257839D-14 -0.13206075D-03  0.30601082D-03 -0.17395008D-03 -0.23353390D-14
 -0.58066970D-03  0.68725877D-15  0.19366068D-03  0.34927501D-03  0.51500580D-03
  0.10189698D-02  0.40204549D-03 -0.40694016D-04 -0.10995117D-02 -0.39292580D-14
  0.51861045D-03 -0.18132312D-02 -0.48167830D-14  0.20394289D-02  0.15524541D-04
  0.31421710D-15  0.22163845D-03 -0.14609232D-02  0.16086141D-02 -0.14769090D-03
 -0.90849226D-14  0.42340074D-02  0.31916527D-14 -0.13206075D-03  0.30601082D-03
 -0.17395008D-03  0.23896505D-14  0.58066970D-03  0.68160452D-15  0.88857588D-05
  0.16025832D-04  0.23630080D-04  0.89963028D-04 -0.25723034D-02  0.30455862D-04
  0.84969980D-16  0.26377607D-03 -0.55679473D-04 -0.49771390D-15  0.45029975D-03
  0.16897161D-02  0.13340664D-15 -0.27193404D-03 -0.37070942D-03 -0.12752001D-03
 -0.14135645D-03  0.26887646D-03 -0.33887969D-15 -0.25646290D-15  0.12344425D-02
 -0.11165230D-03  0.90638322D-04  0.21013976D-04 -0.42617605D-16 -0.13095555D-16
  0.29555383D-03  0.88857588D-05  0.16025832D-04  0.23630080D-04  0.89963028D-04
 -0.25723034D-02  0.30455862D-04  0.13647089D-15 -0.26377607D-03 -0.55679473D-04
 -0.54700206D-15 -0.45029975D-03  0.16897161D-02  0.30386409D-16  0.27193404D-03
 -0.37070942D-03 -0.12752001D-03 -0.14135645D-03  0.26887646D-03  0.33883888D-15
 -0.22894472D-15 -0.12344425D-02 -0.11165230D-03  0.90638322D-04  0.21013976D-04
  0.93506179D-16 -0.61989273D-16 -0.29555383D-03  0.32957705D+00  0.61440656D+00
  0.10384553D+01  0.15611385D+01  0.19180390D+01  0.16200906D+01  0.61103856D+00
 -0.30240639D-02 -0.27875032D-02 -0.52190855D-02 -0.88859396D-02 -0.13745197D-01
 -0.18101941D-01 -0.18809077D-01 -0.11952324D-01  0.80101695D-02  0.33550650D-01
 -0.44908839D-02 -0.12449988D-02  0.30022476D-15  0.28147980D-15  0.20043039D-15
 -0.89269147D-14 -0.83695500D-14 -0.59596182D-14 -0.30504034D-02 -0.28599470D-02
 -0.20364527D-02 -0.12031305D-14  0.42031324D-13  0.25059597D-02  0.29412234D-14
 -0.26470220D-14  0.33042623D-03  0.18174347D-15  0.31422802D-14  0.74620858D-04
  0.13730882D-02 -0.32907794D-02  0.19176912D-02  0.23986063D-16 -0.16257463D-14
 -0.25895209D-13  0.13757966D-02  0.72619291D-05 -0.13830586D-02  0.66081302D-16
  0.75510875D-16 -0.11326276D-14  0.10335694D-03  0.12523009D-04 -0.11587995D-03
 -0.12932077D-16  0.50777367D-15 -0.25603160D-15  0.10823187D-16 -0.19727575D-14
 -0.46900198D-03  0.16128703D-15  0.94667055D-15  0.24182189D-02 -0.19375659D-15
  0.49716020D-14 -0.10112129D-02 -0.33876613D-16  0.80074447D-16 -0.16525077D-14
  0.30046891D-03 -0.90456712D-16  0.79337381D-14 -0.17123179D-02 -0.14976663D-15
 -0.29762151D-14  0.81091119D-03  0.59154539D-16 -0.99819079D-02 -0.18608546D-01
 -0.31451721D-01 -0.47282238D-01 -0.58091693D-01 -0.49067721D-01 -0.18506539D-01
  0.91589895D-04 -0.52537057D-04 -0.98365946D-04 -0.16747644D-03 -0.25906059D-03
 -0.34117368D-03 -0.35450131D-03 -0.22526967D-03  0.15097049D-03 -0.85657303D-03
  0.40478846D-02  0.66381934D-03 -0.41850058D-16 -0.39237090D-16 -0.27939145D-16
 -0.41535240D-03 -0.38941928D-03 -0.27728973D-03  0.71508769D-03  0.67044016D-03
  0.47739333D-03  0.25246556D-16  0.18877366D-02  0.31752476D-02  0.14271463D-15
 -0.12138393D-02 -0.48102663D-03 -0.16887679D-16  0.23875499D-04  0.39583245D-04
  0.32048197D-03 -0.78123243D-03  0.46075046D-03  0.15856215D-15  0.53199727D-15
  0.17341633D-02 -0.37947069D-03 -0.15496405D-03  0.53443474D-03 -0.14872060D-15
 -0.35465216D-15 -0.54617685D-03 -0.10467677D-04  0.78751480D-04 -0.68283803D-04
  0.11761964D-15  0.32562601D-16 -0.16295606D-03 -0.11791744D-15  0.24820747D-03
 -0.35103128D-03  0.45432412D-16 -0.26631787D-03  0.35714351D-03  0.30831990D-15
 -0.47830454D-03  0.69595033D-03  0.25212956D-15 -0.32048432D-16  0.22053815D-03
  0.11379524D-03  0.16753529D-15  0.15841120D-04  0.10898663D-03 -0.71389990D-16
 -0.67745556D-03 -0.45037235D-03  0.13507139D-15 -0.99819079D-02 -0.18608546D-01
 -0.31451721D-01 -0.47282238D-01 -0.58091693D-01 -0.49067721D-01 -0.18506539D-01
  0.91589895D-04 -0.52537057D-04 -0.98365946D-04 -0.16747644D-03 -0.25906059D-03
 -0.34117368D-03 -0.35450131D-03 -0.22526967D-03  0.15097049D-03 -0.85657303D-03
  0.40478846D-02  0.66381934D-03 -0.85834833D-17 -0.80475612D-17 -0.57303430D-17
  0.41535240D-03  0.38941928D-03  0.27728973D-03  0.71508769D-03  0.67044016D-03
  0.47739333D-03 -0.30054121D-16 -0.18877366D-02  0.31752476D-02  0.63666017D-17
  0.12138393D-02 -0.48102663D-03 -0.16952153D-16 -0.23875499D-04  0.39583245D-04
  0.32048197D-03 -0.78123243D-03  0.46075046D-03 -0.27065057D-15  0.56681308D-15
 -0.17341633D-02 -0.37947069D-03 -0.15496405D-03  0.53443474D-03  0.40941272D-15
 -0.39061382D-15  0.54617685D-03 -0.10467677D-04  0.78751480D-04 -0.68283803D-04
 -0.37351727D-16  0.11040068D-16  0.16295606D-03 -0.10224351D-15 -0.24820747D-03
 -0.35103128D-03 -0.19788255D-16  0.26631787D-03  0.35714351D-03  0.32651880D-15
  0.47830454D-03  0.69595033D-03 -0.35191774D-15 -0.20473276D-16 -0.22053815D-03
  0.11379524D-03  0.12784556D-15 -0.15841120D-04  0.10898663D-03 -0.66425737D-16
  0.67745556D-03 -0.45037235D-03 -0.72634769D-16
MO    4     MO 0.0        OCC NO =    2.0000000  ORB. ENERGY =   -0.967801
  0.69837618D-02  0.12595502D-01  0.18572060D-01  0.14881268D-02 -0.57959386D-02
  0.32690649D-03 -0.29153916D-02 -0.31626569D-13 -0.33044166D-02  0.38175490D-02
  0.38699469D-14  0.19916130D-02  0.22911991D-03  0.20290670D-13  0.14389151D-02
 -0.10031157D-02 -0.34261309D-04  0.10373770D-02  0.46232954D-13 -0.18382679D-02
  0.17822393D-13 -0.30851427D-03  0.49900519D-03 -0.19049092D-03 -0.30336908D-13
 -0.44272835D-03 -0.13435778D-14  0.69837618D-02  0.12595502D-01  0.18572060D-01
  0.14881268D-02 -0.57959386D-02  0.32690649D-03  0.29153916D-02 -0.32347665D-13
 -0.33044166D-02 -0.38175490D-02  0.57052487D-14  0.19916130D-02 -0.22911991D-03
  0.19842277D-13  0.14389151D-02 -0.10031157D-02 -0.34261309D-04  0.10373770D-02
 -0.45718640D-13  0.18382679D-02  0.17582713D-13 -0.30851427D-03  0.49900519D-03
 -0.19049092D-03  0.31112004D-13  0.44272835D-03 -0.11162242D-14  0.62924948D-02
  0.11348774D-01  0.16733760D-01  0.77108454D-02  0.35242914D-02 -0.20392942D-03
 -0.16101114D-13  0.54550712D-02  0.36953055D-02  0.39333030D-13 -0.26508668D-02
 -0.36860280D-02 -0.13639599D-13 -0.59237500D-03 -0.44979540D-03  0.78184261D-03
 -0.87373922D-03  0.91896613D-04  0.13584262D-13  0.58487790D-14 -0.37258320D-02
  0.70800590D-03 -0.53197907D-03 -0.17602683D-03  0.24542793D-14  0.24407235D-14
 -0.89804413D-03  0.62924948D-02  0.11348774D-01  0.16733760D-01  0.77108454D-02
  0.35242914D-02 -0.20392942D-03 -0.16929344D-13 -0.54550712D-02  0.36953055D-02
  0.42192379D-13  0.26508668D-02 -0.36860280D-02 -0.14059416D-13  0.59237500D-03
 -0.44979540D-03  0.78184261D-03 -0.87373922D-03  0.91896613D-04 -0.14408810D-13
  0.66692503D-14  0.37258320D-02  0.70800590D-03 -0.53197907D-03 -0.17602683D-03
 -0.29321695D-14  0.24840504D-14  0.89804413D-03 -0.53089206D-02 -0.98970351D-02
 -0.16727733D-01 -0.25147262D-01 -0.30896317D-01 -0.26096879D-01 -0.98427824D-02
  0.48712480D-04 -0.31579996D-01 -0.59127717D-01 -0.10067000D+00 -0.15572118D+00
 -0.20507931D+00 -0.21309054D+00 -0.13540947D+00  0.90748280D-01  0.36797176D-01
  0.29576270D-01  0.66305288D-02  0.28646049D-13  0.26857492D-13  0.19124134D-13
 -0.67426039D-13 -0.63216197D-13 -0.45013698D-13 -0.15528726D+00 -0.14559168D+00
 -0.10366995D+00 -0.16128765D-12  0.29749625D-12 -0.25403371D-01 -0.18003295D-12
 -0.19745096D-12 -0.11149633D-02  0.14902786D-14  0.40446187D-13 -0.53095422D-03
 -0.69958222D-02 -0.15435989D-01  0.22431811D-01  0.78183953D-17  0.11410203D-13
 -0.11758740D-12  0.32858404D-03 -0.14392271D-02  0.11106431D-02  0.61217664D-15
 -0.19499323D-12 -0.75120875D-13  0.50996981D-03 -0.10443742D-03 -0.40553239D-03
 -0.31104830D-15 -0.91679891D-13  0.16994995D-13 -0.68323700D-14 -0.17954076D-13
 -0.50759964D-02  0.26503252D-13  0.10066086D-13  0.12126972D-01 -0.60061418D-14
  0.43796142D-13  0.31010173D-02 -0.70726391D-15 -0.10228844D-13 -0.69638723D-14
  0.43030088D-03  0.11842692D-13  0.37450843D-13 -0.49093806D-03  0.18843839D-13
 -0.16559226D-13 -0.79996459D-03  0.10168477D-14 -0.58341971D-02 -0.10876270D-01
 -0.18382812D-01 -0.27635388D-01 -0.33953268D-01 -0.28678962D-01 -0.10816649D-01
  0.53532201D-04 -0.36400798D-01 -0.68153780D-01 -0.11603764D+00 -0.17949259D+00
 -0.23638542D+00 -0.24561960D+00 -0.15608023D+00  0.10460134D+00  0.46836806D-01
  0.73780817D-02 -0.43199467D-02 -0.25186183D-14 -0.23613648D-14 -0.16814324D-14
  0.17584608D+00  0.16486688D+00  0.11739504D+00  0.84368408D-01  0.79100745D-01
  0.56324443D-01 -0.20058574D-14  0.29062078D-01  0.12816784D-01 -0.73626489D-13
  0.98651505D-03  0.86573284D-03 -0.24396888D-14 -0.18111799D-03 -0.25246172D-03
 -0.19008224D-01  0.21442441D-01 -0.24342166D-02  0.27296528D-14 -0.25393292D-16
  0.29598767D-01 -0.64589968D-03  0.99077037D-03 -0.34487069D-03  0.78603918D-15
 -0.23567317D-13  0.31934085D-02  0.33025381D-03 -0.37839106D-03  0.48137248D-04
 -0.12831615D-13 -0.16728331D-13 -0.72293098D-03  0.43058854D-14  0.19084845D-02
 -0.25934114D-03  0.29085650D-14 -0.80775802D-02 -0.33553717D-02 -0.15826221D-13
  0.23521267D-02  0.41333951D-02 -0.10000570D-13  0.52830728D-14 -0.36082681D-03
 -0.54228649D-03 -0.10538554D-13  0.76661320D-04 -0.63130432D-03 -0.53106640D-14
  0.10058191D-02  0.22581638D-02 -0.17060360D-13 -0.58341971D-02 -0.10876270D-01
 -0.18382812D-01 -0.27635388D-01 -0.33953268D-01 -0.28678962D-01 -0.10816649D-01
  0.53532201D-04 -0.36400798D-01 -0.68153780D-01 -0.11603764D+00 -0.17949259D+00
 -0.23638542D+00 -0.24561960D+00 -0.15608023D+00  0.10460134D+00  0.46836806D-01
  0.73780817D-02 -0.43199467D-02 -0.15765438D-14 -0.14781100D-14 -0.10525024D-14
 -0.17584608D+00 -0.16486688D+00 -0.11739504D+00  0.84368408D-01  0.79100745D-01
  0.56324443D-01 -0.31795550D-14 -0.29062078D-01  0.12816784D-01 -0.77181190D-13