 Molden2AIM, Version 4.0.0 (06/02/2016)           Time: Thu Jun 28 03:06:14 2018
GAUSSIAN             12 MOL ORBITALS    387 PRIMITIVES        9 NUCLEI
  C    1    (CENTRE  1)   0.00000000  1.64187532  0.00000000  CHARGE =  6.0
  C    2    (CENTRE  2)   1.42190175 -0.82089892  0.00000000  CHARGE =  6.0
  C    3    (CENTRE  3)  -1.42190175 -0.82089892  0.00000000  CHARGE =  6.0
  H    4    (CENTRE  4)   0.00000000  2.75763198  1.73024458  CHARGE =  1.0
  H    5    (CENTRE  5)   0.00000000  2.75763198 -1.73024458  CHARGE =  1.0
  H    6    (CENTRE  6)   2.38813761 -1.37883489 -1.73025403  CHARGE =  1.0
  H    7    (CENTRE  7)   2.38813761 -1.37883489  1.73025403  CHARGE =  1.0
  H    8    (CENTRE  8)  -2.38813761 -1.37883489  1.73025403  CHARGE =  1.0
  H    9    (CENTRE  9)  -2.38813761 -1.37883489 -1.73025403  CHARGE =  1.0
CENTRE ASSIGNMENTS    1  1  1  1  1  1  1  1  1  1  1  1  1  1  1  1  1  1  1  1
CENTRE ASSIGNMENTS    1  1  1  1  1  1  1  1  1  1  1  1  1  1  1  1  1  1  1  1
CENTRE ASSIGNMENTS    1  1  1  1  1  1  1  1  1  1  1  1  1  1  1  1  1  1  1  1
CENTRE ASSIGNMENTS    1  1  1  1  1  1  1  1  1  1  1  1  1  1  1  2  2  2  2  2
CENTRE ASSIGNMENTS    2  2  2  2  2  2  2  2  2  2  2  2  2  2  2  2  2  2  2  2
CENTRE ASSIGNMENTS    2  2  2  2  2  2  2  2  2  2  2  2  2  2  2  2  2  2  2  2
CENTRE ASSIGNMENTS    2  2  2  2  2  2  2  2  2  2  2  2  2  2  2  2  2  2  2  2
CENTRE ASSIGNMENTS    2  2  2  2  2  2  2  2  2  2  3  3  3  3  3  3  3  3  3  3
CENTRE ASSIGNMENTS    3  3  3  3  3  3  3  3  3  3  3  3  3  3  3  3  3  3  3  3
CENTRE ASSIGNMENTS    3  3  3  3  3  3  3  3  3  3  3  3  3  3  3  3  3  3  3  3
CENTRE ASSIGNMENTS    3  3  3  3  3  3  3  3  3  3  3  3  3  3  3  3  3  3  3  3
CENTRE ASSIGNMENTS    3  3  3  3  3  4  4  4  4  4  4  4  4  4  4  4  4  4  4  4
CENTRE ASSIGNMENTS    4  4  4  4  4  4  4  4  4  4  4  4  5  5  5  5  5  5  5  5
CENTRE ASSIGNMENTS    5  5  5  5  5  5  5  5  5  5  5  5  5  5  5  5  5  5  5  6
CENTRE ASSIGNMENTS    6  6  6  6  6  6  6  6  6  6  6  6  6  6  6  6  6  6  6  6
CENTRE ASSIGNMENTS    6  6  6  6  6  6  7  7  7  7  7  7  7  7  7  7  7  7  7  7
CENTRE ASSIGNMENTS    7  7  7  7  7  7  7  7  7  7  7  7  7  8  8  8  8  8  8  8
CENTRE ASSIGNMENTS    8  8  8  8  8  8  8  8  8  8  8  8  8  8  8  8  8  8  8  8
CENTRE ASSIGNMENTS    9  9  9  9  9  9  9  9  9  9  9  9  9  9  9  9  9  9  9  9
CENTRE ASSIGNMENTS    9  9  9  9  9  9  9
TYPE ASSIGNMENTS      1  1  1  1  1  1  1  1  1  1  1  1  1  1  1  1  1  1  1  2
TYPE ASSIGNMENTS      2  2  3  3  3  4  4  4  2  3  4  2  3  4  2  3  4  5  6  7
TYPE ASSIGNMENTS      8  9 10  5  6  7  8  9 10  5  6  7  8  9 10 11 12 13 17 14
TYPE ASSIGNMENTS     15 18 19 16 20 11 12 13 17 14 15 18 19 16 20  1  1  1  1  1
TYPE ASSIGNMENTS      1  1  1  1  1  1  1  1  1  1  1  1  1  1  2  2  2  3  3  3
TYPE ASSIGNMENTS      4  4  4  2  3  4  2  3  4  2  3  4  5  6  7  8  9 10  5  6
TYPE ASSIGNMENTS      7  8  9 10  5  6  7  8  9 10 11 12 13 17 14 15 18 19 16 20
TYPE ASSIGNMENTS     11 12 13 17 14 15 18 19 16 20  1  1  1  1  1  1  1  1  1  1
TYPE ASSIGNMENTS      1  1  1  1  1  1  1  1  1  2  2  2  3  3  3  4  4  4  2  3
TYPE ASSIGNMENTS      4  2  3  4  2  3  4  5  6  7  8  9 10  5  6  7  8  9 10  5
TYPE ASSIGNMENTS      6  7  8  9 10 11 12 13 17 14 15 18 19 16 20 11 12 13 17 14
TYPE ASSIGNMENTS     15 18 19 16 20  1  1  1  1  1  1  2  3  4  2  3  4  2  3  4
TYPE ASSIGNMENTS      5  6  7  8  9 10  5  6  7  8  9 10  1  1  1  1  1  1  2  3
TYPE ASSIGNMENTS      4  2  3  4  2  3  4  5  6  7  8  9 10  5  6  7  8  9 10  1
TYPE ASSIGNMENTS      1  1  1  1  1  2  3  4  2  3  4  2  3  4  5  6  7  8  9 10
TYPE ASSIGNMENTS      5  6  7  8  9 10  1  1  1  1  1  1  2  3  4  2  3  4  2  3
TYPE ASSIGNMENTS      4  5  6  7  8  9 10  5  6  7  8  9 10  1  1  1  1  1  1  2
TYPE ASSIGNMENTS      3  4  2  3  4  2  3  4  5  6  7  8  9 10  5  6  7  8  9 10
TYPE ASSIGNMENTS      1  1  1  1  1  1  2  3  4  2  3  4  2  3  4  5  6  7  8  9
TYPE ASSIGNMENTS     10  5  6  7  8  9 10
EXPONENTS  0.8236000D+04 0.1235000D+04 0.2808000D+03 0.7927000D+02 0.2559000D+02
EXPONENTS  0.8997000D+01 0.3319000D+01 0.3643000D+00 0.8236000D+04 0.1235000D+04
EXPONENTS  0.2808000D+03 0.7927000D+02 0.2559000D+02 0.8997000D+01 0.3319000D+01
EXPONENTS  0.3643000D+00 0.9059000D+00 0.1285000D+00 0.4402000D-01 0.1871000D+02
EXPONENTS  0.4133000D+01 0.1200000D+01 0.1871000D+02 0.4133000D+01 0.1200000D+01
EXPONENTS  0.1871000D+02 0.4133000D+01 0.1200000D+01 0.3827000D+00 0.3827000D+00
EXPONENTS  0.3827000D+00 0.1209000D+00 0.1209000D+00 0.1209000D+00 0.3569000D-01
EXPONENTS  0.3569000D-01 0.3569000D-01 0.1097000D+01 0.1097000D+01 0.1097000D+01
EXPONENTS  0.1097000D+01 0.1097000D+01 0.1097000D+01 0.3180000D+00 0.3180000D+00
EXPONENTS  0.3180000D+00 0.3180000D+00 0.3180000D+00 0.3180000D+00 0.1000000D+00
EXPONENTS  0.1000000D+00 0.1000000D+00 0.1000000D+00 0.1000000D+00 0.1000000D+00
EXPONENTS  0.7610000D+00 0.7610000D+00 0.7610000D+00 0.7610000D+00 0.7610000D+00
EXPONENTS  0.7610000D+00 0.7610000D+00 0.7610000D+00 0.7610000D+00 0.7610000D+00
EXPONENTS  0.2680000D+00 0.2680000D+00 0.2680000D+00 0.2680000D+00 0.2680000D+00
EXPONENTS  0.2680000D+00 0.2680000D+00 0.2680000D+00 0.2680000D+00 0.2680000D+00
EXPONENTS  0.8236000D+04 0.1235000D+04 0.2808000D+03 0.7927000D+02 0.2559000D+02
EXPONENTS  0.8997000D+01 0.3319000D+01 0.3643000D+00 0.8236000D+04 0.1235000D+04
EXPONENTS  0.2808000D+03 0.7927000D+02 0.2559000D+02 0.8997000D+01 0.3319000D+01
EXPONENTS  0.3643000D+00 0.9059000D+00 0.1285000D+00 0.4402000D-01 0.1871000D+02
EXPONENTS  0.4133000D+01 0.1200000D+01 0.1871000D+02 0.4133000D+01 0.1200000D+01
EXPONENTS  0.1871000D+02 0.4133000D+01 0.1200000D+01 0.3827000D+00 0.3827000D+00
EXPONENTS  0.3827000D+00 0.1209000D+00 0.1209000D+00 0.1209000D+00 0.3569000D-01
EXPONENTS  0.3569000D-01 0.3569000D-01 0.1097000D+01 0.1097000D+01 0.1097000D+01
EXPONENTS  0.1097000D+01 0.1097000D+01 0.1097000D+01 0.3180000D+00 0.3180000D+00
EXPONENTS  0.3180000D+00 0.3180000D+00 0.3180000D+00 0.3180000D+00 0.1000000D+00
EXPONENTS  0.1000000D+00 0.1000000D+00 0.1000000D+00 0.1000000D+00 0.1000000D+00
EXPONENTS  0.7610000D+00 0.7610000D+00 0.7610000D+00 0.7610000D+00 0.7610000D+00
EXPONENTS  0.7610000D+00 0.7610000D+00 0.7610000D+00 0.7610000D+00 0.7610000D+00
EXPONENTS  0.2680000D+00 0.2680000D+00 0.2680000D+00 0.2680000D+00 0.2680000D+00
EXPONENTS  0.2680000D+00 0.2680000D+00 0.2680000D+00 0.2680000D+00 0.2680000D+00
EXPONENTS  0.8236000D+04 0.1235000D+04 0.2808000D+03 0.7927000D+02 0.2559000D+02
EXPONENTS  0.8997000D+01 0.3319000D+01 0.3643000D+00 0.8236000D+04 0.1235000D+04
EXPONENTS  0.2808000D+03 0.7927000D+02 0.2559000D+02 0.8997000D+01 0.3319000D+01
EXPONENTS  0.3643000D+00 0.9059000D+00 0.1285000D+00 0.4402000D-01 0.1871000D+02
EXPONENTS  0.4133000D+01 0.1200000D+01 0.1871000D+02 0.4133000D+01 0.1200000D+01
EXPONENTS  0.1871000D+02 0.4133000D+01 0.1200000D+01 0.3827000D+00 0.3827000D+00
EXPONENTS  0.3827000D+00 0.1209000D+00 0.1209000D+00 0.1209000D+00 0.3569000D-01
EXPONENTS  0.3569000D-01 0.3569000D-01 0.1097000D+01 0.1097000D+01 0.1097000D+01
EXPONENTS  0.1097000D+01 0.1097000D+01 0.1097000D+01 0.3180000D+00 0.3180000D+00
EXPONENTS  0.3180000D+00 0.3180000D+00 0.3180000D+00 0.3180000D+00 0.1000000D+00
EXPONENTS  0.1000000D+00 0.1000000D+00 0.1000000D+00 0.1000000D+00 0.1000000D+00
EXPONENTS  0.7610000D+00 0.7610000D+00 0.7610000D+00 0.7610000D+00 0.7610000D+00
EXPONENTS  0.7610000D+00 0.7610000D+00 0.7610000D+00 0.7610000D+00 0.7610000D+00
EXPONENTS  0.2680000D+00 0.2680000D+00 0.2680000D+00 0.2680000D+00 0.2680000D+00
EXPONENTS  0.2680000D+00 0.2680000D+00 0.2680000D+00 0.2680000D+00 0.2680000D+00
EXPONENTS  0.3387000D+02 0.5095000D+01 0.1159000D+01 0.3258000D+00 0.1027000D+00
EXPONENTS  0.2526000D-01 0.1407000D+01 0.1407000D+01 0.1407000D+01 0.3880000D+00
EXPONENTS  0.3880000D+00 0.3880000D+00 0.1020000D+00 0.1020000D+00 0.1020000D+00
EXPONENTS  0.1057000D+01 0.1057000D+01 0.1057000D+01 0.1057000D+01 0.1057000D+01
EXPONENTS  0.1057000D+01 0.2470000D+00 0.2470000D+00 0.2470000D+00 0.2470000D+00
EXPONENTS  0.2470000D+00 0.2470000D+00 0.3387000D+02 0.5095000D+01 0.1159000D+01
EXPONENTS  0.3258000D+00 0.1027000D+00 0.2526000D-01 0.1407000D+01 0.1407000D+01
EXPONENTS  0.1407000D+01 0.3880000D+00 0.3880000D+00 0.3880000D+00 0.1020000D+00
EXPONENTS  0.1020000D+00 0.1020000D+00 0.1057000D+01 0.1057000D+01 0.1057000D+01
EXPONENTS  0.1057000D+01 0.1057000D+01 0.1057000D+01 0.2470000D+00 0.2470000D+00
EXPONENTS  0.2470000D+00 0.2470000D+00 0.2470000D+00 0.2470000D+00 0.3387000D+02
EXPONENTS  0.5095000D+01 0.1159000D+01 0.3258000D+00 0.1027000D+00 0.2526000D-01
EXPONENTS  0.1407000D+01 0.1407000D+01 0.1407000D+01 0.3880000D+00 0.3880000D+00
EXPONENTS  0.3880000D+00 0.1020000D+00 0.1020000D+00 0.1020000D+00 0.1057000D+01
EXPONENTS  0.1057000D+01 0.1057000D+01 0.1057000D+01 0.1057000D+01 0.1057000D+01
EXPONENTS  0.2470000D+00 0.2470000D+00 0.2470000D+00 0.2470000D+00 0.2470000D+00
EXPONENTS  0.2470000D+00 0.3387000D+02 0.5095000D+01 0.1159000D+01 0.3258000D+00
EXPONENTS  0.1027000D+00 0.2526000D-01 0.1407000D+01 0.1407000D+01 0.1407000D+01
EXPONENTS  0.3880000D+00 0.3880000D+00 0.3880000D+00 0.1020000D+00 0.1020000D+00
EXPONENTS  0.1020000D+00 0.1057000D+01 0.1057000D+01 0.1057000D+01 0.1057000D+01
EXPONENTS  0.1057000D+01 0.1057000D+01 0.2470000D+00 0.2470000D+00 0.2470000D+00
EXPONENTS  0.2470000D+00 0.2470000D+00 0.2470000D+00 0.3387000D+02 0.5095000D+01
EXPONENTS  0.1159000D+01 0.3258000D+00 0.1027000D+00 0.2526000D-01 0.1407000D+01
EXPONENTS  0.1407000D+01 0.1407000D+01 0.3880000D+00 0.3880000D+00 0.3880000D+00
EXPONENTS  0.1020000D+00 0.1020000D+00 0.1020000D+00 0.1057000D+01 0.1057000D+01
EXPONENTS  0.1057000D+01 0.1057000D+01 0.1057000D+01 0.1057000D+01 0.2470000D+00
EXPONENTS  0.2470000D+00 0.2470000D+00 0.2470000D+00 0.2470000D+00 0.2470000D+00
EXPONENTS  0.3387000D+02 0.5095000D+01 0.1159000D+01 0.3258000D+00 0.1027000D+00
EXPONENTS  0.2526000D-01 0.1407000D+01 0.1407000D+01 0.1407000D+01 0.3880000D+00
EXPONENTS  0.3880000D+00 0.3880000D+00 0.1020000D+00 0.1020000D+00 0.1020000D+00
EXPONENTS  0.1057000D+01 0.1057000D+01 0.1057000D+01 0.1057000D+01 0.1057000D+01
EXPONENTS  0.1057000D+01 0.2470000D+00 0.2470000D+00 0.2470000D+00 0.2470000D+00
EXPONENTS  0.2470000D+00 0.2470000D+00
MO    1     MO 0.0        OCC NO =    2.0000000  ORB. ENERGY =  -10.537476
  0.19084762D+00  0.35578335D+00  0.60133653D+00  0.90400578D+00  0.11106756D+01
  0.93814306D+00  0.35383304D+00 -0.17511395D-02 -0.17803369D-02 -0.33333524D-02
 -0.56753176D-02 -0.87788534D-02 -0.11561441D-01 -0.12013078D-01 -0.76337717D-02
  0.51159763D-02  0.19775118D-01  0.10929641D-02  0.68765128D-04  0.19161410D-13
  0.17965040D-13  0.12792178D-13 -0.19464857D-02 -0.18249540D-02 -0.12994760D-02
 -0.48353464D-14 -0.45334446D-14 -0.32280826D-14  0.15019825D-12 -0.52832903D-03
  0.24282345D-13  0.16949386D-12  0.41135922D-03  0.50254619D-13 -0.90607731D-14
 -0.27972525D-05 -0.10238699D-14 -0.25863338D-02  0.20029595D-02  0.58337436D-03
 -0.99488409D-13  0.93130128D-14  0.17512729D-14  0.28570228D-03 -0.10075523D-02
  0.72184999D-03  0.43841958D-13  0.26044666D-13  0.34041236D-13  0.12520839D-04
 -0.11955570D-03  0.10703486D-03 -0.54400906D-14  0.10703718D-13  0.25752804D-13
 -0.71375746D-14 -0.35541091D-03  0.17845245D-14 -0.81619298D-14  0.42018859D-03
 -0.40472784D-14  0.29574654D-13  0.64604415D-03 -0.13062949D-14 -0.31090772D-13
  0.79283765D-14  0.19216018D-03  0.30267354D-14 -0.49559476D-13  0.95492917D-04
 -0.43627589D-14  0.25774346D-13 -0.67197346D-03 -0.47174474D-14  0.38617969D-14
  0.19051863D+00  0.35517004D+00  0.60029994D+00  0.90244745D+00  0.11087610D+01
  0.93652588D+00  0.35322310D+00 -0.17481209D-02 -0.17774070D-02 -0.33278666D-02
 -0.56659777D-02 -0.87644059D-02 -0.11542414D-01 -0.11993308D-01 -0.76212087D-02
  0.51075568D-02  0.19741505D-01  0.11158337D-02  0.70559005D-04 -0.16838153D-02
 -0.15786838D-02 -0.11241169D-02  0.97267073D-03  0.91194064D-03  0.64935606D-03
 -0.11092038D-13 -0.10399491D-13 -0.74050570D-14 -0.46018132D-03  0.26790725D-03
  0.43420293D-13  0.35412785D-03 -0.20325741D-03  0.14070482D-12 -0.24992790D-05
  0.14809574D-05 -0.19634295D-14  0.85468316D-03 -0.14358379D-02  0.58115472D-03
 -0.39712405D-02 -0.28028023D-14  0.11576978D-13 -0.68272415D-03 -0.38505640D-04
  0.72122979D-03  0.11174290D-02  0.73147737D-13 -0.23936825D-13 -0.86449401D-04
 -0.20413233D-04  0.10686263D-03  0.11417063D-03  0.79290434D-13 -0.43798815D-13
 -0.13919159D-03 -0.11453952D-03  0.32728101D-14 -0.13854920D-03  0.66419619D-03
 -0.14452458D-13  0.55612397D-03 -0.32057762D-03  0.46340275D-14 -0.15821741D-13
  0.14465332D-03 -0.59440179D-04  0.75352778D-14  0.14522256D-03 -0.15648666D-03
 -0.10131451D-13 -0.57918252D-03  0.33480720D-03 -0.12474382D-13  0.55154445D-14
  0.19051863D+00  0.35517004D+00  0.60029994D+00  0.90244745D+00  0.11087610D+01
  0.93652588D+00  0.35322310D+00 -0.17481209D-02 -0.17774070D-02 -0.33278666D-02
 -0.56659777D-02 -0.87644059D-02 -0.11542414D-01 -0.11993308D-01 -0.76212087D-02
  0.51075568D-02  0.19741505D-01  0.11158337D-02  0.70559004D-04  0.16838153D-02
  0.15786838D-02  0.11241169D-02  0.97267073D-03  0.91194064D-03  0.64935606D-03
  0.32932506D-13  0.30876318D-13  0.21985778D-13  0.46018132D-03  0.26790725D-03
 -0.13857422D-12 -0.35412785D-03 -0.20325741D-03 -0.25157619D-12  0.24992789D-05
  0.14809573D-05  0.34957746D-14  0.85468316D-03 -0.14358379D-02  0.58115472D-03
  0.39712405D-02  0.56008048D-14  0.22817440D-15 -0.68272415D-03 -0.38505640D-04
  0.72122979D-03 -0.11174290D-02  0.13995666D-12  0.73183373D-13 -0.86449401D-04
 -0.20413233D-04  0.10686263D-03 -0.11417063D-03  0.11122059D-12  0.64186927D-13
  0.13919159D-03 -0.11453952D-03 -0.61373419D-14  0.13854920D-03  0.66419619D-03
  0.80095051D-14 -0.55612397D-03 -0.32057762D-03  0.10402521D-13 -0.23707270D-13
 -0.14465332D-03 -0.59440179D-04 -0.96898671D-14 -0.14522256D-03 -0.15648666D-03
  0.10956425D-13  0.57918252D-03  0.33480720D-03  0.18113177D-13 -0.16071428D-14
  0.18718110D-03  0.33758882D-03  0.49777451D-03 -0.36597439D-03 -0.78438564D-03
 -0.74758918D-05  0.24547467D-13  0.13080274D-03  0.52097748D-03 -0.67131424D-13
  0.14483982D-02  0.91938099D-03 -0.22807025D-13  0.25815373D-03  0.20249238D-04
  0.87281237D-03 -0.30308700D-03 -0.56972537D-03  0.66070835D-13  0.14122935D-13
 -0.27269906D-02  0.15141885D-03 -0.15924143D-03  0.78225766D-05  0.20427888D-13
  0.65749772D-14 -0.26272734D-03  0.18718110D-03  0.33758882D-03  0.49777451D-03
 -0.36597439D-03 -0.78438564D-03 -0.74758918D-05  0.13443766D-13  0.13080274D-03
 -0.52097748D-03 -0.45002329D-13  0.14483982D-02 -0.91938099D-03 -0.27819996D-13
  0.25815373D-03 -0.20249238D-04  0.87281237D-03 -0.30308700D-03 -0.56972537D-03
  0.41766364D-13 -0.35673408D-13  0.27269906D-02  0.15141885D-03 -0.15924143D-03
  0.78225766D-05  0.29819884D-13  0.99018126D-14  0.26272734D-03  0.18709573D-03
  0.33743486D-03  0.49754750D-03 -0.37126409D-03 -0.78521975D-03 -0.74001247D-05
  0.11254755D-03 -0.64783840D-04 -0.51935659D-03  0.12527911D-02 -0.72411803D-03
 -0.91788158D-03  0.22340010D-03 -0.12906082D-03 -0.20358108D-04 -0.92287730D-05
  0.57706209D-03 -0.56783332D-03  0.10172904D-02  0.23576147D-02 -0.13617639D-02
 -0.81430119D-04  0.73346549D-04  0.80835701D-05  0.26857875D-03  0.22707677D-03
 -0.13106874D-03  0.18709573D-03  0.33743486D-03  0.49754750D-03 -0.37126409D-03
 -0.78521975D-03 -0.74001247D-05  0.11254755D-03 -0.64783840D-04  0.51935659D-03
  0.12527911D-02 -0.72411803D-03  0.91788158D-03  0.22340010D-03 -0.12906082D-03
  0.20358108D-04 -0.92287730D-05  0.57706209D-03 -0.56783332D-03  0.10172904D-02
 -0.23576147D-02  0.13617639D-02 -0.81430119D-04  0.73346549D-04  0.80835701D-05
  0.26857875D-03 -0.22707677D-03  0.13106874D-03  0.18709573D-03  0.33743486D-03
  0.49754750D-03 -0.37126409D-03 -0.78521975D-03 -0.74001248D-05 -0.11254755D-03
 -0.64783840D-04  0.51935659D-03 -0.12527911D-02 -0.72411803D-03  0.91788158D-03
 -0.22340010D-03 -0.12906082D-03  0.20358108D-04 -0.92287730D-05  0.57706209D-03
 -0.56783332D-03 -0.10172904D-02  0.23576147D-02  0.13617639D-02 -0.81430119D-04
  0.73346549D-04  0.80835701D-05 -0.26857875D-03  0.22707677D-03  0.13106874D-03
  0.18709573D-03  0.33743486D-03  0.49754750D-03 -0.37126409D-03 -0.78521975D-03
 -0.74001248D-05 -0.11254755D-03 -0.64783840D-04 -0.51935659D-03 -0.12527911D-02
 -0.72411803D-03 -0.91788158D-03 -0.22340010D-03 -0.12906082D-03 -0.20358108D-04
 -0.92287730D-05  0.57706209D-03 -0.56783332D-03 -0.10172904D-02 -0.23576147D-02
 -0.13617639D-02 -0.81430119D-04  0.73346549D-04  0.80835701D-05 -0.26857875D-03
 -0.22707677D-03 -0.13106874D-03
MO    2     MO 0.0        OCC NO =    2.0000000  ORB. ENERGY =  -10.536837
  0.26927776D+00  0.50199496D+00  0.84845992D+00  0.12755132D+01  0.15671153D+01
  0.13236794D+01  0.49924317D+00 -0.24707823D-02 -0.23287578D-02 -0.43601693D-02
 -0.74235613D-02 -0.11483121D-01 -0.15122866D-01 -0.15713626D-01 -0.99853041D-02
  0.66919186D-02  0.27355156D-01 -0.17428171D-01 -0.13176218D-02 -0.93518535D-11
 -0.87679571D-11 -0.62433078D-11 -0.14666070D-02 -0.13750373D-02 -0.97910844D-03
  0.22691317D-13  0.21274552D-13  0.15148749D-13 -0.53195602D-10  0.35099215D-02
 -0.92575742D-13 -0.25217285D-10  0.22566964D-02 -0.16513442D-12 -0.75880828D-12
  0.79207332D-04  0.27899753D-14 -0.27723568D-02  0.10768394D-02  0.16955174D-02
  0.43848705D-10  0.63420803D-14  0.18877475D-14  0.10349942D-02 -0.15859036D-02
  0.55090942D-03 -0.19185722D-10  0.13125629D-13 -0.11698572D-12  0.14989705D-05
 -0.13353802D-03  0.13203905D-03  0.23429596D-11  0.69383037D-15 -0.92830981D-13
  0.46114764D-12 -0.22493718D-03 -0.40743354D-14  0.13186606D-10 -0.26293607D-02
  0.14072093D-13 -0.14570049D-10  0.33041723D-02 -0.18490871D-14 -0.18756527D-13
 -0.14577008D-11  0.52566539D-03 -0.67710969D-14  0.12855836D-10  0.81695216D-03
  0.12521200D-13 -0.84827335D-11 -0.23939483D-02  0.77920905D-14  0.64926510D-14
 -0.13487152D+00 -0.25143117D+00 -0.42496297D+00 -0.63885855D+00 -0.78491154D+00
 -0.66298327D+00 -0.25005290D+00  0.12375257D-02  0.11665024D-02  0.21840605D-02
  0.37185499D-02  0.57520313D-02  0.75752229D-02  0.78711419D-02  0.50017573D-02
 -0.33520614D-02 -0.13701524D-01  0.87117588D-02  0.65867390D-03  0.85604809D-03
  0.80259950D-03  0.57149866D-03  0.11422306D-04  0.10709138D-04  0.76255440D-05
 -0.22216552D-13 -0.20829429D-13 -0.14831795D-13 -0.27141694D-03  0.30385607D-02
  0.94981034D-13 -0.38703012D-03  0.15876252D-02  0.20162815D-12 -0.16312218D-04
  0.50941484D-04 -0.15345440D-14 -0.94895341D-03  0.17972325D-02 -0.84827910D-03
  0.64314767D-03 -0.20633864D-14 -0.18846819D-14  0.85532462D-03 -0.57887617D-03
 -0.27644845D-03 -0.68693949D-03  0.10180341D-12 -0.67991815D-13  0.23131567D-05
  0.63877142D-04 -0.66190299D-04 -0.11372907D-03  0.95251419D-13 -0.54456459D-13
  0.12336829D-03 -0.65477884D-03  0.43820326D-14  0.71968445D-03  0.54635655D-03
  0.20345640D-14 -0.10897893D-02  0.14179800D-02 -0.15180662D-13 -0.64459329D-14
 -0.47669681D-03  0.99968054D-04  0.79921613D-14  0.19392893D-03 -0.45537820D-04
 -0.11710819D-13  0.12361615D-02 -0.25436634D-03 -0.12265665D-13 -0.49538447D-14
 -0.13487151D+00 -0.25143115D+00 -0.42496294D+00 -0.63885850D+00 -0.78491149D+00
 -0.66298323D+00 -0.25005288D+00  0.12375257D-02  0.11665023D-02  0.21840604D-02
  0.37185497D-02  0.57520310D-02  0.75752225D-02  0.78711414D-02  0.50017570D-02
 -0.33520612D-02 -0.13701523D-01  0.87117583D-02  0.65867386D-03 -0.85604806D-03
 -0.80259947D-03 -0.57149863D-03  0.11422337D-04  0.10709167D-04  0.76255650D-05
  0.33046345D-14  0.30983049D-14  0.22061777D-14  0.27141682D-03  0.30385607D-02
 -0.12261779D-13  0.38703004D-03  0.15876251D-02 -0.45628633D-13  0.16312216D-04
  0.50941484D-04 -0.16723921D-14 -0.94895343D-03  0.17972325D-02 -0.84827904D-03
 -0.64314755D-03  0.39744404D-14 -0.46945932D-14  0.85532460D-03 -0.57887617D-03
 -0.27644843D-03  0.68693940D-03  0.25197900D-13 -0.16499635D-13  0.23131525D-05
  0.63877142D-04 -0.66190295D-04  0.11372907D-03  0.20974990D-13 -0.20875155D-14
 -0.12336827D-03 -0.65477881D-03 -0.91610246D-15 -0.71968443D-03  0.54635650D-03
  0.12458398D-13  0.10897892D-02  0.14179799D-02 -0.97100910D-14 -0.13178364D-13
  0.47669680D-03  0.99968041D-04 -0.98899288D-15 -0.19392895D-03 -0.45537825D-04
  0.80130822D-15 -0.12361615D-02 -0.25436630D-03  0.21656704D-14 -0.97697447D-15
  0.11362096D-03  0.20492007D-03  0.30215453D-03  0.39508010D-02  0.65999448D-03
 -0.56537659D-04 -0.26483627D-11  0.68101923D-03  0.12285746D-02  0.17058030D-10
  0.12045649D-02  0.13508350D-02  0.16130559D-11  0.11552482D-03 -0.77549057D-04
  0.15104186D-02  0.81279403D-04 -0.15916980D-02 -0.21184429D-10 -0.12068600D-10
 -0.35582982D-02  0.38439938D-03 -0.16419542D-03 -0.22020396D-03 -0.55501952D-11
  0.72567586D-12 -0.43829951D-03  0.11362096D-03  0.20492007D-03  0.30215453D-03
  0.39508010D-02  0.65999448D-03 -0.56537659D-04 -0.26566812D-11  0.68101923D-03
 -0.12285746D-02  0.17075754D-10  0.12045649D-02 -0.13508350D-02  0.16048980D-11
  0.11552482D-03  0.77549057D-04  0.15104186D-02  0.81279403D-04 -0.15916980D-02
 -0.21195646D-10  0.12057659D-10  0.35582982D-02  0.38439938D-03 -0.16419542D-03
 -0.22020396D-03 -0.55459666D-11 -0.71437903D-12  0.43829951D-03 -0.57070086D-04
 -0.10292825D-03 -0.15176765D-03 -0.19745260D-02 -0.32870284D-03  0.28280359D-04
 -0.23297647D-03  0.27770664D-03  0.61487986D-03 -0.92327679D-03 -0.39077083D-03
  0.67657923D-03 -0.87735738D-04 -0.35658765D-04 -0.38762774D-04  0.21106261D-03
 -0.10076014D-02  0.79653879D-03 -0.12323331D-03 -0.18266505D-02  0.40121422D-03
  0.12610883D-03 -0.23618895D-03  0.11008012D-03 -0.10800813D-03 -0.17312546D-03
  0.13909380D-03 -0.57070086D-04 -0.10292825D-03 -0.15176765D-03 -0.19745260D-02
 -0.32870285D-03  0.28280359D-04 -0.23297647D-03  0.27770664D-03 -0.61487986D-03
 -0.92327679D-03 -0.39077083D-03 -0.67657923D-03 -0.87735738D-04 -0.35658765D-04
  0.38762774D-04  0.21106261D-03 -0.10076014D-02  0.79653879D-03 -0.12323331D-03
  0.18266505D-02 -0.40121422D-03  0.12610883D-03 -0.23618895D-03  0.11008012D-03
 -0.10800813D-03  0.17312546D-03 -0.13909380D-03 -0.57070082D-04 -0.10292824D-03
 -0.15176764D-03 -0.19745259D-02 -0.32870282D-03  0.28280357D-04  0.23297645D-03
  0.27770663D-03 -0.61487982D-03  0.92327677D-03 -0.39077087D-03 -0.67657919D-03
  0.87735736D-04 -0.35658769D-04  0.38762772D-04  0.21106263D-03 -0.10076014D-02
  0.79653874D-03  0.12323326D-03 -0.18266504D-02 -0.40121415D-03  0.12610883D-03
 -0.23618895D-03  0.11008011D-03  0.10800811D-03 -0.17312544D-03 -0.13909380D-03
 -0.57070082D-04 -0.10292824D-03 -0.15176764D-03 -0.19745259D-02 -0.32870282D-03
  0.28280357D-04  0.23297645D-03  0.27770663D-03  0.61487982D-03  0.92327677D-03
 -0.39077087D-03  0.67657919D-03  0.87735736D-04 -0.35658769D-04 -0.38762772D-04
  0.21106263D-03 -0.10076014D-02  0.79653874D-03  0.12323326D-03  0.18266504D-02
  0.40121415D-03  0.12610883D-03 -0.23618895D-03  0.11008011D-03  0.10800811D-03
  0.17312544D-03  0.13909380D-03
MO    3     MO 0.0        OCC NO =    2.0000000  ORB. ENERGY =  -10.536836
 -0.49649616D-08 -0.92558172D-08 -0.15643962D-07 -0.23517999D-07 -0.28894579D-07
 -0.24406091D-07 -0.92050795D-08  0.45556452D-10  0.42964611D-10  0.80443308D-10
  0.13696161D-09  0.21185879D-09  0.27901058D-09  0.28990986D-09  0.18422470D-09
 -0.12346311D-09 -0.50449225D-09  0.32356919D-09  0.23776362D-10 -0.50570783D-03
 -0.47413323D-03 -0.33761111D-03  0.26986525D-10  0.25301583D-10  0.18016234D-10
 -0.12580789D-14 -0.11795289D-14 -0.83989485D-15 -0.28822226D-02 -0.64653386D-10
  0.24055755D-14 -0.13642899D-02 -0.42114693D-10  0.89729812D-13 -0.41518355D-04
 -0.14192431D-11 -0.22144378D-14  0.51071482D-10 -0.19837727D-10 -0.31233754D-10
  0.23754360D-02 -0.52470548D-14 -0.63451478D-14 -0.19209110D-10  0.29331589D-10
 -0.10122480D-10 -0.10374771D-02 -0.70969830D-14  0.22770273D-13  0.27503379D-14
  0.25155241D-11 -0.25182744D-11  0.12725464D-03  0.24744528D-14  0.78692159D-13
  0.25008364D-04  0.40987609D-11  0.91141234D-15  0.71369025D-03  0.48643103D-10
  0.53407698D-15 -0.78871535D-03 -0.60939386D-10 -0.32683140D-14  0.14702075D-13
 -0.78791684D-04 -0.97231564D-11  0.51417510D-14  0.69565210D-03 -0.15145716D-10
 -0.32294377D-14 -0.45927705D-03  0.44315185D-10 -0.12195815D-13 -0.79633427D-14
 -0.23333581D+00 -0.43499101D+00 -0.73521143D+00 -0.11052636D+01 -0.13579440D+01
 -0.11470008D+01 -0.43260651D+00  0.21409938D-02  0.20180237D-02  0.37783770D-02
  0.64330102D-02  0.99508886D-02  0.13104970D-01  0.13616903D-01  0.86529309D-02
 -0.57989930D-02 -0.23704397D-01  0.15094280D-01  0.11412260D-02  0.97433961D-03
  0.91350532D-03  0.65047021D-03 -0.85482363D-03 -0.80145149D-03 -0.57068120D-03
  0.13686053D-13  0.12831545D-13  0.91368243D-14 -0.33514521D-02  0.27177270D-03
 -0.51644426D-13 -0.20342827D-02  0.38650590D-03 -0.14459702D-12 -0.69803420D-04
  0.16311107D-04 -0.44754729D-15  0.41455969D-03  0.10539037D-02 -0.14684634D-02
  0.34835631D-02  0.54156605D-14  0.24937113D-14  0.58144345D-03 -0.10416171D-03
 -0.47728174D-03 -0.22263058D-02 -0.52926565D-13  0.34303507D-13  0.11403274D-03
  0.39838446D-06 -0.11443112D-03 -0.69557366D-04 -0.70861626D-13  0.40294306D-13
  0.75488327D-03 -0.79274894D-03 -0.31839672D-14  0.41032970D-03  0.12890151D-02
 -0.19791455D-14 -0.26749795D-02  0.10892317D-02  0.11531047D-13  0.10351559D-14
 -0.32343165D-03  0.37205158D-03 -0.58781014D-14 -0.71067641D-03  0.11987255D-03
  0.13427781D-13  0.16809714D-02 -0.12360273D-02  0.42065228D-14 -0.11648994D-15
  0.23333582D+00  0.43499102D+00  0.73521145D+00  0.11052636D+01  0.13579441D+01
  0.11470009D+01  0.43260652D+00 -0.21409938D-02 -0.20180237D-02 -0.37783771D-02
 -0.64330103D-02 -0.99508888D-02 -0.13104970D-01 -0.13616904D-01 -0.86529310D-02
  0.57989932D-02  0.23704397D-01 -0.15094280D-01 -0.11412260D-02  0.97433964D-03
  0.91350535D-03  0.65047023D-03  0.85482363D-03  0.80145149D-03  0.57068120D-03
  0.43355867D-14  0.40648882D-14  0.28944425D-14 -0.33514521D-02 -0.27177281D-03
 -0.23053272D-13 -0.20342827D-02 -0.38650596D-03 -0.24564431D-13 -0.69803420D-04
 -0.16311109D-04  0.28625573D-14 -0.41455966D-03 -0.10539038D-02  0.14684635D-02
  0.34835631D-02 -0.82009605D-15  0.79458956D-14 -0.58144349D-03  0.10416173D-03
  0.47728175D-03 -0.22263058D-02  0.16001609D-14  0.17388388D-13 -0.11403274D-03
 -0.39838683D-06  0.11443113D-03 -0.69557371D-04  0.61012148D-14  0.14559435D-13
  0.75488327D-03  0.79274896D-03  0.10227829D-14  0.41032972D-03 -0.12890151D-02
 -0.12647584D-13 -0.26749795D-02 -0.10892318D-02  0.95792352D-14  0.68317683D-14
 -0.32343167D-03 -0.37205159D-03  0.98711116D-15 -0.71067640D-03 -0.11987255D-03
  0.13450782D-15  0.16809714D-02  0.12360273D-02 -0.30958413D-14 -0.64680641D-14
 -0.20895394D-11 -0.37685704D-11 -0.55567549D-11 -0.73508102D-10 -0.12395170D-10
  0.10206460D-11 -0.14312601D-03 -0.12575333D-10 -0.22637511D-10  0.92365330D-03
 -0.22079874D-10 -0.24766050D-10  0.86295938D-04 -0.21585587D-11  0.15681657D-11
 -0.27840831D-10 -0.14998954D-11  0.29340726D-10 -0.11475787D-02 -0.65349210D-03
  0.65570970D-10 -0.71004315D-11  0.30359371D-11  0.40644943D-11 -0.29995900D-03
  0.39154038D-04  0.80664655D-11 -0.20902282D-11 -0.37698127D-11 -0.55585866D-11
 -0.73447074D-10 -0.11483619D-10  0.10158519D-11 -0.14312601D-03 -0.12574593D-10
  0.22644945D-10  0.92365330D-03 -0.22112870D-10  0.24757043D-10  0.86295938D-04
 -0.21848724D-11 -0.14592921D-11 -0.27847626D-10 -0.14911844D-11  0.29338810D-10
 -0.11475787D-02  0.65349210D-03 -0.65564949D-10 -0.70959873D-11  0.30369006D-11
  0.40590867D-11 -0.29995900D-03 -0.39154038D-04 -0.80710519D-11 -0.98608998D-04
 -0.17784539D-03 -0.26223292D-03 -0.34221650D-02 -0.57110092D-03  0.48976896D-04
 -0.54644239D-03  0.23274598D-03  0.10639576D-02 -0.67291960D-03  0.92216109D-03
  0.11701883D-02 -0.65193616D-04  0.87505198D-04 -0.67166862D-04 -0.62839844D-03
 -0.75043467D-03  0.13788331D-02 -0.13594930D-02 -0.25066530D-02  0.18247522D-02
 -0.41498949D-04 -0.14919443D-03  0.19069338D-03 -0.48666535D-03 -0.33863548D-03
  0.17293108D-03 -0.98608998D-04 -0.17784539D-03 -0.26223292D-03 -0.34221650D-02
 -0.57110092D-03  0.48976896D-04 -0.54644239D-03  0.23274598D-03 -0.10639576D-02
 -0.67291960D-03  0.92216109D-03 -0.11701883D-02 -0.65193616D-04  0.87505198D-04
  0.67166862D-04 -0.62839844D-03 -0.75043467D-03  0.13788331D-02 -0.13594930D-02
  0.25066530D-02 -0.18247522D-02 -0.41498949D-04 -0.14919443D-03  0.19069338D-03
 -0.48666535D-03  0.33863548D-03 -0.17293108D-03  0.98609000D-04  0.17784539D-03
  0.26223293D-03  0.34221650D-02  0.57110093D-03 -0.48976897D-04 -0.54644239D-03
 -0.23274599D-03  0.10639576D-02 -0.67291964D-03 -0.92216107D-03  0.11701884D-02
 -0.65193619D-04 -0.87505196D-04 -0.67166863D-04  0.62839843D-03  0.75043471D-03
 -0.13788331D-02 -0.13594930D-02  0.25066531D-02  0.18247522D-02  0.41498944D-04
  0.14919444D-03 -0.19069338D-03 -0.48666535D-03  0.33863548D-03  0.17293108D-03
  0.98609000D-04  0.17784539D-03  0.26223293D-03  0.34221650D-02  0.57110093D-03
 -0.48976897D-04 -0.54644239D-03 -0.23274599D-03 -0.10639576D-02 -0.67291964D-03
 -0.92216107D-03 -0.11701884D-02 -0.65193619D-04 -0.87505196D-04  0.67166863D-04
  0.62839843D-03  0.75043471D-03 -0.13788331D-02 -0.13594930D-02 -0.25066531D-02
 -0.18247522D-02  0.41498944D-04  0.14919444D-03 -0.19069338D-03 -0.48666535D-03
 -0.33863548D-03 -0.17293108D-03
MO    4     MO 0.0        OCC NO =    2.0000000  ORB. ENERGY =   -0.948886
 -0.55187894D-02 -0.10288278D-01 -0.17389002D-01 -0.26141367D-01 -0.32117689D-01
 -0.27128523D-01 -0.10231881D-01  0.50638149D-04 -0.33268513D-01 -0.62289153D-01
 -0.10605261D+00 -0.16404727D+00 -0.21604448D+00 -0.22448405D+00 -0.14264954D+00
  0.95600403D-01  0.39081965D-01  0.27663141D-01  0.54993632D-03 -0.15760824D-12
 -0.14776774D-12 -0.10521944D-12 -0.14251952D+00 -0.13362111D+00 -0.95146189D-01
 -0.27531617D-12 -0.25812641D-12 -0.18380138D-12  0.83892606D-12 -0.23332444D-01
  0.13201882D-11  0.11171870D-11  0.11584710D-02  0.32787066D-11  0.37537361D-13