 Molden2AIM, Version 4.0.0 (06/02/2016)           Time: Thu Jun 28 06:53:13 2018
GAUSSIAN             21 MOL ORBITALS    618 PRIMITIVES       14 NUCLEI
  O    1    (CENTRE  1)  -0.00023244  0.00000000 -3.09075479  CHARGE =  8.0
  N    2    (CENTRE  2)  -0.00005291  0.00000000 -0.54116654  CHARGE =  7.0
  C    3    (CENTRE  3)   1.32641766 -2.29736273  0.40649899  CHARGE =  6.0
  C    4    (CENTRE  4)   1.32641766  2.29736273  0.40649899  CHARGE =  6.0
  C    5    (CENTRE  5)  -2.65281265  0.00000000  0.40654056  CHARGE =  6.0
  H    6    (CENTRE  6)   1.35731091 -2.35116323  2.48241983  CHARGE =  1.0
  H    7    (CENTRE  7)   1.35731091  2.35116323  2.48241983  CHARGE =  1.0
  H    8    (CENTRE  8)  -2.71478244  0.00000000  2.48247085  CHARGE =  1.0
  H    9    (CENTRE  9)   0.32331324 -3.92989335 -0.36686765  CHARGE =  1.0
  H   10    (CENTRE 10)   3.24188753  2.24462992 -0.36660687  CHARGE =  1.0
  H   11    (CENTRE 11)  -3.56498723 -1.68509335 -0.36669380  CHARGE =  1.0
  H   12    (CENTRE 12)   3.24188753 -2.24462992 -0.36660687  CHARGE =  1.0
  H   13    (CENTRE 13)   0.32331324  3.92989335 -0.36686765  CHARGE =  1.0
  H   14    (CENTRE 14)  -3.56498723  1.68509335 -0.36669380  CHARGE =  1.0
CENTRE ASSIGNMENTS    1  1  1  1  1  1  1  1  1  1  1  1  1  1  1  1  1  1  1  1
CENTRE ASSIGNMENTS    1  1  1  1  1  1  1  1  1  1  1  1  1  1  1  1  1  1  1  1
CENTRE ASSIGNMENTS    1  1  1  1  1  1  1  1  1  1  1  1  1  1  1  1  1  1  1  1
CENTRE ASSIGNMENTS    1  1  1  1  1  1  1  1  1  1  1  1  1  1  1  2  2  2  2  2
CENTRE ASSIGNMENTS    2  2  2  2  2  2  2  2  2  2  2  2  2  2  2  2  2  2  2  2
CENTRE ASSIGNMENTS    2  2  2  2  2  2  2  2  2  2  2  2  2  2  2  2  2  2  2  2
CENTRE ASSIGNMENTS    2  2  2  2  2  2  2  2  2  2  2  2  2  2  2  2  2  2  2  2
CENTRE ASSIGNMENTS    2  2  2  2  2  2  2  2  2  2  3  3  3  3  3  3  3  3  3  3
CENTRE ASSIGNMENTS    3  3  3  3  3  3  3  3  3  3  3  3  3  3  3  3  3  3  3  3
CENTRE ASSIGNMENTS    3  3  3  3  3  3  3  3  3  3  3  3  3  3  3  3  3  3  3  3
CENTRE ASSIGNMENTS    3  3  3  3  3  3  3  3  3  3  3  3  3  3  3  3  3  3  3  3
CENTRE ASSIGNMENTS    3  3  3  3  3  4  4  4  4  4  4  4  4  4  4  4  4  4  4  4
CENTRE ASSIGNMENTS    4  4  4  4  4  4  4  4  4  4  4  4  4  4  4  4  4  4  4  4
CENTRE ASSIGNMENTS    4  4  4  4  4  4  4  4  4  4  4  4  4  4  4  4  4  4  4  4
CENTRE ASSIGNMENTS    4  4  4  4  4  4  4  4  4  4  4  4  4  4  4  4  4  4  4  4
CENTRE ASSIGNMENTS    5  5  5  5  5  5  5  5  5  5  5  5  5  5  5  5  5  5  5  5
CENTRE ASSIGNMENTS    5  5  5  5  5  5  5  5  5  5  5  5  5  5  5  5  5  5  5  5
CENTRE ASSIGNMENTS    5  5  5  5  5  5  5  5  5  5  5  5  5  5  5  5  5  5  5  5
CENTRE ASSIGNMENTS    5  5  5  5  5  5  5  5  5  5  5  5  5  5  5  6  6  6  6  6
CENTRE ASSIGNMENTS    6  6  6  6  6  6  6  6  6  6  6  6  6  6  6  6  6  6  6  6
CENTRE ASSIGNMENTS    6  6  7  7  7  7  7  7  7  7  7  7  7  7  7  7  7  7  7  7
CENTRE ASSIGNMENTS    7  7  7  7  7  7  7  7  7  8  8  8  8  8  8  8  8  8  8  8
CENTRE ASSIGNMENTS    8  8  8  8  8  8  8  8  8  8  8  8  8  8  8  8  9  9  9  9
CENTRE ASSIGNMENTS    9  9  9  9  9  9  9  9  9  9  9  9  9  9  9  9  9  9  9  9
CENTRE ASSIGNMENTS    9  9  9 10 10 10 10 10 10 10 10 10 10 10 10 10 10 10 10 10
CENTRE ASSIGNMENTS   10 10 10 10 10 10 10 10 10 10 11 11 11 11 11 11 11 11 11 11
CENTRE ASSIGNMENTS   11 11 11 11 11 11 11 11 11 11 11 11 11 11 11 11 11 12 12 12
CENTRE ASSIGNMENTS   12 12 12 12 12 12 12 12 12 12 12 12 12 12 12 12 12 12 12 12
CENTRE ASSIGNMENTS   12 12 12 12 13 13 13 13 13 13 13 13 13 13 13 13 13 13 13 13
CENTRE ASSIGNMENTS   13 13 13 13 13 13 13 13 13 13 13 14 14 14 14 14 14 14 14 14
CENTRE ASSIGNMENTS   14 14 14 14 14 14 14 14 14 14 14 14 14 14 14 14 14 14
TYPE ASSIGNMENTS      1  1  1  1  1  1  1  1  1  1  1  1  1  1  1  1  1  1  1  2
TYPE ASSIGNMENTS      2  2  3  3  3  4  4  4  2  3  4  2  3  4  2  3  4  5  6  7
TYPE ASSIGNMENTS      8  9 10  5  6  7  8  9 10  5  6  7  8  9 10 11 12 13 17 14
TYPE ASSIGNMENTS     15 18 19 16 20 11 12 13 17 14 15 18 19 16 20  1  1  1  1  1
TYPE ASSIGNMENTS      1  1  1  1  1  1  1  1  1  1  1  1  1  1  2  2  2  3  3  3
TYPE ASSIGNMENTS      4  4  4  2  3  4  2  3  4  2  3  4  5  6  7  8  9 10  5  6
TYPE ASSIGNMENTS      7  8  9 10  5  6  7  8  9 10 11 12 13 17 14 15 18 19 16 20
TYPE ASSIGNMENTS     11 12 13 17 14 15 18 19 16 20  1  1  1  1  1  1  1  1  1  1
TYPE ASSIGNMENTS      1  1  1  1  1  1  1  1  1  2  2  2  3  3  3  4  4  4  2  3
TYPE ASSIGNMENTS      4  2  3  4  2  3  4  5  6  7  8  9 10  5  6  7  8  9 10  5
TYPE ASSIGNMENTS      6  7  8  9 10 11 12 13 17 14 15 18 19 16 20 11 12 13 17 14
TYPE ASSIGNMENTS     15 18 19 16 20  1  1  1  1  1  1  1  1  1  1  1  1  1  1  1
TYPE ASSIGNMENTS      1  1  1  1  2  2  2  3  3  3  4  4  4  2  3  4  2  3  4  2
TYPE ASSIGNMENTS      3  4  5  6  7  8  9 10  5  6  7  8  9 10  5  6  7  8  9 10
TYPE ASSIGNMENTS     11 12 13 17 14 15 18 19 16 20 11 12 13 17 14 15 18 19 16 20
TYPE ASSIGNMENTS      1  1  1  1  1  1  1  1  1  1  1  1  1  1  1  1  1  1  1  2
TYPE ASSIGNMENTS      2  2  3  3  3  4  4  4  2  3  4  2  3  4  2  3  4  5  6  7
TYPE ASSIGNMENTS      8  9 10  5  6  7  8  9 10  5  6  7  8  9 10 11 12 13 17 14
TYPE ASSIGNMENTS     15 18 19 16 20 11 12 13 17 14 15 18 19 16 20  1  1  1  1  1
TYPE ASSIGNMENTS      1  2  3  4  2  3  4  2  3  4  5  6  7  8  9 10  5  6  7  8
TYPE ASSIGNMENTS      9 10  1  1  1  1  1  1  2  3  4  2  3  4  2  3  4  5  6  7
TYPE ASSIGNMENTS      8  9 10  5  6  7  8  9 10  1  1  1  1  1  1  2  3  4  2  3
TYPE ASSIGNMENTS      4  2  3  4  5  6  7  8  9 10  5  6  7  8  9 10  1  1  1  1
TYPE ASSIGNMENTS      1  1  2  3  4  2  3  4  2  3  4  5  6  7  8  9 10  5  6  7
TYPE ASSIGNMENTS      8  9 10  1  1  1  1  1  1  2  3  4  2  3  4  2  3  4  5  6
TYPE ASSIGNMENTS      7  8  9 10  5  6  7  8  9 10  1  1  1  1  1  1  2  3  4  2
TYPE ASSIGNMENTS      3  4  2  3  4  5  6  7  8  9 10  5  6  7  8  9 10  1  1  1
TYPE ASSIGNMENTS      1  1  1  2  3  4  2  3  4  2  3  4  5  6  7  8  9 10  5  6
TYPE ASSIGNMENTS      7  8  9 10  1  1  1  1  1  1  2  3  4  2  3  4  2  3  4  5
TYPE ASSIGNMENTS      6  7  8  9 10  5  6  7  8  9 10  1  1  1  1  1  1  2  3  4
TYPE ASSIGNMENTS      2  3  4  2  3  4  5  6  7  8  9 10  5  6  7  8  9 10
EXPONENTS  0.1533000D+05 0.2299000D+04 0.5224000D+03 0.1473000D+03 0.4755000D+02
EXPONENTS  0.1676000D+02 0.6207000D+01 0.6882000D+00 0.1533000D+05 0.2299000D+04
EXPONENTS  0.5224000D+03 0.1473000D+03 0.4755000D+02 0.1676000D+02 0.6207000D+01
EXPONENTS  0.6882000D+00 0.1752000D+01 0.2384000D+00 0.7376000D-01 0.3446000D+02
EXPONENTS  0.7749000D+01 0.2280000D+01 0.3446000D+02 0.7749000D+01 0.2280000D+01
EXPONENTS  0.3446000D+02 0.7749000D+01 0.2280000D+01 0.7156000D+00 0.7156000D+00
EXPONENTS  0.7156000D+00 0.2140000D+00 0.2140000D+00 0.2140000D+00 0.5974000D-01
EXPONENTS  0.5974000D-01 0.5974000D-01 0.2314000D+01 0.2314000D+01 0.2314000D+01
EXPONENTS  0.2314000D+01 0.2314000D+01 0.2314000D+01 0.6450000D+00 0.6450000D+00
EXPONENTS  0.6450000D+00 0.6450000D+00 0.6450000D+00 0.6450000D+00 0.2140000D+00
EXPONENTS  0.2140000D+00 0.2140000D+00 0.2140000D+00 0.2140000D+00 0.2140000D+00
EXPONENTS  0.1428000D+01 0.1428000D+01 0.1428000D+01 0.1428000D+01 0.1428000D+01
EXPONENTS  0.1428000D+01 0.1428000D+01 0.1428000D+01 0.1428000D+01 0.1428000D+01
EXPONENTS  0.5000000D+00 0.5000000D+00 0.5000000D+00 0.5000000D+00 0.5000000D+00
EXPONENTS  0.5000000D+00 0.5000000D+00 0.5000000D+00 0.5000000D+00 0.5000000D+00
EXPONENTS  0.1142000D+05 0.1712000D+04 0.3893000D+03 0.1100000D+03 0.3557000D+02
EXPONENTS  0.1254000D+02 0.4644000D+01 0.5118000D+00 0.1142000D+05 0.1712000D+04
EXPONENTS  0.3893000D+03 0.1100000D+03 0.3557000D+02 0.1254000D+02 0.4644000D+01
EXPONENTS  0.5118000D+00 0.1293000D+01 0.1787000D+00 0.5760000D-01 0.2663000D+02
EXPONENTS  0.5948000D+01 0.1742000D+01 0.2663000D+02 0.5948000D+01 0.1742000D+01
EXPONENTS  0.2663000D+02 0.5948000D+01 0.1742000D+01 0.5550000D+00 0.5550000D+00
EXPONENTS  0.5550000D+00 0.1725000D+00 0.1725000D+00 0.1725000D+00 0.4910000D-01
EXPONENTS  0.4910000D-01 0.4910000D-01 0.1654000D+01 0.1654000D+01 0.1654000D+01
EXPONENTS  0.1654000D+01 0.1654000D+01 0.1654000D+01 0.4690000D+00 0.4690000D+00
EXPONENTS  0.4690000D+00 0.4690000D+00 0.4690000D+00 0.4690000D+00 0.1510000D+00
EXPONENTS  0.1510000D+00 0.1510000D+00 0.1510000D+00 0.1510000D+00 0.1510000D+00
EXPONENTS  0.1093000D+01 0.1093000D+01 0.1093000D+01 0.1093000D+01 0.1093000D+01
EXPONENTS  0.1093000D+01 0.1093000D+01 0.1093000D+01 0.1093000D+01 0.1093000D+01
EXPONENTS  0.3640000D+00 0.3640000D+00 0.3640000D+00 0.3640000D+00 0.3640000D+00
EXPONENTS  0.3640000D+00 0.3640000D+00 0.3640000D+00 0.3640000D+00 0.3640000D+00
EXPONENTS  0.8236000D+04 0.1235000D+04 0.2808000D+03 0.7927000D+02 0.2559000D+02
EXPONENTS  0.8997000D+01 0.3319000D+01 0.3643000D+00 0.8236000D+04 0.1235000D+04
EXPONENTS  0.2808000D+03 0.7927000D+02 0.2559000D+02 0.8997000D+01 0.3319000D+01
EXPONENTS  0.3643000D+00 0.9059000D+00 0.1285000D+00 0.4402000D-01 0.1871000D+02
EXPONENTS  0.4133000D+01 0.1200000D+01 0.1871000D+02 0.4133000D+01 0.1200000D+01
EXPONENTS  0.1871000D+02 0.4133000D+01 0.1200000D+01 0.3827000D+00 0.3827000D+00
EXPONENTS  0.3827000D+00 0.1209000D+00 0.1209000D+00 0.1209000D+00 0.3569000D-01
EXPONENTS  0.3569000D-01 0.3569000D-01 0.1097000D+01 0.1097000D+01 0.1097000D+01
EXPONENTS  0.1097000D+01 0.1097000D+01 0.1097000D+01 0.3180000D+00 0.3180000D+00
EXPONENTS  0.3180000D+00 0.3180000D+00 0.3180000D+00 0.3180000D+00 0.1000000D+00
EXPONENTS  0.1000000D+00 0.1000000D+00 0.1000000D+00 0.1000000D+00 0.1000000D+00
EXPONENTS  0.7610000D+00 0.7610000D+00 0.7610000D+00 0.7610000D+00 0.7610000D+00
EXPONENTS  0.7610000D+00 0.7610000D+00 0.7610000D+00 0.7610000D+00 0.7610000D+00
EXPONENTS  0.2680000D+00 0.2680000D+00 0.2680000D+00 0.2680000D+00 0.2680000D+00
EXPONENTS  0.2680000D+00 0.2680000D+00 0.2680000D+00 0.2680000D+00 0.2680000D+00
EXPONENTS  0.8236000D+04 0.1235000D+04 0.2808000D+03 0.7927000D+02 0.2559000D+02
EXPONENTS  0.8997000D+01 0.3319000D+01 0.3643000D+00 0.8236000D+04 0.1235000D+04
EXPONENTS  0.2808000D+03 0.7927000D+02 0.2559000D+02 0.8997000D+01 0.3319000D+01
EXPONENTS  0.3643000D+00 0.9059000D+00 0.1285000D+00 0.4402000D-01 0.1871000D+02
EXPONENTS  0.4133000D+01 0.1200000D+01 0.1871000D+02 0.4133000D+01 0.1200000D+01
EXPONENTS  0.1871000D+02 0.4133000D+01 0.1200000D+01 0.3827000D+00 0.3827000D+00
EXPONENTS  0.3827000D+00 0.1209000D+00 0.1209000D+00 0.1209000D+00 0.3569000D-01
EXPONENTS  0.3569000D-01 0.3569000D-01 0.1097000D+01 0.1097000D+01 0.1097000D+01
EXPONENTS  0.1097000D+01 0.1097000D+01 0.1097000D+01 0.3180000D+00 0.3180000D+00
EXPONENTS  0.3180000D+00 0.3180000D+00 0.3180000D+00 0.3180000D+00 0.1000000D+00
EXPONENTS  0.1000000D+00 0.1000000D+00 0.1000000D+00 0.1000000D+00 0.1000000D+00
EXPONENTS  0.7610000D+00 0.7610000D+00 0.7610000D+00 0.7610000D+00 0.7610000D+00
EXPONENTS  0.7610000D+00 0.7610000D+00 0.7610000D+00 0.7610000D+00 0.7610000D+00
EXPONENTS  0.2680000D+00 0.2680000D+00 0.2680000D+00 0.2680000D+00 0.2680000D+00
EXPONENTS  0.2680000D+00 0.2680000D+00 0.2680000D+00 0.2680000D+00 0.2680000D+00
EXPONENTS  0.8236000D+04 0.1235000D+04 0.2808000D+03 0.7927000D+02 0.2559000D+02
EXPONENTS  0.8997000D+01 0.3319000D+01 0.3643000D+00 0.8236000D+04 0.1235000D+04
EXPONENTS  0.2808000D+03 0.7927000D+02 0.2559000D+02 0.8997000D+01 0.3319000D+01
EXPONENTS  0.3643000D+00 0.9059000D+00 0.1285000D+00 0.4402000D-01 0.1871000D+02
EXPONENTS  0.4133000D+01 0.1200000D+01 0.1871000D+02 0.4133000D+01 0.1200000D+01
EXPONENTS  0.1871000D+02 0.4133000D+01 0.1200000D+01 0.3827000D+00 0.3827000D+00
EXPONENTS  0.3827000D+00 0.1209000D+00 0.1209000D+00 0.1209000D+00 0.3569000D-01
EXPONENTS  0.3569000D-01 0.3569000D-01 0.1097000D+01 0.1097000D+01 0.1097000D+01
EXPONENTS  0.1097000D+01 0.1097000D+01 0.1097000D+01 0.3180000D+00 0.3180000D+00
EXPONENTS  0.3180000D+00 0.3180000D+00 0.3180000D+00 0.3180000D+00 0.1000000D+00
EXPONENTS  0.1000000D+00 0.1000000D+00 0.1000000D+00 0.1000000D+00 0.1000000D+00
EXPONENTS  0.7610000D+00 0.7610000D+00 0.7610000D+00 0.7610000D+00 0.7610000D+00
EXPONENTS  0.7610000D+00 0.7610000D+00 0.7610000D+00 0.7610000D+00 0.7610000D+00
EXPONENTS  0.2680000D+00 0.2680000D+00 0.2680000D+00 0.2680000D+00 0.2680000D+00
EXPONENTS  0.2680000D+00 0.2680000D+00 0.2680000D+00 0.2680000D+00 0.2680000D+00
EXPONENTS  0.3387000D+02 0.5095000D+01 0.1159000D+01 0.3258000D+00 0.1027000D+00
EXPONENTS  0.2526000D-01 0.1407000D+01 0.1407000D+01 0.1407000D+01 0.3880000D+00
EXPONENTS  0.3880000D+00 0.3880000D+00 0.1020000D+00 0.1020000D+00 0.1020000D+00
EXPONENTS  0.1057000D+01 0.1057000D+01 0.1057000D+01 0.1057000D+01 0.1057000D+01
EXPONENTS  0.1057000D+01 0.2470000D+00 0.2470000D+00 0.2470000D+00 0.2470000D+00
EXPONENTS  0.2470000D+00 0.2470000D+00 0.3387000D+02 0.5095000D+01 0.1159000D+01
EXPONENTS  0.3258000D+00 0.1027000D+00 0.2526000D-01 0.1407000D+01 0.1407000D+01
EXPONENTS  0.1407000D+01 0.3880000D+00 0.3880000D+00 0.3880000D+00 0.1020000D+00
EXPONENTS  0.1020000D+00 0.1020000D+00 0.1057000D+01 0.1057000D+01 0.1057000D+01
EXPONENTS  0.1057000D+01 0.1057000D+01 0.1057000D+01 0.2470000D+00 0.2470000D+00
EXPONENTS  0.2470000D+00 0.2470000D+00 0.2470000D+00 0.2470000D+00 0.3387000D+02
EXPONENTS  0.5095000D+01 0.1159000D+01 0.3258000D+00 0.1027000D+00 0.2526000D-01
EXPONENTS  0.1407000D+01 0.1407000D+01 0.1407000D+01 0.3880000D+00 0.3880000D+00
EXPONENTS  0.3880000D+00 0.1020000D+00 0.1020000D+00 0.1020000D+00 0.1057000D+01
EXPONENTS  0.1057000D+01 0.1057000D+01 0.1057000D+01 0.1057000D+01 0.1057000D+01
EXPONENTS  0.2470000D+00 0.2470000D+00 0.2470000D+00 0.2470000D+00 0.2470000D+00
EXPONENTS  0.2470000D+00 0.3387000D+02 0.5095000D+01 0.1159000D+01 0.3258000D+00
EXPONENTS  0.1027000D+00 0.2526000D-01 0.1407000D+01 0.1407000D+01 0.1407000D+01
EXPONENTS  0.3880000D+00 0.3880000D+00 0.3880000D+00 0.1020000D+00 0.1020000D+00
EXPONENTS  0.1020000D+00 0.1057000D+01 0.1057000D+01 0.1057000D+01 0.1057000D+01
EXPONENTS  0.1057000D+01 0.1057000D+01 0.2470000D+00 0.2470000D+00 0.2470000D+00
EXPONENTS  0.2470000D+00 0.2470000D+00 0.2470000D+00 0.3387000D+02 0.5095000D+01
EXPONENTS  0.1159000D+01 0.3258000D+00 0.1027000D+00 0.2526000D-01 0.1407000D+01
EXPONENTS  0.1407000D+01 0.1407000D+01 0.3880000D+00 0.3880000D+00 0.3880000D+00
EXPONENTS  0.1020000D+00 0.1020000D+00 0.1020000D+00 0.1057000D+01 0.1057000D+01
EXPONENTS  0.1057000D+01 0.1057000D+01 0.1057000D+01 0.1057000D+01 0.2470000D+00
EXPONENTS  0.2470000D+00 0.2470000D+00 0.2470000D+00 0.2470000D+00 0.2470000D+00
EXPONENTS  0.3387000D+02 0.5095000D+01 0.1159000D+01 0.3258000D+00 0.1027000D+00
EXPONENTS  0.2526000D-01 0.1407000D+01 0.1407000D+01 0.1407000D+01 0.3880000D+00
EXPONENTS  0.3880000D+00 0.3880000D+00 0.1020000D+00 0.1020000D+00 0.1020000D+00
EXPONENTS  0.1057000D+01 0.1057000D+01 0.1057000D+01 0.1057000D+01 0.1057000D+01
EXPONENTS  0.1057000D+01 0.2470000D+00 0.2470000D+00 0.2470000D+00 0.2470000D+00
EXPONENTS  0.2470000D+00 0.2470000D+00 0.3387000D+02 0.5095000D+01 0.1159000D+01
EXPONENTS  0.3258000D+00 0.1027000D+00 0.2526000D-01 0.1407000D+01 0.1407000D+01
EXPONENTS  0.1407000D+01 0.3880000D+00 0.3880000D+00 0.3880000D+00 0.1020000D+00
EXPONENTS  0.1020000D+00 0.1020000D+00 0.1057000D+01 0.1057000D+01 0.1057000D+01
EXPONENTS  0.1057000D+01 0.1057000D+01 0.1057000D+01 0.2470000D+00 0.2470000D+00
EXPONENTS  0.2470000D+00 0.2470000D+00 0.2470000D+00 0.2470000D+00 0.3387000D+02
EXPONENTS  0.5095000D+01 0.1159000D+01 0.3258000D+00 0.1027000D+00 0.2526000D-01
EXPONENTS  0.1407000D+01 0.1407000D+01 0.1407000D+01 0.3880000D+00 0.3880000D+00
EXPONENTS  0.3880000D+00 0.1020000D+00 0.1020000D+00 0.1020000D+00 0.1057000D+01
EXPONENTS  0.1057000D+01 0.1057000D+01 0.1057000D+01 0.1057000D+01 0.1057000D+01
EXPONENTS  0.2470000D+00 0.2470000D+00 0.2470000D+00 0.2470000D+00 0.2470000D+00
EXPONENTS  0.2470000D+00 0.3387000D+02 0.5095000D+01 0.1159000D+01 0.3258000D+00
EXPONENTS  0.1027000D+00 0.2526000D-01 0.1407000D+01 0.1407000D+01 0.1407000D+01
EXPONENTS  0.3880000D+00 0.3880000D+00 0.3880000D+00 0.1020000D+00 0.1020000D+00
EXPONENTS  0.1020000D+00 0.1057000D+01 0.1057000D+01 0.1057000D+01 0.1057000D+01
EXPONENTS  0.1057000D+01 0.1057000D+01 0.2470000D+00 0.2470000D+00 0.2470000D+00
EXPONENTS  0.2470000D+00 0.2470000D+00 0.2470000D+00
MO    1     MO 0.0        OCC NO =    2.0000000  ORB. ENERGY =  -19.535321
  0.49832082D+00  0.92880589D+00  0.15749470D+01  0.23837557D+01  0.29742311D+01
  0.25544679D+01  0.98070989D+00 -0.43867755D-02 -0.17641828D-03 -0.33087686D-03
 -0.56407251D-03 -0.88153554D-03 -0.11787810D-02 -0.12586633D-02 -0.76952204D-03
  0.50768390D-03  0.50323305D-01 -0.29113036D-02 -0.32721929D-03  0.82189261D-06
  0.79695936D-06  0.53762408D-06  0.18962730D-14  0.18387469D-14  0.12404078D-14
  0.97047898D-02  0.94103816D-02  0.63481878D-02 -0.13049447D-06 -0.19119191D-14
 -0.14119535D-02 -0.27550347D-07  0.64111764D-14 -0.23126627D-02 -0.26919907D-07
  0.37629439D-14  0.16370522D-04 -0.19339992D-02 -0.19341483D-02  0.38681475D-02
 -0.19495674D-14  0.82297771D-06 -0.57743429D-14  0.70717147D-03  0.70725330D-03
 -0.14144248D-02  0.44186965D-15 -0.26231964D-06  0.16711347D-14  0.19406222D-03
  0.19404409D-03 -0.38810631D-03  0.10659296D-14 -0.22070043D-07 -0.35905910D-15
  0.78723814D-04  0.11793811D-14 -0.20705954D-03 -0.23610464D-03 -0.42546937D-14
  0.31053303D-03 -0.66806943D-07  0.71655027D-15  0.31064559D-03 -0.23162108D-14
 -0.11895746D-04 -0.24522263D-15 -0.29367625D-03  0.35793093D-04  0.20175281D-14
  0.44050176D-03 -0.10585557D-06 -0.12818602D-14  0.44052700D-03  0.75950053D-15
  0.60394175D-04  0.11253565D-03  0.19032600D-03  0.28662041D-03  0.35485466D-03
  0.30196530D-03  0.11490337D-03 -0.53814150D-06 -0.36767086D-04 -0.68938629D-04
 -0.11728512D-03 -0.18213141D-03 -0.24169897D-03 -0.25471754D-03 -0.15794112D-03
  0.10506250D-03 -0.59948109D-03  0.70107950D-02 -0.41374226D-02  0.51986818D-07
  0.49932717D-07  0.35016268D-07 -0.10839114D-14 -0.10410840D-14 -0.73007995D-15
  0.81389468D-03  0.78173611D-03  0.54820732D-03 -0.53294666D-07  0.39726653D-14
 -0.22391733D-02 -0.96065524D-06 -0.31693850D-13 -0.18648509D-02  0.13073682D-06
 -0.18098584D-13 -0.46042837D-03 -0.81497186D-03 -0.81487459D-03  0.16298465D-02
  0.49059456D-14  0.28850804D-06  0.60213901D-14 -0.25410448D-03 -0.25417995D-03
  0.50828443D-03 -0.51742473D-14  0.16636437D-06 -0.55505031D-14 -0.73190557D-04
 -0.73195068D-04  0.14638562D-03 -0.17487157D-13  0.77655496D-07  0.31089835D-14
  0.45990428D-04 -0.18341512D-15 -0.93985576D-03 -0.13754712D-03  0.81212516D-15
  0.14098148D-02 -0.42416628D-06 -0.26187981D-15  0.14097525D-02  0.71971473D-15
 -0.12722501D-03  0.10277971D-14  0.25027023D-03  0.38151682D-03 -0.52815940D-14
 -0.37544846D-03  0.15821380D-06  0.21982028D-14 -0.37536224D-03 -0.34382124D-14
  0.10131289D-03  0.18887027D-03  0.31922403D-03  0.47989828D-03  0.58961049D-03
  0.49802031D-03  0.18783494D-03 -0.92960559D-06 -0.77110959D-04 -0.14437605D-03
 -0.24581257D-03 -0.38023467D-03 -0.50075569D-03 -0.52031723D-03 -0.33063824D-03
  0.22158606D-03  0.34788953D-03 -0.21666509D-02  0.33996661D-03 -0.52887367D-04
 -0.49585268D-04 -0.35307665D-04  0.91606449D-04  0.85886869D-04  0.61156567D-04
 -0.64301902D-04 -0.60287121D-04 -0.42928021D-04  0.74579243D-04 -0.12936234D-03
 -0.46168324D-04  0.32229504D-05 -0.58632775D-05  0.47319134D-04 -0.75227195D-05
  0.13016268D-04  0.31369766D-04 -0.24183120D-04 -0.27740382D-04  0.51923502D-04
  0.61197162D-05 -0.42379432D-05  0.74633179D-05  0.16111918D-03  0.14295681D-03
 -0.30407599D-03  0.31977831D-04 -0.89950161D-05  0.15674500D-04  0.19374454D-04
  0.57952242D-05 -0.25169678D-04  0.23581971D-04 -0.31684560D-05  0.54487346D-05
 -0.11198606D-03  0.11772520D-03 -0.29466503D-04  0.64070170D-04  0.11773135D-03
 -0.26880555D-04  0.27188800D-03 -0.47090695D-03  0.11528006D-03 -0.24647906D-03
 -0.70754820D-04  0.35453292D-04 -0.47663498D-04  0.13036554D-03  0.35427866D-04
  0.10324104D-03  0.81898925D-04 -0.14178774D-03  0.39749458D-04  0.10989872D-03
  0.10131289D-03  0.18887027D-03  0.31922403D-03  0.47989828D-03  0.58961049D-03
  0.49802031D-03  0.18783494D-03 -0.92960559D-06 -0.77110959D-04 -0.14437605D-03
 -0.24581257D-03 -0.38023467D-03 -0.50075569D-03 -0.52031723D-03 -0.33063824D-03
  0.22158606D-03  0.34788953D-03 -0.21666509D-02  0.33996661D-03 -0.52887367D-04
 -0.49585268D-04 -0.35307665D-04 -0.91606449D-04 -0.85886869D-04 -0.61156567D-04
 -0.64301902D-04 -0.60287121D-04 -0.42928021D-04  0.74579243D-04  0.12936234D-03
 -0.46168324D-04  0.32229502D-05  0.58632776D-05  0.47319134D-04 -0.75227195D-05
 -0.13016268D-04  0.31369766D-04 -0.24183120D-04 -0.27740382D-04  0.51923502D-04
 -0.61197162D-05 -0.42379432D-05 -0.74633179D-05  0.16111918D-03  0.14295681D-03
 -0.30407599D-03 -0.31977831D-04 -0.89950160D-05 -0.15674500D-04  0.19374454D-04
  0.57952243D-05 -0.25169678D-04 -0.23581971D-04 -0.31684559D-05 -0.54487346D-05
 -0.11198606D-03 -0.11772520D-03 -0.29466503D-04  0.64070170D-04 -0.11773135D-03
 -0.26880555D-04  0.27188800D-03  0.47090695D-03  0.11528006D-03  0.24647906D-03
 -0.70754820D-04 -0.35453292D-04 -0.47663498D-04  0.13036554D-03 -0.35427866D-04
  0.10324104D-03  0.81898925D-04  0.14178774D-03  0.39749458D-04 -0.10989872D-03
  0.10135524D-03  0.18894921D-03  0.31935746D-03  0.48009887D-03  0.58985693D-03
  0.49822847D-03  0.18791345D-03 -0.92999414D-06 -0.77143246D-04 -0.14443650D-03
 -0.24591549D-03 -0.38039388D-03 -0.50096535D-03 -0.52053509D-03 -0.33077668D-03
  0.22167884D-03  0.34805506D-03 -0.21686456D-02  0.34029756D-03  0.10579249D-03
  0.99187182D-04  0.70627183D-04  0.11115421D-13  0.10421414D-13  0.74206676D-14
 -0.64347066D-04 -0.60329465D-04 -0.42958173D-04 -0.14944648D-03 -0.47049800D-13
 -0.46083889D-04 -0.70620252D-05 -0.13914098D-12  0.47397869D-04  0.15048117D-04
  0.38523755D-14  0.31362007D-04 -0.29565864D-04 -0.22370204D-04  0.51936067D-04
  0.37897071D-14  0.86702010D-05  0.12649528D-14  0.13377978D-03  0.17046331D-03
 -0.30424309D-03  0.41487127D-13  0.18259363D-04  0.37988327D-13 -0.10309624D-05
  0.26227298D-04 -0.25196336D-04  0.37658578D-13  0.63096257D-05  0.36822420D-13
  0.91946343D-04 -0.60539787D-15 -0.29469723D-04  0.26800307D-03 -0.38362747D-14
  0.18649986D-03 -0.54384210D-03  0.56524683D-14 -0.98090692D-04 -0.21822826D-13
 -0.93339586D-05 -0.17283527D-14 -0.47724496D-04  0.19173932D-03  0.42165234D-15
  0.80971930D-05 -0.16373745D-03  0.47634056D-14  0.13507630D-03 -0.94915078D-14
 -0.77521034D-05 -0.13981238D-04 -0.20615327D-04  0.10620049D-02  0.11522014D-02
 -0.38321481D-04  0.44400529D-04 -0.76934195D-04 -0.85219772D-04 -0.25882949D-03
  0.44842340D-03 -0.37498866D-03 -0.80036046D-04  0.13868659D-03 -0.93280782D-04
 -0.20138614D-04  0.96725179D-05  0.10466096D-04 -0.51479310D-04  0.25635638D-03
 -0.44410044D-03  0.39946849D-05  0.36148965D-04 -0.40143650D-04 -0.55675731D-04
  0.30275047D-04 -0.52441158D-04 -0.77521034D-05 -0.13981238D-04 -0.20615327D-04
  0.10620049D-02  0.11522014D-02 -0.38321481D-04  0.44400529D-04  0.76934195D-04
 -0.85219772D-04 -0.25882949D-03 -0.44842340D-03 -0.37498866D-03 -0.80036046D-04
 -0.13868659D-03 -0.93280782D-04 -0.20138614D-04  0.96725179D-05  0.10466096D-04
  0.51479310D-04  0.25635638D-03  0.44410044D-03  0.39946849D-05  0.36148965D-04
 -0.40143650D-04  0.55675731D-04  0.30275047D-04  0.52441158D-04 -0.77501755D-05
 -0.13977761D-04 -0.20610200D-04  0.10628313D-02  0.11526855D-02 -0.38312561D-04
 -0.88818265D-04  0.94951593D-15 -0.85267686D-04  0.51770231D-03 -0.12854217D-13
 -0.37518929D-03  0.16015608D-03 -0.29594834D-13 -0.93343306D-04  0.24481186D-04
 -0.34970982D-04  0.10489796D-04  0.46430344D-14 -0.51272340D-03  0.84862906D-14
  0.52222956D-04 -0.12074837D-04 -0.40148119D-04 -0.49071113D-14 -0.60533533D-04
  0.39814347D-14 -0.87375930D-06 -0.15758609D-05 -0.23236059D-05  0.63359181D-03
  0.81528257D-03  0.85276150D-05  0.68542269D-04  0.64404328D-04  0.26161633D-04
 -0.31282875D-05  0.65251893D-04  0.30897138D-04  0.13666997D-04  0.14745078D-03
 -0.10723689D-04 -0.22300852D-04 -0.65155881D-05  0.28816440D-04 -0.33841006D-05
  0.13337664D-03 -0.65727020D-04 -0.30469140D-05 -0.21857711D-04  0.24904625D-04
 -0.31234647D-04  0.26380410D-04 -0.45606055D-04 -0.87955534D-06 -0.15863143D-05
 -0.23390195D-05  0.63412216D-03  0.81565464D-03  0.85404332D-05 -0.90064798D-04
  0.27257550D-04  0.26218796D-04 -0.55211755D-04 -0.35222043D-04  0.30918229D-04
 -0.13460594D-03 -0.61831977D-04 -0.10660202D-04 -0.11851911D-04 -0.16897030D-04
  0.28748941D-04  0.15230353D-04 -0.97964894D-05  0.14845832D-03 -0.30686012D-04
  0.57734373D-05  0.24912575D-04 -0.65552152D-06  0.26302132D-04  0.45676496D-04
 -0.87241002D-06 -0.15734274D-05 -0.23200178D-05  0.63409914D-03  0.81565453D-03
  0.85352649D-05  0.21532338D-04  0.91614477D-04  0.26177159D-04  0.58140929D-04
  0.30068667D-04  0.30851602D-04  0.12091134D-03  0.85630816D-04 -0.10735103D-04
 -0.89917084D-05 -0.19778803D-04  0.28770511D-04  0.11992869D-04 -0.12364136D-03
  0.82663779D-04 -0.36191074D-05 -0.21276503D-04  0.24895610D-04 -0.31947537D-04
 -0.52676978D-04  0.44624980D-07 -0.87955534D-06 -0.15863143D-05 -0.23390195D-05
  0.63412216D-03  0.81565464D-03  0.85404332D-05 -0.90064798D-04 -0.27257550D-04
  0.26218796D-04 -0.55211755D-04  0.35222043D-04  0.30918229D-04 -0.13460594D-03
  0.61831977D-04 -0.10660202D-04 -0.11851911D-04 -0.16897030D-04  0.28748941D-04
 -0.15230353D-04 -0.97964894D-05 -0.14845832D-03 -0.30686012D-04  0.57734373D-05
  0.24912575D-04  0.65552153D-06  0.26302132D-04 -0.45676496D-04 -0.87375930D-06
 -0.15758609D-05 -0.23236059D-05  0.63359181D-03  0.81528257D-03  0.85276150D-05
  0.68542269D-04 -0.64404328D-04  0.26161633D-04 -0.31282876D-05 -0.65251893D-04
  0.30897138D-04  0.13666997D-04 -0.14745078D-03 -0.10723689D-04 -0.22300852D-04
 -0.65155881D-05  0.28816440D-04  0.33841006D-05  0.13337664D-03  0.65727020D-04
 -0.30469140D-05 -0.21857711D-04  0.24904625D-04  0.31234647D-04  0.26380410D-04
  0.45606055D-04 -0.87241002D-06 -0.15734274D-05 -0.23200178D-05  0.63409914D-03
  0.81565453D-03  0.85352648D-05  0.21532338D-04 -0.91614477D-04  0.26177159D-04
  0.58140929D-04 -0.30068667D-04  0.30851602D-04  0.12091134D-03 -0.85630816D-04
 -0.10735103D-04 -0.89917085D-05 -0.19778803D-04  0.28770511D-04 -0.11992869D-04
 -0.12364136D-03 -0.82663779D-04 -0.36191073D-05 -0.21276503D-04  0.24895610D-04
  0.31947537D-04 -0.52676978D-04 -0.44624983D-07
MO    2     MO 0.0        OCC NO =    2.0000000  ORB. ENERGY =  -14.885009
 -0.66209482D-04 -0.12340596D-03 -0.20925561D-03 -0.31671812D-03 -0.39517174D-03
 -0.33939982D-03 -0.13030219D-03  0.58284969D-06  0.89774956D-05  0.16837516D-04
  0.28704273D-04  0.44859191D-04  0.59985286D-04  0.64050300D-04  0.39159098D-04
 -0.25834794D-04  0.99931643D-04  0.72723191D-02  0.84391914D-03  0.14670396D-06
  0.14225349D-06  0.95963366D-07 -0.19289634D-14 -0.18704457D-14 -0.12617916D-14
 -0.24404681D-03 -0.23664331D-03 -0.15963818D-03 -0.38097311D-08  0.43417354D-14
  0.21410092D-02  0.23470680D-06 -0.14797358D-13  0.25199328D-02  0.23716157D-07
  0.74362673D-15  0.30343666D-04 -0.98580805D-03 -0.98561170D-03  0.19714198D-02
 -0.52521070D-14  0.61824629D-06  0.73014789D-14  0.16556134D-03  0.16547299D-03
 -0.33103433D-03  0.32640220D-14 -0.26071013D-06 -0.47019987D-15 -0.59250732D-04
 -0.59252709D-04  0.11850344D-03 -0.68129185D-14  0.37987144D-08 -0.11166000D-14
  0.68719124D-04 -0.23912414D-14 -0.26802281D-03 -0.20603565D-03  0.73172075D-14
  0.40200650D-03 -0.12172301D-06 -0.14348341D-15  0.40206192D-03  0.16314269D-13
 -0.63935929D-04  0.51370960D-15 -0.38058732D-03  0.19205888D-03 -0.38010768D-14
  0.57092739D-03 -0.25108894D-06  0.22599480D-14  0.57083458D-03 -0.68168935D-14
  0.41351332D+00  0.77052118D+00  0.13031445D+01  0.19624634D+01  0.24296570D+01
  0.20675284D+01  0.78673271D+00 -0.36846049D-02 -0.18302466D-02 -0.34317294D-02
 -0.58383928D-02 -0.90664076D-02 -0.12031650D-01 -0.12679708D-01 -0.78622277D-02
  0.52299569D-02  0.40924619D-01 -0.16673214D-01  0.31035407D-02  0.17212857D-06
  0.16532744D-06  0.11593901D-06  0.45261252D-14  0.43472892D-14  0.30486193D-14
  0.77860748D-03  0.74784317D-03  0.52443925D-03 -0.34528870D-06 -0.14461399D-13
 -0.15919946D-02  0.84021177D-06  0.10011534D-12  0.25701344D-02 -0.13575565D-06
 -0.14155851D-13  0.43048619D-03  0.73106730D-04  0.72601710D-04 -0.14570844D-03
 -0.55037595D-14  0.65963706D-06 -0.10057918D-13 -0.41400824D-03 -0.41392080D-03
  0.82792904D-03  0.21140439D-14 -0.26590663D-06  0.60244544D-14  0.35743100D-03
  0.35750866D-03 -0.71493966D-03  0.36474505D-13  0.17763661D-07 -0.10189976D-13
 -0.14671707D-03 -0.56258086D-15 -0.40111762D-03  0.44032448D-03 -0.25956602D-14
  0.60178455D-03 -0.17326157D-06  0.42834028D-14  0.60156831D-03  0.13457695D-14
  0.57700866D-03 -0.76257052D-15  0.67322073D-03 -0.17313570D-02  0.11928364D-13
 -0.10099166D-02  0.33106257D-06 -0.96406527D-14 -0.10097456D-02  0.10082506D-14
  0.21631226D-03  0.40325523D-03  0.68157237D-03  0.10246265D-02  0.12588721D-02
  0.10633187D-02  0.40104470D-03 -0.19847926D-05 -0.15263483D-03 -0.28578057D-03
 -0.48656587D-03 -0.75264341D-03 -0.99120490D-03 -0.10299254D-02 -0.65447134D-03
  0.43861147D-03 -0.12004409D-03  0.83034828D-03 -0.31089591D-03  0.37102811D-03
  0.34786244D-03  0.24769878D-03 -0.64266607D-03 -0.60254029D-03 -0.42904458D-03
  0.25179415D-03  0.23607302D-03  0.16809806D-03 -0.19688341D-02  0.34102813D-02
 -0.10771893D-02 -0.30878460D-03  0.53500767D-03 -0.51289794D-03 -0.58921041D-05
  0.10219025D-04 -0.28603965D-04 -0.15336543D-03  0.64514356D-03 -0.49177814D-03
 -0.13831443D-02  0.50362477D-03 -0.87232324D-03 -0.20968598D-03  0.17707096D-03
  0.32615018D-04 -0.67045009D-03  0.49886228D-03 -0.86429498D-03 -0.12904809D-04
  0.36148220D-04 -0.23243411D-04 -0.85005178D-04 -0.19709258D-04  0.34184861D-04
 -0.16596531D-03 -0.12505327D-04 -0.17531387D-03  0.52699132D-03 -0.12619989D-04
  0.27858037D-03 -0.29095389D-04  0.50135971D-04  0.24736124D-03  0.54126242D-04
  0.22157451D-04 -0.31777184D-04  0.70838301D-05  0.70315981D-05 -0.31674954D-04