 Molden2AIM, Version 4.0.0 (06/02/2016)           Time: Thu Jun 28 04:51:08 2018
GAUSSIAN             39 MOL ORBITALS    750 PRIMITIVES       10 NUCLEI
  C    1    (CENTRE  1)  -1.17285852  0.70645332  0.00000000  CHARGE =  6.0
  C    2    (CENTRE  2)   1.17285852 -0.70645332  0.00000000  CHARGE =  6.0
  C    3    (CENTRE  3)  -3.51538570 -0.25023186  0.00000000  CHARGE =  6.0
  C    4    (CENTRE  4)   3.51538570  0.25023186  0.00000000  CHARGE =  6.0
  F    5    (CENTRE  5)  -0.94714207  3.23278283  0.00000000  CHARGE =  9.0
  F    6    (CENTRE  6)   0.94714207 -3.23278283  0.00000000  CHARGE =  9.0
  F    7    (CENTRE  7)  -4.08270983 -2.66533776  0.00000000  CHARGE =  9.0
  F    8    (CENTRE  8)   4.08270983  2.66533776  0.00000000  CHARGE =  9.0
  F    9    (CENTRE  9)  -5.54354182  1.18547055  0.00000000  CHARGE =  9.0
  F   10    (CENTRE 10)   5.54354182 -1.18547055  0.00000000  CHARGE =  9.0
CENTRE ASSIGNMENTS    1  1  1  1  1  1  1  1  1  1  1  1  1  1  1  1  1  1  1  1
CENTRE ASSIGNMENTS    1  1  1  1  1  1  1  1  1  1  1  1  1  1  1  1  1  1  1  1
CENTRE ASSIGNMENTS    1  1  1  1  1  1  1  1  1  1  1  1  1  1  1  1  1  1  1  1
CENTRE ASSIGNMENTS    1  1  1  1  1  1  1  1  1  1  1  1  1  1  1  2  2  2  2  2
CENTRE ASSIGNMENTS    2  2  2  2  2  2  2  2  2  2  2  2  2  2  2  2  2  2  2  2
CENTRE ASSIGNMENTS    2  2  2  2  2  2  2  2  2  2  2  2  2  2  2  2  2  2  2  2
CENTRE ASSIGNMENTS    2  2  2  2  2  2  2  2  2  2  2  2  2  2  2  2  2  2  2  2
CENTRE ASSIGNMENTS    2  2  2  2  2  2  2  2  2  2  3  3  3  3  3  3  3  3  3  3
CENTRE ASSIGNMENTS    3  3  3  3  3  3  3  3  3  3  3  3  3  3  3  3  3  3  3  3
CENTRE ASSIGNMENTS    3  3  3  3  3  3  3  3  3  3  3  3  3  3  3  3  3  3  3  3
CENTRE ASSIGNMENTS    3  3  3  3  3  3  3  3  3  3  3  3  3  3  3  3  3  3  3  3
CENTRE ASSIGNMENTS    3  3  3  3  3  4  4  4  4  4  4  4  4  4  4  4  4  4  4  4
CENTRE ASSIGNMENTS    4  4  4  4  4  4  4  4  4  4  4  4  4  4  4  4  4  4  4  4
CENTRE ASSIGNMENTS    4  4  4  4  4  4  4  4  4  4  4  4  4  4  4  4  4  4  4  4
CENTRE ASSIGNMENTS    4  4  4  4  4  4  4  4  4  4  4  4  4  4  4  4  4  4  4  4
CENTRE ASSIGNMENTS    5  5  5  5  5  5  5  5  5  5  5  5  5  5  5  5  5  5  5  5
CENTRE ASSIGNMENTS    5  5  5  5  5  5  5  5  5  5  5  5  5  5  5  5  5  5  5  5
CENTRE ASSIGNMENTS    5  5  5  5  5  5  5  5  5  5  5  5  5  5  5  5  5  5  5  5
CENTRE ASSIGNMENTS    5  5  5  5  5  5  5  5  5  5  5  5  5  5  5  6  6  6  6  6
CENTRE ASSIGNMENTS    6  6  6  6  6  6  6  6  6  6  6  6  6  6  6  6  6  6  6  6
CENTRE ASSIGNMENTS    6  6  6  6  6  6  6  6  6  6  6  6  6  6  6  6  6  6  6  6
CENTRE ASSIGNMENTS    6  6  6  6  6  6  6  6  6  6  6  6  6  6  6  6  6  6  6  6
CENTRE ASSIGNMENTS    6  6  6  6  6  6  6  6  6  6  7  7  7  7  7  7  7  7  7  7
CENTRE ASSIGNMENTS    7  7  7  7  7  7  7  7  7  7  7  7  7  7  7  7  7  7  7  7
CENTRE ASSIGNMENTS    7  7  7  7  7  7  7  7  7  7  7  7  7  7  7  7  7  7  7  7
CENTRE ASSIGNMENTS    7  7  7  7  7  7  7  7  7  7  7  7  7  7  7  7  7  7  7  7
CENTRE ASSIGNMENTS    7  7  7  7  7  8  8  8  8  8  8  8  8  8  8  8  8  8  8  8
CENTRE ASSIGNMENTS    8  8  8  8  8  8  8  8  8  8  8  8  8  8  8  8  8  8  8  8
CENTRE ASSIGNMENTS    8  8  8  8  8  8  8  8  8  8  8  8  8  8  8  8  8  8  8  8
CENTRE ASSIGNMENTS    8  8  8  8  8  8  8  8  8  8  8  8  8  8  8  8  8  8  8  8
CENTRE ASSIGNMENTS    9  9  9  9  9  9  9  9  9  9  9  9  9  9  9  9  9  9  9  9
CENTRE ASSIGNMENTS    9  9  9  9  9  9  9  9  9  9  9  9  9  9  9  9  9  9  9  9
CENTRE ASSIGNMENTS    9  9  9  9  9  9  9  9  9  9  9  9  9  9  9  9  9  9  9  9
CENTRE ASSIGNMENTS    9  9  9  9  9  9  9  9  9  9  9  9  9  9  9 10 10 10 10 10
CENTRE ASSIGNMENTS   10 10 10 10 10 10 10 10 10 10 10 10 10 10 10 10 10 10 10 10
CENTRE ASSIGNMENTS   10 10 10 10 10 10 10 10 10 10 10 10 10 10 10 10 10 10 10 10
CENTRE ASSIGNMENTS   10 10 10 10 10 10 10 10 10 10 10 10 10 10 10 10 10 10 10 10
CENTRE ASSIGNMENTS   10 10 10 10 10 10 10 10 10 10
TYPE ASSIGNMENTS      1  1  1  1  1  1  1  1  1  1  1  1  1  1  1  1  1  1  1  2
TYPE ASSIGNMENTS      2  2  3  3  3  4  4  4  2  3  4  2  3  4  2  3  4  5  6  7
TYPE ASSIGNMENTS      8  9 10  5  6  7  8  9 10  5  6  7  8  9 10 11 12 13 17 14
TYPE ASSIGNMENTS     15 18 19 16 20 11 12 13 17 14 15 18 19 16 20  1  1  1  1  1
TYPE ASSIGNMENTS      1  1  1  1  1  1  1  1  1  1  1  1  1  1  2  2  2  3  3  3
TYPE ASSIGNMENTS      4  4  4  2  3  4  2  3  4  2  3  4  5  6  7  8  9 10  5  6
TYPE ASSIGNMENTS      7  8  9 10  5  6  7  8  9 10 11 12 13 17 14 15 18 19 16 20
TYPE ASSIGNMENTS     11 12 13 17 14 15 18 19 16 20  1  1  1  1  1  1  1  1  1  1
TYPE ASSIGNMENTS      1  1  1  1  1  1  1  1  1  2  2  2  3  3  3  4  4  4  2  3
TYPE ASSIGNMENTS      4  2  3  4  2  3  4  5  6  7  8  9 10  5  6  7  8  9 10  5
TYPE ASSIGNMENTS      6  7  8  9 10 11 12 13 17 14 15 18 19 16 20 11 12 13 17 14
TYPE ASSIGNMENTS     15 18 19 16 20  1  1  1  1  1  1  1  1  1  1  1  1  1  1  1
TYPE ASSIGNMENTS      1  1  1  1  2  2  2  3  3  3  4  4  4  2  3  4  2  3  4  2
TYPE ASSIGNMENTS      3  4  5  6  7  8  9 10  5  6  7  8  9 10  5  6  7  8  9 10
TYPE ASSIGNMENTS     11 12 13 17 14 15 18 19 16 20 11 12 13 17 14 15 18 19 16 20
TYPE ASSIGNMENTS      1  1  1  1  1  1  1  1  1  1  1  1  1  1  1  1  1  1  1  2
TYPE ASSIGNMENTS      2  2  3  3  3  4  4  4  2  3  4  2  3  4  2  3  4  5  6  7
TYPE ASSIGNMENTS      8  9 10  5  6  7  8  9 10  5  6  7  8  9 10 11 12 13 17 14
TYPE ASSIGNMENTS     15 18 19 16 20 11 12 13 17 14 15 18 19 16 20  1  1  1  1  1
TYPE ASSIGNMENTS      1  1  1  1  1  1  1  1  1  1  1  1  1  1  2  2  2  3  3  3
TYPE ASSIGNMENTS      4  4  4  2  3  4  2  3  4  2  3  4  5  6  7  8  9 10  5  6
TYPE ASSIGNMENTS      7  8  9 10  5  6  7  8  9 10 11 12 13 17 14 15 18 19 16 20
TYPE ASSIGNMENTS     11 12 13 17 14 15 18 19 16 20  1  1  1  1  1  1  1  1  1  1
TYPE ASSIGNMENTS      1  1  1  1  1  1  1  1  1  2  2  2  3  3  3  4  4  4  2  3
TYPE ASSIGNMENTS      4  2  3  4  2  3  4  5  6  7  8  9 10  5  6  7  8  9 10  5
TYPE ASSIGNMENTS      6  7  8  9 10 11 12 13 17 14 15 18 19 16 20 11 12 13 17 14
TYPE ASSIGNMENTS     15 18 19 16 20  1  1  1  1  1  1  1  1  1  1  1  1  1  1  1
TYPE ASSIGNMENTS      1  1  1  1  2  2  2  3  3  3  4  4  4  2  3  4  2  3  4  2
TYPE ASSIGNMENTS      3  4  5  6  7  8  9 10  5  6  7  8  9 10  5  6  7  8  9 10
TYPE ASSIGNMENTS     11 12 13 17 14 15 18 19 16 20 11 12 13 17 14 15 18 19 16 20
TYPE ASSIGNMENTS      1  1  1  1  1  1  1  1  1  1  1  1  1  1  1  1  1  1  1  2
TYPE ASSIGNMENTS      2  2  3  3  3  4  4  4  2  3  4  2  3  4  2  3  4  5  6  7
TYPE ASSIGNMENTS      8  9 10  5  6  7  8  9 10  5  6  7  8  9 10 11 12 13 17 14
TYPE ASSIGNMENTS     15 18 19 16 20 11 12 13 17 14 15 18 19 16 20  1  1  1  1  1
TYPE ASSIGNMENTS      1  1  1  1  1  1  1  1  1  1  1  1  1  1  2  2  2  3  3  3
TYPE ASSIGNMENTS      4  4  4  2  3  4  2  3  4  2  3  4  5  6  7  8  9 10  5  6
TYPE ASSIGNMENTS      7  8  9 10  5  6  7  8  9 10 11 12 13 17 14 15 18 19 16 20
TYPE ASSIGNMENTS     11 12 13 17 14 15 18 19 16 20
EXPONENTS  0.8236000D+04 0.1235000D+04 0.2808000D+03 0.7927000D+02 0.2559000D+02
EXPONENTS  0.8997000D+01 0.3319000D+01 0.3643000D+00 0.8236000D+04 0.1235000D+04
EXPONENTS  0.2808000D+03 0.7927000D+02 0.2559000D+02 0.8997000D+01 0.3319000D+01
EXPONENTS  0.3643000D+00 0.9059000D+00 0.1285000D+00 0.4402000D-01 0.1871000D+02
EXPONENTS  0.4133000D+01 0.1200000D+01 0.1871000D+02 0.4133000D+01 0.1200000D+01
EXPONENTS  0.1871000D+02 0.4133000D+01 0.1200000D+01 0.3827000D+00 0.3827000D+00
EXPONENTS  0.3827000D+00 0.1209000D+00 0.1209000D+00 0.1209000D+00 0.3569000D-01
EXPONENTS  0.3569000D-01 0.3569000D-01 0.1097000D+01 0.1097000D+01 0.1097000D+01
EXPONENTS  0.1097000D+01 0.1097000D+01 0.1097000D+01 0.3180000D+00 0.3180000D+00
EXPONENTS  0.3180000D+00 0.3180000D+00 0.3180000D+00 0.3180000D+00 0.1000000D+00
EXPONENTS  0.1000000D+00 0.1000000D+00 0.1000000D+00 0.1000000D+00 0.1000000D+00
EXPONENTS  0.7610000D+00 0.7610000D+00 0.7610000D+00 0.7610000D+00 0.7610000D+00
EXPONENTS  0.7610000D+00 0.7610000D+00 0.7610000D+00 0.7610000D+00 0.7610000D+00
EXPONENTS  0.2680000D+00 0.2680000D+00 0.2680000D+00 0.2680000D+00 0.2680000D+00
EXPONENTS  0.2680000D+00 0.2680000D+00 0.2680000D+00 0.2680000D+00 0.2680000D+00
EXPONENTS  0.8236000D+04 0.1235000D+04 0.2808000D+03 0.7927000D+02 0.2559000D+02
EXPONENTS  0.8997000D+01 0.3319000D+01 0.3643000D+00 0.8236000D+04 0.1235000D+04
EXPONENTS  0.2808000D+03 0.7927000D+02 0.2559000D+02 0.8997000D+01 0.3319000D+01
EXPONENTS  0.3643000D+00 0.9059000D+00 0.1285000D+00 0.4402000D-01 0.1871000D+02
EXPONENTS  0.4133000D+01 0.1200000D+01 0.1871000D+02 0.4133000D+01 0.1200000D+01
EXPONENTS  0.1871000D+02 0.4133000D+01 0.1200000D+01 0.3827000D+00 0.3827000D+00
EXPONENTS  0.3827000D+00 0.1209000D+00 0.1209000D+00 0.1209000D+00 0.3569000D-01
EXPONENTS  0.3569000D-01 0.3569000D-01 0.1097000D+01 0.1097000D+01 0.1097000D+01
EXPONENTS  0.1097000D+01 0.1097000D+01 0.1097000D+01 0.3180000D+00 0.3180000D+00
EXPONENTS  0.3180000D+00 0.3180000D+00 0.3180000D+00 0.3180000D+00 0.1000000D+00
EXPONENTS  0.1000000D+00 0.1000000D+00 0.1000000D+00 0.1000000D+00 0.1000000D+00
EXPONENTS  0.7610000D+00 0.7610000D+00 0.7610000D+00 0.7610000D+00 0.7610000D+00
EXPONENTS  0.7610000D+00 0.7610000D+00 0.7610000D+00 0.7610000D+00 0.7610000D+00
EXPONENTS  0.2680000D+00 0.2680000D+00 0.2680000D+00 0.2680000D+00 0.2680000D+00
EXPONENTS  0.2680000D+00 0.2680000D+00 0.2680000D+00 0.2680000D+00 0.2680000D+00
EXPONENTS  0.8236000D+04 0.1235000D+04 0.2808000D+03 0.7927000D+02 0.2559000D+02
EXPONENTS  0.8997000D+01 0.3319000D+01 0.3643000D+00 0.8236000D+04 0.1235000D+04
EXPONENTS  0.2808000D+03 0.7927000D+02 0.2559000D+02 0.8997000D+01 0.3319000D+01
EXPONENTS  0.3643000D+00 0.9059000D+00 0.1285000D+00 0.4402000D-01 0.1871000D+02
EXPONENTS  0.4133000D+01 0.1200000D+01 0.1871000D+02 0.4133000D+01 0.1200000D+01
EXPONENTS  0.1871000D+02 0.4133000D+01 0.1200000D+01 0.3827000D+00 0.3827000D+00
EXPONENTS  0.3827000D+00 0.1209000D+00 0.1209000D+00 0.1209000D+00 0.3569000D-01
EXPONENTS  0.3569000D-01 0.3569000D-01 0.1097000D+01 0.1097000D+01 0.1097000D+01
EXPONENTS  0.1097000D+01 0.1097000D+01 0.1097000D+01 0.3180000D+00 0.3180000D+00
EXPONENTS  0.3180000D+00 0.3180000D+00 0.3180000D+00 0.3180000D+00 0.1000000D+00
EXPONENTS  0.1000000D+00 0.1000000D+00 0.1000000D+00 0.1000000D+00 0.1000000D+00
EXPONENTS  0.7610000D+00 0.7610000D+00 0.7610000D+00 0.7610000D+00 0.7610000D+00
EXPONENTS  0.7610000D+00 0.7610000D+00 0.7610000D+00 0.7610000D+00 0.7610000D+00
EXPONENTS  0.2680000D+00 0.2680000D+00 0.2680000D+00 0.2680000D+00 0.2680000D+00
EXPONENTS  0.2680000D+00 0.2680000D+00 0.2680000D+00 0.2680000D+00 0.2680000D+00
EXPONENTS  0.8236000D+04 0.1235000D+04 0.2808000D+03 0.7927000D+02 0.2559000D+02
EXPONENTS  0.8997000D+01 0.3319000D+01 0.3643000D+00 0.8236000D+04 0.1235000D+04
EXPONENTS  0.2808000D+03 0.7927000D+02 0.2559000D+02 0.8997000D+01 0.3319000D+01
EXPONENTS  0.3643000D+00 0.9059000D+00 0.1285000D+00 0.4402000D-01 0.1871000D+02
EXPONENTS  0.4133000D+01 0.1200000D+01 0.1871000D+02 0.4133000D+01 0.1200000D+01
EXPONENTS  0.1871000D+02 0.4133000D+01 0.1200000D+01 0.3827000D+00 0.3827000D+00
EXPONENTS  0.3827000D+00 0.1209000D+00 0.1209000D+00 0.1209000D+00 0.3569000D-01
EXPONENTS  0.3569000D-01 0.3569000D-01 0.1097000D+01 0.1097000D+01 0.1097000D+01
EXPONENTS  0.1097000D+01 0.1097000D+01 0.1097000D+01 0.3180000D+00 0.3180000D+00
EXPONENTS  0.3180000D+00 0.3180000D+00 0.3180000D+00 0.3180000D+00 0.1000000D+00
EXPONENTS  0.1000000D+00 0.1000000D+00 0.1000000D+00 0.1000000D+00 0.1000000D+00
EXPONENTS  0.7610000D+00 0.7610000D+00 0.7610000D+00 0.7610000D+00 0.7610000D+00
EXPONENTS  0.7610000D+00 0.7610000D+00 0.7610000D+00 0.7610000D+00 0.7610000D+00
EXPONENTS  0.2680000D+00 0.2680000D+00 0.2680000D+00 0.2680000D+00 0.2680000D+00
EXPONENTS  0.2680000D+00 0.2680000D+00 0.2680000D+00 0.2680000D+00 0.2680000D+00
EXPONENTS  0.1950000D+05 0.2923000D+04 0.6645000D+03 0.1875000D+03 0.6062000D+02
EXPONENTS  0.2142000D+02 0.7950000D+01 0.8815000D+00 0.1950000D+05 0.2923000D+04
EXPONENTS  0.6645000D+03 0.1875000D+03 0.6062000D+02 0.2142000D+02 0.7950000D+01
EXPONENTS  0.8815000D+00 0.2257000D+01 0.3041000D+00 0.9158000D-01 0.4388000D+02
EXPONENTS  0.9926000D+01 0.2930000D+01 0.4388000D+02 0.9926000D+01 0.2930000D+01
EXPONENTS  0.4388000D+02 0.9926000D+01 0.2930000D+01 0.9132000D+00 0.9132000D+00
EXPONENTS  0.9132000D+00 0.2672000D+00 0.2672000D+00 0.2672000D+00 0.7361000D-01
EXPONENTS  0.7361000D-01 0.7361000D-01 0.3107000D+01 0.3107000D+01 0.3107000D+01
EXPONENTS  0.3107000D+01 0.3107000D+01 0.3107000D+01 0.8550000D+00 0.8550000D+00
EXPONENTS  0.8550000D+00 0.8550000D+00 0.8550000D+00 0.8550000D+00 0.2920000D+00
EXPONENTS  0.2920000D+00 0.2920000D+00 0.2920000D+00 0.2920000D+00 0.2920000D+00
EXPONENTS  0.1917000D+01 0.1917000D+01 0.1917000D+01 0.1917000D+01 0.1917000D+01
EXPONENTS  0.1917000D+01 0.1917000D+01 0.1917000D+01 0.1917000D+01 0.1917000D+01
EXPONENTS  0.7240000D+00 0.7240000D+00 0.7240000D+00 0.7240000D+00 0.7240000D+00
EXPONENTS  0.7240000D+00 0.7240000D+00 0.7240000D+00 0.7240000D+00 0.7240000D+00
EXPONENTS  0.1950000D+05 0.2923000D+04 0.6645000D+03 0.1875000D+03 0.6062000D+02
EXPONENTS  0.2142000D+02 0.7950000D+01 0.8815000D+00 0.1950000D+05 0.2923000D+04
EXPONENTS  0.6645000D+03 0.1875000D+03 0.6062000D+02 0.2142000D+02 0.7950000D+01
EXPONENTS  0.8815000D+00 0.2257000D+01 0.3041000D+00 0.9158000D-01 0.4388000D+02
EXPONENTS  0.9926000D+01 0.2930000D+01 0.4388000D+02 0.9926000D+01 0.2930000D+01
EXPONENTS  0.4388000D+02 0.9926000D+01 0.2930000D+01 0.9132000D+00 0.9132000D+00
EXPONENTS  0.9132000D+00 0.2672000D+00 0.2672000D+00 0.2672000D+00 0.7361000D-01
EXPONENTS  0.7361000D-01 0.7361000D-01 0.3107000D+01 0.3107000D+01 0.3107000D+01
EXPONENTS  0.3107000D+01 0.3107000D+01 0.3107000D+01 0.8550000D+00 0.8550000D+00
EXPONENTS  0.8550000D+00 0.8550000D+00 0.8550000D+00 0.8550000D+00 0.2920000D+00
EXPONENTS  0.2920000D+00 0.2920000D+00 0.2920000D+00 0.2920000D+00 0.2920000D+00
EXPONENTS  0.1917000D+01 0.1917000D+01 0.1917000D+01 0.1917000D+01 0.1917000D+01
EXPONENTS  0.1917000D+01 0.1917000D+01 0.1917000D+01 0.1917000D+01 0.1917000D+01
EXPONENTS  0.7240000D+00 0.7240000D+00 0.7240000D+00 0.7240000D+00 0.7240000D+00
EXPONENTS  0.7240000D+00 0.7240000D+00 0.7240000D+00 0.7240000D+00 0.7240000D+00
EXPONENTS  0.1950000D+05 0.2923000D+04 0.6645000D+03 0.1875000D+03 0.6062000D+02
EXPONENTS  0.2142000D+02 0.7950000D+01 0.8815000D+00 0.1950000D+05 0.2923000D+04
EXPONENTS  0.6645000D+03 0.1875000D+03 0.6062000D+02 0.2142000D+02 0.7950000D+01
EXPONENTS  0.8815000D+00 0.2257000D+01 0.3041000D+00 0.9158000D-01 0.4388000D+02
EXPONENTS  0.9926000D+01 0.2930000D+01 0.4388000D+02 0.9926000D+01 0.2930000D+01
EXPONENTS  0.4388000D+02 0.9926000D+01 0.2930000D+01 0.9132000D+00 0.9132000D+00
EXPONENTS  0.9132000D+00 0.2672000D+00 0.2672000D+00 0.2672000D+00 0.7361000D-01
EXPONENTS  0.7361000D-01 0.7361000D-01 0.3107000D+01 0.3107000D+01 0.3107000D+01
EXPONENTS  0.3107000D+01 0.3107000D+01 0.3107000D+01 0.8550000D+00 0.8550000D+00
EXPONENTS  0.8550000D+00 0.8550000D+00 0.8550000D+00 0.8550000D+00 0.2920000D+00
EXPONENTS  0.2920000D+00 0.2920000D+00 0.2920000D+00 0.2920000D+00 0.2920000D+00
EXPONENTS  0.1917000D+01 0.1917000D+01 0.1917000D+01 0.1917000D+01 0.1917000D+01
EXPONENTS  0.1917000D+01 0.1917000D+01 0.1917000D+01 0.1917000D+01 0.1917000D+01
EXPONENTS  0.7240000D+00 0.7240000D+00 0.7240000D+00 0.7240000D+00 0.7240000D+00
EXPONENTS  0.7240000D+00 0.7240000D+00 0.7240000D+00 0.7240000D+00 0.7240000D+00
EXPONENTS  0.1950000D+05 0.2923000D+04 0.6645000D+03 0.1875000D+03 0.6062000D+02
EXPONENTS  0.2142000D+02 0.7950000D+01 0.8815000D+00 0.1950000D+05 0.2923000D+04
EXPONENTS  0.6645000D+03 0.1875000D+03 0.6062000D+02 0.2142000D+02 0.7950000D+01
EXPONENTS  0.8815000D+00 0.2257000D+01 0.3041000D+00 0.9158000D-01 0.4388000D+02
EXPONENTS  0.9926000D+01 0.2930000D+01 0.4388000D+02 0.9926000D+01 0.2930000D+01
EXPONENTS  0.4388000D+02 0.9926000D+01 0.2930000D+01 0.9132000D+00 0.9132000D+00
EXPONENTS  0.9132000D+00 0.2672000D+00 0.2672000D+00 0.2672000D+00 0.7361000D-01
EXPONENTS  0.7361000D-01 0.7361000D-01 0.3107000D+01 0.3107000D+01 0.3107000D+01
EXPONENTS  0.3107000D+01 0.3107000D+01 0.3107000D+01 0.8550000D+00 0.8550000D+00
EXPONENTS  0.8550000D+00 0.8550000D+00 0.8550000D+00 0.8550000D+00 0.2920000D+00
EXPONENTS  0.2920000D+00 0.2920000D+00 0.2920000D+00 0.2920000D+00 0.2920000D+00
EXPONENTS  0.1917000D+01 0.1917000D+01 0.1917000D+01 0.1917000D+01 0.1917000D+01
EXPONENTS  0.1917000D+01 0.1917000D+01 0.1917000D+01 0.1917000D+01 0.1917000D+01
EXPONENTS  0.7240000D+00 0.7240000D+00 0.7240000D+00 0.7240000D+00 0.7240000D+00
EXPONENTS  0.7240000D+00 0.7240000D+00 0.7240000D+00 0.7240000D+00 0.7240000D+00
EXPONENTS  0.1950000D+05 0.2923000D+04 0.6645000D+03 0.1875000D+03 0.6062000D+02
EXPONENTS  0.2142000D+02 0.7950000D+01 0.8815000D+00 0.1950000D+05 0.2923000D+04
EXPONENTS  0.6645000D+03 0.1875000D+03 0.6062000D+02 0.2142000D+02 0.7950000D+01
EXPONENTS  0.8815000D+00 0.2257000D+01 0.3041000D+00 0.9158000D-01 0.4388000D+02
EXPONENTS  0.9926000D+01 0.2930000D+01 0.4388000D+02 0.9926000D+01 0.2930000D+01
EXPONENTS  0.4388000D+02 0.9926000D+01 0.2930000D+01 0.9132000D+00 0.9132000D+00
EXPONENTS  0.9132000D+00 0.2672000D+00 0.2672000D+00 0.2672000D+00 0.7361000D-01
EXPONENTS  0.7361000D-01 0.7361000D-01 0.3107000D+01 0.3107000D+01 0.3107000D+01
EXPONENTS  0.3107000D+01 0.3107000D+01 0.3107000D+01 0.8550000D+00 0.8550000D+00
EXPONENTS  0.8550000D+00 0.8550000D+00 0.8550000D+00 0.8550000D+00 0.2920000D+00
EXPONENTS  0.2920000D+00 0.2920000D+00 0.2920000D+00 0.2920000D+00 0.2920000D+00
EXPONENTS  0.1917000D+01 0.1917000D+01 0.1917000D+01 0.1917000D+01 0.1917000D+01
EXPONENTS  0.1917000D+01 0.1917000D+01 0.1917000D+01 0.1917000D+01 0.1917000D+01
EXPONENTS  0.7240000D+00 0.7240000D+00 0.7240000D+00 0.7240000D+00 0.7240000D+00
EXPONENTS  0.7240000D+00 0.7240000D+00 0.7240000D+00 0.7240000D+00 0.7240000D+00
EXPONENTS  0.1950000D+05 0.2923000D+04 0.6645000D+03 0.1875000D+03 0.6062000D+02
EXPONENTS  0.2142000D+02 0.7950000D+01 0.8815000D+00 0.1950000D+05 0.2923000D+04
EXPONENTS  0.6645000D+03 0.1875000D+03 0.6062000D+02 0.2142000D+02 0.7950000D+01
EXPONENTS  0.8815000D+00 0.2257000D+01 0.3041000D+00 0.9158000D-01 0.4388000D+02
EXPONENTS  0.9926000D+01 0.2930000D+01 0.4388000D+02 0.9926000D+01 0.2930000D+01
EXPONENTS  0.4388000D+02 0.9926000D+01 0.2930000D+01 0.9132000D+00 0.9132000D+00
EXPONENTS  0.9132000D+00 0.2672000D+00 0.2672000D+00 0.2672000D+00 0.7361000D-01
EXPONENTS  0.7361000D-01 0.7361000D-01 0.3107000D+01 0.3107000D+01 0.3107000D+01
EXPONENTS  0.3107000D+01 0.3107000D+01 0.3107000D+01 0.8550000D+00 0.8550000D+00
EXPONENTS  0.8550000D+00 0.8550000D+00 0.8550000D+00 0.8550000D+00 0.2920000D+00
EXPONENTS  0.2920000D+00 0.2920000D+00 0.2920000D+00 0.2920000D+00 0.2920000D+00
EXPONENTS  0.1917000D+01 0.1917000D+01 0.1917000D+01 0.1917000D+01 0.1917000D+01
EXPONENTS  0.1917000D+01 0.1917000D+01 0.1917000D+01 0.1917000D+01 0.1917000D+01
EXPONENTS  0.7240000D+00 0.7240000D+00 0.7240000D+00 0.7240000D+00 0.7240000D+00
EXPONENTS  0.7240000D+00 0.7240000D+00 0.7240000D+00 0.7240000D+00 0.7240000D+00
MO    1     MO 0.0        OCC NO =    2.0000000  ORB. ENERGY =  -25.318901
 -0.10115359D-03 -0.18857329D-03 -0.31872207D-03 -0.47914368D-03 -0.58868337D-03
 -0.49723721D-03 -0.18753958D-03  0.92814385D-06  0.71713521D-04  0.13427034D-03
  0.22860674D-03  0.35361987D-03  0.46570492D-03  0.48389725D-03  0.30749498D-03
 -0.20607598D-03 -0.18666884D-03  0.67257152D-03  0.11129846D-03 -0.17753043D-03
 -0.16644606D-03 -0.11851951D-03 -0.51093140D-04 -0.47903066D-04 -0.34109837D-04
  0.54863169D-16  0.51437708D-16  0.36626712D-16  0.28783076D-03  0.43222914D-03
 -0.16000065D-16 -0.15646774D-02 -0.17489898D-03  0.14364502D-17 -0.44200332D-04
 -0.11864881D-04  0.26837205D-18 -0.52948566D-05  0.65693129D-04 -0.60398272D-04
 -0.88415473D-04 -0.34128311D-15  0.94910163D-16 -0.41422673D-04  0.12985427D-03
 -0.88431599D-04 -0.32975787D-03 -0.87074131D-17  0.81086071D-17  0.38834493D-04
 -0.56636310D-04  0.17801818D-04  0.14818182D-03 -0.68101250D-18  0.21038822D-18
  0.13474517D-04  0.13511778D-03  0.33538117D-16  0.11848158D-03 -0.38675008D-03
 -0.79172404D-16 -0.15890514D-03 -0.18603277D-04 -0.21441949D-16 -0.12636701D-15
  0.56049513D-04 -0.13724489D-03  0.11685257D-17 -0.17363878D-03  0.35825388D-03
 -0.18682700D-17  0.54902399D-05  0.53480804D-04 -0.16373070D-17  0.18757629D-16
  0.10115359D-03  0.18857328D-03  0.31872207D-03  0.47914367D-03  0.58868336D-03
  0.49723721D-03  0.18753958D-03 -0.92814385D-06 -0.71713521D-04 -0.13427034D-03
 -0.22860674D-03 -0.35361986D-03 -0.46570492D-03 -0.48389724D-03 -0.30749498D-03
  0.20607598D-03  0.18666883D-03 -0.67257154D-03 -0.11129846D-03 -0.17753043D-03
 -0.16644607D-03 -0.11851951D-03 -0.51093142D-04 -0.47903068D-04 -0.34109838D-04
  0.44287224D-17  0.41522087D-17  0.29566200D-17  0.28783078D-03  0.43222915D-03
 -0.26535739D-17 -0.15646775D-02 -0.17489898D-03  0.61840063D-17 -0.44200332D-04
 -0.11864881D-04  0.50226746D-19  0.52948560D-05 -0.65693128D-04  0.60398272D-04
  0.88415472D-04 -0.14307763D-17  0.34417474D-17  0.41422681D-04 -0.12985428D-03
  0.88431597D-04  0.32975788D-03 -0.25939285D-17 -0.14199949D-18 -0.38834494D-04
  0.56636313D-04 -0.17801818D-04 -0.14818182D-03  0.83156871D-18  0.11291471D-17
  0.13474518D-04  0.13511779D-03  0.74454961D-18  0.11848158D-03 -0.38675008D-03
 -0.36567392D-17 -0.15890514D-03 -0.18603277D-04  0.14230903D-17 -0.64502295D-17
  0.56049513D-04 -0.13724490D-03 -0.54572737D-18 -0.17363878D-03  0.35825388D-03
  0.77608124D-18  0.54902418D-05  0.53480804D-04  0.86110088D-18 -0.16332785D-17
 -0.14516460D-03 -0.27061982D-03 -0.45739517D-03 -0.68761477D-03 -0.84481419D-03
 -0.71358064D-03 -0.26913636D-03  0.13319709D-05  0.10436194D-03  0.19539848D-03
  0.33268263D-03  0.51460944D-03  0.67772253D-03  0.70419712D-03  0.44748565D-03
 -0.29989448D-03  0.40767800D-03 -0.34776251D-02 -0.50387580D-03 -0.10555666D-03
 -0.98966079D-04 -0.70469744D-04 -0.29921272D-03 -0.28053094D-03 -0.19975474D-03
 -0.34248767D-17 -0.32110396D-17 -0.22864515D-17  0.83231710D-03  0.16749752D-02
  0.44979591D-17 -0.95544696D-03 -0.38984038D-03 -0.15847253D-17 -0.13064187D-04
  0.44384203D-05  0.48512759D-20  0.32647593D-03 -0.70679453D-03  0.38031861D-03
 -0.55654189D-03 -0.77757666D-17 -0.44746803D-17  0.21125879D-03 -0.50397603D-03
  0.29271724D-03 -0.70011213D-04  0.11163133D-17  0.57207062D-18 -0.57616026D-04
  0.55872006D-04  0.17440199D-05 -0.96694612D-04  0.25459186D-18 -0.11078004D-17
 -0.96077105D-04  0.28214472D-03 -0.20727564D-17  0.47387459D-03 -0.35248905D-03
  0.29531530D-17 -0.18564327D-03 -0.49394511D-03  0.32651161D-17 -0.37805441D-17
  0.39425570D-04 -0.51772747D-04  0.21688104D-18 -0.17930779D-03  0.13363298D-03
 -0.35327801D-18  0.61031080D-04  0.21685261D-04 -0.29736512D-18  0.42638760D-18
  0.14516460D-03  0.27061983D-03  0.45739518D-03  0.68761478D-03  0.84481421D-03
  0.71358065D-03  0.26913637D-03 -0.13319709D-05 -0.10436194D-03 -0.19539848D-03
 -0.33268263D-03 -0.51460945D-03 -0.67772254D-03 -0.70419713D-03 -0.44748566D-03
  0.29989449D-03 -0.40767801D-03  0.34776252D-02  0.50387579D-03 -0.10555666D-03
 -0.98966082D-04 -0.70469746D-04 -0.29921273D-03 -0.28053095D-03 -0.19975475D-03
 -0.35101483D-18 -0.32909871D-18 -0.23433789D-18  0.83231712D-03  0.16749752D-02
 -0.79817457D-19 -0.95544697D-03 -0.38984038D-03 -0.53977998D-17 -0.13064186D-04
  0.44384203D-05 -0.15130917D-18 -0.32647594D-03  0.70679455D-03 -0.38031861D-03
  0.55654190D-03  0.85230375D-18  0.13537841D-17 -0.21125880D-03  0.50397604D-03
 -0.29271725D-03  0.70011208D-04 -0.21248423D-17 -0.65027796D-18  0.57616027D-04
 -0.55872007D-04 -0.17440194D-05  0.96694614D-04  0.62521320D-18  0.74712961D-19
 -0.96077107D-04  0.28214473D-03 -0.13515212D-17  0.47387460D-03 -0.35248905D-03
  0.22463491D-17 -0.18564328D-03 -0.49394512D-03  0.18082145D-17  0.18095521D-17
  0.39425570D-04 -0.51772749D-04  0.45763427D-18 -0.17930779D-03  0.13363299D-03
  0.12061163D-18  0.61031082D-04  0.21685262D-04 -0.14935144D-17  0.57462229D-18
  0.31040035D-04  0.57859969D-04  0.98086872D-04  0.14853243D-03  0.18574033D-03
  0.15990512D-03  0.61473366D-04 -0.26637416D-06 -0.32924471D-04 -0.61826326D-04
 -0.10527957D-03 -0.16491982D-03 -0.22101197D-03 -0.23772817D-03 -0.14273168D-03
  0.93866358D-04  0.31604186D-04  0.43317341D-03  0.21483417D-03 -0.45775194D-04
 -0.44767140D-04 -0.29579542D-04 -0.34895472D-04 -0.34127010D-04 -0.22549158D-04
 -0.18755943D-16 -0.18342903D-16 -0.12119931D-16  0.26044789D-04 -0.23489228D-04
 -0.12405346D-17  0.20117358D-03  0.79733549D-04  0.30225580D-17 -0.30455643D-04
 -0.66120565D-05  0.22866837D-19 -0.81536781D-04  0.16663060D-03 -0.85093815D-04
 -0.41298912D-04 -0.70167759D-17 -0.41263063D-16  0.51207800D-04 -0.12770443D-03
  0.76496632D-04 -0.18288088D-04 -0.52648559D-18  0.40669067D-17 -0.10815604D-04
 -0.49739787D-04  0.60555391D-04 -0.11643199D-03 -0.39903492D-18 -0.39199400D-17
  0.11012242D-03 -0.12715935D-04  0.64614805D-18 -0.10829903D-03 -0.96990225D-04
  0.76284761D-17 -0.22206822D-03  0.13513803D-03 -0.95669203D-17  0.94331942D-18
 -0.34385182D-04  0.48024260D-04 -0.76060888D-18  0.47749845D-04 -0.16867310D-04
  0.29694791D-19  0.55405701D-04 -0.12720547D-03  0.22521319D-17  0.38004055D-17
 -0.31040036D-04 -0.57859972D-04 -0.98086877D-04 -0.14853244D-03 -0.18574034D-03
 -0.15990513D-03 -0.61473369D-04  0.26637417D-06  0.32924472D-04  0.61826327D-04
  0.10527957D-03  0.16491983D-03  0.22101197D-03  0.23772817D-03  0.14273168D-03
 -0.93866360D-04 -0.31604186D-04 -0.43317341D-03 -0.21483417D-03 -0.45775195D-04
 -0.44767141D-04 -0.29579543D-04 -0.34895473D-04 -0.34127010D-04 -0.22549159D-04
  0.34201007D-17  0.33447837D-17  0.22100400D-17  0.26044790D-04 -0.23489228D-04
 -0.88728002D-18  0.20117358D-03  0.79733553D-04 -0.86227720D-18 -0.30455644D-04
 -0.66120567D-05  0.38489033D-18  0.81536779D-04 -0.16663060D-03  0.85093816D-04
  0.41298908D-04 -0.31314385D-17 -0.93759349D-18 -0.51207799D-04  0.12770443D-03
 -0.76496633D-04  0.18288090D-04  0.14105956D-17  0.55483248D-18  0.10815603D-04
  0.49739788D-04 -0.60555392D-04  0.11643200D-03 -0.10877981D-17 -0.38706713D-18
  0.11012242D-03 -0.12715936D-04  0.11765948D-17 -0.10829903D-03 -0.96990223D-04
  0.36476974D-17 -0.22206822D-03  0.13513803D-03 -0.71774817D-17  0.55451606D-17
 -0.34385183D-04  0.48024261D-04 -0.37796467D-18  0.47749846D-04 -0.16867311D-04
 -0.15303894D-17  0.55405701D-04 -0.12720547D-03  0.26642834D-17 -0.18280441D-17
 -0.42099619D+00 -0.78475513D+00 -0.13303529D+01 -0.20145463D+01 -0.25191973D+01
 -0.21687942D+01 -0.83376366D+00  0.36128344D-02 -0.13163854D-03 -0.24719387D-03
 -0.42092853D-03 -0.65938206D-03 -0.88364953D-03 -0.95048421D-03 -0.57066947D-03
  0.37529626D-03 -0.42642955D-01  0.49689846D-03  0.26916360D-03 -0.15493660D-02
 -0.15152461D-02 -0.10011872D-02 -0.61455307D-02 -0.60101948D-02 -0.39711898D-02
  0.11599880D-16  0.11344429D-16  0.74957440D-17  0.32705956D-03  0.11580471D-02
  0.10319379D-18  0.37930351D-03  0.10670909D-02 -0.91674864D-18 -0.28797231D-04
  0.40262139D-04 -0.47986994D-18  0.66776901D-03 -0.15406498D-02  0.87288083D-03
 -0.11361010D-02 -0.25501164D-17  0.84723703D-17 -0.35335318D-03  0.79561454D-03
 -0.44226136D-03  0.61999165D-03  0.17759558D-17 -0.17564328D-17 -0.75494249D-04
  0.24039189D-03 -0.16489764D-03  0.22919650D-03  0.99190563D-19  0.20688904D-18
  0.62575710D-04 -0.20217472D-03 -0.82209302D-17 -0.27115264D-03  0.14121529D-03
  0.62576481D-17  0.83425508D-04  0.46530886D-03  0.18405142D-16  0.37228147D-17
 -0.79859645D-04  0.24304530D-03  0.12215702D-17  0.34059271D-03 -0.25119661D-03
  0.55866154D-19 -0.10101378D-03 -0.47793929D-03 -0.37205769D-17  0.11896863D-18
  0.42099619D+00  0.78475515D+00  0.13303529D+01  0.20145464D+01  0.25191973D+01
  0.21687942D+01  0.83376368D+00 -0.36128345D-02  0.13163855D-03  0.24719388D-03
  0.42092854D-03  0.65938207D-03  0.88364955D-03  0.95048423D-03  0.57066949D-03
 -0.37529626D-03  0.42642956D-01 -0.49689846D-03 -0.26916360D-03 -0.15493660D-02
 -0.15152461D-02 -0.10011872D-02 -0.61455309D-02 -0.60101949D-02 -0.39711899D-02
 -0.97209754D-17 -0.95069016D-17 -0.62816119D-17  0.32705956D-03  0.11580472D-02
 -0.63764900D-18  0.37930351D-03  0.10670909D-02  0.35992244D-17 -0.28797231D-04
  0.40262140D-04  0.26018764D-18 -0.66776902D-03  0.15406499D-02 -0.87288085D-03
  0.11361011D-02 -0.17301941D-17 -0.36227716D-17  0.35335319D-03 -0.79561456D-03
  0.44226137D-03 -0.61999166D-03 -0.26820893D-18  0.12940420D-17  0.75494251D-04
 -0.24039189D-03  0.16489764D-03 -0.22919650D-03 -0.53033505D-18 -0.17609525D-17
  0.62575712D-04 -0.20217472D-03  0.79579015D-18 -0.27115265D-03  0.14121530D-03
 -0.48608758D-18  0.83425512D-04  0.46530887D-03 -0.19012829D-17 -0.57217915D-17
 -0.79859647D-04  0.24304530D-03 -0.11620212D-18  0.34059272D-03 -0.25119661D-03
  0.59010817D-20 -0.10101378D-03 -0.47793930D-03  0.34270528D-18  0.16244855D-17
  0.22027634D-02  0.41060464D-02  0.69607582D-02  0.10540639D-01  0.13181107D-01
  0.11347705D-01  0.43624720D-02 -0.18903305D-04  0.53679582D-04  0.10080075D-03
  0.17164629D-03  0.26888290D-03  0.36033472D-03  0.38758857D-03  0.23270767D-03
 -0.15303835D-03  0.24149305D-03 -0.59687116D-04 -0.53024147D-04  0.59340357D-04
  0.58033573D-04  0.38345235D-04 -0.77593912D-04 -0.75885151D-04 -0.50140528D-04
  0.43532942D-17  0.42574267D-17  0.28130618D-17 -0.44816110D-04  0.56112132D-04
 -0.26172905D-17  0.12910762D-03 -0.10173320D-03  0.21264322D-17 -0.18998619D-04
 -0.25844719D-04  0.38391477D-18  0.39746196D-04 -0.14568455D-03  0.10593835D-03
 -0.35747022D-05  0.85709671D-17 -0.12309587D-16  0.19809049D-04  0.42606512D-04
 -0.62415561D-04 -0.48643149D-04 -0.33403848D-17  0.28127554D-17  0.24474677D-04
  0.15897599D-04 -0.40372277D-04 -0.22523718D-04  0.44365194D-18  0.30321372D-18
  0.54371835D-04  0.21617887D-03 -0.11092547D-16 -0.25873221D-03 -0.47970987D-03