 Molden2AIM, Version 4.0.0 (06/02/2016)           Time: Thu Jun 28 03:34:41 2018
GAUSSIAN             25 MOL ORBITALS    755 PRIMITIVES       17 NUCLEI
  Si   1    (CENTRE  1)   0.00000000  0.00000000  0.00000000  CHARGE = 14.0
  C    2    (CENTRE  2)   2.06033060  2.06033060  2.06033060  CHARGE =  6.0
  H    3    (CENTRE  3)   3.28519249  3.28519249  0.91266969  CHARGE =  1.0
  H    4    (CENTRE  4)   3.28519249  0.91266969  3.28519249  CHARGE =  1.0
  H    5    (CENTRE  5)   0.91266969  3.28519249  3.28519249  CHARGE =  1.0
  C    6    (CENTRE  6)  -2.06033060 -2.06033060  2.06033060  CHARGE =  6.0
  H    7    (CENTRE  7)  -3.28519249 -0.91266969  3.28519249  CHARGE =  1.0
  H    8    (CENTRE  8)  -3.28519249 -3.28519249  0.91266969  CHARGE =  1.0
  H    9    (CENTRE  9)  -0.91266969 -3.28519249  3.28519249  CHARGE =  1.0
  C   10    (CENTRE 10)   2.06033060 -2.06033060 -2.06033060  CHARGE =  6.0
  H   11    (CENTRE 11)   0.91266969 -3.28519249 -3.28519249  CHARGE =  1.0
  H   12    (CENTRE 12)   3.28519249 -0.91266969 -3.28519249  CHARGE =  1.0
  H   13    (CENTRE 13)   3.28519249 -3.28519249 -0.91266969  CHARGE =  1.0
  C   14    (CENTRE 14)  -2.06033060  2.06033060 -2.06033060  CHARGE =  6.0
  H   15    (CENTRE 15)  -3.28519249  0.91266969 -3.28519249  CHARGE =  1.0
  H   16    (CENTRE 16)  -3.28519249  3.28519249 -0.91266969  CHARGE =  1.0
  H   17    (CENTRE 17)  -0.91266969  3.28519249 -3.28519249  CHARGE =  1.0
CENTRE ASSIGNMENTS    1  1  1  1  1  1  1  1  1  1  1  1  1  1  1  1  1  1  1  1
CENTRE ASSIGNMENTS    1  1  1  1  1  1  1  1  1  1  1  1  1  1  1  1  1  1  1  1
CENTRE ASSIGNMENTS    1  1  1  1  1  1  1  1  1  1  1  1  1  1  1  1  1  1  1  1
CENTRE ASSIGNMENTS    1  1  1  1  1  1  1  1  1  1  1  1  1  1  1  1  1  1  1  1
CENTRE ASSIGNMENTS    1  1  1  1  1  1  1  1  1  1  1  1  1  1  1  1  1  1  1  1
CENTRE ASSIGNMENTS    1  1  1  1  1  1  1  1  1  1  1  1  1  1  1  1  1  1  1  1
CENTRE ASSIGNMENTS    1  1  1  1  1  1  1  1  1  1  1  2  2  2  2  2  2  2  2  2
CENTRE ASSIGNMENTS    2  2  2  2  2  2  2  2  2  2  2  2  2  2  2  2  2  2  2  2
CENTRE ASSIGNMENTS    2  2  2  2  2  2  2  2  2  2  2  2  2  2  2  2  2  2  2  2
CENTRE ASSIGNMENTS    2  2  2  2  2  2  2  2  2  2  2  2  2  2  2  2  2  2  2  2
CENTRE ASSIGNMENTS    2  2  2  2  2  2  3  3  3  3  3  3  3  3  3  3  3  3  3  3
CENTRE ASSIGNMENTS    3  3  3  3  3  3  3  3  3  3  3  3  3  4  4  4  4  4  4  4
CENTRE ASSIGNMENTS    4  4  4  4  4  4  4  4  4  4  4  4  4  4  4  4  4  4  4  4
CENTRE ASSIGNMENTS    5  5  5  5  5  5  5  5  5  5  5  5  5  5  5  5  5  5  5  5
CENTRE ASSIGNMENTS    5  5  5  5  5  5  5  6  6  6  6  6  6  6  6  6  6  6  6  6
CENTRE ASSIGNMENTS    6  6  6  6  6  6  6  6  6  6  6  6  6  6  6  6  6  6  6  6
CENTRE ASSIGNMENTS    6  6  6  6  6  6  6  6  6  6  6  6  6  6  6  6  6  6  6  6
CENTRE ASSIGNMENTS    6  6  6  6  6  6  6  6  6  6  6  6  6  6  6  6  6  6  6  6
CENTRE ASSIGNMENTS    6  6  7  7  7  7  7  7  7  7  7  7  7  7  7  7  7  7  7  7
CENTRE ASSIGNMENTS    7  7  7  7  7  7  7  7  7  8  8  8  8  8  8  8  8  8  8  8
CENTRE ASSIGNMENTS    8  8  8  8  8  8  8  8  8  8  8  8  8  8  8  8  9  9  9  9
CENTRE ASSIGNMENTS    9  9  9  9  9  9  9  9  9  9  9  9  9  9  9  9  9  9  9  9
CENTRE ASSIGNMENTS    9  9  9 10 10 10 10 10 10 10 10 10 10 10 10 10 10 10 10 10
CENTRE ASSIGNMENTS   10 10 10 10 10 10 10 10 10 10 10 10 10 10 10 10 10 10 10 10
CENTRE ASSIGNMENTS   10 10 10 10 10 10 10 10 10 10 10 10 10 10 10 10 10 10 10 10
CENTRE ASSIGNMENTS   10 10 10 10 10 10 10 10 10 10 10 10 10 10 10 10 10 10 11 11
CENTRE ASSIGNMENTS   11 11 11 11 11 11 11 11 11 11 11 11 11 11 11 11 11 11 11 11
CENTRE ASSIGNMENTS   11 11 11 11 11 12 12 12 12 12 12 12 12 12 12 12 12 12 12 12
CENTRE ASSIGNMENTS   12 12 12 12 12 12 12 12 12 12 12 12 13 13 13 13 13 13 13 13
CENTRE ASSIGNMENTS   13 13 13 13 13 13 13 13 13 13 13 13 13 13 13 13 13 13 13 14
CENTRE ASSIGNMENTS   14 14 14 14 14 14 14 14 14 14 14 14 14 14 14 14 14 14 14 14
CENTRE ASSIGNMENTS   14 14 14 14 14 14 14 14 14 14 14 14 14 14 14 14 14 14 14 14
CENTRE ASSIGNMENTS   14 14 14 14 14 14 14 14 14 14 14 14 14 14 14 14 14 14 14 14
CENTRE ASSIGNMENTS   14 14 14 14 14 14 14 14 14 14 14 14 14 14 15 15 15 15 15 15
CENTRE ASSIGNMENTS   15 15 15 15 15 15 15 15 15 15 15 15 15 15 15 15 15 15 15 15
CENTRE ASSIGNMENTS   15 16 16 16 16 16 16 16 16 16 16 16 16 16 16 16 16 16 16 16
CENTRE ASSIGNMENTS   16 16 16 16 16 16 16 16 17 17 17 17 17 17 17 17 17 17 17 17
CENTRE ASSIGNMENTS   17 17 17 17 17 17 17 17 17 17 17 17 17 17 17
TYPE ASSIGNMENTS      1  1  1  1  1  1  1  1  1  1  1  1  1  1  1  1  1  1  1  1
TYPE ASSIGNMENTS      1  1  1  1  1  1  1  1  1  1  1  1  1  1  1  1  1  1  1  1
TYPE ASSIGNMENTS      1  1  2  2  2  2  2  2  2  3  3  3  3  3  3  3  4  4  4  4
TYPE ASSIGNMENTS      4  4  4  2  2  2  2  2  2  2  3  3  3  3  3  3  3  4  4  4
TYPE ASSIGNMENTS      4  4  4  4  2  3  4  2  3  4  2  3  4  5  6  7  8  9 10  5
TYPE ASSIGNMENTS      6  7  8  9 10  5  6  7  8  9 10 11 12 13 17 14 15 18 19 16
TYPE ASSIGNMENTS     20 11 12 13 17 14 15 18 19 16 20  1  1  1  1  1  1  1  1  1
TYPE ASSIGNMENTS      1  1  1  1  1  1  1  1  1  1  2  2  2  3  3  3  4  4  4  2
TYPE ASSIGNMENTS      3  4  2  3  4  2  3  4  5  6  7  8  9 10  5  6  7  8  9 10
TYPE ASSIGNMENTS      5  6  7  8  9 10 11 12 13 17 14 15 18 19 16 20 11 12 13 17
TYPE ASSIGNMENTS     14 15 18 19 16 20  1  1  1  1  1  1  2  3  4  2  3  4  2  3
TYPE ASSIGNMENTS      4  5  6  7  8  9 10  5  6  7  8  9 10  1  1  1  1  1  1  2
TYPE ASSIGNMENTS      3  4  2  3  4  2  3  4  5  6  7  8  9 10  5  6  7  8  9 10
TYPE ASSIGNMENTS      1  1  1  1  1  1  2  3  4  2  3  4  2  3  4  5  6  7  8  9
TYPE ASSIGNMENTS     10  5  6  7  8  9 10  1  1  1  1  1  1  1  1  1  1  1  1  1
TYPE ASSIGNMENTS      1  1  1  1  1  1  2  2  2  3  3  3  4  4  4  2  3  4  2  3
TYPE ASSIGNMENTS      4  2  3  4  5  6  7  8  9 10  5  6  7  8  9 10  5  6  7  8
TYPE ASSIGNMENTS      9 10 11 12 13 17 14 15 18 19 16 20 11 12 13 17 14 15 18 19
TYPE ASSIGNMENTS     16 20  1  1  1  1  1  1  2  3  4  2  3  4  2  3  4  5  6  7
TYPE ASSIGNMENTS      8  9 10  5  6  7  8  9 10  1  1  1  1  1  1  2  3  4  2  3
TYPE ASSIGNMENTS      4  2  3  4  5  6  7  8  9 10  5  6  7  8  9 10  1  1  1  1
TYPE ASSIGNMENTS      1  1  2  3  4  2  3  4  2  3  4  5  6  7  8  9 10  5  6  7
TYPE ASSIGNMENTS      8  9 10  1  1  1  1  1  1  1  1  1  1  1  1  1  1  1  1  1
TYPE ASSIGNMENTS      1  1  2  2  2  3  3  3  4  4  4  2  3  4  2  3  4  2  3  4
TYPE ASSIGNMENTS      5  6  7  8  9 10  5  6  7  8  9 10  5  6  7  8  9 10 11 12
TYPE ASSIGNMENTS     13 17 14 15 18 19 16 20 11 12 13 17 14 15 18 19 16 20  1  1
TYPE ASSIGNMENTS      1  1  1  1  2  3  4  2  3  4  2  3  4  5  6  7  8  9 10  5
TYPE ASSIGNMENTS      6  7  8  9 10  1  1  1  1  1  1  2  3  4  2  3  4  2  3  4
TYPE ASSIGNMENTS      5  6  7  8  9 10  5  6  7  8  9 10  1  1  1  1  1  1  2  3
TYPE ASSIGNMENTS      4  2  3  4  2  3  4  5  6  7  8  9 10  5  6  7  8  9 10  1
TYPE ASSIGNMENTS      1  1  1  1  1  1  1  1  1  1  1  1  1  1  1  1  1  1  2  2
TYPE ASSIGNMENTS      2  3  3  3  4  4  4  2  3  4  2  3  4  2  3  4  5  6  7  8
TYPE ASSIGNMENTS      9 10  5  6  7  8  9 10  5  6  7  8  9 10 11 12 13 17 14 15
TYPE ASSIGNMENTS     18 19 16 20 11 12 13 17 14 15 18 19 16 20  1  1  1  1  1  1
TYPE ASSIGNMENTS      2  3  4  2  3  4  2  3  4  5  6  7  8  9 10  5  6  7  8  9
TYPE ASSIGNMENTS     10  1  1  1  1  1  1  2  3  4  2  3  4  2  3  4  5  6  7  8
TYPE ASSIGNMENTS      9 10  5  6  7  8  9 10  1  1  1  1  1  1  2  3  4  2  3  4
TYPE ASSIGNMENTS      2  3  4  5  6  7  8  9 10  5  6  7  8  9 10
EXPONENTS  0.2549000D+06 0.3819000D+05 0.8690000D+04 0.2462000D+04 0.8048000D+03
EXPONENTS  0.2913000D+03 0.1136000D+03 0.4675000D+02 0.1982000D+02 0.7708000D+01
EXPONENTS  0.3340000D+01 0.1402000D+01 0.2070000D+00 0.2549000D+06 0.3819000D+05
EXPONENTS  0.8690000D+04 0.2462000D+04 0.8048000D+03 0.2913000D+03 0.1136000D+03
EXPONENTS  0.4675000D+02 0.1982000D+02 0.7708000D+01 0.3340000D+01 0.1402000D+01
EXPONENTS  0.2070000D+00 0.2549000D+06 0.3819000D+05 0.8690000D+04 0.2462000D+04
EXPONENTS  0.8048000D+03 0.2913000D+03 0.1136000D+03 0.4675000D+02 0.1982000D+02
EXPONENTS  0.7708000D+01 0.3340000D+01 0.1402000D+01 0.2070000D+00 0.4387000D+00
EXPONENTS  0.7944000D-01 0.3300000D-01 0.4815000D+03 0.1139000D+03 0.3623000D+02
EXPONENTS  0.1334000D+02 0.5252000D+01 0.2120000D+01 0.2528000D+00 0.4815000D+03
EXPONENTS  0.1139000D+03 0.3623000D+02 0.1334000D+02 0.5252000D+01 0.2120000D+01
EXPONENTS  0.2528000D+00 0.4815000D+03 0.1139000D+03 0.3623000D+02 0.1334000D+02
EXPONENTS  0.5252000D+01 0.2120000D+01 0.2528000D+00 0.4815000D+03 0.1139000D+03
EXPONENTS  0.3623000D+02 0.1334000D+02 0.5252000D+01 0.2120000D+01 0.2528000D+00
EXPONENTS  0.4815000D+03 0.1139000D+03 0.3623000D+02 0.1334000D+02 0.5252000D+01
EXPONENTS  0.2120000D+01 0.2528000D+00 0.4815000D+03 0.1139000D+03 0.3623000D+02
EXPONENTS  0.1334000D+02 0.5252000D+01 0.2120000D+01 0.2528000D+00 0.8561000D+00
EXPONENTS  0.8561000D+00 0.8561000D+00 0.7889000D-01 0.7889000D-01 0.7889000D-01
EXPONENTS  0.2370000D-01 0.2370000D-01 0.2370000D-01 0.1590000D+00 0.1590000D+00
EXPONENTS  0.1590000D+00 0.1590000D+00 0.1590000D+00 0.1590000D+00 0.4810000D+00
EXPONENTS  0.4810000D+00 0.4810000D+00 0.4810000D+00 0.4810000D+00 0.4810000D+00
EXPONENTS  0.5560000D-01 0.5560000D-01 0.5560000D-01 0.5560000D-01 0.5560000D-01
EXPONENTS  0.5560000D-01 0.3360000D+00 0.3360000D+00 0.3360000D+00 0.3360000D+00
EXPONENTS  0.3360000D+00 0.3360000D+00 0.3360000D+00 0.3360000D+00 0.3360000D+00
EXPONENTS  0.3360000D+00 0.1250000D+00 0.1250000D+00 0.1250000D+00 0.1250000D+00
EXPONENTS  0.1250000D+00 0.1250000D+00 0.1250000D+00 0.1250000D+00 0.1250000D+00
EXPONENTS  0.1250000D+00 0.8236000D+04 0.1235000D+04 0.2808000D+03 0.7927000D+02
EXPONENTS  0.2559000D+02 0.8997000D+01 0.3319000D+01 0.3643000D+00 0.8236000D+04
EXPONENTS  0.1235000D+04 0.2808000D+03 0.7927000D+02 0.2559000D+02 0.8997000D+01
EXPONENTS  0.3319000D+01 0.3643000D+00 0.9059000D+00 0.1285000D+00 0.4402000D-01
EXPONENTS  0.1871000D+02 0.4133000D+01 0.1200000D+01 0.1871000D+02 0.4133000D+01
EXPONENTS  0.1200000D+01 0.1871000D+02 0.4133000D+01 0.1200000D+01 0.3827000D+00
EXPONENTS  0.3827000D+00 0.3827000D+00 0.1209000D+00 0.1209000D+00 0.1209000D+00
EXPONENTS  0.3569000D-01 0.3569000D-01 0.3569000D-01 0.1097000D+01 0.1097000D+01
EXPONENTS  0.1097000D+01 0.1097000D+01 0.1097000D+01 0.1097000D+01 0.3180000D+00
EXPONENTS  0.3180000D+00 0.3180000D+00 0.3180000D+00 0.3180000D+00 0.3180000D+00
EXPONENTS  0.1000000D+00 0.1000000D+00 0.1000000D+00 0.1000000D+00 0.1000000D+00
EXPONENTS  0.1000000D+00 0.7610000D+00 0.7610000D+00 0.7610000D+00 0.7610000D+00
EXPONENTS  0.7610000D+00 0.7610000D+00 0.7610000D+00 0.7610000D+00 0.7610000D+00
EXPONENTS  0.7610000D+00 0.2680000D+00 0.2680000D+00 0.2680000D+00 0.2680000D+00
EXPONENTS  0.2680000D+00 0.2680000D+00 0.2680000D+00 0.2680000D+00 0.2680000D+00
EXPONENTS  0.2680000D+00 0.3387000D+02 0.5095000D+01 0.1159000D+01 0.3258000D+00
EXPONENTS  0.1027000D+00 0.2526000D-01 0.1407000D+01 0.1407000D+01 0.1407000D+01
EXPONENTS  0.3880000D+00 0.3880000D+00 0.3880000D+00 0.1020000D+00 0.1020000D+00
EXPONENTS  0.1020000D+00 0.1057000D+01 0.1057000D+01 0.1057000D+01 0.1057000D+01
EXPONENTS  0.1057000D+01 0.1057000D+01 0.2470000D+00 0.2470000D+00 0.2470000D+00
EXPONENTS  0.2470000D+00 0.2470000D+00 0.2470000D+00 0.3387000D+02 0.5095000D+01
EXPONENTS  0.1159000D+01 0.3258000D+00 0.1027000D+00 0.2526000D-01 0.1407000D+01
EXPONENTS  0.1407000D+01 0.1407000D+01 0.3880000D+00 0.3880000D+00 0.3880000D+00
EXPONENTS  0.1020000D+00 0.1020000D+00 0.1020000D+00 0.1057000D+01 0.1057000D+01
EXPONENTS  0.1057000D+01 0.1057000D+01 0.1057000D+01 0.1057000D+01 0.2470000D+00
EXPONENTS  0.2470000D+00 0.2470000D+00 0.2470000D+00 0.2470000D+00 0.2470000D+00
EXPONENTS  0.3387000D+02 0.5095000D+01 0.1159000D+01 0.3258000D+00 0.1027000D+00
EXPONENTS  0.2526000D-01 0.1407000D+01 0.1407000D+01 0.1407000D+01 0.3880000D+00
EXPONENTS  0.3880000D+00 0.3880000D+00 0.1020000D+00 0.1020000D+00 0.1020000D+00
EXPONENTS  0.1057000D+01 0.1057000D+01 0.1057000D+01 0.1057000D+01 0.1057000D+01
EXPONENTS  0.1057000D+01 0.2470000D+00 0.2470000D+00 0.2470000D+00 0.2470000D+00
EXPONENTS  0.2470000D+00 0.2470000D+00 0.8236000D+04 0.1235000D+04 0.2808000D+03
EXPONENTS  0.7927000D+02 0.2559000D+02 0.8997000D+01 0.3319000D+01 0.3643000D+00
EXPONENTS  0.8236000D+04 0.1235000D+04 0.2808000D+03 0.7927000D+02 0.2559000D+02
EXPONENTS  0.8997000D+01 0.3319000D+01 0.3643000D+00 0.9059000D+00 0.1285000D+00
EXPONENTS  0.4402000D-01 0.1871000D+02 0.4133000D+01 0.1200000D+01 0.1871000D+02
EXPONENTS  0.4133000D+01 0.1200000D+01 0.1871000D+02 0.4133000D+01 0.1200000D+01
EXPONENTS  0.3827000D+00 0.3827000D+00 0.3827000D+00 0.1209000D+00 0.1209000D+00
EXPONENTS  0.1209000D+00 0.3569000D-01 0.3569000D-01 0.3569000D-01 0.1097000D+01
EXPONENTS  0.1097000D+01 0.1097000D+01 0.1097000D+01 0.1097000D+01 0.1097000D+01
EXPONENTS  0.3180000D+00 0.3180000D+00 0.3180000D+00 0.3180000D+00 0.3180000D+00
EXPONENTS  0.3180000D+00 0.1000000D+00 0.1000000D+00 0.1000000D+00 0.1000000D+00
EXPONENTS  0.1000000D+00 0.1000000D+00 0.7610000D+00 0.7610000D+00 0.7610000D+00
EXPONENTS  0.7610000D+00 0.7610000D+00 0.7610000D+00 0.7610000D+00 0.7610000D+00
EXPONENTS  0.7610000D+00 0.7610000D+00 0.2680000D+00 0.2680000D+00 0.2680000D+00
EXPONENTS  0.2680000D+00 0.2680000D+00 0.2680000D+00 0.2680000D+00 0.2680000D+00
EXPONENTS  0.2680000D+00 0.2680000D+00 0.3387000D+02 0.5095000D+01 0.1159000D+01
EXPONENTS  0.3258000D+00 0.1027000D+00 0.2526000D-01 0.1407000D+01 0.1407000D+01
EXPONENTS  0.1407000D+01 0.3880000D+00 0.3880000D+00 0.3880000D+00 0.1020000D+00
EXPONENTS  0.1020000D+00 0.1020000D+00 0.1057000D+01 0.1057000D+01 0.1057000D+01
EXPONENTS  0.1057000D+01 0.1057000D+01 0.1057000D+01 0.2470000D+00 0.2470000D+00
EXPONENTS  0.2470000D+00 0.2470000D+00 0.2470000D+00 0.2470000D+00 0.3387000D+02
EXPONENTS  0.5095000D+01 0.1159000D+01 0.3258000D+00 0.1027000D+00 0.2526000D-01
EXPONENTS  0.1407000D+01 0.1407000D+01 0.1407000D+01 0.3880000D+00 0.3880000D+00
EXPONENTS  0.3880000D+00 0.1020000D+00 0.1020000D+00 0.1020000D+00 0.1057000D+01
EXPONENTS  0.1057000D+01 0.1057000D+01 0.1057000D+01 0.1057000D+01 0.1057000D+01
EXPONENTS  0.2470000D+00 0.2470000D+00 0.2470000D+00 0.2470000D+00 0.2470000D+00
EXPONENTS  0.2470000D+00 0.3387000D+02 0.5095000D+01 0.1159000D+01 0.3258000D+00
EXPONENTS  0.1027000D+00 0.2526000D-01 0.1407000D+01 0.1407000D+01 0.1407000D+01
EXPONENTS  0.3880000D+00 0.3880000D+00 0.3880000D+00 0.1020000D+00 0.1020000D+00
EXPONENTS  0.1020000D+00 0.1057000D+01 0.1057000D+01 0.1057000D+01 0.1057000D+01
EXPONENTS  0.1057000D+01 0.1057000D+01 0.2470000D+00 0.2470000D+00 0.2470000D+00
EXPONENTS  0.2470000D+00 0.2470000D+00 0.2470000D+00 0.8236000D+04 0.1235000D+04
EXPONENTS  0.2808000D+03 0.7927000D+02 0.2559000D+02 0.8997000D+01 0.3319000D+01
EXPONENTS  0.3643000D+00 0.8236000D+04 0.1235000D+04 0.2808000D+03 0.7927000D+02
EXPONENTS  0.2559000D+02 0.8997000D+01 0.3319000D+01 0.3643000D+00 0.9059000D+00
EXPONENTS  0.1285000D+00 0.4402000D-01 0.1871000D+02 0.4133000D+01 0.1200000D+01
EXPONENTS  0.1871000D+02 0.4133000D+01 0.1200000D+01 0.1871000D+02 0.4133000D+01
EXPONENTS  0.1200000D+01 0.3827000D+00 0.3827000D+00 0.3827000D+00 0.1209000D+00
EXPONENTS  0.1209000D+00 0.1209000D+00 0.3569000D-01 0.3569000D-01 0.3569000D-01
EXPONENTS  0.1097000D+01 0.1097000D+01 0.1097000D+01 0.1097000D+01 0.1097000D+01
EXPONENTS  0.1097000D+01 0.3180000D+00 0.3180000D+00 0.3180000D+00 0.3180000D+00
EXPONENTS  0.3180000D+00 0.3180000D+00 0.1000000D+00 0.1000000D+00 0.1000000D+00
EXPONENTS  0.1000000D+00 0.1000000D+00 0.1000000D+00 0.7610000D+00 0.7610000D+00
EXPONENTS  0.7610000D+00 0.7610000D+00 0.7610000D+00 0.7610000D+00 0.7610000D+00
EXPONENTS  0.7610000D+00 0.7610000D+00 0.7610000D+00 0.2680000D+00 0.2680000D+00
EXPONENTS  0.2680000D+00 0.2680000D+00 0.2680000D+00 0.2680000D+00 0.2680000D+00
EXPONENTS  0.2680000D+00 0.2680000D+00 0.2680000D+00 0.3387000D+02 0.5095000D+01
EXPONENTS  0.1159000D+01 0.3258000D+00 0.1027000D+00 0.2526000D-01 0.1407000D+01
EXPONENTS  0.1407000D+01 0.1407000D+01 0.3880000D+00 0.3880000D+00 0.3880000D+00
EXPONENTS  0.1020000D+00 0.1020000D+00 0.1020000D+00 0.1057000D+01 0.1057000D+01
EXPONENTS  0.1057000D+01 0.1057000D+01 0.1057000D+01 0.1057000D+01 0.2470000D+00
EXPONENTS  0.2470000D+00 0.2470000D+00 0.2470000D+00 0.2470000D+00 0.2470000D+00
EXPONENTS  0.3387000D+02 0.5095000D+01 0.1159000D+01 0.3258000D+00 0.1027000D+00
EXPONENTS  0.2526000D-01 0.1407000D+01 0.1407000D+01 0.1407000D+01 0.3880000D+00
EXPONENTS  0.3880000D+00 0.3880000D+00 0.1020000D+00 0.1020000D+00 0.1020000D+00
EXPONENTS  0.1057000D+01 0.1057000D+01 0.1057000D+01 0.1057000D+01 0.1057000D+01
EXPONENTS  0.1057000D+01 0.2470000D+00 0.2470000D+00 0.2470000D+00 0.2470000D+00
EXPONENTS  0.2470000D+00 0.2470000D+00 0.3387000D+02 0.5095000D+01 0.1159000D+01
EXPONENTS  0.3258000D+00 0.1027000D+00 0.2526000D-01 0.1407000D+01 0.1407000D+01
EXPONENTS  0.1407000D+01 0.3880000D+00 0.3880000D+00 0.3880000D+00 0.1020000D+00
EXPONENTS  0.1020000D+00 0.1020000D+00 0.1057000D+01 0.1057000D+01 0.1057000D+01
EXPONENTS  0.1057000D+01 0.1057000D+01 0.1057000D+01 0.2470000D+00 0.2470000D+00
EXPONENTS  0.2470000D+00 0.2470000D+00 0.2470000D+00 0.2470000D+00 0.8236000D+04
EXPONENTS  0.1235000D+04 0.2808000D+03 0.7927000D+02 0.2559000D+02 0.8997000D+01
EXPONENTS  0.3319000D+01 0.3643000D+00 0.8236000D+04 0.1235000D+04 0.2808000D+03
EXPONENTS  0.7927000D+02 0.2559000D+02 0.8997000D+01 0.3319000D+01 0.3643000D+00
EXPONENTS  0.9059000D+00 0.1285000D+00 0.4402000D-01 0.1871000D+02 0.4133000D+01
EXPONENTS  0.1200000D+01 0.1871000D+02 0.4133000D+01 0.1200000D+01 0.1871000D+02
EXPONENTS  0.4133000D+01 0.1200000D+01 0.3827000D+00 0.3827000D+00 0.3827000D+00
EXPONENTS  0.1209000D+00 0.1209000D+00 0.1209000D+00 0.3569000D-01 0.3569000D-01
EXPONENTS  0.3569000D-01 0.1097000D+01 0.1097000D+01 0.1097000D+01 0.1097000D+01
EXPONENTS  0.1097000D+01 0.1097000D+01 0.3180000D+00 0.3180000D+00 0.3180000D+00
EXPONENTS  0.3180000D+00 0.3180000D+00 0.3180000D+00 0.1000000D+00 0.1000000D+00
EXPONENTS  0.1000000D+00 0.1000000D+00 0.1000000D+00 0.1000000D+00 0.7610000D+00
EXPONENTS  0.7610000D+00 0.7610000D+00 0.7610000D+00 0.7610000D+00 0.7610000D+00
EXPONENTS  0.7610000D+00 0.7610000D+00 0.7610000D+00 0.7610000D+00 0.2680000D+00
EXPONENTS  0.2680000D+00 0.2680000D+00 0.2680000D+00 0.2680000D+00 0.2680000D+00
EXPONENTS  0.2680000D+00 0.2680000D+00 0.2680000D+00 0.2680000D+00 0.3387000D+02
EXPONENTS  0.5095000D+01 0.1159000D+01 0.3258000D+00 0.1027000D+00 0.2526000D-01
EXPONENTS  0.1407000D+01 0.1407000D+01 0.1407000D+01 0.3880000D+00 0.3880000D+00
EXPONENTS  0.3880000D+00 0.1020000D+00 0.1020000D+00 0.1020000D+00 0.1057000D+01
EXPONENTS  0.1057000D+01 0.1057000D+01 0.1057000D+01 0.1057000D+01 0.1057000D+01
EXPONENTS  0.2470000D+00 0.2470000D+00 0.2470000D+00 0.2470000D+00 0.2470000D+00
EXPONENTS  0.2470000D+00 0.3387000D+02 0.5095000D+01 0.1159000D+01 0.3258000D+00
EXPONENTS  0.1027000D+00 0.2526000D-01 0.1407000D+01 0.1407000D+01 0.1407000D+01
EXPONENTS  0.3880000D+00 0.3880000D+00 0.3880000D+00 0.1020000D+00 0.1020000D+00
EXPONENTS  0.1020000D+00 0.1057000D+01 0.1057000D+01 0.1057000D+01 0.1057000D+01
EXPONENTS  0.1057000D+01 0.1057000D+01 0.2470000D+00 0.2470000D+00 0.2470000D+00
EXPONENTS  0.2470000D+00 0.2470000D+00 0.2470000D+00 0.3387000D+02 0.5095000D+01
EXPONENTS  0.1159000D+01 0.3258000D+00 0.1027000D+00 0.2526000D-01 0.1407000D+01
EXPONENTS  0.1407000D+01 0.1407000D+01 0.3880000D+00 0.3880000D+00 0.3880000D+00
EXPONENTS  0.1020000D+00 0.1020000D+00 0.1020000D+00 0.1057000D+01 0.1057000D+01
EXPONENTS  0.1057000D+01 0.1057000D+01 0.1057000D+01 0.1057000D+01 0.2470000D+00
EXPONENTS  0.2470000D+00 0.2470000D+00 0.2470000D+00 0.2470000D+00 0.2470000D+00
MO    1     MO 0.0        OCC NO =    2.0000000  ORB. ENERGY =  -67.007726
  0.50686135D+00  0.94811386D+00  0.16373500D+01  0.26447471D+01  0.39829347D+01
  0.54167724D+01  0.61664462D+01  0.49956671D+01  0.20278400D+01  0.18491111D+00
 -0.71061751D-02  0.23762538D-02  0.13334998D-03 -0.28460877D-02 -0.53270926D-02
 -0.92134115D-02 -0.14974735D-01 -0.22911222D-01 -0.32512608D-01 -0.40784366D-01
 -0.41583195D-01 -0.25549542D-01  0.55683136D-02  0.20395909D-01  0.93283706D-02
 -0.49515502D-04  0.15531464D-02  0.29049259D-02  0.50305446D-02  0.81678300D-02
  0.12537454D-01  0.17808894D-01  0.22593407D-01  0.23390280D-01  0.15066183D-01
 -0.37056060D-02 -0.15105191D-01 -0.13174355D-01  0.67143369D-02 -0.10234216D-02
 -0.15424410D-01  0.85012277D-04  0.70243926D-14  0.92655359D-14  0.10291734D-13
  0.88082739D-14  0.50329769D-14  0.16333107D-14  0.11500612D-17  0.11928437D-13
  0.15734223D-13  0.17476857D-13  0.14957726D-13  0.85467244D-14  0.27735984D-14
  0.19529707D-17  0.67565624D-13  0.89122540D-13  0.98993249D-13  0.84724268D-13
  0.48410766D-13  0.15710349D-13  0.11062110D-16 -0.54519020D-14 -0.74554059D-14
 -0.81047772D-14 -0.74397616D-14 -0.40549722D-14 -0.17111204D-14  0.59014467D-15
 -0.10673254D-13 -0.14595538D-13 -0.15866820D-13 -0.14564911D-13 -0.79384680D-14
 -0.33498810D-14  0.11553333D-14 -0.56419739D-13 -0.77153267D-13 -0.83873373D-13
 -0.76991370D-13 -0.41963423D-13 -0.17707759D-13  0.61071912D-14 -0.12078475D-14
  0.65525355D-15 -0.44298729D-14  0.34831639D-13 -0.27113859D-13  0.10266189D-12
  0.30437838D-14 -0.16829300D-14  0.68779828D-14  0.21367979D-14  0.84365888D-15
 -0.29804568D-14  0.94887699D-14 -0.25405432D-15 -0.10007065D-14 -0.10851574D-14
 -0.64036769D-16  0.11491942D-14  0.29653158D-14 -0.40205297D-15  0.39527006D-15
 -0.30555788D-14  0.13709314D-14  0.16846474D-14  0.73703859D-14 -0.14149457D-14
  0.28817065D-14  0.18112041D-15 -0.37472499D-17 -0.80829004D-15 -0.52733357D-15
  0.41856983D-15  0.99208583D-15 -0.16027645D-16 -0.40732808D-15  0.14327843D-14
  0.29738649D-03  0.45446008D-15 -0.55054789D-15  0.25354656D-15 -0.25159294D-15
  0.42222459D-15  0.20968465D-15 -0.11117873D-14  0.12294191D-14 -0.97032434D-15
 -0.41821816D-03  0.75406102D-04  0.14057412D-03  0.23759502D-03  0.35718315D-03
  0.43884077D-03  0.37067118D-03  0.13980353D-03 -0.69189548D-06 -0.53778700D-04
 -0.10069069D-03 -0.17143452D-03 -0.26518314D-03 -0.34923687D-03 -0.36287947D-03
 -0.23059362D-03  0.15453848D-03 -0.17906965D-04  0.27160485D-02  0.29617900D-04
 -0.74128996D-04 -0.69500646D-04 -0.49488600D-04 -0.74128996D-04 -0.69500646D-04
 -0.49488600D-04 -0.74128996D-04 -0.69500646D-04 -0.49488600D-04  0.95903778D-04
  0.95903778D-04  0.95903778D-04 -0.96758728D-03 -0.96758728D-03 -0.96758728D-03
 -0.16778887D-05 -0.16778887D-05 -0.16778887D-05 -0.84302186D-15 -0.40524411D-15
  0.12482660D-14  0.11437513D-03  0.11437513D-03  0.11437513D-03  0.52509454D-15
 -0.70228107D-15  0.17718653D-15 -0.28062522D-03 -0.28062522D-03 -0.28062522D-03
  0.49469117D-15 -0.32388097D-14  0.27441186D-14  0.67225082D-04  0.67225082D-04
  0.67225082D-04 -0.33124520D-04 -0.33124520D-04 -0.33124520D-04  0.49686780D-04
  0.49686780D-04  0.49686780D-04  0.49686780D-04  0.49686780D-04  0.49686780D-04
 -0.44995142D-03 -0.34174168D-04 -0.34174168D-04 -0.34174168D-04  0.51261251D-04
  0.51261251D-04  0.51261251D-04  0.51261251D-04  0.51261251D-04  0.51261251D-04
  0.14050437D-03  0.11293463D-04  0.20368225D-04  0.30032936D-04 -0.42933658D-03
  0.10553714D-02 -0.75161617D-06  0.63234462D-04  0.63234462D-04 -0.10719384D-03
  0.19178018D-03  0.19178018D-03  0.12661546D-03 -0.13648447D-03 -0.13648447D-03
 -0.67105763D-05 -0.34671667D-04 -0.34671667D-04  0.69343333D-04 -0.18970643D-03
 -0.49513458D-04 -0.49513458D-04 -0.44343528D-05 -0.44343528D-05  0.88687056D-05
 -0.20060709D-04  0.23075580D-04  0.23075580D-04  0.11293463D-04  0.20368225D-04
  0.30032936D-04 -0.42933658D-03  0.10553714D-02 -0.75161618D-06  0.63234462D-04
 -0.10719384D-03  0.63234462D-04  0.19178018D-03  0.12661546D-03  0.19178018D-03
 -0.13648447D-03 -0.67105763D-05 -0.13648447D-03 -0.34671667D-04  0.69343333D-04
 -0.34671667D-04 -0.49513458D-04 -0.18970643D-03 -0.49513458D-04 -0.44343528D-05
  0.88687056D-05 -0.44343528D-05  0.23075580D-04 -0.20060709D-04  0.23075580D-04
  0.11293463D-04  0.20368225D-04  0.30032936D-04 -0.42933658D-03  0.10553714D-02
 -0.75161618D-06 -0.10719384D-03  0.63234462D-04  0.63234462D-04  0.12661546D-03
  0.19178018D-03  0.19178018D-03 -0.67105763D-05 -0.13648447D-03 -0.13648447D-03
  0.69343333D-04 -0.34671667D-04 -0.34671667D-04 -0.49513458D-04 -0.49513458D-04
 -0.18970643D-03  0.88687056D-05 -0.44343528D-05 -0.44343528D-05  0.23075580D-04
  0.23075580D-04 -0.20060709D-04  0.75406102D-04  0.14057412D-03  0.23759502D-03
  0.35718315D-03  0.43884077D-03  0.37067118D-03  0.13980353D-03 -0.69189548D-06
 -0.53778700D-04 -0.10069069D-03 -0.17143452D-03 -0.26518314D-03 -0.34923687D-03
 -0.36287947D-03 -0.23059362D-03  0.15453848D-03 -0.17906965D-04  0.27160485D-02
  0.29617900D-04  0.74128996D-04  0.69500646D-04  0.49488600D-04  0.74128996D-04
  0.69500646D-04  0.49488600D-04 -0.74128996D-04 -0.69500646D-04 -0.49488600D-04
 -0.95903778D-04 -0.95903778D-04  0.95903778D-04  0.96758728D-03  0.96758728D-03
 -0.96758728D-03  0.16778887D-05  0.16778887D-05 -0.16778887D-05 -0.18786967D-14
  0.68507933D-18  0.18780116D-14  0.11437513D-03 -0.11437513D-03 -0.11437513D-03
  0.60891082D-15  0.10062479D-15 -0.70953561D-15 -0.28062522D-03  0.28062522D-03
  0.28062522D-03 -0.21462960D-14 -0.98239920D-15  0.31286952D-14  0.67225082D-04
 -0.67225082D-04 -0.67225082D-04  0.33124520D-04  0.33124520D-04 -0.33124520D-04
 -0.49686780D-04 -0.49686780D-04  0.49686780D-04 -0.49686780D-04 -0.49686780D-04
  0.49686780D-04 -0.44995142D-03  0.34174168D-04  0.34174168D-04 -0.34174168D-04
 -0.51261251D-04 -0.51261251D-04  0.51261251D-04 -0.51261251D-04 -0.51261251D-04
  0.51261251D-04  0.14050437D-03  0.11293463D-04  0.20368225D-04  0.30032936D-04
 -0.42933658D-03  0.10553714D-02 -0.75161618D-06 -0.63234462D-04  0.10719384D-03
  0.63234462D-04 -0.19178018D-03 -0.12661546D-03  0.19178018D-03  0.13648447D-03
  0.67105763D-05 -0.13648447D-03 -0.34671667D-04  0.69343333D-04 -0.34671667D-04
 -0.49513458D-04  0.18970643D-03  0.49513458D-04 -0.44343528D-05  0.88687056D-05
 -0.44343528D-05  0.23075580D-04  0.20060709D-04 -0.23075580D-04  0.11293463D-04
  0.20368225D-04  0.30032936D-04 -0.42933658D-03  0.10553714D-02 -0.75161617D-06
 -0.63234462D-04 -0.63234462D-04 -0.10719384D-03 -0.19178018D-03 -0.19178018D-03
  0.12661546D-03  0.13648447D-03  0.13648447D-03 -0.67105763D-05 -0.34671667D-04
 -0.34671667D-04  0.69343333D-04 -0.18970643D-03  0.49513458D-04  0.49513458D-04
 -0.44343528D-05 -0.44343528D-05  0.88687056D-05 -0.20060709D-04 -0.23075580D-04
 -0.23075580D-04  0.11293463D-04  0.20368225D-04  0.30032936D-04 -0.42933658D-03
  0.10553714D-02 -0.75161618D-06  0.10719384D-03 -0.63234462D-04  0.63234462D-04
 -0.12661546D-03 -0.19178018D-03  0.19178018D-03  0.67105763D-05  0.13648447D-03
 -0.13648447D-03  0.69343333D-04 -0.34671667D-04 -0.34671667D-04 -0.49513458D-04
  0.49513458D-04  0.18970643D-03  0.88687056D-05 -0.44343528D-05 -0.44343528D-05
  0.23075580D-04 -0.23075580D-04  0.20060709D-04  0.75406102D-04  0.14057412D-03
  0.23759502D-03  0.35718315D-03  0.43884077D-03  0.37067118D-03  0.13980353D-03
 -0.69189548D-06 -0.53778700D-04 -0.10069069D-03 -0.17143452D-03 -0.26518314D-03
 -0.34923687D-03 -0.36287947D-03 -0.23059362D-03  0.15453848D-03 -0.17906965D-04
  0.27160485D-02  0.29617900D-04 -0.74128996D-04 -0.69500646D-04 -0.49488600D-04
  0.74128996D-04  0.69500646D-04  0.49488600D-04  0.74128996D-04  0.69500646D-04
  0.49488600D-04  0.95903778D-04 -0.95903778D-04 -0.95903778D-04 -0.96758728D-03
  0.96758728D-03  0.96758728D-03 -0.16778887D-05  0.16778887D-05  0.16778887D-05
 -0.18474517D-14  0.26508335D-16  0.18209434D-14 -0.11437513D-03 -0.11437513D-03
  0.11437513D-03  0.21199696D-14  0.80086047D-15 -0.29208301D-14  0.28062522D-03
  0.28062522D-03 -0.28062522D-03  0.37977316D-14  0.31847292D-14 -0.69824609D-14
 -0.67225082D-04 -0.67225082D-04  0.67225082D-04 -0.33124520D-04  0.33124520D-04
  0.33124520D-04  0.49686780D-04 -0.49686780D-04 -0.49686780D-04  0.49686780D-04
 -0.49686780D-04 -0.49686780D-04 -0.44995142D-03 -0.34174168D-04  0.34174168D-04
  0.34174168D-04  0.51261251D-04 -0.51261251D-04 -0.51261251D-04  0.51261251D-04
 -0.51261251D-04 -0.51261251D-04  0.14050437D-03  0.11293463D-04  0.20368225D-04
  0.30032936D-04 -0.42933658D-03  0.10553714D-02 -0.75161617D-06 -0.10719384D-03
 -0.63234462D-04 -0.63234462D-04  0.12661546D-03 -0.19178018D-03 -0.19178018D-03
 -0.67105763D-05  0.13648447D-03  0.13648447D-03  0.69343333D-04 -0.34671667D-04
 -0.34671667D-04  0.49513458D-04  0.49513458D-04 -0.18970643D-03  0.88687056D-05
 -0.44343528D-05 -0.44343528D-05 -0.23075580D-04 -0.23075580D-04 -0.20060709D-04
  0.11293463D-04  0.20368225D-04  0.30032936D-04 -0.42933658D-03  0.10553714D-02
 -0.75161617D-06  0.63234462D-04  0.10719384D-03 -0.63234462D-04  0.19178018D-03
 -0.12661546D-03 -0.19178018D-03 -0.13648447D-03  0.67105763D-05  0.13648447D-03
 -0.34671667D-04  0.69343333D-04 -0.34671667D-04  0.49513458D-04  0.18970643D-03
 -0.49513458D-04 -0.44343528D-05  0.88687056D-05 -0.44343528D-05 -0.23075580D-04
  0.20060709D-04  0.23075580D-04  0.11293463D-04  0.20368225D-04  0.30032936D-04
 -0.42933658D-03  0.10553714D-02 -0.75161618D-06  0.63234462D-04 -0.63234462D-04
  0.10719384D-03  0.19178018D-03 -0.19178018D-03 -0.12661546D-03 -0.13648447D-03
  0.13648447D-03  0.67105763D-05 -0.34671667D-04 -0.34671667D-04  0.69343333D-04
  0.18970643D-03  0.49513458D-04 -0.49513458D-04 -0.44343528D-05 -0.44343528D-05
  0.88687056D-05  0.20060709D-04 -0.23075580D-04  0.23075580D-04  0.75406102D-04
  0.14057412D-03  0.23759502D-03  0.35718315D-03  0.43884077D-03  0.37067118D-03
  0.13980353D-03 -0.69189548D-06 -0.53778700D-04 -0.10069069D-03 -0.17143452D-03
 -0.26518314D-03 -0.34923687D-03 -0.36287947D-03 -0.23059362D-03  0.15453848D-03
 -0.17906965D-04  0.27160485D-02  0.29617900D-04  0.74128996D-04  0.69500646D-04