 Molden2AIM, Version 4.0.0 (06/02/2016)           Time: Thu Jun 28 03:18:38 2018
GAUSSIAN             29 MOL ORBITALS    735 PRIMITIVES       13 NUCLEI
  H    1    (CENTRE  1)  -3.98848241 -2.69669776  0.00000189  CHARGE =  1.0
  H    2    (CENTRE  2)  -0.32923186 -5.29688532  0.00000189  CHARGE =  1.0
  H    3    (CENTRE  3)   3.91476609 -3.13589468  0.00000000  CHARGE =  1.0
  H    4    (CENTRE  4)   5.97909724  1.05950519  0.00000000  CHARGE =  1.0
  H    5    (CENTRE  5)   4.22199965  3.84270327  0.00000189  CHARGE =  1.0
  C    6    (CENTRE  6)  -0.12390745 -3.24799323  0.00000000  CHARGE =  6.0
  C    7    (CENTRE  7)   2.15792739 -2.07246075  0.00000000  CHARGE =  6.0
  C    8    (CENTRE  8)   2.09098196  0.64320608  0.00000000  CHARGE =  6.0
  C    9    (CENTRE  9)  -2.30014818  0.80897286 -0.00000567  CHARGE =  6.0
  O   10    (CENTRE 10)  -4.34581829  1.87016368  0.00000378  CHARGE =  8.0
  N   11    (CENTRE 11)  -0.00538761  1.98992885  0.00000000  CHARGE =  7.0
  N   12    (CENTRE 12)  -2.26852929 -1.86755964 -0.00000189  CHARGE =  7.0
  N   13    (CENTRE 13)   4.29626778  1.93958088  0.00000000  CHARGE =  7.0
CENTRE ASSIGNMENTS    1  1  1  1  1  1  1  1  1  1  1  1  1  1  1  1  1  1  1  1
CENTRE ASSIGNMENTS    1  1  1  1  1  1  1  2  2  2  2  2  2  2  2  2  2  2  2  2
CENTRE ASSIGNMENTS    2  2  2  2  2  2  2  2  2  2  2  2  2  2  3  3  3  3  3  3
CENTRE ASSIGNMENTS    3  3  3  3  3  3  3  3  3  3  3  3  3  3  3  3  3  3  3  3
CENTRE ASSIGNMENTS    3  4  4  4  4  4  4  4  4  4  4  4  4  4  4  4  4  4  4  4
CENTRE ASSIGNMENTS    4  4  4  4  4  4  4  4  5  5  5  5  5  5  5  5  5  5  5  5
CENTRE ASSIGNMENTS    5  5  5  5  5  5  5  5  5  5  5  5  5  5  5  6  6  6  6  6
CENTRE ASSIGNMENTS    6  6  6  6  6  6  6  6  6  6  6  6  6  6  6  6  6  6  6  6
CENTRE ASSIGNMENTS    6  6  6  6  6  6  6  6  6  6  6  6  6  6  6  6  6  6  6  6
CENTRE ASSIGNMENTS    6  6  6  6  6  6  6  6  6  6  6  6  6  6  6  6  6  6  6  6
CENTRE ASSIGNMENTS    6  6  6  6  6  6  6  6  6  6  7  7  7  7  7  7  7  7  7  7
CENTRE ASSIGNMENTS    7  7  7  7  7  7  7  7  7  7  7  7  7  7  7  7  7  7  7  7
CENTRE ASSIGNMENTS    7  7  7  7  7  7  7  7  7  7  7  7  7  7  7  7  7  7  7  7
CENTRE ASSIGNMENTS    7  7  7  7  7  7  7  7  7  7  7  7  7  7  7  7  7  7  7  7
CENTRE ASSIGNMENTS    7  7  7  7  7  8  8  8  8  8  8  8  8  8  8  8  8  8  8  8
CENTRE ASSIGNMENTS    8  8  8  8  8  8  8  8  8  8  8  8  8  8  8  8  8  8  8  8
CENTRE ASSIGNMENTS    8  8  8  8  8  8  8  8  8  8  8  8  8  8  8  8  8  8  8  8
CENTRE ASSIGNMENTS    8  8  8  8  8  8  8  8  8  8  8  8  8  8  8  8  8  8  8  8
CENTRE ASSIGNMENTS    9  9  9  9  9  9  9  9  9  9  9  9  9  9  9  9  9  9  9  9
CENTRE ASSIGNMENTS    9  9  9  9  9  9  9  9  9  9  9  9  9  9  9  9  9  9  9  9
CENTRE ASSIGNMENTS    9  9  9  9  9  9  9  9  9  9  9  9  9  9  9  9  9  9  9  9
CENTRE ASSIGNMENTS    9  9  9  9  9  9  9  9  9  9  9  9  9  9  9 10 10 10 10 10
CENTRE ASSIGNMENTS   10 10 10 10 10 10 10 10 10 10 10 10 10 10 10 10 10 10 10 10
CENTRE ASSIGNMENTS   10 10 10 10 10 10 10 10 10 10 10 10 10 10 10 10 10 10 10 10
CENTRE ASSIGNMENTS   10 10 10 10 10 10 10 10 10 10 10 10 10 10 10 10 10 10 10 10
CENTRE ASSIGNMENTS   10 10 10 10 10 10 10 10 10 10 11 11 11 11 11 11 11 11 11 11
CENTRE ASSIGNMENTS   11 11 11 11 11 11 11 11 11 11 11 11 11 11 11 11 11 11 11 11
CENTRE ASSIGNMENTS   11 11 11 11 11 11 11 11 11 11 11 11 11 11 11 11 11 11 11 11
CENTRE ASSIGNMENTS   11 11 11 11 11 11 11 11 11 11 11 11 11 11 11 11 11 11 11 11
CENTRE ASSIGNMENTS   11 11 11 11 11 12 12 12 12 12 12 12 12 12 12 12 12 12 12 12
CENTRE ASSIGNMENTS   12 12 12 12 12 12 12 12 12 12 12 12 12 12 12 12 12 12 12 12
CENTRE ASSIGNMENTS   12 12 12 12 12 12 12 12 12 12 12 12 12 12 12 12 12 12 12 12
CENTRE ASSIGNMENTS   12 12 12 12 12 12 12 12 12 12 12 12 12 12 12 12 12 12 12 12
CENTRE ASSIGNMENTS   13 13 13 13 13 13 13 13 13 13 13 13 13 13 13 13 13 13 13 13
CENTRE ASSIGNMENTS   13 13 13 13 13 13 13 13 13 13 13 13 13 13 13 13 13 13 13 13
CENTRE ASSIGNMENTS   13 13 13 13 13 13 13 13 13 13 13 13 13 13 13 13 13 13 13 13
CENTRE ASSIGNMENTS   13 13 13 13 13 13 13 13 13 13 13 13 13 13 13
TYPE ASSIGNMENTS      1  1  1  1  1  1  2  3  4  2  3  4  2  3  4  5  6  7  8  9
TYPE ASSIGNMENTS     10  5  6  7  8  9 10  1  1  1  1  1  1  2  3  4  2  3  4  2
TYPE ASSIGNMENTS      3  4  5  6  7  8  9 10  5  6  7  8  9 10  1  1  1  1  1  1
TYPE ASSIGNMENTS      2  3  4  2  3  4  2  3  4  5  6  7  8  9 10  5  6  7  8  9
TYPE ASSIGNMENTS     10  1  1  1  1  1  1  2  3  4  2  3  4  2  3  4  5  6  7  8
TYPE ASSIGNMENTS      9 10  5  6  7  8  9 10  1  1  1  1  1  1  2  3  4  2  3  4
TYPE ASSIGNMENTS      2  3  4  5  6  7  8  9 10  5  6  7  8  9 10  1  1  1  1  1
TYPE ASSIGNMENTS      1  1  1  1  1  1  1  1  1  1  1  1  1  1  2  2  2  3  3  3
TYPE ASSIGNMENTS      4  4  4  2  3  4  2  3  4  2  3  4  5  6  7  8  9 10  5  6
TYPE ASSIGNMENTS      7  8  9 10  5  6  7  8  9 10 11 12 13 17 14 15 18 19 16 20
TYPE ASSIGNMENTS     11 12 13 17 14 15 18 19 16 20  1  1  1  1  1  1  1  1  1  1
TYPE ASSIGNMENTS      1  1  1  1  1  1  1  1  1  2  2  2  3  3  3  4  4  4  2  3
TYPE ASSIGNMENTS      4  2  3  4  2  3  4  5  6  7  8  9 10  5  6  7  8  9 10  5
TYPE ASSIGNMENTS      6  7  8  9 10 11 12 13 17 14 15 18 19 16 20 11 12 13 17 14
TYPE ASSIGNMENTS     15 18 19 16 20  1  1  1  1  1  1  1  1  1  1  1  1  1  1  1
TYPE ASSIGNMENTS      1  1  1  1  2  2  2  3  3  3  4  4  4  2  3  4  2  3  4  2
TYPE ASSIGNMENTS      3  4  5  6  7  8  9 10  5  6  7  8  9 10  5  6  7  8  9 10
TYPE ASSIGNMENTS     11 12 13 17 14 15 18 19 16 20 11 12 13 17 14 15 18 19 16 20
TYPE ASSIGNMENTS      1  1  1  1  1  1  1  1  1  1  1  1  1  1  1  1  1  1  1  2
TYPE ASSIGNMENTS      2  2  3  3  3  4  4  4  2  3  4  2  3  4  2  3  4  5  6  7
TYPE ASSIGNMENTS      8  9 10  5  6  7  8  9 10  5  6  7  8  9 10 11 12 13 17 14
TYPE ASSIGNMENTS     15 18 19 16 20 11 12 13 17 14 15 18 19 16 20  1  1  1  1  1
TYPE ASSIGNMENTS      1  1  1  1  1  1  1  1  1  1  1  1  1  1  2  2  2  3  3  3
TYPE ASSIGNMENTS      4  4  4  2  3  4  2  3  4  2  3  4  5  6  7  8  9 10  5  6
TYPE ASSIGNMENTS      7  8  9 10  5  6  7  8  9 10 11 12 13 17 14 15 18 19 16 20
TYPE ASSIGNMENTS     11 12 13 17 14 15 18 19 16 20  1  1  1  1  1  1  1  1  1  1
TYPE ASSIGNMENTS      1  1  1  1  1  1  1  1  1  2  2  2  3  3  3  4  4  4  2  3
TYPE ASSIGNMENTS      4  2  3  4  2  3  4  5  6  7  8  9 10  5  6  7  8  9 10  5
TYPE ASSIGNMENTS      6  7  8  9 10 11 12 13 17 14 15 18 19 16 20 11 12 13 17 14
TYPE ASSIGNMENTS     15 18 19 16 20  1  1  1  1  1  1  1  1  1  1  1  1  1  1  1
TYPE ASSIGNMENTS      1  1  1  1  2  2  2  3  3  3  4  4  4  2  3  4  2  3  4  2
TYPE ASSIGNMENTS      3  4  5  6  7  8  9 10  5  6  7  8  9 10  5  6  7  8  9 10
TYPE ASSIGNMENTS     11 12 13 17 14 15 18 19 16 20 11 12 13 17 14 15 18 19 16 20
TYPE ASSIGNMENTS      1  1  1  1  1  1  1  1  1  1  1  1  1  1  1  1  1  1  1  2
TYPE ASSIGNMENTS      2  2  3  3  3  4  4  4  2  3  4  2  3  4  2  3  4  5  6  7
TYPE ASSIGNMENTS      8  9 10  5  6  7  8  9 10  5  6  7  8  9 10 11 12 13 17 14
TYPE ASSIGNMENTS     15 18 19 16 20 11 12 13 17 14 15 18 19 16 20
EXPONENTS  0.3387000D+02 0.5095000D+01 0.1159000D+01 0.3258000D+00 0.1027000D+00
EXPONENTS  0.2526000D-01 0.1407000D+01 0.1407000D+01 0.1407000D+01 0.3880000D+00
EXPONENTS  0.3880000D+00 0.3880000D+00 0.1020000D+00 0.1020000D+00 0.1020000D+00
EXPONENTS  0.1057000D+01 0.1057000D+01 0.1057000D+01 0.1057000D+01 0.1057000D+01
EXPONENTS  0.1057000D+01 0.2470000D+00 0.2470000D+00 0.2470000D+00 0.2470000D+00
EXPONENTS  0.2470000D+00 0.2470000D+00 0.3387000D+02 0.5095000D+01 0.1159000D+01
EXPONENTS  0.3258000D+00 0.1027000D+00 0.2526000D-01 0.1407000D+01 0.1407000D+01
EXPONENTS  0.1407000D+01 0.3880000D+00 0.3880000D+00 0.3880000D+00 0.1020000D+00
EXPONENTS  0.1020000D+00 0.1020000D+00 0.1057000D+01 0.1057000D+01 0.1057000D+01
EXPONENTS  0.1057000D+01 0.1057000D+01 0.1057000D+01 0.2470000D+00 0.2470000D+00
EXPONENTS  0.2470000D+00 0.2470000D+00 0.2470000D+00 0.2470000D+00 0.3387000D+02
EXPONENTS  0.5095000D+01 0.1159000D+01 0.3258000D+00 0.1027000D+00 0.2526000D-01
EXPONENTS  0.1407000D+01 0.1407000D+01 0.1407000D+01 0.3880000D+00 0.3880000D+00
EXPONENTS  0.3880000D+00 0.1020000D+00 0.1020000D+00 0.1020000D+00 0.1057000D+01
EXPONENTS  0.1057000D+01 0.1057000D+01 0.1057000D+01 0.1057000D+01 0.1057000D+01
EXPONENTS  0.2470000D+00 0.2470000D+00 0.2470000D+00 0.2470000D+00 0.2470000D+00
EXPONENTS  0.2470000D+00 0.3387000D+02 0.5095000D+01 0.1159000D+01 0.3258000D+00
EXPONENTS  0.1027000D+00 0.2526000D-01 0.1407000D+01 0.1407000D+01 0.1407000D+01
EXPONENTS  0.3880000D+00 0.3880000D+00 0.3880000D+00 0.1020000D+00 0.1020000D+00
EXPONENTS  0.1020000D+00 0.1057000D+01 0.1057000D+01 0.1057000D+01 0.1057000D+01
EXPONENTS  0.1057000D+01 0.1057000D+01 0.2470000D+00 0.2470000D+00 0.2470000D+00
EXPONENTS  0.2470000D+00 0.2470000D+00 0.2470000D+00 0.3387000D+02 0.5095000D+01
EXPONENTS  0.1159000D+01 0.3258000D+00 0.1027000D+00 0.2526000D-01 0.1407000D+01
EXPONENTS  0.1407000D+01 0.1407000D+01 0.3880000D+00 0.3880000D+00 0.3880000D+00
EXPONENTS  0.1020000D+00 0.1020000D+00 0.1020000D+00 0.1057000D+01 0.1057000D+01
EXPONENTS  0.1057000D+01 0.1057000D+01 0.1057000D+01 0.1057000D+01 0.2470000D+00
EXPONENTS  0.2470000D+00 0.2470000D+00 0.2470000D+00 0.2470000D+00 0.2470000D+00
EXPONENTS  0.8236000D+04 0.1235000D+04 0.2808000D+03 0.7927000D+02 0.2559000D+02
EXPONENTS  0.8997000D+01 0.3319000D+01 0.3643000D+00 0.8236000D+04 0.1235000D+04
EXPONENTS  0.2808000D+03 0.7927000D+02 0.2559000D+02 0.8997000D+01 0.3319000D+01
EXPONENTS  0.3643000D+00 0.9059000D+00 0.1285000D+00 0.4402000D-01 0.1871000D+02
EXPONENTS  0.4133000D+01 0.1200000D+01 0.1871000D+02 0.4133000D+01 0.1200000D+01
EXPONENTS  0.1871000D+02 0.4133000D+01 0.1200000D+01 0.3827000D+00 0.3827000D+00
EXPONENTS  0.3827000D+00 0.1209000D+00 0.1209000D+00 0.1209000D+00 0.3569000D-01
EXPONENTS  0.3569000D-01 0.3569000D-01 0.1097000D+01 0.1097000D+01 0.1097000D+01
EXPONENTS  0.1097000D+01 0.1097000D+01 0.1097000D+01 0.3180000D+00 0.3180000D+00
EXPONENTS  0.3180000D+00 0.3180000D+00 0.3180000D+00 0.3180000D+00 0.1000000D+00
EXPONENTS  0.1000000D+00 0.1000000D+00 0.1000000D+00 0.1000000D+00 0.1000000D+00
EXPONENTS  0.7610000D+00 0.7610000D+00 0.7610000D+00 0.7610000D+00 0.7610000D+00
EXPONENTS  0.7610000D+00 0.7610000D+00 0.7610000D+00 0.7610000D+00 0.7610000D+00
EXPONENTS  0.2680000D+00 0.2680000D+00 0.2680000D+00 0.2680000D+00 0.2680000D+00
EXPONENTS  0.2680000D+00 0.2680000D+00 0.2680000D+00 0.2680000D+00 0.2680000D+00
EXPONENTS  0.8236000D+04 0.1235000D+04 0.2808000D+03 0.7927000D+02 0.2559000D+02
EXPONENTS  0.8997000D+01 0.3319000D+01 0.3643000D+00 0.8236000D+04 0.1235000D+04
EXPONENTS  0.2808000D+03 0.7927000D+02 0.2559000D+02 0.8997000D+01 0.3319000D+01
EXPONENTS  0.3643000D+00 0.9059000D+00 0.1285000D+00 0.4402000D-01 0.1871000D+02
EXPONENTS  0.4133000D+01 0.1200000D+01 0.1871000D+02 0.4133000D+01 0.1200000D+01
EXPONENTS  0.1871000D+02 0.4133000D+01 0.1200000D+01 0.3827000D+00 0.3827000D+00
EXPONENTS  0.3827000D+00 0.1209000D+00 0.1209000D+00 0.1209000D+00 0.3569000D-01
EXPONENTS  0.3569000D-01 0.3569000D-01 0.1097000D+01 0.1097000D+01 0.1097000D+01
EXPONENTS  0.1097000D+01 0.1097000D+01 0.1097000D+01 0.3180000D+00 0.3180000D+00
EXPONENTS  0.3180000D+00 0.3180000D+00 0.3180000D+00 0.3180000D+00 0.1000000D+00
EXPONENTS  0.1000000D+00 0.1000000D+00 0.1000000D+00 0.1000000D+00 0.1000000D+00
EXPONENTS  0.7610000D+00 0.7610000D+00 0.7610000D+00 0.7610000D+00 0.7610000D+00
EXPONENTS  0.7610000D+00 0.7610000D+00 0.7610000D+00 0.7610000D+00 0.7610000D+00
EXPONENTS  0.2680000D+00 0.2680000D+00 0.2680000D+00 0.2680000D+00 0.2680000D+00
EXPONENTS  0.2680000D+00 0.2680000D+00 0.2680000D+00 0.2680000D+00 0.2680000D+00
EXPONENTS  0.8236000D+04 0.1235000D+04 0.2808000D+03 0.7927000D+02 0.2559000D+02
EXPONENTS  0.8997000D+01 0.3319000D+01 0.3643000D+00 0.8236000D+04 0.1235000D+04
EXPONENTS  0.2808000D+03 0.7927000D+02 0.2559000D+02 0.8997000D+01 0.3319000D+01
EXPONENTS  0.3643000D+00 0.9059000D+00 0.1285000D+00 0.4402000D-01 0.1871000D+02
EXPONENTS  0.4133000D+01 0.1200000D+01 0.1871000D+02 0.4133000D+01 0.1200000D+01
EXPONENTS  0.1871000D+02 0.4133000D+01 0.1200000D+01 0.3827000D+00 0.3827000D+00
EXPONENTS  0.3827000D+00 0.1209000D+00 0.1209000D+00 0.1209000D+00 0.3569000D-01
EXPONENTS  0.3569000D-01 0.3569000D-01 0.1097000D+01 0.1097000D+01 0.1097000D+01
EXPONENTS  0.1097000D+01 0.1097000D+01 0.1097000D+01 0.3180000D+00 0.3180000D+00
EXPONENTS  0.3180000D+00 0.3180000D+00 0.3180000D+00 0.3180000D+00 0.1000000D+00
EXPONENTS  0.1000000D+00 0.1000000D+00 0.1000000D+00 0.1000000D+00 0.1000000D+00
EXPONENTS  0.7610000D+00 0.7610000D+00 0.7610000D+00 0.7610000D+00 0.7610000D+00
EXPONENTS  0.7610000D+00 0.7610000D+00 0.7610000D+00 0.7610000D+00 0.7610000D+00
EXPONENTS  0.2680000D+00 0.2680000D+00 0.2680000D+00 0.2680000D+00 0.2680000D+00
EXPONENTS  0.2680000D+00 0.2680000D+00 0.2680000D+00 0.2680000D+00 0.2680000D+00
EXPONENTS  0.8236000D+04 0.1235000D+04 0.2808000D+03 0.7927000D+02 0.2559000D+02
EXPONENTS  0.8997000D+01 0.3319000D+01 0.3643000D+00 0.8236000D+04 0.1235000D+04
EXPONENTS  0.2808000D+03 0.7927000D+02 0.2559000D+02 0.8997000D+01 0.3319000D+01
EXPONENTS  0.3643000D+00 0.9059000D+00 0.1285000D+00 0.4402000D-01 0.1871000D+02
EXPONENTS  0.4133000D+01 0.1200000D+01 0.1871000D+02 0.4133000D+01 0.1200000D+01
EXPONENTS  0.1871000D+02 0.4133000D+01 0.1200000D+01 0.3827000D+00 0.3827000D+00
EXPONENTS  0.3827000D+00 0.1209000D+00 0.1209000D+00 0.1209000D+00 0.3569000D-01
EXPONENTS  0.3569000D-01 0.3569000D-01 0.1097000D+01 0.1097000D+01 0.1097000D+01
EXPONENTS  0.1097000D+01 0.1097000D+01 0.1097000D+01 0.3180000D+00 0.3180000D+00
EXPONENTS  0.3180000D+00 0.3180000D+00 0.3180000D+00 0.3180000D+00 0.1000000D+00
EXPONENTS  0.1000000D+00 0.1000000D+00 0.1000000D+00 0.1000000D+00 0.1000000D+00
EXPONENTS  0.7610000D+00 0.7610000D+00 0.7610000D+00 0.7610000D+00 0.7610000D+00
EXPONENTS  0.7610000D+00 0.7610000D+00 0.7610000D+00 0.7610000D+00 0.7610000D+00
EXPONENTS  0.2680000D+00 0.2680000D+00 0.2680000D+00 0.2680000D+00 0.2680000D+00
EXPONENTS  0.2680000D+00 0.2680000D+00 0.2680000D+00 0.2680000D+00 0.2680000D+00
EXPONENTS  0.1533000D+05 0.2299000D+04 0.5224000D+03 0.1473000D+03 0.4755000D+02
EXPONENTS  0.1676000D+02 0.6207000D+01 0.6882000D+00 0.1533000D+05 0.2299000D+04
EXPONENTS  0.5224000D+03 0.1473000D+03 0.4755000D+02 0.1676000D+02 0.6207000D+01
EXPONENTS  0.6882000D+00 0.1752000D+01 0.2384000D+00 0.7376000D-01 0.3446000D+02
EXPONENTS  0.7749000D+01 0.2280000D+01 0.3446000D+02 0.7749000D+01 0.2280000D+01
EXPONENTS  0.3446000D+02 0.7749000D+01 0.2280000D+01 0.7156000D+00 0.7156000D+00
EXPONENTS  0.7156000D+00 0.2140000D+00 0.2140000D+00 0.2140000D+00 0.5974000D-01
EXPONENTS  0.5974000D-01 0.5974000D-01 0.2314000D+01 0.2314000D+01 0.2314000D+01
EXPONENTS  0.2314000D+01 0.2314000D+01 0.2314000D+01 0.6450000D+00 0.6450000D+00
EXPONENTS  0.6450000D+00 0.6450000D+00 0.6450000D+00 0.6450000D+00 0.2140000D+00
EXPONENTS  0.2140000D+00 0.2140000D+00 0.2140000D+00 0.2140000D+00 0.2140000D+00
EXPONENTS  0.1428000D+01 0.1428000D+01 0.1428000D+01 0.1428000D+01 0.1428000D+01
EXPONENTS  0.1428000D+01 0.1428000D+01 0.1428000D+01 0.1428000D+01 0.1428000D+01
EXPONENTS  0.5000000D+00 0.5000000D+00 0.5000000D+00 0.5000000D+00 0.5000000D+00
EXPONENTS  0.5000000D+00 0.5000000D+00 0.5000000D+00 0.5000000D+00 0.5000000D+00
EXPONENTS  0.1142000D+05 0.1712000D+04 0.3893000D+03 0.1100000D+03 0.3557000D+02
EXPONENTS  0.1254000D+02 0.4644000D+01 0.5118000D+00 0.1142000D+05 0.1712000D+04
EXPONENTS  0.3893000D+03 0.1100000D+03 0.3557000D+02 0.1254000D+02 0.4644000D+01
EXPONENTS  0.5118000D+00 0.1293000D+01 0.1787000D+00 0.5760000D-01 0.2663000D+02
EXPONENTS  0.5948000D+01 0.1742000D+01 0.2663000D+02 0.5948000D+01 0.1742000D+01
EXPONENTS  0.2663000D+02 0.5948000D+01 0.1742000D+01 0.5550000D+00 0.5550000D+00
EXPONENTS  0.5550000D+00 0.1725000D+00 0.1725000D+00 0.1725000D+00 0.4910000D-01
EXPONENTS  0.4910000D-01 0.4910000D-01 0.1654000D+01 0.1654000D+01 0.1654000D+01
EXPONENTS  0.1654000D+01 0.1654000D+01 0.1654000D+01 0.4690000D+00 0.4690000D+00
EXPONENTS  0.4690000D+00 0.4690000D+00 0.4690000D+00 0.4690000D+00 0.1510000D+00
EXPONENTS  0.1510000D+00 0.1510000D+00 0.1510000D+00 0.1510000D+00 0.1510000D+00
EXPONENTS  0.1093000D+01 0.1093000D+01 0.1093000D+01 0.1093000D+01 0.1093000D+01
EXPONENTS  0.1093000D+01 0.1093000D+01 0.1093000D+01 0.1093000D+01 0.1093000D+01
EXPONENTS  0.3640000D+00 0.3640000D+00 0.3640000D+00 0.3640000D+00 0.3640000D+00
EXPONENTS  0.3640000D+00 0.3640000D+00 0.3640000D+00 0.3640000D+00 0.3640000D+00
EXPONENTS  0.1142000D+05 0.1712000D+04 0.3893000D+03 0.1100000D+03 0.3557000D+02
EXPONENTS  0.1254000D+02 0.4644000D+01 0.5118000D+00 0.1142000D+05 0.1712000D+04
EXPONENTS  0.3893000D+03 0.1100000D+03 0.3557000D+02 0.1254000D+02 0.4644000D+01
EXPONENTS  0.5118000D+00 0.1293000D+01 0.1787000D+00 0.5760000D-01 0.2663000D+02
EXPONENTS  0.5948000D+01 0.1742000D+01 0.2663000D+02 0.5948000D+01 0.1742000D+01
EXPONENTS  0.2663000D+02 0.5948000D+01 0.1742000D+01 0.5550000D+00 0.5550000D+00
EXPONENTS  0.5550000D+00 0.1725000D+00 0.1725000D+00 0.1725000D+00 0.4910000D-01
EXPONENTS  0.4910000D-01 0.4910000D-01 0.1654000D+01 0.1654000D+01 0.1654000D+01
EXPONENTS  0.1654000D+01 0.1654000D+01 0.1654000D+01 0.4690000D+00 0.4690000D+00
EXPONENTS  0.4690000D+00 0.4690000D+00 0.4690000D+00 0.4690000D+00 0.1510000D+00
EXPONENTS  0.1510000D+00 0.1510000D+00 0.1510000D+00 0.1510000D+00 0.1510000D+00
EXPONENTS  0.1093000D+01 0.1093000D+01 0.1093000D+01 0.1093000D+01 0.1093000D+01
EXPONENTS  0.1093000D+01 0.1093000D+01 0.1093000D+01 0.1093000D+01 0.1093000D+01
EXPONENTS  0.3640000D+00 0.3640000D+00 0.3640000D+00 0.3640000D+00 0.3640000D+00
EXPONENTS  0.3640000D+00 0.3640000D+00 0.3640000D+00 0.3640000D+00 0.3640000D+00
EXPONENTS  0.1142000D+05 0.1712000D+04 0.3893000D+03 0.1100000D+03 0.3557000D+02
EXPONENTS  0.1254000D+02 0.4644000D+01 0.5118000D+00 0.1142000D+05 0.1712000D+04
EXPONENTS  0.3893000D+03 0.1100000D+03 0.3557000D+02 0.1254000D+02 0.4644000D+01
EXPONENTS  0.5118000D+00 0.1293000D+01 0.1787000D+00 0.5760000D-01 0.2663000D+02
EXPONENTS  0.5948000D+01 0.1742000D+01 0.2663000D+02 0.5948000D+01 0.1742000D+01
EXPONENTS  0.2663000D+02 0.5948000D+01 0.1742000D+01 0.5550000D+00 0.5550000D+00
EXPONENTS  0.5550000D+00 0.1725000D+00 0.1725000D+00 0.1725000D+00 0.4910000D-01
EXPONENTS  0.4910000D-01 0.4910000D-01 0.1654000D+01 0.1654000D+01 0.1654000D+01
EXPONENTS  0.1654000D+01 0.1654000D+01 0.1654000D+01 0.4690000D+00 0.4690000D+00
EXPONENTS  0.4690000D+00 0.4690000D+00 0.4690000D+00 0.4690000D+00 0.1510000D+00
EXPONENTS  0.1510000D+00 0.1510000D+00 0.1510000D+00 0.1510000D+00 0.1510000D+00
EXPONENTS  0.1093000D+01 0.1093000D+01 0.1093000D+01 0.1093000D+01 0.1093000D+01
EXPONENTS  0.1093000D+01 0.1093000D+01 0.1093000D+01 0.1093000D+01 0.1093000D+01
EXPONENTS  0.3640000D+00 0.3640000D+00 0.3640000D+00 0.3640000D+00 0.3640000D+00
EXPONENTS  0.3640000D+00 0.3640000D+00 0.3640000D+00 0.3640000D+00 0.3640000D+00
MO    1     MO 0.0        OCC NO =    2.0000000  ORB. ENERGY =  -19.575911
 -0.76232778D-04 -0.13748895D-03 -0.20272738D-03 -0.69064901D-03 -0.55856709D-03
  0.24772363D-04  0.43133239D-04  0.57341235D-04  0.20679597D-09  0.20881933D-03
 -0.19071301D-03 -0.82126851D-08 -0.43282505D-04 -0.49049747D-04  0.50516292D-09
  0.87286903D-04  0.20363167D-03 -0.29091857D-03  0.11227462D-03 -0.70234310D-08
 -0.35394434D-08  0.10542008D-03 -0.70248570D-04 -0.35171508D-04 -0.63734788D-04
 -0.16839471D-08 -0.40636234D-09 -0.10188041D-04 -0.18374551D-04 -0.27093265D-04
 -0.11357982D-03  0.43199689D-03 -0.65402982D-05 -0.70006151D-04  0.65988822D-04
  0.24988893D-09  0.20254333D-03  0.83246645D-04  0.86073596D-09  0.85792852D-04
  0.33050447D-04 -0.69073306D-09  0.32444657D-04  0.33869278D-04 -0.66313935D-04
  0.87822573D-04  0.88690744D-09  0.15516248D-08  0.37802225D-04  0.21501541D-05
 -0.39952379D-04  0.10438554D-04  0.63230781D-09 -0.37665056D-09  0.19558530D-04
  0.35274614D-04  0.52012398D-04 -0.85349188D-03 -0.89409793D-03  0.21967966D-04
  0.26799656D-04 -0.52683732D-04  0.39063642D-09  0.51579758D-03 -0.24726043D-03
 -0.55164162D-09  0.62582083D-04 -0.10587139D-04 -0.11347366D-08 -0.52428847D-04
 -0.53724034D-04  0.10615288D-03  0.74485568D-04 -0.43052143D-11 -0.85977222D-09
 -0.28051008D-04 -0.97518474D-05  0.37802855D-04  0.34322828D-04  0.17993766D-09
  0.13169020D-09 -0.46954609D-05 -0.84684571D-05 -0.12486735D-04 -0.27772433D-03
  0.38294161D-03 -0.11147999D-04  0.11376957D-03 -0.39374497D-04 -0.14107837D-09
  0.20080083D-03  0.18432269D-05 -0.12204044D-08 -0.10916541D-03 -0.68073620D-04
 -0.72350697D-11 -0.59441748D-04 -0.27724971D-05  0.62214245D-04 -0.76864035D-05
  0.86551466D-09 -0.65981039D-09 -0.17693561D-04  0.17044502D-05  0.15989111D-04
  0.20661921D-04  0.21773319D-09 -0.13691931D-09  0.17191545D-04  0.31005660D-04
  0.45717827D-04  0.12742907D-04  0.15751813D-03 -0.32480284D-05  0.12231358D-06
  0.90573274D-04 -0.15088148D-10 -0.10741289D-04  0.17810814D-03 -0.11445032D-08
 -0.33480994D-04 -0.18416723D-04 -0.29701863D-09  0.61784358D-04 -0.13684935D-03
  0.75064993D-04 -0.25944690D-05 -0.43409142D-10  0.81380483D-09  0.75700079D-05
 -0.24980781D-04  0.17410773D-04  0.17304060D-04  0.62703540D-10  0.20310037D-09
 -0.93053382D-04 -0.17347266D-03 -0.29319936D-03 -0.44077467D-03 -0.54154261D-03
 -0.45741931D-03 -0.17252173D-03  0.85381969D-06  0.70331547D-04  0.13168285D-03
  0.22420132D-03  0.34680534D-03  0.45673044D-03  0.47457218D-03  0.30156932D-03
 -0.20210474D-03 -0.40909393D-03  0.26472535D-02 -0.64727155D-03  0.19226978D-04
  0.18026514D-04  0.12835952D-04 -0.22758238D-03 -0.21337295D-03 -0.15193425D-03
  0.10492775D-08  0.98376431D-09  0.70049880D-09  0.12106120D-02  0.56546015D-03
 -0.18463743D-08  0.15532865D-02  0.37790424D-03 -0.94920707D-09  0.42512224D-04
 -0.25236065D-04 -0.78176852D-10 -0.85884046D-04  0.16826055D-03 -0.82376503D-04
 -0.88129943D-04  0.10040205D-08 -0.96687403D-09  0.44434538D-04  0.10762641D-03
 -0.15206095D-03 -0.82542652D-03  0.20732990D-08 -0.35837157D-08 -0.21711464D-04
 -0.16390326D-04  0.38101790D-04  0.15092094D-03 -0.56896916D-09 -0.43427619D-09
  0.15921356D-03  0.44921419D-05  0.11288919D-08 -0.59463677D-03  0.21453925D-03
  0.23548387D-09  0.11699608D-03 -0.22801568D-03 -0.36221596D-08  0.45361059D-08
  0.12274109D-03 -0.39884307D-04  0.26844754D-09 -0.39772011D-03  0.18351428D-03
  0.50708533D-09  0.29496838D-04 -0.63861361D-04 -0.13124279D-08  0.22779650D-08
 -0.73723331D-04 -0.13743705D-03 -0.23229283D-03 -0.34921221D-03 -0.42904755D-03
 -0.36239924D-03 -0.13668366D-03  0.67645506D-06  0.52082706D-04  0.97515259D-04
  0.16602807D-03  0.25682018D-03  0.33822315D-03  0.35143551D-03  0.22332149D-03
 -0.14966487D-03  0.10925824D-05 -0.17809270D-02  0.49766974D-03 -0.10828491D-03
 -0.10152399D-03 -0.72291127D-04  0.25985028D-04  0.24362615D-04  0.17347634D-04
 -0.11317806D-08 -0.10611163D-08 -0.75557799D-09  0.45562150D-03 -0.13611163D-03
  0.91263325D-09  0.12602840D-02  0.86821520D-03  0.18857270D-08 -0.16686407D-04
  0.42450989D-04  0.24645468D-09 -0.68783066D-04  0.49773790D-04  0.19009276D-04
 -0.11293733D-03 -0.26621092D-09 -0.23142550D-08  0.45561759D-03 -0.48263405D-03
  0.27016461D-04 -0.92206960D-03  0.15850713D-08  0.34272659D-08 -0.20339801D-04
  0.36224880D-04 -0.15885078D-04 -0.25140755D-03  0.51439423D-09 -0.56654143D-09
  0.44779012D-06 -0.74324748D-04 -0.15490457D-09  0.71654955D-04  0.18020972D-03
  0.50960092D-09 -0.72998326D-04  0.42764529D-04 -0.44887226D-10  0.74768607D-10
 -0.31594624D-04 -0.10149425D-03 -0.15637924D-09  0.17210562D-03  0.27823420D-03
 -0.24913641D-09 -0.77321746D-04  0.26248561D-04  0.71827412D-09 -0.29284472D-10
 -0.82520758D-04 -0.15383746D-03 -0.26001240D-03 -0.39088381D-03 -0.48024592D-03
 -0.40564445D-03 -0.15299416D-03  0.75717665D-06  0.60527321D-04  0.11332624D-03
  0.19294762D-03  0.29846064D-03  0.39306216D-03  0.40841676D-03  0.25953052D-03
 -0.17393132D-03 -0.24484767D-03 -0.34124834D-02 -0.76371812D-03  0.20623616D-03
  0.19335950D-03  0.13768349D-03  0.30812741D-03  0.28888903D-03  0.20570620D-03
  0.81430703D-09  0.76346460D-09  0.54363228D-09 -0.34635852D-03 -0.21227305D-02
 -0.36393386D-08  0.39739399D-03 -0.28593900D-03 -0.61907028D-10 -0.15152482D-04
  0.11557183D-04 -0.45164653D-09  0.77099517D-04  0.14319076D-04 -0.91418593D-04
  0.21475025D-03  0.48183666D-08 -0.13973721D-08  0.31479353D-03 -0.35833483D-03
  0.43541300D-04 -0.39645713D-03  0.87193484D-09  0.92542028D-09 -0.67226925D-04
 -0.72848501D-05  0.74511775D-04  0.13631251D-03  0.52026332D-10  0.11589573D-09
 -0.12582852D-03 -0.98370938D-04  0.11630674D-08  0.20540659D-03  0.10706645D-03
 -0.35666491D-08  0.17207897D-03  0.18804636D-03  0.77446789D-10 -0.39560900D-09
 -0.22970354D-04 -0.17426182D-03 -0.59912878D-10  0.37555274D-04  0.60285443D-03
  0.13261468D-08  0.31355789D-04 -0.80068980D-04 -0.11464082D-08  0.31615960D-08
  0.67537550D-03  0.12590535D-02  0.21280222D-02  0.31991144D-02  0.39304817D-02
  0.33199201D-02  0.12521517D-02 -0.61969687D-05 -0.51784058D-03 -0.96956095D-03
 -0.16507605D-02 -0.25534754D-02 -0.33628373D-02 -0.34942034D-02 -0.22204094D-02
  0.14880667D-02  0.16318559D-02  0.70829156D-03  0.73757491D-03 -0.49167201D-03
 -0.46097376D-03 -0.32824078D-03  0.36246654D-03  0.33983542D-03  0.24198306D-03
  0.32338025D-08  0.30318954D-08  0.21588901D-08 -0.31759940D-02  0.17548796D-02
  0.85926094D-08  0.12027973D-02 -0.64378188D-03  0.11559055D-08  0.32584855D-04
 -0.14544772D-04  0.27953852D-09  0.62387312D-03 -0.33930324D-03 -0.28456988D-03
 -0.17492015D-02 -0.13272687D-07  0.55694530D-08 -0.75740403D-03  0.29867561D-03
  0.45872843D-03  0.18971859D-02 -0.27876325D-08  0.39847647D-09 -0.16605279D-03
  0.12472535D-03  0.41327445D-04  0.48170221D-03  0.17046681D-08 -0.62550993D-09
  0.12132533D-04  0.54996786D-03  0.12851050D-08 -0.29455631D-03 -0.16206978D-02
 -0.73816810D-08  0.25815871D-03 -0.29205766D-04  0.35263659D-08  0.13137135D-07
  0.13749234D-03  0.41730461D-03 -0.25355430D-09 -0.28604959D-03 -0.13466919D-02
 -0.39237033D-08 -0.12642744D-03  0.94778100D-04  0.46843662D-08  0.85907854D-08
  0.49873566D+00  0.92957909D+00  0.15762581D+01  0.23857401D+01  0.29767071D+01
  0.25565944D+01  0.98152630D+00 -0.43904274D-02 -0.45655490D-03 -0.85628004D-03
 -0.14597697D-02 -0.22813360D-02 -0.30505809D-02 -0.32573092D-02 -0.19914549D-02
  0.13138410D-02  0.50202899D-01  0.27224937D-02  0.94390074D-03  0.70254353D-02
  0.68123090D-02  0.45955434D-02 -0.40933559D-02 -0.39691783D-02 -0.26775843D-02
 -0.39346502D-07 -0.38152871D-07 -0.25737702D-07  0.19947580D-03  0.13720027D-04
 -0.34864522D-08 -0.13210530D-02  0.46463115D-03 -0.25454846D-08  0.21633602D-04
 -0.89113528D-05 -0.54340364D-09  0.22926017D-02 -0.26962424D-03 -0.20229775D-02
 -0.36720053D-02 -0.34156703D-07  0.18844812D-07 -0.81363222D-03 -0.10414571D-03
  0.91777792D-03  0.10723073D-02  0.92569687D-08 -0.56800838D-08 -0.33192370D-03
  0.55155754D-05  0.32640812D-03  0.30596384D-03  0.32222849D-08 -0.18499717D-08
  0.32832318D-04  0.25404315D-04  0.21732984D-08 -0.18492102D-04  0.22565902D-04
 -0.18992600D-08 -0.80004851D-04 -0.98778846D-04 -0.46206352D-08 -0.54395243D-08
 -0.17706705D-03  0.11984044D-04 -0.36304567D-08 -0.13027477D-03  0.26896206D-03
  0.73124175D-08  0.66147591D-03 -0.30491419D-03  0.35789525D-08 -0.61794907D-08
  0.10511200D-03  0.19586073D-03  0.33124959D-03  0.49884353D-03  0.61760065D-03
  0.52555028D-03  0.19998158D-03 -0.93659904D-06 -0.69834724D-04 -0.13094076D-03
 -0.22276919D-03 -0.34593703D-03 -0.45907856D-03 -0.48380579D-03 -0.29999045D-03
  0.19955377D-03 -0.19987082D-03  0.16511686D-02 -0.56112978D-03  0.82535957D-03
  0.79274800D-03  0.55592962D-03 -0.15323277D-04 -0.14717824D-04 -0.10321154D-04
  0.51089021D-08  0.49070394D-08  0.34411548D-08 -0.24565464D-02  0.84824219D-04
 -0.79089561D-08  0.24034605D-02 -0.56040516D-03  0.23264124D-10  0.17312788D-03
  0.32646354D-04  0.49259217D-09  0.14684434D-03  0.25202915D-04 -0.17204725D-03
 -0.13982511D-03 -0.95668817D-08  0.13360318D-07  0.41585285D-03 -0.25388150D-03
 -0.16197135D-03  0.11289217D-02  0.13420933D-07 -0.52822977D-08  0.69940673D-04
 -0.35015765D-04 -0.34924908D-04 -0.24770136D-04 -0.25037661D-09 -0.23961513D-10
 -0.32854893D-03  0.92368944D-04  0.22602735D-08  0.41481555D-03 -0.34661491D-03
 -0.75293859D-08  0.57083125D-03  0.69508079D-04  0.74856536D-09 -0.78645632D-08
  0.41229855D-03  0.11781256D-03 -0.73978142D-09 -0.73523860D-03 -0.43708650D-03
 -0.20248537D-09 -0.50165704D-03  0.83648825D-04  0.24218296D-08  0.45413774D-09
  0.90214558D-04  0.16810155D-03  0.28430186D-03  0.42814284D-03  0.53006861D-03
  0.45106447D-03  0.17163835D-03 -0.80385562D-06 -0.59693970D-04 -0.11192675D-03
 -0.19042071D-03 -0.29570325D-03 -0.39241541D-03 -0.41355198D-03 -0.25642861D-03
  0.17057641D-03 -0.99483808D-04  0.12948166D-02 -0.79022799D-06  0.16504592D-03
  0.15852463D-03  0.11116842D-03 -0.71958827D-03 -0.69115593D-03 -0.48468625D-03
  0.49656460D-08  0.47694436D-08  0.33446631D-08 -0.55718134D-03  0.19601642D-02
 -0.77222828D-08  0.75450594D-03 -0.15167531D-02  0.33935258D-08  0.49139908D-04
 -0.14142140D-03  0.61513674D-10  0.12568028D-03 -0.45575768D-04 -0.80104514D-04
 -0.91854499D-03 -0.48018989D-08  0.12507764D-07 -0.68352816D-03  0.71827547D-03
 -0.34747309D-04  0.10208343D-02  0.10917928D-08 -0.14972657D-07 -0.53085166D-04
  0.83261738D-04 -0.30176572D-04  0.24008512D-03 -0.15392387D-09 -0.22545531D-10
  0.12477674D-03  0.10336984D-03  0.40097254D-08 -0.35157976D-03  0.24096924D-03
 -0.45904532D-08 -0.22750461D-04 -0.55107876D-03 -0.74387229D-08 -0.42879945D-08
 -0.36132894D-03  0.10635336D-03 -0.19446170D-08  0.11959409D-02 -0.67934071D-03
  0.71279980D-08 -0.11195408D-03  0.36028063D-03 -0.12941469D-08  0.47043258D-08
 -0.99381698D-04 -0.18518316D-03 -0.31319115D-03 -0.47164852D-03 -0.58393146D-03
 -0.49689932D-03 -0.18907936D-03  0.88553930D-06  0.73191600D-04  0.13723493D-03