 Molden2AIM, Version 4.0.0 (06/02/2016)           Time: Thu Jun 28 03:09:51 2018
GAUSSIAN             16 MOL ORBITALS    516 PRIMITIVES       12 NUCLEI
  C    1    (CENTRE  1)  -3.50635092  0.03224818 -0.52656841  CHARGE =  6.0
  C    2    (CENTRE  2)  -1.34741441 -0.55505981  0.63736872  CHARGE =  6.0
  H    3    (CENTRE  3)  -5.16168675 -1.18999456 -0.41459268  CHARGE =  1.0
  H    4    (CENTRE  4)  -3.69257776  1.76562592 -1.63298982  CHARGE =  1.0
  H    5    (CENTRE  5)  -1.24662776 -2.31821396  1.72040477  CHARGE =  1.0
  C    6    (CENTRE  6)   1.02157460  0.98924328  0.57297252  CHARGE =  6.0
  H    7    (CENTRE  7)   0.68762787  2.73158022 -0.51131643  CHARGE =  1.0
  H    8    (CENTRE  8)   1.50371177  1.57356927  2.51437887  CHARGE =  1.0
  C    9    (CENTRE  9)   3.25192575 -0.46495955 -0.54661084  CHARGE =  6.0
  H   10    (CENTRE 10)   2.86381569 -1.01278171 -2.51100193  CHARGE =  1.0
  H   11    (CENTRE 11)   4.98053194  0.68394858 -0.52270958  CHARGE =  1.0
  H   12    (CENTRE 12)   3.62747669 -2.20105661  0.53146280  CHARGE =  1.0
CENTRE ASSIGNMENTS    1  1  1  1  1  1  1  1  1  1  1  1  1  1  1  1  1  1  1  1
CENTRE ASSIGNMENTS    1  1  1  1  1  1  1  1  1  1  1  1  1  1  1  1  1  1  1  1
CENTRE ASSIGNMENTS    1  1  1  1  1  1  1  1  1  1  1  1  1  1  1  1  1  1  1  1
CENTRE ASSIGNMENTS    1  1  1  1  1  1  1  1  1  1  1  1  1  1  1  2  2  2  2  2
CENTRE ASSIGNMENTS    2  2  2  2  2  2  2  2  2  2  2  2  2  2  2  2  2  2  2  2
CENTRE ASSIGNMENTS    2  2  2  2  2  2  2  2  2  2  2  2  2  2  2  2  2  2  2  2
CENTRE ASSIGNMENTS    2  2  2  2  2  2  2  2  2  2  2  2  2  2  2  2  2  2  2  2
CENTRE ASSIGNMENTS    2  2  2  2  2  2  2  2  2  2  3  3  3  3  3  3  3  3  3  3
CENTRE ASSIGNMENTS    3  3  3  3  3  3  3  3  3  3  3  3  3  3  3  3  3  4  4  4
CENTRE ASSIGNMENTS    4  4  4  4  4  4  4  4  4  4  4  4  4  4  4  4  4  4  4  4
CENTRE ASSIGNMENTS    4  4  4  4  5  5  5  5  5  5  5  5  5  5  5  5  5  5  5  5
CENTRE ASSIGNMENTS    5  5  5  5  5  5  5  5  5  5  5  6  6  6  6  6  6  6  6  6
CENTRE ASSIGNMENTS    6  6  6  6  6  6  6  6  6  6  6  6  6  6  6  6  6  6  6  6
CENTRE ASSIGNMENTS    6  6  6  6  6  6  6  6  6  6  6  6  6  6  6  6  6  6  6  6
CENTRE ASSIGNMENTS    6  6  6  6  6  6  6  6  6  6  6  6  6  6  6  6  6  6  6  6
CENTRE ASSIGNMENTS    6  6  6  6  6  6  7  7  7  7  7  7  7  7  7  7  7  7  7  7
CENTRE ASSIGNMENTS    7  7  7  7  7  7  7  7  7  7  7  7  7  8  8  8  8  8  8  8
CENTRE ASSIGNMENTS    8  8  8  8  8  8  8  8  8  8  8  8  8  8  8  8  8  8  8  8
CENTRE ASSIGNMENTS    9  9  9  9  9  9  9  9  9  9  9  9  9  9  9  9  9  9  9  9
CENTRE ASSIGNMENTS    9  9  9  9  9  9  9  9  9  9  9  9  9  9  9  9  9  9  9  9
CENTRE ASSIGNMENTS    9  9  9  9  9  9  9  9  9  9  9  9  9  9  9  9  9  9  9  9
CENTRE ASSIGNMENTS    9  9  9  9  9  9  9  9  9  9  9  9  9  9  9 10 10 10 10 10
CENTRE ASSIGNMENTS   10 10 10 10 10 10 10 10 10 10 10 10 10 10 10 10 10 10 10 10
CENTRE ASSIGNMENTS   10 10 11 11 11 11 11 11 11 11 11 11 11 11 11 11 11 11 11 11
CENTRE ASSIGNMENTS   11 11 11 11 11 11 11 11 11 12 12 12 12 12 12 12 12 12 12 12
CENTRE ASSIGNMENTS   12 12 12 12 12 12 12 12 12 12 12 12 12 12 12 12
TYPE ASSIGNMENTS      1  1  1  1  1  1  1  1  1  1  1  1  1  1  1  1  1  1  1  2
TYPE ASSIGNMENTS      2  2  3  3  3  4  4  4  2  3  4  2  3  4  2  3  4  5  6  7
TYPE ASSIGNMENTS      8  9 10  5  6  7  8  9 10  5  6  7  8  9 10 11 12 13 17 14
TYPE ASSIGNMENTS     15 18 19 16 20 11 12 13 17 14 15 18 19 16 20  1  1  1  1  1
TYPE ASSIGNMENTS      1  1  1  1  1  1  1  1  1  1  1  1  1  1  2  2  2  3  3  3
TYPE ASSIGNMENTS      4  4  4  2  3  4  2  3  4  2  3  4  5  6  7  8  9 10  5  6
TYPE ASSIGNMENTS      7  8  9 10  5  6  7  8  9 10 11 12 13 17 14 15 18 19 16 20
TYPE ASSIGNMENTS     11 12 13 17 14 15 18 19 16 20  1  1  1  1  1  1  2  3  4  2
TYPE ASSIGNMENTS      3  4  2  3  4  5  6  7  8  9 10  5  6  7  8  9 10  1  1  1
TYPE ASSIGNMENTS      1  1  1  2  3  4  2  3  4  2  3  4  5  6  7  8  9 10  5  6
TYPE ASSIGNMENTS      7  8  9 10  1  1  1  1  1  1  2  3  4  2  3  4  2  3  4  5
TYPE ASSIGNMENTS      6  7  8  9 10  5  6  7  8  9 10  1  1  1  1  1  1  1  1  1
TYPE ASSIGNMENTS      1  1  1  1  1  1  1  1  1  1  2  2  2  3  3  3  4  4  4  2
TYPE ASSIGNMENTS      3  4  2  3  4  2  3  4  5  6  7  8  9 10  5  6  7  8  9 10
TYPE ASSIGNMENTS      5  6  7  8  9 10 11 12 13 17 14 15 18 19 16 20 11 12 13 17
TYPE ASSIGNMENTS     14 15 18 19 16 20  1  1  1  1  1  1  2  3  4  2  3  4  2  3
TYPE ASSIGNMENTS      4  5  6  7  8  9 10  5  6  7  8  9 10  1  1  1  1  1  1  2
TYPE ASSIGNMENTS      3  4  2  3  4  2  3  4  5  6  7  8  9 10  5  6  7  8  9 10
TYPE ASSIGNMENTS      1  1  1  1  1  1  1  1  1  1  1  1  1  1  1  1  1  1  1  2
TYPE ASSIGNMENTS      2  2  3  3  3  4  4  4  2  3  4  2  3  4  2  3  4  5  6  7
TYPE ASSIGNMENTS      8  9 10  5  6  7  8  9 10  5  6  7  8  9 10 11 12 13 17 14
TYPE ASSIGNMENTS     15 18 19 16 20 11 12 13 17 14 15 18 19 16 20  1  1  1  1  1
TYPE ASSIGNMENTS      1  2  3  4  2  3  4  2  3  4  5  6  7  8  9 10  5  6  7  8
TYPE ASSIGNMENTS      9 10  1  1  1  1  1  1  2  3  4  2  3  4  2  3  4  5  6  7
TYPE ASSIGNMENTS      8  9 10  5  6  7  8  9 10  1  1  1  1  1  1  2  3  4  2  3
TYPE ASSIGNMENTS      4  2  3  4  5  6  7  8  9 10  5  6  7  8  9 10
EXPONENTS  0.8236000D+04 0.1235000D+04 0.2808000D+03 0.7927000D+02 0.2559000D+02
EXPONENTS  0.8997000D+01 0.3319000D+01 0.3643000D+00 0.8236000D+04 0.1235000D+04
EXPONENTS  0.2808000D+03 0.7927000D+02 0.2559000D+02 0.8997000D+01 0.3319000D+01
EXPONENTS  0.3643000D+00 0.9059000D+00 0.1285000D+00 0.4402000D-01 0.1871000D+02
EXPONENTS  0.4133000D+01 0.1200000D+01 0.1871000D+02 0.4133000D+01 0.1200000D+01
EXPONENTS  0.1871000D+02 0.4133000D+01 0.1200000D+01 0.3827000D+00 0.3827000D+00
EXPONENTS  0.3827000D+00 0.1209000D+00 0.1209000D+00 0.1209000D+00 0.3569000D-01
EXPONENTS  0.3569000D-01 0.3569000D-01 0.1097000D+01 0.1097000D+01 0.1097000D+01
EXPONENTS  0.1097000D+01 0.1097000D+01 0.1097000D+01 0.3180000D+00 0.3180000D+00
EXPONENTS  0.3180000D+00 0.3180000D+00 0.3180000D+00 0.3180000D+00 0.1000000D+00
EXPONENTS  0.1000000D+00 0.1000000D+00 0.1000000D+00 0.1000000D+00 0.1000000D+00
EXPONENTS  0.7610000D+00 0.7610000D+00 0.7610000D+00 0.7610000D+00 0.7610000D+00
EXPONENTS  0.7610000D+00 0.7610000D+00 0.7610000D+00 0.7610000D+00 0.7610000D+00
EXPONENTS  0.2680000D+00 0.2680000D+00 0.2680000D+00 0.2680000D+00 0.2680000D+00
EXPONENTS  0.2680000D+00 0.2680000D+00 0.2680000D+00 0.2680000D+00 0.2680000D+00
EXPONENTS  0.8236000D+04 0.1235000D+04 0.2808000D+03 0.7927000D+02 0.2559000D+02
EXPONENTS  0.8997000D+01 0.3319000D+01 0.3643000D+00 0.8236000D+04 0.1235000D+04
EXPONENTS  0.2808000D+03 0.7927000D+02 0.2559000D+02 0.8997000D+01 0.3319000D+01
EXPONENTS  0.3643000D+00 0.9059000D+00 0.1285000D+00 0.4402000D-01 0.1871000D+02
EXPONENTS  0.4133000D+01 0.1200000D+01 0.1871000D+02 0.4133000D+01 0.1200000D+01
EXPONENTS  0.1871000D+02 0.4133000D+01 0.1200000D+01 0.3827000D+00 0.3827000D+00
EXPONENTS  0.3827000D+00 0.1209000D+00 0.1209000D+00 0.1209000D+00 0.3569000D-01
EXPONENTS  0.3569000D-01 0.3569000D-01 0.1097000D+01 0.1097000D+01 0.1097000D+01
EXPONENTS  0.1097000D+01 0.1097000D+01 0.1097000D+01 0.3180000D+00 0.3180000D+00
EXPONENTS  0.3180000D+00 0.3180000D+00 0.3180000D+00 0.3180000D+00 0.1000000D+00
EXPONENTS  0.1000000D+00 0.1000000D+00 0.1000000D+00 0.1000000D+00 0.1000000D+00
EXPONENTS  0.7610000D+00 0.7610000D+00 0.7610000D+00 0.7610000D+00 0.7610000D+00
EXPONENTS  0.7610000D+00 0.7610000D+00 0.7610000D+00 0.7610000D+00 0.7610000D+00
EXPONENTS  0.2680000D+00 0.2680000D+00 0.2680000D+00 0.2680000D+00 0.2680000D+00
EXPONENTS  0.2680000D+00 0.2680000D+00 0.2680000D+00 0.2680000D+00 0.2680000D+00
EXPONENTS  0.3387000D+02 0.5095000D+01 0.1159000D+01 0.3258000D+00 0.1027000D+00
EXPONENTS  0.2526000D-01 0.1407000D+01 0.1407000D+01 0.1407000D+01 0.3880000D+00
EXPONENTS  0.3880000D+00 0.3880000D+00 0.1020000D+00 0.1020000D+00 0.1020000D+00
EXPONENTS  0.1057000D+01 0.1057000D+01 0.1057000D+01 0.1057000D+01 0.1057000D+01
EXPONENTS  0.1057000D+01 0.2470000D+00 0.2470000D+00 0.2470000D+00 0.2470000D+00
EXPONENTS  0.2470000D+00 0.2470000D+00 0.3387000D+02 0.5095000D+01 0.1159000D+01
EXPONENTS  0.3258000D+00 0.1027000D+00 0.2526000D-01 0.1407000D+01 0.1407000D+01
EXPONENTS  0.1407000D+01 0.3880000D+00 0.3880000D+00 0.3880000D+00 0.1020000D+00
EXPONENTS  0.1020000D+00 0.1020000D+00 0.1057000D+01 0.1057000D+01 0.1057000D+01
EXPONENTS  0.1057000D+01 0.1057000D+01 0.1057000D+01 0.2470000D+00 0.2470000D+00
EXPONENTS  0.2470000D+00 0.2470000D+00 0.2470000D+00 0.2470000D+00 0.3387000D+02
EXPONENTS  0.5095000D+01 0.1159000D+01 0.3258000D+00 0.1027000D+00 0.2526000D-01
EXPONENTS  0.1407000D+01 0.1407000D+01 0.1407000D+01 0.3880000D+00 0.3880000D+00
EXPONENTS  0.3880000D+00 0.1020000D+00 0.1020000D+00 0.1020000D+00 0.1057000D+01
EXPONENTS  0.1057000D+01 0.1057000D+01 0.1057000D+01 0.1057000D+01 0.1057000D+01
EXPONENTS  0.2470000D+00 0.2470000D+00 0.2470000D+00 0.2470000D+00 0.2470000D+00
EXPONENTS  0.2470000D+00 0.8236000D+04 0.1235000D+04 0.2808000D+03 0.7927000D+02
EXPONENTS  0.2559000D+02 0.8997000D+01 0.3319000D+01 0.3643000D+00 0.8236000D+04
EXPONENTS  0.1235000D+04 0.2808000D+03 0.7927000D+02 0.2559000D+02 0.8997000D+01
EXPONENTS  0.3319000D+01 0.3643000D+00 0.9059000D+00 0.1285000D+00 0.4402000D-01
EXPONENTS  0.1871000D+02 0.4133000D+01 0.1200000D+01 0.1871000D+02 0.4133000D+01
EXPONENTS  0.1200000D+01 0.1871000D+02 0.4133000D+01 0.1200000D+01 0.3827000D+00
EXPONENTS  0.3827000D+00 0.3827000D+00 0.1209000D+00 0.1209000D+00 0.1209000D+00
EXPONENTS  0.3569000D-01 0.3569000D-01 0.3569000D-01 0.1097000D+01 0.1097000D+01
EXPONENTS  0.1097000D+01 0.1097000D+01 0.1097000D+01 0.1097000D+01 0.3180000D+00
EXPONENTS  0.3180000D+00 0.3180000D+00 0.3180000D+00 0.3180000D+00 0.3180000D+00
EXPONENTS  0.1000000D+00 0.1000000D+00 0.1000000D+00 0.1000000D+00 0.1000000D+00
EXPONENTS  0.1000000D+00 0.7610000D+00 0.7610000D+00 0.7610000D+00 0.7610000D+00
EXPONENTS  0.7610000D+00 0.7610000D+00 0.7610000D+00 0.7610000D+00 0.7610000D+00
EXPONENTS  0.7610000D+00 0.2680000D+00 0.2680000D+00 0.2680000D+00 0.2680000D+00
EXPONENTS  0.2680000D+00 0.2680000D+00 0.2680000D+00 0.2680000D+00 0.2680000D+00
EXPONENTS  0.2680000D+00 0.3387000D+02 0.5095000D+01 0.1159000D+01 0.3258000D+00
EXPONENTS  0.1027000D+00 0.2526000D-01 0.1407000D+01 0.1407000D+01 0.1407000D+01
EXPONENTS  0.3880000D+00 0.3880000D+00 0.3880000D+00 0.1020000D+00 0.1020000D+00
EXPONENTS  0.1020000D+00 0.1057000D+01 0.1057000D+01 0.1057000D+01 0.1057000D+01
EXPONENTS  0.1057000D+01 0.1057000D+01 0.2470000D+00 0.2470000D+00 0.2470000D+00
EXPONENTS  0.2470000D+00 0.2470000D+00 0.2470000D+00 0.3387000D+02 0.5095000D+01
EXPONENTS  0.1159000D+01 0.3258000D+00 0.1027000D+00 0.2526000D-01 0.1407000D+01
EXPONENTS  0.1407000D+01 0.1407000D+01 0.3880000D+00 0.3880000D+00 0.3880000D+00
EXPONENTS  0.1020000D+00 0.1020000D+00 0.1020000D+00 0.1057000D+01 0.1057000D+01
EXPONENTS  0.1057000D+01 0.1057000D+01 0.1057000D+01 0.1057000D+01 0.2470000D+00
EXPONENTS  0.2470000D+00 0.2470000D+00 0.2470000D+00 0.2470000D+00 0.2470000D+00
EXPONENTS  0.8236000D+04 0.1235000D+04 0.2808000D+03 0.7927000D+02 0.2559000D+02
EXPONENTS  0.8997000D+01 0.3319000D+01 0.3643000D+00 0.8236000D+04 0.1235000D+04
EXPONENTS  0.2808000D+03 0.7927000D+02 0.2559000D+02 0.8997000D+01 0.3319000D+01
EXPONENTS  0.3643000D+00 0.9059000D+00 0.1285000D+00 0.4402000D-01 0.1871000D+02
EXPONENTS  0.4133000D+01 0.1200000D+01 0.1871000D+02 0.4133000D+01 0.1200000D+01
EXPONENTS  0.1871000D+02 0.4133000D+01 0.1200000D+01 0.3827000D+00 0.3827000D+00
EXPONENTS  0.3827000D+00 0.1209000D+00 0.1209000D+00 0.1209000D+00 0.3569000D-01
EXPONENTS  0.3569000D-01 0.3569000D-01 0.1097000D+01 0.1097000D+01 0.1097000D+01
EXPONENTS  0.1097000D+01 0.1097000D+01 0.1097000D+01 0.3180000D+00 0.3180000D+00
EXPONENTS  0.3180000D+00 0.3180000D+00 0.3180000D+00 0.3180000D+00 0.1000000D+00
EXPONENTS  0.1000000D+00 0.1000000D+00 0.1000000D+00 0.1000000D+00 0.1000000D+00
EXPONENTS  0.7610000D+00 0.7610000D+00 0.7610000D+00 0.7610000D+00 0.7610000D+00
EXPONENTS  0.7610000D+00 0.7610000D+00 0.7610000D+00 0.7610000D+00 0.7610000D+00
EXPONENTS  0.2680000D+00 0.2680000D+00 0.2680000D+00 0.2680000D+00 0.2680000D+00
EXPONENTS  0.2680000D+00 0.2680000D+00 0.2680000D+00 0.2680000D+00 0.2680000D+00
EXPONENTS  0.3387000D+02 0.5095000D+01 0.1159000D+01 0.3258000D+00 0.1027000D+00
EXPONENTS  0.2526000D-01 0.1407000D+01 0.1407000D+01 0.1407000D+01 0.3880000D+00
EXPONENTS  0.3880000D+00 0.3880000D+00 0.1020000D+00 0.1020000D+00 0.1020000D+00
EXPONENTS  0.1057000D+01 0.1057000D+01 0.1057000D+01 0.1057000D+01 0.1057000D+01
EXPONENTS  0.1057000D+01 0.2470000D+00 0.2470000D+00 0.2470000D+00 0.2470000D+00
EXPONENTS  0.2470000D+00 0.2470000D+00 0.3387000D+02 0.5095000D+01 0.1159000D+01
EXPONENTS  0.3258000D+00 0.1027000D+00 0.2526000D-01 0.1407000D+01 0.1407000D+01
EXPONENTS  0.1407000D+01 0.3880000D+00 0.3880000D+00 0.3880000D+00 0.1020000D+00
EXPONENTS  0.1020000D+00 0.1020000D+00 0.1057000D+01 0.1057000D+01 0.1057000D+01
EXPONENTS  0.1057000D+01 0.1057000D+01 0.1057000D+01 0.2470000D+00 0.2470000D+00
EXPONENTS  0.2470000D+00 0.2470000D+00 0.2470000D+00 0.2470000D+00 0.3387000D+02
EXPONENTS  0.5095000D+01 0.1159000D+01 0.3258000D+00 0.1027000D+00 0.2526000D-01
EXPONENTS  0.1407000D+01 0.1407000D+01 0.1407000D+01 0.3880000D+00 0.3880000D+00
EXPONENTS  0.3880000D+00 0.1020000D+00 0.1020000D+00 0.1020000D+00 0.1057000D+01
EXPONENTS  0.1057000D+01 0.1057000D+01 0.1057000D+01 0.1057000D+01 0.1057000D+01
EXPONENTS  0.2470000D+00 0.2470000D+00 0.2470000D+00 0.2470000D+00 0.2470000D+00
EXPONENTS  0.2470000D+00
MO    1     MO 0.0        OCC NO =    2.0000000  ORB. ENERGY =  -10.541898
  0.17352710D-01  0.32349397D-01  0.54676179D-01  0.82196207D-01  0.10098754D+00
  0.85300119D-01  0.32172067D-01 -0.15922135D-03 -0.73885199D-03 -0.13833641D-02
 -0.23552957D-02 -0.36432843D-02 -0.47980772D-02 -0.49855096D-02 -0.31680675D-02
  0.21231652D-02  0.54347125D-02 -0.16013623D-01 -0.38372864D-03  0.15929954D-02
  0.14935344D-02  0.10634855D-02 -0.33968774D-03 -0.31847885D-03 -0.22677591D-03
  0.75281703D-03  0.70581382D-03  0.50258149D-03  0.81363179D-03  0.21677662D-03
  0.33860813D-03 -0.18704365D-02  0.61657363D-03 -0.93660926D-03  0.61258770D-05
  0.52383086D-04 -0.39117681D-04 -0.10358553D-03  0.16469401D-03 -0.61108481D-04
  0.40068844D-03 -0.38930962D-03  0.11596213D-03 -0.25035963D-02  0.92259067D-03
  0.15810056D-02 -0.15841902D-02 -0.24989865D-02  0.85898372D-03  0.30977195D-03
 -0.13662224D-03 -0.17314971D-03  0.78490294D-03 -0.21374246D-03  0.50992557D-03
 -0.44742018D-03 -0.50002827D-03  0.58471981D-03  0.16910060D-02  0.18693268D-02
 -0.25760426D-02 -0.34874547D-03 -0.36924195D-03  0.82188320D-03  0.12399630D-02
 -0.18315093D-03 -0.11581852D-03  0.72167062D-04  0.62220430D-03  0.61167161D-03
 -0.67159579D-03 -0.72751498D-04 -0.26421604D-03  0.45509461D-03 -0.10895779D-03
  0.32881106D+00  0.61297857D+00  0.10360418D+01  0.15575102D+01  0.19135812D+01
  0.16163252D+01  0.60961840D+00 -0.30170355D-02 -0.30395238D-02 -0.56909476D-02
 -0.96893252D-02 -0.14987913D-01 -0.19738554D-01 -0.20509622D-01 -0.13032944D-01
  0.87343760D-02  0.34515386D-01 -0.90862964D-02 -0.18450379D-02  0.11186811D-02
  0.10488347D-02  0.74683276D-03  0.19073166D-04  0.17882305D-04  0.12733267D-04
  0.47128921D-03  0.44186359D-03  0.31463320D-03 -0.38449533D-02 -0.12818637D-03
 -0.15889216D-02 -0.23042405D-02  0.20175396D-02 -0.17534531D-02 -0.13046072D-03
 -0.10746626D-03  0.43552708D-04  0.18285542D-02 -0.31347108D-04 -0.17972071D-02
  0.68162872D-03  0.36354316D-02 -0.41571967D-02 -0.14266380D-02  0.25140775D-03
  0.11752302D-02 -0.30310790D-02  0.13697633D-03 -0.29882027D-03  0.12663884D-02
 -0.10528680D-02 -0.21352046D-03  0.26407759D-03  0.82125397D-03  0.13848640D-02
 -0.29059012D-03 -0.33972773D-03 -0.98492219D-04  0.72815404D-03  0.13027755D-02
 -0.14933838D-02  0.14361631D-03 -0.28359237D-03  0.17888605D-02  0.51648562D-03
  0.31788275D-03  0.32341865D-03 -0.62076918D-04 -0.10486005D-02 -0.14260756D-02
  0.14092565D-02  0.94952286D-04  0.45581970D-03 -0.12230258D-02 -0.15545192D-03
  0.72731170D-04  0.13117366D-03  0.19341549D-03  0.63690956D-02 -0.61512666D-02
  0.47689407D-04  0.77543893D-03  0.41357491D-03  0.67470249D-04  0.17229219D-02
  0.18298407D-02 -0.49719191D-03 -0.56267294D-03 -0.39829754D-03  0.67541663D-04
 -0.31186878D-04  0.15893935D-03 -0.12775247D-03  0.91835453D-03 -0.65658524D-03
  0.25989772D-03 -0.13992949D-03  0.11478167D-03  0.25147818D-04  0.20775778D-03
 -0.31378146D-03  0.59795799D-04  0.10984464D-03  0.19810933D-03  0.29211209D-03
  0.23328135D-02  0.68710142D-02 -0.66508115D-04  0.41207328D-03 -0.61549478D-03
  0.55363570D-03 -0.73013557D-03 -0.39391193D-03 -0.36480799D-04 -0.10731869D-03
 -0.76252614D-03  0.39812583D-03 -0.21724962D-03  0.19707870D-03  0.20170921D-04
  0.18716276D-03 -0.34920418D-03 -0.95433171D-04 -0.39287277D-04  0.18002127D-04
  0.21285150D-04  0.21716435D-03 -0.24046023D-03  0.17498700D-03  0.19986347D-03
  0.36046200D-03  0.53150101D-03  0.29611931D-02  0.16565128D-01 -0.85572343D-04
  0.76432732D-04 -0.81529687D-03  0.55350706D-03 -0.98062321D-04 -0.19779268D-02
  0.10521481D-02 -0.43488660D-03  0.12436802D-02 -0.88354280D-03  0.14354113D-02
 -0.17739952D-02  0.33858385D-03  0.10159882D-03 -0.15109139D-03  0.39795837D-02
 -0.57136442D-04 -0.16274909D-03  0.21988553D-03 -0.16312276D-03 -0.23868138D-03
  0.66160963D-03  0.25265057D-01  0.47099811D-01  0.79606977D-01  0.11967536D+00
  0.14703501D+00  0.12419457D+00  0.46841623D-01 -0.23182181D-03 -0.51767013D-03
 -0.96924182D-03 -0.16502171D-02 -0.25526350D-02 -0.33617305D-02 -0.34930533D-02
 -0.22196786D-02  0.14875770D-02  0.29933911D-02  0.13851000D-02  0.87337926D-03
  0.10621896D-03  0.99587023D-04  0.70911893D-04 -0.12797664D-03 -0.11998623D-03
 -0.85437346D-04  0.60642474D-04  0.56856174D-04  0.40484983D-04 -0.44678375D-02
 -0.22273981D-02 -0.12251846D-03 -0.50613604D-03 -0.36905445D-03 -0.18569481D-03
 -0.14300004D-03 -0.29072698D-04  0.47980638D-05  0.11546275D-02 -0.42580740D-03
 -0.72882008D-03  0.22225123D-02  0.98982674D-04 -0.36798081D-03 -0.22846821D-03
  0.78522430D-04  0.14994578D-03 -0.57519530D-03  0.56823505D-04  0.33394685D-03
  0.41894437D-03 -0.34968876D-03 -0.69255610D-04 -0.54874505D-04  0.34421773D-03
  0.96567723D-03  0.90593094D-04 -0.23065239D-03  0.41686147D-04  0.30065118D-03
  0.10714240D-02 -0.44597948D-03 -0.57243046D-03 -0.37946681D-03  0.32092104D-03
 -0.18113402D-03  0.84084840D-04  0.34475046D-04  0.11803415D-03  0.28635380D-03
  0.43310053D-04  0.73509368D-03 -0.53860832D-03 -0.14673519D-03 -0.10891961D-02
 -0.13852451D-03 -0.41498608D-04 -0.74844449D-04 -0.11035810D-03 -0.12507836D-02
  0.66119640D-02  0.26917392D-04  0.37601329D-04 -0.12612938D-03 -0.57955239D-04
  0.20470708D-03 -0.12896747D-03  0.30883475D-03  0.41806533D-03 -0.52636800D-03
  0.30476675D-03 -0.33352883D-04 -0.10598789D-03  0.13934077D-03 -0.96160836D-03
  0.48330618D-03 -0.13238683D-03 -0.93082064D-04  0.10815433D-04  0.82266630D-04
 -0.31664566D-03 -0.23970403D-04 -0.12912103D-03  0.10885872D-04  0.19633119D-04
  0.28949023D-04  0.27466233D-03 -0.49898522D-02  0.34931344D-04  0.12917155D-03
 -0.26219007D-03  0.28569290D-04  0.61813154D-03  0.10145384D-02 -0.78563026D-03
  0.97598331D-04 -0.50836318D-04  0.67368671D-03 -0.55794189D-03 -0.60255584D-04
  0.61819748D-03 -0.58615021D-03 -0.76976911D-03 -0.50594941D-03 -0.24400439D-03
  0.88708328D-04  0.15529606D-03 -0.19594950D-03  0.18507716D-03 -0.10365850D-03
  0.41049685D-03  0.76525946D-03  0.12934233D-02  0.19444389D-02  0.23889679D-02
  0.20178653D-02  0.76106453D-03 -0.37665508D-05 -0.52543318D-04 -0.98377670D-04
 -0.16749640D-03 -0.25909146D-03 -0.34121434D-03 -0.35454356D-03 -0.22529652D-03
  0.15098849D-03  0.18587738D-03 -0.31950863D-02  0.74765319D-03  0.56625622D-04
  0.53090120D-04  0.37803328D-04 -0.90559243D-04 -0.84905047D-04 -0.60457451D-04
 -0.96711902D-04 -0.90673555D-04 -0.64564973D-04 -0.35937193D-03 -0.39016046D-03
  0.41849707D-03  0.10833827D-02 -0.16937389D-03 -0.77068669D-03 -0.68134538D-04
  0.64982645D-06  0.21621753D-04  0.15681623D-03 -0.13154417D-03 -0.25272059D-04
  0.60265493D-03  0.22226950D-05 -0.94575912D-04 -0.86730665D-03  0.77568162D-03
  0.91625030D-04 -0.21364259D-02 -0.35291548D-04 -0.28636117D-03 -0.48049172D-04
  0.14775119D-04  0.33274053D-04 -0.70188330D-04  0.29882177D-04 -0.13887886D-03
  0.24160209D-03 -0.21086102D-04 -0.31112531D-04 -0.62710704D-03  0.20519021D-04
 -0.26141078D-03 -0.97699230D-04  0.42739284D-04  0.35474837D-03 -0.54308022D-03
  0.47523679D-04  0.59005472D-04  0.42890429D-05 -0.39163070D-03 -0.63571887D-04
  0.15318275D-04  0.24905966D-03 -0.11344453D-03 -0.28185404D-04 -0.20912070D-03
  0.96275366D-06  0.17363659D-05  0.25602705D-05  0.43612008D-03 -0.11549426D-02
 -0.86542783D-06 -0.33986714D-04 -0.61597069D-04  0.16268466D-04 -0.34805057D-03
  0.27648388D-03  0.21272929D-03 -0.66612483D-05 -0.13765143D-03 -0.10652825D-03
  0.10627220D-03 -0.11609390D-03  0.98217024D-05  0.51624815D-04 -0.12109229D-03
  0.88361146D-04 -0.11149176D-03  0.35651647D-04  0.75840108D-04 -0.54913393D-04
 -0.78260090D-04  0.78110338D-04  0.31257377D-04  0.56373967D-04  0.83123382D-04
  0.26567827D-02 -0.10908632D-02  0.99431070D-04 -0.17798613D-03 -0.25806714D-04
 -0.45012372D-05 -0.98516957D-03 -0.46545750D-03  0.22943208D-03  0.23704928D-03
  0.48853910D-04 -0.49735925D-04  0.99839419D-04 -0.18400155D-03  0.84162128D-04
  0.12923849D-03 -0.30176094D-03 -0.50003662D-04 -0.10973584D-04  0.86854662D-05
  0.22881175D-05  0.10519338D-03  0.42677494D-04 -0.27031325D-04 -0.61742321D-05
 -0.11135482D-04 -0.16419261D-04 -0.97607365D-03 -0.19950519D-05  0.36175273D-05
 -0.47641625D-04 -0.24722412D-04  0.69254839D-05 -0.10516232D-03 -0.71924290D-03
  0.39384690D-03 -0.10893918D-03  0.12072288D-03 -0.22191566D-04  0.26091431D-03
 -0.15081528D-03 -0.11009903D-03 -0.29339236D-04 -0.14794370D-03  0.16999141D-03
 -0.26424308D-04 -0.14983312D-04  0.41407620D-04 -0.14945149D-03 -0.67666774D-04
  0.13451002D-03
MO    2     MO 0.0        OCC NO =    2.0000000  ORB. ENERGY =  -10.538904
 -0.15290588D-02 -0.28505133D-02 -0.48178696D-02 -0.72428362D-02 -0.88986611D-02
 -0.75163418D-02 -0.28348876D-02  0.14030017D-04 -0.10254729D-03 -0.19200088D-03
 -0.32689793D-03 -0.50566140D-03 -0.66593827D-03 -0.69195252D-03 -0.43970476D-03
  0.29467991D-03  0.14045447D-03 -0.19667165D-02  0.18362837D-02 -0.28010020D-03
 -0.26261174D-03 -0.18699520D-03  0.21710540D-03  0.20355011D-03  0.14493980D-03
 -0.12761287D-03 -0.11964518D-03 -0.85194497D-04  0.27844871D-02 -0.14341185D-02
  0.17096183D-02 -0.20161410D-02  0.13567283D-02 -0.16611080D-02  0.89567819D-04
  0.11665064D-04  0.18193288D-04  0.13302584D-03 -0.16268084D-03  0.29654999D-04
  0.51129649D-04  0.15692344D-03  0.27537720D-03  0.70588250D-03 -0.10135962D-02
  0.30771372D-03 -0.23115967D-02  0.13885207D-02  0.80655100D-03 -0.42172323D-04
  0.11229520D-03 -0.70122879D-04  0.29262042D-03 -0.18395907D-03 -0.87980110D-04
 -0.54515948D-04  0.49750765D-04 -0.13786003D-03  0.51671396D-05 -0.10195932D-03
  0.65323543D-05  0.15838071D-03 -0.47292970D-04  0.40704773D-03 -0.37939967D-03
  0.91045269D-04  0.18339216D-03  0.12038659D-03 -0.48877216D-03 -0.99538517D-03
  0.46144968D-03  0.21563635D-03  0.44520869D-03 -0.82260946D-03  0.37323961D-03
 -0.24521090D-01 -0.45712887D-01 -0.77262832D-01 -0.11615134D+00 -0.14270535D+00
 -0.12053748D+00 -0.45462302D-01  0.22499547D-03 -0.44669326D-04 -0.83635072D-04
 -0.14239587D-03 -0.22026475D-03 -0.29008093D-03 -0.30141267D-03 -0.19153422D-03
  0.12836178D-03 -0.16308068D-02  0.49248622D-03 -0.18133646D-02 -0.85207165D-04
 -0.79887133D-04 -0.56884398D-04  0.82414867D-04  0.77269176D-04  0.55020257D-04
  0.31375464D-05  0.29416492D-05  0.20946295D-05  0.42569605D-02 -0.35580020D-05
  0.14428463D-02 -0.26724694D-02  0.30962791D-02 -0.27196271D-02  0.92469808D-04
 -0.44132294D-04  0.76973539D-04 -0.86833808D-04  0.25012339D-03 -0.16328958D-03
  0.10057326D-02 -0.56635447D-03  0.33194789D-04 -0.19094046D-03  0.81443763D-04
  0.10949670D-03 -0.18421388D-04 -0.84135442D-03  0.39090150D-03  0.12060270D-03
 -0.14169027D-03  0.21087564D-04 -0.68073443D-04  0.52982435D-04  0.23048045D-03
 -0.20338201D-04  0.14507986D-03 -0.14407486D-03 -0.27950256D-03 -0.59062999D-03
  0.16582198D-03  0.34051716D-03  0.15539041D-03  0.26640260D-03 -0.18746056D-03
  0.31281110D-04  0.36645784D-03  0.21969106D-03 -0.76613186D-03 -0.18701622D-02
  0.68419266D-03  0.67228853D-03  0.77078874D-03 -0.13432658D-02  0.46712718D-03
 -0.75454117D-04 -0.13608461D-03 -0.20065667D-03  0.85543385D-04 -0.19738419D-02
  0.71810584D-04 -0.42718278D-04  0.71221049D-05 -0.10901030D-04  0.14411334D-02
  0.16314284D-03  0.40471034D-03 -0.12549068D-03 -0.88259015D-05 -0.54012869D-04
  0.50722424D-03 -0.26392281D-03 -0.24330143D-03  0.11179743D-03  0.60670444D-03
 -0.14103973D-03  0.81374444D-04  0.52074666D-06 -0.81895190D-04  0.82329314D-04
  0.99902149D-04 -0.15575615D-03 -0.56773010D-04 -0.10239246D-03 -0.15097762D-03
 -0.11081965D-02 -0.24606182D-02 -0.13262378D-04 -0.10878815D-03  0.28799716D-04
 -0.15894139D-04  0.12370849D-02 -0.10444242D-02  0.10187807D-02 -0.17810730D-03
  0.68510058D-04 -0.12134792D-03 -0.12957886D-03  0.16102465D-03 -0.31445790D-04
 -0.66234336D-03  0.66784887D-03 -0.98893108D-03 -0.38983219D-04  0.82400668D-04
 -0.43417449D-04 -0.14154677D-03  0.16928517D-03 -0.31483033D-03  0.13058259D-03
  0.23551108D-03  0.34726095D-03  0.50307405D-02  0.63597805D-02 -0.27383568D-04
 -0.27991079D-03  0.57189352D-03 -0.38052264D-03  0.49921488D-03 -0.22683653D-03
  0.23435182D-03  0.13780076D-04  0.63921688D-03 -0.41842651D-03 -0.27683690D-03
 -0.58232962D-04  0.33506987D-03 -0.62123192D-03 -0.30079558D-03  0.47409702D-03
 -0.14535137D-04 -0.94460668D-04  0.10899581D-03 -0.15188911D-03 -0.76372061D-04
  0.27117444D-03  0.32932498D+00  0.61393664D+00  0.10376611D+01  0.15599445D+01
  0.19165720D+01  0.16188515D+01  0.61057121D+00 -0.30217510D-02 -0.31064440D-02
 -0.58162433D-02 -0.99026519D-02 -0.15317897D-01 -0.20173131D-01 -0.20961175D-01
 -0.13319886D-01  0.89266779D-02  0.34149475D-01 -0.12092489D-01 -0.13160216D-02
 -0.30453765D-04 -0.28552341D-04 -0.20330968D-04  0.54854988D-04  0.51430038D-04
  0.36621251D-04 -0.57945572D-04 -0.54327657D-04 -0.38684528D-04 -0.87279895D-03
 -0.10320063D-02  0.18341262D-03  0.28963404D-03  0.30657609D-05  0.13486889D-02
 -0.38398107D-04  0.83178746D-04  0.27963424D-04 -0.51912220D-03  0.16158934D-03
  0.35753285D-03 -0.42720395D-03  0.82795269D-03 -0.63641469D-03  0.26821044D-03
 -0.25607188D-03 -0.12138555D-04  0.61760923D-03 -0.72012279D-03  0.96884996D-03
 -0.18708455D-03  0.10200269D-03  0.85081863D-04  0.12205855D-03 -0.20895244D-03
 -0.11694198D-04 -0.66876640D-04 -0.71050885D-04  0.54281806D-03 -0.27333657D-03
 -0.59677827D-03 -0.13147971D-03  0.47396649D-03  0.80993092D-03 -0.14969745D-02
  0.77519032D-03 -0.41235751D-05  0.27818890D-04 -0.44148247D-03  0.39288408D-03
  0.63684098D-03  0.46543744D-03 -0.38051336D-03 -0.72029766D-03  0.85900996D-03
 -0.15788277D-02  0.79686197D-04  0.14371734D-03  0.21191113D-03  0.52724853D-02
  0.24775593D-02 -0.83325323D-04 -0.20256140D-03  0.78028921D-03 -0.33355270D-03
 -0.87193008D-03 -0.37103480D-03 -0.44105960D-03 -0.25949927D-03 -0.33810033D-03
  0.37286060D-04  0.10396281D-02 -0.11193031D-02  0.79674994D-04  0.13318116D-02
 -0.84053110D-03  0.28035900D-02  0.11511558D-03 -0.13076461D-03  0.15649028D-04
  0.11359389D-03 -0.84372175D-04  0.35165484D-03  0.64472782D-04  0.11627932D-03
  0.17145378D-03  0.38539293D-02 -0.35855547D-03 -0.62384556D-04  0.32542396D-03
  0.33779449D-03  0.99123636D-03  0.16626159D-03 -0.19077558D-03  0.62508030D-03
  0.14439721D-03  0.43014619D-04  0.17681698D-03  0.93276052D-03  0.85900496D-03
 -0.17917655D-02 -0.19291417D-03 -0.17124172D-02 -0.17802284D-02  0.15452420D-03
  0.73752459D-04 -0.22827666D-03  0.11195813D-03 -0.22563915D-03 -0.15509426D-03
  0.66358647D-02  0.12370761D-01  0.20908765D-01  0.31432722D-01  0.38618731D-01
  0.32619692D-01  0.12302948D-01 -0.60887975D-04 -0.23056315D-03 -0.43168697D-03
 -0.73498400D-03 -0.11369085D-02 -0.14972685D-02 -0.15557579D-02 -0.98861428D-03
  0.66254630D-03  0.10650727D-02  0.38230341D-02  0.88756113D-03  0.59041663D-04
  0.55355312D-04  0.39416280D-04 -0.17049825D-04 -0.15985295D-04 -0.11382482D-04
  0.18402900D-04  0.17253888D-04  0.12285796D-04 -0.22711976D-02  0.14670148D-02
  0.11111947D-02 -0.14024881D-02  0.90678238D-03  0.10149233D-03 -0.77208490D-04
  0.40766448D-04  0.20773461D-04  0.27683796D-03 -0.93298384D-04 -0.18353957D-03
 -0.12263657D-02 -0.91148811D-03  0.48552594D-03 -0.85785216D-04  0.43434883D-04
  0.42350333D-04  0.11349041D-02  0.58788219D-03 -0.40638565D-03 -0.78316294D-06
 -0.54407016D-04  0.55190179D-04 -0.76795199D-05 -0.69489240D-04  0.18618439D-03
 -0.15451808D-04  0.31877970D-03  0.22950383D-03  0.21440813D-03 -0.10592543D-02
 -0.63424019D-03 -0.16805271D-03  0.10291517D-03 -0.54271293D-04  0.13647749D-02
 -0.42500907D-04  0.92813062D-04  0.29062759D-05  0.25609166D-03 -0.23255622D-03
 -0.15215310D-03 -0.12858894D-03 -0.45882967D-04  0.14343427D-03  0.61713603D-03
  0.12537763D-04  0.22612371D-04  0.33341928D-04 -0.12091245D-03 -0.14780186D-02
  0.18567017D-04  0.60787138D-04  0.13377035D-03  0.23833035D-04  0.72336006D-03
 -0.49475570D-03  0.35067435D-03 -0.40915767D-04 -0.47025043D-04 -0.17843795D-03
  0.12881005D-04 -0.19617518D-03  0.18329417D-03  0.46352899D-03  0.11664658D-02
 -0.51379482D-03 -0.53568937D-04 -0.21576393D-04  0.75145330D-04  0.12060882D-03
  0.10950997D-03 -0.72406133D-04  0.17103088D-04  0.30846123D-04  0.45482591D-04
 -0.37809039D-03  0.59614172D-03  0.55591014D-04 -0.20777108D-03 -0.19767015D-04
  0.40533767D-04  0.50989530D-03 -0.89943325D-03 -0.59657889D-03 -0.80047839D-04
 -0.54143418D-04 -0.36075408D-04 -0.48358731D-03  0.53218679D-03 -0.48599475D-04
  0.97472532D-03  0.70242773D-03  0.16851739D-03 -0.23440799D-04  0.23289382D-04