 Molden2AIM, Version 4.0.0 (06/02/2016)           Time: Thu Jun 28 04:38:00 2018
GAUSSIAN             19 MOL ORBITALS    591 PRIMITIVES       13 NUCLEI
  C    1    (CENTRE  1)   0.00000000  0.00000000  0.00000000  CHARGE =  6.0
  C    2    (CENTRE  2)   0.00000000  1.44199142  2.39475165  CHARGE =  6.0
  C    3    (CENTRE  3)   0.00000000 -1.44199142  2.39475165  CHARGE =  6.0
  C    4    (CENTRE  4)   1.44199142  0.00000000 -2.39475165  CHARGE =  6.0
  C    5    (CENTRE  5)  -1.44199142  0.00000000 -2.39475165  CHARGE =  6.0
  H    6    (CENTRE  6)  -1.73652225  2.39408458  2.96539981  CHARGE =  1.0
  H    7    (CENTRE  7)   1.73652225  2.39408458  2.96539981  CHARGE =  1.0
  H    8    (CENTRE  8)  -1.73652225 -2.39408458  2.96539981  CHARGE =  1.0
  H    9    (CENTRE  9)   1.73652225 -2.39408458  2.96539981  CHARGE =  1.0
  H   10    (CENTRE 10)   2.39408458 -1.73652225 -2.96539981  CHARGE =  1.0
  H   11    (CENTRE 11)   2.39408458  1.73652225 -2.96539981  CHARGE =  1.0
  H   12    (CENTRE 12)  -2.39408458 -1.73652225 -2.96539981  CHARGE =  1.0
  H   13    (CENTRE 13)  -2.39408458  1.73652225 -2.96539981  CHARGE =  1.0
CENTRE ASSIGNMENTS    1  1  1  1  1  1  1  1  1  1  1  1  1  1  1  1  1  1  1  1
CENTRE ASSIGNMENTS    1  1  1  1  1  1  1  1  1  1  1  1  1  1  1  1  1  1  1  1
CENTRE ASSIGNMENTS    1  1  1  1  1  1  1  1  1  1  1  1  1  1  1  1  1  1  1  1
CENTRE ASSIGNMENTS    1  1  1  1  1  1  1  1  1  1  1  1  1  1  1  2  2  2  2  2
CENTRE ASSIGNMENTS    2  2  2  2  2  2  2  2  2  2  2  2  2  2  2  2  2  2  2  2
CENTRE ASSIGNMENTS    2  2  2  2  2  2  2  2  2  2  2  2  2  2  2  2  2  2  2  2
CENTRE ASSIGNMENTS    2  2  2  2  2  2  2  2  2  2  2  2  2  2  2  2  2  2  2  2
CENTRE ASSIGNMENTS    2  2  2  2  2  2  2  2  2  2  3  3  3  3  3  3  3  3  3  3
CENTRE ASSIGNMENTS    3  3  3  3  3  3  3  3  3  3  3  3  3  3  3  3  3  3  3  3
CENTRE ASSIGNMENTS    3  3  3  3  3  3  3  3  3  3  3  3  3  3  3  3  3  3  3  3
CENTRE ASSIGNMENTS    3  3  3  3  3  3  3  3  3  3  3  3  3  3  3  3  3  3  3  3
CENTRE ASSIGNMENTS    3  3  3  3  3  4  4  4  4  4  4  4  4  4  4  4  4  4  4  4
CENTRE ASSIGNMENTS    4  4  4  4  4  4  4  4  4  4  4  4  4  4  4  4  4  4  4  4
CENTRE ASSIGNMENTS    4  4  4  4  4  4  4  4  4  4  4  4  4  4  4  4  4  4  4  4
CENTRE ASSIGNMENTS    4  4  4  4  4  4  4  4  4  4  4  4  4  4  4  4  4  4  4  4
CENTRE ASSIGNMENTS    5  5  5  5  5  5  5  5  5  5  5  5  5  5  5  5  5  5  5  5
CENTRE ASSIGNMENTS    5  5  5  5  5  5  5  5  5  5  5  5  5  5  5  5  5  5  5  5
CENTRE ASSIGNMENTS    5  5  5  5  5  5  5  5  5  5  5  5  5  5  5  5  5  5  5  5
CENTRE ASSIGNMENTS    5  5  5  5  5  5  5  5  5  5  5  5  5  5  5  6  6  6  6  6
CENTRE ASSIGNMENTS    6  6  6  6  6  6  6  6  6  6  6  6  6  6  6  6  6  6  6  6
CENTRE ASSIGNMENTS    6  6  7  7  7  7  7  7  7  7  7  7  7  7  7  7  7  7  7  7
CENTRE ASSIGNMENTS    7  7  7  7  7  7  7  7  7  8  8  8  8  8  8  8  8  8  8  8
CENTRE ASSIGNMENTS    8  8  8  8  8  8  8  8  8  8  8  8  8  8  8  8  9  9  9  9
CENTRE ASSIGNMENTS    9  9  9  9  9  9  9  9  9  9  9  9  9  9  9  9  9  9  9  9
CENTRE ASSIGNMENTS    9  9  9 10 10 10 10 10 10 10 10 10 10 10 10 10 10 10 10 10
CENTRE ASSIGNMENTS   10 10 10 10 10 10 10 10 10 10 11 11 11 11 11 11 11 11 11 11
CENTRE ASSIGNMENTS   11 11 11 11 11 11 11 11 11 11 11 11 11 11 11 11 11 12 12 12
CENTRE ASSIGNMENTS   12 12 12 12 12 12 12 12 12 12 12 12 12 12 12 12 12 12 12 12
CENTRE ASSIGNMENTS   12 12 12 12 13 13 13 13 13 13 13 13 13 13 13 13 13 13 13 13
CENTRE ASSIGNMENTS   13 13 13 13 13 13 13 13 13 13 13
TYPE ASSIGNMENTS      1  1  1  1  1  1  1  1  1  1  1  1  1  1  1  1  1  1  1  2
TYPE ASSIGNMENTS      2  2  3  3  3  4  4  4  2  3  4  2  3  4  2  3  4  5  6  7
TYPE ASSIGNMENTS      8  9 10  5  6  7  8  9 10  5  6  7  8  9 10 11 12 13 17 14
TYPE ASSIGNMENTS     15 18 19 16 20 11 12 13 17 14 15 18 19 16 20  1  1  1  1  1
TYPE ASSIGNMENTS      1  1  1  1  1  1  1  1  1  1  1  1  1  1  2  2  2  3  3  3
TYPE ASSIGNMENTS      4  4  4  2  3  4  2  3  4  2  3  4  5  6  7  8  9 10  5  6
TYPE ASSIGNMENTS      7  8  9 10  5  6  7  8  9 10 11 12 13 17 14 15 18 19 16 20
TYPE ASSIGNMENTS     11 12 13 17 14 15 18 19 16 20  1  1  1  1  1  1  1  1  1  1
TYPE ASSIGNMENTS      1  1  1  1  1  1  1  1  1  2  2  2  3  3  3  4  4  4  2  3
TYPE ASSIGNMENTS      4  2  3  4  2  3  4  5  6  7  8  9 10  5  6  7  8  9 10  5
TYPE ASSIGNMENTS      6  7  8  9 10 11 12 13 17 14 15 18 19 16 20 11 12 13 17 14
TYPE ASSIGNMENTS     15 18 19 16 20  1  1  1  1  1  1  1  1  1  1  1  1  1  1  1
TYPE ASSIGNMENTS      1  1  1  1  2  2  2  3  3  3  4  4  4  2  3  4  2  3  4  2
TYPE ASSIGNMENTS      3  4  5  6  7  8  9 10  5  6  7  8  9 10  5  6  7  8  9 10
TYPE ASSIGNMENTS     11 12 13 17 14 15 18 19 16 20 11 12 13 17 14 15 18 19 16 20
TYPE ASSIGNMENTS      1  1  1  1  1  1  1  1  1  1  1  1  1  1  1  1  1  1  1  2
TYPE ASSIGNMENTS      2  2  3  3  3  4  4  4  2  3  4  2  3  4  2  3  4  5  6  7
TYPE ASSIGNMENTS      8  9 10  5  6  7  8  9 10  5  6  7  8  9 10 11 12 13 17 14
TYPE ASSIGNMENTS     15 18 19 16 20 11 12 13 17 14 15 18 19 16 20  1  1  1  1  1
TYPE ASSIGNMENTS      1  2  3  4  2  3  4  2  3  4  5  6  7  8  9 10  5  6  7  8
TYPE ASSIGNMENTS      9 10  1  1  1  1  1  1  2  3  4  2  3  4  2  3  4  5  6  7
TYPE ASSIGNMENTS      8  9 10  5  6  7  8  9 10  1  1  1  1  1  1  2  3  4  2  3
TYPE ASSIGNMENTS      4  2  3  4  5  6  7  8  9 10  5  6  7  8  9 10  1  1  1  1
TYPE ASSIGNMENTS      1  1  2  3  4  2  3  4  2  3  4  5  6  7  8  9 10  5  6  7
TYPE ASSIGNMENTS      8  9 10  1  1  1  1  1  1  2  3  4  2  3  4  2  3  4  5  6
TYPE ASSIGNMENTS      7  8  9 10  5  6  7  8  9 10  1  1  1  1  1  1  2  3  4  2
TYPE ASSIGNMENTS      3  4  2  3  4  5  6  7  8  9 10  5  6  7  8  9 10  1  1  1
TYPE ASSIGNMENTS      1  1  1  2  3  4  2  3  4  2  3  4  5  6  7  8  9 10  5  6
TYPE ASSIGNMENTS      7  8  9 10  1  1  1  1  1  1  2  3  4  2  3  4  2  3  4  5
TYPE ASSIGNMENTS      6  7  8  9 10  5  6  7  8  9 10
EXPONENTS  0.8236000D+04 0.1235000D+04 0.2808000D+03 0.7927000D+02 0.2559000D+02
EXPONENTS  0.8997000D+01 0.3319000D+01 0.3643000D+00 0.8236000D+04 0.1235000D+04
EXPONENTS  0.2808000D+03 0.7927000D+02 0.2559000D+02 0.8997000D+01 0.3319000D+01
EXPONENTS  0.3643000D+00 0.9059000D+00 0.1285000D+00 0.4402000D-01 0.1871000D+02
EXPONENTS  0.4133000D+01 0.1200000D+01 0.1871000D+02 0.4133000D+01 0.1200000D+01
EXPONENTS  0.1871000D+02 0.4133000D+01 0.1200000D+01 0.3827000D+00 0.3827000D+00
EXPONENTS  0.3827000D+00 0.1209000D+00 0.1209000D+00 0.1209000D+00 0.3569000D-01
EXPONENTS  0.3569000D-01 0.3569000D-01 0.1097000D+01 0.1097000D+01 0.1097000D+01
EXPONENTS  0.1097000D+01 0.1097000D+01 0.1097000D+01 0.3180000D+00 0.3180000D+00
EXPONENTS  0.3180000D+00 0.3180000D+00 0.3180000D+00 0.3180000D+00 0.1000000D+00
EXPONENTS  0.1000000D+00 0.1000000D+00 0.1000000D+00 0.1000000D+00 0.1000000D+00
EXPONENTS  0.7610000D+00 0.7610000D+00 0.7610000D+00 0.7610000D+00 0.7610000D+00
EXPONENTS  0.7610000D+00 0.7610000D+00 0.7610000D+00 0.7610000D+00 0.7610000D+00
EXPONENTS  0.2680000D+00 0.2680000D+00 0.2680000D+00 0.2680000D+00 0.2680000D+00
EXPONENTS  0.2680000D+00 0.2680000D+00 0.2680000D+00 0.2680000D+00 0.2680000D+00
EXPONENTS  0.8236000D+04 0.1235000D+04 0.2808000D+03 0.7927000D+02 0.2559000D+02
EXPONENTS  0.8997000D+01 0.3319000D+01 0.3643000D+00 0.8236000D+04 0.1235000D+04
EXPONENTS  0.2808000D+03 0.7927000D+02 0.2559000D+02 0.8997000D+01 0.3319000D+01
EXPONENTS  0.3643000D+00 0.9059000D+00 0.1285000D+00 0.4402000D-01 0.1871000D+02
EXPONENTS  0.4133000D+01 0.1200000D+01 0.1871000D+02 0.4133000D+01 0.1200000D+01
EXPONENTS  0.1871000D+02 0.4133000D+01 0.1200000D+01 0.3827000D+00 0.3827000D+00
EXPONENTS  0.3827000D+00 0.1209000D+00 0.1209000D+00 0.1209000D+00 0.3569000D-01
EXPONENTS  0.3569000D-01 0.3569000D-01 0.1097000D+01 0.1097000D+01 0.1097000D+01
EXPONENTS  0.1097000D+01 0.1097000D+01 0.1097000D+01 0.3180000D+00 0.3180000D+00
EXPONENTS  0.3180000D+00 0.3180000D+00 0.3180000D+00 0.3180000D+00 0.1000000D+00
EXPONENTS  0.1000000D+00 0.1000000D+00 0.1000000D+00 0.1000000D+00 0.1000000D+00
EXPONENTS  0.7610000D+00 0.7610000D+00 0.7610000D+00 0.7610000D+00 0.7610000D+00
EXPONENTS  0.7610000D+00 0.7610000D+00 0.7610000D+00 0.7610000D+00 0.7610000D+00
EXPONENTS  0.2680000D+00 0.2680000D+00 0.2680000D+00 0.2680000D+00 0.2680000D+00
EXPONENTS  0.2680000D+00 0.2680000D+00 0.2680000D+00 0.2680000D+00 0.2680000D+00
EXPONENTS  0.8236000D+04 0.1235000D+04 0.2808000D+03 0.7927000D+02 0.2559000D+02
EXPONENTS  0.8997000D+01 0.3319000D+01 0.3643000D+00 0.8236000D+04 0.1235000D+04
EXPONENTS  0.2808000D+03 0.7927000D+02 0.2559000D+02 0.8997000D+01 0.3319000D+01
EXPONENTS  0.3643000D+00 0.9059000D+00 0.1285000D+00 0.4402000D-01 0.1871000D+02
EXPONENTS  0.4133000D+01 0.1200000D+01 0.1871000D+02 0.4133000D+01 0.1200000D+01
EXPONENTS  0.1871000D+02 0.4133000D+01 0.1200000D+01 0.3827000D+00 0.3827000D+00
EXPONENTS  0.3827000D+00 0.1209000D+00 0.1209000D+00 0.1209000D+00 0.3569000D-01
EXPONENTS  0.3569000D-01 0.3569000D-01 0.1097000D+01 0.1097000D+01 0.1097000D+01
EXPONENTS  0.1097000D+01 0.1097000D+01 0.1097000D+01 0.3180000D+00 0.3180000D+00
EXPONENTS  0.3180000D+00 0.3180000D+00 0.3180000D+00 0.3180000D+00 0.1000000D+00
EXPONENTS  0.1000000D+00 0.1000000D+00 0.1000000D+00 0.1000000D+00 0.1000000D+00
EXPONENTS  0.7610000D+00 0.7610000D+00 0.7610000D+00 0.7610000D+00 0.7610000D+00
EXPONENTS  0.7610000D+00 0.7610000D+00 0.7610000D+00 0.7610000D+00 0.7610000D+00
EXPONENTS  0.2680000D+00 0.2680000D+00 0.2680000D+00 0.2680000D+00 0.2680000D+00
EXPONENTS  0.2680000D+00 0.2680000D+00 0.2680000D+00 0.2680000D+00 0.2680000D+00
EXPONENTS  0.8236000D+04 0.1235000D+04 0.2808000D+03 0.7927000D+02 0.2559000D+02
EXPONENTS  0.8997000D+01 0.3319000D+01 0.3643000D+00 0.8236000D+04 0.1235000D+04
EXPONENTS  0.2808000D+03 0.7927000D+02 0.2559000D+02 0.8997000D+01 0.3319000D+01
EXPONENTS  0.3643000D+00 0.9059000D+00 0.1285000D+00 0.4402000D-01 0.1871000D+02
EXPONENTS  0.4133000D+01 0.1200000D+01 0.1871000D+02 0.4133000D+01 0.1200000D+01
EXPONENTS  0.1871000D+02 0.4133000D+01 0.1200000D+01 0.3827000D+00 0.3827000D+00
EXPONENTS  0.3827000D+00 0.1209000D+00 0.1209000D+00 0.1209000D+00 0.3569000D-01
EXPONENTS  0.3569000D-01 0.3569000D-01 0.1097000D+01 0.1097000D+01 0.1097000D+01
EXPONENTS  0.1097000D+01 0.1097000D+01 0.1097000D+01 0.3180000D+00 0.3180000D+00
EXPONENTS  0.3180000D+00 0.3180000D+00 0.3180000D+00 0.3180000D+00 0.1000000D+00
EXPONENTS  0.1000000D+00 0.1000000D+00 0.1000000D+00 0.1000000D+00 0.1000000D+00
EXPONENTS  0.7610000D+00 0.7610000D+00 0.7610000D+00 0.7610000D+00 0.7610000D+00
EXPONENTS  0.7610000D+00 0.7610000D+00 0.7610000D+00 0.7610000D+00 0.7610000D+00
EXPONENTS  0.2680000D+00 0.2680000D+00 0.2680000D+00 0.2680000D+00 0.2680000D+00
EXPONENTS  0.2680000D+00 0.2680000D+00 0.2680000D+00 0.2680000D+00 0.2680000D+00
EXPONENTS  0.8236000D+04 0.1235000D+04 0.2808000D+03 0.7927000D+02 0.2559000D+02
EXPONENTS  0.8997000D+01 0.3319000D+01 0.3643000D+00 0.8236000D+04 0.1235000D+04
EXPONENTS  0.2808000D+03 0.7927000D+02 0.2559000D+02 0.8997000D+01 0.3319000D+01
EXPONENTS  0.3643000D+00 0.9059000D+00 0.1285000D+00 0.4402000D-01 0.1871000D+02
EXPONENTS  0.4133000D+01 0.1200000D+01 0.1871000D+02 0.4133000D+01 0.1200000D+01
EXPONENTS  0.1871000D+02 0.4133000D+01 0.1200000D+01 0.3827000D+00 0.3827000D+00
EXPONENTS  0.3827000D+00 0.1209000D+00 0.1209000D+00 0.1209000D+00 0.3569000D-01
EXPONENTS  0.3569000D-01 0.3569000D-01 0.1097000D+01 0.1097000D+01 0.1097000D+01
EXPONENTS  0.1097000D+01 0.1097000D+01 0.1097000D+01 0.3180000D+00 0.3180000D+00
EXPONENTS  0.3180000D+00 0.3180000D+00 0.3180000D+00 0.3180000D+00 0.1000000D+00
EXPONENTS  0.1000000D+00 0.1000000D+00 0.1000000D+00 0.1000000D+00 0.1000000D+00
EXPONENTS  0.7610000D+00 0.7610000D+00 0.7610000D+00 0.7610000D+00 0.7610000D+00
EXPONENTS  0.7610000D+00 0.7610000D+00 0.7610000D+00 0.7610000D+00 0.7610000D+00
EXPONENTS  0.2680000D+00 0.2680000D+00 0.2680000D+00 0.2680000D+00 0.2680000D+00
EXPONENTS  0.2680000D+00 0.2680000D+00 0.2680000D+00 0.2680000D+00 0.2680000D+00
EXPONENTS  0.3387000D+02 0.5095000D+01 0.1159000D+01 0.3258000D+00 0.1027000D+00
EXPONENTS  0.2526000D-01 0.1407000D+01 0.1407000D+01 0.1407000D+01 0.3880000D+00
EXPONENTS  0.3880000D+00 0.3880000D+00 0.1020000D+00 0.1020000D+00 0.1020000D+00
EXPONENTS  0.1057000D+01 0.1057000D+01 0.1057000D+01 0.1057000D+01 0.1057000D+01
EXPONENTS  0.1057000D+01 0.2470000D+00 0.2470000D+00 0.2470000D+00 0.2470000D+00
EXPONENTS  0.2470000D+00 0.2470000D+00 0.3387000D+02 0.5095000D+01 0.1159000D+01
EXPONENTS  0.3258000D+00 0.1027000D+00 0.2526000D-01 0.1407000D+01 0.1407000D+01
EXPONENTS  0.1407000D+01 0.3880000D+00 0.3880000D+00 0.3880000D+00 0.1020000D+00
EXPONENTS  0.1020000D+00 0.1020000D+00 0.1057000D+01 0.1057000D+01 0.1057000D+01
EXPONENTS  0.1057000D+01 0.1057000D+01 0.1057000D+01 0.2470000D+00 0.2470000D+00
EXPONENTS  0.2470000D+00 0.2470000D+00 0.2470000D+00 0.2470000D+00 0.3387000D+02
EXPONENTS  0.5095000D+01 0.1159000D+01 0.3258000D+00 0.1027000D+00 0.2526000D-01
EXPONENTS  0.1407000D+01 0.1407000D+01 0.1407000D+01 0.3880000D+00 0.3880000D+00
EXPONENTS  0.3880000D+00 0.1020000D+00 0.1020000D+00 0.1020000D+00 0.1057000D+01
EXPONENTS  0.1057000D+01 0.1057000D+01 0.1057000D+01 0.1057000D+01 0.1057000D+01
EXPONENTS  0.2470000D+00 0.2470000D+00 0.2470000D+00 0.2470000D+00 0.2470000D+00
EXPONENTS  0.2470000D+00 0.3387000D+02 0.5095000D+01 0.1159000D+01 0.3258000D+00
EXPONENTS  0.1027000D+00 0.2526000D-01 0.1407000D+01 0.1407000D+01 0.1407000D+01
EXPONENTS  0.3880000D+00 0.3880000D+00 0.3880000D+00 0.1020000D+00 0.1020000D+00
EXPONENTS  0.1020000D+00 0.1057000D+01 0.1057000D+01 0.1057000D+01 0.1057000D+01
EXPONENTS  0.1057000D+01 0.1057000D+01 0.2470000D+00 0.2470000D+00 0.2470000D+00
EXPONENTS  0.2470000D+00 0.2470000D+00 0.2470000D+00 0.3387000D+02 0.5095000D+01
EXPONENTS  0.1159000D+01 0.3258000D+00 0.1027000D+00 0.2526000D-01 0.1407000D+01
EXPONENTS  0.1407000D+01 0.1407000D+01 0.3880000D+00 0.3880000D+00 0.3880000D+00
EXPONENTS  0.1020000D+00 0.1020000D+00 0.1020000D+00 0.1057000D+01 0.1057000D+01
EXPONENTS  0.1057000D+01 0.1057000D+01 0.1057000D+01 0.1057000D+01 0.2470000D+00
EXPONENTS  0.2470000D+00 0.2470000D+00 0.2470000D+00 0.2470000D+00 0.2470000D+00
EXPONENTS  0.3387000D+02 0.5095000D+01 0.1159000D+01 0.3258000D+00 0.1027000D+00
EXPONENTS  0.2526000D-01 0.1407000D+01 0.1407000D+01 0.1407000D+01 0.3880000D+00
EXPONENTS  0.3880000D+00 0.3880000D+00 0.1020000D+00 0.1020000D+00 0.1020000D+00
EXPONENTS  0.1057000D+01 0.1057000D+01 0.1057000D+01 0.1057000D+01 0.1057000D+01
EXPONENTS  0.1057000D+01 0.2470000D+00 0.2470000D+00 0.2470000D+00 0.2470000D+00
EXPONENTS  0.2470000D+00 0.2470000D+00 0.3387000D+02 0.5095000D+01 0.1159000D+01
EXPONENTS  0.3258000D+00 0.1027000D+00 0.2526000D-01 0.1407000D+01 0.1407000D+01
EXPONENTS  0.1407000D+01 0.3880000D+00 0.3880000D+00 0.3880000D+00 0.1020000D+00
EXPONENTS  0.1020000D+00 0.1020000D+00 0.1057000D+01 0.1057000D+01 0.1057000D+01
EXPONENTS  0.1057000D+01 0.1057000D+01 0.1057000D+01 0.2470000D+00 0.2470000D+00
EXPONENTS  0.2470000D+00 0.2470000D+00 0.2470000D+00 0.2470000D+00 0.3387000D+02
EXPONENTS  0.5095000D+01 0.1159000D+01 0.3258000D+00 0.1027000D+00 0.2526000D-01
EXPONENTS  0.1407000D+01 0.1407000D+01 0.1407000D+01 0.3880000D+00 0.3880000D+00
EXPONENTS  0.3880000D+00 0.1020000D+00 0.1020000D+00 0.1020000D+00 0.1057000D+01
EXPONENTS  0.1057000D+01 0.1057000D+01 0.1057000D+01 0.1057000D+01 0.1057000D+01
EXPONENTS  0.2470000D+00 0.2470000D+00 0.2470000D+00 0.2470000D+00 0.2470000D+00
EXPONENTS  0.2470000D+00
MO    1     MO 0.0        OCC NO =    2.0000000  ORB. ENERGY =  -10.549344
  0.32980978D+00  0.61484042D+00  0.10391886D+01  0.15622409D+01  0.19193934D+01
  0.16212346D+01  0.61147004D+00 -0.30261994D-02 -0.30400619D-02 -0.56919551D-02
 -0.96910406D-02 -0.14990566D-01 -0.19742048D-01 -0.20513253D-01 -0.13035251D-01
  0.87359223D-02  0.35472786D-01 -0.22585347D-01 -0.32358527D-02 -0.32050182D-14
 -0.30049083D-14 -0.21396737D-14  0.68762569D-15  0.64469279D-15  0.45905967D-15
  0.57799645D-14  0.54190841D-14  0.38587107D-14 -0.48036759D-14  0.15025534D-13
 -0.85636837D-13 -0.14650033D-12 -0.20336464D-13  0.76766761D-12 -0.50134831D-13
 -0.76988716D-14  0.24551082D-13 -0.24305705D-02 -0.24305705D-02  0.48611410D-02
  0.39826529D-14  0.10870503D-13  0.63131698D-14  0.17787845D-02  0.17787845D-02
 -0.35575690D-02  0.12363646D-13 -0.18446944D-13 -0.11772335D-13  0.27013280D-03
  0.27013280D-03 -0.54026559D-03  0.79894739D-13  0.18307566D-12 -0.51045375D-13
  0.17231058D-14 -0.89352523D-15  0.30042101D-14 -0.37700647D-14  0.28903747D-15
 -0.47672981D-03 -0.13992525D-14  0.23915382D-14  0.47672981D-03 -0.52810938D-13
  0.39426111D-14  0.21287034D-14  0.97664696D-14  0.77373192D-15 -0.49591144D-15
  0.13549633D-02 -0.12601565D-13 -0.58901986D-14 -0.13549633D-02 -0.24587799D-13
  0.81150444D-02  0.15128288D-01  0.25569472D-01  0.38439291D-01  0.47227111D-01
  0.39890845D-01  0.15045359D-01 -0.74460321D-04 -0.30479685D-03 -0.57067587D-03
 -0.97162449D-03 -0.15029553D-02 -0.19793393D-02 -0.20566603D-02 -0.13069153D-02
  0.87586426D-03  0.15553236D-02  0.52670334D-02  0.59103157D-03  0.13502195D-13
  0.12659166D-13  0.90140805D-14 -0.49849885D-03 -0.46737435D-03 -0.33279838D-03
 -0.24715723D-03 -0.23172561D-03 -0.16500244D-03 -0.65159331D-13 -0.12970700D-02
 -0.41479603D-02 -0.23867765D-12 -0.84208607D-03 -0.11473752D-02  0.18272885D-13
 -0.23536145D-04 -0.49705938D-04 -0.73553527D-03 -0.18431464D-03  0.91984991D-03
 -0.12763609D-14  0.21242035D-14  0.26069250D-02 -0.61614991D-04  0.23386562D-03
 -0.17225063D-03 -0.10139792D-12 -0.42698888D-13 -0.70452732D-03 -0.52015374D-05
 -0.25467752D-04  0.30669289D-04  0.26280677D-13  0.17174042D-14  0.32747294D-04
 -0.92310637D-14 -0.37969135D-05  0.61147776D-03  0.24567066D-13 -0.77106571D-03
 -0.10167387D-02  0.31261250D-14  0.78245645D-03 -0.81769457D-03 -0.61903935D-14
 -0.97870056D-14 -0.21140111D-03  0.67566658D-04  0.28340543D-14  0.24810174D-03
 -0.45667665D-03  0.26526962D-13  0.38610159D-03  0.25397667D-03  0.19337356D-13
  0.81150444D-02  0.15128288D-01  0.25569472D-01  0.38439291D-01  0.47227111D-01
  0.39890845D-01  0.15045359D-01 -0.74460321D-04 -0.30479685D-03 -0.57067587D-03
 -0.97162449D-03 -0.15029553D-02 -0.19793393D-02 -0.20566603D-02 -0.13069153D-02
  0.87586426D-03  0.15553236D-02  0.52670334D-02  0.59103157D-03 -0.20693691D-13
 -0.19401651D-13 -0.13815131D-13  0.49849885D-03  0.46737435D-03  0.33279838D-03
 -0.24715723D-03 -0.23172561D-03 -0.16500244D-03  0.98646374D-13  0.12970700D-02
 -0.41479603D-02  0.33854688D-12  0.84208607D-03 -0.11473752D-02 -0.76735286D-14
  0.23536145D-04 -0.49705938D-04 -0.73553527D-03 -0.18431464D-03  0.91984991D-03
 -0.15507570D-14  0.19641424D-13 -0.26069250D-02 -0.61614991D-04  0.23386562D-03
 -0.17225063D-03 -0.10279169D-12  0.24969604D-13  0.70452732D-03 -0.52015374D-05
 -0.25467752D-04  0.30669289D-04 -0.67562027D-13  0.56793871D-13 -0.32747294D-04
  0.71345617D-14  0.37969135D-05  0.61147776D-03 -0.12967291D-13  0.77106571D-03
 -0.10167387D-02 -0.84363939D-14 -0.78245645D-03 -0.81769457D-03 -0.22621317D-13
  0.75670956D-14  0.21140111D-03  0.67566658D-04 -0.54920099D-14 -0.24810174D-03
 -0.45667665D-03 -0.17209277D-13 -0.38610159D-03  0.25397667D-03  0.53205282D-14
  0.81150444D-02  0.15128288D-01  0.25569472D-01  0.38439291D-01  0.47227111D-01
  0.39890845D-01  0.15045359D-01 -0.74460321D-04 -0.30479685D-03 -0.57067587D-03
 -0.97162449D-03 -0.15029553D-02 -0.19793393D-02 -0.20566603D-02 -0.13069153D-02
  0.87586426D-03  0.15553236D-02  0.52670334D-02  0.59103158D-03 -0.49849885D-03
 -0.46737435D-03 -0.33279838D-03 -0.32039864D-13 -0.30039409D-13 -0.21389849D-13
  0.24715723D-03  0.23172561D-03  0.16500244D-03 -0.12970700D-02  0.14817013D-12
  0.41479603D-02 -0.84208607D-03  0.40140565D-12  0.11473752D-02 -0.23536146D-04
 -0.19084339D-13  0.49705938D-04 -0.18431464D-03 -0.73553527D-03  0.91984991D-03
  0.12451458D-13 -0.26069250D-02 -0.26850139D-14  0.23386562D-03 -0.61614991D-04
 -0.17225063D-03  0.14422297D-12  0.70452732D-03 -0.70116590D-13 -0.25467752D-04
 -0.52015374D-05  0.30669289D-04  0.14899169D-12 -0.32747294D-04 -0.15318414D-12
 -0.37969135D-05  0.10714955D-13 -0.61147776D-03 -0.77106571D-03 -0.22436789D-13
  0.81769457D-03  0.78245645D-03 -0.97080768D-14  0.10167387D-02 -0.36038061D-13
 -0.21140111D-03  0.14501363D-13 -0.67566658D-04  0.24810174D-03 -0.12265731D-13
 -0.25397667D-03  0.38610159D-03 -0.31238357D-13  0.45667665D-03  0.22980734D-13
  0.81150444D-02  0.15128288D-01  0.25569472D-01  0.38439291D-01  0.47227111D-01
  0.39890845D-01  0.15045359D-01 -0.74460321D-04 -0.30479685D-03 -0.57067587D-03
 -0.97162449D-03 -0.15029553D-02 -0.19793393D-02 -0.20566603D-02 -0.13069153D-02
  0.87586426D-03  0.15553236D-02  0.52670334D-02  0.59103157D-03  0.49849885D-03
  0.46737435D-03  0.33279838D-03  0.24916939D-13  0.23361214D-13  0.16634576D-13
  0.24715723D-03  0.23172561D-03  0.16500244D-03  0.12970700D-02 -0.11551150D-12
  0.41479603D-02  0.84208607D-03 -0.38423886D-12  0.11473752D-02  0.23536145D-04
  0.23971159D-13  0.49705938D-04 -0.18431464D-03 -0.73553527D-03  0.91984991D-03
  0.87580224D-14  0.26069250D-02  0.21068644D-14  0.23386562D-03 -0.61614991D-04
 -0.17225063D-03  0.13922590D-12 -0.70452732D-03  0.59852789D-13 -0.25467752D-04
 -0.52015375D-05  0.30669289D-04  0.11853988D-12  0.32747294D-04  0.12651631D-12
  0.37969135D-05 -0.91607227D-14 -0.61147776D-03  0.77106571D-03  0.26293693D-13
  0.81769457D-03 -0.78245645D-03  0.11884752D-14  0.10167387D-02 -0.23039868D-13
  0.21140111D-03 -0.12524830D-13 -0.67566658D-04 -0.24810174D-03  0.74566435D-14
 -0.25397667D-03 -0.38610159D-03  0.30117846D-13  0.45667665D-03  0.18175908D-13
  0.44892334D-04  0.80965174D-04  0.11938310D-03  0.47608585D-03  0.68337366D-04
  0.15502036D-04  0.37418195D-03 -0.17742539D-03 -0.64738196D-04  0.62257826D-03
 -0.40551476D-03  0.59406508D-03  0.55654284D-04  0.20445032D-04  0.10092296D-03
  0.46045065D-03  0.76951113D-04 -0.53740176D-03 -0.42339641D-03  0.48005915D-03
 -0.56394564D-03  0.67158101D-04  0.70640430D-04 -0.13779853D-03 -0.19227268D-05
 -0.12790286D-03 -0.15068603D-03  0.44892334D-04  0.80965174D-04  0.11938310D-03
  0.47608585D-03  0.68337366D-04  0.15502036D-04 -0.37418195D-03 -0.17742539D-03
 -0.64738196D-04 -0.62257826D-03 -0.40551476D-03  0.59406508D-03 -0.55654284D-04
  0.20445032D-04  0.10092296D-03  0.46045065D-03  0.76951113D-04 -0.53740176D-03
  0.42339641D-03 -0.48005915D-03 -0.56394564D-03  0.67158101D-04  0.70640430D-04
 -0.13779853D-03  0.19227268D-05  0.12790286D-03 -0.15068603D-03  0.44892334D-04
  0.80965174D-04  0.11938310D-03  0.47608585D-03  0.68337366D-04  0.15502036D-04
  0.37418195D-03  0.17742539D-03 -0.64738196D-04  0.62257826D-03  0.40551476D-03
  0.59406508D-03  0.55654284D-04 -0.20445032D-04  0.10092296D-03  0.46045065D-03
  0.76951113D-04 -0.53740176D-03  0.42339641D-03  0.48005915D-03  0.56394564D-03
  0.67158101D-04  0.70640430D-04 -0.13779853D-03  0.19227267D-05 -0.12790286D-03
  0.15068603D-03  0.44892334D-04  0.80965174D-04  0.11938310D-03  0.47608585D-03
  0.68337365D-04  0.15502036D-04 -0.37418195D-03  0.17742539D-03 -0.64738196D-04
 -0.62257826D-03  0.40551476D-03  0.59406508D-03 -0.55654283D-04 -0.20445032D-04
  0.10092296D-03  0.46045065D-03  0.76951113D-04 -0.53740176D-03 -0.42339641D-03
 -0.48005915D-03  0.56394564D-03  0.67158101D-04  0.70640430D-04 -0.13779853D-03
 -0.19227268D-05  0.12790286D-03  0.15068603D-03  0.44892334D-04  0.80965174D-04
  0.11938310D-03  0.47608585D-03  0.68337367D-04  0.15502036D-04 -0.17742539D-03
  0.37418195D-03  0.64738196D-04 -0.40551476D-03  0.62257826D-03 -0.59406508D-03
  0.20445032D-04  0.55654284D-04 -0.10092296D-03  0.76951113D-04  0.46045065D-03
 -0.53740176D-03 -0.42339641D-03  0.56394564D-03 -0.48005915D-03  0.70640430D-04
  0.67158101D-04 -0.13779853D-03 -0.19227268D-05  0.15068603D-03  0.12790286D-03
  0.44892334D-04  0.80965174D-04  0.11938310D-03  0.47608585D-03  0.68337364D-04
  0.15502036D-04 -0.17742539D-03 -0.37418195D-03  0.64738196D-04 -0.40551476D-03
 -0.62257826D-03 -0.59406508D-03  0.20445032D-04 -0.55654283D-04 -0.10092296D-03
  0.76951113D-04  0.46045065D-03 -0.53740176D-03  0.42339641D-03  0.56394564D-03
  0.48005915D-03  0.70640430D-04  0.67158101D-04 -0.13779853D-03  0.19227268D-05
  0.15068603D-03 -0.12790286D-03  0.44892334D-04  0.80965174D-04  0.11938310D-03
  0.47608585D-03  0.68337365D-04  0.15502036D-04  0.17742539D-03  0.37418195D-03
  0.64738196D-04  0.40551476D-03  0.62257826D-03 -0.59406508D-03 -0.20445032D-04
  0.55654283D-04 -0.10092296D-03  0.76951113D-04  0.46045065D-03 -0.53740176D-03
  0.42339641D-03 -0.56394564D-03 -0.48005915D-03  0.70640430D-04  0.67158101D-04
 -0.13779853D-03  0.19227267D-05 -0.15068603D-03  0.12790286D-03  0.44892334D-04
  0.80965174D-04  0.11938310D-03  0.47608585D-03  0.68337367D-04  0.15502036D-04
  0.17742539D-03 -0.37418195D-03  0.64738196D-04  0.40551476D-03 -0.62257826D-03
 -0.59406508D-03 -0.20445032D-04 -0.55654284D-04 -0.10092296D-03  0.76951113D-04
  0.46045065D-03 -0.53740176D-03 -0.42339641D-03 -0.56394564D-03  0.48005915D-03
  0.70640430D-04  0.67158101D-04 -0.13779853D-03 -0.19227267D-05 -0.15068603D-03
 -0.12790286D-03
MO    2     MO 0.0        OCC NO =    2.0000000  ORB. ENERGY =  -10.539176
 -0.38899743D-11 -0.72517966D-11 -0.12256814D-10 -0.18426006D-10 -0.22638477D-10
 -0.19121813D-10 -0.72120443D-11  0.35692810D-13 -0.74331012D-13 -0.13917111D-12
 -0.23695072D-12 -0.36652673D-12 -0.48270281D-12 -0.50155914D-12 -0.31871832D-12
  0.21359760D-12 -0.13764799D-13  0.31036156D-11  0.54642788D-12 -0.99613416D-14
 -0.93393910D-14 -0.66502027D-14  0.47032249D-13  0.44095723D-13  0.31398781D-13
  0.72484378D-03  0.67958712D-03  0.48390651D-03  0.74332466D-12 -0.67092441D-12
 -0.11947930D-01  0.15489581D-11 -0.15744218D-11  0.25868491D-01 -0.37588464D-12
  0.34917667D-12  0.19968783D-03 -0.33497129D-03  0.33497129D-03  0.17547367D-12
 -0.55423762D-13 -0.12476843D-12 -0.81659230D-13  0.10353109D-02 -0.10353109D-02
  0.22682437D-12  0.71964337D-13 -0.13328786D-11 -0.12163686D-11 -0.51208119D-03
  0.51208119D-03 -0.98070413D-13 -0.37861526D-12 -0.46381102D-12 -0.32101499D-12
 -0.43515425D-13  0.39836740D-13 -0.75163676D-03 -0.18634341D-12  0.19244884D-12
  0.11274551D-02  0.31688968D-12 -0.31195906D-12  0.11274551D-02  0.12512538D-12
  0.13007203D-12 -0.10203799D-12  0.75281221D-03  0.76528278D-13 -0.71273368D-13
 -0.11292183D-02 -0.46674436D-12  0.37738734D-12 -0.11292183D-02  0.35307595D-13
 -0.16546596D+00 -0.30846616D+00 -0.52136216D+00 -0.78377810D+00 -0.96296195D+00
 -0.81337531D+00 -0.30677524D+00  0.15182478D-02  0.18105755D-02  0.33899685D-02
  0.57717115D-02  0.89279600D-02  0.11757809D-01  0.12217117D-01  0.77634294D-02
 -0.52028698D-02 -0.18443079D-01 -0.85614432D-02  0.36854567D-04 -0.20089683D-13
 -0.18835355D-13 -0.13411895D-13  0.11644331D-02  0.10917301D-02  0.77737684D-03
  0.91933005D-03  0.86193036D-03  0.61374576D-03  0.14946190D-12  0.18926576D-02
 -0.88253177D-03  0.67296216D-12  0.32376967D-02  0.40359350D-02  0.21895455D-13
  0.22663945D-04  0.35981593D-05 -0.46097541D-03 -0.10339183D-02  0.14948937D-02
  0.83798678D-13 -0.24985653D-13 -0.21874369D-02 -0.52136766D-03  0.31453807D-04
  0.48991385D-03  0.83778794D-13 -0.17184563D-12  0.14807540D-02  0.13852365D-03
 -0.50435850D-04 -0.88087797D-04 -0.28551356D-12 -0.12421457D-12 -0.21650550D-04
  0.14476667D-13  0.20620125D-03 -0.76549912D-04 -0.12408044D-12 -0.20294622D-03
 -0.18055715D-03  0.80650436D-13 -0.41565753D-03  0.41020689D-03  0.14422152D-12
 -0.63891934D-13 -0.30659389D-03 -0.23255978D-03  0.16204233D-12  0.11816408D-02
  0.75742485D-03  0.29633471D-13 -0.26185919D-03 -0.59745510D-04  0.24734470D-12
 -0.16546596D+00 -0.30846616D+00 -0.52136216D+00 -0.78377810D+00 -0.96296195D+00
 -0.81337531D+00 -0.30677524D+00  0.15182478D-02  0.18105755D-02  0.33899685D-02
  0.57717115D-02  0.89279600D-02  0.11757809D-01  0.12217117D-01  0.77634294D-02
 -0.52028698D-02 -0.18443079D-01 -0.85614432D-02  0.36854575D-04  0.10869491D-12
  0.10190839D-12  0.72564844D-13 -0.11644331D-02 -0.10917301D-02 -0.77737684D-03
  0.91933005D-03  0.86193036D-03  0.61374576D-03 -0.39651404D-12 -0.18926576D-02
 -0.88253177D-03 -0.60934864D-12 -0.32376967D-02  0.40359351D-02  0.55018683D-13
 -0.22663945D-04  0.35981589D-05 -0.46097541D-03 -0.10339183D-02  0.14948937D-02
 -0.12947356D-12 -0.61746003D-13  0.21874369D-02 -0.52136766D-03  0.31453807D-04
  0.48991385D-03  0.63210390D-12 -0.42116379D-12 -0.14807540D-02  0.13852365D-03
 -0.50435851D-04 -0.88087798D-04  0.20635754D-13 -0.18348391D-13  0.21650551D-04
 -0.35206462D-13 -0.20620125D-03 -0.76549912D-04 -0.10727553D-13  0.20294622D-03
 -0.18055716D-03  0.11634694D-12  0.41565753D-03  0.41020689D-03 -0.41338813D-13
 -0.11257849D-12  0.30659389D-03 -0.23255978D-03  0.17407466D-12 -0.11816408D-02
  0.75742485D-03  0.16366081D-12  0.26185919D-03 -0.59745510D-04 -0.26680737D-12
  0.16546596D+00  0.30846616D+00  0.52136216D+00  0.78377810D+00  0.96296195D+00
  0.81337531D+00  0.30677524D+00 -0.15182478D-02 -0.18105755D-02 -0.33899685D-02
 -0.57717115D-02 -0.89279600D-02 -0.11757809D-01 -0.12217117D-01 -0.77634294D-02
  0.52028698D-02  0.18443079D-01  0.85614432D-02 -0.36854567D-04 -0.11644331D-02
 -0.10917301D-02 -0.77737684D-03  0.23210999D-14  0.21761787D-14  0.15495688D-14
  0.91933005D-03  0.86193036D-03  0.61374576D-03 -0.18926576D-02 -0.11649112D-12
 -0.88253177D-03 -0.32376967D-02 -0.10857153D-11  0.40359350D-02 -0.22663945D-04
  0.19710435D-13  0.35981593D-05  0.10339183D-02  0.46097541D-03 -0.14948938D-02
 -0.15195039D-12 -0.21874369D-02 -0.15838285D-13 -0.31453807D-04  0.52136766D-03
 -0.48991385D-03  0.61236135D-13  0.14807540D-02 -0.17173876D-12  0.50435850D-04
 -0.13852365D-03  0.88087797D-04 -0.42853223D-12 -0.21650550D-04  0.44086154D-12
 -0.20620125D-03 -0.10205153D-13 -0.76549911D-04  0.20294622D-03  0.10102613D-12
  0.41020689D-03  0.41565753D-03 -0.70410671D-13 -0.18055716D-03  0.11061970D-12