 Molden2AIM, Version 4.0.0 (06/02/2016)           Time: Thu Jun 28 05:20:51 2018
GAUSSIAN             20 MOL ORBITALS    558 PRIMITIVES       10 NUCLEI
  C    1    (CENTRE  1)  -1.24158597  0.00000000  0.00000000  CHARGE =  6.0
  C    2    (CENTRE  2)   1.24158597  0.00000000  0.00000000  CHARGE =  6.0
  C    3    (CENTRE  3)  -3.70483263  1.24592478  0.00000000  CHARGE =  6.0
  C    4    (CENTRE  4)   3.70483263  1.24592478  0.00000000  CHARGE =  6.0
  C    5    (CENTRE  5)  -3.70483263 -1.24592478  0.00000000  CHARGE =  6.0
  C    6    (CENTRE  6)   3.70483263 -1.24592478  0.00000000  CHARGE =  6.0
  H    7    (CENTRE  7)  -4.79646694  2.98222593  0.00000000  CHARGE =  1.0
  H    8    (CENTRE  8)   4.79646694  2.98222593  0.00000000  CHARGE =  1.0
  H    9    (CENTRE  9)  -4.79646883 -2.98222593  0.00000000  CHARGE =  1.0
  H   10    (CENTRE 10)   4.79646883 -2.98222593  0.00000000  CHARGE =  1.0
CENTRE ASSIGNMENTS    1  1  1  1  1  1  1  1  1  1  1  1  1  1  1  1  1  1  1  1
CENTRE ASSIGNMENTS    1  1  1  1  1  1  1  1  1  1  1  1  1  1  1  1  1  1  1  1
CENTRE ASSIGNMENTS    1  1  1  1  1  1  1  1  1  1  1  1  1  1  1  1  1  1  1  1
CENTRE ASSIGNMENTS    1  1  1  1  1  1  1  1  1  1  1  1  1  1  1  2  2  2  2  2
CENTRE ASSIGNMENTS    2  2  2  2  2  2  2  2  2  2  2  2  2  2  2  2  2  2  2  2
CENTRE ASSIGNMENTS    2  2  2  2  2  2  2  2  2  2  2  2  2  2  2  2  2  2  2  2
CENTRE ASSIGNMENTS    2  2  2  2  2  2  2  2  2  2  2  2  2  2  2  2  2  2  2  2
CENTRE ASSIGNMENTS    2  2  2  2  2  2  2  2  2  2  3  3  3  3  3  3  3  3  3  3
CENTRE ASSIGNMENTS    3  3  3  3  3  3  3  3  3  3  3  3  3  3  3  3  3  3  3  3
CENTRE ASSIGNMENTS    3  3  3  3  3  3  3  3  3  3  3  3  3  3  3  3  3  3  3  3
CENTRE ASSIGNMENTS    3  3  3  3  3  3  3  3  3  3  3  3  3  3  3  3  3  3  3  3
CENTRE ASSIGNMENTS    3  3  3  3  3  4  4  4  4  4  4  4  4  4  4  4  4  4  4  4
CENTRE ASSIGNMENTS    4  4  4  4  4  4  4  4  4  4  4  4  4  4  4  4  4  4  4  4
CENTRE ASSIGNMENTS    4  4  4  4  4  4  4  4  4  4  4  4  4  4  4  4  4  4  4  4
CENTRE ASSIGNMENTS    4  4  4  4  4  4  4  4  4  4  4  4  4  4  4  4  4  4  4  4
CENTRE ASSIGNMENTS    5  5  5  5  5  5  5  5  5  5  5  5  5  5  5  5  5  5  5  5
CENTRE ASSIGNMENTS    5  5  5  5  5  5  5  5  5  5  5  5  5  5  5  5  5  5  5  5
CENTRE ASSIGNMENTS    5  5  5  5  5  5  5  5  5  5  5  5  5  5  5  5  5  5  5  5
CENTRE ASSIGNMENTS    5  5  5  5  5  5  5  5  5  5  5  5  5  5  5  6  6  6  6  6
CENTRE ASSIGNMENTS    6  6  6  6  6  6  6  6  6  6  6  6  6  6  6  6  6  6  6  6
CENTRE ASSIGNMENTS    6  6  6  6  6  6  6  6  6  6  6  6  6  6  6  6  6  6  6  6
CENTRE ASSIGNMENTS    6  6  6  6  6  6  6  6  6  6  6  6  6  6  6  6  6  6  6  6
CENTRE ASSIGNMENTS    6  6  6  6  6  6  6  6  6  6  7  7  7  7  7  7  7  7  7  7
CENTRE ASSIGNMENTS    7  7  7  7  7  7  7  7  7  7  7  7  7  7  7  7  7  8  8  8
CENTRE ASSIGNMENTS    8  8  8  8  8  8  8  8  8  8  8  8  8  8  8  8  8  8  8  8
CENTRE ASSIGNMENTS    8  8  8  8  9  9  9  9  9  9  9  9  9  9  9  9  9  9  9  9
CENTRE ASSIGNMENTS    9  9  9  9  9  9  9  9  9  9  9 10 10 10 10 10 10 10 10 10
CENTRE ASSIGNMENTS   10 10 10 10 10 10 10 10 10 10 10 10 10 10 10 10 10 10
TYPE ASSIGNMENTS      1  1  1  1  1  1  1  1  1  1  1  1  1  1  1  1  1  1  1  2
TYPE ASSIGNMENTS      2  2  3  3  3  4  4  4  2  3  4  2  3  4  2  3  4  5  6  7
TYPE ASSIGNMENTS      8  9 10  5  6  7  8  9 10  5  6  7  8  9 10 11 12 13 17 14
TYPE ASSIGNMENTS     15 18 19 16 20 11 12 13 17 14 15 18 19 16 20  1  1  1  1  1
TYPE ASSIGNMENTS      1  1  1  1  1  1  1  1  1  1  1  1  1  1  2  2  2  3  3  3
TYPE ASSIGNMENTS      4  4  4  2  3  4  2  3  4  2  3  4  5  6  7  8  9 10  5  6
TYPE ASSIGNMENTS      7  8  9 10  5  6  7  8  9 10 11 12 13 17 14 15 18 19 16 20
TYPE ASSIGNMENTS     11 12 13 17 14 15 18 19 16 20  1  1  1  1  1  1  1  1  1  1
TYPE ASSIGNMENTS      1  1  1  1  1  1  1  1  1  2  2  2  3  3  3  4  4  4  2  3
TYPE ASSIGNMENTS      4  2  3  4  2  3  4  5  6  7  8  9 10  5  6  7  8  9 10  5
TYPE ASSIGNMENTS      6  7  8  9 10 11 12 13 17 14 15 18 19 16 20 11 12 13 17 14
TYPE ASSIGNMENTS     15 18 19 16 20  1  1  1  1  1  1  1  1  1  1  1  1  1  1  1
TYPE ASSIGNMENTS      1  1  1  1  2  2  2  3  3  3  4  4  4  2  3  4  2  3  4  2
TYPE ASSIGNMENTS      3  4  5  6  7  8  9 10  5  6  7  8  9 10  5  6  7  8  9 10
TYPE ASSIGNMENTS     11 12 13 17 14 15 18 19 16 20 11 12 13 17 14 15 18 19 16 20
TYPE ASSIGNMENTS      1  1  1  1  1  1  1  1  1  1  1  1  1  1  1  1  1  1  1  2
TYPE ASSIGNMENTS      2  2  3  3  3  4  4  4  2  3  4  2  3  4  2  3  4  5  6  7
TYPE ASSIGNMENTS      8  9 10  5  6  7  8  9 10  5  6  7  8  9 10 11 12 13 17 14
TYPE ASSIGNMENTS     15 18 19 16 20 11 12 13 17 14 15 18 19 16 20  1  1  1  1  1
TYPE ASSIGNMENTS      1  1  1  1  1  1  1  1  1  1  1  1  1  1  2  2  2  3  3  3
TYPE ASSIGNMENTS      4  4  4  2  3  4  2  3  4  2  3  4  5  6  7  8  9 10  5  6
TYPE ASSIGNMENTS      7  8  9 10  5  6  7  8  9 10 11 12 13 17 14 15 18 19 16 20
TYPE ASSIGNMENTS     11 12 13 17 14 15 18 19 16 20  1  1  1  1  1  1  2  3  4  2
TYPE ASSIGNMENTS      3  4  2  3  4  5  6  7  8  9 10  5  6  7  8  9 10  1  1  1
TYPE ASSIGNMENTS      1  1  1  2  3  4  2  3  4  2  3  4  5  6  7  8  9 10  5  6
TYPE ASSIGNMENTS      7  8  9 10  1  1  1  1  1  1  2  3  4  2  3  4  2  3  4  5
TYPE ASSIGNMENTS      6  7  8  9 10  5  6  7  8  9 10  1  1  1  1  1  1  2  3  4
TYPE ASSIGNMENTS      2  3  4  2  3  4  5  6  7  8  9 10  5  6  7  8  9 10
EXPONENTS  0.8236000D+04 0.1235000D+04 0.2808000D+03 0.7927000D+02 0.2559000D+02
EXPONENTS  0.8997000D+01 0.3319000D+01 0.3643000D+00 0.8236000D+04 0.1235000D+04
EXPONENTS  0.2808000D+03 0.7927000D+02 0.2559000D+02 0.8997000D+01 0.3319000D+01
EXPONENTS  0.3643000D+00 0.9059000D+00 0.1285000D+00 0.4402000D-01 0.1871000D+02
EXPONENTS  0.4133000D+01 0.1200000D+01 0.1871000D+02 0.4133000D+01 0.1200000D+01
EXPONENTS  0.1871000D+02 0.4133000D+01 0.1200000D+01 0.3827000D+00 0.3827000D+00
EXPONENTS  0.3827000D+00 0.1209000D+00 0.1209000D+00 0.1209000D+00 0.3569000D-01
EXPONENTS  0.3569000D-01 0.3569000D-01 0.1097000D+01 0.1097000D+01 0.1097000D+01
EXPONENTS  0.1097000D+01 0.1097000D+01 0.1097000D+01 0.3180000D+00 0.3180000D+00
EXPONENTS  0.3180000D+00 0.3180000D+00 0.3180000D+00 0.3180000D+00 0.1000000D+00
EXPONENTS  0.1000000D+00 0.1000000D+00 0.1000000D+00 0.1000000D+00 0.1000000D+00
EXPONENTS  0.7610000D+00 0.7610000D+00 0.7610000D+00 0.7610000D+00 0.7610000D+00
EXPONENTS  0.7610000D+00 0.7610000D+00 0.7610000D+00 0.7610000D+00 0.7610000D+00
EXPONENTS  0.2680000D+00 0.2680000D+00 0.2680000D+00 0.2680000D+00 0.2680000D+00
EXPONENTS  0.2680000D+00 0.2680000D+00 0.2680000D+00 0.2680000D+00 0.2680000D+00
EXPONENTS  0.8236000D+04 0.1235000D+04 0.2808000D+03 0.7927000D+02 0.2559000D+02
EXPONENTS  0.8997000D+01 0.3319000D+01 0.3643000D+00 0.8236000D+04 0.1235000D+04
EXPONENTS  0.2808000D+03 0.7927000D+02 0.2559000D+02 0.8997000D+01 0.3319000D+01
EXPONENTS  0.3643000D+00 0.9059000D+00 0.1285000D+00 0.4402000D-01 0.1871000D+02
EXPONENTS  0.4133000D+01 0.1200000D+01 0.1871000D+02 0.4133000D+01 0.1200000D+01
EXPONENTS  0.1871000D+02 0.4133000D+01 0.1200000D+01 0.3827000D+00 0.3827000D+00
EXPONENTS  0.3827000D+00 0.1209000D+00 0.1209000D+00 0.1209000D+00 0.3569000D-01
EXPONENTS  0.3569000D-01 0.3569000D-01 0.1097000D+01 0.1097000D+01 0.1097000D+01
EXPONENTS  0.1097000D+01 0.1097000D+01 0.1097000D+01 0.3180000D+00 0.3180000D+00
EXPONENTS  0.3180000D+00 0.3180000D+00 0.3180000D+00 0.3180000D+00 0.1000000D+00
EXPONENTS  0.1000000D+00 0.1000000D+00 0.1000000D+00 0.1000000D+00 0.1000000D+00
EXPONENTS  0.7610000D+00 0.7610000D+00 0.7610000D+00 0.7610000D+00 0.7610000D+00
EXPONENTS  0.7610000D+00 0.7610000D+00 0.7610000D+00 0.7610000D+00 0.7610000D+00
EXPONENTS  0.2680000D+00 0.2680000D+00 0.2680000D+00 0.2680000D+00 0.2680000D+00
EXPONENTS  0.2680000D+00 0.2680000D+00 0.2680000D+00 0.2680000D+00 0.2680000D+00
EXPONENTS  0.8236000D+04 0.1235000D+04 0.2808000D+03 0.7927000D+02 0.2559000D+02
EXPONENTS  0.8997000D+01 0.3319000D+01 0.3643000D+00 0.8236000D+04 0.1235000D+04
EXPONENTS  0.2808000D+03 0.7927000D+02 0.2559000D+02 0.8997000D+01 0.3319000D+01
EXPONENTS  0.3643000D+00 0.9059000D+00 0.1285000D+00 0.4402000D-01 0.1871000D+02
EXPONENTS  0.4133000D+01 0.1200000D+01 0.1871000D+02 0.4133000D+01 0.1200000D+01
EXPONENTS  0.1871000D+02 0.4133000D+01 0.1200000D+01 0.3827000D+00 0.3827000D+00
EXPONENTS  0.3827000D+00 0.1209000D+00 0.1209000D+00 0.1209000D+00 0.3569000D-01
EXPONENTS  0.3569000D-01 0.3569000D-01 0.1097000D+01 0.1097000D+01 0.1097000D+01
EXPONENTS  0.1097000D+01 0.1097000D+01 0.1097000D+01 0.3180000D+00 0.3180000D+00
EXPONENTS  0.3180000D+00 0.3180000D+00 0.3180000D+00 0.3180000D+00 0.1000000D+00
EXPONENTS  0.1000000D+00 0.1000000D+00 0.1000000D+00 0.1000000D+00 0.1000000D+00
EXPONENTS  0.7610000D+00 0.7610000D+00 0.7610000D+00 0.7610000D+00 0.7610000D+00
EXPONENTS  0.7610000D+00 0.7610000D+00 0.7610000D+00 0.7610000D+00 0.7610000D+00
EXPONENTS  0.2680000D+00 0.2680000D+00 0.2680000D+00 0.2680000D+00 0.2680000D+00
EXPONENTS  0.2680000D+00 0.2680000D+00 0.2680000D+00 0.2680000D+00 0.2680000D+00
EXPONENTS  0.8236000D+04 0.1235000D+04 0.2808000D+03 0.7927000D+02 0.2559000D+02
EXPONENTS  0.8997000D+01 0.3319000D+01 0.3643000D+00 0.8236000D+04 0.1235000D+04
EXPONENTS  0.2808000D+03 0.7927000D+02 0.2559000D+02 0.8997000D+01 0.3319000D+01
EXPONENTS  0.3643000D+00 0.9059000D+00 0.1285000D+00 0.4402000D-01 0.1871000D+02
EXPONENTS  0.4133000D+01 0.1200000D+01 0.1871000D+02 0.4133000D+01 0.1200000D+01
EXPONENTS  0.1871000D+02 0.4133000D+01 0.1200000D+01 0.3827000D+00 0.3827000D+00
EXPONENTS  0.3827000D+00 0.1209000D+00 0.1209000D+00 0.1209000D+00 0.3569000D-01
EXPONENTS  0.3569000D-01 0.3569000D-01 0.1097000D+01 0.1097000D+01 0.1097000D+01
EXPONENTS  0.1097000D+01 0.1097000D+01 0.1097000D+01 0.3180000D+00 0.3180000D+00
EXPONENTS  0.3180000D+00 0.3180000D+00 0.3180000D+00 0.3180000D+00 0.1000000D+00
EXPONENTS  0.1000000D+00 0.1000000D+00 0.1000000D+00 0.1000000D+00 0.1000000D+00
EXPONENTS  0.7610000D+00 0.7610000D+00 0.7610000D+00 0.7610000D+00 0.7610000D+00
EXPONENTS  0.7610000D+00 0.7610000D+00 0.7610000D+00 0.7610000D+00 0.7610000D+00
EXPONENTS  0.2680000D+00 0.2680000D+00 0.2680000D+00 0.2680000D+00 0.2680000D+00
EXPONENTS  0.2680000D+00 0.2680000D+00 0.2680000D+00 0.2680000D+00 0.2680000D+00
EXPONENTS  0.8236000D+04 0.1235000D+04 0.2808000D+03 0.7927000D+02 0.2559000D+02
EXPONENTS  0.8997000D+01 0.3319000D+01 0.3643000D+00 0.8236000D+04 0.1235000D+04
EXPONENTS  0.2808000D+03 0.7927000D+02 0.2559000D+02 0.8997000D+01 0.3319000D+01
EXPONENTS  0.3643000D+00 0.9059000D+00 0.1285000D+00 0.4402000D-01 0.1871000D+02
EXPONENTS  0.4133000D+01 0.1200000D+01 0.1871000D+02 0.4133000D+01 0.1200000D+01
EXPONENTS  0.1871000D+02 0.4133000D+01 0.1200000D+01 0.3827000D+00 0.3827000D+00
EXPONENTS  0.3827000D+00 0.1209000D+00 0.1209000D+00 0.1209000D+00 0.3569000D-01
EXPONENTS  0.3569000D-01 0.3569000D-01 0.1097000D+01 0.1097000D+01 0.1097000D+01
EXPONENTS  0.1097000D+01 0.1097000D+01 0.1097000D+01 0.3180000D+00 0.3180000D+00
EXPONENTS  0.3180000D+00 0.3180000D+00 0.3180000D+00 0.3180000D+00 0.1000000D+00
EXPONENTS  0.1000000D+00 0.1000000D+00 0.1000000D+00 0.1000000D+00 0.1000000D+00
EXPONENTS  0.7610000D+00 0.7610000D+00 0.7610000D+00 0.7610000D+00 0.7610000D+00
EXPONENTS  0.7610000D+00 0.7610000D+00 0.7610000D+00 0.7610000D+00 0.7610000D+00
EXPONENTS  0.2680000D+00 0.2680000D+00 0.2680000D+00 0.2680000D+00 0.2680000D+00
EXPONENTS  0.2680000D+00 0.2680000D+00 0.2680000D+00 0.2680000D+00 0.2680000D+00
EXPONENTS  0.8236000D+04 0.1235000D+04 0.2808000D+03 0.7927000D+02 0.2559000D+02
EXPONENTS  0.8997000D+01 0.3319000D+01 0.3643000D+00 0.8236000D+04 0.1235000D+04
EXPONENTS  0.2808000D+03 0.7927000D+02 0.2559000D+02 0.8997000D+01 0.3319000D+01
EXPONENTS  0.3643000D+00 0.9059000D+00 0.1285000D+00 0.4402000D-01 0.1871000D+02
EXPONENTS  0.4133000D+01 0.1200000D+01 0.1871000D+02 0.4133000D+01 0.1200000D+01
EXPONENTS  0.1871000D+02 0.4133000D+01 0.1200000D+01 0.3827000D+00 0.3827000D+00
EXPONENTS  0.3827000D+00 0.1209000D+00 0.1209000D+00 0.1209000D+00 0.3569000D-01
EXPONENTS  0.3569000D-01 0.3569000D-01 0.1097000D+01 0.1097000D+01 0.1097000D+01
EXPONENTS  0.1097000D+01 0.1097000D+01 0.1097000D+01 0.3180000D+00 0.3180000D+00
EXPONENTS  0.3180000D+00 0.3180000D+00 0.3180000D+00 0.3180000D+00 0.1000000D+00
EXPONENTS  0.1000000D+00 0.1000000D+00 0.1000000D+00 0.1000000D+00 0.1000000D+00
EXPONENTS  0.7610000D+00 0.7610000D+00 0.7610000D+00 0.7610000D+00 0.7610000D+00
EXPONENTS  0.7610000D+00 0.7610000D+00 0.7610000D+00 0.7610000D+00 0.7610000D+00
EXPONENTS  0.2680000D+00 0.2680000D+00 0.2680000D+00 0.2680000D+00 0.2680000D+00
EXPONENTS  0.2680000D+00 0.2680000D+00 0.2680000D+00 0.2680000D+00 0.2680000D+00
EXPONENTS  0.3387000D+02 0.5095000D+01 0.1159000D+01 0.3258000D+00 0.1027000D+00
EXPONENTS  0.2526000D-01 0.1407000D+01 0.1407000D+01 0.1407000D+01 0.3880000D+00
EXPONENTS  0.3880000D+00 0.3880000D+00 0.1020000D+00 0.1020000D+00 0.1020000D+00
EXPONENTS  0.1057000D+01 0.1057000D+01 0.1057000D+01 0.1057000D+01 0.1057000D+01
EXPONENTS  0.1057000D+01 0.2470000D+00 0.2470000D+00 0.2470000D+00 0.2470000D+00
EXPONENTS  0.2470000D+00 0.2470000D+00 0.3387000D+02 0.5095000D+01 0.1159000D+01
EXPONENTS  0.3258000D+00 0.1027000D+00 0.2526000D-01 0.1407000D+01 0.1407000D+01
EXPONENTS  0.1407000D+01 0.3880000D+00 0.3880000D+00 0.3880000D+00 0.1020000D+00
EXPONENTS  0.1020000D+00 0.1020000D+00 0.1057000D+01 0.1057000D+01 0.1057000D+01
EXPONENTS  0.1057000D+01 0.1057000D+01 0.1057000D+01 0.2470000D+00 0.2470000D+00
EXPONENTS  0.2470000D+00 0.2470000D+00 0.2470000D+00 0.2470000D+00 0.3387000D+02
EXPONENTS  0.5095000D+01 0.1159000D+01 0.3258000D+00 0.1027000D+00 0.2526000D-01
EXPONENTS  0.1407000D+01 0.1407000D+01 0.1407000D+01 0.3880000D+00 0.3880000D+00
EXPONENTS  0.3880000D+00 0.1020000D+00 0.1020000D+00 0.1020000D+00 0.1057000D+01
EXPONENTS  0.1057000D+01 0.1057000D+01 0.1057000D+01 0.1057000D+01 0.1057000D+01
EXPONENTS  0.2470000D+00 0.2470000D+00 0.2470000D+00 0.2470000D+00 0.2470000D+00
EXPONENTS  0.2470000D+00 0.3387000D+02 0.5095000D+01 0.1159000D+01 0.3258000D+00
EXPONENTS  0.1027000D+00 0.2526000D-01 0.1407000D+01 0.1407000D+01 0.1407000D+01
EXPONENTS  0.3880000D+00 0.3880000D+00 0.3880000D+00 0.1020000D+00 0.1020000D+00
EXPONENTS  0.1020000D+00 0.1057000D+01 0.1057000D+01 0.1057000D+01 0.1057000D+01
EXPONENTS  0.1057000D+01 0.1057000D+01 0.2470000D+00 0.2470000D+00 0.2470000D+00
EXPONENTS  0.2470000D+00 0.2470000D+00 0.2470000D+00
MO    1     MO 0.0        OCC NO =    2.0000000  ORB. ENERGY =  -10.568214
 -0.43472951D-02 -0.81043464D-02 -0.13697773D-01 -0.20592240D-01 -0.25299946D-01
 -0.21369849D-01 -0.80599207D-02  0.39888997D-04  0.21344033D-03  0.39962765D-03
  0.68040026D-03  0.10524757D-02  0.13860735D-02  0.14402192D-02  0.91519464D-03
 -0.61334217D-03 -0.18188860D-02  0.62604374D-02  0.14925223D-02  0.29604331D-03
  0.27755942D-03  0.19763884D-03  0.13218799D-09  0.12393464D-09  0.88248846D-10
 -0.23075673D-15 -0.21634911D-15 -0.15405345D-15  0.46511162D-02 -0.60367280D-08
  0.41255542D-16 -0.69951156D-02  0.26846665D-07  0.36539734D-17  0.79127391D-03
 -0.32444761D-08  0.12261376D-18 -0.87661377D-03  0.85763839D-03  0.18975381D-04
  0.10124454D-08  0.15017201D-15 -0.68689939D-17  0.28227977D-02 -0.21761374D-02
 -0.64666025D-03  0.19492204D-07  0.61563348D-17 -0.11560649D-16  0.33618720D-03
 -0.25577726D-03 -0.80409941D-04  0.67817720D-08  0.20378342D-17  0.11408712D-17
  0.39634446D-03 -0.69736720D-09  0.14026913D-17 -0.71309868D-03  0.53507260D-09
 -0.40210176D-17 -0.47593469D-03  0.15570290D-08 -0.18705628D-18 -0.94961487D-19
 -0.57620770D-03 -0.58816473D-09 -0.26542601D-18  0.49561126D-03  0.35939011D-08
  0.63759154D-18  0.12330118D-02 -0.18294069D-08  0.15868649D-18 -0.48946076D-17
  0.43472951D-02  0.81043464D-02  0.13697773D-01  0.20592240D-01  0.25299946D-01
  0.21369849D-01  0.80599207D-02 -0.39888998D-04 -0.21344033D-03 -0.39962765D-03
 -0.68040026D-03 -0.10524757D-02 -0.13860735D-02 -0.14402192D-02 -0.91519464D-03
  0.61334217D-03  0.18188860D-02 -0.62604374D-02 -0.14925223D-02  0.29604331D-03
  0.27755942D-03  0.19763884D-03 -0.13218877D-09 -0.12393538D-09 -0.88249372D-10
  0.10744087D-17  0.10073264D-17  0.71727642D-18  0.46511162D-02  0.60367728D-08
  0.23919501D-18 -0.69951156D-02 -0.26846480D-07 -0.58463388D-17  0.79127391D-03
  0.32444842D-08 -0.41249551D-18  0.87661378D-03 -0.85763839D-03 -0.18975381D-04
  0.10124745D-08 -0.17523295D-16 -0.19863235D-18 -0.28227977D-02  0.21761374D-02
  0.64666025D-03  0.19492200D-07  0.10799403D-17 -0.34216350D-18 -0.33618720D-03
  0.25577726D-03  0.80409941D-04  0.67818474D-08  0.31216012D-17 -0.15204698D-17
  0.39634446D-03  0.69736281D-09 -0.17433136D-17 -0.71309868D-03 -0.53504427D-09
  0.75742790D-17 -0.47593470D-03 -0.15570442D-08 -0.23443383D-17  0.13451934D-17
 -0.57620770D-03  0.58816865D-09 -0.27374012D-18  0.49561126D-03 -0.35939217D-08
  0.81685594D-18  0.12330118D-02  0.18294157D-08  0.43644200D-20 -0.50355082D-17
 -0.16516214D+00 -0.30789979D+00 -0.52040488D+00 -0.78233900D+00 -0.96119385D+00
 -0.81188187D+00 -0.30621197D+00  0.15154601D-02  0.16373490D-02  0.30656340D-02
  0.52195042D-02  0.80737793D-02  0.10632883D-01  0.11048247D-01  0.70206649D-02
 -0.47050864D-02 -0.18607729D-01  0.33105830D-03  0.29456771D-02 -0.69812756D-03
 -0.65453897D-03 -0.46607074D-03  0.96499187D-03  0.90474122D-03  0.64422964D-03
  0.90776074D-17  0.85108340D-17  0.60602208D-17 -0.24105989D-03  0.25265013D-02
  0.69006954D-18 -0.25921587D-02  0.26023414D-02 -0.52515350D-17  0.13292824D-03
 -0.10407776D-03 -0.23437666D-18  0.94680041D-04 -0.18436795D-02  0.17489994D-02
  0.28483249D-02  0.13619638D-17  0.14699077D-18  0.39192310D-03  0.86768603D-03
 -0.12596091D-02 -0.13702873D-02 -0.27420378D-17 -0.65574239D-17 -0.18095572D-03
  0.34642602D-03 -0.16547030D-03 -0.66052326D-04 -0.99436560D-18  0.13778153D-17
  0.43159037D-04 -0.60215918D-03 -0.14155178D-17  0.17951839D-03  0.67991692D-03
 -0.20404129D-17 -0.30899551D-03  0.11265606D-02  0.62869662D-17  0.13008678D-16
  0.28136968D-03 -0.17886360D-03  0.58735044D-18 -0.11057289D-02  0.61970071D-03
 -0.14662632D-17  0.26161981D-03 -0.83109899D-04 -0.29578810D-18  0.12831456D-17
  0.16516214D+00  0.30789979D+00  0.52040488D+00  0.78233900D+00  0.96119385D+00
  0.81188187D+00  0.30621197D+00 -0.15154601D-02 -0.16373490D-02 -0.30656340D-02
 -0.52195042D-02 -0.80737793D-02 -0.10632883D-01 -0.11048247D-01 -0.70206649D-02
  0.47050864D-02  0.18607729D-01 -0.33105831D-03 -0.29456771D-02 -0.69812756D-03
 -0.65453897D-03 -0.46607074D-03 -0.96499187D-03 -0.90474122D-03 -0.64422965D-03
 -0.13896253D-16 -0.13028620D-16 -0.92771539D-17 -0.24105989D-03 -0.25265013D-02
  0.44464687D-17 -0.25921587D-02 -0.26023414D-02  0.61242330D-17  0.13292824D-03
  0.10407776D-03 -0.22400036D-19 -0.94680042D-04  0.18436795D-02 -0.17489994D-02
  0.28483249D-02  0.34332157D-17  0.15786104D-17 -0.39192310D-03 -0.86768603D-03
  0.12596091D-02 -0.13702873D-02 -0.33409983D-17 -0.31202638D-17  0.18095572D-03
 -0.34642602D-03  0.16547030D-03 -0.66052326D-04 -0.12824072D-17 -0.16897764D-17
  0.43159037D-04  0.60215918D-03 -0.73922442D-18  0.17951839D-03 -0.67991692D-03
 -0.12878465D-17 -0.30899551D-03 -0.11265606D-02  0.35055198D-17 -0.17734309D-17
  0.28136968D-03  0.17886361D-03 -0.43847118D-18 -0.11057289D-02 -0.61970072D-03
  0.11603981D-17  0.26161981D-03  0.83109899D-04  0.15501548D-18  0.19785112D-17
 -0.16516154D+00 -0.30789866D+00 -0.52040297D+00 -0.78233613D+00 -0.96119033D+00
 -0.81187889D+00 -0.30621085D+00  0.15154546D-02  0.16373421D-02  0.30656211D-02
  0.52194822D-02  0.80737453D-02  0.10632839D-01  0.11048200D-01  0.70206353D-02
 -0.47050665D-02 -0.18607660D-01  0.33101890D-03  0.29456577D-02 -0.69812275D-03
 -0.65453446D-03 -0.46606753D-03 -0.96499199D-03 -0.90474133D-03 -0.64422972D-03
  0.16776777D-16  0.15729295D-16  0.11200195D-16 -0.24106699D-03 -0.25265196D-02
 -0.42119791D-17 -0.25921462D-02 -0.26023402D-02  0.50017822D-17  0.13292687D-03
  0.10407819D-03  0.89887851D-19  0.94680542D-04 -0.18436721D-02  0.17489915D-02
 -0.28483167D-02 -0.38891386D-17  0.19680982D-17  0.39191713D-03  0.86768739D-03
 -0.12596045D-02  0.13702999D-02  0.46434195D-17 -0.36760618D-17 -0.18095400D-03
  0.34642457D-03 -0.16547057D-03  0.66055375D-04  0.74696708D-18  0.14222351D-17
  0.43159426D-04  0.60215863D-03  0.19878017D-17  0.17951217D-03 -0.67991980D-03
  0.55355533D-18 -0.30899045D-03 -0.11265561D-02 -0.65169604D-17 -0.42595628D-17
  0.28136692D-03  0.17886575D-03  0.14586324D-18 -0.11057209D-02 -0.61970708D-03
  0.92703125D-18  0.26162017D-03  0.83109812D-04 -0.13646210D-17  0.14941781D-17
  0.16516154D+00  0.30789866D+00  0.52040297D+00  0.78233613D+00  0.96119033D+00
  0.81187889D+00  0.30621085D+00 -0.15154546D-02 -0.16373421D-02 -0.30656211D-02
 -0.52194822D-02 -0.80737453D-02 -0.10632839D-01 -0.11048200D-01 -0.70206354D-02
  0.47050666D-02  0.18607660D-01 -0.33101891D-03 -0.29456577D-02 -0.69812276D-03
 -0.65453446D-03 -0.46606753D-03  0.96499199D-03  0.90474133D-03  0.64422973D-03
 -0.34882706D-17 -0.32704754D-17 -0.23287733D-17 -0.24106699D-03  0.25265196D-02
 -0.45784160D-17 -0.25921462D-02  0.26023402D-02 -0.91448125D-17  0.13292687D-03
 -0.10407819D-03 -0.19443884D-18 -0.94680542D-04  0.18436721D-02 -0.17489915D-02
 -0.28483167D-02  0.18083276D-17 -0.36132589D-18 -0.39191713D-03 -0.86768739D-03
  0.12596045D-02  0.13702999D-02  0.28684355D-17 -0.37806638D-17  0.18095400D-03
 -0.34642457D-03  0.16547057D-03  0.66055375D-04  0.18534254D-17 -0.19258287D-17
  0.43159426D-04 -0.60215863D-03  0.10327462D-17  0.17951218D-03  0.67991980D-03
  0.74350696D-18 -0.30899045D-03  0.11265561D-02 -0.38417455D-17  0.20328710D-17
  0.28136692D-03 -0.17886575D-03  0.23929195D-18 -0.11057209D-02  0.61970708D-03
 -0.29199911D-18  0.26162017D-03 -0.83109812D-04 -0.42587673D-18  0.12203782D-17
 -0.12219228D-03 -0.22037881D-03 -0.32494843D-03 -0.50213281D-02 -0.64821734D-02
  0.16236924D-03  0.34106352D-05 -0.30955279D-03 -0.46907009D-18  0.67486761D-03
  0.89766852D-03  0.47025067D-17 -0.62636548D-03  0.42799128D-03 -0.10568638D-17
  0.45750564D-03  0.51722700D-03 -0.97473265D-03 -0.21892868D-02  0.21900986D-17
 -0.40732744D-17  0.95468627D-04  0.82807620D-04 -0.17827625D-03 -0.20857122D-03
  0.14866341D-18 -0.10175367D-17  0.12219228D-03  0.22037881D-03  0.32494843D-03
  0.50213281D-02  0.64821734D-02 -0.16236924D-03  0.34106356D-05  0.30955279D-03
  0.13563841D-17  0.67486762D-03 -0.89766852D-03 -0.24670951D-17 -0.62636548D-03
 -0.42799128D-03  0.19880860D-17 -0.45750564D-03 -0.51722701D-03  0.97473265D-03
 -0.21892868D-02 -0.89509502D-18 -0.15208705D-18 -0.95468627D-04 -0.82807621D-04
  0.17827625D-03 -0.20857122D-03 -0.25008919D-18  0.11348319D-18 -0.12219183D-03
 -0.22037800D-03 -0.32494723D-03 -0.50213333D-02 -0.64821671D-02  0.16236879D-03
  0.34053150D-05  0.30954629D-03 -0.24644648D-18  0.67486018D-03 -0.89768819D-03
  0.86976255D-18 -0.62636375D-03 -0.42799330D-03  0.14036382D-17  0.45750897D-03
  0.51721705D-03 -0.97472602D-03  0.21892693D-02 -0.25082960D-17  0.39774724D-17
  0.95468789D-04  0.82805740D-04 -0.17827453D-03  0.20856994D-03  0.96156784D-18
 -0.51392134D-18  0.12219183D-03  0.22037800D-03  0.32494723D-03  0.50213333D-02
  0.64821671D-02 -0.16236879D-03  0.34053153D-05 -0.30954629D-03  0.39768197D-19
  0.67486018D-03  0.89768818D-03  0.19069950D-17 -0.62636375D-03  0.42799330D-03
 -0.18045555D-17 -0.45750897D-03 -0.51721706D-03  0.97472602D-03  0.21892693D-02
 -0.20929250D-17  0.14734549D-18 -0.95468789D-04 -0.82805740D-04  0.17827453D-03
  0.20856994D-03  0.10698487D-18 -0.89250195D-19
MO    2     MO 0.0        OCC NO =    2.0000000  ORB. ENERGY =  -10.568200
  0.40488362D-02  0.75479512D-02  0.12757367D-01  0.19178502D-01  0.23563005D-01
  0.19902725D-01  0.75065755D-02 -0.37150461D-04 -0.36333983D-04 -0.68028681D-04
 -0.11582465D-03 -0.17916312D-03 -0.23595153D-03 -0.24516875D-03 -0.15579374D-03
  0.10440934D-03  0.58262290D-03 -0.49901323D-02  0.10649158D-02 -0.85270113D-03
 -0.79946151D-03 -0.56926422D-03 -0.84266569D-09 -0.79005264D-09 -0.56256455D-09
  0.19800039D-15  0.18563795D-15  0.13218528D-15  0.29171725D-03  0.92495474D-08
 -0.22992613D-16  0.19245524D-02 -0.78165138D-08 -0.12794934D-17  0.35503155D-04
  0.31061933D-09 -0.99407677D-18  0.13009814D-02 -0.95759303D-03 -0.34338841D-03
 -0.38691548D-08  0.34458616D-15 -0.48237580D-16 -0.11727245D-02  0.10365151D-02
  0.13620940D-03  0.18886064D-08  0.54655425D-17  0.65412628D-18  0.21629773D-03
 -0.95809587D-04 -0.12048814D-03  0.25709196D-08 -0.75559675D-18 -0.19247073D-17
 -0.13938097D-03 -0.22935296D-09  0.54393371D-18  0.31063491D-03  0.59419937D-09
 -0.27776160D-17  0.10750801D-03  0.93859501D-10  0.11458148D-17  0.21013284D-17
  0.22311824D-03  0.87763432D-09  0.65642717D-18 -0.44097812D-03 -0.34770991D-08
 -0.23484759D-17 -0.22837661D-03  0.84419615D-09  0.37919437D-18  0.24299523D-18
  0.40488362D-02  0.75479511D-02  0.12757367D-01  0.19178502D-01  0.23563005D-01
  0.19902725D-01  0.75065755D-02 -0.37150461D-04 -0.36333983D-04 -0.68028680D-04
 -0.11582465D-03 -0.17916312D-03 -0.23595152D-03 -0.24516875D-03 -0.15579373D-03
  0.10440934D-03  0.58262289D-03 -0.49901323D-02  0.10649158D-02  0.85270113D-03
  0.79946151D-03  0.56926422D-03 -0.84265683D-09 -0.79004434D-09 -0.56255864D-09
  0.36544823D-18  0.34263095D-18  0.24397365D-18 -0.29171725D-03  0.92495069D-08
  0.38643139D-17 -0.19245524D-02 -0.78166272D-08  0.37302520D-17 -0.35503156D-04
  0.31058678D-09  0.10518909D-18  0.13009814D-02 -0.95759303D-03 -0.34338841D-03
  0.38691479D-08 -0.57924869D-17 -0.27112082D-17 -0.11727245D-02  0.10365151D-02
  0.13620939D-03 -0.18886334D-08 -0.37340555D-17  0.14635968D-17  0.21629773D-03
 -0.95809588D-04 -0.12048814D-03 -0.25707595D-08 -0.23662968D-17  0.21358696D-17
  0.13938097D-03 -0.22935951D-09 -0.34409599D-17 -0.31063490D-03  0.59421558D-09
  0.10320623D-16 -0.10750801D-03  0.93862945D-10  0.22566061D-20 -0.17225578D-17
 -0.22311824D-03  0.87763712D-09  0.11878509D-18  0.44097812D-03 -0.34771023D-08
 -0.30783012D-18  0.22837661D-03  0.84419092D-09 -0.48525138D-19  0.14687807D-17
  0.16485585D+00  0.30732879D+00  0.51943979D+00  0.78088816D+00  0.95941133D+00
  0.81037624D+00  0.30564410D+00 -0.15126497D-02 -0.14106819D-02 -0.26412417D-02
 -0.44969400D-02 -0.69560823D-02 -0.91609157D-02 -0.95187783D-02 -0.60487563D-02
  0.40537358D-02  0.17890945D-01 -0.23463912D-02 -0.71301569D-03  0.50011073D-03
  0.46888560D-03  0.33387448D-03 -0.12141966D-02 -0.11383865D-02 -0.81059899D-03
 -0.11039799D-16 -0.10350514D-16 -0.73701824D-17 -0.83263516D-03 -0.10131665D-02
  0.11494595D-17  0.13463880D-02 -0.86301072D-03  0.38050629D-17 -0.30926660D-04
  0.17317333D-04  0.19849956D-18 -0.22064768D-03  0.21289267D-02 -0.19082790D-02
 -0.27533176D-02 -0.27964848D-17 -0.58789509D-18 -0.11791215D-03 -0.92346563D-03
  0.10413778D-02  0.76785581D-03  0.32416984D-17  0.87802594D-18  0.12119387D-03
 -0.20869369D-03  0.87499816D-04  0.51024673D-04  0.14611748D-17 -0.78120859D-18
  0.10931941D-03  0.62681699D-03  0.17900668D-17 -0.61892067D-03 -0.71835119D-03
 -0.28742097D-17  0.29096244D-03 -0.11620998D-02 -0.24959907D-17 -0.23299590D-17
 -0.25852285D-03  0.21002370D-03 -0.36529242D-18  0.95322385D-03 -0.61295128D-03
  0.10248169D-17 -0.17765531D-03 -0.17119805D-04  0.71060357D-19 -0.94528695D-18
  0.16485585D+00  0.30732879D+00  0.51943979D+00  0.78088815D+00  0.95941132D+00
  0.81037624D+00  0.30564410D+00 -0.15126497D-02 -0.14106819D-02 -0.26412417D-02
 -0.44969400D-02 -0.69560823D-02 -0.91609157D-02 -0.95187782D-02 -0.60487563D-02
  0.40537358D-02  0.17890945D-01 -0.23463912D-02 -0.71301569D-03 -0.50011073D-03
 -0.46888560D-03 -0.33387448D-03 -0.12141966D-02 -0.11383865D-02 -0.81059899D-03
 -0.14124432D-16 -0.13242553D-16 -0.94294866D-17  0.83263516D-03 -0.10131665D-02
  0.21161054D-17 -0.13463880D-02 -0.86301071D-03 -0.52613476D-17  0.30926660D-04
  0.17317333D-04  0.73744725D-19 -0.22064768D-03  0.21289267D-02 -0.19082790D-02
  0.27533176D-02 -0.74588977D-18 -0.15499477D-17 -0.11791215D-03 -0.92346563D-03
  0.10413778D-02 -0.76785581D-03  0.14157976D-17 -0.10088365D-18  0.12119387D-03
 -0.20869369D-03  0.87499815D-04 -0.51024673D-04  0.12930369D-17  0.15959049D-17
 -0.10931941D-03  0.62681699D-03 -0.74197447D-18  0.61892066D-03 -0.71835118D-03
  0.76372119D-18 -0.29096244D-03 -0.11620998D-02  0.14622022D-17 -0.86900081D-18
  0.25852285D-03  0.21002370D-03  0.20661819D-18 -0.95322385D-03 -0.61295128D-03
 -0.26500522D-18  0.17765531D-03 -0.17119805D-04 -0.35484936D-18  0.82651926D-19
  0.16485525D+00  0.30732766D+00  0.51943789D+00  0.78088530D+00  0.95940781D+00
  0.81037327D+00  0.30564298D+00 -0.15126442D-02 -0.14106756D-02 -0.26412299D-02
 -0.44969198D-02 -0.69560512D-02 -0.91608747D-02 -0.95187356D-02 -0.60487292D-02
  0.40537176D-02  0.17890881D-01 -0.23464281D-02 -0.71301437D-03  0.50010783D-03
  0.46888288D-03  0.33387254D-03  0.12141960D-02  0.11383860D-02  0.81059862D-03
 -0.16802433D-16 -0.15753349D-16 -0.11217323D-16 -0.83263425D-03  0.10131883D-02
  0.59350759D-17  0.13463773D-02  0.86300255D-03 -0.14632461D-17 -0.30926382D-04
 -0.17317740D-04 -0.85247938D-19 -0.22064792D-03  0.21289191D-02 -0.19082712D-02
  0.27533076D-02 -0.18922833D-17 -0.21135341D-17 -0.11791054D-03 -0.92346639D-03
  0.10413769D-02 -0.76786740D-03  0.19527888D-17  0.26523052D-17  0.12119384D-03
 -0.20869354D-03  0.87499695D-04 -0.51026119D-04 -0.14782357D-18  0.58695873D-18
  0.10931814D-03 -0.62681641D-03  0.98655370D-18 -0.61891273D-03  0.71835426D-03
 -0.55312197D-17  0.29095830D-03  0.11620950D-02  0.25715586D-17 -0.50499913D-17
 -0.25852154D-03 -0.21002410D-03 -0.19435277D-18  0.95322068D-03  0.61295289D-03
  0.63208394D-18 -0.17765604D-03  0.17119405D-04 -0.49025631D-19  0.58099945D-18
  0.16485525D+00  0.30732766D+00  0.51943789D+00  0.78088530D+00  0.95940781D+00
  0.81037327D+00  0.30564298D+00 -0.15126442D-02 -0.14106756D-02 -0.26412299D-02
 -0.44969198D-02 -0.69560512D-02 -0.91608747D-02 -0.95187356D-02 -0.60487292D-02