 Molden2AIM, Version 4.0.0 (06/02/2016)           Time: Thu Jun 28 00:56:05 2018
GAUSSIAN             25 MOL ORBITALS    741 PRIMITIVES       15 NUCLEI
  H    1    (CENTRE  1)   1.71002262  0.00000000  3.72491853  CHARGE =  1.0
  H    2    (CENTRE  2)  -1.71002262  0.00000000  3.72491853  CHARGE =  1.0
  H    3    (CENTRE  3)   0.00000000  4.07877920  1.16673392  CHARGE =  1.0
  H    4    (CENTRE  4)   0.00000000 -4.07877920  1.16673392  CHARGE =  1.0
  H    5    (CENTRE  5)   3.64419321  2.53039997 -1.93633244  CHARGE =  1.0
  H    6    (CENTRE  6)  -3.64419321 -2.53039997 -1.93633244  CHARGE =  1.0
  H    7    (CENTRE  7)  -3.64419321  2.53039997 -1.93633244  CHARGE =  1.0
  H    8    (CENTRE  8)   3.64419321 -2.53039997 -1.93633244  CHARGE =  1.0
  C    9    (CENTRE  9)   0.00000000  0.00000000  2.54924999  CHARGE =  6.0
  C   10    (CENTRE 10)   0.00000000  2.11448826  0.51668892  CHARGE =  6.0
  C   11    (CENTRE 11)   0.00000000 -2.11448826  0.51668892  CHARGE =  6.0
  C   12    (CENTRE 12)   2.33623439  1.26384883 -0.98091337  CHARGE =  6.0
  C   13    (CENTRE 13)  -2.33623439 -1.26384883 -0.98091337  CHARGE =  6.0
  C   14    (CENTRE 14)  -2.33623439  1.26384883 -0.98091337  CHARGE =  6.0
  C   15    (CENTRE 15)   2.33623439 -1.26384883 -0.98091337  CHARGE =  6.0
CENTRE ASSIGNMENTS    1  1  1  1  1  1  1  1  1  1  1  1  1  1  1  1  1  1  1  1
CENTRE ASSIGNMENTS    1  1  1  1  1  1  1  2  2  2  2  2  2  2  2  2  2  2  2  2
CENTRE ASSIGNMENTS    2  2  2  2  2  2  2  2  2  2  2  2  2  2  3  3  3  3  3  3
CENTRE ASSIGNMENTS    3  3  3  3  3  3  3  3  3  3  3  3  3  3  3  3  3  3  3  3
CENTRE ASSIGNMENTS    3  4  4  4  4  4  4  4  4  4  4  4  4  4  4  4  4  4  4  4
CENTRE ASSIGNMENTS    4  4  4  4  4  4  4  4  5  5  5  5  5  5  5  5  5  5  5  5
CENTRE ASSIGNMENTS    5  5  5  5  5  5  5  5  5  5  5  5  5  5  5  6  6  6  6  6
CENTRE ASSIGNMENTS    6  6  6  6  6  6  6  6  6  6  6  6  6  6  6  6  6  6  6  6
CENTRE ASSIGNMENTS    6  6  7  7  7  7  7  7  7  7  7  7  7  7  7  7  7  7  7  7
CENTRE ASSIGNMENTS    7  7  7  7  7  7  7  7  7  8  8  8  8  8  8  8  8  8  8  8
CENTRE ASSIGNMENTS    8  8  8  8  8  8  8  8  8  8  8  8  8  8  8  8  9  9  9  9
CENTRE ASSIGNMENTS    9  9  9  9  9  9  9  9  9  9  9  9  9  9  9  9  9  9  9  9
CENTRE ASSIGNMENTS    9  9  9  9  9  9  9  9  9  9  9  9  9  9  9  9  9  9  9  9
CENTRE ASSIGNMENTS    9  9  9  9  9  9  9  9  9  9  9  9  9  9  9  9  9  9  9  9
CENTRE ASSIGNMENTS    9  9  9  9  9  9  9  9  9  9  9 10 10 10 10 10 10 10 10 10
CENTRE ASSIGNMENTS   10 10 10 10 10 10 10 10 10 10 10 10 10 10 10 10 10 10 10 10
CENTRE ASSIGNMENTS   10 10 10 10 10 10 10 10 10 10 10 10 10 10 10 10 10 10 10 10
CENTRE ASSIGNMENTS   10 10 10 10 10 10 10 10 10 10 10 10 10 10 10 10 10 10 10 10
CENTRE ASSIGNMENTS   10 10 10 10 10 10 11 11 11 11 11 11 11 11 11 11 11 11 11 11
CENTRE ASSIGNMENTS   11 11 11 11 11 11 11 11 11 11 11 11 11 11 11 11 11 11 11 11
CENTRE ASSIGNMENTS   11 11 11 11 11 11 11 11 11 11 11 11 11 11 11 11 11 11 11 11
CENTRE ASSIGNMENTS   11 11 11 11 11 11 11 11 11 11 11 11 11 11 11 11 11 11 11 11
CENTRE ASSIGNMENTS   11 12 12 12 12 12 12 12 12 12 12 12 12 12 12 12 12 12 12 12
CENTRE ASSIGNMENTS   12 12 12 12 12 12 12 12 12 12 12 12 12 12 12 12 12 12 12 12
CENTRE ASSIGNMENTS   12 12 12 12 12 12 12 12 12 12 12 12 12 12 12 12 12 12 12 12
CENTRE ASSIGNMENTS   12 12 12 12 12 12 12 12 12 12 12 12 12 12 12 12 13 13 13 13
CENTRE ASSIGNMENTS   13 13 13 13 13 13 13 13 13 13 13 13 13 13 13 13 13 13 13 13
CENTRE ASSIGNMENTS   13 13 13 13 13 13 13 13 13 13 13 13 13 13 13 13 13 13 13 13
CENTRE ASSIGNMENTS   13 13 13 13 13 13 13 13 13 13 13 13 13 13 13 13 13 13 13 13
CENTRE ASSIGNMENTS   13 13 13 13 13 13 13 13 13 13 13 14 14 14 14 14 14 14 14 14
CENTRE ASSIGNMENTS   14 14 14 14 14 14 14 14 14 14 14 14 14 14 14 14 14 14 14 14
CENTRE ASSIGNMENTS   14 14 14 14 14 14 14 14 14 14 14 14 14 14 14 14 14 14 14 14
CENTRE ASSIGNMENTS   14 14 14 14 14 14 14 14 14 14 14 14 14 14 14 14 14 14 14 14
CENTRE ASSIGNMENTS   14 14 14 14 14 14 15 15 15 15 15 15 15 15 15 15 15 15 15 15
CENTRE ASSIGNMENTS   15 15 15 15 15 15 15 15 15 15 15 15 15 15 15 15 15 15 15 15
CENTRE ASSIGNMENTS   15 15 15 15 15 15 15 15 15 15 15 15 15 15 15 15 15 15 15 15
CENTRE ASSIGNMENTS   15 15 15 15 15 15 15 15 15 15 15 15 15 15 15 15 15 15 15 15
CENTRE ASSIGNMENTS   15
TYPE ASSIGNMENTS      1  1  1  1  1  1  2  3  4  2  3  4  2  3  4  5  6  7  8  9
TYPE ASSIGNMENTS     10  5  6  7  8  9 10  1  1  1  1  1  1  2  3  4  2  3  4  2
TYPE ASSIGNMENTS      3  4  5  6  7  8  9 10  5  6  7  8  9 10  1  1  1  1  1  1
TYPE ASSIGNMENTS      2  3  4  2  3  4  2  3  4  5  6  7  8  9 10  5  6  7  8  9
TYPE ASSIGNMENTS     10  1  1  1  1  1  1  2  3  4  2  3  4  2  3  4  5  6  7  8
TYPE ASSIGNMENTS      9 10  5  6  7  8  9 10  1  1  1  1  1  1  2  3  4  2  3  4
TYPE ASSIGNMENTS      2  3  4  5  6  7  8  9 10  5  6  7  8  9 10  1  1  1  1  1
TYPE ASSIGNMENTS      1  2  3  4  2  3  4  2  3  4  5  6  7  8  9 10  5  6  7  8
TYPE ASSIGNMENTS      9 10  1  1  1  1  1  1  2  3  4  2  3  4  2  3  4  5  6  7
TYPE ASSIGNMENTS      8  9 10  5  6  7  8  9 10  1  1  1  1  1  1  2  3  4  2  3
TYPE ASSIGNMENTS      4  2  3  4  5  6  7  8  9 10  5  6  7  8  9 10  1  1  1  1
TYPE ASSIGNMENTS      1  1  1  1  1  1  1  1  1  1  1  1  1  1  1  2  2  2  3  3
TYPE ASSIGNMENTS      3  4  4  4  2  3  4  2  3  4  2  3  4  5  6  7  8  9 10  5
TYPE ASSIGNMENTS      6  7  8  9 10  5  6  7  8  9 10 11 12 13 17 14 15 18 19 16
TYPE ASSIGNMENTS     20 11 12 13 17 14 15 18 19 16 20  1  1  1  1  1  1  1  1  1
TYPE ASSIGNMENTS      1  1  1  1  1  1  1  1  1  1  2  2  2  3  3  3  4  4  4  2
TYPE ASSIGNMENTS      3  4  2  3  4  2  3  4  5  6  7  8  9 10  5  6  7  8  9 10
TYPE ASSIGNMENTS      5  6  7  8  9 10 11 12 13 17 14 15 18 19 16 20 11 12 13 17
TYPE ASSIGNMENTS     14 15 18 19 16 20  1  1  1  1  1  1  1  1  1  1  1  1  1  1
TYPE ASSIGNMENTS      1  1  1  1  1  2  2  2  3  3  3  4  4  4  2  3  4  2  3  4
TYPE ASSIGNMENTS      2  3  4  5  6  7  8  9 10  5  6  7  8  9 10  5  6  7  8  9
TYPE ASSIGNMENTS     10 11 12 13 17 14 15 18 19 16 20 11 12 13 17 14 15 18 19 16
TYPE ASSIGNMENTS     20  1  1  1  1  1  1  1  1  1  1  1  1  1  1  1  1  1  1  1
TYPE ASSIGNMENTS      2  2  2  3  3  3  4  4  4  2  3  4  2  3  4  2  3  4  5  6
TYPE ASSIGNMENTS      7  8  9 10  5  6  7  8  9 10  5  6  7  8  9 10 11 12 13 17
TYPE ASSIGNMENTS     14 15 18 19 16 20 11 12 13 17 14 15 18 19 16 20  1  1  1  1
TYPE ASSIGNMENTS      1  1  1  1  1  1  1  1  1  1  1  1  1  1  1  2  2  2  3  3
TYPE ASSIGNMENTS      3  4  4  4  2  3  4  2  3  4  2  3  4  5  6  7  8  9 10  5
TYPE ASSIGNMENTS      6  7  8  9 10  5  6  7  8  9 10 11 12 13 17 14 15 18 19 16
TYPE ASSIGNMENTS     20 11 12 13 17 14 15 18 19 16 20  1  1  1  1  1  1  1  1  1
TYPE ASSIGNMENTS      1  1  1  1  1  1  1  1  1  1  2  2  2  3  3  3  4  4  4  2
TYPE ASSIGNMENTS      3  4  2  3  4  2  3  4  5  6  7  8  9 10  5  6  7  8  9 10
TYPE ASSIGNMENTS      5  6  7  8  9 10 11 12 13 17 14 15 18 19 16 20 11 12 13 17
TYPE ASSIGNMENTS     14 15 18 19 16 20  1  1  1  1  1  1  1  1  1  1  1  1  1  1
TYPE ASSIGNMENTS      1  1  1  1  1  2  2  2  3  3  3  4  4  4  2  3  4  2  3  4
TYPE ASSIGNMENTS      2  3  4  5  6  7  8  9 10  5  6  7  8  9 10  5  6  7  8  9
TYPE ASSIGNMENTS     10 11 12 13 17 14 15 18 19 16 20 11 12 13 17 14 15 18 19 16
TYPE ASSIGNMENTS     20
EXPONENTS  0.3387000D+02 0.5095000D+01 0.1159000D+01 0.3258000D+00 0.1027000D+00
EXPONENTS  0.2526000D-01 0.1407000D+01 0.1407000D+01 0.1407000D+01 0.3880000D+00
EXPONENTS  0.3880000D+00 0.3880000D+00 0.1020000D+00 0.1020000D+00 0.1020000D+00
EXPONENTS  0.1057000D+01 0.1057000D+01 0.1057000D+01 0.1057000D+01 0.1057000D+01
EXPONENTS  0.1057000D+01 0.2470000D+00 0.2470000D+00 0.2470000D+00 0.2470000D+00
EXPONENTS  0.2470000D+00 0.2470000D+00 0.3387000D+02 0.5095000D+01 0.1159000D+01
EXPONENTS  0.3258000D+00 0.1027000D+00 0.2526000D-01 0.1407000D+01 0.1407000D+01
EXPONENTS  0.1407000D+01 0.3880000D+00 0.3880000D+00 0.3880000D+00 0.1020000D+00
EXPONENTS  0.1020000D+00 0.1020000D+00 0.1057000D+01 0.1057000D+01 0.1057000D+01
EXPONENTS  0.1057000D+01 0.1057000D+01 0.1057000D+01 0.2470000D+00 0.2470000D+00
EXPONENTS  0.2470000D+00 0.2470000D+00 0.2470000D+00 0.2470000D+00 0.3387000D+02
EXPONENTS  0.5095000D+01 0.1159000D+01 0.3258000D+00 0.1027000D+00 0.2526000D-01
EXPONENTS  0.1407000D+01 0.1407000D+01 0.1407000D+01 0.3880000D+00 0.3880000D+00
EXPONENTS  0.3880000D+00 0.1020000D+00 0.1020000D+00 0.1020000D+00 0.1057000D+01
EXPONENTS  0.1057000D+01 0.1057000D+01 0.1057000D+01 0.1057000D+01 0.1057000D+01
EXPONENTS  0.2470000D+00 0.2470000D+00 0.2470000D+00 0.2470000D+00 0.2470000D+00
EXPONENTS  0.2470000D+00 0.3387000D+02 0.5095000D+01 0.1159000D+01 0.3258000D+00
EXPONENTS  0.1027000D+00 0.2526000D-01 0.1407000D+01 0.1407000D+01 0.1407000D+01
EXPONENTS  0.3880000D+00 0.3880000D+00 0.3880000D+00 0.1020000D+00 0.1020000D+00
EXPONENTS  0.1020000D+00 0.1057000D+01 0.1057000D+01 0.1057000D+01 0.1057000D+01
EXPONENTS  0.1057000D+01 0.1057000D+01 0.2470000D+00 0.2470000D+00 0.2470000D+00
EXPONENTS  0.2470000D+00 0.2470000D+00 0.2470000D+00 0.3387000D+02 0.5095000D+01
EXPONENTS  0.1159000D+01 0.3258000D+00 0.1027000D+00 0.2526000D-01 0.1407000D+01
EXPONENTS  0.1407000D+01 0.1407000D+01 0.3880000D+00 0.3880000D+00 0.3880000D+00
EXPONENTS  0.1020000D+00 0.1020000D+00 0.1020000D+00 0.1057000D+01 0.1057000D+01
EXPONENTS  0.1057000D+01 0.1057000D+01 0.1057000D+01 0.1057000D+01 0.2470000D+00
EXPONENTS  0.2470000D+00 0.2470000D+00 0.2470000D+00 0.2470000D+00 0.2470000D+00
EXPONENTS  0.3387000D+02 0.5095000D+01 0.1159000D+01 0.3258000D+00 0.1027000D+00
EXPONENTS  0.2526000D-01 0.1407000D+01 0.1407000D+01 0.1407000D+01 0.3880000D+00
EXPONENTS  0.3880000D+00 0.3880000D+00 0.1020000D+00 0.1020000D+00 0.1020000D+00
EXPONENTS  0.1057000D+01 0.1057000D+01 0.1057000D+01 0.1057000D+01 0.1057000D+01
EXPONENTS  0.1057000D+01 0.2470000D+00 0.2470000D+00 0.2470000D+00 0.2470000D+00
EXPONENTS  0.2470000D+00 0.2470000D+00 0.3387000D+02 0.5095000D+01 0.1159000D+01
EXPONENTS  0.3258000D+00 0.1027000D+00 0.2526000D-01 0.1407000D+01 0.1407000D+01
EXPONENTS  0.1407000D+01 0.3880000D+00 0.3880000D+00 0.3880000D+00 0.1020000D+00
EXPONENTS  0.1020000D+00 0.1020000D+00 0.1057000D+01 0.1057000D+01 0.1057000D+01
EXPONENTS  0.1057000D+01 0.1057000D+01 0.1057000D+01 0.2470000D+00 0.2470000D+00
EXPONENTS  0.2470000D+00 0.2470000D+00 0.2470000D+00 0.2470000D+00 0.3387000D+02
EXPONENTS  0.5095000D+01 0.1159000D+01 0.3258000D+00 0.1027000D+00 0.2526000D-01
EXPONENTS  0.1407000D+01 0.1407000D+01 0.1407000D+01 0.3880000D+00 0.3880000D+00
EXPONENTS  0.3880000D+00 0.1020000D+00 0.1020000D+00 0.1020000D+00 0.1057000D+01
EXPONENTS  0.1057000D+01 0.1057000D+01 0.1057000D+01 0.1057000D+01 0.1057000D+01
EXPONENTS  0.2470000D+00 0.2470000D+00 0.2470000D+00 0.2470000D+00 0.2470000D+00
EXPONENTS  0.2470000D+00 0.8236000D+04 0.1235000D+04 0.2808000D+03 0.7927000D+02
EXPONENTS  0.2559000D+02 0.8997000D+01 0.3319000D+01 0.3643000D+00 0.8236000D+04
EXPONENTS  0.1235000D+04 0.2808000D+03 0.7927000D+02 0.2559000D+02 0.8997000D+01
EXPONENTS  0.3319000D+01 0.3643000D+00 0.9059000D+00 0.1285000D+00 0.4402000D-01
EXPONENTS  0.1871000D+02 0.4133000D+01 0.1200000D+01 0.1871000D+02 0.4133000D+01
EXPONENTS  0.1200000D+01 0.1871000D+02 0.4133000D+01 0.1200000D+01 0.3827000D+00
EXPONENTS  0.3827000D+00 0.3827000D+00 0.1209000D+00 0.1209000D+00 0.1209000D+00
EXPONENTS  0.3569000D-01 0.3569000D-01 0.3569000D-01 0.1097000D+01 0.1097000D+01
EXPONENTS  0.1097000D+01 0.1097000D+01 0.1097000D+01 0.1097000D+01 0.3180000D+00
EXPONENTS  0.3180000D+00 0.3180000D+00 0.3180000D+00 0.3180000D+00 0.3180000D+00
EXPONENTS  0.1000000D+00 0.1000000D+00 0.1000000D+00 0.1000000D+00 0.1000000D+00
EXPONENTS  0.1000000D+00 0.7610000D+00 0.7610000D+00 0.7610000D+00 0.7610000D+00
EXPONENTS  0.7610000D+00 0.7610000D+00 0.7610000D+00 0.7610000D+00 0.7610000D+00
EXPONENTS  0.7610000D+00 0.2680000D+00 0.2680000D+00 0.2680000D+00 0.2680000D+00
EXPONENTS  0.2680000D+00 0.2680000D+00 0.2680000D+00 0.2680000D+00 0.2680000D+00
EXPONENTS  0.2680000D+00 0.8236000D+04 0.1235000D+04 0.2808000D+03 0.7927000D+02
EXPONENTS  0.2559000D+02 0.8997000D+01 0.3319000D+01 0.3643000D+00 0.8236000D+04
EXPONENTS  0.1235000D+04 0.2808000D+03 0.7927000D+02 0.2559000D+02 0.8997000D+01
EXPONENTS  0.3319000D+01 0.3643000D+00 0.9059000D+00 0.1285000D+00 0.4402000D-01
EXPONENTS  0.1871000D+02 0.4133000D+01 0.1200000D+01 0.1871000D+02 0.4133000D+01
EXPONENTS  0.1200000D+01 0.1871000D+02 0.4133000D+01 0.1200000D+01 0.3827000D+00
EXPONENTS  0.3827000D+00 0.3827000D+00 0.1209000D+00 0.1209000D+00 0.1209000D+00
EXPONENTS  0.3569000D-01 0.3569000D-01 0.3569000D-01 0.1097000D+01 0.1097000D+01
EXPONENTS  0.1097000D+01 0.1097000D+01 0.1097000D+01 0.1097000D+01 0.3180000D+00
EXPONENTS  0.3180000D+00 0.3180000D+00 0.3180000D+00 0.3180000D+00 0.3180000D+00
EXPONENTS  0.1000000D+00 0.1000000D+00 0.1000000D+00 0.1000000D+00 0.1000000D+00
EXPONENTS  0.1000000D+00 0.7610000D+00 0.7610000D+00 0.7610000D+00 0.7610000D+00
EXPONENTS  0.7610000D+00 0.7610000D+00 0.7610000D+00 0.7610000D+00 0.7610000D+00
EXPONENTS  0.7610000D+00 0.2680000D+00 0.2680000D+00 0.2680000D+00 0.2680000D+00
EXPONENTS  0.2680000D+00 0.2680000D+00 0.2680000D+00 0.2680000D+00 0.2680000D+00
EXPONENTS  0.2680000D+00 0.8236000D+04 0.1235000D+04 0.2808000D+03 0.7927000D+02
EXPONENTS  0.2559000D+02 0.8997000D+01 0.3319000D+01 0.3643000D+00 0.8236000D+04
EXPONENTS  0.1235000D+04 0.2808000D+03 0.7927000D+02 0.2559000D+02 0.8997000D+01
EXPONENTS  0.3319000D+01 0.3643000D+00 0.9059000D+00 0.1285000D+00 0.4402000D-01
EXPONENTS  0.1871000D+02 0.4133000D+01 0.1200000D+01 0.1871000D+02 0.4133000D+01
EXPONENTS  0.1200000D+01 0.1871000D+02 0.4133000D+01 0.1200000D+01 0.3827000D+00
EXPONENTS  0.3827000D+00 0.3827000D+00 0.1209000D+00 0.1209000D+00 0.1209000D+00
EXPONENTS  0.3569000D-01 0.3569000D-01 0.3569000D-01 0.1097000D+01 0.1097000D+01
EXPONENTS  0.1097000D+01 0.1097000D+01 0.1097000D+01 0.1097000D+01 0.3180000D+00
EXPONENTS  0.3180000D+00 0.3180000D+00 0.3180000D+00 0.3180000D+00 0.3180000D+00
EXPONENTS  0.1000000D+00 0.1000000D+00 0.1000000D+00 0.1000000D+00 0.1000000D+00
EXPONENTS  0.1000000D+00 0.7610000D+00 0.7610000D+00 0.7610000D+00 0.7610000D+00
EXPONENTS  0.7610000D+00 0.7610000D+00 0.7610000D+00 0.7610000D+00 0.7610000D+00
EXPONENTS  0.7610000D+00 0.2680000D+00 0.2680000D+00 0.2680000D+00 0.2680000D+00
EXPONENTS  0.2680000D+00 0.2680000D+00 0.2680000D+00 0.2680000D+00 0.2680000D+00
EXPONENTS  0.2680000D+00 0.8236000D+04 0.1235000D+04 0.2808000D+03 0.7927000D+02
EXPONENTS  0.2559000D+02 0.8997000D+01 0.3319000D+01 0.3643000D+00 0.8236000D+04
EXPONENTS  0.1235000D+04 0.2808000D+03 0.7927000D+02 0.2559000D+02 0.8997000D+01
EXPONENTS  0.3319000D+01 0.3643000D+00 0.9059000D+00 0.1285000D+00 0.4402000D-01
EXPONENTS  0.1871000D+02 0.4133000D+01 0.1200000D+01 0.1871000D+02 0.4133000D+01
EXPONENTS  0.1200000D+01 0.1871000D+02 0.4133000D+01 0.1200000D+01 0.3827000D+00
EXPONENTS  0.3827000D+00 0.3827000D+00 0.1209000D+00 0.1209000D+00 0.1209000D+00
EXPONENTS  0.3569000D-01 0.3569000D-01 0.3569000D-01 0.1097000D+01 0.1097000D+01
EXPONENTS  0.1097000D+01 0.1097000D+01 0.1097000D+01 0.1097000D+01 0.3180000D+00
EXPONENTS  0.3180000D+00 0.3180000D+00 0.3180000D+00 0.3180000D+00 0.3180000D+00
EXPONENTS  0.1000000D+00 0.1000000D+00 0.1000000D+00 0.1000000D+00 0.1000000D+00
EXPONENTS  0.1000000D+00 0.7610000D+00 0.7610000D+00 0.7610000D+00 0.7610000D+00
EXPONENTS  0.7610000D+00 0.7610000D+00 0.7610000D+00 0.7610000D+00 0.7610000D+00
EXPONENTS  0.7610000D+00 0.2680000D+00 0.2680000D+00 0.2680000D+00 0.2680000D+00
EXPONENTS  0.2680000D+00 0.2680000D+00 0.2680000D+00 0.2680000D+00 0.2680000D+00
EXPONENTS  0.2680000D+00 0.8236000D+04 0.1235000D+04 0.2808000D+03 0.7927000D+02
EXPONENTS  0.2559000D+02 0.8997000D+01 0.3319000D+01 0.3643000D+00 0.8236000D+04
EXPONENTS  0.1235000D+04 0.2808000D+03 0.7927000D+02 0.2559000D+02 0.8997000D+01
EXPONENTS  0.3319000D+01 0.3643000D+00 0.9059000D+00 0.1285000D+00 0.4402000D-01
EXPONENTS  0.1871000D+02 0.4133000D+01 0.1200000D+01 0.1871000D+02 0.4133000D+01
EXPONENTS  0.1200000D+01 0.1871000D+02 0.4133000D+01 0.1200000D+01 0.3827000D+00
EXPONENTS  0.3827000D+00 0.3827000D+00 0.1209000D+00 0.1209000D+00 0.1209000D+00
EXPONENTS  0.3569000D-01 0.3569000D-01 0.3569000D-01 0.1097000D+01 0.1097000D+01
EXPONENTS  0.1097000D+01 0.1097000D+01 0.1097000D+01 0.1097000D+01 0.3180000D+00
EXPONENTS  0.3180000D+00 0.3180000D+00 0.3180000D+00 0.3180000D+00 0.3180000D+00
EXPONENTS  0.1000000D+00 0.1000000D+00 0.1000000D+00 0.1000000D+00 0.1000000D+00
EXPONENTS  0.1000000D+00 0.7610000D+00 0.7610000D+00 0.7610000D+00 0.7610000D+00
EXPONENTS  0.7610000D+00 0.7610000D+00 0.7610000D+00 0.7610000D+00 0.7610000D+00
EXPONENTS  0.7610000D+00 0.2680000D+00 0.2680000D+00 0.2680000D+00 0.2680000D+00
EXPONENTS  0.2680000D+00 0.2680000D+00 0.2680000D+00 0.2680000D+00 0.2680000D+00
EXPONENTS  0.2680000D+00 0.8236000D+04 0.1235000D+04 0.2808000D+03 0.7927000D+02
EXPONENTS  0.2559000D+02 0.8997000D+01 0.3319000D+01 0.3643000D+00 0.8236000D+04
EXPONENTS  0.1235000D+04 0.2808000D+03 0.7927000D+02 0.2559000D+02 0.8997000D+01
EXPONENTS  0.3319000D+01 0.3643000D+00 0.9059000D+00 0.1285000D+00 0.4402000D-01
EXPONENTS  0.1871000D+02 0.4133000D+01 0.1200000D+01 0.1871000D+02 0.4133000D+01
EXPONENTS  0.1200000D+01 0.1871000D+02 0.4133000D+01 0.1200000D+01 0.3827000D+00
EXPONENTS  0.3827000D+00 0.3827000D+00 0.1209000D+00 0.1209000D+00 0.1209000D+00
EXPONENTS  0.3569000D-01 0.3569000D-01 0.3569000D-01 0.1097000D+01 0.1097000D+01
EXPONENTS  0.1097000D+01 0.1097000D+01 0.1097000D+01 0.1097000D+01 0.3180000D+00
EXPONENTS  0.3180000D+00 0.3180000D+00 0.3180000D+00 0.3180000D+00 0.3180000D+00
EXPONENTS  0.1000000D+00 0.1000000D+00 0.1000000D+00 0.1000000D+00 0.1000000D+00
EXPONENTS  0.1000000D+00 0.7610000D+00 0.7610000D+00 0.7610000D+00 0.7610000D+00
EXPONENTS  0.7610000D+00 0.7610000D+00 0.7610000D+00 0.7610000D+00 0.7610000D+00
EXPONENTS  0.7610000D+00 0.2680000D+00 0.2680000D+00 0.2680000D+00 0.2680000D+00
EXPONENTS  0.2680000D+00 0.2680000D+00 0.2680000D+00 0.2680000D+00 0.2680000D+00
EXPONENTS  0.2680000D+00 0.8236000D+04 0.1235000D+04 0.2808000D+03 0.7927000D+02
EXPONENTS  0.2559000D+02 0.8997000D+01 0.3319000D+01 0.3643000D+00 0.8236000D+04
EXPONENTS  0.1235000D+04 0.2808000D+03 0.7927000D+02 0.2559000D+02 0.8997000D+01
EXPONENTS  0.3319000D+01 0.3643000D+00 0.9059000D+00 0.1285000D+00 0.4402000D-01
EXPONENTS  0.1871000D+02 0.4133000D+01 0.1200000D+01 0.1871000D+02 0.4133000D+01
EXPONENTS  0.1200000D+01 0.1871000D+02 0.4133000D+01 0.1200000D+01 0.3827000D+00
EXPONENTS  0.3827000D+00 0.3827000D+00 0.1209000D+00 0.1209000D+00 0.1209000D+00
EXPONENTS  0.3569000D-01 0.3569000D-01 0.3569000D-01 0.1097000D+01 0.1097000D+01
EXPONENTS  0.1097000D+01 0.1097000D+01 0.1097000D+01 0.1097000D+01 0.3180000D+00
EXPONENTS  0.3180000D+00 0.3180000D+00 0.3180000D+00 0.3180000D+00 0.3180000D+00
EXPONENTS  0.1000000D+00 0.1000000D+00 0.1000000D+00 0.1000000D+00 0.1000000D+00
EXPONENTS  0.1000000D+00 0.7610000D+00 0.7610000D+00 0.7610000D+00 0.7610000D+00
EXPONENTS  0.7610000D+00 0.7610000D+00 0.7610000D+00 0.7610000D+00 0.7610000D+00
EXPONENTS  0.7610000D+00 0.2680000D+00 0.2680000D+00 0.2680000D+00 0.2680000D+00
EXPONENTS  0.2680000D+00 0.2680000D+00 0.2680000D+00 0.2680000D+00 0.2680000D+00
EXPONENTS  0.2680000D+00
MO    1     MO 0.0        OCC NO =    2.0000000  ORB. ENERGY =  -10.550642
  0.45929864D-13  0.82836401D-13  0.12214222D-12 -0.35696247D-13 -0.83839799D-12
  0.83127627D-13 -0.17422795D-12 -0.53855795D-04 -0.15102734D-12 -0.65138894D-12
 -0.89537742D-03  0.76196439D-12  0.40421629D-13  0.76776696D-04  0.14289344D-12
  0.80272079D-12 -0.11698881D-12 -0.68573198D-12  0.10134335D-02  0.41323948D-13
  0.10862035D-02  0.74794106D-13  0.39568942D-13 -0.11436305D-12 -0.11882186D-03
  0.14989416D-12  0.83176486D-04  0.43029980D-13  0.77606341D-13  0.11443050D-12
  0.75707053D-13 -0.19802463D-12  0.24012333D-13  0.20584820D-12 -0.53855795D-04
 -0.14588817D-12  0.66794315D-12 -0.89537742D-03  0.72908338D-12 -0.92466597D-15
  0.76776696D-04  0.33566862D-13  0.82615580D-12 -0.13463044D-12 -0.69152535D-12
 -0.10134335D-02 -0.66041634D-13  0.10862035D-02  0.59153847D-13  0.46281555D-13
 -0.10543540D-12  0.11882186D-03 -0.15069349D-12  0.83176486D-04  0.13300913D-03
  0.23988745D-03  0.35371390D-03  0.11342614D-01  0.10202795D-03  0.14870003D-05
 -0.35093794D-14  0.15222925D-03  0.80887040D-04  0.15549524D-13 -0.27916323D-02
 -0.12523492D-02  0.58637254D-13 -0.16118927D-03 -0.43097349D-04  0.36973381D-03
 -0.93100271D-03  0.56126890D-03 -0.13232402D-13 -0.24118814D-13 -0.11722445D-02
 -0.60380433D-04 -0.98144424D-04  0.15852486D-03  0.16413991D-13 -0.82720476D-14
 -0.10162506D-03 -0.13300913D-03 -0.23988745D-03 -0.35371390D-03 -0.11342614D-01
 -0.10202793D-03 -0.14870001D-05 -0.22225617D-13  0.15222925D-03 -0.80887039D-04
  0.10764567D-13 -0.27916323D-02  0.12523492D-02 -0.25622450D-13 -0.16118927D-03
  0.43097348D-04 -0.36973381D-03  0.93100270D-03 -0.56126890D-03 -0.18162803D-13
  0.32791210D-13 -0.11722445D-02  0.60380434D-04  0.98144422D-04 -0.15852486D-03
  0.15516875D-13 -0.10333232D-13 -0.10162506D-03  0.53354606D-04  0.96227229D-04
  0.14188699D-03 -0.25982981D-02  0.46025470D-03  0.57258679D-04 -0.23603906D-03
 -0.35767323D-03  0.21543891D-03  0.36872410D-03  0.14667583D-02 -0.39134436D-03
 -0.11798156D-03  0.52655626D-06  0.12139215D-03  0.21957451D-03 -0.35284355D-03
  0.13326905D-03  0.27998321D-03 -0.18341167D-03 -0.15079029D-03  0.68864384D-04
 -0.15826753D-03  0.89403148D-04  0.11385222D-03  0.11367699D-03 -0.10215290D-03
 -0.53354606D-04 -0.96227229D-04 -0.14188699D-03  0.25982981D-02 -0.46025470D-03
 -0.57258679D-04 -0.23603905D-03 -0.35767323D-03 -0.21543890D-03  0.36872410D-03
  0.14667583D-02  0.39134436D-03 -0.11798156D-03  0.52655599D-06 -0.12139215D-03
 -0.21957451D-03  0.35284355D-03 -0.13326905D-03 -0.27998321D-03 -0.18341167D-03
 -0.15079029D-03 -0.68864383D-04  0.15826753D-03 -0.89403148D-04 -0.11385222D-03
  0.11367699D-03 -0.10215290D-03  0.53354606D-04  0.96227229D-04  0.14188699D-03
 -0.25982981D-02  0.46025470D-03  0.57258679D-04  0.23603906D-03 -0.35767323D-03
  0.21543891D-03 -0.36872410D-03  0.14667583D-02 -0.39134436D-03  0.11798156D-03
  0.52655609D-06  0.12139215D-03  0.21957451D-03 -0.35284355D-03  0.13326905D-03
 -0.27998321D-03  0.18341167D-03 -0.15079029D-03  0.68864384D-04 -0.15826753D-03
  0.89403148D-04 -0.11385222D-03 -0.11367699D-03 -0.10215290D-03 -0.53354606D-04
 -0.96227229D-04 -0.14188699D-03  0.25982981D-02 -0.46025470D-03 -0.57258679D-04
  0.23603905D-03 -0.35767323D-03 -0.21543890D-03 -0.36872410D-03  0.14667583D-02
  0.39134436D-03  0.11798156D-03  0.52655593D-06 -0.12139215D-03 -0.21957451D-03
  0.35284355D-03 -0.13326905D-03  0.27998321D-03  0.18341167D-03 -0.15079029D-03
 -0.68864383D-04  0.15826753D-03 -0.89403148D-04  0.11385222D-03 -0.11367699D-03
 -0.10215290D-03  0.10595249D-10  0.19751953D-10  0.33384280D-10  0.50187508D-10
  0.61661153D-10  0.52082701D-10  0.19643678D-10 -0.97217661D-13 -0.50158120D-12
 -0.93911826D-12 -0.15989292D-11 -0.24733003D-11 -0.32572495D-11 -0.33844909D-11
 -0.21506920D-11  0.14413438D-11  0.19507147D-11  0.13404406D-11  0.17590453D-11
 -0.13673890D-13 -0.12820141D-13 -0.91287039D-14  0.13432024D-03  0.12593376D-03
  0.89672338D-04 -0.88455307D-13 -0.82932473D-13 -0.59052861D-13  0.49425918D-13
  0.23438204D-02 -0.25449539D-11  0.18196078D-12  0.39182091D-02 -0.61725985D-12
 -0.14583588D-13  0.11600057D-03 -0.15593590D-12 -0.11361120D-11  0.12033357D-11
 -0.67223730D-13 -0.38718624D-13  0.15234458D-13 -0.19160471D-02  0.11688277D-11
 -0.89078740D-12 -0.27804033D-12  0.45316653D-13  0.18750073D-15  0.43238573D-03
  0.10180242D-13 -0.89427213D-13  0.79246971D-13  0.12742217D-13  0.75503829D-14
 -0.45589529D-03  0.12446168D-14 -0.62810331D-03 -0.29035776D-12 -0.17073203D-13
  0.13426619D-02 -0.93223458D-12  0.13339352D-13  0.54164797D-03  0.18033079D-11
 -0.56451019D-15 -0.29320575D-15 -0.53849598D-04 -0.28118282D-14 -0.36282319D-14
  0.65016322D-03 -0.51120058D-12  0.45078491D-14 -0.48861442D-03  0.51963606D-12
 -0.41487924D-13  0.23376467D+00  0.43579050D+00  0.73656272D+00  0.11072950D+01
  0.13604399D+01  0.11491090D+01  0.43340163D+00 -0.21449288D-02 -0.23646919D-02
 -0.44274494D-02 -0.75381114D-02 -0.11660312D-01 -0.15356221D-01 -0.15956097D-01
 -0.10139383D-01  0.67951790D-02  0.25210446D-01 -0.22442042D-01 -0.59154276D-04
  0.31303920D-14  0.29349415D-14  0.20898532D-14  0.58981987D-04  0.55299362D-04
  0.39376440D-04  0.18577982D-03  0.17418039D-03  0.12402682D-03 -0.51041288D-13
 -0.33301892D-02 -0.13038018D-02 -0.45626184D-12  0.18470330D-02 -0.89515799D-03
 -0.69961576D-13  0.56527884D-04 -0.11329705D-03 -0.75376259D-03  0.17031656D-02
 -0.94940306D-03  0.31476115D-13  0.21472898D-13  0.13081781D-02  0.16817463D-02
 -0.27655045D-02  0.10837582D-02 -0.92706430D-13 -0.24011084D-13 -0.28752312D-02
 -0.85378141D-05  0.87804639D-04 -0.79266825D-04 -0.75938455D-13  0.31806894D-13
  0.26646362D-03 -0.67628742D-14  0.12584054D-03 -0.15488762D-03  0.24545617D-13
 -0.11293854D-03  0.66263184D-04 -0.42569943D-14 -0.26458307D-03  0.39839966D-03
 -0.18089346D-13 -0.42760360D-14 -0.69718125D-03  0.15312897D-03  0.24220697D-14
  0.14426366D-02  0.48298340D-03  0.10406038D-13  0.64890720D-03 -0.94237031D-03
  0.80442470D-13 -0.23376467D+00 -0.43579050D+00 -0.73656272D+00 -0.11072950D+01
 -0.13604399D+01 -0.11491090D+01 -0.43340162D+00  0.21449288D-02  0.23646919D-02
  0.44274494D-02  0.75381114D-02  0.11660312D-01  0.15356221D-01  0.15956097D-01
  0.10139383D-01 -0.67951790D-02 -0.25210446D-01  0.22442042D-01  0.59154270D-04
  0.20908395D-13  0.19602949D-13  0.13958468D-13  0.58981988D-04  0.55299363D-04
  0.39376441D-04 -0.18577983D-03 -0.17418040D-03 -0.12402682D-03 -0.10356634D-12
 -0.33301893D-02  0.13038018D-02  0.14386536D-12  0.18470330D-02  0.89515799D-03
 -0.12057056D-13  0.56527884D-04  0.11329705D-03  0.75376259D-03 -0.17031656D-02
  0.94940305D-03 -0.31099428D-14  0.23558609D-13  0.13081781D-02 -0.16817463D-02
  0.27655045D-02 -0.10837582D-02 -0.67678789D-13  0.66741930D-13 -0.28752312D-02
  0.85378141D-05 -0.87804639D-04  0.79266825D-04 -0.52596184D-13  0.18294342D-13
  0.26646362D-03 -0.59992293D-14  0.12584053D-03  0.15488761D-03  0.27251450D-13
 -0.11293854D-03 -0.66263186D-04 -0.92537617D-14 -0.26458307D-03 -0.39839966D-03
  0.25934111D-13 -0.99645526D-17 -0.69718125D-03 -0.15312897D-03  0.20985899D-14
  0.14426366D-02 -0.48298340D-03 -0.20686963D-14  0.64890719D-03  0.94237031D-03
  0.48358895D-13  0.26115226D-02  0.48684718D-02  0.82285751D-02  0.12370244D-01
  0.15198274D-01  0.12837372D-01  0.48417843D-02 -0.23962261D-04 -0.40759062D-04
 -0.76313824D-04 -0.12993081D-03 -0.20098321D-03 -0.26468782D-03 -0.27502760D-03
 -0.17476769D-03  0.11712524D-03  0.15133055D-03  0.43418543D-02  0.10702783D-02
  0.47959270D-03  0.44964864D-03  0.32017662D-03 -0.72177937D-04 -0.67671404D-04
 -0.48186071D-04 -0.45820605D-03 -0.42959729D-03 -0.30589887D-03 -0.25573355D-02
  0.25566692D-02  0.19549911D-02 -0.12405485D-02  0.68573298D-04  0.10586130D-02
  0.32995352D-04 -0.12327576D-03  0.30173091D-05  0.23681822D-03 -0.23483893D-03
 -0.19792961D-05 -0.79824245D-03 -0.36475172D-03  0.70817619D-03  0.83387338D-03
 -0.13403398D-02  0.50646642D-03  0.34776674D-02 -0.10547613D-02 -0.29714825D-02
  0.49493153D-04 -0.41555055D-04 -0.79380984D-05 -0.90096067D-04 -0.18711129D-03
 -0.33854273D-04  0.28710490D-03  0.25383300D-03 -0.17844196D-03 -0.10208156D-02
 -0.62709001D-03 -0.44682873D-03  0.15950089D-03 -0.13440899D-03  0.98215462D-03
  0.11793026D-02  0.11105436D-04  0.23193211D-03  0.12282790D-03 -0.30847453D-03
 -0.33602814D-03 -0.63753732D-03  0.27515822D-03 -0.35976818D-03  0.26905363D-03
  0.56039729D-03 -0.26115226D-02 -0.48684718D-02 -0.82285750D-02 -0.12370244D-01
 -0.15198274D-01 -0.12837372D-01 -0.48417843D-02  0.23962261D-04  0.40759061D-04
  0.76313822D-04  0.12993081D-03  0.20098321D-03  0.26468782D-03  0.27502759D-03
  0.17476769D-03 -0.11712524D-03 -0.15133055D-03 -0.43418543D-02 -0.10702783D-02
  0.47959270D-03  0.44964864D-03  0.32017662D-03 -0.72177938D-04 -0.67671405D-04
 -0.48186071D-04  0.45820605D-03  0.42959729D-03  0.30589887D-03 -0.25573355D-02
  0.25566692D-02 -0.19549911D-02 -0.12405485D-02  0.68573295D-04 -0.10586130D-02
  0.32995353D-04 -0.12327576D-03 -0.30173091D-05 -0.23681822D-03  0.23483893D-03
  0.19792962D-05  0.79824245D-03 -0.36475172D-03  0.70817618D-03 -0.83387338D-03
  0.13403398D-02 -0.50646642D-03 -0.34776674D-02 -0.10547613D-02 -0.29714825D-02
 -0.49493153D-04  0.41555054D-04  0.79380986D-05  0.90096066D-04 -0.18711129D-03
 -0.33854273D-04  0.28710490D-03  0.25383300D-03  0.17844196D-03 -0.10208156D-02
 -0.62709001D-03  0.44682873D-03  0.15950089D-03 -0.13440899D-03 -0.98215462D-03
 -0.11793026D-02  0.11105435D-04  0.23193211D-03 -0.12282790D-03 -0.30847453D-03
 -0.33602814D-03  0.63753732D-03  0.27515822D-03 -0.35976818D-03 -0.26905363D-03
 -0.56039729D-03  0.26115226D-02  0.48684718D-02  0.82285751D-02  0.12370244D-01
  0.15198274D-01  0.12837372D-01  0.48417843D-02 -0.23962261D-04 -0.40759062D-04
 -0.76313824D-04 -0.12993082D-03 -0.20098321D-03 -0.26468782D-03 -0.27502760D-03
 -0.17476769D-03  0.11712525D-03  0.15133055D-03  0.43418543D-02  0.10702783D-02
 -0.47959270D-03 -0.44964864D-03 -0.32017662D-03 -0.72177937D-04 -0.67671404D-04
 -0.48186071D-04 -0.45820605D-03 -0.42959729D-03 -0.30589887D-03  0.25573355D-02
  0.25566692D-02  0.19549911D-02  0.12405485D-02  0.68573297D-04  0.10586130D-02
 -0.32995353D-04 -0.12327576D-03  0.30173091D-05  0.23681822D-03 -0.23483893D-03
 -0.19792961D-05  0.79824245D-03  0.36475172D-03  0.70817619D-03  0.83387338D-03
 -0.13403398D-02  0.50646642D-03 -0.34776674D-02  0.10547613D-02 -0.29714825D-02
  0.49493153D-04 -0.41555055D-04 -0.79380985D-05  0.90096067D-04  0.18711129D-03
 -0.33854273D-04 -0.28710490D-03  0.25383300D-03 -0.17844196D-03  0.10208156D-02