 Molden2AIM, Version 4.0.0 (06/02/2016)           Time: Thu Jun 28 03:04:40 2018
GAUSSIAN             16 MOL ORBITALS    300 PRIMITIVES        4 NUCLEI
  F    1    (CENTRE  1)   0.00000000  2.01139992 -1.26898133  CHARGE =  9.0
  F    2    (CENTRE  2)   0.00000000 -2.01139992 -1.26898133  CHARGE =  9.0
  C    3    (CENTRE  3)   0.00000000  0.00000000  0.20106119  CHARGE =  6.0
  O    4    (CENTRE  4)   0.00000000  0.00000000  2.42184088  CHARGE =  8.0
CENTRE ASSIGNMENTS    1  1  1  1  1  1  1  1  1  1  1  1  1  1  1  1  1  1  1  1
CENTRE ASSIGNMENTS    1  1  1  1  1  1  1  1  1  1  1  1  1  1  1  1  1  1  1  1
CENTRE ASSIGNMENTS    1  1  1  1  1  1  1  1  1  1  1  1  1  1  1  1  1  1  1  1
CENTRE ASSIGNMENTS    1  1  1  1  1  1  1  1  1  1  1  1  1  1  1  2  2  2  2  2
CENTRE ASSIGNMENTS    2  2  2  2  2  2  2  2  2  2  2  2  2  2  2  2  2  2  2  2
CENTRE ASSIGNMENTS    2  2  2  2  2  2  2  2  2  2  2  2  2  2  2  2  2  2  2  2
CENTRE ASSIGNMENTS    2  2  2  2  2  2  2  2  2  2  2  2  2  2  2  2  2  2  2  2
CENTRE ASSIGNMENTS    2  2  2  2  2  2  2  2  2  2  3  3  3  3  3  3  3  3  3  3
CENTRE ASSIGNMENTS    3  3  3  3  3  3  3  3  3  3  3  3  3  3  3  3  3  3  3  3
CENTRE ASSIGNMENTS    3  3  3  3  3  3  3  3  3  3  3  3  3  3  3  3  3  3  3  3
CENTRE ASSIGNMENTS    3  3  3  3  3  3  3  3  3  3  3  3  3  3  3  3  3  3  3  3
CENTRE ASSIGNMENTS    3  3  3  3  3  4  4  4  4  4  4  4  4  4  4  4  4  4  4  4
CENTRE ASSIGNMENTS    4  4  4  4  4  4  4  4  4  4  4  4  4  4  4  4  4  4  4  4
CENTRE ASSIGNMENTS    4  4  4  4  4  4  4  4  4  4  4  4  4  4  4  4  4  4  4  4
CENTRE ASSIGNMENTS    4  4  4  4  4  4  4  4  4  4  4  4  4  4  4  4  4  4  4  4
TYPE ASSIGNMENTS      1  1  1  1  1  1  1  1  1  1  1  1  1  1  1  1  1  1  1  2
TYPE ASSIGNMENTS      2  2  3  3  3  4  4  4  2  3  4  2  3  4  2  3  4  5  6  7
TYPE ASSIGNMENTS      8  9 10  5  6  7  8  9 10  5  6  7  8  9 10 11 12 13 17 14
TYPE ASSIGNMENTS     15 18 19 16 20 11 12 13 17 14 15 18 19 16 20  1  1  1  1  1
TYPE ASSIGNMENTS      1  1  1  1  1  1  1  1  1  1  1  1  1  1  2  2  2  3  3  3
TYPE ASSIGNMENTS      4  4  4  2  3  4  2  3  4  2  3  4  5  6  7  8  9 10  5  6
TYPE ASSIGNMENTS      7  8  9 10  5  6  7  8  9 10 11 12 13 17 14 15 18 19 16 20
TYPE ASSIGNMENTS     11 12 13 17 14 15 18 19 16 20  1  1  1  1  1  1  1  1  1  1
TYPE ASSIGNMENTS      1  1  1  1  1  1  1  1  1  2  2  2  3  3  3  4  4  4  2  3
TYPE ASSIGNMENTS      4  2  3  4  2  3  4  5  6  7  8  9 10  5  6  7  8  9 10  5
TYPE ASSIGNMENTS      6  7  8  9 10 11 12 13 17 14 15 18 19 16 20 11 12 13 17 14
TYPE ASSIGNMENTS     15 18 19 16 20  1  1  1  1  1  1  1  1  1  1  1  1  1  1  1
TYPE ASSIGNMENTS      1  1  1  1  2  2  2  3  3  3  4  4  4  2  3  4  2  3  4  2
TYPE ASSIGNMENTS      3  4  5  6  7  8  9 10  5  6  7  8  9 10  5  6  7  8  9 10
TYPE ASSIGNMENTS     11 12 13 17 14 15 18 19 16 20 11 12 13 17 14 15 18 19 16 20
EXPONENTS  0.1950000D+05 0.2923000D+04 0.6645000D+03 0.1875000D+03 0.6062000D+02
EXPONENTS  0.2142000D+02 0.7950000D+01 0.8815000D+00 0.1950000D+05 0.2923000D+04
EXPONENTS  0.6645000D+03 0.1875000D+03 0.6062000D+02 0.2142000D+02 0.7950000D+01
EXPONENTS  0.8815000D+00 0.2257000D+01 0.3041000D+00 0.9158000D-01 0.4388000D+02
EXPONENTS  0.9926000D+01 0.2930000D+01 0.4388000D+02 0.9926000D+01 0.2930000D+01
EXPONENTS  0.4388000D+02 0.9926000D+01 0.2930000D+01 0.9132000D+00 0.9132000D+00
EXPONENTS  0.9132000D+00 0.2672000D+00 0.2672000D+00 0.2672000D+00 0.7361000D-01
EXPONENTS  0.7361000D-01 0.7361000D-01 0.3107000D+01 0.3107000D+01 0.3107000D+01
EXPONENTS  0.3107000D+01 0.3107000D+01 0.3107000D+01 0.8550000D+00 0.8550000D+00
EXPONENTS  0.8550000D+00 0.8550000D+00 0.8550000D+00 0.8550000D+00 0.2920000D+00
EXPONENTS  0.2920000D+00 0.2920000D+00 0.2920000D+00 0.2920000D+00 0.2920000D+00
EXPONENTS  0.1917000D+01 0.1917000D+01 0.1917000D+01 0.1917000D+01 0.1917000D+01
EXPONENTS  0.1917000D+01 0.1917000D+01 0.1917000D+01 0.1917000D+01 0.1917000D+01
EXPONENTS  0.7240000D+00 0.7240000D+00 0.7240000D+00 0.7240000D+00 0.7240000D+00
EXPONENTS  0.7240000D+00 0.7240000D+00 0.7240000D+00 0.7240000D+00 0.7240000D+00
EXPONENTS  0.1950000D+05 0.2923000D+04 0.6645000D+03 0.1875000D+03 0.6062000D+02
EXPONENTS  0.2142000D+02 0.7950000D+01 0.8815000D+00 0.1950000D+05 0.2923000D+04
EXPONENTS  0.6645000D+03 0.1875000D+03 0.6062000D+02 0.2142000D+02 0.7950000D+01
EXPONENTS  0.8815000D+00 0.2257000D+01 0.3041000D+00 0.9158000D-01 0.4388000D+02
EXPONENTS  0.9926000D+01 0.2930000D+01 0.4388000D+02 0.9926000D+01 0.2930000D+01
EXPONENTS  0.4388000D+02 0.9926000D+01 0.2930000D+01 0.9132000D+00 0.9132000D+00
EXPONENTS  0.9132000D+00 0.2672000D+00 0.2672000D+00 0.2672000D+00 0.7361000D-01
EXPONENTS  0.7361000D-01 0.7361000D-01 0.3107000D+01 0.3107000D+01 0.3107000D+01
EXPONENTS  0.3107000D+01 0.3107000D+01 0.3107000D+01 0.8550000D+00 0.8550000D+00
EXPONENTS  0.8550000D+00 0.8550000D+00 0.8550000D+00 0.8550000D+00 0.2920000D+00
EXPONENTS  0.2920000D+00 0.2920000D+00 0.2920000D+00 0.2920000D+00 0.2920000D+00
EXPONENTS  0.1917000D+01 0.1917000D+01 0.1917000D+01 0.1917000D+01 0.1917000D+01
EXPONENTS  0.1917000D+01 0.1917000D+01 0.1917000D+01 0.1917000D+01 0.1917000D+01
EXPONENTS  0.7240000D+00 0.7240000D+00 0.7240000D+00 0.7240000D+00 0.7240000D+00
EXPONENTS  0.7240000D+00 0.7240000D+00 0.7240000D+00 0.7240000D+00 0.7240000D+00
EXPONENTS  0.8236000D+04 0.1235000D+04 0.2808000D+03 0.7927000D+02 0.2559000D+02
EXPONENTS  0.8997000D+01 0.3319000D+01 0.3643000D+00 0.8236000D+04 0.1235000D+04
EXPONENTS  0.2808000D+03 0.7927000D+02 0.2559000D+02 0.8997000D+01 0.3319000D+01
EXPONENTS  0.3643000D+00 0.9059000D+00 0.1285000D+00 0.4402000D-01 0.1871000D+02
EXPONENTS  0.4133000D+01 0.1200000D+01 0.1871000D+02 0.4133000D+01 0.1200000D+01
EXPONENTS  0.1871000D+02 0.4133000D+01 0.1200000D+01 0.3827000D+00 0.3827000D+00
EXPONENTS  0.3827000D+00 0.1209000D+00 0.1209000D+00 0.1209000D+00 0.3569000D-01
EXPONENTS  0.3569000D-01 0.3569000D-01 0.1097000D+01 0.1097000D+01 0.1097000D+01
EXPONENTS  0.1097000D+01 0.1097000D+01 0.1097000D+01 0.3180000D+00 0.3180000D+00
EXPONENTS  0.3180000D+00 0.3180000D+00 0.3180000D+00 0.3180000D+00 0.1000000D+00
EXPONENTS  0.1000000D+00 0.1000000D+00 0.1000000D+00 0.1000000D+00 0.1000000D+00
EXPONENTS  0.7610000D+00 0.7610000D+00 0.7610000D+00 0.7610000D+00 0.7610000D+00
EXPONENTS  0.7610000D+00 0.7610000D+00 0.7610000D+00 0.7610000D+00 0.7610000D+00
EXPONENTS  0.2680000D+00 0.2680000D+00 0.2680000D+00 0.2680000D+00 0.2680000D+00
EXPONENTS  0.2680000D+00 0.2680000D+00 0.2680000D+00 0.2680000D+00 0.2680000D+00
EXPONENTS  0.1533000D+05 0.2299000D+04 0.5224000D+03 0.1473000D+03 0.4755000D+02
EXPONENTS  0.1676000D+02 0.6207000D+01 0.6882000D+00 0.1533000D+05 0.2299000D+04
EXPONENTS  0.5224000D+03 0.1473000D+03 0.4755000D+02 0.1676000D+02 0.6207000D+01
EXPONENTS  0.6882000D+00 0.1752000D+01 0.2384000D+00 0.7376000D-01 0.3446000D+02
EXPONENTS  0.7749000D+01 0.2280000D+01 0.3446000D+02 0.7749000D+01 0.2280000D+01
EXPONENTS  0.3446000D+02 0.7749000D+01 0.2280000D+01 0.7156000D+00 0.7156000D+00
EXPONENTS  0.7156000D+00 0.2140000D+00 0.2140000D+00 0.2140000D+00 0.5974000D-01
EXPONENTS  0.5974000D-01 0.5974000D-01 0.2314000D+01 0.2314000D+01 0.2314000D+01
EXPONENTS  0.2314000D+01 0.2314000D+01 0.2314000D+01 0.6450000D+00 0.6450000D+00
EXPONENTS  0.6450000D+00 0.6450000D+00 0.6450000D+00 0.6450000D+00 0.2140000D+00
EXPONENTS  0.2140000D+00 0.2140000D+00 0.2140000D+00 0.2140000D+00 0.2140000D+00
EXPONENTS  0.1428000D+01 0.1428000D+01 0.1428000D+01 0.1428000D+01 0.1428000D+01
EXPONENTS  0.1428000D+01 0.1428000D+01 0.1428000D+01 0.1428000D+01 0.1428000D+01
EXPONENTS  0.5000000D+00 0.5000000D+00 0.5000000D+00 0.5000000D+00 0.5000000D+00
EXPONENTS  0.5000000D+00 0.5000000D+00 0.5000000D+00 0.5000000D+00 0.5000000D+00
MO    1     MO 0.0        OCC NO =    2.0000000  ORB. ENERGY =  -25.330862
  0.42092849D+00  0.78462895D+00  0.13301390D+01  0.20142224D+01  0.25187922D+01
  0.21684454D+01  0.83362960D+00 -0.36122535D-02  0.18405495D-03  0.34562261D-03
  0.58853569D-03  0.92193768D-03  0.12355050D-02  0.13289522D-02  0.79790113D-03
 -0.52473335D-03  0.42617586D-01 -0.45111441D-03 -0.30765661D-03 -0.12334013D-14
 -0.12062396D-14 -0.79701348D-15 -0.49501061D-02 -0.48410957D-02 -0.31987166D-02
  0.35094658D-02  0.34321809D-02  0.22677871D-02  0.39339762D-15  0.95501784D-03
 -0.67155173D-03  0.13594861D-16  0.57259869D-03 -0.56005937D-03 -0.36172099D-19
  0.24240926D-04 -0.18215465D-04 -0.79192141D-03  0.64283104D-03  0.14909036D-03
 -0.11324264D-16  0.13968762D-17 -0.23184503D-02  0.35652583D-03 -0.32770651D-03
 -0.28819323D-04  0.26470115D-17 -0.16551850D-17  0.11353809D-02  0.95495454D-04
 -0.56118204D-04 -0.39377250D-04 -0.12318827D-17  0.11995313D-17  0.28670475D-03
  0.24162642D-17  0.18792378D-03 -0.10150994D-03 -0.35224473D-17  0.49018637D-04
 -0.22215115D-03 -0.37263452D-17 -0.61278997D-03  0.52668098D-03  0.86042483D-17
 -0.52595396D-18 -0.31241460D-04  0.93536057D-04  0.73941449D-18 -0.24448598D-03
  0.23623821D-03  0.83844739D-18  0.33821036D-03 -0.51684638D-03 -0.44163097D-18
 -0.42092849D+00 -0.78462894D+00 -0.13301390D+01 -0.20142224D+01 -0.25187922D+01
 -0.21684454D+01 -0.83362959D+00  0.36122535D-02 -0.18405495D-03 -0.34562260D-03
 -0.58853569D-03 -0.92193767D-03 -0.12355049D-02 -0.13289522D-02 -0.79790113D-03
  0.52473335D-03 -0.42617586D-01  0.45111441D-03  0.30765661D-03 -0.15310246D-16
 -0.14973086D-16 -0.98933509D-17 -0.49501061D-02 -0.48410956D-02 -0.31987166D-02
 -0.35094658D-02 -0.34321809D-02 -0.22677870D-02  0.18318490D-17  0.95501783D-03
  0.67155172D-03  0.41789477D-18  0.57259868D-03  0.56005937D-03  0.97124382D-19
  0.24240926D-04  0.18215465D-04  0.79192140D-03 -0.64283104D-03 -0.14909036D-03
  0.56629509D-17  0.92375930D-17 -0.23184502D-02 -0.35652583D-03  0.32770651D-03
  0.28819323D-04 -0.18198903D-17 -0.10088752D-17  0.11353809D-02 -0.95495454D-04
  0.56118204D-04  0.39377250D-04  0.32223196D-18 -0.48893076D-19  0.28670475D-03
 -0.59565474D-17  0.18792378D-03  0.10150994D-03  0.15015461D-16  0.49018635D-04
  0.22215115D-03  0.28541811D-17 -0.61278997D-03 -0.52668098D-03  0.40617989D-17
  0.18633359D-17 -0.31241461D-04 -0.93536056D-04 -0.43851349D-17 -0.24448597D-03
 -0.23623821D-03 -0.12048728D-17  0.33821036D-03  0.51684638D-03 -0.28635824D-17
  0.87396796D-12  0.16292750D-11  0.27537617D-11  0.41398059D-11  0.50862299D-11
  0.42961342D-11  0.16203438D-11 -0.80191717D-14 -0.63337656D-12 -0.11858808D-11
 -0.20190635D-11 -0.31231842D-11 -0.41131237D-11 -0.42737990D-11 -0.27158074D-11
  0.18200710D-11 -0.10016637D-11  0.12850048D-11  0.14810456D-12  0.30449961D-17
  0.28548774D-17  0.20328428D-17 -0.41117725D-03 -0.38550481D-03 -0.27450239D-03
  0.86114535D-12  0.80737850D-12  0.57490159D-12 -0.85818450D-18  0.21579388D-02
 -0.47551741D-11 -0.10827472D-17  0.12573376D-03 -0.24401088D-12  0.22653061D-19
  0.67710082D-05 -0.12189253D-13 -0.16718301D-11  0.21304305D-11 -0.45860048D-12
 -0.30586944D-17 -0.10318087D-16 -0.20975529D-02 -0.50350999D-12  0.68139997D-12
 -0.17788998D-12 -0.76387563D-18  0.34490348D-18 -0.79641933D-03 -0.12186421D-13
 -0.15632084D-13  0.27818506D-13 -0.25189973D-18  0.23481143D-18  0.14647542D-04
 -0.22150722D-17  0.34082301D-04  0.40312568D-13  0.47157800D-17 -0.75795249D-03
  0.17627215D-11  0.19294366D-17  0.65570559D-03 -0.18836592D-11 -0.25829863D-17
  0.16487297D-18  0.30496992D-04  0.65483586D-13 -0.38655552D-18 -0.68666773D-05
 -0.90623020D-14 -0.10806339D-18 -0.84624299D-04 -0.18738846D-12 -0.84171455D-18
  0.52068109D-13  0.97048257D-13  0.16456169D-12  0.24907178D-12  0.31076886D-12
  0.26690900D-12  0.10247156D-12 -0.45836156D-15 -0.30979265D-13 -0.58102379D-13
 -0.99051818D-13 -0.15479871D-12 -0.20699537D-12 -0.22102280D-12 -0.13512901D-12
  0.89149911D-13 -0.22708945D-12  0.11330949D-11  0.23667032D-12 -0.79009252D-18
 -0.76612397D-18 -0.51682271D-18 -0.70449111D-04 -0.68311940D-04 -0.46082831D-04
  0.96535823D-12  0.93607275D-12  0.63146915D-12 -0.52085403D-20  0.59438896D-04
 -0.12899881D-11  0.19792772D-18  0.10127291D-03 -0.10388624D-11 -0.31930243D-19
 -0.82812839D-05 -0.36641616D-13 -0.11445908D-12  0.25155309D-12 -0.13709400D-12
  0.55576858D-17 -0.61902864D-18 -0.32465712D-03 -0.28473551D-12 -0.27681371D-12
  0.56154922D-12 -0.34305911D-18 -0.21930228D-18  0.25531809D-03 -0.10957083D-12
 -0.86767350D-13  0.19633818D-12  0.71625484D-18 -0.12263170D-18 -0.43857233D-04
  0.31961471D-18 -0.20368753D-04  0.51978125D-13  0.22443474D-18 -0.27427375D-04
  0.56564323D-12 -0.11832789D-17  0.88533635D-04 -0.72157760D-12 -0.54940464D-18
 -0.31544221D-19  0.31848942D-04 -0.81009294D-13 -0.30105106D-18  0.67377640D-04
  0.87073725D-13  0.39568372D-18 -0.16292447D-03  0.15595416D-12 -0.19515239D-17
MO    2     MO 0.0        OCC NO =    2.0000000  ORB. ENERGY =  -25.330843
  0.42088675D+00  0.78455113D+00  0.13300070D+01  0.20140226D+01  0.25185424D+01
  0.21682304D+01  0.83354692D+00 -0.36118953D-02  0.21442299D-03  0.40264840D-03
  0.68564079D-03  0.10740522D-02  0.14393564D-02  0.15482218D-02  0.92955035D-03
 -0.61131142D-03  0.42600730D-01 -0.25725530D-03 -0.25655739D-03  0.11488932D-14
  0.11235924D-14  0.74240501D-15 -0.48233382D-02 -0.47171194D-02 -0.31168002D-02
  0.34006219D-02  0.33257340D-02  0.21974530D-02 -0.37311451D-15  0.87573495D-03
 -0.62770711D-03 -0.18980174D-16  0.43004007D-03 -0.34860854D-03  0.36785816D-19
  0.17835400D-04 -0.70950209D-05 -0.84546041D-03  0.94121653D-03 -0.95756111D-04
  0.27809908D-17 -0.37654025D-17 -0.18657582D-02  0.35054696D-03 -0.40333493D-03
  0.52787966D-04 -0.41895953D-17  0.28830137D-17  0.93019129D-03  0.56357967D-04
 -0.46523878D-04 -0.98340884D-05  0.13231410D-17 -0.12831743D-17  0.17580574D-03
 -0.12466964D-17 -0.12942942D-03 -0.11117521D-03  0.34046876D-18  0.28586323D-03
 -0.55802780D-04  0.33996204D-17  0.10242502D-03  0.38932841D-03 -0.77343049D-17
  0.43472495D-18  0.78679506D-04  0.85668028D-04 -0.42188689D-18 -0.29024384D-03
  0.14045092D-03 -0.88228796D-18  0.54205318D-04 -0.39745500D-03  0.89500143D-19
  0.42088675D+00  0.78455114D+00  0.13300071D+01  0.20140227D+01  0.25185424D+01
  0.21682304D+01  0.83354693D+00 -0.36118953D-02  0.21442299D-03  0.40264840D-03
  0.68564079D-03  0.10740522D-02  0.14393564D-02  0.15482218D-02  0.92955036D-03
 -0.61131142D-03  0.42600731D-01 -0.25725530D-03 -0.25655739D-03  0.15418719D-16
  0.15079170D-16  0.99634453D-17  0.48233382D-02  0.47171194D-02  0.31168003D-02
  0.34006219D-02  0.33257340D-02  0.21974531D-02 -0.18521321D-17 -0.87573495D-03
 -0.62770712D-03 -0.57327779D-18 -0.43004008D-03 -0.34860854D-03 -0.92712729D-19
 -0.17835400D-04 -0.70950210D-05 -0.84546042D-03  0.94121653D-03 -0.95756110D-04
 -0.54072780D-17 -0.90518362D-17  0.18657582D-02  0.35054696D-03 -0.40333493D-03
  0.52787966D-04  0.17652159D-17  0.85697764D-18 -0.93019130D-03  0.56357967D-04
 -0.46523879D-04 -0.98340886D-05 -0.40616436D-18  0.44587323D-19 -0.17580574D-03
  0.61126547D-17  0.12942942D-03 -0.11117521D-03 -0.15157327D-16 -0.28586323D-03
 -0.55802782D-04 -0.31806377D-17 -0.10242501D-03  0.38932841D-03 -0.37041685D-17
 -0.18986687D-17 -0.78679506D-04  0.85668029D-04  0.43822413D-17  0.29024384D-03
  0.14045092D-03  0.13137647D-17 -0.54205320D-04 -0.39745500D-03  0.26732633D-17
  0.32042425D-03  0.59734365D-03  0.10096160D-02  0.15177835D-02  0.18647725D-02
  0.15750984D-02  0.59406918D-03 -0.29400815D-05 -0.23225635D-03 -0.43485717D-03
 -0.74038154D-03 -0.11452577D-02 -0.15082641D-02 -0.15671830D-02 -0.99587442D-03
  0.66741188D-03 -0.36604512D-03  0.46799646D-03  0.54109024D-04 -0.28558098D-17
 -0.26775032D-17 -0.19065418D-17  0.11237043D-11  0.10535442D-11  0.75018626D-12
  0.31439865D-03  0.29476872D-03  0.20989289D-03  0.80704166D-18 -0.59017021D-11
 -0.17411800D-02  0.11747369D-17 -0.32433116D-12 -0.87140876D-04 -0.27587019D-19
 -0.19228377D-13 -0.44660582D-05 -0.61390895D-03  0.78154627D-03 -0.16763732D-03
  0.27982020D-17  0.10437295D-16  0.57290708D-11 -0.18387668D-03  0.24840410D-03
 -0.64527422D-04  0.70351849D-18 -0.37341211D-18  0.21832715D-11 -0.43796414D-05
 -0.60115474D-05  0.10391189D-04  0.27978476D-18 -0.25744737D-18 -0.43230481D-13
  0.24281324D-17 -0.92121399D-13  0.14433700D-04 -0.51131914D-17  0.20713052D-11
  0.64593762D-03 -0.21712057D-17 -0.17949410D-11 -0.68923872D-03  0.37536032D-17
 -0.17949216D-18 -0.80985982D-13  0.23931876D-04  0.40925032D-18  0.15640539D-13
 -0.35691761D-05  0.12922618D-18  0.22731741D-12 -0.68226452D-04  0.97663000D-18
  0.19500427D-04  0.36346287D-04  0.61631260D-04  0.93281782D-04  0.11638843D-03
  0.99962138D-04  0.38377409D-04 -0.17166450D-06 -0.11643698D-04 -0.21838044D-04
 -0.37229077D-04 -0.58181801D-04 -0.77800154D-04 -0.83072426D-04 -0.50788852D-04
  0.33507400D-04 -0.83290929D-04  0.41225825D-03  0.85110772D-04  0.74105927D-18
  0.71857821D-18  0.48474862D-18  0.18629391D-12  0.18064243D-12  0.12186031D-12
  0.35243351D-03  0.34174195D-03  0.23053710D-03  0.35405153D-19 -0.15527342D-12
 -0.47161730D-03 -0.20752667D-18 -0.28136418D-12 -0.38036143D-03  0.40176658D-19
  0.24143150D-13 -0.13267233D-04 -0.43132227D-04  0.92770048D-04 -0.49637821D-04
 -0.53628532D-17  0.67220064D-18  0.87635618D-12 -0.10377552D-03 -0.10159856D-03
  0.20537408D-03  0.21405352D-18  0.11280081D-18 -0.69613734D-12 -0.40251378D-04
 -0.31713663D-04  0.71965041D-04 -0.79370939D-18  0.12171984D-18  0.12345830D-12
 -0.28749206D-18  0.55129555D-13  0.19164732D-04 -0.30579618D-18  0.63095938D-13
  0.20688530D-03  0.11682723D-17 -0.22848460D-12 -0.26437950D-03  0.57245878D-18
  0.53444594D-20 -0.86957778D-13 -0.29659274D-04  0.31799585D-18 -0.17977435D-12
  0.31833558D-04 -0.33402922D-18  0.44064769D-12  0.57144263D-04  0.22028049D-17
MO    3     MO 0.0        OCC NO =    2.0000000  ORB. ENERGY =  -19.689362
  0.16891693D-03  0.31486847D-03  0.53377946D-03  0.80829942D-03  0.10107813D-02
  0.87018851D-03  0.33453223D-03 -0.14495829D-05 -0.10915379D-03 -0.20497149D-03
 -0.34903111D-03 -0.54675516D-03 -0.73271624D-03 -0.78813511D-03 -0.47319528D-03
  0.31119313D-03 -0.19324011D-03  0.86972488D-03 -0.40665908D-07  0.43394006D-15
  0.42438390D-15  0.28040838D-15  0.43773535D-03  0.42809561D-03  0.28286087D-03
 -0.54563678D-03 -0.53362085D-03 -0.35258586D-03 -0.29978023D-15 -0.58377621D-03
  0.57982610D-03  0.79435719D-16 -0.27932465D-03  0.21642810D-03  0.35773838D-18
 -0.15656926D-04 -0.35865886D-04 -0.39289374D-03  0.12803467D-03  0.26485907D-03
  0.24786755D-16 -0.62440039D-17  0.33250808D-03 -0.18432212D-04  0.69252224D-04
 -0.50820012D-04 -0.12006703D-16  0.26950540D-17 -0.62276945D-03  0.24741864D-04
  0.97686815D-05 -0.34510546D-04  0.18870378D-17  0.13381059D-17 -0.88696498D-04
 -0.27912813D-17 -0.51971503D-04  0.32770299D-03  0.13306875D-16  0.10253148D-02
 -0.71334700D-03 -0.49330311D-17 -0.86940025D-03 -0.26976197D-03 -0.72819349D-17
 -0.52407793D-18  0.83256833D-04 -0.17915742D-03 -0.87864498D-18 -0.30155053D-03
  0.17193454D-03  0.24508788D-17  0.51780029D-04  0.36553773D-03 -0.53956112D-17
  0.16891693D-03  0.31486847D-03  0.53377946D-03  0.80829942D-03  0.10107813D-02
  0.87018851D-03  0.33453223D-03 -0.14495829D-05 -0.10915379D-03 -0.20497149D-03
 -0.34903111D-03 -0.54675516D-03 -0.73271624D-03 -0.78813511D-03 -0.47319528D-03
  0.31119313D-03 -0.19324011D-03  0.86972488D-03 -0.40665910D-07  0.44187284D-18
  0.43214198D-18  0.28553448D-18 -0.43773535D-03 -0.42809561D-03 -0.28286087D-03
 -0.54563678D-03 -0.53362085D-03 -0.35258586D-03  0.20925272D-17  0.58377621D-03
  0.57982610D-03 -0.29714400D-17  0.27932465D-03  0.21642810D-03 -0.67590979D-18
  0.15656926D-04 -0.35865886D-04 -0.39289374D-03  0.12803467D-03  0.26485907D-03
 -0.37313621D-17 -0.17116119D-17 -0.33250808D-03 -0.18432212D-04  0.69252224D-04
 -0.50820012D-04  0.12708857D-17  0.37746934D-18  0.62276945D-03  0.24741864D-04
  0.97686815D-05 -0.34510546D-04 -0.15435495D-17 -0.33317875D-18  0.88696498D-04
  0.50136821D-17  0.51971503D-04  0.32770299D-03 -0.11075003D-17 -0.10253148D-02
 -0.71334700D-03 -0.13933546D-16  0.86940025D-03 -0.26976197D-03  0.22730965D-17
 -0.10588676D-17 -0.83256833D-04 -0.17915742D-03 -0.11732400D-17  0.30155053D-03
  0.17193454D-03  0.43498428D-17 -0.51780029D-04  0.36553773D-03 -0.26892476D-17
  0.31593305D-03  0.58897104D-03  0.99546481D-03  0.14965097D-02  0.18386351D-02
  0.15530212D-02  0.58574247D-03 -0.28988722D-05 -0.26202146D-03 -0.49058685D-03
 -0.83526608D-03 -0.12920296D-02 -0.17015576D-02 -0.17680273D-02 -0.11235020D-02
  0.75294490D-03  0.14805781D-02 -0.13587320D-02 -0.41393580D-04  0.18774441D-16
  0.17602231D-16  0.12533837D-16  0.21466024D-15  0.20125762D-15  0.14330742D-15
  0.13852115D-02  0.12987239D-02  0.92476877D-03 -0.16088386D-17  0.22237167D-15
  0.74578739D-03  0.29132408D-17 -0.10869424D-14 -0.41652163D-03  0.61341185D-20
  0.20634461D-16  0.72605256D-05 -0.13964941D-03 -0.15388892D-03  0.29353833D-03
 -0.38345812D-17  0.33372383D-17 -0.42052437D-15  0.50842375D-03  0.60859826D-04
 -0.56928357D-03 -0.42994462D-18 -0.11136266D-17  0.37885845D-15  0.24585648D-04
  0.47851332D-04 -0.72436980D-04 -0.29576501D-18 -0.28150586D-18  0.19279060D-15
  0.25398284D-17  0.64587367D-16 -0.90109009D-03 -0.79748607D-17 -0.16052568D-15
  0.69887306D-03  0.35537538D-18 -0.33236423D-16  0.20043972D-02  0.26265269D-16
 -0.17266517D-18  0.79370852D-16 -0.15886523D-03 -0.45905157D-18  0.13991701D-15
  0.74107104D-04  0.97704707D-18 -0.37802956D-15  0.40248858D-03  0.13727459D-17
  0.49850257D+00  0.92914465D+00  0.15755215D+01  0.23846251D+01  0.29753159D+01
  0.25553996D+01  0.98106758D+00 -0.43883755D-02 -0.29344708D-03 -0.55036727D-03
 -0.93825554D-03 -0.14663108D-02 -0.19607369D-02 -0.20936099D-02 -0.12799920D-02
  0.84446100D-03  0.49974775D-01  0.14574683D-02  0.13009299D-03  0.23749385D-16
  0.23028915D-16  0.15535170D-16 -0.13084277D-15 -0.12687347D-15 -0.85588096D-16
 -0.86018361D-02 -0.83408875D-02 -0.56267134D-02 -0.20225125D-18  0.23337076D-15
 -0.51240800D-03 -0.83060906D-18  0.42557538D-15  0.82140735D-03 -0.18122827D-18
 -0.81626247D-16  0.11771794D-05 -0.15898387D-02 -0.18488707D-02  0.34387094D-02
  0.52388703D-17 -0.43491612D-17 -0.11207089D-15  0.37830011D-03  0.23667855D-03
 -0.61497866D-03 -0.32997104D-17 -0.54276862D-18 -0.56075624D-16  0.17901037D-03
  0.83570697D-04 -0.26258107D-03 -0.29789338D-18  0.96721221D-19 -0.17341406D-15
  0.94873610D-18 -0.11112346D-15 -0.41092075D-03  0.26117746D-17  0.29674823D-15
  0.53694523D-03 -0.54579829D-17  0.36622136D-16  0.69581701D-03  0.16073575D-16
 -0.31553339D-18  0.25585713D-16  0.23994806D-03 -0.57434789D-18 -0.66087362D-16
 -0.50354044D-03  0.15209481D-17 -0.10669778D-16 -0.21630373D-03  0.44876430D-17
MO    4     MO 0.0        OCC NO =    2.0000000  ORB. ENERGY =  -10.820149
  0.40781290D-03  0.76018092D-03  0.12886935D-02  0.19514618D-02  0.24403099D-02
  0.21008795D-02  0.80765477D-03 -0.34997003D-05 -0.34585614D-03 -0.64945659D-03
 -0.11059126D-02 -0.17324055D-02 -0.23216272D-02 -0.24972230D-02 -0.14993294D-02
  0.98602211D-03  0.28833044D-03  0.78120834D-03 -0.22288127D-03  0.91878256D-15
  0.89854928D-15  0.59370950D-15 -0.16466814D-02 -0.16104184D-02 -0.10640715D-02
  0.13813389D-02  0.13509193D-02  0.89260948D-03 -0.54103076D-15 -0.46267841D-03
  0.29868074D-03  0.89450772D-17  0.44910412D-03 -0.12009946D-03  0.42168814D-18
  0.11772604D-04 -0.73491926D-04 -0.15408296D-02  0.10592012D-02  0.48162843D-03
  0.23765239D-16 -0.16545150D-16 -0.55922932D-02  0.69192991D-03 -0.37612569D-03
 -0.31580422D-03 -0.13276725D-16  0.78825735D-17  0.24836572D-02  0.20807885D-03
 -0.22318288D-03  0.15104032D-04  0.15256723D-17 -0.96905345D-18  0.35948594D-03
 -0.51735550D-18  0.23079172D-05 -0.30399309D-03 -0.21492539D-17  0.97485735D-03
 -0.95055962D-03  0.37013204D-17 -0.98178111D-03  0.18625389D-02  0.50104403D-17
 -0.83306711D-18 -0.84756296D-04  0.42964564D-03  0.30025635D-17 -0.12183534D-02
  0.11115525D-02 -0.50336216D-18  0.14726223D-02 -0.24004894D-02 -0.69328340D-17
  0.40781290D-03  0.76018092D-03  0.12886935D-02  0.19514618D-02  0.24403099D-02
  0.21008795D-02  0.80765477D-03 -0.34997003D-05 -0.34585614D-03 -0.64945659D-03
 -0.11059126D-02 -0.17324055D-02 -0.23216272D-02 -0.24972230D-02 -0.14993294D-02
  0.98602211D-03  0.28833044D-03  0.78120834D-03 -0.22288127D-03 -0.27583720D-17
 -0.26976276D-17 -0.17824366D-17  0.16466814D-02  0.16104184D-02  0.10640715D-02
  0.13813389D-02  0.13509193D-02  0.89260948D-03 -0.13304753D-17  0.46267841D-03
  0.29868074D-03 -0.22236828D-17 -0.44910412D-03 -0.12009946D-03  0.67235915D-19
 -0.11772604D-04 -0.73491926D-04 -0.15408296D-02  0.10592012D-02  0.48162843D-03
 -0.37483407D-17  0.35209312D-17  0.55922932D-02  0.69192991D-03 -0.37612569D-03
 -0.31580422D-03  0.68782811D-19 -0.23129347D-17 -0.24836572D-02  0.20807885D-03
 -0.22318288D-03  0.15104032D-04 -0.11047189D-17  0.12579975D-17 -0.35948594D-03
  0.64045953D-17 -0.23079172D-05 -0.30399309D-03 -0.88321069D-17 -0.97485735D-03
 -0.95055962D-03 -0.10381679D-16  0.98178111D-03  0.18625389D-02 -0.24241068D-18
 -0.19443192D-17  0.84756296D-04  0.42964564D-03  0.17301779D-17  0.12183534D-02
  0.11115525D-02  0.41027798D-17 -0.14726223D-02 -0.24004894D-02 -0.54079707D-18
  0.32965076D+00  0.61454398D+00  0.10386876D+01  0.15614877D+01  0.19184680D+01
  0.16204529D+01  0.61117522D+00 -0.30247403D-02 -0.25758349D-02 -0.48227757D-02
 -0.82111882D-02 -0.12701460D-01 -0.16727375D-01 -0.17380815D-01 -0.11044727D-01
  0.74019195D-02  0.32706020D-01  0.64535112D-03  0.11847308D-03  0.12811843D-16
  0.12011917D-16  0.85532008D-17 -0.18158745D-14 -0.17024978D-14 -0.12122798D-14
 -0.34352796D-02 -0.32207930D-02 -0.22933965D-02 -0.42958870D-17  0.49795623D-14
  0.42857004D-02  0.19502636D-17  0.24379752D-14 -0.33907523D-04 -0.31355923D-18
  0.43839363D-16  0.17273087D-04 -0.50067114D-02  0.58903452D-03  0.44176769D-02
 -0.10603075D-16  0.78239379D-17 -0.61070960D-15  0.53058963D-03 -0.55067618D-03
  0.20086550D-04  0.11228369D-17 -0.39359167D-18 -0.57933731D-15  0.46957345D-04
  0.42546955D-04 -0.89504299D-04  0.71406727D-18 -0.79582216D-18 -0.32860028D-15
  0.57297554D-17  0.15357895D-15  0.14758596D-02 -0.11819827D-16 -0.10380496D-14
 -0.12343625D-02 -0.53694394D-17  0.57731279D-15 -0.31932163D-02  0.26740873D-16
 -0.11694618D-18  0.77799685D-15 -0.27295235D-03 -0.62603455D-19 -0.27517039D-15
  0.22850291D-04  0.41344200D-18 -0.20588202D-14  0.79600677D-03  0.37764005D-17
  0.21537842D-03  0.40143766D-03  0.68070527D-03  0.10302791D-02  0.12854875D-02
  0.11040624D-02  0.42387101D-03 -0.18960010D-05 -0.29441132D-03 -0.55217572D-03
 -0.94133856D-03 -0.14711289D-02 -0.19671797D-02 -0.21004893D-02 -0.12841980D-02
  0.84723582D-03  0.10713974D-02 -0.27364490D-02 -0.61112254D-03  0.73064825D-18
  0.70848302D-18  0.47793846D-18 -0.15620221D-14 -0.15146360D-14 -0.10217645D-14
 -0.44069887D-02 -0.42732966D-02 -0.28827407D-02  0.64766315D-18  0.20544224D-14
  0.37782632D-02  0.57654039D-18  0.92969460D-15  0.30928790D-02  0.48698841D-18
  0.21809989D-16  0.68500850D-04 -0.60062858D-03 -0.65228558D-03  0.12529142D-02
  0.55112819D-17  0.79684035D-18 -0.66327664D-15  0.15960321D-02  0.15554013D-02
 -0.31514333D-02 -0.32132332D-17 -0.26563928D-17  0.16030141D-15  0.36832723D-03
  0.23714397D-03 -0.60547121D-03 -0.24759397D-17 -0.37895819D-18  0.12531011D-17
  0.98566468D-18  0.23785968D-16  0.83176381D-03 -0.15358520D-17 -0.79290412D-15
 -0.10629370D-02 -0.14211420D-17  0.72154621D-15 -0.14323545D-02 -0.63269126D-17
 -0.75258792D-18  0.12427489D-15  0.63321133D-03  0.56241925D-18  0.56986439D-15
 -0.94133980D-03  0.16953445D-17 -0.94268907D-15 -0.95829418D-03  0.90465276D-17
MO    5     MO 0.0        OCC NO =    2.0000000  ORB. ENERGY =   -1.495593
 -0.46458403D-02 -0.86600475D-02 -0.14680910D-01 -0.22231224D-01 -0.27800223D-01
 -0.23933403D-01 -0.92008738D-02  0.39868892D-04 -0.81165888D-01 -0.15241516D+00
 -0.25953674D+00 -0.40656276D+00 -0.54484193D+00 -0.58605095D+00 -0.35186422D+00
  0.23140072D+00  0.13659128D+00  0.54797039D-01  0.29687540D-03 -0.13365091D-15
 -0.13070768D-15 -0.86364087D-16 -0.24635678D+00 -0.24093155D+00 -0.15919366D+00
  0.14618736D+00  0.14296805D+00  0.94465032D-01  0.26687434D-15 -0.58184358D-01
  0.34270929D-01 -0.58293005D-16 -0.24904951D-02  0.24463097D-03  0.80442169D-17
  0.12675065D-03 -0.11053374D-04 -0.17967091D-01  0.19985656D-01 -0.20185643D-02
 -0.12986714D-15 -0.10344147D-15 -0.49314926D-01 -0.54337792D-02  0.66794636D-02
 -0.12456845D-02  0.31957732D-16  0.47473131D-17 -0.15871969D-01  0.19381015D-03
 -0.13450343D-03 -0.59306716D-04 -0.63845798D-17  0.19078351D-16  0.10444991D-02
  0.65885974D-17 -0.26467691D-02 -0.46266192D-02 -0.19128390D-18  0.14958885D-01
 -0.80708745D-02 -0.19574508D-16 -0.70185773D-02  0.21950732D-01  0.44239437D-16
 -0.25047273D-17 -0.20649831D-03 -0.26793551D-03 -0.59038828D-17  0.82826338D-03
 -0.11465002D-02  0.13418065D-16 -0.20876846D-03  0.19503067D-02 -0.38915015D-17
 -0.46458403D-02 -0.86600475D-02 -0.14680910D-01 -0.22231224D-01 -0.27800223D-01
 -0.23933403D-01 -0.92008738D-02  0.39868892D-04 -0.81165888D-01 -0.15241516D+00
 -0.25953674D+00 -0.40656276D+00 -0.54484193D+00 -0.58605095D+00 -0.35186422D+00
  0.23140072D+00  0.13659128D+00  0.54797039D-01  0.29687540D-03  0.16861994D-15
  0.16490661D-15  0.10896077D-15  0.24635678D+00  0.24093155D+00  0.15919366D+00
  0.14618736D+00  0.14296805D+00  0.94465032D-01  0.28112381D-16  0.58184358D-01
  0.34270929D-01  0.94386280D-17  0.24904951D-02  0.24463097D-03 -0.34712299D-17
 -0.12675065D-03 -0.11053374D-04 -0.17967091D-01  0.19985656D-01 -0.20185643D-02
  0.81700874D-17  0.23346390D-16  0.49314926D-01 -0.54337792D-02  0.66794636D-02
 -0.12456845D-02 -0.21461826D-17  0.22371959D-16  0.15871969D-01  0.19381015D-03
 -0.13450343D-03 -0.59306716D-04 -0.31500386D-20 -0.65852730D-17 -0.10444991D-02
 -0.77196701D-17  0.26467691D-02 -0.46266192D-02 -0.79683686D-18 -0.14958885D-01
 -0.80708745D-02  0.23955847D-16  0.70185773D-02  0.21950732D-01 -0.78499012D-17
  0.55343167D-18  0.20649831D-03 -0.26793551D-03  0.55221602D-17 -0.82826338D-03
 -0.11465002D-02 -0.71824552D-17  0.20876846D-03  0.19503067D-02  0.76322293D-17