 Molden2AIM, Version 4.0.0 (06/02/2016)           Time: Thu Jun 28 06:44:31 2018
GAUSSIAN             20 MOL ORBITALS    356 PRIMITIVES        4 NUCLEI
  F    1    (CENTRE  1)   0.00000000  2.00203066 -1.47258987  CHARGE =  9.0
  F    2    (CENTRE  2)   0.00000000 -2.00203066 -1.47258987  CHARGE =  9.0
  C    3    (CENTRE  3)   0.00000000  0.00000000  0.00225066  CHARGE =  6.0
  S    4    (CENTRE  4)   0.00000000  0.00000000  3.02786849  CHARGE = 16.0
CENTRE ASSIGNMENTS    1  1  1  1  1  1  1  1  1  1  1  1  1  1  1  1  1  1  1  1
CENTRE ASSIGNMENTS    1  1  1  1  1  1  1  1  1  1  1  1  1  1  1  1  1  1  1  1
CENTRE ASSIGNMENTS    1  1  1  1  1  1  1  1  1  1  1  1  1  1  1  1  1  1  1  1
CENTRE ASSIGNMENTS    1  1  1  1  1  1  1  1  1  1  1  1  1  1  1  2  2  2  2  2
CENTRE ASSIGNMENTS    2  2  2  2  2  2  2  2  2  2  2  2  2  2  2  2  2  2  2  2
CENTRE ASSIGNMENTS    2  2  2  2  2  2  2  2  2  2  2  2  2  2  2  2  2  2  2  2
CENTRE ASSIGNMENTS    2  2  2  2  2  2  2  2  2  2  2  2  2  2  2  2  2  2  2  2
CENTRE ASSIGNMENTS    2  2  2  2  2  2  2  2  2  2  3  3  3  3  3  3  3  3  3  3
CENTRE ASSIGNMENTS    3  3  3  3  3  3  3  3  3  3  3  3  3  3  3  3  3  3  3  3
CENTRE ASSIGNMENTS    3  3  3  3  3  3  3  3  3  3  3  3  3  3  3  3  3  3  3  3
CENTRE ASSIGNMENTS    3  3  3  3  3  3  3  3  3  3  3  3  3  3  3  3  3  3  3  3
CENTRE ASSIGNMENTS    3  3  3  3  3  4  4  4  4  4  4  4  4  4  4  4  4  4  4  4
CENTRE ASSIGNMENTS    4  4  4  4  4  4  4  4  4  4  4  4  4  4  4  4  4  4  4  4
CENTRE ASSIGNMENTS    4  4  4  4  4  4  4  4  4  4  4  4  4  4  4  4  4  4  4  4
CENTRE ASSIGNMENTS    4  4  4  4  4  4  4  4  4  4  4  4  4  4  4  4  4  4  4  4
CENTRE ASSIGNMENTS    4  4  4  4  4  4  4  4  4  4  4  4  4  4  4  4  4  4  4  4
CENTRE ASSIGNMENTS    4  4  4  4  4  4  4  4  4  4  4  4  4  4  4  4  4  4  4  4
CENTRE ASSIGNMENTS    4  4  4  4  4  4  4  4  4  4  4  4  4  4  4  4
TYPE ASSIGNMENTS      1  1  1  1  1  1  1  1  1  1  1  1  1  1  1  1  1  1  1  2
TYPE ASSIGNMENTS      2  2  3  3  3  4  4  4  2  3  4  2  3  4  2  3  4  5  6  7
TYPE ASSIGNMENTS      8  9 10  5  6  7  8  9 10  5  6  7  8  9 10 11 12 13 17 14
TYPE ASSIGNMENTS     15 18 19 16 20 11 12 13 17 14 15 18 19 16 20  1  1  1  1  1
TYPE ASSIGNMENTS      1  1  1  1  1  1  1  1  1  1  1  1  1  1  2  2  2  3  3  3
TYPE ASSIGNMENTS      4  4  4  2  3  4  2  3  4  2  3  4  5  6  7  8  9 10  5  6
TYPE ASSIGNMENTS      7  8  9 10  5  6  7  8  9 10 11 12 13 17 14 15 18 19 16 20
TYPE ASSIGNMENTS     11 12 13 17 14 15 18 19 16 20  1  1  1  1  1  1  1  1  1  1
TYPE ASSIGNMENTS      1  1  1  1  1  1  1  1  1  2  2  2  3  3  3  4  4  4  2  3
TYPE ASSIGNMENTS      4  2  3  4  2  3  4  5  6  7  8  9 10  5  6  7  8  9 10  5
TYPE ASSIGNMENTS      6  7  8  9 10 11 12 13 17 14 15 18 19 16 20 11 12 13 17 14
TYPE ASSIGNMENTS     15 18 19 16 20  1  1  1  1  1  1  1  1  1  1  1  1  1  1  1
TYPE ASSIGNMENTS      1  1  1  1  1  1  1  1  1  1  1  1  1  1  1  1  1  1  1  1
TYPE ASSIGNMENTS      1  1  1  1  1  1  1  2  2  2  2  2  2  2  3  3  3  3  3  3
TYPE ASSIGNMENTS      3  4  4  4  4  4  4  4  2  2  2  2  2  2  2  3  3  3  3  3
TYPE ASSIGNMENTS      3  3  4  4  4  4  4  4  4  2  3  4  2  3  4  2  3  4  5  6
TYPE ASSIGNMENTS      7  8  9 10  5  6  7  8  9 10  5  6  7  8  9 10 11 12 13 17
TYPE ASSIGNMENTS     14 15 18 19 16 20 11 12 13 17 14 15 18 19 16 20
EXPONENTS  0.1950000D+05 0.2923000D+04 0.6645000D+03 0.1875000D+03 0.6062000D+02
EXPONENTS  0.2142000D+02 0.7950000D+01 0.8815000D+00 0.1950000D+05 0.2923000D+04
EXPONENTS  0.6645000D+03 0.1875000D+03 0.6062000D+02 0.2142000D+02 0.7950000D+01
EXPONENTS  0.8815000D+00 0.2257000D+01 0.3041000D+00 0.9158000D-01 0.4388000D+02
EXPONENTS  0.9926000D+01 0.2930000D+01 0.4388000D+02 0.9926000D+01 0.2930000D+01
EXPONENTS  0.4388000D+02 0.9926000D+01 0.2930000D+01 0.9132000D+00 0.9132000D+00
EXPONENTS  0.9132000D+00 0.2672000D+00 0.2672000D+00 0.2672000D+00 0.7361000D-01
EXPONENTS  0.7361000D-01 0.7361000D-01 0.3107000D+01 0.3107000D+01 0.3107000D+01
EXPONENTS  0.3107000D+01 0.3107000D+01 0.3107000D+01 0.8550000D+00 0.8550000D+00
EXPONENTS  0.8550000D+00 0.8550000D+00 0.8550000D+00 0.8550000D+00 0.2920000D+00
EXPONENTS  0.2920000D+00 0.2920000D+00 0.2920000D+00 0.2920000D+00 0.2920000D+00
EXPONENTS  0.1917000D+01 0.1917000D+01 0.1917000D+01 0.1917000D+01 0.1917000D+01
EXPONENTS  0.1917000D+01 0.1917000D+01 0.1917000D+01 0.1917000D+01 0.1917000D+01
EXPONENTS  0.7240000D+00 0.7240000D+00 0.7240000D+00 0.7240000D+00 0.7240000D+00
EXPONENTS  0.7240000D+00 0.7240000D+00 0.7240000D+00 0.7240000D+00 0.7240000D+00
EXPONENTS  0.1950000D+05 0.2923000D+04 0.6645000D+03 0.1875000D+03 0.6062000D+02
EXPONENTS  0.2142000D+02 0.7950000D+01 0.8815000D+00 0.1950000D+05 0.2923000D+04
EXPONENTS  0.6645000D+03 0.1875000D+03 0.6062000D+02 0.2142000D+02 0.7950000D+01
EXPONENTS  0.8815000D+00 0.2257000D+01 0.3041000D+00 0.9158000D-01 0.4388000D+02
EXPONENTS  0.9926000D+01 0.2930000D+01 0.4388000D+02 0.9926000D+01 0.2930000D+01
EXPONENTS  0.4388000D+02 0.9926000D+01 0.2930000D+01 0.9132000D+00 0.9132000D+00
EXPONENTS  0.9132000D+00 0.2672000D+00 0.2672000D+00 0.2672000D+00 0.7361000D-01
EXPONENTS  0.7361000D-01 0.7361000D-01 0.3107000D+01 0.3107000D+01 0.3107000D+01
EXPONENTS  0.3107000D+01 0.3107000D+01 0.3107000D+01 0.8550000D+00 0.8550000D+00
EXPONENTS  0.8550000D+00 0.8550000D+00 0.8550000D+00 0.8550000D+00 0.2920000D+00
EXPONENTS  0.2920000D+00 0.2920000D+00 0.2920000D+00 0.2920000D+00 0.2920000D+00
EXPONENTS  0.1917000D+01 0.1917000D+01 0.1917000D+01 0.1917000D+01 0.1917000D+01
EXPONENTS  0.1917000D+01 0.1917000D+01 0.1917000D+01 0.1917000D+01 0.1917000D+01
EXPONENTS  0.7240000D+00 0.7240000D+00 0.7240000D+00 0.7240000D+00 0.7240000D+00
EXPONENTS  0.7240000D+00 0.7240000D+00 0.7240000D+00 0.7240000D+00 0.7240000D+00
EXPONENTS  0.8236000D+04 0.1235000D+04 0.2808000D+03 0.7927000D+02 0.2559000D+02
EXPONENTS  0.8997000D+01 0.3319000D+01 0.3643000D+00 0.8236000D+04 0.1235000D+04
EXPONENTS  0.2808000D+03 0.7927000D+02 0.2559000D+02 0.8997000D+01 0.3319000D+01
EXPONENTS  0.3643000D+00 0.9059000D+00 0.1285000D+00 0.4402000D-01 0.1871000D+02
EXPONENTS  0.4133000D+01 0.1200000D+01 0.1871000D+02 0.4133000D+01 0.1200000D+01
EXPONENTS  0.1871000D+02 0.4133000D+01 0.1200000D+01 0.3827000D+00 0.3827000D+00
EXPONENTS  0.3827000D+00 0.1209000D+00 0.1209000D+00 0.1209000D+00 0.3569000D-01
EXPONENTS  0.3569000D-01 0.3569000D-01 0.1097000D+01 0.1097000D+01 0.1097000D+01
EXPONENTS  0.1097000D+01 0.1097000D+01 0.1097000D+01 0.3180000D+00 0.3180000D+00
EXPONENTS  0.3180000D+00 0.3180000D+00 0.3180000D+00 0.3180000D+00 0.1000000D+00
EXPONENTS  0.1000000D+00 0.1000000D+00 0.1000000D+00 0.1000000D+00 0.1000000D+00
EXPONENTS  0.7610000D+00 0.7610000D+00 0.7610000D+00 0.7610000D+00 0.7610000D+00
EXPONENTS  0.7610000D+00 0.7610000D+00 0.7610000D+00 0.7610000D+00 0.7610000D+00
EXPONENTS  0.2680000D+00 0.2680000D+00 0.2680000D+00 0.2680000D+00 0.2680000D+00
EXPONENTS  0.2680000D+00 0.2680000D+00 0.2680000D+00 0.2680000D+00 0.2680000D+00
EXPONENTS  0.3741000D+06 0.5605000D+05 0.1276000D+05 0.3615000D+04 0.1183000D+04
EXPONENTS  0.4288000D+03 0.1678000D+03 0.6947000D+02 0.2984000D+02 0.1272000D+02
EXPONENTS  0.5244000D+01 0.2219000D+01 0.3490000D+00 0.3741000D+06 0.5605000D+05
EXPONENTS  0.1276000D+05 0.3615000D+04 0.1183000D+04 0.4288000D+03 0.1678000D+03
EXPONENTS  0.6947000D+02 0.2984000D+02 0.1272000D+02 0.5244000D+01 0.2219000D+01
EXPONENTS  0.3490000D+00 0.3741000D+06 0.5605000D+05 0.1276000D+05 0.3615000D+04
EXPONENTS  0.1183000D+04 0.4288000D+03 0.1678000D+03 0.6947000D+02 0.2984000D+02
EXPONENTS  0.1272000D+02 0.5244000D+01 0.2219000D+01 0.3490000D+00 0.7767000D+00
EXPONENTS  0.1322000D+00 0.4970000D-01 0.5744000D+03 0.1358000D+03 0.4319000D+02
EXPONENTS  0.1587000D+02 0.6208000D+01 0.2483000D+01 0.3229000D+00 0.5744000D+03
EXPONENTS  0.1358000D+03 0.4319000D+02 0.1587000D+02 0.6208000D+01 0.2483000D+01
EXPONENTS  0.3229000D+00 0.5744000D+03 0.1358000D+03 0.4319000D+02 0.1587000D+02
EXPONENTS  0.6208000D+01 0.2483000D+01 0.3229000D+00 0.5744000D+03 0.1358000D+03
EXPONENTS  0.4319000D+02 0.1587000D+02 0.6208000D+01 0.2483000D+01 0.3229000D+00
EXPONENTS  0.5744000D+03 0.1358000D+03 0.4319000D+02 0.1587000D+02 0.6208000D+01
EXPONENTS  0.2483000D+01 0.3229000D+00 0.5744000D+03 0.1358000D+03 0.4319000D+02
EXPONENTS  0.1587000D+02 0.6208000D+01 0.2483000D+01 0.3229000D+00 0.8688000D+00
EXPONENTS  0.8688000D+00 0.8688000D+00 0.1098000D+00 0.1098000D+00 0.1098000D+00
EXPONENTS  0.3510000D-01 0.3510000D-01 0.3510000D-01 0.2690000D+00 0.2690000D+00
EXPONENTS  0.2690000D+00 0.2690000D+00 0.2690000D+00 0.2690000D+00 0.8190000D+00
EXPONENTS  0.8190000D+00 0.8190000D+00 0.8190000D+00 0.8190000D+00 0.8190000D+00
EXPONENTS  0.1010000D+00 0.1010000D+00 0.1010000D+00 0.1010000D+00 0.1010000D+00
EXPONENTS  0.1010000D+00 0.5570000D+00 0.5570000D+00 0.5570000D+00 0.5570000D+00
EXPONENTS  0.5570000D+00 0.5570000D+00 0.5570000D+00 0.5570000D+00 0.5570000D+00
EXPONENTS  0.5570000D+00 0.2180000D+00 0.2180000D+00 0.2180000D+00 0.2180000D+00
EXPONENTS  0.2180000D+00 0.2180000D+00 0.2180000D+00 0.2180000D+00 0.2180000D+00
EXPONENTS  0.2180000D+00
MO    1     MO 0.0        OCC NO =    2.0000000  ORB. ENERGY =  -89.954323
  0.40765585D-04  0.75988816D-04  0.12881973D-03  0.19507103D-03  0.24393701D-03
  0.21000704D-03  0.80734373D-04 -0.34983526D-06 -0.27263760D-04 -0.51196513D-04
 -0.87178833D-04 -0.13656513D-03 -0.18301333D-03 -0.19685552D-03 -0.11819179D-03
  0.77727896D-04 -0.15204549D-04  0.22626775D-03  0.21701407D-03  0.18562383D-15
  0.18153605D-15  0.11994854D-15 -0.48308080D-04 -0.47244247D-04 -0.31216272D-04
 -0.49286932D-04 -0.48201543D-04 -0.31848798D-04 -0.88820280D-16 -0.28381900D-05
  0.71966937D-04  0.25022629D-18 -0.54716662D-04 -0.68906732D-04 -0.29278345D-19
 -0.15482692D-04  0.29052897D-04 -0.85387795D-04 -0.66213447D-05  0.92009139D-04
 -0.77465684D-18  0.21745469D-18 -0.30580723D-04  0.31429739D-04  0.41333278D-05
 -0.35563067D-04  0.24908948D-18 -0.92207765D-19  0.10803858D-04  0.28232399D-04
  0.10350647D-05 -0.29267464D-04 -0.30961038D-20 -0.21479727D-19  0.57118242D-04
 -0.12338721D-18  0.41956419D-05  0.16157634D-04  0.12242875D-18  0.22375074D-03
 -0.21862620D-04  0.24773289D-18 -0.23633767D-03 -0.26610282D-04 -0.32938622D-18
  0.34952886D-19  0.11151270D-05 -0.36830340D-05 -0.22119618D-19 -0.90152214D-04
  0.31215768D-04 -0.82739042D-19  0.86806833D-04 -0.20166666D-04  0.15771054D-18
  0.40765585D-04  0.75988816D-04  0.12881973D-03  0.19507103D-03  0.24393701D-03
  0.21000704D-03  0.80734373D-04 -0.34983526D-06 -0.27263760D-04 -0.51196513D-04
 -0.87178833D-04 -0.13656513D-03 -0.18301333D-03 -0.19685552D-03 -0.11819179D-03
  0.77727896D-04 -0.15204549D-04  0.22626775D-03  0.21701407D-03  0.41695574D-19
  0.40777361D-19  0.26943326D-19  0.48308080D-04  0.47244247D-04  0.31216272D-04
 -0.49286932D-04 -0.48201543D-04 -0.31848798D-04 -0.30454381D-19  0.28381900D-05
  0.71966937D-04  0.17921823D-18  0.54716662D-04 -0.68906732D-04  0.20079818D-19
  0.15482692D-04  0.29052897D-04 -0.85387795D-04 -0.66213447D-05  0.92009139D-04
 -0.40663706D-18  0.25850303D-18  0.30580724D-04  0.31429739D-04  0.41333278D-05
 -0.35563067D-04  0.11631074D-18 -0.97789746D-19 -0.10803858D-04  0.28232399D-04
  0.10350647D-05 -0.29267464D-04  0.11248036D-18  0.13785274D-18 -0.57118242D-04
  0.21344067D-18 -0.41956419D-05  0.16157634D-04 -0.20914132D-18 -0.22375074D-03
 -0.21862620D-04 -0.43118068D-18  0.23633767D-03 -0.26610282D-04 -0.11610517D-17
 -0.66389806D-19 -0.11151270D-05 -0.36830340D-05  0.90701621D-19  0.90152214D-04
  0.31215768D-04  0.10846780D-18 -0.86806833D-04 -0.20166666D-04  0.39283522D-18
  0.49283772D-04  0.91876156D-04  0.15528689D-03  0.23344706D-03  0.28681668D-03
  0.24226254D-03  0.91372517D-04 -0.45220769D-06 -0.43262741D-04 -0.81001502D-04
 -0.13791199D-03 -0.21332888D-03 -0.28094662D-03 -0.29192154D-03 -0.18550303D-03
  0.12431982D-03  0.30574261D-03  0.28309766D-03  0.80369869D-05  0.34128520D-18
  0.31997657D-18  0.22784238D-18  0.26768682D-16  0.25097341D-16  0.17870802D-16
  0.31011316D-03  0.29075080D-03  0.20703189D-03 -0.19101628D-18 -0.87941651D-15
 -0.41573439D-03 -0.56428988D-19 -0.13694606D-15  0.38648632D-03  0.50450773D-20
  0.18193667D-17 -0.85201944D-05 -0.13138438D-03  0.83021507D-04  0.48362872D-04
  0.19006501D-19 -0.58406626D-18  0.87428661D-15  0.17234335D-03  0.13021233D-03
 -0.30255568D-03  0.21389313D-18  0.11743361D-18  0.32487314D-15  0.98404031D-05
 -0.12124395D-04  0.22839921D-05  0.12751591D-19 -0.13329904D-20  0.64527064D-16
 -0.54165903D-19 -0.65866964D-16 -0.65301532D-04  0.12746283D-18  0.11011294D-15
  0.17964773D-03  0.35034882D-19  0.87487950D-16  0.16256867D-04 -0.41556691D-18
  0.11813846D-19 -0.17657698D-16 -0.59507056D-04 -0.26201191D-19  0.37209785D-17
  0.17470270D-04 -0.92403469D-20  0.49252116D-16  0.16105090D-03 -0.89471923D-20
  0.58509919D+00  0.10938089D+01  0.18904434D+01  0.30577073D+01  0.46215455D+01
  0.63646265D+01  0.74387728D+01  0.64276609D+01  0.29978840D+01  0.40704788D+00
  0.10899739D-02  0.21380783D-02  0.97612203D-04 -0.11095856D-02 -0.20721984D-02
 -0.35945488D-02 -0.58284365D-02 -0.89735416D-02 -0.12780339D-01 -0.16433857D-01
 -0.17250659D-01 -0.12197439D-01  0.27011738D-03  0.87640172D-02  0.48257057D-02
 -0.20407828D-04  0.48007038D-03  0.89588236D-03  0.15560404D-02  0.25204402D-02
  0.38933425D-02  0.55505448D-02  0.72194457D-02  0.76939830D-02  0.57064672D-02
 -0.17762113D-03 -0.51697620D-02 -0.50645824D-02  0.23654604D-02 -0.25817769D-02
 -0.11081667D-02 -0.13552585D-03 -0.49804056D-17 -0.65340209D-17 -0.71668250D-17
 -0.58969772D-17 -0.31090030D-17 -0.80881564D-18  0.89503696D-21 -0.49322933D-15
 -0.64709002D-15 -0.70975912D-15 -0.58400105D-15 -0.30789690D-15 -0.80100222D-16
  0.88639062D-19 -0.93611061D-02 -0.12281261D-01 -0.13470672D-01 -0.11083882D-01
 -0.58436420D-02 -0.15202394D-02  0.16822999D-05  0.10629846D-17  0.13957053D-17
  0.15702625D-17  0.13230649D-17  0.74010395D-18  0.18421037D-18 -0.84487750D-19
  0.45698209D-15  0.60002026D-15  0.67506325D-15  0.56879183D-15  0.31817417D-15
  0.79192904D-16 -0.36321682D-16  0.81900080D-02  0.10753530D-01  0.12098447D-01
  0.10193856D-01  0.57023002D-02  0.14192909D-02 -0.65095520D-03  0.28521151D-18
  0.18111857D-17  0.13544735D-03  0.44949905D-19 -0.10530734D-15  0.44883818D-03
 -0.84607119D-20 -0.28159232D-17  0.10056729D-04  0.80313576D-05 -0.34219069D-04
  0.26187712D-04  0.11201700D-19  0.42114993D-20  0.73310369D-16 -0.19478211D-03
 -0.17883927D-03  0.37362138D-03  0.13846499D-18  0.36361838D-20  0.12584870D-16
  0.25320848D-04  0.27060523D-04 -0.52381371D-04 -0.41511112D-20 -0.47941198D-20
  0.25375318D-16 -0.32498461D-20  0.69877307D-17 -0.11334006D-03 -0.14339071D-19
  0.55579514D-17  0.13502886D-03  0.24088610D-19 -0.26521144D-16  0.20499130D-03
 -0.21535986D-18 -0.65682444D-21  0.42815859D-17  0.17408855D-04  0.10889881D-20
  0.36980029D-17 -0.33386960D-04  0.88148518D-21 -0.16542760D-16 -0.18839605D-04
  0.18516062D-19
MO    2     MO 0.0        OCC NO =    2.0000000  ORB. ENERGY =  -25.325792
  0.42092799D+00  0.78462801D+00  0.13301374D+01  0.20142200D+01  0.25187892D+01
  0.21684429D+01  0.83362860D+00 -0.36122492D-02  0.18498399D-03  0.34736717D-03
  0.59150638D-03  0.92659125D-03  0.12417413D-02  0.13356602D-02  0.80192861D-03
 -0.52738200D-03  0.42612171D-01 -0.44218860D-03 -0.31169494D-03 -0.19747350D-15
 -0.19312477D-15 -0.12760570D-15 -0.48592401D-02 -0.47522306D-02 -0.31399997D-02
  0.34741658D-02  0.33976582D-02  0.22449764D-02 -0.19771428D-16  0.91594228D-03
 -0.66323959D-03  0.61867309D-17  0.54802397D-03 -0.64352260D-03  0.78016801D-19
  0.22610318D-04 -0.23447218D-04 -0.75693397D-03  0.58223568D-03  0.17469829D-03
  0.41840414D-16  0.72334206D-17 -0.23631192D-02  0.33611169D-03 -0.28428301D-03
 -0.51828674D-04 -0.19734760D-17 -0.78799361D-19  0.11428262D-02  0.10010632D-03
 -0.38757228D-04 -0.61349095D-04 -0.41598619D-18  0.63932371D-18  0.30303544D-03
  0.98118774D-18  0.19149578D-03 -0.12605050D-03  0.85224334D-18  0.57862629D-04
 -0.18536889D-03 -0.37958066D-17 -0.63234997D-03  0.56352039D-03  0.50851255D-17
 -0.40503908D-18 -0.51618646D-04  0.93373595D-04  0.16824227D-18 -0.22923187D-03
  0.22525483D-03  0.10468750D-17  0.38408780D-03 -0.50537562D-03 -0.19202091D-17
 -0.42092799D+00 -0.78462800D+00 -0.13301374D+01 -0.20142200D+01 -0.25187892D+01
 -0.21684428D+01 -0.83362859D+00  0.36122492D-02 -0.18498399D-03 -0.34736717D-03
 -0.59150638D-03 -0.92659124D-03 -0.12417413D-02 -0.13356602D-02 -0.80192861D-03
  0.52738199D-03 -0.42612170D-01  0.44218860D-03  0.31169494D-03  0.51609693D-16
  0.50473152D-16  0.33349746D-16 -0.48592400D-02 -0.47522306D-02 -0.31399997D-02
 -0.34741657D-02 -0.33976582D-02 -0.22449764D-02 -0.54614091D-17  0.91594228D-03
  0.66323959D-03  0.35528814D-18  0.54802397D-03  0.64352259D-03 -0.43841395D-19
  0.22610318D-04  0.23447218D-04  0.75693396D-03 -0.58223567D-03 -0.17469829D-03
 -0.21139324D-17 -0.21264444D-17 -0.23631192D-02 -0.33611169D-03  0.28428301D-03
  0.51828675D-04 -0.12041886D-17 -0.40808820D-18  0.11428262D-02 -0.10010632D-03
  0.38757228D-04  0.61349095D-04 -0.18230668D-18 -0.41792205D-18  0.30303544D-03
 -0.23537712D-17  0.19149578D-03  0.12605050D-03  0.40215280D-17  0.57862627D-04
  0.18536888D-03  0.30397855D-17 -0.63234997D-03 -0.56352039D-03  0.66982769D-17
  0.50548590D-18 -0.51618646D-04 -0.93373595D-04 -0.11617729D-17 -0.22923186D-03
 -0.22525483D-03 -0.35468477D-18  0.38408780D-03  0.50537561D-03 -0.24555121D-17
  0.15165916D-11  0.28272716D-11  0.47785871D-11  0.71837818D-11  0.88261059D-11
  0.74550574D-11  0.28117734D-11 -0.13915623D-13 -0.10972455D-11 -0.20543897D-11
 -0.34977743D-11 -0.54105249D-11 -0.71254710D-11 -0.74038208D-11 -0.47047958D-11
  0.31530447D-11 -0.10164261D-11  0.25398960D-11  0.42851908D-12  0.44244399D-18
  0.41481937D-18  0.29537610D-18 -0.37073736D-03 -0.34758984D-03 -0.24750467D-03
  0.10693776D-11  0.10026095D-11  0.71391767D-12 -0.20337714D-18  0.20477455D-02
 -0.47753361D-11 -0.44130650D-18  0.11254043D-03  0.13105700D-12 -0.81786830D-20
  0.83660363D-05  0.11882684D-14 -0.24493950D-11  0.23965909D-11  0.52804150D-13
  0.11461325D-17  0.20596421D-17 -0.21987276D-02 -0.65793058D-12  0.74000242D-12
 -0.82071833D-13 -0.17703011D-17 -0.33418309D-18 -0.96788950D-03 -0.16973115D-13
 -0.36049228D-13  0.53022343D-13 -0.82683698D-20  0.47451162D-19  0.25083334D-04
 -0.35367238D-18  0.90332264D-04  0.22159217D-12  0.78153949D-18 -0.68319472D-03
  0.18390735D-11  0.27947765D-18  0.41219792D-03 -0.25038500D-11  0.30937947D-17
  0.11218611D-18  0.53544005D-04  0.76417704D-13 -0.20289758D-18  0.40707642D-06
 -0.35233140D-14 -0.13366074D-18 -0.16103909D-03 -0.22572980D-12 -0.64426317D-19
  0.30521059D-13  0.57057347D-13  0.98612910D-13  0.15950196D-12  0.24107787D-12
  0.33200378D-12  0.38803545D-12  0.33529190D-12  0.15638134D-12  0.21233207D-13
  0.56857297D-16  0.11153051D-15  0.50918338D-17 -0.43342447D-13 -0.80943867D-13
 -0.14040966D-12 -0.22766941D-12 -0.35052298D-12 -0.49922345D-12 -0.64193656D-12
 -0.67384236D-12 -0.47645430D-12  0.10551280D-13  0.34233857D-12  0.18850091D-12
 -0.79716715D-15  0.15091601D-13  0.28163161D-13  0.48916039D-13  0.79233130D-13
  0.12239200D-12  0.17448818D-12  0.22695213D-12  0.24186979D-12  0.17938980D-12
 -0.55837382D-14 -0.16251781D-12 -0.15921136D-12  0.74361148D-13 -0.47134518D-12
 -0.41879468D-12 -0.23937821D-12  0.84346547D-17  0.11065808D-16  0.12137504D-16
  0.99869309D-17  0.52653075D-17  0.13697841D-17 -0.15158058D-20  0.41742979D-02
  0.54764515D-02  0.60068325D-02  0.49425170D-02  0.26057927D-02  0.67790410D-03
 -0.75017000D-06 -0.77481186D-11 -0.10165110D-10 -0.11149576D-10 -0.91740478D-11
 -0.48367394D-11 -0.12582910D-11  0.13924273D-14 -0.75456843D-17 -0.99075294D-17
 -0.11146639D-16 -0.93918858D-17 -0.52536893D-17 -0.13076326D-17  0.59974330D-18
 -0.36697200D-02 -0.48183648D-02 -0.54209852D-02 -0.45675899D-02 -0.25550458D-02
 -0.63594569D-03  0.29167534D-03  0.67979986D-11  0.89258135D-11  0.10042142D-10
  0.84612639D-11  0.47331124D-11  0.11780620D-11 -0.54031602D-12 -0.52178289D-18
 -0.18224076D-03  0.55479231D-12 -0.38260531D-19  0.16290046D-04  0.64513835D-13
  0.43183879D-19 -0.35800264D-05  0.10749911D-13 -0.13509421D-12 -0.14335003D-12
  0.27844425D-12  0.94787374D-20 -0.28396066D-18 -0.23081122D-03 -0.10997778D-12
 -0.24579114D-13  0.13455689D-12 -0.48569981D-18  0.12834211D-18 -0.22323162D-04
 -0.10819851D-13  0.74885450D-14  0.33313059D-14  0.76044639D-20 -0.39025807D-19
 -0.51890365D-05 -0.19455141D-19 -0.15774714D-04 -0.12302058D-12  0.59811772D-19
 -0.48723425D-05  0.20196112D-12 -0.14463506D-20  0.52196484D-04  0.16710062D-12
  0.91298614D-18 -0.11028758D-19 -0.10113561D-04 -0.33421735D-13 -0.21872686D-19
 -0.82618901D-05  0.56717510D-13  0.54958961D-19  0.38602574D-04  0.43547697D-13
 -0.12142547D-18
MO    3     MO 0.0        OCC NO =    2.0000000  ORB. ENERGY =  -25.325775
  0.42086456D+00  0.78450978D+00  0.13299369D+01  0.20139165D+01  0.25184096D+01
  0.21681161D+01  0.83350299D+00 -0.36117049D-02  0.22991096D-03  0.43173207D-03
  0.73516526D-03  0.11516320D-02  0.15433224D-02  0.16600513D-02  0.99669264D-03
 -0.65546701D-03  0.42602327D-01 -0.16040628D-03 -0.22777439D-03 -0.10940395D-16
 -0.10699468D-16 -0.70695907D-17 -0.47387001D-02 -0.46343452D-02 -0.30621078D-02
  0.33417564D-02  0.32681648D-02  0.21594147D-02  0.25923633D-16  0.83912245D-03
 -0.59935959D-03  0.38771246D-17  0.38390333D-03 -0.31290122D-03 -0.10359346D-18
  0.16535346D-04 -0.43824971D-05 -0.82731877D-03  0.91502755D-03 -0.87708782D-04
  0.39591650D-16  0.64658715D-17 -0.18252648D-02  0.33536131D-03 -0.38127918D-03
  0.45917866D-04 -0.18124717D-17  0.37604309D-18  0.89556096D-03  0.49116938D-04
 -0.39764236D-04 -0.93527014D-05  0.78393270D-18 -0.64465655D-18  0.15455476D-03
 -0.97556700D-18 -0.11388215D-03 -0.10168805D-03 -0.16946444D-18  0.26530153D-03
 -0.66540756D-04  0.30961654D-17  0.76344932D-04  0.37160490D-03 -0.48874089D-17
  0.31589375D-18  0.67692762D-04  0.80994801D-04  0.20046666D-18 -0.27168967D-03
  0.13771375D-03 -0.11481479D-17  0.68611386D-04 -0.38069815D-03  0.77966043D-18
  0.42086457D+00  0.78450979D+00  0.13299370D+01  0.20139165D+01  0.25184097D+01
  0.21681161D+01  0.83350299D+00 -0.36117049D-02  0.22991096D-03  0.43173207D-03
  0.73516526D-03  0.11516320D-02  0.15433224D-02  0.16600513D-02  0.99669264D-03
 -0.65546702D-03  0.42602328D-01 -0.16040628D-03 -0.22777440D-03 -0.51496017D-16
 -0.50361980D-16 -0.33276289D-16  0.47387001D-02  0.46343452D-02  0.30621078D-02
  0.33417565D-02  0.32681648D-02  0.21594147D-02  0.53317096D-17 -0.83912246D-03
 -0.59935960D-03 -0.48843012D-18 -0.38390333D-03 -0.31290123D-03  0.48635085D-19
 -0.16535346D-04 -0.43824973D-05 -0.82731877D-03  0.91502755D-03 -0.87708781D-04
  0.20142944D-17  0.26225718D-17  0.18252649D-02  0.33536132D-03 -0.38127918D-03
  0.45917866D-04  0.10105259D-17  0.17148570D-18 -0.89556097D-03  0.49116938D-04
 -0.39764237D-04 -0.93527018D-05  0.11589397D-18  0.48862232D-18 -0.15455476D-03
  0.27946582D-17  0.11388215D-03 -0.10168805D-03 -0.48729158D-17 -0.26530153D-03
 -0.66540757D-04 -0.35110586D-17 -0.76344928D-04  0.37160490D-03 -0.70388434D-17
 -0.58857671D-18 -0.67692762D-04  0.80994801D-04  0.13011692D-17  0.27168968D-03
  0.13771375D-03  0.46456090D-18 -0.68611389D-04 -0.38069815D-03  0.23123860D-17
  0.42611865D-03  0.79438206D-03  0.13426456D-02  0.20184362D-02  0.24798820D-02
  0.20946568D-02  0.79002748D-03 -0.39098901D-05 -0.30816422D-03 -0.57698064D-03
 -0.98235891D-03 -0.15195599D-02 -0.20012069D-02 -0.20793821D-02 -0.13213540D-02
  0.88554073D-03 -0.28463598D-03  0.72281437D-03  0.11829964D-03 -0.32032497D-18
 -0.30032502D-18 -0.21384930D-18  0.13108285D-11  0.12289851D-11  0.87511059D-12
  0.30193813D-03  0.28308619D-03  0.20157423D-03  0.72719611D-19 -0.72645640D-11
 -0.13450950D-02  0.71397429D-18 -0.37162802D-12  0.37622882D-04  0.21285438D-20
 -0.34556248D-13  0.47223859D-07 -0.68358402D-03  0.67167269D-03  0.11911323D-04
 -0.19238073D-17 -0.10073505D-17  0.78589133D-11 -0.18592206D-03  0.20444885D-03
 -0.18526800D-04  0.16113646D-17  0.55931458D-18  0.34000599D-11 -0.45649076D-05
 -0.11517176D-04  0.16082083D-04  0.67813286D-19 -0.85981183D-19 -0.11026401D-12
  0.87791252D-18 -0.32516552D-12  0.61517397D-04 -0.14541635D-17  0.24311015D-11
  0.51482289D-03 -0.11795741D-17 -0.14556049D-11 -0.69937508D-03 -0.64963124D-18
 -0.15050021D-18 -0.19522995D-12  0.21602675D-04  0.16601493D-18 -0.21498585D-14
 -0.71323666D-06  0.28548571D-18  0.58783970D-12 -0.64094789D-04  0.16751270D-18
  0.77961200D-05  0.14574393D-04  0.25189102D-04  0.40742242D-04  0.61579514D-04
  0.84805095D-04  0.99117495D-04  0.85644993D-04  0.39945130D-04  0.54236857D-05
  0.14523294D-07  0.28488699D-07  0.13006281D-08 -0.10739952D-04 -0.20057318D-04
 -0.34792522D-04 -0.56414872D-04 -0.86857118D-04 -0.12370405D-03 -0.15906734D-03
 -0.16697338D-03 -0.11806201D-03  0.26145327D-05  0.84829081D-04  0.46709194D-04
 -0.19753239D-06  0.34325207D-05  0.64055914D-05  0.11125746D-04  0.18021239D-04
  0.27837541D-04  0.39686597D-04  0.51619299D-04  0.55012258D-04  0.40801448D-04
 -0.12699976D-05 -0.36963986D-04 -0.36211948D-04  0.16913128D-04 -0.13156878D-03
 -0.12573144D-03 -0.65316347D-04 -0.10548421D-16 -0.13838954D-16 -0.15179223D-16
 -0.12489705D-16 -0.65848196D-17 -0.17130588D-17  0.18956742D-20 -0.15235497D-10
 -0.19988142D-10 -0.21923946D-10 -0.18039370D-10 -0.95107126D-11 -0.24742379D-11
  0.27379965D-14 -0.21093575D-02 -0.27673622D-02 -0.30353746D-02 -0.24975543D-02
 -0.13167600D-02 -0.34255872D-03  0.37907615D-06  0.94029230D-17  0.12346095D-16
  0.13890190D-16  0.11703535D-16  0.65467933D-17  0.16294835D-17 -0.74735966D-18
  0.13386826D-10  0.17576984D-10  0.19775292D-10  0.16662179D-10  0.93205893D-11
  0.23198757D-11 -0.10640068D-11  0.18480957D-02  0.24265609D-02  0.27300446D-02
  0.23002690D-02  0.12867382D-02  0.32026653D-03 -0.14688966D-03  0.55944587D-18
  0.66963382D-12  0.15507934D-03 -0.20570002D-19 -0.25494796D-13  0.18279857D-04
 -0.38939245D-19  0.15266203D-13  0.30059622D-05 -0.38571883D-04 -0.39696046D-04
  0.78267929D-04 -0.41300578D-19  0.43493895D-18  0.82232843D-12 -0.28953708D-04
 -0.68467100D-05  0.35800418D-04  0.47090956D-18 -0.16714525D-18  0.86997733D-13
 -0.31712083D-05  0.22816548D-05  0.88955347D-06 -0.32286657D-19  0.60025482D-19
  0.10144306D-13  0.16168261D-19  0.58059846D-13 -0.34866497D-04 -0.76187211D-19
  0.14848300D-13  0.56704860D-04  0.27682428D-19 -0.18902784D-12  0.47894631D-04
 -0.81784126D-18  0.17092020D-19  0.35149898D-13 -0.93473599D-05  0.39535173D-19
  0.29352413D-13  0.16387917D-04 -0.90811233D-19 -0.13480211D-12  0.11654162D-04
  0.17190103D-18
MO    4     MO 0.0        OCC NO =    2.0000000  ORB. ENERGY =  -10.796769
  0.73628938D-03  0.13724753D-02  0.23266831D-02  0.35232839D-02  0.44058789D-02
  0.37930513D-02  0.14581874D-02 -0.63185647D-05 -0.57831805D-03 -0.10859789D-02
 -0.18492347D-02 -0.28968153D-02 -0.38820733D-02 -0.41756932D-02 -0.25070807D-02
  0.16487618D-02  0.32289929D-03  0.49205235D-03  0.67096529D-04  0.51183115D-15
  0.50055969D-15  0.33074095D-15 -0.20271656D-02 -0.19825237D-02 -0.13099372D-02
  0.13051122D-02  0.12763712D-02  0.84335242D-03 -0.15256940D-15 -0.34285349D-03
  0.57767200D-03 -0.67153500D-17  0.12681990D-02 -0.12179003D-02  0.95195543D-18
  0.34156507D-04 -0.21624535D-04 -0.18237766D-02  0.16628894D-02  0.16088721D-03
  0.13357105D-16 -0.38548671D-17 -0.61034817D-02  0.84497370D-03 -0.79424385D-03
 -0.50729851D-04 -0.55996488D-17 -0.77986810D-18  0.27718858D-02  0.49689903D-03
 -0.30924722D-03 -0.18765181D-03  0.17374672D-18  0.81804230D-18  0.11733426D-02
  0.33631437D-17 -0.38321425D-04 -0.21502627D-03 -0.53892676D-17  0.17861653D-02
 -0.20541511D-02 -0.47001636D-17 -0.16712010D-02  0.26992299D-02 -0.19284766D-17
 -0.93421864D-18  0.33648924D-04  0.43964780D-03  0.12216208D-17 -0.17430978D-02
  0.16165617D-02  0.15810352D-17  0.16421510D-02 -0.29355051D-02 -0.16801458D-17
  0.73628938D-03  0.13724753D-02  0.23266831D-02  0.35232839D-02  0.44058789D-02
  0.37930513D-02  0.14581874D-02 -0.63185647D-05 -0.57831805D-03 -0.10859789D-02
 -0.18492347D-02 -0.28968153D-02 -0.38820733D-02 -0.41756932D-02 -0.25070807D-02
  0.16487618D-02  0.32289929D-03  0.49205235D-03  0.67096529D-04 -0.12969334D-16
 -0.12683725D-16 -0.83806735D-17  0.20271656D-02  0.19825237D-02  0.13099372D-02
  0.13051122D-02  0.12763712D-02  0.84335242D-03 -0.21883114D-18  0.34285349D-03
  0.57767200D-03 -0.64228866D-17 -0.12681990D-02 -0.12179003D-02 -0.58919335D-18
 -0.34156507D-04 -0.21624535D-04 -0.18237766D-02  0.16628894D-02  0.16088721D-03
  0.57824530D-17 -0.39187356D-17  0.61034817D-02  0.84497370D-03 -0.79424385D-03
 -0.50729851D-04 -0.43552284D-17  0.28840234D-18 -0.27718858D-02  0.49689903D-03
 -0.30924722D-03 -0.18765181D-03 -0.31910703D-17 -0.42366306D-17 -0.11733426D-02
 -0.39629923D-17  0.38321425D-04 -0.21502627D-03  0.27155886D-17 -0.17861653D-02
 -0.20541511D-02  0.91733885D-17  0.16712010D-02  0.26992299D-02  0.25444620D-16
  0.21510768D-17 -0.33648924D-04  0.43964780D-03 -0.26940298D-17  0.17430978D-02
  0.16165617D-02 -0.37592005D-17 -0.16421510D-02 -0.29355051D-02 -0.13632548D-16
  0.32872459D+00  0.61281737D+00  0.10357693D+01  0.15571006D+01  0.19130779D+01
  0.16159002D+01  0.60945808D+00 -0.30162421D-02 -0.18877264D-02 -0.35344194D-02
 -0.60176514D-02 -0.93083916D-02 -0.12258824D-01 -0.12737704D-01 -0.80942389D-02
  0.54245707D-02  0.31911052D-01 -0.14082465D-02 -0.20888493D-04 -0.17331611D-16
 -0.16249487D-16 -0.11570603D-16  0.79197290D-15  0.74252494D-15  0.52872199D-15
 -0.45800876D-02 -0.42941233D-02 -0.30576716D-02  0.44958126D-17 -0.52216014D-15
 -0.27164353D-02  0.17411959D-17 -0.11759087D-14  0.81813749D-03 -0.33917469D-18
 -0.34886737D-16  0.63585714D-05 -0.39805954D-02  0.27420184D-02  0.12385770D-02
 -0.14085321D-16  0.94295682D-17 -0.14329500D-14  0.67002438D-03  0.15122168D-03
 -0.82124606D-03 -0.49729647D-17 -0.35199650D-17  0.37889960D-15  0.72589332D-04