 Molden2AIM, Version 4.0.0 (06/02/2016)           Time: Thu Jun 28 05:51:45 2018
GAUSSIAN             23 MOL ORBITALS    450 PRIMITIVES        6 NUCLEI
  C    1    (CENTRE  1)  -5.20110644  1.09968265  0.39580692  CHARGE =  6.0
  C    2    (CENTRE  2)  -2.91058830 -0.45944533  0.80649543  CHARGE =  6.0
  N    3    (CENTRE  3)  -1.12346297 -1.67378523  1.12821374  CHARGE =  7.0
  F    4    (CENTRE  4)  -4.91790075  3.36659055  1.46568670  CHARGE =  9.0
  F    5    (CENTRE  5)  -7.21836829 -0.02512769  1.41104149  CHARGE =  9.0
  F    6    (CENTRE  6)  -5.61140567  1.41892732 -2.07294452  CHARGE =  9.0
CENTRE ASSIGNMENTS    1  1  1  1  1  1  1  1  1  1  1  1  1  1  1  1  1  1  1  1
CENTRE ASSIGNMENTS    1  1  1  1  1  1  1  1  1  1  1  1  1  1  1  1  1  1  1  1
CENTRE ASSIGNMENTS    1  1  1  1  1  1  1  1  1  1  1  1  1  1  1  1  1  1  1  1
CENTRE ASSIGNMENTS    1  1  1  1  1  1  1  1  1  1  1  1  1  1  1  2  2  2  2  2
CENTRE ASSIGNMENTS    2  2  2  2  2  2  2  2  2  2  2  2  2  2  2  2  2  2  2  2
CENTRE ASSIGNMENTS    2  2  2  2  2  2  2  2  2  2  2  2  2  2  2  2  2  2  2  2
CENTRE ASSIGNMENTS    2  2  2  2  2  2  2  2  2  2  2  2  2  2  2  2  2  2  2  2
CENTRE ASSIGNMENTS    2  2  2  2  2  2  2  2  2  2  3  3  3  3  3  3  3  3  3  3
CENTRE ASSIGNMENTS    3  3  3  3  3  3  3  3  3  3  3  3  3  3  3  3  3  3  3  3
CENTRE ASSIGNMENTS    3  3  3  3  3  3  3  3  3  3  3  3  3  3  3  3  3  3  3  3
CENTRE ASSIGNMENTS    3  3  3  3  3  3  3  3  3  3  3  3  3  3  3  3  3  3  3  3
CENTRE ASSIGNMENTS    3  3  3  3  3  4  4  4  4  4  4  4  4  4  4  4  4  4  4  4
CENTRE ASSIGNMENTS    4  4  4  4  4  4  4  4  4  4  4  4  4  4  4  4  4  4  4  4
CENTRE ASSIGNMENTS    4  4  4  4  4  4  4  4  4  4  4  4  4  4  4  4  4  4  4  4
CENTRE ASSIGNMENTS    4  4  4  4  4  4  4  4  4  4  4  4  4  4  4  4  4  4  4  4
CENTRE ASSIGNMENTS    5  5  5  5  5  5  5  5  5  5  5  5  5  5  5  5  5  5  5  5
CENTRE ASSIGNMENTS    5  5  5  5  5  5  5  5  5  5  5  5  5  5  5  5  5  5  5  5
CENTRE ASSIGNMENTS    5  5  5  5  5  5  5  5  5  5  5  5  5  5  5  5  5  5  5  5
CENTRE ASSIGNMENTS    5  5  5  5  5  5  5  5  5  5  5  5  5  5  5  6  6  6  6  6
CENTRE ASSIGNMENTS    6  6  6  6  6  6  6  6  6  6  6  6  6  6  6  6  6  6  6  6
CENTRE ASSIGNMENTS    6  6  6  6  6  6  6  6  6  6  6  6  6  6  6  6  6  6  6  6
CENTRE ASSIGNMENTS    6  6  6  6  6  6  6  6  6  6  6  6  6  6  6  6  6  6  6  6
CENTRE ASSIGNMENTS    6  6  6  6  6  6  6  6  6  6
TYPE ASSIGNMENTS      1  1  1  1  1  1  1  1  1  1  1  1  1  1  1  1  1  1  1  2
TYPE ASSIGNMENTS      2  2  3  3  3  4  4  4  2  3  4  2  3  4  2  3  4  5  6  7
TYPE ASSIGNMENTS      8  9 10  5  6  7  8  9 10  5  6  7  8  9 10 11 12 13 17 14
TYPE ASSIGNMENTS     15 18 19 16 20 11 12 13 17 14 15 18 19 16 20  1  1  1  1  1
TYPE ASSIGNMENTS      1  1  1  1  1  1  1  1  1  1  1  1  1  1  2  2  2  3  3  3
TYPE ASSIGNMENTS      4  4  4  2  3  4  2  3  4  2  3  4  5  6  7  8  9 10  5  6
TYPE ASSIGNMENTS      7  8  9 10  5  6  7  8  9 10 11 12 13 17 14 15 18 19 16 20
TYPE ASSIGNMENTS     11 12 13 17 14 15 18 19 16 20  1  1  1  1  1  1  1  1  1  1
TYPE ASSIGNMENTS      1  1  1  1  1  1  1  1  1  2  2  2  3  3  3  4  4  4  2  3
TYPE ASSIGNMENTS      4  2  3  4  2  3  4  5  6  7  8  9 10  5  6  7  8  9 10  5
TYPE ASSIGNMENTS      6  7  8  9 10 11 12 13 17 14 15 18 19 16 20 11 12 13 17 14
TYPE ASSIGNMENTS     15 18 19 16 20  1  1  1  1  1  1  1  1  1  1  1  1  1  1  1
TYPE ASSIGNMENTS      1  1  1  1  2  2  2  3  3  3  4  4  4  2  3  4  2  3  4  2
TYPE ASSIGNMENTS      3  4  5  6  7  8  9 10  5  6  7  8  9 10  5  6  7  8  9 10
TYPE ASSIGNMENTS     11 12 13 17 14 15 18 19 16 20 11 12 13 17 14 15 18 19 16 20
TYPE ASSIGNMENTS      1  1  1  1  1  1  1  1  1  1  1  1  1  1  1  1  1  1  1  2
TYPE ASSIGNMENTS      2  2  3  3  3  4  4  4  2  3  4  2  3  4  2  3  4  5  6  7
TYPE ASSIGNMENTS      8  9 10  5  6  7  8  9 10  5  6  7  8  9 10 11 12 13 17 14
TYPE ASSIGNMENTS     15 18 19 16 20 11 12 13 17 14 15 18 19 16 20  1  1  1  1  1
TYPE ASSIGNMENTS      1  1  1  1  1  1  1  1  1  1  1  1  1  1  2  2  2  3  3  3
TYPE ASSIGNMENTS      4  4  4  2  3  4  2  3  4  2  3  4  5  6  7  8  9 10  5  6
TYPE ASSIGNMENTS      7  8  9 10  5  6  7  8  9 10 11 12 13 17 14 15 18 19 16 20
TYPE ASSIGNMENTS     11 12 13 17 14 15 18 19 16 20
EXPONENTS  0.8236000D+04 0.1235000D+04 0.2808000D+03 0.7927000D+02 0.2559000D+02
EXPONENTS  0.8997000D+01 0.3319000D+01 0.3643000D+00 0.8236000D+04 0.1235000D+04
EXPONENTS  0.2808000D+03 0.7927000D+02 0.2559000D+02 0.8997000D+01 0.3319000D+01
EXPONENTS  0.3643000D+00 0.9059000D+00 0.1285000D+00 0.4402000D-01 0.1871000D+02
EXPONENTS  0.4133000D+01 0.1200000D+01 0.1871000D+02 0.4133000D+01 0.1200000D+01
EXPONENTS  0.1871000D+02 0.4133000D+01 0.1200000D+01 0.3827000D+00 0.3827000D+00
EXPONENTS  0.3827000D+00 0.1209000D+00 0.1209000D+00 0.1209000D+00 0.3569000D-01
EXPONENTS  0.3569000D-01 0.3569000D-01 0.1097000D+01 0.1097000D+01 0.1097000D+01
EXPONENTS  0.1097000D+01 0.1097000D+01 0.1097000D+01 0.3180000D+00 0.3180000D+00
EXPONENTS  0.3180000D+00 0.3180000D+00 0.3180000D+00 0.3180000D+00 0.1000000D+00
EXPONENTS  0.1000000D+00 0.1000000D+00 0.1000000D+00 0.1000000D+00 0.1000000D+00
EXPONENTS  0.7610000D+00 0.7610000D+00 0.7610000D+00 0.7610000D+00 0.7610000D+00
EXPONENTS  0.7610000D+00 0.7610000D+00 0.7610000D+00 0.7610000D+00 0.7610000D+00
EXPONENTS  0.2680000D+00 0.2680000D+00 0.2680000D+00 0.2680000D+00 0.2680000D+00
EXPONENTS  0.2680000D+00 0.2680000D+00 0.2680000D+00 0.2680000D+00 0.2680000D+00
EXPONENTS  0.8236000D+04 0.1235000D+04 0.2808000D+03 0.7927000D+02 0.2559000D+02
EXPONENTS  0.8997000D+01 0.3319000D+01 0.3643000D+00 0.8236000D+04 0.1235000D+04
EXPONENTS  0.2808000D+03 0.7927000D+02 0.2559000D+02 0.8997000D+01 0.3319000D+01
EXPONENTS  0.3643000D+00 0.9059000D+00 0.1285000D+00 0.4402000D-01 0.1871000D+02
EXPONENTS  0.4133000D+01 0.1200000D+01 0.1871000D+02 0.4133000D+01 0.1200000D+01
EXPONENTS  0.1871000D+02 0.4133000D+01 0.1200000D+01 0.3827000D+00 0.3827000D+00
EXPONENTS  0.3827000D+00 0.1209000D+00 0.1209000D+00 0.1209000D+00 0.3569000D-01
EXPONENTS  0.3569000D-01 0.3569000D-01 0.1097000D+01 0.1097000D+01 0.1097000D+01
EXPONENTS  0.1097000D+01 0.1097000D+01 0.1097000D+01 0.3180000D+00 0.3180000D+00
EXPONENTS  0.3180000D+00 0.3180000D+00 0.3180000D+00 0.3180000D+00 0.1000000D+00
EXPONENTS  0.1000000D+00 0.1000000D+00 0.1000000D+00 0.1000000D+00 0.1000000D+00
EXPONENTS  0.7610000D+00 0.7610000D+00 0.7610000D+00 0.7610000D+00 0.7610000D+00
EXPONENTS  0.7610000D+00 0.7610000D+00 0.7610000D+00 0.7610000D+00 0.7610000D+00
EXPONENTS  0.2680000D+00 0.2680000D+00 0.2680000D+00 0.2680000D+00 0.2680000D+00
EXPONENTS  0.2680000D+00 0.2680000D+00 0.2680000D+00 0.2680000D+00 0.2680000D+00
EXPONENTS  0.1142000D+05 0.1712000D+04 0.3893000D+03 0.1100000D+03 0.3557000D+02
EXPONENTS  0.1254000D+02 0.4644000D+01 0.5118000D+00 0.1142000D+05 0.1712000D+04
EXPONENTS  0.3893000D+03 0.1100000D+03 0.3557000D+02 0.1254000D+02 0.4644000D+01
EXPONENTS  0.5118000D+00 0.1293000D+01 0.1787000D+00 0.5760000D-01 0.2663000D+02
EXPONENTS  0.5948000D+01 0.1742000D+01 0.2663000D+02 0.5948000D+01 0.1742000D+01
EXPONENTS  0.2663000D+02 0.5948000D+01 0.1742000D+01 0.5550000D+00 0.5550000D+00
EXPONENTS  0.5550000D+00 0.1725000D+00 0.1725000D+00 0.1725000D+00 0.4910000D-01
EXPONENTS  0.4910000D-01 0.4910000D-01 0.1654000D+01 0.1654000D+01 0.1654000D+01
EXPONENTS  0.1654000D+01 0.1654000D+01 0.1654000D+01 0.4690000D+00 0.4690000D+00
EXPONENTS  0.4690000D+00 0.4690000D+00 0.4690000D+00 0.4690000D+00 0.1510000D+00
EXPONENTS  0.1510000D+00 0.1510000D+00 0.1510000D+00 0.1510000D+00 0.1510000D+00
EXPONENTS  0.1093000D+01 0.1093000D+01 0.1093000D+01 0.1093000D+01 0.1093000D+01
EXPONENTS  0.1093000D+01 0.1093000D+01 0.1093000D+01 0.1093000D+01 0.1093000D+01
EXPONENTS  0.3640000D+00 0.3640000D+00 0.3640000D+00 0.3640000D+00 0.3640000D+00
EXPONENTS  0.3640000D+00 0.3640000D+00 0.3640000D+00 0.3640000D+00 0.3640000D+00
EXPONENTS  0.1950000D+05 0.2923000D+04 0.6645000D+03 0.1875000D+03 0.6062000D+02
EXPONENTS  0.2142000D+02 0.7950000D+01 0.8815000D+00 0.1950000D+05 0.2923000D+04
EXPONENTS  0.6645000D+03 0.1875000D+03 0.6062000D+02 0.2142000D+02 0.7950000D+01
EXPONENTS  0.8815000D+00 0.2257000D+01 0.3041000D+00 0.9158000D-01 0.4388000D+02
EXPONENTS  0.9926000D+01 0.2930000D+01 0.4388000D+02 0.9926000D+01 0.2930000D+01
EXPONENTS  0.4388000D+02 0.9926000D+01 0.2930000D+01 0.9132000D+00 0.9132000D+00
EXPONENTS  0.9132000D+00 0.2672000D+00 0.2672000D+00 0.2672000D+00 0.7361000D-01
EXPONENTS  0.7361000D-01 0.7361000D-01 0.3107000D+01 0.3107000D+01 0.3107000D+01
EXPONENTS  0.3107000D+01 0.3107000D+01 0.3107000D+01 0.8550000D+00 0.8550000D+00
EXPONENTS  0.8550000D+00 0.8550000D+00 0.8550000D+00 0.8550000D+00 0.2920000D+00
EXPONENTS  0.2920000D+00 0.2920000D+00 0.2920000D+00 0.2920000D+00 0.2920000D+00
EXPONENTS  0.1917000D+01 0.1917000D+01 0.1917000D+01 0.1917000D+01 0.1917000D+01
EXPONENTS  0.1917000D+01 0.1917000D+01 0.1917000D+01 0.1917000D+01 0.1917000D+01
EXPONENTS  0.7240000D+00 0.7240000D+00 0.7240000D+00 0.7240000D+00 0.7240000D+00
EXPONENTS  0.7240000D+00 0.7240000D+00 0.7240000D+00 0.7240000D+00 0.7240000D+00
EXPONENTS  0.1950000D+05 0.2923000D+04 0.6645000D+03 0.1875000D+03 0.6062000D+02
EXPONENTS  0.2142000D+02 0.7950000D+01 0.8815000D+00 0.1950000D+05 0.2923000D+04
EXPONENTS  0.6645000D+03 0.1875000D+03 0.6062000D+02 0.2142000D+02 0.7950000D+01
EXPONENTS  0.8815000D+00 0.2257000D+01 0.3041000D+00 0.9158000D-01 0.4388000D+02
EXPONENTS  0.9926000D+01 0.2930000D+01 0.4388000D+02 0.9926000D+01 0.2930000D+01
EXPONENTS  0.4388000D+02 0.9926000D+01 0.2930000D+01 0.9132000D+00 0.9132000D+00
EXPONENTS  0.9132000D+00 0.2672000D+00 0.2672000D+00 0.2672000D+00 0.7361000D-01
EXPONENTS  0.7361000D-01 0.7361000D-01 0.3107000D+01 0.3107000D+01 0.3107000D+01
EXPONENTS  0.3107000D+01 0.3107000D+01 0.3107000D+01 0.8550000D+00 0.8550000D+00
EXPONENTS  0.8550000D+00 0.8550000D+00 0.8550000D+00 0.8550000D+00 0.2920000D+00
EXPONENTS  0.2920000D+00 0.2920000D+00 0.2920000D+00 0.2920000D+00 0.2920000D+00
EXPONENTS  0.1917000D+01 0.1917000D+01 0.1917000D+01 0.1917000D+01 0.1917000D+01
EXPONENTS  0.1917000D+01 0.1917000D+01 0.1917000D+01 0.1917000D+01 0.1917000D+01
EXPONENTS  0.7240000D+00 0.7240000D+00 0.7240000D+00 0.7240000D+00 0.7240000D+00
EXPONENTS  0.7240000D+00 0.7240000D+00 0.7240000D+00 0.7240000D+00 0.7240000D+00
EXPONENTS  0.1950000D+05 0.2923000D+04 0.6645000D+03 0.1875000D+03 0.6062000D+02
EXPONENTS  0.2142000D+02 0.7950000D+01 0.8815000D+00 0.1950000D+05 0.2923000D+04
EXPONENTS  0.6645000D+03 0.1875000D+03 0.6062000D+02 0.2142000D+02 0.7950000D+01
EXPONENTS  0.8815000D+00 0.2257000D+01 0.3041000D+00 0.9158000D-01 0.4388000D+02
EXPONENTS  0.9926000D+01 0.2930000D+01 0.4388000D+02 0.9926000D+01 0.2930000D+01
EXPONENTS  0.4388000D+02 0.9926000D+01 0.2930000D+01 0.9132000D+00 0.9132000D+00
EXPONENTS  0.9132000D+00 0.2672000D+00 0.2672000D+00 0.2672000D+00 0.7361000D-01
EXPONENTS  0.7361000D-01 0.7361000D-01 0.3107000D+01 0.3107000D+01 0.3107000D+01
EXPONENTS  0.3107000D+01 0.3107000D+01 0.3107000D+01 0.8550000D+00 0.8550000D+00
EXPONENTS  0.8550000D+00 0.8550000D+00 0.8550000D+00 0.8550000D+00 0.2920000D+00
EXPONENTS  0.2920000D+00 0.2920000D+00 0.2920000D+00 0.2920000D+00 0.2920000D+00
EXPONENTS  0.1917000D+01 0.1917000D+01 0.1917000D+01 0.1917000D+01 0.1917000D+01
EXPONENTS  0.1917000D+01 0.1917000D+01 0.1917000D+01 0.1917000D+01 0.1917000D+01
EXPONENTS  0.7240000D+00 0.7240000D+00 0.7240000D+00 0.7240000D+00 0.7240000D+00
EXPONENTS  0.7240000D+00 0.7240000D+00 0.7240000D+00 0.7240000D+00 0.7240000D+00
MO    1     MO 0.0        OCC NO =    2.0000000  ORB. ENERGY =  -25.328487
  0.43725150D-05  0.81513621D-05  0.13777238D-04  0.20711702D-04  0.25446718D-04
  0.21493822D-04  0.81066787D-05 -0.40120405D-07 -0.31105949D-05 -0.58240152D-05
 -0.99158841D-05 -0.15338365D-04 -0.20200087D-04 -0.20989184D-04 -0.13337684D-04
  0.89386060D-05 -0.84510778D-05  0.41713586D-04  0.14014167D-04  0.20558201D-03
  0.19274621D-03  0.13724678D-03  0.18341446D-03  0.17196271D-03  0.12244769D-03
 -0.42618718D-03 -0.39957757D-03 -0.28452304D-03 -0.81242897D-03 -0.72628699D-03
  0.16867552D-02 -0.37884947D-04 -0.42963445D-04  0.91627238D-04  0.10161367D-05
  0.13941317D-06 -0.10063021D-05  0.66016286D-03  0.17246144D-03 -0.83262429D-03
  0.80868181D-03 -0.10405831D-02 -0.12375687D-03  0.34131173D-03  0.71781167D-04
 -0.41309290D-03  0.40142758D-03 -0.54676998D-03 -0.28182300D-04  0.40408947D-05
 -0.81049717D-05  0.40640770D-05 -0.58617546D-05 -0.96356137D-05  0.17595754D-04
 -0.74282359D-04  0.15611891D-03  0.10291467D-03 -0.55547516D-04 -0.32766443D-03
  0.24846985D-04  0.27839459D-03 -0.14069231D-03 -0.33359101D-03  0.47080211D-03
  0.52621852D-05  0.71904109D-05  0.92462676D-05 -0.14149081D-04 -0.19764428D-04
 -0.11158538D-04 -0.16374746D-05 -0.18068050D-05 -0.16580265D-04  0.51439541D-04
  0.54117858D-06  0.10088799D-05  0.17051848D-05  0.25634513D-05  0.31494961D-05
  0.26602530D-05  0.10033495D-05 -0.49656329D-08 -0.36010929D-06 -0.67423821D-06
 -0.11479482D-05 -0.17757014D-05 -0.23385362D-05 -0.24298889D-05 -0.15440853D-05
  0.10348101D-05 -0.30519952D-06 -0.24382820D-04 -0.14632396D-04  0.12360484D-04
  0.11588740D-04  0.82518732D-05  0.10860897D-04  0.10182781D-04  0.72507467D-05
 -0.25402970D-04 -0.23816899D-04 -0.16959051D-04 -0.25094454D-04 -0.18872225D-04
  0.47046115D-04 -0.43856523D-04 -0.46561275D-04  0.10154607D-03 -0.17244020D-06
 -0.11686281D-05  0.18070127D-05  0.24339764D-04  0.14025374D-05 -0.25742302D-04
  0.23837037D-04 -0.39993945D-04  0.53286590D-05  0.49123542D-04 -0.31851383D-04
 -0.17272160D-04  0.10477433D-04 -0.95526541D-04  0.81242228D-04  0.85180585D-05
  0.56492692D-06 -0.90829855D-05  0.91673915D-05 -0.14500194D-04  0.19286597D-05
  0.42089613D-04  0.44705469D-07  0.25039681D-04 -0.55426165D-04 -0.22611483D-04
 -0.61808879D-04 -0.70842675D-04  0.22477367D-04 -0.13310163D-04  0.13446560D-03
  0.32324459D-05 -0.13512830D-04 -0.10845981D-04  0.86203567D-05  0.30479448D-04
  0.24294168D-05 -0.18317694D-04  0.10059042D-04  0.30108525D-04 -0.49254468D-04
  0.12362684D-05  0.23036041D-05  0.38959720D-05  0.58671180D-05  0.72638727D-05
  0.61812279D-05  0.23520712D-05 -0.11015753D-07 -0.85575137D-06 -0.16045418D-05
 -0.27298030D-05 -0.42390959D-05 -0.56255268D-05 -0.59285330D-05 -0.36760687D-05
  0.24453223D-05  0.31423191D-06  0.44025499D-05  0.57151558D-05  0.15036493D-04
  0.14442372D-04  0.10127988D-04  0.13647808D-04  0.13108556D-04  0.91926243D-05
 -0.31603608D-04 -0.30354888D-04 -0.21286942D-04 -0.21411112D-04 -0.18247554D-04
  0.43302780D-04  0.52655203D-05  0.79813473D-05 -0.15532744D-04 -0.67759350D-06
  0.31565859D-06  0.92040684D-07  0.31035150D-04  0.18353845D-04 -0.49388996D-04
  0.51149555D-04 -0.45899998D-04 -0.26107668D-04  0.11624368D-04 -0.33519411D-04
  0.21895043D-04 -0.27756308D-04 -0.32224927D-04  0.71479633D-04 -0.61022522D-05
 -0.41479838D-05  0.10250236D-04 -0.10879984D-04  0.89596934D-05  0.61616993D-05
 -0.30253924D-04  0.17671461D-05 -0.16397462D-04  0.38779526D-04  0.11301957D-04
  0.43758572D-04  0.51982245D-04 -0.16603395D-04  0.54338132D-05 -0.91449228D-04
  0.54353280D-05 -0.96172770D-05 -0.60565363D-05  0.22063534D-05  0.19937666D-04
 -0.26512403D-05 -0.18512337D-04  0.89141647D-05  0.20820849D-04 -0.25333021D-04
 -0.42056924D-02 -0.78395928D-02 -0.13290037D-01 -0.20125033D-01 -0.25166424D-01
 -0.21665947D-01 -0.83291811D-02  0.36091705D-04 -0.22978050D-05 -0.43148708D-05
 -0.73474808D-05 -0.11509785D-04 -0.15424466D-04 -0.16591093D-04 -0.99612705D-05
  0.65509506D-05 -0.42662810D-03  0.94260658D-06  0.30863310D-05  0.23448275D-04
  0.22931901D-04  0.15152076D-04  0.70283957D-04  0.68736175D-04  0.45416897D-04
 -0.12110351D-04 -0.11843659D-04 -0.78256060D-05 -0.13708604D-04 -0.21758459D-04
  0.23080396D-04 -0.15358821D-04 -0.17827428D-04  0.21711140D-04 -0.16726475D-05
 -0.21607821D-05  0.33306463D-05  0.11850427D-03  0.84005664D-04 -0.20250993D-03
  0.20247076D-03 -0.14679994D-03 -0.16541007D-03 -0.40950230D-04 -0.19846304D-04
  0.60796535D-04 -0.59008874D-04  0.53481064D-04  0.43100974D-04 -0.19319540D-05
  0.13179668D-04 -0.11247714D-04  0.13829660D-04  0.69477917D-05 -0.19735964D-04
  0.86741728D-05 -0.56106539D-04  0.64486786D-04 -0.30051573D-03 -0.26021838D-03
 -0.16079057D-03  0.27449321D-03  0.42853799D-03 -0.32669788D-04  0.22433904D-03
 -0.21610871D-05  0.14904475D-04 -0.20944516D-04  0.93821005D-04  0.87378665D-04
  0.51897001D-04 -0.87337744D-04 -0.13209209D-03  0.10936549D-04 -0.78848037D-04
  0.42929984D+00  0.80023350D+00  0.13565925D+01  0.20542809D+01  0.25688854D+01
  0.22115711D+01  0.85020866D+00 -0.36840933D-02  0.21114363D-03  0.39649034D-03
  0.67515468D-03  0.10576258D-02  0.14173430D-02  0.15245435D-02  0.91533392D-03
 -0.60196209D-03  0.43505047D-01 -0.46627564D-03 -0.44327373D-03  0.48850305D-02
  0.47774532D-02  0.31566653D-02  0.26426887D-02  0.25844918D-02  0.17076830D-02
 -0.24390571D-02 -0.23853446D-02 -0.15760980D-02 -0.91993741D-03 -0.48653794D-03
  0.46677217D-03 -0.65939259D-03 -0.38389131D-03  0.35825275D-03 -0.42831349D-04
 -0.25271390D-04  0.24683375D-04  0.77125255D-03 -0.24784281D-03 -0.52340974D-03
  0.17269158D-02 -0.14876671D-02 -0.75471478D-03 -0.34887986D-03  0.12598467D-03
  0.22289519D-03 -0.81094481D-03  0.71259283D-03  0.36706350D-03 -0.84947067D-04
  0.40399890D-04  0.44547177D-04 -0.20635095D-03  0.20294107D-03  0.11031652D-03
  0.70009005D-04 -0.92971350D-04  0.20593499D-03  0.48763838D-04  0.54013222D-03
 -0.56034229D-03 -0.25879085D-03 -0.26121817D-03 -0.57462679D-04 -0.53429331D-03
 -0.30260957D-04  0.10154293D-03 -0.13614702D-03 -0.22196808D-04 -0.40707008D-03
  0.39063490D-03  0.11297968D-03  0.10244130D-03  0.17806159D-04  0.51984055D-03
 -0.41228556D+00 -0.76851814D+00 -0.13028272D+01 -0.19728643D+01 -0.24670738D+01
 -0.21239207D+01 -0.81651266D+00  0.35380830D-02 -0.20322118D-03 -0.38161339D-03
 -0.64982178D-03 -0.10179420D-02 -0.13641620D-02 -0.14673402D-02 -0.88098911D-03
  0.57937550D-03 -0.41781651D-01  0.44079326D-03  0.42327018D-03 -0.98765421D-03
 -0.96590425D-03 -0.63821378D-03  0.79294434D-03  0.77548225D-03  0.51239391D-03
 -0.56886348D-02 -0.55633606D-02 -0.36759476D-02  0.18377620D-03 -0.16285571D-03
  0.10677285D-02  0.10316988D-03 -0.10253748D-03  0.79711681D-03  0.60850165D-05
 -0.76211829D-05  0.52763136D-04  0.73442842D-03  0.68967470D-03 -0.14241031D-02
  0.17232370D-03 -0.88421471D-03  0.40853691D-03 -0.34519358D-03 -0.32542513D-03
  0.67061871D-03 -0.61117381D-04  0.38177790D-03 -0.21724301D-03 -0.92548416D-04
 -0.88180597D-04  0.18072901D-03 -0.11032753D-04  0.76138789D-04 -0.81068406D-04
  0.14599428D-03  0.15625768D-05 -0.28047611D-03  0.10068354D-03 -0.54910888D-04
  0.47512066D-03 -0.53866636D-03  0.50223158D-04  0.36630767D-03  0.36486285D-03
 -0.81056700D-04  0.26881212D-04  0.22627436D-03 -0.63645460D-04  0.43945231D-04
 -0.35476071D-03  0.30681556D-03 -0.12458887D-03 -0.32406237D-03 -0.15407150D-03
MO    2     MO 0.0        OCC NO =    2.0000000  ORB. ENERGY =  -25.328478
  0.16276001D-03  0.30342166D-03  0.51283606D-03  0.77096058D-03  0.94721416D-03
  0.80007378D-03  0.30175839D-03 -0.14934191D-05 -0.11586756D-03 -0.21694063D-03
 -0.36935998D-03 -0.57134373D-03 -0.75243959D-03 -0.78183294D-03 -0.49681973D-03
  0.33295703D-03 -0.31173527D-03  0.15425793D-02  0.51743600D-03  0.29461443D-03
  0.27621975D-03  0.19668492D-03  0.26017096D-03  0.24392681D-03  0.17369042D-03
  0.25628893D-03  0.24028716D-03  0.17109878D-03 -0.11334408D-02 -0.10532973D-02
 -0.10094655D-02  0.15337702D-03 -0.20236416D-03 -0.15729667D-04  0.18801579D-04
 -0.11601055D-04  0.38978917D-05  0.23565609D-03 -0.76480722D-03  0.52915113D-03
  0.42482095D-03 -0.32047535D-03 -0.11037489D-02  0.10435079D-03 -0.39318786D-03
  0.28883707D-03  0.30540529D-03 -0.15046574D-03 -0.53427102D-03  0.12838389D-04
 -0.45425713D-05 -0.82958175D-05 -0.89828088D-05  0.20946701D-04  0.28221071D-05
  0.64929746D-04 -0.21926503D-04 -0.20452659D-03 -0.32456942D-04 -0.14538010D-03
  0.65249745D-03 -0.16233230D-03  0.21115961D-03 -0.38917688D-04  0.37824902D-03
  0.67341605D-05  0.66975912D-05 -0.35123135D-04 -0.25276341D-04 -0.16812950D-04
  0.58279829D-04  0.50738595D-05 -0.32798230D-05  0.47089577D-04  0.67495759D-04
  0.19829261D-04  0.36966252D-04  0.62479477D-04  0.93927120D-04  0.11540032D-03
  0.97474018D-04  0.36763613D-04 -0.18194517D-06 -0.13132193D-04 -0.24587608D-04
 -0.41862507D-04 -0.64754933D-04 -0.85279969D-04 -0.88611350D-04 -0.56308535D-04
  0.37736671D-04 -0.13230656D-04 -0.90303526D-03 -0.53973496D-03  0.22623469D-04
  0.21210941D-04  0.15103453D-04  0.12071669D-04  0.11317957D-04  0.80590596D-05
  0.16230297D-04  0.15216935D-04  0.10835365D-04 -0.11576987D-03  0.27488861D-04
 -0.43533236D-04  0.10407503D-03 -0.18010659D-03 -0.29599957D-04  0.22565899D-04
 -0.17217575D-04  0.32267198D-05  0.15956568D-04 -0.28148314D-04  0.12191746D-04
  0.63663842D-05  0.14311262D-05 -0.35860262D-04  0.41378665D-04 -0.54838249D-04
  0.13459583D-04  0.62695498D-04  0.64997222D-04 -0.20834509D-04 -0.20111777D-05
 -0.95420930D-05  0.11553271D-04  0.23078925D-04 -0.51246412D-05 -0.92324744D-05
  0.34250454D-04  0.22221267D-04 -0.63293759D-05 -0.10084807D-03 -0.29098278D-04
  0.33477821D-04 -0.19032929D-05 -0.37565522D-04 -0.14489693D-04 -0.11321038D-03
 -0.11041321D-04 -0.37906604D-05  0.12197892D-04  0.58799672D-06  0.38057579D-04
 -0.57636104D-04  0.32535967D-04 -0.26685597D-04  0.21042428D-04  0.14275078D-04
  0.45792330D-04  0.85327263D-04  0.14430979D-03  0.21732255D-03  0.26905942D-03
  0.22895742D-03  0.87122523D-04 -0.40803194D-06 -0.31684681D-04 -0.59409072D-04
 -0.10107251D-03 -0.15695493D-03 -0.20828833D-03 -0.21950730D-03 -0.13610853D-03
  0.90539448D-04  0.11351393D-04  0.16475010D-03  0.21071310D-03  0.16215444D-04
  0.15574740D-04  0.10922083D-04  0.22947397D-04  0.22040701D-04  0.15456461D-04
  0.18027291D-04  0.17314998D-04  0.12142472D-04 -0.48922050D-04 -0.13414405D-04
 -0.29560370D-04 -0.66304707D-04  0.61907555D-04 -0.45502061D-05 -0.21631848D-04
  0.14527601D-04 -0.39709646D-05 -0.12293484D-04 -0.35815422D-04  0.48108906D-04
  0.62795643D-04 -0.48343901D-04 -0.57676968D-04  0.36923102D-04 -0.12263069D-04
 -0.24660033D-04 -0.38263415D-05  0.76736284D-04  0.24742312D-04  0.48670553D-05
  0.69796295D-05 -0.11846685D-04 -0.17981682D-04  0.12129829D-04  0.11083063D-04
 -0.18541921D-04 -0.76437384D-05  0.83183476D-05  0.87388932D-04 -0.25235202D-04
 -0.14631933D-04 -0.31763169D-04  0.48166417D-04 -0.10323110D-04  0.26597704D-04
 -0.50232195D-05  0.14983492D-05  0.41844423D-05 -0.37232411D-05  0.14002588D-04
 -0.33488906D-04  0.18792899D-04 -0.18497636D-04  0.20935579D-04  0.53104042D-05
 -0.27261836D+00 -0.50817243D+00 -0.86147720D+00 -0.13045304D+01 -0.16313198D+01
 -0.14044144D+01 -0.53990817D+00  0.23395105D-02 -0.14266597D-03 -0.26790143D-03
 -0.45618993D-03 -0.71461883D-03 -0.95767330D-03 -0.10301068D-02 -0.61847475D-03
  0.40673501D-03 -0.27642674D-01  0.16123621D-03  0.23543538D-03  0.39237047D-03
  0.38372975D-03  0.25354647D-03  0.35137655D-02  0.34363859D-02  0.22705655D-02
  0.16376716D-02  0.16016071D-02  0.10582495D-02 -0.62120910D-04 -0.65970532D-03
 -0.30272833D-03 -0.15270302D-03 -0.46473373D-03 -0.26368487D-03 -0.25087461D-05
 -0.38104794D-04 -0.17049324D-04  0.49648146D-03 -0.76292733D-03  0.26644587D-03
 -0.25830663D-03 -0.14413694D-03 -0.11955401D-02 -0.22796470D-03  0.33877355D-03
 -0.11080886D-03  0.15034795D-03  0.70260947D-04  0.54648196D-03 -0.75445334D-04
  0.10389602D-03 -0.28450684D-04  0.79855770D-04  0.32096355D-04  0.18534828D-03
  0.60044259D-05  0.19569753D-03 -0.18945940D-03 -0.21794988D-04 -0.45694151D-03
 -0.10100280D-03  0.37817102D-05 -0.13015109D-03  0.66938099D-03  0.10603550D-03
  0.19205999D-04 -0.10967650D-03  0.10854863D-03 -0.63767792D-04  0.28340176D-03
  0.92358737D-04  0.61497954D-05  0.45627732D-04 -0.41800463D-03 -0.11444035D-03
  0.36512710D+00  0.68061273D+00  0.11538059D+01  0.17472022D+01  0.21848825D+01
  0.18809803D+01  0.72311749D+00 -0.31333864D-02  0.17133383D-03  0.32173458D-03
  0.54785850D-03  0.85821710D-03  0.11501119D-02  0.12371004D-02  0.74275346D-03
 -0.48846592D-03  0.36986887D-01 -0.52590108D-03 -0.42127296D-03  0.41263848D-02
  0.40355142D-02  0.26664349D-02  0.22578162D-02  0.22080949D-02  0.14589817D-02
 -0.20132039D-02 -0.19688694D-02 -0.13009153D-02 -0.78064228D-03 -0.43704895D-03
  0.36428422D-03 -0.60698728D-03 -0.27524728D-03  0.24296325D-03 -0.30275941D-04
 -0.23711976D-04  0.15193112D-04  0.59225103D-03 -0.40446466D-03 -0.18778637D-03
  0.12830854D-02 -0.13375983D-02 -0.87003209D-03 -0.29381662D-03  0.17599098D-03
  0.11782564D-03 -0.64034637D-03  0.62091944D-03  0.38566840D-03 -0.79799786D-04
  0.31043766D-04  0.48756020D-04 -0.14679223D-03  0.11259239D-03  0.64233132D-04
  0.12892839D-04 -0.17816797D-03  0.42039559D-04 -0.25305592D-03  0.23909365D-03
 -0.14282439D-03  0.21437740D-03  0.29541025D-03  0.16705710D-04 -0.62660041D-03
 -0.16621238D-04  0.11523926D-03 -0.68720959D-04  0.79979697D-04 -0.26745846D-03
  0.21582808D-03 -0.30115983D-04 -0.78259330D-04 -0.96652017D-05  0.48634072D-03
  0.38297532D+00  0.71388258D+00  0.12102065D+01  0.18326093D+01  0.22916843D+01
  0.19729267D+01  0.75846507D+00 -0.32865533D-02  0.18012134D-03  0.33823597D-03
  0.57595752D-03  0.90223405D-03  0.12090998D-02  0.13005498D-02  0.78084841D-03
 -0.51351876D-03  0.38795647D-01 -0.54508905D-03 -0.43960868D-03  0.93633171D-03
  0.91571196D-03  0.60504961D-03 -0.68237125D-03 -0.66734418D-03 -0.44094251D-03
  0.52421199D-02  0.51266787D-02  0.33874134D-02 -0.18530822D-03  0.11226750D-03
 -0.98988681D-03 -0.18721027D-03  0.11067947D-03 -0.71171313D-03 -0.45621434D-05
 -0.55365443D-07 -0.43394336D-04 -0.56479264D-03 -0.71744405D-03  0.12822367D-02
 -0.49828318D-04  0.49003317D-03 -0.78758477D-03  0.27775399D-03  0.33731166D-03
 -0.61506565D-03  0.26324655D-04 -0.27778621D-03  0.33179426D-03  0.57929523D-04
  0.73518050D-04 -0.13144757D-03  0.16921998D-04 -0.10123709D-03  0.45923394D-04
  0.33896212D-04  0.12165613D-03  0.17709858D-03 -0.46092663D-04  0.12939678D-03
 -0.11410453D-03 -0.55595973D-04 -0.49436518D-03 -0.41719121D-03  0.92283056D-04
  0.21729208D-04 -0.66429603D-04 -0.17643143D-03  0.46745654D-04 -0.54541189D-04
  0.20805674D-03 -0.11193328D-03  0.25383000D-03  0.32123756D-03  0.10270713D-04
MO    3     MO 0.0        OCC NO =    2.0000000  ORB. ENERGY =  -25.328456
  0.31357217D-03  0.58456982D-03  0.98802598D-03  0.14853267D-02  0.18248954D-02
  0.15414159D-02  0.58136538D-03 -0.28772097D-05 -0.22325477D-03 -0.41800336D-03
 -0.71168649D-03 -0.11008708D-02 -0.14498081D-02 -0.15064435D-02 -0.95727721D-03
  0.64154492D-03 -0.59906303D-03  0.29673857D-02  0.99617851D-03  0.11050889D-03
  0.10360911D-03  0.73775857D-04 -0.31896996D-03 -0.29905461D-03 -0.21294470D-03
 -0.79418362D-04 -0.74459762D-04 -0.53019787D-04 -0.37412228D-03  0.12216320D-02
  0.32647933D-03  0.39170489D-03 -0.21432102D-03  0.91588707D-04  0.35001744D-04
 -0.24462971D-04  0.60143530D-05 -0.39031993D-03  0.41324915D-03 -0.22929221D-04
  0.46971838D-03 -0.35283412D-05  0.70101922D-03 -0.25479414D-03  0.21680878D-03
  0.37985366D-04  0.36738599D-03 -0.54408975D-04  0.37254495D-03  0.96700411D-05
  0.13590272D-05 -0.11029068D-04 -0.39798296D-04  0.98388364D-06 -0.96735151D-05
 -0.30227299D-04  0.16893824D-03 -0.25685014D-03  0.18898227D-03 -0.56625710D-03
  0.81256170D-04 -0.98300369D-04  0.59442382D-04  0.68929424D-03  0.38886497D-03
 -0.10167363D-04  0.12576605D-04 -0.54325613D-04  0.18129740D-04 -0.39667665D-04
  0.40343440D-04  0.12372349D-04  0.19378511D-05  0.12263340D-03  0.15154768D-03
  0.37984629D-04  0.70811985D-04  0.11968473D-03  0.17992535D-03  0.22105908D-03
  0.18671974D-03  0.70423814D-04 -0.34853139D-06 -0.25154695D-04 -0.47097526D-04
 -0.80187568D-04 -0.12403797D-03 -0.16335365D-03 -0.16973490D-03 -0.10785891D-03
  0.72284535D-04 -0.25315185D-04 -0.17363940D-02 -0.10393228D-02  0.16410066D-04
  0.15385480D-04  0.10955379D-04 -0.25484955D-04 -0.23893765D-04 -0.17013784D-04
 -0.28395239D-05 -0.26622342D-05 -0.18956693D-05 -0.17240594D-03  0.14384296D-03
 -0.20248559D-04  0.30829008D-03 -0.15214479D-03  0.78724570D-04  0.45295996D-04
 -0.29872490D-04  0.85095558D-05 -0.57911289D-05  0.14495676D-04 -0.87045470D-05
 -0.11736688D-04  0.17235037D-05  0.17187816D-04 -0.32159309D-04  0.29578268D-04
  0.25810411D-05 -0.56136774D-05 -0.39554888D-04  0.14431345D-04 -0.16828956D-04
  0.62033900D-05  0.10625566D-04  0.36019634D-04 -0.98504959D-05  0.13400305D-04
 -0.11770903D-04 -0.46629662D-05  0.21639092D-04  0.72865149D-04 -0.28618047D-04
 -0.25091914D-04 -0.37552438D-04  0.42606946D-04 -0.39825363D-04 -0.39405570D-04
 -0.22156034D-05 -0.22031315D-04  0.92190079D-05 -0.39951139D-04  0.95889046D-04
 -0.31344140D-05  0.46597950D-04 -0.29795101D-04 -0.24522610D-04  0.43702561D-04
  0.88131798D-04  0.16422063D-03  0.27773825D-03  0.41825842D-03  0.51783106D-03
  0.44065086D-03  0.16767578D-03 -0.78529722D-06 -0.60985248D-04 -0.11434791D-03
 -0.19453982D-03 -0.30209980D-03 -0.40090400D-03 -0.42249779D-03 -0.26197558D-03
  0.17426626D-03  0.21897530D-04  0.31675685D-03  0.40584474D-03 -0.22782187D-05
 -0.21882018D-05 -0.15345181D-05 -0.15892927D-04 -0.15264966D-04 -0.10704848D-04
 -0.74332920D-05 -0.71395881D-05 -0.50067720D-05 -0.48625953D-04  0.57043587D-04
  0.91895994D-06 -0.14425526D-03  0.89132285D-04 -0.29568014D-04 -0.41490299D-04
  0.28324689D-04 -0.74092398D-05 -0.52860620D-04  0.22467989D-04  0.30392631D-04
  0.12585290D-03 -0.16545205D-04  0.58775792D-04  0.16810235D-04  0.42968173D-05
 -0.21107052D-04 -0.95473239D-04 -0.13388135D-04 -0.31358497D-04  0.14656609D-04
 -0.47560990D-05 -0.99005104D-05 -0.36890582D-04  0.58288390D-05 -0.14137773D-04
  0.17141480D-04  0.20402245D-04 -0.62116969D-05 -0.16399256D-04 -0.69894373D-04
  0.23200086D-04 -0.35025185D-04  0.86876370D-05 -0.45649958D-05 -0.76989675D-04
 -0.17755843D-05 -0.11223852D-04  0.27830356D-06 -0.16953683D-04  0.45334797D-04