 Molden2AIM, Version 4.0.0 (06/02/2016)           Time: Thu Jun 28 06:06:08 2018
GAUSSIAN             38 MOL ORBITALS    665 PRIMITIVES        7 NUCLEI
  C    1    (CENTRE  1)   2.36968066  0.01045208 -0.03914568  CHARGE =  6.0
  N    2    (CENTRE  2)   0.26153054  1.59198655 -0.55376156  CHARGE =  7.0
  H    3    (CENTRE  3)   0.31917474  3.08032539  0.66830164  CHARGE =  1.0
  F    4    (CENTRE  4)   4.45174310  1.43710081 -0.32361560  CHARGE =  9.0
  F    5    (CENTRE  5)   2.45699356 -0.96647019  2.31800609  CHARGE =  9.0
  F    6    (CENTRE  6)   2.46338273 -1.92212359 -1.65140520  CHARGE =  9.0
  Br   7    (CENTRE  7)  -2.85548578 -0.04223916  0.00195587  CHARGE = 35.0
CENTRE ASSIGNMENTS    1  1  1  1  1  1  1  1  1  1  1  1  1  1  1  1  1  1  1  1
CENTRE ASSIGNMENTS    1  1  1  1  1  1  1  1  1  1  1  1  1  1  1  1  1  1  1  1
CENTRE ASSIGNMENTS    1  1  1  1  1  1  1  1  1  1  1  1  1  1  1  1  1  1  1  1
CENTRE ASSIGNMENTS    1  1  1  1  1  1  1  1  1  1  1  1  1  1  1  2  2  2  2  2
CENTRE ASSIGNMENTS    2  2  2  2  2  2  2  2  2  2  2  2  2  2  2  2  2  2  2  2
CENTRE ASSIGNMENTS    2  2  2  2  2  2  2  2  2  2  2  2  2  2  2  2  2  2  2  2
CENTRE ASSIGNMENTS    2  2  2  2  2  2  2  2  2  2  2  2  2  2  2  2  2  2  2  2
CENTRE ASSIGNMENTS    2  2  2  2  2  2  2  2  2  2  3  3  3  3  3  3  3  3  3  3
CENTRE ASSIGNMENTS    3  3  3  3  3  3  3  3  3  3  3  3  3  3  3  3  3  4  4  4
CENTRE ASSIGNMENTS    4  4  4  4  4  4  4  4  4  4  4  4  4  4  4  4  4  4  4  4
CENTRE ASSIGNMENTS    4  4  4  4  4  4  4  4  4  4  4  4  4  4  4  4  4  4  4  4
CENTRE ASSIGNMENTS    4  4  4  4  4  4  4  4  4  4  4  4  4  4  4  4  4  4  4  4
CENTRE ASSIGNMENTS    4  4  4  4  4  4  4  4  4  4  4  4  5  5  5  5  5  5  5  5
CENTRE ASSIGNMENTS    5  5  5  5  5  5  5  5  5  5  5  5  5  5  5  5  5  5  5  5
CENTRE ASSIGNMENTS    5  5  5  5  5  5  5  5  5  5  5  5  5  5  5  5  5  5  5  5
CENTRE ASSIGNMENTS    5  5  5  5  5  5  5  5  5  5  5  5  5  5  5  5  5  5  5  5
CENTRE ASSIGNMENTS    5  5  5  5  5  5  5  6  6  6  6  6  6  6  6  6  6  6  6  6
CENTRE ASSIGNMENTS    6  6  6  6  6  6  6  6  6  6  6  6  6  6  6  6  6  6  6  6
CENTRE ASSIGNMENTS    6  6  6  6  6  6  6  6  6  6  6  6  6  6  6  6  6  6  6  6
CENTRE ASSIGNMENTS    6  6  6  6  6  6  6  6  6  6  6  6  6  6  6  6  6  6  6  6
CENTRE ASSIGNMENTS    6  6  7  7  7  7  7  7  7  7  7  7  7  7  7  7  7  7  7  7
CENTRE ASSIGNMENTS    7  7  7  7  7  7  7  7  7  7  7  7  7  7  7  7  7  7  7  7
CENTRE ASSIGNMENTS    7  7  7  7  7  7  7  7  7  7  7  7  7  7  7  7  7  7  7  7
CENTRE ASSIGNMENTS    7  7  7  7  7  7  7  7  7  7  7  7  7  7  7  7  7  7  7  7
CENTRE ASSIGNMENTS    7  7  7  7  7  7  7  7  7  7  7  7  7  7  7  7  7  7  7  7
CENTRE ASSIGNMENTS    7  7  7  7  7  7  7  7  7  7  7  7  7  7  7  7  7  7  7  7
CENTRE ASSIGNMENTS    7  7  7  7  7  7  7  7  7  7  7  7  7  7  7  7  7  7  7  7
CENTRE ASSIGNMENTS    7  7  7  7  7  7  7  7  7  7  7  7  7  7  7  7  7  7  7  7
CENTRE ASSIGNMENTS    7  7  7  7  7  7  7  7  7  7  7  7  7  7  7  7  7  7  7  7
CENTRE ASSIGNMENTS    7  7  7  7  7  7  7  7  7  7  7  7  7  7  7  7  7  7  7  7
CENTRE ASSIGNMENTS    7  7  7  7  7  7  7  7  7  7  7  7  7  7  7  7  7  7  7  7
CENTRE ASSIGNMENTS    7  7  7  7  7  7  7  7  7  7  7  7  7  7  7  7  7  7  7  7
CENTRE ASSIGNMENTS    7  7  7  7  7  7  7  7  7  7  7  7  7  7  7  7  7  7  7  7
CENTRE ASSIGNMENTS    7  7  7  7  7
TYPE ASSIGNMENTS      1  1  1  1  1  1  1  1  1  1  1  1  1  1  1  1  1  1  1  2
TYPE ASSIGNMENTS      2  2  3  3  3  4  4  4  2  3  4  2  3  4  2  3  4  5  6  7
TYPE ASSIGNMENTS      8  9 10  5  6  7  8  9 10  5  6  7  8  9 10 11 12 13 17 14
TYPE ASSIGNMENTS     15 18 19 16 20 11 12 13 17 14 15 18 19 16 20  1  1  1  1  1
TYPE ASSIGNMENTS      1  1  1  1  1  1  1  1  1  1  1  1  1  1  2  2  2  3  3  3
TYPE ASSIGNMENTS      4  4  4  2  3  4  2  3  4  2  3  4  5  6  7  8  9 10  5  6
TYPE ASSIGNMENTS      7  8  9 10  5  6  7  8  9 10 11 12 13 17 14 15 18 19 16 20
TYPE ASSIGNMENTS     11 12 13 17 14 15 18 19 16 20  1  1  1  1  1  1  2  3  4  2
TYPE ASSIGNMENTS      3  4  2  3  4  5  6  7  8  9 10  5  6  7  8  9 10  1  1  1
TYPE ASSIGNMENTS      1  1  1  1  1  1  1  1  1  1  1  1  1  1  1  1  2  2  2  3
TYPE ASSIGNMENTS      3  3  4  4  4  2  3  4  2  3  4  2  3  4  5  6  7  8  9 10
TYPE ASSIGNMENTS      5  6  7  8  9 10  5  6  7  8  9 10 11 12 13 17 14 15 18 19
TYPE ASSIGNMENTS     16 20 11 12 13 17 14 15 18 19 16 20  1  1  1  1  1  1  1  1
TYPE ASSIGNMENTS      1  1  1  1  1  1  1  1  1  1  1  2  2  2  3  3  3  4  4  4
TYPE ASSIGNMENTS      2  3  4  2  3  4  2  3  4  5  6  7  8  9 10  5  6  7  8  9
TYPE ASSIGNMENTS     10  5  6  7  8  9 10 11 12 13 17 14 15 18 19 16 20 11 12 13
TYPE ASSIGNMENTS     17 14 15 18 19 16 20  1  1  1  1  1  1  1  1  1  1  1  1  1
TYPE ASSIGNMENTS      1  1  1  1  1  1  2  2  2  3  3  3  4  4  4  2  3  4  2  3
TYPE ASSIGNMENTS      4  2  3  4  5  6  7  8  9 10  5  6  7  8  9 10  5  6  7  8
TYPE ASSIGNMENTS      9 10 11 12 13 17 14 15 18 19 16 20 11 12 13 17 14 15 18 19
TYPE ASSIGNMENTS     16 20  1  1  1  1  1  1  1  1  1  1  1  1  1  1  1  1  1  1
TYPE ASSIGNMENTS      1  1  1  1  1  1  1  1  1  1  1  1  1  1  1  1  1  1  1  1
TYPE ASSIGNMENTS      1  1  1  1  1  1  1  1  1  1  1  1  1  1  1  1  1  1  1  1
TYPE ASSIGNMENTS      1  1  1  1  1  1  1  1  1  1  1  1  1  1  1  1  1  2  2  2
TYPE ASSIGNMENTS      2  2  2  2  2  2  2  2  3  3  3  3  3  3  3  3  3  3  3  4
TYPE ASSIGNMENTS      4  4  4  4  4  4  4  4  4  4  2  2  2  2  2  2  2  2  2  2
TYPE ASSIGNMENTS      2  3  3  3  3  3  3  3  3  3  3  3  4  4  4  4  4  4  4  4
TYPE ASSIGNMENTS      4  4  4  2  2  2  2  2  2  2  2  2  2  2  3  3  3  3  3  3
TYPE ASSIGNMENTS      3  3  3  3  3  4  4  4  4  4  4  4  4  4  4  4  2  3  4  2
TYPE ASSIGNMENTS      3  4  2  3  4  5  5  5  5  5  5  5  6  6  6  6  6  6  6  7
TYPE ASSIGNMENTS      7  7  7  7  7  7  8  8  8  8  8  8  8  9  9  9  9  9  9  9
TYPE ASSIGNMENTS     10 10 10 10 10 10 10  5  6  7  8  9 10  5  6  7  8  9 10  5
TYPE ASSIGNMENTS      6  7  8  9 10 11 12 13 17 14 15 18 19 16 20 11 12 13 17 14
TYPE ASSIGNMENTS     15 18 19 16 20
EXPONENTS  0.8236000D+04 0.1235000D+04 0.2808000D+03 0.7927000D+02 0.2559000D+02
EXPONENTS  0.8997000D+01 0.3319000D+01 0.3643000D+00 0.8236000D+04 0.1235000D+04
EXPONENTS  0.2808000D+03 0.7927000D+02 0.2559000D+02 0.8997000D+01 0.3319000D+01
EXPONENTS  0.3643000D+00 0.9059000D+00 0.1285000D+00 0.4402000D-01 0.1871000D+02
EXPONENTS  0.4133000D+01 0.1200000D+01 0.1871000D+02 0.4133000D+01 0.1200000D+01
EXPONENTS  0.1871000D+02 0.4133000D+01 0.1200000D+01 0.3827000D+00 0.3827000D+00
EXPONENTS  0.3827000D+00 0.1209000D+00 0.1209000D+00 0.1209000D+00 0.3569000D-01
EXPONENTS  0.3569000D-01 0.3569000D-01 0.1097000D+01 0.1097000D+01 0.1097000D+01
EXPONENTS  0.1097000D+01 0.1097000D+01 0.1097000D+01 0.3180000D+00 0.3180000D+00
EXPONENTS  0.3180000D+00 0.3180000D+00 0.3180000D+00 0.3180000D+00 0.1000000D+00
EXPONENTS  0.1000000D+00 0.1000000D+00 0.1000000D+00 0.1000000D+00 0.1000000D+00
EXPONENTS  0.7610000D+00 0.7610000D+00 0.7610000D+00 0.7610000D+00 0.7610000D+00
EXPONENTS  0.7610000D+00 0.7610000D+00 0.7610000D+00 0.7610000D+00 0.7610000D+00
EXPONENTS  0.2680000D+00 0.2680000D+00 0.2680000D+00 0.2680000D+00 0.2680000D+00
EXPONENTS  0.2680000D+00 0.2680000D+00 0.2680000D+00 0.2680000D+00 0.2680000D+00
EXPONENTS  0.1142000D+05 0.1712000D+04 0.3893000D+03 0.1100000D+03 0.3557000D+02
EXPONENTS  0.1254000D+02 0.4644000D+01 0.5118000D+00 0.1142000D+05 0.1712000D+04
EXPONENTS  0.3893000D+03 0.1100000D+03 0.3557000D+02 0.1254000D+02 0.4644000D+01
EXPONENTS  0.5118000D+00 0.1293000D+01 0.1787000D+00 0.5760000D-01 0.2663000D+02
EXPONENTS  0.5948000D+01 0.1742000D+01 0.2663000D+02 0.5948000D+01 0.1742000D+01
EXPONENTS  0.2663000D+02 0.5948000D+01 0.1742000D+01 0.5550000D+00 0.5550000D+00
EXPONENTS  0.5550000D+00 0.1725000D+00 0.1725000D+00 0.1725000D+00 0.4910000D-01
EXPONENTS  0.4910000D-01 0.4910000D-01 0.1654000D+01 0.1654000D+01 0.1654000D+01
EXPONENTS  0.1654000D+01 0.1654000D+01 0.1654000D+01 0.4690000D+00 0.4690000D+00
EXPONENTS  0.4690000D+00 0.4690000D+00 0.4690000D+00 0.4690000D+00 0.1510000D+00
EXPONENTS  0.1510000D+00 0.1510000D+00 0.1510000D+00 0.1510000D+00 0.1510000D+00
EXPONENTS  0.1093000D+01 0.1093000D+01 0.1093000D+01 0.1093000D+01 0.1093000D+01
EXPONENTS  0.1093000D+01 0.1093000D+01 0.1093000D+01 0.1093000D+01 0.1093000D+01
EXPONENTS  0.3640000D+00 0.3640000D+00 0.3640000D+00 0.3640000D+00 0.3640000D+00
EXPONENTS  0.3640000D+00 0.3640000D+00 0.3640000D+00 0.3640000D+00 0.3640000D+00
EXPONENTS  0.3387000D+02 0.5095000D+01 0.1159000D+01 0.3258000D+00 0.1027000D+00
EXPONENTS  0.2526000D-01 0.1407000D+01 0.1407000D+01 0.1407000D+01 0.3880000D+00
EXPONENTS  0.3880000D+00 0.3880000D+00 0.1020000D+00 0.1020000D+00 0.1020000D+00
EXPONENTS  0.1057000D+01 0.1057000D+01 0.1057000D+01 0.1057000D+01 0.1057000D+01
EXPONENTS  0.1057000D+01 0.2470000D+00 0.2470000D+00 0.2470000D+00 0.2470000D+00
EXPONENTS  0.2470000D+00 0.2470000D+00 0.1950000D+05 0.2923000D+04 0.6645000D+03
EXPONENTS  0.1875000D+03 0.6062000D+02 0.2142000D+02 0.7950000D+01 0.8815000D+00
EXPONENTS  0.1950000D+05 0.2923000D+04 0.6645000D+03 0.1875000D+03 0.6062000D+02
EXPONENTS  0.2142000D+02 0.7950000D+01 0.8815000D+00 0.2257000D+01 0.3041000D+00
EXPONENTS  0.9158000D-01 0.4388000D+02 0.9926000D+01 0.2930000D+01 0.4388000D+02
EXPONENTS  0.9926000D+01 0.2930000D+01 0.4388000D+02 0.9926000D+01 0.2930000D+01
EXPONENTS  0.9132000D+00 0.9132000D+00 0.9132000D+00 0.2672000D+00 0.2672000D+00
EXPONENTS  0.2672000D+00 0.7361000D-01 0.7361000D-01 0.7361000D-01 0.3107000D+01
EXPONENTS  0.3107000D+01 0.3107000D+01 0.3107000D+01 0.3107000D+01 0.3107000D+01
EXPONENTS  0.8550000D+00 0.8550000D+00 0.8550000D+00 0.8550000D+00 0.8550000D+00
EXPONENTS  0.8550000D+00 0.2920000D+00 0.2920000D+00 0.2920000D+00 0.2920000D+00
EXPONENTS  0.2920000D+00 0.2920000D+00 0.1917000D+01 0.1917000D+01 0.1917000D+01
EXPONENTS  0.1917000D+01 0.1917000D+01 0.1917000D+01 0.1917000D+01 0.1917000D+01
EXPONENTS  0.1917000D+01 0.1917000D+01 0.7240000D+00 0.7240000D+00 0.7240000D+00
EXPONENTS  0.7240000D+00 0.7240000D+00 0.7240000D+00 0.7240000D+00 0.7240000D+00
EXPONENTS  0.7240000D+00 0.7240000D+00 0.1950000D+05 0.2923000D+04 0.6645000D+03
EXPONENTS  0.1875000D+03 0.6062000D+02 0.2142000D+02 0.7950000D+01 0.8815000D+00
EXPONENTS  0.1950000D+05 0.2923000D+04 0.6645000D+03 0.1875000D+03 0.6062000D+02
EXPONENTS  0.2142000D+02 0.7950000D+01 0.8815000D+00 0.2257000D+01 0.3041000D+00
EXPONENTS  0.9158000D-01 0.4388000D+02 0.9926000D+01 0.2930000D+01 0.4388000D+02
EXPONENTS  0.9926000D+01 0.2930000D+01 0.4388000D+02 0.9926000D+01 0.2930000D+01
EXPONENTS  0.9132000D+00 0.9132000D+00 0.9132000D+00 0.2672000D+00 0.2672000D+00
EXPONENTS  0.2672000D+00 0.7361000D-01 0.7361000D-01 0.7361000D-01 0.3107000D+01
EXPONENTS  0.3107000D+01 0.3107000D+01 0.3107000D+01 0.3107000D+01 0.3107000D+01
EXPONENTS  0.8550000D+00 0.8550000D+00 0.8550000D+00 0.8550000D+00 0.8550000D+00
EXPONENTS  0.8550000D+00 0.2920000D+00 0.2920000D+00 0.2920000D+00 0.2920000D+00
EXPONENTS  0.2920000D+00 0.2920000D+00 0.1917000D+01 0.1917000D+01 0.1917000D+01
EXPONENTS  0.1917000D+01 0.1917000D+01 0.1917000D+01 0.1917000D+01 0.1917000D+01
EXPONENTS  0.1917000D+01 0.1917000D+01 0.7240000D+00 0.7240000D+00 0.7240000D+00
EXPONENTS  0.7240000D+00 0.7240000D+00 0.7240000D+00 0.7240000D+00 0.7240000D+00
EXPONENTS  0.7240000D+00 0.7240000D+00 0.1950000D+05 0.2923000D+04 0.6645000D+03
EXPONENTS  0.1875000D+03 0.6062000D+02 0.2142000D+02 0.7950000D+01 0.8815000D+00
EXPONENTS  0.1950000D+05 0.2923000D+04 0.6645000D+03 0.1875000D+03 0.6062000D+02
EXPONENTS  0.2142000D+02 0.7950000D+01 0.8815000D+00 0.2257000D+01 0.3041000D+00
EXPONENTS  0.9158000D-01 0.4388000D+02 0.9926000D+01 0.2930000D+01 0.4388000D+02
EXPONENTS  0.9926000D+01 0.2930000D+01 0.4388000D+02 0.9926000D+01 0.2930000D+01
EXPONENTS  0.9132000D+00 0.9132000D+00 0.9132000D+00 0.2672000D+00 0.2672000D+00
EXPONENTS  0.2672000D+00 0.7361000D-01 0.7361000D-01 0.7361000D-01 0.3107000D+01
EXPONENTS  0.3107000D+01 0.3107000D+01 0.3107000D+01 0.3107000D+01 0.3107000D+01
EXPONENTS  0.8550000D+00 0.8550000D+00 0.8550000D+00 0.8550000D+00 0.8550000D+00
EXPONENTS  0.8550000D+00 0.2920000D+00 0.2920000D+00 0.2920000D+00 0.2920000D+00
EXPONENTS  0.2920000D+00 0.2920000D+00 0.1917000D+01 0.1917000D+01 0.1917000D+01
EXPONENTS  0.1917000D+01 0.1917000D+01 0.1917000D+01 0.1917000D+01 0.1917000D+01
EXPONENTS  0.1917000D+01 0.1917000D+01 0.7240000D+00 0.7240000D+00 0.7240000D+00
EXPONENTS  0.7240000D+00 0.7240000D+00 0.7240000D+00 0.7240000D+00 0.7240000D+00
EXPONENTS  0.7240000D+00 0.7240000D+00 0.1063900D+08 0.1593400D+07 0.3626100D+06
EXPONENTS  0.1027000D+06 0.3350100D+05 0.1209300D+05 0.4715900D+04 0.1955600D+04
EXPONENTS  0.8526100D+03 0.3876700D+03 0.1826800D+03 0.8824500D+02 0.3926300D+02
EXPONENTS  0.1923400D+02 0.9405700D+01 0.4160100D+01 0.1899500D+01 0.3011400D+00
EXPONENTS  0.1063900D+08 0.1593400D+07 0.3626100D+06 0.1027000D+06 0.3350100D+05
EXPONENTS  0.1209300D+05 0.4715900D+04 0.1955600D+04 0.8526100D+03 0.3876700D+03
EXPONENTS  0.1826800D+03 0.8824500D+02 0.3926300D+02 0.1923400D+02 0.9405700D+01
EXPONENTS  0.4160100D+01 0.1899500D+01 0.3011400D+00 0.1063900D+08 0.1593400D+07
EXPONENTS  0.3626100D+06 0.1027000D+06 0.3350100D+05 0.1209300D+05 0.4715900D+04
EXPONENTS  0.1955600D+04 0.8526100D+03 0.3876700D+03 0.1826800D+03 0.8824500D+02
EXPONENTS  0.3926300D+02 0.1923400D+02 0.9405700D+01 0.4160100D+01 0.1899500D+01
EXPONENTS  0.3011400D+00 0.1063900D+08 0.1593400D+07 0.3626100D+06 0.1027000D+06
EXPONENTS  0.3350100D+05 0.1209300D+05 0.4715900D+04 0.1955600D+04 0.8526100D+03
EXPONENTS  0.3876700D+03 0.1826800D+03 0.8824500D+02 0.3926300D+02 0.1923400D+02
EXPONENTS  0.9405700D+01 0.4160100D+01 0.1899500D+01 0.3011400D+00 0.6047200D+00
EXPONENTS  0.1251500D+00 0.4559300D-01 0.8676500D+04 0.2055900D+04 0.6662300D+03
EXPONENTS  0.2531000D+03 0.1061200D+03 0.4724200D+02 0.2182500D+02 0.9968400D+01
EXPONENTS  0.4517100D+01 0.1998200D+01 0.2814500D+00 0.8676500D+04 0.2055900D+04
EXPONENTS  0.6662300D+03 0.2531000D+03 0.1061200D+03 0.4724200D+02 0.2182500D+02
EXPONENTS  0.9968400D+01 0.4517100D+01 0.1998200D+01 0.2814500D+00 0.8676500D+04
EXPONENTS  0.2055900D+04 0.6662300D+03 0.2531000D+03 0.1061200D+03 0.4724200D+02
EXPONENTS  0.2182500D+02 0.9968400D+01 0.4517100D+01 0.1998200D+01 0.2814500D+00
EXPONENTS  0.8676500D+04 0.2055900D+04 0.6662300D+03 0.2531000D+03 0.1061200D+03
EXPONENTS  0.4724200D+02 0.2182500D+02 0.9968400D+01 0.4517100D+01 0.1998200D+01
EXPONENTS  0.2814500D+00 0.8676500D+04 0.2055900D+04 0.6662300D+03 0.2531000D+03
EXPONENTS  0.1061200D+03 0.4724200D+02 0.2182500D+02 0.9968400D+01 0.4517100D+01
EXPONENTS  0.1998200D+01 0.2814500D+00 0.8676500D+04 0.2055900D+04 0.6662300D+03
EXPONENTS  0.2531000D+03 0.1061200D+03 0.4724200D+02 0.2182500D+02 0.9968400D+01
EXPONENTS  0.4517100D+01 0.1998200D+01 0.2814500D+00 0.8676500D+04 0.2055900D+04
EXPONENTS  0.6662300D+03 0.2531000D+03 0.1061200D+03 0.4724200D+02 0.2182500D+02
EXPONENTS  0.9968400D+01 0.4517100D+01 0.1998200D+01 0.2814500D+00 0.8676500D+04
EXPONENTS  0.2055900D+04 0.6662300D+03 0.2531000D+03 0.1061200D+03 0.4724200D+02
EXPONENTS  0.2182500D+02 0.9968400D+01 0.4517100D+01 0.1998200D+01 0.2814500D+00
EXPONENTS  0.8676500D+04 0.2055900D+04 0.6662300D+03 0.2531000D+03 0.1061200D+03
EXPONENTS  0.4724200D+02 0.2182500D+02 0.9968400D+01 0.4517100D+01 0.1998200D+01
EXPONENTS  0.2814500D+00 0.7098800D+00 0.7098800D+00 0.7098800D+00 0.1020400D+00
EXPONENTS  0.1020400D+00 0.1020400D+00 0.3514200D-01 0.3514200D-01 0.3514200D-01
EXPONENTS  0.4038300D+03 0.1211700D+03 0.4634500D+02 0.1972100D+02 0.8862400D+01
EXPONENTS  0.3996200D+01 0.1763600D+01 0.4038300D+03 0.1211700D+03 0.4634500D+02
EXPONENTS  0.1972100D+02 0.8862400D+01 0.3996200D+01 0.1763600D+01 0.4038300D+03
EXPONENTS  0.1211700D+03 0.4634500D+02 0.1972100D+02 0.8862400D+01 0.3996200D+01
EXPONENTS  0.1763600D+01 0.4038300D+03 0.1211700D+03 0.4634500D+02 0.1972100D+02
EXPONENTS  0.8862400D+01 0.3996200D+01 0.1763600D+01 0.4038300D+03 0.1211700D+03
EXPONENTS  0.4634500D+02 0.1972100D+02 0.8862400D+01 0.3996200D+01 0.1763600D+01
EXPONENTS  0.4038300D+03 0.1211700D+03 0.4634500D+02 0.1972100D+02 0.8862400D+01
EXPONENTS  0.3996200D+01 0.1763600D+01 0.7061900D+00 0.7061900D+00 0.7061900D+00
EXPONENTS  0.7061900D+00 0.7061900D+00 0.7061900D+00 0.2639000D+00 0.2639000D+00
EXPONENTS  0.2639000D+00 0.2639000D+00 0.2639000D+00 0.2639000D+00 0.1047000D+00
EXPONENTS  0.1047000D+00 0.1047000D+00 0.1047000D+00 0.1047000D+00 0.1047000D+00
EXPONENTS  0.5515000D+00 0.5515000D+00 0.5515000D+00 0.5515000D+00 0.5515000D+00
EXPONENTS  0.5515000D+00 0.5515000D+00 0.5515000D+00 0.5515000D+00 0.5515000D+00
EXPONENTS  0.2580000D+00 0.2580000D+00 0.2580000D+00 0.2580000D+00 0.2580000D+00
EXPONENTS  0.2580000D+00 0.2580000D+00 0.2580000D+00 0.2580000D+00 0.2580000D+00
MO    1     MO 0.0        OCC NO =    2.0000000  ORB. ENERGY = -485.425184
  0.42415598D-05  0.79072319D-05  0.13364615D-04  0.20091394D-04  0.24684599D-04
  0.20850090D-04  0.78638868D-05 -0.38918814D-07 -0.29593314D-05 -0.55408022D-05
 -0.94336898D-05 -0.14592484D-04 -0.19217788D-04 -0.19968512D-04 -0.12689093D-04
  0.85039352D-05  0.44401562D-05 -0.73069404D-04 -0.50811867D-05  0.35080794D-06
  0.32890474D-06  0.23419977D-06  0.79177790D-05  0.74234211D-05  0.52859180D-05
 -0.43778185D-05 -0.41044831D-05 -0.29226365D-05 -0.43987615D-05 -0.23235915D-04
  0.14780129D-04  0.50076242D-04 -0.54199634D-05 -0.12699181D-04  0.34956298D-06
  0.53563243D-07  0.58151542D-06  0.47856771D-05 -0.69161206D-05  0.21304435D-05
  0.81232554D-05 -0.25937214D-05  0.34204082D-05 -0.84561929D-06 -0.22506910D-05
  0.30963103D-05  0.79496761D-07 -0.54147105D-05 -0.36770619D-05 -0.60117287D-05
  0.30523509D-05  0.29593778D-05 -0.57318064D-06  0.26074339D-05  0.36033197D-06
 -0.47749696D-05  0.93998674D-06  0.98909564D-06  0.11326911D-04 -0.46403475D-05
  0.13533689D-05  0.29979975D-05  0.18203873D-05 -0.43206558D-05 -0.82571208D-05
  0.53985433D-05 -0.23407035D-05  0.62539128D-06 -0.12247451D-04  0.14363568D-05
 -0.40404635D-06 -0.39481790D-05  0.55857536D-05 -0.14721275D-05  0.21911224D-05
 -0.14463455D-04 -0.26950518D-04 -0.45580083D-04 -0.68641079D-04 -0.84982109D-04
 -0.72315939D-04 -0.27517549D-04  0.12887642D-06  0.10056005D-04  0.18855104D-04
  0.32078142D-04  0.49813967D-04  0.66106032D-04  0.69666683D-04  0.43197788D-04
 -0.28735185D-04 -0.52681650D-05  0.82417189D-04 -0.42585701D-04 -0.18624053D-05
 -0.17888180D-05 -0.12544427D-05  0.22810023D-05  0.21908755D-05  0.15363931D-05
 -0.74660358D-05 -0.71710382D-05 -0.50288269D-05  0.20128783D-04  0.18342218D-04
  0.10037611D-04  0.38797978D-05 -0.35003628D-04  0.23580864D-04  0.15209714D-05
  0.19657287D-05 -0.27951705D-05 -0.34890551D-04  0.44151190D-05  0.30475432D-04
 -0.44112572D-04  0.12405213D-04  0.67569687D-05  0.13966213D-04  0.23844940D-05
 -0.16350707D-04  0.14530881D-04  0.39119406D-06  0.41977702D-05 -0.18545062D-05
  0.26898204D-05 -0.83531421D-06  0.91814910D-05 -0.78389684D-06 -0.94993135D-05
  0.45344616D-05  0.31164755D-05  0.46274720D-05 -0.41526681D-05 -0.80159417D-05
 -0.98793420D-05 -0.94507169D-05 -0.13334848D-05 -0.40030739D-05 -0.81296868D-05
 -0.48095960D-05  0.27298489D-05 -0.40799830D-05  0.52557769D-05 -0.13119056D-04
  0.10425131D-04  0.91730110D-05  0.49295087D-05  0.18148177D-05  0.13236006D-04
  0.44035114D-06  0.79419142D-06  0.11710348D-05 -0.15778995D-04 -0.39867545D-05
 -0.13051302D-05 -0.16111781D-04 -0.12581235D-04  0.45283579D-05 -0.40802467D-05
  0.21355148D-04  0.12815662D-04  0.25878570D-05  0.63318530D-05  0.33413687D-05
  0.28669649D-05  0.52473919D-06 -0.33917041D-05  0.14396042D-04 -0.11359190D-05
 -0.15645379D-04 -0.21383710D-06 -0.15012317D-05  0.17150688D-05 -0.61554827D-05
  0.56493827D-05 -0.30655630D-05 -0.61162386D-05 -0.11400934D-04 -0.19327385D-04
 -0.29267358D-04 -0.36598933D-04 -0.31508273D-04 -0.12112930D-04  0.52487310D-07
  0.40094952D-05  0.75291219D-05  0.12820796D-04  0.20083701D-04  0.26914522D-04
  0.28950198D-04  0.17381661D-04 -0.11430911D-04  0.33033826D-05  0.13563652D-04
  0.75789366D-05  0.19963039D-05  0.19523416D-05  0.12899947D-05  0.67024164D-05
  0.65548168D-05  0.43310446D-05 -0.59613621D-06 -0.58300819D-06 -0.38521816D-06
  0.14030469D-05 -0.56178298D-05  0.84746979D-07 -0.25206839D-04  0.15069422D-04
  0.40160710D-05  0.16867506D-05 -0.19699240D-05 -0.29252176D-06 -0.27982775D-05
  0.13518247D-04 -0.10719969D-04 -0.10861335D-04  0.34730380D-05 -0.18515296D-05
  0.33923907D-06 -0.41555054D-05  0.38162663D-05  0.69533301D-05 -0.24006022D-05
  0.12688536D-06  0.10658627D-04 -0.69755375D-05 -0.36830892D-05 -0.31151442D-05
 -0.42122008D-05  0.76484434D-06  0.16688946D-04 -0.10861097D-05 -0.56420067D-06
 -0.31634310D-04 -0.41728512D-05 -0.53176000D-05 -0.18432527D-04  0.74311802D-05
  0.70102020D-05 -0.11058548D-05 -0.52225948D-05  0.60227933D-06 -0.42466337D-06
  0.97180881D-05  0.15038427D-07  0.36793555D-05  0.59496964D-05 -0.18218764D-05
 -0.24053654D-05  0.16064252D-05 -0.50513980D-05 -0.94160247D-05 -0.15962477D-04
 -0.24171894D-04 -0.30227038D-04 -0.26022664D-04 -0.10004062D-04  0.43349239D-07
  0.32630821D-05  0.61274902D-05  0.10434059D-04  0.16344892D-04  0.21904078D-04
  0.23560789D-04  0.14145867D-04 -0.93029171D-05  0.38310794D-05  0.26490196D-04
  0.11602375D-05 -0.41581640D-05 -0.40665936D-05 -0.26869703D-05  0.15455459D-05
  0.15115102D-05  0.99871867D-06  0.23753005D-05  0.23229920D-05  0.15348990D-05
  0.39573776D-05 -0.99552958D-06 -0.21193348D-05 -0.37369349D-05 -0.74652969D-06
 -0.36494659D-05 -0.15445168D-05  0.90259973D-06 -0.27909649D-06 -0.20923702D-04
  0.10601449D-04  0.10322252D-04  0.19552808D-04 -0.61566499D-05 -0.19303844D-05
  0.84201938D-05 -0.44232645D-05 -0.39969293D-05 -0.80651874D-05  0.29962859D-05
  0.12547806D-05 -0.10509681D-05  0.11529727D-05 -0.10200465D-06  0.32460842D-05
 -0.54338526D-05  0.38643239D-05 -0.70592748D-07 -0.10336337D-04 -0.67665883D-06
  0.15511820D-04  0.22644383D-04 -0.11268779D-05 -0.15300042D-04  0.83646277D-05
  0.31568544D-05  0.34635547D-04 -0.74188608D-06  0.30542612D-05  0.63548295D-06
 -0.26311964D-05 -0.49303068D-05 -0.18228645D-05  0.48568547D-05 -0.42324768D-05
 -0.83584402D-07 -0.80017033D-05 -0.43757087D-05 -0.81565107D-05 -0.13827291D-04
 -0.20938593D-04 -0.26183785D-04 -0.22541800D-04 -0.86658907D-05  0.37550723D-07
  0.28829811D-05  0.54137280D-05  0.92186451D-05  0.14440953D-04  0.19352576D-04
  0.20816305D-04  0.12498082D-04 -0.82192646D-05  0.22687192D-05  0.18894401D-04
 -0.11465831D-04 -0.27060351D-05 -0.26464432D-05 -0.17486169D-05 -0.30902191D-05
 -0.30221668D-05 -0.19968734D-05  0.16104684D-05  0.15750029D-05  0.10406710D-05
  0.33196699D-05  0.14774086D-05 -0.14172126D-05 -0.31345267D-05  0.11795743D-04
  0.13795828D-05  0.30796352D-06 -0.80386283D-06 -0.98953791D-06 -0.14522910D-04
  0.24496971D-05  0.12073213D-04  0.20417396D-04 -0.46512705D-05  0.14071561D-05
  0.58558448D-05 -0.66491671D-06 -0.51909281D-05 -0.82049761D-05  0.14741716D-05
 -0.82829904D-06 -0.22096404D-05  0.31115665D-05 -0.90192615D-06  0.21792663D-05
  0.34001011D-05  0.62772220D-06 -0.39085106D-05 -0.66740541D-05 -0.11579568D-05
  0.12218367D-04  0.14839448D-04  0.48425435D-05 -0.49283470D-06  0.51827143D-05
 -0.13686730D-05 -0.43593033D-04  0.46727895D-06  0.23280650D-05 -0.13725630D-06
 -0.36226395D-05 -0.34535769D-05 -0.29875464D-06  0.22208026D-05 -0.35306181D-05
  0.71052353D-06  0.99800329D-05  0.78327477D+00  0.14734352D+01  0.25505890D+01
  0.41809035D+01  0.65494663D+01  0.98444055D+01  0.14070128D+02  0.18678445D+02
  0.21753586D+02  0.19980459D+02  0.11683360D+02  0.30657721D+01  0.16760456D+00
 -0.59988941D-02  0.16765016D-02 -0.49780990D-03  0.84867969D-04  0.69240589D-05
  0.53661413D-04  0.98592643D-04  0.17048940D-03  0.27920022D-03  0.43958820D-03
  0.66382126D-03  0.96897632D-03  0.13343392D-02  0.17049283D-02  0.18585717D-02
  0.15298907D-02  0.41948563D-03 -0.84612972D-03 -0.82459036D-03 -0.18044360D-03
 -0.60789788D-05 -0.20593638D-06  0.52387558D-09 -0.12444410D-03 -0.24396027D-03
 -0.42729037D-03 -0.69805343D-03 -0.11009984D-02 -0.16613574D-02 -0.24358801D-02
 -0.33631354D-02 -0.43603217D-02 -0.48489343D-02 -0.42115980D-02 -0.12233939D-02
  0.30841611D-02  0.44938401D-02  0.77363064D-03 -0.18873275D-02 -0.89832031D-03
  0.43382631D-05  0.44343863D-04  0.96082443D-04  0.16356512D-03  0.26698233D-03
  0.42087144D-03  0.63521656D-03  0.93133101D-03  0.12874990D-02  0.16710445D-02
  0.18668490D-02  0.16307348D-02  0.48302524D-03 -0.12555882D-02 -0.19315190D-02
 -0.33807481D-03  0.10664383D-02  0.90524483D-03 -0.33773875D-03  0.31029192D-03
  0.12137431D-03  0.29955448D-04 -0.47558296D-03 -0.68237734D-03 -0.90350388D-03
 -0.10432910D-02 -0.96717875D-03 -0.62616915D-03 -0.22101472D-03 -0.25904830D-04
 -0.37660829D-06 -0.55150092D-07 -0.56702859D-09 -0.12475079D-03 -0.17899530D-03
 -0.23699930D-03 -0.27366704D-03 -0.25370193D-03 -0.16425126D-03 -0.57974662D-04
 -0.67951303D-05 -0.98788617D-07 -0.14466493D-07 -0.14873802D-09 -0.33948866D-05
 -0.48710612D-05 -0.64495441D-05 -0.74473961D-05 -0.69040787D-05 -0.44698264D-05
 -0.15776846D-05 -0.18491824D-06 -0.26883689D-08 -0.39368170D-09 -0.40476593D-11
  0.30529158D-02  0.44069191D-02  0.58875385D-02  0.69945764D-02  0.67782807D-02
  0.47117697D-02  0.15331647D-02 -0.69004577D-03 -0.74547965D-03 -0.19192145D-03
  0.18720166D-06  0.10705862D-02  0.15454034D-02  0.20646220D-02  0.24528343D-02
  0.23769845D-02  0.16523074D-02  0.53764499D-03 -0.24198291D-03 -0.26142228D-03
 -0.67302365D-04  0.65647242D-07 -0.12874314D-03 -0.18584220D-03 -0.24828074D-03
 -0.29496514D-03 -0.28584383D-03 -0.19869792D-03 -0.64654398D-04  0.29099610D-04
  0.31437287D-04  0.80934334D-05 -0.78943969D-08 -0.22309927D-02 -0.32417313D-02
 -0.43099194D-02 -0.51716049D-02 -0.50035506D-02 -0.35519383D-02 -0.11039514D-02
  0.63381923D-03  0.72811760D-03  0.19335803D-03 -0.69764179D-04 -0.78784809D-03
 -0.11447782D-02 -0.15219959D-02 -0.18262898D-02 -0.17669434D-02 -0.12543241D-02
 -0.38984708D-03  0.22382560D-03  0.25712593D-03  0.68282050D-04 -0.24636377D-04
  0.97810011D-04  0.14212229D-03  0.18895323D-03  0.22673079D-03  0.21936304D-03
  0.15572222D-03  0.48398857D-04 -0.27787571D-04 -0.31921750D-04 -0.84771013D-05
  0.30585646D-05  0.33035352D-04  0.10035423D-04  0.41966992D-07  0.47379777D-04
  0.15638573D-04 -0.22743779D-05  0.17485145D-05  0.65266371D-06  0.34414768D-07
  0.40867452D-03  0.42763385D-03  0.36436693D-03  0.23996317D-03  0.11059188D-03
  0.33116917D-04  0.56345627D-05 -0.95291669D-04 -0.99712464D-04 -0.84960356D-04
 -0.55952818D-04 -0.25786988D-04 -0.77219552D-05 -0.13138252D-05 -0.31338285D-03
 -0.32792138D-03 -0.27940657D-03 -0.18401035D-03 -0.84804892D-04 -0.25394962D-04
 -0.43207375D-05  0.54418322D-03  0.56942911D-03  0.48518407D-03  0.31953039D-03
  0.14726205D-03  0.44097858D-04  0.75028766D-05 -0.12897982D-03 -0.13496349D-03
 -0.11499611D-03 -0.75733635D-04 -0.34903378D-04 -0.10451873D-04 -0.17782976D-05
 -0.11974077D-03 -0.12529582D-03 -0.10675874D-03 -0.70308704D-04 -0.32403188D-04
 -0.97031872D-05 -0.16509150D-05 -0.21757680D-04  0.49997656D-05  0.16757915D-04
 -0.27661416D-04  0.68714020D-05  0.65608736D-05 -0.14225365D-05  0.11990500D-05
  0.22348644D-06 -0.46546254D-05 -0.42578112D-06 -0.13829807D-05  0.57053666D-05
 -0.17313120D-05 -0.39740546D-05  0.54915281D-05 -0.87495430D-06 -0.48346894D-06
 -0.79214299D-05  0.37023506D-05 -0.17007629D-05 -0.11554062D-05 -0.20277053D-04
  0.42851553D-05  0.24919696D-04  0.91700014D-05  0.81713323D-06  0.11515298D-04
  0.28524115D-05 -0.51599270D-06  0.40833941D-06 -0.39971059D-06  0.38168817D-05
 -0.13044065D-05 -0.81575238D-05 -0.22689035D-05  0.79388252D-07 -0.35488881D-05
MO    2     MO 0.0        OCC NO =    2.0000000  ORB. ENERGY =  -63.410349
 -0.70587043D-04 -0.13159030D-03 -0.22241078D-03 -0.33435626D-03 -0.41079530D-03
 -0.34698230D-03 -0.13086896D-03  0.64767777D-06  0.49685586D-04  0.93027093D-04
  0.15838659D-03  0.24499997D-03  0.32265634D-03  0.33526060D-03  0.21304306D-03
 -0.14277651D-03 -0.87823476D-04  0.12362191D-02  0.71902092D-04  0.20853270D-05
  0.19551266D-05  0.13921666D-05 -0.13133320D-03 -0.12313322D-03 -0.87678188D-04
  0.73475783D-04  0.68888217D-04  0.49052514D-04  0.61117699D-04  0.38581995D-03
 -0.25005817D-03 -0.85689161D-03  0.75717509D-04  0.22213458D-03 -0.50847347D-05
 -0.83784045D-06 -0.10143959D-04 -0.81220048D-04  0.11588954D-03 -0.34669495D-04
 -0.14301073D-03  0.45381709D-04 -0.53880114D-04  0.28884889D-04  0.30546934D-04
 -0.59431823D-04 -0.10346584D-04  0.95200136D-04  0.59386032D-04  0.10464622D-03
 -0.54427191D-04 -0.50219032D-04  0.11591970D-04 -0.45484595D-04 -0.49733991D-05
  0.73965726D-04 -0.20234542D-04 -0.13169867D-04 -0.18365196D-03  0.94568875D-04
 -0.29339107D-04 -0.38245217D-04 -0.33865248D-04  0.68848707D-04  0.14768215D-03
 -0.93146891D-04  0.38519378D-04 -0.74553912D-05  0.20833705D-03 -0.22582393D-04
  0.38017372D-05  0.71103620D-04 -0.92975741D-04  0.18564436D-04 -0.39645727D-04
  0.21695675D-03  0.40426695D-03  0.68371677D-03  0.10296396D-02  0.12747606D-02
  0.10847637D-02  0.41277261D-03 -0.19331902D-05 -0.15236487D-03 -0.28568555D-03
 -0.48603613D-03 -0.75476279D-03 -0.10016141D-02 -0.10555638D-02 -0.65451689D-03
  0.43538489D-03  0.11683891D-03 -0.14115057D-02  0.75735390D-03  0.24410057D-04
  0.23445568D-04  0.16441651D-04 -0.40285678D-04 -0.38693912D-04 -0.27134842D-04
  0.13563259D-03  0.13027348D-03  0.91356755D-04 -0.33139033D-03 -0.30944557D-03
 -0.19241297D-03 -0.61832915D-04  0.60467349D-03 -0.41037313D-03 -0.24231100D-04
 -0.35319964D-04  0.49460742D-04  0.55743542D-03 -0.66622137D-04 -0.49081328D-03
  0.68793727D-03 -0.20894607D-03 -0.12730026D-03 -0.22816985D-03 -0.47081834D-04
  0.27525168D-03 -0.22237319D-03  0.36091292D-05 -0.77375455D-04  0.38253786D-04
 -0.51036482D-04  0.12782695D-04 -0.15270216D-03  0.15195334D-04  0.16537930D-03
 -0.71629604D-04 -0.59253941D-04 -0.70747599D-04  0.66258853D-04  0.17720594D-03