 Molden2AIM, Version 4.0.0 (06/02/2016)           Time: Thu Jun 28 04:44:51 2018
GAUSSIAN             37 MOL ORBITALS    656 PRIMITIVES        8 NUCLEI
  C    1    (CENTRE  1)  -1.86455497  0.05305595  0.01317706  CHARGE =  6.0
  S    2    (CENTRE  2)   1.65663219 -0.40045942 -0.10341904  CHARGE = 16.0
  F    3    (CENTRE  3)  -2.52349869  0.76316779  2.31555323  CHARGE =  9.0
  F    4    (CENTRE  4)  -2.91867822 -2.14755091 -0.55135216  CHARGE =  9.0
  F    5    (CENTRE  5)  -2.52535629  1.78559655 -1.66078014  CHARGE =  9.0
  O    6    (CENTRE  6)   2.43481951 -0.77319467 -2.71255634  CHARGE =  8.0
  O    7    (CENTRE  7)   2.43276916 -1.98632137  2.00243884  CHARGE =  8.0
  F    8    (CENTRE  8)   2.31972952  2.50105253  0.64345741  CHARGE =  9.0
CENTRE ASSIGNMENTS    1  1  1  1  1  1  1  1  1  1  1  1  1  1  1  1  1  1  1  1
CENTRE ASSIGNMENTS    1  1  1  1  1  1  1  1  1  1  1  1  1  1  1  1  1  1  1  1
CENTRE ASSIGNMENTS    1  1  1  1  1  1  1  1  1  1  1  1  1  1  1  1  1  1  1  1
CENTRE ASSIGNMENTS    1  1  1  1  1  1  1  1  1  1  1  1  1  1  1  2  2  2  2  2
CENTRE ASSIGNMENTS    2  2  2  2  2  2  2  2  2  2  2  2  2  2  2  2  2  2  2  2
CENTRE ASSIGNMENTS    2  2  2  2  2  2  2  2  2  2  2  2  2  2  2  2  2  2  2  2
CENTRE ASSIGNMENTS    2  2  2  2  2  2  2  2  2  2  2  2  2  2  2  2  2  2  2  2
CENTRE ASSIGNMENTS    2  2  2  2  2  2  2  2  2  2  2  2  2  2  2  2  2  2  2  2
CENTRE ASSIGNMENTS    2  2  2  2  2  2  2  2  2  2  2  2  2  2  2  2  2  2  2  2
CENTRE ASSIGNMENTS    2  2  2  2  2  2  2  2  2  2  2  2  2  2  2  2  2  2  2  2
CENTRE ASSIGNMENTS    2  2  2  2  2  2  3  3  3  3  3  3  3  3  3  3  3  3  3  3
CENTRE ASSIGNMENTS    3  3  3  3  3  3  3  3  3  3  3  3  3  3  3  3  3  3  3  3
CENTRE ASSIGNMENTS    3  3  3  3  3  3  3  3  3  3  3  3  3  3  3  3  3  3  3  3
CENTRE ASSIGNMENTS    3  3  3  3  3  3  3  3  3  3  3  3  3  3  3  3  3  3  3  3
CENTRE ASSIGNMENTS    3  4  4  4  4  4  4  4  4  4  4  4  4  4  4  4  4  4  4  4
CENTRE ASSIGNMENTS    4  4  4  4  4  4  4  4  4  4  4  4  4  4  4  4  4  4  4  4
CENTRE ASSIGNMENTS    4  4  4  4  4  4  4  4  4  4  4  4  4  4  4  4  4  4  4  4
CENTRE ASSIGNMENTS    4  4  4  4  4  4  4  4  4  4  4  4  4  4  4  4  5  5  5  5
CENTRE ASSIGNMENTS    5  5  5  5  5  5  5  5  5  5  5  5  5  5  5  5  5  5  5  5
CENTRE ASSIGNMENTS    5  5  5  5  5  5  5  5  5  5  5  5  5  5  5  5  5  5  5  5
CENTRE ASSIGNMENTS    5  5  5  5  5  5  5  5  5  5  5  5  5  5  5  5  5  5  5  5
CENTRE ASSIGNMENTS    5  5  5  5  5  5  5  5  5  5  5  6  6  6  6  6  6  6  6  6
CENTRE ASSIGNMENTS    6  6  6  6  6  6  6  6  6  6  6  6  6  6  6  6  6  6  6  6
CENTRE ASSIGNMENTS    6  6  6  6  6  6  6  6  6  6  6  6  6  6  6  6  6  6  6  6
CENTRE ASSIGNMENTS    6  6  6  6  6  6  6  6  6  6  6  6  6  6  6  6  6  6  6  6
CENTRE ASSIGNMENTS    6  6  6  6  6  6  7  7  7  7  7  7  7  7  7  7  7  7  7  7
CENTRE ASSIGNMENTS    7  7  7  7  7  7  7  7  7  7  7  7  7  7  7  7  7  7  7  7
CENTRE ASSIGNMENTS    7  7  7  7  7  7  7  7  7  7  7  7  7  7  7  7  7  7  7  7
CENTRE ASSIGNMENTS    7  7  7  7  7  7  7  7  7  7  7  7  7  7  7  7  7  7  7  7
CENTRE ASSIGNMENTS    7  8  8  8  8  8  8  8  8  8  8  8  8  8  8  8  8  8  8  8
CENTRE ASSIGNMENTS    8  8  8  8  8  8  8  8  8  8  8  8  8  8  8  8  8  8  8  8
CENTRE ASSIGNMENTS    8  8  8  8  8  8  8  8  8  8  8  8  8  8  8  8  8  8  8  8
CENTRE ASSIGNMENTS    8  8  8  8  8  8  8  8  8  8  8  8  8  8  8  8
TYPE ASSIGNMENTS      1  1  1  1  1  1  1  1  1  1  1  1  1  1  1  1  1  1  1  2
TYPE ASSIGNMENTS      2  2  3  3  3  4  4  4  2  3  4  2  3  4  2  3  4  5  6  7
TYPE ASSIGNMENTS      8  9 10  5  6  7  8  9 10  5  6  7  8  9 10 11 12 13 17 14
TYPE ASSIGNMENTS     15 18 19 16 20 11 12 13 17 14 15 18 19 16 20  1  1  1  1  1
TYPE ASSIGNMENTS      1  1  1  1  1  1  1  1  1  1  1  1  1  1  1  1  1  1  1  1
TYPE ASSIGNMENTS      1  1  1  1  1  1  1  1  1  1  1  1  1  1  1  1  1  2  2  2
TYPE ASSIGNMENTS      2  2  2  2  3  3  3  3  3  3  3  4  4  4  4  4  4  4  2  2
TYPE ASSIGNMENTS      2  2  2  2  2  3  3  3  3  3  3  3  4  4  4  4  4  4  4  2
TYPE ASSIGNMENTS      3  4  2  3  4  2  3  4  5  6  7  8  9 10  5  6  7  8  9 10
TYPE ASSIGNMENTS      5  6  7  8  9 10 11 12 13 17 14 15 18 19 16 20 11 12 13 17
TYPE ASSIGNMENTS     14 15 18 19 16 20  1  1  1  1  1  1  1  1  1  1  1  1  1  1
TYPE ASSIGNMENTS      1  1  1  1  1  2  2  2  3  3  3  4  4  4  2  3  4  2  3  4
TYPE ASSIGNMENTS      2  3  4  5  6  7  8  9 10  5  6  7  8  9 10  5  6  7  8  9
TYPE ASSIGNMENTS     10 11 12 13 17 14 15 18 19 16 20 11 12 13 17 14 15 18 19 16
TYPE ASSIGNMENTS     20  1  1  1  1  1  1  1  1  1  1  1  1  1  1  1  1  1  1  1
TYPE ASSIGNMENTS      2  2  2  3  3  3  4  4  4  2  3  4  2  3  4  2  3  4  5  6
TYPE ASSIGNMENTS      7  8  9 10  5  6  7  8  9 10  5  6  7  8  9 10 11 12 13 17
TYPE ASSIGNMENTS     14 15 18 19 16 20 11 12 13 17 14 15 18 19 16 20  1  1  1  1
TYPE ASSIGNMENTS      1  1  1  1  1  1  1  1  1  1  1  1  1  1  1  2  2  2  3  3
TYPE ASSIGNMENTS      3  4  4  4  2  3  4  2  3  4  2  3  4  5  6  7  8  9 10  5
TYPE ASSIGNMENTS      6  7  8  9 10  5  6  7  8  9 10 11 12 13 17 14 15 18 19 16
TYPE ASSIGNMENTS     20 11 12 13 17 14 15 18 19 16 20  1  1  1  1  1  1  1  1  1
TYPE ASSIGNMENTS      1  1  1  1  1  1  1  1  1  1  2  2  2  3  3  3  4  4  4  2
TYPE ASSIGNMENTS      3  4  2  3  4  2  3  4  5  6  7  8  9 10  5  6  7  8  9 10
TYPE ASSIGNMENTS      5  6  7  8  9 10 11 12 13 17 14 15 18 19 16 20 11 12 13 17
TYPE ASSIGNMENTS     14 15 18 19 16 20  1  1  1  1  1  1  1  1  1  1  1  1  1  1
TYPE ASSIGNMENTS      1  1  1  1  1  2  2  2  3  3  3  4  4  4  2  3  4  2  3  4
TYPE ASSIGNMENTS      2  3  4  5  6  7  8  9 10  5  6  7  8  9 10  5  6  7  8  9
TYPE ASSIGNMENTS     10 11 12 13 17 14 15 18 19 16 20 11 12 13 17 14 15 18 19 16
TYPE ASSIGNMENTS     20  1  1  1  1  1  1  1  1  1  1  1  1  1  1  1  1  1  1  1
TYPE ASSIGNMENTS      2  2  2  3  3  3  4  4  4  2  3  4  2  3  4  2  3  4  5  6
TYPE ASSIGNMENTS      7  8  9 10  5  6  7  8  9 10  5  6  7  8  9 10 11 12 13 17
TYPE ASSIGNMENTS     14 15 18 19 16 20 11 12 13 17 14 15 18 19 16 20
EXPONENTS  0.8236000D+04 0.1235000D+04 0.2808000D+03 0.7927000D+02 0.2559000D+02
EXPONENTS  0.8997000D+01 0.3319000D+01 0.3643000D+00 0.8236000D+04 0.1235000D+04
EXPONENTS  0.2808000D+03 0.7927000D+02 0.2559000D+02 0.8997000D+01 0.3319000D+01
EXPONENTS  0.3643000D+00 0.9059000D+00 0.1285000D+00 0.4402000D-01 0.1871000D+02
EXPONENTS  0.4133000D+01 0.1200000D+01 0.1871000D+02 0.4133000D+01 0.1200000D+01
EXPONENTS  0.1871000D+02 0.4133000D+01 0.1200000D+01 0.3827000D+00 0.3827000D+00
EXPONENTS  0.3827000D+00 0.1209000D+00 0.1209000D+00 0.1209000D+00 0.3569000D-01
EXPONENTS  0.3569000D-01 0.3569000D-01 0.1097000D+01 0.1097000D+01 0.1097000D+01
EXPONENTS  0.1097000D+01 0.1097000D+01 0.1097000D+01 0.3180000D+00 0.3180000D+00
EXPONENTS  0.3180000D+00 0.3180000D+00 0.3180000D+00 0.3180000D+00 0.1000000D+00
EXPONENTS  0.1000000D+00 0.1000000D+00 0.1000000D+00 0.1000000D+00 0.1000000D+00
EXPONENTS  0.7610000D+00 0.7610000D+00 0.7610000D+00 0.7610000D+00 0.7610000D+00
EXPONENTS  0.7610000D+00 0.7610000D+00 0.7610000D+00 0.7610000D+00 0.7610000D+00
EXPONENTS  0.2680000D+00 0.2680000D+00 0.2680000D+00 0.2680000D+00 0.2680000D+00
EXPONENTS  0.2680000D+00 0.2680000D+00 0.2680000D+00 0.2680000D+00 0.2680000D+00
EXPONENTS  0.3741000D+06 0.5605000D+05 0.1276000D+05 0.3615000D+04 0.1183000D+04
EXPONENTS  0.4288000D+03 0.1678000D+03 0.6947000D+02 0.2984000D+02 0.1272000D+02
EXPONENTS  0.5244000D+01 0.2219000D+01 0.3490000D+00 0.3741000D+06 0.5605000D+05
EXPONENTS  0.1276000D+05 0.3615000D+04 0.1183000D+04 0.4288000D+03 0.1678000D+03
EXPONENTS  0.6947000D+02 0.2984000D+02 0.1272000D+02 0.5244000D+01 0.2219000D+01
EXPONENTS  0.3490000D+00 0.3741000D+06 0.5605000D+05 0.1276000D+05 0.3615000D+04
EXPONENTS  0.1183000D+04 0.4288000D+03 0.1678000D+03 0.6947000D+02 0.2984000D+02
EXPONENTS  0.1272000D+02 0.5244000D+01 0.2219000D+01 0.3490000D+00 0.7767000D+00
EXPONENTS  0.1322000D+00 0.4970000D-01 0.5744000D+03 0.1358000D+03 0.4319000D+02
EXPONENTS  0.1587000D+02 0.6208000D+01 0.2483000D+01 0.3229000D+00 0.5744000D+03
EXPONENTS  0.1358000D+03 0.4319000D+02 0.1587000D+02 0.6208000D+01 0.2483000D+01
EXPONENTS  0.3229000D+00 0.5744000D+03 0.1358000D+03 0.4319000D+02 0.1587000D+02
EXPONENTS  0.6208000D+01 0.2483000D+01 0.3229000D+00 0.5744000D+03 0.1358000D+03
EXPONENTS  0.4319000D+02 0.1587000D+02 0.6208000D+01 0.2483000D+01 0.3229000D+00
EXPONENTS  0.5744000D+03 0.1358000D+03 0.4319000D+02 0.1587000D+02 0.6208000D+01
EXPONENTS  0.2483000D+01 0.3229000D+00 0.5744000D+03 0.1358000D+03 0.4319000D+02
EXPONENTS  0.1587000D+02 0.6208000D+01 0.2483000D+01 0.3229000D+00 0.8688000D+00
EXPONENTS  0.8688000D+00 0.8688000D+00 0.1098000D+00 0.1098000D+00 0.1098000D+00
EXPONENTS  0.3510000D-01 0.3510000D-01 0.3510000D-01 0.2690000D+00 0.2690000D+00
EXPONENTS  0.2690000D+00 0.2690000D+00 0.2690000D+00 0.2690000D+00 0.8190000D+00
EXPONENTS  0.8190000D+00 0.8190000D+00 0.8190000D+00 0.8190000D+00 0.8190000D+00
EXPONENTS  0.1010000D+00 0.1010000D+00 0.1010000D+00 0.1010000D+00 0.1010000D+00
EXPONENTS  0.1010000D+00 0.5570000D+00 0.5570000D+00 0.5570000D+00 0.5570000D+00
EXPONENTS  0.5570000D+00 0.5570000D+00 0.5570000D+00 0.5570000D+00 0.5570000D+00
EXPONENTS  0.5570000D+00 0.2180000D+00 0.2180000D+00 0.2180000D+00 0.2180000D+00
EXPONENTS  0.2180000D+00 0.2180000D+00 0.2180000D+00 0.2180000D+00 0.2180000D+00
EXPONENTS  0.2180000D+00 0.1950000D+05 0.2923000D+04 0.6645000D+03 0.1875000D+03
EXPONENTS  0.6062000D+02 0.2142000D+02 0.7950000D+01 0.8815000D+00 0.1950000D+05
EXPONENTS  0.2923000D+04 0.6645000D+03 0.1875000D+03 0.6062000D+02 0.2142000D+02
EXPONENTS  0.7950000D+01 0.8815000D+00 0.2257000D+01 0.3041000D+00 0.9158000D-01
EXPONENTS  0.4388000D+02 0.9926000D+01 0.2930000D+01 0.4388000D+02 0.9926000D+01
EXPONENTS  0.2930000D+01 0.4388000D+02 0.9926000D+01 0.2930000D+01 0.9132000D+00
EXPONENTS  0.9132000D+00 0.9132000D+00 0.2672000D+00 0.2672000D+00 0.2672000D+00
EXPONENTS  0.7361000D-01 0.7361000D-01 0.7361000D-01 0.3107000D+01 0.3107000D+01
EXPONENTS  0.3107000D+01 0.3107000D+01 0.3107000D+01 0.3107000D+01 0.8550000D+00
EXPONENTS  0.8550000D+00 0.8550000D+00 0.8550000D+00 0.8550000D+00 0.8550000D+00
EXPONENTS  0.2920000D+00 0.2920000D+00 0.2920000D+00 0.2920000D+00 0.2920000D+00
EXPONENTS  0.2920000D+00 0.1917000D+01 0.1917000D+01 0.1917000D+01 0.1917000D+01
EXPONENTS  0.1917000D+01 0.1917000D+01 0.1917000D+01 0.1917000D+01 0.1917000D+01
EXPONENTS  0.1917000D+01 0.7240000D+00 0.7240000D+00 0.7240000D+00 0.7240000D+00
EXPONENTS  0.7240000D+00 0.7240000D+00 0.7240000D+00 0.7240000D+00 0.7240000D+00
EXPONENTS  0.7240000D+00 0.1950000D+05 0.2923000D+04 0.6645000D+03 0.1875000D+03
EXPONENTS  0.6062000D+02 0.2142000D+02 0.7950000D+01 0.8815000D+00 0.1950000D+05
EXPONENTS  0.2923000D+04 0.6645000D+03 0.1875000D+03 0.6062000D+02 0.2142000D+02
EXPONENTS  0.7950000D+01 0.8815000D+00 0.2257000D+01 0.3041000D+00 0.9158000D-01
EXPONENTS  0.4388000D+02 0.9926000D+01 0.2930000D+01 0.4388000D+02 0.9926000D+01
EXPONENTS  0.2930000D+01 0.4388000D+02 0.9926000D+01 0.2930000D+01 0.9132000D+00
EXPONENTS  0.9132000D+00 0.9132000D+00 0.2672000D+00 0.2672000D+00 0.2672000D+00
EXPONENTS  0.7361000D-01 0.7361000D-01 0.7361000D-01 0.3107000D+01 0.3107000D+01
EXPONENTS  0.3107000D+01 0.3107000D+01 0.3107000D+01 0.3107000D+01 0.8550000D+00
EXPONENTS  0.8550000D+00 0.8550000D+00 0.8550000D+00 0.8550000D+00 0.8550000D+00
EXPONENTS  0.2920000D+00 0.2920000D+00 0.2920000D+00 0.2920000D+00 0.2920000D+00
EXPONENTS  0.2920000D+00 0.1917000D+01 0.1917000D+01 0.1917000D+01 0.1917000D+01
EXPONENTS  0.1917000D+01 0.1917000D+01 0.1917000D+01 0.1917000D+01 0.1917000D+01
EXPONENTS  0.1917000D+01 0.7240000D+00 0.7240000D+00 0.7240000D+00 0.7240000D+00
EXPONENTS  0.7240000D+00 0.7240000D+00 0.7240000D+00 0.7240000D+00 0.7240000D+00
EXPONENTS  0.7240000D+00 0.1950000D+05 0.2923000D+04 0.6645000D+03 0.1875000D+03
EXPONENTS  0.6062000D+02 0.2142000D+02 0.7950000D+01 0.8815000D+00 0.1950000D+05
EXPONENTS  0.2923000D+04 0.6645000D+03 0.1875000D+03 0.6062000D+02 0.2142000D+02
EXPONENTS  0.7950000D+01 0.8815000D+00 0.2257000D+01 0.3041000D+00 0.9158000D-01
EXPONENTS  0.4388000D+02 0.9926000D+01 0.2930000D+01 0.4388000D+02 0.9926000D+01
EXPONENTS  0.2930000D+01 0.4388000D+02 0.9926000D+01 0.2930000D+01 0.9132000D+00
EXPONENTS  0.9132000D+00 0.9132000D+00 0.2672000D+00 0.2672000D+00 0.2672000D+00
EXPONENTS  0.7361000D-01 0.7361000D-01 0.7361000D-01 0.3107000D+01 0.3107000D+01
EXPONENTS  0.3107000D+01 0.3107000D+01 0.3107000D+01 0.3107000D+01 0.8550000D+00
EXPONENTS  0.8550000D+00 0.8550000D+00 0.8550000D+00 0.8550000D+00 0.8550000D+00
EXPONENTS  0.2920000D+00 0.2920000D+00 0.2920000D+00 0.2920000D+00 0.2920000D+00
EXPONENTS  0.2920000D+00 0.1917000D+01 0.1917000D+01 0.1917000D+01 0.1917000D+01
EXPONENTS  0.1917000D+01 0.1917000D+01 0.1917000D+01 0.1917000D+01 0.1917000D+01
EXPONENTS  0.1917000D+01 0.7240000D+00 0.7240000D+00 0.7240000D+00 0.7240000D+00
EXPONENTS  0.7240000D+00 0.7240000D+00 0.7240000D+00 0.7240000D+00 0.7240000D+00
EXPONENTS  0.7240000D+00 0.1533000D+05 0.2299000D+04 0.5224000D+03 0.1473000D+03
EXPONENTS  0.4755000D+02 0.1676000D+02 0.6207000D+01 0.6882000D+00 0.1533000D+05
EXPONENTS  0.2299000D+04 0.5224000D+03 0.1473000D+03 0.4755000D+02 0.1676000D+02
EXPONENTS  0.6207000D+01 0.6882000D+00 0.1752000D+01 0.2384000D+00 0.7376000D-01
EXPONENTS  0.3446000D+02 0.7749000D+01 0.2280000D+01 0.3446000D+02 0.7749000D+01
EXPONENTS  0.2280000D+01 0.3446000D+02 0.7749000D+01 0.2280000D+01 0.7156000D+00
EXPONENTS  0.7156000D+00 0.7156000D+00 0.2140000D+00 0.2140000D+00 0.2140000D+00
EXPONENTS  0.5974000D-01 0.5974000D-01 0.5974000D-01 0.2314000D+01 0.2314000D+01
EXPONENTS  0.2314000D+01 0.2314000D+01 0.2314000D+01 0.2314000D+01 0.6450000D+00
EXPONENTS  0.6450000D+00 0.6450000D+00 0.6450000D+00 0.6450000D+00 0.6450000D+00
EXPONENTS  0.2140000D+00 0.2140000D+00 0.2140000D+00 0.2140000D+00 0.2140000D+00
EXPONENTS  0.2140000D+00 0.1428000D+01 0.1428000D+01 0.1428000D+01 0.1428000D+01
EXPONENTS  0.1428000D+01 0.1428000D+01 0.1428000D+01 0.1428000D+01 0.1428000D+01
EXPONENTS  0.1428000D+01 0.5000000D+00 0.5000000D+00 0.5000000D+00 0.5000000D+00
EXPONENTS  0.5000000D+00 0.5000000D+00 0.5000000D+00 0.5000000D+00 0.5000000D+00
EXPONENTS  0.5000000D+00 0.1533000D+05 0.2299000D+04 0.5224000D+03 0.1473000D+03
EXPONENTS  0.4755000D+02 0.1676000D+02 0.6207000D+01 0.6882000D+00 0.1533000D+05
EXPONENTS  0.2299000D+04 0.5224000D+03 0.1473000D+03 0.4755000D+02 0.1676000D+02
EXPONENTS  0.6207000D+01 0.6882000D+00 0.1752000D+01 0.2384000D+00 0.7376000D-01
EXPONENTS  0.3446000D+02 0.7749000D+01 0.2280000D+01 0.3446000D+02 0.7749000D+01
EXPONENTS  0.2280000D+01 0.3446000D+02 0.7749000D+01 0.2280000D+01 0.7156000D+00
EXPONENTS  0.7156000D+00 0.7156000D+00 0.2140000D+00 0.2140000D+00 0.2140000D+00
EXPONENTS  0.5974000D-01 0.5974000D-01 0.5974000D-01 0.2314000D+01 0.2314000D+01
EXPONENTS  0.2314000D+01 0.2314000D+01 0.2314000D+01 0.2314000D+01 0.6450000D+00
EXPONENTS  0.6450000D+00 0.6450000D+00 0.6450000D+00 0.6450000D+00 0.6450000D+00
EXPONENTS  0.2140000D+00 0.2140000D+00 0.2140000D+00 0.2140000D+00 0.2140000D+00
EXPONENTS  0.2140000D+00 0.1428000D+01 0.1428000D+01 0.1428000D+01 0.1428000D+01
EXPONENTS  0.1428000D+01 0.1428000D+01 0.1428000D+01 0.1428000D+01 0.1428000D+01
EXPONENTS  0.1428000D+01 0.5000000D+00 0.5000000D+00 0.5000000D+00 0.5000000D+00
EXPONENTS  0.5000000D+00 0.5000000D+00 0.5000000D+00 0.5000000D+00 0.5000000D+00
EXPONENTS  0.5000000D+00 0.1950000D+05 0.2923000D+04 0.6645000D+03 0.1875000D+03
EXPONENTS  0.6062000D+02 0.2142000D+02 0.7950000D+01 0.8815000D+00 0.1950000D+05
EXPONENTS  0.2923000D+04 0.6645000D+03 0.1875000D+03 0.6062000D+02 0.2142000D+02
EXPONENTS  0.7950000D+01 0.8815000D+00 0.2257000D+01 0.3041000D+00 0.9158000D-01
EXPONENTS  0.4388000D+02 0.9926000D+01 0.2930000D+01 0.4388000D+02 0.9926000D+01
EXPONENTS  0.2930000D+01 0.4388000D+02 0.9926000D+01 0.2930000D+01 0.9132000D+00
EXPONENTS  0.9132000D+00 0.9132000D+00 0.2672000D+00 0.2672000D+00 0.2672000D+00
EXPONENTS  0.7361000D-01 0.7361000D-01 0.7361000D-01 0.3107000D+01 0.3107000D+01
EXPONENTS  0.3107000D+01 0.3107000D+01 0.3107000D+01 0.3107000D+01 0.8550000D+00
EXPONENTS  0.8550000D+00 0.8550000D+00 0.8550000D+00 0.8550000D+00 0.8550000D+00
EXPONENTS  0.2920000D+00 0.2920000D+00 0.2920000D+00 0.2920000D+00 0.2920000D+00
EXPONENTS  0.2920000D+00 0.1917000D+01 0.1917000D+01 0.1917000D+01 0.1917000D+01
EXPONENTS  0.1917000D+01 0.1917000D+01 0.1917000D+01 0.1917000D+01 0.1917000D+01
EXPONENTS  0.1917000D+01 0.7240000D+00 0.7240000D+00 0.7240000D+00 0.7240000D+00
EXPONENTS  0.7240000D+00 0.7240000D+00 0.7240000D+00 0.7240000D+00 0.7240000D+00
EXPONENTS  0.7240000D+00
MO    1     MO 0.0        OCC NO =    2.0000000  ORB. ENERGY =  -90.241363
 -0.62752164D-05 -0.11698430D-04 -0.19772408D-04 -0.29724406D-04 -0.36519867D-04
 -0.30846866D-04 -0.11634303D-04  0.57578814D-07  0.51569708D-05  0.96554765D-05
  0.16439275D-04  0.25429059D-04  0.33489176D-04  0.34797399D-04  0.22112185D-04
 -0.14819072D-04 -0.10687030D-03  0.24692194D-02  0.26271345D-03  0.11927564D-04
  0.11182850D-04  0.79628552D-05 -0.56112766D-05 -0.52609285D-05 -0.37460945D-05
 -0.14732756D-05 -0.13812895D-05 -0.98356044D-06  0.19959253D-03  0.64922220D-04
  0.16324906D-04  0.11892068D-02 -0.37987633D-03 -0.97717202D-04  0.17452283D-04
 -0.34025712D-06 -0.93505966D-07  0.26835962D-03 -0.16440736D-03 -0.10395226D-03
 -0.18877577D-03 -0.48747436D-04 -0.33337545D-04 -0.39110149D-03  0.14911356D-03
  0.24198793D-03  0.24593833D-03  0.63867154D-04 -0.51421295D-04  0.60718266D-04
 -0.17352379D-04 -0.43365888D-04 -0.31852170D-04 -0.82103125D-05  0.14371213D-04
 -0.52320214D-04 -0.58338639D-04  0.49983244D-04  0.92182711D-05  0.16404690D-04
  0.43572936D-05  0.14774237D-03  0.15861123D-03 -0.15430703D-03 -0.75938305D-04
 -0.76822645D-04 -0.65050728D-04  0.38593295D-04  0.12769106D-03  0.75106406D-04
  0.19287349D-04  0.10277687D-03  0.12004578D-03 -0.13506724D-03  0.13755269D-04
  0.58572325D+00  0.10949756D+01  0.18924597D+01  0.30609686D+01  0.46264748D+01
  0.63714150D+01  0.74467069D+01  0.64345166D+01  0.30010815D+01  0.40748203D+00
  0.10911365D-02  0.21403587D-02  0.97716315D-04 -0.22503803D-02 -0.42026811D-02
 -0.72902007D-02 -0.11820808D-01 -0.18199480D-01 -0.25920148D-01 -0.33329945D-01
 -0.34986524D-01 -0.24737952D-01  0.54783231D-03  0.17774538D-01  0.97871432D-02
 -0.41389663D-04  0.11229354D-02  0.20955635D-02  0.36397430D-02  0.58955761D-02
  0.91069396D-02  0.12983311D-01  0.16887046D-01  0.17997039D-01  0.13348030D-01
 -0.41547460D-03 -0.12092620D-01 -0.11846593D-01  0.55330617D-02 -0.32105152D-02
 -0.45281848D-02 -0.52984510D-03 -0.24642422D-02 -0.32329516D-02 -0.35460552D-02
 -0.29177504D-02 -0.15382957D-02 -0.40019184D-03  0.44285307D-06  0.12833465D-02
  0.16836808D-02  0.18467412D-02  0.15195279D-02  0.80112515D-03  0.20841490D-03
 -0.23063234D-06  0.32884464D-03  0.43142626D-03  0.47320885D-03  0.38936374D-03
  0.20528026D-03  0.53404222D-04 -0.59097217D-07  0.21927544D-02  0.28790999D-02
  0.32391815D-02  0.27292553D-02  0.15267071D-02  0.37999430D-03 -0.17428370D-03
 -0.74016102D-03 -0.97183593D-03 -0.10933809D-02 -0.92125611D-03 -0.51533775D-03
 -0.12826652D-03  0.58829205D-04 -0.18927193D-03 -0.24851520D-03 -0.27959636D-03
 -0.23558107D-03 -0.13178075D-03 -0.32799960D-04  0.15043642D-04  0.18198655D-03
 -0.21064751D-03 -0.54171743D-04  0.79840413D-03  0.89842953D-04  0.23435787D-04
  0.13956844D-04 -0.48890829D-05 -0.12549053D-05  0.95790607D-04  0.82485184D-05
 -0.10403913D-03  0.78564970D-04  0.20614068D-04  0.61834591D-04 -0.28770550D-03
 -0.84197086D-04  0.37190259D-03 -0.28853303D-03 -0.75188787D-04 -0.25138262D-03
 -0.48117093D-04  0.40385276D-04  0.77318166D-05  0.20246429D-04  0.52668537D-05
  0.17937711D-04 -0.18393928D-03  0.14772007D-03 -0.13757294D-03  0.21923588D-03
 -0.47643952D-05 -0.16437453D-05  0.33258194D-03 -0.43839580D-03  0.41436255D-03
 -0.61897976D-04  0.69765625D-04 -0.74823804D-04  0.71168979D-04 -0.59826111D-04
 -0.24082085D-05 -0.47271128D-06 -0.14947077D-03  0.22687962D-03 -0.21303423D-03
  0.48894150D-04  0.46525251D-04  0.86725083D-04  0.14702034D-03  0.22263212D-03
  0.27840225D-03  0.23967840D-03  0.92141128D-04 -0.39926259D-06 -0.31294678D-04
 -0.58765863D-04 -0.10006813D-03 -0.15675613D-03 -0.21007166D-03 -0.22596040D-03
 -0.13566632D-03  0.89219883D-04 -0.59013247D-05 -0.45209614D-03  0.16615748D-03
 -0.34990344D-05 -0.34219792D-05 -0.22610464D-05  0.10770980D-04  0.10533783D-04
  0.69601160D-05 -0.13115270D-03 -0.12826447D-03 -0.84749760D-04  0.43812094D-04
 -0.11269806D-04  0.13938072D-03 -0.53664345D-03  0.20494523D-03  0.10732164D-03
  0.14416123D-04 -0.12705094D-04 -0.12240616D-04  0.23712122D-03 -0.70351993D-05
 -0.23008602D-03 -0.10167025D-03 -0.48778974D-03 -0.98352545D-05 -0.83972278D-04
  0.15201503D-04  0.68770775D-04  0.52962438D-04  0.24296253D-03 -0.13580017D-04
 -0.79145101D-04  0.47270038D-04  0.31875063D-04  0.95202671D-04  0.20825367D-03
 -0.12135593D-03 -0.72709476D-04  0.81428561D-04  0.12689937D-03  0.13308077D-03
 -0.10321366D-04 -0.52663274D-03  0.85047660D-04 -0.23396432D-03  0.14593463D-03
  0.12982493D-03  0.35750617D-04 -0.38379611D-04 -0.65167578D-04 -0.97383524D-05
  0.25492860D-04  0.25783852D-03 -0.97513500D-04  0.89645974D-04 -0.62335788D-04
 -0.12048364D-03  0.73992198D-04  0.13792466D-03  0.23381621D-03  0.35406665D-03
  0.44276159D-03  0.38117649D-03  0.14653816D-03 -0.63497383D-06 -0.49226528D-04
 -0.92438702D-04 -0.15740717D-03 -0.24657740D-03 -0.33044272D-03 -0.35543570D-03
 -0.21340313D-03  0.14034287D-03 -0.19682217D-04 -0.64493126D-03 -0.48915572D-04
  0.10358602D-03  0.10130487D-03  0.66936408D-04  0.17214562D-03  0.16835466D-03
  0.11123904D-03  0.44379901D-04  0.43402574D-04  0.28677916D-04 -0.71714264D-04
 -0.19455793D-03 -0.50093985D-04 -0.51570281D-03  0.31267848D-05  0.10357958D-05
  0.87084161D-06 -0.26925945D-05 -0.67437458D-06  0.30842547D-03 -0.27272603D-03
 -0.35699441D-04  0.19965522D-03  0.51554823D-04 -0.13083345D-03 -0.12903466D-03
  0.85755819D-04  0.43278842D-04 -0.16806004D-03 -0.43281736D-04  0.23632815D-04
 -0.82058269D-04  0.51936904D-04  0.30121365D-04 -0.10790558D-03 -0.27549964D-04
  0.11977468D-04 -0.83472097D-04 -0.58061198D-04 -0.20795833D-04 -0.15867286D-03
  0.25267629D-03  0.64003662D-04  0.40908915D-03 -0.78492698D-04 -0.16161619D-05
 -0.31168745D-03  0.16410194D-04  0.40553116D-04  0.93832277D-05  0.41059721D-04
 -0.15908739D-03 -0.40616834D-04 -0.90290303D-04  0.37428044D-04  0.12467151D-04
  0.72212791D-04  0.46726126D-04  0.87099524D-04  0.14765511D-03  0.22359335D-03
  0.27960427D-03  0.24071323D-03  0.92538953D-04 -0.40098643D-06 -0.31427439D-04
 -0.59015165D-04 -0.10049265D-03 -0.15742114D-03 -0.21096284D-03 -0.22691898D-03
 -0.13624186D-03  0.89598379D-04 -0.60093059D-05 -0.45179911D-03  0.16607940D-03
 -0.36303382D-05 -0.35503914D-05 -0.23458937D-05 -0.53844672D-04 -0.52658914D-04
 -0.34793971D-04  0.11977362D-03  0.11713598D-03  0.77396695D-04  0.43948866D-04
  0.57279085D-04 -0.12720741D-03 -0.53652398D-03  0.23183393D-03  0.52199465D-05
  0.14427635D-04 -0.17015296D-04  0.46005258D-05  0.23732841D-03 -0.62939790D-04
 -0.17438862D-03 -0.32406182D-03  0.37747936D-03  0.19350164D-03 -0.84038125D-04
  0.21825691D-04  0.62212435D-04  0.16341937D-03 -0.18691606D-03 -0.37976460D-04
 -0.79299304D-04 -0.76395712D-05  0.86938875D-04  0.18399472D-03 -0.13622166D-03
  0.78031580D-04 -0.72104907D-04  0.75922233D-04 -0.19302883D-03  0.17676406D-03
 -0.26482469D-03  0.45727531D-03  0.39550660D-04  0.37057988D-04  0.12181117D-03
 -0.28541853D-04  0.35493645D-04 -0.38123849D-04  0.85557305D-04 -0.81018082D-04
  0.14730840D-03 -0.21386372D-03 -0.25462853D-04 -0.32936849D-04 -0.42808192D-04
  0.13840604D-03  0.31086839D-05  0.57941868D-05  0.98250210D-05  0.14870627D-04
  0.18554201D-04  0.15935584D-04  0.61179805D-05 -0.27366102D-07 -0.75175721D-05
 -0.14099393D-04 -0.24036374D-04 -0.37564173D-04 -0.50230457D-04 -0.53634417D-04
 -0.32791031D-04  0.21633531D-04  0.15345441D-03  0.10983477D-02  0.13854966D-03
 -0.72093232D-04 -0.69906184D-04 -0.47158299D-04  0.36033027D-04  0.34939916D-04
  0.23570261D-04  0.30136704D-03  0.29222465D-03  0.19713302D-03  0.36382314D-04
 -0.21985903D-04 -0.15935931D-03 -0.93348202D-04 -0.94347068D-04  0.10303412D-03
  0.12023819D-05  0.36472422D-05  0.39761473D-05 -0.27346423D-03 -0.21120638D-03
  0.48467060D-03 -0.19561037D-03 -0.35301155D-03  0.10413918D-03  0.20509354D-03
  0.19629899D-03 -0.40139253D-03  0.88396753D-04  0.31882315D-03 -0.11797488D-03
  0.35481603D-04  0.14975586D-04 -0.50457190D-04  0.52096983D-04  0.59530121D-04
 -0.49583851D-04  0.83887353D-04 -0.49386922D-04 -0.19885075D-04 -0.24496516D-03
  0.19702572D-03  0.17584142D-04 -0.66969035D-05 -0.48864950D-04  0.42071082D-04
 -0.21642415D-03 -0.77533119D-04  0.34012599D-04 -0.10140709D-03  0.15637209D-04
 -0.47990019D-04  0.11715643D-03  0.21696215D-03 -0.54047778D-04  0.18706484D-03
  0.11211288D-03  0.30816354D-05  0.57437719D-05  0.97395341D-05  0.14741238D-04
  0.18392762D-04  0.15796929D-04  0.60647483D-05 -0.27127991D-07 -0.74986616D-05
 -0.14063926D-04 -0.23975910D-04 -0.37469680D-04 -0.50104102D-04 -0.53499500D-04
 -0.32708545D-04  0.21579112D-04  0.15345968D-03  0.10975905D-02  0.13813799D-03
 -0.71645659D-04 -0.69472189D-04 -0.46865528D-04  0.17730954D-03  0.17193061D-03
  0.11598337D-03 -0.24675003D-03 -0.23926452D-03 -0.16140643D-03  0.36131643D-04
 -0.96478863D-04  0.12922262D-03 -0.93143818D-04 -0.32890250D-04 -0.13578937D-03
  0.12101044D-05  0.50913411D-05 -0.16897652D-05 -0.27395271D-03 -0.49133569D-05
  0.27886607D-03 -0.34114238D-03  0.21323331D-03 -0.64401173D-03  0.20547943D-03
  0.70984780D-05 -0.21257791D-03  0.23078344D-03 -0.23554810D-03  0.56853223D-03
  0.35450804D-04 -0.21213407D-04 -0.14237398D-04  0.74321220D-04 -0.26835701D-04
  0.81798948D-04  0.83780767D-04 -0.29735335D-04 -0.18885461D-04 -0.28120734D-03
  0.18093076D-03  0.79813638D-04  0.29865035D-04 -0.91724755D-04 -0.23157255D-04
 -0.85425439D-04 -0.77396448D-04  0.69643987D-04  0.13903684D-04  0.10998228D-03
  0.14780460D-04 -0.12623769D-03  0.12220706D-03 -0.22371242D-03  0.84526637D-04
 -0.22949719D-03 -0.65847531D-04 -0.12274265D-03 -0.20807897D-03 -0.31509288D-03
 -0.39402475D-03 -0.33921861D-03 -0.13040802D-03  0.56507929D-06  0.40207727D-04
  0.75502990D-04  0.12856857D-03  0.20140190D-03  0.26990225D-03  0.29031626D-03
  0.17430550D-03 -0.11463063D-03  0.94820155D-04  0.78064336D-03 -0.33467839D-04
  0.91231535D-04  0.89222448D-04  0.58953044D-04 -0.15491635D-03 -0.15150481D-03
 -0.10010563D-03 -0.39868885D-04 -0.38990899D-04 -0.25762935D-04 -0.91432378D-04
 -0.24560776D-04 -0.63237329D-05 -0.59235963D-04 -0.15022430D-03 -0.38645926D-04
  0.59477947D-05  0.15356121D-04  0.39605597D-05 -0.42248211D-03  0.64466556D-03
 -0.22218344D-03  0.19549899D-03  0.50231053D-04  0.47802464D-03  0.17356628D-03
 -0.26080477D-03  0.87238498D-04 -0.64880013D-04 -0.16698736D-04 -0.19193059D-03
  0.27834031D-04 -0.53955196D-04  0.26121165D-04 -0.60922123D-04 -0.15579575D-04
 -0.44180549D-04  0.25144823D-03 -0.36384158D-03  0.17212359D-03 -0.61256465D-03
  0.56887219D-03  0.14712949D-03 -0.14178004D-03  0.52265256D-03 -0.66350026D-03
 -0.25833832D-03 -0.10627371D-03  0.18695768D-03 -0.86831450D-04  0.29854201D-03
 -0.29782493D-03 -0.76876957D-04  0.20279125D-04 -0.26304809D-03  0.33737131D-03
  0.15306846D-03
MO    2     MO 0.0        OCC NO =    2.0000000  ORB. ENERGY =  -25.348125
  0.17250521D-03  0.32158893D-03  0.54354194D-03  0.81712157D-03  0.10039283D-02
  0.84797791D-03  0.31982607D-03 -0.15828371D-05 -0.12422177D-03 -0.23258235D-03
 -0.39599136D-03 -0.61253842D-03 -0.80669154D-03 -0.83820419D-03 -0.53264113D-03
  0.35696370D-03 -0.19139105D-03  0.77480726D-03  0.15113447D-03  0.57155574D-04
  0.53586984D-04  0.38157125D-04 -0.27645010D-03 -0.25918955D-03 -0.18455840D-03
  0.35459741D-03  0.33245761D-03  0.23672963D-03 -0.23187410D-03  0.12819475D-02
 -0.16603316D-02  0.10620293D-03  0.46944178D-04 -0.80867534D-04  0.70463462D-05
 -0.20963939D-05  0.40703386D-06 -0.26245183D-03  0.26787812D-03 -0.54262891D-05
 -0.62018676D-03  0.72849873D-03 -0.17048548D-02 -0.11230360D-03  0.12419119D-03
 -0.11887593D-04 -0.32069960D-03  0.38111671D-03 -0.81178493D-03  0.49327431D-05
 -0.18389323D-05 -0.30938107D-05 -0.10587129D-04  0.17615721D-04  0.16677357D-04
  0.72380261D-04 -0.71154264D-05  0.63495240D-05 -0.13705783D-03 -0.21997417D-03
  0.32043639D-03 -0.80082954D-04  0.24132045D-03 -0.33948496D-03  0.74381975D-03
  0.51403570D-05 -0.97788917D-06  0.49720198D-06 -0.19831801D-04 -0.24890682D-04
  0.35482963D-04  0.44107302D-05  0.27824350D-04 -0.36974569D-04  0.59486423D-04
  0.14794414D-04  0.27657297D-04  0.47800445D-04  0.77315074D-04  0.11685721D-03
  0.16093155D-03  0.18809167D-03  0.16252539D-03  0.75802423D-04  0.10292331D-04
  0.27560328D-07  0.54061970D-07  0.24681547D-08 -0.27672137D-04 -0.51678894D-04
 -0.89645037D-04 -0.14535633D-03 -0.22379262D-03 -0.31873095D-03 -0.40984663D-03
 -0.43021700D-03 -0.30419391D-03  0.67365015D-05  0.21856725D-03  0.12034906D-03
 -0.50895414D-06  0.15624742D-04  0.29158081D-04  0.50644096D-04  0.82032199D-04
  0.12671574D-03  0.18065233D-03  0.23496967D-03  0.25041433D-03  0.18572710D-03
 -0.57809949D-05 -0.16825907D-03 -0.16483582D-03  0.76988104D-04  0.13481396D-04
 -0.43933447D-03 -0.19168691D-03 -0.48215327D-03 -0.63255884D-03 -0.69382063D-03
 -0.57088661D-03 -0.30098271D-03 -0.78301476D-04  0.86648566D-07  0.61891572D-03
  0.81198372D-03  0.89062238D-03  0.73281821D-03  0.38635625D-03  0.10051164D-03
 -0.11122637D-06 -0.39493809D-03 -0.51813727D-03 -0.56831761D-03 -0.46762074D-03
 -0.24653890D-03 -0.64137769D-04  0.70974981D-07  0.44467483D-03  0.58386076D-03
  0.65688272D-03  0.55347335D-03  0.30960523D-03  0.77060113D-04 -0.35343481D-04
 -0.55325499D-03 -0.72642716D-03 -0.81727954D-03 -0.68861981D-03 -0.38520426D-03