 Molden2AIM, Version 4.0.0 (06/02/2016)           Time: Thu Jun 28 05:07:45 2018
GAUSSIAN              4 MOL ORBITALS    129 PRIMITIVES        3 NUCLEI
  C    1    (CENTRE  1)   0.00000000  0.00000000  0.38063997  CHARGE =  6.0
  H    2    (CENTRE  2)   0.00000000  1.63673526 -0.96614705  CHARGE =  1.0
  H    3    (CENTRE  3)   0.00000000 -1.63673526 -0.96614705  CHARGE =  1.0
CENTRE ASSIGNMENTS    1  1  1  1  1  1  1  1  1  1  1  1  1  1  1  1  1  1  1  1
CENTRE ASSIGNMENTS    1  1  1  1  1  1  1  1  1  1  1  1  1  1  1  1  1  1  1  1
CENTRE ASSIGNMENTS    1  1  1  1  1  1  1  1  1  1  1  1  1  1  1  1  1  1  1  1
CENTRE ASSIGNMENTS    1  1  1  1  1  1  1  1  1  1  1  1  1  1  1  2  2  2  2  2
CENTRE ASSIGNMENTS    2  2  2  2  2  2  2  2  2  2  2  2  2  2  2  2  2  2  2  2
CENTRE ASSIGNMENTS    2  2  3  3  3  3  3  3  3  3  3  3  3  3  3  3  3  3  3  3
CENTRE ASSIGNMENTS    3  3  3  3  3  3  3  3  3
TYPE ASSIGNMENTS      1  1  1  1  1  1  1  1  1  1  1  1  1  1  1  1  1  1  1  2
TYPE ASSIGNMENTS      2  2  3  3  3  4  4  4  2  3  4  2  3  4  2  3  4  5  6  7
TYPE ASSIGNMENTS      8  9 10  5  6  7  8  9 10  5  6  7  8  9 10 11 12 13 17 14
TYPE ASSIGNMENTS     15 18 19 16 20 11 12 13 17 14 15 18 19 16 20  1  1  1  1  1
TYPE ASSIGNMENTS      1  2  3  4  2  3  4  2  3  4  5  6  7  8  9 10  5  6  7  8
TYPE ASSIGNMENTS      9 10  1  1  1  1  1  1  2  3  4  2  3  4  2  3  4  5  6  7
TYPE ASSIGNMENTS      8  9 10  5  6  7  8  9 10
EXPONENTS  0.8236000D+04 0.1235000D+04 0.2808000D+03 0.7927000D+02 0.2559000D+02
EXPONENTS  0.8997000D+01 0.3319000D+01 0.3643000D+00 0.8236000D+04 0.1235000D+04
EXPONENTS  0.2808000D+03 0.7927000D+02 0.2559000D+02 0.8997000D+01 0.3319000D+01
EXPONENTS  0.3643000D+00 0.9059000D+00 0.1285000D+00 0.4402000D-01 0.1871000D+02
EXPONENTS  0.4133000D+01 0.1200000D+01 0.1871000D+02 0.4133000D+01 0.1200000D+01
EXPONENTS  0.1871000D+02 0.4133000D+01 0.1200000D+01 0.3827000D+00 0.3827000D+00
EXPONENTS  0.3827000D+00 0.1209000D+00 0.1209000D+00 0.1209000D+00 0.3569000D-01
EXPONENTS  0.3569000D-01 0.3569000D-01 0.1097000D+01 0.1097000D+01 0.1097000D+01
EXPONENTS  0.1097000D+01 0.1097000D+01 0.1097000D+01 0.3180000D+00 0.3180000D+00
EXPONENTS  0.3180000D+00 0.3180000D+00 0.3180000D+00 0.3180000D+00 0.1000000D+00
EXPONENTS  0.1000000D+00 0.1000000D+00 0.1000000D+00 0.1000000D+00 0.1000000D+00
EXPONENTS  0.7610000D+00 0.7610000D+00 0.7610000D+00 0.7610000D+00 0.7610000D+00
EXPONENTS  0.7610000D+00 0.7610000D+00 0.7610000D+00 0.7610000D+00 0.7610000D+00
EXPONENTS  0.2680000D+00 0.2680000D+00 0.2680000D+00 0.2680000D+00 0.2680000D+00
EXPONENTS  0.2680000D+00 0.2680000D+00 0.2680000D+00 0.2680000D+00 0.2680000D+00
EXPONENTS  0.3387000D+02 0.5095000D+01 0.1159000D+01 0.3258000D+00 0.1027000D+00
EXPONENTS  0.2526000D-01 0.1407000D+01 0.1407000D+01 0.1407000D+01 0.3880000D+00
EXPONENTS  0.3880000D+00 0.3880000D+00 0.1020000D+00 0.1020000D+00 0.1020000D+00
EXPONENTS  0.1057000D+01 0.1057000D+01 0.1057000D+01 0.1057000D+01 0.1057000D+01
EXPONENTS  0.1057000D+01 0.2470000D+00 0.2470000D+00 0.2470000D+00 0.2470000D+00
EXPONENTS  0.2470000D+00 0.2470000D+00 0.3387000D+02 0.5095000D+01 0.1159000D+01
EXPONENTS  0.3258000D+00 0.1027000D+00 0.2526000D-01 0.1407000D+01 0.1407000D+01
EXPONENTS  0.1407000D+01 0.3880000D+00 0.3880000D+00 0.3880000D+00 0.1020000D+00
EXPONENTS  0.1020000D+00 0.1020000D+00 0.1057000D+01 0.1057000D+01 0.1057000D+01
EXPONENTS  0.1057000D+01 0.1057000D+01 0.1057000D+01 0.2470000D+00 0.2470000D+00
EXPONENTS  0.2470000D+00 0.2470000D+00 0.2470000D+00 0.2470000D+00
MO    1     MO 0.0        OCC NO =    2.0000000  ORB. ENERGY =  -10.615362
  0.32784740D+00  0.61118209D+00  0.10330054D+01  0.15529455D+01  0.19079729D+01
  0.16115882D+01  0.60783176D+00 -0.30081933D-02 -0.13044114D-02 -0.24422697D-02
 -0.41581731D-02 -0.64320615D-02 -0.84707988D-02 -0.88017025D-02 -0.55930868D-02
  0.37483567D-02  0.31318119D-01  0.60034662D-02  0.31382480D-03 -0.17444517D-16
 -0.16355343D-16 -0.11645979D-16 -0.23225414D-14 -0.21775302D-14 -0.15505312D-14
 -0.52536492D-02 -0.49256301D-02 -0.35073421D-02  0.31485734D-17  0.82196392D-14
 -0.38412406D-02  0.23197321D-18  0.49846403D-14 -0.66160692D-03  0.12157461D-19
  0.19447335D-15 -0.27982320D-05 -0.15019490D-02  0.16627643D-02 -0.16081537D-03
  0.15391374D-17 -0.13243297D-17 -0.32526473D-14 -0.66395360D-03  0.49903033D-03
  0.16492327D-03 -0.21161986D-18 -0.77364870D-18 -0.55697449D-14  0.59621835D-06
  0.19608559D-04 -0.20204777D-04  0.11059648D-21 -0.36050064D-19 -0.50764236D-15
 -0.16866550D-18 -0.92897423D-16  0.39783059D-03  0.23488258D-18 -0.14409790D-14
  0.11984976D-02  0.27111393D-18  0.17196712D-14 -0.23919893D-02  0.50467083D-18
 -0.72394911D-19 -0.24720578D-16 -0.16304364D-04  0.17449620D-18 -0.37290751D-15
 -0.15305604D-04  0.42688530D-19  0.44706924D-15  0.64218694D-04  0.12189734D-19
  0.24596256D-03  0.44360360D-03  0.65409325D-03 -0.33574729D-02 -0.20935270D-02
 -0.35681657D-04  0.51539656D-18  0.78153516D-03 -0.54712632D-03 -0.10728015D-17
  0.26398244D-02 -0.22059280D-02 -0.12649565D-18  0.37002745D-03 -0.39426195D-03
  0.16269721D-02 -0.12714769D-02 -0.35549514D-03  0.69136813D-18 -0.35201943D-18
  0.49845152D-02  0.18126613D-03 -0.10894484D-03 -0.72321287D-04  0.30599615D-18
 -0.28704006D-18  0.47089372D-03  0.24596256D-03  0.44360360D-03  0.65409325D-03
 -0.33574729D-02 -0.20935270D-02 -0.35681657D-04  0.66922095D-18 -0.78153516D-03
 -0.54712632D-03 -0.12552445D-17 -0.26398244D-02 -0.22059280D-02 -0.13301863D-18
 -0.37002745D-03 -0.39426195D-03  0.16269721D-02 -0.12714769D-02 -0.35549514D-03
 -0.72026273D-18 -0.31401287D-18 -0.49845152D-02  0.18126613D-03 -0.10894484D-03
 -0.72321287D-04 -0.33605840D-18 -0.33281670D-18 -0.47089372D-03
MO    2     MO 0.0        OCC NO =    2.0000000  ORB. ENERGY =   -0.754310
 -0.56176687D-02 -0.10472612D-01 -0.17700559D-01 -0.26609738D-01 -0.32693137D-01
 -0.27614581D-01 -0.10415204D-01  0.51545425D-04 -0.54540078D-01 -0.10211623D+00
 -0.17386163D+00 -0.26893750D+00 -0.35418123D+00 -0.36801698D+00 -0.23385827D+00
  0.15672637D+00  0.75385288D-01  0.51490423D-01  0.15062977D-02 -0.14801712D-16
 -0.13877546D-16 -0.98816396D-17 -0.87060056D-14 -0.81624336D-14 -0.58121390D-14
 -0.17711630D+00 -0.16605779D+00 -0.11824304D+00 -0.33348803D-16  0.48471604D-13
 -0.50225521D-01 -0.74395359D-17  0.92958538D-13 -0.61567960D-02 -0.28806998D-18
  0.42364886D-14 -0.13976167D-04 -0.11446219D-01  0.79749529D-02  0.34712659D-02
  0.13711178D-16  0.10158442D-16 -0.41834413D-14 -0.30185860D-02  0.15724602D-02
  0.14461258D-02 -0.34721414D-17  0.75421980D-17 -0.49432741D-13 -0.18207959D-03
  0.35792512D-04  0.14628708D-03 -0.11334030D-17  0.14332412D-17 -0.99275444D-14
  0.21327209D-17 -0.69738784D-15  0.13477654D-02 -0.80888096D-17 -0.73604474D-14
  0.24703369D-02  0.16906468D-17  0.94526110D-14 -0.65136330D-02  0.33359429D-17
  0.34678025D-18  0.44045260D-15 -0.41979259D-05  0.56623984D-18 -0.47753124D-14
  0.45074826D-03 -0.16065806D-17  0.34539546D-14 -0.43815448D-03  0.67514080D-18
  0.28753672D-01  0.51858432D-01  0.76465228D-01  0.31789466D-01 -0.40058520D-02
 -0.13146175D-03 -0.33236598D-17 -0.19818739D-01  0.13833092D-01  0.68191182D-17
  0.10491406D-02 -0.13187600D-02  0.46126152D-17  0.12863106D-02 -0.92058100D-03
 -0.99707574D-03  0.11503366D-02 -0.15326086D-03 -0.48311176D-17  0.27341313D-17
 -0.72397521D-02  0.39164454D-03 -0.36575889D-03 -0.25885652D-04 -0.38188053D-17
  0.27284079D-17  0.10021038D-02  0.28753672D-01  0.51858432D-01  0.76465228D-01
  0.31789466D-01 -0.40058520D-02 -0.13146175D-03 -0.43718069D-17  0.19818739D-01
  0.13833092D-01 -0.39395016D-17 -0.10491406D-02 -0.13187600D-02  0.17293073D-17
 -0.12863106D-02 -0.92058100D-03 -0.99707574D-03  0.11503366D-02 -0.15326086D-03
  0.69889544D-18 -0.11735275D-17  0.72397521D-02  0.39164454D-03 -0.36575889D-03
 -0.25885652D-04  0.97809509D-18 -0.18905464D-17 -0.10021038D-02
MO    3     MO 0.0        OCC NO =    2.0000000  ORB. ENERGY =   -0.472600
 -0.34783975D-15 -0.64845237D-15 -0.10959987D-14 -0.16476451D-14 -0.20243224D-14
 -0.17098639D-14 -0.64489774D-15  0.31916349D-17  0.37024921D-15  0.69322334D-15
  0.11802720D-14  0.18257014D-14  0.24043845D-14  0.24983095D-14  0.15875635D-14
 -0.10639482D-14  0.27105060D-14  0.10421497D-13  0.18262590D-14  0.35513736D-16
  0.33296385D-16  0.23709010D-16  0.55941972D+00  0.52449155D+00  0.37346923D+00
 -0.17384649D-14 -0.16299214D-14 -0.11606011D-14 -0.30979904D-15  0.12721126D+00
  0.15613397D-14 -0.34542729D-16  0.22338815D-01  0.21172198D-14  0.64073930D-17
  0.36186354D-03  0.86584954D-16 -0.66341250D-15  0.10263260D-14 -0.36291353D-15
 -0.73055849D-16  0.87183298D-16 -0.75922274D-01  0.18525502D-14 -0.24126276D-14
  0.56007739D-15 -0.49772784D-16  0.47763511D-16 -0.13802967D-01  0.16408581D-15
  0.39822969D-15 -0.56231549D-15  0.45682275D-16 -0.14758032D-16 -0.16091575D-02
 -0.19552382D-16 -0.18273774D-02 -0.71800822D-15  0.72491173D-16  0.54649194D-02
 -0.11031039D-15 -0.13834027D-16  0.17212901D-04  0.22643351D-14 -0.35723427D-15
  0.11162585D-17 -0.12617312D-03 -0.24126983D-15 -0.22963642D-16 -0.13649119D-03
 -0.68703801D-15  0.19614867D-16  0.51501054D-03  0.14108475D-14  0.75204369D-16
  0.37804601D-01  0.68182155D-01  0.10053455D+00  0.63223701D-01 -0.14431429D-02
 -0.47439282D-03  0.18333604D-15 -0.15338791D-01  0.20134701D-01 -0.10236925D-15
  0.24786951D-03  0.42423565D-02 -0.53152051D-16  0.14765142D-02 -0.13085913D-02
 -0.21641078D-02  0.52640376D-03  0.16377040D-02 -0.13798610D-15  0.15306593D-15
 -0.11401774D-01  0.21683146D-03 -0.28128235D-03  0.64450887D-04  0.30860947D-16
 -0.89019628D-17  0.14408302D-03 -0.37804601D-01 -0.68182155D-01 -0.10053455D+00
 -0.63223701D-01  0.14431429D-02  0.47439282D-03 -0.19548811D-15 -0.15338791D-01
 -0.20134701D-01  0.88561709D-16  0.24786951D-03 -0.42423565D-02  0.50797772D-16
  0.14765142D-02  0.13085913D-02  0.21641078D-02 -0.52640376D-03 -0.16377040D-02
 -0.33477620D-15 -0.27992360D-15 -0.11401774D-01 -0.21683146D-03  0.28128235D-03
 -0.64450887D-04  0.23816193D-17  0.48736897D-16  0.14408302D-03
MO    4     MO 0.0        OCC NO =    2.0000000  ORB. ENERGY =   -0.320614
 -0.53856771D-03 -0.10040127D-02 -0.16969583D-02 -0.25510842D-02 -0.31343016D-02
 -0.26474188D-02 -0.99850896D-03  0.49416766D-05 -0.30684284D-01 -0.57450662D-01
 -0.97814667D-01 -0.15130442D+00 -0.19926259D+00 -0.20704660D+00 -0.13156882D+00
  0.88174363D-01  0.43905247D-01  0.56700352D-01  0.46739306D-02  0.55077792D-15
  0.51638931D-15  0.36769995D-15  0.71852594D-14  0.67366374D-14  0.47968871D-14
  0.61015296D+00  0.57205719D+00  0.40733879D+00  0.71422245D-16 -0.35244942D-13
  0.14373473D+00  0.23288887D-16 -0.55930920D-13  0.23901117D-01  0.77981407D-18
 -0.15808612D-14  0.65543222D-03  0.22309889D-01  0.80346848D-04 -0.22390236D-01
  0.66627620D-17 -0.61114184D-16  0.35267829D-14  0.36935484D-02  0.23301697D-02
 -0.60237182D-02  0.14356406D-16 -0.45506082D-16  0.36142797D-13  0.22068384D-03
  0.36613870D-03 -0.58682254D-03  0.30265703D-17 -0.85592037D-17  0.56384747D-14
  0.40918284D-17  0.15952232D-15 -0.29028576D-02 -0.46372451D-17  0.64064353D-14
  0.79823006D-02 -0.76382401D-17 -0.68850022D-14  0.72627211D-03  0.20948502D-16
 -0.38741478D-17  0.35310648D-15  0.26457328D-04  0.67382935D-17  0.25357179D-14
  0.70753114D-03  0.48841500D-17 -0.35950373D-14 -0.78690312D-03 -0.15159035D-17
 -0.18174066D-01 -0.32777676D-01 -0.48330664D-01 -0.40591544D-01 -0.12494002D-01
 -0.25667181D-03  0.23101755D-16  0.13082800D-01  0.20981328D-02 -0.42677554D-16
  0.45656909D-02  0.49977374D-02 -0.25635847D-16 -0.32789005D-04  0.25963946D-03
  0.13979768D-02 -0.33680021D-02  0.19700254D-02  0.34666167D-18  0.13998254D-16
  0.36234229D-02 -0.43429318D-03  0.29355705D-04  0.40493747D-03  0.15010919D-16
 -0.19159577D-16 -0.10580723D-02 -0.18174066D-01 -0.32777676D-01 -0.48330664D-01
 -0.40591544D-01 -0.12494002D-01 -0.25667181D-03  0.17265144D-16 -0.13082800D-01
  0.20981328D-02 -0.22723723D-16 -0.45656909D-02  0.49977374D-02 -0.14349187D-16
  0.32789005D-04  0.25963946D-03  0.13979768D-02 -0.33680021D-02  0.19700254D-02
 -0.14675557D-17 -0.99578815D-17 -0.36234229D-02 -0.43429318D-03  0.29355705D-04
  0.40493747D-03 -0.15165848D-16 -0.35821035D-17  0.10580723D-02
END DATA
RHF
