 Molden2AIM, Version 4.0.0 (06/02/2016)           Time: Thu Jun 28 05:40:07 2018
GAUSSIAN             11 MOL ORBITALS    279 PRIMITIVES        5 NUCLEI
  C    1    (CENTRE  1)   0.00000000  0.00000000 -2.30217019  CHARGE =  6.0
  N    2    (CENTRE  2)   0.00000000  0.00000000  0.14302203  CHARGE =  7.0
  H    3    (CENTRE  3)   1.81348890  0.00000000 -3.25577324  CHARGE =  1.0
  H    4    (CENTRE  4)  -1.81348890  0.00000000 -3.25577324  CHARGE =  1.0
  N    5    (CENTRE  5)   0.00000000  0.00000000  2.29683738  CHARGE =  7.0
CENTRE ASSIGNMENTS    1  1  1  1  1  1  1  1  1  1  1  1  1  1  1  1  1  1  1  1
CENTRE ASSIGNMENTS    1  1  1  1  1  1  1  1  1  1  1  1  1  1  1  1  1  1  1  1
CENTRE ASSIGNMENTS    1  1  1  1  1  1  1  1  1  1  1  1  1  1  1  1  1  1  1  1
CENTRE ASSIGNMENTS    1  1  1  1  1  1  1  1  1  1  1  1  1  1  1  2  2  2  2  2
CENTRE ASSIGNMENTS    2  2  2  2  2  2  2  2  2  2  2  2  2  2  2  2  2  2  2  2
CENTRE ASSIGNMENTS    2  2  2  2  2  2  2  2  2  2  2  2  2  2  2  2  2  2  2  2
CENTRE ASSIGNMENTS    2  2  2  2  2  2  2  2  2  2  2  2  2  2  2  2  2  2  2  2
CENTRE ASSIGNMENTS    2  2  2  2  2  2  2  2  2  2  3  3  3  3  3  3  3  3  3  3
CENTRE ASSIGNMENTS    3  3  3  3  3  3  3  3  3  3  3  3  3  3  3  3  3  4  4  4
CENTRE ASSIGNMENTS    4  4  4  4  4  4  4  4  4  4  4  4  4  4  4  4  4  4  4  4
CENTRE ASSIGNMENTS    4  4  4  4  5  5  5  5  5  5  5  5  5  5  5  5  5  5  5  5
CENTRE ASSIGNMENTS    5  5  5  5  5  5  5  5  5  5  5  5  5  5  5  5  5  5  5  5
CENTRE ASSIGNMENTS    5  5  5  5  5  5  5  5  5  5  5  5  5  5  5  5  5  5  5  5
CENTRE ASSIGNMENTS    5  5  5  5  5  5  5  5  5  5  5  5  5  5  5  5  5  5  5
TYPE ASSIGNMENTS      1  1  1  1  1  1  1  1  1  1  1  1  1  1  1  1  1  1  1  2
TYPE ASSIGNMENTS      2  2  3  3  3  4  4  4  2  3  4  2  3  4  2  3  4  5  6  7
TYPE ASSIGNMENTS      8  9 10  5  6  7  8  9 10  5  6  7  8  9 10 11 12 13 17 14
TYPE ASSIGNMENTS     15 18 19 16 20 11 12 13 17 14 15 18 19 16 20  1  1  1  1  1
TYPE ASSIGNMENTS      1  1  1  1  1  1  1  1  1  1  1  1  1  1  2  2  2  3  3  3
TYPE ASSIGNMENTS      4  4  4  2  3  4  2  3  4  2  3  4  5  6  7  8  9 10  5  6
TYPE ASSIGNMENTS      7  8  9 10  5  6  7  8  9 10 11 12 13 17 14 15 18 19 16 20
TYPE ASSIGNMENTS     11 12 13 17 14 15 18 19 16 20  1  1  1  1  1  1  2  3  4  2
TYPE ASSIGNMENTS      3  4  2  3  4  5  6  7  8  9 10  5  6  7  8  9 10  1  1  1
TYPE ASSIGNMENTS      1  1  1  2  3  4  2  3  4  2  3  4  5  6  7  8  9 10  5  6
TYPE ASSIGNMENTS      7  8  9 10  1  1  1  1  1  1  1  1  1  1  1  1  1  1  1  1
TYPE ASSIGNMENTS      1  1  1  2  2  2  3  3  3  4  4  4  2  3  4  2  3  4  2  3
TYPE ASSIGNMENTS      4  5  6  7  8  9 10  5  6  7  8  9 10  5  6  7  8  9 10 11
TYPE ASSIGNMENTS     12 13 17 14 15 18 19 16 20 11 12 13 17 14 15 18 19 16 20
EXPONENTS  0.8236000D+04 0.1235000D+04 0.2808000D+03 0.7927000D+02 0.2559000D+02
EXPONENTS  0.8997000D+01 0.3319000D+01 0.3643000D+00 0.8236000D+04 0.1235000D+04
EXPONENTS  0.2808000D+03 0.7927000D+02 0.2559000D+02 0.8997000D+01 0.3319000D+01
EXPONENTS  0.3643000D+00 0.9059000D+00 0.1285000D+00 0.4402000D-01 0.1871000D+02
EXPONENTS  0.4133000D+01 0.1200000D+01 0.1871000D+02 0.4133000D+01 0.1200000D+01
EXPONENTS  0.1871000D+02 0.4133000D+01 0.1200000D+01 0.3827000D+00 0.3827000D+00
EXPONENTS  0.3827000D+00 0.1209000D+00 0.1209000D+00 0.1209000D+00 0.3569000D-01
EXPONENTS  0.3569000D-01 0.3569000D-01 0.1097000D+01 0.1097000D+01 0.1097000D+01
EXPONENTS  0.1097000D+01 0.1097000D+01 0.1097000D+01 0.3180000D+00 0.3180000D+00
EXPONENTS  0.3180000D+00 0.3180000D+00 0.3180000D+00 0.3180000D+00 0.1000000D+00
EXPONENTS  0.1000000D+00 0.1000000D+00 0.1000000D+00 0.1000000D+00 0.1000000D+00
EXPONENTS  0.7610000D+00 0.7610000D+00 0.7610000D+00 0.7610000D+00 0.7610000D+00
EXPONENTS  0.7610000D+00 0.7610000D+00 0.7610000D+00 0.7610000D+00 0.7610000D+00
EXPONENTS  0.2680000D+00 0.2680000D+00 0.2680000D+00 0.2680000D+00 0.2680000D+00
EXPONENTS  0.2680000D+00 0.2680000D+00 0.2680000D+00 0.2680000D+00 0.2680000D+00
EXPONENTS  0.1142000D+05 0.1712000D+04 0.3893000D+03 0.1100000D+03 0.3557000D+02
EXPONENTS  0.1254000D+02 0.4644000D+01 0.5118000D+00 0.1142000D+05 0.1712000D+04
EXPONENTS  0.3893000D+03 0.1100000D+03 0.3557000D+02 0.1254000D+02 0.4644000D+01
EXPONENTS  0.5118000D+00 0.1293000D+01 0.1787000D+00 0.5760000D-01 0.2663000D+02
EXPONENTS  0.5948000D+01 0.1742000D+01 0.2663000D+02 0.5948000D+01 0.1742000D+01
EXPONENTS  0.2663000D+02 0.5948000D+01 0.1742000D+01 0.5550000D+00 0.5550000D+00
EXPONENTS  0.5550000D+00 0.1725000D+00 0.1725000D+00 0.1725000D+00 0.4910000D-01
EXPONENTS  0.4910000D-01 0.4910000D-01 0.1654000D+01 0.1654000D+01 0.1654000D+01
EXPONENTS  0.1654000D+01 0.1654000D+01 0.1654000D+01 0.4690000D+00 0.4690000D+00
EXPONENTS  0.4690000D+00 0.4690000D+00 0.4690000D+00 0.4690000D+00 0.1510000D+00
EXPONENTS  0.1510000D+00 0.1510000D+00 0.1510000D+00 0.1510000D+00 0.1510000D+00
EXPONENTS  0.1093000D+01 0.1093000D+01 0.1093000D+01 0.1093000D+01 0.1093000D+01
EXPONENTS  0.1093000D+01 0.1093000D+01 0.1093000D+01 0.1093000D+01 0.1093000D+01
EXPONENTS  0.3640000D+00 0.3640000D+00 0.3640000D+00 0.3640000D+00 0.3640000D+00
EXPONENTS  0.3640000D+00 0.3640000D+00 0.3640000D+00 0.3640000D+00 0.3640000D+00
EXPONENTS  0.3387000D+02 0.5095000D+01 0.1159000D+01 0.3258000D+00 0.1027000D+00
EXPONENTS  0.2526000D-01 0.1407000D+01 0.1407000D+01 0.1407000D+01 0.3880000D+00
EXPONENTS  0.3880000D+00 0.3880000D+00 0.1020000D+00 0.1020000D+00 0.1020000D+00
EXPONENTS  0.1057000D+01 0.1057000D+01 0.1057000D+01 0.1057000D+01 0.1057000D+01
EXPONENTS  0.1057000D+01 0.2470000D+00 0.2470000D+00 0.2470000D+00 0.2470000D+00
EXPONENTS  0.2470000D+00 0.2470000D+00 0.3387000D+02 0.5095000D+01 0.1159000D+01
EXPONENTS  0.3258000D+00 0.1027000D+00 0.2526000D-01 0.1407000D+01 0.1407000D+01
EXPONENTS  0.1407000D+01 0.3880000D+00 0.3880000D+00 0.3880000D+00 0.1020000D+00
EXPONENTS  0.1020000D+00 0.1020000D+00 0.1057000D+01 0.1057000D+01 0.1057000D+01
EXPONENTS  0.1057000D+01 0.1057000D+01 0.1057000D+01 0.2470000D+00 0.2470000D+00
EXPONENTS  0.2470000D+00 0.2470000D+00 0.2470000D+00 0.2470000D+00 0.1142000D+05
EXPONENTS  0.1712000D+04 0.3893000D+03 0.1100000D+03 0.3557000D+02 0.1254000D+02
EXPONENTS  0.4644000D+01 0.5118000D+00 0.1142000D+05 0.1712000D+04 0.3893000D+03
EXPONENTS  0.1100000D+03 0.3557000D+02 0.1254000D+02 0.4644000D+01 0.5118000D+00
EXPONENTS  0.1293000D+01 0.1787000D+00 0.5760000D-01 0.2663000D+02 0.5948000D+01
EXPONENTS  0.1742000D+01 0.2663000D+02 0.5948000D+01 0.1742000D+01 0.2663000D+02
EXPONENTS  0.5948000D+01 0.1742000D+01 0.5550000D+00 0.5550000D+00 0.5550000D+00
EXPONENTS  0.1725000D+00 0.1725000D+00 0.1725000D+00 0.4910000D-01 0.4910000D-01
EXPONENTS  0.4910000D-01 0.1654000D+01 0.1654000D+01 0.1654000D+01 0.1654000D+01
EXPONENTS  0.1654000D+01 0.1654000D+01 0.4690000D+00 0.4690000D+00 0.4690000D+00
EXPONENTS  0.4690000D+00 0.4690000D+00 0.4690000D+00 0.1510000D+00 0.1510000D+00
EXPONENTS  0.1510000D+00 0.1510000D+00 0.1510000D+00 0.1510000D+00 0.1093000D+01
EXPONENTS  0.1093000D+01 0.1093000D+01 0.1093000D+01 0.1093000D+01 0.1093000D+01
EXPONENTS  0.1093000D+01 0.1093000D+01 0.1093000D+01 0.1093000D+01 0.3640000D+00
EXPONENTS  0.3640000D+00 0.3640000D+00 0.3640000D+00 0.3640000D+00 0.3640000D+00
EXPONENTS  0.3640000D+00 0.3640000D+00 0.3640000D+00 0.3640000D+00
MO    1     MO 0.0        OCC NO =    2.0000000  ORB. ENERGY =  -14.904349
  0.25880669D-03  0.48247451D-03  0.81546692D-03  0.12259139D-02  0.15061769D-02
  0.12722071D-02  0.47982972D-03 -0.23747041D-05 -0.20152079D-03 -0.37731050D-03
 -0.64240341D-03 -0.99370040D-03 -0.13086685D-02 -0.13597904D-02 -0.86408573D-03
  0.57909016D-03  0.25115379D-03 -0.30798015D-02  0.14538820D-03  0.20446315D-14
  0.19169720D-14  0.13649982D-14 -0.28337469D-17 -0.26568178D-17 -0.18918126D-17
  0.73345578D-03  0.68766142D-03  0.48965589D-03 -0.11727252D-13 -0.49295901D-18
  0.11672563D-02 -0.22089007D-13  0.43465099D-18 -0.69665085D-03 -0.98791958D-16
 -0.12710585D-19  0.16277364D-04 -0.59178749D-03 -0.78664586D-03  0.13784334D-02
  0.20962318D-18  0.30894343D-14 -0.17084901D-17  0.20425672D-03  0.25389916D-03
 -0.45815587D-03 -0.39993441D-18  0.66829185D-14 -0.16648842D-17  0.37447744D-04
  0.28435344D-04 -0.65883087D-04 -0.51335347D-19  0.13308719D-14  0.12121225D-19
 -0.62515086D-15  0.38926091D-18 -0.37109005D-03  0.11429814D-14  0.31136751D-18
  0.96714643D-03  0.73247115D-15 -0.14791502D-17  0.14612373D-03  0.35337640D-18
 -0.39090695D-15  0.34150912D-20 -0.12485406D-03  0.13267381D-14  0.32205109D-18
  0.51123218D-03 -0.15401724D-15 -0.33229636D-18 -0.13667001D-03  0.80962191D-19
  0.41293653D+00  0.76944642D+00  0.13013268D+01  0.19597261D+01  0.24262680D+01
  0.20646446D+01  0.78563534D+00 -0.36794655D-02 -0.15270682D-02 -0.28632672D-02
 -0.48712695D-02 -0.75645672D-02 -0.10038621D-01 -0.10579328D-01 -0.65598583D-02
  0.43636203D-02  0.40896048D-01  0.18307938D-02 -0.68160071D-04  0.11336043D-14
  0.10888134D-14  0.76355113D-15 -0.32421581D-16 -0.31140541D-16 -0.21837897D-16
 -0.46207393D-03 -0.44381649D-03 -0.31123476D-03 -0.16789994D-14  0.80869667D-17
  0.56281779D-02  0.67982535D-15  0.36389813D-17 -0.33753721D-02 -0.65726766D-15
  0.82544065D-19  0.45695648D-04 -0.30690561D-02 -0.38737313D-02  0.69427874D-02
 -0.39171824D-17  0.59164616D-15 -0.80057076D-18  0.11746469D-03  0.54062725D-03
 -0.65809194D-03  0.13156199D-18 -0.26556965D-15  0.25201009D-17  0.17486729D-03
  0.22057527D-03 -0.39544256D-03  0.72721274D-20 -0.28259564D-14  0.11473075D-17
 -0.11899187D-15 -0.12708824D-17  0.16385188D-02  0.34721406D-15 -0.38996975D-18
 -0.24838990D-02  0.97615501D-17  0.42026171D-17 -0.24316573D-02 -0.60322343D-19
  0.17926913D-15 -0.51166386D-18 -0.29050699D-03 -0.28187852D-15 -0.67270704D-18
  0.67968195D-03 -0.25592888D-15  0.22076986D-17  0.19183901D-03 -0.25511402D-19
  0.78597857D-04  0.14175447D-03  0.20901689D-03  0.11525211D-02  0.41434120D-04
  0.55680168D-05 -0.31365553D-03  0.23974803D-18  0.27842938D-03 -0.32811327D-03
 -0.30668593D-18 -0.63243243D-03 -0.46276059D-04  0.21715506D-19 -0.53758504D-04
  0.32739913D-03  0.18135599D-03 -0.50875513D-03 -0.20851445D-18  0.37652764D-03
 -0.12448888D-18  0.57695773D-04  0.74132199D-04 -0.13182797D-03 -0.98923363D-19
  0.58636966D-04 -0.90151558D-19  0.78597857D-04  0.14175447D-03  0.20901689D-03
  0.11525211D-02  0.41434120D-04  0.55680168D-05  0.31365553D-03  0.49284393D-18
  0.27842938D-03  0.32811327D-03 -0.95531218D-18 -0.63243243D-03  0.46276059D-04
 -0.20245758D-18 -0.53758504D-04  0.32739913D-03  0.18135599D-03 -0.50875513D-03
 -0.44116569D-19 -0.37652764D-03 -0.21144561D-18  0.57695773D-04  0.74132199D-04
 -0.13182797D-03 -0.23821863D-18 -0.58636966D-04 -0.23685834D-18  0.48163716D-02
  0.89745993D-02  0.15178297D-01  0.22857675D-01  0.28299284D-01  0.24081414D-01
  0.91634221D-02 -0.42916215D-04 -0.12620967D-03 -0.23664431D-03 -0.40260238D-03
 -0.62519898D-03 -0.82967541D-03 -0.87436400D-03 -0.54216146D-03  0.36064601D-03
  0.22042707D-02  0.23949816D-02 -0.43049474D-03  0.62223356D-15  0.59764789D-15
  0.41911196D-15  0.19378756D-17  0.18613064D-17  0.13052765D-17 -0.34881818D-02
 -0.33503569D-02 -0.23495015D-02 -0.44298771D-15 -0.38702721D-17  0.28172739D-02
  0.35556957D-14 -0.36592614D-17  0.76087201D-03  0.34770916D-15 -0.89184512D-19
  0.42881645D-04  0.62989277D-03  0.27856126D-03 -0.90845403D-03  0.66707289D-19
  0.10518438D-14 -0.12535854D-17  0.11581951D-02  0.14004423D-02 -0.25586374D-02
  0.23248614D-19 -0.10700008D-14  0.51559960D-17  0.10015454D-03  0.90756828D-04
 -0.19091136D-03 -0.11582920D-20 -0.69663578D-15  0.98568826D-18 -0.97940736D-16
  0.85801768D-18  0.23024149D-02 -0.55934795D-15  0.33124440D-18 -0.34066087D-02
  0.85317016D-15 -0.29052974D-17 -0.35006360D-02 -0.30795612D-18 -0.69285413D-16
  0.20136818D-18  0.35574610D-03  0.13376724D-15  0.31414668D-18 -0.48726406D-03
  0.74088999D-16 -0.91825122D-18 -0.57997423D-03  0.38859928D-20
MO    2     MO 0.0        OCC NO =    2.0000000  ORB. ENERGY =  -14.831131
 -0.44790737D-03 -0.83500117D-03 -0.14112991D-02 -0.21216448D-02 -0.26066858D-02
 -0.22017628D-02 -0.83042393D-03  0.41098144D-05  0.34251647D-03  0.64129891D-03
  0.10918663D-02  0.16889511D-02  0.22242892D-02  0.23111789D-02  0.14686505D-02
 -0.98425538D-03 -0.14567660D-02 -0.31431740D-02 -0.14768133D-03  0.21746663D-14
  0.20388879D-14  0.14518097D-14 -0.20680409D-15 -0.19389198D-15 -0.13806264D-15
 -0.11519604D-02 -0.10800361D-02 -0.76905004D-03 -0.88370633D-14  0.11877927D-15
  0.54553324D-04 -0.54185333D-14 -0.32166148D-16 -0.13236863D-02 -0.86442544D-16
  0.10531218D-18  0.69749749D-05  0.19326831D-03 -0.68346906D-04 -0.12492140D-03
  0.17673665D-17  0.26856243D-14 -0.44484770D-18 -0.14568619D-03 -0.31808141D-03
  0.46376760D-03  0.71485274D-18  0.45500393D-14 -0.56485812D-17 -0.20135375D-05
  0.19235328D-04 -0.17221791D-04  0.53548826D-18  0.31993989D-15 -0.75744767D-19
 -0.45975870D-15  0.40507900D-18 -0.78927878D-04  0.13169183D-14  0.52609650D-18
  0.18161929D-03  0.62357802D-16 -0.17413335D-17  0.55164347D-04  0.21443677D-18
 -0.79368991D-16 -0.13454996D-18  0.17332524D-04  0.44131561D-15  0.15001777D-17
  0.12382072D-03 -0.20320864D-15 -0.10965278D-17 -0.17581829D-03 -0.15872482D-17
 -0.46777982D-02 -0.87163881D-02 -0.14741597D-01 -0.22200029D-01 -0.27485076D-01
 -0.23388559D-01 -0.88997782D-02  0.41681458D-04 -0.14582354D-03 -0.27342050D-03
 -0.46516962D-03 -0.72235931D-03 -0.95861281D-03 -0.10102463D-02 -0.62641717D-03
  0.41669294D-03  0.17645003D-02 -0.13971254D-01 -0.15138887D-02  0.16208091D-15
  0.15567678D-15  0.10917130D-15 -0.78349402D-17 -0.75253664D-17 -0.52773064D-17
  0.36765219D-02  0.35312554D-02  0.24763600D-02 -0.26700516D-15  0.31986709D-17
 -0.19534137D-02  0.59288259D-15  0.16405926D-17 -0.12522797D-01 -0.79509552D-16
 -0.23470637D-18 -0.21668484D-03  0.15147777D-04 -0.35252880D-03  0.33738103D-03
 -0.33507912D-17 -0.40490234D-15  0.77340600D-17  0.18429669D-02  0.20406054D-02
 -0.38835722D-02  0.18305169D-17  0.63511726D-15 -0.44327231D-17  0.35927630D-03
  0.35241714D-03 -0.71169344D-03 -0.13076935D-18 -0.66945761D-16 -0.13891736D-17
 -0.20719123D-15 -0.13294207D-17 -0.17819742D-02 -0.13782526D-15 -0.78489444D-18
  0.25959670D-02  0.75939894D-15  0.47731565D-17  0.27499557D-02  0.22104713D-18
  0.30719913D-16 -0.47003521D-18 -0.10161760D-02 -0.90493383D-16 -0.84785213D-18
  0.16642070D-02 -0.16663564D-17  0.22579578D-17  0.13843211D-02 -0.66212456D-18
  0.38029604D-04  0.68587957D-04  0.10113290D-03  0.20213686D-03 -0.31722883D-03
  0.45936662D-05 -0.17071659D-03  0.17155088D-17  0.97427583D-05  0.20750370D-03
 -0.53368206D-17 -0.30102552D-03  0.85390801D-04 -0.15474369D-17  0.12894793D-04
  0.10598876D-03  0.12308133D-03 -0.22907009D-03  0.58592597D-19  0.28215493D-03
 -0.18104128D-17 -0.25781828D-05  0.71410408D-04 -0.68832225D-04  0.22926036D-17
 -0.39425181D-04 -0.83822268D-18  0.38029604D-04  0.68587957D-04  0.10113290D-03
  0.20213686D-03 -0.31722883D-03  0.45936662D-05  0.17071659D-03  0.25673812D-17
  0.97427583D-05 -0.20750370D-03 -0.29724983D-17 -0.30102552D-03 -0.85390801D-04
  0.81454401D-18  0.12894793D-04  0.10598876D-03  0.12308133D-03 -0.22907009D-03
 -0.90108086D-18 -0.28215493D-03  0.29532147D-17 -0.25781828D-05  0.71410408D-04
 -0.68832225D-04  0.90034943D-18  0.39425181D-04 -0.15774488D-17  0.41289731D+00
  0.76937334D+00  0.13012032D+01  0.19595399D+01  0.24260375D+01  0.20644485D+01
  0.78556072D+00 -0.36791160D-02 -0.14941180D-02 -0.28014852D-02 -0.47661599D-02
 -0.74013431D-02 -0.98220128D-02 -0.10351053D-01 -0.64183134D-02  0.42694645D-02
  0.41435763D-01  0.20122529D-01  0.16633434D-02  0.98180364D-16  0.94301066D-16
  0.66130417D-16  0.13786641D-16  0.13241904D-16  0.92861369D-17 -0.83657487D-02
 -0.80352017D-02 -0.56348380D-02 -0.20383738D-15 -0.65493344D-17 -0.63169215D-02
 -0.17679430D-15  0.22799605D-17 -0.53064438D-02  0.34994956D-16  0.24687702D-19
 -0.76740550D-04 -0.18387359D-02 -0.34469976D-02  0.52857336D-02 -0.78750323D-19
 -0.52237596D-16  0.54334265D-17 -0.25442798D-03 -0.24558270D-05  0.25688380D-03
 -0.54671337D-19  0.36672149D-15  0.39703723D-18 -0.54793250D-04 -0.49188243D-04
  0.10398149D-03 -0.18512251D-21  0.53630068D-16  0.23442679D-19  0.11060921D-15
  0.17238277D-17 -0.94708749D-03  0.12506218D-16  0.94553688D-18  0.12948586D-02
 -0.34433383D-15 -0.61170199D-17  0.15464039D-02  0.17523624D-18  0.33304192D-17
 -0.15709299D-18  0.22204876D-03  0.52293370D-16 -0.18856614D-18 -0.28225022D-03
 -0.62284628D-16  0.65984510D-18 -0.38389605D-03 -0.22196856D-19
MO    3     MO 0.0        OCC NO =    2.0000000  ORB. ENERGY =  -10.578839
  0.33027957D+00  0.61571622D+00  0.10406689D+01  0.15644662D+01  0.19221275D+01
  0.16235439D+01  0.61234104D+00 -0.30305100D-02 -0.31134874D-02 -0.58294307D-02
 -0.99251046D-02 -0.15352628D-01 -0.20218870D-01 -0.21008702D-01 -0.13350087D-01
  0.89469177D-02  0.34135467D-01  0.56795551D-02  0.86498881D-03 -0.14442056D-14
 -0.13540346D-14 -0.96415327D-15  0.77142251D-17  0.72325764D-17  0.51500253D-17
  0.40845317D-02  0.38295081D-02  0.27268379D-02  0.69516679D-14 -0.29447856D-17
  0.25075749D-02 -0.13881060D-13 -0.67989854D-18  0.27439250D-02 -0.12660370D-15
 -0.20998652D-19  0.21088143D-04  0.17575661D-02 -0.48602921D-02  0.31027259D-02
 -0.88519567D-18 -0.26347870D-14 -0.23647742D-17  0.24443155D-03  0.27773450D-03
 -0.52216605D-03  0.25505021D-18 -0.10645187D-14 -0.99146916D-18 -0.17484906D-03
 -0.24243809D-04  0.19909286D-03 -0.84100625D-21  0.52080077D-15 -0.11467477D-18
  0.82706103D-15  0.47225235D-18  0.97008319D-03 -0.21945780D-14 -0.25038876D-18
 -0.29785306D-02 -0.28660510D-15 -0.11663683D-17  0.68281058D-04 -0.10416803D-17
  0.11503194D-15  0.71623632D-19 -0.47237730D-03  0.75402103D-15 -0.68734911D-19
  0.13593551D-02 -0.10991169D-14 -0.14613598D-18  0.57776771D-04 -0.18022040D-19
  0.30072668D-03  0.56035989D-03  0.94770905D-03  0.14271973D-02  0.17669629D-02
  0.15036057D-02  0.57214969D-03 -0.26796211D-05 -0.32299968D-03 -0.60562742D-03
 -0.10303524D-02 -0.16000286D-02 -0.21233309D-02 -0.22376994D-02 -0.13875164D-02
  0.92297641D-03  0.13445562D-02  0.13741361D-03 -0.35902376D-03  0.40874302D-15
  0.39259279D-15  0.27531316D-15 -0.89476510D-18 -0.85941118D-18 -0.60267844D-18
 -0.23185734D-02 -0.22269620D-02 -0.15616995D-02 -0.29416797D-15  0.67367181D-18
 -0.19301502D-02  0.12261706D-14  0.10130107D-17  0.12229327D-01 -0.22047674D-15
  0.70479499D-19  0.31276198D-03  0.29053797D-03 -0.84465831D-03  0.55412034D-03
  0.25474193D-18  0.16382214D-14  0.74590082D-18  0.82003303D-03  0.15913774D-02
 -0.24114104D-02  0.31216022D-19 -0.22620016D-14 -0.13167943D-17 -0.31737825D-03
 -0.17871263D-03  0.49609088D-03 -0.44110762D-20 -0.30955503D-14 -0.45811422D-18
  0.14932554D-15 -0.10675460D-18  0.80824272D-03  0.56546722D-15 -0.34762468D-18
 -0.16994265D-02 -0.10134438D-14  0.66788849D-18 -0.72530168D-03 -0.46600654D-18
  0.16579677D-15 -0.28881851D-18  0.10533843D-02 -0.67012837D-16 -0.18371162D-18
 -0.12703911D-02 -0.43037747D-15  0.10501671D-17 -0.18897619D-02 -0.41236674D-19
  0.21868427D-03  0.39440608D-03  0.58155153D-03 -0.54144482D-04  0.61094353D-03
 -0.33015431D-04  0.14221241D-02 -0.22195819D-19 -0.67261497D-03  0.17243052D-02
  0.27732036D-18 -0.14266531D-02  0.16178748D-03  0.20839059D-19  0.14453670D-03
 -0.19557198D-02  0.15455234D-02  0.41019644D-03  0.13501160D-19  0.37633152D-02
  0.31238251D-18 -0.20583902D-03  0.23252650D-03 -0.26687483D-04 -0.34936173D-19
  0.11450588D-03  0.54316997D-19  0.21868427D-03  0.39440608D-03  0.58155153D-03
 -0.54144482D-04  0.61094353D-03 -0.33015431D-04 -0.14221241D-02  0.38677046D-20
 -0.67261497D-03 -0.17243052D-02  0.67173446D-18 -0.14266531D-02 -0.16178748D-03
  0.58696247D-19  0.14453670D-03 -0.19557198D-02  0.15455234D-02  0.41019644D-03
  0.53952258D-18 -0.37633152D-02  0.41385821D-18 -0.20583902D-03  0.23252650D-03
 -0.26687483D-04  0.15793622D-18 -0.11450588D-03  0.11649304D-18 -0.41073662D-03
 -0.76534720D-03 -0.12943940D-02 -0.19492856D-02 -0.24133421D-02 -0.20536452D-02
 -0.78144987D-03  0.36598631D-05  0.32808479D-03  0.61516204D-03  0.10465737D-02
  0.16252184D-02  0.21567593D-02  0.22729283D-02  0.14093605D-02 -0.93750718D-03
 -0.13434678D-02 -0.13011162D-01 -0.11266712D-02  0.26158128D-15  0.25124569D-15
  0.17619082D-15  0.59756968D-18  0.57395854D-18  0.40249935D-18  0.10578946D-02
  0.10160951D-02  0.71255605D-03  0.19475293D-15 -0.11743128D-17 -0.45031448D-03
  0.38898475D-14  0.28171231D-18  0.29136911D-02  0.18150267D-15 -0.15129875D-19
  0.14337034D-04  0.46704214D-03  0.13064985D-03 -0.59769200D-03 -0.38404588D-19
  0.90298135D-15  0.67417690D-18 -0.60215508D-03 -0.34877760D-03  0.95093268D-03
  0.35280086D-19 -0.18226408D-14  0.26856768D-18  0.15927773D-04 -0.44651725D-04
  0.28723951D-04  0.15423568D-20 -0.73243891D-15 -0.53884592D-19 -0.31637313D-15
  0.88281721D-19  0.19642704D-03 -0.62702964D-15  0.14206172D-18 -0.23097890D-03
  0.15761490D-14 -0.40690688D-18 -0.35830221D-03 -0.10097724D-18 -0.67631916D-16
 -0.22265696D-19 -0.12603602D-03  0.52000400D-16 -0.56698825D-19  0.18669635D-03
  0.15089535D-15  0.12349591D-18  0.19141172D-03 -0.21474337D-19
MO    4     MO 0.0        OCC NO =    2.0000000  ORB. ENERGY =   -1.231509
 -0.16559112D-02 -0.30869949D-02 -0.52175652D-02 -0.78437095D-02 -0.96369034D-02
 -0.81399055D-02 -0.30700729D-02  0.15193962D-04 -0.10753343D-01 -0.20133652D-01
 -0.34279265D-01 -0.53024811D-01 -0.69831810D-01 -0.72559724D-01 -0.46108447D-01
  0.30900809D-01  0.12309890D-01 -0.46351666D-04  0.30505470D-02 -0.11183556D-13
 -0.10485294D-13 -0.74661543D-14 -0.10718116D-15 -0.10048915D-15 -0.71554263D-16
  0.78015552D-01  0.73144539D-01  0.52083269D-01  0.39556954D-13 -0.25854276D-16
  0.18300073D-01  0.19133707D-12  0.13060272D-16 -0.96831987D-03  0.34734452D-14
 -0.25511400D-17  0.25082250D-03 -0.59638857D-02 -0.11241014D-01  0.17204900D-01
  0.40643501D-16 -0.55395475D-14 -0.53427410D-16  0.59111301D-03 -0.45953094D-03
 -0.13158207D-03  0.16943475D-16 -0.42689207D-13 -0.10148343D-16  0.27950489D-04
  0.10007467D-03 -0.12802516D-03  0.12925481D-16 -0.14632138D-13 -0.18738328D-17
  0.30506026D-14  0.35717633D-17  0.19440367D-02 -0.21794349D-14  0.69642071D-17
 -0.23309617D-02 -0.69723728D-14 -0.17679497D-16 -0.35011485D-02  0.10235104D-16
  0.30250074D-14 -0.10959228D-17 -0.72703062D-03 -0.94640803D-14  0.23853134D-17
  0.22749005D-02  0.38905818D-15  0.90245502D-18 -0.93808592D-04 -0.28977382D-17
 -0.66127508D-02 -0.12321887D-01 -0.20839401D-01 -0.31382983D-01 -0.38854169D-01
 -0.33063144D-01 -0.12581136D-01  0.58922828D-04 -0.65398144D-01 -0.12262213D+00
 -0.20861673D+00 -0.32395976D+00 -0.42991344D+00 -0.45306975D+00 -0.28093215D+00
  0.18687617D+00  0.99643963D-01  0.24647209D-02 -0.12056241D-01 -0.59522918D-14
 -0.57171051D-14 -0.40092287D-14 -0.10944009D-15 -0.10511590D-15 -0.73714526D-16
  0.29761151D+00  0.28585230D+00  0.20045936D+00  0.10206995D-13 -0.38684820D-16
  0.54825000D-01  0.68894332D-15 -0.36656274D-16 -0.15630925D-01  0.38228273D-14
 -0.31773681D-17 -0.11194486D-03 -0.35117963D-01 -0.38964472D-01  0.74082435D-01
 -0.60425102D-16  0.21474653D-14  0.21423924D-16  0.98675607D-04  0.62587067D-03
 -0.72454628D-03  0.27084183D-17 -0.51572490D-14 -0.49998358D-16  0.13049134D-02
  0.13745190D-02 -0.26794325D-02 -0.57511493D-17  0.28630217D-13 -0.63120130D-17
  0.54914801D-16  0.59973303D-17  0.11171137D-01 -0.40031093D-14 -0.14833408D-17
 -0.17850148D-01  0.38383649D-14 -0.16508650D-16 -0.15663263D-01 -0.72218036D-17
 -0.19477512D-14  0.13798245D-17 -0.16094903D-02  0.17316327D-14  0.50072918D-18
  0.32086547D-02  0.41116207D-14 -0.46402026D-17  0.16198162D-02 -0.34611387D-18
  0.17597540D-02  0.31737888D-02  0.46797498D-02  0.43152583D-02 -0.34807252D-03
 -0.16471629D-04 -0.12169653D-02  0.13777855D-16  0.15968977D-02  0.13169725D-03
 -0.22766419D-16 -0.23850373D-02  0.82097747D-04 -0.27629374D-16 -0.39479921D-04
  0.30592572D-03  0.23986316D-03 -0.54578887D-03 -0.13287592D-16  0.11605211D-02
 -0.23778818D-17  0.96829972D-04  0.49679483D-03 -0.59362480D-03  0.16141231D-16
  0.54089813D-04 -0.43984258D-17  0.17597540D-02  0.31737888D-02  0.46797498D-02
  0.43152583D-02 -0.34807252D-03 -0.16471629D-04  0.12169653D-02 -0.29992967D-17
  0.15968977D-02 -0.13169725D-03 -0.99379500D-17 -0.23850373D-02 -0.82097747D-04
  0.13647868D-16 -0.39479921D-04  0.30592572D-03  0.23986316D-03 -0.54578887D-03
 -0.21387972D-16 -0.11605211D-02 -0.83457269D-17  0.96829972D-04  0.49679483D-03
 -0.59362480D-03  0.10336176D-17 -0.54089813D-04  0.28113596D-17 -0.63492835D-02
 -0.11830955D-01 -0.20009111D-01 -0.30132612D-01 -0.37306128D-01 -0.31745831D-01
 -0.12079874D-01  0.56575206D-04 -0.50536513D-01 -0.94756435D-01 -0.16120889D+00
 -0.25034038D+00 -0.33221625D+00 -0.35011032D+00 -0.21709074D+00  0.14440884D+00
  0.76453156D-01  0.51218484D-01  0.50344400D-02 -0.24845641D-14 -0.23863941D-14
 -0.16735043D-14  0.20314455D-16  0.19511791D-16  0.13683015D-16 -0.39107558D+00
 -0.37562342D+00 -0.26341307D+00  0.13837301D-14  0.12248361D-16 -0.89028371D-01
 -0.35466350D-13  0.31191602D-16 -0.87533600D-02 -0.25534938D-14  0.21404040D-17
 -0.28897908D-03 -0.29382453D-01 -0.37490327D-01  0.66872779D-01 -0.42491245D-17
 -0.70557481D-14  0.17934274D-16 -0.26309133D-02 -0.35155290D-02  0.61464423D-02
  0.38102064D-17  0.87797447D-14 -0.24319921D-16  0.15475731D-03  0.19674327D-03
 -0.35150058D-03  0.17370704D-18  0.65889244D-14 -0.98622893D-17  0.85207554D-15
 -0.17949769D-17 -0.11438019D-01  0.33003268D-14  0.85295086D-17  0.15324175D-01
 -0.58565534D-14 -0.31445778D-17  0.18989881D-01  0.11226284D-16  0.20824964D-15
 -0.16108332D-17  0.61879993D-03 -0.12189778D-14 -0.30446057D-17 -0.89519618D-03
  0.59422890D-15  0.78771052D-17 -0.96120360D-03 -0.25831097D-17
MO    5     MO 0.0        OCC NO =    2.0000000  ORB. ENERGY =   -0.949199
 -0.61496703D-02 -0.11464384D-01 -0.19376828D-01 -0.29129720D-01 -0.35789226D-01
 -0.30229723D-01 -0.11401539D-01  0.56426854D-04 -0.40494867D-01 -0.75819167D-01
 -0.12908862D+00 -0.19968047D+00 -0.26297215D+00 -0.27324491D+00 -0.17363487D+00
  0.11636605D+00  0.54104137D-01  0.33875878D-01  0.24021397D-02 -0.21530379D-13
 -0.20186099D-13 -0.14373705D-13  0.53987051D-16  0.50616292D-16  0.36041815D-16
  0.19789853D+00  0.18554245D+00  0.13211728D+00  0.72952164D-13  0.81204513D-16
  0.30840094D-01  0.16411499D-12  0.99658637D-17  0.28058900D-02  0.61908332D-14
  0.10816921D-19 -0.30671553D-04 -0.37470806D-02 -0.22927481D-01  0.26674562D-01
 -0.21066530D-15 -0.15625262D-13  0.88759946D-16  0.41735846D-02 -0.30902598D-02
 -0.10833248D-02  0.29590429D-17 -0.43314064D-13  0.17374641D-16  0.44253822D-04
  0.20630998D-04 -0.64884820D-04 -0.38128741D-17 -0.73175137D-14  0.34306728D-17
  0.47644563D-14  0.32799844D-17  0.39302004D-02 -0.81683504D-14 -0.12031668D-16
 -0.54890127D-02 -0.61250185D-14  0.21917153D-17 -0.63015886D-02 -0.34217905D-16
  0.29611167D-14 -0.18073594D-18 -0.49356427D-03 -0.95572662D-14  0.10597284D-17
  0.71070977D-03  0.67391604D-15 -0.51752061D-18  0.76998303D-03 -0.39171730D-17
 -0.10089910D-02 -0.18801061D-02 -0.31797308D-02 -0.47884983D-02 -0.59284716D-02
 -0.50448618D-02 -0.19196630D-02  0.89906006D-05 -0.28843512D-01 -0.54081855D-01
 -0.92009327D-01 -0.14288077D+00 -0.18961109D+00 -0.19982406D+00 -0.12390367D+00
  0.82420767D-01  0.40944246D-01  0.47515882D-01  0.42425012D-02 -0.58514492D-14
 -0.56202470D-14 -0.39413052D-14 -0.19450117D-16 -0.18681605D-16 -0.13100831D-16
 -0.73629059D+00 -0.70719831D+00 -0.49593627D+00  0.98351780D-14 -0.11508189D-16
 -0.17343930D+00 -0.15765549D-13 -0.68676862D-17  0.18621775D-01 -0.71828707D-15
 -0.46123669D-18  0.13417079D-02 -0.25480027D-02 -0.32569195D-02  0.58049222D-02
 -0.23182630D-16 -0.19843687D-15  0.81362145D-16 -0.25762843D-02 -0.27102021D-02
  0.52864864D-02 -0.50666165D-17 -0.48391998D-14  0.83687214D-17 -0.78163964D-03
 -0.65707622D-03  0.14387159D-02  0.25427854D-17  0.20327437D-13  0.12530497D-16
  0.23189606D-15  0.75922117D-17 -0.20319297D-01 -0.91966286D-15  0.28002190D-17
  0.27985125D-01  0.22397466D-15 -0.25576854D-16  0.32972767D-01  0.11383573D-16
 -0.49386786D-15 -0.21722411D-17  0.13191400D-02  0.20928262D-14  0.10617984D-18
 -0.12734091D-02 -0.61122264D-15  0.64105435D-17 -0.26840109D-02  0.14774944D-18
  0.10488947D-01  0.18917248D-01  0.27893472D-01  0.41038369D-02 -0.30176803D-02
 -0.13909384D-03 -0.71562878D-02 -0.38519011D-17  0.60018660D-02  0.36307306D-02
 -0.55021285D-17 -0.28200337D-02  0.77544951D-03  0.36415848D-17 -0.68835210D-03
 -0.43844941D-03 -0.10185013D-02  0.14569507D-02  0.14864635D-16 -0.11835248D-02
 -0.37386737D-17 -0.28747367D-03  0.37215029D-03 -0.84676626D-04  0.25547147D-17
  0.91328138D-03 -0.51340866D-17  0.10488947D-01  0.18917248D-01  0.27893472D-01
  0.41038369D-02 -0.30176803D-02 -0.13909384D-03  0.71562878D-02  0.23138751D-17
  0.60018660D-02 -0.36307306D-02  0.17818256D-16 -0.28200337D-02 -0.77544951D-03
 -0.19221278D-17 -0.68835210D-03 -0.43844941D-03 -0.10185013D-02  0.14569507D-02
  0.30444550D-16  0.11835248D-02  0.10818426D-16 -0.28747367D-03  0.37215029D-03
 -0.84676626D-04  0.71199702D-17 -0.91328138D-03 -0.31450716D-17  0.32853442D-02
  0.61217552D-02  0.10353423D-01  0.15591681D-01  0.19303512D-01  0.16426418D-01
  0.62505550D-02 -0.29274016D-04  0.35568844D-01  0.66691916D-01  0.11346279D+00
  0.17619574D+00  0.23382199D+00  0.24641628D+00  0.15279381D+00 -0.10163850D+00
 -0.55620924D-01 -0.60753076D-01 -0.69847823D-02 -0.37147546D-14 -0.35679773D-14
 -0.25021120D-14 -0.23480713D-16 -0.22552944D-16 -0.15815681D-16  0.17799787D+00
  0.17096483D+00  0.11989234D+00  0.61420508D-14  0.13573157D-17  0.38664156D-01
 -0.19929741D-13 -0.14902166D-16  0.13359782D-01 -0.78655717D-15 -0.32751257D-18
  0.19539411D-03  0.12463145D-01  0.15972359D-01 -0.28435504D-01  0.94894788D-18
 -0.20230925D-14 -0.10025563D-16 -0.37339923D-03  0.13262200D-02 -0.95282074D-03
 -0.97631526D-18  0.34275443D-15  0.26339813D-18  0.14614759D-03  0.20430806D-04
 -0.16657840D-03 -0.41715818D-18  0.33303935D-14  0.11145851D-17  0.20024220D-15