 Molden2AIM, Version 4.0.0 (06/02/2016)           Time: Thu Jun 28 01:00:13 2018
GAUSSIAN             33 MOL ORBITALS    671 PRIMITIVES        9 NUCLEI
  C    1    (CENTRE  1)  -2.71828599  0.33760335 -0.09065016  CHARGE =  6.0
  O    2    (CENTRE  2)  -2.53002392  2.61823066 -0.15334939  CHARGE =  8.0
  N    3    (CENTRE  3)  -0.68072092 -1.27669330 -0.24320019  CHARGE =  7.0
  C    4    (CENTRE  4)  -5.22603949 -1.02606837  0.06644088  CHARGE =  6.0
  H    5    (CENTRE  5)  -6.48727483 -0.20698170 -1.35713516  CHARGE =  1.0
  H    6    (CENTRE  6)  -5.09109603 -3.07268145 -0.22999101  CHARGE =  1.0
  H    7    (CENTRE  7)  -6.04286794 -0.65611669  1.93703731  CHARGE =  1.0
  H    8    (CENTRE  8)  -0.84912954 -3.08223969  0.36174271  CHARGE =  1.0
  Br   9    (CENTRE  9)   2.57096294 -0.01292951  0.08297032  CHARGE = 35.0
CENTRE ASSIGNMENTS    1  1  1  1  1  1  1  1  1  1  1  1  1  1  1  1  1  1  1  1
CENTRE ASSIGNMENTS    1  1  1  1  1  1  1  1  1  1  1  1  1  1  1  1  1  1  1  1
CENTRE ASSIGNMENTS    1  1  1  1  1  1  1  1  1  1  1  1  1  1  1  1  1  1  1  1
CENTRE ASSIGNMENTS    1  1  1  1  1  1  1  1  1  1  1  1  1  1  1  2  2  2  2  2
CENTRE ASSIGNMENTS    2  2  2  2  2  2  2  2  2  2  2  2  2  2  2  2  2  2  2  2
CENTRE ASSIGNMENTS    2  2  2  2  2  2  2  2  2  2  2  2  2  2  2  2  2  2  2  2
CENTRE ASSIGNMENTS    2  2  2  2  2  2  2  2  2  2  2  2  2  2  2  2  2  2  2  2
CENTRE ASSIGNMENTS    2  2  2  2  2  2  2  2  2  2  3  3  3  3  3  3  3  3  3  3
CENTRE ASSIGNMENTS    3  3  3  3  3  3  3  3  3  3  3  3  3  3  3  3  3  3  3  3
CENTRE ASSIGNMENTS    3  3  3  3  3  3  3  3  3  3  3  3  3  3  3  3  3  3  3  3
CENTRE ASSIGNMENTS    3  3  3  3  3  3  3  3  3  3  3  3  3  3  3  3  3  3  3  3
CENTRE ASSIGNMENTS    3  3  3  3  3  4  4  4  4  4  4  4  4  4  4  4  4  4  4  4
CENTRE ASSIGNMENTS    4  4  4  4  4  4  4  4  4  4  4  4  4  4  4  4  4  4  4  4
CENTRE ASSIGNMENTS    4  4  4  4  4  4  4  4  4  4  4  4  4  4  4  4  4  4  4  4
CENTRE ASSIGNMENTS    4  4  4  4  4  4  4  4  4  4  4  4  4  4  4  4  4  4  4  4
CENTRE ASSIGNMENTS    5  5  5  5  5  5  5  5  5  5  5  5  5  5  5  5  5  5  5  5
CENTRE ASSIGNMENTS    5  5  5  5  5  5  5  6  6  6  6  6  6  6  6  6  6  6  6  6
CENTRE ASSIGNMENTS    6  6  6  6  6  6  6  6  6  6  6  6  6  6  7  7  7  7  7  7
CENTRE ASSIGNMENTS    7  7  7  7  7  7  7  7  7  7  7  7  7  7  7  7  7  7  7  7
CENTRE ASSIGNMENTS    7  8  8  8  8  8  8  8  8  8  8  8  8  8  8  8  8  8  8  8
CENTRE ASSIGNMENTS    8  8  8  8  8  8  8  8  9  9  9  9  9  9  9  9  9  9  9  9
CENTRE ASSIGNMENTS    9  9  9  9  9  9  9  9  9  9  9  9  9  9  9  9  9  9  9  9
CENTRE ASSIGNMENTS    9  9  9  9  9  9  9  9  9  9  9  9  9  9  9  9  9  9  9  9
CENTRE ASSIGNMENTS    9  9  9  9  9  9  9  9  9  9  9  9  9  9  9  9  9  9  9  9
CENTRE ASSIGNMENTS    9  9  9  9  9  9  9  9  9  9  9  9  9  9  9  9  9  9  9  9
CENTRE ASSIGNMENTS    9  9  9  9  9  9  9  9  9  9  9  9  9  9  9  9  9  9  9  9
CENTRE ASSIGNMENTS    9  9  9  9  9  9  9  9  9  9  9  9  9  9  9  9  9  9  9  9
CENTRE ASSIGNMENTS    9  9  9  9  9  9  9  9  9  9  9  9  9  9  9  9  9  9  9  9
CENTRE ASSIGNMENTS    9  9  9  9  9  9  9  9  9  9  9  9  9  9  9  9  9  9  9  9
CENTRE ASSIGNMENTS    9  9  9  9  9  9  9  9  9  9  9  9  9  9  9  9  9  9  9  9
CENTRE ASSIGNMENTS    9  9  9  9  9  9  9  9  9  9  9  9  9  9  9  9  9  9  9  9
CENTRE ASSIGNMENTS    9  9  9  9  9  9  9  9  9  9  9  9  9  9  9  9  9  9  9  9
CENTRE ASSIGNMENTS    9  9  9  9  9  9  9  9  9  9  9  9  9  9  9  9  9  9  9  9
CENTRE ASSIGNMENTS    9  9  9  9  9  9  9  9  9  9  9
TYPE ASSIGNMENTS      1  1  1  1  1  1  1  1  1  1  1  1  1  1  1  1  1  1  1  2
TYPE ASSIGNMENTS      2  2  3  3  3  4  4  4  2  3  4  2  3  4  2  3  4  5  6  7
TYPE ASSIGNMENTS      8  9 10  5  6  7  8  9 10  5  6  7  8  9 10 11 12 13 17 14
TYPE ASSIGNMENTS     15 18 19 16 20 11 12 13 17 14 15 18 19 16 20  1  1  1  1  1
TYPE ASSIGNMENTS      1  1  1  1  1  1  1  1  1  1  1  1  1  1  2  2  2  3  3  3
TYPE ASSIGNMENTS      4  4  4  2  3  4  2  3  4  2  3  4  5  6  7  8  9 10  5  6
TYPE ASSIGNMENTS      7  8  9 10  5  6  7  8  9 10 11 12 13 17 14 15 18 19 16 20
TYPE ASSIGNMENTS     11 12 13 17 14 15 18 19 16 20  1  1  1  1  1  1  1  1  1  1
TYPE ASSIGNMENTS      1  1  1  1  1  1  1  1  1  2  2  2  3  3  3  4  4  4  2  3
TYPE ASSIGNMENTS      4  2  3  4  2  3  4  5  6  7  8  9 10  5  6  7  8  9 10  5
TYPE ASSIGNMENTS      6  7  8  9 10 11 12 13 17 14 15 18 19 16 20 11 12 13 17 14
TYPE ASSIGNMENTS     15 18 19 16 20  1  1  1  1  1  1  1  1  1  1  1  1  1  1  1
TYPE ASSIGNMENTS      1  1  1  1  2  2  2  3  3  3  4  4  4  2  3  4  2  3  4  2
TYPE ASSIGNMENTS      3  4  5  6  7  8  9 10  5  6  7  8  9 10  5  6  7  8  9 10
TYPE ASSIGNMENTS     11 12 13 17 14 15 18 19 16 20 11 12 13 17 14 15 18 19 16 20
TYPE ASSIGNMENTS      1  1  1  1  1  1  2  3  4  2  3  4  2  3  4  5  6  7  8  9
TYPE ASSIGNMENTS     10  5  6  7  8  9 10  1  1  1  1  1  1  2  3  4  2  3  4  2
TYPE ASSIGNMENTS      3  4  5  6  7  8  9 10  5  6  7  8  9 10  1  1  1  1  1  1
TYPE ASSIGNMENTS      2  3  4  2  3  4  2  3  4  5  6  7  8  9 10  5  6  7  8  9
TYPE ASSIGNMENTS     10  1  1  1  1  1  1  2  3  4  2  3  4  2  3  4  5  6  7  8
TYPE ASSIGNMENTS      9 10  5  6  7  8  9 10  1  1  1  1  1  1  1  1  1  1  1  1
TYPE ASSIGNMENTS      1  1  1  1  1  1  1  1  1  1  1  1  1  1  1  1  1  1  1  1
TYPE ASSIGNMENTS      1  1  1  1  1  1  1  1  1  1  1  1  1  1  1  1  1  1  1  1
TYPE ASSIGNMENTS      1  1  1  1  1  1  1  1  1  1  1  1  1  1  1  1  1  1  1  1
TYPE ASSIGNMENTS      1  1  1  2  2  2  2  2  2  2  2  2  2  2  3  3  3  3  3  3
TYPE ASSIGNMENTS      3  3  3  3  3  4  4  4  4  4  4  4  4  4  4  4  2  2  2  2
TYPE ASSIGNMENTS      2  2  2  2  2  2  2  3  3  3  3  3  3  3  3  3  3  3  4  4
TYPE ASSIGNMENTS      4  4  4  4  4  4  4  4  4  2  2  2  2  2  2  2  2  2  2  2
TYPE ASSIGNMENTS      3  3  3  3  3  3  3  3  3  3  3  4  4  4  4  4  4  4  4  4
TYPE ASSIGNMENTS      4  4  2  3  4  2  3  4  2  3  4  5  5  5  5  5  5  5  6  6
TYPE ASSIGNMENTS      6  6  6  6  6  7  7  7  7  7  7  7  8  8  8  8  8  8  8  9
TYPE ASSIGNMENTS      9  9  9  9  9  9 10 10 10 10 10 10 10  5  6  7  8  9 10  5
TYPE ASSIGNMENTS      6  7  8  9 10  5  6  7  8  9 10 11 12 13 17 14 15 18 19 16
TYPE ASSIGNMENTS     20 11 12 13 17 14 15 18 19 16 20
EXPONENTS  0.8236000D+04 0.1235000D+04 0.2808000D+03 0.7927000D+02 0.2559000D+02
EXPONENTS  0.8997000D+01 0.3319000D+01 0.3643000D+00 0.8236000D+04 0.1235000D+04
EXPONENTS  0.2808000D+03 0.7927000D+02 0.2559000D+02 0.8997000D+01 0.3319000D+01
EXPONENTS  0.3643000D+00 0.9059000D+00 0.1285000D+00 0.4402000D-01 0.1871000D+02
EXPONENTS  0.4133000D+01 0.1200000D+01 0.1871000D+02 0.4133000D+01 0.1200000D+01
EXPONENTS  0.1871000D+02 0.4133000D+01 0.1200000D+01 0.3827000D+00 0.3827000D+00
EXPONENTS  0.3827000D+00 0.1209000D+00 0.1209000D+00 0.1209000D+00 0.3569000D-01
EXPONENTS  0.3569000D-01 0.3569000D-01 0.1097000D+01 0.1097000D+01 0.1097000D+01
EXPONENTS  0.1097000D+01 0.1097000D+01 0.1097000D+01 0.3180000D+00 0.3180000D+00
EXPONENTS  0.3180000D+00 0.3180000D+00 0.3180000D+00 0.3180000D+00 0.1000000D+00
EXPONENTS  0.1000000D+00 0.1000000D+00 0.1000000D+00 0.1000000D+00 0.1000000D+00
EXPONENTS  0.7610000D+00 0.7610000D+00 0.7610000D+00 0.7610000D+00 0.7610000D+00
EXPONENTS  0.7610000D+00 0.7610000D+00 0.7610000D+00 0.7610000D+00 0.7610000D+00
EXPONENTS  0.2680000D+00 0.2680000D+00 0.2680000D+00 0.2680000D+00 0.2680000D+00
EXPONENTS  0.2680000D+00 0.2680000D+00 0.2680000D+00 0.2680000D+00 0.2680000D+00
EXPONENTS  0.1533000D+05 0.2299000D+04 0.5224000D+03 0.1473000D+03 0.4755000D+02
EXPONENTS  0.1676000D+02 0.6207000D+01 0.6882000D+00 0.1533000D+05 0.2299000D+04
EXPONENTS  0.5224000D+03 0.1473000D+03 0.4755000D+02 0.1676000D+02 0.6207000D+01
EXPONENTS  0.6882000D+00 0.1752000D+01 0.2384000D+00 0.7376000D-01 0.3446000D+02
EXPONENTS  0.7749000D+01 0.2280000D+01 0.3446000D+02 0.7749000D+01 0.2280000D+01
EXPONENTS  0.3446000D+02 0.7749000D+01 0.2280000D+01 0.7156000D+00 0.7156000D+00
EXPONENTS  0.7156000D+00 0.2140000D+00 0.2140000D+00 0.2140000D+00 0.5974000D-01
EXPONENTS  0.5974000D-01 0.5974000D-01 0.2314000D+01 0.2314000D+01 0.2314000D+01
EXPONENTS  0.2314000D+01 0.2314000D+01 0.2314000D+01 0.6450000D+00 0.6450000D+00
EXPONENTS  0.6450000D+00 0.6450000D+00 0.6450000D+00 0.6450000D+00 0.2140000D+00
EXPONENTS  0.2140000D+00 0.2140000D+00 0.2140000D+00 0.2140000D+00 0.2140000D+00
EXPONENTS  0.1428000D+01 0.1428000D+01 0.1428000D+01 0.1428000D+01 0.1428000D+01
EXPONENTS  0.1428000D+01 0.1428000D+01 0.1428000D+01 0.1428000D+01 0.1428000D+01
EXPONENTS  0.5000000D+00 0.5000000D+00 0.5000000D+00 0.5000000D+00 0.5000000D+00
EXPONENTS  0.5000000D+00 0.5000000D+00 0.5000000D+00 0.5000000D+00 0.5000000D+00
EXPONENTS  0.1142000D+05 0.1712000D+04 0.3893000D+03 0.1100000D+03 0.3557000D+02
EXPONENTS  0.1254000D+02 0.4644000D+01 0.5118000D+00 0.1142000D+05 0.1712000D+04
EXPONENTS  0.3893000D+03 0.1100000D+03 0.3557000D+02 0.1254000D+02 0.4644000D+01
EXPONENTS  0.5118000D+00 0.1293000D+01 0.1787000D+00 0.5760000D-01 0.2663000D+02
EXPONENTS  0.5948000D+01 0.1742000D+01 0.2663000D+02 0.5948000D+01 0.1742000D+01
EXPONENTS  0.2663000D+02 0.5948000D+01 0.1742000D+01 0.5550000D+00 0.5550000D+00
EXPONENTS  0.5550000D+00 0.1725000D+00 0.1725000D+00 0.1725000D+00 0.4910000D-01
EXPONENTS  0.4910000D-01 0.4910000D-01 0.1654000D+01 0.1654000D+01 0.1654000D+01
EXPONENTS  0.1654000D+01 0.1654000D+01 0.1654000D+01 0.4690000D+00 0.4690000D+00
EXPONENTS  0.4690000D+00 0.4690000D+00 0.4690000D+00 0.4690000D+00 0.1510000D+00
EXPONENTS  0.1510000D+00 0.1510000D+00 0.1510000D+00 0.1510000D+00 0.1510000D+00
EXPONENTS  0.1093000D+01 0.1093000D+01 0.1093000D+01 0.1093000D+01 0.1093000D+01
EXPONENTS  0.1093000D+01 0.1093000D+01 0.1093000D+01 0.1093000D+01 0.1093000D+01
EXPONENTS  0.3640000D+00 0.3640000D+00 0.3640000D+00 0.3640000D+00 0.3640000D+00
EXPONENTS  0.3640000D+00 0.3640000D+00 0.3640000D+00 0.3640000D+00 0.3640000D+00
EXPONENTS  0.8236000D+04 0.1235000D+04 0.2808000D+03 0.7927000D+02 0.2559000D+02
EXPONENTS  0.8997000D+01 0.3319000D+01 0.3643000D+00 0.8236000D+04 0.1235000D+04
EXPONENTS  0.2808000D+03 0.7927000D+02 0.2559000D+02 0.8997000D+01 0.3319000D+01
EXPONENTS  0.3643000D+00 0.9059000D+00 0.1285000D+00 0.4402000D-01 0.1871000D+02
EXPONENTS  0.4133000D+01 0.1200000D+01 0.1871000D+02 0.4133000D+01 0.1200000D+01
EXPONENTS  0.1871000D+02 0.4133000D+01 0.1200000D+01 0.3827000D+00 0.3827000D+00
EXPONENTS  0.3827000D+00 0.1209000D+00 0.1209000D+00 0.1209000D+00 0.3569000D-01
EXPONENTS  0.3569000D-01 0.3569000D-01 0.1097000D+01 0.1097000D+01 0.1097000D+01
EXPONENTS  0.1097000D+01 0.1097000D+01 0.1097000D+01 0.3180000D+00 0.3180000D+00
EXPONENTS  0.3180000D+00 0.3180000D+00 0.3180000D+00 0.3180000D+00 0.1000000D+00
EXPONENTS  0.1000000D+00 0.1000000D+00 0.1000000D+00 0.1000000D+00 0.1000000D+00
EXPONENTS  0.7610000D+00 0.7610000D+00 0.7610000D+00 0.7610000D+00 0.7610000D+00
EXPONENTS  0.7610000D+00 0.7610000D+00 0.7610000D+00 0.7610000D+00 0.7610000D+00
EXPONENTS  0.2680000D+00 0.2680000D+00 0.2680000D+00 0.2680000D+00 0.2680000D+00
EXPONENTS  0.2680000D+00 0.2680000D+00 0.2680000D+00 0.2680000D+00 0.2680000D+00
EXPONENTS  0.3387000D+02 0.5095000D+01 0.1159000D+01 0.3258000D+00 0.1027000D+00
EXPONENTS  0.2526000D-01 0.1407000D+01 0.1407000D+01 0.1407000D+01 0.3880000D+00
EXPONENTS  0.3880000D+00 0.3880000D+00 0.1020000D+00 0.1020000D+00 0.1020000D+00
EXPONENTS  0.1057000D+01 0.1057000D+01 0.1057000D+01 0.1057000D+01 0.1057000D+01
EXPONENTS  0.1057000D+01 0.2470000D+00 0.2470000D+00 0.2470000D+00 0.2470000D+00
EXPONENTS  0.2470000D+00 0.2470000D+00 0.3387000D+02 0.5095000D+01 0.1159000D+01
EXPONENTS  0.3258000D+00 0.1027000D+00 0.2526000D-01 0.1407000D+01 0.1407000D+01
EXPONENTS  0.1407000D+01 0.3880000D+00 0.3880000D+00 0.3880000D+00 0.1020000D+00
EXPONENTS  0.1020000D+00 0.1020000D+00 0.1057000D+01 0.1057000D+01 0.1057000D+01
EXPONENTS  0.1057000D+01 0.1057000D+01 0.1057000D+01 0.2470000D+00 0.2470000D+00
EXPONENTS  0.2470000D+00 0.2470000D+00 0.2470000D+00 0.2470000D+00 0.3387000D+02
EXPONENTS  0.5095000D+01 0.1159000D+01 0.3258000D+00 0.1027000D+00 0.2526000D-01
EXPONENTS  0.1407000D+01 0.1407000D+01 0.1407000D+01 0.3880000D+00 0.3880000D+00
EXPONENTS  0.3880000D+00 0.1020000D+00 0.1020000D+00 0.1020000D+00 0.1057000D+01
EXPONENTS  0.1057000D+01 0.1057000D+01 0.1057000D+01 0.1057000D+01 0.1057000D+01
EXPONENTS  0.2470000D+00 0.2470000D+00 0.2470000D+00 0.2470000D+00 0.2470000D+00
EXPONENTS  0.2470000D+00 0.3387000D+02 0.5095000D+01 0.1159000D+01 0.3258000D+00
EXPONENTS  0.1027000D+00 0.2526000D-01 0.1407000D+01 0.1407000D+01 0.1407000D+01
EXPONENTS  0.3880000D+00 0.3880000D+00 0.3880000D+00 0.1020000D+00 0.1020000D+00
EXPONENTS  0.1020000D+00 0.1057000D+01 0.1057000D+01 0.1057000D+01 0.1057000D+01
EXPONENTS  0.1057000D+01 0.1057000D+01 0.2470000D+00 0.2470000D+00 0.2470000D+00
EXPONENTS  0.2470000D+00 0.2470000D+00 0.2470000D+00 0.1063900D+08 0.1593400D+07
EXPONENTS  0.3626100D+06 0.1027000D+06 0.3350100D+05 0.1209300D+05 0.4715900D+04
EXPONENTS  0.1955600D+04 0.8526100D+03 0.3876700D+03 0.1826800D+03 0.8824500D+02
EXPONENTS  0.3926300D+02 0.1923400D+02 0.9405700D+01 0.4160100D+01 0.1899500D+01
EXPONENTS  0.3011400D+00 0.1063900D+08 0.1593400D+07 0.3626100D+06 0.1027000D+06
EXPONENTS  0.3350100D+05 0.1209300D+05 0.4715900D+04 0.1955600D+04 0.8526100D+03
EXPONENTS  0.3876700D+03 0.1826800D+03 0.8824500D+02 0.3926300D+02 0.1923400D+02
EXPONENTS  0.9405700D+01 0.4160100D+01 0.1899500D+01 0.3011400D+00 0.1063900D+08
EXPONENTS  0.1593400D+07 0.3626100D+06 0.1027000D+06 0.3350100D+05 0.1209300D+05
EXPONENTS  0.4715900D+04 0.1955600D+04 0.8526100D+03 0.3876700D+03 0.1826800D+03
EXPONENTS  0.8824500D+02 0.3926300D+02 0.1923400D+02 0.9405700D+01 0.4160100D+01
EXPONENTS  0.1899500D+01 0.3011400D+00 0.1063900D+08 0.1593400D+07 0.3626100D+06
EXPONENTS  0.1027000D+06 0.3350100D+05 0.1209300D+05 0.4715900D+04 0.1955600D+04
EXPONENTS  0.8526100D+03 0.3876700D+03 0.1826800D+03 0.8824500D+02 0.3926300D+02
EXPONENTS  0.1923400D+02 0.9405700D+01 0.4160100D+01 0.1899500D+01 0.3011400D+00
EXPONENTS  0.6047200D+00 0.1251500D+00 0.4559300D-01 0.8676500D+04 0.2055900D+04
EXPONENTS  0.6662300D+03 0.2531000D+03 0.1061200D+03 0.4724200D+02 0.2182500D+02
EXPONENTS  0.9968400D+01 0.4517100D+01 0.1998200D+01 0.2814500D+00 0.8676500D+04
EXPONENTS  0.2055900D+04 0.6662300D+03 0.2531000D+03 0.1061200D+03 0.4724200D+02
EXPONENTS  0.2182500D+02 0.9968400D+01 0.4517100D+01 0.1998200D+01 0.2814500D+00
EXPONENTS  0.8676500D+04 0.2055900D+04 0.6662300D+03 0.2531000D+03 0.1061200D+03
EXPONENTS  0.4724200D+02 0.2182500D+02 0.9968400D+01 0.4517100D+01 0.1998200D+01
EXPONENTS  0.2814500D+00 0.8676500D+04 0.2055900D+04 0.6662300D+03 0.2531000D+03
EXPONENTS  0.1061200D+03 0.4724200D+02 0.2182500D+02 0.9968400D+01 0.4517100D+01
EXPONENTS  0.1998200D+01 0.2814500D+00 0.8676500D+04 0.2055900D+04 0.6662300D+03
EXPONENTS  0.2531000D+03 0.1061200D+03 0.4724200D+02 0.2182500D+02 0.9968400D+01
EXPONENTS  0.4517100D+01 0.1998200D+01 0.2814500D+00 0.8676500D+04 0.2055900D+04
EXPONENTS  0.6662300D+03 0.2531000D+03 0.1061200D+03 0.4724200D+02 0.2182500D+02
EXPONENTS  0.9968400D+01 0.4517100D+01 0.1998200D+01 0.2814500D+00 0.8676500D+04
EXPONENTS  0.2055900D+04 0.6662300D+03 0.2531000D+03 0.1061200D+03 0.4724200D+02
EXPONENTS  0.2182500D+02 0.9968400D+01 0.4517100D+01 0.1998200D+01 0.2814500D+00
EXPONENTS  0.8676500D+04 0.2055900D+04 0.6662300D+03 0.2531000D+03 0.1061200D+03
EXPONENTS  0.4724200D+02 0.2182500D+02 0.9968400D+01 0.4517100D+01 0.1998200D+01
EXPONENTS  0.2814500D+00 0.8676500D+04 0.2055900D+04 0.6662300D+03 0.2531000D+03
EXPONENTS  0.1061200D+03 0.4724200D+02 0.2182500D+02 0.9968400D+01 0.4517100D+01
EXPONENTS  0.1998200D+01 0.2814500D+00 0.7098800D+00 0.7098800D+00 0.7098800D+00
EXPONENTS  0.1020400D+00 0.1020400D+00 0.1020400D+00 0.3514200D-01 0.3514200D-01
EXPONENTS  0.3514200D-01 0.4038300D+03 0.1211700D+03 0.4634500D+02 0.1972100D+02
EXPONENTS  0.8862400D+01 0.3996200D+01 0.1763600D+01 0.4038300D+03 0.1211700D+03
EXPONENTS  0.4634500D+02 0.1972100D+02 0.8862400D+01 0.3996200D+01 0.1763600D+01
EXPONENTS  0.4038300D+03 0.1211700D+03 0.4634500D+02 0.1972100D+02 0.8862400D+01
EXPONENTS  0.3996200D+01 0.1763600D+01 0.4038300D+03 0.1211700D+03 0.4634500D+02
EXPONENTS  0.1972100D+02 0.8862400D+01 0.3996200D+01 0.1763600D+01 0.4038300D+03
EXPONENTS  0.1211700D+03 0.4634500D+02 0.1972100D+02 0.8862400D+01 0.3996200D+01
EXPONENTS  0.1763600D+01 0.4038300D+03 0.1211700D+03 0.4634500D+02 0.1972100D+02
EXPONENTS  0.8862400D+01 0.3996200D+01 0.1763600D+01 0.7061900D+00 0.7061900D+00
EXPONENTS  0.7061900D+00 0.7061900D+00 0.7061900D+00 0.7061900D+00 0.2639000D+00
EXPONENTS  0.2639000D+00 0.2639000D+00 0.2639000D+00 0.2639000D+00 0.2639000D+00
EXPONENTS  0.1047000D+00 0.1047000D+00 0.1047000D+00 0.1047000D+00 0.1047000D+00
EXPONENTS  0.1047000D+00 0.5515000D+00 0.5515000D+00 0.5515000D+00 0.5515000D+00
EXPONENTS  0.5515000D+00 0.5515000D+00 0.5515000D+00 0.5515000D+00 0.5515000D+00
EXPONENTS  0.5515000D+00 0.2580000D+00 0.2580000D+00 0.2580000D+00 0.2580000D+00
EXPONENTS  0.2580000D+00 0.2580000D+00 0.2580000D+00 0.2580000D+00 0.2580000D+00
EXPONENTS  0.2580000D+00
MO    1     MO 0.0        OCC NO =    2.0000000  ORB. ENERGY = -485.411952
 -0.27265491D-05 -0.50829075D-05 -0.85910091D-05 -0.12915101D-04 -0.15867694D-04
 -0.13402804D-04 -0.50550445D-05  0.25017697D-07  0.20564618D-05  0.38503453D-05
  0.65555424D-05  0.10140427D-04  0.13354586D-04  0.13876270D-04  0.88177468D-05
 -0.59094488D-05 -0.50685636D-05  0.28342569D-04  0.67400528D-05 -0.27875863D-05
 -0.26135394D-05 -0.18609957D-05  0.15049459D-05  0.14109824D-05  0.10047035D-05
  0.43928979D-05  0.41186210D-05  0.29327035D-05  0.48375369D-06 -0.41757753D-05
 -0.24839944D-05  0.74107935D-05 -0.56523661D-04 -0.29002792D-05 -0.10879759D-05
 -0.15012355D-05  0.49630538D-06  0.42826473D-05 -0.31441788D-05 -0.11384685D-05
  0.69441922D-05 -0.93979424D-06 -0.46925801D-05  0.59800205D-05 -0.70914849D-05
  0.11114644D-05  0.75447112D-05  0.10677687D-04  0.63941058D-05 -0.20981235D-04
  0.16801012D-04  0.41802229D-05  0.21132566D-05 -0.18600686D-05  0.18069644D-06
  0.70907470D-05 -0.32292548D-05  0.76184922D-07 -0.91436755D-05  0.12950819D-04
  0.40874810D-05 -0.12128565D-04 -0.32630544D-05 -0.43160358D-05 -0.91210734D-05
 -0.75744860D-05  0.20802804D-06  0.13318938D-06  0.14393439D-04 -0.45045826D-05
 -0.12509537D-05  0.83300191D-05  0.38804985D-05  0.85138556D-06 -0.48878999D-05
 -0.13670944D-05 -0.25480880D-05 -0.43207130D-05 -0.65396004D-05 -0.81595120D-05
 -0.70079326D-05 -0.26904816D-05  0.12034689D-07  0.10030834D-05  0.18813078D-05
  0.32072174D-05  0.50122565D-05  0.67023420D-05  0.71565387D-05  0.43753674D-05
 -0.28866017D-05 -0.21501487D-05  0.23210263D-04 -0.50264616D-04  0.27483710D-06
  0.26649954D-06  0.17977901D-06  0.30494236D-05  0.29569151D-05  0.19947175D-05
 -0.15583410D-05 -0.15110666D-05 -0.10193566D-05 -0.34522155D-05 -0.55736777D-05
  0.13269285D-05 -0.17450635D-04 -0.18577003D-04 -0.27975815D-05  0.19844413D-07
  0.40488092D-05 -0.77817361D-06 -0.62901006D-05  0.16862984D-05  0.46038021D-05
 -0.49101557D-05  0.19535835D-05 -0.35515183D-05  0.19038950D-05  0.25630981D-05
 -0.44669931D-05  0.39172768D-05 -0.63744030D-06 -0.27513078D-07  0.21924576D-05
  0.36194488D-06 -0.25544025D-05  0.11158065D-04  0.21029483D-05  0.16699348D-05
  0.28257795D-05 -0.33968716D-06 -0.31648657D-05  0.13435560D-04  0.51637347D-06
 -0.13499541D-05 -0.21912898D-04  0.50268801D-06  0.10844551D-04  0.62452439D-05
  0.39439020D-06 -0.47460162D-06  0.53517809D-06 -0.55225387D-05 -0.23826566D-06
  0.11236350D-06  0.43393681D-05  0.16620705D-05 -0.17178978D-05 -0.27485407D-05
 -0.11363115D-04 -0.21173492D-04 -0.35809683D-04 -0.53927398D-04 -0.66765617D-04
 -0.56814527D-04 -0.21618976D-04  0.10125089D-06  0.81311398D-05  0.15245963D-04
  0.25937919D-04  0.40278850D-04  0.53452377D-04  0.56331468D-04  0.34929104D-04
 -0.23234853D-04 -0.82188538D-05 -0.83006450D-05 -0.23972645D-04  0.23374329D-05
  0.22450763D-05  0.15744025D-05 -0.34850581D-05 -0.33473567D-05 -0.23473976D-05
 -0.16244859D-05 -0.15602993D-05 -0.10941896D-05 -0.32655055D-04 -0.11001462D-04
 -0.39240969D-06  0.85980857D-04  0.44037256D-04  0.34357628D-05  0.23192573D-05
  0.55011398D-06 -0.83300363D-06 -0.38035465D-04  0.96179005D-05  0.28417564D-04
 -0.41936062D-04 -0.21621320D-04  0.54665307D-05  0.18218831D-04 -0.21482608D-05
 -0.16070571D-04  0.20363675D-04  0.10297484D-04 -0.58484702D-05  0.30277973D-05
  0.26317768D-05 -0.56595741D-05  0.15608489D-04  0.30187887D-05  0.25948296D-05
 -0.70070339D-05 -0.15464970D-05  0.45159042D-05 -0.22743791D-05 -0.76375346D-05
 -0.93247747D-05  0.23295481D-04  0.12277026D-04 -0.42229378D-05  0.30019376D-05
  0.99591625D-05 -0.28597891D-05 -0.23241490D-05 -0.10993513D-04  0.20206931D-04
  0.61817367D-05 -0.18883974D-04 -0.11627564D-04  0.79071024D-06  0.97460798D-05
 -0.98279261D-05 -0.18321489D-04 -0.30966544D-04 -0.46552858D-04 -0.57195565D-04
 -0.48310798D-04 -0.18221056D-04  0.90177021D-07  0.70379586D-05  0.13177279D-04
  0.22435445D-04  0.34704222D-04  0.45704240D-04  0.47489633D-04  0.30177530D-04
 -0.20224279D-04 -0.17070022D-04  0.16397520D-03  0.21403139D-05  0.89672240D-05
  0.84073425D-05  0.59865287D-05 -0.75411235D-05 -0.70702826D-05 -0.50344624D-05
  0.40664216D-06  0.38125287D-06  0.27147476D-06 -0.41836663D-04  0.18994319D-04
 -0.45484401D-05 -0.17015656D-04  0.24317262D-04 -0.94991798D-05 -0.49675503D-07
  0.54612152D-06 -0.11861003D-07 -0.41239870D-05  0.46180166D-05 -0.49402956D-06
  0.12703867D-04 -0.41643475D-06 -0.38995885D-05  0.48615033D-05 -0.24146183D-04
  0.19284680D-04 -0.33808408D-04  0.26788022D-04 -0.11405422D-04 -0.64902287D-05
  0.81829512D-05 -0.16927225D-05  0.67889803D-05  0.41534951D-05 -0.18033326D-05
  0.18006017D-05 -0.13085459D-05  0.97329862D-06  0.38593823D-06  0.56732446D-05
 -0.18063744D-05 -0.57877434D-05 -0.17476069D-05 -0.11135214D-05  0.48782884D-05
  0.43529482D-05 -0.12917685D-05  0.19292460D-05 -0.13369507D-06 -0.48123663D-05
 -0.53303921D-05 -0.12925150D-04  0.86876719D-05 -0.45734598D-06  0.18041807D-04
  0.35116705D-06  0.63334425D-06  0.93386572D-06 -0.12091976D-03  0.10196542D-04
 -0.68719412D-06 -0.46401269D-05  0.40593552D-05 -0.78077801D-05 -0.31384626D-04
  0.18970386D-04 -0.23506323D-04 -0.12415508D-05 -0.75430754D-06  0.55760830D-06
 -0.84627334D-06  0.29171646D-05 -0.20708913D-05  0.54211352D-05 -0.65157995D-05
  0.10902695D-04 -0.46846783D-06 -0.12211479D-05  0.16896157D-05  0.93948678D-06
 -0.43770397D-05 -0.79014692D-06  0.64748749D-06  0.11677703D-05  0.17218767D-05
  0.10353055D-04 -0.97071845D-04  0.10891796D-05 -0.45678697D-05  0.25972914D-05
  0.23480154D-05 -0.15078515D-04  0.90451874D-05 -0.84230894D-06  0.33192883D-05
 -0.11533898D-04 -0.49199555D-05 -0.26531908D-05  0.25726903D-05  0.80500481D-07
 -0.10779651D-04 -0.24434790D-05  0.33180805D-05 -0.30364222D-05  0.21326199D-05
  0.90380232D-06 -0.24286837D-05  0.41971488D-05 -0.59312400D-06 -0.30675910D-06
 -0.55325267D-06 -0.81577073D-06 -0.56776508D-04  0.26810189D-04 -0.11162167D-05
 -0.45322972D-06  0.63554271D-06  0.43949724D-05 -0.17336712D-04  0.72154550D-05
  0.12736818D-04 -0.70463544D-05 -0.13462610D-05 -0.44833127D-05 -0.54736497D-08
  0.19517954D-05 -0.19463217D-05 -0.14541622D-05  0.58498992D-05 -0.63582381D-05
 -0.12261966D-05 -0.98889500D-06  0.22150916D-05 -0.27306996D-05  0.24514512D-05
 -0.10954442D-06 -0.15366545D-05 -0.27714197D-05 -0.40864568D-05  0.94399712D-05
 -0.22896681D-04 -0.16886819D-05  0.13173995D-04  0.33250879D-05  0.17479959D-05
  0.30674785D-05 -0.89960465D-05 -0.35206943D-05 -0.28457744D-06 -0.66336943D-05
  0.80581072D-06  0.11632110D-04 -0.62760255D-05 -0.53560849D-05  0.17035614D-04
  0.35533759D-05 -0.84908562D-06 -0.28664930D-05 -0.80627726D-06  0.36727702D-05
 -0.48700589D-05  0.15150341D-06 -0.70013781D-06  0.78327231D+00  0.14734306D+01
  0.25505810D+01  0.41808904D+01  0.65494457D+01  0.98443747D+01  0.14070084D+02
  0.18678387D+02  0.21753518D+02  0.19980396D+02  0.11683323D+02  0.30657625D+01
  0.16760404D+00 -0.59988753D-02  0.16764963D-02 -0.49780833D-03  0.84867702D-04
  0.69240372D-05  0.58914838D-04  0.10824481D-03  0.18718023D-03  0.30653378D-03
  0.48262366D-03  0.72880902D-03  0.10638386D-02  0.14649704D-02  0.18718399D-02
  0.20405249D-02  0.16796662D-02  0.46055306D-03 -0.92896538D-03 -0.90531733D-03
 -0.19810894D-03 -0.66741077D-05 -0.22609744D-06  0.57516273D-09 -0.13116552D-03
 -0.25713696D-03 -0.45036902D-03 -0.73575643D-03 -0.11604651D-02 -0.17510900D-02
 -0.25674459D-02 -0.35447838D-02 -0.45958297D-02 -0.51108331D-02 -0.44390732D-02
 -0.12894714D-02  0.32507417D-02  0.47365597D-02  0.81541568D-03 -0.19892651D-02
 -0.94684005D-03  0.45725797D-05  0.47518400D-04  0.10296090D-03  0.17527460D-03
  0.28609535D-03  0.45100125D-03  0.68069114D-03  0.99800415D-03  0.13796699D-02
  0.17906731D-02  0.20004950D-02  0.17474777D-02  0.51760458D-03 -0.13454746D-02
 -0.20697947D-02 -0.36227727D-03  0.11427836D-02  0.97005048D-03 -0.36191717D-03
  0.32351690D-03  0.96443461D-04  0.23850968D-04  0.80282869D-03  0.11519170D-02
  0.15251994D-02  0.17611732D-02  0.16326885D-02  0.10570323D-02  0.37309359D-03
  0.43729786D-04  0.63575015D-06  0.93098533D-07  0.95719750D-09  0.17531163D-03
  0.25154115D-03  0.33305386D-03  0.38458284D-03  0.35652599D-03  0.23082142D-03
  0.81471486D-04  0.95491607D-05  0.13882712D-06  0.20329687D-07  0.20902075D-09
  0.70511830D-04  0.10117199D-03  0.13395710D-03  0.15468249D-03  0.14339779D-03
  0.92838341D-04  0.32768525D-04  0.38407537D-05  0.55837450D-07  0.81767730D-08
  0.84069925D-10 -0.45088739D-02 -0.65086113D-02 -0.86953491D-02 -0.10330342D-01
 -0.10010893D-01 -0.69588475D-02 -0.22643422D-02  0.10191337D-02  0.11010044D-02
  0.28345021D-03 -0.27647951D-06 -0.12262277D-02 -0.17700738D-02 -0.23647763D-02
 -0.28094268D-02 -0.27225499D-02 -0.18925195D-02 -0.61580769D-03  0.27716233D-03
  0.29942779D-03  0.77086767D-04 -0.75191023D-07 -0.38423370D-03 -0.55464577D-03
 -0.74099349D-03 -0.88032300D-03 -0.85310046D-03 -0.59301364D-03 -0.19296095D-03
  0.86847741D-04  0.93824535D-04  0.24154839D-04 -0.23560815D-07  0.33116083D-02
  0.48119138D-02  0.63974952D-02  0.76765514D-02  0.74270974D-02  0.52723744D-02
  0.16386672D-02 -0.94081934D-03 -0.10807926D-02 -0.28701397D-03  0.10355553D-03
  0.90584525D-03  0.13162333D-02  0.17499475D-02  0.20998158D-02  0.20315811D-02
  0.14421860D-02  0.44823504D-03 -0.25734829D-03 -0.29563605D-03 -0.78508752D-04
  0.28326203D-04  0.27905040D-03  0.40547260D-03  0.53908053D-03  0.64685932D-03
  0.62583925D-03  0.44427300D-03  0.13808116D-03 -0.79277494D-04 -0.91072242D-04
 -0.24185034D-04  0.87260358D-05 -0.45425698D-04 -0.10696889D-04 -0.48269867D-05
 -0.46152010D-04 -0.27828341D-05 -0.40743561D-06 -0.16072129D-05 -0.12540372D-06
 -0.12296402D-07  0.53328279D-03  0.55802298D-03  0.47546545D-03  0.31312994D-03
  0.14431227D-03  0.43214542D-04  0.73525880D-05 -0.16856508D-03 -0.17638519D-03
 -0.15028962D-03 -0.98977078D-04 -0.45615589D-04 -0.13659662D-04 -0.23240757D-05
 -0.36471772D-03 -0.38163779D-03 -0.32517582D-03 -0.21415286D-03 -0.98696679D-04
 -0.29554880D-04 -0.50285123D-05  0.46904296D-03  0.49080292D-03  0.41819036D-03
  0.27540997D-03  0.12692825D-03  0.38008871D-04  0.64668872D-05  0.88980422D-04
  0.93108424D-04  0.79333361D-04  0.52247016D-04  0.24079094D-04  0.72105236D-05
  0.12268095D-05  0.28861103D-04  0.30200034D-04  0.25732045D-04  0.16946497D-04
  0.78101360D-05  0.23387579D-05  0.39791983D-06 -0.29474519D-04  0.90802930D-05
  0.20394226D-04 -0.24290673D-04 -0.40729394D-05 -0.11018872D-05 -0.62787494D-05
  0.35396068D-05  0.27391427D-05 -0.11910757D-04 -0.43458489D-05 -0.19816129D-05
  0.64632684D-05 -0.25852658D-05 -0.38780026D-05  0.17430902D-05  0.48473186D-06
  0.82598379D-07  0.11493981D-04 -0.39430281D-05 -0.16057595D-05 -0.68927512D-05
  0.19947910D-04  0.51810557D-05 -0.27589193D-04 -0.81188257D-05 -0.36377710D-06
  0.59275543D-05 -0.34163966D-05  0.98647656D-07  0.10544373D-06  0.20194037D-05
 -0.18087153D-05 -0.57372116D-06  0.82297861D-05  0.15127724D-05  0.25738997D-06
 -0.17029664D-06
MO    2     MO 0.0        OCC NO =    2.0000000  ORB. ENERGY =  -63.396769
  0.37562248D-04  0.70024571D-04  0.11835386D-03  0.17792462D-03  0.21860095D-03
  0.18464345D-03  0.69640716D-04 -0.34465579D-06 -0.28691355D-04 -0.53719270D-04
 -0.91461654D-04 -0.14147727D-03 -0.18632059D-03 -0.19359903D-03 -0.12302349D-03
  0.82447482D-04  0.75473080D-04 -0.48884325D-03 -0.12061308D-03  0.41631383D-04
  0.39032068D-04  0.27793158D-04 -0.24319375D-04 -0.22800960D-04 -0.16235642D-04
 -0.73899111D-04 -0.69285113D-04 -0.49335128D-04 -0.15494237D-04  0.87456844D-04
  0.47584455D-04 -0.13415147D-03  0.98359087D-03  0.47510500D-04  0.15611392D-04
  0.26429463D-04 -0.85250806D-05 -0.77942107D-04  0.55968800D-04  0.21973307D-04
 -0.11944281D-03  0.17375274D-04  0.74737128D-04 -0.86928160D-04  0.11232426D-03
 -0.25396096D-04 -0.11506176D-03 -0.17526867D-03 -0.11081685D-03  0.36836933D-03
 -0.29525672D-03 -0.73112609D-04 -0.39024123D-04  0.32575632D-04 -0.25818407D-05
 -0.11438099D-03  0.55173588D-04 -0.20204536D-05  0.14671346D-03 -0.22338752D-03
 -0.63517301D-04  0.19642952D-03  0.57866756D-04  0.69578662D-04  0.14744774D-03
  0.13284630D-03 -0.19146178D-05 -0.16952751D-05 -0.25692677D-03  0.70147956D-04
  0.20808830D-04 -0.14161212D-03 -0.64404102D-04 -0.15723005D-04  0.81383724D-04
  0.22307541D-04  0.41578385D-04  0.70503165D-04  0.10670982D-03  0.13314270D-03
  0.11435183D-03  0.43901890D-04 -0.19637585D-06 -0.16541811D-04 -0.31024576D-04
 -0.52890101D-04 -0.82656933D-04 -0.11052807D-03 -0.11801821D-03 -0.72154019D-04
  0.47602839D-04  0.39121756D-04 -0.39244608D-03  0.88841463D-03 -0.46616937D-05
 -0.45202748D-05 -0.30493507D-05 -0.50430044D-04 -0.48900179D-04 -0.32987772D-04
  0.22284175D-04  0.21608154D-04  0.14576733D-04  0.60123493D-04  0.92620599D-04
 -0.19049333D-04  0.31303317D-03  0.32162577D-03  0.48646753D-04  0.44658004D-06