 Molden2AIM, Version 4.0.0 (06/02/2016)           Time: Thu Jun 28 06:46:51 2018
GAUSSIAN             13 MOL ORBITALS    368 PRIMITIVES        8 NUCLEI
  C    1    (CENTRE  1)   0.00000000  0.00000756 -0.60888299  CHARGE =  6.0
  Si   2    (CENTRE  2)   0.00000000  0.00001134  2.95686014  CHARGE = 14.0
  H    3    (CENTRE  3)   2.29579803  1.32548414  3.95624558  CHARGE =  1.0
  H    4    (CENTRE  4)  -2.29579803  1.32548414  3.95624558  CHARGE =  1.0
  H    5    (CENTRE  5)   0.00000000 -2.65095127  3.95622479  CHARGE =  1.0
  H    6    (CENTRE  6)   0.00000000  1.94133077 -1.34494832  CHARGE =  1.0
  H    7    (CENTRE  7)  -1.68124020 -0.97066349 -1.34492186  CHARGE =  1.0
  H    8    (CENTRE  8)   1.68124020 -0.97066349 -1.34492186  CHARGE =  1.0
CENTRE ASSIGNMENTS    1  1  1  1  1  1  1  1  1  1  1  1  1  1  1  1  1  1  1  1
CENTRE ASSIGNMENTS    1  1  1  1  1  1  1  1  1  1  1  1  1  1  1  1  1  1  1  1
CENTRE ASSIGNMENTS    1  1  1  1  1  1  1  1  1  1  1  1  1  1  1  1  1  1  1  1
CENTRE ASSIGNMENTS    1  1  1  1  1  1  1  1  1  1  1  1  1  1  1  2  2  2  2  2
CENTRE ASSIGNMENTS    2  2  2  2  2  2  2  2  2  2  2  2  2  2  2  2  2  2  2  2
CENTRE ASSIGNMENTS    2  2  2  2  2  2  2  2  2  2  2  2  2  2  2  2  2  2  2  2
CENTRE ASSIGNMENTS    2  2  2  2  2  2  2  2  2  2  2  2  2  2  2  2  2  2  2  2
CENTRE ASSIGNMENTS    2  2  2  2  2  2  2  2  2  2  2  2  2  2  2  2  2  2  2  2
CENTRE ASSIGNMENTS    2  2  2  2  2  2  2  2  2  2  2  2  2  2  2  2  2  2  2  2
CENTRE ASSIGNMENTS    2  2  2  2  2  2  2  2  2  2  2  2  2  2  2  2  2  2  2  2
CENTRE ASSIGNMENTS    2  2  2  2  2  2  3  3  3  3  3  3  3  3  3  3  3  3  3  3
CENTRE ASSIGNMENTS    3  3  3  3  3  3  3  3  3  3  3  3  3  4  4  4  4  4  4  4
CENTRE ASSIGNMENTS    4  4  4  4  4  4  4  4  4  4  4  4  4  4  4  4  4  4  4  4
CENTRE ASSIGNMENTS    5  5  5  5  5  5  5  5  5  5  5  5  5  5  5  5  5  5  5  5
CENTRE ASSIGNMENTS    5  5  5  5  5  5  5  6  6  6  6  6  6  6  6  6  6  6  6  6
CENTRE ASSIGNMENTS    6  6  6  6  6  6  6  6  6  6  6  6  6  6  7  7  7  7  7  7
CENTRE ASSIGNMENTS    7  7  7  7  7  7  7  7  7  7  7  7  7  7  7  7  7  7  7  7
CENTRE ASSIGNMENTS    7  8  8  8  8  8  8  8  8  8  8  8  8  8  8  8  8  8  8  8
CENTRE ASSIGNMENTS    8  8  8  8  8  8  8  8
TYPE ASSIGNMENTS      1  1  1  1  1  1  1  1  1  1  1  1  1  1  1  1  1  1  1  2
TYPE ASSIGNMENTS      2  2  3  3  3  4  4  4  2  3  4  2  3  4  2  3  4  5  6  7
TYPE ASSIGNMENTS      8  9 10  5  6  7  8  9 10  5  6  7  8  9 10 11 12 13 17 14
TYPE ASSIGNMENTS     15 18 19 16 20 11 12 13 17 14 15 18 19 16 20  1  1  1  1  1
TYPE ASSIGNMENTS      1  1  1  1  1  1  1  1  1  1  1  1  1  1  1  1  1  1  1  1
TYPE ASSIGNMENTS      1  1  1  1  1  1  1  1  1  1  1  1  1  1  1  1  1  2  2  2
TYPE ASSIGNMENTS      2  2  2  2  3  3  3  3  3  3  3  4  4  4  4  4  4  4  2  2
TYPE ASSIGNMENTS      2  2  2  2  2  3  3  3  3  3  3  3  4  4  4  4  4  4  4  2
TYPE ASSIGNMENTS      3  4  2  3  4  2  3  4  5  6  7  8  9 10  5  6  7  8  9 10
TYPE ASSIGNMENTS      5  6  7  8  9 10 11 12 13 17 14 15 18 19 16 20 11 12 13 17
TYPE ASSIGNMENTS     14 15 18 19 16 20  1  1  1  1  1  1  2  3  4  2  3  4  2  3
TYPE ASSIGNMENTS      4  5  6  7  8  9 10  5  6  7  8  9 10  1  1  1  1  1  1  2
TYPE ASSIGNMENTS      3  4  2  3  4  2  3  4  5  6  7  8  9 10  5  6  7  8  9 10
TYPE ASSIGNMENTS      1  1  1  1  1  1  2  3  4  2  3  4  2  3  4  5  6  7  8  9
TYPE ASSIGNMENTS     10  5  6  7  8  9 10  1  1  1  1  1  1  2  3  4  2  3  4  2
TYPE ASSIGNMENTS      3  4  5  6  7  8  9 10  5  6  7  8  9 10  1  1  1  1  1  1
TYPE ASSIGNMENTS      2  3  4  2  3  4  2  3  4  5  6  7  8  9 10  5  6  7  8  9
TYPE ASSIGNMENTS     10  1  1  1  1  1  1  2  3  4  2  3  4  2  3  4  5  6  7  8
TYPE ASSIGNMENTS      9 10  5  6  7  8  9 10
EXPONENTS  0.8236000D+04 0.1235000D+04 0.2808000D+03 0.7927000D+02 0.2559000D+02
EXPONENTS  0.8997000D+01 0.3319000D+01 0.3643000D+00 0.8236000D+04 0.1235000D+04
EXPONENTS  0.2808000D+03 0.7927000D+02 0.2559000D+02 0.8997000D+01 0.3319000D+01
EXPONENTS  0.3643000D+00 0.9059000D+00 0.1285000D+00 0.4402000D-01 0.1871000D+02
EXPONENTS  0.4133000D+01 0.1200000D+01 0.1871000D+02 0.4133000D+01 0.1200000D+01
EXPONENTS  0.1871000D+02 0.4133000D+01 0.1200000D+01 0.3827000D+00 0.3827000D+00
EXPONENTS  0.3827000D+00 0.1209000D+00 0.1209000D+00 0.1209000D+00 0.3569000D-01
EXPONENTS  0.3569000D-01 0.3569000D-01 0.1097000D+01 0.1097000D+01 0.1097000D+01
EXPONENTS  0.1097000D+01 0.1097000D+01 0.1097000D+01 0.3180000D+00 0.3180000D+00
EXPONENTS  0.3180000D+00 0.3180000D+00 0.3180000D+00 0.3180000D+00 0.1000000D+00
EXPONENTS  0.1000000D+00 0.1000000D+00 0.1000000D+00 0.1000000D+00 0.1000000D+00
EXPONENTS  0.7610000D+00 0.7610000D+00 0.7610000D+00 0.7610000D+00 0.7610000D+00
EXPONENTS  0.7610000D+00 0.7610000D+00 0.7610000D+00 0.7610000D+00 0.7610000D+00
EXPONENTS  0.2680000D+00 0.2680000D+00 0.2680000D+00 0.2680000D+00 0.2680000D+00
EXPONENTS  0.2680000D+00 0.2680000D+00 0.2680000D+00 0.2680000D+00 0.2680000D+00
EXPONENTS  0.2549000D+06 0.3819000D+05 0.8690000D+04 0.2462000D+04 0.8048000D+03
EXPONENTS  0.2913000D+03 0.1136000D+03 0.4675000D+02 0.1982000D+02 0.7708000D+01
EXPONENTS  0.3340000D+01 0.1402000D+01 0.2070000D+00 0.2549000D+06 0.3819000D+05
EXPONENTS  0.8690000D+04 0.2462000D+04 0.8048000D+03 0.2913000D+03 0.1136000D+03
EXPONENTS  0.4675000D+02 0.1982000D+02 0.7708000D+01 0.3340000D+01 0.1402000D+01
EXPONENTS  0.2070000D+00 0.2549000D+06 0.3819000D+05 0.8690000D+04 0.2462000D+04
EXPONENTS  0.8048000D+03 0.2913000D+03 0.1136000D+03 0.4675000D+02 0.1982000D+02
EXPONENTS  0.7708000D+01 0.3340000D+01 0.1402000D+01 0.2070000D+00 0.4387000D+00
EXPONENTS  0.7944000D-01 0.3300000D-01 0.4815000D+03 0.1139000D+03 0.3623000D+02
EXPONENTS  0.1334000D+02 0.5252000D+01 0.2120000D+01 0.2528000D+00 0.4815000D+03
EXPONENTS  0.1139000D+03 0.3623000D+02 0.1334000D+02 0.5252000D+01 0.2120000D+01
EXPONENTS  0.2528000D+00 0.4815000D+03 0.1139000D+03 0.3623000D+02 0.1334000D+02
EXPONENTS  0.5252000D+01 0.2120000D+01 0.2528000D+00 0.4815000D+03 0.1139000D+03
EXPONENTS  0.3623000D+02 0.1334000D+02 0.5252000D+01 0.2120000D+01 0.2528000D+00
EXPONENTS  0.4815000D+03 0.1139000D+03 0.3623000D+02 0.1334000D+02 0.5252000D+01
EXPONENTS  0.2120000D+01 0.2528000D+00 0.4815000D+03 0.1139000D+03 0.3623000D+02
EXPONENTS  0.1334000D+02 0.5252000D+01 0.2120000D+01 0.2528000D+00 0.8561000D+00
EXPONENTS  0.8561000D+00 0.8561000D+00 0.7889000D-01 0.7889000D-01 0.7889000D-01
EXPONENTS  0.2370000D-01 0.2370000D-01 0.2370000D-01 0.1590000D+00 0.1590000D+00
EXPONENTS  0.1590000D+00 0.1590000D+00 0.1590000D+00 0.1590000D+00 0.4810000D+00
EXPONENTS  0.4810000D+00 0.4810000D+00 0.4810000D+00 0.4810000D+00 0.4810000D+00
EXPONENTS  0.5560000D-01 0.5560000D-01 0.5560000D-01 0.5560000D-01 0.5560000D-01
EXPONENTS  0.5560000D-01 0.3360000D+00 0.3360000D+00 0.3360000D+00 0.3360000D+00
EXPONENTS  0.3360000D+00 0.3360000D+00 0.3360000D+00 0.3360000D+00 0.3360000D+00
EXPONENTS  0.3360000D+00 0.1250000D+00 0.1250000D+00 0.1250000D+00 0.1250000D+00
EXPONENTS  0.1250000D+00 0.1250000D+00 0.1250000D+00 0.1250000D+00 0.1250000D+00
EXPONENTS  0.1250000D+00 0.3387000D+02 0.5095000D+01 0.1159000D+01 0.3258000D+00
EXPONENTS  0.1027000D+00 0.2526000D-01 0.1407000D+01 0.1407000D+01 0.1407000D+01
EXPONENTS  0.3880000D+00 0.3880000D+00 0.3880000D+00 0.1020000D+00 0.1020000D+00
EXPONENTS  0.1020000D+00 0.1057000D+01 0.1057000D+01 0.1057000D+01 0.1057000D+01
EXPONENTS  0.1057000D+01 0.1057000D+01 0.2470000D+00 0.2470000D+00 0.2470000D+00
EXPONENTS  0.2470000D+00 0.2470000D+00 0.2470000D+00 0.3387000D+02 0.5095000D+01
EXPONENTS  0.1159000D+01 0.3258000D+00 0.1027000D+00 0.2526000D-01 0.1407000D+01
EXPONENTS  0.1407000D+01 0.1407000D+01 0.3880000D+00 0.3880000D+00 0.3880000D+00
EXPONENTS  0.1020000D+00 0.1020000D+00 0.1020000D+00 0.1057000D+01 0.1057000D+01
EXPONENTS  0.1057000D+01 0.1057000D+01 0.1057000D+01 0.1057000D+01 0.2470000D+00
EXPONENTS  0.2470000D+00 0.2470000D+00 0.2470000D+00 0.2470000D+00 0.2470000D+00
EXPONENTS  0.3387000D+02 0.5095000D+01 0.1159000D+01 0.3258000D+00 0.1027000D+00
EXPONENTS  0.2526000D-01 0.1407000D+01 0.1407000D+01 0.1407000D+01 0.3880000D+00
EXPONENTS  0.3880000D+00 0.3880000D+00 0.1020000D+00 0.1020000D+00 0.1020000D+00
EXPONENTS  0.1057000D+01 0.1057000D+01 0.1057000D+01 0.1057000D+01 0.1057000D+01
EXPONENTS  0.1057000D+01 0.2470000D+00 0.2470000D+00 0.2470000D+00 0.2470000D+00
EXPONENTS  0.2470000D+00 0.2470000D+00 0.3387000D+02 0.5095000D+01 0.1159000D+01
EXPONENTS  0.3258000D+00 0.1027000D+00 0.2526000D-01 0.1407000D+01 0.1407000D+01
EXPONENTS  0.1407000D+01 0.3880000D+00 0.3880000D+00 0.3880000D+00 0.1020000D+00
EXPONENTS  0.1020000D+00 0.1020000D+00 0.1057000D+01 0.1057000D+01 0.1057000D+01
EXPONENTS  0.1057000D+01 0.1057000D+01 0.1057000D+01 0.2470000D+00 0.2470000D+00
EXPONENTS  0.2470000D+00 0.2470000D+00 0.2470000D+00 0.2470000D+00 0.3387000D+02
EXPONENTS  0.5095000D+01 0.1159000D+01 0.3258000D+00 0.1027000D+00 0.2526000D-01
EXPONENTS  0.1407000D+01 0.1407000D+01 0.1407000D+01 0.3880000D+00 0.3880000D+00
EXPONENTS  0.3880000D+00 0.1020000D+00 0.1020000D+00 0.1020000D+00 0.1057000D+01
EXPONENTS  0.1057000D+01 0.1057000D+01 0.1057000D+01 0.1057000D+01 0.1057000D+01
EXPONENTS  0.2470000D+00 0.2470000D+00 0.2470000D+00 0.2470000D+00 0.2470000D+00
EXPONENTS  0.2470000D+00 0.3387000D+02 0.5095000D+01 0.1159000D+01 0.3258000D+00
EXPONENTS  0.1027000D+00 0.2526000D-01 0.1407000D+01 0.1407000D+01 0.1407000D+01
EXPONENTS  0.3880000D+00 0.3880000D+00 0.3880000D+00 0.1020000D+00 0.1020000D+00
EXPONENTS  0.1020000D+00 0.1057000D+01 0.1057000D+01 0.1057000D+01 0.1057000D+01
EXPONENTS  0.1057000D+01 0.1057000D+01 0.2470000D+00 0.2470000D+00 0.2470000D+00
EXPONENTS  0.2470000D+00 0.2470000D+00 0.2470000D+00
MO    1     MO 0.0        OCC NO =    2.0000000  ORB. ENERGY =  -67.019574
  0.92865371D-04  0.17312217D-03  0.29260696D-03  0.43988410D-03  0.54044844D-03
  0.45649511D-03  0.17217316D-03 -0.85209457D-06 -0.67154813D-04 -0.12573500D-03
 -0.21407459D-03 -0.33114085D-03 -0.43610084D-03 -0.45313671D-03 -0.28794804D-03
  0.19297608D-03  0.13183781D-03  0.18719383D-03 -0.10284757D-03  0.84795775D-16
  0.79501429D-16  0.56609754D-16  0.14807329D-08  0.13882812D-08  0.98853893D-09
  0.19347773D-03  0.18139767D-03  0.12916595D-03 -0.77768284D-15  0.27906879D-09
 -0.76588426D-04 -0.75327786D-15 -0.38927524D-08  0.69169805D-03 -0.12145084D-15
 -0.19636169D-09 -0.15424236D-04 -0.77431106D-04 -0.77430371D-04  0.15486148D-03
  0.25138916D-15 -0.25816215D-15  0.11899475D-08  0.12312128D-03  0.12312421D-03
 -0.24624549D-03  0.16165447D-15  0.59220661D-15 -0.23206961D-08 -0.11643001D-04
 -0.11641452D-04  0.23284453D-04  0.13974521D-16  0.17813018D-15  0.81100510D-08
 -0.13067956D-16  0.67605539D-04 -0.36036938D-05  0.29621891D-16 -0.20281586D-03
  0.54061012D-05  0.95819769D-17 -0.76074439D-09  0.54049802D-05 -0.78850495D-16
 -0.27797963D-16 -0.69928149D-05 -0.68426601D-04  0.11723246D-16  0.20980535D-04
  0.10264126D-03  0.71670641D-16 -0.20901545D-08  0.10263854D-03  0.28430836D-16
  0.50657336D+00  0.94757515D+00  0.16364197D+01  0.26432444D+01  0.39806717D+01
  0.54136947D+01  0.61629425D+01  0.49928286D+01  0.20266878D+01  0.18480605D+00
 -0.71021375D-02  0.23749036D-02  0.13327421D-03 -0.22594922D-02 -0.42291473D-02
 -0.73144730D-02 -0.11888354D-01 -0.18189084D-01 -0.25811567D-01 -0.32378468D-01
 -0.33012653D-01 -0.20283630D-01  0.44206513D-02  0.16192191D-01  0.74057383D-02
 -0.39310065D-04  0.12000426D-02  0.22444986D-02  0.38868635D-02  0.63108953D-02
  0.96870966D-02  0.13760089D-01  0.17456855D-01  0.18072562D-01  0.11640926D-01
 -0.28631462D-02 -0.11671065D-01 -0.10179200D-01  0.51878501D-02 -0.21182500D-02
 -0.85324187D-02  0.38364128D-03  0.15794040D-13  0.20833152D-13  0.23140515D-13
  0.19805019D-13  0.11316429D-13  0.36724278D-14  0.25858624D-17 -0.18526052D-07
 -0.24436817D-07 -0.27143301D-07 -0.23230840D-07 -0.13273915D-07 -0.43076748D-08
 -0.30331582D-11  0.64404636D-03  0.84953034D-03  0.94361952D-03  0.80760530D-03
  0.46145918D-03  0.14975356D-03  0.10544581D-06 -0.13414963D-13 -0.18344789D-13
 -0.19942634D-13 -0.18306295D-13 -0.99776741D-14 -0.42103868D-14  0.14521114D-14
  0.25974524D-07  0.35519827D-07  0.38613630D-07  0.35445293D-07  0.19319124D-07
  0.81522993D-08 -0.28116291D-08 -0.51547650D-03 -0.70490749D-03 -0.76630544D-03
 -0.70342832D-03 -0.38339700D-03 -0.16178617D-03  0.55798088D-04 -0.74025287D-15
 -0.12229586D-08 -0.98360050D-04  0.16508570D-14  0.59052850D-08  0.14344461D-04
  0.40463708D-16 -0.25998757D-09  0.17669276D-05  0.53391576D-04  0.53392218D-04
 -0.10678379D-03  0.77512453D-15  0.48843150D-15  0.49693273D-09 -0.36945956D-05
 -0.36943368D-05  0.73889325D-05  0.55061391D-15  0.43158405D-15  0.29177139D-08
  0.12327063D-05  0.12331686D-05 -0.24658749D-05  0.66470386D-16  0.22904849D-18
 -0.37320015D-09  0.55564691D-16 -0.12193387D-03 -0.13642503D-03  0.27995160D-16
  0.36579812D-03  0.20463962D-03 -0.19468923D-15  0.34784432D-08  0.20463547D-03
  0.52731455D-15  0.49517440D-17  0.27242569D-04  0.42480748D-04 -0.97340239D-17
 -0.81727047D-04 -0.63721934D-04 -0.51212082D-17 -0.66108264D-09 -0.63720311D-04
  0.56132075D-16  0.45615971D-04  0.82270283D-04  0.12130748D-03 -0.56073804D-03
  0.26725250D-02 -0.33694157D-04 -0.13906129D-03 -0.80286627D-04 -0.51048068D-04
  0.57735845D-03  0.33333585D-03  0.28032116D-03 -0.31003355D-03 -0.17899907D-03
 -0.15301770D-03 -0.11530864D-03  0.58406754D-04  0.56901890D-04 -0.30088249D-03
 -0.24236537D-03 -0.13992699D-03 -0.54519720D-04  0.12113515D-04  0.42406205D-04
 -0.11540932D-03 -0.11043010D-03 -0.63756927D-04  0.45615971D-04  0.82270283D-04
  0.12130748D-03 -0.56073804D-03  0.26725250D-02 -0.33694157D-04  0.13906129D-03
 -0.80286627D-04 -0.51048068D-04 -0.57735845D-03  0.33333585D-03  0.28032116D-03
  0.31003355D-03 -0.17899907D-03 -0.15301770D-03 -0.11530864D-03  0.58406754D-04
  0.56901890D-04  0.30088249D-03  0.24236537D-03 -0.13992699D-03 -0.54519720D-04
  0.12113515D-04  0.42406205D-04  0.11540932D-03  0.11043010D-03 -0.63756927D-04
  0.45616318D-04  0.82270908D-04  0.12130841D-03 -0.56074486D-03  0.26725396D-02
 -0.33695991D-04 -0.38796572D-15  0.16057380D-03 -0.51044552D-04  0.42731459D-15
 -0.66667800D-03  0.28031438D-03 -0.47166751D-18  0.35800061D-03 -0.15301778D-03
  0.14526471D-03 -0.20216785D-03  0.56903140D-04  0.64178243D-16 -0.10416794D-18
  0.27985263D-03  0.45428251D-04 -0.87836366D-04  0.42408115D-04  0.12010354D-15
 -0.39044764D-16  0.12751182D-03 -0.93576573D-05 -0.16876920D-04 -0.24885009D-04
  0.11357811D-03  0.72091540D-03 -0.49831694D-05 -0.78853180D-16  0.10668823D-03
 -0.38529920D-04  0.18445055D-15 -0.11279447D-03 -0.11185235D-03  0.70912445D-16
 -0.87494678D-04  0.12424350D-03  0.18165449D-04  0.63855461D-04 -0.82020911D-04
 -0.98310048D-16  0.89350768D-16  0.78134706D-04  0.18832425D-06 -0.13844019D-04
  0.13655695D-04 -0.92030055D-16 -0.73917805D-16  0.12387890D-04 -0.93581005D-05
 -0.16877720D-04 -0.24886188D-04  0.11358219D-03  0.72088124D-03 -0.49838762D-05
 -0.92393646D-04 -0.53345204D-04 -0.38529894D-04  0.97681150D-04  0.56399346D-04
 -0.11185207D-03  0.75763723D-04  0.43746292D-04  0.12425059D-03  0.52431808D-04
  0.29585333D-04 -0.82017141D-04  0.39570015D-04 -0.67667842D-04 -0.39065025D-04
 -0.10336879D-04 -0.33190631D-05  0.13655942D-04 -0.12152024D-04 -0.10727389D-04
 -0.61968182D-05 -0.93581005D-05 -0.16877720D-04 -0.24886188D-04  0.11358219D-03
  0.72088124D-03 -0.49838762D-05  0.92393646D-04 -0.53345204D-04 -0.38529894D-04
 -0.97681150D-04  0.56399346D-04 -0.11185207D-03 -0.75763723D-04  0.43746292D-04
  0.12425059D-03  0.52431808D-04  0.29585333D-04 -0.82017141D-04 -0.39570015D-04
  0.67667842D-04 -0.39065025D-04 -0.10336879D-04 -0.33190631D-05  0.13655942D-04
  0.12152024D-04  0.10727389D-04 -0.61968182D-05
MO    2     MO 0.0        OCC NO =    2.0000000  ORB. ENERGY =  -10.523990
  0.32965130D+00  0.61454497D+00  0.10386893D+01  0.15614902D+01  0.19184711D+01
  0.16204555D+01  0.61117621D+00 -0.30247452D-02 -0.26272170D-02 -0.49189793D-02
 -0.83749831D-02 -0.12954825D-01 -0.17061049D-01 -0.17727523D-01 -0.11265045D-01
  0.75495712D-02  0.31959626D-01  0.19349098D-02 -0.37311455D-03  0.13383609D-13
  0.12547985D-13  0.89349125D-14 -0.28339427D-08 -0.26570014D-08 -0.18919433D-08
  0.10693633D-03  0.10025961D-03  0.71390815D-04 -0.58147695D-13 -0.27906126D-06
 -0.34803314D-02 -0.66463840D-13 -0.58765044D-07 -0.35346700D-03 -0.28026072D-15
  0.11488960D-10 -0.38596702D-04  0.81432106D-03  0.81404323D-03 -0.16283643D-02
  0.71762525D-14  0.10428142D-13  0.35468806D-06  0.55872716D-03  0.55858942D-03
 -0.11173166D-02  0.41986081D-13  0.26580152D-13  0.44042667D-07  0.18242092D-04
  0.18239112D-04 -0.36481204D-04  0.82620027D-14  0.59357367D-14  0.13994650D-08
 -0.79351934D-15  0.11268568D-02  0.79175573D-03 -0.88026704D-15 -0.33806101D-02
 -0.11876739D-02  0.32608251D-14  0.39822835D-07 -0.11875933D-02 -0.20449728D-13
  0.11859330D-15 -0.10771668D-03 -0.25492857D-03  0.34590013D-18  0.32315391D-03
  0.38236760D-03 -0.35612581D-15 -0.38739491D-08  0.38241810D-03 -0.79347207D-14
  0.19329542D-03  0.36157040D-03  0.62441584D-03  0.10085943D-02  0.15189223D-02
  0.20657272D-02  0.23516210D-02  0.19051355D-02  0.77333213D-03  0.70517253D-04
 -0.27099937D-05  0.90620238D-06  0.50854024D-07 -0.39945978D-03 -0.74767873D-03
 -0.12931391D-02 -0.21017639D-02 -0.32156816D-02 -0.45632744D-02 -0.57242488D-02
 -0.58363675D-02 -0.35859803D-02  0.78153506D-03  0.28626473D-02  0.13092741D-02
 -0.69496986D-05  0.24847926D-03  0.46474297D-03  0.80480889D-03  0.13067258D-02
  0.20057976D-02  0.28491460D-02  0.36145937D-02  0.37420811D-02  0.24103549D-02
 -0.59283933D-03 -0.24165956D-02 -0.21076918D-02  0.10741895D-02  0.29626572D-03
 -0.15625811D-02  0.39764901D-03  0.11795494D-13  0.15558865D-13  0.17282077D-13
  0.14791022D-13  0.84514710D-14  0.27426866D-14  0.19312048D-17 -0.15907009D-06
 -0.20982165D-06 -0.23306031D-06 -0.19946677D-06 -0.11397371D-06 -0.36986954D-07
 -0.26043582D-10 -0.19160092D-01 -0.25273149D-01 -0.28072261D-01 -0.24025898D-01
 -0.13728205D-01 -0.44551019D-02 -0.31369658D-05 -0.88028218D-14 -0.12037746D-13
 -0.13086242D-13 -0.12012486D-13 -0.65472925D-14 -0.27628317D-14  0.95286715D-15
  0.13855190D-06  0.18946794D-06  0.20597074D-06  0.18907037D-06  0.10305103D-06
  0.43485554D-07 -0.14997640D-07  0.17084128D-01  0.23362325D-01  0.25397200D-01
  0.23313302D-01  0.12706696D-01  0.53619818D-02 -0.18492825D-02 -0.86273244D-15
  0.39302053D-08  0.38982535D-03 -0.71384229D-14  0.10084837D-08 -0.59250772D-03
 -0.69866862D-15 -0.40939664D-09 -0.24640109D-04 -0.17608327D-03 -0.17608505D-03
  0.35216832D-03 -0.40880222D-14 -0.31531574D-14 -0.98057574D-08 -0.36302720D-03
 -0.36301914D-03  0.72604634D-03  0.12858206D-14  0.14126727D-14 -0.30634343D-08
 -0.12903599D-04 -0.12903265D-04  0.25806863D-04 -0.79933690D-15  0.61190684D-16
 -0.71474158D-09 -0.96175404D-16  0.88588353D-04 -0.63787858D-04 -0.85486074D-16
 -0.26576353D-03  0.95673167D-04  0.37401229D-15 -0.15278308D-08  0.95690408D-04
 -0.16117189D-14 -0.71489135D-16  0.20468891D-04 -0.41194019D-05 -0.70453697D-16
 -0.61406893D-04  0.61779497D-05  0.28492110D-15  0.22010225D-09  0.61802560D-05
 -0.86574716D-15 -0.33073403D-04 -0.59649245D-04 -0.87952777D-04  0.59351283D-03
  0.10107053D-02  0.11675236D-04 -0.67024471D-04 -0.38701577D-04  0.45962386D-04
 -0.21119076D-03 -0.12192738D-03 -0.27351833D-03 -0.86609280D-04 -0.50003959D-04
 -0.10673240D-03  0.60820504D-04 -0.41553979D-04 -0.19266526D-04  0.17732113D-03
  0.20539594D-03  0.11858403D-03 -0.47698453D-05 -0.11737174D-04  0.16507019D-04
  0.12066558D-04 -0.12005652D-04 -0.69338921D-05 -0.33073403D-04 -0.59649245D-04
 -0.87952777D-04  0.59351283D-03  0.10107053D-02  0.11675236D-04  0.67024471D-04
 -0.38701577D-04  0.45962386D-04  0.21119076D-03 -0.12192738D-03 -0.27351833D-03
  0.86609280D-04 -0.50003959D-04 -0.10673240D-03  0.60820504D-04 -0.41553979D-04
 -0.19266526D-04 -0.17732113D-03 -0.20539594D-03  0.11858403D-03 -0.47698453D-05
 -0.11737174D-04  0.16507019D-04 -0.12066558D-04  0.12005652D-04 -0.69338921D-05
 -0.33071330D-04 -0.59645506D-04 -0.87947263D-04  0.59349336D-03  0.10106898D-02
  0.11672236D-04  0.92592042D-15  0.77409173D-04  0.45959501D-04 -0.16319267D-14
  0.24383690D-03 -0.27351637D-03 -0.13252059D-14  0.10000443D-03 -0.10673317D-03
 -0.92739695D-04  0.11200132D-03 -0.19261623D-04 -0.74503291D-15  0.16792922D-15
 -0.23716406D-03 -0.15218162D-04 -0.12886878D-05  0.16506850D-04 -0.76955614D-15
  0.21048790D-15  0.13865424D-04  0.11546234D-03  0.20824108D-03  0.30705135D-03
 -0.17450801D-02 -0.96842702D-03 -0.49879362D-04 -0.26799010D-14  0.17118801D-02
 -0.44385677D-03 -0.42462228D-14  0.25630537D-02 -0.14533292D-02 -0.57994374D-14
  0.29511046D-03 -0.21817265D-03  0.15502178D-02 -0.23619598D-02  0.81174206D-03
  0.16005445D-14 -0.29357539D-15  0.32540577D-02  0.17629416D-03 -0.23112519D-03
  0.54831028D-04  0.26857079D-14 -0.30299010D-14  0.40854444D-03  0.11542525D-03
  0.20817420D-03  0.30695274D-03 -0.17454412D-02 -0.96857993D-03 -0.49881003D-04
 -0.14827510D-02 -0.85606001D-03 -0.44385944D-03 -0.22198332D-02 -0.12816781D-02
 -0.14533623D-02 -0.25559877D-03 -0.14757484D-03 -0.21817857D-03 -0.13840043D-02
  0.57214893D-03  0.81185537D-03 -0.33882660D-02 -0.28180459D-02 -0.16270322D-02
 -0.12927462D-03  0.74434200D-04  0.54840422D-04 -0.35285677D-03 -0.35381478D-03
 -0.20427450D-03  0.11542525D-03  0.20817420D-03  0.30695274D-03 -0.17454412D-02
 -0.96857993D-03 -0.49881003D-04  0.14827510D-02 -0.85606001D-03 -0.44385944D-03
  0.22198332D-02 -0.12816781D-02 -0.14533623D-02  0.25559877D-03 -0.14757484D-03
 -0.21817857D-03 -0.13840043D-02  0.57214893D-03  0.81185537D-03  0.33882660D-02
  0.28180459D-02 -0.16270322D-02 -0.12927462D-03  0.74434200D-04  0.54840422D-04
  0.35285677D-03  0.35381478D-03 -0.20427450D-03
MO    3     MO 0.0        OCC NO =    2.0000000  ORB. ENERGY =   -5.544360
 -0.78418312D-04 -0.14618956D-03 -0.24708612D-03 -0.37145137D-03 -0.45637092D-03
 -0.38547820D-03 -0.14538819D-03  0.71953429D-06  0.24614966D-04  0.46086983D-04
  0.78467032D-04  0.12137657D-03  0.15984867D-03  0.16609301D-03  0.10554465D-03
 -0.70733569D-04 -0.29987896D-03  0.77073669D-03  0.35099001D-03 -0.97561033D-14
 -0.91469670D-14 -0.65131854D-14  0.19489548D-08  0.18272690D-08  0.13011244D-08
  0.23590683D-03  0.22117765D-03  0.15749166D-03  0.41192625D-13  0.10274935D-07
  0.22669032D-03  0.30423267D-13 -0.96711204D-08 -0.19652458D-02  0.18138370D-14
  0.12070313D-08  0.66977068D-04 -0.85145399D-04 -0.85133818D-04  0.17027922D-03
 -0.81111070D-14  0.23461139D-14 -0.35991937D-08  0.75305283D-04  0.75300996D-04
 -0.15060628D-03 -0.23101932D-13 -0.25409157D-13 -0.51500098D-08  0.48952131D-04
  0.48947096D-04 -0.97899228D-04 -0.34008197D-14 -0.73063794D-14 -0.24121464D-07
 -0.12918116D-15 -0.43006133D-04 -0.28996439D-04  0.27575586D-15  0.12903271D-03
  0.43494086D-04  0.11178763D-15 -0.14314783D-07  0.43495231D-04  0.12981467D-13
  0.93348077D-15  0.10700595D-03  0.53220163D-04 -0.28020547D-15 -0.32103104D-03
 -0.79833762D-04 -0.25202368D-14  0.13196557D-07 -0.79826726D-04  0.29748820D-14
 -0.44764589D-02 -0.83734786D-02 -0.14460621D-01 -0.23357673D-01 -0.35176175D-01
 -0.47839432D-01 -0.54460343D-01 -0.44120346D-01 -0.17909320D-01 -0.16330836D-02
  0.62759768D-04 -0.20986414D-04 -0.11777100D-05 -0.12659088D+00 -0.23694327D+00
 -0.40980251D+00 -0.66605990D+00 -0.10190662D+01 -0.14461254D+01 -0.18140442D+01
 -0.18495752D+01 -0.11364158D+01  0.24767252D+00  0.90718780D+00  0.41491576D+00
 -0.22023956D-02 -0.33861512D-02 -0.63332849D-02 -0.10967533D-01 -0.17807406D-01
 -0.27334007D-01 -0.38826738D-01 -0.49257876D-01 -0.50995211D-01 -0.32847112D-01
  0.80789181D-02  0.32932157D-01  0.28722571D-01 -0.14638517D-01  0.31966521D-01
  0.24660565D-01 -0.14333994D-02 -0.23932688D-12 -0.31568449D-12 -0.35064792D-12
 -0.30010520D-12 -0.17147770D-12 -0.55648251D-13 -0.39183540D-16  0.34143769D-07
  0.45037391D-07  0.50025478D-07  0.42814758D-07  0.24464009D-07  0.79391042D-08
  0.55901524D-11 -0.18359511D-02 -0.24217141D-02 -0.26899295D-02 -0.23022005D-02
 -0.13154588D-02 -0.42689507D-03 -0.30058914D-06  0.20115707D-12  0.27507970D-12
  0.29903935D-12  0.27450248D-12  0.14961500D-12  0.63134656D-13 -0.21774377D-13
  0.76227438D-06  0.10424004D-05  0.11331942D-05  0.10402131D-05  0.56695836D-06
  0.23924554D-06 -0.82512884D-07  0.60499027D-03  0.82731642D-03  0.89937628D-03
  0.82558039D-03  0.44997484D-03  0.18988074D-03 -0.65487564D-04  0.12936659D-13
  0.15123378D-06 -0.15802849D-03 -0.35357040D-13 -0.18631417D-07 -0.19021219D-03
 -0.17169257D-15  0.53632481D-09 -0.38899217D-05 -0.14939454D-03 -0.14936109D-03
  0.29875563D-03 -0.14362142D-13 -0.13818505D-13 -0.34864775D-07 -0.26443858D-04
 -0.26425900D-04  0.52869758D-04 -0.60760119D-14 -0.63969195D-14 -0.73358649D-08
 -0.40722250D-05 -0.40720991D-05  0.81443241D-05 -0.88185675D-15 -0.30138917D-15
 -0.46489344D-09 -0.12225133D-14  0.25885524D-03  0.24841035D-03  0.11846904D-16
 -0.77654227D-03 -0.37263206D-03  0.36556931D-14 -0.23459284D-07 -0.37259898D-03
 -0.10588983D-13 -0.18014825D-15 -0.65253026D-04 -0.10339018D-03  0.58255364D-15
  0.19575513D-03  0.15508513D-03 -0.42108887D-16  0.39502656D-08  0.15508541D-03
 -0.16619066D-14  0.35357958D-04  0.63769533D-04  0.94028140D-04  0.11847261D-02
 -0.75126601D-02  0.12591710D-03 -0.11501005D-03 -0.66286623D-04 -0.54127373D-04
 -0.82666344D-03 -0.47730288D-03 -0.46081015D-03  0.93117298D-03  0.53760748D-03
  0.49431878D-03 -0.41513618D-04 -0.53493665D-04  0.95007283D-04  0.20853269D-04
  0.12896113D-03  0.74202704D-04  0.73328449D-04 -0.44135173D-05 -0.68914931D-04
  0.13465405D-03  0.14650924D-03  0.84602588D-04  0.35357958D-04  0.63769533D-04
  0.94028140D-04  0.11847261D-02 -0.75126601D-02  0.12591710D-03  0.11501005D-03
 -0.66286623D-04 -0.54127373D-04  0.82666344D-03 -0.47730288D-03 -0.46081015D-03
 -0.93117298D-03  0.53760748D-03  0.49431878D-03 -0.41513618D-04 -0.53493665D-04
  0.95007283D-04 -0.20853269D-04 -0.12896113D-03  0.74202704D-04  0.73328449D-04
 -0.44135173D-05 -0.68914931D-04 -0.13465405D-03 -0.14650924D-03  0.84602588D-04
  0.35377134D-04  0.63804119D-04  0.94079136D-04  0.11845678D-02 -0.75127590D-02
  0.12591734D-03  0.74683364D-14  0.13277443D-03 -0.54089617D-04 -0.94293487D-14
  0.95448931D-03 -0.46080950D-03  0.13822820D-14 -0.10752446D-02  0.49431624D-03
 -0.59650762D-04 -0.35318737D-04  0.94969499D-04 -0.24330733D-14  0.48376417D-15
 -0.14900154D-03 -0.43277327D-04  0.11219216D-03 -0.68914831D-04 -0.17661240D-14
  0.96735014D-15 -0.16917900D-03 -0.52574914D-06 -0.94821022D-06 -0.13981354D-05
 -0.89247875D-03 -0.23974329D-02  0.28319857D-04  0.37895364D-15 -0.72611594D-04
  0.11353621D-03  0.13172944D-14  0.29746792D-03 -0.37068801D-03  0.11232528D-14
  0.28915206D-03 -0.47857873D-03  0.14326592D-05 -0.35469164D-04  0.34036505D-04
  0.15255804D-15 -0.17435258D-14  0.15696299D-03  0.61980676D-04  0.70142456D-04
 -0.13212313D-03  0.12447392D-15  0.32986066D-14  0.16570920D-04 -0.52779493D-06
 -0.95189989D-06 -0.14035758D-05 -0.89249447D-03 -0.23973677D-02  0.28325430D-04
  0.62881756D-04  0.36309575D-04  0.11352848D-03 -0.25760170D-03 -0.14873974D-03
 -0.37067996D-03 -0.25039706D-03 -0.14458159D-03 -0.47859649D-03 -0.26242776D-04
 -0.77975740D-05  0.34040350D-04 -0.31953885D-04 -0.13590990D-03 -0.78471763D-04
  0.68101067D-04  0.64012129D-04 -0.13211320D-03  0.70689295D-05 -0.14360109D-04
 -0.82834117D-05 -0.52779493D-06 -0.95189989D-06 -0.14035758D-05 -0.89249447D-03
 -0.23973677D-02  0.28325430D-04 -0.62881756D-04  0.36309575D-04  0.11352848D-03
  0.25760170D-03 -0.14873974D-03 -0.37067996D-03  0.25039706D-03 -0.14458159D-03
 -0.47859649D-03 -0.26242776D-04 -0.77975740D-05  0.34040350D-04  0.31953885D-04
  0.13590990D-03 -0.78471763D-04  0.68101067D-04  0.64012129D-04 -0.13211320D-03
 -0.70689295D-05  0.14360109D-04 -0.82834117D-05
MO    4     MO 0.0        OCC NO =    2.0000000  ORB. ENERGY =   -3.854750
 -0.10611595D-15 -0.19782426D-15 -0.33435786D-15 -0.50264938D-15 -0.61756284D-15
 -0.52163054D-15 -0.19673985D-15  0.97367649D-18  0.95212684D-16  0.17826819D-15
  0.30351684D-15  0.46949440D-15  0.61830761D-15  0.64246121D-15  0.40825526D-15
 -0.27360318D-15  0.20578914D-14 -0.45971212D-13  0.75284038D-14 -0.16794516D-03
 -0.15745926D-03 -0.11212038D-03 -0.45607692D-12 -0.42760110D-12 -0.30447746D-12
 -0.10489528D-14 -0.98345992D-15 -0.70028205D-15  0.58154501D-03  0.15792279D-11
  0.40059223D-14  0.63305922D-04  0.18149624D-12 -0.12279208D-13 -0.19850878D-04
 -0.54326236D-13  0.95739300D-15  0.20555378D-12 -0.20681606D-12  0.12622786D-14
  0.15184644D-03  0.64730349D-03  0.17523065D-11 -0.36812177D-12  0.36613164D-12
  0.19901286D-14 -0.26942767D-03 -0.23792242D-03 -0.64537147D-12 -0.19293549D-12
  0.19352730D-12 -0.59181492D-15 -0.14233174D-03  0.77200743D-04  0.20851029D-12
 -0.18215991D-03 -0.49525923D-12 -0.86837679D-15 -0.18216943D-03 -0.48879203D-12
  0.35192549D-12  0.72864915D-03  0.19745697D-11 -0.34932036D-12  0.25815568D-03
  0.12641238D-03  0.34234397D-12  0.79639400D-16  0.12641660D-03  0.34300479D-12
  0.22929286D-12 -0.50565374D-03 -0.13700367D-11 -0.22953178D-12  0.16889375D-03
 -0.23968958D-14 -0.44835341D-14 -0.77428618D-14 -0.12506740D-13 -0.18834893D-13
 -0.25615366D-13 -0.29160497D-13 -0.23624002D-13 -0.95894491D-14 -0.87442585D-15
  0.33604380D-16 -0.11237063D-16 -0.63059848D-18  0.48348071D-14  0.90494277D-14
  0.15651333D-13  0.25438413D-13  0.38920564D-13  0.55230971D-13  0.69282666D-13
  0.70639680D-13  0.43402424D-13 -0.94592032D-14 -0.34647662D-13 -0.15846621D-13
  0.84114731D-16 -0.28430668D-14 -0.53175274D-14 -0.92085167D-14 -0.14951383D-13
 -0.22950070D-13 -0.32599551D-13 -0.41357702D-13 -0.42816396D-13 -0.27578962D-13
  0.67831891D-14  0.27650366D-13  0.24115931D-13 -0.12290734D-13 -0.12272782D-13
  0.25017561D-12 -0.16256004D-13  0.62219226D+01  0.82070366D+01  0.91160015D+01
  0.78020124D+01  0.44580072D+01  0.14467205D+01  0.10186777D-02  0.16865741D-07