 Molden2AIM, Version 4.0.0 (06/02/2016)           Time: Thu Jun 28 03:54:26 2018
GAUSSIAN             13 MOL ORBITALS    314 PRIMITIVES        6 NUCLEI
  C    1    (CENTRE  1)  -0.09086181  2.18349728  0.00000000  CHARGE =  6.0
  S    2    (CENTRE  2)  -0.09594706 -1.25787730  0.00000000  CHARGE = 16.0
  H    3    (CENTRE  3)   2.44224992 -1.57991686  0.00000000  CHARGE =  1.0
  H    4    (CENTRE  4)  -2.08055634  2.76379816  0.00000000  CHARGE =  1.0
  H    5    (CENTRE  5)   0.81874463  2.93753769  1.70135256  CHARGE =  1.0
  H    6    (CENTRE  6)   0.81874463  2.93753769 -1.70135256  CHARGE =  1.0
CENTRE ASSIGNMENTS    1  1  1  1  1  1  1  1  1  1  1  1  1  1  1  1  1  1  1  1
CENTRE ASSIGNMENTS    1  1  1  1  1  1  1  1  1  1  1  1  1  1  1  1  1  1  1  1
CENTRE ASSIGNMENTS    1  1  1  1  1  1  1  1  1  1  1  1  1  1  1  1  1  1  1  1
CENTRE ASSIGNMENTS    1  1  1  1  1  1  1  1  1  1  1  1  1  1  1  2  2  2  2  2
CENTRE ASSIGNMENTS    2  2  2  2  2  2  2  2  2  2  2  2  2  2  2  2  2  2  2  2
CENTRE ASSIGNMENTS    2  2  2  2  2  2  2  2  2  2  2  2  2  2  2  2  2  2  2  2
CENTRE ASSIGNMENTS    2  2  2  2  2  2  2  2  2  2  2  2  2  2  2  2  2  2  2  2
CENTRE ASSIGNMENTS    2  2  2  2  2  2  2  2  2  2  2  2  2  2  2  2  2  2  2  2
CENTRE ASSIGNMENTS    2  2  2  2  2  2  2  2  2  2  2  2  2  2  2  2  2  2  2  2
CENTRE ASSIGNMENTS    2  2  2  2  2  2  2  2  2  2  2  2  2  2  2  2  2  2  2  2
CENTRE ASSIGNMENTS    2  2  2  2  2  2  3  3  3  3  3  3  3  3  3  3  3  3  3  3
CENTRE ASSIGNMENTS    3  3  3  3  3  3  3  3  3  3  3  3  3  4  4  4  4  4  4  4
CENTRE ASSIGNMENTS    4  4  4  4  4  4  4  4  4  4  4  4  4  4  4  4  4  4  4  4
CENTRE ASSIGNMENTS    5  5  5  5  5  5  5  5  5  5  5  5  5  5  5  5  5  5  5  5
CENTRE ASSIGNMENTS    5  5  5  5  5  5  5  6  6  6  6  6  6  6  6  6  6  6  6  6
CENTRE ASSIGNMENTS    6  6  6  6  6  6  6  6  6  6  6  6  6  6
TYPE ASSIGNMENTS      1  1  1  1  1  1  1  1  1  1  1  1  1  1  1  1  1  1  1  2
TYPE ASSIGNMENTS      2  2  3  3  3  4  4  4  2  3  4  2  3  4  2  3  4  5  6  7
TYPE ASSIGNMENTS      8  9 10  5  6  7  8  9 10  5  6  7  8  9 10 11 12 13 17 14
TYPE ASSIGNMENTS     15 18 19 16 20 11 12 13 17 14 15 18 19 16 20  1  1  1  1  1
TYPE ASSIGNMENTS      1  1  1  1  1  1  1  1  1  1  1  1  1  1  1  1  1  1  1  1
TYPE ASSIGNMENTS      1  1  1  1  1  1  1  1  1  1  1  1  1  1  1  1  1  2  2  2
TYPE ASSIGNMENTS      2  2  2  2  3  3  3  3  3  3  3  4  4  4  4  4  4  4  2  2
TYPE ASSIGNMENTS      2  2  2  2  2  3  3  3  3  3  3  3  4  4  4  4  4  4  4  2
TYPE ASSIGNMENTS      3  4  2  3  4  2  3  4  5  6  7  8  9 10  5  6  7  8  9 10
TYPE ASSIGNMENTS      5  6  7  8  9 10 11 12 13 17 14 15 18 19 16 20 11 12 13 17
TYPE ASSIGNMENTS     14 15 18 19 16 20  1  1  1  1  1  1  2  3  4  2  3  4  2  3
TYPE ASSIGNMENTS      4  5  6  7  8  9 10  5  6  7  8  9 10  1  1  1  1  1  1  2
TYPE ASSIGNMENTS      3  4  2  3  4  2  3  4  5  6  7  8  9 10  5  6  7  8  9 10
TYPE ASSIGNMENTS      1  1  1  1  1  1  2  3  4  2  3  4  2  3  4  5  6  7  8  9
TYPE ASSIGNMENTS     10  5  6  7  8  9 10  1  1  1  1  1  1  2  3  4  2  3  4  2
TYPE ASSIGNMENTS      3  4  5  6  7  8  9 10  5  6  7  8  9 10
EXPONENTS  0.8236000D+04 0.1235000D+04 0.2808000D+03 0.7927000D+02 0.2559000D+02
EXPONENTS  0.8997000D+01 0.3319000D+01 0.3643000D+00 0.8236000D+04 0.1235000D+04
EXPONENTS  0.2808000D+03 0.7927000D+02 0.2559000D+02 0.8997000D+01 0.3319000D+01
EXPONENTS  0.3643000D+00 0.9059000D+00 0.1285000D+00 0.4402000D-01 0.1871000D+02
EXPONENTS  0.4133000D+01 0.1200000D+01 0.1871000D+02 0.4133000D+01 0.1200000D+01
EXPONENTS  0.1871000D+02 0.4133000D+01 0.1200000D+01 0.3827000D+00 0.3827000D+00
EXPONENTS  0.3827000D+00 0.1209000D+00 0.1209000D+00 0.1209000D+00 0.3569000D-01
EXPONENTS  0.3569000D-01 0.3569000D-01 0.1097000D+01 0.1097000D+01 0.1097000D+01
EXPONENTS  0.1097000D+01 0.1097000D+01 0.1097000D+01 0.3180000D+00 0.3180000D+00
EXPONENTS  0.3180000D+00 0.3180000D+00 0.3180000D+00 0.3180000D+00 0.1000000D+00
EXPONENTS  0.1000000D+00 0.1000000D+00 0.1000000D+00 0.1000000D+00 0.1000000D+00
EXPONENTS  0.7610000D+00 0.7610000D+00 0.7610000D+00 0.7610000D+00 0.7610000D+00
EXPONENTS  0.7610000D+00 0.7610000D+00 0.7610000D+00 0.7610000D+00 0.7610000D+00
EXPONENTS  0.2680000D+00 0.2680000D+00 0.2680000D+00 0.2680000D+00 0.2680000D+00
EXPONENTS  0.2680000D+00 0.2680000D+00 0.2680000D+00 0.2680000D+00 0.2680000D+00
EXPONENTS  0.3741000D+06 0.5605000D+05 0.1276000D+05 0.3615000D+04 0.1183000D+04
EXPONENTS  0.4288000D+03 0.1678000D+03 0.6947000D+02 0.2984000D+02 0.1272000D+02
EXPONENTS  0.5244000D+01 0.2219000D+01 0.3490000D+00 0.3741000D+06 0.5605000D+05
EXPONENTS  0.1276000D+05 0.3615000D+04 0.1183000D+04 0.4288000D+03 0.1678000D+03
EXPONENTS  0.6947000D+02 0.2984000D+02 0.1272000D+02 0.5244000D+01 0.2219000D+01
EXPONENTS  0.3490000D+00 0.3741000D+06 0.5605000D+05 0.1276000D+05 0.3615000D+04
EXPONENTS  0.1183000D+04 0.4288000D+03 0.1678000D+03 0.6947000D+02 0.2984000D+02
EXPONENTS  0.1272000D+02 0.5244000D+01 0.2219000D+01 0.3490000D+00 0.7767000D+00
EXPONENTS  0.1322000D+00 0.4970000D-01 0.5744000D+03 0.1358000D+03 0.4319000D+02
EXPONENTS  0.1587000D+02 0.6208000D+01 0.2483000D+01 0.3229000D+00 0.5744000D+03
EXPONENTS  0.1358000D+03 0.4319000D+02 0.1587000D+02 0.6208000D+01 0.2483000D+01
EXPONENTS  0.3229000D+00 0.5744000D+03 0.1358000D+03 0.4319000D+02 0.1587000D+02
EXPONENTS  0.6208000D+01 0.2483000D+01 0.3229000D+00 0.5744000D+03 0.1358000D+03
EXPONENTS  0.4319000D+02 0.1587000D+02 0.6208000D+01 0.2483000D+01 0.3229000D+00
EXPONENTS  0.5744000D+03 0.1358000D+03 0.4319000D+02 0.1587000D+02 0.6208000D+01
EXPONENTS  0.2483000D+01 0.3229000D+00 0.5744000D+03 0.1358000D+03 0.4319000D+02
EXPONENTS  0.1587000D+02 0.6208000D+01 0.2483000D+01 0.3229000D+00 0.8688000D+00
EXPONENTS  0.8688000D+00 0.8688000D+00 0.1098000D+00 0.1098000D+00 0.1098000D+00
EXPONENTS  0.3510000D-01 0.3510000D-01 0.3510000D-01 0.2690000D+00 0.2690000D+00
EXPONENTS  0.2690000D+00 0.2690000D+00 0.2690000D+00 0.2690000D+00 0.8190000D+00
EXPONENTS  0.8190000D+00 0.8190000D+00 0.8190000D+00 0.8190000D+00 0.8190000D+00
EXPONENTS  0.1010000D+00 0.1010000D+00 0.1010000D+00 0.1010000D+00 0.1010000D+00
EXPONENTS  0.1010000D+00 0.5570000D+00 0.5570000D+00 0.5570000D+00 0.5570000D+00
EXPONENTS  0.5570000D+00 0.5570000D+00 0.5570000D+00 0.5570000D+00 0.5570000D+00
EXPONENTS  0.5570000D+00 0.2180000D+00 0.2180000D+00 0.2180000D+00 0.2180000D+00
EXPONENTS  0.2180000D+00 0.2180000D+00 0.2180000D+00 0.2180000D+00 0.2180000D+00
EXPONENTS  0.2180000D+00 0.3387000D+02 0.5095000D+01 0.1159000D+01 0.3258000D+00
EXPONENTS  0.1027000D+00 0.2526000D-01 0.1407000D+01 0.1407000D+01 0.1407000D+01
EXPONENTS  0.3880000D+00 0.3880000D+00 0.3880000D+00 0.1020000D+00 0.1020000D+00
EXPONENTS  0.1020000D+00 0.1057000D+01 0.1057000D+01 0.1057000D+01 0.1057000D+01
EXPONENTS  0.1057000D+01 0.1057000D+01 0.2470000D+00 0.2470000D+00 0.2470000D+00
EXPONENTS  0.2470000D+00 0.2470000D+00 0.2470000D+00 0.3387000D+02 0.5095000D+01
EXPONENTS  0.1159000D+01 0.3258000D+00 0.1027000D+00 0.2526000D-01 0.1407000D+01
EXPONENTS  0.1407000D+01 0.1407000D+01 0.3880000D+00 0.3880000D+00 0.3880000D+00
EXPONENTS  0.1020000D+00 0.1020000D+00 0.1020000D+00 0.1057000D+01 0.1057000D+01
EXPONENTS  0.1057000D+01 0.1057000D+01 0.1057000D+01 0.1057000D+01 0.2470000D+00
EXPONENTS  0.2470000D+00 0.2470000D+00 0.2470000D+00 0.2470000D+00 0.2470000D+00
EXPONENTS  0.3387000D+02 0.5095000D+01 0.1159000D+01 0.3258000D+00 0.1027000D+00
EXPONENTS  0.2526000D-01 0.1407000D+01 0.1407000D+01 0.1407000D+01 0.3880000D+00
EXPONENTS  0.3880000D+00 0.3880000D+00 0.1020000D+00 0.1020000D+00 0.1020000D+00
EXPONENTS  0.1057000D+01 0.1057000D+01 0.1057000D+01 0.1057000D+01 0.1057000D+01
EXPONENTS  0.1057000D+01 0.2470000D+00 0.2470000D+00 0.2470000D+00 0.2470000D+00
EXPONENTS  0.2470000D+00 0.2470000D+00 0.3387000D+02 0.5095000D+01 0.1159000D+01
EXPONENTS  0.3258000D+00 0.1027000D+00 0.2526000D-01 0.1407000D+01 0.1407000D+01
EXPONENTS  0.1407000D+01 0.3880000D+00 0.3880000D+00 0.3880000D+00 0.1020000D+00
EXPONENTS  0.1020000D+00 0.1020000D+00 0.1057000D+01 0.1057000D+01 0.1057000D+01
EXPONENTS  0.1057000D+01 0.1057000D+01 0.1057000D+01 0.2470000D+00 0.2470000D+00
EXPONENTS  0.2470000D+00 0.2470000D+00 0.2470000D+00 0.2470000D+00
MO    1     MO 0.0        OCC NO =    2.0000000  ORB. ENERGY =  -89.928292
  0.46737515D-04  0.87129354D-04  0.14726396D-03  0.22138596D-03  0.27199824D-03
  0.22974599D-03  0.86651736D-04 -0.42884428D-06 -0.33012062D-04 -0.61808995D-04
 -0.10523510D-03 -0.16278270D-03 -0.21437909D-03 -0.22275361D-03 -0.14154992D-03
  0.94863465D-04  0.37095486D-04  0.46502940D-03  0.10843024D-03  0.16848000D-04
  0.15796071D-04  0.11247743D-04 -0.94375202D-04 -0.88482751D-04 -0.63004990D-04
 -0.15419017D-15 -0.14456309D-15 -0.10293753D-15 -0.18745246D-05 -0.19188507D-03
  0.52174186D-15  0.14787457D-03 -0.32087921D-03  0.46177947D-15  0.24639688D-06
 -0.13280983D-04  0.18082841D-16 -0.11010754D-03  0.20124167D-03 -0.91134126D-04
  0.83333068D-05  0.10748530D-15  0.12636321D-15  0.10449090D-03 -0.21137998D-03
  0.10688907D-03  0.30114830D-04  0.33297015D-15  0.21493152D-15 -0.33825903D-04
  0.22353914D-04  0.11471989D-04 -0.13394088D-04  0.53323353D-16  0.29788439D-16
 -0.14761290D-04  0.58910925D-04  0.12492342D-16 -0.10910658D-04 -0.10659263D-03
 -0.12705966D-16  0.55194529D-04 -0.70140150D-04 -0.24771060D-16  0.25216284D-15
 -0.25379313D-04  0.49915444D-04 -0.14587963D-17 -0.24867179D-05 -0.65006155D-04
  0.10026861D-16  0.78624656D-04 -0.84740176D-04 -0.56504715D-17  0.48114480D-16
  0.58522387D+00  0.10940420D+01  0.18908462D+01  0.30583589D+01  0.46225303D+01
  0.63659828D+01  0.74403580D+01  0.64290306D+01  0.29985228D+01  0.40713461D+00
  0.10902062D-02  0.21385339D-02  0.97633003D-04 -0.13287881D-02 -0.24815685D-02
 -0.43046645D-02 -0.69798646D-02 -0.10746296D-01 -0.15305140D-01 -0.19680423D-01
 -0.20658588D-01 -0.14607085D-01  0.32348002D-03  0.10495380D-01  0.57790408D-02
 -0.24439466D-04  0.59491480D-03  0.11101990D-02  0.19282828D-02  0.31233903D-02
  0.48247240D-02  0.68783690D-02  0.89465112D-02  0.95345693D-02  0.70715918D-02
 -0.22011239D-03 -0.64064938D-02 -0.62761527D-02  0.29313355D-02 -0.29614394D-02
 -0.11080473D-02 -0.37323409D-03  0.12202775D-01  0.16009376D-01  0.17559845D-01
  0.14448519D-01  0.76175449D-02  0.19817251D-02 -0.21929809D-05  0.49399046D-02
  0.64808859D-02  0.71085440D-02  0.58490227D-02  0.30837204D-02  0.80223830D-03
 -0.88775847D-06 -0.26854671D-15 -0.35231866D-15 -0.38643987D-15 -0.31796885D-15
 -0.16763946D-15 -0.43611865D-16  0.48260975D-19 -0.10593345D-01 -0.13909127D-01
 -0.15648706D-01 -0.13185218D-01 -0.73756259D-02 -0.18357783D-02  0.84197637D-03
 -0.41425286D-02 -0.54391652D-02 -0.61194276D-02 -0.51560804D-02 -0.28842391D-02
 -0.71788124D-03  0.32925493D-03  0.21341620D-15  0.28021676D-15  0.31526275D-15
  0.26563271D-15  0.14859121D-15  0.36984050D-16 -0.16962667D-16 -0.43386445D-03
 -0.10280377D-03  0.26410014D-16 -0.21107350D-03 -0.44624990D-03  0.28999284D-17
 -0.26670945D-05 -0.17965968D-04  0.81592964D-19  0.14150906D-03 -0.10474095D-03
 -0.36768112D-04 -0.22111294D-04 -0.12288858D-17 -0.16376677D-16  0.16897010D-03
  0.14441601D-03 -0.31338611D-03 -0.11747412D-03  0.56626161D-18  0.46186314D-16
 -0.18843238D-05 -0.35440777D-04  0.37325101D-04 -0.13144148D-04 -0.47781277D-17
  0.39186570D-17  0.12939564D-03  0.83912169D-04 -0.46938019D-17 -0.16108538D-03
 -0.17350580D-03  0.17005738D-17 -0.22710154D-03 -0.78230705D-04  0.12380832D-16
 -0.39926037D-17 -0.59273082D-05 -0.21939768D-04  0.11878569D-17  0.68341937D-07
  0.40271598D-04 -0.15025837D-17  0.17713583D-04  0.25547705D-04 -0.20609869D-17
 -0.14460954D-17  0.34812740D-04  0.62786210D-04  0.92578230D-04 -0.45418589D-03
  0.25610007D-03 -0.48130240D-05  0.27143928D-04 -0.12651483D-04  0.65053177D-17
  0.71705936D-03 -0.10757154D-03 -0.12362346D-17  0.22149275D-04  0.16287333D-04
  0.60547469D-17 -0.45358149D-03  0.24824210D-03  0.20533939D-03  0.16468639D-03
  0.17129359D-17  0.96059063D-17 -0.10712658D-03  0.50519034D-04  0.56607544D-04
  0.72931393D-04 -0.16507002D-17 -0.30510573D-17 -0.18979068D-04 -0.34229531D-04
 -0.50471424D-04 -0.20619312D-04  0.45655610D-03  0.38401892D-05 -0.21572791D-04
 -0.27549819D-04  0.37264404D-16  0.76573179D-04  0.20110966D-03  0.11797332D-16
  0.32855192D-04 -0.48590026D-04  0.21544365D-16  0.99866744D-04 -0.90496382D-04
 -0.93703619D-05  0.13384892D-03  0.31652929D-16 -0.54383258D-17 -0.19374975D-05
 -0.12080698D-04  0.14018195D-04  0.17301084D-04  0.86368932D-17 -0.10265129D-16
 -0.53171955D-05 -0.95897810D-05 -0.14140127D-04 -0.99022635D-04  0.34956304D-04
  0.86363706D-05  0.28403105D-04 -0.20630472D-04  0.30786251D-04 -0.70804087D-04
  0.20724467D-03 -0.64943532D-04  0.35267955D-04 -0.12906023D-04 -0.16249390D-04
  0.36429132D-04 -0.11443733D-03  0.78008201D-04 -0.37595063D-04  0.93168520D-04
 -0.94597094D-04  0.14975996D-04 -0.15283834D-04  0.30783763D-06 -0.99817249D-05
 -0.13416702D-04  0.21344083D-06 -0.53171955D-05 -0.95897810D-05 -0.14140127D-04
 -0.99022635D-04  0.34956304D-04  0.86363706D-05  0.28403105D-04 -0.20630472D-04
 -0.30786251D-04 -0.70804087D-04  0.20724467D-03  0.64943532D-04  0.35267955D-04
 -0.12906023D-04  0.16249390D-04  0.36429132D-04 -0.11443733D-03  0.78008201D-04
 -0.37595063D-04 -0.93168520D-04  0.94597094D-04  0.14975996D-04 -0.15283834D-04
  0.30783763D-06 -0.99817249D-05  0.13416702D-04 -0.21344083D-06
MO    2     MO 0.0        OCC NO =    2.0000000  ORB. ENERGY =  -10.568642
  0.32967783D+00  0.61459443D+00  0.10387729D+01  0.15616159D+01  0.19186255D+01
  0.16205860D+01  0.61122540D+00 -0.30249886D-02 -0.26307071D-02 -0.49255137D-02
 -0.83861085D-02 -0.12972035D-01 -0.17083713D-01 -0.17751072D-01 -0.11280010D-01
  0.75596002D-02  0.32170894D-01  0.17444976D-03 -0.46504209D-03 -0.48075893D-04
 -0.45074206D-04 -0.32095520D-04 -0.22952413D-02 -0.21519347D-02 -0.15323057D-02
  0.27779362D-13  0.26044918D-13  0.18545533D-13 -0.11857551D-03  0.39157173D-02
 -0.10424199D-12  0.30846585D-04  0.15490094D-02 -0.45078172D-13  0.41930801D-05
  0.56137259D-04 -0.44768777D-15  0.48110858D-03 -0.10884874D-02  0.60737883D-03
  0.25497604D-03 -0.22675522D-13 -0.20954789D-13  0.74280036D-03 -0.16133999D-02
  0.87059952D-03  0.29169846D-03 -0.62846452D-13 -0.43661100D-13  0.68687593D-04
 -0.12934954D-03  0.60661948D-04  0.22417750D-05 -0.61954448D-14 -0.24456697D-14
 -0.11336459D-02 -0.54140031D-03 -0.22466287D-14  0.17833046D-03  0.58895397D-03
  0.13402582D-14  0.32226073D-02  0.10352469D-02  0.53996280D-14 -0.36680469D-13
  0.12231227D-03  0.27541033D-03 -0.82797484D-16 -0.52756105D-04 -0.37433601D-03
  0.66076941D-16 -0.31418070D-03 -0.45189497D-03  0.18231551D-15 -0.12616527D-13
  0.41982805D-04  0.78484415D-04  0.13564557D-03  0.21940063D-03  0.33161120D-03
  0.45668304D-03  0.53375659D-03  0.46120596D-03  0.21510810D-03  0.29207033D-04
  0.78209239D-07  0.15341420D-06  0.70039989D-08 -0.65039843D-04 -0.12146468D-03
 -0.21069928D-03 -0.34164159D-03 -0.52599612D-03 -0.74913663D-03 -0.96329246D-03
 -0.10111704D-02 -0.71496915D-03  0.15833291D-04  0.51371457D-03  0.28286519D-03
 -0.11962321D-05  0.28763658D-04  0.53677240D-04  0.93230941D-04  0.15101344D-03
  0.23327157D-03  0.33256367D-03  0.43255670D-03  0.46098885D-03  0.34190584D-03
 -0.10642259D-04 -0.30974888D-03 -0.30344699D-03  0.14172774D-03 -0.81702245D-03
  0.36191342D-02  0.10265016D-02  0.20478732D-02  0.26866981D-02  0.29468983D-02
  0.24247546D-02  0.12783786D-02  0.33257368D-03 -0.36802669D-06  0.36804881D-01
  0.48285999D-01  0.52962381D-01  0.43578287D-01  0.22975335D-01  0.59770961D-02
 -0.66142663D-05 -0.81213369D-15 -0.10654752D-14 -0.11686639D-14 -0.96159516D-15
 -0.50697198D-15 -0.13189015D-15  0.14594990D-18 -0.18458114D-02 -0.24235616D-02
 -0.27266702D-02 -0.22974258D-02 -0.12851478D-02 -0.31987067D-03  0.14670810D-03
 -0.33374129D-01 -0.43820434D-01 -0.49300943D-01 -0.41539772D-01 -0.23236766D-01
 -0.57835838D-02  0.26526302D-02  0.22016888D-14  0.28908308D-14  0.32523795D-14
  0.27403757D-14  0.15329277D-14  0.38154259D-15 -0.17499382D-15 -0.94182545D-04
 -0.15179220D-02 -0.69052896D-15 -0.73066278D-04  0.16725138D-02  0.62590650D-16
 -0.12445088D-04  0.57526031D-04 -0.11677233D-15 -0.38724739D-03  0.84793179D-03
 -0.46068440D-03  0.19609163D-03 -0.10890234D-14 -0.31561973D-15 -0.12946053D-03
  0.28801884D-03 -0.15855831D-03 -0.16096831D-03  0.12753900D-14 -0.31359747D-14
 -0.75171107D-04  0.12313945D-03 -0.47968338D-04  0.39450157D-04  0.54197674D-15
 -0.74388924D-16  0.52749389D-04  0.22588897D-03  0.78959236D-15 -0.95335975D-04
 -0.27233648D-03  0.65628773D-17 -0.62912191D-04 -0.40533042D-03 -0.23753400D-14
  0.67018566D-15 -0.27227147D-04  0.52010624D-04  0.92477258D-18  0.59705975D-04
 -0.48843500D-04  0.93635636D-16  0.21975467D-04 -0.10718837D-03 -0.96409954D-16
 -0.40778944D-15  0.42000421D-04  0.75749488D-04  0.11169258D-03 -0.43774117D-04
  0.33745595D-03  0.51026998D-04 -0.12032230D-04  0.19281801D-03 -0.69393999D-15
  0.92601640D-04 -0.28738688D-03  0.54674043D-15 -0.71939670D-04 -0.34745022D-04
 -0.22367650D-15 -0.47604741D-04 -0.12808056D-03  0.17568530D-03  0.56255988D-03
 -0.66935050D-15 -0.15944076D-14  0.25529166D-04 -0.35160069D-04  0.96309031D-05
  0.11266931D-04 -0.10338243D-15  0.10617655D-14  0.78419564D-04  0.14143291D-03
  0.20854275D-03 -0.13875929D-02 -0.12583175D-02 -0.24239789D-04 -0.15970594D-02
  0.35323611D-03  0.40084552D-14 -0.24735685D-02  0.11659618D-02 -0.14414064D-13
 -0.32115631D-03  0.24600081D-03 -0.50622940D-14 -0.24632587D-02  0.10969143D-02
  0.13663444D-02  0.24802636D-02 -0.45035041D-14  0.24280251D-14 -0.23768908D-03
  0.76271928D-04  0.16141715D-03  0.41872171D-03 -0.49061464D-14  0.15519343D-14
  0.98288900D-04  0.17726808D-03  0.26138168D-03 -0.16440074D-02 -0.14129346D-02
 -0.44445136D-04  0.74727111D-03  0.49317255D-03  0.13673051D-02  0.11725450D-02
  0.14472612D-02  0.22633771D-02  0.14682765D-03  0.30463030D-03  0.29830005D-03
  0.65484792D-03  0.82140455D-03 -0.14762525D-02 -0.14986546D-02 -0.30299143D-02
 -0.27488178D-02  0.91241186D-04  0.32601321D-04 -0.12384251D-03 -0.22236994D-03
 -0.30894541D-03 -0.40032482D-03  0.98288900D-04  0.17726808D-03  0.26138168D-03
 -0.16440074D-02 -0.14129346D-02 -0.44445136D-04  0.74727111D-03  0.49317255D-03
 -0.13673051D-02  0.11725450D-02  0.14472612D-02 -0.22633771D-02  0.14682765D-03
  0.30463030D-03 -0.29830005D-03  0.65484792D-03  0.82140455D-03 -0.14762525D-02
 -0.14986546D-02  0.30299143D-02  0.27488178D-02  0.91241186D-04  0.32601321D-04
 -0.12384251D-03 -0.22236994D-03  0.30894541D-03  0.40032482D-03
MO    3     MO 0.0        OCC NO =    2.0000000  ORB. ENERGY =   -8.263650
 -0.10362894D-03 -0.19318790D-03 -0.32652158D-03 -0.49086890D-03 -0.60308916D-03
 -0.50940520D-03 -0.19212890D-03  0.95085665D-06  0.54419611D-04  0.10189068D-03
  0.17347760D-03  0.26834348D-03  0.35339892D-03  0.36720411D-03  0.23334173D-03
 -0.15638020D-03 -0.26242032D-03 -0.88903279D-03 -0.32348623D-03 -0.27840169D-04
 -0.26101928D-04 -0.18586128D-04  0.94205507D-04  0.88323651D-04  0.62891701D-04
  0.41487026D-15  0.38896724D-15  0.27696785D-15  0.17942645D-04  0.34631921D-03
 -0.33935887D-14 -0.76217348D-03  0.12480846D-02  0.15759590D-14 -0.67499026D-05
  0.41621990D-04  0.29244223D-15  0.14918996D-03 -0.28648073D-03  0.13729078D-03
 -0.45294098D-04 -0.82132899D-15 -0.17325287D-14 -0.17996084D-03  0.42880330D-03
 -0.24884246D-03 -0.69758837D-04 -0.26819691D-14  0.67668145D-15  0.14612469D-03
 -0.97540439D-04 -0.48584249D-04  0.55645081D-04 -0.39624874D-15  0.16041721D-14
 -0.21693608D-04 -0.95903404D-04 -0.21151319D-15  0.62745444D-04  0.23799135D-03
 -0.12102747D-15  0.23353794D-05  0.49718860D-04  0.75556705D-15 -0.31253584D-15
  0.42551388D-04 -0.14802803D-03 -0.28184593D-16 -0.70259345D-05  0.18915325D-03
  0.86858090D-16 -0.12062823D-03  0.25493083D-03 -0.23043101D-17 -0.79303923D-15
 -0.44563942D-02 -0.83309699D-02 -0.14398517D-01 -0.23288955D-01 -0.35199892D-01
 -0.48476028D-01 -0.56657237D-01 -0.48956128D-01 -0.22833312D-01 -0.31002705D-02
 -0.83017606D-05 -0.16284622D-04 -0.74346104D-06 -0.15439103D+00 -0.28833182D+00
 -0.50015616D+00 -0.81098592D+00 -0.12486052D+01 -0.17782942D+01 -0.22866555D+01
 -0.24003078D+01 -0.16971877D+01  0.37584933D-01  0.12194513D+01  0.67146299D+00
 -0.28396056D-02 -0.26897800D-02 -0.50195274D-02 -0.87183183D-02 -0.14121741D-01
 -0.21813957D-01 -0.31099074D-01 -0.40449737D-01 -0.43108516D-01 -0.31972689D-01
  0.99519110D-03  0.28965591D-01  0.28376282D-01 -0.13253407D-01  0.59259719D-01
  0.61022048D-02  0.14936289D-02  0.13735096D-01  0.18019698D-01  0.19764862D-01
  0.16262842D-01  0.85740918D-02  0.22305734D-02 -0.24683569D-05  0.29571487D-01
  0.38796181D-01  0.42553497D-01  0.35013692D-01  0.18459911D-01  0.48023963D-02
 -0.53143411D-05 -0.29363147D-14 -0.38522850D-14 -0.42253694D-14 -0.34767009D-14
 -0.18329855D-14 -0.47685619D-15  0.52768999D-18  0.32623235D-01  0.42834506D-01
  0.48191707D-01  0.40605157D-01  0.22713956D-01  0.56534573D-02 -0.25929479D-02
  0.15551058D-01  0.20418634D-01  0.22972340D-01  0.19355934D-01  0.10827438D-01
  0.26949272D-02 -0.12360235D-02  0.19239240D-14  0.25261239D-14  0.28420597D-14
  0.23946502D-14  0.13395338D-14  0.33340722D-15 -0.15291662D-15  0.24272710D-02
  0.15823833D-02  0.12300188D-15  0.12247347D-02  0.16373925D-02  0.13443019D-14
  0.18968354D-04  0.62088505D-04 -0.49790784D-16 -0.37558216D-03  0.24440057D-03
  0.13118159D-03  0.13939388D-03  0.27051335D-16  0.40951013D-15 -0.41165478D-04
  0.87101609D-05  0.32455317D-04 -0.22008302D-03 -0.91391147D-16 -0.42854951D-15
  0.42138811D-04  0.11707669D-03 -0.15921550D-03  0.42880976D-04 -0.64651985D-16
  0.26278802D-15 -0.34486977D-03 -0.26407261D-03 -0.30520572D-16  0.43918523D-03
  0.52239413D-03 -0.48815631D-16  0.59542406D-03  0.26982371D-03  0.14037735D-15
  0.29371796D-15  0.29462107D-04  0.73006395D-04 -0.12972623D-16 -0.93167149D-05
 -0.13354793D-03 -0.12614748D-16 -0.79069606D-04 -0.85471258D-04  0.51532618D-16
 -0.18802944D-15 -0.28660018D-05 -0.51689523D-05 -0.76216171D-05  0.91510970D-03
 -0.20636147D-02 -0.10724832D-04 -0.98289469D-06  0.80613757D-04 -0.37257529D-17
 -0.19639827D-02  0.23062215D-03  0.32895382D-17  0.12667013D-03 -0.98868500D-04
 -0.15461863D-16  0.72175734D-03 -0.43440436D-03 -0.28735298D-03 -0.27785072D-03
 -0.13436839D-15  0.16268077D-16  0.36890345D-03 -0.16974141D-03 -0.19916204D-03
 -0.23380022D-03  0.54685171D-16  0.49848896D-16  0.51535047D-04  0.92945580D-04
  0.13704820D-03 -0.44229343D-03 -0.22732400D-02 -0.25311783D-04 -0.97220168D-05
  0.12812680D-03  0.11073528D-14 -0.29823361D-03 -0.39539913D-03 -0.21187372D-14
 -0.18214094D-03  0.24523807D-03 -0.11783015D-14 -0.21191612D-03  0.14242910D-03
  0.69487020D-04 -0.15439790D-03 -0.48645507D-15  0.65035331D-15  0.37859412D-04
 -0.19196232D-05 -0.35939789D-04 -0.49130240D-04 -0.72523003D-15 -0.45714153D-15
  0.14651838D-04  0.26425193D-04  0.38963932D-04  0.30461416D-05 -0.15579034D-03
 -0.23440713D-04 -0.89063613D-04  0.31429552D-04 -0.65606045D-04  0.21743354D-03
 -0.38306073D-03  0.22798124D-03 -0.14402324D-03  0.67984752D-04  0.63618689D-04
 -0.29040801D-04  0.19345318D-03 -0.16441238D-03  0.29921632D-04 -0.22288569D-03
  0.83750785D-04 -0.27812311D-04  0.52894918D-05  0.22522819D-04  0.30822752D-04
  0.51891768D-04 -0.28232611D-04  0.14651838D-04  0.26425193D-04  0.38963932D-04
  0.30461416D-05 -0.15579034D-03 -0.23440713D-04 -0.89063613D-04  0.31429552D-04
  0.65606045D-04  0.21743354D-03 -0.38306073D-03 -0.22798124D-03 -0.14402324D-03
  0.67984752D-04 -0.63618689D-04 -0.29040801D-04  0.19345318D-03 -0.16441238D-03
  0.29921632D-04  0.22288569D-03 -0.83750785D-04 -0.27812311D-04  0.52894918D-05
  0.22522819D-04  0.30822752D-04 -0.51891768D-04  0.28232611D-04
MO    4     MO 0.0        OCC NO =    2.0000000  ORB. ENERGY =   -6.183605
  0.62620328D-04  0.11673853D-03  0.19730868D-03  0.29661957D-03  0.36443142D-03
  0.30782059D-03  0.11609860D-03 -0.57457846D-06 -0.77213011D-04 -0.14456712D-03
 -0.24613789D-03 -0.38073789D-03 -0.50141840D-03 -0.52100584D-03 -0.33107582D-03
  0.22187932D-03  0.23248429D-03 -0.85721095D-04 -0.19616158D-03  0.83324537D-04
  0.78122050D-04  0.55627554D-04 -0.81125811D-03 -0.76060605D-03 -0.54159682D-03
 -0.19805383D-15 -0.18568805D-15 -0.13222095D-15 -0.10647445D-03 -0.25068789D-03
 -0.11261328D-14 -0.46547725D-03  0.45451532D-03  0.26103648D-15  0.37057059D-05
  0.57097825D-05 -0.29098649D-16 -0.53129972D-03  0.92351887D-03 -0.39221915D-03
  0.23830889D-04 -0.40349860D-15 -0.19810609D-15  0.65657967D-03 -0.10467005D-02
  0.39012087D-03  0.57255466D-04 -0.22516741D-15 -0.50013042D-15  0.91978856D-04
 -0.55346972D-04 -0.36631885D-04 -0.30127988D-05  0.20777100D-15 -0.17741578D-15
 -0.61339914D-04  0.41431855D-03 -0.23150735D-16  0.40896742D-04 -0.54419015D-03
  0.71752767D-16  0.14312300D-03 -0.69876550D-03 -0.23005617D-17 -0.25189073D-15
 -0.96114128D-04  0.14187848D-03 -0.15579730D-16 -0.32228002D-04 -0.22576287D-03
  0.31122227D-16  0.32057038D-03 -0.19987258D-03  0.15616963D-16 -0.46386656D-16
 -0.28302209D-04 -0.52909335D-04 -0.91443851D-04 -0.14790633D-03 -0.22355175D-03
 -0.30786744D-03 -0.35982566D-03 -0.31091652D-03 -0.14501257D-03 -0.19689574D-04
 -0.52723829D-07 -0.10342236D-06 -0.47216626D-08  0.83281382D-04  0.15553153D-03
  0.26979350D-03  0.43746083D-03  0.67352076D-03  0.95924484D-03  0.12334644D-02
  0.12947705D-02  0.91549451D-03 -0.20274009D-04 -0.65779464D-03 -0.36219958D-03
  0.15317359D-05 -0.21773620D-04 -0.40632796D-04 -0.70574303D-04 -0.11431471D-03
 -0.17658278D-03 -0.25174528D-03 -0.32743838D-03 -0.34896104D-03 -0.25881715D-03
  0.80560168D-05  0.23447485D-03  0.22970443D-03 -0.10728559D-03  0.31736071D-03
 -0.14783199D-02 -0.88597217D-05 -0.64272853D+01 -0.84322483D+01 -0.92488911D+01
 -0.76101342D+01 -0.40122133D+01 -0.10437883D+01  0.11550581D-02  0.72940441D+01
  0.95693886D+01  0.10496161D+02  0.86364074D+01  0.45532848D+01  0.11845495D+01
 -0.13108248D-02  0.22661500D-12  0.29730654D-12  0.32609996D-12  0.26832022D-12
  0.14146373D-12  0.36802175D-13 -0.40725359D-16  0.21249319D-01  0.27900485D-01
  0.31389927D-01  0.26448387D-01  0.14794857D-01  0.36824098D-02 -0.16889306D-02
 -0.11188744D-01 -0.14690889D-01 -0.16528241D-01 -0.13926293D-01 -0.77901729D-02
 -0.19389582D-02  0.88929964D-03  0.11407204D-14  0.14977728D-14  0.16850954D-14
  0.14198203D-14  0.79422756D-15  0.19768162D-15 -0.90666317D-16 -0.50512003D-01
  0.58074190D-01  0.18529014D-14 -0.91155124D-03  0.80023575D-03 -0.18052633D-15
 -0.44278351D-05  0.15208283D-04  0.57886102D-17 -0.65414923D-03  0.48745209D-03
  0.16669714D-03  0.29823554D-03 -0.19691031D-16 -0.18066119D-15 -0.17489336D-02
  0.16379020D-02  0.11103161D-03  0.29284927D-03  0.29204159D-16  0.25907900D-15
 -0.76594100D-04  0.67653788D-04  0.89403112D-05  0.33504108D-04 -0.18311450D-16
 -0.24479399D-16 -0.41059235D-03  0.16582938D-03 -0.27055529D-17  0.41201454D-03
  0.17857452D-03  0.25787459D-16  0.81976252D-03 -0.67606267D-03 -0.17670801D-16
  0.15056688D-16 -0.33427566D-04  0.30713793D-05  0.93658715D-17  0.88927942D-04
 -0.32435040D-04  0.69390597D-18  0.11354756D-04  0.23220902D-04 -0.28791521D-16
 -0.13406801D-16 -0.24461573D-03 -0.44117455D-03 -0.65051161D-03  0.23482325D-02
  0.23310764D-02  0.42699118D-04 -0.33807762D-03 -0.72388490D-05  0.25232291D-16
 -0.22738116D-02  0.38509157D-03 -0.10066195D-16 -0.52312336D-03  0.47140281D-04
  0.23760287D-16  0.17794124D-02 -0.84844323D-03 -0.93096918D-03 -0.38641353D-03
  0.11189038D-16  0.46340451D-16  0.19721671D-03 -0.11508008D-03 -0.82136628D-04
 -0.11836566D-03 -0.82223133D-17 -0.96481311D-17 -0.40551120D-04 -0.73135615D-04
 -0.10783842D-03 -0.82512055D-03 -0.14471722D-02  0.17018682D-04 -0.11069967D-03
  0.13051151D-03  0.75371944D-16  0.68476549D-04  0.74267625D-03 -0.56716173D-16
 -0.19446054D-03  0.14731780D-03  0.26032164D-15  0.33781385D-03 -0.29990673D-03
 -0.37907120D-04  0.50595461D-03  0.50756954D-16 -0.27876183D-16  0.22966878D-04
 -0.70486358D-04  0.47519480D-04  0.49460501D-04  0.20978636D-16  0.52492265D-16
 -0.21851792D-04 -0.39410607D-04 -0.58110917D-04 -0.20827433D-03  0.19502438D-03
 -0.91505754D-05 -0.43537678D-04 -0.11693059D-03 -0.30320907D-04 -0.18710495D-03
  0.74882687D-03 -0.17453907D-03 -0.10760579D-03  0.97143750D-04  0.31936413D-04
  0.12394986D-03 -0.34102235D-03  0.21707249D-03 -0.13526636D-03  0.27452230D-03
 -0.31283119D-03  0.72859368D-04 -0.11923807D-03  0.46378700D-04 -0.27510128D-04
  0.90049364D-06 -0.11401524D-03 -0.21851792D-04 -0.39410607D-04 -0.58110917D-04
 -0.20827433D-03  0.19502438D-03 -0.91505754D-05 -0.43537678D-04 -0.11693059D-03
  0.30320907D-04 -0.18710495D-03  0.74882687D-03  0.17453907D-03 -0.10760579D-03
  0.97143750D-04 -0.31936413D-04  0.12394986D-03 -0.34102235D-03  0.21707249D-03
 -0.13526636D-03 -0.27452230D-03  0.31283119D-03  0.72859368D-04 -0.11923807D-03
  0.46378700D-04 -0.27510128D-04 -0.90049364D-06  0.11401524D-03
MO    5     MO 0.0        OCC NO =    2.0000000  ORB. ENERGY =   -6.181521
  0.68032244D-04  0.12682757D-03  0.21436094D-03  0.32225470D-03  0.39592714D-03
  0.33442376D-03  0.12613234D-03 -0.62423598D-06 -0.77693360D-04 -0.14546648D-03
 -0.24766913D-03 -0.38310649D-03 -0.50453777D-03 -0.52424706D-03 -0.33313547D-03
  0.22325965D-03  0.21308645D-03 -0.26987644D-04 -0.32880782D-03  0.16077722D-04
  0.15073886D-04  0.10733505D-04 -0.67639905D-03 -0.63416711D-03 -0.45156476D-03
 -0.92723296D-15 -0.86933984D-15 -0.61902175D-15 -0.71994926D-04 -0.36489205D-03
  0.29295576D-14  0.40446834D-03  0.42433574D-03  0.50407990D-14  0.50447505D-05
  0.28907220D-04  0.53837889D-16 -0.31633764D-03  0.74222967D-03 -0.42589203D-03
  0.27587771D-04  0.61503431D-16  0.32507815D-15  0.41446989D-03 -0.85233178D-03
  0.43786189D-03 -0.29124496D-03  0.24582758D-14  0.14094982D-14 -0.18820505D-04
 -0.54310513D-04  0.73131018D-04 -0.25353802D-04  0.90989864D-15  0.10057173D-15
 -0.37469479D-04  0.35358443D-03  0.95622022D-16 -0.36255942D-04 -0.51089303D-03