 Molden2AIM, Version 4.0.0 (06/02/2016)           Time: Thu Jun 28 06:23:21 2018
GAUSSIAN             13 MOL ORBITALS    368 PRIMITIVES        8 NUCLEI
  C    1    (CENTRE  1)  -0.00000567  0.00000000 -2.35967645  CHARGE =  6.0
  Si   2    (CENTRE  2)  -0.00001323  0.00000000  1.20537315  CHARGE = 14.0
  H    3    (CENTRE  3)  -1.94134210  0.00000000 -3.09774678  CHARGE =  1.0
  H    4    (CENTRE  4)   0.97067672  1.68125532 -3.09771087  CHARGE =  1.0
  H    5    (CENTRE  5)   0.97067672 -1.68125532 -3.09771087  CHARGE =  1.0
  H    6    (CENTRE  6)   2.65185078  0.00000000  2.20256839  CHARGE =  1.0
  H    7    (CENTRE  7)  -1.32593011  2.29657471  2.20260241  CHARGE =  1.0
  H    8    (CENTRE  8)  -1.32593011 -2.29657471  2.20260241  CHARGE =  1.0
CENTRE ASSIGNMENTS    1  1  1  1  1  1  1  1  1  1  1  1  1  1  1  1  1  1  1  1
CENTRE ASSIGNMENTS    1  1  1  1  1  1  1  1  1  1  1  1  1  1  1  1  1  1  1  1
CENTRE ASSIGNMENTS    1  1  1  1  1  1  1  1  1  1  1  1  1  1  1  1  1  1  1  1
CENTRE ASSIGNMENTS    1  1  1  1  1  1  1  1  1  1  1  1  1  1  1  2  2  2  2  2
CENTRE ASSIGNMENTS    2  2  2  2  2  2  2  2  2  2  2  2  2  2  2  2  2  2  2  2
CENTRE ASSIGNMENTS    2  2  2  2  2  2  2  2  2  2  2  2  2  2  2  2  2  2  2  2
CENTRE ASSIGNMENTS    2  2  2  2  2  2  2  2  2  2  2  2  2  2  2  2  2  2  2  2
CENTRE ASSIGNMENTS    2  2  2  2  2  2  2  2  2  2  2  2  2  2  2  2  2  2  2  2
CENTRE ASSIGNMENTS    2  2  2  2  2  2  2  2  2  2  2  2  2  2  2  2  2  2  2  2
CENTRE ASSIGNMENTS    2  2  2  2  2  2  2  2  2  2  2  2  2  2  2  2  2  2  2  2
CENTRE ASSIGNMENTS    2  2  2  2  2  2  3  3  3  3  3  3  3  3  3  3  3  3  3  3
CENTRE ASSIGNMENTS    3  3  3  3  3  3  3  3  3  3  3  3  3  4  4  4  4  4  4  4
CENTRE ASSIGNMENTS    4  4  4  4  4  4  4  4  4  4  4  4  4  4  4  4  4  4  4  4
CENTRE ASSIGNMENTS    5  5  5  5  5  5  5  5  5  5  5  5  5  5  5  5  5  5  5  5
CENTRE ASSIGNMENTS    5  5  5  5  5  5  5  6  6  6  6  6  6  6  6  6  6  6  6  6
CENTRE ASSIGNMENTS    6  6  6  6  6  6  6  6  6  6  6  6  6  6  7  7  7  7  7  7
CENTRE ASSIGNMENTS    7  7  7  7  7  7  7  7  7  7  7  7  7  7  7  7  7  7  7  7
CENTRE ASSIGNMENTS    7  8  8  8  8  8  8  8  8  8  8  8  8  8  8  8  8  8  8  8
CENTRE ASSIGNMENTS    8  8  8  8  8  8  8  8
TYPE ASSIGNMENTS      1  1  1  1  1  1  1  1  1  1  1  1  1  1  1  1  1  1  1  2
TYPE ASSIGNMENTS      2  2  3  3  3  4  4  4  2  3  4  2  3  4  2  3  4  5  6  7
TYPE ASSIGNMENTS      8  9 10  5  6  7  8  9 10  5  6  7  8  9 10 11 12 13 17 14
TYPE ASSIGNMENTS     15 18 19 16 20 11 12 13 17 14 15 18 19 16 20  1  1  1  1  1
TYPE ASSIGNMENTS      1  1  1  1  1  1  1  1  1  1  1  1  1  1  1  1  1  1  1  1
TYPE ASSIGNMENTS      1  1  1  1  1  1  1  1  1  1  1  1  1  1  1  1  1  2  2  2
TYPE ASSIGNMENTS      2  2  2  2  3  3  3  3  3  3  3  4  4  4  4  4  4  4  2  2
TYPE ASSIGNMENTS      2  2  2  2  2  3  3  3  3  3  3  3  4  4  4  4  4  4  4  2
TYPE ASSIGNMENTS      3  4  2  3  4  2  3  4  5  6  7  8  9 10  5  6  7  8  9 10
TYPE ASSIGNMENTS      5  6  7  8  9 10 11 12 13 17 14 15 18 19 16 20 11 12 13 17
TYPE ASSIGNMENTS     14 15 18 19 16 20  1  1  1  1  1  1  2  3  4  2  3  4  2  3
TYPE ASSIGNMENTS      4  5  6  7  8  9 10  5  6  7  8  9 10  1  1  1  1  1  1  2
TYPE ASSIGNMENTS      3  4  2  3  4  2  3  4  5  6  7  8  9 10  5  6  7  8  9 10
TYPE ASSIGNMENTS      1  1  1  1  1  1  2  3  4  2  3  4  2  3  4  5  6  7  8  9
TYPE ASSIGNMENTS     10  5  6  7  8  9 10  1  1  1  1  1  1  2  3  4  2  3  4  2
TYPE ASSIGNMENTS      3  4  5  6  7  8  9 10  5  6  7  8  9 10  1  1  1  1  1  1
TYPE ASSIGNMENTS      2  3  4  2  3  4  2  3  4  5  6  7  8  9 10  5  6  7  8  9
TYPE ASSIGNMENTS     10  1  1  1  1  1  1  2  3  4  2  3  4  2  3  4  5  6  7  8
TYPE ASSIGNMENTS      9 10  5  6  7  8  9 10
EXPONENTS  0.8236000D+04 0.1235000D+04 0.2808000D+03 0.7927000D+02 0.2559000D+02
EXPONENTS  0.8997000D+01 0.3319000D+01 0.3643000D+00 0.8236000D+04 0.1235000D+04
EXPONENTS  0.2808000D+03 0.7927000D+02 0.2559000D+02 0.8997000D+01 0.3319000D+01
EXPONENTS  0.3643000D+00 0.9059000D+00 0.1285000D+00 0.4402000D-01 0.1871000D+02
EXPONENTS  0.4133000D+01 0.1200000D+01 0.1871000D+02 0.4133000D+01 0.1200000D+01
EXPONENTS  0.1871000D+02 0.4133000D+01 0.1200000D+01 0.3827000D+00 0.3827000D+00
EXPONENTS  0.3827000D+00 0.1209000D+00 0.1209000D+00 0.1209000D+00 0.3569000D-01
EXPONENTS  0.3569000D-01 0.3569000D-01 0.1097000D+01 0.1097000D+01 0.1097000D+01
EXPONENTS  0.1097000D+01 0.1097000D+01 0.1097000D+01 0.3180000D+00 0.3180000D+00
EXPONENTS  0.3180000D+00 0.3180000D+00 0.3180000D+00 0.3180000D+00 0.1000000D+00
EXPONENTS  0.1000000D+00 0.1000000D+00 0.1000000D+00 0.1000000D+00 0.1000000D+00
EXPONENTS  0.7610000D+00 0.7610000D+00 0.7610000D+00 0.7610000D+00 0.7610000D+00
EXPONENTS  0.7610000D+00 0.7610000D+00 0.7610000D+00 0.7610000D+00 0.7610000D+00
EXPONENTS  0.2680000D+00 0.2680000D+00 0.2680000D+00 0.2680000D+00 0.2680000D+00
EXPONENTS  0.2680000D+00 0.2680000D+00 0.2680000D+00 0.2680000D+00 0.2680000D+00
EXPONENTS  0.2549000D+06 0.3819000D+05 0.8690000D+04 0.2462000D+04 0.8048000D+03
EXPONENTS  0.2913000D+03 0.1136000D+03 0.4675000D+02 0.1982000D+02 0.7708000D+01
EXPONENTS  0.3340000D+01 0.1402000D+01 0.2070000D+00 0.2549000D+06 0.3819000D+05
EXPONENTS  0.8690000D+04 0.2462000D+04 0.8048000D+03 0.2913000D+03 0.1136000D+03
EXPONENTS  0.4675000D+02 0.1982000D+02 0.7708000D+01 0.3340000D+01 0.1402000D+01
EXPONENTS  0.2070000D+00 0.2549000D+06 0.3819000D+05 0.8690000D+04 0.2462000D+04
EXPONENTS  0.8048000D+03 0.2913000D+03 0.1136000D+03 0.4675000D+02 0.1982000D+02
EXPONENTS  0.7708000D+01 0.3340000D+01 0.1402000D+01 0.2070000D+00 0.4387000D+00
EXPONENTS  0.7944000D-01 0.3300000D-01 0.4815000D+03 0.1139000D+03 0.3623000D+02
EXPONENTS  0.1334000D+02 0.5252000D+01 0.2120000D+01 0.2528000D+00 0.4815000D+03
EXPONENTS  0.1139000D+03 0.3623000D+02 0.1334000D+02 0.5252000D+01 0.2120000D+01
EXPONENTS  0.2528000D+00 0.4815000D+03 0.1139000D+03 0.3623000D+02 0.1334000D+02
EXPONENTS  0.5252000D+01 0.2120000D+01 0.2528000D+00 0.4815000D+03 0.1139000D+03
EXPONENTS  0.3623000D+02 0.1334000D+02 0.5252000D+01 0.2120000D+01 0.2528000D+00
EXPONENTS  0.4815000D+03 0.1139000D+03 0.3623000D+02 0.1334000D+02 0.5252000D+01
EXPONENTS  0.2120000D+01 0.2528000D+00 0.4815000D+03 0.1139000D+03 0.3623000D+02
EXPONENTS  0.1334000D+02 0.5252000D+01 0.2120000D+01 0.2528000D+00 0.8561000D+00
EXPONENTS  0.8561000D+00 0.8561000D+00 0.7889000D-01 0.7889000D-01 0.7889000D-01
EXPONENTS  0.2370000D-01 0.2370000D-01 0.2370000D-01 0.1590000D+00 0.1590000D+00
EXPONENTS  0.1590000D+00 0.1590000D+00 0.1590000D+00 0.1590000D+00 0.4810000D+00
EXPONENTS  0.4810000D+00 0.4810000D+00 0.4810000D+00 0.4810000D+00 0.4810000D+00
EXPONENTS  0.5560000D-01 0.5560000D-01 0.5560000D-01 0.5560000D-01 0.5560000D-01
EXPONENTS  0.5560000D-01 0.3360000D+00 0.3360000D+00 0.3360000D+00 0.3360000D+00
EXPONENTS  0.3360000D+00 0.3360000D+00 0.3360000D+00 0.3360000D+00 0.3360000D+00
EXPONENTS  0.3360000D+00 0.1250000D+00 0.1250000D+00 0.1250000D+00 0.1250000D+00
EXPONENTS  0.1250000D+00 0.1250000D+00 0.1250000D+00 0.1250000D+00 0.1250000D+00
EXPONENTS  0.1250000D+00 0.3387000D+02 0.5095000D+01 0.1159000D+01 0.3258000D+00
EXPONENTS  0.1027000D+00 0.2526000D-01 0.1407000D+01 0.1407000D+01 0.1407000D+01
EXPONENTS  0.3880000D+00 0.3880000D+00 0.3880000D+00 0.1020000D+00 0.1020000D+00
EXPONENTS  0.1020000D+00 0.1057000D+01 0.1057000D+01 0.1057000D+01 0.1057000D+01
EXPONENTS  0.1057000D+01 0.1057000D+01 0.2470000D+00 0.2470000D+00 0.2470000D+00
EXPONENTS  0.2470000D+00 0.2470000D+00 0.2470000D+00 0.3387000D+02 0.5095000D+01
EXPONENTS  0.1159000D+01 0.3258000D+00 0.1027000D+00 0.2526000D-01 0.1407000D+01
EXPONENTS  0.1407000D+01 0.1407000D+01 0.3880000D+00 0.3880000D+00 0.3880000D+00
EXPONENTS  0.1020000D+00 0.1020000D+00 0.1020000D+00 0.1057000D+01 0.1057000D+01
EXPONENTS  0.1057000D+01 0.1057000D+01 0.1057000D+01 0.1057000D+01 0.2470000D+00
EXPONENTS  0.2470000D+00 0.2470000D+00 0.2470000D+00 0.2470000D+00 0.2470000D+00
EXPONENTS  0.3387000D+02 0.5095000D+01 0.1159000D+01 0.3258000D+00 0.1027000D+00
EXPONENTS  0.2526000D-01 0.1407000D+01 0.1407000D+01 0.1407000D+01 0.3880000D+00
EXPONENTS  0.3880000D+00 0.3880000D+00 0.1020000D+00 0.1020000D+00 0.1020000D+00
EXPONENTS  0.1057000D+01 0.1057000D+01 0.1057000D+01 0.1057000D+01 0.1057000D+01
EXPONENTS  0.1057000D+01 0.2470000D+00 0.2470000D+00 0.2470000D+00 0.2470000D+00
EXPONENTS  0.2470000D+00 0.2470000D+00 0.3387000D+02 0.5095000D+01 0.1159000D+01
EXPONENTS  0.3258000D+00 0.1027000D+00 0.2526000D-01 0.1407000D+01 0.1407000D+01
EXPONENTS  0.1407000D+01 0.3880000D+00 0.3880000D+00 0.3880000D+00 0.1020000D+00
EXPONENTS  0.1020000D+00 0.1020000D+00 0.1057000D+01 0.1057000D+01 0.1057000D+01
EXPONENTS  0.1057000D+01 0.1057000D+01 0.1057000D+01 0.2470000D+00 0.2470000D+00
EXPONENTS  0.2470000D+00 0.2470000D+00 0.2470000D+00 0.2470000D+00 0.3387000D+02
EXPONENTS  0.5095000D+01 0.1159000D+01 0.3258000D+00 0.1027000D+00 0.2526000D-01
EXPONENTS  0.1407000D+01 0.1407000D+01 0.1407000D+01 0.3880000D+00 0.3880000D+00
EXPONENTS  0.3880000D+00 0.1020000D+00 0.1020000D+00 0.1020000D+00 0.1057000D+01
EXPONENTS  0.1057000D+01 0.1057000D+01 0.1057000D+01 0.1057000D+01 0.1057000D+01
EXPONENTS  0.2470000D+00 0.2470000D+00 0.2470000D+00 0.2470000D+00 0.2470000D+00
EXPONENTS  0.2470000D+00 0.3387000D+02 0.5095000D+01 0.1159000D+01 0.3258000D+00
EXPONENTS  0.1027000D+00 0.2526000D-01 0.1407000D+01 0.1407000D+01 0.1407000D+01
EXPONENTS  0.3880000D+00 0.3880000D+00 0.3880000D+00 0.1020000D+00 0.1020000D+00
EXPONENTS  0.1020000D+00 0.1057000D+01 0.1057000D+01 0.1057000D+01 0.1057000D+01
EXPONENTS  0.1057000D+01 0.1057000D+01 0.2470000D+00 0.2470000D+00 0.2470000D+00
EXPONENTS  0.2470000D+00 0.2470000D+00 0.2470000D+00
MO    1     MO 0.0        OCC NO =    2.0000000  ORB. ENERGY =  -67.019596
  0.93261476D-04  0.17386060D-03  0.29385503D-03  0.44176037D-03  0.54275366D-03
  0.45844223D-03  0.17290754D-03 -0.85572907D-06 -0.67451955D-04 -0.12629134D-03
 -0.21502182D-03 -0.33260606D-03 -0.43803047D-03 -0.45514172D-03 -0.28922213D-03
  0.19382995D-03  0.13258423D-03  0.18568895D-03 -0.10237950D-03 -0.20799200D-08
 -0.19500572D-08 -0.13885569D-08 -0.65233043D-15 -0.61160124D-15 -0.43549652D-15
  0.19395838D-03  0.18184831D-03  0.12948683D-03  0.23163447D-09  0.27484273D-14
 -0.77629798D-04  0.86442964D-08  0.33430482D-14  0.69321140D-03  0.29184785D-09
  0.74235957D-17 -0.15438075D-04 -0.77420177D-04 -0.77421159D-04  0.15484134D-03
  0.24712470D-15 -0.24471346D-08 -0.45773604D-15  0.12324504D-03  0.12324153D-03
 -0.24648657D-03  0.20614997D-14  0.35774967D-08 -0.13949600D-14 -0.11643543D-04
 -0.11645516D-04  0.23289059D-04  0.42148091D-15 -0.12689578D-07 -0.32170067D-15
 -0.67739056D-04  0.27402468D-16 -0.35193930D-05  0.20321645D-03  0.30368840D-16
  0.52780453D-05  0.71475647D-09 -0.11257624D-15  0.52801335D-05 -0.10226127D-14
  0.71421244D-05 -0.16427852D-16 -0.68454693D-04 -0.21430000D-04 -0.12664210D-16
  0.10268003D-03  0.36266833D-08  0.61947767D-16  0.10268405D-03 -0.44832643D-15
  0.50657343D+00  0.94757528D+00  0.16364199D+01  0.26432447D+01  0.39806722D+01
  0.54136954D+01  0.61629433D+01  0.49928293D+01  0.20266880D+01  0.18480607D+00
 -0.71021384D-02  0.23749039D-02  0.13327423D-03 -0.22596098D-02 -0.42293674D-02
 -0.73148535D-02 -0.11888972D-01 -0.18190030D-01 -0.25812910D-01 -0.32380152D-01
 -0.33014370D-01 -0.20284686D-01  0.44208813D-02  0.16193034D-01  0.74061236D-02
 -0.39312110D-04  0.12000997D-02  0.22446055D-02  0.38870484D-02  0.63111956D-02
  0.96875576D-02  0.13760743D-01  0.17457686D-01  0.18073422D-01  0.11641480D-01
 -0.28632825D-02 -0.11671621D-01 -0.10179684D-01  0.51880969D-02 -0.21182057D-02
 -0.85319432D-02  0.38238796D-03  0.22274101D-07  0.29380687D-07  0.32634726D-07
  0.27930726D-07  0.15959392D-07  0.51791707D-08  0.36468036D-11  0.42386984D-14
  0.55910616D-14  0.62102960D-14  0.53151381D-14  0.30370272D-14  0.98558152D-15
  0.69397640D-18  0.62297983D-03  0.82174250D-03  0.91275406D-03  0.78118882D-03
  0.44636502D-03  0.14485518D-03  0.10199671D-06 -0.29538333D-07 -0.40393291D-07
 -0.43911576D-07 -0.40308531D-07 -0.21969786D-07 -0.92708277D-08  0.31973960D-08
 -0.37030321D-14 -0.50638488D-14 -0.55049137D-14 -0.50532229D-14 -0.27542117D-14
 -0.11622244D-14  0.40083711D-15 -0.49622366D-03 -0.67857948D-03 -0.73768424D-03
 -0.67715556D-03 -0.36907728D-03 -0.15574352D-03  0.53714052D-04  0.68589971D-09
 -0.98000672D-16 -0.98015094D-04 -0.87798026D-08  0.56487751D-15  0.18542294D-04
  0.39318000D-09  0.32735042D-18  0.17324286D-05  0.53247119D-04  0.53246432D-04
 -0.10649355D-03 -0.19084398D-15 -0.48281526D-09  0.32021174D-15 -0.35170274D-05
 -0.35159874D-05  0.70330147D-05 -0.16246525D-15 -0.65690217D-08  0.10638088D-15
  0.12419816D-05  0.12412588D-05 -0.24832404D-05 -0.21419125D-16  0.57723748D-09
  0.10621573D-16  0.12186083D-03  0.14557411D-16 -0.13634285D-03 -0.36557684D-03
 -0.85985224D-18  0.20451061D-03 -0.56522212D-08 -0.42812382D-16  0.20451795D-03
 -0.18043281D-15 -0.27275258D-04 -0.14235117D-18  0.42458983D-04  0.81824622D-04
 -0.86544477D-18 -0.63687108D-04  0.11509888D-08  0.12924983D-17 -0.63689842D-04
 -0.44174227D-16 -0.93059087D-05 -0.16783590D-04 -0.24747393D-04  0.11463070D-03
  0.72259230D-03 -0.50175567D-05 -0.10662011D-03  0.17980165D-15 -0.38634491D-04
  0.11272647D-03  0.20438338D-15 -0.11153562D-03  0.87630760D-04  0.32002858D-15
  0.12461919D-03  0.63738159D-04  0.18427697D-04 -0.82165856D-04  0.71854625D-16
 -0.78262951D-04 -0.24453940D-16 -0.13879189D-04  0.15708608D-06  0.13722103D-04
  0.14397193D-15 -0.12545517D-04  0.17525823D-15 -0.93062730D-05 -0.16784247D-04
 -0.24748362D-04  0.11463461D-03  0.72252660D-03 -0.50186066D-05  0.53311631D-04
  0.92334109D-04 -0.38634332D-04 -0.56365777D-04 -0.97620498D-04 -0.11153540D-03
 -0.43812670D-04 -0.75875501D-04  0.12462894D-03  0.29752105D-04  0.52408983D-04
 -0.82161087D-04  0.39241006D-04  0.39128549D-04  0.67780822D-04 -0.33507520D-05
 -0.10371337D-04  0.13722089D-04 -0.12155214D-04  0.62770830D-05  0.10863049D-04
 -0.93062730D-05 -0.16784247D-04 -0.24748362D-04  0.11463461D-03  0.72252660D-03
 -0.50186066D-05  0.53311631D-04 -0.92334109D-04 -0.38634332D-04 -0.56365777D-04
  0.97620498D-04 -0.11153540D-03 -0.43812670D-04  0.75875501D-04  0.12462894D-03
  0.29752105D-04  0.52408983D-04 -0.82161087D-04 -0.39241006D-04  0.39128549D-04
 -0.67780822D-04 -0.33507520D-05 -0.10371337D-04  0.13722089D-04  0.12155214D-04
  0.62770830D-05 -0.10863049D-04  0.45531652D-04  0.82118209D-04  0.12108325D-03
 -0.55986984D-03  0.26713007D-02 -0.33531028D-04 -0.16043564D-03 -0.21772787D-16
 -0.50775635D-04  0.66649589D-03  0.56944164D-16  0.27925666D-03 -0.35788346D-03
 -0.24769384D-16 -0.15304874D-03 -0.20251633D-03  0.14547167D-03  0.57044665D-04
 -0.97533445D-16 -0.27875338D-03 -0.11871225D-17 -0.87956173D-04  0.45291885D-04
  0.42664288D-04  0.12562857D-16 -0.12720128D-03 -0.13666833D-16  0.45531181D-04
  0.82117360D-04  0.12108200D-03 -0.55986268D-03  0.26712821D-02 -0.33528344D-04
  0.80217140D-04 -0.13894118D-03 -0.50781974D-04 -0.33324399D-03  0.57720139D-03
  0.27926955D-03  0.17893977D-03 -0.30992980D-03 -0.15304893D-03  0.58475178D-04
 -0.11551785D-03  0.57042671D-04  0.30136279D-03  0.13937831D-03 -0.24141794D-03
  0.11982155D-04 -0.54643320D-04  0.42661164D-04  0.11539414D-03  0.63602484D-04
 -0.11016231D-03  0.45531181D-04  0.82117360D-04  0.12108200D-03 -0.55986268D-03
  0.26712821D-02 -0.33528344D-04  0.80217140D-04  0.13894118D-03 -0.50781974D-04
 -0.33324399D-03 -0.57720139D-03  0.27926955D-03  0.17893977D-03  0.30992980D-03
 -0.15304893D-03  0.58475178D-04 -0.11551785D-03  0.57042671D-04 -0.30136279D-03
  0.13937831D-03  0.24141794D-03  0.11982155D-04 -0.54643320D-04  0.42661164D-04
 -0.11539414D-03  0.63602484D-04  0.11016231D-03
MO    2     MO 0.0        OCC NO =    2.0000000  ORB. ENERGY =  -10.523991
  0.32964809D+00  0.61453899D+00  0.10386791D+01  0.15614750D+01  0.19184524D+01
  0.16204398D+01  0.61117026D+00 -0.30247157D-02 -0.26247074D-02 -0.49142804D-02
 -0.83669829D-02 -0.12942450D-01 -0.17044752D-01 -0.17710589D-01 -0.11254284D-01
  0.75423595D-02  0.31956813D-01  0.19074789D-02 -0.37555922D-03 -0.39990859D-08
 -0.37493973D-08 -0.26697942D-08 -0.18373720D-13 -0.17226530D-13 -0.12266316D-13
  0.10459215D-03  0.98061785D-04  0.69825833D-04  0.27144458D-06  0.72159338D-13
 -0.34810687D-02  0.63593727D-07  0.47153324D-13 -0.34993430D-03  0.22643518D-09
  0.60956221D-15 -0.38361031D-04  0.80786636D-03  0.80812403D-03 -0.16159904D-02
  0.14897764D-13 -0.32383215D-06 -0.16425409D-13  0.55914658D-03  0.55928331D-03
 -0.11184299D-02  0.47022496D-13 -0.39249273D-07 -0.25815735D-13  0.18055025D-04
  0.18057841D-04 -0.36112867D-04  0.62373177D-14 -0.13978584D-08 -0.31727348D-14
 -0.11249201D-02  0.12754334D-14  0.79308132D-03  0.33748123D-02  0.16596566D-14
 -0.11895948D-02 -0.51838879D-07 -0.54859568D-14 -0.11896492D-02 -0.25288887D-13
  0.10727674D-03  0.67339358D-16 -0.25642071D-03 -0.32183840D-03  0.66025966D-15
  0.38466034D-03  0.81713953D-08 -0.86227773D-15  0.38460180D-03 -0.74312048D-14
  0.19439452D-03  0.36362634D-03  0.62796634D-03  0.10143293D-02  0.15275591D-02
  0.20774732D-02  0.23649926D-02  0.19159683D-02  0.77772939D-03  0.70918223D-04
 -0.27254031D-05  0.91135516D-06  0.51143186D-07 -0.40176602D-03 -0.75199536D-03
 -0.13006049D-02 -0.21138982D-02 -0.32342469D-02 -0.45896199D-02 -0.57572970D-02
 -0.58700631D-02 -0.36066835D-02  0.78604716D-03  0.28791744D-02  0.13168330D-02
 -0.69898218D-05  0.24992552D-03  0.46744797D-03  0.80949322D-03  0.13143315D-02
  0.20174722D-02  0.28657293D-02  0.36356321D-02  0.37638616D-02  0.24243842D-02
 -0.59628991D-03 -0.24306612D-02 -0.21199595D-02  0.10804417D-02  0.29858545D-03
 -0.15724734D-02  0.39803775D-03  0.24437225D-06  0.32233959D-06  0.35804010D-06
  0.30643186D-06  0.17509270D-06  0.56821399D-07  0.40009587D-10  0.85257083D-16
  0.11245849D-15  0.12491375D-15  0.10690857D-15  0.61086695D-16  0.19823964D-16
  0.13958625D-19 -0.19202083D-01 -0.25328537D-01 -0.28133782D-01 -0.24078552D-01
 -0.13758291D-01 -0.44648654D-02 -0.31438406D-05 -0.21385564D-06 -0.29244483D-06
 -0.31791699D-06 -0.29183117D-06 -0.15905984D-06 -0.67120197D-07  0.23148942D-07
 -0.14521846D-14 -0.19858437D-14 -0.21588122D-14 -0.19816767D-14 -0.10800943D-14
 -0.45577904D-15  0.15719266D-15  0.17124346D-01  0.23417323D-01  0.25456989D-01
  0.23368185D-01  0.12736610D-01  0.53746047D-02 -0.18536360D-02 -0.55286604D-08
  0.82792085D-15  0.38704439D-03 -0.17861271D-08  0.26177476D-14 -0.59298463D-03
  0.33124039D-09  0.42533138D-15 -0.24583612D-04 -0.17631534D-03 -0.17631266D-03
  0.35262800D-03 -0.16400313D-14  0.12524337D-07  0.11799576D-14 -0.36403255D-03
 -0.36404593D-03  0.72807848D-03  0.26662291D-15  0.50873997D-08 -0.15210688D-14
 -0.12897150D-04 -0.12897368D-04  0.25794518D-04 -0.31925918D-15  0.95836285D-09
 -0.97071976D-16 -0.88501276D-04  0.21204402D-16 -0.64098611D-04  0.26550177D-03
 -0.12695499D-15  0.96159163D-04  0.20550048D-08  0.63341780D-16  0.96136669D-04
  0.77596482D-16 -0.20512092D-04  0.27434915D-16 -0.40511345D-05  0.61536409D-04
  0.61440656D-17  0.60780943D-05 -0.13378551D-09 -0.88448811D-16  0.60753092D-05
 -0.14881791D-15  0.11548506D-03  0.20828207D-03  0.30711179D-03 -0.17328106D-02
 -0.96181138D-03 -0.49572881D-04 -0.17069167D-02 -0.55646869D-15 -0.44260682D-03
 -0.25557008D-02  0.75408718D-14 -0.14564027D-02 -0.29432319D-03  0.41238037D-14
 -0.21825831D-03 -0.23563232D-02  0.15497740D-02  0.80654928D-03  0.31625284D-14
 -0.32602110D-02  0.78330654D-15 -0.23087291D-03  0.17744383D-03  0.53429081D-04
  0.28309318D-14 -0.40914754D-03  0.21211372D-14  0.11544705D-03  0.20821352D-03
  0.30701071D-03 -0.17331603D-02 -0.96196781D-03 -0.49574418D-04  0.85357689D-03
  0.14784483D-02 -0.44260128D-03  0.12780021D-02  0.22134544D-02 -0.14564075D-02
  0.14718233D-03  0.25491797D-03 -0.21826165D-03  0.57321308D-03 -0.13798928D-02
  0.80667973D-03 -0.33830089D-02  0.16300881D-02  0.28233300D-02  0.75357341D-04
 -0.12879848D-03  0.53441136D-04 -0.35363451D-03  0.20457323D-03  0.35433199D-03
  0.11544705D-03  0.20821352D-03  0.30701071D-03 -0.17331603D-02 -0.96196781D-03
 -0.49574418D-04  0.85357689D-03 -0.14784483D-02 -0.44260128D-03  0.12780021D-02
 -0.22134544D-02 -0.14564075D-02  0.14718233D-03 -0.25491797D-03 -0.21826165D-03
  0.57321308D-03 -0.13798928D-02  0.80667973D-03  0.33830089D-02  0.16300881D-02
 -0.28233300D-02  0.75357341D-04 -0.12879848D-03  0.53441136D-04  0.35363451D-03
  0.20457323D-03 -0.35433199D-03 -0.33033553D-04 -0.59577373D-04 -0.87846801D-04
  0.59396460D-03  0.10141220D-02  0.11477398D-04 -0.77401343D-04 -0.27519539D-16
  0.44842250D-04 -0.24385060D-03  0.36503768D-15 -0.27220469D-03 -0.10062614D-03
  0.39141146D-15 -0.10647344D-03  0.11206267D-03 -0.92593127D-04 -0.19469539D-04
 -0.53020332D-15  0.23625705D-03 -0.45003099D-15 -0.12186015D-05 -0.15066536D-04
  0.16285138D-04 -0.29357748D-16 -0.14152731D-04 -0.11786111D-15 -0.33036425D-04
 -0.59582552D-04 -0.87854438D-04  0.59398936D-03  0.10141424D-02  0.11480210D-04
  0.38697601D-04 -0.67013838D-04  0.44849358D-04  0.12193645D-03 -0.21121054D-03
 -0.27221152D-03  0.50314803D-04 -0.87149281D-04 -0.10647372D-03 -0.41429145D-04
  0.60904851D-04 -0.19475706D-04 -0.17725104D-03 -0.11813317D-03  0.20461619D-03
 -0.11607058D-04 -0.46789111D-05  0.16285969D-04 -0.11997415D-04  0.70776136D-05
 -0.12252922D-04 -0.33036425D-04 -0.59582552D-04 -0.87854438D-04  0.59398936D-03
  0.10141424D-02  0.11480210D-04  0.38697601D-04  0.67013838D-04  0.44849358D-04
  0.12193645D-03  0.21121054D-03 -0.27221152D-03  0.50314803D-04  0.87149281D-04
 -0.10647372D-03 -0.41429145D-04  0.60904851D-04 -0.19475706D-04  0.17725104D-03
 -0.11813317D-03 -0.20461619D-03 -0.11607058D-04 -0.46789111D-05  0.16285969D-04
  0.11997415D-04  0.70776136D-05  0.12252922D-04
MO    3     MO 0.0        OCC NO =    2.0000000  ORB. ENERGY =   -5.544382
 -0.78243635D-04 -0.14586393D-03 -0.24653573D-03 -0.37062396D-03 -0.45535435D-03
 -0.38461955D-03 -0.14506434D-03  0.71793152D-06  0.24418487D-04  0.45719113D-04
  0.77840701D-04  0.12040773D-03  0.15857274D-03  0.16476724D-03  0.10470218D-03
 -0.70168968D-04 -0.29855886D-03  0.75064321D-03  0.34834650D-03 -0.97883783D-09
 -0.91772269D-09 -0.65347322D-09 -0.14038592D-13 -0.13162072D-13 -0.93721793D-14
  0.23611239D-03  0.22137038D-03  0.15762890D-03 -0.16704853D-07  0.60254054D-13
  0.22815677D-03  0.39434277D-08  0.43376908D-13 -0.19709579D-02 -0.16126145D-08
  0.17825506D-14  0.67019703D-04 -0.85470677D-04 -0.85484427D-04  0.17095510D-03
  0.11721669D-13  0.19305229D-08 -0.82418905D-14  0.75275751D-04  0.75280835D-04
 -0.15055659D-03  0.38494555D-13  0.80662508D-08 -0.25022102D-13  0.48934378D-04
  0.48940648D-04 -0.97875025D-04  0.68755655D-14  0.36305385D-07 -0.14930593D-16
  0.43429520D-04  0.13138089D-14 -0.28887816D-04 -0.13030257D-03  0.12939171D-14
  0.43331502D-04  0.14011317D-07 -0.52353438D-14  0.43331947D-04 -0.18837305D-13
 -0.10697739D-03  0.41345661D-15  0.52800499D-04  0.32094597D-03 -0.17177903D-15
 -0.79195610D-04 -0.13791815D-07 -0.10685908D-14 -0.79205888D-04 -0.52439831D-14
 -0.44767640D-02 -0.83740494D-02 -0.14461607D-01 -0.23359265D-01 -0.35178573D-01
 -0.47842693D-01 -0.54464055D-01 -0.44123353D-01 -0.17910541D-01 -0.16331950D-02
  0.62764046D-04 -0.20987845D-04 -0.11777903D-05 -0.12659031D+00 -0.23694221D+00
 -0.40980066D+00 -0.66605690D+00 -0.10190616D+01 -0.14461189D+01 -0.18140360D+01
 -0.18495669D+01 -0.11364107D+01  0.24767141D+00  0.90718372D+00  0.41491389D+00
 -0.22023857D-02 -0.33864522D-02 -0.63338478D-02 -0.10968508D-01 -0.17808989D-01
 -0.27336437D-01 -0.38830190D-01 -0.49262254D-01 -0.50999744D-01 -0.32850032D-01
  0.80796363D-02  0.32935084D-01  0.28725124D-01 -0.14639819D-01  0.31966237D-01
  0.24671618D-01 -0.14302104D-02 -0.20303019D-06 -0.26780729D-06 -0.29746811D-06
 -0.25459077D-06 -0.14547112D-06 -0.47208550D-07 -0.33240903D-10 -0.23638903D-12
 -0.31180932D-12 -0.34634356D-12 -0.29642127D-12 -0.16937273D-12 -0.54965143D-13
 -0.38702544D-16 -0.17523218D-02 -0.23114028D-02 -0.25674007D-02 -0.21973331D-02
 -0.12555385D-02 -0.40744960D-03 -0.28689703D-06 -0.76089996D-06 -0.10405209D-05
 -0.11311510D-05 -0.10383375D-05 -0.56593610D-06 -0.23881417D-06  0.82364110D-07
  0.19802585D-12  0.27079780D-12  0.29438448D-12  0.27022956D-12  0.14728608D-12
  0.62151899D-13 -0.21435436D-13  0.61489009D-03  0.84085430D-03  0.91409332D-03
  0.83908986D-03  0.45733805D-03  0.19298787D-03 -0.66559177D-04 -0.16132744D-06
  0.11366355D-13 -0.15133654D-03  0.31651624D-07 -0.23839792D-13 -0.20183494D-03
 -0.96535011D-09 -0.52873991D-15 -0.38015457D-05 -0.14943053D-03 -0.14946517D-03
  0.29889569D-03  0.99829323D-14  0.37820511D-07 -0.59783039D-14 -0.27514881D-04
 -0.27533674D-04  0.55048555D-04  0.82172733D-14  0.16759067D-07 -0.82190805D-14
 -0.41193983D-05 -0.41189030D-05  0.82383013D-05  0.12105837D-14  0.63541441D-10
 -0.60720848D-15 -0.25886848D-03 -0.45905209D-15  0.24810100D-03  0.77657826D-03
  0.10810250D-15 -0.37213082D-03  0.27183054D-07  0.12690538D-14 -0.37217217D-03
  0.84508285D-14  0.65347843D-04 -0.68014582D-16 -0.10342174D-03 -0.19603846D-03
  0.10083441D-15  0.15513188D-03 -0.50714161D-08  0.10320934D-15  0.15513332D-03
  0.14805413D-14 -0.59357703D-06 -0.10705406D-05 -0.15785115D-05 -0.88784432D-03
 -0.23989408D-02  0.28464188D-04  0.72960248D-04 -0.37530608D-15  0.11392018D-03
 -0.29600558D-03  0.56922105D-14 -0.37108000D-03 -0.28920258D-03  0.62776882D-14
 -0.47938606D-03 -0.34907385D-04  0.11370396D-05  0.33770346D-04  0.79388153D-15
 -0.15702039D-03  0.23622212D-14  0.70141933D-04  0.62284061D-04 -0.13242599D-03
  0.22173636D-14 -0.16315597D-04  0.15943669D-14 -0.59595709D-06 -0.10748332D-05
 -0.15848409D-05 -0.88785927D-03 -0.23988128D-02  0.28471124D-04 -0.36485307D-04
 -0.63183574D-04  0.11391124D-03  0.14801274D-03  0.25633246D-03 -0.37106588D-03
  0.14460488D-03  0.25042785D-03 -0.47941265D-03 -0.78795925D-05 -0.25895190D-04
  0.33774783D-04 -0.31210779D-04  0.78502372D-04  0.13595526D-03  0.64237853D-04
  0.68177133D-04 -0.13241499D-03  0.68050082D-05  0.81530771D-05  0.14140455D-04
 -0.59595709D-06 -0.10748332D-05 -0.15848409D-05 -0.88785927D-03 -0.23988128D-02
  0.28471125D-04 -0.36485307D-04  0.63183574D-04  0.11391124D-03  0.14801274D-03
 -0.25633246D-03 -0.37106588D-03  0.14460488D-03 -0.25042785D-03 -0.47941265D-03
 -0.78795925D-05 -0.25895190D-04  0.33774783D-04  0.31210779D-04  0.78502372D-04
 -0.13595526D-03  0.64237853D-04  0.68177133D-04 -0.13241499D-03 -0.68050082D-05
  0.81530771D-05 -0.14140455D-04  0.35482397D-04  0.63993965D-04  0.94359064D-04
  0.11835905D-02 -0.75130263D-02  0.12550231D-03 -0.13350034D-03  0.54092567D-14
 -0.53808480D-04 -0.95463061D-03 -0.65982541D-14 -0.45959073D-03  0.10756210D-02
 -0.21086412D-15  0.49432680D-03 -0.34618748D-04 -0.60256259D-04  0.94875007D-04
  0.97516210D-15  0.14834953D-03 -0.26936308D-15  0.11241961D-03 -0.43031564D-04
 -0.69388047D-04  0.19263989D-14  0.16884999D-03  0.47938258D-15  0.35463649D-04
  0.63960151D-04  0.94309206D-04  0.11837512D-02 -0.75128995D-02  0.12549983D-03
  0.66643591D-04 -0.11563855D-03 -0.53851730D-04  0.47737535D-03 -0.82678927D-03
 -0.45959775D-03 -0.53779252D-03  0.93149055D-03  0.49433147D-03 -0.53774661D-04
 -0.41137325D-04  0.94911987D-04 -0.21987066D-04 -0.73878444D-04  0.12839828D-03
 -0.41736839D-05  0.73560002D-04 -0.69386318D-04 -0.13463690D-03 -0.84438404D-04
  0.14622486D-03  0.35463649D-04  0.63960151D-04  0.94309206D-04  0.11837512D-02
 -0.75128995D-02  0.12549983D-03  0.66643591D-04  0.11563855D-03 -0.53851730D-04
  0.47737535D-03  0.82678927D-03 -0.45959775D-03 -0.53779252D-03 -0.93149055D-03
  0.49433147D-03 -0.53774661D-04 -0.41137325D-04  0.94911987D-04  0.21987066D-04
 -0.73878444D-04 -0.12839828D-03 -0.41736839D-05  0.73560002D-04 -0.69386318D-04
  0.13463690D-03 -0.84438404D-04 -0.14622486D-03
MO    4     MO 0.0        OCC NO =    2.0000000  ORB. ENERGY =   -3.854770
  0.30666794D-15  0.57169877D-15  0.96627164D-15  0.14526228D-14  0.17847149D-14
  0.15074771D-14  0.56856488D-15 -0.28138593D-17 -0.23071159D-15 -0.43196489D-15
 -0.73545719D-15 -0.11376404D-14 -0.14982324D-14 -0.15567595D-14 -0.98925076D-15
  0.66297286D-15 -0.13025060D-14  0.27988100D-13 -0.42504069D-14  0.20764708D-11
  0.19468234D-11  0.13862542D-11 -0.16834391D-03 -0.15783311D-03 -0.11238658D-03
  0.21468374D-14  0.20127965D-14  0.14332310D-14 -0.72223279D-11  0.58565891D-03
 -0.37899927D-14 -0.73686846D-12  0.60721636D-04 -0.83860399D-14  0.24704927D-12
 -0.20031577D-04 -0.56567696D-15 -0.93351618D-12  0.93198239D-12  0.15337897D-14
 -0.15104356D-03 -0.79841867D-11  0.64627711D-03  0.16827526D-11 -0.16775201D-11
 -0.52325304D-14  0.27283625D-03  0.29142084D-11 -0.23622739D-03  0.87569819D-12
 -0.87450716D-12 -0.11910237D-14  0.14190817D-03 -0.94724763D-12  0.76612165D-04
  0.22455418D-11 -0.18187750D-03  0.25489799D-16  0.22486672D-11 -0.18188719D-03
 -0.16027519D-11 -0.89852926D-11  0.72751968D-03  0.16026754D-11 -0.25995091D-03
 -0.15651662D-11  0.12668763D-03  0.10168773D-15 -0.15626994D-11  0.12669425D-03
 -0.10293698D-11  0.62581981D-11 -0.50675714D-03  0.10290647D-11 -0.16669190D-03
 -0.48247493D-15 -0.90249763D-15 -0.15585728D-14 -0.25175014D-14 -0.37913053D-14
 -0.51561574D-14 -0.58697624D-14 -0.47553125D-14 -0.19302753D-14 -0.17601456D-15
  0.67642785D-17 -0.22619260D-17 -0.12693416D-18  0.11428807D-14  0.21391580D-14
  0.36997561D-14  0.60132848D-14  0.92002766D-14  0.13055828D-13  0.16377452D-13
  0.16698232D-13  0.10259726D-13 -0.22360232D-14 -0.81902222D-14 -0.37459193D-14
  0.19883545D-16 -0.55477408D-15 -0.10376212D-14 -0.17968788D-14 -0.29174974D-14
 -0.44782994D-14 -0.63612246D-14 -0.80702223D-14 -0.83548606D-14 -0.53815455D-14
  0.13236191D-14  0.53954789D-14  0.47057963D-14 -0.23983188D-14 -0.17329118D-14
 -0.41924415D-14  0.54426253D-14 -0.76838814D-07 -0.10135436D-06 -0.11257979D-06
 -0.96352433D-07 -0.55055006D-07 -0.17866550D-07 -0.12580353D-10  0.62219501D+01