 Molden2AIM, Version 4.0.0 (06/02/2016)           Time: Thu Jun 28 06:44:12 2018
GAUSSIAN             17 MOL ORBITALS    327 PRIMITIVES        5 NUCLEI
  C    1    (CENTRE  1)   0.00000000 -0.00006236  0.64098187  CHARGE =  6.0
  H    2    (CENTRE  2)   0.00000000  0.00021354  2.71598620  CHARGE =  1.0
  F    3    (CENTRE  3)   0.00000000  2.37322011 -0.24666784  CHARGE =  9.0
  F    4    (CENTRE  4)   2.05533605 -1.18669320 -0.24691162  CHARGE =  9.0
  F    5    (CENTRE  5)  -2.05533605 -1.18669320 -0.24691162  CHARGE =  9.0
CENTRE ASSIGNMENTS    1  1  1  1  1  1  1  1  1  1  1  1  1  1  1  1  1  1  1  1
CENTRE ASSIGNMENTS    1  1  1  1  1  1  1  1  1  1  1  1  1  1  1  1  1  1  1  1
CENTRE ASSIGNMENTS    1  1  1  1  1  1  1  1  1  1  1  1  1  1  1  1  1  1  1  1
CENTRE ASSIGNMENTS    1  1  1  1  1  1  1  1  1  1  1  1  1  1  1  2  2  2  2  2
CENTRE ASSIGNMENTS    2  2  2  2  2  2  2  2  2  2  2  2  2  2  2  2  2  2  2  2
CENTRE ASSIGNMENTS    2  2  3  3  3  3  3  3  3  3  3  3  3  3  3  3  3  3  3  3
CENTRE ASSIGNMENTS    3  3  3  3  3  3  3  3  3  3  3  3  3  3  3  3  3  3  3  3
CENTRE ASSIGNMENTS    3  3  3  3  3  3  3  3  3  3  3  3  3  3  3  3  3  3  3  3
CENTRE ASSIGNMENTS    3  3  3  3  3  3  3  3  3  3  3  3  3  3  3  3  3  4  4  4
CENTRE ASSIGNMENTS    4  4  4  4  4  4  4  4  4  4  4  4  4  4  4  4  4  4  4  4
CENTRE ASSIGNMENTS    4  4  4  4  4  4  4  4  4  4  4  4  4  4  4  4  4  4  4  4
CENTRE ASSIGNMENTS    4  4  4  4  4  4  4  4  4  4  4  4  4  4  4  4  4  4  4  4
CENTRE ASSIGNMENTS    4  4  4  4  4  4  4  4  4  4  4  4  5  5  5  5  5  5  5  5
CENTRE ASSIGNMENTS    5  5  5  5  5  5  5  5  5  5  5  5  5  5  5  5  5  5  5  5
CENTRE ASSIGNMENTS    5  5  5  5  5  5  5  5  5  5  5  5  5  5  5  5  5  5  5  5
CENTRE ASSIGNMENTS    5  5  5  5  5  5  5  5  5  5  5  5  5  5  5  5  5  5  5  5
CENTRE ASSIGNMENTS    5  5  5  5  5  5  5
TYPE ASSIGNMENTS      1  1  1  1  1  1  1  1  1  1  1  1  1  1  1  1  1  1  1  2
TYPE ASSIGNMENTS      2  2  3  3  3  4  4  4  2  3  4  2  3  4  2  3  4  5  6  7
TYPE ASSIGNMENTS      8  9 10  5  6  7  8  9 10  5  6  7  8  9 10 11 12 13 17 14
TYPE ASSIGNMENTS     15 18 19 16 20 11 12 13 17 14 15 18 19 16 20  1  1  1  1  1
TYPE ASSIGNMENTS      1  2  3  4  2  3  4  2  3  4  5  6  7  8  9 10  5  6  7  8
TYPE ASSIGNMENTS      9 10  1  1  1  1  1  1  1  1  1  1  1  1  1  1  1  1  1  1
TYPE ASSIGNMENTS      1  2  2  2  3  3  3  4  4  4  2  3  4  2  3  4  2  3  4  5
TYPE ASSIGNMENTS      6  7  8  9 10  5  6  7  8  9 10  5  6  7  8  9 10 11 12 13
TYPE ASSIGNMENTS     17 14 15 18 19 16 20 11 12 13 17 14 15 18 19 16 20  1  1  1
TYPE ASSIGNMENTS      1  1  1  1  1  1  1  1  1  1  1  1  1  1  1  1  2  2  2  3
TYPE ASSIGNMENTS      3  3  4  4  4  2  3  4  2  3  4  2  3  4  5  6  7  8  9 10
TYPE ASSIGNMENTS      5  6  7  8  9 10  5  6  7  8  9 10 11 12 13 17 14 15 18 19
TYPE ASSIGNMENTS     16 20 11 12 13 17 14 15 18 19 16 20  1  1  1  1  1  1  1  1
TYPE ASSIGNMENTS      1  1  1  1  1  1  1  1  1  1  1  2  2  2  3  3  3  4  4  4
TYPE ASSIGNMENTS      2  3  4  2  3  4  2  3  4  5  6  7  8  9 10  5  6  7  8  9
TYPE ASSIGNMENTS     10  5  6  7  8  9 10 11 12 13 17 14 15 18 19 16 20 11 12 13
TYPE ASSIGNMENTS     17 14 15 18 19 16 20
EXPONENTS  0.8236000D+04 0.1235000D+04 0.2808000D+03 0.7927000D+02 0.2559000D+02
EXPONENTS  0.8997000D+01 0.3319000D+01 0.3643000D+00 0.8236000D+04 0.1235000D+04
EXPONENTS  0.2808000D+03 0.7927000D+02 0.2559000D+02 0.8997000D+01 0.3319000D+01
EXPONENTS  0.3643000D+00 0.9059000D+00 0.1285000D+00 0.4402000D-01 0.1871000D+02
EXPONENTS  0.4133000D+01 0.1200000D+01 0.1871000D+02 0.4133000D+01 0.1200000D+01
EXPONENTS  0.1871000D+02 0.4133000D+01 0.1200000D+01 0.3827000D+00 0.3827000D+00
EXPONENTS  0.3827000D+00 0.1209000D+00 0.1209000D+00 0.1209000D+00 0.3569000D-01
EXPONENTS  0.3569000D-01 0.3569000D-01 0.1097000D+01 0.1097000D+01 0.1097000D+01
EXPONENTS  0.1097000D+01 0.1097000D+01 0.1097000D+01 0.3180000D+00 0.3180000D+00
EXPONENTS  0.3180000D+00 0.3180000D+00 0.3180000D+00 0.3180000D+00 0.1000000D+00
EXPONENTS  0.1000000D+00 0.1000000D+00 0.1000000D+00 0.1000000D+00 0.1000000D+00
EXPONENTS  0.7610000D+00 0.7610000D+00 0.7610000D+00 0.7610000D+00 0.7610000D+00
EXPONENTS  0.7610000D+00 0.7610000D+00 0.7610000D+00 0.7610000D+00 0.7610000D+00
EXPONENTS  0.2680000D+00 0.2680000D+00 0.2680000D+00 0.2680000D+00 0.2680000D+00
EXPONENTS  0.2680000D+00 0.2680000D+00 0.2680000D+00 0.2680000D+00 0.2680000D+00
EXPONENTS  0.3387000D+02 0.5095000D+01 0.1159000D+01 0.3258000D+00 0.1027000D+00
EXPONENTS  0.2526000D-01 0.1407000D+01 0.1407000D+01 0.1407000D+01 0.3880000D+00
EXPONENTS  0.3880000D+00 0.3880000D+00 0.1020000D+00 0.1020000D+00 0.1020000D+00
EXPONENTS  0.1057000D+01 0.1057000D+01 0.1057000D+01 0.1057000D+01 0.1057000D+01
EXPONENTS  0.1057000D+01 0.2470000D+00 0.2470000D+00 0.2470000D+00 0.2470000D+00
EXPONENTS  0.2470000D+00 0.2470000D+00 0.1950000D+05 0.2923000D+04 0.6645000D+03
EXPONENTS  0.1875000D+03 0.6062000D+02 0.2142000D+02 0.7950000D+01 0.8815000D+00
EXPONENTS  0.1950000D+05 0.2923000D+04 0.6645000D+03 0.1875000D+03 0.6062000D+02
EXPONENTS  0.2142000D+02 0.7950000D+01 0.8815000D+00 0.2257000D+01 0.3041000D+00
EXPONENTS  0.9158000D-01 0.4388000D+02 0.9926000D+01 0.2930000D+01 0.4388000D+02
EXPONENTS  0.9926000D+01 0.2930000D+01 0.4388000D+02 0.9926000D+01 0.2930000D+01
EXPONENTS  0.9132000D+00 0.9132000D+00 0.9132000D+00 0.2672000D+00 0.2672000D+00
EXPONENTS  0.2672000D+00 0.7361000D-01 0.7361000D-01 0.7361000D-01 0.3107000D+01
EXPONENTS  0.3107000D+01 0.3107000D+01 0.3107000D+01 0.3107000D+01 0.3107000D+01
EXPONENTS  0.8550000D+00 0.8550000D+00 0.8550000D+00 0.8550000D+00 0.8550000D+00
EXPONENTS  0.8550000D+00 0.2920000D+00 0.2920000D+00 0.2920000D+00 0.2920000D+00
EXPONENTS  0.2920000D+00 0.2920000D+00 0.1917000D+01 0.1917000D+01 0.1917000D+01
EXPONENTS  0.1917000D+01 0.1917000D+01 0.1917000D+01 0.1917000D+01 0.1917000D+01
EXPONENTS  0.1917000D+01 0.1917000D+01 0.7240000D+00 0.7240000D+00 0.7240000D+00
EXPONENTS  0.7240000D+00 0.7240000D+00 0.7240000D+00 0.7240000D+00 0.7240000D+00
EXPONENTS  0.7240000D+00 0.7240000D+00 0.1950000D+05 0.2923000D+04 0.6645000D+03
EXPONENTS  0.1875000D+03 0.6062000D+02 0.2142000D+02 0.7950000D+01 0.8815000D+00
EXPONENTS  0.1950000D+05 0.2923000D+04 0.6645000D+03 0.1875000D+03 0.6062000D+02
EXPONENTS  0.2142000D+02 0.7950000D+01 0.8815000D+00 0.2257000D+01 0.3041000D+00
EXPONENTS  0.9158000D-01 0.4388000D+02 0.9926000D+01 0.2930000D+01 0.4388000D+02
EXPONENTS  0.9926000D+01 0.2930000D+01 0.4388000D+02 0.9926000D+01 0.2930000D+01
EXPONENTS  0.9132000D+00 0.9132000D+00 0.9132000D+00 0.2672000D+00 0.2672000D+00
EXPONENTS  0.2672000D+00 0.7361000D-01 0.7361000D-01 0.7361000D-01 0.3107000D+01
EXPONENTS  0.3107000D+01 0.3107000D+01 0.3107000D+01 0.3107000D+01 0.3107000D+01
EXPONENTS  0.8550000D+00 0.8550000D+00 0.8550000D+00 0.8550000D+00 0.8550000D+00
EXPONENTS  0.8550000D+00 0.2920000D+00 0.2920000D+00 0.2920000D+00 0.2920000D+00
EXPONENTS  0.2920000D+00 0.2920000D+00 0.1917000D+01 0.1917000D+01 0.1917000D+01
EXPONENTS  0.1917000D+01 0.1917000D+01 0.1917000D+01 0.1917000D+01 0.1917000D+01
EXPONENTS  0.1917000D+01 0.1917000D+01 0.7240000D+00 0.7240000D+00 0.7240000D+00
EXPONENTS  0.7240000D+00 0.7240000D+00 0.7240000D+00 0.7240000D+00 0.7240000D+00
EXPONENTS  0.7240000D+00 0.7240000D+00 0.1950000D+05 0.2923000D+04 0.6645000D+03
EXPONENTS  0.1875000D+03 0.6062000D+02 0.2142000D+02 0.7950000D+01 0.8815000D+00
EXPONENTS  0.1950000D+05 0.2923000D+04 0.6645000D+03 0.1875000D+03 0.6062000D+02
EXPONENTS  0.2142000D+02 0.7950000D+01 0.8815000D+00 0.2257000D+01 0.3041000D+00
EXPONENTS  0.9158000D-01 0.4388000D+02 0.9926000D+01 0.2930000D+01 0.4388000D+02
EXPONENTS  0.9926000D+01 0.2930000D+01 0.4388000D+02 0.9926000D+01 0.2930000D+01
EXPONENTS  0.9132000D+00 0.9132000D+00 0.9132000D+00 0.2672000D+00 0.2672000D+00
EXPONENTS  0.2672000D+00 0.7361000D-01 0.7361000D-01 0.7361000D-01 0.3107000D+01
EXPONENTS  0.3107000D+01 0.3107000D+01 0.3107000D+01 0.3107000D+01 0.3107000D+01
EXPONENTS  0.8550000D+00 0.8550000D+00 0.8550000D+00 0.8550000D+00 0.8550000D+00
EXPONENTS  0.8550000D+00 0.2920000D+00 0.2920000D+00 0.2920000D+00 0.2920000D+00
EXPONENTS  0.2920000D+00 0.2920000D+00 0.1917000D+01 0.1917000D+01 0.1917000D+01
EXPONENTS  0.1917000D+01 0.1917000D+01 0.1917000D+01 0.1917000D+01 0.1917000D+01
EXPONENTS  0.1917000D+01 0.1917000D+01 0.7240000D+00 0.7240000D+00 0.7240000D+00
EXPONENTS  0.7240000D+00 0.7240000D+00 0.7240000D+00 0.7240000D+00 0.7240000D+00
EXPONENTS  0.7240000D+00 0.7240000D+00
MO    1     MO 0.0        OCC NO =    2.0000000  ORB. ENERGY =  -25.290881
  0.20687012D-04  0.38565294D-04  0.65182141D-04  0.97990109D-04  0.12039217D-03
  0.10169043D-03  0.38353891D-04 -0.18981554D-06 -0.14795266D-04 -0.27701406D-04
 -0.47164013D-04 -0.72955557D-04 -0.96079902D-04 -0.99833173D-04 -0.63439500D-04
  0.42515677D-04 -0.24896419D-04  0.39488248D-04  0.11463925D-04 -0.25926833D-11
 -0.24308054D-11 -0.17308782D-11 -0.50480797D-03 -0.47328956D-03 -0.33701036D-03
  0.19372584D-04  0.18163028D-04  0.12933158D-04  0.93685396D-11  0.18259887D-02
 -0.71869342D-04  0.11129012D-11  0.21372404D-03 -0.55915416D-05 -0.35817550D-14
 -0.55976246D-06  0.48173346D-06 -0.72642320D-03  0.75757240D-03 -0.31149196D-04
 -0.76115370D-11 -0.58410656D-11 -0.11393747D-02 -0.38772222D-03  0.40842577D-03
 -0.20703549D-04 -0.40828923D-11 -0.35225888D-11 -0.68509942D-03 -0.79925963D-05
  0.83136128D-05 -0.32101651D-06 -0.86127986D-13 -0.95469687D-13 -0.18008657D-04
  0.36685737D-12  0.85883654D-04  0.10246062D-04  0.36398326D-12  0.27759249D-04
  0.45564389D-03 -0.14645554D-11 -0.28541021D-03 -0.48638207D-03  0.48354423D-11
  0.14271934D-13  0.34812126D-05 -0.24011381D-07  0.10526821D-13 -0.91273691D-06
  0.85827903D-04 -0.53342624D-13 -0.95309009D-05 -0.85755869D-04  0.87343443D-12
 -0.15340405D-06 -0.27667052D-06 -0.40795052D-06  0.39254727D-04  0.60772591D-05
 -0.17399214D-05 -0.81756032D-13 -0.15746314D-04 -0.84521266D-06  0.81219416D-12
  0.15675417D-03 -0.30342104D-04  0.23787342D-12  0.45329677D-04 -0.35317296D-05
  0.18174754D-04 -0.27578515D-04  0.94037617D-05  0.23606535D-12  0.41418103D-13
  0.84347232D-05 -0.12997799D-04  0.97550404D-05  0.32427584D-05 -0.11390843D-12
 -0.27106141D-12 -0.52006442D-04  0.50329165D+00  0.93815743D+00  0.15904075D+01
  0.24083457D+01  0.30116447D+01  0.25927456D+01  0.99674605D+00 -0.43190638D-02
  0.24739868D-03  0.46457091D-03  0.79108413D-03  0.12392286D-02  0.16607121D-02
  0.17863198D-02  0.10725041D-02 -0.70532380D-03  0.50977029D-01 -0.64136832D-03
 -0.57762540D-03 -0.25000031D-12 -0.24449484D-12 -0.16154808D-12 -0.64465831D-02
 -0.63046175D-02 -0.41657273D-02  0.24026024D-02  0.23496927D-02  0.15525413D-02
  0.18050997D-12  0.12739982D-02 -0.45266441D-03  0.48427206D-12  0.88941450D-03
 -0.25433979D-03  0.68742463D-13  0.64760118D-04 -0.18158090D-04 -0.90632598D-03
  0.14352937D-02 -0.52896768D-03 -0.15969047D-11 -0.45620646D-12 -0.17411990D-02
  0.42132391D-03 -0.68936865D-03  0.26804474D-03  0.33898890D-12  0.21257032D-12
  0.81820923D-03  0.10435375D-03 -0.18074016D-03  0.76386407D-04 -0.28489282D-12
  0.72979509D-13  0.16400111D-03 -0.65089718D-12 -0.23047113D-03 -0.16635211D-03
  0.27493425D-11  0.65405084D-03 -0.10647606D-03 -0.79665099D-12  0.37362554D-04
  0.60553239D-03  0.82924484D-12  0.18207113D-12  0.18935977D-03  0.12640167D-03
 -0.77863557D-12 -0.45147535D-03  0.12260847D-03  0.23242218D-12 -0.11660397D-03
 -0.50181347D-03 -0.32124552D-12 -0.22471961D+00 -0.41888709D+00 -0.71011660D+00
 -0.10753258D+01 -0.13446987D+01 -0.11576603D+01 -0.44504690D+00  0.19284611D-02
 -0.11003335D-03 -0.20662314D-03 -0.35184357D-03 -0.55116087D-03 -0.73862041D-03
 -0.79448584D-03 -0.47700826D-03  0.31370070D-03 -0.22762759D-01  0.30516295D-03
  0.26407301D-03  0.24828225D-02  0.24281462D-02  0.16043788D-02 -0.14812778D-02
 -0.14486573D-02 -0.95718913D-03 -0.10763998D-02 -0.10526955D-02 -0.69556040D-03
 -0.48479651D-03  0.31432561D-03  0.20426276D-03 -0.31699858D-03  0.27863922D-03
  0.10979388D-03 -0.21032988D-04  0.25215953D-04  0.75693257D-05 -0.49271860D-03
  0.26475773D-03  0.22796087D-03  0.77587356D-03  0.64648491D-03 -0.46346995D-03
  0.20778729D-03 -0.90282297D-04 -0.11750499D-03 -0.40277445D-03 -0.30123054D-03
  0.21590149D-03  0.31502372D-04  0.57000742D-05 -0.37202446D-04 -0.14183548D-03
 -0.56925549D-04  0.46744039D-04  0.15895502D-03  0.13949762D-03  0.79670757D-04
 -0.41429646D-03 -0.30281442D-03 -0.14344750D-03 -0.62568586D-04 -0.11567844D-03
 -0.95564774D-04  0.36302473D-03 -0.55189942D-04 -0.78184261D-04 -0.58426445D-04
  0.10657646D-03  0.22450032D-03  0.13549205D-03  0.58993363D-04  0.10052457D-04
  0.39787289D-04 -0.27405173D-03 -0.22471962D+00 -0.41888710D+00 -0.71011662D+00
 -0.10753258D+01 -0.13446987D+01 -0.11576604D+01 -0.44504691D+00  0.19284611D-02
 -0.11003335D-03 -0.20662314D-03 -0.35184358D-03 -0.55116088D-03 -0.73862043D-03
 -0.79448586D-03 -0.47700827D-03  0.31370070D-03 -0.22762759D-01  0.30516295D-03
  0.26407302D-03 -0.24828226D-02 -0.24281462D-02 -0.16043789D-02 -0.14812778D-02
 -0.14486573D-02 -0.95718915D-03 -0.10763998D-02 -0.10526955D-02 -0.69556041D-03
  0.48479652D-03  0.31432562D-03  0.20426277D-03  0.31699858D-03  0.27863922D-03
  0.10979389D-03  0.21032988D-04  0.25215953D-04  0.75693259D-05 -0.49271860D-03
  0.26475773D-03  0.22796087D-03 -0.77587358D-03 -0.64648492D-03 -0.46346996D-03
  0.20778729D-03 -0.90282298D-04 -0.11750499D-03  0.40277446D-03  0.30123054D-03
  0.21590150D-03  0.31502373D-04  0.57000738D-05 -0.37202447D-04  0.14183548D-03
  0.56925550D-04  0.46744039D-04 -0.15895502D-03  0.13949762D-03  0.79670759D-04
  0.41429646D-03 -0.30281442D-03 -0.14344750D-03  0.62568586D-04 -0.11567844D-03
 -0.95564774D-04 -0.36302474D-03  0.55189942D-04 -0.78184262D-04 -0.58426446D-04
 -0.10657646D-03  0.22450033D-03  0.13549205D-03 -0.58993364D-04  0.10052457D-04
  0.39787289D-04  0.27405173D-03
MO    2     MO 0.0        OCC NO =    2.0000000  ORB. ENERGY =  -25.290879
 -0.48836041D-14 -0.91041484D-14 -0.15387615D-13 -0.23132625D-13 -0.28421103D-13
 -0.24006165D-13 -0.90542421D-14  0.44809949D-16  0.36638134D-14  0.68598147D-14
  0.11679421D-13  0.18066289D-13  0.23792667D-13  0.24722105D-13  0.15709788D-13
 -0.10528335D-13 -0.13724206D-13  0.83587770D-13  0.15173998D-13 -0.50558788D-03
 -0.47402078D-03 -0.33753103D-03  0.26018471D-11  0.24393970D-11  0.17369960D-11
  0.48441844D-14  0.45417308D-14  0.32339829D-14  0.18281985D-02 -0.94007835D-11
 -0.87441859D-14  0.21403165D-03 -0.11127024D-11 -0.17602818D-13 -0.56022185D-06
  0.32244118D-14  0.11495504D-14  0.38103437D-11 -0.38126395D-11  0.22957870D-14
 -0.14855647D-02 -0.11408707D-02  0.58541772D-11  0.20618479D-11 -0.20546092D-11
 -0.72387735D-14 -0.79725667D-03 -0.68620337D-03  0.35330925D-11  0.43359692D-13
 -0.42074630D-13 -0.12850619D-14 -0.16340191D-04 -0.18035260D-04  0.95449602D-13
  0.71437835D-04 -0.36587620D-12 -0.83444295D-17  0.71433479D-04 -0.37281733D-12
 -0.24276331D-11 -0.28574699D-03  0.14704459D-11  0.24276581D-11  0.94349761D-03
  0.23939924D-05 -0.10853694D-13  0.24527659D-14  0.23855004D-05 -0.18962531D-13
 -0.44707976D-12 -0.95674776D-05  0.51523613D-13  0.43972146D-12  0.17181603D-03
  0.63635000D-15  0.11476834D-14  0.16922585D-14 -0.14737556D-13  0.25656302D-13
 -0.31439670D-14 -0.15776049D-04  0.81977686D-13 -0.25180444D-15  0.15711083D-03
 -0.81266517D-12 -0.11727979D-14  0.45387905D-04 -0.23781415D-12 -0.64700081D-14
 -0.11833119D-12  0.11861761D-12 -0.28641994D-15  0.45677506D-04  0.81924342D-05
 -0.41043792D-13  0.57840901D-13 -0.59732720D-13  0.18918186D-14 -0.22796427D-04
 -0.52104452D-04  0.27085106D-12 -0.24940584D-08 -0.46490329D-08 -0.78812537D-08
 -0.11934541D-07 -0.14924185D-07 -0.12848333D-07 -0.49393684D-08  0.21403092D-10
 -0.12263760D-11 -0.23029169D-11 -0.39214704D-11 -0.61429602D-11 -0.82322893D-11
 -0.88549371D-11 -0.53164926D-11  0.34963492D-11 -0.25262445D-09  0.32345851D-11
  0.28914654D-11 -0.47963784D-04 -0.46907533D-04 -0.30993791D-04  0.31995078D-10
  0.31290488D-10  0.20674948D-10 -0.11914353D-10 -0.11651977D-10 -0.76989538D-11
  0.34500534D-04 -0.63463215D-11  0.22489571D-11  0.95771702D-04 -0.44662418D-11
  0.12491977D-11  0.13093466D-04 -0.32970785D-12  0.86214644D-13  0.45177510D-11
 -0.71090159D-11  0.25912649D-11 -0.31012848D-03 -0.90420055D-04  0.86800505D-11
 -0.20969575D-11  0.34181954D-11 -0.13212379D-11  0.65590211D-04  0.42087175D-04
 -0.40688723D-11 -0.52741699D-12  0.91746585D-12 -0.39004886D-12 -0.56177054D-04
  0.13888454D-04 -0.81220653D-12 -0.12765572D-03  0.11694259D-11  0.84616593D-12
  0.53503295D-03 -0.33925251D-11  0.52900480D-12 -0.15206580D-03 -0.11575255D-12
 -0.30675026D-11  0.16197149D-03  0.35702108D-04 -0.94967214D-12 -0.63461186D-12
 -0.15128492D-03  0.22908716D-11 -0.60639922D-12  0.44178598D-04  0.55814480D-12
  0.25102348D-11 -0.62646281D-04  0.42089213D+00  0.78456116D+00  0.13300240D+01
  0.20140484D+01  0.25185746D+01  0.21682581D+01  0.83355757D+00 -0.36119414D-02
  0.20663910D-03  0.38803162D-03  0.66075094D-03  0.10350624D-02  0.13871054D-02
  0.14920189D-02  0.89580620D-03 -0.58911984D-03  0.42631801D-01 -0.54718380D-03
 -0.48661624D-03 -0.46864898D-02 -0.45832847D-02 -0.30283700D-02  0.26779092D-02
  0.26189367D-02  0.17304422D-02  0.20118563D-02  0.19675516D-02  0.13000445D-02
  0.93527134D-03 -0.52001485D-03 -0.37988030D-03  0.67640441D-03 -0.33524177D-03
 -0.21056399D-03  0.51128285D-04 -0.21959006D-04 -0.14875995D-04  0.64185743D-03
 -0.20415750D-03 -0.43769993D-03 -0.17761324D-02 -0.12908125D-02  0.69303349D-03
 -0.32966966D-03  0.10683919D-03  0.22283047D-03  0.82162763D-03  0.60490338D-03
 -0.32490323D-03 -0.10580968D-03  0.40146257D-04  0.65663425D-04  0.19663371D-03
  0.12198423D-03 -0.62411812D-04  0.88015035D-04 -0.17293881D-03 -0.14236798D-03
 -0.24323573D-03  0.59460879D-03  0.40040598D-03 -0.20809372D-04 -0.75792361D-04
  0.26697961D-04 -0.48568686D-03 -0.57748894D-05  0.11982360D-03  0.10687040D-03
  0.87705388D-04 -0.42560757D-03 -0.30534373D-03 -0.70380720D-04  0.66136772D-04
 -0.15267471D-04  0.43979228D-03 -0.42089212D+00 -0.78456115D+00 -0.13300240D+01
 -0.20140484D+01 -0.25185746D+01 -0.21682581D+01 -0.83355757D+00  0.36119414D-02
 -0.20663909D-03 -0.38803162D-03 -0.66075093D-03 -0.10350624D-02 -0.13871054D-02
 -0.14920189D-02 -0.89580619D-03  0.58911984D-03 -0.42631801D-01  0.54718380D-03
  0.48661624D-03 -0.46864898D-02 -0.45832847D-02 -0.30283700D-02 -0.26779092D-02
 -0.26189367D-02 -0.17304422D-02 -0.20118563D-02 -0.19675516D-02 -0.13000445D-02
  0.93527133D-03  0.52001485D-03  0.37988030D-03  0.67640441D-03  0.33524177D-03
  0.21056399D-03  0.51128285D-04  0.21959006D-04  0.14875994D-04 -0.64185743D-03
  0.20415750D-03  0.43769993D-03 -0.17761324D-02 -0.12908125D-02 -0.69303348D-03
  0.32966965D-03 -0.10683919D-03 -0.22283046D-03  0.82162763D-03  0.60490338D-03
  0.32490323D-03  0.10580968D-03 -0.40146257D-04 -0.65663425D-04  0.19663371D-03
  0.12198423D-03  0.62411811D-04  0.88015037D-04  0.17293881D-03  0.14236798D-03
 -0.24323574D-03 -0.59460879D-03 -0.40040598D-03 -0.20809373D-04  0.75792362D-04
 -0.26697960D-04 -0.48568686D-03 -0.57748900D-05 -0.11982360D-03 -0.10687040D-03
  0.87705389D-04  0.42560757D-03  0.30534373D-03 -0.70380719D-04 -0.66136772D-04
  0.15267470D-04  0.43979227D-03
MO    3     MO 0.0        OCC NO =    2.0000000  ORB. ENERGY =  -25.290860
  0.39410568D-03  0.73470260D-03  0.12417768D-02  0.18667973D-02  0.22935762D-02
  0.19372918D-02  0.73067517D-03 -0.36161522D-05 -0.28180448D-03 -0.52762690D-03
 -0.89832995D-03 -0.13895798D-02 -0.18300278D-02 -0.19015161D-02 -0.12083281D-02
  0.80979339D-03 -0.47734186D-03  0.75846768D-03  0.21941725D-03  0.13813385D-12
  0.12950927D-12  0.92218315D-13  0.26478248D-04  0.24825040D-04  0.17676908D-04
  0.37160953D-03  0.34840756D-03  0.24808694D-03 -0.48901551D-12 -0.95491712D-04
 -0.13751050D-02 -0.82303178D-13 -0.11147167D-04 -0.10560819D-03  0.12645987D-14
  0.32259743D-07  0.92107503D-05  0.33521587D-03  0.25778027D-03 -0.59299614D-03
  0.39566599D-12  0.29697251D-12  0.59522620D-04  0.21844024D-03  0.17673798D-03
 -0.39517822D-03  0.20882181D-12  0.19328662D-12  0.35919774D-04  0.34393894D-05
  0.25852640D-05 -0.60246534D-05  0.80380320D-14  0.96235963D-14  0.94405836D-06
 -0.20347818D-13  0.27398142D-03  0.19637511D-03 -0.15795439D-13 -0.83680106D-03
 -0.31929094D-03  0.76838892D-13  0.14856791D-04 -0.26983440D-03 -0.25303868D-12
 -0.37498612D-14  0.20958742D-04 -0.44463657D-06  0.20414882D-14 -0.63390728D-04
 -0.38441965D-05  0.92080953D-14  0.51450253D-06  0.51781062D-05 -0.34965176D-13
 -0.30526390D-05 -0.55055602D-05 -0.81179453D-05  0.74803267D-03  0.11276186D-03
 -0.33279340D-04  0.56697906D-14  0.85370356D-06 -0.15524812D-04 -0.53040163D-13
 -0.84357826D-05 -0.57962872D-03 -0.20450032D-13 -0.23824133D-05 -0.67140520D-04
 -0.90881732D-04 -0.88609665D-04  0.17949140D-03 -0.15357458D-13 -0.12800339D-14
 -0.16786501D-06 -0.30446410D-04 -0.31640086D-04  0.62086497D-04  0.16055484D-14
  0.20267023D-13  0.27635274D-05  0.31779609D+00  0.59238568D+00  0.10042394D+01
  0.15207144D+01  0.19016586D+01  0.16371509D+01  0.62938059D+00 -0.27272091D-02
  0.16148359D-03  0.30323758D-03  0.51636130D-03  0.80887692D-03  0.10839902D-02
  0.11659776D-02  0.70005145D-03 -0.46038328D-03  0.32168252D-01 -0.16486412D-03
 -0.28567256D-03  0.19310144D-13  0.18884899D-13  0.12478051D-13 -0.39044069D-02
 -0.38184246D-02 -0.25229946D-02  0.14756195D-02  0.14431237D-02  0.95353282D-03
 -0.15070597D-13  0.69829000D-03 -0.25905919D-03 -0.15306149D-13  0.34772864D-03
 -0.20971462D-03 -0.60693845D-14  0.16469478D-04 -0.18331861D-04 -0.48690226D-03
  0.92653278D-03 -0.43963052D-03  0.95504960D-13  0.13249028D-13 -0.91967762D-03
  0.23962452D-03 -0.43589871D-03  0.19627419D-03 -0.22295042D-13 -0.64427720D-14
  0.47268173D-03  0.31839722D-04 -0.40322502D-04  0.84827800D-05  0.10349778D-13
 -0.65245418D-14  0.11113321D-03  0.29108161D-13 -0.61142274D-04 -0.36747771D-04
 -0.15499644D-12 -0.10234170D-03 -0.40651887D-04  0.67671954D-13  0.28576852D-03
  0.15089520D-03 -0.42181767D-13 -0.82088822D-14  0.85676086D-04  0.54377784D-04
  0.45829441D-13 -0.10754871D-03  0.75205427D-04 -0.21202795D-13 -0.14947955D-03
 -0.23833878D-03  0.17110798D-13  0.35587614D+00  0.66336854D+00  0.11245728D+01
  0.17029346D+01  0.21295257D+01  0.18333232D+01  0.70479639D+00 -0.30539981D-02
  0.18017172D-03  0.33833059D-03  0.57611864D-03  0.90248644D-03  0.12094380D-02
  0.13009136D-02  0.78106685D-03 -0.51366242D-03  0.36025264D-01 -0.21436297D-03
 -0.32969759D-03 -0.38025046D-02 -0.37187664D-02 -0.24571462D-02  0.21977703D-02
  0.21493714D-02  0.14201806D-02  0.16582092D-02  0.16216924D-02  0.10715207D-02
  0.68765746D-03 -0.39878094D-03 -0.29353386D-03  0.35802568D-03 -0.21175456D-03
 -0.22877768D-03  0.18300118D-04 -0.11253506D-04 -0.19680024D-04  0.64333351D-03
 -0.16395883D-03 -0.47937468D-03 -0.13709477D-02 -0.90927710D-03  0.52970517D-03
 -0.29933787D-03  0.82965683D-04  0.21637219D-03  0.65629018D-03  0.46225077D-03
 -0.26906085D-03 -0.29657221D-04  0.15221339D-04  0.14435882D-04  0.82867083D-04
  0.10667060D-03 -0.62310906D-04 -0.70727140D-04  0.27310480D-04 -0.49835533D-04
 -0.40779073D-04  0.56214748D-04  0.13325553D-03  0.25296049D-03 -0.13814619D-03
  0.16251063D-04 -0.21750389D-03  0.36565039D-04  0.41329246D-04  0.64089905D-04
  0.28152427D-04 -0.20127770D-03 -0.18521044D-03 -0.13784754D-03  0.77289959D-04
 -0.70592785D-05  0.31423683D-03  0.35587614D+00  0.66336854D+00  0.11245728D+01
  0.17029346D+01  0.21295257D+01  0.18333232D+01  0.70479639D+00 -0.30539981D-02
  0.18017172D-03  0.33833059D-03  0.57611864D-03  0.90248644D-03  0.12094380D-02
  0.13009136D-02  0.78106685D-03 -0.51366242D-03  0.36025264D-01 -0.21436297D-03
 -0.32969759D-03  0.38025046D-02  0.37187664D-02  0.24571462D-02  0.21977703D-02
  0.21493714D-02  0.14201806D-02  0.16582092D-02  0.16216924D-02  0.10715207D-02
 -0.68765747D-03 -0.39878094D-03 -0.29353386D-03 -0.35802568D-03 -0.21175456D-03
 -0.22877768D-03 -0.18300118D-04 -0.11253506D-04 -0.19680024D-04  0.64333351D-03
 -0.16395883D-03 -0.47937468D-03  0.13709477D-02  0.90927710D-03  0.52970517D-03
 -0.29933787D-03  0.82965683D-04  0.21637219D-03 -0.65629018D-03 -0.46225077D-03
 -0.26906085D-03 -0.29657221D-04  0.15221339D-04  0.14435882D-04 -0.82867083D-04
 -0.10667060D-03 -0.62310906D-04  0.70727140D-04  0.27310480D-04 -0.49835533D-04
  0.40779073D-04  0.56214748D-04  0.13325553D-03 -0.25296049D-03 -0.13814619D-03
  0.16251063D-04  0.21750389D-03 -0.36565039D-04  0.41329246D-04  0.64089905D-04
 -0.28152427D-04 -0.20127770D-03 -0.18521044D-03  0.13784754D-03  0.77289959D-04
 -0.70592785D-05 -0.31423683D-03
MO    4     MO 0.0        OCC NO =    2.0000000  ORB. ENERGY =  -10.806294
  0.33018537D+00  0.61554060D+00  0.10403720D+01  0.15640200D+01  0.19215792D+01
  0.16230809D+01  0.61216638D+00 -0.30296456D-02 -0.28976228D-02 -0.54252642D-02
 -0.92369764D-02 -0.14288198D-01 -0.18817054D-01 -0.19552125D-01 -0.12424497D-01
  0.83266093D-02  0.32013548D-01 -0.44740199D-02 -0.20658156D-03 -0.70960826D-14
 -0.66530285D-14 -0.47373527D-14 -0.31692833D-06 -0.29714046D-06 -0.21158171D-06
 -0.45386432D-02 -0.42552665D-02 -0.30300033D-02  0.19306128D-13  0.18305545D-05
  0.13450252D-02  0.98260520D-14 -0.22501123D-06  0.66291789D-03 -0.18618854D-15
 -0.65908313D-08 -0.17688692D-04  0.34525482D-03  0.34595638D-03 -0.69121121D-03
 -0.41891991D-14 -0.20998037D-14  0.10253581D-05 -0.23145332D-03 -0.23070429D-03
  0.46215761D-03 -0.12141337D-13 -0.12272144D-13 -0.92430526D-06 -0.24599539D-04
 -0.24647156D-04  0.49246694D-04 -0.13876639D-14 -0.14177055D-14 -0.27910063D-07
  0.58995396D-15  0.78166649D-03  0.11685857D-02 -0.46384872D-16 -0.23450720D-02
 -0.17525719D-02 -0.17234770D-14  0.72555109D-07 -0.17531851D-02  0.98540897D-14
  0.69947995D-15 -0.25021686D-03 -0.42880018D-03 -0.30692036D-15  0.75078894D-03
  0.64348386D-03 -0.17915195D-14 -0.13836265D-06  0.64291667D-03  0.12023020D-14
  0.67033476D-04  0.12089763D-03  0.17826349D-03  0.35459609D-03 -0.93758666D-03
  0.22749684D-04 -0.15905871D-14  0.14297687D-06  0.12089517D-02  0.61731165D-14
  0.69918838D-06  0.23126376D-02  0.24270095D-14  0.10500776D-06  0.30910688D-03
  0.11593072D-02  0.11597947D-02 -0.23191019D-02 -0.20161112D-15 -0.19500423D-14
 -0.16727734D-05  0.19531671D-03  0.19551686D-03 -0.39083357D-03  0.51361156D-15
 -0.26096824D-14 -0.19457402D-06  0.88542492D-04  0.16504704D-03  0.27979531D-03
  0.42369256D-03  0.52982903D-03  0.45613344D-03  0.17535435D-03 -0.75983910D-06
 -0.12458842D-03 -0.23395498D-03 -0.39838498D-03 -0.62406771D-03 -0.83632415D-03
 -0.89957939D-03 -0.54010628D-03  0.35519662D-03  0.43060138D-03  0.22472996D-02
  0.58719308D-03 -0.14750710D-14 -0.14425872D-14 -0.95317838D-15 -0.19851568D-02
 -0.19414399D-02 -0.12827915D-02  0.82730457D-03  0.80908580D-03  0.53459720D-03
  0.11581859D-14 -0.33748697D-03  0.15293529D-03  0.82611493D-15  0.16145929D-03
 -0.15159489D-03  0.80704086D-15 -0.30659266D-04  0.46409313D-04 -0.16829142D-02
  0.24201550D-02 -0.73724081D-03 -0.38059853D-15  0.62501916D-15 -0.35231566D-02
  0.72823526D-03 -0.10508905D-02  0.32265519D-03 -0.39085141D-16 -0.15892874D-15
  0.15597378D-02  0.34297531D-03 -0.43351779D-03  0.90542476D-04 -0.12751378D-14
  0.83566704D-15  0.45285960D-03  0.16656702D-14 -0.10714791D-02 -0.85770958D-03
 -0.17233599D-14  0.32998899D-02  0.74108275D-03 -0.32736506D-14 -0.85452669D-04
  0.18320460D-02  0.19017023D-14 -0.68586699D-15  0.87901539D-03  0.63579206D-03
  0.90791336D-15 -0.23493448D-02  0.21999542D-03  0.11496876D-14 -0.28770139D-03
 -0.21273716D-02 -0.12804436D-14  0.88586437D-04  0.16512896D-03  0.27993418D-03
  0.42390285D-03  0.53009200D-03  0.45635983D-03  0.17544138D-03 -0.76021622D-06
 -0.12459954D-03 -0.23397587D-03 -0.39842056D-03 -0.62412345D-03 -0.83639885D-03
 -0.89965974D-03 -0.54015452D-03  0.35522834D-03  0.43029740D-03  0.22489438D-02
  0.58730568D-03 -0.17180767D-02 -0.16802415D-02 -0.11102066D-02  0.99192602D-03
  0.97008198D-03  0.64097418D-03  0.82702930D-03  0.80881659D-03  0.53441932D-03
 -0.29324770D-03  0.16927249D-03  0.15348138D-03  0.13862642D-03 -0.79714511D-04
 -0.15122960D-03 -0.26593183D-04  0.15351430D-04  0.46405455D-04  0.13937689D-02
 -0.65735429D-03 -0.73641461D-03 -0.35524915D-02 -0.30519888D-02  0.17619189D-02
 -0.60556923D-03  0.28342465D-03  0.32214458D-03  0.15397417D-02  0.13506987D-02
 -0.77974019D-03 -0.23919896D-03  0.14895395D-03  0.90245008D-04  0.67184612D-03
  0.39188045D-03 -0.22633687D-03  0.18748759D-04 -0.11037767D-02 -0.85721160D-03
  0.19176067D-04  0.32675201D-02  0.15585271D-02 -0.75422345D-04  0.43809988D-04
  0.10131077D-02 -0.94585401D-03  0.62091018D-04  0.77112871D-03  0.63556422D-03
  0.61843447D-04 -0.24565191D-02 -0.15401832D-02 -0.24811650D-03  0.14313298D-03
 -0.36650943D-03  0.20331968D-02  0.88586437D-04  0.16512896D-03  0.27993418D-03
  0.42390285D-03  0.53009200D-03  0.45635983D-03  0.17544138D-03 -0.76021622D-06
 -0.12459954D-03 -0.23397587D-03 -0.39842056D-03 -0.62412345D-03 -0.83639885D-03
 -0.89965974D-03 -0.54015452D-03  0.35522834D-03  0.43029740D-03  0.22489438D-02
  0.58730568D-03  0.17180767D-02  0.16802415D-02  0.11102066D-02  0.99192602D-03
  0.97008198D-03  0.64097418D-03  0.82702930D-03  0.80881659D-03  0.53441932D-03
  0.29324770D-03  0.16927249D-03  0.15348138D-03 -0.13862642D-03 -0.79714511D-04
 -0.15122960D-03  0.26593183D-04  0.15351430D-04  0.46405455D-04  0.13937689D-02
 -0.65735429D-03 -0.73641461D-03  0.35524915D-02  0.30519888D-02  0.17619189D-02
 -0.60556923D-03  0.28342465D-03  0.32214458D-03 -0.15397417D-02 -0.13506987D-02
 -0.77974019D-03 -0.23919896D-03  0.14895395D-03  0.90245008D-04 -0.67184612D-03
 -0.39188045D-03 -0.22633687D-03 -0.18748759D-04 -0.11037767D-02 -0.85721160D-03
 -0.19176067D-04  0.32675201D-02  0.15585271D-02  0.75422345D-04  0.43809988D-04
  0.10131077D-02  0.94585401D-03 -0.62091018D-04  0.77112871D-03  0.63556422D-03
 -0.61843447D-04 -0.24565191D-02 -0.15401832D-02  0.24811650D-03  0.14313298D-03