 Molden2AIM, Version 4.0.0 (06/02/2016)           Time: Thu Jun 28 01:41:53 2018
GAUSSIAN              8 MOL ORBITALS    204 PRIMITIVES        4 NUCLEI
  C    1    (CENTRE  1)   0.23777479  1.39487488  0.00000000  CHARGE =  6.0
  H    2    (CENTRE  2)  -1.80370012  2.02535744  0.00000000  CHARGE =  1.0
  O    3    (CENTRE  3)   0.23741007 -1.07617257  0.00000000  CHARGE =  8.0
  H    4    (CENTRE  4)  -1.42788651 -1.86542425  0.00000000  CHARGE =  1.0
CENTRE ASSIGNMENTS    1  1  1  1  1  1  1  1  1  1  1  1  1  1  1  1  1  1  1  1
CENTRE ASSIGNMENTS    1  1  1  1  1  1  1  1  1  1  1  1  1  1  1  1  1  1  1  1
CENTRE ASSIGNMENTS    1  1  1  1  1  1  1  1  1  1  1  1  1  1  1  1  1  1  1  1
CENTRE ASSIGNMENTS    1  1  1  1  1  1  1  1  1  1  1  1  1  1  1  2  2  2  2  2
CENTRE ASSIGNMENTS    2  2  2  2  2  2  2  2  2  2  2  2  2  2  2  2  2  2  2  2
CENTRE ASSIGNMENTS    2  2  3  3  3  3  3  3  3  3  3  3  3  3  3  3  3  3  3  3
CENTRE ASSIGNMENTS    3  3  3  3  3  3  3  3  3  3  3  3  3  3  3  3  3  3  3  3
CENTRE ASSIGNMENTS    3  3  3  3  3  3  3  3  3  3  3  3  3  3  3  3  3  3  3  3
CENTRE ASSIGNMENTS    3  3  3  3  3  3  3  3  3  3  3  3  3  3  3  3  3  4  4  4
CENTRE ASSIGNMENTS    4  4  4  4  4  4  4  4  4  4  4  4  4  4  4  4  4  4  4  4
CENTRE ASSIGNMENTS    4  4  4  4
TYPE ASSIGNMENTS      1  1  1  1  1  1  1  1  1  1  1  1  1  1  1  1  1  1  1  2
TYPE ASSIGNMENTS      2  2  3  3  3  4  4  4  2  3  4  2  3  4  2  3  4  5  6  7
TYPE ASSIGNMENTS      8  9 10  5  6  7  8  9 10  5  6  7  8  9 10 11 12 13 17 14
TYPE ASSIGNMENTS     15 18 19 16 20 11 12 13 17 14 15 18 19 16 20  1  1  1  1  1
TYPE ASSIGNMENTS      1  2  3  4  2  3  4  2  3  4  5  6  7  8  9 10  5  6  7  8
TYPE ASSIGNMENTS      9 10  1  1  1  1  1  1  1  1  1  1  1  1  1  1  1  1  1  1
TYPE ASSIGNMENTS      1  2  2  2  3  3  3  4  4  4  2  3  4  2  3  4  2  3  4  5
TYPE ASSIGNMENTS      6  7  8  9 10  5  6  7  8  9 10  5  6  7  8  9 10 11 12 13
TYPE ASSIGNMENTS     17 14 15 18 19 16 20 11 12 13 17 14 15 18 19 16 20  1  1  1
TYPE ASSIGNMENTS      1  1  1  2  3  4  2  3  4  2  3  4  5  6  7  8  9 10  5  6
TYPE ASSIGNMENTS      7  8  9 10
EXPONENTS  0.8236000D+04 0.1235000D+04 0.2808000D+03 0.7927000D+02 0.2559000D+02
EXPONENTS  0.8997000D+01 0.3319000D+01 0.3643000D+00 0.8236000D+04 0.1235000D+04
EXPONENTS  0.2808000D+03 0.7927000D+02 0.2559000D+02 0.8997000D+01 0.3319000D+01
EXPONENTS  0.3643000D+00 0.9059000D+00 0.1285000D+00 0.4402000D-01 0.1871000D+02
EXPONENTS  0.4133000D+01 0.1200000D+01 0.1871000D+02 0.4133000D+01 0.1200000D+01
EXPONENTS  0.1871000D+02 0.4133000D+01 0.1200000D+01 0.3827000D+00 0.3827000D+00
EXPONENTS  0.3827000D+00 0.1209000D+00 0.1209000D+00 0.1209000D+00 0.3569000D-01
EXPONENTS  0.3569000D-01 0.3569000D-01 0.1097000D+01 0.1097000D+01 0.1097000D+01
EXPONENTS  0.1097000D+01 0.1097000D+01 0.1097000D+01 0.3180000D+00 0.3180000D+00
EXPONENTS  0.3180000D+00 0.3180000D+00 0.3180000D+00 0.3180000D+00 0.1000000D+00
EXPONENTS  0.1000000D+00 0.1000000D+00 0.1000000D+00 0.1000000D+00 0.1000000D+00
EXPONENTS  0.7610000D+00 0.7610000D+00 0.7610000D+00 0.7610000D+00 0.7610000D+00
EXPONENTS  0.7610000D+00 0.7610000D+00 0.7610000D+00 0.7610000D+00 0.7610000D+00
EXPONENTS  0.2680000D+00 0.2680000D+00 0.2680000D+00 0.2680000D+00 0.2680000D+00
EXPONENTS  0.2680000D+00 0.2680000D+00 0.2680000D+00 0.2680000D+00 0.2680000D+00
EXPONENTS  0.3387000D+02 0.5095000D+01 0.1159000D+01 0.3258000D+00 0.1027000D+00
EXPONENTS  0.2526000D-01 0.1407000D+01 0.1407000D+01 0.1407000D+01 0.3880000D+00
EXPONENTS  0.3880000D+00 0.3880000D+00 0.1020000D+00 0.1020000D+00 0.1020000D+00
EXPONENTS  0.1057000D+01 0.1057000D+01 0.1057000D+01 0.1057000D+01 0.1057000D+01
EXPONENTS  0.1057000D+01 0.2470000D+00 0.2470000D+00 0.2470000D+00 0.2470000D+00
EXPONENTS  0.2470000D+00 0.2470000D+00 0.1533000D+05 0.2299000D+04 0.5224000D+03
EXPONENTS  0.1473000D+03 0.4755000D+02 0.1676000D+02 0.6207000D+01 0.6882000D+00
EXPONENTS  0.1533000D+05 0.2299000D+04 0.5224000D+03 0.1473000D+03 0.4755000D+02
EXPONENTS  0.1676000D+02 0.6207000D+01 0.6882000D+00 0.1752000D+01 0.2384000D+00
EXPONENTS  0.7376000D-01 0.3446000D+02 0.7749000D+01 0.2280000D+01 0.3446000D+02
EXPONENTS  0.7749000D+01 0.2280000D+01 0.3446000D+02 0.7749000D+01 0.2280000D+01
EXPONENTS  0.7156000D+00 0.7156000D+00 0.7156000D+00 0.2140000D+00 0.2140000D+00
EXPONENTS  0.2140000D+00 0.5974000D-01 0.5974000D-01 0.5974000D-01 0.2314000D+01
EXPONENTS  0.2314000D+01 0.2314000D+01 0.2314000D+01 0.2314000D+01 0.2314000D+01
EXPONENTS  0.6450000D+00 0.6450000D+00 0.6450000D+00 0.6450000D+00 0.6450000D+00
EXPONENTS  0.6450000D+00 0.2140000D+00 0.2140000D+00 0.2140000D+00 0.2140000D+00
EXPONENTS  0.2140000D+00 0.2140000D+00 0.1428000D+01 0.1428000D+01 0.1428000D+01
EXPONENTS  0.1428000D+01 0.1428000D+01 0.1428000D+01 0.1428000D+01 0.1428000D+01
EXPONENTS  0.1428000D+01 0.1428000D+01 0.5000000D+00 0.5000000D+00 0.5000000D+00
EXPONENTS  0.5000000D+00 0.5000000D+00 0.5000000D+00 0.5000000D+00 0.5000000D+00
EXPONENTS  0.5000000D+00 0.5000000D+00 0.3387000D+02 0.5095000D+01 0.1159000D+01
EXPONENTS  0.3258000D+00 0.1027000D+00 0.2526000D-01 0.1407000D+01 0.1407000D+01
EXPONENTS  0.1407000D+01 0.3880000D+00 0.3880000D+00 0.3880000D+00 0.1020000D+00
EXPONENTS  0.1020000D+00 0.1020000D+00 0.1057000D+01 0.1057000D+01 0.1057000D+01
EXPONENTS  0.1057000D+01 0.1057000D+01 0.1057000D+01 0.2470000D+00 0.2470000D+00
EXPONENTS  0.2470000D+00 0.2470000D+00 0.2470000D+00 0.2470000D+00
MO    1     MO 0.0        OCC NO =    2.0000000  ORB. ENERGY =  -19.717511
  0.36869553D-03  0.68733229D-03  0.11617127D-02  0.17464346D-02  0.21456967D-02
  0.18123839D-02  0.68356453D-03 -0.33829990D-05 -0.27558221D-03 -0.51597684D-03
 -0.87849472D-03 -0.13588978D-02 -0.17896205D-02 -0.18595304D-02 -0.11816481D-02
  0.79191306D-03  0.23906980D-03  0.50511253D-03  0.19703743D-03 -0.50619874D-04
 -0.47459350D-04 -0.33793884D-04 -0.47747491D-03 -0.44766308D-03 -0.31876278D-03
  0.14965117D-16  0.14030749D-16  0.99907288D-17  0.38479536D-03 -0.16255612D-02
  0.25478398D-18 -0.83871590D-04 -0.17898337D-03 -0.24687458D-20 -0.69403727D-05
 -0.12732031D-04  0.74627413D-21 -0.71936405D-03  0.11242163D-02 -0.40485220D-03
 -0.15623522D-03 -0.43983532D-19 -0.14981824D-18 -0.14653389D-03  0.14770797D-03
 -0.11740785D-05  0.50099561D-03  0.12814639D-18 -0.36908010D-18  0.14014314D-04
 -0.90612933D-05 -0.49530206D-05  0.17280689D-04  0.22941067D-20  0.23702285D-20
 -0.60553609D-05  0.84264434D-04 -0.14916454D-18  0.41590186D-04 -0.20141850D-03
 -0.16620795D-18 -0.23424103D-04 -0.51374803D-04  0.61370157D-18 -0.13635753D-18
  0.12269579D-04  0.18018440D-04 -0.93621170D-20 -0.54351329D-04 -0.57309716D-04
 -0.48461152D-19  0.17542590D-04  0.32543965D-05  0.76547503D-19 -0.82771577D-20
 -0.40863685D-05 -0.73699339D-05 -0.10866963D-04  0.62025792D-03  0.10369713D-04
 -0.62347948D-06  0.30345141D-04  0.97439857D-04 -0.42228363D-19  0.54046040D-03
  0.51326850D-04  0.15345732D-18  0.58469769D-04  0.16679516D-04  0.10733016D-19
  0.31321135D-03 -0.30067373D-03 -0.12537620D-04  0.29570258D-03  0.95325443D-19
 -0.27704140D-19  0.55183692D-04 -0.37367829D-04 -0.17815863D-04 -0.60960298D-05
  0.29224418D-19 -0.22497652D-19  0.49840827D+00  0.92896888D+00  0.15752234D+01
  0.23841740D+01  0.29747531D+01  0.25549161D+01  0.98088199D+00 -0.43875453D-02
 -0.22293134D-03 -0.41811325D-03 -0.71279144D-03 -0.11139543D-02 -0.14895691D-02
 -0.15905125D-02 -0.97240818D-03  0.64153585D-03  0.49855907D-01 -0.44593142D-03
 -0.46249143D-03 -0.64427556D-02 -0.62473058D-02 -0.42143956D-02  0.42633726D-02
  0.41340373D-02  0.27887971D-02  0.16949305D-16  0.16435124D-16  0.11087038D-16
 -0.37159902D-03 -0.12241808D-02 -0.21609577D-17  0.40240018D-03 -0.81706253D-03
 -0.16718774D-18  0.32708936D-05 -0.56985203D-04 -0.79298098D-20  0.73939510D-03
  0.17004152D-02 -0.24398103D-02  0.32148126D-02  0.39811438D-17  0.29622022D-17
  0.38992703D-03 -0.87722003D-03  0.48729300D-03 -0.55678925D-04  0.20182347D-19
 -0.78352816D-18  0.93476923D-05 -0.15631567D-03  0.14696797D-03 -0.11376355D-04
  0.71909721D-19 -0.10072716D-19 -0.45040316D-03  0.52123526D-03 -0.27744685D-19
  0.98741739D-04 -0.20025851D-02 -0.18642897D-18  0.12524678D-02  0.43887933D-03
  0.26966303D-18  0.77213419D-19  0.71083329D-04 -0.32702457D-03  0.11582100D-18
  0.94350219D-04  0.77958061D-03 -0.84775298D-19 -0.30760021D-03  0.20149311D-03
 -0.26268769D-18 -0.26778723D-18  0.21857598D-03  0.39421079D-03  0.58126357D-03
  0.15736969D-04 -0.16824551D-03 -0.29372743D-04 -0.22248555D-03 -0.26957656D-03
  0.12704476D-18 -0.53044863D-03 -0.28271010D-03  0.35513881D-18 -0.61837409D-04
 -0.28295543D-04  0.19631838D-19 -0.12711834D-02  0.27773597D-03  0.99344741D-03
 -0.22449826D-02  0.89117425D-18  0.34598755D-18 -0.37234803D-04  0.11651081D-04
  0.25583722D-04 -0.80173179D-04  0.71887905D-19  0.34816486D-19
MO    2     MO 0.0        OCC NO =    2.0000000  ORB. ENERGY =  -10.620072
  0.32827281D+00  0.61197516D+00  0.10343458D+01  0.15549606D+01  0.19104488D+01
  0.16136794D+01  0.60862049D+00 -0.30120968D-02 -0.16278796D-02 -0.30479042D-02
 -0.51893177D-02 -0.80270855D-02 -0.10571389D-01 -0.10984351D-01 -0.69800617D-02
  0.46778750D-02  0.32112449D-01  0.50541505D-02  0.40555060D-03 -0.48158583D-02
 -0.45151733D-02 -0.32150724D-02 -0.64972158D-02 -0.60915528D-02 -0.43375485D-02
 -0.66132425D-17 -0.62003352D-17 -0.44150080D-17 -0.23826563D-02 -0.19661862D-02
  0.11655450D-17 -0.67776279D-03  0.29979114D-03 -0.41628021D-19 -0.17955511D-05
 -0.66886022D-05  0.19375156D-20 -0.41121139D-03  0.26261227D-02 -0.22149113D-02
 -0.22000832D-02 -0.31596866D-17 -0.27523359D-17  0.49307423D-03 -0.29508551D-03
 -0.19798872D-03 -0.50520962D-03  0.33677323D-18 -0.27913850D-18  0.30542595D-04
 -0.46922373D-04  0.16379778D-04 -0.51370514D-04  0.13728376D-19 -0.14658077D-19
 -0.41484934D-03 -0.76727269D-03 -0.38557477D-18  0.56064576D-03  0.19642391D-02
  0.24674451D-18  0.68390226D-03  0.33757896D-03  0.90997980D-18  0.45409175D-18
  0.20763120D-05  0.10698274D-03  0.58636174D-20 -0.22508188D-05 -0.14283613D-03
 -0.61732720D-19 -0.39781173D-05 -0.17811207D-03  0.44141868D-19 -0.11758941D-18
  0.23861437D-03  0.43035084D-03  0.63455207D-03 -0.29806780D-02 -0.28682298D-02
 -0.30678098D-04 -0.76587217D-03  0.10016003D-03 -0.22150403D-18 -0.29987222D-02
  0.99712714D-03  0.59504106D-19 -0.60824949D-03  0.21711700D-03  0.38718038D-19
 -0.28396332D-02  0.13706597D-02  0.14689735D-02  0.25483269D-02 -0.22356901D-18
  0.89959806D-19 -0.23744056D-03  0.58103592D-04  0.17933697D-03  0.27347608D-03
 -0.28327819D-19 -0.39399338D-19  0.57259364D-03  0.10672409D-02  0.18096869D-02
  0.27390454D-02  0.34175289D-02  0.29352016D-02  0.11268810D-02 -0.50406077D-05
 -0.49102628D-03 -0.92093195D-03 -0.15699871D-02 -0.24535842D-02 -0.32809096D-02
 -0.35032465D-02 -0.21418162D-02  0.14130403D-02  0.82723346D-03 -0.21669733D-02
 -0.80342675D-03 -0.34750146D-03 -0.33695952D-03 -0.22731090D-03  0.28270276D-02
  0.27412658D-02  0.18492417D-02 -0.25662148D-19 -0.24883651D-19 -0.16786364D-19
  0.43670162D-03 -0.14027535D-03 -0.28026577D-18 -0.54411232D-03 -0.25483223D-02
 -0.14088575D-18 -0.54677778D-04 -0.15356102D-03  0.33758837D-20 -0.23501337D-02
  0.40123072D-02 -0.16621735D-02  0.82012605D-03  0.48234894D-18  0.10994915D-17
  0.15409045D-02 -0.28098693D-02  0.12689648D-02 -0.82864212D-03 -0.21732205D-18
 -0.87901910D-18  0.45246371D-03 -0.68326671D-03  0.23080300D-03 -0.29071102D-04
 -0.13038372D-18 -0.24198143D-18  0.27763225D-04 -0.75428619D-03  0.54985506D-19
  0.17185924D-03  0.11485034D-02  0.76249805D-19 -0.25514892D-03  0.11143552D-02
 -0.24120632D-18  0.20117159D-18 -0.21836433D-03 -0.88653903D-03  0.84335707D-19
  0.46142772D-03  0.16045652D-02  0.21626727D-18  0.19366526D-03  0.10550519D-02
 -0.46927439D-18  0.41643906D-20  0.99084887D-04  0.17870367D-03  0.26349846D-03
 -0.68014320D-03  0.20553467D-03 -0.41818355D-04  0.35510822D-03 -0.10245914D-02
  0.25769904D-19  0.56363630D-03 -0.42769840D-03 -0.28070516D-18  0.35148963D-04
  0.12211021D-03 -0.36980269D-19  0.81262899D-03 -0.10959802D-02  0.28335121D-03
 -0.70485481D-03 -0.18010791D-18 -0.29756497D-18  0.66507814D-04  0.35095490D-04
 -0.10160330D-03  0.80781054D-04 -0.83254907D-19  0.28566121D-19
MO    3     MO 0.0        OCC NO =    2.0000000  ORB. ENERGY =   -1.240767
 -0.43714094D-02 -0.81493010D-02 -0.13773754D-01 -0.20706464D-01 -0.25440284D-01
 -0.21488387D-01 -0.81046289D-02  0.40110261D-04 -0.19331436D-01 -0.36194548D-01
 -0.61624316D-01 -0.95323446D-01 -0.12553763D+00 -0.13044163D+00 -0.82889803D-01
  0.55550818D-01  0.26233578D-01  0.10033549D-01  0.59563785D-03 -0.18309890D-01
 -0.17166686D-01 -0.12223703D-01 -0.16185532D+00 -0.15174965D+00 -0.10805479D+00
  0.14639149D-15  0.13725133D-15  0.97731123D-16 -0.94709317D-02 -0.31722795D-01
 -0.46278305D-16 -0.11368835D-02  0.10048489D-03  0.17172543D-16  0.79215200D-05
  0.61313015D-05  0.30794505D-18 -0.11839469D-01  0.23947897D-01 -0.12108428D-01
  0.48150666D-02 -0.17883023D-16  0.79908655D-17 -0.35514709D-03  0.25431322D-02
 -0.21879851D-02 -0.55549893D-03  0.29560590D-17 -0.17157395D-16  0.10129493D-03
 -0.14284969D-03  0.41554751D-04 -0.80239471D-04 -0.23597436D-18 -0.72680438D-18
 -0.62429517D-03 -0.22563829D-02 -0.22721236D-17  0.65056598D-03  0.46357616D-02
 -0.36084154D-17  0.12223195D-02  0.21333870D-02  0.10424786D-16  0.17999665D-16
 -0.98390930D-04 -0.10645381D-03 -0.69085590D-18 -0.45327251D-05  0.42620163D-03
 -0.76239833D-18  0.29970552D-03 -0.10684019D-03  0.28349660D-17 -0.43891413D-17
  0.37441659D-02  0.67527573D-02  0.99569367D-02 -0.22961313D-02 -0.37020930D-02
 -0.41882224D-05  0.27271769D-02 -0.28193862D-02  0.72590381D-17 -0.39730971D-02
  0.79429968D-03 -0.37267814D-17 -0.66311220D-03  0.37450731D-03 -0.24678178D-17
 -0.67681003D-03  0.62680813D-03  0.50001899D-04 -0.77356614D-03  0.20131123D-17
 -0.22429247D-17 -0.28559932D-03 -0.61999950D-04  0.34759927D-03  0.47197659D-03
 -0.20094646D-17  0.10363021D-17 -0.64685820D-02 -0.12056604D-01 -0.20444006D-01
 -0.30942956D-01 -0.38607775D-01 -0.33158929D-01 -0.12730358D-01  0.56943671D-04
 -0.94309468D-01 -0.17687974D+00 -0.30154119D+00 -0.47125018D+00 -0.63015129D+00
 -0.67285466D+00 -0.41137014D+00  0.27139704D+00  0.14743468D+00  0.66636081D-01
  0.96036785D-03 -0.19676656D+00 -0.19079737D+00 -0.12871078D+00  0.20662715D+00
  0.20035883D+00  0.13516088D+00  0.57077238D-16  0.55345721D-16  0.37335896D-16
 -0.51784372D-01  0.51321477D-01  0.29700529D-16 -0.57099111D-02 -0.24344166D-02
 -0.17482850D-16 -0.20845564D-03 -0.44757555D-03 -0.84465197D-18  0.33955235D-02
  0.29876875D-01 -0.33272398D-01  0.21715548D-01 -0.12553369D-16  0.37246344D-16
 -0.74387373D-03  0.82882719D-02 -0.75443981D-02  0.37239481D-02  0.64775070D-18
 -0.26901801D-16  0.70370060D-03 -0.10593309D-02  0.35563035D-03  0.17085422D-03
 -0.18597171D-17 -0.12427345D-16 -0.29738399D-02  0.14422708D-01 -0.71621190D-17
 -0.16167960D-03 -0.28147185D-01  0.69541276D-17  0.90831995D-02 -0.15120939D-01
  0.14532229D-16 -0.10934635D-16  0.56270647D-03 -0.12445463D-03  0.42550697D-17
 -0.13968854D-02  0.35846417D-03 -0.20875855D-17 -0.29123401D-03  0.14899716D-04
 -0.10677624D-16  0.23784468D-17  0.20269501D-01  0.36556879D-01  0.53903097D-01
  0.12609481D-01 -0.21749627D-02 -0.18868778D-03  0.18237745D-01  0.11526637D-01
 -0.24142320D-17  0.26538770D-03  0.25302070D-02  0.41059630D-17 -0.60466225D-03
  0.15522884D-03 -0.28233016D-18 -0.30851256D-03  0.32882254D-03 -0.20309975D-04
  0.28328284D-02 -0.12324669D-17 -0.10751130D-16 -0.29179982D-03  0.51249806D-03
 -0.22069824D-03  0.31060849D-03 -0.20974899D-17  0.79233369D-17
MO    4     MO 0.0        OCC NO =    2.0000000  ORB. ENERGY =   -0.765005
 -0.50159779D-02 -0.93509233D-02 -0.15804708D-01 -0.23759653D-01 -0.29191478D-01
 -0.24656870D-01 -0.92996642D-02  0.46024557D-04 -0.40993787D-01 -0.76753304D-01
 -0.13067907D+00 -0.20214065D+00 -0.26621212D+00 -0.27661145D+00 -0.17577416D+00
  0.11779975D+00  0.56496942D-01  0.30944981D-01  0.68164005D-03 -0.45286004D-01
 -0.42458508D-01 -0.30232987D-01 -0.13190207D+00 -0.12366658D+00 -0.88057972D-01
  0.54457767D-16  0.51057618D-16  0.36356066D-16 -0.17910381D-01 -0.29179642D-01
  0.17156431D-15 -0.32030497D-02  0.10600321D-02 -0.78737913D-16 -0.31221587D-04
  0.88755198D-04  0.25648526D-17 -0.39858854D-02  0.12764500D-01 -0.87786149D-02
 -0.13819674D-01  0.51519451D-16  0.17285288D-15  0.95307148D-03  0.20243876D-02
 -0.29774591D-02 -0.49001755D-02  0.27687473D-16  0.71279059D-16  0.18205185D-03
 -0.15466029D-03 -0.27391556D-04 -0.16487333D-03 -0.19118255D-17  0.29096148D-17
 -0.14396033D-02 -0.29009014D-02  0.46227302D-17  0.31834571D-02  0.53598915D-02
 -0.55942739D-18  0.11353528D-02  0.33428128D-02 -0.13308763D-16 -0.30516045D-18
 -0.30297770D-03 -0.20549804D-03  0.34062062D-17  0.64134430D-03  0.52182083D-03
 -0.50454834D-18  0.26758880D-03  0.94673278D-04 -0.97140704D-17  0.52151352D-17
  0.16113654D-01  0.29061638D-01  0.42851369D-01  0.13575855D-01 -0.65611277D-02
 -0.27737030D-03  0.12605112D-01 -0.47587756D-02 -0.18080840D-16 -0.33740493D-02
 -0.86358162D-04  0.35021168D-16 -0.17132850D-02  0.46504415D-03 -0.29463041D-17
  0.10576260D-02  0.12735533D-03 -0.11849813D-02 -0.36684159D-02  0.19415945D-16
 -0.82836756D-17 -0.53274137D-03  0.23747394D-03  0.29526743D-03  0.33650650D-03
  0.12450445D-16 -0.48390367D-17  0.52003779D-03  0.96928354D-03  0.16435837D-02
  0.24876405D-02  0.31038490D-02  0.26657924D-02  0.10234495D-02 -0.45779525D-05
  0.22431177D-01  0.42070229D-01  0.71720517D-01  0.11208521D+00  0.14987928D+00
  0.16003613D+00  0.97842950D-01 -0.64550836D-01 -0.38895357D-01 -0.26517141D-01
 -0.21392222D-02  0.48692024D+00  0.47214884D+00  0.31850882D+00  0.11061326D+01
  0.10725766D+01  0.72355382D+00 -0.66097929D-15 -0.64092757D-15 -0.43236595D-15
  0.10876762D+00  0.24667223D+00 -0.16026992D-15  0.85350170D-02  0.22082278D-01
  0.26000012D-16  0.11714233D-03 -0.11221128D-04 -0.60492452D-18 -0.58770567D-01
  0.61767868D-01 -0.29973014D-02 -0.71031483D-01  0.87700723D-16  0.68500817D-16
 -0.12264357D-01  0.14397545D-01 -0.21331886D-02 -0.11527202D-01  0.69534375D-17
  0.48733742D-16 -0.20868642D-03  0.26255825D-03 -0.53871836D-04  0.14162694D-03
  0.64753540D-17  0.42962002D-16 -0.93840816D-03  0.83258179D-02  0.20471526D-16
  0.12886775D-01 -0.25290513D-03 -0.46178779D-16 -0.10071550D-01 -0.24724549D-01
 -0.15235800D-16  0.20158223D-15  0.43498309D-03  0.10918877D-02 -0.86158097D-17
 -0.15066975D-02 -0.29211564D-02  0.14277878D-17  0.20174820D-03 -0.35450674D-03
  0.24419641D-16 -0.27561765D-16 -0.31729129D-01 -0.57224791D-01 -0.84377922D-01
 -0.49554680D-01 -0.40320592D-03  0.22066100D-03 -0.28018985D-01 -0.32323253D-02
 -0.91597062D-17 -0.93028957D-02  0.28107958D-02 -0.32847232D-17  0.58498529D-03
  0.92987269D-03  0.25970516D-17 -0.83913787D-02  0.53142452D-02  0.30771336D-02
 -0.29739369D-02 -0.90099513D-17  0.82205656D-17 -0.37922685D-03  0.70773555D-03
 -0.32850871D-03  0.11006070D-02  0.78700203D-17 -0.13048311D-16
MO    5     MO 0.0        OCC NO =    2.0000000  ORB. ENERGY =   -0.635239
  0.11299037D-02  0.21063974D-02  0.35601826D-02  0.53521206D-02  0.65756986D-02
  0.55542286D-02  0.20948507D-02 -0.10367533D-04  0.19928772D-01  0.37312948D-01
  0.63528487D-01  0.98268910D-01  0.12941670D+00  0.13447224D+00  0.85451071D-01
 -0.57267321D-01 -0.26786647D-01 -0.23758631D-01 -0.15971628D-02  0.29574197D+00
  0.27727690D+00  0.19743767D+00 -0.17997521D+00 -0.16873820D+00 -0.12015165D+00
  0.50942073D-15  0.47761431D-15  0.34008984D-15  0.67783667D-01 -0.31528317D-01
  0.15812516D-15  0.66606509D-02 -0.10416353D-02 -0.17540594D-17  0.19582337D-04
  0.26073342D-04  0.11485603D-16 -0.23487493D-01  0.22273050D-01  0.12144427D-02
 -0.20318950D-01 -0.73534206D-16  0.40575981D-15 -0.40727711D-02  0.25566319D-02
  0.15161393D-02 -0.45086920D-02  0.52551493D-16  0.84900663D-16 -0.21278635D-03
 -0.53757860D-04  0.26654421D-03  0.22106437D-03 -0.11426046D-17 -0.21723226D-17
 -0.25831937D-02 -0.36850561D-03  0.84635826D-17  0.84223795D-02  0.12872266D-02
 -0.63570337D-17 -0.67279837D-03 -0.18170972D-03 -0.19033714D-16  0.10904424D-16
  0.61680724D-04 -0.49998779D-04 -0.13191958D-17  0.11669436D-03  0.47088956D-03
 -0.31292833D-17 -0.30173653D-03 -0.32089323D-03  0.70868707D-17 -0.32961456D-17
 -0.31448428D-01 -0.56718534D-01 -0.83631446D-01 -0.47020050D-01 -0.21222269D-02
  0.16165882D-03 -0.24537411D-01  0.92583350D-02  0.79679078D-17 -0.27670806D-02
  0.42791322D-03 -0.81232573D-18  0.61067656D-03  0.36417634D-03 -0.64901390D-17
 -0.57474797D-02  0.28348115D-02  0.29126682D-02  0.62540825D-02  0.24979729D-17
  0.43290315D-17  0.25997938D-03 -0.11025983D-03 -0.14971955D-03 -0.33022215D-03
  0.73806789D-19 -0.22120188D-17  0.13622483D-03  0.25390555D-03  0.43053969D-03
  0.65164188D-03  0.81305880D-03  0.69830908D-03  0.26809443D-03 -0.11992028D-05
 -0.30361993D-01 -0.56944671D-01 -0.97078180D-01 -0.15171430D+00 -0.20287092D+00
 -0.21661885D+00 -0.13243652D+00  0.87373571D-01  0.49577998D-01  0.56759134D-01
  0.40921642D-02  0.10830820D+01  0.10502252D+01  0.70847572D+00  0.14246016D+00
  0.13813844D+00  0.93187374D-01 -0.11462890D-14 -0.11115147D-14 -0.74982127D-15
  0.24102517D+00  0.34071478D-01 -0.22520532D-15  0.24788045D-01  0.34712785D-03
 -0.71855351D-16  0.29239303D-03 -0.84920712D-04 -0.20066052D-17 -0.46794290D-01
  0.25993095D-01  0.20801194D-01  0.15488626D-01  0.10774011D-15 -0.38025749D-16
 -0.90288149D-02  0.83449334D-02  0.68388147D-03  0.16792040D-01  0.52211666D-16
 -0.11373470D-16  0.50872070D-03 -0.30396764D-04 -0.47832393D-03  0.22669799D-02
  0.58842584D-17 -0.20658138D-16 -0.21609727D-02  0.12066267D-02 -0.23555635D-17
  0.20249428D-01  0.50394898D-02  0.72490354D-16 -0.13766510D-01 -0.86593700D-02
 -0.65423663D-16 -0.39817261D-16 -0.59455011D-03  0.96384358D-03 -0.50697335D-18
  0.12367578D-02 -0.27672864D-02  0.88154096D-18  0.54689249D-03 -0.12424436D-03
  0.63937910D-18 -0.29140435D-17 -0.24424399D-01 -0.44050410D-01 -0.64952304D-01
 -0.55882099D-01 -0.45517278D-02  0.22741264D-04 -0.12380406D-01 -0.12690173D-01
 -0.20042347D-16 -0.87673729D-02 -0.72166596D-02  0.49088345D-17  0.19200442D-03
  0.36287650D-03 -0.10620178D-17 -0.29912675D-02  0.40154100D-03  0.25897265D-02
 -0.80371840D-02  0.38847215D-17 -0.11267343D-16  0.13155457D-03 -0.33192672D-04
 -0.98361903D-04  0.21635260D-03  0.30313066D-17  0.73798801D-17
MO    6     MO 0.0        OCC NO =    2.0000000  ORB. ENERGY =   -0.509516
 -0.16265067D-15 -0.30321783D-15 -0.51249155D-15 -0.77044267D-15 -0.94657784D-15
 -0.79953631D-15 -0.30155568D-15  0.14924159D-17 -0.18149948D-16 -0.33982429D-16
 -0.57857992D-16 -0.89497517D-16 -0.11786508D-15 -0.12246937D-15 -0.77823786D-16
  0.52155692D-16  0.80038680D-16 -0.32759896D-15 -0.10450757D-15  0.41329143D-15
  0.38748698D-15  0.27591382D-15  0.19709633D-14  0.18479034D-14  0.13158173D-14
  0.26741436D+00  0.25071796D+00  0.17852612D+00  0.86884543D-16  0.96761890D-15
  0.65898732D-01  0.17349258D-15 -0.41267501D-15  0.63378950D-02  0.10932791D-16
  0.20533353D-16 -0.23484471D-04  0.36715882D-15 -0.37318819D-15  0.60293661D-17
 -0.61375487D-15 -0.10235433D-01 -0.62286400D-01  0.45213934D-16 -0.20117397D-15
  0.15596004D-15  0.28148262D-15 -0.20006386D-02 -0.13382352D-01 -0.40125807D-16
  0.41393148D-16 -0.12673402D-17  0.55663351D-16 -0.23102819D-03  0.12112461D-04
 -0.53370410D-16  0.21373974D-16 -0.32730981D-02 -0.97227274D-17 -0.13036696D-15
 -0.50215286D-02  0.16983396D-15  0.66245040D-16  0.14840823D-01 -0.43117183D-03
 -0.10682767D-16 -0.17031465D-16 -0.24328602D-03  0.14676832D-15 -0.88993114D-16
 -0.43752923D-03 -0.11472002D-15  0.14008751D-15  0.11673873D-02  0.55419873D-03
  0.11488455D-15  0.20719902D-15  0.30551483D-15  0.29665899D-15  0.97685058D-15
 -0.23525247D-16 -0.10923142D-15  0.54145431D-16  0.40046130D-02  0.13299374D-15
  0.71146832D-15  0.35171324D-02  0.97224014D-16 -0.97171578D-16 -0.10320650D-03
 -0.13021922D-15 -0.15249304D-15  0.28271226D-15  0.97344195D-16  0.26936523D-02
 -0.15126186D-02  0.18434149D-16  0.13052267D-15 -0.14895682D-15  0.41217225D-16
  0.18936590D-03 -0.13746551D-03 -0.36090775D-15 -0.67268560D-15 -0.11406519D-14
 -0.17264298D-14 -0.21540803D-14 -0.18500677D-14 -0.71027696D-15  0.31771124D-17
  0.18076345D-15  0.33902632D-15  0.57796556D-15  0.90324766D-15  0.12078142D-14
  0.12896640D-14  0.78847529D-15 -0.52018810D-15  0.44486695D-15 -0.43177870D-15
 -0.24945013D-15  0.43180342D-14  0.41870406D-14  0.28245529D-14 -0.43099163D-14
 -0.41791690D-14 -0.28192427D-14  0.16157172D+01  0.15667022D+01  0.10568880D+01
  0.15426784D-14 -0.41262923D-15  0.37951308D+00  0.38412058D-15 -0.17347329D-15
  0.56935889D-01  0.55774087D-16 -0.93054133D-17  0.10014996D-02 -0.59720356D-15
  0.10957991D-14 -0.49859552D-15  0.70253076D-15 -0.60204617D-01  0.68717333D-01
 -0.17719246D-15 -0.23802759D-15  0.41522006D-15  0.22535467D-16 -0.15164434D-01
  0.22089085D-01 -0.90827381D-16  0.14602626D-15 -0.55198876D-16  0.16794199D-15
 -0.99916950D-03  0.16609920D-02  0.41500982D-15 -0.33863262D-15 -0.12323834D-01
 -0.48426699D-15  0.19194711D-14  0.34792988D-02 -0.76076248D-15 -0.90357327D-15
  0.33492202D-01  0.19870185D-01 -0.44359775D-16  0.15853537D-15 -0.11975373D-03
  0.27310649D-16 -0.30931497D-15 -0.12704930D-02  0.10576868D-15 -0.16629115D-15
  0.16297541D-02 -0.21472486D-02 -0.18265180D-17 -0.32942005D-17 -0.48572966D-17
  0.28004504D-15 -0.30636399D-16  0.98811374D-16  0.52034624D-15  0.34335860D-16
  0.20030003D-01  0.49589252D-15  0.14686017D-15  0.13450571D-01  0.38032974D-16
  0.40776419D-16  0.12630880D-02  0.51580828D-15 -0.13026751D-15 -0.38554078D-15
  0.77486956D-15  0.13710289D-01  0.65019377D-02 -0.28550079D-16  0.33378789D-16
 -0.48287094D-17  0.22058614D-15  0.20002059D-02  0.12783392D-02
MO    7     MO 0.0        OCC NO =    2.0000000  ORB. ENERGY =   -0.492027
  0.57263098D-03  0.10675143D-02  0.18042873D-02  0.27124348D-02  0.33325396D-02
  0.28148624D-02  0.10616625D-02 -0.52542271D-05  0.18109024D-01  0.33905806D-01
  0.57727536D-01  0.89295721D-01  0.11759932D+00  0.12219323D+00  0.77648312D-01
 -0.52038093D-01 -0.24032331D-01 -0.38134154D-01 -0.15775975D-02  0.52050913D-01
  0.48801040D-01  0.34749247D-01 -0.37245234D+00 -0.34919774D+00 -0.24864960D+00
  0.89010322D-15  0.83452835D-15  0.59423390D-15  0.14181186D-01 -0.81899899D-01
  0.47424772D-15  0.69701474D-02 -0.77602879D-02 -0.49681083D-16  0.91154852D-04
 -0.95910812D-04  0.12438839D-16 -0.23144437D-01  0.31525470D-01 -0.83810327D-02
  0.48572551D-01 -0.14631813D-15  0.11564221D-15 -0.46643156D-02  0.58430203D-02
 -0.11787047D-02  0.10652055D-01 -0.43107059D-16 -0.67559192D-16 -0.38465295D-03
  0.23883884D-03  0.14581411D-03 -0.32654429D-04 -0.92628556D-17 -0.24994382D-17
  0.20030918D-02 -0.91736497D-03 -0.92850088D-17 -0.67527917D-02  0.24030363D-02
 -0.35688540D-16  0.74351618D-03  0.34905858D-03  0.63543566D-16 -0.43615387D-17
  0.39125497D-03  0.12228405D-04 -0.52401252D-18 -0.88040756D-03 -0.35540156D-03
  0.36523079D-17 -0.29335734D-03  0.31871635D-03 -0.20802704D-17  0.74821628D-17
 -0.25974567D-01 -0.46846201D-01 -0.69074696D-01 -0.37629057D-01  0.36289892D-02
  0.12542041D-03 -0.17571229D-01 -0.11971808D-02  0.92386245D-17 -0.13490350D-02
 -0.19765234D-02  0.33464642D-16  0.18553202D-02 -0.10277761D-02 -0.23146980D-16
 -0.44613009D-02  0.38427988D-02  0.61850207D-03 -0.86417184D-03  0.20573499D-16
 -0.62757420D-17  0.31793169D-04 -0.25860277D-03  0.22680960D-03 -0.21139026D-03
  0.92212223D-17 -0.11161251D-18  0.80277508D-03  0.14962695D-02  0.25371772D-02
  0.38401359D-02  0.47913684D-02  0.41151465D-02  0.15798848D-02 -0.70669214D-05
  0.12351554D-01  0.23165645D-01  0.39492347D-01  0.61718851D-01  0.82529863D-01
  0.88122653D-01  0.53876462D-01 -0.35544417D-01 -0.22671477D-01 -0.39162070D-01
 -0.91597875D-02 -0.96598436D+00 -0.93667989D+00 -0.63187872D+00  0.10537717D+01
  0.10218041D+01  0.68930302D+00  0.83759353D-14  0.81218398D-14  0.54789451D-14
 -0.21869292D+00  0.24579861D+00  0.19321201D-14 -0.26572705D-01  0.39313978D-01
  0.31454866D-15 -0.32879337D-03  0.46176304D-03 -0.19330742D-16  0.91584084D-02
  0.25257324D-01 -0.34415732D-01 -0.39756859D-01 -0.30615993D-15  0.42776305D-15
  0.12745312D-02  0.48702155D-02 -0.61447466D-02 -0.19006531D-01 -0.15142515D-15
  0.15483732D-15 -0.85020395D-03  0.56270409D-03  0.28749986D-03 -0.25249757D-02
  0.19106950D-16  0.47106752D-16 -0.32410466D-02  0.13140273D-01 -0.47867408D-16
  0.18195062D-02 -0.22122849D-01 -0.17039773D-16  0.79036335D-02 -0.17297971D-01
  0.16064200D-15  0.13185402D-15  0.76251289D-03  0.50020935D-04 -0.73265260D-17
 -0.14490314D-02  0.10652534D-02 -0.40062543D-17 -0.83850727D-03 -0.12153162D-02
  0.25985832D-16 -0.13760387D-16  0.92313767D-02  0.16649168D-01  0.24549189D-01
  0.31786023D-01  0.96910634D-02  0.14428983D-03 -0.14583439D-02  0.16530686D-01
  0.10204313D-15  0.40395847D-02  0.11527322D-01  0.79193253D-16  0.43451227D-03
  0.12821430D-02  0.33027163D-16 -0.21202677D-02  0.27475435D-02 -0.62727582D-03
  0.10103594D-01  0.62532502D-16  0.29884840D-16 -0.49271776D-03  0.48238554D-03
  0.10332219D-04  0.89745847D-03  0.25617370D-16  0.42005822D-17
MO    8     MO 0.0        OCC NO =    2.0000000  ORB. ENERGY =   -0.289909
 -0.31129244D-03 -0.58031989D-03 -0.98084284D-03 -0.14745281D-02 -0.18116281D-02
 -0.15302096D-02 -0.57713874D-03  0.28562918D-05 -0.31718469D-01 -0.59386982D-01
 -0.10111142D+00 -0.15640399D+00 -0.20597855D+00 -0.21402491D+00 -0.13600322D+00
  0.91146196D-01  0.45441172D-01  0.58132478D-01  0.74001197D-02  0.53648931D+00
  0.50299283D+00  0.35816086D+00  0.22087954D+00  0.20708861D+00  0.14745943D+00
  0.73524491D-15  0.68933884D-15  0.49085032D-15  0.12593663D+00  0.49613384D-01
  0.25497182D-16  0.20174321D-01  0.84268803D-02  0.23565349D-15  0.63603700D-03
  0.16469979D-03  0.16723303D-16 -0.20861665D-01 -0.25188433D-02  0.23380509D-01
 -0.35108675D-02  0.90934253D-16  0.28199331D-15 -0.44934296D-02  0.23671672D-03
  0.42567129D-02  0.12023929D-02 -0.40692620D-16 -0.58591684D-16 -0.24211976D-03