 Molden2AIM, Version 4.0.0 (06/02/2016)           Time: Thu Jun 28 05:39:19 2018
GAUSSIAN             34 MOL ORBITALS    525 PRIMITIVES        3 NUCLEI
  Se   1    (CENTRE  1)  -0.42362180  0.00000000 -0.29131829  CHARGE = 34.0
  Cl   2    (CENTRE  2)  -0.08610348  0.00000000  3.79239876  CHARGE = 17.0
  Cl   3    (CENTRE  3)   3.51054044  0.00000000 -1.43734270  CHARGE = 17.0
CENTRE ASSIGNMENTS    1  1  1  1  1  1  1  1  1  1  1  1  1  1  1  1  1  1  1  1
CENTRE ASSIGNMENTS    1  1  1  1  1  1  1  1  1  1  1  1  1  1  1  1  1  1  1  1
CENTRE ASSIGNMENTS    1  1  1  1  1  1  1  1  1  1  1  1  1  1  1  1  1  1  1  1
CENTRE ASSIGNMENTS    1  1  1  1  1  1  1  1  1  1  1  1  1  1  1  1  1  1  1  1
CENTRE ASSIGNMENTS    1  1  1  1  1  1  1  1  1  1  1  1  1  1  1  1  1  1  1  1
CENTRE ASSIGNMENTS    1  1  1  1  1  1  1  1  1  1  1  1  1  1  1  1  1  1  1  1
CENTRE ASSIGNMENTS    1  1  1  1  1  1  1  1  1  1  1  1  1  1  1  1  1  1  1  1
CENTRE ASSIGNMENTS    1  1  1  1  1  1  1  1  1  1  1  1  1  1  1  1  1  1  1  1
CENTRE ASSIGNMENTS    1  1  1  1  1  1  1  1  1  1  1  1  1  1  1  1  1  1  1  1
CENTRE ASSIGNMENTS    1  1  1  1  1  1  1  1  1  1  1  1  1  1  1  1  1  1  1  1
CENTRE ASSIGNMENTS    1  1  1  1  1  1  1  1  1  1  1  1  1  1  1  1  1  1  1  1
CENTRE ASSIGNMENTS    1  1  1  1  1  1  1  1  1  1  1  1  1  1  1  1  1  1  1  1
CENTRE ASSIGNMENTS    1  1  1  1  1  1  1  1  1  1  1  1  1  1  1  1  1  1  1  1
CENTRE ASSIGNMENTS    1  1  1  2  2  2  2  2  2  2  2  2  2  2  2  2  2  2  2  2
CENTRE ASSIGNMENTS    2  2  2  2  2  2  2  2  2  2  2  2  2  2  2  2  2  2  2  2
CENTRE ASSIGNMENTS    2  2  2  2  2  2  2  2  2  2  2  2  2  2  2  2  2  2  2  2
CENTRE ASSIGNMENTS    2  2  2  2  2  2  2  2  2  2  2  2  2  2  2  2  2  2  2  2
CENTRE ASSIGNMENTS    2  2  2  2  2  2  2  2  2  2  2  2  2  2  2  2  2  2  2  2
CENTRE ASSIGNMENTS    2  2  2  2  2  2  2  2  2  2  2  2  2  2  2  2  2  2  2  2
CENTRE ASSIGNMENTS    2  2  2  2  2  2  2  2  2  2  2  2  2  2  3  3  3  3  3  3
CENTRE ASSIGNMENTS    3  3  3  3  3  3  3  3  3  3  3  3  3  3  3  3  3  3  3  3
CENTRE ASSIGNMENTS    3  3  3  3  3  3  3  3  3  3  3  3  3  3  3  3  3  3  3  3
CENTRE ASSIGNMENTS    3  3  3  3  3  3  3  3  3  3  3  3  3  3  3  3  3  3  3  3
CENTRE ASSIGNMENTS    3  3  3  3  3  3  3  3  3  3  3  3  3  3  3  3  3  3  3  3
CENTRE ASSIGNMENTS    3  3  3  3  3  3  3  3  3  3  3  3  3  3  3  3  3  3  3  3
CENTRE ASSIGNMENTS    3  3  3  3  3  3  3  3  3  3  3  3  3  3  3  3  3  3  3  3
CENTRE ASSIGNMENTS    3  3  3  3  3
TYPE ASSIGNMENTS      1  1  1  1  1  1  1  1  1  1  1  1  1  1  1  1  1  1  1  1
TYPE ASSIGNMENTS      1  1  1  1  1  1  1  1  1  1  1  1  1  1  1  1  1  1  1  1
TYPE ASSIGNMENTS      1  1  1  1  1  1  1  1  1  1  1  1  1  1  1  1  1  1  1  1
TYPE ASSIGNMENTS      1  1  1  1  1  1  1  1  1  1  1  1  1  1  1  2  2  2  2  2
TYPE ASSIGNMENTS      2  2  2  2  2  2  3  3  3  3  3  3  3  3  3  3  3  4  4  4
TYPE ASSIGNMENTS      4  4  4  4  4  4  4  4  2  2  2  2  2  2  2  2  2  2  2  3
TYPE ASSIGNMENTS      3  3  3  3  3  3  3  3  3  3  4  4  4  4  4  4  4  4  4  4
TYPE ASSIGNMENTS      4  2  2  2  2  2  2  2  2  2  2  2  3  3  3  3  3  3  3  3
TYPE ASSIGNMENTS      3  3  3  4  4  4  4  4  4  4  4  4  4  4  2  3  4  2  3  4
TYPE ASSIGNMENTS      2  3  4  5  5  5  5  5  5  5  6  6  6  6  6  6  6  7  7  7
TYPE ASSIGNMENTS      7  7  7  7  8  8  8  8  8  8  8  9  9  9  9  9  9  9 10 10
TYPE ASSIGNMENTS     10 10 10 10 10  5  6  7  8  9 10  5  6  7  8  9 10  5  6  7
TYPE ASSIGNMENTS      8  9 10 11 12 13 17 14 15 18 19 16 20 11 12 13 17 14 15 18
TYPE ASSIGNMENTS     19 16 20  1  1  1  1  1  1  1  1  1  1  1  1  1  1  1  1  1
TYPE ASSIGNMENTS      1  1  1  1  1  1  1  1  1  1  1  1  1  1  1  1  1  1  1  1
TYPE ASSIGNMENTS      1  1  1  1  1  2  2  2  2  2  2  2  3  3  3  3  3  3  3  4
TYPE ASSIGNMENTS      4  4  4  4  4  4  2  2  2  2  2  2  2  3  3  3  3  3  3  3
TYPE ASSIGNMENTS      4  4  4  4  4  4  4  2  3  4  2  3  4  2  3  4  5  6  7  8
TYPE ASSIGNMENTS      9 10  5  6  7  8  9 10  5  6  7  8  9 10 11 12 13 17 14 15
TYPE ASSIGNMENTS     18 19 16 20 11 12 13 17 14 15 18 19 16 20  1  1  1  1  1  1
TYPE ASSIGNMENTS      1  1  1  1  1  1  1  1  1  1  1  1  1  1  1  1  1  1  1  1
TYPE ASSIGNMENTS      1  1  1  1  1  1  1  1  1  1  1  1  1  1  1  1  2  2  2  2
TYPE ASSIGNMENTS      2  2  2  3  3  3  3  3  3  3  4  4  4  4  4  4  4  2  2  2
TYPE ASSIGNMENTS      2  2  2  2  3  3  3  3  3  3  3  4  4  4  4  4  4  4  2  3
TYPE ASSIGNMENTS      4  2  3  4  2  3  4  5  6  7  8  9 10  5  6  7  8  9 10  5
TYPE ASSIGNMENTS      6  7  8  9 10 11 12 13 17 14 15 18 19 16 20 11 12 13 17 14
TYPE ASSIGNMENTS     15 18 19 16 20
EXPONENTS  0.9563600D+07 0.1432100D+07 0.3259100D+06 0.9231200D+05 0.3011600D+05
EXPONENTS  0.1087200D+05 0.4240100D+04 0.1758400D+04 0.7665900D+03 0.3484300D+03
EXPONENTS  0.1640300D+03 0.7914200D+02 0.3552400D+02 0.1730500D+02 0.8378400D+01
EXPONENTS  0.3740500D+01 0.1689000D+01 0.2552000D+00 0.9563600D+07 0.1432100D+07
EXPONENTS  0.3259100D+06 0.9231200D+05 0.3011600D+05 0.1087200D+05 0.4240100D+04
EXPONENTS  0.1758400D+04 0.7665900D+03 0.3484300D+03 0.1640300D+03 0.7914200D+02
EXPONENTS  0.3552400D+02 0.1730500D+02 0.8378400D+01 0.3740500D+01 0.1689000D+01
EXPONENTS  0.2552000D+00 0.9563600D+07 0.1432100D+07 0.3259100D+06 0.9231200D+05
EXPONENTS  0.3011600D+05 0.1087200D+05 0.4240100D+04 0.1758400D+04 0.7665900D+03
EXPONENTS  0.3484300D+03 0.1640300D+03 0.7914200D+02 0.3552400D+02 0.1730500D+02
EXPONENTS  0.8378400D+01 0.3740500D+01 0.1689000D+01 0.2552000D+00 0.9563600D+07
EXPONENTS  0.1432100D+07 0.3259100D+06 0.9231200D+05 0.3011600D+05 0.1087200D+05
EXPONENTS  0.4240100D+04 0.1758400D+04 0.7665900D+03 0.3484300D+03 0.1640300D+03
EXPONENTS  0.7914200D+02 0.3552400D+02 0.1730500D+02 0.8378400D+01 0.3740500D+01
EXPONENTS  0.1689000D+01 0.2552000D+00 0.5092700D+00 0.1065100D+00 0.3920100D-01
EXPONENTS  0.8004300D+04 0.1896900D+04 0.6147100D+03 0.2335000D+03 0.9785600D+02
EXPONENTS  0.4351400D+02 0.2006300D+02 0.9112700D+01 0.4106300D+01 0.1794900D+01
EXPONENTS  0.2461500D+00 0.8004300D+04 0.1896900D+04 0.6147100D+03 0.2335000D+03
EXPONENTS  0.9785600D+02 0.4351400D+02 0.2006300D+02 0.9112700D+01 0.4106300D+01
EXPONENTS  0.1794900D+01 0.2461500D+00 0.8004300D+04 0.1896900D+04 0.6147100D+03
EXPONENTS  0.2335000D+03 0.9785600D+02 0.4351400D+02 0.2006300D+02 0.9112700D+01
EXPONENTS  0.4106300D+01 0.1794900D+01 0.2461500D+00 0.8004300D+04 0.1896900D+04
EXPONENTS  0.6147100D+03 0.2335000D+03 0.9785600D+02 0.4351400D+02 0.2006300D+02
EXPONENTS  0.9112700D+01 0.4106300D+01 0.1794900D+01 0.2461500D+00 0.8004300D+04
EXPONENTS  0.1896900D+04 0.6147100D+03 0.2335000D+03 0.9785600D+02 0.4351400D+02
EXPONENTS  0.2006300D+02 0.9112700D+01 0.4106300D+01 0.1794900D+01 0.2461500D+00
EXPONENTS  0.8004300D+04 0.1896900D+04 0.6147100D+03 0.2335000D+03 0.9785600D+02
EXPONENTS  0.4351400D+02 0.2006300D+02 0.9112700D+01 0.4106300D+01 0.1794900D+01
EXPONENTS  0.2461500D+00 0.8004300D+04 0.1896900D+04 0.6147100D+03 0.2335000D+03
EXPONENTS  0.9785600D+02 0.4351400D+02 0.2006300D+02 0.9112700D+01 0.4106300D+01
EXPONENTS  0.1794900D+01 0.2461500D+00 0.8004300D+04 0.1896900D+04 0.6147100D+03
EXPONENTS  0.2335000D+03 0.9785600D+02 0.4351400D+02 0.2006300D+02 0.9112700D+01
EXPONENTS  0.4106300D+01 0.1794900D+01 0.2461500D+00 0.8004300D+04 0.1896900D+04
EXPONENTS  0.6147100D+03 0.2335000D+03 0.9785600D+02 0.4351400D+02 0.2006300D+02
EXPONENTS  0.9112700D+01 0.4106300D+01 0.1794900D+01 0.2461500D+00 0.6243200D+00
EXPONENTS  0.6243200D+00 0.6243200D+00 0.8891700D-01 0.8891700D-01 0.8891700D-01
EXPONENTS  0.3025100D-01 0.3025100D-01 0.3025100D-01 0.3618500D+03 0.1085500D+03
EXPONENTS  0.4143300D+02 0.1757900D+02 0.7862700D+01 0.3518000D+01 0.1534800D+01
EXPONENTS  0.3618500D+03 0.1085500D+03 0.4143300D+02 0.1757900D+02 0.7862700D+01
EXPONENTS  0.3518000D+01 0.1534800D+01 0.3618500D+03 0.1085500D+03 0.4143300D+02
EXPONENTS  0.1757900D+02 0.7862700D+01 0.3518000D+01 0.1534800D+01 0.3618500D+03
EXPONENTS  0.1085500D+03 0.4143300D+02 0.1757900D+02 0.7862700D+01 0.3518000D+01
EXPONENTS  0.1534800D+01 0.3618500D+03 0.1085500D+03 0.4143300D+02 0.1757900D+02
EXPONENTS  0.7862700D+01 0.3518000D+01 0.1534800D+01 0.3618500D+03 0.1085500D+03
EXPONENTS  0.4143300D+02 0.1757900D+02 0.7862700D+01 0.3518000D+01 0.1534800D+01
EXPONENTS  0.6081300D+00 0.6081300D+00 0.6081300D+00 0.6081300D+00 0.6081300D+00
EXPONENTS  0.6081300D+00 0.2220000D+00 0.2220000D+00 0.2220000D+00 0.2220000D+00
EXPONENTS  0.2220000D+00 0.2220000D+00 0.8370000D-01 0.8370000D-01 0.8370000D-01
EXPONENTS  0.8370000D-01 0.8370000D-01 0.8370000D-01 0.4620000D+00 0.4620000D+00
EXPONENTS  0.4620000D+00 0.4620000D+00 0.4620000D+00 0.4620000D+00 0.4620000D+00
EXPONENTS  0.4620000D+00 0.4620000D+00 0.4620000D+00 0.1880000D+00 0.1880000D+00
EXPONENTS  0.1880000D+00 0.1880000D+00 0.1880000D+00 0.1880000D+00 0.1880000D+00
EXPONENTS  0.1880000D+00 0.1880000D+00 0.1880000D+00 0.4561000D+06 0.6833000D+05
EXPONENTS  0.1555000D+05 0.4405000D+04 0.1439000D+04 0.5204000D+03 0.2031000D+03
EXPONENTS  0.8396000D+02 0.3620000D+02 0.1583000D+02 0.6334000D+01 0.2694000D+01
EXPONENTS  0.4313000D+00 0.4561000D+06 0.6833000D+05 0.1555000D+05 0.4405000D+04
EXPONENTS  0.1439000D+04 0.5204000D+03 0.2031000D+03 0.8396000D+02 0.3620000D+02
EXPONENTS  0.1583000D+02 0.6334000D+01 0.2694000D+01 0.4313000D+00 0.4561000D+06
EXPONENTS  0.6833000D+05 0.1555000D+05 0.4405000D+04 0.1439000D+04 0.5204000D+03
EXPONENTS  0.2031000D+03 0.8396000D+02 0.3620000D+02 0.1583000D+02 0.6334000D+01
EXPONENTS  0.2694000D+01 0.4313000D+00 0.9768000D+00 0.1625000D+00 0.5910000D-01
EXPONENTS  0.6633000D+03 0.1568000D+03 0.4998000D+02 0.1842000D+02 0.7240000D+01
EXPONENTS  0.2922000D+01 0.3818000D+00 0.6633000D+03 0.1568000D+03 0.4998000D+02
EXPONENTS  0.1842000D+02 0.7240000D+01 0.2922000D+01 0.3818000D+00 0.6633000D+03
EXPONENTS  0.1568000D+03 0.4998000D+02 0.1842000D+02 0.7240000D+01 0.2922000D+01
EXPONENTS  0.3818000D+00 0.6633000D+03 0.1568000D+03 0.4998000D+02 0.1842000D+02
EXPONENTS  0.7240000D+01 0.2922000D+01 0.3818000D+00 0.6633000D+03 0.1568000D+03
EXPONENTS  0.4998000D+02 0.1842000D+02 0.7240000D+01 0.2922000D+01 0.3818000D+00
EXPONENTS  0.6633000D+03 0.1568000D+03 0.4998000D+02 0.1842000D+02 0.7240000D+01
EXPONENTS  0.2922000D+01 0.3818000D+00 0.1022000D+01 0.1022000D+01 0.1022000D+01
EXPONENTS  0.1301000D+00 0.1301000D+00 0.1301000D+00 0.4190000D-01 0.4190000D-01
EXPONENTS  0.4190000D-01 0.1046000D+01 0.1046000D+01 0.1046000D+01 0.1046000D+01
EXPONENTS  0.1046000D+01 0.1046000D+01 0.3440000D+00 0.3440000D+00 0.3440000D+00
EXPONENTS  0.3440000D+00 0.3440000D+00 0.3440000D+00 0.1350000D+00 0.1350000D+00
EXPONENTS  0.1350000D+00 0.1350000D+00 0.1350000D+00 0.1350000D+00 0.7060000D+00
EXPONENTS  0.7060000D+00 0.7060000D+00 0.7060000D+00 0.7060000D+00 0.7060000D+00
EXPONENTS  0.7060000D+00 0.7060000D+00 0.7060000D+00 0.7060000D+00 0.3120000D+00
EXPONENTS  0.3120000D+00 0.3120000D+00 0.3120000D+00 0.3120000D+00 0.3120000D+00
EXPONENTS  0.3120000D+00 0.3120000D+00 0.3120000D+00 0.3120000D+00 0.4561000D+06
EXPONENTS  0.6833000D+05 0.1555000D+05 0.4405000D+04 0.1439000D+04 0.5204000D+03
EXPONENTS  0.2031000D+03 0.8396000D+02 0.3620000D+02 0.1583000D+02 0.6334000D+01
EXPONENTS  0.2694000D+01 0.4313000D+00 0.4561000D+06 0.6833000D+05 0.1555000D+05
EXPONENTS  0.4405000D+04 0.1439000D+04 0.5204000D+03 0.2031000D+03 0.8396000D+02
EXPONENTS  0.3620000D+02 0.1583000D+02 0.6334000D+01 0.2694000D+01 0.4313000D+00
EXPONENTS  0.4561000D+06 0.6833000D+05 0.1555000D+05 0.4405000D+04 0.1439000D+04
EXPONENTS  0.5204000D+03 0.2031000D+03 0.8396000D+02 0.3620000D+02 0.1583000D+02
EXPONENTS  0.6334000D+01 0.2694000D+01 0.4313000D+00 0.9768000D+00 0.1625000D+00
EXPONENTS  0.5910000D-01 0.6633000D+03 0.1568000D+03 0.4998000D+02 0.1842000D+02
EXPONENTS  0.7240000D+01 0.2922000D+01 0.3818000D+00 0.6633000D+03 0.1568000D+03
EXPONENTS  0.4998000D+02 0.1842000D+02 0.7240000D+01 0.2922000D+01 0.3818000D+00
EXPONENTS  0.6633000D+03 0.1568000D+03 0.4998000D+02 0.1842000D+02 0.7240000D+01
EXPONENTS  0.2922000D+01 0.3818000D+00 0.6633000D+03 0.1568000D+03 0.4998000D+02
EXPONENTS  0.1842000D+02 0.7240000D+01 0.2922000D+01 0.3818000D+00 0.6633000D+03
EXPONENTS  0.1568000D+03 0.4998000D+02 0.1842000D+02 0.7240000D+01 0.2922000D+01
EXPONENTS  0.3818000D+00 0.6633000D+03 0.1568000D+03 0.4998000D+02 0.1842000D+02
EXPONENTS  0.7240000D+01 0.2922000D+01 0.3818000D+00 0.1022000D+01 0.1022000D+01
EXPONENTS  0.1022000D+01 0.1301000D+00 0.1301000D+00 0.1301000D+00 0.4190000D-01
EXPONENTS  0.4190000D-01 0.4190000D-01 0.1046000D+01 0.1046000D+01 0.1046000D+01
EXPONENTS  0.1046000D+01 0.1046000D+01 0.1046000D+01 0.3440000D+00 0.3440000D+00
EXPONENTS  0.3440000D+00 0.3440000D+00 0.3440000D+00 0.3440000D+00 0.1350000D+00
EXPONENTS  0.1350000D+00 0.1350000D+00 0.1350000D+00 0.1350000D+00 0.1350000D+00
EXPONENTS  0.7060000D+00 0.7060000D+00 0.7060000D+00 0.7060000D+00 0.7060000D+00
EXPONENTS  0.7060000D+00 0.7060000D+00 0.7060000D+00 0.7060000D+00 0.7060000D+00
EXPONENTS  0.3120000D+00 0.3120000D+00 0.3120000D+00 0.3120000D+00 0.3120000D+00
EXPONENTS  0.3120000D+00 0.3120000D+00 0.3120000D+00 0.3120000D+00 0.3120000D+00
MO    1     MO 0.0        OCC NO =    2.0000000  ORB. ENERGY = -456.423188
  0.77213996D+00  0.14427075D+01  0.25021955D+01  0.40992354D+01  0.64190771D+01
  0.96397421D+01  0.13749032D+02  0.18165257D+02  0.20949007D+02  0.18854778D+02
  0.10577999D+02  0.25572879D+01  0.12140735D+00 -0.20776447D-02  0.58435193D-03
 -0.22772102D-03  0.21539808D-04  0.21238704D-05  0.40068727D-04  0.73787183D-04
  0.12807601D-03  0.20976452D-03  0.33015970D-03  0.49833235D-03  0.72642341D-03
  0.99753194D-03  0.12668529D-02  0.13643202D-02  0.10884290D-02  0.24379941D-03
 -0.65191415D-03 -0.57973057D-03 -0.11322373D-03 -0.31365303D-05 -0.22713686D-06
 -0.46387561D-08 -0.12136809D-03 -0.21911886D-03 -0.38144421D-03 -0.62463098D-03
 -0.98476632D-03 -0.14859853D-02 -0.21748500D-02 -0.29966576D-02 -0.38604979D-02
 -0.42491942D-02 -0.35771325D-02 -0.85184325D-03  0.28693356D-02  0.38340338D-02
  0.47101889D-03 -0.16458040D-02 -0.72651540D-03  0.36055653D-05  0.39572275D-04
  0.85732895D-04  0.14594902D-03  0.23824037D-03  0.37559616D-03  0.56679571D-03
  0.82955362D-03  0.11443172D-02  0.14760496D-02  0.16317965D-02  0.13820106D-02
  0.33569956D-03 -0.11646797D-02 -0.16438118D-02 -0.19612939D-03  0.92176301D-03
  0.73681617D-03 -0.27914081D-03  0.26246032D-03  0.12989969D-03  0.20815616D-04
  0.10082586D-03  0.14450685D-03  0.19082683D-03  0.21934582D-03  0.20178445D-03
  0.12908704D-03  0.44682031D-04  0.50233287D-05  0.63908986D-07  0.11074323D-07
  0.11316753D-09  0.48274114D-17  0.69188001D-17  0.91365410D-17  0.10501993D-16
  0.96611773D-17  0.61805198D-17  0.21393176D-17  0.24051046D-18  0.30598793D-20
  0.53022420D-21  0.54183143D-23  0.69354778D-04  0.99401482D-04  0.13126347D-03
  0.15088074D-03  0.13880085D-03  0.88794707D-04  0.30735292D-04  0.34553818D-05
  0.43960879D-07  0.76176606D-08  0.77844201D-10  0.10002869D-02  0.14428351D-02
  0.19216697D-02  0.22742254D-02  0.21854452D-02  0.15021743D-02  0.47295171D-03
 -0.22857329D-03 -0.23457152D-03 -0.59073815D-04  0.64407121D-07 -0.25486551D-18
 -0.36762342D-18 -0.48962683D-18 -0.57945534D-18 -0.55683482D-18 -0.38274260D-18
 -0.12050450D-18  0.58238738D-19  0.59767042D-19  0.15051559D-19 -0.16410445D-22
  0.68805018D-03  0.99245818D-03  0.13218259D-02  0.15643323D-02  0.15032646D-02
  0.10332748D-02  0.32532116D-03 -0.15722478D-03 -0.16135068D-03 -0.40634090D-04
  0.44302620D-07 -0.71249802D-03 -0.10328991D-02 -0.13709153D-02 -0.16360562D-02
 -0.15718616D-02 -0.11002193D-02 -0.33220145D-03  0.20335685D-03  0.21870666D-03
  0.58817374D-04 -0.21925199D-04  0.26284059D-18  0.38103658D-18  0.50573077D-18
  0.60354129D-18  0.57985990D-18  0.40587102D-18  0.12254915D-18 -0.75018361D-19
 -0.80680907D-19 -0.21697735D-19  0.80882079D-20 -0.49009215D-03 -0.71048021D-03
 -0.94298479D-03 -0.11253621D-02 -0.10812059D-02 -0.75678646D-03 -0.22850495D-03
  0.13987912D-03  0.15043749D-03  0.40457562D-04 -0.15081260D-04  0.11454955D-04
 -0.16600480D-19  0.78798694D-05  0.27324052D-04 -0.96233468D-21  0.18790794D-04
  0.67959954D-06  0.10653913D-21  0.46736673D-06  0.15397117D-03  0.15937488D-03
  0.13334374D-03  0.86044576D-04  0.38652400D-04  0.11285875D-04  0.19039963D-05
 -0.37976028D-03 -0.39308818D-03 -0.32888400D-03 -0.21222357D-03 -0.95333730D-04
 -0.27835906D-04 -0.46960880D-05  0.22578911D-03  0.23371330D-03  0.19554027D-03
  0.12617900D-03  0.56681331D-04  0.16550031D-04  0.27920917D-05  0.35789480D-18
  0.37045532D-18  0.30994783D-18  0.20000437D-18  0.89844695D-19  0.26233197D-19
  0.44257011D-20 -0.18738611D-03 -0.19396253D-03 -0.16228209D-03 -0.10471803D-03
 -0.47040772D-04 -0.13735144D-04 -0.23172030D-05  0.23251987D-18  0.24068028D-18
  0.20136931D-18  0.12994039D-18  0.58370998D-19  0.17043387D-19  0.28753238D-20
 -0.67793912D-05  0.17138609D-04 -0.10359218D-04 -0.37781924D-20  0.93414645D-05
  0.31426451D-20  0.15868177D-05 -0.41032070D-05  0.25163893D-05  0.13775275D-20
 -0.24293939D-05  0.59638968D-21  0.14737590D-05 -0.30237292D-05  0.15499701D-05
 -0.14937916D-22 -0.19902877D-06 -0.19955019D-22 -0.43637473D-05 -0.56330215D-21
 -0.78516370D-05  0.11850055D-04  0.85076936D-21  0.15404756D-04  0.12411871D-05
  0.83913708D-21  0.81501550D-05  0.39380734D-21  0.13906399D-05 -0.54415004D-22
  0.24986887D-05 -0.37799941D-05  0.10824927D-21 -0.48965237D-05 -0.39192574D-06
  0.54995741D-22 -0.25995423D-05 -0.16959130D-21  0.34696643D-05  0.64917551D-05
  0.11216315D-04  0.18182954D-04  0.27612267D-04  0.38377804D-04  0.45625672D-04
  0.40639839D-04  0.20174833D-04  0.32504889D-05  0.49903662D-07  0.89177354D-08
  0.33324186D-09 -0.58196492D-05 -0.10870269D-04 -0.18865879D-04 -0.30611655D-04
 -0.47383206D-04 -0.67824755D-04 -0.88532491D-04 -0.94346142D-04 -0.70525657D-04
 -0.37229241D-05  0.47837727D-04  0.28421106D-04 -0.10655784D-06  0.28497083D-05
  0.53185700D-05  0.92432065D-05  0.14980519D-04  0.23267091D-04  0.33330779D-04
  0.44010188D-04  0.47588068D-04  0.37309662D-04  0.18565164D-05 -0.31983814D-04
 -0.33109176D-04  0.14982371D-04 -0.10721976D-04 -0.37301973D-04 -0.27424036D-04
  0.54045658D-04  0.71190261D-04  0.78539535D-04  0.65236112D-04  0.34648484D-04
  0.89368547D-05 -0.91867828D-08 -0.25944458D-20 -0.34174673D-20 -0.37702671D-20
 -0.31316402D-20 -0.16632902D-20 -0.42901106D-21  0.44100878D-24 -0.10290524D-03
 -0.13554929D-03 -0.14954262D-03 -0.12421234D-03 -0.65972190D-04 -0.17016152D-04
  0.17492026D-07 -0.47875251D-04 -0.62856695D-04 -0.71566971D-04 -0.60599972D-04
 -0.34713997D-04 -0.78962300D-05  0.36958702D-05  0.18533455D-20  0.24333067D-20
  0.27704987D-20  0.23459445D-20  0.13438474D-20  0.30567865D-21 -0.14307443D-21
  0.68005635D-04  0.89286413D-04  0.10165915D-03  0.86080793D-04  0.49310392D-04
  0.11216404D-04 -0.52498941D-05 -0.26060673D-05  0.59450950D-21  0.21545648D-04
 -0.20708823D-05 -0.19350177D-21  0.20502523D-04  0.78225019D-07 -0.10155479D-22
  0.15399394D-05  0.87166042D-05  0.59412816D-05 -0.14657886D-04  0.83567117D-22
 -0.23474024D-05 -0.27803331D-20 -0.33933083D-05 -0.22283915D-05  0.56216998D-05
 -0.67198236D-22 -0.27443332D-06  0.98246729D-21  0.32959580D-06  0.45852379D-06
 -0.78811959D-06  0.50908046D-22  0.11461598D-05  0.18702663D-21 -0.12396654D-05
 -0.80709070D-21  0.47153933D-05  0.11973116D-05 -0.78026561D-21 -0.66844378D-05
  0.25216846D-05  0.32015377D-20 -0.74617422D-05  0.68822597D-21  0.55582841D-06
  0.36926425D-21 -0.42871074D-05  0.73948434D-07  0.34608388D-21  0.65186456D-05
 -0.17414337D-05 -0.14538766D-20  0.63426766D-05 -0.25493449D-21  0.34702112D-05
  0.64927784D-05  0.11218083D-04  0.18185820D-04  0.27616619D-04  0.38383853D-04
  0.45632864D-04  0.40646245D-04  0.20178013D-04  0.32510012D-05  0.49911528D-07
  0.89191411D-08  0.33329439D-09 -0.58206494D-05 -0.10872137D-04 -0.18869122D-04
 -0.30616916D-04 -0.47391350D-04 -0.67836412D-04 -0.88547707D-04 -0.94362358D-04
 -0.70537778D-04 -0.37235640D-05  0.47845949D-04  0.28425991D-04 -0.10657615D-06
  0.28502702D-05  0.53196186D-05  0.92450290D-05  0.14983472D-04  0.23271678D-04
  0.33337351D-04  0.44018865D-04  0.47597451D-04  0.37317018D-04  0.18568825D-05
 -0.31990120D-04 -0.33115704D-04  0.14985325D-04 -0.10721999D-04 -0.37304121D-04
 -0.27425144D-04 -0.76738084D-04 -0.10108128D-03 -0.11151633D-03 -0.92627131D-04
 -0.49196519D-04 -0.12689217D-04  0.13044084D-07 -0.21180135D-20 -0.27898991D-20
 -0.30779123D-20 -0.25565600D-20 -0.13578511D-20 -0.35022941D-21  0.36002393D-24
  0.87282347D-04  0.11497044D-03  0.12683933D-03  0.10535464D-03  0.55956410D-04
  0.14432790D-04 -0.14836418D-07  0.46360185D-04  0.60867525D-04  0.69302155D-04
  0.58682218D-04  0.33615434D-04  0.76463450D-05 -0.35789103D-05  0.13243601D-20
  0.17387877D-20  0.19797377D-20  0.16763606D-20  0.96028388D-21  0.21843127D-21
 -0.10223785D-21 -0.69034174D-04 -0.90636810D-04 -0.10319668D-03 -0.87382707D-04
 -0.50056179D-04 -0.11386044D-04  0.53292953D-05  0.19184397D-04  0.58639175D-21
 -0.10142000D-04  0.18406352D-04 -0.38114437D-21 -0.92703911D-05  0.14660564D-05
 -0.10842075D-22 -0.47799014D-06 -0.12448513D-04  0.59407378D-05  0.65077750D-05
 -0.27994292D-20  0.13872144D-04  0.10818019D-20  0.43746470D-05 -0.22277488D-05
 -0.21468982D-05  0.10439463D-20 -0.62270794D-05 -0.43042450D-21 -0.26244683D-06
  0.45875477D-06 -0.19630794D-06  0.30638402D-21  0.15999880D-05 -0.53862739D-22
  0.37704102D-05 -0.88421774D-21  0.11615878D-05 -0.65394188D-05  0.32107272D-20
 -0.72726140D-05 -0.47718118D-05 -0.55807396D-21  0.37878507D-05 -0.23304802D-20
 -0.32290460D-05  0.41110446D-21 -0.15928636D-05  0.59486994D-05 -0.14817099D-20
  0.69788116D-05  0.37384387D-05  0.24839648D-21 -0.22002206D-05  0.11220074D-20
MO    2     MO 0.0        OCC NO =    2.0000000  ORB. ENERGY = -102.706895
 -0.12144194D-04 -0.22690861D-04 -0.39354456D-04 -0.64472652D-04 -0.10095905D-03
 -0.15161358D-03 -0.21624437D-03 -0.28570262D-03 -0.32948535D-03 -0.29654738D-03
 -0.16637046D-03 -0.40220948D-04 -0.19094912D-05  0.32677134D-07 -0.91906697D-08
  0.35815893D-08 -0.33877746D-09 -0.33404171D-10  0.25948113D-04  0.47783854D-04
  0.82940765D-04  0.13584144D-03  0.21380817D-03  0.32271512D-03  0.47042465D-03
  0.64599187D-03  0.82040144D-03  0.88352031D-03  0.70485590D-03  0.15788210D-03
 -0.42217319D-03 -0.37542781D-03 -0.73322574D-04 -0.20311862D-05 -0.14709160D-06
 -0.30040128D-08 -0.38855817D-04 -0.70150579D-04 -0.12211880D-03 -0.19997469D-03
 -0.31527149D-03 -0.47573600D-03 -0.69627504D-03 -0.95937551D-03 -0.12359327D-02
 -0.13603733D-02 -0.11452137D-02 -0.27271636D-03  0.91861356D-03  0.12274603D-02
  0.15079601D-03 -0.52690173D-03 -0.23259284D-03  0.11543164D-05  0.17822394D-04
  0.38612019D-04  0.65731903D-04  0.10729769D-03  0.16915941D-03  0.25527106D-03
  0.37361085D-03  0.51537276D-03  0.66477698D-03  0.73492159D-03  0.62242410D-03
  0.15119095D-03 -0.52454352D-03 -0.74033301D-03 -0.88331925D-04  0.41513973D-03
  0.33184415D-03 -0.12571826D-03 -0.91142617D-04  0.52751224D-03  0.63812529D-04
  0.37396787D-02  0.53598268D-02  0.70778570D-02  0.81356398D-02  0.74842800D-02
  0.47878990D-02  0.16572775D-02  0.18631762D-03  0.23704143D-05  0.41075184D-06
  0.41974368D-08  0.37927943D-14  0.54359539D-14  0.71783856D-14  0.82511924D-14
  0.75905812D-14  0.48559028D-14  0.16808163D-14  0.18896394D-15  0.24040819D-17
  0.41658586D-18  0.42570541D-20 -0.18823536D-02 -0.26978493D-02 -0.35626135D-02
 -0.40950447D-02 -0.37671851D-02 -0.24099715D-02 -0.83418461D-03 -0.93782298D-04
 -0.11931394D-05 -0.20675044D-06 -0.21127645D-08 -0.15664385D-01 -0.22594641D-01
 -0.30093139D-01 -0.35614123D-01 -0.34223834D-01 -0.23523887D-01 -0.74063725D-02
  0.35794330D-02  0.36733647D-02  0.92508954D-03 -0.10086085D-05  0.44287811D-15
  0.63881677D-15  0.85082129D-15  0.10069157D-14  0.96760817D-15  0.66508928D-15
  0.20939987D-15 -0.10120107D-15 -0.10385679D-15 -0.26154995D-16  0.28516321D-19
  0.79330117D-02  0.11442744D-01  0.15240255D-01  0.18036281D-01  0.17332189D-01
  0.11913348D-01  0.37508552D-02 -0.18127545D-02 -0.18603249D-02 -0.46849884D-03
  0.51079588D-06  0.11365643D-01  0.16476624D-01  0.21868598D-01  0.26098079D-01
  0.25074059D-01  0.17550504D-01  0.52992189D-02 -0.32439125D-02 -0.34887700D-02
 -0.93824436D-03  0.34974689D-03  0.69242204D-18  0.10037952D-17  0.13322871D-17
  0.15899572D-17  0.15275714D-17  0.10692186D-17  0.32284105D-18 -0.19762688D-18
 -0.21254418D-18 -0.57160083D-19  0.21307414D-19 -0.58194606D-02 -0.84363964D-02
 -0.11197206D-01 -0.13362794D-01 -0.12838473D-01 -0.89862468D-02 -0.27133174D-02
  0.16609550D-02  0.17863275D-02  0.48040189D-03 -0.17907815D-03 -0.26837497D-03
 -0.59954809D-19  0.12436839D-03  0.25966392D-03 -0.26057333D-19 -0.15304154D-03
  0.34909165D-05  0.14011304D-20 -0.28250447D-05  0.14628703D-03  0.15142106D-03
  0.12668904D-03  0.81750405D-04  0.36723400D-04  0.10722638D-04  0.18089748D-05
 -0.17310361D-03 -0.17917877D-03 -0.14991301D-03 -0.96736462D-04 -0.43455341D-04
 -0.12688256D-04 -0.21405866D-05  0.26816573D-04  0.27757716D-04  0.23223971D-04
  0.14986056D-04  0.67319413D-05  0.19656179D-05  0.33161179D-06  0.32607209D-17
  0.33751577D-17  0.28238839D-17  0.18222070D-17  0.81856028D-18  0.23900635D-18
  0.40321837D-19  0.42753595D-04  0.44254056D-04  0.37025919D-04  0.23892232D-04
  0.10732717D-04  0.31337797D-05  0.52868784D-06  0.18305406D-16  0.18947845D-16
  0.15853041D-16  0.10229713D-16  0.45953270D-17  0.13417611D-17  0.22636332D-18
 -0.28539703D-04  0.17446242D-04  0.11093461D-04 -0.18450841D-19  0.14918152D-04
  0.36041050D-19  0.13360824D-03 -0.52801917D-04 -0.80806326D-04 -0.37890066D-20
 -0.11058188D-03 -0.11014338D-19  0.26739987D-04 -0.80719305D-05 -0.18668057D-04
 -0.64607966D-20 -0.15132846D-04  0.19632955D-21  0.17775749D-04 -0.20360067D-20
  0.76680516D-05 -0.16876491D-04  0.68096890D-20 -0.32967125D-04 -0.36450757D-04
 -0.70166877D-21  0.99629708D-05  0.67195680D-21  0.80530289D-05  0.18112368D-20
 -0.48999527D-06 -0.20049731D-04 -0.20027658D-20 -0.91609281D-05 -0.41093561D-05
 -0.34309445D-20  0.10630914D-04  0.41006588D-22 -0.15053726D+00 -0.28165578D+00
 -0.48663880D+00 -0.78889825D+00 -0.11980049D+01 -0.16650860D+01 -0.19795470D+01
 -0.17632282D+01 -0.87531929D+00 -0.14102796D+00 -0.21651549D-02 -0.38691105D-03
 -0.14458262D-04  0.23505876D-03  0.43905601D-03  0.76200300D-03  0.12364212D-02
  0.19138332D-02  0.27394783D-02  0.35758749D-02  0.38106914D-02  0.28485692D-02
  0.15037091D-03 -0.19321915D-02 -0.11479437D-02  0.43039284D-05 -0.92614878D-04
 -0.17285232D-03 -0.30040213D-03 -0.48686347D-03 -0.75617520D-03 -0.10832428D-02
 -0.14303212D-02 -0.15466015D-02 -0.12125556D-02 -0.60336366D-04  0.10394667D-02
  0.10760408D-02 -0.48692367D-03  0.64301513D-03  0.28403463D-03  0.95440104D-04
  0.19393848D-03  0.25546050D-03  0.28183278D-03  0.23409452D-03  0.12433328D-03
  0.32069181D-04 -0.32966028D-07  0.50753695D-17  0.66854007D-17  0.73755631D-17
  0.61262530D-17  0.32538018D-17  0.83925040D-18 -0.86272087D-21  0.79873301D-03
  0.10521106D-02  0.11607245D-02  0.96411512D-03  0.51206496D-03  0.13207649D-03
 -0.13577014D-06 -0.16282137D-03 -0.21377253D-03 -0.24339575D-03 -0.20609752D-03
 -0.11806060D-03 -0.26854690D-04  0.12569473D-04 -0.89613924D-18 -0.11765651D-17
 -0.13396060D-17 -0.11343233D-17 -0.64978406D-18 -0.14780333D-18  0.69180093D-19
 -0.59275928D-03 -0.77824948D-03 -0.88609428D-03 -0.75030825D-03 -0.42980545D-03
 -0.97765829D-04  0.45759788D-04 -0.84592938D-05 -0.31234239D-18 -0.36382657D-04
 -0.36513081D-04  0.43840367D-20 -0.12453267D-03 -0.10813552D-05  0.80599177D-21
 -0.59830509D-05  0.24421303D-04  0.31829106D-04 -0.56250409D-04  0.25936498D-20
 -0.13876746D-04 -0.95127974D-20 -0.16215104D-04 -0.16893775D-04  0.33108878D-04
 -0.28036169D-20  0.88608389D-05  0.15759943D-21 -0.76535968D-05 -0.69320982D-05
  0.14585695D-04  0.13440863D-20  0.13564450D-04 -0.79966236D-20 -0.76203786D-05
 -0.45658274D-20  0.13918303D-04  0.27759361D-04  0.75123593D-20 -0.44500536D-06
 -0.48982254D-05  0.61851228D-20 -0.41309904D-04 -0.14709600D-19  0.40530578D-05
 -0.18208174D-20 -0.13703029D-04 -0.65020193D-05 -0.66695591D-20  0.16018326D-04
 -0.56571542D-05  0.12132011D-19  0.25090761D-04  0.42467973D-20  0.59854458D+00
  0.11198792D+01  0.19349032D+01  0.31367037D+01  0.47633348D+01  0.66204753D+01
  0.78707900D+01  0.70106944D+01  0.34803186D+01  0.56073509D+00  0.86087772D-02
  0.15383800D-02  0.57486862D-04 -0.91632406D-03 -0.17115618D-02 -0.29704985D-02
 -0.48199118D-02 -0.74606511D-02 -0.10679244D-01 -0.13939750D-01 -0.14855129D-01
 -0.11104511D-01 -0.58618739D-03  0.75322170D-02  0.44750023D-02 -0.16777904D-04
  0.35977769D-03  0.67147322D-03  0.11669614D-02  0.18913010D-02  0.29374866D-02
  0.42080344D-02  0.55563173D-02  0.60080272D-02  0.47103712D-02  0.23438651D-03
 -0.40379791D-02 -0.41800569D-02  0.18915349D-02 -0.25103440D-02 -0.10758107D-02
 -0.28537318D-03 -0.18016872D-02 -0.23732263D-02 -0.26182246D-02 -0.21747365D-02
 -0.11550554D-02 -0.29792248D-03  0.30625418D-06 -0.29862635D-16 -0.39335793D-16
 -0.43396594D-16 -0.36045860D-16 -0.19144832D-16 -0.49380106D-17  0.50761070D-20
  0.61748873D-03  0.81337124D-03  0.89733902D-03  0.74534320D-03  0.39586988D-03
  0.10210639D-03 -0.10496190D-06  0.12561642D-02  0.16492515D-02  0.18777942D-02
  0.15900390D-02  0.91083554D-03  0.20718348D-03 -0.96973273D-04  0.57501709D-17
  0.75495529D-17  0.85957214D-17  0.72785038D-17  0.41694072D-17  0.94839549D-18
 -0.44390128D-18 -0.44618713D-03 -0.58581099D-03 -0.66698891D-03 -0.56477881D-03
 -0.32352705D-03 -0.73591179D-04  0.34444722D-04  0.16578845D-04  0.18949890D-17
 -0.11173102D-04  0.46094100D-03  0.83125639D-19 -0.13998682D-03  0.13819933D-04
 -0.38328484D-20 -0.43441972D-05  0.20499733D-03 -0.13046761D-03 -0.74529719D-04
  0.75526019D-19 -0.18670227D-03 -0.34451621D-19 -0.11283023D-03  0.69524626D-04
  0.43305607D-04  0.27985211D-19  0.10181338D-03 -0.89111419D-20 -0.56991730D-04