 Molden2AIM, Version 4.0.0 (06/02/2016)           Time: Thu Jun 28 03:53:45 2018
GAUSSIAN             13 MOL ORBITALS    225 PRIMITIVES        3 NUCLEI
  F    1    (CENTRE  1)   0.00000000  0.00000000 -0.89793549  CHARGE =  9.0
  F    2    (CENTRE  2)   0.00000000  0.00000000  1.88972612  CHARGE =  9.0
  F    3    (CENTRE  3)   0.00000000  0.00000000  4.67738774  CHARGE =  9.0
CENTRE ASSIGNMENTS    1  1  1  1  1  1  1  1  1  1  1  1  1  1  1  1  1  1  1  1
CENTRE ASSIGNMENTS    1  1  1  1  1  1  1  1  1  1  1  1  1  1  1  1  1  1  1  1
CENTRE ASSIGNMENTS    1  1  1  1  1  1  1  1  1  1  1  1  1  1  1  1  1  1  1  1
CENTRE ASSIGNMENTS    1  1  1  1  1  1  1  1  1  1  1  1  1  1  1  2  2  2  2  2
CENTRE ASSIGNMENTS    2  2  2  2  2  2  2  2  2  2  2  2  2  2  2  2  2  2  2  2
CENTRE ASSIGNMENTS    2  2  2  2  2  2  2  2  2  2  2  2  2  2  2  2  2  2  2  2
CENTRE ASSIGNMENTS    2  2  2  2  2  2  2  2  2  2  2  2  2  2  2  2  2  2  2  2
CENTRE ASSIGNMENTS    2  2  2  2  2  2  2  2  2  2  3  3  3  3  3  3  3  3  3  3
CENTRE ASSIGNMENTS    3  3  3  3  3  3  3  3  3  3  3  3  3  3  3  3  3  3  3  3
CENTRE ASSIGNMENTS    3  3  3  3  3  3  3  3  3  3  3  3  3  3  3  3  3  3  3  3
CENTRE ASSIGNMENTS    3  3  3  3  3  3  3  3  3  3  3  3  3  3  3  3  3  3  3  3
CENTRE ASSIGNMENTS    3  3  3  3  3
TYPE ASSIGNMENTS      1  1  1  1  1  1  1  1  1  1  1  1  1  1  1  1  1  1  1  2
TYPE ASSIGNMENTS      2  2  3  3  3  4  4  4  2  3  4  2  3  4  2  3  4  5  6  7
TYPE ASSIGNMENTS      8  9 10  5  6  7  8  9 10  5  6  7  8  9 10 11 12 13 17 14
TYPE ASSIGNMENTS     15 18 19 16 20 11 12 13 17 14 15 18 19 16 20  1  1  1  1  1
TYPE ASSIGNMENTS      1  1  1  1  1  1  1  1  1  1  1  1  1  1  2  2  2  3  3  3
TYPE ASSIGNMENTS      4  4  4  2  3  4  2  3  4  2  3  4  5  6  7  8  9 10  5  6
TYPE ASSIGNMENTS      7  8  9 10  5  6  7  8  9 10 11 12 13 17 14 15 18 19 16 20
TYPE ASSIGNMENTS     11 12 13 17 14 15 18 19 16 20  1  1  1  1  1  1  1  1  1  1
TYPE ASSIGNMENTS      1  1  1  1  1  1  1  1  1  2  2  2  3  3  3  4  4  4  2  3
TYPE ASSIGNMENTS      4  2  3  4  2  3  4  5  6  7  8  9 10  5  6  7  8  9 10  5
TYPE ASSIGNMENTS      6  7  8  9 10 11 12 13 17 14 15 18 19 16 20 11 12 13 17 14
TYPE ASSIGNMENTS     15 18 19 16 20
EXPONENTS  0.1950000D+05 0.2923000D+04 0.6645000D+03 0.1875000D+03 0.6062000D+02
EXPONENTS  0.2142000D+02 0.7950000D+01 0.8815000D+00 0.1950000D+05 0.2923000D+04
EXPONENTS  0.6645000D+03 0.1875000D+03 0.6062000D+02 0.2142000D+02 0.7950000D+01
EXPONENTS  0.8815000D+00 0.2257000D+01 0.3041000D+00 0.9158000D-01 0.4388000D+02
EXPONENTS  0.9926000D+01 0.2930000D+01 0.4388000D+02 0.9926000D+01 0.2930000D+01
EXPONENTS  0.4388000D+02 0.9926000D+01 0.2930000D+01 0.9132000D+00 0.9132000D+00
EXPONENTS  0.9132000D+00 0.2672000D+00 0.2672000D+00 0.2672000D+00 0.7361000D-01
EXPONENTS  0.7361000D-01 0.7361000D-01 0.3107000D+01 0.3107000D+01 0.3107000D+01
EXPONENTS  0.3107000D+01 0.3107000D+01 0.3107000D+01 0.8550000D+00 0.8550000D+00
EXPONENTS  0.8550000D+00 0.8550000D+00 0.8550000D+00 0.8550000D+00 0.2920000D+00
EXPONENTS  0.2920000D+00 0.2920000D+00 0.2920000D+00 0.2920000D+00 0.2920000D+00
EXPONENTS  0.1917000D+01 0.1917000D+01 0.1917000D+01 0.1917000D+01 0.1917000D+01
EXPONENTS  0.1917000D+01 0.1917000D+01 0.1917000D+01 0.1917000D+01 0.1917000D+01
EXPONENTS  0.7240000D+00 0.7240000D+00 0.7240000D+00 0.7240000D+00 0.7240000D+00
EXPONENTS  0.7240000D+00 0.7240000D+00 0.7240000D+00 0.7240000D+00 0.7240000D+00
EXPONENTS  0.1950000D+05 0.2923000D+04 0.6645000D+03 0.1875000D+03 0.6062000D+02
EXPONENTS  0.2142000D+02 0.7950000D+01 0.8815000D+00 0.1950000D+05 0.2923000D+04
EXPONENTS  0.6645000D+03 0.1875000D+03 0.6062000D+02 0.2142000D+02 0.7950000D+01
EXPONENTS  0.8815000D+00 0.2257000D+01 0.3041000D+00 0.9158000D-01 0.4388000D+02
EXPONENTS  0.9926000D+01 0.2930000D+01 0.4388000D+02 0.9926000D+01 0.2930000D+01
EXPONENTS  0.4388000D+02 0.9926000D+01 0.2930000D+01 0.9132000D+00 0.9132000D+00
EXPONENTS  0.9132000D+00 0.2672000D+00 0.2672000D+00 0.2672000D+00 0.7361000D-01
EXPONENTS  0.7361000D-01 0.7361000D-01 0.3107000D+01 0.3107000D+01 0.3107000D+01
EXPONENTS  0.3107000D+01 0.3107000D+01 0.3107000D+01 0.8550000D+00 0.8550000D+00
EXPONENTS  0.8550000D+00 0.8550000D+00 0.8550000D+00 0.8550000D+00 0.2920000D+00
EXPONENTS  0.2920000D+00 0.2920000D+00 0.2920000D+00 0.2920000D+00 0.2920000D+00
EXPONENTS  0.1917000D+01 0.1917000D+01 0.1917000D+01 0.1917000D+01 0.1917000D+01
EXPONENTS  0.1917000D+01 0.1917000D+01 0.1917000D+01 0.1917000D+01 0.1917000D+01
EXPONENTS  0.7240000D+00 0.7240000D+00 0.7240000D+00 0.7240000D+00 0.7240000D+00
EXPONENTS  0.7240000D+00 0.7240000D+00 0.7240000D+00 0.7240000D+00 0.7240000D+00
EXPONENTS  0.1950000D+05 0.2923000D+04 0.6645000D+03 0.1875000D+03 0.6062000D+02
EXPONENTS  0.2142000D+02 0.7950000D+01 0.8815000D+00 0.1950000D+05 0.2923000D+04
EXPONENTS  0.6645000D+03 0.1875000D+03 0.6062000D+02 0.2142000D+02 0.7950000D+01
EXPONENTS  0.8815000D+00 0.2257000D+01 0.3041000D+00 0.9158000D-01 0.4388000D+02
EXPONENTS  0.9926000D+01 0.2930000D+01 0.4388000D+02 0.9926000D+01 0.2930000D+01
EXPONENTS  0.4388000D+02 0.9926000D+01 0.2930000D+01 0.9132000D+00 0.9132000D+00
EXPONENTS  0.9132000D+00 0.2672000D+00 0.2672000D+00 0.2672000D+00 0.7361000D-01
EXPONENTS  0.7361000D-01 0.7361000D-01 0.3107000D+01 0.3107000D+01 0.3107000D+01
EXPONENTS  0.3107000D+01 0.3107000D+01 0.3107000D+01 0.8550000D+00 0.8550000D+00
EXPONENTS  0.8550000D+00 0.8550000D+00 0.8550000D+00 0.8550000D+00 0.2920000D+00
EXPONENTS  0.2920000D+00 0.2920000D+00 0.2920000D+00 0.2920000D+00 0.2920000D+00
EXPONENTS  0.1917000D+01 0.1917000D+01 0.1917000D+01 0.1917000D+01 0.1917000D+01
EXPONENTS  0.1917000D+01 0.1917000D+01 0.1917000D+01 0.1917000D+01 0.1917000D+01
EXPONENTS  0.7240000D+00 0.7240000D+00 0.7240000D+00 0.7240000D+00 0.7240000D+00
EXPONENTS  0.7240000D+00 0.7240000D+00 0.7240000D+00 0.7240000D+00 0.7240000D+00
MO    1     MO 0.0        OCC NO =    2.0000000  ORB. ENERGY =  -25.897764
  0.86973330D-04  0.16212205D-03  0.27483674D-03  0.41618382D-03  0.52043933D-03
  0.44804979D-03  0.17224670D-03 -0.74637313D-06  0.13458468D-03  0.25272620D-03
  0.43034914D-03  0.67413937D-03  0.90342607D-03  0.97175655D-03  0.58344136D-03
 -0.38369558D-03 -0.99868018D-05  0.38204190D-03  0.22573117D-03 -0.36574513D-15
 -0.35769075D-15 -0.23634140D-15 -0.21513022D-14 -0.21039266D-14 -0.13901532D-14
 -0.44240346D-03 -0.43266092D-03 -0.28587736D-03 -0.47212908D-17 -0.30275044D-16
  0.60107913D-05  0.10639181D-17 -0.14907942D-18  0.46781087D-03  0.35522460D-19
 -0.99344080D-19  0.31893440D-04  0.76264845D-03  0.76091036D-03 -0.15235588D-02
  0.28583501D-04 -0.10765499D-17 -0.93139040D-17 -0.27443703D-03 -0.27519350D-03
  0.54963053D-03  0.12439203D-04  0.35828439D-18 -0.70203727D-19 -0.75469684D-04
 -0.75498782D-04  0.15096847D-03  0.47882252D-06 -0.13430417D-18 -0.35669471D-18
  0.17717897D-17  0.11988262D-17 -0.23461851D-03 -0.29327025D-17  0.16689816D-18
  0.35235873D-03 -0.23826667D-17 -0.37633768D-17  0.35149678D-03  0.14172843D-04
 -0.26341091D-18 -0.53551701D-19  0.37128031D-03 -0.75463086D-19 -0.69931941D-19
 -0.55659258D-03  0.86569580D-18  0.23058704D-18 -0.55724835D-03  0.10784642D-04
  0.59516215D+00  0.11094080D+01  0.18807194D+01  0.28479634D+01  0.35613882D+01
  0.30660235D+01  0.11786914D+01 -0.51074626D-02  0.40448952D-03  0.75955967D-03
  0.12933991D-02  0.20261021D-02  0.27152151D-02  0.29205800D-02  0.17535124D-02
 -0.11531835D-02  0.60204800D-01 -0.12645758D-03 -0.45268964D-03  0.12573738D-15
  0.12296841D-15  0.81250431D-16  0.14027459D-15  0.13718549D-15  0.90644252D-16
  0.19399316D-10  0.18972108D-10  0.12535674D-10 -0.13656487D-16 -0.12022439D-16
 -0.20041051D-11  0.13732040D-17  0.14846665D-17 -0.51104963D-12 -0.12424520D-18
  0.31781497D-19 -0.48203909D-13 -0.17059518D-02 -0.16379619D-02  0.33439137D-02
 -0.11186923D-02 -0.56362401D-17 -0.34626431D-17  0.66126250D-03  0.66648735D-03
 -0.13277499D-02 -0.85899660D-04  0.12061130D-17 -0.55649571D-18  0.34221928D-04
  0.34124238D-04 -0.68346165D-04  0.16046749D-05 -0.18132668D-18  0.74480000D-19
  0.54555196D-18  0.19889935D-17  0.18114692D-12 -0.15298225D-18  0.37712235D-17
 -0.26582753D-12 -0.14836736D-17 -0.97382040D-17 -0.27761323D-12  0.19224663D-12
 -0.18072407D-18 -0.52037408D-18 -0.20828010D-12 -0.22609216D-18 -0.69407420D-18
  0.31272015D-12  0.76826438D-18  0.22551965D-17  0.31212015D-12  0.99778226D-14
  0.86973339D-04  0.16212207D-03  0.27483677D-03  0.41618387D-03  0.52043939D-03
  0.44804984D-03  0.17224671D-03 -0.74637321D-06  0.13458468D-03  0.25272620D-03
  0.43034914D-03  0.67413938D-03  0.90342607D-03  0.97175655D-03  0.58344136D-03
 -0.38369558D-03 -0.99868008D-05  0.38204190D-03  0.22573117D-03  0.31087661D-17
  0.30403053D-17  0.20088583D-17  0.84596749D-18  0.82733773D-18  0.54665702D-18
  0.44240346D-03  0.43266092D-03  0.28587736D-03  0.12841350D-17  0.16229855D-18
 -0.60107913D-05 -0.59417335D-19 -0.67940081D-18 -0.46781087D-03  0.45603006D-19
  0.40532545D-19 -0.31893440D-04  0.76264846D-03  0.76091036D-03 -0.15235588D-02
  0.28583501D-04 -0.25366053D-18  0.11324770D-16 -0.27443703D-03 -0.27519350D-03
  0.54963053D-03  0.12439203D-04 -0.58185962D-18 -0.22267505D-17 -0.75469684D-04
 -0.75498782D-04  0.15096847D-03  0.47882252D-06  0.61997896D-19  0.43723944D-18
  0.16346783D-17  0.34824693D-17  0.23461851D-03  0.17627866D-17  0.36229994D-17
 -0.35235873D-03 -0.66668214D-17 -0.14070407D-16 -0.35149678D-03 -0.14172843D-04
 -0.31680623D-18 -0.10939047D-17 -0.37128031D-03 -0.34885152D-18 -0.10877523D-17
  0.55659258D-03  0.12992702D-17  0.43694662D-17  0.55724835D-03 -0.10784642D-04
MO    2     MO 0.0        OCC NO =    2.0000000  ORB. ENERGY =  -25.758475
  0.42067905D+00  0.78416398D+00  0.13293507D+01  0.20130288D+01  0.25172995D+01
  0.21671604D+01  0.83313559D+00 -0.36101129D-02  0.21333363D-03  0.40060278D-03
  0.68215744D-03  0.10685956D-02  0.14320438D-02  0.15403562D-02  0.92482784D-03
 -0.60820570D-03  0.42308667D-01  0.14142787D-03 -0.26026943D-03 -0.28396403D-15
 -0.27771062D-15 -0.18349515D-15 -0.40687169D-16 -0.39791162D-16 -0.26291703D-16
  0.30692241D-02  0.30016342D-02  0.19833066D-02  0.17400391D-15  0.23784893D-17
 -0.37061657D-03 -0.41506738D-16 -0.87808121D-18 -0.38414529D-03 -0.15164571D-19
  0.58801972D-19 -0.32486383D-04 -0.38137728D-03 -0.36791256D-03  0.74928984D-03
 -0.22151472D-03  0.13525750D-16  0.43874465D-16  0.17361906D-03  0.18045829D-03
 -0.35407735D-03 -0.11246059D-03 -0.31409624D-17 -0.57073553D-17  0.46067181D-04
  0.45906633D-04 -0.91973815D-04  0.26395156D-05 -0.28659015D-18 -0.43890335D-18
 -0.14861643D-17 -0.14726724D-17  0.20926450D-03  0.66099612D-18 -0.72681156D-18
 -0.31137724D-03  0.37974967D-17  0.51448288D-17 -0.31641627D-03  0.82786204D-04
  0.15623095D-18  0.42461128D-18 -0.15959347D-03  0.20590333D-18  0.67293314D-18
  0.23947040D-03 -0.67459619D-18 -0.19467670D-17  0.23931002D-03  0.26383373D-05
 -0.66030637D-03 -0.12308397D-02 -0.20865759D-02 -0.31596908D-02 -0.39512044D-02
 -0.34016190D-02 -0.13077065D-02  0.56665064D-05  0.19125889D-03  0.35915033D-03
  0.61157107D-03  0.95802246D-03  0.12838628D-02  0.13809676D-02  0.82913111D-03
 -0.54527150D-03 -0.15846788D-03  0.83367057D-03  0.46077541D-03 -0.30908987D-17
 -0.30228314D-17 -0.19973125D-17 -0.26821010D-17 -0.26230362D-17 -0.17331509D-17
 -0.50222566D-06 -0.49116573D-06 -0.32453396D-06  0.10608287D-17  0.17307163D-17
  0.19054459D-07  0.38859352D-19  0.71436477D-18  0.82307639D-06 -0.16022967D-18
 -0.61744967D-19  0.12023067D-06  0.10416458D-02  0.10392625D-02 -0.20809083D-02
  0.39192005D-04 -0.63543455D-17 -0.22643158D-16 -0.43069840D-03 -0.43184602D-03
  0.86254442D-03  0.18871917D-04  0.85568909D-18  0.84841198D-18 -0.11437495D-03
 -0.11435678D-03  0.22873173D-03 -0.29859646D-06 -0.99389025D-18 -0.80528869D-18
 -0.10649547D-17  0.12185425D-17 -0.43865175D-06 -0.11139148D-17  0.12065513D-17
  0.65822937D-06  0.43087790D-17 -0.48621788D-17  0.65772588D-06  0.82893277D-08
  0.19999807D-18 -0.63306431D-18  0.43542140D-06  0.25271302D-18 -0.59998821D-18
 -0.65279026D-06 -0.85270722D-18  0.24991811D-17 -0.65347394D-06  0.11241282D-07
  0.42122170D+00  0.78517550D+00  0.13310655D+01  0.20156255D+01  0.25205467D+01
  0.21699559D+01  0.83421028D+00 -0.36147697D-02  0.21366290D-03  0.40122108D-03
  0.68321031D-03  0.10702449D-02  0.14342541D-02  0.15427336D-02  0.92625526D-03
 -0.60914443D-03  0.42363410D-01  0.14153437D-03 -0.26103248D-03  0.15937579D-16
  0.15586604D-16  0.10298729D-16  0.12598831D-16  0.12321381D-16  0.81412574D-17
 -0.30733142D-02 -0.30056342D-02 -0.19859496D-02 -0.11141345D-17 -0.17086788D-17
  0.37136614D-03  0.63826458D-18  0.26166617D-18  0.38489104D-03  0.23335742D-19
  0.63813960D-20  0.32557895D-04 -0.38184546D-03 -0.36836396D-03  0.75020942D-03
 -0.22179077D-03 -0.24753312D-16 -0.21710827D-16  0.17395238D-03  0.18080028D-03
 -0.35475265D-03 -0.11260314D-03  0.37532769D-17  0.40228797D-17  0.46141454D-04
  0.45980704D-04 -0.92122158D-04  0.26428391D-05 -0.51266049D-18 -0.37408305D-18
 -0.15920572D-17 -0.23231480D-17 -0.20914238D-03 -0.79636643D-18  0.11361400D-17
  0.31119026D-03  0.55725379D-17  0.58333041D-17  0.31623687D-03 -0.82910791D-04
 -0.31442345D-18  0.36571171D-18  0.15976610D-03 -0.33198340D-18  0.30808497D-18
 -0.23972931D-03  0.12752538D-17 -0.14052201D-17 -0.23956898D-03 -0.26374449D-05
MO    3     MO 0.0        OCC NO =    2.0000000  ORB. ENERGY =  -25.758471
  0.42115584D+00  0.78505273D+00  0.13308574D+01  0.20153103D+01  0.25201526D+01
  0.21696166D+01  0.83407984D+00 -0.36142045D-02  0.25551993D-03  0.47982118D-03
  0.81705272D-03  0.12799083D-02  0.17152276D-02  0.18449586D-02  0.11077107D-02
 -0.72847717D-03  0.42486309D-01  0.82692921D-04 -0.59199249D-03  0.17335267D-16
  0.16953513D-16  0.11201903D-16 -0.60498384D-16 -0.59166098D-16 -0.39093542D-16
  0.31742706D-02  0.31043673D-02  0.20511867D-02 -0.13607725D-16  0.69238289D-16
 -0.58161871D-03  0.31638180D-19 -0.20113334D-16 -0.57865907D-03  0.29354673D-19
 -0.74731579D-20 -0.55486244D-04 -0.36336918D-03 -0.35034606D-03  0.71371524D-03
 -0.21425291D-03  0.16141437D-16  0.34401479D-16  0.25863485D-03  0.26536308D-03
 -0.52399794D-03 -0.11063538D-03 -0.45560625D-17 -0.31734716D-17  0.57636000D-04
  0.57479116D-04 -0.11511512D-03  0.25793752D-05  0.64576402D-18  0.72324560D-18
 -0.16663971D-19  0.29001910D-18 -0.94585350D-04  0.22459158D-17  0.28998191D-17
  0.14482021D-03 -0.21959239D-17 -0.37698764D-17  0.13893585D-03  0.96683795D-04
 -0.17967936D-18 -0.34770913D-18 -0.13399273D-03 -0.59762523D-19 -0.50371713D-18
  0.20096804D-03  0.59880059D-18  0.15468445D-17  0.20101014D-03 -0.69039817D-06
 -0.42566331D-06 -0.79345486D-06 -0.13451011D-05 -0.20368794D-05 -0.25471249D-05
 -0.21928372D-05 -0.84300669D-06  0.36528860D-08  0.12329614D-06  0.23152831D-06
  0.39425278D-06  0.61759464D-06  0.82764948D-06  0.89024861D-06  0.53450409D-06
 -0.35151238D-06 -0.10215654D-06  0.53743042D-06  0.29704165D-06  0.54767753D-17
  0.53561667D-17  0.35390458D-17  0.50698849D-17  0.49582367D-17  0.32761166D-17
  0.77906048D-03  0.76190413D-03  0.50342227D-03 -0.36679594D-18 -0.12086471D-17
 -0.29557493D-04  0.16577749D-19 -0.54930702D-18 -0.12767686D-02  0.14257943D-18
  0.21082454D-19 -0.18650365D-03  0.67150294D-06  0.66996651D-06 -0.13414695D-05
  0.25265322D-07  0.62988480D-17  0.23310145D-16 -0.27765217D-06 -0.27839198D-06
  0.55604415D-06  0.12165867D-07 -0.18992399D-17 -0.18206457D-17 -0.73732474D-07
 -0.73720761D-07  0.14745323D-06 -0.19248929D-09  0.12903682D-17  0.84041919D-18
  0.18972271D-17 -0.44598339D-18  0.68044352D-03  0.17411499D-17 -0.55731561D-18
 -0.10210558D-02 -0.74328312D-17  0.18952658D-17 -0.10202748D-02 -0.12858547D-04
 -0.56942668D-18  0.25594348D-18 -0.67543253D-03 -0.55475414D-18  0.27132926D-18
  0.10126185D-02  0.22630342D-17 -0.10391597D-17  0.10136791D-02 -0.17437629D-04
 -0.42061310D+00 -0.78404104D+00 -0.13291423D+01 -0.20127132D+01 -0.25169049D+01
 -0.21668207D+01 -0.83300498D+00  0.36095469D-02 -0.25524467D-03 -0.47930428D-03
 -0.81617253D-03 -0.12785294D-02 -0.17133799D-02 -0.18429710D-02 -0.11065174D-02
  0.72769239D-03 -0.42431725D-01 -0.82510507D-04  0.59165643D-03 -0.16355088D-16
 -0.15994919D-16 -0.10568519D-16 -0.13009735D-16 -0.12723236D-16 -0.84067802D-17
  0.31703108D-02  0.31004947D-02  0.20486279D-02  0.96578249D-18  0.15224685D-17
 -0.58114039D-03 -0.81792977D-18 -0.34616661D-18 -0.57816331D-03 -0.10939538D-19
  0.11979886D-19 -0.55444312D-04  0.36287716D-03  0.34987142D-03 -0.71274858D-03
  0.21396713D-03  0.23396067D-16  0.20484169D-16 -0.25841079D-03 -0.26513020D-03
  0.52354099D-03  0.11049029D-03 -0.31666038D-17 -0.34417596D-17 -0.57576557D-04
 -0.57419880D-04  0.11499644D-03 -0.25759699D-05  0.63406162D-18  0.40905130D-18
  0.13758183D-17  0.22020818D-17 -0.94855079D-04  0.59930176D-18 -0.12410823D-17
  0.14522155D-03 -0.47267566D-17 -0.53651629D-17  0.13934369D-03  0.96576978D-04
  0.45151321D-18 -0.26123583D-18 -0.13378685D-03  0.46613223D-18 -0.20848891D-18
  0.20065912D-03 -0.18206719D-17  0.99219641D-18  0.20070143D-03 -0.69379923D-06
MO    4     MO 0.0        OCC NO =    2.0000000  ORB. ENERGY =   -1.939089
 -0.13035000D-02 -0.24297804D-02 -0.41190751D-02 -0.62374937D-02 -0.78000078D-02
 -0.67150801D-02 -0.25815220D-02  0.11186157D-04 -0.47235996D-01 -0.88700835D-01
 -0.15104222D+00 -0.23660675D+00 -0.31708088D+00 -0.34106324D+00 -0.20477392D+00
  0.13466795D+00  0.78819438D-01  0.27735298D-01 -0.53764539D-03  0.25532266D-15
  0.24969999D-15  0.16498734D-15 -0.23052474D-15 -0.22544816D-15 -0.14896313D-15
  0.22093271D+00  0.21606737D+00  0.14276485D+00  0.83610411D-16  0.14351653D-16
  0.52541307D-01 -0.62302553D-16 -0.70469608D-16  0.20183553D-02 -0.10131855D-16
  0.39897643D-17 -0.72594548D-04 -0.10420850D-01 -0.10905868D-01  0.21326717D-01
  0.79765375D-02  0.11759553D-14  0.18504628D-15 -0.45408494D-02 -0.47616786D-02
  0.93025280D-02  0.36312192D-02  0.14911282D-15  0.16850170D-15 -0.79325830D-04
 -0.79118212D-04  0.15844404D-03 -0.33109165D-05 -0.16810109D-17  0.12991425D-17
 -0.18328412D-16 -0.23627484D-16  0.34549409D-02  0.13438567D-16  0.21188516D-16
 -0.50896132D-02  0.41546667D-16  0.49693936D-16 -0.52752096D-02  0.30460044D-02
 -0.61565007D-17 -0.80738253D-17  0.21407064D-02 -0.52336213D-17 -0.76292707D-17
 -0.31657037D-02  0.23703124D-16  0.31850747D-16 -0.32564156D-02  0.14929943D-02
 -0.40602076D-02 -0.75684030D-02 -0.12830304D-01 -0.19428861D-01 -0.24295859D-01
 -0.20916471D-01 -0.80410552D-02  0.34843209D-04 -0.11112713D+00 -0.20867707D+00
 -0.35534107D+00 -0.55663968D+00 -0.74596266D+00 -0.80238341D+00 -0.48174995D+00
  0.31681903D+00  0.19367868D+00  0.80629815D-01  0.11032710D-02  0.77587651D-15
  0.75879028D-15  0.50136482D-15  0.11560981D-14  0.11306387D-14  0.74706079D-15
  0.23312011D-08  0.22798638D-08  0.15064024D-08  0.24227438D-15  0.35051903D-15
  0.59454058D-09  0.27855322D-16  0.24176420D-16 -0.55909156D-11  0.92896147D-18
  0.42312691D-18 -0.43630844D-12 -0.19316980D-01 -0.20108946D-01  0.39425926D-01
  0.13031072D-01 -0.44458331D-16  0.35441290D-16 -0.86912838D-02 -0.90350944D-02
  0.17726378D-01  0.56512028D-02 -0.79036996D-17 -0.27827378D-16 -0.17061036D-02
 -0.17098009D-02  0.34159045D-02  0.61277035D-04  0.10863925D-16 -0.20655789D-17
  0.51676356D-16  0.21452165D-16  0.72576333D-10  0.86868820D-16  0.55255878D-16
 -0.10796123D-09 -0.24189789D-15 -0.11961237D-15 -0.10976777D-09  0.29725639D-10
 -0.24305799D-16 -0.12904115D-16  0.10493631D-10 -0.24234358D-16 -0.13282456D-16
 -0.15357636D-10  0.97151756D-16  0.51994801D-16 -0.16123257D-10  0.12585499D-10
 -0.13035000D-02 -0.24297805D-02 -0.41190752D-02 -0.62374938D-02 -0.78000079D-02
 -0.67150803D-02 -0.25815220D-02  0.11186157D-04 -0.47235997D-01 -0.88700837D-01
 -0.15104223D+00 -0.23660675D+00 -0.31708089D+00 -0.34106325D+00 -0.20477393D+00
  0.13466795D+00  0.78819440D-01  0.27735298D-01 -0.53764538D-03 -0.27003597D-15
 -0.26408928D-15 -0.17449495D-15 -0.89433615D-16 -0.87464122D-16 -0.57791243D-16
 -0.22093272D+00 -0.21606737D+00 -0.14276485D+00 -0.96671567D-17  0.99681209D-17
 -0.52541307D-01 -0.13100313D-16  0.58599415D-17 -0.20183554D-02  0.85597488D-19
 -0.50894414D-19  0.72594549D-04 -0.10420850D-01 -0.10905868D-01  0.21326717D-01
  0.79765377D-02 -0.32444479D-15 -0.32449383D-15 -0.45408494D-02 -0.47616787D-02
  0.93025281D-02  0.36312193D-02 -0.12045800D-15 -0.12138755D-15 -0.79325841D-04
 -0.79118224D-04  0.15844407D-03 -0.33109185D-05  0.12118436D-16  0.34031562D-20
 -0.41381869D-16 -0.12039498D-16 -0.34549409D-02  0.21484381D-16  0.29969897D-16
  0.50896132D-02  0.10266123D-15  0.61485977D-17  0.52752096D-02 -0.30460044D-02
 -0.93538012D-18 -0.15060178D-16 -0.21407064D-02 -0.40168556D-17 -0.16147044D-16
  0.31657037D-02  0.68229960D-17  0.61327577D-16  0.32564156D-02 -0.14929944D-02
MO    5     MO 0.0        OCC NO =    2.0000000  ORB. ENERGY =   -1.764715
  0.37209985D-02  0.69361024D-02  0.11758399D-01  0.17805681D-01  0.22266067D-01
  0.19169010D-01  0.73692671D-02 -0.31932241D-04  0.91341109D-01  0.17152243D+00
  0.29207311D+00  0.45753080D+00  0.61314510D+00  0.65952022D+00  0.39597507D+00
 -0.26040987D+00 -0.15885181D+00 -0.74263856D-01 -0.37568465D-03 -0.45682665D-15
 -0.44676648D-15 -0.29519751D-15 -0.10187503D-14 -0.99631554D-15 -0.65830780D-15
 -0.15076857D+00 -0.14744837D+00 -0.97425369D-01 -0.94931765D-16 -0.32619301D-15
 -0.37722641D-01 -0.36393364D-16 -0.38933531D-16 -0.10136205D-01 -0.30983766D-17
  0.26874761D-17  0.12016319D-03  0.56782517D-02  0.65826013D-02 -0.12260853D-01
 -0.14874128D-01 -0.16137900D-14 -0.16430609D-14  0.32422637D-02  0.36174295D-02
 -0.68596932D-02 -0.61683899D-02 -0.12931671D-15 -0.14680781D-15  0.11392734D-02
  0.11291556D-02 -0.22684289D-02  0.16605117D-03 -0.10186376D-16  0.17048843D-16
 -0.11273993D-16  0.23375244D-16 -0.31894393D-03 -0.49665546D-16 -0.32724669D-16
  0.43938006D-03  0.83487524D-16 -0.37401063D-16  0.51745173D-03 -0.12726788D-02
  0.16150326D-16  0.64162602D-17 -0.20289405D-02  0.76267167D-17  0.23933488D-17
  0.30118919D-02 -0.56077695D-16 -0.21642129D-16  0.30749298D-02 -0.10390579D-02
  0.26202175D-10  0.48841990D-10  0.82799180D-10  0.12538236D-09  0.15679108D-09
  0.13498252D-09  0.51892208D-10 -0.22485743D-12  0.11203116D-08  0.21037467D-08
  0.35823178D-08  0.56116796D-08  0.75203109D-08  0.80891083D-08  0.48566900D-08
 -0.31939637D-08 -0.20091361D-08 -0.92929880D-09 -0.92911055D-11 -0.72803462D-16
 -0.71200196D-16 -0.47044980D-16 -0.10693702D-15 -0.10458207D-15 -0.69101798D-16
  0.53135986D+00  0.51965834D+00  0.34336024D+00 -0.24194736D-16 -0.73707575D-17
  0.12751300D+00  0.61858082D-17 -0.12392105D-16 -0.71708613D-03  0.10732803D-17
  0.18360062D-17  0.41122718D-04  0.16102072D-10  0.22969075D-10 -0.39071147D-10
 -0.11300532D-09  0.24531805D-15  0.26319691D-15  0.55662470D-12  0.33176177D-11
 -0.38742424D-11 -0.45373492D-10  0.12346488D-15  0.11972139D-15  0.15984084D-10
  0.15857731D-10 -0.31841815D-10  0.20712364D-11 -0.42628609D-17  0.87449722D-17
  0.27788492D-16 -0.37963527D-17  0.14733939D-01  0.30896883D-16  0.12705164D-16
 -0.21848747D-01 -0.11426236D-15 -0.13161061D-17 -0.22353071D-01  0.82937545D-02
 -0.65551989D-17  0.33540807D-17  0.27639922D-02 -0.10553604D-16  0.18626878D-17
 -0.40828162D-02  0.30219201D-16 -0.11924930D-16 -0.42091604D-02  0.20775326D-02
 -0.37209985D-02 -0.69361024D-02 -0.11758399D-01 -0.17805681D-01 -0.22266067D-01
 -0.19169010D-01 -0.73692671D-02  0.31932241D-04 -0.91341110D-01 -0.17152243D+00
 -0.29207311D+00 -0.45753080D+00 -0.61314510D+00 -0.65952023D+00 -0.39597508D+00
  0.26040987D+00  0.15885181D+00  0.74263857D-01  0.37568466D-03 -0.19271937D-15
 -0.18847533D-15 -0.12453362D-15  0.74708717D-16  0.73063493D-16  0.48276139D-16
 -0.15076856D+00 -0.14744836D+00 -0.97425367D-01  0.15855913D-16  0.52865641D-16
 -0.37722640D-01 -0.47209994D-17  0.93016875D-17 -0.10136205D-01 -0.48439395D-19
 -0.10861253D-17  0.12016320D-03 -0.56782515D-02 -0.65826011D-02  0.12260853D-01
  0.14874128D-01 -0.56802196D-15 -0.56823663D-15 -0.32422636D-02 -0.36174295D-02
  0.68596930D-02  0.61683900D-02 -0.20011021D-15 -0.18177075D-15 -0.11392734D-02
 -0.11291556D-02  0.22684290D-02 -0.16605118D-03  0.12864161D-16  0.86141243D-17
 -0.19681055D-16 -0.83332727D-17 -0.31894384D-03  0.73447027D-16  0.38639615D-16
  0.43937993D-03 -0.14403863D-16 -0.13639797D-16  0.51745159D-03 -0.12726788D-02
 -0.80959208D-17 -0.78449555D-17 -0.20289405D-02 -0.11087570D-16 -0.85399474D-17
  0.30118918D-02  0.35375332D-16  0.32074814D-16  0.30749297D-02 -0.10390579D-02
MO    6     MO 0.0        OCC NO =    2.0000000  ORB. ENERGY =   -1.633518
 -0.15240245D-02 -0.28408476D-02 -0.48159351D-02 -0.72927451D-02 -0.91196034D-02
 -0.78511290D-02 -0.30182606D-02  0.13078617D-04 -0.86088589D-01 -0.16165912D+00
 -0.27527761D+00 -0.43122074D+00 -0.57788653D+00 -0.62159488D+00 -0.37320475D+00
  0.24543514D+00  0.15159514D+00  0.73101198D-01  0.60928973D-03 -0.37643775D-15
 -0.36814789D-15 -0.24325088D-15  0.63207570D-15  0.61815623D-15  0.40844196D-15
 -0.14091908D+00 -0.13781578D+00 -0.91060712D-01 -0.26752227D-15 -0.71050340D-16
 -0.29338615D-01  0.51597964D-17 -0.15042663D-16  0.27297901D-02  0.18381881D-17
  0.40401756D-17 -0.68534740D-05  0.50579384D-02  0.42663285D-02 -0.93242669D-02
  0.13020861D-01  0.23317284D-14 -0.11284142D-14  0.21558951D-02  0.18376316D-02
 -0.39935267D-02  0.52322885D-02  0.26823749D-15  0.24762307D-15 -0.55657993D-03
 -0.53644024D-03  0.10930202D-02 -0.33081437D-03 -0.35404493D-16 -0.81863801D-17
  0.13378993D-16  0.16463953D-16 -0.34577333D-02 -0.16228347D-17  0.10322993D-16
  0.50775970D-02 -0.38514143D-16 -0.59714850D-16  0.52956029D-02 -0.35944599D-02
  0.44295448D-17  0.50750732D-18 -0.31605048D-03  0.13216930D-16  0.34371125D-17
  0.46672826D-03 -0.26505564D-16 -0.49596344D-17  0.48142317D-03 -0.23957575D-03
  0.90497127D-03  0.16869056D-02  0.28597198D-02  0.43304586D-02  0.54152536D-02
  0.46620290D-02  0.17922541D-02 -0.77661306D-05  0.78522965D-01  0.14745222D+00
  0.25108570D+00  0.39332427D+00  0.52710079D+00  0.56696797D+00  0.34040682D+00
 -0.22386585D+00 -0.14355853D+00 -0.71470204D-01 -0.11206321D-02  0.32468712D-15
  0.31753692D-15  0.20981007D-15 -0.46568339D-16 -0.45542818D-16 -0.30092066D-16
 -0.62030782D-08 -0.60664750D-08 -0.40083765D-08  0.32140812D-16 -0.44812964D-16
 -0.14965927D-08  0.21026389D-16  0.18826197D-17 -0.43791363D-10  0.15030401D-17
  0.20285723D-17  0.48561375D-11 -0.67894218D-02 -0.63550260D-02  0.13144448D-01
 -0.71493212D-02 -0.28294497D-16 -0.25111949D-16 -0.43420602D-02 -0.41790056D-02
  0.85210658D-02 -0.26790840D-02  0.29501219D-16  0.24797049D-16  0.11513806D-02
  0.11356359D-02 -0.22870165D-02  0.25840367D-03 -0.31952979D-16 -0.13134442D-16
 -0.21556209D-16 -0.29194330D-16 -0.14640644D-09 -0.41266766D-16 -0.45624570D-16
  0.21700733D-09  0.10593539D-15  0.13320756D-15  0.22221198D-09 -0.85600156D-10
  0.65642670D-17  0.10193651D-16 -0.27868492D-10  0.87565266D-17  0.13457625D-16
  0.41110843D-10 -0.28449328D-16 -0.44038579D-16  0.42494632D-10 -0.22754597D-10
 -0.15240244D-02 -0.28408475D-02 -0.48159349D-02 -0.72927447D-02 -0.91196029D-02
 -0.78511286D-02 -0.30182605D-02  0.13078617D-04 -0.86088588D-01 -0.16165912D+00
 -0.27527760D+00 -0.43122074D+00 -0.57788652D+00 -0.62159487D+00 -0.37320474D+00
  0.24543514D+00  0.15159513D+00  0.73101197D-01  0.60928970D-03 -0.95411722D-17
 -0.93310580D-17 -0.61654246D-17  0.25359853D-15  0.24801382D-15  0.16387322D-15
  0.14091908D+00  0.13781578D+00  0.91060715D-01  0.19638317D-16  0.59343231D-16
  0.29338616D-01 -0.87402286D-19  0.97754505D-17 -0.27297899D-02 -0.84426558D-18
 -0.17874078D-17  0.68534735D-05  0.50579385D-02  0.42663287D-02 -0.93242672D-02
  0.13020861D-01 -0.47425123D-15 -0.47127344D-15  0.21558952D-02  0.18376317D-02
 -0.39935268D-02  0.52322884D-02 -0.15559039D-15 -0.13124654D-15 -0.55657990D-03
 -0.53644021D-03  0.10930201D-02 -0.33081437D-03  0.10204531D-16  0.10401774D-16
  0.27674758D-16  0.24585363D-16  0.34577333D-02  0.85697633D-16  0.31702321D-16
 -0.50775970D-02 -0.16872191D-15 -0.10545841D-15 -0.52956030D-02  0.35944600D-02
 -0.81901771D-17  0.74730593D-18  0.31605052D-03 -0.91845089D-17  0.11815532D-17
 -0.46672832D-03  0.33755040D-16 -0.34234710D-17 -0.48142323D-03  0.23957577D-03
MO    7     MO 0.0        OCC NO =    2.0000000  ORB. ENERGY =   -1.149349
  0.18138214D-02  0.33810417D-02  0.57316968D-02  0.86794782D-02  0.10853718D-01
  0.93440401D-02  0.35921902D-02 -0.15565548D-04 -0.30873362D-01 -0.57974706D-01
 -0.98720926D-01 -0.15464575D+00 -0.20724349D+00 -0.22291832D+00 -0.13383987D+00
  0.88018727D-01  0.58186478D-01  0.29082287D-01 -0.86050478D-02  0.88485438D-14
  0.86536826D-14  0.57178540D-14  0.19200565D-14  0.18777733D-14  0.12407242D-14
 -0.12681134D+01 -0.12401872D+01 -0.81944412D+00  0.15694986D-14  0.69043664D-15
 -0.29038521D+00  0.15723680D-15  0.72667413D-16 -0.38687408D-01  0.76214777D-17
 -0.40429823D-18 -0.57364269D-03  0.21587906D-01  0.21313812D-01 -0.42901718D-01
  0.45092408D-02 -0.22292305D-14  0.40102097D-15  0.10462323D-01  0.10362571D-01
 -0.20824894D-01  0.16393826D-02 -0.57571091D-16 -0.98095718D-16  0.17375188D-02
  0.17469019D-02 -0.34844207D-02 -0.15433641D-03  0.18855582D-16  0.69912640D-17
  0.11637317D-15  0.97755920D-16 -0.57358150D-02  0.27329949D-16  0.88912248D-16
  0.79842352D-02 -0.37644946D-15 -0.38218001D-15  0.92232096D-02 -0.20373212D-01
  0.44045890D-17  0.13877146D-16 -0.39887800D-02  0.15197876D-16  0.31702338D-16
  0.59063041D-02 -0.28411643D-16 -0.73333775D-16  0.60600359D-02 -0.25284523D-02
 -0.15427208D-10 -0.28756984D-10 -0.48750158D-10 -0.73822106D-10 -0.92314803D-10
 -0.79474446D-10 -0.30552879D-10  0.13239062D-12  0.22893055D-09  0.42989104D-09
  0.73203029D-09  0.11467211D-08  0.15367412D-08  0.16529724D-08  0.99244244D-09
 -0.65267190D-09 -0.44271543D-09 -0.23882020D-09 -0.25967449D-10  0.39677646D-14
  0.38803872D-14  0.25639359D-14 -0.28309118D-14 -0.27685699D-14 -0.18293112D-14
  0.17583564D+01  0.17196341D+01  0.11362350D+01  0.90372638D-15 -0.59618646D-15