 Molden2AIM, Version 4.0.0 (06/02/2016)           Time: Thu Jun 28 01:47:01 2018
GAUSSIAN             11 MOL ORBITALS    252 PRIMITIVES        4 NUCLEI
  C    1    (CENTRE  1)   0.00000000  0.00000000 -2.22380325  CHARGE =  6.0
  H    2    (CENTRE  2)   0.00000000  0.00000000 -4.24128620  CHARGE =  1.0
  N    3    (CENTRE  3)   0.00000000  0.00000000 -0.02701741  CHARGE =  7.0
  O    4    (CENTRE  4)   0.00000000  0.00000000  2.23637371  CHARGE =  8.0
CENTRE ASSIGNMENTS    1  1  1  1  1  1  1  1  1  1  1  1  1  1  1  1  1  1  1  1
CENTRE ASSIGNMENTS    1  1  1  1  1  1  1  1  1  1  1  1  1  1  1  1  1  1  1  1
CENTRE ASSIGNMENTS    1  1  1  1  1  1  1  1  1  1  1  1  1  1  1  1  1  1  1  1
CENTRE ASSIGNMENTS    1  1  1  1  1  1  1  1  1  1  1  1  1  1  1  2  2  2  2  2
CENTRE ASSIGNMENTS    2  2  2  2  2  2  2  2  2  2  2  2  2  2  2  2  2  2  2  2
CENTRE ASSIGNMENTS    2  2  3  3  3  3  3  3  3  3  3  3  3  3  3  3  3  3  3  3
CENTRE ASSIGNMENTS    3  3  3  3  3  3  3  3  3  3  3  3  3  3  3  3  3  3  3  3
CENTRE ASSIGNMENTS    3  3  3  3  3  3  3  3  3  3  3  3  3  3  3  3  3  3  3  3
CENTRE ASSIGNMENTS    3  3  3  3  3  3  3  3  3  3  3  3  3  3  3  3  3  4  4  4
CENTRE ASSIGNMENTS    4  4  4  4  4  4  4  4  4  4  4  4  4  4  4  4  4  4  4  4
CENTRE ASSIGNMENTS    4  4  4  4  4  4  4  4  4  4  4  4  4  4  4  4  4  4  4  4
CENTRE ASSIGNMENTS    4  4  4  4  4  4  4  4  4  4  4  4  4  4  4  4  4  4  4  4
CENTRE ASSIGNMENTS    4  4  4  4  4  4  4  4  4  4  4  4
TYPE ASSIGNMENTS      1  1  1  1  1  1  1  1  1  1  1  1  1  1  1  1  1  1  1  2
TYPE ASSIGNMENTS      2  2  3  3  3  4  4  4  2  3  4  2  3  4  2  3  4  5  6  7
TYPE ASSIGNMENTS      8  9 10  5  6  7  8  9 10  5  6  7  8  9 10 11 12 13 17 14
TYPE ASSIGNMENTS     15 18 19 16 20 11 12 13 17 14 15 18 19 16 20  1  1  1  1  1
TYPE ASSIGNMENTS      1  2  3  4  2  3  4  2  3  4  5  6  7  8  9 10  5  6  7  8
TYPE ASSIGNMENTS      9 10  1  1  1  1  1  1  1  1  1  1  1  1  1  1  1  1  1  1
TYPE ASSIGNMENTS      1  2  2  2  3  3  3  4  4  4  2  3  4  2  3  4  2  3  4  5
TYPE ASSIGNMENTS      6  7  8  9 10  5  6  7  8  9 10  5  6  7  8  9 10 11 12 13
TYPE ASSIGNMENTS     17 14 15 18 19 16 20 11 12 13 17 14 15 18 19 16 20  1  1  1
TYPE ASSIGNMENTS      1  1  1  1  1  1  1  1  1  1  1  1  1  1  1  1  2  2  2  3
TYPE ASSIGNMENTS      3  3  4  4  4  2  3  4  2  3  4  2  3  4  5  6  7  8  9 10
TYPE ASSIGNMENTS      5  6  7  8  9 10  5  6  7  8  9 10 11 12 13 17 14 15 18 19
TYPE ASSIGNMENTS     16 20 11 12 13 17 14 15 18 19 16 20
EXPONENTS  0.8236000D+04 0.1235000D+04 0.2808000D+03 0.7927000D+02 0.2559000D+02
EXPONENTS  0.8997000D+01 0.3319000D+01 0.3643000D+00 0.8236000D+04 0.1235000D+04
EXPONENTS  0.2808000D+03 0.7927000D+02 0.2559000D+02 0.8997000D+01 0.3319000D+01
EXPONENTS  0.3643000D+00 0.9059000D+00 0.1285000D+00 0.4402000D-01 0.1871000D+02
EXPONENTS  0.4133000D+01 0.1200000D+01 0.1871000D+02 0.4133000D+01 0.1200000D+01
EXPONENTS  0.1871000D+02 0.4133000D+01 0.1200000D+01 0.3827000D+00 0.3827000D+00
EXPONENTS  0.3827000D+00 0.1209000D+00 0.1209000D+00 0.1209000D+00 0.3569000D-01
EXPONENTS  0.3569000D-01 0.3569000D-01 0.1097000D+01 0.1097000D+01 0.1097000D+01
EXPONENTS  0.1097000D+01 0.1097000D+01 0.1097000D+01 0.3180000D+00 0.3180000D+00
EXPONENTS  0.3180000D+00 0.3180000D+00 0.3180000D+00 0.3180000D+00 0.1000000D+00
EXPONENTS  0.1000000D+00 0.1000000D+00 0.1000000D+00 0.1000000D+00 0.1000000D+00
EXPONENTS  0.7610000D+00 0.7610000D+00 0.7610000D+00 0.7610000D+00 0.7610000D+00
EXPONENTS  0.7610000D+00 0.7610000D+00 0.7610000D+00 0.7610000D+00 0.7610000D+00
EXPONENTS  0.2680000D+00 0.2680000D+00 0.2680000D+00 0.2680000D+00 0.2680000D+00
EXPONENTS  0.2680000D+00 0.2680000D+00 0.2680000D+00 0.2680000D+00 0.2680000D+00
EXPONENTS  0.3387000D+02 0.5095000D+01 0.1159000D+01 0.3258000D+00 0.1027000D+00
EXPONENTS  0.2526000D-01 0.1407000D+01 0.1407000D+01 0.1407000D+01 0.3880000D+00
EXPONENTS  0.3880000D+00 0.3880000D+00 0.1020000D+00 0.1020000D+00 0.1020000D+00
EXPONENTS  0.1057000D+01 0.1057000D+01 0.1057000D+01 0.1057000D+01 0.1057000D+01
EXPONENTS  0.1057000D+01 0.2470000D+00 0.2470000D+00 0.2470000D+00 0.2470000D+00
EXPONENTS  0.2470000D+00 0.2470000D+00 0.1142000D+05 0.1712000D+04 0.3893000D+03
EXPONENTS  0.1100000D+03 0.3557000D+02 0.1254000D+02 0.4644000D+01 0.5118000D+00
EXPONENTS  0.1142000D+05 0.1712000D+04 0.3893000D+03 0.1100000D+03 0.3557000D+02
EXPONENTS  0.1254000D+02 0.4644000D+01 0.5118000D+00 0.1293000D+01 0.1787000D+00
EXPONENTS  0.5760000D-01 0.2663000D+02 0.5948000D+01 0.1742000D+01 0.2663000D+02
EXPONENTS  0.5948000D+01 0.1742000D+01 0.2663000D+02 0.5948000D+01 0.1742000D+01
EXPONENTS  0.5550000D+00 0.5550000D+00 0.5550000D+00 0.1725000D+00 0.1725000D+00
EXPONENTS  0.1725000D+00 0.4910000D-01 0.4910000D-01 0.4910000D-01 0.1654000D+01
EXPONENTS  0.1654000D+01 0.1654000D+01 0.1654000D+01 0.1654000D+01 0.1654000D+01
EXPONENTS  0.4690000D+00 0.4690000D+00 0.4690000D+00 0.4690000D+00 0.4690000D+00
EXPONENTS  0.4690000D+00 0.1510000D+00 0.1510000D+00 0.1510000D+00 0.1510000D+00
EXPONENTS  0.1510000D+00 0.1510000D+00 0.1093000D+01 0.1093000D+01 0.1093000D+01
EXPONENTS  0.1093000D+01 0.1093000D+01 0.1093000D+01 0.1093000D+01 0.1093000D+01
EXPONENTS  0.1093000D+01 0.1093000D+01 0.3640000D+00 0.3640000D+00 0.3640000D+00
EXPONENTS  0.3640000D+00 0.3640000D+00 0.3640000D+00 0.3640000D+00 0.3640000D+00
EXPONENTS  0.3640000D+00 0.3640000D+00 0.1533000D+05 0.2299000D+04 0.5224000D+03
EXPONENTS  0.1473000D+03 0.4755000D+02 0.1676000D+02 0.6207000D+01 0.6882000D+00
EXPONENTS  0.1533000D+05 0.2299000D+04 0.5224000D+03 0.1473000D+03 0.4755000D+02
EXPONENTS  0.1676000D+02 0.6207000D+01 0.6882000D+00 0.1752000D+01 0.2384000D+00
EXPONENTS  0.7376000D-01 0.3446000D+02 0.7749000D+01 0.2280000D+01 0.3446000D+02
EXPONENTS  0.7749000D+01 0.2280000D+01 0.3446000D+02 0.7749000D+01 0.2280000D+01
EXPONENTS  0.7156000D+00 0.7156000D+00 0.7156000D+00 0.2140000D+00 0.2140000D+00
EXPONENTS  0.2140000D+00 0.5974000D-01 0.5974000D-01 0.5974000D-01 0.2314000D+01
EXPONENTS  0.2314000D+01 0.2314000D+01 0.2314000D+01 0.2314000D+01 0.2314000D+01
EXPONENTS  0.6450000D+00 0.6450000D+00 0.6450000D+00 0.6450000D+00 0.6450000D+00
EXPONENTS  0.6450000D+00 0.2140000D+00 0.2140000D+00 0.2140000D+00 0.2140000D+00
EXPONENTS  0.2140000D+00 0.2140000D+00 0.1428000D+01 0.1428000D+01 0.1428000D+01
EXPONENTS  0.1428000D+01 0.1428000D+01 0.1428000D+01 0.1428000D+01 0.1428000D+01
EXPONENTS  0.1428000D+01 0.1428000D+01 0.5000000D+00 0.5000000D+00 0.5000000D+00
EXPONENTS  0.5000000D+00 0.5000000D+00 0.5000000D+00 0.5000000D+00 0.5000000D+00
EXPONENTS  0.5000000D+00 0.5000000D+00
MO    1     MO 0.0        OCC NO =    2.0000000  ORB. ENERGY =  -19.669265
 -0.34518515D-03 -0.64350361D-03 -0.10876345D-02 -0.16350709D-02 -0.20088735D-02
 -0.16968148D-02 -0.63997611D-03  0.31672775D-05  0.26835028D-03  0.50243639D-03
  0.85544094D-03  0.13232371D-02  0.17426567D-02  0.18107319D-02  0.11506388D-02
 -0.77113139D-03 -0.16280796D-02  0.17825486D-02  0.15187080D-03  0.41149941D-15
  0.38580685D-15  0.27471746D-15 -0.15433878D-15 -0.14470242D-15 -0.10303674D-15
 -0.86864381D-03 -0.81440879D-03 -0.57990757D-03 -0.15254747D-15  0.57867062D-16
  0.23460080D-02  0.60086388D-17 -0.15401282D-17 -0.93989182D-03  0.26024063D-18
 -0.32973336D-19 -0.35046062D-04 -0.19823407D-03 -0.19823407D-03  0.39646814D-03
  0.94951094D-20 -0.91600233D-18  0.23579578D-20 -0.44776167D-03 -0.44776167D-03
  0.89552333D-03 -0.55710083D-19  0.43134325D-17 -0.16020299D-17 -0.44624174D-04
 -0.44624174D-04  0.89248347D-04 -0.10312039D-20  0.13790337D-17  0.18145437D-18
 -0.22688392D-17 -0.70615467D-18  0.46835518D-03 -0.22727481D-17 -0.71188445D-18
 -0.70253277D-03  0.90792656D-17  0.28303485D-17 -0.70253277D-03 -0.71654919D-19
 -0.10190948D-17  0.46654059D-19 -0.73747999D-04 -0.10186267D-17  0.47502841D-19
  0.11062200D-03  0.40759112D-17 -0.18746502D-18  0.11062200D-03 -0.37532347D-19
  0.11563337D-04  0.20854954D-04  0.30750618D-04 -0.10218562D-02 -0.17960021D-02
 -0.58382191D-04  0.43330019D-17 -0.11506740D-17  0.14859530D-03 -0.13696319D-16
 -0.67936549D-18  0.56344613D-03 -0.32089226D-19  0.87637926D-18 -0.10359565D-03
 -0.24480256D-03 -0.24480256D-03  0.48960513D-03 -0.22728772D-19 -0.61447210D-17
 -0.26649435D-17 -0.68955983D-04 -0.68955983D-04  0.13791197D-03 -0.87714429D-20
 -0.33852379D-17  0.10896260D-18  0.31466681D-03  0.58633527D-03  0.99163994D-03
  0.14933548D-02  0.18488701D-02  0.15733050D-02  0.59867159D-03 -0.28038345D-05
 -0.23759127D-03 -0.44548586D-03 -0.75790399D-03 -0.11769449D-02 -0.15618743D-02
 -0.16460011D-02 -0.10206257D-02  0.67892061D-03  0.31750602D-03  0.37012882D-03
  0.79387366D-03 -0.22937146D-16 -0.22030854D-16 -0.15449556D-16 -0.16984981D-16
 -0.16313871D-16 -0.11440412D-16  0.37509698D-03  0.36027616D-03  0.25265051D-03
 -0.63145187D-17 -0.55528606D-18  0.51902371D-02 -0.99712017D-17 -0.39049338D-18
 -0.12292712D-02 -0.78665426D-18  0.23489495D-19  0.16655350D-04 -0.74230059D-03
 -0.74230059D-03  0.14846012D-02 -0.76000857D-19  0.40166334D-17 -0.81825049D-17
  0.16363789D-03  0.16363789D-03 -0.32727579D-03  0.14650972D-19  0.17729162D-16
 -0.23758400D-17  0.45078524D-04  0.45078524D-04 -0.90157048D-04  0.54423515D-20
  0.41829745D-17 -0.16101701D-17 -0.60865367D-18  0.84832728D-18  0.36246813D-03
 -0.54981494D-18  0.96943107D-18 -0.54370219D-03  0.23757760D-17 -0.35144129D-17
 -0.54370219D-03  0.23056327D-18  0.30628842D-18 -0.33945776D-19 -0.53183821D-03
  0.30307275D-18 -0.48275393D-19  0.79775732D-03 -0.12219380D-17  0.15011272D-18
  0.79775732D-03 -0.15272719D-18  0.49855673D+00  0.92924559D+00  0.15756926D+01
  0.23848842D+01  0.29756392D+01  0.25556772D+01  0.98117417D+00 -0.43888523D-02
 -0.33095684D-03 -0.62071776D-03 -0.10581877D-02 -0.16537414D-02 -0.22113674D-02
 -0.23612248D-02 -0.14436065D-02  0.95240392D-03  0.50397092D-01  0.66121924D-03
 -0.90520710D-03 -0.15472067D-16 -0.15002700D-16 -0.10120733D-16  0.12626337D-16
  0.12243300D-16  0.82592576D-17 -0.11569067D-01 -0.11218103D-01 -0.75676661D-02
  0.76094203D-18 -0.59918619D-18  0.10254483D-02 -0.43634606D-17  0.28279208D-17
  0.13331812D-02  0.13007537D-18  0.16596777D-18  0.91849235D-04 -0.21613111D-02
 -0.21613111D-02  0.43226221D-02 -0.42382608D-18 -0.17712251D-18  0.44973375D-17
  0.91078840D-03  0.91078840D-03 -0.18215768D-02  0.65306077D-18  0.53718385D-17
 -0.33357369D-17  0.17778954D-03  0.17778954D-03 -0.35557907D-03 -0.15254950D-20
  0.11416400D-17 -0.13261532D-17 -0.20928322D-18 -0.19863557D-18  0.23326820D-03
  0.11543165D-17 -0.10798956D-18 -0.34990230D-03 -0.52646690D-18  0.70389627D-18
 -0.34990230D-03  0.19065187D-17  0.86603186D-18 -0.63003662D-18  0.39556036D-03
  0.85958073D-18 -0.63223249D-18 -0.59334054D-03 -0.34576763D-17  0.25223423D-17
 -0.59334054D-03 -0.19947856D-18
MO    2     MO 0.0        OCC NO =    2.0000000  ORB. ENERGY =  -14.925030
 -0.11835866D-03 -0.22064745D-03 -0.37293306D-03 -0.56064055D-03 -0.68881169D-03
 -0.58181159D-03 -0.21943793D-03  0.10860105D-05  0.98725404D-04  0.18484511D-03
  0.31471461D-03  0.48681565D-03  0.64111908D-03  0.66616379D-03  0.42331718D-03
 -0.28369733D-03  0.12931764D-02  0.11265526D-02  0.77473122D-04 -0.37717390D-15
 -0.35362451D-15 -0.25180172D-15  0.13823898D-15  0.12960783D-15  0.92288498D-16
  0.31946638D-02  0.29952004D-02  0.21327611D-02  0.38230668D-16 -0.42969731D-16
 -0.73558598D-02 -0.67762601D-18 -0.43491809D-18 -0.49750417D-02 -0.74891470D-19
 -0.21658064D-19  0.52419166D-05  0.10268423D-02  0.10268423D-02 -0.20536846D-02
  0.85107800D-19 -0.26854201D-18  0.31708881D-17  0.78365074D-03  0.78365074D-03
 -0.15673015D-02  0.26260204D-20 -0.49904079D-18 -0.26848404D-18  0.10504848D-03
  0.10504848D-03 -0.21009697D-03  0.23363867D-20 -0.42721021D-18  0.98511081D-19
  0.12228589D-17 -0.96346559D-18 -0.28070058D-02  0.11929958D-17 -0.90840401D-18
  0.42105087D-02 -0.48615725D-17  0.37988008D-17  0.42105087D-02  0.20331306D-18
  0.15195523D-18 -0.90023183D-20 -0.30113422D-03  0.15421342D-18 -0.12944844D-19
  0.45170133D-03 -0.61007910D-18  0.39951799D-19  0.45170133D-03 -0.36056726D-19
 -0.32130618D-03 -0.57948893D-03 -0.85445609D-03 -0.30553889D-02 -0.50919331D-02
 -0.88181825D-05  0.13856677D-18  0.49007807D-18 -0.29947250D-02  0.27416238D-17
 -0.10141907D-17 -0.11124475D-02 -0.32434053D-18  0.15434714D-18 -0.10995872D-02
  0.48652121D-03  0.48652121D-03 -0.97304242D-03  0.23102116D-19  0.31239185D-17
 -0.94273061D-18  0.37862895D-04  0.37862895D-04 -0.75725789D-04 -0.19243773D-19
  0.70943700D-18 -0.28215123D-18  0.41373336D+00  0.77093120D+00  0.13038379D+01
  0.19635077D+01  0.24309499D+01  0.20686286D+01  0.78715136D+00 -0.36865656D-02
 -0.20382894D-02 -0.38218117D-02 -0.65020388D-02 -0.10096980D-01 -0.13399279D-01
 -0.14121001D-01 -0.87559215D-02  0.58244424D-02  0.41062721D-01  0.72887743D-02
 -0.49707616D-03  0.34839685D-17  0.33463101D-17  0.23466636D-17 -0.11157386D-18
 -0.10716536D-18 -0.75151747D-19  0.35194782D-02  0.33804167D-02  0.23705815D-02
  0.45158735D-17  0.22213623D-17 -0.78599851D-02  0.37868741D-17 -0.50746325D-18
 -0.16848916D-02  0.10512179D-18 -0.10586446D-19 -0.99145255D-05 -0.37611510D-02
 -0.37611510D-02  0.75223020D-02 -0.75083343D-17 -0.37766082D-17 -0.27481069D-17
  0.27346717D-03  0.27346717D-03 -0.54693435D-03  0.29005409D-18  0.12396344D-18
  0.16104148D-17  0.36985416D-03  0.36985416D-03 -0.73970832D-03 -0.78048516D-20
 -0.27332207D-18 -0.19654368D-18 -0.13184157D-17  0.24587093D-18 -0.17256411D-02
 -0.47097415D-18 -0.60073652D-18  0.25884617D-02  0.44262211D-17 -0.13687626D-18
  0.25884617D-02 -0.17973921D-17 -0.38493885D-18  0.19905072D-19 -0.47627453D-04
 -0.42038569D-18  0.62522328D-19  0.71441180D-04  0.15752022D-17 -0.12223754D-18
  0.71441180D-04  0.17783931D-19  0.39929307D-03  0.74423091D-03  0.12619690D-02
  0.19100489D-02  0.23831834D-02  0.20468367D-02  0.78582040D-03 -0.35150229D-05
 -0.34863904D-03 -0.65388115D-03 -0.11147240D-02 -0.17420967D-02 -0.23295152D-02
 -0.24873791D-02 -0.15207348D-02  0.10032885D-02 -0.16901400D-04  0.35706639D-02
  0.68813965D-03  0.68255061D-17  0.66184449D-17  0.44647639D-17 -0.27001364D-17
 -0.26182241D-17 -0.17662385D-17 -0.46523980D-03 -0.45112611D-03 -0.30432701D-03
 -0.11431382D-18  0.14559952D-18 -0.28714391D-02 -0.18340954D-17 -0.45926937D-19
  0.10559771D-03  0.31138149D-20  0.64113174D-19 -0.46077268D-04 -0.13157471D-02
 -0.13157471D-02  0.26314942D-02 -0.20310954D-18 -0.40758546D-17 -0.22546965D-18
 -0.37687735D-04 -0.37687735D-04  0.75375470D-04  0.59982254D-19  0.32986004D-17
 -0.25193481D-18  0.10861888D-03  0.10861888D-03 -0.21723775D-03 -0.13956343D-19
  0.84862432D-18 -0.15130725D-18  0.10168301D-17 -0.78227730D-18  0.41436397D-03
  0.10318839D-17 -0.72165824D-18 -0.62154595D-03 -0.40823742D-17  0.30684901D-17
 -0.62154595D-03 -0.69784213D-18  0.33633809D-18 -0.25272987D-19  0.30811012D-03
  0.34887218D-18 -0.32298013D-19 -0.46216518D-03 -0.13578864D-17  0.10811697D-18
 -0.46216518D-03 -0.48409414D-20
MO    3     MO 0.0        OCC NO =    2.0000000  ORB. ENERGY =  -10.614333
  0.33003115D+00  0.61525309D+00  0.10398861D+01  0.15632895D+01  0.19206817D+01
  0.16223228D+01  0.61188045D+00 -0.30282305D-02 -0.30015967D-02 -0.56199361D-02
 -0.95684222D-02 -0.14800894D-01 -0.19492257D-01 -0.20253703D-01 -0.12870319D-01
  0.86253887D-02  0.36408326D-01  0.44828803D-02  0.10081969D-02  0.32200861D-16
  0.30190354D-16  0.21497331D-16 -0.80490648D-17 -0.75465099D-17 -0.53735646D-17
  0.33242940D-02  0.31167370D-02  0.22193024D-02 -0.93469226D-17  0.27242548D-17
  0.41675274D-02 -0.19493778D-17  0.69630078D-18  0.32982487D-02 -0.62777927D-19
  0.27044697D-19  0.10789245D-03 -0.40076446D-02 -0.40076446D-02  0.80152892D-02
 -0.19550307D-17  0.82659897D-19 -0.11203412D-17  0.55954872D-03  0.55954872D-03
 -0.11190974D-02  0.84511751D-19 -0.24373389D-17  0.99871073D-18  0.45579220D-04
  0.45579220D-04 -0.91158439D-04 -0.21167416D-21 -0.36766186D-18  0.15387512D-18
  0.16073550D-17 -0.13087302D-18  0.16367969D-03  0.19415544D-17 -0.53680945D-18
 -0.24551953D-03 -0.67636195D-17  0.92942852D-18 -0.24551953D-03 -0.12192047D-17
  0.33916751D-18 -0.10118115D-18  0.19110775D-03  0.31182234D-18 -0.71848485D-19
 -0.28666162D-03 -0.13293249D-17  0.37539194D-18 -0.28666162D-03 -0.54942109D-20
  0.30890896D-03  0.55713004D-03  0.82148792D-03  0.23575981D-02  0.23440097D-02
  0.45842117D-04  0.21639183D-18  0.46728180D-19 -0.83668012D-03  0.36099009D-17
 -0.70914144D-18 -0.16211433D-02  0.55069409D-19  0.18107745D-19 -0.87347413D-05
  0.19307711D-02  0.19307711D-02 -0.38615422D-02 -0.14528589D-18  0.48011265D-17
 -0.88670550D-18  0.18633177D-03  0.18633177D-03 -0.37266354D-03 -0.13520639D-19
  0.70234533D-18 -0.12658904D-18 -0.29443537D-03 -0.54863697D-03 -0.92788265D-03
 -0.13973399D-02 -0.17299974D-02 -0.14721497D-02 -0.56018012D-03  0.26235625D-05
 -0.13661795D-04 -0.25615993D-04 -0.43580425D-04 -0.67675799D-04 -0.89809722D-04
 -0.94647119D-04 -0.58687251D-04  0.39038782D-04  0.18306955D-02 -0.93087400D-02
 -0.35345251D-02 -0.21710594D-17 -0.20852766D-17 -0.14623399D-17  0.73751244D-19
  0.70837188D-19  0.49675926D-19 -0.38317153D-02 -0.36803168D-02 -0.25808922D-02
  0.38337373D-17 -0.61435261D-18  0.24700575D-02  0.32943593D-17 -0.13524648D-17
  0.61565369D-02  0.23546203D-18 -0.10584378D-18  0.17575350D-03 -0.17909847D-03
 -0.17909847D-03  0.35819694D-03  0.40351380D-18  0.67542469D-18 -0.14419172D-17
  0.19508415D-02  0.19508415D-02 -0.39016829D-02  0.95955978D-19 -0.68903652D-17
  0.18201570D-17  0.75700514D-04  0.75700514D-04 -0.15140103D-03 -0.99946632D-20
 -0.94492449D-18  0.32099652D-18 -0.23428318D-18 -0.32844706D-18  0.10042363D-02
 -0.41926763D-18 -0.33189435D-18 -0.15063545D-02  0.11221172D-17  0.13172355D-17
 -0.15063545D-02 -0.84610804D-18 -0.19618117D-18  0.86009441D-19  0.11847139D-02
 -0.17868981D-18  0.90142275D-19 -0.17770708D-02  0.76723332D-18 -0.34817060D-18
 -0.17770708D-02 -0.10908554D-18 -0.74171070D-03 -0.13824533D-02 -0.23441828D-02
 -0.35480298D-02 -0.44269053D-02 -0.38021212D-02 -0.14597083D-02  0.65293647D-05
  0.53369487D-03  0.10009580D-02  0.17064139D-02  0.26667928D-02  0.35660100D-02
  0.38076673D-02  0.23279331D-02 -0.15358289D-02 -0.42747357D-03 -0.17991247D-02
  0.11078536D-02 -0.22085229D-18 -0.21415243D-18 -0.14446597D-18  0.10850460D-18
  0.10521297D-18  0.70976046D-19  0.59435615D-03  0.57632554D-03  0.38878580D-03
  0.66732298D-19 -0.44876923D-19 -0.46287931D-04  0.67183428D-18 -0.77621722D-19
 -0.70680861D-03 -0.70615755D-19  0.39554751D-19 -0.15388062D-03  0.27689491D-03
  0.27689491D-03 -0.55378982D-03 -0.21339283D-18  0.25217415D-17 -0.85048360D-18
 -0.21764276D-03 -0.21764276D-03  0.43528552D-03  0.67833170D-19 -0.18252011D-17
  0.69689693D-18 -0.15544134D-03 -0.15544134D-03  0.31088268D-03  0.11684760D-19
 -0.12142293D-18 -0.57863683D-19 -0.35613984D-19  0.19829960D-18  0.22709817D-03
  0.17890828D-20  0.18072894D-18 -0.34064726D-03  0.10505287D-18 -0.77562775D-18
 -0.34064726D-03  0.58622546D-19 -0.17651698D-18  0.50343875D-19  0.66609374D-04
 -0.18526502D-18  0.54604397D-19 -0.99914061D-04  0.71481597D-18 -0.20563602D-18
 -0.99914061D-04 -0.10505445D-18
MO    4     MO 0.0        OCC NO =    2.0000000  ORB. ENERGY =   -1.295814
 -0.18807327D-02 -0.35061134D-02 -0.59259493D-02 -0.89086429D-02 -0.10945297D-01
 -0.92450532D-02 -0.34868939D-02  0.17256833D-04 -0.99964148D-02 -0.18716443D-01
 -0.31866345D-01 -0.49292390D-01 -0.64916344D-01 -0.67452240D-01 -0.42862870D-01
  0.28725699D-01  0.12879832D-01  0.30061904D-01  0.42824458D-02 -0.53201225D-15
 -0.49879530D-15 -0.35517197D-15  0.24691356D-15  0.23149715D-15  0.16483976D-15
  0.84921861D-01  0.79619643D-01  0.56693929D-01 -0.89854549D-17 -0.66888820D-16
  0.17185631D-01 -0.19211308D-16  0.29231311D-16 -0.15917216D-01 -0.31723057D-17
  0.93850992D-18  0.16295147D-03 -0.85537330D-02 -0.85537330D-02  0.17107466D-01
 -0.14790441D-15 -0.11407301D-16  0.17868297D-15 -0.55872944D-04 -0.55872944D-04
  0.11174589D-03 -0.53214993D-17 -0.24437195D-16 -0.19802446D-16  0.20516885D-03
  0.20516885D-03 -0.41033770D-03  0.42888948D-18 -0.65224744D-17 -0.12876631D-16
  0.98087356D-17  0.69611898D-17  0.12103388D-02  0.10126054D-16  0.34475543D-17
 -0.18155082D-02 -0.39552261D-16 -0.24331124D-16 -0.18155082D-02 -0.37061885D-17
  0.53228893D-17  0.24218823D-17 -0.14626494D-02  0.49951629D-17  0.25822565D-17
  0.21939741D-02 -0.20963831D-16 -0.98479033D-17  0.21939741D-02  0.36167551D-17
  0.58813927D-03  0.10607334D-02  0.15640508D-02 -0.95919519D-02 -0.24410749D-01
 -0.23053414D-03 -0.80960464D-17 -0.19473496D-17 -0.17180146D-02  0.49913331D-16
  0.10161092D-16  0.92137750D-03 -0.24903762D-17 -0.24054401D-16 -0.45538900D-02
  0.75299586D-03  0.75299586D-03 -0.15059917D-02 -0.22381113D-17  0.29737297D-16
  0.11605217D-16 -0.13619629D-03 -0.13619629D-03  0.27239259D-03  0.23599565D-17
  0.10541758D-16 -0.10542614D-16 -0.52751249D-02 -0.98294186D-02 -0.16624011D-01
 -0.25034839D-01 -0.30994755D-01 -0.26375138D-01 -0.10036227D-01  0.47003930D-04
 -0.55870783D-01 -0.10475824D+00 -0.17822494D+00 -0.27676451D+00 -0.36728260D+00
 -0.38706545D+00 -0.24000527D+00  0.15965160D+00  0.87002959D-01  0.15752821D-01
 -0.92465045D-02 -0.40071032D-16 -0.38487747D-16 -0.26990265D-16  0.96288891D-16
  0.92484329D-16  0.64856395D-16  0.25738953D+00  0.24721956D+00  0.17336742D+00
  0.27533045D-16  0.46351067D-16  0.53141993D-01  0.41248551D-16  0.48562030D-16
 -0.18129170D-03  0.91723148D-18  0.46310106D-18  0.19363947D-03 -0.33004478D-01
 -0.33004478D-01  0.66008956D-01 -0.77476676D-16  0.27215894D-16 -0.82944418D-17
 -0.73787068D-04 -0.73787068D-04  0.14757414D-03 -0.17600640D-16 -0.80404921D-16
 -0.45338067D-16  0.16928666D-02  0.16928666D-02 -0.33857332D-02  0.19903493D-18
 -0.13128250D-16  0.36234730D-17 -0.30025704D-17 -0.81509939D-17  0.86526852D-02
  0.18871155D-17 -0.14746381D-16 -0.12979028D-01  0.71205957D-17  0.39199362D-16
 -0.12979028D-01 -0.49027893D-16 -0.24804573D-18 -0.16518241D-17 -0.12077674D-02
 -0.18980872D-18 -0.16402342D-17  0.18116511D-02  0.93394590D-18  0.65957065D-17
  0.18116511D-02  0.75044680D-17 -0.63784356D-02 -0.11888583D-01 -0.20159098D-01
 -0.30511734D-01 -0.38069735D-01 -0.32696826D-01 -0.12552947D-01  0.56150103D-04
 -0.73286401D-01 -0.13745046D+00 -0.23432290D+00 -0.36620109D+00 -0.48968063D+00
 -0.52286475D+00 -0.31966926D+00  0.21089836D+00  0.11439286D+00  0.64141869D-01
  0.49421782D-02 -0.49920714D-16 -0.48406300D-16 -0.32654604D-16  0.15278722D-15
  0.14815221D-15  0.99942606D-16 -0.45003994D+00 -0.43638736D+00 -0.29438433D+00
 -0.17317415D-16  0.49821980D-16 -0.11299158D+00  0.11772237D-16 -0.12049789D-16
 -0.75283329D-02  0.69421229D-18 -0.14546875D-18 -0.23451136D-03 -0.39465516D-01
 -0.39465516D-01  0.78931032D-01 -0.34830110D-16  0.23760522D-16 -0.37747319D-16
 -0.86556146D-02 -0.86556146D-02  0.17311229D-01 -0.18031939D-16 -0.35231502D-17
 -0.98548404D-17  0.34934584D-03  0.34934584D-03 -0.69869169D-03 -0.10649416D-17
 -0.35459003D-17  0.68670319D-17  0.81149118D-18 -0.88283068D-17 -0.21378425D-01
  0.16249359D-18 -0.12066360D-17  0.32067637D-01 -0.25969671D-17  0.27691556D-16
  0.32067637D-01  0.55614006D-16 -0.76840625D-18  0.19438556D-17 -0.10425719D-03
 -0.89364592D-18  0.19194698D-17  0.15638579D-03  0.31988647D-17 -0.77510365D-17
  0.15638579D-03  0.59581594D-17
MO    5     MO 0.0        OCC NO =    2.0000000  ORB. ENERGY =   -1.031064
 -0.63532621D-02 -0.11843925D-01 -0.20018320D-01 -0.30094092D-01 -0.36974069D-01
 -0.31230512D-01 -0.11779000D-01  0.58294928D-04 -0.39728162D-01 -0.74383654D-01
 -0.12664453D+00 -0.19589984D+00 -0.25799320D+00 -0.26807146D+00 -0.17034738D+00
  0.11416285D+00  0.53421261D-01  0.37654051D-01  0.46380324D-02 -0.63261130D-15
 -0.59311330D-15 -0.42233200D-15  0.37679560D-16  0.35326982D-16  0.25154916D-16
  0.27283522D+00  0.25580036D+00  0.18214510D+00  0.96406721D-17  0.86401669D-16
  0.37756872D-01 -0.16972451D-16  0.16449098D-16 -0.79474206D-02 -0.62949940D-19
 -0.68505820D-19  0.24736372D-03 -0.23984651D-01 -0.23984651D-01  0.47969302D-01
  0.26727822D-15  0.50886719D-16 -0.23251629D-15 -0.93453876D-03 -0.93453876D-03
  0.18690775D-02  0.11841318D-16 -0.19145289D-16  0.24496669D-16  0.39883228D-03
  0.39883228D-03 -0.79766456D-03 -0.48616329D-18 -0.12831702D-16  0.71216223D-17
  0.99032825D-17  0.11850003D-17  0.75127309D-02  0.12230628D-16 -0.11054994D-16
 -0.11269096D-01 -0.41940475D-16  0.74999935D-17 -0.11269096D-01 -0.10427345D-16
  0.63632990D-17 -0.17434224D-17 -0.11718297D-02  0.54531493D-17 -0.93266088D-18
  0.17577445D-02 -0.24543046D-16  0.61629282D-17  0.17577445D-02  0.21017098D-17
  0.58647005D-02  0.10577229D-01  0.15596118D-01 -0.73584912D-02 -0.15262942D-01
 -0.10936057D-03 -0.19634737D-16  0.22563407D-17  0.55920358D-02  0.80208825D-16
  0.11280233D-16 -0.72904933D-02 -0.95731032D-17  0.86104094D-17 -0.42972495D-02
  0.22775829D-02  0.22775829D-02 -0.45551657D-02  0.41571306D-18  0.26478154D-16
  0.10851203D-16  0.53152623D-03  0.53152623D-03 -0.10630525D-02  0.86391807D-21
  0.16195133D-16  0.83603206D-17 -0.27687974D-02 -0.51592463D-02 -0.87255789D-02
 -0.13140238D-01 -0.16268467D-01 -0.13843732D-01 -0.52677953D-02  0.24671333D-04
 -0.45444530D-01 -0.85208919D-01 -0.14496572D+00 -0.22511646D+00 -0.29874264D+00
 -0.31483373D+00 -0.19521700D+00  0.12985842D+00  0.69308805D-01  0.26472421D-01
 -0.11868070D-01  0.16541447D-15  0.15887863D-15  0.11141666D-15 -0.71463586D-16
 -0.68639920D-16 -0.48135050D-16 -0.67532883D+00 -0.64864527D+00 -0.45487484D+00
  0.68692544D-16 -0.41656044D-16 -0.14200200D+00  0.67817171D-16 -0.43200403D-16
  0.53692597D-02  0.36504512D-17 -0.48246582D-18  0.91038121D-03 -0.11382860D-01
 -0.11382860D-01  0.22765720D-01 -0.17048071D-16 -0.22702295D-17  0.93358894D-17
  0.10838609D-03  0.10838609D-03 -0.21677218D-03 -0.17929687D-16 -0.72043974D-16
  0.47301044D-16  0.10113478D-02  0.10113478D-02 -0.20226955D-02 -0.66491047D-18
 -0.20538672D-16  0.34007769D-17 -0.67064729D-17  0.30742924D-17 -0.15641441D-01
 -0.73145637D-17 -0.23203331D-17  0.23462161D-01  0.27433982D-16 -0.69025440D-17
  0.23462161D-01 -0.80753141D-17 -0.60582724D-18  0.42835473D-17  0.67003573D-03
 -0.70234004D-19  0.45133465D-17 -0.10050536D-02  0.18877157D-17 -0.17363988D-16
 -0.10050536D-02  0.13489272D-16  0.30870393D-02  0.57538441D-02  0.97566131D-02
  0.14767088D-01  0.18425015D-01  0.15824630D-01  0.60753833D-02 -0.27175562D-04
  0.45613040D-01  0.85548387D-01  0.14584125D+00  0.22792148D+00  0.30477445D+00
  0.32542805D+00  0.19896033D+00 -0.13126194D+00 -0.74219933D-01 -0.39857162D-01
  0.32859620D-02  0.13885247D-15  0.13464019D-15  0.90827474D-16 -0.89120460D-16
 -0.86416868D-16 -0.58296308D-16  0.94367508D-01  0.91504740D-01  0.61728557D-01
  0.40958551D-16 -0.24069181D-16  0.21630940D-01  0.17256815D-16  0.91477044D-17
  0.33343201D-02  0.30742677D-18 -0.94170432D-18 -0.73375090D-03  0.10436544D-01
  0.10436544D-01 -0.20873088D-01  0.22624495D-16  0.32318003D-17  0.22120909D-16
  0.19330810D-02  0.19330810D-02 -0.38661621D-02  0.68601991D-17 -0.28240713D-16
  0.48263732D-18 -0.98528650D-04 -0.98528650D-04  0.19705730D-03 -0.13960150D-17
 -0.11210376D-17 -0.23382634D-17 -0.43905517D-17  0.30433969D-17  0.83959610D-02
 -0.12826202D-17 -0.20081407D-17 -0.12593942D-01  0.14454275D-16 -0.71220499D-17
 -0.12593942D-01 -0.26577626D-16 -0.19031395D-17  0.24038501D-18  0.96262344D-04
 -0.17619281D-17  0.11610857D-17 -0.14439352D-03  0.74713467D-17 -0.18822407D-17
 -0.14439352D-03  0.22254919D-17
MO    6     MO 0.0        OCC NO =    2.0000000  ORB. ENERGY =   -0.686237
 -0.27873191D-02 -0.51961966D-02 -0.87824876D-02 -0.13202956D-01 -0.16221357D-01
 -0.13701529D-01 -0.51677125D-02  0.25575298D-04 -0.36346977D-01 -0.68053009D-01
 -0.11586607D+00 -0.17922719D+00 -0.23603591D+00 -0.24525643D+00 -0.15584945D+00
  0.10444668D+00  0.46467154D-01  0.49370330D-01  0.20427876D-02 -0.65227714D-15
 -0.61155128D-15 -0.43546094D-15 -0.14809058D-15 -0.13884433D-15 -0.98865434D-16
 -0.39193223D+00 -0.36746138D+00 -0.26165439D+00 -0.18238245D-15 -0.12241740D-15
 -0.71827036D-01 -0.24051735D-16 -0.35142335D-16 -0.98937120D-02  0.59761176D-17
 -0.52901620D-17 -0.52360726D-04 -0.57581993D-02 -0.57581993D-02  0.11516399D-01
 -0.83242489D-16 -0.12038265D-15  0.49090280D-15 -0.21849769D-02 -0.21849769D-02
  0.43699538D-02 -0.28069602D-16  0.34875532D-17  0.77095078D-17 -0.36183438D-03
 -0.36183438D-03  0.72366877D-03  0.93267073D-18  0.12957337D-16 -0.34327827D-17
 -0.10852874D-17  0.28293628D-17 -0.21335314D-02  0.12207991D-16  0.74346899D-17
  0.32002970D-02 -0.89521292D-17 -0.15922778D-16  0.32002970D-02 -0.87329252D-18
 -0.19777721D-17  0.27459396D-17 -0.26997057D-03 -0.40072634D-17  0.27552643D-17
  0.40495585D-03  0.99405797D-17 -0.10993083D-16  0.40495585D-03 -0.50041914D-17
  0.45196755D-01  0.81514208D-01  0.12019265D+00  0.61818102D-01 -0.85943410D-02
 -0.27380896D-03  0.67952335D-17 -0.32886719D-16  0.36053042D-01 -0.33793256D-16
  0.36525774D-17  0.60221576D-02  0.18709877D-16  0.11550267D-16 -0.16335146D-02
 -0.46054604D-02 -0.46054604D-02  0.92109207D-02 -0.13462802D-16 -0.74728769D-17
 -0.41623041D-16 -0.89164021D-04 -0.89164021D-04  0.17832804D-03 -0.83142785D-18
 -0.41938516D-17  0.71616072D-17 -0.13126417D-03 -0.24459145D-03 -0.41366547D-03
 -0.62295727D-03 -0.77126151D-03 -0.65630874D-03 -0.24973758D-03  0.11696276D-05
  0.26996009D-01  0.50617768D-01  0.86115885D-01  0.13372888D+00  0.17746600D+00
  0.18702480D+00  0.11596731D+00 -0.77141497D-01 -0.41745539D-01 -0.31735627D-01
 -0.78356477D-04 -0.13700857D-14 -0.13159510D-14 -0.92283564D-15 -0.80366165D-16
 -0.77190741D-16 -0.54131475D-16 -0.35907539D-02 -0.34488762D-02 -0.24185900D-02
 -0.34814877D-15 -0.13827242D-16  0.36764859D-02 -0.91254538D-16  0.30074806D-16
  0.16859033D-02 -0.36800779D-17  0.25609088D-17 -0.23929572D-03  0.70782925D-02
  0.70782925D-02 -0.14156585D-01  0.21661539D-16  0.78357710D-16 -0.12077045D-16
  0.15122154D-02  0.15122154D-02 -0.30244308D-02  0.11023278D-16  0.47150000D-16
 -0.39695243D-16  0.24540029D-03  0.24540029D-03 -0.49080058D-03  0.22245082D-17