 Molden2AIM, Version 4.0.0 (06/02/2016)           Time: Thu Jun 28 02:55:28 2018
GAUSSIAN             11 MOL ORBITALS    252 PRIMITIVES        4 NUCLEI
  H    1    (CENTRE  1)  -0.01616661  0.00000000 -0.00887226  CHARGE =  1.0
  N    2    (CENTRE  2)   0.01599086  0.00000000  1.92183068  CHARGE =  7.0
  N    3    (CENTRE  3)   2.22828568  0.00000000  2.67681784  CHARGE =  7.0
  N    4    (CENTRE  4)   4.13523477  0.00000000  3.65178802  CHARGE =  7.0
CENTRE ASSIGNMENTS    1  1  1  1  1  1  1  1  1  1  1  1  1  1  1  1  1  1  1  1
CENTRE ASSIGNMENTS    1  1  1  1  1  1  1  2  2  2  2  2  2  2  2  2  2  2  2  2
CENTRE ASSIGNMENTS    2  2  2  2  2  2  2  2  2  2  2  2  2  2  2  2  2  2  2  2
CENTRE ASSIGNMENTS    2  2  2  2  2  2  2  2  2  2  2  2  2  2  2  2  2  2  2  2
CENTRE ASSIGNMENTS    2  2  2  2  2  2  2  2  2  2  2  2  2  2  2  2  2  2  2  2
CENTRE ASSIGNMENTS    2  2  3  3  3  3  3  3  3  3  3  3  3  3  3  3  3  3  3  3
CENTRE ASSIGNMENTS    3  3  3  3  3  3  3  3  3  3  3  3  3  3  3  3  3  3  3  3
CENTRE ASSIGNMENTS    3  3  3  3  3  3  3  3  3  3  3  3  3  3  3  3  3  3  3  3
CENTRE ASSIGNMENTS    3  3  3  3  3  3  3  3  3  3  3  3  3  3  3  3  3  4  4  4
CENTRE ASSIGNMENTS    4  4  4  4  4  4  4  4  4  4  4  4  4  4  4  4  4  4  4  4
CENTRE ASSIGNMENTS    4  4  4  4  4  4  4  4  4  4  4  4  4  4  4  4  4  4  4  4
CENTRE ASSIGNMENTS    4  4  4  4  4  4  4  4  4  4  4  4  4  4  4  4  4  4  4  4
CENTRE ASSIGNMENTS    4  4  4  4  4  4  4  4  4  4  4  4
TYPE ASSIGNMENTS      1  1  1  1  1  1  2  3  4  2  3  4  2  3  4  5  6  7  8  9
TYPE ASSIGNMENTS     10  5  6  7  8  9 10  1  1  1  1  1  1  1  1  1  1  1  1  1
TYPE ASSIGNMENTS      1  1  1  1  1  1  2  2  2  3  3  3  4  4  4  2  3  4  2  3
TYPE ASSIGNMENTS      4  2  3  4  5  6  7  8  9 10  5  6  7  8  9 10  5  6  7  8
TYPE ASSIGNMENTS      9 10 11 12 13 17 14 15 18 19 16 20 11 12 13 17 14 15 18 19
TYPE ASSIGNMENTS     16 20  1  1  1  1  1  1  1  1  1  1  1  1  1  1  1  1  1  1
TYPE ASSIGNMENTS      1  2  2  2  3  3  3  4  4  4  2  3  4  2  3  4  2  3  4  5
TYPE ASSIGNMENTS      6  7  8  9 10  5  6  7  8  9 10  5  6  7  8  9 10 11 12 13
TYPE ASSIGNMENTS     17 14 15 18 19 16 20 11 12 13 17 14 15 18 19 16 20  1  1  1
TYPE ASSIGNMENTS      1  1  1  1  1  1  1  1  1  1  1  1  1  1  1  1  2  2  2  3
TYPE ASSIGNMENTS      3  3  4  4  4  2  3  4  2  3  4  2  3  4  5  6  7  8  9 10
TYPE ASSIGNMENTS      5  6  7  8  9 10  5  6  7  8  9 10 11 12 13 17 14 15 18 19
TYPE ASSIGNMENTS     16 20 11 12 13 17 14 15 18 19 16 20
EXPONENTS  0.3387000D+02 0.5095000D+01 0.1159000D+01 0.3258000D+00 0.1027000D+00
EXPONENTS  0.2526000D-01 0.1407000D+01 0.1407000D+01 0.1407000D+01 0.3880000D+00
EXPONENTS  0.3880000D+00 0.3880000D+00 0.1020000D+00 0.1020000D+00 0.1020000D+00
EXPONENTS  0.1057000D+01 0.1057000D+01 0.1057000D+01 0.1057000D+01 0.1057000D+01
EXPONENTS  0.1057000D+01 0.2470000D+00 0.2470000D+00 0.2470000D+00 0.2470000D+00
EXPONENTS  0.2470000D+00 0.2470000D+00 0.1142000D+05 0.1712000D+04 0.3893000D+03
EXPONENTS  0.1100000D+03 0.3557000D+02 0.1254000D+02 0.4644000D+01 0.5118000D+00
EXPONENTS  0.1142000D+05 0.1712000D+04 0.3893000D+03 0.1100000D+03 0.3557000D+02
EXPONENTS  0.1254000D+02 0.4644000D+01 0.5118000D+00 0.1293000D+01 0.1787000D+00
EXPONENTS  0.5760000D-01 0.2663000D+02 0.5948000D+01 0.1742000D+01 0.2663000D+02
EXPONENTS  0.5948000D+01 0.1742000D+01 0.2663000D+02 0.5948000D+01 0.1742000D+01
EXPONENTS  0.5550000D+00 0.5550000D+00 0.5550000D+00 0.1725000D+00 0.1725000D+00
EXPONENTS  0.1725000D+00 0.4910000D-01 0.4910000D-01 0.4910000D-01 0.1654000D+01
EXPONENTS  0.1654000D+01 0.1654000D+01 0.1654000D+01 0.1654000D+01 0.1654000D+01
EXPONENTS  0.4690000D+00 0.4690000D+00 0.4690000D+00 0.4690000D+00 0.4690000D+00
EXPONENTS  0.4690000D+00 0.1510000D+00 0.1510000D+00 0.1510000D+00 0.1510000D+00
EXPONENTS  0.1510000D+00 0.1510000D+00 0.1093000D+01 0.1093000D+01 0.1093000D+01
EXPONENTS  0.1093000D+01 0.1093000D+01 0.1093000D+01 0.1093000D+01 0.1093000D+01
EXPONENTS  0.1093000D+01 0.1093000D+01 0.3640000D+00 0.3640000D+00 0.3640000D+00
EXPONENTS  0.3640000D+00 0.3640000D+00 0.3640000D+00 0.3640000D+00 0.3640000D+00
EXPONENTS  0.3640000D+00 0.3640000D+00 0.1142000D+05 0.1712000D+04 0.3893000D+03
EXPONENTS  0.1100000D+03 0.3557000D+02 0.1254000D+02 0.4644000D+01 0.5118000D+00
EXPONENTS  0.1142000D+05 0.1712000D+04 0.3893000D+03 0.1100000D+03 0.3557000D+02
EXPONENTS  0.1254000D+02 0.4644000D+01 0.5118000D+00 0.1293000D+01 0.1787000D+00
EXPONENTS  0.5760000D-01 0.2663000D+02 0.5948000D+01 0.1742000D+01 0.2663000D+02
EXPONENTS  0.5948000D+01 0.1742000D+01 0.2663000D+02 0.5948000D+01 0.1742000D+01
EXPONENTS  0.5550000D+00 0.5550000D+00 0.5550000D+00 0.1725000D+00 0.1725000D+00
EXPONENTS  0.1725000D+00 0.4910000D-01 0.4910000D-01 0.4910000D-01 0.1654000D+01
EXPONENTS  0.1654000D+01 0.1654000D+01 0.1654000D+01 0.1654000D+01 0.1654000D+01
EXPONENTS  0.4690000D+00 0.4690000D+00 0.4690000D+00 0.4690000D+00 0.4690000D+00
EXPONENTS  0.4690000D+00 0.1510000D+00 0.1510000D+00 0.1510000D+00 0.1510000D+00
EXPONENTS  0.1510000D+00 0.1510000D+00 0.1093000D+01 0.1093000D+01 0.1093000D+01
EXPONENTS  0.1093000D+01 0.1093000D+01 0.1093000D+01 0.1093000D+01 0.1093000D+01
EXPONENTS  0.1093000D+01 0.1093000D+01 0.3640000D+00 0.3640000D+00 0.3640000D+00
EXPONENTS  0.3640000D+00 0.3640000D+00 0.3640000D+00 0.3640000D+00 0.3640000D+00
EXPONENTS  0.3640000D+00 0.3640000D+00 0.1142000D+05 0.1712000D+04 0.3893000D+03
EXPONENTS  0.1100000D+03 0.3557000D+02 0.1254000D+02 0.4644000D+01 0.5118000D+00
EXPONENTS  0.1142000D+05 0.1712000D+04 0.3893000D+03 0.1100000D+03 0.3557000D+02
EXPONENTS  0.1254000D+02 0.4644000D+01 0.5118000D+00 0.1293000D+01 0.1787000D+00
EXPONENTS  0.5760000D-01 0.2663000D+02 0.5948000D+01 0.1742000D+01 0.2663000D+02
EXPONENTS  0.5948000D+01 0.1742000D+01 0.2663000D+02 0.5948000D+01 0.1742000D+01
EXPONENTS  0.5550000D+00 0.5550000D+00 0.5550000D+00 0.1725000D+00 0.1725000D+00
EXPONENTS  0.1725000D+00 0.4910000D-01 0.4910000D-01 0.4910000D-01 0.1654000D+01
EXPONENTS  0.1654000D+01 0.1654000D+01 0.1654000D+01 0.1654000D+01 0.1654000D+01
EXPONENTS  0.4690000D+00 0.4690000D+00 0.4690000D+00 0.4690000D+00 0.4690000D+00
EXPONENTS  0.4690000D+00 0.1510000D+00 0.1510000D+00 0.1510000D+00 0.1510000D+00
EXPONENTS  0.1510000D+00 0.1510000D+00 0.1093000D+01 0.1093000D+01 0.1093000D+01
EXPONENTS  0.1093000D+01 0.1093000D+01 0.1093000D+01 0.1093000D+01 0.1093000D+01
EXPONENTS  0.1093000D+01 0.1093000D+01 0.3640000D+00 0.3640000D+00 0.3640000D+00
EXPONENTS  0.3640000D+00 0.3640000D+00 0.3640000D+00 0.3640000D+00 0.3640000D+00
EXPONENTS  0.3640000D+00 0.3640000D+00
MO    1     MO 0.0        OCC NO =    2.0000000  ORB. ENERGY =  -14.950353
  0.80534825D-05  0.14524787D-04  0.21416790D-04  0.10697901D-02 -0.23229039D-03
  0.27824951D-04 -0.45036276D-03  0.15815468D-15  0.17311523D-03 -0.90339543D-03
 -0.75971517D-16  0.44303734D-03 -0.10200515D-03  0.63025629D-17 -0.55183985D-04
 -0.18545259D-03 -0.12022802D-03  0.30568061D-03  0.48819460D-18 -0.15998615D-02
 -0.27599180D-16 -0.87026476D-04  0.48119697D-04  0.38906779D-04 -0.84096590D-19
 -0.18779456D-03 -0.49779591D-18  0.15251479D-02  0.28418885D-02  0.48063460D-02
  0.72380907D-02  0.89612258D-02  0.76255987D-02  0.29016810D-02 -0.13589810D-04
 -0.30646038D-03 -0.57461607D-03 -0.97759290D-03 -0.15180986D-02 -0.20146051D-02
 -0.21231172D-02 -0.13164681D-02  0.87571510D-03  0.42409051D-03 -0.79267074D-03
  0.63676017D-03  0.11006419D-02  0.10571534D-02  0.74134893D-03 -0.74547032D-17
 -0.71601533D-17 -0.50211937D-17  0.21642226D-03  0.20787100D-03  0.14577349D-03
  0.13699686D-02  0.17945084D-18  0.96416950D-03 -0.35226082D-03  0.32490736D-17
  0.58410516D-03  0.53113473D-04 -0.91627791D-19  0.49910373D-04  0.15831887D-02
 -0.79973697D-03 -0.78345171D-03 -0.42439589D-18  0.24002770D-02  0.10038318D-16
 -0.17941490D-03  0.22570230D-03 -0.46287399D-04 -0.59824019D-19 -0.12333178D-02
 -0.56556293D-17 -0.57856351D-04  0.23197256D-04  0.34659094D-04  0.80489374D-18
  0.45759962D-04  0.21377652D-18 -0.56392668D-03  0.21140929D-17  0.38530108D-03
  0.91662187D-03 -0.49824561D-18 -0.15570183D-02  0.77515818D-03 -0.58440330D-17
  0.40111506D-03 -0.59499536D-18 -0.16009666D-03 -0.75057056D-18  0.11016951D-03
  0.24021374D-04 -0.77191381D-19 -0.32399729D-03  0.45626861D-03  0.23289031D-17
 -0.65112481D-05  0.97082010D-18  0.41291222D+00  0.76940111D+00  0.13012502D+01
  0.19596107D+01  0.24261251D+01  0.20645230D+01  0.78558908D+00 -0.36792488D-02
 -0.14918242D-02 -0.27971844D-02 -0.47588428D-02 -0.73899805D-02 -0.98069339D-02
 -0.10335162D-01 -0.64084599D-02  0.42629100D-02  0.40759869D-01  0.32179220D-02
 -0.38701618D-03 -0.18148128D-02 -0.17431060D-02 -0.12223862D-02 -0.66802853D-17
 -0.64163341D-17 -0.44995764D-17 -0.17552263D-03 -0.16858739D-03 -0.11822511D-03
  0.46221446D-02  0.25575783D-17  0.24501719D-02 -0.36001450D-04  0.25396597D-18
 -0.55483838D-03  0.10171141D-03 -0.11143765D-19 -0.12601024D-04  0.54341594D-02
 -0.38245690D-02 -0.16095904D-02 -0.26119250D-17  0.81528840D-02 -0.17075900D-18
 -0.39417729D-03  0.35035516D-03  0.43822129D-04  0.30954989D-17 -0.39283856D-03
  0.16234522D-17 -0.23511248D-03  0.74557188D-04  0.16055529D-03  0.13669362D-17
  0.22261501D-04  0.84153925D-18  0.55418239D-03  0.30906727D-18 -0.57991767D-03
 -0.20171310D-02  0.72771682D-18  0.29736958D-02  0.35458386D-03 -0.16549186D-17
 -0.12339428D-02 -0.37519347D-18  0.60018282D-04 -0.31136650D-18  0.54151333D-04
 -0.49849356D-04  0.18477609D-18 -0.25814765D-03 -0.13020549D-03  0.74932340D-18
  0.95693648D-04  0.19180666D-17  0.32088556D-02  0.59792299D-02  0.10112377D-01
  0.15228679D-01  0.18854092D-01  0.16043982D-01  0.61050310D-02 -0.28592465D-04
  0.50391159D-04  0.94483894D-04  0.16074522D-03  0.24962035D-03  0.33126072D-03
  0.34910333D-03  0.21646633D-03 -0.14399349D-03  0.17615293D-02 -0.21315513D-02
 -0.53268526D-03 -0.30316728D-02 -0.29118855D-02 -0.20420151D-02 -0.13157659D-18
 -0.12637775D-18 -0.88624799D-19 -0.17593077D-02 -0.16897940D-02 -0.11850002D-02
  0.29872053D-02 -0.17215265D-17  0.18330213D-02  0.17666245D-02 -0.25620501D-17
  0.64725886D-03  0.30079733D-04 -0.51377181D-19  0.36782198D-04 -0.79426917D-03
  0.53301787D-03  0.26125130D-03 -0.69712482D-17 -0.14750595D-02  0.77227304D-18
 -0.16930159D-02  0.12854709D-02  0.40754504D-03  0.45132267D-17 -0.30195276D-02
  0.22091736D-18 -0.15867191D-03  0.11368342D-03  0.44988490D-04  0.53317342D-18
 -0.26077909D-03  0.20018465D-18  0.10154067D-02 -0.80500464D-18 -0.99531404D-03
 -0.30194545D-02  0.11288104D-17  0.44535993D-02 -0.26765615D-04  0.12862036D-17
 -0.14676572D-02 -0.28941163D-17  0.13845983D-03  0.30659717D-18 -0.13759097D-03
 -0.45993561D-03 -0.96802310D-18  0.67565280D-03  0.44556133D-04  0.48231598D-19
 -0.26287989D-03  0.14055841D-18
MO    2     MO 0.0        OCC NO =    2.0000000  ORB. ENERGY =  -14.843615
 -0.10180831D-04 -0.18361547D-04 -0.27074091D-04 -0.96498386D-03 -0.71014586D-03
 -0.27098634D-06 -0.20228757D-03  0.19813991D-15 -0.79017984D-04 -0.21026373D-03
  0.12743259D-17 -0.65361332D-03 -0.27521270D-04  0.14338185D-17 -0.13134685D-03
  0.67050528D-04  0.18603337D-04 -0.85653865D-04 -0.34351987D-17 -0.40277901D-03
 -0.15830319D-15 -0.78152814D-04  0.56154401D-04  0.21998413D-04  0.84454922D-18
  0.35102438D-04  0.36942366D-18 -0.75409835D-03 -0.14051512D-02 -0.23764630D-02
 -0.35788216D-02 -0.44308133D-02 -0.37704221D-02 -0.14347152D-02  0.67193833D-05
  0.27382525D-03  0.51342491D-03  0.87348854D-03  0.13564355D-02  0.18000688D-02
  0.18970254D-02  0.11762768D-02 -0.78245975D-03 -0.47321290D-03 -0.77723675D-03
  0.68809896D-03 -0.32621119D-03 -0.31332195D-03 -0.21972298D-03 -0.39575677D-17
 -0.38011965D-17 -0.26656614D-17 -0.39668579D-03 -0.38101196D-03 -0.26719189D-03
 -0.32770478D-03 -0.34843469D-17  0.38390696D-03 -0.40576864D-03 -0.57380776D-17
 -0.24068487D-03  0.66616332D-04 -0.26697839D-18  0.25270412D-04 -0.81900273D-03
  0.67927385D-03  0.13972888D-03 -0.16961835D-17 -0.62765640D-03 -0.19678746D-16
 -0.28261956D-03 -0.25190900D-03  0.53452856D-03 -0.23153157D-17  0.63684846D-03
  0.20697312D-17  0.31283603D-04 -0.54562455D-04  0.23278852D-04 -0.41813131D-18
  0.12873459D-03  0.14510120D-17 -0.81776608D-03  0.56521793D-18  0.35159056D-04
  0.10991728D-02 -0.41808000D-18 -0.20651312D-03  0.13541254D-02 -0.12775738D-17
  0.10103595D-03 -0.54965084D-17 -0.18796888D-04  0.12330130D-17 -0.16147672D-04
 -0.13368282D-04  0.53500123D-18 -0.46893987D-04  0.69758948D-04 -0.42340401D-17
  0.95337002D-04 -0.11344753D-17 -0.34363940D-02 -0.64032142D-02 -0.10829440D-01
 -0.16308537D-01 -0.20191027D-01 -0.17181653D-01 -0.65379358D-02  0.30619943D-04
 -0.50260544D-04 -0.94238989D-04 -0.16032856D-03 -0.24897333D-03 -0.33040208D-03
 -0.34819844D-03 -0.21590525D-03  0.14362025D-03  0.15175971D-02 -0.10126160D-01
 -0.17228518D-02  0.38352494D-02  0.36837112D-02  0.25832725D-02  0.40925901D-18
  0.39308838D-18  0.27566071D-18  0.22520197D-02  0.21630380D-02  0.15168715D-02
 -0.38920515D-02  0.17130574D-17 -0.21375891D-02 -0.62322356D-02  0.40458507D-17
 -0.36445128D-02 -0.56192768D-04  0.28967593D-18 -0.55096882D-04  0.12970157D-03
 -0.52727792D-05 -0.12442879D-03  0.22943754D-17 -0.46422971D-03  0.25159367D-17
 -0.24978960D-02  0.17300621D-02  0.76783386D-03  0.34594049D-18 -0.37457573D-02
 -0.11833694D-17 -0.26691119D-03  0.17019830D-03  0.96712886D-04  0.34863730D-18
 -0.42447421D-03  0.89701492D-18 -0.10185517D-02  0.63617957D-18  0.12068134D-02
  0.31650653D-02  0.86454228D-18 -0.51496097D-02 -0.10941035D-03 -0.27730810D-17
  0.15291696D-02  0.64637429D-17 -0.17782087D-03 -0.39490332D-18  0.34999892D-03
  0.90440598D-03  0.17591346D-17 -0.16626378D-02 -0.37094338D-03 -0.57442466D-18
  0.61264104D-03 -0.46437600D-18  0.41285684D+00  0.76929792D+00  0.13010756D+01
  0.19593478D+01  0.24257997D+01  0.20642461D+01  0.78548372D+00 -0.36787553D-02
 -0.14448487D-02 -0.27091048D-02 -0.46089933D-02 -0.71572799D-02 -0.94981268D-02
 -0.10009722D-01 -0.62066661D-02  0.41286767D-02  0.40974900D-01  0.12342914D-01
  0.10231942D-02 -0.77660331D-02 -0.74591819D-02 -0.52308933D-02 -0.12373945D-16
 -0.11885026D-16 -0.83346007D-17 -0.42334693D-02 -0.40661967D-02 -0.28514978D-02
 -0.54276806D-02 -0.75639715D-18 -0.23626767D-02 -0.28388674D-02 -0.26085233D-17
 -0.13480132D-02 -0.49868798D-04 -0.18695179D-18 -0.16457908D-04  0.39420228D-02
 -0.31559831D-02 -0.78603962D-03  0.14961020D-17  0.64537708D-02 -0.11322093D-16
  0.46249624D-03 -0.25544128D-03 -0.20705496D-03  0.97386889D-18  0.72129398D-03
  0.47401340D-17  0.34273918D-04 -0.10818707D-04 -0.23455211D-04  0.98759697D-18
  0.35743158D-04 -0.20836378D-18 -0.51868884D-03 -0.76109563D-18  0.49802621D-03
  0.16111029D-02 -0.22721683D-17 -0.23306348D-02 -0.55036401D-04  0.45554552D-17
  0.83655622D-03 -0.84893787D-19  0.69392077D-04  0.33159710D-18 -0.41428469D-04
 -0.19318431D-03  0.40465629D-18  0.22548666D-03 -0.14991924D-04 -0.13994476D-17
 -0.10120125D-03 -0.99843097D-18
MO    3     MO 0.0        OCC NO =    2.0000000  ORB. ENERGY =  -14.804320
  0.18617009D-03  0.33576543D-03  0.49508593D-03 -0.87159827D-03 -0.48199109D-03
 -0.77462571D-05 -0.18600892D-03 -0.14802862D-16 -0.13761875D-02 -0.17504241D-04
 -0.71233710D-18 -0.16460479D-02  0.59410520D-05 -0.13491216D-18 -0.16847138D-03
  0.14210772D-02  0.14227300D-02 -0.28438072D-02 -0.21314271D-18 -0.29503528D-03
 -0.15959814D-17  0.67791642D-04  0.94019380D-04 -0.16181102D-03 -0.55930643D-20
 -0.33824957D-04 -0.26463936D-18  0.41274765D+00  0.76909447D+00  0.13007316D+01
  0.19588297D+01  0.24251582D+01  0.20637002D+01  0.78527598D+00 -0.36777824D-02
 -0.13422571D-02 -0.25167446D-02 -0.42817314D-02 -0.66490768D-02 -0.88237116D-02
 -0.92989808D-02 -0.57659613D-02  0.38355197D-02  0.40211000D-01  0.51279550D-02
  0.30422635D-03  0.83334722D-02  0.80042004D-02  0.56130978D-02 -0.37749627D-16
 -0.36258065D-16 -0.25426658D-16 -0.20855354D-02 -0.20031318D-02 -0.14047343D-02
  0.19721747D-02  0.56973617D-17 -0.10151298D-02  0.55359179D-03 -0.72706608D-19
  0.74577077D-03 -0.12978869D-04 -0.14023367D-19 -0.11518082D-05  0.20101599D-02
 -0.38292852D-02  0.18191252D-02 -0.90991917D-17  0.44159299D-02  0.10351987D-17
 -0.41591387D-03  0.14724751D-03  0.26866636D-03  0.29595636D-17 -0.35100542D-03
 -0.36344947D-18 -0.71439509D-04  0.56661941D-04  0.14777568D-04 -0.55942519D-19
  0.51764891D-04 -0.29611081D-19  0.37547551D-03 -0.21435035D-18 -0.11718901D-02
 -0.83471350D-03  0.11251788D-17  0.23999066D-02 -0.29171303D-03 -0.48212775D-18
  0.11157637D-02  0.21368091D-17 -0.12902563D-03 -0.15803060D-18  0.21766139D-03
  0.24502485D-03  0.23150687D-18 -0.53171176D-03  0.14205203D-03  0.24258491D-18
 -0.12127241D-03  0.24807626D-18 -0.81405744D-03 -0.15168762D-02 -0.25654179D-02
 -0.38633772D-02 -0.47831116D-02 -0.40702121D-02 -0.15487908D-02  0.72536480D-05
 -0.29873897D-03 -0.56013835D-03 -0.95296200D-03 -0.14798494D-02 -0.19638462D-02
 -0.20696243D-02 -0.12832991D-02  0.85365105D-03  0.96029089D-03 -0.25228882D-02
 -0.10805419D-03 -0.24227498D-02 -0.23270222D-02 -0.16318686D-02  0.11243548D-17
  0.10799293D-17  0.75732099D-18 -0.56346417D-03 -0.54120060D-03 -0.37952722D-03
 -0.20376074D-03 -0.11332377D-17 -0.29194959D-03  0.39221817D-02 -0.12717981D-17
  0.84590489D-03  0.82346936D-04  0.27223877D-19  0.30071133D-04  0.96896613D-03
 -0.53975151D-03 -0.42921461D-03 -0.12220308D-17  0.93903631D-03 -0.44780827D-18
 -0.11135506D-02  0.78687628D-03  0.32667433D-03  0.22239063D-17 -0.16679487D-02
  0.84064372D-18 -0.16986096D-03  0.56686344D-04  0.11317462D-03 -0.43884922D-18
  0.97107482D-04 -0.19856672D-18  0.98656494D-03  0.16610699D-19 -0.56307948D-03
 -0.16874049D-02 -0.14447590D-18  0.22221022D-02 -0.12722899D-02  0.94643808D-19
 -0.53286372D-03  0.98148776D-19  0.51931326D-03  0.34319326D-18 -0.22508609D-03
 -0.96134375D-03 -0.11438837D-17  0.88017540D-03 -0.59659602D-03  0.11430387D-18
 -0.20491712D-03 -0.10755249D-17  0.11442591D-04  0.21321583D-04  0.36060142D-04
  0.54304576D-04  0.67232588D-04  0.57211898D-04  0.21770183D-04 -0.10195905D-06
  0.27954233D-03  0.52414449D-03  0.89172573D-03  0.13847559D-02  0.18376516D-02
  0.19366326D-02  0.12008357D-02 -0.79879639D-03 -0.61427213D-03 -0.18574083D-02
 -0.15567692D-03  0.11096118D-02  0.10657689D-02  0.74739071D-03  0.18083363D-18
  0.17368854D-18  0.12180239D-18 -0.60290523D-04 -0.57908326D-04 -0.40609315D-04
 -0.83631047D-03  0.76358196D-18  0.74491298D-03  0.82900337D-04  0.11356010D-17
  0.11038761D-03 -0.11776079D-04  0.49344272D-20 -0.54081822D-05 -0.18452427D-03
  0.24409680D-03 -0.59572528D-04 -0.29136528D-18 -0.12255427D-02 -0.32750230D-19
  0.44287176D-03 -0.93995609D-04 -0.34887615D-03 -0.13611080D-18  0.11342680D-03
 -0.28373051D-18  0.67912988D-04 -0.42798699D-04 -0.25114289D-04 -0.20971879D-18
  0.59730294D-04 -0.13723280D-18 -0.71651718D-04 -0.37637510D-19 -0.12901265D-03
 -0.45872045D-03  0.93092059D-19  0.76864540D-03  0.67367561D-03  0.19820470D-19
 -0.38160744D-03  0.46305592D-19  0.17901000D-05  0.35991059D-19  0.14022422D-04
 -0.10166643D-06 -0.16103331D-18 -0.16744943D-04 -0.52686334D-05  0.53060136D-19
 -0.25322322D-04 -0.11640834D-18
MO    4     MO 0.0        OCC NO =    2.0000000  ORB. ENERGY =   -1.279122
  0.52597938D-02  0.94862547D-02  0.13987477D-01  0.48276361D-02 -0.15911314D-02
  0.27459219D-03  0.11634579D-02 -0.20743446D-15  0.43615536D-02 -0.65185037D-03
 -0.73409142D-16 -0.16575259D-02 -0.22579902D-03  0.15149272D-16 -0.66472487D-03
  0.62258711D-03  0.46775760D-03 -0.10903447D-02 -0.12479614D-15 -0.67969620D-03
  0.60594733D-16 -0.81161570D-04  0.42348158D-03 -0.34232002D-03  0.25524970D-16
 -0.16115731D-04 -0.19548945D-16 -0.31621010D-02 -0.58921097D-02 -0.99650346D-02
 -0.15006790D-01 -0.18579379D-01 -0.15810213D-01 -0.60160779D-02  0.28175859D-04
 -0.27615471D-01 -0.51779266D-01 -0.88091938D-01 -0.13679748D+00 -0.18153821D+00
 -0.19131635D+00 -0.11862834D+00  0.78911620D-01  0.38473823D-01  0.32539500D-01
  0.10720104D-01  0.18534524D+00  0.17802189D+00  0.12484124D+00 -0.15170401D-15
 -0.14570989D-15 -0.10218183D-15  0.38634714D-01  0.37108181D-01  0.26022818D-01
  0.50320186D-01 -0.28079853D-16  0.61254313D-02  0.75741587D-02  0.62963313D-16
  0.37345728D-02  0.89125744D-03 -0.25277074D-17  0.56925809D-03  0.30521062D-01
 -0.22588690D-01 -0.79323722D-02 -0.27853623D-16  0.31681806D-01  0.82934763D-18
  0.51332144D-02 -0.38521571D-02 -0.12810573D-02 -0.15375235D-16  0.23571589D-02
 -0.47275830D-16  0.23241314D-03 -0.27595902D-05 -0.22965355D-03  0.22397111D-16
  0.41064131D-03  0.86417839D-17  0.54293503D-02  0.14177978D-16 -0.37488868D-02
 -0.11627588D-01 -0.24899980D-16  0.11956103D-01 -0.46604626D-02 -0.17633954D-16
 -0.70944245D-03 -0.23743093D-16 -0.32750694D-03 -0.99067553D-17  0.53215328D-03
  0.30632951D-03 -0.43566796D-18 -0.16616788D-02  0.67619130D-03  0.30155934D-16
  0.65218987D-04  0.22520195D-16 -0.71424785D-02 -0.13308957D-01 -0.22508783D-01
 -0.33896980D-01 -0.41966660D-01 -0.35711733D-01 -0.13588973D-01  0.63642959D-04
 -0.67928592D-01 -0.12736675D+00 -0.21668873D+00 -0.33649472D+00 -0.44654806D+00
 -0.47060036D+00 -0.29180225D+00  0.19410697D+00  0.10495468D+00 -0.90925562D-02
 -0.19423491D-01  0.12856659D+00  0.12348667D+00  0.86597379D-01 -0.44736931D-16
 -0.42969287D-16 -0.30133030D-16  0.87860850D-01  0.84389296D-01  0.59179599D-01
  0.19600526D-01 -0.25056011D-17  0.16768879D-01  0.56056842D-03 -0.17089390D-16
 -0.18614032D-02  0.60170657D-03  0.35373798D-17 -0.19896704D-03  0.58842525D-01
 -0.40487532D-01 -0.18354992D-01  0.51355055D-17  0.88352357D-01  0.74487789D-17
 -0.18965155D-02  0.11643931D-02  0.73212237D-03  0.24371653D-16 -0.25169629D-02
  0.14240344D-16 -0.24224260D-02  0.12374335D-02  0.11849925D-02  0.34536979D-16
 -0.20665635D-02  0.13240476D-16  0.31469766D-03 -0.14257465D-17 -0.29690555D-02
 -0.60163339D-02  0.41224106D-17  0.14214268D-01  0.50722410D-02  0.15482884D-18
 -0.53071017D-02 -0.16846726D-16 -0.70509729D-04 -0.49432682D-18  0.27317105D-03
  0.37154314D-03 -0.54805240D-17 -0.13274952D-02 -0.16001395D-03  0.69635045D-17
  0.50798203D-03  0.30899575D-16 -0.58455602D-02 -0.10892341D-01 -0.18421679D-01
 -0.27742028D-01 -0.34346430D-01 -0.29227262D-01 -0.11121512D-01  0.52086787D-04
 -0.42642225D-01 -0.79954571D-01 -0.13602651D+00 -0.21123481D+00 -0.28032088D+00
 -0.29541973D+00 -0.18317908D+00  0.12185079D+00  0.64227464D-01  0.34315514D-01
  0.59670595D-02 -0.30754980D+00 -0.29539791D+00 -0.20715340D+00 -0.29851108D-16
 -0.28671632D-16 -0.20106528D-16 -0.15423657D+00 -0.14814238D+00 -0.10388767D+00
 -0.70264219D-01 -0.22949678D-16 -0.35277424D-01 -0.38757329D-02 -0.41870647D-16
 -0.36646686D-02 -0.47385541D-03 -0.35490491D-17 -0.92925623D-04  0.42681467D-01
 -0.32254359D-01 -0.10427108D-01  0.37926469D-17  0.73776981D-01 -0.15054761D-16
  0.37124950D-02 -0.31703165D-02 -0.54217853D-03  0.35193661D-16  0.73999500D-02
 -0.43784338D-17 -0.33118386D-03  0.22041827D-03  0.11076559D-03  0.10277003D-16
 -0.35192002D-03  0.41517593D-17 -0.37380375D-02  0.75613479D-17  0.40818428D-02
  0.13942184D-01 -0.27148328D-16 -0.20149660D-01 -0.27280718D-02  0.44642841D-17
  0.79041319D-02 -0.96967031D-17  0.29013150D-03  0.13693440D-17 -0.26500124D-03
 -0.83183254D-03 -0.11076567D-16  0.12880776D-02 -0.38561966D-04  0.69685348D-17
 -0.49307391D-03  0.34773668D-17
MO    5     MO 0.0        OCC NO =    2.0000000  ORB. ENERGY =   -1.092871
  0.14141286D-01  0.25504392D-01  0.37606211D-01  0.12939818D-01 -0.10188334D-02
 -0.10853937D-03  0.33869822D-02 -0.26813287D-15  0.12724081D-01  0.35690489D-02
  0.12117252D-15 -0.10116015D-02  0.17152994D-03 -0.71660189D-17 -0.77149232D-03
  0.69957864D-03 -0.20318552D-03 -0.49639313D-03  0.13646544D-15  0.43921159D-02
  0.10497572D-15  0.43945990D-03  0.27978772D-03 -0.71924762D-03 -0.22250398D-16
  0.67662078D-03  0.27623356D-16 -0.57913210D-02 -0.10791274D-01 -0.18250750D-01
 -0.27484618D-01 -0.34027740D-01 -0.28956071D-01 -0.11018319D-01  0.51603489D-04
 -0.54380066D-01 -0.10196313D+00 -0.17346963D+00 -0.26938001D+00 -0.35748295D+00
 -0.37673795D+00 -0.23360156D+00  0.15539185D+00  0.80384486D-01  0.38926390D-01
 -0.57968306D-03  0.27353362D+00  0.26272577D+00  0.18424145D+00  0.95652623D-16
  0.91873201D-16  0.64427830D-16 -0.13824197D-02 -0.13277976D-02 -0.93114332D-03
  0.63198279D-01 -0.25936496D-16 -0.87612230D-02  0.47265731D-02 -0.31244066D-16
  0.56438632D-05 -0.30540129D-03  0.20584150D-17 -0.11438774D-03  0.33444647D-01
 -0.31066554D-01 -0.23780922D-02 -0.55176710D-16  0.29639015D-01 -0.30369865D-16
  0.47643752D-02 -0.45361765D-02 -0.22819870D-03 -0.19044237D-16  0.36777813D-02
  0.39471817D-16  0.54521724D-04  0.22035428D-03 -0.27487601D-03 -0.99128843D-17
 -0.19271998D-03 -0.59336850D-17  0.73804426D-02 -0.94984962D-17 -0.61163425D-02
 -0.16581026D-01 -0.12703391D-16  0.19196927D-01 -0.55603022D-02  0.41198879D-16
 -0.84789944D-03  0.17427555D-16  0.23445189D-03  0.53038569D-17  0.32303142D-03
  0.28028120D-03 -0.54680147D-17 -0.85905457D-03 -0.98363687D-03 -0.10443556D-16
 -0.11003968D-03 -0.12144478D-16 -0.30372326D-04 -0.56594357D-04 -0.95715245D-04
 -0.14414186D-03 -0.17845697D-03 -0.15185883D-03 -0.57785085D-04  0.27063220D-06
 -0.64228992D-02 -0.12042996D-01 -0.20488720D-01 -0.31816818D-01 -0.42222768D-01
 -0.44497002D-01 -0.27590980D-01  0.18353530D-01  0.89427349D-02  0.10816411D-01
  0.44813628D-02 -0.67581612D+00 -0.64911330D+00 -0.45520305D+00 -0.38201875D-16
 -0.36692444D-16 -0.25731274D-16 -0.30742556D+00 -0.29527858D+00 -0.20706972D+00
 -0.14592499D+00 -0.18403319D-18 -0.64693665D-01  0.69158297D-02  0.49922334D-17
  0.41982617D-02  0.45393123D-03 -0.13318953D-17  0.25659727D-03  0.52331420D-02
 -0.73596113D-04 -0.51595459D-02  0.45135344D-16 -0.84854551D-02  0.35356632D-16
  0.18588895D-02 -0.12932561D-02 -0.56563343D-03 -0.30368232D-16  0.16693983D-02
 -0.87144711D-17  0.39164572D-03 -0.31995713D-03 -0.71688594D-04 -0.18680890D-16
  0.90472817D-03 -0.39141874D-17 -0.13313996D-01  0.53801279D-17  0.95655042D-02
  0.33641145D-01 -0.20397586D-16 -0.43204353D-01  0.63008423D-02  0.42572026D-17
  0.14507841D-01  0.54853264D-17  0.76216764D-03  0.35936751D-18 -0.73430640D-03
 -0.23496120D-02 -0.12087721D-17  0.33358700D-02  0.63109044D-04  0.13066955D-18
 -0.11329508D-02 -0.94650258D-17  0.49242807D-02  0.91756720D-02  0.15518362D-01
  0.23369793D-01  0.28933319D-01  0.24620949D-01  0.93687253D-02 -0.43877738D-04
  0.40434519D-01  0.75815101D-01  0.12898404D+00  0.20029860D+00  0.26580789D+00
  0.28012503D+00  0.17369539D+00 -0.11554224D+00 -0.62016374D-01 -0.35384070D-01
 -0.28969082D-02  0.23823761D+00  0.22882437D+00  0.16046744D+00 -0.39382788D-17
 -0.37826697D-17 -0.26526691D-17  0.12728226D+00  0.12225309D+00  0.85732307D-01
  0.49517209D-01  0.14253744D-16  0.25968050D-01  0.50281266D-02  0.23008720D-16
  0.23189981D-02  0.82305513D-05  0.41782954D-18 -0.84345009D-05 -0.29573619D-01
  0.22570341D-01  0.70032773D-02 -0.42378254D-17 -0.51950833D-01  0.28554816D-16
 -0.26955520D-02  0.20593176D-02  0.63623446D-03 -0.13106353D-16 -0.36713383D-02
 -0.84762777D-17  0.17678156D-03 -0.16761432D-03 -0.91672426D-05 -0.33015438D-17
  0.34674601D-03 -0.13746191D-17  0.46792401D-02  0.44521931D-17 -0.40735149D-02
 -0.12918263D-01  0.61810614D-17  0.18306534D-01 -0.11194571D-02 -0.19537641D-16
 -0.60859896D-02  0.13252097D-16 -0.41313166D-04 -0.12317739D-17  0.11925956D-03
  0.23266176D-03 -0.23575382D-17 -0.47967554D-03 -0.10872226D-03  0.60528598D-17
  0.12189685D-03  0.36561297D-17
MO    6     MO 0.0        OCC NO =    2.0000000  ORB. ENERGY =   -0.709037
 -0.40066254D-01 -0.72261138D-01 -0.10654901D+00 -0.62799781D-01 -0.42898910D-04
  0.11747523D-03  0.33198624D-02  0.61395607D-16 -0.34869284D-01  0.23159888D-02
 -0.62588305D-16 -0.86633939D-02  0.28679442D-03  0.97084846D-17  0.12046271D-02
  0.53179262D-02  0.47959191D-02 -0.10113845D-01 -0.13297735D-15  0.37057114D-02
 -0.17226348D-15 -0.75367239D-04 -0.19335816D-03  0.26872540D-03  0.21621315D-17
  0.61649691D-03  0.52699594D-16  0.13253324D-02  0.24695618D-02  0.41766482D-02
  0.62898007D-02  0.77871813D-02  0.66265399D-02  0.25215207D-02 -0.11809357D-04
  0.30873151D-01  0.57887447D-01  0.98483771D-01  0.15293490D+00  0.20295350D+00
  0.21388513D+00  0.13262243D+00 -0.88220490D-01 -0.46517060D-01 -0.37049044D-01
 -0.59507827D-02  0.39083620D+00  0.37539350D+00  0.26325183D+00  0.55636935D-15
  0.53438611D-15  0.37474843D-15  0.64348541D+00  0.61806005D+00  0.43342637D+00
  0.76556253D-01  0.13824628D-15  0.14351287D+00  0.74565655D-02  0.14288577D-16
  0.13525189D-01 -0.25625496D-03  0.79578003D-18  0.72944379D-04  0.46669537D-01
 -0.96318623D-03 -0.45706350D-01  0.85934679D-17  0.56548755D-01 -0.99705380D-16
  0.30296122D-02  0.36956183D-03 -0.33991741D-02  0.53375486D-17  0.11594000D-01
 -0.34448352D-16  0.47762621D-03 -0.13615009D-03 -0.34147612D-03 -0.22926727D-18
  0.27488636D-03  0.16429938D-17  0.33999686D-03  0.67705139D-17 -0.15784867D-02
 -0.95313129D-02 -0.25142837D-17  0.16863444D-01  0.85113223D-02 -0.17797258D-16
 -0.12127984D-01 -0.26135182D-16  0.13717231D-04 -0.13850815D-17 -0.22382884D-03
  0.28200841D-03 -0.36587377D-17  0.76464189D-03 -0.32316010D-03  0.78139820D-17
 -0.93155359D-04 -0.65809548D-17  0.27239945D-03  0.50757626D-03  0.85843871D-03
  0.12927611D-02  0.16005221D-02  0.13619721D-02  0.51825551D-03 -0.24272117D-05
 -0.29814247D-01 -0.55901991D-01 -0.95105920D-01 -0.14768945D+00 -0.19599249D+00
 -0.20654918D+00 -0.12807367D+00  0.85194655D-01  0.44735527D-01  0.35222216D-01
  0.52591309D-02 -0.45153318D+00 -0.43369222D+00 -0.30413492D+00  0.39045841D-15
  0.37503064D-15  0.26299737D-15  0.12945097D+00  0.12433611D+00  0.87193063D-01
 -0.11415372D+00  0.11113909D-15  0.33515423D-01 -0.34747488D-02  0.18748581D-16
  0.67737651D-02 -0.39731160D-03  0.11992913D-17 -0.17622285D-03  0.14584251D-01
 -0.56520668D-02 -0.89321844D-02  0.30183349D-16 -0.69531257D-02  0.88363652D-17
  0.18875283D-02 -0.13784502D-02 -0.50907811D-03 -0.16594324D-16  0.29538663D-04
  0.28088683D-17  0.11709737D-02 -0.47443115D-03 -0.69654250D-03  0.45984471D-17