 Molden2AIM, Version 4.0.0 (06/02/2016)           Time: Thu Jun 28 02:56:54 2018
GAUSSIAN             13 MOL ORBITALS    233 PRIMITIVES        3 NUCLEI
  O    1    (CENTRE  1)  -0.00484904  0.00000000  0.00117919  CHARGE =  8.0
  H    2    (CENTRE  2)  -0.01131946  0.00000000  1.83057203  CHARGE =  1.0
  Cl   3    (CENTRE  3)   3.13997082  0.00000000 -0.71154425  CHARGE = 17.0
CENTRE ASSIGNMENTS    1  1  1  1  1  1  1  1  1  1  1  1  1  1  1  1  1  1  1  1
CENTRE ASSIGNMENTS    1  1  1  1  1  1  1  1  1  1  1  1  1  1  1  1  1  1  1  1
CENTRE ASSIGNMENTS    1  1  1  1  1  1  1  1  1  1  1  1  1  1  1  1  1  1  1  1
CENTRE ASSIGNMENTS    1  1  1  1  1  1  1  1  1  1  1  1  1  1  1  2  2  2  2  2
CENTRE ASSIGNMENTS    2  2  2  2  2  2  2  2  2  2  2  2  2  2  2  2  2  2  2  2
CENTRE ASSIGNMENTS    2  2  3  3  3  3  3  3  3  3  3  3  3  3  3  3  3  3  3  3
CENTRE ASSIGNMENTS    3  3  3  3  3  3  3  3  3  3  3  3  3  3  3  3  3  3  3  3
CENTRE ASSIGNMENTS    3  3  3  3  3  3  3  3  3  3  3  3  3  3  3  3  3  3  3  3
CENTRE ASSIGNMENTS    3  3  3  3  3  3  3  3  3  3  3  3  3  3  3  3  3  3  3  3
CENTRE ASSIGNMENTS    3  3  3  3  3  3  3  3  3  3  3  3  3  3  3  3  3  3  3  3
CENTRE ASSIGNMENTS    3  3  3  3  3  3  3  3  3  3  3  3  3  3  3  3  3  3  3  3
CENTRE ASSIGNMENTS    3  3  3  3  3  3  3  3  3  3  3  3  3
TYPE ASSIGNMENTS      1  1  1  1  1  1  1  1  1  1  1  1  1  1  1  1  1  1  1  2
TYPE ASSIGNMENTS      2  2  3  3  3  4  4  4  2  3  4  2  3  4  2  3  4  5  6  7
TYPE ASSIGNMENTS      8  9 10  5  6  7  8  9 10  5  6  7  8  9 10 11 12 13 17 14
TYPE ASSIGNMENTS     15 18 19 16 20 11 12 13 17 14 15 18 19 16 20  1  1  1  1  1
TYPE ASSIGNMENTS      1  2  3  4  2  3  4  2  3  4  5  6  7  8  9 10  5  6  7  8
TYPE ASSIGNMENTS      9 10  1  1  1  1  1  1  1  1  1  1  1  1  1  1  1  1  1  1
TYPE ASSIGNMENTS      1  1  1  1  1  1  1  1  1  1  1  1  1  1  1  1  1  1  1  1
TYPE ASSIGNMENTS      1  1  1  1  2  2  2  2  2  2  2  3  3  3  3  3  3  3  4  4
TYPE ASSIGNMENTS      4  4  4  4  4  2  2  2  2  2  2  2  3  3  3  3  3  3  3  4
TYPE ASSIGNMENTS      4  4  4  4  4  4  2  3  4  2  3  4  2  3  4  5  6  7  8  9
TYPE ASSIGNMENTS     10  5  6  7  8  9 10  5  6  7  8  9 10 11 12 13 17 14 15 18
TYPE ASSIGNMENTS     19 16 20 11 12 13 17 14 15 18 19 16 20
EXPONENTS  0.1533000D+05 0.2299000D+04 0.5224000D+03 0.1473000D+03 0.4755000D+02
EXPONENTS  0.1676000D+02 0.6207000D+01 0.6882000D+00 0.1533000D+05 0.2299000D+04
EXPONENTS  0.5224000D+03 0.1473000D+03 0.4755000D+02 0.1676000D+02 0.6207000D+01
EXPONENTS  0.6882000D+00 0.1752000D+01 0.2384000D+00 0.7376000D-01 0.3446000D+02
EXPONENTS  0.7749000D+01 0.2280000D+01 0.3446000D+02 0.7749000D+01 0.2280000D+01
EXPONENTS  0.3446000D+02 0.7749000D+01 0.2280000D+01 0.7156000D+00 0.7156000D+00
EXPONENTS  0.7156000D+00 0.2140000D+00 0.2140000D+00 0.2140000D+00 0.5974000D-01
EXPONENTS  0.5974000D-01 0.5974000D-01 0.2314000D+01 0.2314000D+01 0.2314000D+01
EXPONENTS  0.2314000D+01 0.2314000D+01 0.2314000D+01 0.6450000D+00 0.6450000D+00
EXPONENTS  0.6450000D+00 0.6450000D+00 0.6450000D+00 0.6450000D+00 0.2140000D+00
EXPONENTS  0.2140000D+00 0.2140000D+00 0.2140000D+00 0.2140000D+00 0.2140000D+00
EXPONENTS  0.1428000D+01 0.1428000D+01 0.1428000D+01 0.1428000D+01 0.1428000D+01
EXPONENTS  0.1428000D+01 0.1428000D+01 0.1428000D+01 0.1428000D+01 0.1428000D+01
EXPONENTS  0.5000000D+00 0.5000000D+00 0.5000000D+00 0.5000000D+00 0.5000000D+00
EXPONENTS  0.5000000D+00 0.5000000D+00 0.5000000D+00 0.5000000D+00 0.5000000D+00
EXPONENTS  0.3387000D+02 0.5095000D+01 0.1159000D+01 0.3258000D+00 0.1027000D+00
EXPONENTS  0.2526000D-01 0.1407000D+01 0.1407000D+01 0.1407000D+01 0.3880000D+00
EXPONENTS  0.3880000D+00 0.3880000D+00 0.1020000D+00 0.1020000D+00 0.1020000D+00
EXPONENTS  0.1057000D+01 0.1057000D+01 0.1057000D+01 0.1057000D+01 0.1057000D+01
EXPONENTS  0.1057000D+01 0.2470000D+00 0.2470000D+00 0.2470000D+00 0.2470000D+00
EXPONENTS  0.2470000D+00 0.2470000D+00 0.4561000D+06 0.6833000D+05 0.1555000D+05
EXPONENTS  0.4405000D+04 0.1439000D+04 0.5204000D+03 0.2031000D+03 0.8396000D+02
EXPONENTS  0.3620000D+02 0.1583000D+02 0.6334000D+01 0.2694000D+01 0.4313000D+00
EXPONENTS  0.4561000D+06 0.6833000D+05 0.1555000D+05 0.4405000D+04 0.1439000D+04
EXPONENTS  0.5204000D+03 0.2031000D+03 0.8396000D+02 0.3620000D+02 0.1583000D+02
EXPONENTS  0.6334000D+01 0.2694000D+01 0.4313000D+00 0.4561000D+06 0.6833000D+05
EXPONENTS  0.1555000D+05 0.4405000D+04 0.1439000D+04 0.5204000D+03 0.2031000D+03
EXPONENTS  0.8396000D+02 0.3620000D+02 0.1583000D+02 0.6334000D+01 0.2694000D+01
EXPONENTS  0.4313000D+00 0.9768000D+00 0.1625000D+00 0.5910000D-01 0.6633000D+03
EXPONENTS  0.1568000D+03 0.4998000D+02 0.1842000D+02 0.7240000D+01 0.2922000D+01
EXPONENTS  0.3818000D+00 0.6633000D+03 0.1568000D+03 0.4998000D+02 0.1842000D+02
EXPONENTS  0.7240000D+01 0.2922000D+01 0.3818000D+00 0.6633000D+03 0.1568000D+03
EXPONENTS  0.4998000D+02 0.1842000D+02 0.7240000D+01 0.2922000D+01 0.3818000D+00
EXPONENTS  0.6633000D+03 0.1568000D+03 0.4998000D+02 0.1842000D+02 0.7240000D+01
EXPONENTS  0.2922000D+01 0.3818000D+00 0.6633000D+03 0.1568000D+03 0.4998000D+02
EXPONENTS  0.1842000D+02 0.7240000D+01 0.2922000D+01 0.3818000D+00 0.6633000D+03
EXPONENTS  0.1568000D+03 0.4998000D+02 0.1842000D+02 0.7240000D+01 0.2922000D+01
EXPONENTS  0.3818000D+00 0.1022000D+01 0.1022000D+01 0.1022000D+01 0.1301000D+00
EXPONENTS  0.1301000D+00 0.1301000D+00 0.4190000D-01 0.4190000D-01 0.4190000D-01
EXPONENTS  0.1046000D+01 0.1046000D+01 0.1046000D+01 0.1046000D+01 0.1046000D+01
EXPONENTS  0.1046000D+01 0.3440000D+00 0.3440000D+00 0.3440000D+00 0.3440000D+00
EXPONENTS  0.3440000D+00 0.3440000D+00 0.1350000D+00 0.1350000D+00 0.1350000D+00
EXPONENTS  0.1350000D+00 0.1350000D+00 0.1350000D+00 0.7060000D+00 0.7060000D+00
EXPONENTS  0.7060000D+00 0.7060000D+00 0.7060000D+00 0.7060000D+00 0.7060000D+00
EXPONENTS  0.7060000D+00 0.7060000D+00 0.7060000D+00 0.3120000D+00 0.3120000D+00
EXPONENTS  0.3120000D+00 0.3120000D+00 0.3120000D+00 0.3120000D+00 0.3120000D+00
EXPONENTS  0.3120000D+00 0.3120000D+00 0.3120000D+00
MO    1     MO 0.0        OCC NO =    2.0000000  ORB. ENERGY = -102.727124
  0.34655904D-04  0.64594146D-04  0.10953027D-03  0.16577917D-03  0.20684400D-03
  0.17765141D-03  0.68203829D-04 -0.30507991D-06 -0.24743978D-04 -0.46407943D-04
 -0.79115369D-04 -0.12364192D-03 -0.16533281D-03 -0.17653689D-03 -0.10793120D-03
  0.71206448D-04  0.45751024D-05  0.20213483D-03  0.23348062D-04  0.87198343D-04
  0.84553061D-04  0.57038995D-04 -0.17695212D-18 -0.17158403D-18 -0.11574957D-18
 -0.22826613D-04 -0.22134137D-04 -0.14931558D-04  0.86738701D-04  0.57397089D-19
 -0.38639308D-04  0.17193427D-05 -0.13717633D-19  0.51584671D-04 -0.21518784D-05
 -0.69022224D-21  0.53174899D-05  0.33569511D-03 -0.19583167D-03 -0.13986344D-03
  0.86911760D-19 -0.26565643D-03 -0.18107528D-19 -0.99287692D-04  0.58062790D-04
  0.41224902D-04  0.96420216D-22  0.98954690D-04  0.26190170D-21 -0.64798894D-04
  0.28054893D-04  0.36744002D-04 -0.16047482D-19  0.58766094D-04  0.34915872D-20
  0.16067747D-03 -0.43531579D-19  0.36559336D-04 -0.29457602D-03  0.15729307D-18
 -0.77477251D-04 -0.18745640D-03 -0.26698330D-19 -0.32200756D-04 -0.43241086D-19
 -0.10425751D-03  0.11221723D-19 -0.21966849D-04  0.15730516D-03 -0.43338580D-19
  0.88357481D-04  0.15546737D-03  0.96734107D-20 -0.22456935D-04  0.14952997D-19
 -0.26192673D-05 -0.47239565D-05 -0.69654711D-05 -0.99493421D-04  0.13788881D-03
 -0.36485926D-06 -0.17691431D-03 -0.10555323D-19  0.55894135D-04  0.19327597D-04
  0.23369344D-20 -0.42597050D-04  0.38973514D-04  0.57405732D-21 -0.35058511D-04
 -0.15322125D-04 -0.11182926D-05  0.16440417D-04 -0.76442679D-20  0.55369901D-04
 -0.62055513D-20  0.35670338D-04 -0.28079158D-04 -0.75911797D-05  0.59420656D-20
 -0.15151548D-04 -0.72713193D-21  0.61714706D+00  0.11546845D+01  0.19950390D+01
  0.32341910D+01  0.49113770D+01  0.68262365D+01  0.81154104D+01  0.72285834D+01
  0.35884852D+01  0.57816246D+00  0.88763339D-02  0.15861921D-02  0.59273526D-04
 -0.87595820D-03 -0.16361641D-02 -0.28396422D-02 -0.46075853D-02 -0.71319948D-02
 -0.10208803D-01 -0.13325676D-01 -0.14200732D-01 -0.10615335D-01 -0.56036469D-03
  0.72004081D-02  0.42778697D-02 -0.16038804D-04  0.33332063D-03  0.62209492D-03
  0.10811462D-02  0.17522200D-02  0.27214720D-02  0.38985871D-02  0.51477210D-02
  0.55662134D-02  0.43639835D-02  0.21715037D-03 -0.37410372D-02 -0.38726670D-02
  0.17524366D-02 -0.26236322D-02 -0.47966012D-03 -0.49091224D-04 -0.66159845D-02
 -0.87147364D-02 -0.96143958D-02 -0.79858608D-02 -0.42414847D-02 -0.10940026D-02
  0.11245975D-05 -0.18174530D-17 -0.23939935D-17 -0.26411357D-17 -0.21937668D-17
 -0.11651628D-17 -0.30052948D-18  0.30893409D-21  0.22240485D-02  0.29295711D-02
  0.32320032D-02  0.26845501D-02  0.14258298D-02  0.36776310D-03 -0.37804796D-06
  0.53359810D-02  0.70057518D-02  0.79765639D-02  0.67542267D-02  0.38690811D-02
  0.88008171D-03 -0.41192668D-03 -0.14493940D-17 -0.19029480D-17 -0.21666463D-17
 -0.18346271D-17 -0.10509450D-17 -0.23905354D-18  0.11189021D-18 -0.18097815D-02
 -0.23761104D-02 -0.27053765D-02 -0.22908017D-02 -0.13122594D-02 -0.29849349D-03
  0.13971138D-03  0.29232359D-03  0.26997237D-18 -0.10641869D-03  0.19304811D-03
 -0.25483227D-20 -0.10110419D-03  0.23061226D-05  0.10192586D-20 -0.26077532D-05
  0.17889158D-03 -0.11151817D-03 -0.67373403D-04 -0.29733181D-19 -0.16940048D-03
 -0.16657676D-19  0.23624539D-04 -0.86865477D-05 -0.14937991D-04 -0.25800675D-19
 -0.11012778D-04  0.88670207D-20 -0.33984420D-04  0.25767051D-04  0.82173684D-05
 -0.22340185D-20  0.53057798D-04 -0.30189684D-21 -0.10395439D-03 -0.19030064D-20
 -0.45672319D-04  0.23437729D-03  0.48792948D-20  0.22853432D-03  0.77485881D-04
  0.82972432D-21 -0.91517363D-04 -0.17225477D-19  0.27596637D-04 -0.21233820D-20
  0.12566672D-04 -0.73050964D-04  0.93933081D-20 -0.70022126D-04 -0.97389482D-05
 -0.30231622D-20  0.32322109D-04 -0.28208552D-20
MO    2     MO 0.0        OCC NO =    2.0000000  ORB. ENERGY =  -19.703757
  0.49835689D+00  0.92887313D+00  0.15750611D+01  0.23839283D+01  0.29744464D+01
  0.25546528D+01  0.98078088D+00 -0.43870931D-02 -0.18730404D-03 -0.35129337D-03
 -0.59887819D-03 -0.93593004D-03 -0.12515168D-02 -0.13363282D-02 -0.81700483D-03
  0.53901017D-03  0.49873968D-01 -0.17996692D-03 -0.31233643D-03  0.71598130D-02
  0.69426102D-02  0.46834438D-02  0.24804891D-16  0.24052400D-16  0.16225607D-16
  0.49357556D-02  0.47860226D-02  0.32286226D-02 -0.87487855D-03 -0.25430269D-17
  0.79998107D-03 -0.76692406D-03  0.57102159D-19  0.10976207D-03 -0.42081168D-04
 -0.63698698D-20  0.10272643D-04  0.99951570D-03 -0.26881691D-02  0.16886534D-02
  0.49938392D-17 -0.21106414D-02  0.60115093D-18 -0.72435190D-03  0.44822688D-03
  0.27612503D-03 -0.73686569D-18  0.63738440D-03 -0.73003081D-18 -0.82580199D-04
  0.97280663D-04 -0.14700464D-04  0.10688607D-18  0.76068814D-04 -0.12993554D-18
  0.68878707D-04  0.10434694D-19  0.90401688D-03 -0.19616876D-03 -0.15358783D-18
 -0.14532889D-02 -0.10467356D-04  0.12228374D-18 -0.12587618D-02  0.16552417D-17
 -0.14985598D-03  0.36420234D-19 -0.24170988D-03  0.25292862D-03  0.18559705D-18
  0.52093602D-03  0.19663932D-03 -0.29485775D-18  0.20419361D-03 -0.15476627D-18
  0.19486464D-03  0.35144640D-03  0.51820752D-03 -0.25187622D-03 -0.32822636D-03
 -0.11412297D-04 -0.27006046D-04  0.25299455D-18  0.44778164D-03 -0.61498316D-04
  0.57940692D-18  0.69750129D-03 -0.37141380D-04  0.30650268D-19  0.10115094D-03
  0.99486107D-03  0.91288601D-03 -0.19077471D-02  0.50535800D-19  0.10093616D-03
 -0.12990361D-17 -0.32138904D-05  0.42107679D-04 -0.38893789D-04 -0.80141532D-20
  0.24035977D-04 -0.14055171D-18  0.12165996D-04  0.22762625D-04  0.39328774D-04
  0.63756530D-04  0.96819376D-04  0.13456755D-03  0.15998140D-03  0.14249913D-03
  0.70740834D-04  0.11397482D-04  0.17498170D-06  0.31269058D-07  0.11684759D-08
 -0.19697439D-05 -0.36791987D-05 -0.63854278D-05 -0.10360954D-04 -0.16037527D-04
 -0.22956262D-04 -0.29965093D-04 -0.31932807D-04 -0.23870421D-04 -0.12600771D-05
  0.16191366D-04  0.96195315D-05 -0.36066031D-07 -0.11830442D-04 -0.22079815D-04
 -0.38372775D-04 -0.62190980D-04 -0.96592329D-04 -0.13837130D-03 -0.18270641D-03
 -0.19755982D-03 -0.15488946D-03 -0.77072484D-05  0.13277943D-03  0.13745133D-03
 -0.62198669D-04 -0.52422771D-03  0.95141777D-03  0.26277470D-03 -0.16620824D-01
 -0.21893355D-01 -0.24153500D-01 -0.20062258D-01 -0.10655553D-01 -0.27483778D-02
  0.28252390D-05  0.52340854D-18  0.68944652D-18  0.76062102D-18  0.63178319D-18
  0.33555540D-18  0.86549526D-19 -0.88969970D-22  0.28172514D-02  0.37109524D-02
  0.40940498D-02  0.34005790D-02  0.18061301D-02  0.46585364D-03 -0.47888170D-06
  0.14758278D-01  0.19376537D-01  0.22061612D-01  0.18680867D-01  0.10701120D-01
  0.24341335D-02 -0.11393085D-02 -0.20534772D-18 -0.26960650D-18 -0.30696684D-18
 -0.25992691D-18 -0.14889614D-18 -0.33868707D-19  0.15852419D-19 -0.24726574D-02
 -0.32464179D-02 -0.36962856D-02 -0.31298628D-02 -0.17929059D-02 -0.40782390D-03
  0.19088403D-03  0.12481823D-02 -0.52897690D-19 -0.24297958D-03 -0.38775888D-03
 -0.62706270D-19  0.14200725D-03 -0.12802184D-04  0.12336352D-20  0.46813290D-05
 -0.91856996D-04  0.79250067D-04  0.12606929D-04  0.54411486D-19  0.16060609D-03
 -0.25121401D-19  0.47575963D-03 -0.26307726D-03 -0.21268238D-03 -0.59720236D-21
 -0.31683200D-03  0.15044297D-19  0.31035976D-04 -0.23889030D-04 -0.71469465D-05
  0.40364791D-19 -0.47860802D-04 -0.67149693D-20 -0.30104898D-03 -0.43741769D-19
 -0.78882932D-04  0.44296885D-03  0.17062333D-18  0.30288254D-03  0.46017810D-03
 -0.39398028D-19 -0.66233741D-04 -0.49271222D-19 -0.41986178D-04  0.98417484D-20
 -0.17428493D-04  0.97071994D-04 -0.42950872D-19  0.89453806D-04  0.28886539D-04
  0.13425627D-19 -0.37168326D-04  0.21322569D-21
MO    3     MO 0.0        OCC NO =    2.0000000  ORB. ENERGY =   -9.859786
 -0.10601408D-03 -0.19759661D-03 -0.33505838D-03 -0.50712646D-03 -0.63274576D-03
 -0.54344422D-03 -0.20863880D-03  0.93325417D-06  0.66206219D-04  0.12417141D-03
  0.21168502D-03  0.33082249D-03  0.44237270D-03  0.47235091D-03  0.28878609D-03
 -0.19052352D-03 -0.16199743D-03 -0.62165028D-03  0.33585769D-04 -0.23371942D-03
 -0.22662921D-03 -0.15288273D-03  0.10023150D-15  0.97190844D-16  0.65564369D-16
 -0.79814451D-05 -0.77393169D-05 -0.52208975D-05  0.99588804D-04  0.19392088D-16
  0.13674852D-03  0.25086230D-03 -0.82100970D-17 -0.24728976D-03  0.35080231D-04
  0.18776665D-18 -0.36847428D-04 -0.58938994D-03  0.39304773D-03  0.19634221D-03
  0.66167288D-17  0.29189280D-03  0.15937976D-17  0.46644243D-03 -0.31240739D-03
 -0.15403503D-03 -0.90166062D-18 -0.24478607D-03 -0.23807770D-17  0.32165837D-03
 -0.14164222D-03 -0.18001615D-03 -0.84150877D-19 -0.22505256D-03 -0.10068584D-17
 -0.44271788D-03 -0.10294231D-17 -0.38768974D-05  0.84485063D-03  0.15464429D-17
 -0.93499760D-04  0.48330302D-03  0.15418263D-17  0.10513045D-03 -0.17201506D-17
  0.35860758D-03  0.69597258D-18  0.73859407D-04 -0.62999578D-03 -0.43896872D-18
 -0.28602897D-03 -0.44582697D-03 -0.16489490D-17  0.64450747D-04  0.10360557D-17
 -0.99261540D-06 -0.17902228D-05 -0.26396824D-05  0.41197674D-03 -0.62518367D-03
  0.16351585D-04  0.52931660D-03 -0.64672251D-18 -0.90942583D-04 -0.28578273D-03
  0.35508585D-17  0.20173155D-03 -0.20032840D-03  0.68313657D-18  0.16358880D-03
  0.71932768D-04  0.71524975D-05 -0.79085265D-04 -0.10217499D-17  0.76321343D-04
 -0.42054338D-17 -0.16852743D-03  0.13100657D-03  0.37520852D-04  0.35038081D-18
  0.99020229D-04 -0.14247073D-17 -0.37315777D-02 -0.69817962D-02 -0.12062997D-01
 -0.19555525D-01 -0.29696625D-01 -0.41274817D-01 -0.49069803D-01 -0.43707606D-01
 -0.21697765D-01 -0.34958575D-02 -0.53670725D-04 -0.95909058D-05 -0.35839719D-06
 -0.16736858D+00 -0.31262048D+00 -0.54256801D+00 -0.88036739D+00 -0.13627042D+01
 -0.19505872D+01 -0.25461256D+01 -0.27133217D+01 -0.20282630D+01 -0.10706840D+00
  0.13757758D+01  0.81736891D+00 -0.30645206D-02 -0.18163576D-02 -0.33899698D-02
 -0.58914691D-02 -0.95483383D-02 -0.14830064D-01 -0.21244495D-01 -0.28051376D-01
 -0.30331859D-01 -0.23780570D-01 -0.11833133D-02  0.20385961D-01  0.21103249D-01
 -0.95495188D-02  0.74319460D-01  0.25919231D-02  0.34359996D-04 -0.46936422D-01
 -0.61825801D-01 -0.68208342D-01 -0.56654869D-01 -0.30090777D-01 -0.77612891D-02
  0.79783414D-05 -0.17315320D-15 -0.22808162D-15 -0.25162746D-15 -0.20900553D-15
 -0.11100791D-15 -0.28632179D-16  0.29432906D-19  0.10871293D-01  0.14319933D-01
  0.15798240D-01  0.13122255D-01  0.69695482D-02  0.17976498D-02 -0.18479229D-05
 -0.27433456D-01 -0.36018116D-01 -0.41009275D-01 -0.34724970D-01 -0.19891800D-01
 -0.45246943D-02  0.21178059D-02 -0.26810380D-16 -0.35200064D-16 -0.40077863D-16
 -0.33936288D-16 -0.19440012D-16 -0.44219284D-17  0.20697058D-17  0.94452181D-02
  0.12400879D-01  0.14119313D-01  0.11955654D-01  0.68486591D-02  0.15578323D-02
 -0.72915127D-03 -0.32243731D-02  0.23580687D-17  0.10238585D-02 -0.74360031D-03
 -0.15723782D-18  0.43860841D-03 -0.34940320D-05  0.18645163D-19  0.10734487D-04
  0.13482582D-02 -0.72292764D-03 -0.62533058D-03  0.30851176D-17 -0.91761979D-03
  0.33469176D-18 -0.37938069D-03  0.19836754D-03  0.18101315D-03 -0.31070438D-17
  0.27485682D-03  0.24033539D-18  0.14718063D-03 -0.11545237D-03 -0.31728264D-04
  0.73962666D-18 -0.24109167D-03 -0.11855727D-18  0.41757601D-03  0.60533304D-18
  0.17929054D-03 -0.97892956D-03 -0.38049924D-17 -0.93717996D-03 -0.27379846D-03
  0.19889933D-17  0.39930835D-03 -0.23578423D-17 -0.89629892D-04 -0.12486698D-18
 -0.42634279D-04  0.26926656D-03  0.90644761D-18  0.26355607D-03 -0.37688798D-06
 -0.53184667D-18 -0.13565324D-03  0.60886997D-18
MO    4     MO 0.0        OCC NO =    2.0000000  ORB. ENERGY =   -7.584326
 -0.50356779D-04 -0.93858558D-04 -0.15915301D-03 -0.24088550D-03 -0.30055477D-03
 -0.25813647D-03 -0.99103609D-04  0.44329653D-06  0.64530875D-04  0.12102926D-03
  0.20632835D-03  0.32245105D-03  0.43117849D-03  0.46039810D-03  0.28147837D-03
 -0.18570233D-03  0.62154955D-04 -0.48016539D-03  0.13585000D-03 -0.37223166D-03
 -0.36093950D-03 -0.24348765D-03  0.50358897D-15  0.48831190D-15  0.32941232D-15
  0.18843640D-03  0.18271992D-03  0.12326178D-03 -0.83811413D-03 -0.30237137D-15
  0.18445729D-03 -0.51900975D-03 -0.93452582D-17  0.17746209D-03  0.10119607D-04
  0.26473024D-18  0.90593668D-05 -0.17077634D-02  0.86318728D-03  0.84457617D-03
  0.15741693D-16  0.16738129D-02  0.37096899D-16  0.13087029D-03 -0.50844440D-04
 -0.80025846D-04  0.18527438D-17 -0.53624154D-03  0.57879867D-17 -0.43588311D-04
 -0.15066325D-05  0.45094943D-04 -0.21393399D-17 -0.14200720D-03 -0.79392811D-18
 -0.44185722D-04 -0.25866932D-17 -0.13960462D-03  0.19483974D-04  0.22133914D-17
  0.31125565D-03  0.11307319D-03  0.55466882D-17  0.10755820D-03 -0.17720136D-17
  0.26391305D-03  0.72124244D-18  0.78873883D-04 -0.20947056D-03 -0.32241795D-17
 -0.30125473D-03 -0.58226860D-03  0.10604522D-17  0.64633083D-04  0.18490972D-17
  0.28690496D-04  0.51744490D-04  0.76297221D-04 -0.22632351D-03 -0.23228936D-03
  0.10453044D-05  0.45920628D-03 -0.51145125D-17 -0.20353014D-03  0.45952295D-03
 -0.15695939D-18  0.14738944D-03  0.25559729D-04  0.13623317D-17  0.35671793D-04
 -0.19269974D-04  0.90163830D-04 -0.70893856D-04 -0.17196359D-17 -0.73169401D-03
  0.12507839D-16 -0.66623877D-05  0.42511309D-05  0.24112568D-05  0.82972240D-18
 -0.54924245D-04 -0.13010320D-17 -0.65607466D-04 -0.12275182D-03 -0.21208795D-03
 -0.34381931D-03 -0.52211705D-03 -0.72568130D-03 -0.86273037D-03 -0.76845386D-03
 -0.38148351D-03 -0.61463105D-04 -0.94362238D-06 -0.16862439D-06 -0.63012304D-08
 -0.10718260D-02 -0.20020171D-02 -0.34745978D-02 -0.56378602D-02 -0.87267380D-02
 -0.12491533D-01 -0.16305352D-01 -0.17376073D-01 -0.12988968D-01 -0.68566452D-03
  0.88104488D-02  0.52344188D-02 -0.19625146D-04 -0.16694239D-03 -0.31157392D-03
 -0.54148804D-03 -0.87759282D-03 -0.13630390D-02 -0.19525928D-02 -0.25782168D-02
 -0.27878172D-02 -0.21856848D-02 -0.10875895D-03  0.18736845D-02  0.19396108D-02
 -0.87770132D-03  0.14577904D-03  0.70123899D-03 -0.39385629D-04  0.11173783D+02
  0.14718380D+02  0.16237821D+02  0.13487377D+02  0.71634736D+01  0.18476688D+01
 -0.18993407D-02 -0.10023569D-13 -0.13203291D-13 -0.14566323D-13 -0.12099005D-13
 -0.64260756D-14 -0.16574724D-14  0.17038252D-17 -0.27556369D+01 -0.36297922D+01
 -0.40045111D+01 -0.33262068D+01 -0.17666292D+01 -0.45566521D+00  0.46840834D-03
  0.12457893D-01  0.16356301D-01  0.18622852D-01  0.15769066D-01  0.90331280D-02
  0.20547232D-02 -0.96172355D-03 -0.37814523D-16 -0.49647696D-16 -0.56527555D-16
 -0.47865212D-16 -0.27419036D-16 -0.62368794D-17  0.29192028D-17 -0.35031438D-02
 -0.45993710D-02 -0.52367223D-02 -0.44342413D-02 -0.25401042D-02 -0.57778557D-03
  0.27043544D-03  0.88420389D-01 -0.78284839D-16 -0.21866467D-01 -0.31929881D-04
  0.32938403D-18  0.36605184D-04 -0.48070513D-05  0.11546131D-18 -0.14706491D-05
 -0.21382596D-02  0.12069577D-02  0.93130189D-03  0.58676914D-17  0.17591088D-02
 -0.53901401D-18  0.31169479D-03 -0.18778739D-03 -0.12390741D-03 -0.41377106D-17
 -0.28052925D-03  0.44282661D-18  0.33540293D-04 -0.18071831D-04 -0.15468462D-04
  0.15224784D-18 -0.37664483D-04 -0.55265469D-19  0.52213004D-03  0.12523100D-17
  0.21862393D-03 -0.89598808D-03 -0.75734973D-17 -0.86497899D-03 -0.67040205D-03
  0.38165672D-17  0.20910719D-03 -0.15596117D-17 -0.10719631D-03 -0.24385815D-18
 -0.45188547D-04  0.19515059D-03  0.18385070D-17  0.18088293D-03  0.12643833D-03
 -0.11069325D-17 -0.45317287D-04  0.60034294D-18
MO    5     MO 0.0        OCC NO =    2.0000000  ORB. ENERGY =   -7.575107
 -0.57234379D-04 -0.10667752D-03 -0.18088973D-03 -0.27378503D-03 -0.34160377D-03
 -0.29339208D-03 -0.11263893D-03  0.50384083D-06  0.42115785D-04  0.78989198D-04
  0.13465927D-03  0.21044622D-03  0.28140670D-03  0.30047675D-03  0.18370559D-03
 -0.12119779D-03 -0.37589213D-04  0.41482782D-03  0.12567220D-03 -0.11228824D-04
 -0.10888183D-04 -0.73451036D-05 -0.80548445D-17 -0.78104897D-17 -0.52689102D-17
 -0.18799765D-04 -0.18229448D-04 -0.12297478D-04  0.20112772D-04 -0.63148322D-17
  0.53507952D-04 -0.99643095D-04 -0.25291240D-16  0.70015850D-03  0.16392396D-04
  0.53591822D-18  0.93665366D-05  0.11575600D-03  0.14641873D-03 -0.26217473D-03
 -0.90970853D-15  0.25648867D-03 -0.23118431D-14 -0.41406501D-04 -0.10390119D-03
  0.14530769D-03 -0.10060803D-15  0.73477395D-05 -0.12223636D-15 -0.72536959D-04
 -0.17210979D-04  0.89747939D-04 -0.78956681D-17  0.21740382D-03  0.24697894D-17
  0.11599592D-03 -0.63745826D-17 -0.41528837D-04  0.23225712D-04  0.69863685D-17
  0.52847699D-04 -0.37121348D-03  0.12137379D-16  0.71738812D-04  0.16071387D-16
  0.61241866D-05  0.86729283D-17  0.40308668D-04 -0.28515160D-05 -0.90840980D-17
  0.15017370D-04 -0.15521044D-04 -0.16934687D-16 -0.13594337D-03 -0.19910960D-17
 -0.17115345D-04 -0.30868229D-04 -0.45515186D-04 -0.92451664D-03 -0.18612433D-03
  0.27950227D-05 -0.94515988D-04  0.12233016D-16  0.19653610D-03 -0.57353727D-05
  0.32232932D-16  0.16559286D-03 -0.30324038D-04  0.14833256D-17  0.19696071D-04
 -0.18944699D-04 -0.40657763D-05  0.23010475D-04  0.56270060D-18 -0.26748172D-03
 -0.16132573D-16  0.32325638D-04 -0.50034536D-04  0.17708898D-04  0.39828682D-17
 -0.33893039D-04 -0.77403665D-17  0.64300951D-05  0.12030733D-04  0.20786441D-04
  0.33697245D-04  0.51171955D-04  0.71123000D-04  0.84554986D-04  0.75315078D-04
  0.37388660D-04  0.60239121D-05  0.92483097D-07  0.16526639D-07  0.61757470D-09
  0.22350814D-04  0.41748112D-04  0.72455873D-04  0.11756644D-03  0.18197888D-03
  0.26048624D-03  0.34001591D-03  0.36234368D-03  0.27085926D-03  0.14298179D-04
 -0.18372450D-03 -0.10915346D-03  0.40924366D-06  0.95014139D-05  0.17733020D-04
  0.30818428D-04  0.49947606D-04  0.77576452D-04  0.11113051D-03  0.14673748D-03
  0.15866674D-03  0.12439678D-03  0.61899427D-05 -0.10663949D-03 -0.11039164D-03
  0.49953781D-04 -0.21916415D-04  0.15577477D-03 -0.26350541D-04  0.27600166D+01
  0.36355613D+01  0.40108758D+01  0.33314934D+01  0.17694371D+01  0.45638944D+00
 -0.46915283D-03 -0.11923841D-11 -0.15706375D-11 -0.17327811D-11 -0.14392739D-11
 -0.76443333D-12 -0.19716965D-12  0.20268370D-15  0.11196542D+02  0.14748358D+02
  0.16270894D+02  0.13514848D+02  0.71780639D+01  0.18514321D+01 -0.19032092D-02
  0.34322200D-02  0.45062533D-02  0.51307009D-02  0.43444668D-02  0.24886779D-02
  0.56608787D-03 -0.26496028D-03 -0.71429647D-15 -0.93781890D-15 -0.10677758D-14
 -0.90414870D-15 -0.51793119D-15 -0.11781138D-15  0.55142208D-16  0.68956063D-02
  0.90534255D-02  0.10307991D-01  0.87283834D-02  0.49999541D-02  0.11373161D-02
 -0.53232652D-03  0.20651889D-01 -0.88744141D-14  0.83532559D-01 -0.21774829D-04
 -0.19334208D-16  0.13754771D-03 -0.14169734D-06  0.10682397D-17 -0.10916548D-04
 -0.74670851D-03 -0.63096290D-04  0.80980480D-03  0.30259829D-15 -0.27826718D-02
 -0.74660053D-16  0.12741904D-03  0.98864379D-05 -0.13730548D-03 -0.40434508D-16
  0.40526797D-03  0.64811513D-17  0.12528849D-04 -0.55243077D-05 -0.70045413D-05
  0.21232218D-17  0.10598553D-04  0.66492905D-18  0.20077131D-03  0.23268458D-16
 -0.14185896D-03 -0.51205028D-04 -0.79963622D-16  0.64285618D-03 -0.55110889D-03
  0.10158250D-16 -0.21727929D-03  0.45084961D-16 -0.48026660D-04 -0.38768724D-17
  0.32872300D-04  0.38812034D-05  0.14811221D-16 -0.14991888D-03  0.14019878D-03
 -0.31806039D-17  0.51301984D-04 -0.89548732D-17
MO    6     MO 0.0        OCC NO =    2.0000000  ORB. ENERGY =   -7.574868
  0.27343420D-16  0.50964618D-16  0.86419105D-16  0.13079934D-15  0.16319939D-15
  0.14016651D-15  0.53812648D-16 -0.24070728D-18 -0.23123395D-16 -0.43368500D-16
 -0.73933785D-16 -0.11554412D-15 -0.15450450D-15 -0.16497478D-15 -0.10086235D-15
  0.66542851D-16  0.11725306D-15 -0.71963499D-15 -0.21395413D-15 -0.56432841D-16
 -0.54720873D-16 -0.36914377D-16  0.55730498D-04  0.54039837D-04  0.36454955D-04
 -0.15053876D-14 -0.14597196D-14 -0.98471820D-15  0.19801158D-15  0.55481370D-04
 -0.17638212D-16 -0.41983358D-15  0.18315004D-03 -0.83104351D-16 -0.87819759D-17
  0.47075451D-05 -0.36690280D-17 -0.10289502D-15 -0.41660530D-15  0.51950032D-15
  0.10708976D-03 -0.99829946D-15 -0.10664520D-03  0.56231933D-16  0.33910509D-16
 -0.90142443D-16  0.17044595D-03  0.74412031D-15  0.36142765D-04 -0.79227271D-16
  0.26386528D-16  0.52840742D-16  0.13174157D-03 -0.86737942D-16  0.75668169D-06
  0.90869762D-15  0.37996925D-04 -0.98484165D-16 -0.10455681D-14 -0.63971015D-04
  0.92840064D-15 -0.16805248D-14 -0.50019759D-04 -0.63294815D-15 -0.16594230D-03
 -0.96082447D-16 -0.53013481D-04 -0.16596704D-16 -0.35140421D-16  0.12427593D-03
 -0.70566122D-16  0.32338776D-15  0.34764514D-04  0.12035623D-15 -0.94419847D-05
 -0.20344548D-16 -0.36692230D-16 -0.54102672D-16  0.24160986D-15  0.11560572D-15
  0.11398186D-16 -0.24674846D-15  0.48784813D-05 -0.73491933D-15 -0.19194068D-16
 -0.10380978D-03 -0.21321499D-15  0.19255853D-17 -0.97229583D-05 -0.48332431D-16
 -0.44318961D-16  0.48655713D-16 -0.43367515D-17  0.23490191D-05  0.55204896D-15
  0.10134702D-03 -0.29668251D-16 -0.21394905D-16  0.51063156D-16 -0.35266764D-04
 -0.25148684D-16  0.17477984D-04 -0.63766001D-16 -0.11930643D-15 -0.20613508D-15
 -0.33416901D-15 -0.50746230D-15 -0.70531293D-15 -0.83851532D-15 -0.74688495D-15
 -0.37077606D-15 -0.59737963D-16 -0.91713686D-18 -0.16389146D-18 -0.61243680D-20
  0.11137405D-15  0.20803074D-15  0.36104744D-15  0.58583327D-15  0.90680032D-15
  0.12980023D-14  0.16942984D-14  0.18055577D-14  0.13496910D-14  0.71247792D-16
 -0.91549876D-15 -0.54391145D-15  0.20392601D-17 -0.55656353D-16 -0.10387456D-15
 -0.18052485D-15 -0.29257767D-15 -0.45441893D-15 -0.65096824D-15 -0.85954290D-15
 -0.92942084D-15 -0.72867799D-15 -0.36258776D-16  0.62466127D-15  0.64664021D-15
 -0.29261384D-15  0.13338606D-15  0.46015782D-15  0.55507512D-16  0.29061717D-12
  0.38280803D-12  0.42232694D-12  0.35079107D-12  0.18631366D-12  0.48055727D-13
 -0.49399654D-16  0.11533246D+02  0.15191874D+02  0.16760196D+02  0.13921269D+02
  0.73939243D+01  0.19071088D+01 -0.19604430D-02  0.11574643D-11  0.15246402D-11
  0.16820354D-11  0.13971237D-11  0.74204634D-12  0.19139540D-12 -0.19674796D-15
  0.47052509D-14  0.61776495D-14  0.70337084D-14  0.59558554D-14  0.34117433D-14
  0.77605323D-15 -0.36323562D-15  0.65041934D-02  0.85395291D-02  0.97228821D-02
  0.82329372D-02  0.47161434D-02  0.10727590D-02 -0.50211026D-03 -0.12509433D-14
 -0.16423969D-14 -0.18699897D-14 -0.15834305D-14 -0.90704994D-15 -0.20632239D-15
  0.96570235D-16  0.24252403D-14  0.85853433D-01  0.84272713D-14 -0.13839957D-15
  0.14935364D-03  0.12269247D-15 -0.59346596D-18 -0.12712908D-04 -0.40257538D-17
 -0.24598766D-15  0.37191658D-16  0.20879600D-15 -0.28738084D-02  0.58340328D-17
  0.79027749D-03  0.15558181D-15 -0.67035297D-16 -0.88546509D-16  0.34878783D-03
 -0.13157112D-15 -0.96552667D-04  0.28098769D-17 -0.10293020D-16  0.74831433D-17
  0.15363851D-04 -0.45280337D-16  0.19256691D-06 -0.26817543D-16 -0.19928067D-03
 -0.87004436D-17  0.44169570D-16  0.74300589D-03  0.67813615D-16  0.36283060D-16
 -0.14516389D-03 -0.41712284D-16 -0.43989760D-03 -0.10191098D-17  0.40008352D-04
 -0.10872471D-16 -0.33803310D-16 -0.15611563D-03  0.56601855D-16  0.36860639D-16
  0.36090573D-04 -0.23984443D-16  0.88970272D-04
MO    7     MO 0.0        OCC NO =    2.0000000  ORB. ENERGY =   -1.195208
 -0.63944623D-02 -0.11918455D-01 -0.20209751D-01 -0.30588399D-01 -0.38165391D-01
 -0.32778981D-01 -0.12584488D-01  0.56291188D-04 -0.90918721D-01 -0.17052031D+00
 -0.29069975D+00 -0.45430713D+00 -0.60749520D+00 -0.64866324D+00 -0.39657999D+00
  0.26163939D+00  0.14405618D+00  0.72314622D-01  0.34635508D-02  0.18855197D+00
  0.18283198D+00  0.12333737D+00  0.41715814D-15  0.40450308D-15  0.27287539D-15
  0.17605715D+00  0.17071621D+00  0.11516415D+00  0.51456493D-01 -0.79226763D-16
  0.44877078D-01  0.44297712D-02 -0.46678721D-19  0.36387117D-02  0.25273417D-04
 -0.50607166D-18  0.75213127D-04  0.10448816D-01 -0.31195674D-01  0.20746857D-01
 -0.10473237D-16 -0.70874557D-02 -0.11233254D-15  0.63770659D-02 -0.90634884D-02