 Molden2AIM, Version 4.0.0 (06/02/2016)           Time: Thu Jun 28 03:05:41 2018
GAUSSIAN             25 MOL ORBITALS    458 PRIMITIVES        6 NUCLEI
  P    1    (CENTRE  1)  -2.65713068  1.67619841 -0.08867729  CHARGE = 15.0
  O    2    (CENTRE  2)   0.67450561  2.17242537 -0.20261644  CHARGE =  8.0
  O    3    (CENTRE  3)  -3.74963804  3.59382445 -2.03826805  CHARGE =  8.0
  O    4    (CENTRE  4)  -3.37803285  2.19669135  2.71874520  CHARGE =  8.0
  H    5    (CENTRE  5)   1.14061223  0.49226610 -0.72793951  CHARGE =  1.0
  O    6    (CENTRE  6)  -2.71966549 -1.17862029 -0.92205218  CHARGE =  8.0
CENTRE ASSIGNMENTS    1  1  1  1  1  1  1  1  1  1  1  1  1  1  1  1  1  1  1  1
CENTRE ASSIGNMENTS    1  1  1  1  1  1  1  1  1  1  1  1  1  1  1  1  1  1  1  1
CENTRE ASSIGNMENTS    1  1  1  1  1  1  1  1  1  1  1  1  1  1  1  1  1  1  1  1
CENTRE ASSIGNMENTS    1  1  1  1  1  1  1  1  1  1  1  1  1  1  1  1  1  1  1  1
CENTRE ASSIGNMENTS    1  1  1  1  1  1  1  1  1  1  1  1  1  1  1  1  1  1  1  1
CENTRE ASSIGNMENTS    1  1  1  1  1  1  1  1  1  1  1  1  1  1  1  1  1  1  1  1
CENTRE ASSIGNMENTS    1  1  1  1  1  1  1  1  1  1  1  2  2  2  2  2  2  2  2  2
CENTRE ASSIGNMENTS    2  2  2  2  2  2  2  2  2  2  2  2  2  2  2  2  2  2  2  2
CENTRE ASSIGNMENTS    2  2  2  2  2  2  2  2  2  2  2  2  2  2  2  2  2  2  2  2
CENTRE ASSIGNMENTS    2  2  2  2  2  2  2  2  2  2  2  2  2  2  2  2  2  2  2  2
CENTRE ASSIGNMENTS    2  2  2  2  2  2  3  3  3  3  3  3  3  3  3  3  3  3  3  3
CENTRE ASSIGNMENTS    3  3  3  3  3  3  3  3  3  3  3  3  3  3  3  3  3  3  3  3
CENTRE ASSIGNMENTS    3  3  3  3  3  3  3  3  3  3  3  3  3  3  3  3  3  3  3  3
CENTRE ASSIGNMENTS    3  3  3  3  3  3  3  3  3  3  3  3  3  3  3  3  3  3  3  3
CENTRE ASSIGNMENTS    3  4  4  4  4  4  4  4  4  4  4  4  4  4  4  4  4  4  4  4
CENTRE ASSIGNMENTS    4  4  4  4  4  4  4  4  4  4  4  4  4  4  4  4  4  4  4  4
CENTRE ASSIGNMENTS    4  4  4  4  4  4  4  4  4  4  4  4  4  4  4  4  4  4  4  4
CENTRE ASSIGNMENTS    4  4  4  4  4  4  4  4  4  4  4  4  4  4  4  4  5  5  5  5
CENTRE ASSIGNMENTS    5  5  5  5  5  5  5  5  5  5  5  5  5  5  5  5  5  5  5  5
CENTRE ASSIGNMENTS    5  5  5  6  6  6  6  6  6  6  6  6  6  6  6  6  6  6  6  6
CENTRE ASSIGNMENTS    6  6  6  6  6  6  6  6  6  6  6  6  6  6  6  6  6  6  6  6
CENTRE ASSIGNMENTS    6  6  6  6  6  6  6  6  6  6  6  6  6  6  6  6  6  6  6  6
CENTRE ASSIGNMENTS    6  6  6  6  6  6  6  6  6  6  6  6  6  6  6  6  6  6
TYPE ASSIGNMENTS      1  1  1  1  1  1  1  1  1  1  1  1  1  1  1  1  1  1  1  1
TYPE ASSIGNMENTS      1  1  1  1  1  1  1  1  1  1  1  1  1  1  1  1  1  1  1  1
TYPE ASSIGNMENTS      1  1  2  2  2  2  2  2  2  3  3  3  3  3  3  3  4  4  4  4
TYPE ASSIGNMENTS      4  4  4  2  2  2  2  2  2  2  3  3  3  3  3  3  3  4  4  4
TYPE ASSIGNMENTS      4  4  4  4  2  3  4  2  3  4  2  3  4  5  6  7  8  9 10  5
TYPE ASSIGNMENTS      6  7  8  9 10  5  6  7  8  9 10 11 12 13 17 14 15 18 19 16
TYPE ASSIGNMENTS     20 11 12 13 17 14 15 18 19 16 20  1  1  1  1  1  1  1  1  1
TYPE ASSIGNMENTS      1  1  1  1  1  1  1  1  1  1  2  2  2  3  3  3  4  4  4  2
TYPE ASSIGNMENTS      3  4  2  3  4  2  3  4  5  6  7  8  9 10  5  6  7  8  9 10
TYPE ASSIGNMENTS      5  6  7  8  9 10 11 12 13 17 14 15 18 19 16 20 11 12 13 17
TYPE ASSIGNMENTS     14 15 18 19 16 20  1  1  1  1  1  1  1  1  1  1  1  1  1  1
TYPE ASSIGNMENTS      1  1  1  1  1  2  2  2  3  3  3  4  4  4  2  3  4  2  3  4
TYPE ASSIGNMENTS      2  3  4  5  6  7  8  9 10  5  6  7  8  9 10  5  6  7  8  9
TYPE ASSIGNMENTS     10 11 12 13 17 14 15 18 19 16 20 11 12 13 17 14 15 18 19 16
TYPE ASSIGNMENTS     20  1  1  1  1  1  1  1  1  1  1  1  1  1  1  1  1  1  1  1
TYPE ASSIGNMENTS      2  2  2  3  3  3  4  4  4  2  3  4  2  3  4  2  3  4  5  6
TYPE ASSIGNMENTS      7  8  9 10  5  6  7  8  9 10  5  6  7  8  9 10 11 12 13 17
TYPE ASSIGNMENTS     14 15 18 19 16 20 11 12 13 17 14 15 18 19 16 20  1  1  1  1
TYPE ASSIGNMENTS      1  1  2  3  4  2  3  4  2  3  4  5  6  7  8  9 10  5  6  7
TYPE ASSIGNMENTS      8  9 10  1  1  1  1  1  1  1  1  1  1  1  1  1  1  1  1  1
TYPE ASSIGNMENTS      1  1  2  2  2  3  3  3  4  4  4  2  3  4  2  3  4  2  3  4
TYPE ASSIGNMENTS      5  6  7  8  9 10  5  6  7  8  9 10  5  6  7  8  9 10 11 12
TYPE ASSIGNMENTS     13 17 14 15 18 19 16 20 11 12 13 17 14 15 18 19 16 20
EXPONENTS  0.3124000D+06 0.4680000D+05 0.1065000D+05 0.3018000D+04 0.9868000D+03
EXPONENTS  0.3574000D+03 0.1396000D+03 0.5763000D+02 0.2460000D+02 0.1012000D+02
EXPONENTS  0.4283000D+01 0.1805000D+01 0.2782000D+00 0.3124000D+06 0.4680000D+05
EXPONENTS  0.1065000D+05 0.3018000D+04 0.9868000D+03 0.3574000D+03 0.1396000D+03
EXPONENTS  0.5763000D+02 0.2460000D+02 0.1012000D+02 0.4283000D+01 0.1805000D+01
EXPONENTS  0.2782000D+00 0.3124000D+06 0.4680000D+05 0.1065000D+05 0.3018000D+04
EXPONENTS  0.9868000D+03 0.3574000D+03 0.1396000D+03 0.5763000D+02 0.2460000D+02
EXPONENTS  0.1012000D+02 0.4283000D+01 0.1805000D+01 0.2782000D+00 0.6158000D+00
EXPONENTS  0.1055000D+00 0.4090000D-01 0.5049000D+03 0.1194000D+03 0.3796000D+02
EXPONENTS  0.1395000D+02 0.5457000D+01 0.2177000D+01 0.2877000D+00 0.5049000D+03
EXPONENTS  0.1194000D+03 0.3796000D+02 0.1395000D+02 0.5457000D+01 0.2177000D+01
EXPONENTS  0.2877000D+00 0.5049000D+03 0.1194000D+03 0.3796000D+02 0.1395000D+02
EXPONENTS  0.5457000D+01 0.2177000D+01 0.2877000D+00 0.5049000D+03 0.1194000D+03
EXPONENTS  0.3796000D+02 0.1395000D+02 0.5457000D+01 0.2177000D+01 0.2877000D+00
EXPONENTS  0.5049000D+03 0.1194000D+03 0.3796000D+02 0.1395000D+02 0.5457000D+01
EXPONENTS  0.2177000D+01 0.2877000D+00 0.5049000D+03 0.1194000D+03 0.3796000D+02
EXPONENTS  0.1395000D+02 0.5457000D+01 0.2177000D+01 0.2877000D+00 0.8010000D+00
EXPONENTS  0.8010000D+00 0.8010000D+00 0.9714000D-01 0.9714000D-01 0.9714000D-01
EXPONENTS  0.3070000D-01 0.3070000D-01 0.3070000D-01 0.2160000D+00 0.2160000D+00
EXPONENTS  0.2160000D+00 0.2160000D+00 0.2160000D+00 0.2160000D+00 0.6520000D+00
EXPONENTS  0.6520000D+00 0.6520000D+00 0.6520000D+00 0.6520000D+00 0.6520000D+00
EXPONENTS  0.7750000D-01 0.7750000D-01 0.7750000D-01 0.7750000D-01 0.7750000D-01
EXPONENTS  0.7750000D-01 0.4520000D+00 0.4520000D+00 0.4520000D+00 0.4520000D+00
EXPONENTS  0.4520000D+00 0.4520000D+00 0.4520000D+00 0.4520000D+00 0.4520000D+00
EXPONENTS  0.4520000D+00 0.1650000D+00 0.1650000D+00 0.1650000D+00 0.1650000D+00
EXPONENTS  0.1650000D+00 0.1650000D+00 0.1650000D+00 0.1650000D+00 0.1650000D+00
EXPONENTS  0.1650000D+00 0.1533000D+05 0.2299000D+04 0.5224000D+03 0.1473000D+03
EXPONENTS  0.4755000D+02 0.1676000D+02 0.6207000D+01 0.6882000D+00 0.1533000D+05
EXPONENTS  0.2299000D+04 0.5224000D+03 0.1473000D+03 0.4755000D+02 0.1676000D+02
EXPONENTS  0.6207000D+01 0.6882000D+00 0.1752000D+01 0.2384000D+00 0.7376000D-01
EXPONENTS  0.3446000D+02 0.7749000D+01 0.2280000D+01 0.3446000D+02 0.7749000D+01
EXPONENTS  0.2280000D+01 0.3446000D+02 0.7749000D+01 0.2280000D+01 0.7156000D+00
EXPONENTS  0.7156000D+00 0.7156000D+00 0.2140000D+00 0.2140000D+00 0.2140000D+00
EXPONENTS  0.5974000D-01 0.5974000D-01 0.5974000D-01 0.2314000D+01 0.2314000D+01
EXPONENTS  0.2314000D+01 0.2314000D+01 0.2314000D+01 0.2314000D+01 0.6450000D+00
EXPONENTS  0.6450000D+00 0.6450000D+00 0.6450000D+00 0.6450000D+00 0.6450000D+00
EXPONENTS  0.2140000D+00 0.2140000D+00 0.2140000D+00 0.2140000D+00 0.2140000D+00
EXPONENTS  0.2140000D+00 0.1428000D+01 0.1428000D+01 0.1428000D+01 0.1428000D+01
EXPONENTS  0.1428000D+01 0.1428000D+01 0.1428000D+01 0.1428000D+01 0.1428000D+01
EXPONENTS  0.1428000D+01 0.5000000D+00 0.5000000D+00 0.5000000D+00 0.5000000D+00
EXPONENTS  0.5000000D+00 0.5000000D+00 0.5000000D+00 0.5000000D+00 0.5000000D+00
EXPONENTS  0.5000000D+00 0.1533000D+05 0.2299000D+04 0.5224000D+03 0.1473000D+03
EXPONENTS  0.4755000D+02 0.1676000D+02 0.6207000D+01 0.6882000D+00 0.1533000D+05
EXPONENTS  0.2299000D+04 0.5224000D+03 0.1473000D+03 0.4755000D+02 0.1676000D+02
EXPONENTS  0.6207000D+01 0.6882000D+00 0.1752000D+01 0.2384000D+00 0.7376000D-01
EXPONENTS  0.3446000D+02 0.7749000D+01 0.2280000D+01 0.3446000D+02 0.7749000D+01
EXPONENTS  0.2280000D+01 0.3446000D+02 0.7749000D+01 0.2280000D+01 0.7156000D+00
EXPONENTS  0.7156000D+00 0.7156000D+00 0.2140000D+00 0.2140000D+00 0.2140000D+00
EXPONENTS  0.5974000D-01 0.5974000D-01 0.5974000D-01 0.2314000D+01 0.2314000D+01
EXPONENTS  0.2314000D+01 0.2314000D+01 0.2314000D+01 0.2314000D+01 0.6450000D+00
EXPONENTS  0.6450000D+00 0.6450000D+00 0.6450000D+00 0.6450000D+00 0.6450000D+00
EXPONENTS  0.2140000D+00 0.2140000D+00 0.2140000D+00 0.2140000D+00 0.2140000D+00
EXPONENTS  0.2140000D+00 0.1428000D+01 0.1428000D+01 0.1428000D+01 0.1428000D+01
EXPONENTS  0.1428000D+01 0.1428000D+01 0.1428000D+01 0.1428000D+01 0.1428000D+01
EXPONENTS  0.1428000D+01 0.5000000D+00 0.5000000D+00 0.5000000D+00 0.5000000D+00
EXPONENTS  0.5000000D+00 0.5000000D+00 0.5000000D+00 0.5000000D+00 0.5000000D+00
EXPONENTS  0.5000000D+00 0.1533000D+05 0.2299000D+04 0.5224000D+03 0.1473000D+03
EXPONENTS  0.4755000D+02 0.1676000D+02 0.6207000D+01 0.6882000D+00 0.1533000D+05
EXPONENTS  0.2299000D+04 0.5224000D+03 0.1473000D+03 0.4755000D+02 0.1676000D+02
EXPONENTS  0.6207000D+01 0.6882000D+00 0.1752000D+01 0.2384000D+00 0.7376000D-01
EXPONENTS  0.3446000D+02 0.7749000D+01 0.2280000D+01 0.3446000D+02 0.7749000D+01
EXPONENTS  0.2280000D+01 0.3446000D+02 0.7749000D+01 0.2280000D+01 0.7156000D+00
EXPONENTS  0.7156000D+00 0.7156000D+00 0.2140000D+00 0.2140000D+00 0.2140000D+00
EXPONENTS  0.5974000D-01 0.5974000D-01 0.5974000D-01 0.2314000D+01 0.2314000D+01
EXPONENTS  0.2314000D+01 0.2314000D+01 0.2314000D+01 0.2314000D+01 0.6450000D+00
EXPONENTS  0.6450000D+00 0.6450000D+00 0.6450000D+00 0.6450000D+00 0.6450000D+00
EXPONENTS  0.2140000D+00 0.2140000D+00 0.2140000D+00 0.2140000D+00 0.2140000D+00
EXPONENTS  0.2140000D+00 0.1428000D+01 0.1428000D+01 0.1428000D+01 0.1428000D+01
EXPONENTS  0.1428000D+01 0.1428000D+01 0.1428000D+01 0.1428000D+01 0.1428000D+01
EXPONENTS  0.1428000D+01 0.5000000D+00 0.5000000D+00 0.5000000D+00 0.5000000D+00
EXPONENTS  0.5000000D+00 0.5000000D+00 0.5000000D+00 0.5000000D+00 0.5000000D+00
EXPONENTS  0.5000000D+00 0.3387000D+02 0.5095000D+01 0.1159000D+01 0.3258000D+00
EXPONENTS  0.1027000D+00 0.2526000D-01 0.1407000D+01 0.1407000D+01 0.1407000D+01
EXPONENTS  0.3880000D+00 0.3880000D+00 0.3880000D+00 0.1020000D+00 0.1020000D+00
EXPONENTS  0.1020000D+00 0.1057000D+01 0.1057000D+01 0.1057000D+01 0.1057000D+01
EXPONENTS  0.1057000D+01 0.1057000D+01 0.2470000D+00 0.2470000D+00 0.2470000D+00
EXPONENTS  0.2470000D+00 0.2470000D+00 0.2470000D+00 0.1533000D+05 0.2299000D+04
EXPONENTS  0.5224000D+03 0.1473000D+03 0.4755000D+02 0.1676000D+02 0.6207000D+01
EXPONENTS  0.6882000D+00 0.1533000D+05 0.2299000D+04 0.5224000D+03 0.1473000D+03
EXPONENTS  0.4755000D+02 0.1676000D+02 0.6207000D+01 0.6882000D+00 0.1752000D+01
EXPONENTS  0.2384000D+00 0.7376000D-01 0.3446000D+02 0.7749000D+01 0.2280000D+01
EXPONENTS  0.3446000D+02 0.7749000D+01 0.2280000D+01 0.3446000D+02 0.7749000D+01
EXPONENTS  0.2280000D+01 0.7156000D+00 0.7156000D+00 0.7156000D+00 0.2140000D+00
EXPONENTS  0.2140000D+00 0.2140000D+00 0.5974000D-01 0.5974000D-01 0.5974000D-01
EXPONENTS  0.2314000D+01 0.2314000D+01 0.2314000D+01 0.2314000D+01 0.2314000D+01
EXPONENTS  0.2314000D+01 0.6450000D+00 0.6450000D+00 0.6450000D+00 0.6450000D+00
EXPONENTS  0.6450000D+00 0.6450000D+00 0.2140000D+00 0.2140000D+00 0.2140000D+00
EXPONENTS  0.2140000D+00 0.2140000D+00 0.2140000D+00 0.1428000D+01 0.1428000D+01
EXPONENTS  0.1428000D+01 0.1428000D+01 0.1428000D+01 0.1428000D+01 0.1428000D+01
EXPONENTS  0.1428000D+01 0.1428000D+01 0.1428000D+01 0.5000000D+00 0.5000000D+00
EXPONENTS  0.5000000D+00 0.5000000D+00 0.5000000D+00 0.5000000D+00 0.5000000D+00
EXPONENTS  0.5000000D+00 0.5000000D+00 0.5000000D+00
MO    1     MO 0.0        OCC NO =    2.0000000  ORB. ENERGY =  -77.770706
  0.54445301D+00  0.10186633D+01  0.17589308D+01  0.28446404D+01  0.42934066D+01
  0.58820999D+01  0.67975313D+01  0.57124760D+01  0.25091697D+01  0.28679396D+00
 -0.38653068D-02  0.24041128D-02  0.11825826D-03 -0.20137606D-02 -0.37665283D-02
 -0.65215402D-02 -0.10589457D-01 -0.16262931D-01 -0.23129621D-01 -0.29428728D-01
 -0.30498523D-01 -0.20352396D-01  0.20044515D-02  0.15310743D-01  0.78614401D-02
 -0.34483901D-04  0.10207286D-02  0.19074570D-02  0.33075981D-02  0.53636242D-02
  0.82674533D-02  0.11764134D-01  0.15148646D-01  0.15925044D-01  0.11163944D-01
 -0.12962338D-02 -0.10493836D-01 -0.98761259D-02  0.48161840D-02 -0.29247962D-02
 -0.95636404D-03  0.40059205D-04  0.18483540D-02  0.24179998D-02  0.26453765D-02
  0.21790568D-02  0.11650919D-02  0.32192620D-03 -0.26386845D-06 -0.48489228D-03
 -0.63433164D-03 -0.69398105D-03 -0.57164796D-03 -0.30564712D-03 -0.84453265D-04
  0.69222548D-07 -0.28283438D-03 -0.37000134D-03 -0.40479443D-03 -0.33343838D-03
 -0.17828189D-03 -0.49261016D-04  0.40377042D-07 -0.13163920D-02 -0.17434377D-02
 -0.19260304D-02 -0.16496509D-02 -0.89994698D-03 -0.27662010D-03  0.12043071D-03
  0.45675913D-03  0.60493463D-03  0.66829026D-03  0.57239265D-03  0.31226185D-03
  0.95981105D-04 -0.41786812D-04  0.23353249D-03  0.30929189D-03  0.34168445D-03
  0.29265377D-03  0.15965371D-03  0.49073364D-04 -0.21364824D-04 -0.19522482D-03
  0.15272244D-04  0.19463690D-04 -0.11340108D-03  0.14180637D-04  0.13100040D-04
  0.29078884D-05 -0.16942257D-05 -0.71585168D-06 -0.10596774D-04 -0.91774591D-05
  0.19774233D-04 -0.28583822D-04 -0.30755743D-05 -0.16251342D-04 -0.21208606D-03
  0.93322855D-04  0.11876320D-03 -0.25025961D-03 -0.21869704D-04  0.54282905D-05
 -0.26703031D-05 -0.57228444D-06  0.32425876D-05  0.12624275D-04  0.47137937D-05
 -0.36351061D-05  0.12640243D-03 -0.11238868D-03  0.11860436D-03 -0.12254929D-03
  0.98077698D-04 -0.46266005D-04 -0.25665800D-03  0.23908833D-03 -0.30954708D-03
  0.14254051D-03 -0.26273368D-04  0.32525378D-04 -0.35089258D-04  0.12643285D-04
 -0.24855917D-04  0.10893880D-04  0.66176818D-04 -0.72720216D-04  0.94373893D-04
 -0.51961638D-04  0.60949157D-04  0.11360139D-03  0.19263031D-03  0.29155495D-03
  0.36377545D-03  0.31243460D-03  0.11994972D-03 -0.53654244D-06 -0.44434365D-04
 -0.83337754D-04 -0.14207260D-03 -0.22203182D-03 -0.29689885D-03 -0.31701875D-03
 -0.19381905D-03  0.12787004D-03  0.73280053D-04 -0.18990811D-03 -0.89336480D-04
 -0.14858777D-03 -0.14408016D-03 -0.97195622D-04 -0.10829301D-03 -0.10500780D-03
 -0.70837639D-04 -0.20066428D-04 -0.19457685D-04 -0.13126040D-04 -0.33026873D-04
  0.14162903D-03  0.43859898D-04  0.73984622D-04  0.37013237D-03  0.10211597D-03
  0.77444796D-05  0.65239598D-05  0.12864781D-05  0.38137175D-03 -0.93695213D-04
 -0.28767654D-03  0.70236100D-04 -0.86673760D-04  0.11966023D-03 -0.13332370D-03
 -0.31016969D-04  0.16434067D-03  0.31887493D-04  0.58766675D-04 -0.12854543D-03
 -0.81281091D-04  0.23597191D-05  0.78921372D-04 -0.83240447D-04  0.15259146D-05
 -0.41693573D-04 -0.21305912D-03  0.93335975D-04 -0.32322425D-04  0.16044905D-03
 -0.32605266D-03  0.33310463D-04  0.47872831D-03  0.46044732D-04  0.63656811D-04
 -0.14898030D-03  0.13488880D-03 -0.26756511D-04  0.35168673D-06 -0.17087955D-03
  0.13717295D-03 -0.28285882D-04 -0.23378686D-03 -0.56903418D-04  0.27230821D-04
  0.72563664D-05  0.83387276D-04  0.15542315D-03  0.26354617D-03  0.39888941D-03
  0.49769751D-03  0.42745579D-03  0.16410859D-03 -0.73406779D-06 -0.59422483D-04
 -0.11144834D-03 -0.18999499D-03 -0.29692518D-03 -0.39704554D-03 -0.42395207D-03
 -0.25919598D-03  0.17100177D-03  0.76606311D-04  0.69597383D-04 -0.84400024D-04
  0.11689576D-03  0.11334957D-03  0.76464947D-04 -0.21454080D-03 -0.20803241D-03
 -0.14033744D-03  0.21653377D-03  0.20996492D-03  0.14164109D-03 -0.77140764D-04
  0.14148060D-03 -0.14650368D-03 -0.16556123D-03  0.30168726D-03 -0.29980717D-03
 -0.10208442D-04  0.12399970D-04 -0.63199589D-05 -0.13151987D-03  0.77119172D-04
  0.54400695D-04 -0.34004218D-03  0.32102332D-03 -0.70673671D-03  0.10104597D-03
 -0.54347815D-04 -0.46698152D-04  0.24453064D-03 -0.24647318D-03  0.50601995D-03
  0.60180627D-04 -0.26294950D-04 -0.33885677D-04  0.14001753D-03 -0.10818780D-03
  0.15147223D-03 -0.17180824D-03  0.64304128D-04 -0.16001169D-04  0.29544932D-03
 -0.12924624D-03 -0.87268524D-04  0.21997540D-03 -0.63666147D-04  0.13527203D-03
 -0.16564053D-03  0.83593707D-04 -0.44039058D-04  0.31756504D-04 -0.13416491D-03
  0.58638091D-05  0.49689121D-04 -0.11661621D-03  0.12625337D-03 -0.14495863D-03
  0.27121833D-03  0.83345712D-04  0.15534568D-03  0.26341481D-03  0.39869058D-03
  0.49744944D-03  0.42724273D-03  0.16402679D-03 -0.73370190D-06 -0.59397542D-04
 -0.11140156D-03 -0.18991524D-03 -0.29680056D-03 -0.39687890D-03 -0.42377413D-03
 -0.25908720D-03  0.17093000D-03  0.76669032D-04  0.69737342D-04 -0.84573311D-04
  0.75401811D-04  0.73114393D-04  0.49322537D-04 -0.58837399D-04 -0.57052485D-04
 -0.38487269D-04 -0.31224712D-03 -0.30277467D-03 -0.20425001D-03 -0.49165763D-04
  0.36650167D-04  0.20901630D-03 -0.10888303D-03  0.87311297D-04  0.43439464D-03
 -0.86649621D-05  0.66436876D-05  0.13373419D-04 -0.18259770D-03 -0.25452304D-03
  0.43712074D-03 -0.60158771D-04 -0.30359883D-03  0.31092696D-03  0.13970069D-03
  0.18031434D-03 -0.32001503D-03  0.36856943D-04  0.22740358D-03 -0.21304377D-03
  0.78238883D-04  0.42663889D-04 -0.12090277D-03  0.53758177D-04  0.11723253D-03
 -0.58380628D-04 -0.15322253D-03  0.79950811D-04 -0.80980254D-04  0.18863801D-03
 -0.17156348D-03  0.15426886D-03  0.27102958D-03 -0.68288954D-04  0.88671897D-04
  0.16567114D-03  0.69938067D-04 -0.46084117D-04  0.89992811D-04 -0.17158838D-04
  0.26179586D-04 -0.13117921D-03 -0.19265536D-03  0.11207277D-03 -0.13879922D-03
 -0.10164035D-03 -0.21523274D-04 -0.38818111D-04 -0.57237282D-04  0.69201884D-03
  0.25990644D-03 -0.54253255D-05  0.14832584D-03  0.18448240D-03  0.42630869D-04
 -0.25010539D-03  0.18107787D-03  0.71818253D-04 -0.38009670D-04  0.20306210D-04
  0.88736179D-05  0.37682209D-04  0.40468573D-04 -0.78150782D-04 -0.32822045D-04
 -0.29198495D-04  0.78850026D-04  0.21124394D-04 -0.91024430D-05 -0.12021951D-04
  0.36333986D-04  0.55752299D-05 -0.13472987D-05  0.72440396D-04  0.13501958D-03
  0.22894847D-03  0.34652417D-03  0.43236099D-03  0.37134043D-03  0.14256481D-03
 -0.63770114D-06 -0.52002366D-04 -0.97531725D-04 -0.16627021D-03 -0.25984797D-03
 -0.34746625D-03 -0.37101295D-03 -0.22683004D-03  0.14964869D-03  0.74664380D-04
  0.15343350D-03 -0.73361096D-04 -0.10754571D-03 -0.10428316D-03 -0.70348802D-04
  0.28271687D-03  0.27414026D-03  0.18493340D-03  0.91316500D-04  0.88546288D-04
  0.59732803D-04  0.74401822D-04 -0.16915440D-03 -0.55424984D-04 -0.11405777D-04
 -0.39904017D-03 -0.11588756D-03  0.29341455D-05 -0.12040598D-04 -0.37654900D-05
 -0.30230693D-03  0.48435526D-03 -0.18204833D-03 -0.10679674D-03 -0.23025993D-04
  0.43773154D-03  0.19802192D-03 -0.32835600D-03  0.13033407D-03  0.56857951D-04
  0.13220351D-04 -0.29981256D-03  0.82694547D-04 -0.11894558D-03  0.36251035D-04
 -0.27273633D-04 -0.13121823D-04 -0.96999029D-04 -0.57160663D-04  0.10833358D-03
 -0.40268534D-04  0.61799639D-04 -0.25974834D-03 -0.45105664D-04  0.10968235D-03
 -0.65252413D-04  0.16591127D-03 -0.79697807D-05  0.19384721D-04 -0.10154123D-03
  0.46188827D-04 -0.26185698D-04  0.20325443D-03  0.50050155D-04 -0.31968465D-04
  0.10136925D-03 -0.18861664D-03 -0.14490539D-05
MO    2     MO 0.0        OCC NO =    2.0000000  ORB. ENERGY =  -19.254633
  0.63741951D-04  0.11926023D-03  0.20592719D-03  0.33303687D-03  0.50265148D-03
  0.68864809D-03  0.79582241D-03  0.66878933D-03  0.29376158D-03  0.33576464D-04
 -0.45253161D-06  0.28146202D-06  0.13845111D-07 -0.10714013D-03 -0.20039440D-03
 -0.34697208D-03 -0.56340154D-03 -0.86525312D-03 -0.12305886D-02 -0.15657263D-02
 -0.16226437D-02 -0.10828290D-02  0.10664485D-03  0.81459290D-03  0.41826012D-03
 -0.18346817D-05  0.54137668D-04  0.10116820D-03  0.17542924D-03  0.28447729D-03
  0.43849133D-03  0.62394920D-03  0.80345783D-03  0.84463660D-03  0.59211615D-03
 -0.68749984D-04 -0.55657481D-03 -0.52381252D-03  0.25544201D-03 -0.43754528D-03
  0.48283410D-03  0.16158403D-03  0.84655133D-02  0.11074507D-01  0.12115899D-01
  0.99801412D-02  0.53361538D-02  0.14744311D-02 -0.12085249D-05  0.20882198D-02
  0.27317900D-02  0.29886740D-02  0.24618387D-02  0.13162890D-02  0.36370341D-03
 -0.29811135D-06 -0.51002317D-04 -0.66720764D-04 -0.72994854D-04 -0.60127521D-04
 -0.32148813D-04 -0.88830290D-05  0.72810199D-08 -0.73447215D-02 -0.97273949D-02
 -0.10746158D-01 -0.92041173D-02 -0.50211943D-02 -0.15433835D-02  0.67193512D-03
 -0.18786711D-02 -0.24881237D-02 -0.27487083D-02 -0.23542771D-02 -0.12843472D-02
 -0.39477466D-03  0.17187107D-03  0.24836942D-04  0.32894201D-04  0.36339256D-04
  0.31124683D-04  0.16979693D-04  0.52191123D-05 -0.22722187D-05 -0.67271043D-03
 -0.89885109D-04  0.26034252D-04  0.30200698D-03 -0.20805974D-04 -0.29436452D-04
  0.84653086D-05 -0.20656296D-05 -0.12487800D-05  0.40458984D-03 -0.20667731D-03
 -0.19791253D-03  0.76026425D-04 -0.71380337D-04 -0.10589650D-04  0.61179910D-04
 -0.38925851D-04 -0.22254059D-04  0.13392679D-03  0.26782114D-04 -0.22900546D-04
  0.22563920D-04 -0.91476233D-05 -0.13416296D-04 -0.71055788D-05 -0.77799211D-05
  0.35333294D-05  0.16997416D-03 -0.34925306D-04  0.12303170D-05 -0.19593539D-03
  0.17918209D-03 -0.37322551D-04 -0.31398708D-03 -0.74406176D-04  0.33631600D-04
  0.32852496D-04  0.20949651D-04  0.60805210D-05 -0.81805403D-05 -0.21006832D-04
  0.12631057D-04 -0.77416207D-05 -0.41842122D-04 -0.30872620D-04  0.32283242D-04
  0.37511721D-05  0.49844006D+00  0.92902813D+00  0.15753239D+01  0.23843261D+01
  0.29749428D+01  0.25550791D+01  0.98094456D+00 -0.43878252D-02 -0.23422602D-03
 -0.43929670D-03 -0.74890457D-03 -0.11703921D-02 -0.15650372D-02 -0.16710949D-02
 -0.10216746D-02  0.67403887D-03  0.49685965D-01 -0.22026995D-04 -0.39643301D-03
 -0.19471072D-02 -0.18880390D-02 -0.12736599D-02 -0.53723860D-02 -0.52094072D-02
 -0.35142353D-02 -0.14127265D-02 -0.13698695D-02 -0.92410588D-03  0.73779893D-03
 -0.90255213D-03 -0.32008546D-03  0.67961568D-03  0.14265377D-03 -0.11203008D-04
  0.47815851D-04  0.65429802D-05 -0.18102952D-05  0.21471711D-03  0.16243518D-02
 -0.18390689D-02 -0.19530029D-02 -0.94739012D-03  0.23926956D-02 -0.54263172D-03
  0.29151822D-03  0.25111350D-03 -0.97178105D-04  0.94785109D-04  0.31565176D-04
 -0.75333849D-04 -0.12231900D-04  0.87565749D-04  0.82675845D-05  0.29327271D-04
 -0.64991012D-04 -0.42326995D-03 -0.58066193D-03  0.35687079D-03  0.12887574D-02
  0.92424203D-03  0.34325811D-03 -0.18947611D-04  0.81774375D-03 -0.14138705D-02
  0.91397459D-03  0.17399056D-03  0.85654504D-04 -0.65029303D-04 -0.39478362D-03
 -0.78121806D-04 -0.78414769D-04 -0.12718807D-03 -0.17884171D-03  0.27350268D-03
 -0.20566957D-03 -0.22616719D-04 -0.42154655D-04 -0.71480327D-04 -0.10818880D-03
 -0.13498804D-03 -0.11593672D-03 -0.44510362D-04  0.19909758D-06 -0.38659407D-05
 -0.72506675D-05 -0.12360799D-04 -0.19317522D-04 -0.25831208D-04 -0.27581708D-04
 -0.16862915D-04  0.11125127D-04 -0.11509494D-04  0.18599203D-03  0.29546678D-04
 -0.75576659D-04 -0.73283937D-04 -0.49436911D-04  0.48251067D-04  0.46787304D-04
  0.31562439D-04 -0.17633655D-04 -0.17098714D-04 -0.11534691D-04  0.37543074D-04
 -0.45648692D-04  0.16706719D-04  0.17713526D-03  0.60101650D-04 -0.12717867D-05
  0.11432328D-04  0.70118957D-06 -0.29613902D-06 -0.43980530D-04  0.30820247D-04
  0.13160283D-04  0.13255498D-03 -0.70799230D-04 -0.17342818D-03  0.46385961D-04
 -0.27902535D-04 -0.18483427D-04 -0.72394408D-04  0.50416876D-04  0.10149125D-03
  0.28734472D-04 -0.24375274D-04 -0.43591982D-05 -0.32659364D-04  0.45134358D-04
  0.22699640D-04  0.10519951D-03  0.99183600D-05 -0.25042352D-04 -0.15146477D-03
 -0.40331925D-04  0.74913308D-04 -0.16413377D-03  0.10576845D-04  0.21374705D-06
 -0.50506973D-04 -0.30197213D-04  0.45173913D-05  0.65165479D-05  0.38997612D-04
 -0.36214663D-04  0.18724753D-04  0.51594026D-04  0.22662489D-04 -0.38274397D-04
 -0.88388032D-06 -0.22515947D-04 -0.41966829D-04 -0.71161836D-04 -0.10770675D-03
 -0.13438658D-03 -0.11542015D-03 -0.44312040D-04  0.19821048D-06 -0.39445791D-05
 -0.73981559D-05 -0.12612234D-04 -0.19710467D-04 -0.26356650D-04 -0.28142757D-04
 -0.17205930D-04  0.11351427D-04 -0.11647287D-04  0.18638072D-03  0.29702119D-04
 -0.70620690D-04 -0.68478314D-04 -0.46195066D-04  0.28252626D-04  0.27395543D-04
  0.18480872D-04  0.51446019D-04  0.49885333D-04  0.33652351D-04  0.33225009D-04
 -0.28043253D-04 -0.43914155D-04  0.17765991D-03  0.56945881D-04  0.76724260D-05
  0.11360400D-04  0.88888909D-06 -0.10553595D-05 -0.25981019D-04 -0.50083614D-04
  0.76064633D-04  0.86978770D-04  0.16231167D-03  0.81860046D-04  0.34155743D-04
  0.19564650D-04 -0.53720393D-04 -0.39230099D-04 -0.10849767D-03 -0.48962897D-04
  0.19943910D-04 -0.83321532D-05 -0.11611757D-04 -0.44542920D-05 -0.66093323D-04
 -0.29509078D-04  0.86545758D-04 -0.26759403D-05  0.37323407D-04 -0.17126198D-03
  0.36157906D-04 -0.16150330D-03 -0.88375295D-04 -0.28130085D-04  0.49533075D-04
  0.58941108D-05 -0.32237938D-04 -0.35892217D-05  0.71185552D-05  0.39051133D-04
 -0.28061792D-04 -0.58027432D-05  0.57662680D-04  0.38829457D-04 -0.15552923D-04
  0.62222616D-05  0.19861632D-03  0.35821272D-03  0.52818444D-03 -0.47904332D-03
 -0.45301997D-03 -0.27717083D-04  0.11516455D-03 -0.55382579D-03 -0.16996964D-03
  0.37920488D-03 -0.84210988D-03 -0.27472693D-03  0.86501335D-04 -0.10265597D-03
 -0.36621540D-04  0.83523272D-03 -0.16157128D-02  0.78048005D-03  0.16228712D-02
  0.50497918D-03 -0.16745401D-02  0.63328502D-06 -0.33007957D-04  0.32374672D-04
  0.88211853D-04  0.31998648D-04 -0.49826164D-04 -0.30652363D-04 -0.57132061D-04
 -0.96877046D-04 -0.14662792D-03 -0.18294883D-03 -0.15712865D-03 -0.60324744D-04
  0.26983628D-06 -0.73339951D-05 -0.13755090D-04 -0.23449412D-04 -0.36646867D-04
 -0.49003844D-04 -0.52324680D-04 -0.31990284D-04  0.21105246D-04 -0.23571183D-04
  0.27226579D-03  0.14758626D-04 -0.60263531D-04 -0.58435354D-04 -0.39420144D-04
 -0.83187982D-04 -0.80664359D-04 -0.54415700D-04 -0.19832361D-04 -0.19230719D-04
 -0.12972930D-04  0.33304386D-04  0.74883607D-04  0.19518152D-04  0.24521770D-04
  0.96066656D-04  0.25905329D-04 -0.26448957D-05  0.64785621D-05  0.20601901D-05
  0.25124890D-04  0.26200900D-04 -0.51325790D-04  0.51116366D-04  0.18558513D-05
  0.45854200D-04 -0.68818696D-05 -0.99545750D-05  0.16836445D-04  0.70100558D-05
  0.63069194D-05 -0.18224082D-04 -0.15754001D-04  0.20668360D-04 -0.49143593D-05
  0.19400018D-04  0.69779901D-05  0.14381623D-04  0.55550116D-04 -0.55635234D-04
 -0.82127639D-05  0.26300502D-04  0.24880152D-03  0.28761354D-04 -0.19295085D-03
 -0.81895822D-04 -0.41230627D-05  0.83761450D-04 -0.21820518D-04  0.15892532D-04
  0.41710383D-05  0.12288600D-04 -0.74331195D-04 -0.84037610D-05  0.53172954D-04
  0.26653599D-04 -0.41093539D-05 -0.83189414D-05
MO    3     MO 0.0        OCC NO =    2.0000000  ORB. ENERGY =  -19.182208
  0.11547649D-03  0.21605476D-03  0.37306276D-03  0.60333778D-03  0.91061579D-03
  0.12475718D-02  0.14417314D-02  0.12115952D-02  0.53218570D-03  0.60827947D-04
 -0.81981739D-06  0.50990351D-06  0.25082143D-07 -0.21494250D-03 -0.40202743D-03
 -0.69608877D-03 -0.11302854D-02 -0.17358543D-02 -0.24687833D-02 -0.31411303D-02
 -0.32553168D-02 -0.21723510D-02  0.21394887D-03  0.16342208D-02  0.83910549D-03
 -0.36807036D-05  0.12551838D-03  0.23455885D-03  0.40673336D-03  0.65956165D-03
  0.10166438D-02  0.14466285D-02  0.18628200D-02  0.19582931D-02  0.13728235D-02
 -0.15939709D-03 -0.12904208D-02 -0.12144613D-02  0.59224325D-03 -0.48248104D-03
  0.13169431D-02  0.24153758D-03 -0.27115217D-03 -0.35471878D-03 -0.38807478D-03
 -0.31966602D-03 -0.17091812D-03 -0.47226336D-04  0.38709307D-07 -0.16783530D-01
 -0.21956061D-01 -0.24020700D-01 -0.19786397D-01 -0.10579335D-01 -0.29231729D-02
  0.23959935D-05 -0.49057688D-02 -0.64176819D-02 -0.70211689D-02 -0.57834964D-02
 -0.30923035D-02 -0.85443347D-03  0.70034074D-06  0.22265461D-03  0.29488515D-03
  0.32576887D-03  0.27902203D-03  0.15221708D-03  0.46787538D-04 -0.20369656D-04
  0.15658044D-01  0.20737611D-01  0.22909489D-01  0.19622047D-01  0.10704569D-01
  0.32903040D-02 -0.14324831D-02  0.45791158D-02  0.60646095D-02  0.66997644D-02
  0.57383686D-02  0.31304972D-02  0.96223277D-03 -0.41892245D-03  0.40761120D-04
  0.35302814D-03  0.10054530D-03  0.45483314D-05 -0.19471648D-03 -0.57643148D-04
  0.76462412D-05 -0.21844286D-05 -0.12334659D-05 -0.21009163D-03  0.35712543D-03
 -0.14703380D-03  0.48198847D-04  0.16527268D-04  0.31965723D-03 -0.25830793D-03
  0.51393530D-03 -0.25562737D-03  0.80181979D-04  0.12833857D-04  0.48750059D-03
 -0.10745845D-04  0.83933716D-05  0.23524730D-05  0.96172713D-05  0.48146595D-05
  0.29419227D-05 -0.80454511D-05 -0.14510955D-03  0.66152562D-04 -0.20667616D-04
  0.26683707D-03  0.88298678D-04  0.44803969D-04  0.16849158D-03 -0.28675636D-03
 -0.41635353D-04 -0.19118009D-05 -0.20808367D-04  0.15758788D-04 -0.61467272D-05
  0.19702199D-04  0.80804710D-05  0.11882130D-04  0.42722901D-04 -0.55356834D-04
 -0.36134162D-05  0.66119097D-04  0.12323749D-03  0.20896995D-03  0.31628575D-03
  0.39463227D-03  0.33893649D-03  0.13012431D-03 -0.58205402D-06 -0.13795229D-04
 -0.25873294D-04 -0.44108295D-04 -0.68932679D-04 -0.92176126D-04 -0.98422613D-04
 -0.60173655D-04  0.39698923D-04 -0.41131990D-04  0.33611953D-03 -0.20707078D-04
  0.90799535D-04  0.88045006D-04  0.59394641D-04  0.10550825D-03  0.10230751D-03
  0.69016045D-04  0.23699965D-04  0.22980994D-04  0.15502843D-04 -0.59527672D-04
 -0.12744401D-03 -0.32484058D-04  0.11129115D-03 -0.24506571D-03 -0.79969567D-04
  0.17563947D-04 -0.17362408D-04 -0.64085914D-05 -0.10518070D-04  0.14639649D-04
 -0.41215791D-05  0.17877152D-03  0.53518662D-04 -0.38306775D-05 -0.12720162D-04
  0.43255626D-04 -0.30535465D-04 -0.11861836D-03 -0.38788976D-04  0.57676328D-04
 -0.11938296D-04  0.30029043D-04 -0.18090747D-04  0.41895682D-04  0.10783153D-04
  0.26789667D-04  0.26489161D-04 -0.23553568D-04  0.22039640D-04 -0.62121939D-04
  0.16752259D-04 -0.41295923D-05 -0.17345544D-04  0.53908446D-04 -0.61989328D-04