 Molden2AIM, Version 4.0.0 (06/02/2016)           Time: Thu Jun 28 03:35:45 2018
GAUSSIAN             15 MOL ORBITALS    287 PRIMITIVES        3 NUCLEI
  Mg   1    (CENTRE  1)   0.00000000  0.00000000 -0.51920225  CHARGE = 12.0
  F    2    (CENTRE  2)   0.00000000  3.31493867 -0.51622593  CHARGE =  9.0
  F    3    (CENTRE  3)   0.00000000 -3.31493867 -0.51622593  CHARGE =  9.0
CENTRE ASSIGNMENTS    1  1  1  1  1  1  1  1  1  1  1  1  1  1  1  1  1  1  1  1
CENTRE ASSIGNMENTS    1  1  1  1  1  1  1  1  1  1  1  1  1  1  1  1  1  1  1  1
CENTRE ASSIGNMENTS    1  1  1  1  1  1  1  1  1  1  1  1  1  1  1  1  1  1  1  1
CENTRE ASSIGNMENTS    1  1  1  1  1  1  1  1  1  1  1  1  1  1  1  1  1  1  1  1
CENTRE ASSIGNMENTS    1  1  1  1  1  1  1  1  1  1  1  1  1  1  1  1  1  1  1  1
CENTRE ASSIGNMENTS    1  1  1  1  1  1  1  1  1  1  1  1  1  1  1  1  1  1  1  1
CENTRE ASSIGNMENTS    1  1  1  1  1  1  1  1  1  1  1  1  1  1  1  1  1  2  2  2
CENTRE ASSIGNMENTS    2  2  2  2  2  2  2  2  2  2  2  2  2  2  2  2  2  2  2  2
CENTRE ASSIGNMENTS    2  2  2  2  2  2  2  2  2  2  2  2  2  2  2  2  2  2  2  2
CENTRE ASSIGNMENTS    2  2  2  2  2  2  2  2  2  2  2  2  2  2  2  2  2  2  2  2
CENTRE ASSIGNMENTS    2  2  2  2  2  2  2  2  2  2  2  2  3  3  3  3  3  3  3  3
CENTRE ASSIGNMENTS    3  3  3  3  3  3  3  3  3  3  3  3  3  3  3  3  3  3  3  3
CENTRE ASSIGNMENTS    3  3  3  3  3  3  3  3  3  3  3  3  3  3  3  3  3  3  3  3
CENTRE ASSIGNMENTS    3  3  3  3  3  3  3  3  3  3  3  3  3  3  3  3  3  3  3  3
CENTRE ASSIGNMENTS    3  3  3  3  3  3  3
TYPE ASSIGNMENTS      1  1  1  1  1  1  1  1  1  1  1  1  1  1  1  1  1  1  1  1
TYPE ASSIGNMENTS      1  1  1  1  1  1  1  1  1  1  1  1  1  1  1  1  1  1  1  1
TYPE ASSIGNMENTS      1  1  2  2  2  2  2  2  2  2  3  3  3  3  3  3  3  3  4  4
TYPE ASSIGNMENTS      4  4  4  4  4  4  2  2  2  2  2  2  2  2  3  3  3  3  3  3
TYPE ASSIGNMENTS      3  3  4  4  4  4  4  4  4  4  2  3  4  2  3  4  2  3  4  5
TYPE ASSIGNMENTS      6  7  8  9 10  5  6  7  8  9 10  5  6  7  8  9 10 11 12 13
TYPE ASSIGNMENTS     17 14 15 18 19 16 20 11 12 13 17 14 15 18 19 16 20  1  1  1
TYPE ASSIGNMENTS      1  1  1  1  1  1  1  1  1  1  1  1  1  1  1  1  2  2  2  3
TYPE ASSIGNMENTS      3  3  4  4  4  2  3  4  2  3  4  2  3  4  5  6  7  8  9 10
TYPE ASSIGNMENTS      5  6  7  8  9 10  5  6  7  8  9 10 11 12 13 17 14 15 18 19
TYPE ASSIGNMENTS     16 20 11 12 13 17 14 15 18 19 16 20  1  1  1  1  1  1  1  1
TYPE ASSIGNMENTS      1  1  1  1  1  1  1  1  1  1  1  2  2  2  3  3  3  4  4  4
TYPE ASSIGNMENTS      2  3  4  2  3  4  2  3  4  5  6  7  8  9 10  5  6  7  8  9
TYPE ASSIGNMENTS     10  5  6  7  8  9 10 11 12 13 17 14 15 18 19 16 20 11 12 13
TYPE ASSIGNMENTS     17 14 15 18 19 16 20
EXPONENTS  0.1649000D+06 0.2471000D+05 0.5628000D+04 0.1596000D+04 0.5210000D+03
EXPONENTS  0.1880000D+03 0.7301000D+02 0.2990000D+02 0.1254000D+02 0.4306000D+01
EXPONENTS  0.1826000D+01 0.7417000D+00 0.7612000D-01 0.1649000D+06 0.2471000D+05
EXPONENTS  0.5628000D+04 0.1596000D+04 0.5210000D+03 0.1880000D+03 0.7301000D+02
EXPONENTS  0.2990000D+02 0.1254000D+02 0.4306000D+01 0.1826000D+01 0.7417000D+00
EXPONENTS  0.7612000D-01 0.1649000D+06 0.2471000D+05 0.5628000D+04 0.1596000D+04
EXPONENTS  0.5210000D+03 0.1880000D+03 0.7301000D+02 0.2990000D+02 0.1254000D+02
EXPONENTS  0.4306000D+01 0.1826000D+01 0.7417000D+00 0.7612000D-01 0.1457000D+00
EXPONENTS  0.3310000D-01 0.1290000D-01 0.3169000D+03 0.7486000D+02 0.2372000D+02
EXPONENTS  0.8669000D+01 0.3363000D+01 0.1310000D+01 0.4911000D+00 0.2364000D+00
EXPONENTS  0.3169000D+03 0.7486000D+02 0.2372000D+02 0.8669000D+01 0.3363000D+01
EXPONENTS  0.1310000D+01 0.4911000D+00 0.2364000D+00 0.3169000D+03 0.7486000D+02
EXPONENTS  0.2372000D+02 0.8669000D+01 0.3363000D+01 0.1310000D+01 0.4911000D+00
EXPONENTS  0.2364000D+00 0.3169000D+03 0.7486000D+02 0.2372000D+02 0.8669000D+01
EXPONENTS  0.3363000D+01 0.1310000D+01 0.4911000D+00 0.2364000D+00 0.3169000D+03
EXPONENTS  0.7486000D+02 0.2372000D+02 0.8669000D+01 0.3363000D+01 0.1310000D+01
EXPONENTS  0.4911000D+00 0.2364000D+00 0.3169000D+03 0.7486000D+02 0.2372000D+02
EXPONENTS  0.8669000D+01 0.3363000D+01 0.1310000D+01 0.4911000D+00 0.2364000D+00
EXPONENTS  0.8733000D-01 0.8733000D-01 0.8733000D-01 0.3237000D-01 0.3237000D-01
EXPONENTS  0.3237000D-01 0.7450000D-02 0.7450000D-02 0.7450000D-02 0.1260000D+00
EXPONENTS  0.1260000D+00 0.1260000D+00 0.1260000D+00 0.1260000D+00 0.1260000D+00
EXPONENTS  0.2940000D+00 0.2940000D+00 0.2940000D+00 0.2940000D+00 0.2940000D+00
EXPONENTS  0.2940000D+00 0.4680000D-01 0.4680000D-01 0.4680000D-01 0.4680000D-01
EXPONENTS  0.4680000D-01 0.4680000D-01 0.2520000D+00 0.2520000D+00 0.2520000D+00
EXPONENTS  0.2520000D+00 0.2520000D+00 0.2520000D+00 0.2520000D+00 0.2520000D+00
EXPONENTS  0.2520000D+00 0.2520000D+00 0.9400000D-01 0.9400000D-01 0.9400000D-01
EXPONENTS  0.9400000D-01 0.9400000D-01 0.9400000D-01 0.9400000D-01 0.9400000D-01
EXPONENTS  0.9400000D-01 0.9400000D-01 0.1950000D+05 0.2923000D+04 0.6645000D+03
EXPONENTS  0.1875000D+03 0.6062000D+02 0.2142000D+02 0.7950000D+01 0.8815000D+00
EXPONENTS  0.1950000D+05 0.2923000D+04 0.6645000D+03 0.1875000D+03 0.6062000D+02
EXPONENTS  0.2142000D+02 0.7950000D+01 0.8815000D+00 0.2257000D+01 0.3041000D+00
EXPONENTS  0.9158000D-01 0.4388000D+02 0.9926000D+01 0.2930000D+01 0.4388000D+02
EXPONENTS  0.9926000D+01 0.2930000D+01 0.4388000D+02 0.9926000D+01 0.2930000D+01
EXPONENTS  0.9132000D+00 0.9132000D+00 0.9132000D+00 0.2672000D+00 0.2672000D+00
EXPONENTS  0.2672000D+00 0.7361000D-01 0.7361000D-01 0.7361000D-01 0.3107000D+01
EXPONENTS  0.3107000D+01 0.3107000D+01 0.3107000D+01 0.3107000D+01 0.3107000D+01
EXPONENTS  0.8550000D+00 0.8550000D+00 0.8550000D+00 0.8550000D+00 0.8550000D+00
EXPONENTS  0.8550000D+00 0.2920000D+00 0.2920000D+00 0.2920000D+00 0.2920000D+00
EXPONENTS  0.2920000D+00 0.2920000D+00 0.1917000D+01 0.1917000D+01 0.1917000D+01
EXPONENTS  0.1917000D+01 0.1917000D+01 0.1917000D+01 0.1917000D+01 0.1917000D+01
EXPONENTS  0.1917000D+01 0.1917000D+01 0.7240000D+00 0.7240000D+00 0.7240000D+00
EXPONENTS  0.7240000D+00 0.7240000D+00 0.7240000D+00 0.7240000D+00 0.7240000D+00
EXPONENTS  0.7240000D+00 0.7240000D+00 0.1950000D+05 0.2923000D+04 0.6645000D+03
EXPONENTS  0.1875000D+03 0.6062000D+02 0.2142000D+02 0.7950000D+01 0.8815000D+00
EXPONENTS  0.1950000D+05 0.2923000D+04 0.6645000D+03 0.1875000D+03 0.6062000D+02
EXPONENTS  0.2142000D+02 0.7950000D+01 0.8815000D+00 0.2257000D+01 0.3041000D+00
EXPONENTS  0.9158000D-01 0.4388000D+02 0.9926000D+01 0.2930000D+01 0.4388000D+02
EXPONENTS  0.9926000D+01 0.2930000D+01 0.4388000D+02 0.9926000D+01 0.2930000D+01
EXPONENTS  0.9132000D+00 0.9132000D+00 0.9132000D+00 0.2672000D+00 0.2672000D+00
EXPONENTS  0.2672000D+00 0.7361000D-01 0.7361000D-01 0.7361000D-01 0.3107000D+01
EXPONENTS  0.3107000D+01 0.3107000D+01 0.3107000D+01 0.3107000D+01 0.3107000D+01
EXPONENTS  0.8550000D+00 0.8550000D+00 0.8550000D+00 0.8550000D+00 0.8550000D+00
EXPONENTS  0.8550000D+00 0.2920000D+00 0.2920000D+00 0.2920000D+00 0.2920000D+00
EXPONENTS  0.2920000D+00 0.2920000D+00 0.1917000D+01 0.1917000D+01 0.1917000D+01
EXPONENTS  0.1917000D+01 0.1917000D+01 0.1917000D+01 0.1917000D+01 0.1917000D+01
EXPONENTS  0.1917000D+01 0.1917000D+01 0.7240000D+00 0.7240000D+00 0.7240000D+00
EXPONENTS  0.7240000D+00 0.7240000D+00 0.7240000D+00 0.7240000D+00 0.7240000D+00
EXPONENTS  0.7240000D+00 0.7240000D+00
MO    1     MO 0.0        OCC NO =    2.0000000  ORB. ENERGY =  -47.615710
  0.42616348D+00  0.79680326D+00  0.13735102D+01  0.22152651D+01  0.33248013D+01
  0.44560445D+01  0.48976098D+01  0.36657504D+01  0.12584973D+01  0.70937120D-01
 -0.49462273D-02  0.11748141D-02  0.73224608D-04 -0.96966834D-03 -0.18189108D-02
 -0.31288457D-02 -0.51058942D-02 -0.77485570D-02 -0.10973308D-01 -0.13267630D-01
 -0.13101236D-01 -0.65524165D-02  0.36690223D-02  0.58591087D-02  0.19122864D-02
 -0.11123197D-04  0.52189856D-03  0.97825262D-03  0.16848909D-02  0.27465707D-02
  0.41812688D-02  0.59253586D-02  0.72408750D-02  0.72501293D-02  0.37857413D-02
 -0.23571407D-02 -0.42618378D-02 -0.31238689D-02  0.14240751D-02 -0.63811394D-03
 -0.80772913D-04  0.34959823D-05  0.14689832D-17  0.18985834D-17  0.20470981D-17
  0.16875487D-17  0.92135281D-18  0.29542371D-18  0.33272572D-19 -0.38181771D-21
 -0.94697377D-15 -0.12239137D-14 -0.13196531D-14 -0.10878711D-14 -0.59394615D-15
 -0.19044363D-15 -0.21449022D-16  0.24613716D-18 -0.19306735D-06 -0.24952938D-06
 -0.26904855D-06 -0.22179325D-06 -0.12109270D-06 -0.38827314D-07 -0.43729890D-08
  0.50182013D-10 -0.37462653D-17 -0.48416186D-17 -0.52986992D-17 -0.44269244D-17
 -0.24766125D-17 -0.83892259D-18 -0.13129616D-18  0.24798723D-18  0.98432736D-15
  0.12721303D-14  0.13922278D-14  0.11631698D-14  0.65072739D-15  0.22042604D-15
  0.34497930D-16 -0.65158390D-16 -0.15378857D-05 -0.19875410D-05 -0.21751779D-05
 -0.18173041D-05 -0.10166784D-05 -0.34438751D-06 -0.53898606D-07  0.10180165D-06
 -0.33905287D-20 -0.70258564D-16  0.87644203D-06  0.11315234D-20  0.56253004D-19
  0.18277859D-07 -0.51439707D-22  0.79065745D-20 -0.37183066D-09 -0.78150142D-04
  0.15629992D-03 -0.78149778D-04 -0.38800533D-21  0.48586017D-22 -0.43318912D-19
  0.62450904D-04 -0.12490210D-03  0.62451198D-04 -0.36530281D-20  0.29518231D-20
 -0.58919750D-19  0.28821916D-06 -0.57647128D-06  0.28825212D-06  0.83379452D-22
  0.99147933D-23 -0.53272906D-20 -0.29999868D-19 -0.12445582D-16 -0.15917837D-06
  0.12118714D-18  0.18032911D-16 -0.15917849D-06 -0.31187535D-19  0.19303834D-16
  0.63671361D-06  0.18546771D-20  0.17073058D-21 -0.58431757D-18 -0.17626127D-07
 -0.74430824D-21  0.77618052D-18 -0.17626149D-07  0.23211651D-21  0.97677220D-18
  0.70504532D-07 -0.19576795D-22  0.51677306D-04  0.96328738D-04  0.16330089D-03
  0.24728568D-03  0.30923161D-03  0.26621961D-03  0.10234454D-03 -0.44347563D-06
 -0.33877894D-04 -0.63616686D-04 -0.10832824D-03 -0.16969555D-03 -0.22741201D-03
 -0.24461227D-03 -0.14686489D-03  0.96584529D-04 -0.30094820D-04 -0.24015741D-03
 -0.62000673D-03 -0.14194778D-18 -0.13882183D-18 -0.91725451D-19  0.17846700D-03
  0.17453682D-03  0.11532386D-03 -0.67054081D-06 -0.65577426D-06 -0.43329778D-06
  0.12457076D-18 -0.11357649D-03  0.63108131D-06 -0.15825998D-18  0.12808364D-03
 -0.78171917D-06 -0.56529363D-21  0.98702713D-04 -0.96470141D-07 -0.51048706D-04
  0.10209238D-03 -0.51043673D-04  0.97110664D-19  0.21013268D-20 -0.56147813D-07
  0.35191553D-04 -0.70380731D-04  0.35189178D-04 -0.85469189D-19  0.49491038D-21
 -0.25768811D-06 -0.32380752D-04  0.64759795D-04 -0.32379043D-04  0.16306075D-18
 -0.92126971D-21  0.83410042D-06 -0.25417650D-18  0.52272041D-03 -0.16296356D-05
  0.10219276D-17 -0.78409246D-03 -0.16299565D-05 -0.25939813D-18 -0.78406877D-03
  0.65188632D-05 -0.38276762D-19  0.78172276D-19 -0.13508819D-03  0.48492849D-06
 -0.31503929D-18  0.20263572D-03  0.48495136D-06  0.80522461D-19  0.20262884D-03
 -0.19397368D-05  0.81514660D-20  0.51677306D-04  0.96328738D-04  0.16330089D-03
  0.24728568D-03  0.30923161D-03  0.26621961D-03  0.10234454D-03 -0.44347563D-06
 -0.33877894D-04 -0.63616686D-04 -0.10832824D-03 -0.16969555D-03 -0.22741201D-03
 -0.24461227D-03 -0.14686489D-03  0.96584529D-04 -0.30094820D-04 -0.24015741D-03
 -0.62000673D-03 -0.13531620D-18 -0.13233629D-18 -0.87440184D-19 -0.17846700D-03
 -0.17453682D-03 -0.11532386D-03 -0.67054081D-06 -0.65577426D-06 -0.43329778D-06
  0.13083533D-18  0.11357649D-03  0.63108131D-06 -0.16164217D-18 -0.12808364D-03
 -0.78171917D-06  0.51150158D-22 -0.98702713D-04 -0.96470141D-07 -0.51048706D-04
  0.10209238D-03 -0.51043673D-04 -0.88714776D-19  0.77481545D-20  0.56147813D-07
  0.35191553D-04 -0.70380731D-04  0.35189178D-04  0.87554200D-19 -0.12249382D-20
  0.25768811D-06 -0.32380752D-04  0.64759795D-04 -0.32379043D-04 -0.16574309D-18
  0.44098178D-21 -0.83410042D-06 -0.26234594D-18 -0.52272041D-03 -0.16296356D-05
  0.10454624D-17  0.78409246D-03 -0.16299565D-05 -0.25842453D-18  0.78406877D-03
  0.65188632D-05  0.54881081D-20  0.81013435D-19  0.13508819D-03  0.48492849D-06
 -0.32374349D-18 -0.20263572D-03  0.48495136D-06  0.80703182D-19 -0.20262884D-03
 -0.19397368D-05 -0.13993146D-20
MO    2     MO 0.0        OCC NO =    2.0000000  ORB. ENERGY =  -25.158570
  0.46602118D-14  0.87132571D-14  0.15019702D-13  0.24224517D-13  0.36357593D-13
  0.48728040D-13  0.53556674D-13  0.40085963D-13  0.13762005D-13  0.77571640D-15
 -0.54088320D-16  0.12846907D-16  0.80073071D-18 -0.10711917D-13 -0.20093490D-13
 -0.34564328D-13 -0.56404765D-13 -0.85598235D-13 -0.12122203D-12 -0.14656738D-12
 -0.14472923D-12 -0.72384482D-13  0.40531654D-13  0.64725518D-13  0.21125010D-13
 -0.12287785D-15  0.67640485D-14  0.12678610D-13  0.21836971D-13  0.35596836D-13
  0.54191191D-13  0.76795408D-13  0.93845112D-13  0.93965053D-13  0.49064971D-13
 -0.30549642D-13 -0.55235404D-13 -0.40486795D-13  0.18456676D-13  0.20365802D-13
  0.15276863D-14 -0.39638747D-15  0.45399000D-15  0.58675814D-15  0.63265669D-15
  0.52153777D-15  0.28474454D-15  0.91300845D-16  0.10282905D-16 -0.11800095D-18
  0.17433588D-02  0.22531993D-02  0.24294535D-02  0.20027477D-02  0.10934424D-02
  0.35060272D-03  0.39487197D-04 -0.45313332D-06  0.34939825D-15  0.45157882D-15
  0.48690310D-15  0.40138413D-15  0.21914413D-15  0.70266648D-16  0.79138946D-17
 -0.90815495D-19 -0.48207468D-15 -0.62302627D-15 -0.68184404D-15 -0.56966283D-15
 -0.31869397D-15 -0.10795373D-15 -0.16895374D-16  0.31911345D-16 -0.21137678D-02
 -0.27318026D-02 -0.29897027D-02 -0.24978183D-02 -0.13973873D-02 -0.47334808D-03
 -0.74081669D-04  0.13992266D-03 -0.64718116D-15 -0.83640747D-15 -0.91536983D-15
 -0.76476752D-15 -0.42784395D-15 -0.14492697D-15 -0.22681896D-16  0.42840710D-16
 -0.21157709D-16  0.85475210D-04  0.11607335D-16  0.84116723D-17 -0.71501867D-06
  0.41624649D-18 -0.13341899D-17 -0.52797775D-07 -0.39783767D-20 -0.11268392D-14
  0.22564402D-14 -0.11296010D-14 -0.12353913D-19 -0.29669434D-20 -0.62085994D-08
 -0.42118119D-14  0.84231615D-14 -0.42113495D-14 -0.83123279D-19  0.54942829D-21
  0.30465421D-07  0.23433115D-16 -0.47209212D-16  0.23776097D-16 -0.15138587D-20
 -0.21453968D-22  0.83090519D-08  0.82138093D-19  0.35546743D-04 -0.62453523D-17
 -0.32446998D-18 -0.53320040D-04 -0.62473964D-17  0.78055699D-19 -0.53320191D-04
  0.24983453D-16 -0.24900389D-20  0.19210982D-20 -0.17640477D-05 -0.26675298D-20
 -0.78057165D-20  0.26460691D-05 -0.80709750D-21  0.20424218D-20  0.26460741D-05
  0.88096869D-20  0.10014927D-20  0.42081316D+00  0.78441396D+00  0.13297745D+01
  0.20136705D+01  0.25181020D+01  0.21678513D+01  0.83340118D+00 -0.36112638D-02
  0.28129696D-03  0.52822587D-03  0.89947755D-03  0.14090263D-02  0.18882610D-02
  0.20310792D-02  0.12194573D-02 -0.80196644D-03  0.42401267D-01  0.54044225D-03
 -0.18070357D-03  0.25325420D-17  0.24767708D-17  0.16365072D-17 -0.23403480D-02
 -0.22888093D-02 -0.15123131D-02 -0.24205585D-05 -0.23672533D-05 -0.15641444D-05
 -0.74643352D-18  0.24704408D-03  0.11950230D-06  0.56142484D-18  0.75572110D-04
  0.27175090D-06  0.32419745D-19  0.27078885D-04 -0.35777479D-08 -0.13966908D-03
  0.27933766D-03 -0.13966858D-03  0.22379666D-17 -0.28331458D-17  0.85668692D-06
  0.30689117D-04 -0.61378201D-04  0.30689085D-04  0.49250221D-18  0.37698294D-18
 -0.14418597D-06  0.71630817D-05 -0.14325961D-04  0.71628795D-05 -0.56046261D-18
 -0.20046948D-19 -0.23535354D-06  0.51803264D-18 -0.80757506D-04  0.35680122D-06
 -0.12967849D-17  0.12113833D-03  0.37843500D-06 -0.25731301D-18  0.12113419D-03
 -0.14488387D-05 -0.52597495D-18 -0.11181137D-18  0.25293642D-04 -0.11679263D-06
  0.50984541D-18 -0.37941031D-04 -0.11857370D-06 -0.17441130D-18 -0.37939895D-04
  0.46895159D-06 -0.57639860D-19 -0.42081316D+00 -0.78441396D+00 -0.13297745D+01
 -0.20136705D+01 -0.25181020D+01 -0.21678513D+01 -0.83340118D+00  0.36112638D-02
 -0.28129696D-03 -0.52822587D-03 -0.89947755D-03 -0.14090263D-02 -0.18882610D-02
 -0.20310792D-02 -0.12194573D-02  0.80196644D-03 -0.42401267D-01 -0.54044225D-03
  0.18070357D-03  0.70005148D-17  0.68463506D-17  0.45236733D-17 -0.23403480D-02
 -0.22888093D-02 -0.15123131D-02  0.24205585D-05  0.23672533D-05  0.15641444D-05
 -0.14934910D-17  0.24704408D-03 -0.11950230D-06  0.53537022D-18  0.75572110D-04
 -0.27175090D-06  0.19437527D-19  0.27078885D-04  0.35777479D-08  0.13966908D-03
 -0.27933766D-03  0.13966858D-03  0.30821147D-17  0.38428622D-17  0.85668692D-06
 -0.30689117D-04  0.61378201D-04 -0.30689085D-04 -0.12205203D-17 -0.36729061D-18
 -0.14418597D-06 -0.71630817D-05  0.14325961D-04 -0.71628795D-05  0.53068519D-18
  0.27009149D-19 -0.23535354D-06 -0.89620482D-19 -0.80757506D-04 -0.35680122D-06
  0.31467288D-18  0.12113833D-03 -0.37843500D-06 -0.45811430D-19  0.12113419D-03
  0.14488387D-05 -0.27700296D-18  0.23950059D-19  0.25293642D-04  0.11679263D-06
  0.21694439D-19 -0.37941031D-04  0.11857370D-06 -0.93544615D-19 -0.37939895D-04
 -0.46895159D-06  0.67916630D-19
MO    3     MO 0.0        OCC NO =    2.0000000  ORB. ENERGY =  -25.158569
  0.55891528D-05  0.10450110D-04  0.18013647D-04  0.29053299D-04  0.43604916D-04
  0.58441220D-04  0.64232368D-04  0.48076479D-04  0.16505248D-04  0.93034346D-06
 -0.64869989D-07  0.15407739D-07  0.96034398D-09 -0.99423958D-05 -0.18650017D-04
 -0.32081301D-04 -0.52352768D-04 -0.79449042D-04 -0.11251370D-03 -0.13603830D-03
 -0.13433219D-03 -0.67184537D-04  0.37619947D-04  0.60075776D-04  0.19607435D-04
 -0.11405057D-06  0.92479456D-05  0.17334455D-04  0.29855954D-04  0.48668723D-04
  0.74091307D-04  0.10499625D-03  0.12830696D-03  0.12847095D-03  0.67082633D-04
 -0.41768096D-04 -0.75518975D-04 -0.55354376D-04  0.25234346D-04  0.14214328D-04
  0.34068772D-04 -0.29062060D-05  0.66924816D-19  0.86496797D-19  0.93262920D-19
  0.76882352D-19  0.41975542D-19  0.13459090D-19  0.15158517D-20 -0.17395080D-22
 -0.12858229D-12 -0.16618583D-12 -0.17918554D-12 -0.14771365D-12 -0.80647381D-13
 -0.25858877D-13 -0.29123977D-14  0.33421072D-16  0.32490056D-05  0.41991684D-05
  0.45276440D-05  0.37324150D-05  0.20377907D-05  0.65339975D-06  0.73590202D-07
 -0.84448062D-09 -0.78040253D-19 -0.10085808D-18 -0.11037975D-18 -0.92219388D-19
 -0.51591506D-19 -0.17475999D-19 -0.27350934D-20  0.51659412D-20  0.13619649D-12
  0.17601835D-12  0.19263564D-12  0.16094203D-12  0.90037918D-13  0.30499257D-13
  0.47733073D-14 -0.90156429D-14 -0.37463454D-05 -0.48417221D-05 -0.52988125D-05
 -0.44270190D-05 -0.24766655D-05 -0.83894052D-06 -0.13129897D-06  0.24799254D-06
  0.10194171D-19 -0.48267228D-13  0.50950348D-07 -0.19463455D-21 -0.15180532D-15
 -0.45014885D-08  0.62918867D-23  0.24288758D-16  0.13748189D-09  0.60080256D-05
 -0.12016088D-04  0.60080626D-05 -0.11309219D-19  0.20525891D-21 -0.23848632D-16
 -0.19322388D-04  0.38644450D-04 -0.19322062D-04 -0.51294472D-19 -0.34839679D-20
  0.50615248D-17 -0.10290574D-05  0.20581199D-05 -0.10290624D-05  0.24940376D-20
  0.12927055D-21  0.58901731D-18 -0.27612638D-20 -0.40246189D-14 -0.78723137D-07
  0.11495225D-19  0.60359175D-14 -0.78703761D-07 -0.32114335D-20  0.60379393D-14
  0.31487317D-06 -0.60328566D-20 -0.30479643D-21 -0.50159514D-15  0.20620212D-08
  0.12416003D-20  0.75287486D-15  0.20624873D-08 -0.32721097D-21  0.75191055D-15
 -0.82485511D-08 -0.19968321D-21  0.42079252D+00  0.78437549D+00  0.13297093D+01
  0.20135718D+01  0.25179786D+01  0.21677450D+01  0.83336031D+00 -0.36110867D-02
  0.29572973D-03  0.55532805D-03  0.94562790D-03  0.14813205D-02  0.19851438D-02
  0.21352898D-02  0.12820252D-02 -0.84311369D-03  0.42398346D-01  0.69642297D-03
 -0.12051831D-03  0.25336974D-17  0.24779007D-17  0.16372538D-17 -0.22624653D-02
 -0.22126417D-02 -0.14619859D-02 -0.27455667D-05 -0.26851043D-05 -0.17741619D-05
 -0.39212157D-18  0.19524278D-03  0.46087242D-06  0.74311538D-19 -0.14459396D-04
 -0.38255610D-06 -0.15300336D-19  0.55027187D-05  0.24286337D-07 -0.10946138D-03
  0.21892203D-03 -0.10946065D-03  0.16893763D-17 -0.28108878D-17  0.61940808D-06
  0.15654486D-04 -0.31308641D-04  0.15654156D-04  0.49708781D-18  0.35951418D-18
 -0.16980728D-06  0.10769287D-05 -0.21543623D-05  0.10774336D-05 -0.55507715D-19
 -0.13443834D-19  0.31975228D-06  0.10539975D-18 -0.10358767D-04 -0.36445642D-06
  0.41858484D-18  0.15534207D-04 -0.34284583D-06 -0.73478410D-18  0.15542094D-04
  0.14362151D-05 -0.50657477D-18  0.19027386D-19  0.23290244D-05  0.12609177D-06
 -0.31018336D-19 -0.34922374D-05  0.12429835D-06 -0.26063821D-19 -0.34948358D-05
 -0.50257366D-06 -0.64409836D-19  0.42079252D+00  0.78437549D+00  0.13297093D+01
  0.20135718D+01  0.25179786D+01  0.21677450D+01  0.83336031D+00 -0.36110867D-02
  0.29572973D-03  0.55532805D-03  0.94562790D-03  0.14813205D-02  0.19851438D-02
  0.21352898D-02  0.12820252D-02 -0.84311369D-03  0.42398346D-01  0.69642297D-03
 -0.12051831D-03 -0.67445192D-17 -0.65959924D-17 -0.43582511D-17  0.22624653D-02
  0.22126417D-02  0.14619859D-02 -0.27455667D-05 -0.26851043D-05 -0.17741619D-05
  0.10597232D-17 -0.19524278D-03  0.46087242D-06 -0.15766565D-18  0.14459396D-04
 -0.38255610D-06  0.11819611D-19 -0.55027187D-05  0.24286337D-07 -0.10946138D-03
  0.21892203D-03 -0.10946065D-03 -0.12464634D-17 -0.38200834D-17 -0.61940808D-06
  0.15654486D-04 -0.31308641D-04  0.15654156D-04  0.34733916D-18  0.35563019D-18
  0.16980728D-06  0.10769287D-05 -0.21543623D-05  0.10774336D-05 -0.82819727D-19
 -0.24808728D-19 -0.31975228D-06 -0.14334145D-18  0.10358767D-04 -0.36445642D-06
 -0.98020290D-19 -0.15534207D-04 -0.34284583D-06  0.52804463D-18 -0.15542094D-04
  0.14362151D-05  0.32606947D-18  0.19252306D-19 -0.23290244D-05  0.12609177D-06
 -0.49669214D-19  0.34922374D-05  0.12429835D-06 -0.80877023D-20  0.34948358D-05
 -0.50257366D-06 -0.81475747D-19
MO    4     MO 0.0        OCC NO =    2.0000000  ORB. ENERGY =   -3.366394
 -0.28003663D-02 -0.52358804D-02 -0.90254842D-02 -0.14556746D-01 -0.21847629D-01
 -0.29281150D-01 -0.32182723D-01 -0.24088043D-01 -0.82697219D-02 -0.46613549D-03
  0.32502194D-04 -0.77198304D-05 -0.48116682D-06 -0.10176959D+00 -0.19090012D+00
 -0.32838169D+00 -0.53587884D+00 -0.81323419D+00 -0.11516814D+01 -0.13924774D+01
 -0.13750138D+01 -0.68769567D+00  0.38507484D+00  0.61493095D+00  0.20070017D+00
 -0.11674127D-02 -0.26540599D-02 -0.49748001D-02 -0.85683343D-02 -0.13967394D-01
 -0.21263400D-01 -0.30132784D-01 -0.36822703D-01 -0.36869765D-01 -0.19251986D-01
  0.11986990D-01  0.21673125D-01  0.15886104D-01 -0.72419829D-02  0.95509303D-02
  0.10693966D-02 -0.10333035D-03  0.11123927D-14  0.14377089D-14  0.15501722D-14
  0.12779021D-14  0.69769761D-15  0.22371063D-15  0.25195771D-16 -0.28913279D-18
 -0.93271061D-13 -0.12054793D-12 -0.12997767D-12 -0.10714857D-12 -0.58500024D-13
 -0.18757520D-13 -0.21125960D-14  0.24242988D-16 -0.17645933D-03 -0.22806439D-03
 -0.24590449D-03 -0.20271417D-03 -0.11067608D-03 -0.35487315D-04 -0.39968162D-05
  0.45865261D-07 -0.21684069D-16 -0.28024174D-16 -0.30669840D-16 -0.25623848D-16
 -0.14335086D-16 -0.48558373D-17 -0.75996618D-18  0.14353955D-17  0.96803353D-13
  0.12510724D-12  0.13691818D-12  0.11439156D-12  0.63995573D-13  0.21677727D-13
  0.33926877D-14 -0.64079806D-14  0.11125230D-04  0.14378085D-04  0.15735471D-04
  0.13146574D-04  0.73547607D-05  0.24913364D-05  0.38990832D-06 -0.73644413D-06
  0.27221182D-19 -0.12083108D-13 -0.21054855D-05 -0.29377044D-19 -0.19508565D-15
 -0.74195038D-07  0.65042351D-21  0.65352270D-17  0.26736793D-08  0.16489756D-03
 -0.32979426D-03  0.16489670D-03  0.17911271D-18  0.11772987D-19 -0.51406322D-17
 -0.85055220D-05  0.17011383D-04 -0.85058611D-05 -0.88727311D-18  0.34382427D-18
 -0.28892046D-17  0.49022296D-06 -0.98036233D-06  0.49013937D-06 -0.67504309D-20
 -0.25546078D-20  0.13912678D-18  0.63825847D-19 -0.13864952D-14  0.26449411D-06
 -0.83592817D-19  0.20865820D-14  0.26446093D-06 -0.10788472D-18  0.20729036D-14
 -0.10579433D-05  0.38280444D-19  0.27742519D-20 -0.17865354D-15  0.39615103D-07
 -0.20595509D-19  0.26913183D-15  0.39614827D-07  0.12272753D-19  0.26682880D-15
 -0.15846014D-06 -0.53320814D-20  0.93047497D-04  0.17344456D-03  0.29403118D-03
  0.44524986D-03  0.55678651D-03  0.47934132D-03  0.18427630D-03 -0.79849939D-06
 -0.52729779D-03 -0.99017186D-03 -0.16860919D-02 -0.26412530D-02 -0.35395898D-02
 -0.38073060D-02 -0.22859015D-02  0.15033050D-02  0.34877694D-03  0.17750392D-03
  0.20266291D-02 -0.11275913D-17 -0.11027597D-17 -0.72863994D-18 -0.60282974D-02
 -0.58955432D-02 -0.38954346D-02 -0.43657299D-05 -0.42695885D-05 -0.28210976D-05
 -0.27843833D-18 -0.20363927D-02 -0.30793554D-05  0.16340064D-18 -0.83824374D-04
  0.14969417D-05  0.56289301D-19 -0.38388795D-03  0.12105088D-06 -0.82081439D-03
  0.16416324D-02 -0.82081799D-03  0.17734857D-17  0.67935338D-18  0.41504786D-05
 -0.37638142D-03  0.75275827D-03 -0.37637684D-03 -0.95563812D-18 -0.44803257D-18
  0.25381298D-05  0.72783941D-04 -0.14556490D-03  0.72780957D-04 -0.19148323D-18
  0.57615111D-19 -0.15831380D-05 -0.41042970D-18 -0.15486346D-02  0.32031796D-05
  0.87902520D-18  0.23229669D-02  0.32152509D-05  0.35226391D-18  0.23229370D-02
 -0.12824790D-04  0.16078564D-17 -0.78488657D-19  0.20537048D-03 -0.71693833D-06
  0.33586646D-18 -0.30806022D-03 -0.71791523D-06 -0.10040049D-18 -0.30805120D-03
  0.28687302D-05  0.42728342D-19  0.93047497D-04  0.17344456D-03  0.29403118D-03
  0.44524986D-03  0.55678651D-03  0.47934132D-03  0.18427630D-03 -0.79849939D-06
 -0.52729779D-03 -0.99017186D-03 -0.16860919D-02 -0.26412530D-02 -0.35395898D-02
 -0.38073060D-02 -0.22859015D-02  0.15033050D-02  0.34877694D-03  0.17750392D-03
  0.20266291D-02  0.23011538D-17  0.22504781D-17  0.14869861D-17  0.60282974D-02
  0.58955432D-02  0.38954346D-02 -0.43657299D-05 -0.42695885D-05 -0.28210976D-05
 -0.57320959D-18  0.20363927D-02 -0.30793554D-05  0.28123984D-18  0.83824374D-04
  0.14969417D-05  0.70173192D-19  0.38388795D-03  0.12105088D-06 -0.82081439D-03
  0.16416324D-02 -0.82081799D-03  0.21102302D-17  0.17517779D-18 -0.41504786D-05
 -0.37638142D-03  0.75275827D-03 -0.37637684D-03 -0.14162519D-17 -0.77424608D-19
 -0.25381298D-05  0.72783941D-04 -0.14556490D-03  0.72780957D-04  0.31253755D-18
 -0.54505648D-19  0.15831380D-05  0.61557303D-18  0.15486346D-02  0.32031796D-05
 -0.29151363D-17 -0.23229669D-02  0.32152509D-05  0.10684172D-17 -0.23229370D-02
 -0.12824790D-04 -0.46996764D-19 -0.11975665D-18 -0.20537048D-03 -0.71693833D-06
  0.58303540D-18  0.30806022D-03 -0.71791523D-06 -0.22376545D-18  0.30805120D-03
  0.28687302D-05 -0.20920107D-18
MO    5     MO 0.0        OCC NO =    2.0000000  ORB. ENERGY =   -2.061656
 -0.46185269D-13 -0.86353184D-13 -0.14885353D-12 -0.24007833D-12 -0.36032380D-12
 -0.48292175D-12 -0.53077618D-12 -0.39727400D-12 -0.13638906D-12 -0.76877774D-14
  0.53604509D-15 -0.12731993D-15 -0.79356830D-17  0.18166899D-12  0.34077599D-12
  0.58619449D-12  0.95659786D-12  0.14517052D-11  0.20558677D-11  0.24857128D-11
  0.24545386D-11  0.12276062D-11 -0.68739748D-12 -0.10977139D-11 -0.35827008D-12
  0.20839496D-14 -0.55857566D-13 -0.10470006D-12 -0.18032988D-12 -0.29395895D-12
 -0.44751129D-12 -0.63417709D-12 -0.77497369D-12 -0.77596416D-12 -0.40517892D-12
  0.25227919D-12  0.45613440D-12  0.33434028D-12 -0.15241538D-12 -0.57508323D-13
  0.54558208D-14 -0.40889505D-15  0.39900078D+01  0.51568748D+01  0.55602660D+01
  0.45836687D+01  0.25025506D+01  0.80242095D+00  0.90373954D-01 -0.10370817D-02
 -0.52925590D-12 -0.68403536D-12 -0.73754332D-12 -0.60800225D-12 -0.33195165D-12
 -0.10643739D-12 -0.11987683D-13  0.13756405D-15 -0.74092827D-07 -0.95761073D-07
 -0.10325188D-06 -0.85116869D-07 -0.46471350D-07 -0.14900632D-07 -0.16782077D-08
  0.19258187D-10 -0.43077512D-01 -0.55672747D-01 -0.60928620D-01 -0.50904266D-01
 -0.28478043D-01 -0.96465932D-02 -0.15097467D-02  0.28515527D-02  0.22246626D-13
  0.28751215D-13  0.31465518D-13  0.26288616D-13  0.14706986D-13  0.49818140D-14
  0.77968225D-15 -0.14726344D-14  0.79993704D-09  0.10338269D-08  0.11314270D-08
  0.94527761D-09  0.52882909D-09  0.17913447D-09  0.28035564D-10 -0.52952515D-10
  0.10924772D-03  0.46782250D-15 -0.20286297D-11  0.14817545D-05  0.31373921D-16
 -0.27516103D-13 -0.10391187D-06 -0.20063969D-18  0.19305572D-14  0.10883238D-13
 -0.10066151D-13 -0.81708681D-15  0.34930627D-16  0.62995126D-06  0.59619738D-19
  0.10101070D-13 -0.79932390D-13  0.69831320D-13  0.12342302D-15 -0.32144562D-05
  0.70592934D-16 -0.14755840D-15 -0.37177195D-15  0.51933036D-15 -0.32582628D-16
 -0.35958373D-07  0.27585630D-17 -0.12617310D-03 -0.41981865D-16  0.23429877D-11
  0.50469577D-03  0.62742412D-16  0.23430768D-11 -0.12617647D-03  0.63203182D-16
 -0.93720399D-11 -0.56301102D-17 -0.32785571D-06  0.18579856D-16  0.60858798D-14
  0.13113855D-05 -0.27573715D-16  0.60808747D-14 -0.32781836D-06 -0.28165851D-16
 -0.24338514D-13 -0.34311324D-17 -0.16898565D-13 -0.31499656D-13 -0.53399662D-13
 -0.80862825D-13 -0.10111925D-12 -0.87054253D-13 -0.33466833D-13  0.14501727D-15
  0.77867591D-13  0.14622154D-12  0.24899007D-12  0.39004147D-12  0.52270146D-12
  0.56223590D-12  0.33756570D-12 -0.22199740D-12 -0.10434757D-12  0.78219315D-13
  0.86543625D-13  0.58916562D-02  0.57619110D-02  0.38071382D-02  0.79369667D-12
  0.77621801D-12  0.51288006D-12 -0.10940587D-09 -0.10699655D-09 -0.70697143D-10
  0.19921756D-02  0.19949630D-12 -0.36993602D-10 -0.54373475D-03 -0.10771458D-12
  0.10096751D-10 -0.15515644D-04 -0.11735337D-13  0.28806027D-12  0.64807479D-13
 -0.16433729D-12  0.99529814D-13 -0.25867974D-02 -0.19001443D-05  0.48036431D-10
 -0.12301431D-14 -0.22588245D-13  0.23818388D-13 -0.98567546D-03 -0.13400004D-05
  0.18303355D-10 -0.78301042D-14  0.34558935D-13 -0.26728831D-13  0.65216894D-03
  0.10173708D-05 -0.12110294D-10 -0.10310441D-02  0.11090158D-12  0.19145612D-10
  0.41241523D-02 -0.14352876D-13  0.19144747D-10 -0.10310201D-02 -0.31835187D-12
 -0.76581583D-10  0.16484240D-04  0.27713690D-03 -0.26573620D-13 -0.51462453D-11
 -0.11086705D-02 -0.81361510D-14 -0.51485628D-11  0.27725985D-03  0.87857012D-13
  0.20587299D-10 -0.51490504D-05 -0.17139333D-13 -0.31948460D-13 -0.54160494D-13
 -0.82014949D-13 -0.10255998D-12 -0.88294591D-13 -0.33943664D-13  0.14708345D-15