 Molden2AIM, Version 4.0.0 (06/02/2016)           Time: Thu Jun 28 05:34:28 2018
GAUSSIAN             42 MOL ORBITALS    676 PRIMITIVES        4 NUCLEI
  Br   1    (CENTRE  1)  -0.98879919  0.00000000 -1.07702295  CHARGE = 35.0
  N    2    (CENTRE  2)  -0.17791205  0.00000000  2.56502920  CHARGE =  7.0
  N    3    (CENTRE  3)   1.89754959  0.00000000  3.39516132  CHARGE =  7.0
  Br   4    (CENTRE  4)   4.99672122  0.00000000  1.31685943  CHARGE = 35.0
CENTRE ASSIGNMENTS    1  1  1  1  1  1  1  1  1  1  1  1  1  1  1  1  1  1  1  1
CENTRE ASSIGNMENTS    1  1  1  1  1  1  1  1  1  1  1  1  1  1  1  1  1  1  1  1
CENTRE ASSIGNMENTS    1  1  1  1  1  1  1  1  1  1  1  1  1  1  1  1  1  1  1  1
CENTRE ASSIGNMENTS    1  1  1  1  1  1  1  1  1  1  1  1  1  1  1  1  1  1  1  1
CENTRE ASSIGNMENTS    1  1  1  1  1  1  1  1  1  1  1  1  1  1  1  1  1  1  1  1
CENTRE ASSIGNMENTS    1  1  1  1  1  1  1  1  1  1  1  1  1  1  1  1  1  1  1  1
CENTRE ASSIGNMENTS    1  1  1  1  1  1  1  1  1  1  1  1  1  1  1  1  1  1  1  1
CENTRE ASSIGNMENTS    1  1  1  1  1  1  1  1  1  1  1  1  1  1  1  1  1  1  1  1
CENTRE ASSIGNMENTS    1  1  1  1  1  1  1  1  1  1  1  1  1  1  1  1  1  1  1  1
CENTRE ASSIGNMENTS    1  1  1  1  1  1  1  1  1  1  1  1  1  1  1  1  1  1  1  1
CENTRE ASSIGNMENTS    1  1  1  1  1  1  1  1  1  1  1  1  1  1  1  1  1  1  1  1
CENTRE ASSIGNMENTS    1  1  1  1  1  1  1  1  1  1  1  1  1  1  1  1  1  1  1  1
CENTRE ASSIGNMENTS    1  1  1  1  1  1  1  1  1  1  1  1  1  1  1  1  1  1  1  1
CENTRE ASSIGNMENTS    1  1  1  2  2  2  2  2  2  2  2  2  2  2  2  2  2  2  2  2
CENTRE ASSIGNMENTS    2  2  2  2  2  2  2  2  2  2  2  2  2  2  2  2  2  2  2  2
CENTRE ASSIGNMENTS    2  2  2  2  2  2  2  2  2  2  2  2  2  2  2  2  2  2  2  2
CENTRE ASSIGNMENTS    2  2  2  2  2  2  2  2  2  2  2  2  2  2  2  2  2  2  3  3
CENTRE ASSIGNMENTS    3  3  3  3  3  3  3  3  3  3  3  3  3  3  3  3  3  3  3  3
CENTRE ASSIGNMENTS    3  3  3  3  3  3  3  3  3  3  3  3  3  3  3  3  3  3  3  3
CENTRE ASSIGNMENTS    3  3  3  3  3  3  3  3  3  3  3  3  3  3  3  3  3  3  3  3
CENTRE ASSIGNMENTS    3  3  3  3  3  3  3  3  3  3  3  3  3  4  4  4  4  4  4  4
CENTRE ASSIGNMENTS    4  4  4  4  4  4  4  4  4  4  4  4  4  4  4  4  4  4  4  4
CENTRE ASSIGNMENTS    4  4  4  4  4  4  4  4  4  4  4  4  4  4  4  4  4  4  4  4
CENTRE ASSIGNMENTS    4  4  4  4  4  4  4  4  4  4  4  4  4  4  4  4  4  4  4  4
CENTRE ASSIGNMENTS    4  4  4  4  4  4  4  4  4  4  4  4  4  4  4  4  4  4  4  4
CENTRE ASSIGNMENTS    4  4  4  4  4  4  4  4  4  4  4  4  4  4  4  4  4  4  4  4
CENTRE ASSIGNMENTS    4  4  4  4  4  4  4  4  4  4  4  4  4  4  4  4  4  4  4  4
CENTRE ASSIGNMENTS    4  4  4  4  4  4  4  4  4  4  4  4  4  4  4  4  4  4  4  4
CENTRE ASSIGNMENTS    4  4  4  4  4  4  4  4  4  4  4  4  4  4  4  4  4  4  4  4
CENTRE ASSIGNMENTS    4  4  4  4  4  4  4  4  4  4  4  4  4  4  4  4  4  4  4  4
CENTRE ASSIGNMENTS    4  4  4  4  4  4  4  4  4  4  4  4  4  4  4  4  4  4  4  4
CENTRE ASSIGNMENTS    4  4  4  4  4  4  4  4  4  4  4  4  4  4  4  4  4  4  4  4
CENTRE ASSIGNMENTS    4  4  4  4  4  4  4  4  4  4  4  4  4  4  4  4  4  4  4  4
CENTRE ASSIGNMENTS    4  4  4  4  4  4  4  4  4  4  4  4  4  4  4  4
TYPE ASSIGNMENTS      1  1  1  1  1  1  1  1  1  1  1  1  1  1  1  1  1  1  1  1
TYPE ASSIGNMENTS      1  1  1  1  1  1  1  1  1  1  1  1  1  1  1  1  1  1  1  1
TYPE ASSIGNMENTS      1  1  1  1  1  1  1  1  1  1  1  1  1  1  1  1  1  1  1  1
TYPE ASSIGNMENTS      1  1  1  1  1  1  1  1  1  1  1  1  1  1  1  2  2  2  2  2
TYPE ASSIGNMENTS      2  2  2  2  2  2  3  3  3  3  3  3  3  3  3  3  3  4  4  4
TYPE ASSIGNMENTS      4  4  4  4  4  4  4  4  2  2  2  2  2  2  2  2  2  2  2  3
TYPE ASSIGNMENTS      3  3  3  3  3  3  3  3  3  3  4  4  4  4  4  4  4  4  4  4
TYPE ASSIGNMENTS      4  2  2  2  2  2  2  2  2  2  2  2  3  3  3  3  3  3  3  3
TYPE ASSIGNMENTS      3  3  3  4  4  4  4  4  4  4  4  4  4  4  2  3  4  2  3  4
TYPE ASSIGNMENTS      2  3  4  5  5  5  5  5  5  5  6  6  6  6  6  6  6  7  7  7
TYPE ASSIGNMENTS      7  7  7  7  8  8  8  8  8  8  8  9  9  9  9  9  9  9 10 10
TYPE ASSIGNMENTS     10 10 10 10 10  5  6  7  8  9 10  5  6  7  8  9 10  5  6  7
TYPE ASSIGNMENTS      8  9 10 11 12 13 17 14 15 18 19 16 20 11 12 13 17 14 15 18
TYPE ASSIGNMENTS     19 16 20  1  1  1  1  1  1  1  1  1  1  1  1  1  1  1  1  1
TYPE ASSIGNMENTS      1  1  2  2  2  3  3  3  4  4  4  2  3  4  2  3  4  2  3  4
TYPE ASSIGNMENTS      5  6  7  8  9 10  5  6  7  8  9 10  5  6  7  8  9 10 11 12
TYPE ASSIGNMENTS     13 17 14 15 18 19 16 20 11 12 13 17 14 15 18 19 16 20  1  1
TYPE ASSIGNMENTS      1  1  1  1  1  1  1  1  1  1  1  1  1  1  1  1  1  2  2  2
TYPE ASSIGNMENTS      3  3  3  4  4  4  2  3  4  2  3  4  2  3  4  5  6  7  8  9
TYPE ASSIGNMENTS     10  5  6  7  8  9 10  5  6  7  8  9 10 11 12 13 17 14 15 18
TYPE ASSIGNMENTS     19 16 20 11 12 13 17 14 15 18 19 16 20  1  1  1  1  1  1  1
TYPE ASSIGNMENTS      1  1  1  1  1  1  1  1  1  1  1  1  1  1  1  1  1  1  1  1
TYPE ASSIGNMENTS      1  1  1  1  1  1  1  1  1  1  1  1  1  1  1  1  1  1  1  1
TYPE ASSIGNMENTS      1  1  1  1  1  1  1  1  1  1  1  1  1  1  1  1  1  1  1  1
TYPE ASSIGNMENTS      1  1  1  1  1  1  1  1  2  2  2  2  2  2  2  2  2  2  2  3
TYPE ASSIGNMENTS      3  3  3  3  3  3  3  3  3  3  4  4  4  4  4  4  4  4  4  4
TYPE ASSIGNMENTS      4  2  2  2  2  2  2  2  2  2  2  2  3  3  3  3  3  3  3  3
TYPE ASSIGNMENTS      3  3  3  4  4  4  4  4  4  4  4  4  4  4  2  2  2  2  2  2
TYPE ASSIGNMENTS      2  2  2  2  2  3  3  3  3  3  3  3  3  3  3  3  4  4  4  4
TYPE ASSIGNMENTS      4  4  4  4  4  4  4  2  3  4  2  3  4  2  3  4  5  5  5  5
TYPE ASSIGNMENTS      5  5  5  6  6  6  6  6  6  6  7  7  7  7  7  7  7  8  8  8
TYPE ASSIGNMENTS      8  8  8  8  9  9  9  9  9  9  9 10 10 10 10 10 10 10  5  6
TYPE ASSIGNMENTS      7  8  9 10  5  6  7  8  9 10  5  6  7  8  9 10 11 12 13 17
TYPE ASSIGNMENTS     14 15 18 19 16 20 11 12 13 17 14 15 18 19 16 20
EXPONENTS  0.1063900D+08 0.1593400D+07 0.3626100D+06 0.1027000D+06 0.3350100D+05
EXPONENTS  0.1209300D+05 0.4715900D+04 0.1955600D+04 0.8526100D+03 0.3876700D+03
EXPONENTS  0.1826800D+03 0.8824500D+02 0.3926300D+02 0.1923400D+02 0.9405700D+01
EXPONENTS  0.4160100D+01 0.1899500D+01 0.3011400D+00 0.1063900D+08 0.1593400D+07
EXPONENTS  0.3626100D+06 0.1027000D+06 0.3350100D+05 0.1209300D+05 0.4715900D+04
EXPONENTS  0.1955600D+04 0.8526100D+03 0.3876700D+03 0.1826800D+03 0.8824500D+02
EXPONENTS  0.3926300D+02 0.1923400D+02 0.9405700D+01 0.4160100D+01 0.1899500D+01
EXPONENTS  0.3011400D+00 0.1063900D+08 0.1593400D+07 0.3626100D+06 0.1027000D+06
EXPONENTS  0.3350100D+05 0.1209300D+05 0.4715900D+04 0.1955600D+04 0.8526100D+03
EXPONENTS  0.3876700D+03 0.1826800D+03 0.8824500D+02 0.3926300D+02 0.1923400D+02
EXPONENTS  0.9405700D+01 0.4160100D+01 0.1899500D+01 0.3011400D+00 0.1063900D+08
EXPONENTS  0.1593400D+07 0.3626100D+06 0.1027000D+06 0.3350100D+05 0.1209300D+05
EXPONENTS  0.4715900D+04 0.1955600D+04 0.8526100D+03 0.3876700D+03 0.1826800D+03
EXPONENTS  0.8824500D+02 0.3926300D+02 0.1923400D+02 0.9405700D+01 0.4160100D+01
EXPONENTS  0.1899500D+01 0.3011400D+00 0.6047200D+00 0.1251500D+00 0.4559300D-01
EXPONENTS  0.8676500D+04 0.2055900D+04 0.6662300D+03 0.2531000D+03 0.1061200D+03
EXPONENTS  0.4724200D+02 0.2182500D+02 0.9968400D+01 0.4517100D+01 0.1998200D+01
EXPONENTS  0.2814500D+00 0.8676500D+04 0.2055900D+04 0.6662300D+03 0.2531000D+03
EXPONENTS  0.1061200D+03 0.4724200D+02 0.2182500D+02 0.9968400D+01 0.4517100D+01
EXPONENTS  0.1998200D+01 0.2814500D+00 0.8676500D+04 0.2055900D+04 0.6662300D+03
EXPONENTS  0.2531000D+03 0.1061200D+03 0.4724200D+02 0.2182500D+02 0.9968400D+01
EXPONENTS  0.4517100D+01 0.1998200D+01 0.2814500D+00 0.8676500D+04 0.2055900D+04
EXPONENTS  0.6662300D+03 0.2531000D+03 0.1061200D+03 0.4724200D+02 0.2182500D+02
EXPONENTS  0.9968400D+01 0.4517100D+01 0.1998200D+01 0.2814500D+00 0.8676500D+04
EXPONENTS  0.2055900D+04 0.6662300D+03 0.2531000D+03 0.1061200D+03 0.4724200D+02
EXPONENTS  0.2182500D+02 0.9968400D+01 0.4517100D+01 0.1998200D+01 0.2814500D+00
EXPONENTS  0.8676500D+04 0.2055900D+04 0.6662300D+03 0.2531000D+03 0.1061200D+03
EXPONENTS  0.4724200D+02 0.2182500D+02 0.9968400D+01 0.4517100D+01 0.1998200D+01
EXPONENTS  0.2814500D+00 0.8676500D+04 0.2055900D+04 0.6662300D+03 0.2531000D+03
EXPONENTS  0.1061200D+03 0.4724200D+02 0.2182500D+02 0.9968400D+01 0.4517100D+01
EXPONENTS  0.1998200D+01 0.2814500D+00 0.8676500D+04 0.2055900D+04 0.6662300D+03
EXPONENTS  0.2531000D+03 0.1061200D+03 0.4724200D+02 0.2182500D+02 0.9968400D+01
EXPONENTS  0.4517100D+01 0.1998200D+01 0.2814500D+00 0.8676500D+04 0.2055900D+04
EXPONENTS  0.6662300D+03 0.2531000D+03 0.1061200D+03 0.4724200D+02 0.2182500D+02
EXPONENTS  0.9968400D+01 0.4517100D+01 0.1998200D+01 0.2814500D+00 0.7098800D+00
EXPONENTS  0.7098800D+00 0.7098800D+00 0.1020400D+00 0.1020400D+00 0.1020400D+00
EXPONENTS  0.3514200D-01 0.3514200D-01 0.3514200D-01 0.4038300D+03 0.1211700D+03
EXPONENTS  0.4634500D+02 0.1972100D+02 0.8862400D+01 0.3996200D+01 0.1763600D+01
EXPONENTS  0.4038300D+03 0.1211700D+03 0.4634500D+02 0.1972100D+02 0.8862400D+01
EXPONENTS  0.3996200D+01 0.1763600D+01 0.4038300D+03 0.1211700D+03 0.4634500D+02
EXPONENTS  0.1972100D+02 0.8862400D+01 0.3996200D+01 0.1763600D+01 0.4038300D+03
EXPONENTS  0.1211700D+03 0.4634500D+02 0.1972100D+02 0.8862400D+01 0.3996200D+01
EXPONENTS  0.1763600D+01 0.4038300D+03 0.1211700D+03 0.4634500D+02 0.1972100D+02
EXPONENTS  0.8862400D+01 0.3996200D+01 0.1763600D+01 0.4038300D+03 0.1211700D+03
EXPONENTS  0.4634500D+02 0.1972100D+02 0.8862400D+01 0.3996200D+01 0.1763600D+01
EXPONENTS  0.7061900D+00 0.7061900D+00 0.7061900D+00 0.7061900D+00 0.7061900D+00
EXPONENTS  0.7061900D+00 0.2639000D+00 0.2639000D+00 0.2639000D+00 0.2639000D+00
EXPONENTS  0.2639000D+00 0.2639000D+00 0.1047000D+00 0.1047000D+00 0.1047000D+00
EXPONENTS  0.1047000D+00 0.1047000D+00 0.1047000D+00 0.5515000D+00 0.5515000D+00
EXPONENTS  0.5515000D+00 0.5515000D+00 0.5515000D+00 0.5515000D+00 0.5515000D+00
EXPONENTS  0.5515000D+00 0.5515000D+00 0.5515000D+00 0.2580000D+00 0.2580000D+00
EXPONENTS  0.2580000D+00 0.2580000D+00 0.2580000D+00 0.2580000D+00 0.2580000D+00
EXPONENTS  0.2580000D+00 0.2580000D+00 0.2580000D+00 0.1142000D+05 0.1712000D+04
EXPONENTS  0.3893000D+03 0.1100000D+03 0.3557000D+02 0.1254000D+02 0.4644000D+01
EXPONENTS  0.5118000D+00 0.1142000D+05 0.1712000D+04 0.3893000D+03 0.1100000D+03
EXPONENTS  0.3557000D+02 0.1254000D+02 0.4644000D+01 0.5118000D+00 0.1293000D+01
EXPONENTS  0.1787000D+00 0.5760000D-01 0.2663000D+02 0.5948000D+01 0.1742000D+01
EXPONENTS  0.2663000D+02 0.5948000D+01 0.1742000D+01 0.2663000D+02 0.5948000D+01
EXPONENTS  0.1742000D+01 0.5550000D+00 0.5550000D+00 0.5550000D+00 0.1725000D+00
EXPONENTS  0.1725000D+00 0.1725000D+00 0.4910000D-01 0.4910000D-01 0.4910000D-01
EXPONENTS  0.1654000D+01 0.1654000D+01 0.1654000D+01 0.1654000D+01 0.1654000D+01
EXPONENTS  0.1654000D+01 0.4690000D+00 0.4690000D+00 0.4690000D+00 0.4690000D+00
EXPONENTS  0.4690000D+00 0.4690000D+00 0.1510000D+00 0.1510000D+00 0.1510000D+00
EXPONENTS  0.1510000D+00 0.1510000D+00 0.1510000D+00 0.1093000D+01 0.1093000D+01
EXPONENTS  0.1093000D+01 0.1093000D+01 0.1093000D+01 0.1093000D+01 0.1093000D+01
EXPONENTS  0.1093000D+01 0.1093000D+01 0.1093000D+01 0.3640000D+00 0.3640000D+00
EXPONENTS  0.3640000D+00 0.3640000D+00 0.3640000D+00 0.3640000D+00 0.3640000D+00
EXPONENTS  0.3640000D+00 0.3640000D+00 0.3640000D+00 0.1142000D+05 0.1712000D+04
EXPONENTS  0.3893000D+03 0.1100000D+03 0.3557000D+02 0.1254000D+02 0.4644000D+01
EXPONENTS  0.5118000D+00 0.1142000D+05 0.1712000D+04 0.3893000D+03 0.1100000D+03
EXPONENTS  0.3557000D+02 0.1254000D+02 0.4644000D+01 0.5118000D+00 0.1293000D+01
EXPONENTS  0.1787000D+00 0.5760000D-01 0.2663000D+02 0.5948000D+01 0.1742000D+01
EXPONENTS  0.2663000D+02 0.5948000D+01 0.1742000D+01 0.2663000D+02 0.5948000D+01
EXPONENTS  0.1742000D+01 0.5550000D+00 0.5550000D+00 0.5550000D+00 0.1725000D+00
EXPONENTS  0.1725000D+00 0.1725000D+00 0.4910000D-01 0.4910000D-01 0.4910000D-01
EXPONENTS  0.1654000D+01 0.1654000D+01 0.1654000D+01 0.1654000D+01 0.1654000D+01
EXPONENTS  0.1654000D+01 0.4690000D+00 0.4690000D+00 0.4690000D+00 0.4690000D+00
EXPONENTS  0.4690000D+00 0.4690000D+00 0.1510000D+00 0.1510000D+00 0.1510000D+00
EXPONENTS  0.1510000D+00 0.1510000D+00 0.1510000D+00 0.1093000D+01 0.1093000D+01
EXPONENTS  0.1093000D+01 0.1093000D+01 0.1093000D+01 0.1093000D+01 0.1093000D+01
EXPONENTS  0.1093000D+01 0.1093000D+01 0.1093000D+01 0.3640000D+00 0.3640000D+00
EXPONENTS  0.3640000D+00 0.3640000D+00 0.3640000D+00 0.3640000D+00 0.3640000D+00
EXPONENTS  0.3640000D+00 0.3640000D+00 0.3640000D+00 0.1063900D+08 0.1593400D+07
EXPONENTS  0.3626100D+06 0.1027000D+06 0.3350100D+05 0.1209300D+05 0.4715900D+04
EXPONENTS  0.1955600D+04 0.8526100D+03 0.3876700D+03 0.1826800D+03 0.8824500D+02
EXPONENTS  0.3926300D+02 0.1923400D+02 0.9405700D+01 0.4160100D+01 0.1899500D+01
EXPONENTS  0.3011400D+00 0.1063900D+08 0.1593400D+07 0.3626100D+06 0.1027000D+06
EXPONENTS  0.3350100D+05 0.1209300D+05 0.4715900D+04 0.1955600D+04 0.8526100D+03
EXPONENTS  0.3876700D+03 0.1826800D+03 0.8824500D+02 0.3926300D+02 0.1923400D+02
EXPONENTS  0.9405700D+01 0.4160100D+01 0.1899500D+01 0.3011400D+00 0.1063900D+08
EXPONENTS  0.1593400D+07 0.3626100D+06 0.1027000D+06 0.3350100D+05 0.1209300D+05
EXPONENTS  0.4715900D+04 0.1955600D+04 0.8526100D+03 0.3876700D+03 0.1826800D+03
EXPONENTS  0.8824500D+02 0.3926300D+02 0.1923400D+02 0.9405700D+01 0.4160100D+01
EXPONENTS  0.1899500D+01 0.3011400D+00 0.1063900D+08 0.1593400D+07 0.3626100D+06
EXPONENTS  0.1027000D+06 0.3350100D+05 0.1209300D+05 0.4715900D+04 0.1955600D+04
EXPONENTS  0.8526100D+03 0.3876700D+03 0.1826800D+03 0.8824500D+02 0.3926300D+02
EXPONENTS  0.1923400D+02 0.9405700D+01 0.4160100D+01 0.1899500D+01 0.3011400D+00
EXPONENTS  0.6047200D+00 0.1251500D+00 0.4559300D-01 0.8676500D+04 0.2055900D+04
EXPONENTS  0.6662300D+03 0.2531000D+03 0.1061200D+03 0.4724200D+02 0.2182500D+02
EXPONENTS  0.9968400D+01 0.4517100D+01 0.1998200D+01 0.2814500D+00 0.8676500D+04
EXPONENTS  0.2055900D+04 0.6662300D+03 0.2531000D+03 0.1061200D+03 0.4724200D+02
EXPONENTS  0.2182500D+02 0.9968400D+01 0.4517100D+01 0.1998200D+01 0.2814500D+00
EXPONENTS  0.8676500D+04 0.2055900D+04 0.6662300D+03 0.2531000D+03 0.1061200D+03
EXPONENTS  0.4724200D+02 0.2182500D+02 0.9968400D+01 0.4517100D+01 0.1998200D+01
EXPONENTS  0.2814500D+00 0.8676500D+04 0.2055900D+04 0.6662300D+03 0.2531000D+03
EXPONENTS  0.1061200D+03 0.4724200D+02 0.2182500D+02 0.9968400D+01 0.4517100D+01
EXPONENTS  0.1998200D+01 0.2814500D+00 0.8676500D+04 0.2055900D+04 0.6662300D+03
EXPONENTS  0.2531000D+03 0.1061200D+03 0.4724200D+02 0.2182500D+02 0.9968400D+01
EXPONENTS  0.4517100D+01 0.1998200D+01 0.2814500D+00 0.8676500D+04 0.2055900D+04
EXPONENTS  0.6662300D+03 0.2531000D+03 0.1061200D+03 0.4724200D+02 0.2182500D+02
EXPONENTS  0.9968400D+01 0.4517100D+01 0.1998200D+01 0.2814500D+00 0.8676500D+04
EXPONENTS  0.2055900D+04 0.6662300D+03 0.2531000D+03 0.1061200D+03 0.4724200D+02
EXPONENTS  0.2182500D+02 0.9968400D+01 0.4517100D+01 0.1998200D+01 0.2814500D+00
EXPONENTS  0.8676500D+04 0.2055900D+04 0.6662300D+03 0.2531000D+03 0.1061200D+03
EXPONENTS  0.4724200D+02 0.2182500D+02 0.9968400D+01 0.4517100D+01 0.1998200D+01
EXPONENTS  0.2814500D+00 0.8676500D+04 0.2055900D+04 0.6662300D+03 0.2531000D+03
EXPONENTS  0.1061200D+03 0.4724200D+02 0.2182500D+02 0.9968400D+01 0.4517100D+01
EXPONENTS  0.1998200D+01 0.2814500D+00 0.7098800D+00 0.7098800D+00 0.7098800D+00
EXPONENTS  0.1020400D+00 0.1020400D+00 0.1020400D+00 0.3514200D-01 0.3514200D-01
EXPONENTS  0.3514200D-01 0.4038300D+03 0.1211700D+03 0.4634500D+02 0.1972100D+02
EXPONENTS  0.8862400D+01 0.3996200D+01 0.1763600D+01 0.4038300D+03 0.1211700D+03
EXPONENTS  0.4634500D+02 0.1972100D+02 0.8862400D+01 0.3996200D+01 0.1763600D+01
EXPONENTS  0.4038300D+03 0.1211700D+03 0.4634500D+02 0.1972100D+02 0.8862400D+01
EXPONENTS  0.3996200D+01 0.1763600D+01 0.4038300D+03 0.1211700D+03 0.4634500D+02
EXPONENTS  0.1972100D+02 0.8862400D+01 0.3996200D+01 0.1763600D+01 0.4038300D+03
EXPONENTS  0.1211700D+03 0.4634500D+02 0.1972100D+02 0.8862400D+01 0.3996200D+01
EXPONENTS  0.1763600D+01 0.4038300D+03 0.1211700D+03 0.4634500D+02 0.1972100D+02
EXPONENTS  0.8862400D+01 0.3996200D+01 0.1763600D+01 0.7061900D+00 0.7061900D+00
EXPONENTS  0.7061900D+00 0.7061900D+00 0.7061900D+00 0.7061900D+00 0.2639000D+00
EXPONENTS  0.2639000D+00 0.2639000D+00 0.2639000D+00 0.2639000D+00 0.2639000D+00
EXPONENTS  0.1047000D+00 0.1047000D+00 0.1047000D+00 0.1047000D+00 0.1047000D+00
EXPONENTS  0.1047000D+00 0.5515000D+00 0.5515000D+00 0.5515000D+00 0.5515000D+00
EXPONENTS  0.5515000D+00 0.5515000D+00 0.5515000D+00 0.5515000D+00 0.5515000D+00
EXPONENTS  0.5515000D+00 0.2580000D+00 0.2580000D+00 0.2580000D+00 0.2580000D+00
EXPONENTS  0.2580000D+00 0.2580000D+00 0.2580000D+00 0.2580000D+00 0.2580000D+00
EXPONENTS  0.2580000D+00
MO    1     MO 0.0        OCC NO =    2.0000000  ORB. ENERGY = -485.417159
  0.78321189D+00  0.14733170D+01  0.25503843D+01  0.41805678D+01  0.65489404D+01
  0.98436152D+01  0.14068999D+02  0.18676946D+02  0.21751840D+02  0.19978855D+02
  0.11682422D+02  0.30655260D+01  0.16759111D+00 -0.59984125D-02  0.16763670D-02
 -0.49776993D-03  0.84861155D-04  0.69235030D-05  0.40322939D-04  0.74085733D-04
  0.12811131D-03  0.20980017D-03  0.33032094D-03  0.49881698D-03  0.72812047D-03
  0.10026661D-02  0.12811389D-02  0.13965915D-02  0.11496098D-02  0.31521521D-03
 -0.63580952D-03 -0.61962414D-03 -0.13559122D-03 -0.45679433D-05 -0.15474732D-06
  0.39365723D-09 -0.10732294D-03 -0.21039596D-03 -0.36850331D-03 -0.60201449D-03
 -0.94952186D-03 -0.14327861D-02 -0.21007491D-02 -0.29004316D-02 -0.37604240D-02
 -0.41818128D-02 -0.36321618D-02 -0.10550780D-02  0.26598389D-02  0.38755728D-02
  0.66719371D-03 -0.16276670D-02 -0.77472844D-03  0.37414002D-05  0.36278276D-04
  0.78606264D-04  0.13381470D-03  0.21842162D-03  0.34432026D-03  0.51967871D-03
  0.76193369D-03  0.10533192D-02  0.13671027D-02  0.15272928D-02  0.13341248D-02
  0.39516907D-03 -0.10272126D-02 -0.15802002D-02 -0.27658328D-03  0.87246667D-03
  0.74059226D-03 -0.27630835D-03  0.29259704D-03  0.64192272D-04  0.73436779D-05
 -0.20019627D-03 -0.28724621D-03 -0.38032925D-03 -0.43917253D-03 -0.40713314D-03
 -0.26358541D-03 -0.93035972D-04 -0.10904618D-04 -0.15853296D-06 -0.23215388D-07
 -0.23869024D-09 -0.17334746D-16 -0.24872292D-16 -0.32932237D-16 -0.38027403D-16
 -0.35253152D-16 -0.22823533D-16 -0.80558690D-17 -0.94421731D-18 -0.13727172D-19
 -0.20101916D-20 -0.20667891D-22 -0.49209139D-03 -0.70606402D-03 -0.93486629D-03
 -0.10795057D-02 -0.10007514D-02 -0.64790473D-03 -0.22868658D-03 -0.26804039D-04
 -0.38968111D-06 -0.57064461D-07 -0.58671128D-09  0.10342211D-02  0.14929100D-02
  0.19944920D-02  0.23695177D-02  0.22962443D-02  0.15961827D-02  0.51938254D-03
 -0.23376336D-03 -0.25254242D-03 -0.65016273D-04  0.63417371D-07 -0.89731887D-17
 -0.12952901D-16 -0.17304766D-16 -0.20558593D-16 -0.19922853D-16 -0.13848924D-16
 -0.45063070D-17  0.20281958D-17  0.21911281D-17  0.56409922D-18 -0.55022670D-21
  0.28059483D-02  0.40504186D-02  0.54112625D-02  0.64287459D-02  0.62299475D-02
  0.43306082D-02  0.14091384D-02 -0.63422409D-03 -0.68517362D-03 -0.17639585D-03
  0.17205786D-06 -0.74674425D-03 -0.10850525D-02 -0.14425899D-02 -0.17310080D-02
 -0.16747579D-02 -0.11888831D-02 -0.36950786D-03  0.21214811D-03  0.24371108D-03
  0.64719619D-04 -0.23351040D-04  0.29512602D-17  0.42883120D-17  0.57013605D-17
  0.68412379D-17  0.66189280D-17  0.46986682D-17  0.14603579D-17 -0.83844537D-18
 -0.96318760D-18 -0.25578293D-18  0.92287280D-19 -0.20439229D-02 -0.29699106D-02
 -0.39485306D-02 -0.47379633D-02 -0.45840005D-02 -0.32541066D-02 -0.10113845D-02
  0.58067319D-03  0.66706459D-03  0.17714486D-03 -0.63914419D-04  0.14656305D-04
 -0.25604560D-18  0.35724821D-04  0.91128176D-05 -0.89549851D-20  0.20704799D-04
  0.44305840D-06  0.97268872D-21  0.43353401D-06 -0.12188336D-03 -0.12753780D-03
 -0.10866903D-03 -0.71566773D-04 -0.32982995D-04 -0.98768113D-05 -0.16804557D-05
 -0.26895531D-03 -0.28143276D-03 -0.23979577D-03 -0.15792364D-03 -0.72782305D-04
 -0.21794779D-04 -0.37081969D-05  0.39083867D-03  0.40897056D-03  0.34846480D-03
  0.22949042D-03  0.10576530D-03  0.31671590D-04  0.53886526D-05  0.20730457D-17
  0.21692190D-17  0.18482907D-17  0.12172391D-17  0.56098928D-18  0.16798915D-18
  0.28581929D-19  0.32993774D-03  0.34524429D-03  0.29416662D-03  0.19373096D-03
  0.89284830D-04  0.26736487D-04  0.45489866D-05  0.43756520D-17  0.45786483D-17
  0.39012535D-17  0.25692703D-17  0.11841002D-17  0.35458072D-18  0.60328904D-19
  0.52842905D-05  0.13407866D-04 -0.18692156D-04 -0.15509005D-19 -0.16044819D-04
 -0.41803531D-19  0.33095170D-05  0.23535256D-05 -0.56630426D-05  0.62598251D-20
 -0.48836951D-05  0.23210411D-19 -0.73653988D-06 -0.23337506D-05  0.30702905D-05
 -0.27382456D-21  0.36875960D-05  0.53764500D-21  0.20324667D-05 -0.13965196D-20
 -0.11336642D-04  0.10823803D-04  0.33618846D-20  0.87023234D-05 -0.16921204D-04
  0.82767414D-21  0.25307602D-04  0.11011491D-19 -0.19033355D-06 -0.15324556D-20
  0.24189703D-05 -0.36359638D-05 -0.25219744D-20 -0.54978051D-06  0.42069644D-05
  0.71193411D-20 -0.67071303D-05  0.17330449D-20  0.25602818D-05  0.47707082D-05
  0.80684635D-05  0.12150659D-04  0.15043304D-04  0.12801173D-04  0.48710824D-05
 -0.22813357D-07 -0.15174551D-05 -0.28452425D-05 -0.48406041D-05 -0.75169471D-05
 -0.99754260D-05 -0.10512730D-04 -0.65185631D-05  0.43361507D-05 -0.24841156D-05
 -0.62200464D-04 -0.40994980D-04 -0.55082772D-05 -0.52906344D-05 -0.37101580D-05
 -0.82888620D-21 -0.79613529D-21 -0.55830502D-21 -0.11210871D-05 -0.10767907D-05
 -0.75511998D-06  0.21389424D-04  0.37319234D-20  0.26799099D-04 -0.22737913D-04
 -0.11936872D-19 -0.34189417D-04 -0.27471541D-05  0.43287979D-21 -0.43286126D-06
  0.14883503D-04  0.18687636D-04 -0.33571139D-04 -0.50655354D-20 -0.31542440D-04
 -0.22893471D-19 -0.12273207D-05 -0.69815934D-05  0.82089142D-05  0.14072218D-20
  0.22905491D-04  0.20565903D-20 -0.38346788D-05 -0.26818456D-05  0.65165244D-05
  0.17587788D-20 -0.40030679D-05  0.87472192D-20 -0.96725593D-05 -0.19353861D-19
  0.12429512D-04  0.38278286D-05 -0.46578702D-20  0.37977238D-05  0.25189849D-04
  0.62719454D-19 -0.41086259D-04  0.21169342D-19  0.42111639D-05  0.71033049D-20
 -0.11400249D-04  0.20054914D-05  0.51207005D-20  0.14363331D-04 -0.14638983D-04
 -0.26430615D-19  0.19837416D-04 -0.15417071D-19 -0.43915823D-05 -0.81830669D-05
 -0.13839618D-04 -0.20841697D-04 -0.25803373D-04 -0.21957506D-04 -0.83552362D-05
  0.39131135D-07  0.31870401D-05  0.59757300D-05  0.10166495D-04  0.15787493D-04
  0.20950921D-04  0.22079395D-04  0.13690634D-04 -0.91070147D-05 -0.50391919D-05
  0.55796452D-04  0.24503145D-04 -0.73677652D-05 -0.70766504D-05 -0.49626357D-05
  0.13774816D-21  0.13230546D-21  0.92781721D-22  0.11983840D-04  0.11510335D-04
  0.80718412D-05  0.23042880D-04  0.43497583D-21 -0.79656631D-05 -0.31885582D-04
  0.40304417D-20  0.10310126D-04 -0.32524459D-05 -0.56140255D-21  0.78377001D-08
  0.11604206D-05  0.36523213D-05 -0.48127419D-05  0.15400587D-19  0.10344639D-04
 -0.16921497D-19 -0.77006445D-05 -0.31429967D-05  0.10843641D-04 -0.10595148D-19
 -0.11003853D-04  0.14112933D-19  0.18474817D-05  0.25875496D-05 -0.44350313D-05
  0.28867262D-20  0.32305245D-05 -0.38284630D-20  0.91102547D-05  0.92497652D-20
 -0.36804299D-05 -0.85749249D-05 -0.13366854D-19 -0.11721472D-04 -0.18755839D-04
 -0.14382441D-19  0.22762762D-04  0.10372640D-19 -0.68009914D-06 -0.36731640D-20
 -0.15455620D-05  0.55797432D-05  0.81988039D-20  0.12863505D-04 -0.35394458D-05
  0.28206881D-20 -0.82268191D-05 -0.13532327D-19 -0.10401484D-01 -0.19566459D-01
 -0.33870505D-01 -0.55520238D-01 -0.86973528D-01 -0.13072862D+00 -0.18684404D+00
 -0.24804010D+00 -0.28887639D+00 -0.26533017D+00 -0.15514899D+00 -0.40711870D-01
 -0.22257020D-02  0.79662215D-04 -0.22263075D-04  0.66106582D-05 -0.11270028D-05
 -0.91947925D-07 -0.88581916D-05 -0.16275243D-04 -0.28143645D-04 -0.46089153D-04
 -0.72565300D-04 -0.10958071D-03 -0.15995438D-03 -0.22026689D-03 -0.28144212D-03
 -0.30680489D-03 -0.25254766D-03 -0.69246854D-04  0.13967540D-03  0.13611977D-03
  0.29786841D-04  0.10034913D-05  0.33995077D-07 -0.86479092D-10  0.12053839D-04
  0.23630353D-04  0.41387978D-04  0.67614489D-04  0.10664433D-03  0.16092154D-03
  0.23594295D-03  0.32575827D-03  0.42234721D-03  0.46967496D-03  0.40794161D-03
  0.11849974D-03 -0.29873641D-03 -0.43528000D-03 -0.74935009D-04  0.18280934D-03
  0.87012635D-04 -0.42021059D-06 -0.54264670D-05 -0.11757844D-04 -0.20015864D-04
 -0.32671281D-04 -0.51503068D-04 -0.77733005D-04 -0.11396925D-03 -0.15755440D-03
 -0.20448981D-03 -0.22845087D-03 -0.19955701D-03 -0.59108981D-04  0.15364940D-03
  0.23636471D-03  0.41371041D-04 -0.13050266D-03 -0.11077702D-03  0.41329918D-04
 -0.23986093D-04 -0.30500558D-05 -0.16570694D-06 -0.25979466D-03 -0.37275934D-03
 -0.49355319D-03 -0.56991409D-03 -0.52833658D-03 -0.34205473D-03 -0.12073276D-03
 -0.14150920D-04 -0.20572819D-06 -0.30126604D-07 -0.30974827D-09 -0.22554509D-18
 -0.32361727D-18 -0.42848647D-18 -0.49478047D-18 -0.45868425D-18 -0.29696055D-18
 -0.10481617D-18 -0.12285359D-19 -0.17860638D-21 -0.26154916D-22 -0.26891315D-24
  0.66459706D-04  0.95357912D-04  0.12625895D-03  0.14579331D-03  0.13515710D-03
  0.87503173D-04  0.30885407D-04  0.36200360D-05  0.52628623D-07  0.77068760D-08
  0.79238654D-10  0.10802149D-02  0.15593027D-02  0.20831911D-02  0.24748950D-02
  0.23983629D-02  0.16671682D-02  0.54248053D-03 -0.24415929D-03 -0.26377349D-03
 -0.67907677D-04  0.66237669D-07  0.33893334D-18  0.48925417D-18  0.65363188D-18
  0.77653473D-18  0.75252167D-18  0.52309855D-18  0.17021125D-18 -0.76608571D-19
 -0.82762816D-19 -0.21307034D-19  0.20783044D-22 -0.28636287D-03 -0.41336809D-03
 -0.55224989D-03 -0.65608981D-03 -0.63580132D-03 -0.44196302D-03 -0.14381053D-03
  0.64726150D-04  0.69925836D-04  0.18002192D-04 -0.17559476D-07 -0.80287439D-03
 -0.11666121D-02 -0.15510243D-02 -0.18611218D-02 -0.18006436D-02 -0.12782473D-02
 -0.39728247D-03  0.22809453D-03  0.26202998D-03  0.69584365D-04 -0.25106256D-04
 -0.24829040D-18 -0.36077696D-18 -0.47965716D-18 -0.57555538D-18 -0.55685238D-18
 -0.39530035D-18 -0.12286034D-18  0.70538659D-19  0.81033260D-19  0.21519094D-19
 -0.77641563D-20  0.22065669D-03  0.32062396D-03  0.42627328D-03  0.51149843D-03
  0.49487699D-03  0.35130504D-03  0.10918649D-03 -0.62687995D-04 -0.72014590D-04
 -0.19124107D-04  0.69000375D-05  0.10831816D-04  0.84964838D-20 -0.11335541D-05
  0.60104715D-05 -0.67649001D-21  0.66961226D-06  0.40625098D-07 -0.24276577D-22
  0.24739270D-06 -0.93085327D-04 -0.97403765D-04 -0.82993221D-04 -0.54657310D-04
 -0.25189927D-04 -0.75431644D-05 -0.12834055D-05  0.94486959D-04  0.98870422D-04
  0.84242892D-04  0.55480313D-04  0.25569224D-04  0.76567456D-05  0.13027304D-05
 -0.14016323D-05 -0.14666572D-05 -0.12496705D-05 -0.82300247D-06 -0.37929734D-06
 -0.11358120D-06 -0.19324878D-07  0.40831973D-19  0.42726260D-19  0.36405060D-19
  0.23975484D-19  0.11049587D-19  0.33088167D-20  0.56296711D-21  0.61250928D-04
  0.64092496D-04  0.54610237D-04  0.35964970D-04  0.16575184D-04  0.49634656D-05
  0.84449159D-06 -0.25129007D-19 -0.26294799D-19 -0.22404576D-19 -0.14755107D-19
 -0.68001895D-20 -0.20363278D-20 -0.34646390D-21  0.56695543D-05 -0.57190951D-05
  0.49540781D-07 -0.53101761D-20 -0.43166057D-05  0.42071574D-20  0.19412049D-05
 -0.84112384D-06 -0.11000811D-05  0.66060407D-20 -0.45118930D-05 -0.42861569D-20
 -0.12937899D-05  0.79777612D-06  0.49601376D-06 -0.16164786D-21 -0.33375854D-06
 -0.23186846D-21 -0.27869774D-05  0.16632426D-20  0.77972143D-06  0.84694542D-05
 -0.42292194D-20 -0.23990750D-05 -0.10852216D-06 -0.76050844D-21  0.59910725D-07
 -0.12915478D-20  0.11714717D-05  0.10806824D-21 -0.55673362D-06 -0.29455233D-05
 -0.16117311D-21  0.22895474D-05 -0.56889173D-06 -0.16303163D-21 -0.61934652D-06
  0.38203377D-20
MO    2     MO 0.0        OCC NO =    2.0000000  ORB. ENERGY = -485.417129
  0.10409315D-01  0.19581189D-01  0.33896003D-01  0.55562034D-01  0.87039003D-01
  0.13082703D+00  0.18698469D+00  0.24822683D+00  0.28909386D+00  0.26552991D+00
  0.15526578D+00  0.40742518D-01  0.22273776D-02 -0.79722185D-04  0.22279835D-04
 -0.66156348D-05  0.11278512D-05  0.92017145D-07 -0.77907176D-05 -0.14313962D-04
 -0.24752139D-04 -0.40535088D-04 -0.63820674D-04 -0.96375471D-04 -0.14067876D-03
 -0.19372319D-03 -0.24752638D-03 -0.26983275D-03 -0.22211391D-03 -0.60902125D-04
  0.12284353D-03  0.11971639D-03  0.26197319D-04  0.88256355D-06  0.29898433D-07
 -0.76057757D-10  0.92073309D-05  0.18050057D-04  0.31614227D-04  0.51647359D-04
  0.81460326D-04  0.12291999D-03  0.18022513D-03  0.24883061D-03  0.32261012D-03
  0.35876144D-03  0.31160640D-03  0.90516084D-04 -0.22818995D-03 -0.33248884D-03
 -0.57239142D-04  0.13963900D-03  0.66464643D-04 -0.32097806D-06 -0.44650233D-05
 -0.96746273D-05 -0.16469519D-04 -0.26882690D-04 -0.42377923D-04 -0.63960525D-04
 -0.93776553D-04 -0.12963943D-03 -0.16825897D-03 -0.18797469D-03 -0.16420015D-03
 -0.48636244D-04  0.12642630D-03  0.19448638D-03  0.34041055D-04 -0.10738063D-03
 -0.91149912D-04  0.34007218D-04 -0.16213146D-04 -0.13606858D-05  0.25837876D-07
  0.13699604D-03  0.19656506D-03  0.26026260D-03  0.30052956D-03  0.27860473D-03
  0.18037378D-03  0.63665320D-04  0.74621244D-05  0.10848548D-06  0.15886491D-07
  0.16333780D-09  0.40724398D-17  0.58432301D-17  0.77367472D-17  0.89337510D-17
  0.82819982D-17  0.53619166D-17  0.18925597D-17  0.22182431D-18  0.32249149D-20
  0.47225289D-21  0.48554931D-23  0.21415788D-03  0.30727864D-03  0.40685326D-03
  0.46980024D-03  0.43552644D-03  0.28196775D-03  0.99524263D-04  0.11665102D-04
  0.16958899D-06  0.24834420D-07  0.25533640D-09 -0.55735479D-03 -0.80454805D-03
 -0.10748570D-02 -0.12769630D-02 -0.12374751D-02 -0.86020303D-03 -0.27990182D-03
  0.12597803D-03  0.13609830D-03  0.35038091D-04 -0.34176423D-07 -0.12113106D-18