 Molden2AIM, Version 4.0.0 (06/02/2016)           Time: Thu Jun 28 04:12:37 2018
GAUSSIAN             15 MOL ORBITALS    281 PRIMITIVES        3 NUCLEI
  N    1    (CENTRE  1)   0.00000000  0.00000000 -2.52602715  CHARGE =  7.0
  N    2    (CENTRE  2)   0.00000000  0.00000000 -0.39400601  CHARGE =  7.0
  S    3    (CENTRE  3)   0.00000000  0.00000000  2.62096510  CHARGE = 16.0
CENTRE ASSIGNMENTS    1  1  1  1  1  1  1  1  1  1  1  1  1  1  1  1  1  1  1  1
CENTRE ASSIGNMENTS    1  1  1  1  1  1  1  1  1  1  1  1  1  1  1  1  1  1  1  1
CENTRE ASSIGNMENTS    1  1  1  1  1  1  1  1  1  1  1  1  1  1  1  1  1  1  1  1
CENTRE ASSIGNMENTS    1  1  1  1  1  1  1  1  1  1  1  1  1  1  1  2  2  2  2  2
CENTRE ASSIGNMENTS    2  2  2  2  2  2  2  2  2  2  2  2  2  2  2  2  2  2  2  2
CENTRE ASSIGNMENTS    2  2  2  2  2  2  2  2  2  2  2  2  2  2  2  2  2  2  2  2
CENTRE ASSIGNMENTS    2  2  2  2  2  2  2  2  2  2  2  2  2  2  2  2  2  2  2  2
CENTRE ASSIGNMENTS    2  2  2  2  2  2  2  2  2  2  3  3  3  3  3  3  3  3  3  3
CENTRE ASSIGNMENTS    3  3  3  3  3  3  3  3  3  3  3  3  3  3  3  3  3  3  3  3
CENTRE ASSIGNMENTS    3  3  3  3  3  3  3  3  3  3  3  3  3  3  3  3  3  3  3  3
CENTRE ASSIGNMENTS    3  3  3  3  3  3  3  3  3  3  3  3  3  3  3  3  3  3  3  3
CENTRE ASSIGNMENTS    3  3  3  3  3  3  3  3  3  3  3  3  3  3  3  3  3  3  3  3
CENTRE ASSIGNMENTS    3  3  3  3  3  3  3  3  3  3  3  3  3  3  3  3  3  3  3  3
CENTRE ASSIGNMENTS    3  3  3  3  3  3  3  3  3  3  3  3  3  3  3  3  3  3  3  3
CENTRE ASSIGNMENTS    3
TYPE ASSIGNMENTS      1  1  1  1  1  1  1  1  1  1  1  1  1  1  1  1  1  1  1  2
TYPE ASSIGNMENTS      2  2  3  3  3  4  4  4  2  3  4  2  3  4  2  3  4  5  6  7
TYPE ASSIGNMENTS      8  9 10  5  6  7  8  9 10  5  6  7  8  9 10 11 12 13 17 14
TYPE ASSIGNMENTS     15 18 19 16 20 11 12 13 17 14 15 18 19 16 20  1  1  1  1  1
TYPE ASSIGNMENTS      1  1  1  1  1  1  1  1  1  1  1  1  1  1  2  2  2  3  3  3
TYPE ASSIGNMENTS      4  4  4  2  3  4  2  3  4  2  3  4  5  6  7  8  9 10  5  6
TYPE ASSIGNMENTS      7  8  9 10  5  6  7  8  9 10 11 12 13 17 14 15 18 19 16 20
TYPE ASSIGNMENTS     11 12 13 17 14 15 18 19 16 20  1  1  1  1  1  1  1  1  1  1
TYPE ASSIGNMENTS      1  1  1  1  1  1  1  1  1  1  1  1  1  1  1  1  1  1  1  1
TYPE ASSIGNMENTS      1  1  1  1  1  1  1  1  1  1  1  1  2  2  2  2  2  2  2  3
TYPE ASSIGNMENTS      3  3  3  3  3  3  4  4  4  4  4  4  4  2  2  2  2  2  2  2
TYPE ASSIGNMENTS      3  3  3  3  3  3  3  4  4  4  4  4  4  4  2  3  4  2  3  4
TYPE ASSIGNMENTS      2  3  4  5  6  7  8  9 10  5  6  7  8  9 10  5  6  7  8  9
TYPE ASSIGNMENTS     10 11 12 13 17 14 15 18 19 16 20 11 12 13 17 14 15 18 19 16
TYPE ASSIGNMENTS     20
EXPONENTS  0.1142000D+05 0.1712000D+04 0.3893000D+03 0.1100000D+03 0.3557000D+02
EXPONENTS  0.1254000D+02 0.4644000D+01 0.5118000D+00 0.1142000D+05 0.1712000D+04
EXPONENTS  0.3893000D+03 0.1100000D+03 0.3557000D+02 0.1254000D+02 0.4644000D+01
EXPONENTS  0.5118000D+00 0.1293000D+01 0.1787000D+00 0.5760000D-01 0.2663000D+02
EXPONENTS  0.5948000D+01 0.1742000D+01 0.2663000D+02 0.5948000D+01 0.1742000D+01
EXPONENTS  0.2663000D+02 0.5948000D+01 0.1742000D+01 0.5550000D+00 0.5550000D+00
EXPONENTS  0.5550000D+00 0.1725000D+00 0.1725000D+00 0.1725000D+00 0.4910000D-01
EXPONENTS  0.4910000D-01 0.4910000D-01 0.1654000D+01 0.1654000D+01 0.1654000D+01
EXPONENTS  0.1654000D+01 0.1654000D+01 0.1654000D+01 0.4690000D+00 0.4690000D+00
EXPONENTS  0.4690000D+00 0.4690000D+00 0.4690000D+00 0.4690000D+00 0.1510000D+00
EXPONENTS  0.1510000D+00 0.1510000D+00 0.1510000D+00 0.1510000D+00 0.1510000D+00
EXPONENTS  0.1093000D+01 0.1093000D+01 0.1093000D+01 0.1093000D+01 0.1093000D+01
EXPONENTS  0.1093000D+01 0.1093000D+01 0.1093000D+01 0.1093000D+01 0.1093000D+01
EXPONENTS  0.3640000D+00 0.3640000D+00 0.3640000D+00 0.3640000D+00 0.3640000D+00
EXPONENTS  0.3640000D+00 0.3640000D+00 0.3640000D+00 0.3640000D+00 0.3640000D+00
EXPONENTS  0.1142000D+05 0.1712000D+04 0.3893000D+03 0.1100000D+03 0.3557000D+02
EXPONENTS  0.1254000D+02 0.4644000D+01 0.5118000D+00 0.1142000D+05 0.1712000D+04
EXPONENTS  0.3893000D+03 0.1100000D+03 0.3557000D+02 0.1254000D+02 0.4644000D+01
EXPONENTS  0.5118000D+00 0.1293000D+01 0.1787000D+00 0.5760000D-01 0.2663000D+02
EXPONENTS  0.5948000D+01 0.1742000D+01 0.2663000D+02 0.5948000D+01 0.1742000D+01
EXPONENTS  0.2663000D+02 0.5948000D+01 0.1742000D+01 0.5550000D+00 0.5550000D+00
EXPONENTS  0.5550000D+00 0.1725000D+00 0.1725000D+00 0.1725000D+00 0.4910000D-01
EXPONENTS  0.4910000D-01 0.4910000D-01 0.1654000D+01 0.1654000D+01 0.1654000D+01
EXPONENTS  0.1654000D+01 0.1654000D+01 0.1654000D+01 0.4690000D+00 0.4690000D+00
EXPONENTS  0.4690000D+00 0.4690000D+00 0.4690000D+00 0.4690000D+00 0.1510000D+00
EXPONENTS  0.1510000D+00 0.1510000D+00 0.1510000D+00 0.1510000D+00 0.1510000D+00
EXPONENTS  0.1093000D+01 0.1093000D+01 0.1093000D+01 0.1093000D+01 0.1093000D+01
EXPONENTS  0.1093000D+01 0.1093000D+01 0.1093000D+01 0.1093000D+01 0.1093000D+01
EXPONENTS  0.3640000D+00 0.3640000D+00 0.3640000D+00 0.3640000D+00 0.3640000D+00
EXPONENTS  0.3640000D+00 0.3640000D+00 0.3640000D+00 0.3640000D+00 0.3640000D+00
EXPONENTS  0.3741000D+06 0.5605000D+05 0.1276000D+05 0.3615000D+04 0.1183000D+04
EXPONENTS  0.4288000D+03 0.1678000D+03 0.6947000D+02 0.2984000D+02 0.1272000D+02
EXPONENTS  0.5244000D+01 0.2219000D+01 0.3490000D+00 0.3741000D+06 0.5605000D+05
EXPONENTS  0.1276000D+05 0.3615000D+04 0.1183000D+04 0.4288000D+03 0.1678000D+03
EXPONENTS  0.6947000D+02 0.2984000D+02 0.1272000D+02 0.5244000D+01 0.2219000D+01
EXPONENTS  0.3490000D+00 0.3741000D+06 0.5605000D+05 0.1276000D+05 0.3615000D+04
EXPONENTS  0.1183000D+04 0.4288000D+03 0.1678000D+03 0.6947000D+02 0.2984000D+02
EXPONENTS  0.1272000D+02 0.5244000D+01 0.2219000D+01 0.3490000D+00 0.7767000D+00
EXPONENTS  0.1322000D+00 0.4970000D-01 0.5744000D+03 0.1358000D+03 0.4319000D+02
EXPONENTS  0.1587000D+02 0.6208000D+01 0.2483000D+01 0.3229000D+00 0.5744000D+03
EXPONENTS  0.1358000D+03 0.4319000D+02 0.1587000D+02 0.6208000D+01 0.2483000D+01
EXPONENTS  0.3229000D+00 0.5744000D+03 0.1358000D+03 0.4319000D+02 0.1587000D+02
EXPONENTS  0.6208000D+01 0.2483000D+01 0.3229000D+00 0.5744000D+03 0.1358000D+03
EXPONENTS  0.4319000D+02 0.1587000D+02 0.6208000D+01 0.2483000D+01 0.3229000D+00
EXPONENTS  0.5744000D+03 0.1358000D+03 0.4319000D+02 0.1587000D+02 0.6208000D+01
EXPONENTS  0.2483000D+01 0.3229000D+00 0.5744000D+03 0.1358000D+03 0.4319000D+02
EXPONENTS  0.1587000D+02 0.6208000D+01 0.2483000D+01 0.3229000D+00 0.8688000D+00
EXPONENTS  0.8688000D+00 0.8688000D+00 0.1098000D+00 0.1098000D+00 0.1098000D+00
EXPONENTS  0.3510000D-01 0.3510000D-01 0.3510000D-01 0.2690000D+00 0.2690000D+00
EXPONENTS  0.2690000D+00 0.2690000D+00 0.2690000D+00 0.2690000D+00 0.8190000D+00
EXPONENTS  0.8190000D+00 0.8190000D+00 0.8190000D+00 0.8190000D+00 0.8190000D+00
EXPONENTS  0.1010000D+00 0.1010000D+00 0.1010000D+00 0.1010000D+00 0.1010000D+00
EXPONENTS  0.1010000D+00 0.5570000D+00 0.5570000D+00 0.5570000D+00 0.5570000D+00
EXPONENTS  0.5570000D+00 0.5570000D+00 0.5570000D+00 0.5570000D+00 0.5570000D+00
EXPONENTS  0.5570000D+00 0.2180000D+00 0.2180000D+00 0.2180000D+00 0.2180000D+00
EXPONENTS  0.2180000D+00 0.2180000D+00 0.2180000D+00 0.2180000D+00 0.2180000D+00
EXPONENTS  0.2180000D+00
MO    1     MO 0.0        OCC NO =    2.0000000  ORB. ENERGY =  -89.974724
  0.48065730D-04  0.89563410D-04  0.15147418D-03  0.22811172D-03  0.28241711D-03
  0.24032421D-03  0.91447796D-04 -0.42828904D-06 -0.30277261D-04 -0.56770148D-04
 -0.96582913D-04 -0.14998307D-03 -0.19903625D-03 -0.20975689D-03 -0.13006265D-03
  0.86517726D-04 -0.11717184D-03  0.21678788D-03 -0.21625214D-03  0.95325823D-16
  0.91559314D-16  0.64207711D-16 -0.35685883D-18 -0.34275864D-18 -0.24036602D-18
 -0.12402403D-03 -0.11912360D-03 -0.83537689D-04 -0.62482905D-19 -0.51874854D-18
  0.40319693D-03 -0.14900729D-19 -0.42745373D-18 -0.33125671D-04  0.35661685D-20
 -0.20182138D-19  0.19654373D-06 -0.11495044D-03 -0.11495044D-03  0.22990089D-03
 -0.69418392D-20  0.42092899D-19  0.22850576D-17 -0.18977978D-04 -0.18977978D-04
  0.37955956D-04  0.63566614D-20 -0.13849542D-18 -0.15378991D-17 -0.63189675D-05
 -0.63189675D-05  0.12637935D-04  0.97743659D-22  0.11910479D-19 -0.10184853D-18
  0.40842503D-20  0.10468981D-18 -0.10724099D-03  0.70521306D-20  0.10949883D-18
  0.16086149D-03 -0.19304881D-19 -0.42356827D-18  0.16086149D-03  0.79349199D-20
  0.22324921D-20  0.77611579D-19  0.48359730D-05  0.19091962D-20  0.77091371D-19
 -0.72539596D-05 -0.86066724D-20 -0.30992611D-18 -0.72539596D-05  0.23548254D-20
  0.11200937D-03  0.20871297D-03  0.35298595D-03  0.53157728D-03  0.65812716D-03
  0.56003651D-03  0.21310422D-03 -0.99805800D-06 -0.82481684D-04 -0.15465393D-03
 -0.26311235D-03 -0.40858570D-03 -0.54221698D-03 -0.57142227D-03 -0.35431826D-03
  0.23569264D-03  0.21687403D-03 -0.62908961D-03 -0.12677846D-03 -0.20320186D-18
 -0.19517296D-18 -0.13686875D-18 -0.81247411D-18 -0.78037167D-18 -0.54725048D-18
  0.21397892D-03  0.20552419D-03  0.14412775D-03  0.10180160D-18  0.93859263D-18
  0.85517291D-04 -0.78429365D-19  0.60120416D-18 -0.64889042D-03 -0.81160696D-20
  0.76468007D-19 -0.83870456D-04 -0.21739530D-03 -0.21739530D-03  0.43479060D-03
 -0.30744132D-19  0.32633575D-18  0.24714356D-17  0.27750812D-03  0.27750812D-03
 -0.55501624D-03  0.18310168D-20 -0.25734541D-18 -0.18352892D-17  0.69437719D-04
  0.69437719D-04 -0.13887544D-03 -0.43006692D-21 -0.36253863D-19 -0.19712865D-19
 -0.54529966D-19  0.12057665D-18  0.11876225D-03 -0.66046640D-19  0.10295388D-18
 -0.17814338D-03  0.22963654D-18 -0.46468383D-18 -0.17814338D-03 -0.10046626D-19
  0.11376381D-19 -0.30574254D-19 -0.13442818D-03  0.12202138D-19 -0.29267005D-19
  0.20164227D-03 -0.46331280D-19  0.12098977D-18  0.20164227D-03  0.89465780D-20
  0.58508209D+00  0.10937770D+01  0.18903881D+01  0.30576179D+01  0.46214104D+01
  0.63644405D+01  0.74385554D+01  0.64274730D+01  0.29977963D+01  0.40703598D+00
  0.10899421D-02  0.21380157D-02  0.97609350D-04 -0.10777017D-02 -0.20126539D-02
 -0.34912596D-02 -0.56609567D-02 -0.87156873D-02 -0.12413096D-01 -0.15961631D-01
 -0.16754962D-01 -0.11846946D-01  0.26235557D-03  0.85121837D-02  0.46870393D-02
 -0.19821410D-04  0.46457038D-03  0.86695706D-03  0.15058006D-02  0.24390630D-02
  0.37676384D-02  0.53713347D-02  0.69863519D-02  0.74455679D-02  0.55222229D-02
 -0.17188629D-03 -0.50028462D-02 -0.49010626D-02  0.22890869D-02 -0.26182657D-02
  0.26893695D-03  0.17540779D-03  0.18577931D-16  0.24373234D-16  0.26733723D-16
  0.21996931D-16  0.11597217D-16  0.30170477D-17 -0.33386709D-20 -0.42369826D-17
 -0.55586905D-17 -0.60970362D-17 -0.50167380D-17 -0.26449235D-17 -0.68808409D-18
  0.76143519D-21 -0.17123515D-01 -0.22465119D-01 -0.24640811D-01 -0.20274850D-01
 -0.10689302D-01 -0.27808511D-02  0.30772953D-05 -0.37038954D-17 -0.48632372D-17
 -0.54714698D-17 -0.46101270D-17 -0.25788404D-17 -0.64186813D-18  0.29439165D-18
 -0.25621896D-17 -0.33641705D-17 -0.37849187D-17 -0.31890802D-17 -0.17839267D-17
 -0.44401573D-18  0.20364701D-18  0.14892653D-01  0.19554144D-01  0.21999731D-01
  0.18536437D-01  0.10369023D-01  0.25808286D-02 -0.11836924D-02 -0.12944314D-17
  0.30911950D-18  0.44568379D-03  0.16467163D-19 -0.15817254D-18  0.26518565D-04
  0.20899056D-20 -0.18879548D-19 -0.30881762D-05 -0.51787562D-04 -0.51787562D-04
  0.10357512D-03 -0.21324346D-19 -0.12596752D-18 -0.10646174D-18 -0.23686950D-03
 -0.23686950D-03  0.47373900D-03  0.29605365D-18  0.26674964D-18 -0.42638945D-18
  0.14781509D-04  0.14781509D-04 -0.29563018D-04  0.16371572D-20 -0.33892174D-20
  0.77751042D-19 -0.10399017D-19 -0.64274525D-19 -0.14250352D-03 -0.87304912D-20
 -0.65858268D-19  0.21375528D-03  0.39927542D-19  0.25868184D-18  0.21375528D-03
  0.25436030D-19 -0.17684153D-20  0.19958805D-19  0.24117503D-04 -0.17387980D-20
  0.19961142D-19 -0.36176254D-04  0.70440440D-20 -0.79837556D-19 -0.36176254D-04
  0.28398559D-21
MO    2     MO 0.0        OCC NO =    2.0000000  ORB. ENERGY =  -14.944263
  0.53346787D-02  0.99403883D-02  0.16811689D-01  0.25317472D-01  0.31344672D-01
  0.26672901D-01  0.10149531D-01 -0.47534584D-04  0.48645512D-04  0.91210789D-04
  0.15517669D-03  0.24097302D-03  0.31978521D-03  0.33700971D-03  0.20896752D-03
 -0.13900528D-03  0.22827456D-02 -0.19780121D-02 -0.75865884D-03  0.35986896D-15
  0.34564984D-15  0.24239353D-15  0.36520042D-15  0.35077063D-15  0.24598458D-15
  0.38995554D-02  0.37454763D-02  0.26265865D-02  0.21419146D-16  0.55502099D-17
 -0.42190565D-02  0.20042331D-17 -0.54902844D-17 -0.19871058D-02  0.82490039D-19
  0.19411025D-19 -0.51069511D-04  0.73727125D-03  0.73727125D-03 -0.14745425D-02
  0.50890124D-18 -0.53827528D-17  0.80735173D-17  0.14289883D-02  0.14289883D-02
 -0.28579765D-02 -0.16073691D-18  0.17565721D-16 -0.30801192D-17  0.12250709D-03
  0.12250709D-03 -0.24501417D-03 -0.71557339D-20  0.59456991D-18 -0.11248455D-17
 -0.30399088D-17 -0.42828327D-18 -0.23733074D-02 -0.30572611D-17 -0.47596962D-18
  0.35599610D-02  0.12176987D-16  0.17608194D-17  0.35599610D-02  0.10036605D-17
 -0.60637175D-18  0.21094018D-18 -0.37080666D-03 -0.61022926D-18  0.20885079D-18
  0.55620999D-03  0.24293445D-17 -0.84167132D-18  0.55620999D-03 -0.18344680D-18
  0.41261994D+00  0.76885650D+00  0.13003291D+01  0.19582236D+01  0.24244078D+01
  0.20630616D+01  0.78503300D+00 -0.36766445D-02 -0.12996806D-02 -0.24369133D-02
 -0.41459145D-02 -0.64381675D-02 -0.85438228D-02 -0.90040164D-02 -0.55830646D-02
  0.37138567D-02  0.40725702D-01  0.23722863D-02  0.55744486D-05  0.28507434D-16
  0.27381050D-16  0.19201482D-16 -0.21482978D-16 -0.20634143D-16 -0.14470086D-16
  0.48991457D-03  0.47055708D-03  0.32998711D-03 -0.14284442D-16  0.40426846D-17
 -0.73969245D-02 -0.61895196D-17  0.26309844D-17  0.58877190D-03 -0.14216798D-18
 -0.11005223D-18 -0.12026595D-03 -0.33120650D-02 -0.33120650D-02  0.66241299D-02
 -0.10751887D-16 -0.92999312D-17  0.78781557D-17  0.17612184D-03  0.17612184D-03
 -0.35224369D-03  0.92036372D-18  0.16549622D-16 -0.32223656D-17  0.79042976D-04
  0.79042976D-04 -0.15808595D-03 -0.26874232D-19 -0.51980192D-18 -0.19982260D-17
  0.16286940D-19 -0.57047127D-18 -0.18589874D-02  0.22047070D-18 -0.66698816D-18
  0.27884811D-02 -0.26933152D-18  0.23784020D-17  0.27884811D-02  0.12056658D-17
  0.17116618D-17 -0.24160886D-18  0.23077666D-03  0.17213084D-17 -0.23323687D-18
 -0.34616500D-03 -0.68562938D-17  0.95806344D-18 -0.34616500D-03 -0.20245086D-18
  0.10209574D-03  0.19086205D-03  0.32986921D-03  0.53354864D-03  0.80642753D-03
  0.11105830D-02  0.12980141D-02  0.11215821D-02  0.52310989D-03  0.71027022D-04
  0.19019286D-06  0.37307978D-06  0.17032650D-07 -0.16523291D-03 -0.30857950D-03
 -0.53527889D-03 -0.86793621D-03 -0.13362866D-02 -0.19031723D-02 -0.24472325D-02
 -0.25688659D-02 -0.18163702D-02  0.40224279D-04  0.13050855D-02  0.71861549D-03
 -0.30390127D-05  0.81031250D-04  0.15121630D-03  0.26264461D-03  0.42542600D-03
  0.65715867D-03  0.93687842D-03  0.12185728D-02  0.12986701D-02  0.96319662D-03
 -0.29980734D-04 -0.87260596D-03 -0.85485266D-03  0.39926689D-03 -0.95688983D-03
  0.24020300D-03  0.38830574D-03  0.31941160D-16  0.41905063D-16  0.45963467D-16
  0.37819469D-16  0.19939172D-16  0.51872301D-17 -0.57401989D-20  0.10499855D-16
  0.13775238D-16  0.15109336D-16  0.12432201D-16  0.65545025D-17  0.17051718D-17
 -0.18869464D-20 -0.10602044D-01 -0.13909305D-01 -0.15256387D-01 -0.12553197D-01
 -0.66182938D-02 -0.17217672D-02  0.19053110D-05 -0.36469921D-16 -0.47885228D-16
 -0.53874110D-16 -0.45393011D-16 -0.25392214D-16 -0.63200703D-17  0.28986888D-17
 -0.83867527D-17 -0.11011857D-16 -0.12389082D-16 -0.10438738D-16 -0.58392839D-17
 -0.14533859D-17  0.66659279D-18  0.10240776D-01  0.13446201D-01  0.15127883D-01
  0.12746385D-01  0.71301492D-02  0.17746796D-02 -0.81395359D-03 -0.99486281D-18
  0.65073783D-19  0.83166425D-03  0.14203419D-17  0.89650402D-18 -0.12825568D-03
 -0.38257914D-19  0.27503720D-19 -0.20331658D-04 -0.18609148D-03 -0.18609148D-03
  0.37218296D-03  0.16466563D-19 -0.24721259D-17 -0.74296827D-18 -0.28887261D-03
 -0.28887261D-03  0.57774522D-03 -0.41123778D-20 -0.22401485D-18  0.10467308D-18
 -0.19617518D-05 -0.19617518D-05  0.39235035D-05  0.44760499D-20 -0.33777997D-18
 -0.29300628D-18 -0.43605515D-18  0.15885944D-18 -0.32457293D-03 -0.43975593D-18
  0.15921307D-18  0.48685939D-03  0.17479214D-17 -0.63579140D-18  0.48685939D-03
 -0.11836168D-20 -0.63448004D-19 -0.71945168D-19 -0.37490447D-04 -0.64972150D-19
 -0.71661874D-19  0.56235671D-04  0.25531616D-18  0.28749738D-18  0.56235671D-04
 -0.10404573D-19
MO    3     MO 0.0        OCC NO =    2.0000000  ORB. ENERGY =  -14.875299
  0.41284093D+00  0.76926828D+00  0.13010255D+01  0.19592723D+01  0.24257062D+01
  0.20641665D+01  0.78545345D+00 -0.36786136D-02 -0.14574632D-02 -0.27327571D-02
 -0.46492329D-02 -0.72197678D-02 -0.95810518D-02 -0.10097113D-01 -0.62608544D-02
  0.41647228D-02  0.41327520D-01  0.15956731D-01  0.13526286D-02 -0.95158905D-17
 -0.91398990D-17 -0.64095281D-17 -0.49760228D-16 -0.47794104D-16 -0.33516525D-16
  0.83094577D-02  0.79811348D-02  0.55969226D-02  0.70058243D-18  0.96167842D-17
  0.60685197D-02 -0.57593672D-20 -0.15104248D-18  0.43097143D-02  0.35737448D-20
  0.41472571D-19  0.65597700D-04 -0.25139450D-02 -0.25139450D-02  0.50278901D-02
 -0.18434709D-16  0.22511555D-17  0.93382899D-17 -0.24290705D-03 -0.24290705D-03
  0.48581409D-03  0.16482719D-17  0.33471642D-18  0.40017665D-17 -0.44325094D-04
 -0.44325094D-04  0.88650188D-04 -0.24416134D-19  0.21102878D-19  0.73679499D-19
 -0.13502736D-18 -0.13514202D-17  0.10084833D-02 -0.30894223D-18 -0.15110773D-17
 -0.15127249D-02  0.71402429D-18  0.55653380D-17 -0.15127249D-02 -0.44010443D-17
 -0.14273422D-19 -0.10308874D-18 -0.16712685D-03 -0.68911631D-20 -0.97791673D-19
  0.25069027D-03  0.49711430D-19  0.40705788D-18  0.25069027D-03  0.52190847D-18
 -0.56417106D-02 -0.10512497D-01 -0.17779268D-01 -0.26774592D-01 -0.33148682D-01
 -0.28208032D-01 -0.10733677D-01  0.50270387D-04 -0.93868268D-05 -0.17600388D-04
 -0.29943497D-04 -0.46499089D-04 -0.61706995D-04 -0.65030703D-04 -0.40323184D-04
  0.26822998D-04  0.15819596D-02 -0.13662202D-01 -0.12558466D-02  0.10842837D-18
  0.10414416D-18  0.73033072D-19  0.30832221D-17  0.29613979D-17  0.20767366D-17
 -0.37478236D-02 -0.35997398D-02 -0.25243860D-02 -0.27742794D-18 -0.31306655D-17
  0.28999430D-02 -0.21490106D-18 -0.20969043D-17  0.92787840D-02 -0.66994506D-20
 -0.69027701D-19  0.16740355D-03  0.36286953D-04  0.36286953D-04 -0.72573905D-04
  0.14216459D-17  0.36571918D-18  0.22862975D-18  0.19157750D-02  0.19157750D-02
 -0.38315500D-02 -0.36812462D-18  0.49104463D-18  0.43202896D-17  0.21967889D-03
  0.21967889D-03 -0.43935778D-03 -0.19702879D-19 -0.77238318D-19 -0.68763852D-18
  0.19661779D-18  0.64228319D-18  0.16907466D-02  0.20861868D-18  0.65748650D-18
 -0.25361198D-02 -0.79847206D-18 -0.25843361D-17 -0.25361198D-02 -0.25824394D-17
  0.60922135D-19  0.65821945D-18  0.89251480D-03  0.66205183D-19  0.65825172D-18
 -0.13387722D-02 -0.24897159D-18 -0.26329101D-17 -0.13387722D-02  0.57828995D-18
 -0.20477106D-03 -0.38280760D-03 -0.66161106D-03 -0.10701262D-02 -0.16174331D-02
 -0.22274708D-02 -0.26033969D-02 -0.22495313D-02 -0.10491894D-02 -0.14245726D-03
 -0.38146544D-06 -0.74827749D-06 -0.34161993D-07  0.40801165D-03  0.76197914D-03
  0.13217707D-02  0.21432055D-02  0.32997089D-02  0.46995266D-02  0.60429812D-02
  0.63433320D-02  0.44851853D-02 -0.99326306D-04 -0.32226636D-02 -0.17744860D-02
  0.75042713D-05 -0.25208429D-03 -0.47042658D-03 -0.81707466D-03 -0.13234797D-02
 -0.20443887D-02 -0.29145833D-02 -0.37909209D-02 -0.40400998D-02 -0.29964580D-02
  0.93268610D-04  0.27146348D-02  0.26594052D-02 -0.12420999D-02 -0.72216930D-03
 -0.12939844D-02 -0.17614348D-03  0.14109396D-17  0.18510760D-17  0.20303482D-17
  0.16706027D-17  0.88077478D-18  0.22913597D-18 -0.25356231D-21  0.21924073D-16
  0.28763189D-16  0.31548835D-16  0.25958881D-16  0.13686035D-16  0.35604596D-17
 -0.39400115D-20  0.97618567D-02  0.12807024D-01  0.14047354D-01  0.11558385D-01
  0.60938093D-02  0.15853212D-02 -0.17543195D-05 -0.21227657D-17 -0.27872043D-17
 -0.31357928D-17 -0.26421425D-17 -0.14779775D-17 -0.36786559D-18  0.16872088D-18
 -0.20660952D-16 -0.27127955D-16 -0.30520779D-16 -0.25716064D-16 -0.14385205D-16
 -0.35804483D-17  0.16421661D-17 -0.10065791D-01 -0.13216445D-01 -0.14869392D-01
 -0.12528587D-01 -0.70083157D-02 -0.17443555D-02  0.80004549D-03 -0.10275302D-18
 -0.96585508D-18  0.10799903D-02  0.67856136D-19  0.69636099D-18  0.34119293D-03
  0.10017634D-20  0.25139886D-20 -0.41205016D-05 -0.14691725D-03 -0.14691725D-03
  0.29383451D-03 -0.81534837D-19 -0.13238141D-18 -0.14067309D-17  0.23016599D-03
  0.23016599D-03 -0.46033198D-03  0.48844641D-19 -0.91475696D-19 -0.47686611D-18
  0.43807948D-05  0.43807948D-05 -0.87615896D-05  0.50082861D-20 -0.18624360D-19
 -0.18319107D-18 -0.20815716D-19 -0.17286590D-18 -0.70918079D-04 -0.13872879D-19
 -0.18013797D-18  0.10637712D-03  0.76320029D-19  0.69873568D-18  0.10637712D-03
  0.19079206D-18 -0.43365082D-20 -0.51572145D-19 -0.77758118D-04 -0.50618125D-20
 -0.50616216D-19  0.11663718D-03  0.18071337D-19  0.20533265D-18  0.11663718D-03
  0.21698213D-19
MO    4     MO 0.0        OCC NO =    2.0000000  ORB. ENERGY =   -8.308680
 -0.23659406D-03 -0.44085819D-03 -0.74560172D-03 -0.11228349D-02 -0.13901424D-02
 -0.11829484D-02 -0.45013371D-03  0.21081682D-05  0.16846406D-03  0.31587169D-03
  0.53739172D-03  0.83451260D-03  0.11074468D-02  0.11670969D-02  0.72367451D-03
 -0.48138856D-03  0.16018823D-03 -0.21188154D-02  0.11325288D-02  0.23013806D-15
  0.22104486D-15  0.15501191D-15  0.21023376D-15  0.20192702D-15  0.14160516D-15
  0.26915497D-03  0.25852014D-03  0.18129216D-03 -0.13999006D-15  0.83457436D-16
 -0.14279899D-02  0.38397792D-16 -0.36093323D-16 -0.70193686D-04 -0.91525912D-18
  0.26200282D-18  0.31387345D-04  0.44441908D-03  0.44441908D-03 -0.88883816D-03
  0.25253373D-17 -0.38770840D-17  0.10292149D-16  0.61202321D-04  0.61202321D-04
 -0.12240464D-03  0.83457041D-19  0.14990749D-16 -0.19077224D-16  0.23001173D-04
  0.23001173D-04 -0.46002345D-04  0.65324532D-19 -0.32290538D-17 -0.16050685D-17
 -0.51096127D-17  0.23347097D-17  0.20103856D-03 -0.49650642D-17  0.25490443D-17
 -0.30155783D-03  0.20293902D-16 -0.95531734D-17 -0.30155783D-03 -0.14052459D-18
 -0.10478857D-18  0.53662337D-18 -0.44452321D-04 -0.12396755D-18  0.50976390D-18
  0.66678482D-04  0.43833325D-18 -0.21196340D-17  0.66678482D-04  0.16131675D-18
 -0.28339960D-03 -0.52807343D-03 -0.89310456D-03 -0.13449660D-02 -0.16651551D-02
 -0.14169719D-02 -0.53918394D-03  0.25252284D-05  0.15869360D-03  0.29755199D-03
  0.50622446D-03  0.78611314D-03  0.10432179D-02  0.10994084D-02  0.68170336D-03
 -0.45346934D-03 -0.46993514D-03  0.15093619D-02 -0.78429717D-04  0.63086755D-17
  0.60594074D-17  0.42492747D-17 -0.17594327D-16 -0.16899141D-16 -0.11850844D-16
  0.39086473D-03  0.37542090D-03  0.26327105D-03 -0.10918847D-16  0.11143878D-16
 -0.28115109D-03  0.39245182D-17  0.52262666D-17  0.86233871D-03  0.15319908D-17
 -0.20267074D-18  0.32069758D-03  0.28088734D-03  0.28088734D-03 -0.56177469D-03
 -0.10444688D-17 -0.33027715D-17  0.17378508D-16 -0.71905337D-03 -0.71905337D-03
  0.14381067D-02 -0.34146568D-19  0.20005053D-16 -0.19418645D-16 -0.28496637D-03
 -0.28496637D-03  0.56993275D-03 -0.81133953D-19 -0.70233605D-17 -0.48420486D-17
  0.45341930D-18 -0.13986451D-17 -0.68082495D-03 -0.16311767D-18 -0.22240928D-17
  0.10212374D-02 -0.11971402D-17  0.64200281D-17  0.10212374D-02  0.19622620D-18
  0.21878819D-17 -0.18654494D-17  0.27679026D-03  0.22330483D-17 -0.18051306D-17
 -0.41518539D-03 -0.87966939D-17  0.74014787D-17 -0.41518539D-03  0.11408201D-19
 -0.38809197D-02 -0.72551538D-02 -0.12539171D-01 -0.20281546D-01 -0.30654370D-01
 -0.42216097D-01 -0.49340830D-01 -0.42634200D-01 -0.19884743D-01 -0.26999185D-02
 -0.72297164D-05 -0.14181715D-04 -0.64745453D-06 -0.15540338D+00 -0.29022243D+00
 -0.50343572D+00 -0.81630361D+00 -0.12567923D+01 -0.17899546D+01 -0.23016492D+01
 -0.24160468D+01 -0.17083163D+01  0.37831380D-01  0.12274473D+01  0.67586582D+00
 -0.28582251D-02 -0.21637118D-02 -0.40378063D-02 -0.70131863D-02 -0.11359806D-01
 -0.17547575D-01 -0.25016705D-01 -0.32538562D-01 -0.34677336D-01 -0.25719459D-01
  0.80055125D-03  0.23300490D-01  0.22826438D-01 -0.10661300D-01  0.58053611D-01
  0.91042965D-03 -0.52586558D-03  0.10961152D-15  0.14380435D-15  0.15773145D-15
  0.12978394D-15  0.68424658D-16  0.17800862D-16 -0.19698469D-19  0.58044903D-15
  0.76151751D-15  0.83526864D-15  0.68727228D-15  0.36234354D-15  0.94264662D-16
 -0.10431346D-18 -0.26529309D-01 -0.34805008D-01 -0.38175789D-01 -0.31411644D-01
 -0.16560840D-01 -0.43083479D-02  0.47676261D-05 -0.12336655D-15 -0.16198104D-15
 -0.18223959D-15 -0.15355063D-15 -0.85894070D-16 -0.21378859D-16  0.98053750D-17
  0.14692513D-16  0.19291359D-16  0.21704080D-16  0.18287328D-16  0.10229675D-16
  0.25461453D-17 -0.11677849D-17 -0.43821658D-01 -0.57538104D-01 -0.64734247D-01
 -0.54543497D-01 -0.30510868D-01 -0.75940928D-02  0.34830169D-02 -0.18355195D-16
  0.15812526D-16 -0.32913878D-02  0.16339582D-17  0.22846702D-17 -0.56431088D-03
 -0.46549960D-18  0.60768537D-19  0.20473525D-05  0.15631727D-03  0.15631727D-03
 -0.31263454D-03  0.88807451D-18 -0.55757410D-17 -0.89369761D-18 -0.11454082D-03
 -0.11454082D-03  0.22908163D-03 -0.56244253D-17  0.74437622D-17  0.37056944D-17
 -0.79272555D-04 -0.79272555D-04  0.15854511D-03 -0.43509501D-19  0.41149780D-19
 -0.88918280D-18  0.77649749D-18  0.13889711D-17  0.35750354D-03  0.93672398D-18
  0.10598146D-17 -0.53625531D-03 -0.32662164D-17 -0.52267280D-17 -0.53625531D-03
  0.55357087D-18 -0.10428034D-18 -0.32254629D-18 -0.87742849D-04 -0.12689633D-18
 -0.30712939D-18  0.13161427D-03  0.43973736D-18  0.12747683D-17  0.13161427D-03
 -0.32956826D-19
MO    5     MO 0.0        OCC NO =    2.0000000  ORB. ENERGY =   -6.230583
  0.12070404D-03  0.22491421D-03  0.38038632D-03  0.57284072D-03  0.70921397D-03
  0.60350908D-03  0.22964634D-03 -0.10755318D-05 -0.96921501D-04 -0.18172872D-03
 -0.30917462D-03 -0.48011554D-03 -0.63714125D-03 -0.67145942D-03 -0.41634768D-03
  0.27695463D-03  0.36140699D-03  0.84362778D-03 -0.21401474D-03  0.64807732D-16
  0.62247052D-16  0.43651930D-16 -0.82860164D-16 -0.79586197D-16 -0.55811335D-16
  0.45920156D-03  0.44105761D-03  0.30930004D-03 -0.10625323D-16 -0.26127209D-16
 -0.58509935D-03 -0.72955222D-16 -0.11304780D-15  0.14287999D-03 -0.28448582D-17
  0.51704210D-17 -0.62350395D-04 -0.65759051D-04 -0.65759051D-04  0.13151810D-03
  0.38819389D-16 -0.25529748D-17  0.22590504D-16  0.68060480D-04  0.68060480D-04
 -0.13612096D-03  0.16518499D-17 -0.54261698D-16 -0.67685455D-16  0.61716301D-05
  0.61716301D-05 -0.12343260D-04 -0.63024612D-19 -0.13193313D-16 -0.15418488D-16
  0.12987637D-16  0.18528711D-16  0.26284088D-03  0.12955430D-16  0.18506322D-16
 -0.39426133D-03 -0.51918341D-16 -0.74092456D-16 -0.39426133D-03  0.10792089D-17
 -0.13667014D-18 -0.72336551D-18  0.34595140D-04 -0.12572966D-18 -0.72454747D-18
 -0.51892710D-04  0.53574008D-18  0.28946440D-17 -0.51892710D-04 -0.35048495D-18
 -0.13595295D-03 -0.25332830D-03 -0.42844166D-03 -0.64520939D-03 -0.79881109D-03
 -0.67975218D-03 -0.25865825D-03  0.12114069D-05  0.22674245D-03  0.42514422D-03
  0.72329682D-03  0.11232036D-02  0.14905565D-02  0.15708419D-02  0.97402221D-03
 -0.64791995D-03 -0.10653509D-02  0.22638115D-02  0.15446077D-02 -0.32883212D-16
 -0.31583932D-16 -0.22148833D-16 -0.52213426D-16 -0.50150371D-16 -0.35168902D-16
 -0.25923955D-02 -0.24899649D-02 -0.17461352D-02  0.12907167D-16  0.16560416D-16
  0.22974742D-03  0.41525003D-16  0.51149287D-16  0.26205822D-02 -0.20948386D-17
 -0.14520929D-17  0.17362510D-03  0.64994908D-03  0.64994908D-03 -0.12998982D-02
  0.58672898D-18 -0.28705711D-16 -0.49679437D-16 -0.80962165D-03 -0.80962165D-03
  0.16192433D-02  0.47002639D-19 -0.32530602D-16 -0.35589388D-16 -0.61521207D-04
 -0.61521207D-04  0.12304241D-03  0.15544547D-18 -0.36164415D-16 -0.45414117D-16
 -0.10185861D-16 -0.14082347D-16  0.62299300D-03 -0.10088454D-16 -0.13997627D-16
 -0.93448950D-03  0.40646038D-16  0.56244666D-16 -0.93448950D-03  0.51101377D-18
 -0.10142298D-16 -0.13461220D-16  0.43197994D-03 -0.10162066D-16 -0.13459304D-16
 -0.64796991D-03  0.40588961D-16  0.53842965D-16 -0.64796991D-03 -0.39386942D-18
 -0.32123104D-03 -0.60052276D-03 -0.10378908D-02 -0.16787418D-02 -0.25373200D-02
 -0.34943060D-02 -0.40840336D-02 -0.35289131D-02 -0.16458976D-02 -0.22347734D-03
 -0.59841726D-06 -0.11738473D-05 -0.53591032D-07 -0.65032427D-03 -0.12145083D-02
 -0.21067525D-02 -0.34160263D-02 -0.52593614D-02 -0.74905121D-02 -0.96318262D-02
 -0.10110551D-01 -0.71488762D-02  0.15831486D-03  0.51365600D-02  0.28283293D-02
 -0.11960957D-04 -0.45751994D-03 -0.85379990D-03 -0.14829482D-02 -0.24020471D-02
 -0.37104598D-02 -0.52898179D-02 -0.68803252D-02 -0.73325720D-02 -0.54384162D-02
  0.16927770D-03  0.49269217D-02  0.48266828D-02 -0.22543471D-02  0.70806710D-03
 -0.22666088D-02 -0.90491512D-03 -0.66770493D-12 -0.87599251D-12 -0.96083027D-12
 -0.79058637D-12 -0.41681277D-12 -0.10843498D-12  0.11999436D-15 -0.99682108D-12
 -0.13077750D-11 -0.14344298D-11 -0.11802716D-11 -0.62226252D-12 -0.16188330D-12
  0.17914037D-15  0.97236346D+01  0.12756879D+02  0.13992352D+02  0.11513129D+02
  0.60699493D+01  0.15791139D+01 -0.17474505D-02 -0.74968135D-16 -0.98433617D-16
 -0.11074446D-15 -0.93310577D-16 -0.52196629D-16 -0.12991635D-16  0.59585896D-17
 -0.11368480D-15 -0.14926884D-15 -0.16793751D-15 -0.14150005D-15 -0.79153144D-16
 -0.19701056D-16  0.90358537D-17 -0.28976958D-01 -0.38046922D-01 -0.42805352D-01
 -0.36066746D-01 -0.20175232D-01 -0.50215742D-02  0.23031359D-02 -0.51558048D-14
 -0.76995838D-14  0.78416090D-01  0.63946924D-17  0.53990393D-17  0.91973608D-03
  0.10818874D-17  0.11023458D-17  0.30427941D-04  0.17536574D-03  0.17536574D-03
 -0.35073149D-03  0.22665417D-18 -0.11147020D-16 -0.17899071D-16  0.14567089D-02
  0.14567089D-02 -0.29134179D-02 -0.15543370D-17  0.15972737D-15  0.27539978D-15