 Molden2AIM, Version 4.0.0 (06/02/2016)           Time: Thu Jun 28 06:07:12 2018
GAUSSIAN             26 MOL ORBITALS    450 PRIMITIVES        6 NUCLEI
  N    1    (CENTRE  1)   0.00049322  0.00000000  0.00000000  CHARGE =  7.0
  F    2    (CENTRE  2)  -1.29186402  2.23061004  0.00000000  CHARGE =  9.0
  F    3    (CENTRE  3)  -1.29186402 -2.23061004  0.00000000  CHARGE =  9.0
  F    4    (CENTRE  4)   2.58003363  0.00000000  0.00000000  CHARGE =  9.0
  F    5    (CENTRE  5)   0.00160060  0.00000000  2.97491836  CHARGE =  9.0
  F    6    (CENTRE  6)   0.00160060  0.00000000 -2.97491836  CHARGE =  9.0
CENTRE ASSIGNMENTS    1  1  1  1  1  1  1  1  1  1  1  1  1  1  1  1  1  1  1  1
CENTRE ASSIGNMENTS    1  1  1  1  1  1  1  1  1  1  1  1  1  1  1  1  1  1  1  1
CENTRE ASSIGNMENTS    1  1  1  1  1  1  1  1  1  1  1  1  1  1  1  1  1  1  1  1
CENTRE ASSIGNMENTS    1  1  1  1  1  1  1  1  1  1  1  1  1  1  1  2  2  2  2  2
CENTRE ASSIGNMENTS    2  2  2  2  2  2  2  2  2  2  2  2  2  2  2  2  2  2  2  2
CENTRE ASSIGNMENTS    2  2  2  2  2  2  2  2  2  2  2  2  2  2  2  2  2  2  2  2
CENTRE ASSIGNMENTS    2  2  2  2  2  2  2  2  2  2  2  2  2  2  2  2  2  2  2  2
CENTRE ASSIGNMENTS    2  2  2  2  2  2  2  2  2  2  3  3  3  3  3  3  3  3  3  3
CENTRE ASSIGNMENTS    3  3  3  3  3  3  3  3  3  3  3  3  3  3  3  3  3  3  3  3
CENTRE ASSIGNMENTS    3  3  3  3  3  3  3  3  3  3  3  3  3  3  3  3  3  3  3  3
CENTRE ASSIGNMENTS    3  3  3  3  3  3  3  3  3  3  3  3  3  3  3  3  3  3  3  3
CENTRE ASSIGNMENTS    3  3  3  3  3  4  4  4  4  4  4  4  4  4  4  4  4  4  4  4
CENTRE ASSIGNMENTS    4  4  4  4  4  4  4  4  4  4  4  4  4  4  4  4  4  4  4  4
CENTRE ASSIGNMENTS    4  4  4  4  4  4  4  4  4  4  4  4  4  4  4  4  4  4  4  4
CENTRE ASSIGNMENTS    4  4  4  4  4  4  4  4  4  4  4  4  4  4  4  4  4  4  4  4
CENTRE ASSIGNMENTS    5  5  5  5  5  5  5  5  5  5  5  5  5  5  5  5  5  5  5  5
CENTRE ASSIGNMENTS    5  5  5  5  5  5  5  5  5  5  5  5  5  5  5  5  5  5  5  5
CENTRE ASSIGNMENTS    5  5  5  5  5  5  5  5  5  5  5  5  5  5  5  5  5  5  5  5
CENTRE ASSIGNMENTS    5  5  5  5  5  5  5  5  5  5  5  5  5  5  5  6  6  6  6  6
CENTRE ASSIGNMENTS    6  6  6  6  6  6  6  6  6  6  6  6  6  6  6  6  6  6  6  6
CENTRE ASSIGNMENTS    6  6  6  6  6  6  6  6  6  6  6  6  6  6  6  6  6  6  6  6
CENTRE ASSIGNMENTS    6  6  6  6  6  6  6  6  6  6  6  6  6  6  6  6  6  6  6  6
CENTRE ASSIGNMENTS    6  6  6  6  6  6  6  6  6  6
TYPE ASSIGNMENTS      1  1  1  1  1  1  1  1  1  1  1  1  1  1  1  1  1  1  1  2
TYPE ASSIGNMENTS      2  2  3  3  3  4  4  4  2  3  4  2  3  4  2  3  4  5  6  7
TYPE ASSIGNMENTS      8  9 10  5  6  7  8  9 10  5  6  7  8  9 10 11 12 13 17 14
TYPE ASSIGNMENTS     15 18 19 16 20 11 12 13 17 14 15 18 19 16 20  1  1  1  1  1
TYPE ASSIGNMENTS      1  1  1  1  1  1  1  1  1  1  1  1  1  1  2  2  2  3  3  3
TYPE ASSIGNMENTS      4  4  4  2  3  4  2  3  4  2  3  4  5  6  7  8  9 10  5  6
TYPE ASSIGNMENTS      7  8  9 10  5  6  7  8  9 10 11 12 13 17 14 15 18 19 16 20
TYPE ASSIGNMENTS     11 12 13 17 14 15 18 19 16 20  1  1  1  1  1  1  1  1  1  1
TYPE ASSIGNMENTS      1  1  1  1  1  1  1  1  1  2  2  2  3  3  3  4  4  4  2  3
TYPE ASSIGNMENTS      4  2  3  4  2  3  4  5  6  7  8  9 10  5  6  7  8  9 10  5
TYPE ASSIGNMENTS      6  7  8  9 10 11 12 13 17 14 15 18 19 16 20 11 12 13 17 14
TYPE ASSIGNMENTS     15 18 19 16 20  1  1  1  1  1  1  1  1  1  1  1  1  1  1  1
TYPE ASSIGNMENTS      1  1  1  1  2  2  2  3  3  3  4  4  4  2  3  4  2  3  4  2
TYPE ASSIGNMENTS      3  4  5  6  7  8  9 10  5  6  7  8  9 10  5  6  7  8  9 10
TYPE ASSIGNMENTS     11 12 13 17 14 15 18 19 16 20 11 12 13 17 14 15 18 19 16 20
TYPE ASSIGNMENTS      1  1  1  1  1  1  1  1  1  1  1  1  1  1  1  1  1  1  1  2
TYPE ASSIGNMENTS      2  2  3  3  3  4  4  4  2  3  4  2  3  4  2  3  4  5  6  7
TYPE ASSIGNMENTS      8  9 10  5  6  7  8  9 10  5  6  7  8  9 10 11 12 13 17 14
TYPE ASSIGNMENTS     15 18 19 16 20 11 12 13 17 14 15 18 19 16 20  1  1  1  1  1
TYPE ASSIGNMENTS      1  1  1  1  1  1  1  1  1  1  1  1  1  1  2  2  2  3  3  3
TYPE ASSIGNMENTS      4  4  4  2  3  4  2  3  4  2  3  4  5  6  7  8  9 10  5  6
TYPE ASSIGNMENTS      7  8  9 10  5  6  7  8  9 10 11 12 13 17 14 15 18 19 16 20
TYPE ASSIGNMENTS     11 12 13 17 14 15 18 19 16 20
EXPONENTS  0.1142000D+05 0.1712000D+04 0.3893000D+03 0.1100000D+03 0.3557000D+02
EXPONENTS  0.1254000D+02 0.4644000D+01 0.5118000D+00 0.1142000D+05 0.1712000D+04
EXPONENTS  0.3893000D+03 0.1100000D+03 0.3557000D+02 0.1254000D+02 0.4644000D+01
EXPONENTS  0.5118000D+00 0.1293000D+01 0.1787000D+00 0.5760000D-01 0.2663000D+02
EXPONENTS  0.5948000D+01 0.1742000D+01 0.2663000D+02 0.5948000D+01 0.1742000D+01
EXPONENTS  0.2663000D+02 0.5948000D+01 0.1742000D+01 0.5550000D+00 0.5550000D+00
EXPONENTS  0.5550000D+00 0.1725000D+00 0.1725000D+00 0.1725000D+00 0.4910000D-01
EXPONENTS  0.4910000D-01 0.4910000D-01 0.1654000D+01 0.1654000D+01 0.1654000D+01
EXPONENTS  0.1654000D+01 0.1654000D+01 0.1654000D+01 0.4690000D+00 0.4690000D+00
EXPONENTS  0.4690000D+00 0.4690000D+00 0.4690000D+00 0.4690000D+00 0.1510000D+00
EXPONENTS  0.1510000D+00 0.1510000D+00 0.1510000D+00 0.1510000D+00 0.1510000D+00
EXPONENTS  0.1093000D+01 0.1093000D+01 0.1093000D+01 0.1093000D+01 0.1093000D+01
EXPONENTS  0.1093000D+01 0.1093000D+01 0.1093000D+01 0.1093000D+01 0.1093000D+01
EXPONENTS  0.3640000D+00 0.3640000D+00 0.3640000D+00 0.3640000D+00 0.3640000D+00
EXPONENTS  0.3640000D+00 0.3640000D+00 0.3640000D+00 0.3640000D+00 0.3640000D+00
EXPONENTS  0.1950000D+05 0.2923000D+04 0.6645000D+03 0.1875000D+03 0.6062000D+02
EXPONENTS  0.2142000D+02 0.7950000D+01 0.8815000D+00 0.1950000D+05 0.2923000D+04
EXPONENTS  0.6645000D+03 0.1875000D+03 0.6062000D+02 0.2142000D+02 0.7950000D+01
EXPONENTS  0.8815000D+00 0.2257000D+01 0.3041000D+00 0.9158000D-01 0.4388000D+02
EXPONENTS  0.9926000D+01 0.2930000D+01 0.4388000D+02 0.9926000D+01 0.2930000D+01
EXPONENTS  0.4388000D+02 0.9926000D+01 0.2930000D+01 0.9132000D+00 0.9132000D+00
EXPONENTS  0.9132000D+00 0.2672000D+00 0.2672000D+00 0.2672000D+00 0.7361000D-01
EXPONENTS  0.7361000D-01 0.7361000D-01 0.3107000D+01 0.3107000D+01 0.3107000D+01
EXPONENTS  0.3107000D+01 0.3107000D+01 0.3107000D+01 0.8550000D+00 0.8550000D+00
EXPONENTS  0.8550000D+00 0.8550000D+00 0.8550000D+00 0.8550000D+00 0.2920000D+00
EXPONENTS  0.2920000D+00 0.2920000D+00 0.2920000D+00 0.2920000D+00 0.2920000D+00
EXPONENTS  0.1917000D+01 0.1917000D+01 0.1917000D+01 0.1917000D+01 0.1917000D+01
EXPONENTS  0.1917000D+01 0.1917000D+01 0.1917000D+01 0.1917000D+01 0.1917000D+01
EXPONENTS  0.7240000D+00 0.7240000D+00 0.7240000D+00 0.7240000D+00 0.7240000D+00
EXPONENTS  0.7240000D+00 0.7240000D+00 0.7240000D+00 0.7240000D+00 0.7240000D+00
EXPONENTS  0.1950000D+05 0.2923000D+04 0.6645000D+03 0.1875000D+03 0.6062000D+02
EXPONENTS  0.2142000D+02 0.7950000D+01 0.8815000D+00 0.1950000D+05 0.2923000D+04
EXPONENTS  0.6645000D+03 0.1875000D+03 0.6062000D+02 0.2142000D+02 0.7950000D+01
EXPONENTS  0.8815000D+00 0.2257000D+01 0.3041000D+00 0.9158000D-01 0.4388000D+02
EXPONENTS  0.9926000D+01 0.2930000D+01 0.4388000D+02 0.9926000D+01 0.2930000D+01
EXPONENTS  0.4388000D+02 0.9926000D+01 0.2930000D+01 0.9132000D+00 0.9132000D+00
EXPONENTS  0.9132000D+00 0.2672000D+00 0.2672000D+00 0.2672000D+00 0.7361000D-01
EXPONENTS  0.7361000D-01 0.7361000D-01 0.3107000D+01 0.3107000D+01 0.3107000D+01
EXPONENTS  0.3107000D+01 0.3107000D+01 0.3107000D+01 0.8550000D+00 0.8550000D+00
EXPONENTS  0.8550000D+00 0.8550000D+00 0.8550000D+00 0.8550000D+00 0.2920000D+00
EXPONENTS  0.2920000D+00 0.2920000D+00 0.2920000D+00 0.2920000D+00 0.2920000D+00
EXPONENTS  0.1917000D+01 0.1917000D+01 0.1917000D+01 0.1917000D+01 0.1917000D+01
EXPONENTS  0.1917000D+01 0.1917000D+01 0.1917000D+01 0.1917000D+01 0.1917000D+01
EXPONENTS  0.7240000D+00 0.7240000D+00 0.7240000D+00 0.7240000D+00 0.7240000D+00
EXPONENTS  0.7240000D+00 0.7240000D+00 0.7240000D+00 0.7240000D+00 0.7240000D+00
EXPONENTS  0.1950000D+05 0.2923000D+04 0.6645000D+03 0.1875000D+03 0.6062000D+02
EXPONENTS  0.2142000D+02 0.7950000D+01 0.8815000D+00 0.1950000D+05 0.2923000D+04
EXPONENTS  0.6645000D+03 0.1875000D+03 0.6062000D+02 0.2142000D+02 0.7950000D+01
EXPONENTS  0.8815000D+00 0.2257000D+01 0.3041000D+00 0.9158000D-01 0.4388000D+02
EXPONENTS  0.9926000D+01 0.2930000D+01 0.4388000D+02 0.9926000D+01 0.2930000D+01
EXPONENTS  0.4388000D+02 0.9926000D+01 0.2930000D+01 0.9132000D+00 0.9132000D+00
EXPONENTS  0.9132000D+00 0.2672000D+00 0.2672000D+00 0.2672000D+00 0.7361000D-01
EXPONENTS  0.7361000D-01 0.7361000D-01 0.3107000D+01 0.3107000D+01 0.3107000D+01
EXPONENTS  0.3107000D+01 0.3107000D+01 0.3107000D+01 0.8550000D+00 0.8550000D+00
EXPONENTS  0.8550000D+00 0.8550000D+00 0.8550000D+00 0.8550000D+00 0.2920000D+00
EXPONENTS  0.2920000D+00 0.2920000D+00 0.2920000D+00 0.2920000D+00 0.2920000D+00
EXPONENTS  0.1917000D+01 0.1917000D+01 0.1917000D+01 0.1917000D+01 0.1917000D+01
EXPONENTS  0.1917000D+01 0.1917000D+01 0.1917000D+01 0.1917000D+01 0.1917000D+01
EXPONENTS  0.7240000D+00 0.7240000D+00 0.7240000D+00 0.7240000D+00 0.7240000D+00
EXPONENTS  0.7240000D+00 0.7240000D+00 0.7240000D+00 0.7240000D+00 0.7240000D+00
EXPONENTS  0.1950000D+05 0.2923000D+04 0.6645000D+03 0.1875000D+03 0.6062000D+02
EXPONENTS  0.2142000D+02 0.7950000D+01 0.8815000D+00 0.1950000D+05 0.2923000D+04
EXPONENTS  0.6645000D+03 0.1875000D+03 0.6062000D+02 0.2142000D+02 0.7950000D+01
EXPONENTS  0.8815000D+00 0.2257000D+01 0.3041000D+00 0.9158000D-01 0.4388000D+02
EXPONENTS  0.9926000D+01 0.2930000D+01 0.4388000D+02 0.9926000D+01 0.2930000D+01
EXPONENTS  0.4388000D+02 0.9926000D+01 0.2930000D+01 0.9132000D+00 0.9132000D+00
EXPONENTS  0.9132000D+00 0.2672000D+00 0.2672000D+00 0.2672000D+00 0.7361000D-01
EXPONENTS  0.7361000D-01 0.7361000D-01 0.3107000D+01 0.3107000D+01 0.3107000D+01
EXPONENTS  0.3107000D+01 0.3107000D+01 0.3107000D+01 0.8550000D+00 0.8550000D+00
EXPONENTS  0.8550000D+00 0.8550000D+00 0.8550000D+00 0.8550000D+00 0.2920000D+00
EXPONENTS  0.2920000D+00 0.2920000D+00 0.2920000D+00 0.2920000D+00 0.2920000D+00
EXPONENTS  0.1917000D+01 0.1917000D+01 0.1917000D+01 0.1917000D+01 0.1917000D+01
EXPONENTS  0.1917000D+01 0.1917000D+01 0.1917000D+01 0.1917000D+01 0.1917000D+01
EXPONENTS  0.7240000D+00 0.7240000D+00 0.7240000D+00 0.7240000D+00 0.7240000D+00
EXPONENTS  0.7240000D+00 0.7240000D+00 0.7240000D+00 0.7240000D+00 0.7240000D+00
EXPONENTS  0.1950000D+05 0.2923000D+04 0.6645000D+03 0.1875000D+03 0.6062000D+02
EXPONENTS  0.2142000D+02 0.7950000D+01 0.8815000D+00 0.1950000D+05 0.2923000D+04
EXPONENTS  0.6645000D+03 0.1875000D+03 0.6062000D+02 0.2142000D+02 0.7950000D+01
EXPONENTS  0.8815000D+00 0.2257000D+01 0.3041000D+00 0.9158000D-01 0.4388000D+02
EXPONENTS  0.9926000D+01 0.2930000D+01 0.4388000D+02 0.9926000D+01 0.2930000D+01
EXPONENTS  0.4388000D+02 0.9926000D+01 0.2930000D+01 0.9132000D+00 0.9132000D+00
EXPONENTS  0.9132000D+00 0.2672000D+00 0.2672000D+00 0.2672000D+00 0.7361000D-01
EXPONENTS  0.7361000D-01 0.7361000D-01 0.3107000D+01 0.3107000D+01 0.3107000D+01
EXPONENTS  0.3107000D+01 0.3107000D+01 0.3107000D+01 0.8550000D+00 0.8550000D+00
EXPONENTS  0.8550000D+00 0.8550000D+00 0.8550000D+00 0.8550000D+00 0.2920000D+00
EXPONENTS  0.2920000D+00 0.2920000D+00 0.2920000D+00 0.2920000D+00 0.2920000D+00
EXPONENTS  0.1917000D+01 0.1917000D+01 0.1917000D+01 0.1917000D+01 0.1917000D+01
EXPONENTS  0.1917000D+01 0.1917000D+01 0.1917000D+01 0.1917000D+01 0.1917000D+01
EXPONENTS  0.7240000D+00 0.7240000D+00 0.7240000D+00 0.7240000D+00 0.7240000D+00
EXPONENTS  0.7240000D+00 0.7240000D+00 0.7240000D+00 0.7240000D+00 0.7240000D+00
MO    1     MO 0.0        OCC NO =    2.0000000  ORB. ENERGY =  -25.387261
  0.40065925D-12  0.74656952D-12  0.12626362D-11  0.19014602D-11  0.23541310D-11
  0.20032593D-11  0.76227711D-12 -0.35700689D-14 -0.23657086D-12 -0.44357258D-12
 -0.75464893D-12 -0.11718901D-11 -0.15551663D-11 -0.16389318D-11 -0.10162423D-11
  0.67600477D-12 -0.22086011D-11  0.70239052D-11  0.12732573D-11  0.23308041D-11
  0.22387095D-11  0.15699376D-11  0.12144121D-02  0.11664283D-02  0.81798001D-03
 -0.40564406D-15 -0.38961627D-15 -0.27322583D-15 -0.28360907D-11 -0.14744602D-02
  0.24319689D-15 -0.10583825D-11 -0.54819463D-03  0.86556348D-15 -0.18670257D-13
 -0.97395755D-05 -0.15490560D-15 -0.72699985D-12  0.60885525D-12  0.11814461D-12
  0.70197121D-03 -0.59778333D-16  0.17690359D-15 -0.19861374D-13  0.26176602D-11
 -0.25977988D-11  0.13861789D-02  0.49337254D-16 -0.78288913D-17 -0.98001243D-13
  0.97223681D-13  0.77756151D-15  0.10174912D-03  0.53335384D-17 -0.36734742D-16
  0.12576755D-11 -0.42273117D-03  0.56428195D-16 -0.70389542D-11 -0.43414860D-03
 -0.63982763D-16  0.32659279D-11  0.17023421D-02 -0.10530182D-15  0.42630777D-14
  0.45028429D-12  0.62267591D-04  0.12087370D-15 -0.86901378D-12  0.63881928D-04
 -0.19192111D-15 -0.48183908D-12 -0.25068470D-03 -0.17069999D-15  0.51588895D-16
 -0.42085233D+00 -0.78448697D+00 -0.13298983D+01 -0.20138579D+01 -0.25183364D+01
 -0.21680531D+01 -0.83347875D+00  0.36115999D-02 -0.22605501D-03 -0.42449127D-03
 -0.72283542D-03 -0.11323174D-02 -0.15174385D-02 -0.16322097D-02 -0.97997659D-03
  0.64447383D-03 -0.42767214D-01  0.19156250D-03  0.31139874D-03 -0.30340112D-02
 -0.29671967D-02 -0.19605523D-02  0.53629616D-02  0.52448593D-02  0.34655003D-02
 -0.23564324D-15 -0.23045394D-15 -0.15227066D-15  0.51147890D-03 -0.94646840D-03
  0.12315751D-15  0.17574451D-03 -0.42157764D-03 -0.26202678D-16  0.13266051D-04
 -0.28869572D-04  0.11164295D-15  0.56260603D-03 -0.12046577D-02  0.64205170D-03
  0.25447115D-02 -0.35197699D-16  0.91762641D-16 -0.23327215D-03  0.54864651D-03
 -0.31537436D-03 -0.10468268D-02  0.21458073D-16 -0.39684324D-16 -0.22676817D-04
  0.75221437D-04 -0.52544620D-04 -0.96908750D-04  0.12307231D-16 -0.38310768D-16
  0.16062490D-03  0.81096647D-04  0.13236908D-15 -0.58979589D-03 -0.50061323D-06
  0.13508175D-16  0.10792120D-03 -0.24278933D-03 -0.41061541D-15  0.29785101D-15
 -0.15294481D-03 -0.91794941D-04 -0.42420925D-16  0.57154776D-03  0.14545402D-04
  0.20822922D-16 -0.11271332D-03  0.26083942D-03  0.10643985D-15 -0.73107568D-16
  0.42085233D+00  0.78448697D+00  0.13298983D+01  0.20138579D+01  0.25183364D+01
  0.21680531D+01  0.83347876D+00 -0.36115999D-02  0.22605501D-03  0.42449127D-03
  0.72283543D-03  0.11323174D-02  0.15174386D-02  0.16322098D-02  0.97997659D-03
 -0.64447384D-03  0.42767215D-01 -0.19156251D-03 -0.31139875D-03  0.30340113D-02
  0.29671968D-02  0.19605523D-02  0.53629616D-02  0.52448593D-02  0.34655003D-02
  0.11151534D-15  0.10905956D-15  0.72060265D-16 -0.51147891D-03 -0.94646841D-03
 -0.38699595D-16 -0.17574451D-03 -0.42157764D-03  0.36401173D-16 -0.13266051D-04
 -0.28869572D-04  0.14110897D-15 -0.56260604D-03  0.12046577D-02 -0.64205171D-03
  0.25447115D-02  0.10883740D-15  0.27560838D-15  0.23327215D-03 -0.54864651D-03
  0.31537436D-03 -0.10468268D-02 -0.47869511D-16 -0.95326551D-16  0.22676817D-04
 -0.75221437D-04  0.52544621D-04 -0.96908751D-04  0.73836428D-16  0.14187746D-15
 -0.16062490D-03  0.81096647D-04  0.27004250D-16  0.58979589D-03 -0.50061253D-06
  0.22830586D-15 -0.10792120D-03 -0.24278933D-03 -0.30931861D-15 -0.10579549D-14
  0.15294481D-03 -0.91794941D-04 -0.24372970D-16 -0.57154777D-03  0.14545401D-04
 -0.65184825D-16  0.11271332D-03  0.26083942D-03  0.13830374D-15  0.33016319D-15
 -0.68383908D-10 -0.12747057D-09 -0.21609395D-09 -0.32722992D-09 -0.40920217D-09
 -0.35228495D-09 -0.13543120D-09  0.58684554D-12 -0.60663135D-13 -0.11391462D-12
 -0.19397696D-12 -0.30386376D-12 -0.40721318D-12 -0.43801268D-12 -0.26298224D-12
  0.17294818D-12 -0.69553591D-11 -0.12378803D-11 -0.52059074D-12  0.74912543D-12
  0.73262831D-12  0.48407850D-12  0.13058516D-03  0.12770944D-03  0.84383025D-04
 -0.28504997D-16 -0.27877265D-16 -0.18419687D-16  0.35927719D-12 -0.64293059D-04
  0.19972973D-16  0.10064488D-11 -0.12176985D-03  0.15437088D-16  0.11911729D-13
 -0.59118551D-05  0.10814137D-15 -0.19143691D-12  0.31120657D-12 -0.11976965D-12
 -0.54415887D-03  0.12557005D-16  0.32089438D-16 -0.14311772D-12 -0.26067736D-13
  0.16918545D-12  0.31945778D-03  0.12538966D-16 -0.69069802D-17 -0.13453017D-12
  0.10051582D-12  0.34014353D-13  0.75965006D-04 -0.94925257D-16 -0.22033009D-17
  0.53645703D-12 -0.32230297D-04  0.68588014D-16 -0.13474191D-11  0.15762718D-03
 -0.54049575D-15 -0.26195201D-12 -0.60936287D-04  0.33473171D-15 -0.83658481D-16
 -0.76882653D-13  0.39642153D-04 -0.29524804D-16  0.32296671D-12 -0.18675111D-03
  0.17453248D-15 -0.92318754D-13  0.67824656D-04 -0.85958069D-16  0.13578705D-16
 -0.44284630D-13 -0.82548469D-13 -0.13993995D-12 -0.21191032D-12 -0.26499460D-12
 -0.22813567D-12 -0.87703681D-13  0.38003440D-15 -0.10944336D-12 -0.20551525D-12
 -0.34995702D-12 -0.54820560D-12 -0.73466000D-12 -0.79022588D-12 -0.47445058D-12
  0.31201866D-12 -0.22328500D-12 -0.55290775D-12 -0.41047438D-13 -0.99039130D-13
 -0.96858106D-13 -0.63998246D-13 -0.51374002D-04 -0.50242652D-04 -0.33197444D-04
  0.46680606D-12  0.45652613D-12  0.30164611D-12 -0.17447030D-13 -0.93145211D-05
 -0.27640210D-12  0.35621359D-12  0.18559811D-03  0.10464420D-12 -0.11464828D-13
 -0.58504988D-05 -0.40524127D-13  0.22547398D-13  0.41012037D-12 -0.43266776D-12
  0.20584947D-03  0.13896263D-11  0.72427262D-03 -0.12023978D-12 -0.22905790D-12
  0.34929768D-12 -0.57957458D-04 -0.53946704D-12 -0.28115888D-03 -0.29666228D-13
 -0.70735137D-13  0.10040136D-12 -0.21711895D-04 -0.28931497D-12 -0.15088094D-03
  0.17406794D-12  0.12607735D-03  0.59822624D-12  0.44179709D-12  0.12544850D-03
 -0.57008352D-12 -0.96400091D-12 -0.50368054D-03 -0.12245952D-11 -0.34882835D-03
 -0.14691777D-12 -0.76508597D-04 -0.35146267D-12 -0.14486274D-12 -0.76237094D-04
  0.34195583D-12  0.58561604D-12  0.30576288D-03  0.71243218D-12  0.19685095D-03
 -0.52520325D-13 -0.97900161D-13 -0.16596484D-12 -0.25131968D-12 -0.31427615D-12
 -0.27056249D-12 -0.10401410D-12  0.45071011D-15 -0.10909453D-12 -0.20486020D-12
 -0.34884160D-12 -0.54645830D-12 -0.73231841D-12 -0.78770718D-12 -0.47293836D-12
  0.31102416D-12 -0.22361098D-12 -0.55156027D-12 -0.40120746D-13 -0.98886908D-13
 -0.96709236D-13 -0.63899881D-13 -0.51374002D-04 -0.50242652D-04 -0.33197444D-04
 -0.46668859D-12 -0.45641125D-12 -0.30157021D-12 -0.17543576D-13 -0.93145211D-05
  0.27613752D-12  0.35626755D-12  0.18559811D-03 -0.10334244D-12 -0.11484607D-13
 -0.58504988D-05  0.40804982D-13  0.22608806D-13  0.41022509D-12 -0.43283390D-12
  0.20584947D-03 -0.13898419D-11 -0.72427262D-03 -0.12023631D-12 -0.22908327D-12
  0.34931957D-12 -0.57957458D-04  0.53949331D-12  0.28115888D-03 -0.29832834D-13
 -0.70887234D-13  0.10072007D-12 -0.21711895D-04  0.28932330D-12  0.15088094D-03
  0.17403935D-12  0.12607735D-03 -0.59846956D-12  0.44201466D-12  0.12544850D-03
  0.57041820D-12 -0.96413273D-12 -0.50368054D-03  0.12249905D-11  0.34882835D-03
 -0.14690185D-12 -0.76508597D-04  0.35162769D-12 -0.14495796D-12 -0.76237094D-04
 -0.34221263D-12  0.58566352D-12  0.30576288D-03 -0.71267045D-12 -0.19685095D-03
MO    2     MO 0.0        OCC NO =    2.0000000  ORB. ENERGY =  -25.387253
  0.12730189D-03  0.23720833D-03  0.40117875D-03  0.60415297D-03  0.74798057D-03
  0.63649770D-03  0.24219912D-03 -0.11343218D-05 -0.75252122D-04 -0.14109843D-03
 -0.24005041D-03 -0.37277295D-03 -0.49469138D-03 -0.52133681D-03 -0.32326208D-03
  0.21503406D-03 -0.69735419D-03  0.22060449D-02  0.39939864D-03  0.74276733D-03
  0.71341914D-03  0.50029874D-03 -0.38259052D-11 -0.36747362D-11 -0.25769787D-11
  0.82024488D-16  0.78783540D-16  0.55248456D-16 -0.90228419D-03  0.46438334D-11
 -0.10988723D-15 -0.33569385D-03  0.17436106D-11 -0.15075857D-15 -0.61088178D-05
  0.27537419D-13 -0.92598230D-16 -0.23181333D-03  0.19639168D-03  0.35421653D-04
 -0.21971203D-11  0.96803594D-16  0.11359025D-16 -0.89940578D-05  0.82859431D-03
 -0.81960025D-03 -0.43722466D-11 -0.43369564D-16 -0.96089468D-17 -0.31903191D-04
  0.29732292D-04  0.21708985D-05 -0.32262387D-12 -0.20997279D-16 -0.34602799D-17
  0.39582919D-03  0.13305862D-11 -0.26586317D-16 -0.22283423D-02  0.13665774D-11
  0.37698852D-16  0.10408547D-02 -0.53583361D-11  0.42060098D-16  0.18781135D-16
  0.14233178D-03 -0.19337931D-12 -0.18528868D-16 -0.27362139D-03 -0.20638905D-12
  0.33328743D-16 -0.15337393D-03  0.78652697D-12  0.22257860D-16 -0.10630367D-16
  0.42052218D+00  0.78387157D+00  0.13288550D+01  0.20122781D+01  0.25163609D+01
  0.21663523D+01  0.83282492D+00 -0.36087667D-02  0.21800458D-03  0.40937399D-03
  0.69709331D-03  0.10919925D-02  0.14633985D-02  0.15740824D-02  0.94507699D-03
 -0.62152239D-03  0.42730703D-01 -0.58879224D-03 -0.48812509D-03  0.31865447D-02
  0.31163711D-02  0.20591182D-02 -0.53568266D-02 -0.52388595D-02 -0.34615359D-02
  0.14110463D-15  0.13799725D-15  0.91180617D-16 -0.65172641D-03  0.10546384D-02
 -0.56050981D-16 -0.45186663D-03  0.65307205D-03  0.36839523D-16 -0.21038093D-04
  0.30169576D-04  0.57727326D-16 -0.28510561D-03  0.99900465D-03 -0.71389904D-03
 -0.28152431D-02  0.82791797D-16 -0.17256846D-15  0.81687573D-04 -0.46633108D-03
  0.38464351D-03  0.12957161D-02 -0.48318829D-16  0.98417411D-16  0.32888079D-05
 -0.68862585D-04  0.65573777D-04  0.20508913D-03  0.31893388D-16 -0.49008988D-16
 -0.15708689D-04 -0.15639360D-04 -0.19206540D-17  0.17264084D-03 -0.10861074D-03
  0.34208562D-16 -0.12551477D-03  0.15552882D-03 -0.28446600D-16  0.12291569D-15
  0.10959791D-03  0.36248387D-04 -0.38745724D-18 -0.52322416D-03  0.15625972D-03
 -0.72340147D-17  0.19443043D-03 -0.26500488D-03  0.83963865D-17 -0.48442336D-16
  0.42052218D+00  0.78387156D+00  0.13288550D+01  0.20122781D+01  0.25163609D+01
  0.21663523D+01  0.83282491D+00 -0.36087667D-02  0.21800458D-03  0.40937399D-03
  0.69709330D-03  0.10919925D-02  0.14633985D-02  0.15740824D-02  0.94507698D-03
 -0.62152238D-03  0.42730703D-01 -0.58879224D-03 -0.48812509D-03  0.31865447D-02
  0.31163711D-02  0.20591181D-02  0.53568266D-02  0.52388594D-02  0.34615359D-02
  0.16101110D-15  0.15746534D-15  0.10404401D-15 -0.65172640D-03 -0.10546384D-02
 -0.62737521D-16 -0.45186663D-03 -0.65307205D-03  0.42457673D-16 -0.21038093D-04
 -0.30169576D-04  0.53144150D-16 -0.28510561D-03  0.99900464D-03 -0.71389904D-03
  0.28152431D-02  0.87776530D-16  0.14327971D-15  0.81687572D-04 -0.46633108D-03
  0.38464351D-03 -0.12957161D-02 -0.45511956D-16 -0.82892435D-16  0.32888078D-05
 -0.68862585D-04  0.65573777D-04 -0.20508913D-03  0.31944284D-16  0.50340361D-16
 -0.15708688D-04  0.15639360D-04  0.10911224D-17  0.17264083D-03  0.10861074D-03
  0.44094146D-16 -0.12551477D-03 -0.15552882D-03 -0.47367513D-16 -0.16693629D-15
  0.10959791D-03 -0.36248387D-04  0.11132687D-18 -0.52322416D-03 -0.15625972D-03
 -0.13258011D-16  0.19443043D-03  0.26500488D-03  0.12924030D-16  0.57835476D-16
 -0.24008486D-01 -0.44752858D-01 -0.75867096D-01 -0.11488514D+00 -0.14366427D+00
 -0.12368156D+00 -0.47547706D-01  0.20603199D-03 -0.20241756D-04 -0.38010433D-04
 -0.64725212D-04 -0.10139166D-03 -0.13587676D-03 -0.14615377D-03 -0.87750532D-04
  0.57708442D-04 -0.24416358D-02 -0.38701369D-03 -0.15986700D-03  0.27196889D-03
  0.26597963D-03  0.17574399D-03 -0.41758472D-12 -0.40838874D-12 -0.26983970D-12
 -0.32914329D-16 -0.32189495D-16 -0.21268961D-16  0.10729461D-03  0.20730515D-12
  0.19819163D-16  0.31383268D-03  0.38359857D-12  0.47072850D-17  0.34904327D-05
  0.20716718D-13  0.54374701D-16 -0.72265353D-04  0.10662838D-03 -0.34363031D-04
  0.17183689D-11 -0.11282872D-15 -0.15027101D-16 -0.40121054D-04 -0.11703917D-04
  0.51824971D-04 -0.10097662D-11  0.43020826D-16  0.68938320D-17 -0.42087176D-04
  0.32097003D-04  0.99901729D-05 -0.24096552D-12 -0.13901689D-16  0.23274118D-18
  0.17047123D-03  0.10388565D-12  0.32127253D-16 -0.42477316D-03 -0.50165054D-12
  0.61927347D-16 -0.86640534D-04  0.18999360D-12 -0.15830911D-15  0.55986368D-18
 -0.25465234D-04 -0.12627083D-12 -0.13536339D-16  0.10323440D-03  0.59224195D-12
 -0.27579928D-17 -0.26838698D-04 -0.21342946D-12  0.43367010D-16 -0.47920787D-17
 -0.14812142D-04 -0.27610474D-04 -0.46806541D-04 -0.70878898D-04 -0.88634310D-04
 -0.76305885D-04 -0.29334768D-04  0.12711235D-06 -0.34969207D-04 -0.65665978D-04
 -0.11181783D-03 -0.17516198D-03 -0.23473766D-03 -0.25249200D-03 -0.15159586D-03
  0.99695818D-04 -0.70890680D-04 -0.17764067D-03 -0.15862352D-04 -0.31074487D-04
 -0.30390170D-04 -0.20080070D-04  0.16102110D-12  0.15747512D-12  0.10405047D-12
  0.14771836D-03  0.14446533D-03  0.95454351D-04 -0.60030340D-05  0.29855181D-13
 -0.87533589D-04  0.11375555D-03 -0.58470865D-12  0.33758541D-04 -0.35135272D-05
  0.19980692D-13 -0.12319672D-04  0.59197721D-05  0.12934710D-03 -0.13526687D-03
 -0.65352713D-12  0.44249194D-03 -0.22804189D-11 -0.37550357D-04 -0.72102092D-04
  0.10965245D-03  0.18465051D-12 -0.17159553D-03  0.88492969D-12 -0.94156274D-05
 -0.22655814D-04  0.32071441D-04  0.67653423D-13 -0.92443810D-04  0.47471083D-12
  0.56074023D-04 -0.39711835D-12  0.18974522D-03  0.13987743D-03 -0.39414196D-12
 -0.17892032D-03 -0.30809950D-03  0.15854970D-11 -0.39031534D-03  0.11019898D-11
 -0.46952400D-04  0.24070482D-12 -0.11122073D-03 -0.46071332D-04  0.23972810D-12
  0.10735798D-03  0.18692853D-03 -0.96184255D-12  0.22630421D-03 -0.62079073D-12
 -0.14812142D-04 -0.27610474D-04 -0.46806541D-04 -0.70878898D-04 -0.88634310D-04
 -0.76305885D-04 -0.29334768D-04  0.12711235D-06 -0.34969207D-04 -0.65665978D-04
 -0.11181783D-03 -0.17516198D-03 -0.23473766D-03 -0.25249200D-03 -0.15159586D-03
  0.99695818D-04 -0.70890680D-04 -0.17764067D-03 -0.15862352D-04 -0.31074487D-04
 -0.30390170D-04 -0.20080070D-04  0.16098502D-12  0.15743983D-12  0.10402715D-12
 -0.14771836D-03 -0.14446533D-03 -0.95454351D-04 -0.60030340D-05  0.29885282D-13
  0.87533589D-04  0.11375555D-03 -0.58472735D-12 -0.33758541D-04 -0.35135272D-05
  0.19983993D-13  0.12319672D-04  0.59197721D-05  0.12934710D-03 -0.13526687D-03
 -0.65359618D-12 -0.44249194D-03  0.22802663D-11 -0.37550357D-04 -0.72102092D-04
  0.10965245D-03  0.18467947D-12  0.17159553D-03 -0.88487479D-12 -0.94156274D-05
 -0.22655814D-04  0.32071441D-04  0.67642919D-13  0.92443810D-04 -0.47472995D-12
  0.56074023D-04 -0.39713811D-12 -0.18974522D-03  0.13987743D-03 -0.39416203D-12
  0.17892032D-03 -0.30809950D-03  0.15855764D-11  0.39031534D-03 -0.11019370D-11
 -0.46952400D-04  0.24071072D-12  0.11122073D-03 -0.46071332D-04  0.23973402D-12
 -0.10735798D-03  0.18692853D-03 -0.96186619D-12 -0.22630421D-03  0.62077166D-12
MO    3     MO 0.0        OCC NO =    2.0000000  ORB. ENERGY =  -25.387105
  0.95611511D-04  0.17815797D-03  0.30130980D-03  0.45375586D-03  0.56177919D-03
  0.47804873D-03  0.18190636D-03 -0.85194510D-06 -0.56221208D-04 -0.10541529D-03
 -0.17934277D-03 -0.27850039D-03 -0.36958622D-03 -0.38949314D-03 -0.24151059D-03
  0.16065294D-03 -0.53675856D-03  0.17015935D-02  0.30776347D-03 -0.96276356D-03
 -0.92472289D-03 -0.64847952D-03 -0.14788118D-13 -0.14203811D-13 -0.99606925D-14
  0.26098856D-16  0.25067640D-16  0.17579159D-16  0.11653630D-02  0.17779993D-13
 -0.87209288D-16  0.43122227D-03  0.65646914D-14  0.84649791D-16  0.76924071D-05
 -0.36371739D-16 -0.70882524D-16  0.25508572D-03 -0.28891128D-03  0.33825562D-04
 -0.82324481D-14 -0.21272438D-15 -0.12897521D-16  0.86599826D-03 -0.23305939D-03
 -0.63293887D-03 -0.16563402D-13  0.99286493D-16  0.42535809D-17  0.39601928D-04
 -0.40911362D-04  0.13094335D-05 -0.12025899D-14  0.63026789D-16  0.31568925D-17
  0.84226599D-03  0.51102344D-14 -0.33283321D-16 -0.11770802D-02  0.50362900D-14
  0.25723396D-16 -0.13497178D-02 -0.20366993D-13  0.74126567D-16 -0.92390874D-18
  0.30604950D-04 -0.64185854D-15  0.26770181D-16 -0.29086077D-03 -0.10416014D-14
 -0.31560822D-16  0.19904593D-03  0.29671770D-14 -0.48749721D-16 -0.30703064D-17
  0.16994294D-01  0.31678100D-01  0.53702167D-01  0.81320908D-01  0.10169208D+00
  0.87547409D-01  0.33656420D-01 -0.14583878D-03  0.33839106D-05  0.63543848D-05
  0.10820421D-04  0.16950126D-04  0.22715163D-04  0.24433221D-04  0.14669674D-04
 -0.96473946D-05  0.17254484D-02 -0.31768025D-03 -0.15016648D-03  0.78637883D-04
  0.76906132D-04  0.50815133D-04 -0.31328295D-03 -0.30638389D-03 -0.20244079D-03
 -0.27028244D-16 -0.26433032D-16 -0.17465422D-16 -0.49727987D-04  0.17266378D-03
  0.28230782D-16 -0.68243412D-04  0.28497899D-03  0.17282551D-16  0.83755598D-06
  0.66490797D-05  0.37356618D-16 -0.15210873D-03  0.23294791D-03 -0.80839186D-04
  0.80344679D-04 -0.19513899D-16  0.75285588D-17  0.94424184D-04 -0.16115111D-03
  0.66726922D-04  0.50028351D-05  0.17239575D-16 -0.18467863D-16  0.33474292D-04
 -0.45566195D-04  0.12091903D-04  0.33043107D-04  0.15468072D-17 -0.18882862D-16
  0.84678138D-04 -0.28745170D-04  0.38844500D-16 -0.31313717D-03  0.10386184D-03
 -0.80012167D-16  0.59102754D-04 -0.17626326D-04 -0.36521335D-16 -0.68987368D-16
 -0.50669569D-05  0.54415416D-04 -0.19490057D-16  0.33379960D-04 -0.10129525D-03
  0.26904883D-16 -0.18179089D-04 -0.61950997D-04  0.31565287D-16 -0.93516115D-18
  0.16994294D-01  0.31678100D-01  0.53702167D-01  0.81320908D-01  0.10169208D+00
  0.87547409D-01  0.33656420D-01 -0.14583878D-03  0.33839106D-05  0.63543848D-05
  0.10820421D-04  0.16950126D-04  0.22715163D-04  0.24433221D-04  0.14669674D-04
 -0.96473946D-05  0.17254484D-02 -0.31768025D-03 -0.15016648D-03  0.78637883D-04
  0.76906132D-04  0.50815133D-04  0.31328295D-03  0.30638389D-03  0.20244079D-03
 -0.16465292D-16 -0.16102696D-16 -0.10639732D-16 -0.49727987D-04 -0.17266378D-03
  0.21088890D-16 -0.68243412D-04 -0.28497899D-03  0.26082846D-16  0.83755598D-06
 -0.66490797D-05  0.37039420D-16 -0.15210873D-03  0.23294791D-03 -0.80839186D-04
 -0.80344679D-04 -0.20919692D-16 -0.70426367D-17  0.94424184D-04 -0.16115111D-03
  0.66726922D-04 -0.50028351D-05  0.18981663D-16  0.20930115D-16  0.33474292D-04
 -0.45566195D-04  0.12091903D-04 -0.33043107D-04  0.30188633D-17  0.22178137D-16
  0.84678138D-04  0.28745170D-04  0.45456770D-16 -0.31313717D-03 -0.10386184D-03
 -0.76509088D-16  0.59102754D-04  0.17626326D-04 -0.59861221D-16  0.59590373D-16
 -0.50669569D-05 -0.54415416D-04 -0.21516694D-16  0.33379960D-04  0.10129525D-03