 Molden2AIM, Version 4.0.0 (06/02/2016)           Time: Thu Jun 28 04:34:40 2018
GAUSSIAN              5 MOL ORBITALS    183 PRIMITIVES        5 NUCLEI
  H    1    (CENTRE  1)  -1.82523355 -3.17727401  0.00000000  CHARGE =  1.0
  N    2    (CENTRE  2)  -0.00078046 -2.52738019  0.00000000  CHARGE =  7.0
  H    3    (CENTRE  3)  -0.00532903 -0.59063957  0.00000000  CHARGE =  1.0
  H    4    (CENTRE  4)   0.91369203 -3.17084516  1.58134550  CHARGE =  1.0
  H    5    (CENTRE  5)   0.91369203 -3.17084516 -1.58134550  CHARGE =  1.0
CENTRE ASSIGNMENTS    1  1  1  1  1  1  1  1  1  1  1  1  1  1  1  1  1  1  1  1
CENTRE ASSIGNMENTS    1  1  1  1  1  1  1  2  2  2  2  2  2  2  2  2  2  2  2  2
CENTRE ASSIGNMENTS    2  2  2  2  2  2  2  2  2  2  2  2  2  2  2  2  2  2  2  2
CENTRE ASSIGNMENTS    2  2  2  2  2  2  2  2  2  2  2  2  2  2  2  2  2  2  2  2
CENTRE ASSIGNMENTS    2  2  2  2  2  2  2  2  2  2  2  2  2  2  2  2  2  2  2  2
CENTRE ASSIGNMENTS    2  2  3  3  3  3  3  3  3  3  3  3  3  3  3  3  3  3  3  3
CENTRE ASSIGNMENTS    3  3  3  3  3  3  3  3  3  4  4  4  4  4  4  4  4  4  4  4
CENTRE ASSIGNMENTS    4  4  4  4  4  4  4  4  4  4  4  4  4  4  4  4  5  5  5  5
CENTRE ASSIGNMENTS    5  5  5  5  5  5  5  5  5  5  5  5  5  5  5  5  5  5  5  5
CENTRE ASSIGNMENTS    5  5  5
TYPE ASSIGNMENTS      1  1  1  1  1  1  2  3  4  2  3  4  2  3  4  5  6  7  8  9
TYPE ASSIGNMENTS     10  5  6  7  8  9 10  1  1  1  1  1  1  1  1  1  1  1  1  1
TYPE ASSIGNMENTS      1  1  1  1  1  1  2  2  2  3  3  3  4  4  4  2  3  4  2  3
TYPE ASSIGNMENTS      4  2  3  4  5  6  7  8  9 10  5  6  7  8  9 10  5  6  7  8
TYPE ASSIGNMENTS      9 10 11 12 13 17 14 15 18 19 16 20 11 12 13 17 14 15 18 19
TYPE ASSIGNMENTS     16 20  1  1  1  1  1  1  2  3  4  2  3  4  2  3  4  5  6  7
TYPE ASSIGNMENTS      8  9 10  5  6  7  8  9 10  1  1  1  1  1  1  2  3  4  2  3
TYPE ASSIGNMENTS      4  2  3  4  5  6  7  8  9 10  5  6  7  8  9 10  1  1  1  1
TYPE ASSIGNMENTS      1  1  2  3  4  2  3  4  2  3  4  5  6  7  8  9 10  5  6  7
TYPE ASSIGNMENTS      8  9 10
EXPONENTS  0.3387000D+02 0.5095000D+01 0.1159000D+01 0.3258000D+00 0.1027000D+00
EXPONENTS  0.2526000D-01 0.1407000D+01 0.1407000D+01 0.1407000D+01 0.3880000D+00
EXPONENTS  0.3880000D+00 0.3880000D+00 0.1020000D+00 0.1020000D+00 0.1020000D+00
EXPONENTS  0.1057000D+01 0.1057000D+01 0.1057000D+01 0.1057000D+01 0.1057000D+01
EXPONENTS  0.1057000D+01 0.2470000D+00 0.2470000D+00 0.2470000D+00 0.2470000D+00
EXPONENTS  0.2470000D+00 0.2470000D+00 0.1142000D+05 0.1712000D+04 0.3893000D+03
EXPONENTS  0.1100000D+03 0.3557000D+02 0.1254000D+02 0.4644000D+01 0.5118000D+00
EXPONENTS  0.1142000D+05 0.1712000D+04 0.3893000D+03 0.1100000D+03 0.3557000D+02
EXPONENTS  0.1254000D+02 0.4644000D+01 0.5118000D+00 0.1293000D+01 0.1787000D+00
EXPONENTS  0.5760000D-01 0.2663000D+02 0.5948000D+01 0.1742000D+01 0.2663000D+02
EXPONENTS  0.5948000D+01 0.1742000D+01 0.2663000D+02 0.5948000D+01 0.1742000D+01
EXPONENTS  0.5550000D+00 0.5550000D+00 0.5550000D+00 0.1725000D+00 0.1725000D+00
EXPONENTS  0.1725000D+00 0.4910000D-01 0.4910000D-01 0.4910000D-01 0.1654000D+01
EXPONENTS  0.1654000D+01 0.1654000D+01 0.1654000D+01 0.1654000D+01 0.1654000D+01
EXPONENTS  0.4690000D+00 0.4690000D+00 0.4690000D+00 0.4690000D+00 0.4690000D+00
EXPONENTS  0.4690000D+00 0.1510000D+00 0.1510000D+00 0.1510000D+00 0.1510000D+00
EXPONENTS  0.1510000D+00 0.1510000D+00 0.1093000D+01 0.1093000D+01 0.1093000D+01
EXPONENTS  0.1093000D+01 0.1093000D+01 0.1093000D+01 0.1093000D+01 0.1093000D+01
EXPONENTS  0.1093000D+01 0.1093000D+01 0.3640000D+00 0.3640000D+00 0.3640000D+00
EXPONENTS  0.3640000D+00 0.3640000D+00 0.3640000D+00 0.3640000D+00 0.3640000D+00
EXPONENTS  0.3640000D+00 0.3640000D+00 0.3387000D+02 0.5095000D+01 0.1159000D+01
EXPONENTS  0.3258000D+00 0.1027000D+00 0.2526000D-01 0.1407000D+01 0.1407000D+01
EXPONENTS  0.1407000D+01 0.3880000D+00 0.3880000D+00 0.3880000D+00 0.1020000D+00
EXPONENTS  0.1020000D+00 0.1020000D+00 0.1057000D+01 0.1057000D+01 0.1057000D+01
EXPONENTS  0.1057000D+01 0.1057000D+01 0.1057000D+01 0.2470000D+00 0.2470000D+00
EXPONENTS  0.2470000D+00 0.2470000D+00 0.2470000D+00 0.2470000D+00 0.3387000D+02
EXPONENTS  0.5095000D+01 0.1159000D+01 0.3258000D+00 0.1027000D+00 0.2526000D-01
EXPONENTS  0.1407000D+01 0.1407000D+01 0.1407000D+01 0.3880000D+00 0.3880000D+00
EXPONENTS  0.3880000D+00 0.1020000D+00 0.1020000D+00 0.1020000D+00 0.1057000D+01
EXPONENTS  0.1057000D+01 0.1057000D+01 0.1057000D+01 0.1057000D+01 0.1057000D+01
EXPONENTS  0.2470000D+00 0.2470000D+00 0.2470000D+00 0.2470000D+00 0.2470000D+00
EXPONENTS  0.2470000D+00 0.3387000D+02 0.5095000D+01 0.1159000D+01 0.3258000D+00
EXPONENTS  0.1027000D+00 0.2526000D-01 0.1407000D+01 0.1407000D+01 0.1407000D+01
EXPONENTS  0.3880000D+00 0.3880000D+00 0.3880000D+00 0.1020000D+00 0.1020000D+00
EXPONENTS  0.1020000D+00 0.1057000D+01 0.1057000D+01 0.1057000D+01 0.1057000D+01
EXPONENTS  0.1057000D+01 0.1057000D+01 0.2470000D+00 0.2470000D+00 0.2470000D+00
EXPONENTS  0.2470000D+00 0.2470000D+00 0.2470000D+00
MO    1     MO 0.0        OCC NO =    2.0000000  ORB. ENERGY =  -15.117213
  0.12984619D-03  0.23418295D-03  0.34530262D-03  0.28098158D-02  0.17260282D-03
  0.12492760D-06 -0.16565103D-02 -0.59013976D-03  0.10076991D-14  0.68771489D-04
  0.24484332D-04 -0.74597491D-16 -0.34966129D-04 -0.12458342D-04  0.56086913D-15
 -0.20209686D-02  0.80506199D-03  0.12159066D-02 -0.23061219D-02  0.67160570D-15
  0.38703699D-15 -0.14972576D-03  0.59646711D-04  0.90079047D-04 -0.17082677D-03
 -0.51082321D-16  0.35551022D-15  0.41368796D+00  0.77084659D+00  0.13036948D+01
  0.19632922D+01  0.24306831D+01  0.20684016D+01  0.78706497D+00 -0.36861610D-02
 -0.20242925D-02 -0.37955674D-02 -0.64573895D-02 -0.10027644D-01 -0.13307267D-01
 -0.14024033D-01 -0.86957950D-02  0.57844462D-02  0.39907680D-01 -0.61858788D-02
 -0.17934189D-03 -0.94134030D-07 -0.90414610D-07 -0.63404966D-07 -0.16244319D-06
 -0.15602475D-06 -0.10941532D-06 -0.21895599D-14 -0.21030462D-14 -0.14748011D-14
  0.12105666D-06  0.52840874D-08  0.45210542D-14  0.78453271D-07  0.11991778D-06
  0.88250715D-14  0.81236497D-09  0.34893644D-08  0.17637896D-15 -0.30559258D-06
  0.25100954D-06  0.54583039D-07 -0.10893089D-06 -0.92449208D-15  0.13037464D-15
  0.61939052D-08 -0.48496602D-07  0.42302697D-07 -0.10471786D-06  0.46699347D-14
 -0.26653094D-14 -0.99718694D-09  0.20660718D-08 -0.10688849D-08 -0.18076900D-07
  0.16982201D-14 -0.11046666D-14 -0.16710056D-02  0.23749875D-02  0.65892924D-16
 -0.33411714D-04 -0.35740420D-02  0.55026604D-15  0.50464287D-02 -0.35509205D-02
 -0.74794481D-15 -0.41197399D-14  0.43279245D-03 -0.61515461D-03  0.58484746D-15
  0.86629897D-05  0.92576124D-03 -0.64819282D-15 -0.13070404D-02  0.91970258D-03
 -0.11063496D-14  0.80392685D-16  0.12987652D-03  0.23423765D-03  0.34538327D-03
  0.28095566D-02  0.17247169D-03  0.12155022D-06 -0.41325757D-05  0.17586010D-02
  0.86727044D-15  0.19839588D-06 -0.72896285D-04  0.21617244D-15 -0.81425272D-07
  0.37135437D-04  0.59520376D-15  0.12158972D-02 -0.24318075D-02  0.12159104D-02
  0.17110162D-04 -0.51147336D-15 -0.57656266D-15  0.90070952D-04 -0.18014095D-03
  0.90070001D-04  0.12639896D-05 -0.37393617D-15 -0.19033949D-15  0.12983769D-03
  0.23416761D-03  0.34528001D-03  0.28096126D-02  0.17250499D-03  0.12373450D-06
  0.83040472D-03 -0.58428326D-03  0.14359657D-02 -0.34401948D-04  0.24199154D-04
 -0.59507029D-04  0.17536919D-04 -0.12339008D-04  0.30321655D-04  0.40271559D-03
  0.81321889D-03 -0.12159345D-02  0.11445111D-02 -0.28126003D-02  0.19790572D-02
  0.29828404D-04  0.60245021D-04 -0.90073426D-04  0.84792231D-04 -0.20836926D-03
  0.14660459D-03  0.12983769D-03  0.23416761D-03  0.34528001D-03  0.28096126D-02
  0.17250499D-03  0.12373450D-06  0.83040472D-03 -0.58428326D-03 -0.14359657D-02
 -0.34401948D-04  0.24199154D-04  0.59507029D-04  0.17536919D-04 -0.12339008D-04
 -0.30321655D-04  0.40271559D-03  0.81321889D-03 -0.12159345D-02  0.11445111D-02
  0.28126003D-02 -0.19790572D-02  0.29828404D-04  0.60245021D-04 -0.90073426D-04
  0.84792231D-04  0.20836926D-03 -0.14660459D-03
MO    2     MO 0.0        OCC NO =    2.0000000  ORB. ENERGY =   -1.352961
  0.19807434D-01  0.35723523D-01  0.52674313D-01  0.30240919D-01 -0.44667521D-03
 -0.40316280D-04  0.18971570D-01  0.67540207D-02 -0.14466073D-14  0.59685153D-02
  0.21255459D-02  0.18555999D-14 -0.33915707D-03 -0.12080417D-03 -0.52193514D-14
  0.23143025D-02 -0.92262044D-03 -0.13916821D-02  0.26364595D-02  0.30189484D-15
  0.14149123D-14 -0.46056687D-03  0.18350808D-03  0.27705879D-03 -0.52547586D-03
 -0.24394767D-15 -0.12324421D-14 -0.53177678D-02 -0.99088773D-02 -0.16758396D-01
 -0.25237215D-01 -0.31245310D-01 -0.26588348D-01 -0.10117357D-01  0.47383899D-04
 -0.76885132D-01 -0.14416034D+00 -0.24525963D+00 -0.38086231D+00 -0.50542644D+00
 -0.53265009D+00 -0.33027704D+00  0.21970041D+00  0.11216767D+00  0.26988941D-01
  0.13166527D-02 -0.28070802D-05 -0.26961670D-05 -0.18907384D-05 -0.48604130D-05
 -0.46683685D-05 -0.32737823D-05  0.50867511D-14  0.48857636D-14  0.34262347D-14
 -0.22264237D-06 -0.21346683D-05 -0.16805969D-13  0.57359582D-06  0.81383679D-06
 -0.20014843D-13  0.16143877D-07  0.49422773D-07  0.21266330D-14 -0.79777757D-06
  0.42043229D-06  0.37734528D-06 -0.28124349D-06  0.30219483D-14 -0.56905055D-14
 -0.28175582D-06 -0.55359813D-06  0.83535395D-06 -0.16572139D-05 -0.16384575D-13
  0.17154679D-13 -0.59262760D-07  0.17846735D-07  0.41416025D-07 -0.64352351D-07
 -0.61682238D-14  0.60280865D-14 -0.32580287D-02  0.46292717D-02 -0.11303008D-14
 -0.64348567D-04 -0.69655122D-02  0.60578627D-15  0.98384347D-02 -0.69223028D-02
  0.27851161D-14  0.60826647D-14  0.87828987D-03 -0.12484095D-02  0.14420567D-14
  0.17636915D-04  0.18791512D-02 -0.28703927D-14 -0.26525065D-02  0.18660772D-02
 -0.14557775D-14  0.71947698D-14  0.19807561D-01  0.35723751D-01  0.52674650D-01
  0.30239160D-01 -0.44752194D-03 -0.40382868D-04  0.47366467D-04 -0.20138682D-01
 -0.63144348D-15  0.15239345D-04 -0.63355605D-02 -0.14506156D-14 -0.77631848D-06
  0.36009502D-03 -0.60795431D-14 -0.13920785D-02  0.27836749D-02 -0.13915964D-02
 -0.20402669D-04 -0.24897667D-14  0.31630256D-14  0.27699411D-03 -0.55409446D-03
  0.27710035D-03  0.37606604D-05  0.31295507D-15  0.10472489D-14  0.19806819D-01
  0.35722414D-01  0.52672678D-01  0.30239095D-01 -0.44740559D-03 -0.40342158D-04
 -0.95063517D-02  0.66930549D-02 -0.16440905D-01 -0.29912698D-02  0.21045002D-02
 -0.51728503D-02  0.17003020D-03 -0.11974677D-03  0.29402843D-03 -0.46166889D-03
 -0.92970897D-03  0.13913779D-02 -0.13101951D-02  0.32182574D-02 -0.22666220D-02
  0.91804082D-04  0.18521878D-03 -0.27702286D-03  0.26085294D-03 -0.64087292D-03
  0.45107932D-03  0.19806819D-01  0.35722414D-01  0.52672678D-01  0.30239095D-01
 -0.44740559D-03 -0.40342158D-04 -0.95063517D-02  0.66930549D-02  0.16440905D-01
 -0.29912698D-02  0.21045002D-02  0.51728503D-02  0.17003020D-03 -0.11974677D-03
 -0.29402843D-03 -0.46166889D-03 -0.92970897D-03  0.13913779D-02 -0.13101951D-02
 -0.32182574D-02  0.22666220D-02  0.91804082D-04  0.18521878D-03 -0.27702286D-03
  0.26085294D-03  0.64087292D-03 -0.45107932D-03
MO    3     MO 0.0        OCC NO =    2.0000000  ORB. ENERGY =   -0.895046
 -0.22647446D-01 -0.40845601D-01 -0.60226815D-01 -0.40777615D-01 -0.11559133D-02
  0.92971154D-04 -0.21631545D-01  0.26151455D-02 -0.28648693D-12 -0.85952794D-02
  0.27997638D-02 -0.16573007D-12  0.40958058D-03  0.38527215D-03 -0.10071921D-13
 -0.66279436D-02  0.36146890D-02  0.30132546D-02 -0.22319303D-02 -0.13463944D-12
 -0.42976004D-13 -0.76440709D-04  0.25696378D-03 -0.18052307D-03  0.58282142D-03
 -0.22325613D-13 -0.11204605D-14  0.46905181D-08  0.87400899D-08  0.14781683D-07
  0.22260396D-07  0.27559814D-07  0.23452158D-07  0.89239787D-08 -0.41794799D-10
 -0.73304671D-06 -0.13744694D-05 -0.23383814D-05 -0.36312595D-05 -0.48188925D-05
 -0.50784513D-05 -0.31489638D-05  0.20946919D-05  0.21008384D-05 -0.35687608D-05
 -0.25597338D-06  0.18418038D+00  0.17690305D+00  0.12405663D+00  0.96297101D+00
  0.92492215D+00  0.64861925D+00 -0.24938997D-10 -0.23953608D-10 -0.16797924D-10
  0.42443470D-01  0.22192955D+00 -0.57625783D-11  0.42279063D-02  0.22106504D-01
 -0.58297141D-12  0.20488067D-04  0.10697036D-03 -0.18881329D-14 -0.24691206D-01
  0.38773642D-01 -0.14082435D-01 -0.78137901D-02 -0.14238706D-11  0.10050046D-11
  0.11898181D-03 -0.18369498D-03  0.64713171D-04  0.39516055D-04 -0.52256624D-14
 -0.46031332D-16  0.20559810D-03 -0.32273345D-03  0.11713535D-03  0.65081537D-04
  0.86040934D-14 -0.65990465D-14 -0.77904994D-03 -0.81193392D-03  0.75477586D-14
  0.24605663D-03  0.79180305D-03  0.77649085D-14  0.20910932D-02  0.16439987D-02
 -0.30408184D-13 -0.10536872D-12 -0.23933009D-03 -0.24969934D-03  0.15074528D-14
  0.75839411D-04  0.24384345D-03  0.27558617D-14  0.64215086D-03  0.50525457D-03
 -0.72782201D-14 -0.34077406D-13  0.43892395D-01  0.79161743D-01  0.11672394D+00
  0.79033797D-01  0.22396284D-02 -0.18016240D-03  0.22317463D-02 -0.37784785D-01
 -0.28675231D-12  0.12492306D-02 -0.13868984D-01 -0.16528229D-12  0.47258143D-04
  0.99879173D-03 -0.90520877D-14 -0.60029472D-02  0.11975073D-01 -0.59721257D-02
 -0.11289658D-02 -0.37305240D-14  0.14046385D-12  0.11755081D-03 -0.28224681D-03
  0.16469600D-03 -0.14394078D-03 -0.56676604D-14  0.20777240D-13 -0.10622341D-01
 -0.19157829D-01 -0.28248208D-01 -0.19124611D-01 -0.54142917D-03  0.43603109D-04
  0.76991162D-02  0.71459919D-02  0.96523402D-02  0.35052824D-02  0.46688373D-02
  0.39829381D-02 -0.35775974D-04  0.31652950D-03 -0.14662830D-03 -0.36403572D-03
  0.26943956D-02 -0.23303598D-02 -0.43362527D-03 -0.51265259D-02 -0.12852483D-02
 -0.21247162D-03  0.31420483D-03 -0.10173321D-03 -0.27996613D-03 -0.71428588D-04
 -0.48752250D-03 -0.10622341D-01 -0.19157829D-01 -0.28248208D-01 -0.19124611D-01
 -0.54142917D-03  0.43603109D-04  0.76991162D-02  0.71459919D-02 -0.96523402D-02
  0.35052824D-02  0.46688373D-02 -0.39829381D-02 -0.35775974D-04  0.31652950D-03
  0.14662830D-03 -0.36403572D-03  0.26943956D-02 -0.23303598D-02 -0.43362527D-03
  0.51265259D-02  0.12852483D-02 -0.21247162D-03  0.31420483D-03 -0.10173321D-03
 -0.27996613D-03  0.71428588D-04  0.48752250D-03
MO    4     MO 0.0        OCC NO =    2.0000000  ORB. ENERGY =   -0.895042
  0.47598976D-15  0.85846714D-15  0.12658093D-14 -0.16764318D-12 -0.21542329D-13
 -0.32842418D-14 -0.11867661D-12  0.31221396D-12  0.11271064D-01 -0.12781846D-12
  0.15723229D-12  0.64030447D-02 -0.59407073D-14  0.16080492D-13  0.26160873D-03
 -0.62079441D-13  0.58739648D-13  0.33397935D-14  0.11328045D-12  0.52377030D-02
  0.16801304D-02 -0.47414276D-14  0.90240870D-14 -0.42826594D-14  0.21271939D-13
  0.80748489D-03  0.22135111D-04 -0.48869346D-14 -0.91060831D-14 -0.15400669D-13
 -0.23192555D-13 -0.28713887D-13 -0.24434222D-13 -0.92976723D-14  0.43544966D-16
  0.40015110D-14  0.75028706D-14  0.12764615D-13  0.19822100D-13  0.26305079D-13
  0.27721943D-13  0.17189373D-13 -0.11434378D-13 -0.36623878D-13  0.45730178D-12
  0.42171380D-13 -0.97067876D-11 -0.93232535D-11 -0.65381089D-11  0.27243126D-10
  0.26166696D-10  0.18349894D-10  0.98042627D+00  0.94168771D+00  0.66037642D+00
 -0.22423800D-11  0.63108539D-11  0.22595364D+00 -0.23637998D-12  0.67233405D-12
  0.22507737D-01 -0.22620510D-14  0.10431503D-14  0.10888172D-03 -0.27535005D-12
  0.10965005D-11 -0.82115042D-12  0.38169327D-12  0.55973171D-01 -0.39383397D-01
 -0.44007194D-14  0.16541928D-13 -0.12141208D-13  0.22451101D-14 -0.26751178D-03
  0.18590291D-03  0.34016451D-15 -0.49234704D-16 -0.29092981D-15 -0.13282261D-14
 -0.46570345D-03  0.32772277D-03 -0.17326405D-13 -0.17794417D-13 -0.31011366D-03
 -0.98998954D-14  0.45055451D-13 -0.32162844D-03  0.61879110D-13  0.83277987D-14
  0.12519694D-02  0.43876336D-02 -0.15170640D-13  0.93877014D-14 -0.95641027D-04
 -0.35860099D-14 -0.86469505D-14 -0.98741357D-04  0.49097931D-13 -0.19516154D-13
  0.38566444D-03  0.13466619D-02  0.12449108D-11  0.22452479D-11  0.33106167D-11
  0.20027804D-11 -0.99681758D-13 -0.61111295D-14 -0.10914773D-12 -0.10577766D-11
  0.11269615D-01 -0.62415682D-13 -0.28555349D-12  0.64030678D-02 -0.42090900D-14
  0.64801999D-13  0.26168827D-03 -0.15643878D-12  0.31502019D-12 -0.15858141D-12
  0.52273878D-13  0.18993385D-03 -0.54976391D-02  0.50753124D-14 -0.88420427D-14
  0.37667303D-14  0.81640197D-14  0.25214679D-03 -0.76774485D-03  0.36504318D-01
  0.65837040D-01  0.97076678D-01  0.65728574D-01  0.18619213D-02 -0.14981806D-03
 -0.19183084D-01  0.13504494D-01 -0.21901350D-01 -0.79154131D-02  0.55702630D-02
 -0.72845036D-02  0.29138025D-03 -0.20512651D-03  0.76542060D-03 -0.65501228D-03
 -0.28098024D-02  0.34648147D-02 -0.60176190D-02  0.12422077D-01 -0.87462121D-02
  0.17042072D-03  0.17983015D-03 -0.35025087D-03  0.26788985D-04 -0.94593183D-04
  0.66600875D-04 -0.36504318D-01 -0.65837040D-01 -0.97076678D-01 -0.65728574D-01
 -0.18619213D-02  0.14981806D-03  0.19183084D-01 -0.13504494D-01 -0.21901350D-01
  0.79154131D-02 -0.55702630D-02 -0.72845036D-02 -0.29138025D-03  0.20512651D-03
  0.76542060D-03  0.65501228D-03  0.28098024D-02 -0.34648147D-02  0.60176190D-02
  0.12422077D-01 -0.87462121D-02 -0.17042072D-03 -0.17983015D-03  0.35025087D-03
 -0.26788985D-04 -0.94593183D-04  0.66600875D-04
MO    5     MO 0.0        OCC NO =    2.0000000  ORB. ENERGY =   -0.895037
 -0.38547668D-01 -0.69522307D-01 -0.10251060D+00 -0.69408131D-01 -0.19657530D-02
  0.15824148D-03 -0.29346621D-01 -0.16508973D-01  0.16565835D-12 -0.10387710D-01
 -0.71428129D-02  0.99350575D-13  0.87083564D-03  0.16949174D-03 -0.29085446D-14
 -0.78676713D-02  0.25639127D-02  0.53037586D-02 -0.12098067D-01  0.79618371D-13
  0.25615074D-13  0.32155256D-03 -0.26109735D-03 -0.60455214D-04 -0.26952934D-04
  0.11837655D-13 -0.93732970D-15 -0.49417719D-07 -0.92082643D-07 -0.15573483D-06
 -0.23452803D-06 -0.29036092D-06 -0.24708404D-06 -0.94020034D-07  0.44033593D-09
 -0.27337665D-06 -0.51258378D-06 -0.87205752D-06 -0.13542133D-05 -0.17971198D-05
 -0.18939175D-05 -0.11743497D-05  0.78117787D-06  0.93754790D-06  0.52689446D-06
 -0.40380811D-08  0.96297270D+00  0.92492376D+00  0.64862039D+00 -0.18418201D+00
 -0.17690462D+00 -0.12405773D+00  0.14657662D-10  0.14078509D-10  0.98728221D-11
  0.22193188D+00 -0.42447496D-01  0.33672915D-11  0.22107587D-01 -0.42269204D-02
  0.29988609D-12  0.10695946D-03 -0.20392407D-04  0.32534178D-14 -0.23582244D-01
 -0.76062147D-02  0.31188459D-01 -0.38872436D-01  0.84194718D-12 -0.59689516D-12
  0.11035877D-03  0.37531884D-04 -0.14789066D-03  0.18516107D-03 -0.16673068D-13
  0.18245374D-13  0.19607920D-03  0.63384624D-04 -0.25946383D-03  0.32331926D-03
 -0.14774010D-13  0.12609644D-13 -0.15969354D-03  0.15932121D-03 -0.50478439D-14
  0.12080692D-02 -0.23982124D-02 -0.47915516D-14 -0.72898852D-03  0.19202487D-02
  0.19935083D-13  0.68364641D-13 -0.48973233D-04  0.49428814D-04 -0.14567407D-14
  0.37089053D-03 -0.73697612D-03 -0.22112296D-14 -0.22397083D-03  0.58868968D-03
  0.65814516D-14  0.24886281D-13 -0.85020562D-02 -0.15333808D-01 -0.22609692D-01
 -0.15310085D-01 -0.43445002D-03  0.34840342D-04  0.11046685D-01  0.73458194D-02
  0.16646444D-12  0.62800059D-02  0.27017108D-02  0.94822699D-13  0.25734198D-03
 -0.19275725D-03 -0.33875653D-14  0.10858130D-02 -0.23321902D-02  0.12463772D-02
 -0.53805410D-02  0.15595107D-14 -0.79076569D-13 -0.14834498D-03  0.52840315D-04
  0.95504661D-04 -0.75519593D-03  0.45613602D-14 -0.10326323D-13  0.23525204D-01
  0.42428674D-01  0.62561054D-01  0.42358847D-01  0.12000251D-02 -0.96544837D-04
 -0.12889937D-02  0.65851736D-02 -0.21380333D-01  0.11888179D-02  0.23865875D-02
 -0.88213140D-02  0.44473676D-03 -0.18133317D-03  0.32471108D-03 -0.29912263D-02
 -0.21701309D-02  0.51613573D-02 -0.17706721D-02  0.52149125D-02 -0.58819717D-02
 -0.26997021D-03  0.45007822D-04  0.22496239D-03  0.88749716D-04 -0.51664689D-03
  0.12070295D-03  0.23525204D-01  0.42428674D-01  0.62561054D-01  0.42358847D-01
  0.12000251D-02 -0.96544837D-04 -0.12889937D-02  0.65851736D-02  0.21380333D-01
  0.11888179D-02  0.23865875D-02  0.88213140D-02  0.44473676D-03 -0.18133317D-03
 -0.32471108D-03 -0.29912263D-02 -0.21701309D-02  0.51613573D-02 -0.17706721D-02
 -0.52149125D-02  0.58819717D-02 -0.26997021D-03  0.45007822D-04  0.22496239D-03
  0.88749716D-04  0.51664689D-03 -0.12070295D-03
END DATA
RHF
