 Molden2AIM, Version 4.0.0 (06/02/2016)           Time: Thu Jun 28 05:41:18 2018
GAUSSIAN             16 MOL ORBITALS    327 PRIMITIVES        5 NUCLEI
  N    1    (CENTRE  1)   0.14902191 -0.00401945 -0.00013228  CHARGE =  7.0
  O    2    (CENTRE  2)   0.65988291  2.21929058  0.00004724  CHARGE =  8.0
  O    3    (CENTRE  3)   1.50381192 -1.80540277  0.00006047  CHARGE =  8.0
  O    4    (CENTRE  4)  -2.40351242 -0.58782577  0.00000378  CHARGE =  8.0
  H    5    (CENTRE  5)  -3.21055398  1.06102642  0.00002079  CHARGE =  1.0
CENTRE ASSIGNMENTS    1  1  1  1  1  1  1  1  1  1  1  1  1  1  1  1  1  1  1  1
CENTRE ASSIGNMENTS    1  1  1  1  1  1  1  1  1  1  1  1  1  1  1  1  1  1  1  1
CENTRE ASSIGNMENTS    1  1  1  1  1  1  1  1  1  1  1  1  1  1  1  1  1  1  1  1
CENTRE ASSIGNMENTS    1  1  1  1  1  1  1  1  1  1  1  1  1  1  1  2  2  2  2  2
CENTRE ASSIGNMENTS    2  2  2  2  2  2  2  2  2  2  2  2  2  2  2  2  2  2  2  2
CENTRE ASSIGNMENTS    2  2  2  2  2  2  2  2  2  2  2  2  2  2  2  2  2  2  2  2
CENTRE ASSIGNMENTS    2  2  2  2  2  2  2  2  2  2  2  2  2  2  2  2  2  2  2  2
CENTRE ASSIGNMENTS    2  2  2  2  2  2  2  2  2  2  3  3  3  3  3  3  3  3  3  3
CENTRE ASSIGNMENTS    3  3  3  3  3  3  3  3  3  3  3  3  3  3  3  3  3  3  3  3
CENTRE ASSIGNMENTS    3  3  3  3  3  3  3  3  3  3  3  3  3  3  3  3  3  3  3  3
CENTRE ASSIGNMENTS    3  3  3  3  3  3  3  3  3  3  3  3  3  3  3  3  3  3  3  3
CENTRE ASSIGNMENTS    3  3  3  3  3  4  4  4  4  4  4  4  4  4  4  4  4  4  4  4
CENTRE ASSIGNMENTS    4  4  4  4  4  4  4  4  4  4  4  4  4  4  4  4  4  4  4  4
CENTRE ASSIGNMENTS    4  4  4  4  4  4  4  4  4  4  4  4  4  4  4  4  4  4  4  4
CENTRE ASSIGNMENTS    4  4  4  4  4  4  4  4  4  4  4  4  4  4  4  4  4  4  4  4
CENTRE ASSIGNMENTS    5  5  5  5  5  5  5  5  5  5  5  5  5  5  5  5  5  5  5  5
CENTRE ASSIGNMENTS    5  5  5  5  5  5  5
TYPE ASSIGNMENTS      1  1  1  1  1  1  1  1  1  1  1  1  1  1  1  1  1  1  1  2
TYPE ASSIGNMENTS      2  2  3  3  3  4  4  4  2  3  4  2  3  4  2  3  4  5  6  7
TYPE ASSIGNMENTS      8  9 10  5  6  7  8  9 10  5  6  7  8  9 10 11 12 13 17 14
TYPE ASSIGNMENTS     15 18 19 16 20 11 12 13 17 14 15 18 19 16 20  1  1  1  1  1
TYPE ASSIGNMENTS      1  1  1  1  1  1  1  1  1  1  1  1  1  1  2  2  2  3  3  3
TYPE ASSIGNMENTS      4  4  4  2  3  4  2  3  4  2  3  4  5  6  7  8  9 10  5  6
TYPE ASSIGNMENTS      7  8  9 10  5  6  7  8  9 10 11 12 13 17 14 15 18 19 16 20
TYPE ASSIGNMENTS     11 12 13 17 14 15 18 19 16 20  1  1  1  1  1  1  1  1  1  1
TYPE ASSIGNMENTS      1  1  1  1  1  1  1  1  1  2  2  2  3  3  3  4  4  4  2  3
TYPE ASSIGNMENTS      4  2  3  4  2  3  4  5  6  7  8  9 10  5  6  7  8  9 10  5
TYPE ASSIGNMENTS      6  7  8  9 10 11 12 13 17 14 15 18 19 16 20 11 12 13 17 14
TYPE ASSIGNMENTS     15 18 19 16 20  1  1  1  1  1  1  1  1  1  1  1  1  1  1  1
TYPE ASSIGNMENTS      1  1  1  1  2  2  2  3  3  3  4  4  4  2  3  4  2  3  4  2
TYPE ASSIGNMENTS      3  4  5  6  7  8  9 10  5  6  7  8  9 10  5  6  7  8  9 10
TYPE ASSIGNMENTS     11 12 13 17 14 15 18 19 16 20 11 12 13 17 14 15 18 19 16 20
TYPE ASSIGNMENTS      1  1  1  1  1  1  2  3  4  2  3  4  2  3  4  5  6  7  8  9
TYPE ASSIGNMENTS     10  5  6  7  8  9 10
EXPONENTS  0.1142000D+05 0.1712000D+04 0.3893000D+03 0.1100000D+03 0.3557000D+02
EXPONENTS  0.1254000D+02 0.4644000D+01 0.5118000D+00 0.1142000D+05 0.1712000D+04
EXPONENTS  0.3893000D+03 0.1100000D+03 0.3557000D+02 0.1254000D+02 0.4644000D+01
EXPONENTS  0.5118000D+00 0.1293000D+01 0.1787000D+00 0.5760000D-01 0.2663000D+02
EXPONENTS  0.5948000D+01 0.1742000D+01 0.2663000D+02 0.5948000D+01 0.1742000D+01
EXPONENTS  0.2663000D+02 0.5948000D+01 0.1742000D+01 0.5550000D+00 0.5550000D+00
EXPONENTS  0.5550000D+00 0.1725000D+00 0.1725000D+00 0.1725000D+00 0.4910000D-01
EXPONENTS  0.4910000D-01 0.4910000D-01 0.1654000D+01 0.1654000D+01 0.1654000D+01
EXPONENTS  0.1654000D+01 0.1654000D+01 0.1654000D+01 0.4690000D+00 0.4690000D+00
EXPONENTS  0.4690000D+00 0.4690000D+00 0.4690000D+00 0.4690000D+00 0.1510000D+00
EXPONENTS  0.1510000D+00 0.1510000D+00 0.1510000D+00 0.1510000D+00 0.1510000D+00
EXPONENTS  0.1093000D+01 0.1093000D+01 0.1093000D+01 0.1093000D+01 0.1093000D+01
EXPONENTS  0.1093000D+01 0.1093000D+01 0.1093000D+01 0.1093000D+01 0.1093000D+01
EXPONENTS  0.3640000D+00 0.3640000D+00 0.3640000D+00 0.3640000D+00 0.3640000D+00
EXPONENTS  0.3640000D+00 0.3640000D+00 0.3640000D+00 0.3640000D+00 0.3640000D+00
EXPONENTS  0.1533000D+05 0.2299000D+04 0.5224000D+03 0.1473000D+03 0.4755000D+02
EXPONENTS  0.1676000D+02 0.6207000D+01 0.6882000D+00 0.1533000D+05 0.2299000D+04
EXPONENTS  0.5224000D+03 0.1473000D+03 0.4755000D+02 0.1676000D+02 0.6207000D+01
EXPONENTS  0.6882000D+00 0.1752000D+01 0.2384000D+00 0.7376000D-01 0.3446000D+02
EXPONENTS  0.7749000D+01 0.2280000D+01 0.3446000D+02 0.7749000D+01 0.2280000D+01
EXPONENTS  0.3446000D+02 0.7749000D+01 0.2280000D+01 0.7156000D+00 0.7156000D+00
EXPONENTS  0.7156000D+00 0.2140000D+00 0.2140000D+00 0.2140000D+00 0.5974000D-01
EXPONENTS  0.5974000D-01 0.5974000D-01 0.2314000D+01 0.2314000D+01 0.2314000D+01
EXPONENTS  0.2314000D+01 0.2314000D+01 0.2314000D+01 0.6450000D+00 0.6450000D+00
EXPONENTS  0.6450000D+00 0.6450000D+00 0.6450000D+00 0.6450000D+00 0.2140000D+00
EXPONENTS  0.2140000D+00 0.2140000D+00 0.2140000D+00 0.2140000D+00 0.2140000D+00
EXPONENTS  0.1428000D+01 0.1428000D+01 0.1428000D+01 0.1428000D+01 0.1428000D+01
EXPONENTS  0.1428000D+01 0.1428000D+01 0.1428000D+01 0.1428000D+01 0.1428000D+01
EXPONENTS  0.5000000D+00 0.5000000D+00 0.5000000D+00 0.5000000D+00 0.5000000D+00
EXPONENTS  0.5000000D+00 0.5000000D+00 0.5000000D+00 0.5000000D+00 0.5000000D+00
EXPONENTS  0.1533000D+05 0.2299000D+04 0.5224000D+03 0.1473000D+03 0.4755000D+02
EXPONENTS  0.1676000D+02 0.6207000D+01 0.6882000D+00 0.1533000D+05 0.2299000D+04
EXPONENTS  0.5224000D+03 0.1473000D+03 0.4755000D+02 0.1676000D+02 0.6207000D+01
EXPONENTS  0.6882000D+00 0.1752000D+01 0.2384000D+00 0.7376000D-01 0.3446000D+02
EXPONENTS  0.7749000D+01 0.2280000D+01 0.3446000D+02 0.7749000D+01 0.2280000D+01
EXPONENTS  0.3446000D+02 0.7749000D+01 0.2280000D+01 0.7156000D+00 0.7156000D+00
EXPONENTS  0.7156000D+00 0.2140000D+00 0.2140000D+00 0.2140000D+00 0.5974000D-01
EXPONENTS  0.5974000D-01 0.5974000D-01 0.2314000D+01 0.2314000D+01 0.2314000D+01
EXPONENTS  0.2314000D+01 0.2314000D+01 0.2314000D+01 0.6450000D+00 0.6450000D+00
EXPONENTS  0.6450000D+00 0.6450000D+00 0.6450000D+00 0.6450000D+00 0.2140000D+00
EXPONENTS  0.2140000D+00 0.2140000D+00 0.2140000D+00 0.2140000D+00 0.2140000D+00
EXPONENTS  0.1428000D+01 0.1428000D+01 0.1428000D+01 0.1428000D+01 0.1428000D+01
EXPONENTS  0.1428000D+01 0.1428000D+01 0.1428000D+01 0.1428000D+01 0.1428000D+01
EXPONENTS  0.5000000D+00 0.5000000D+00 0.5000000D+00 0.5000000D+00 0.5000000D+00
EXPONENTS  0.5000000D+00 0.5000000D+00 0.5000000D+00 0.5000000D+00 0.5000000D+00
EXPONENTS  0.1533000D+05 0.2299000D+04 0.5224000D+03 0.1473000D+03 0.4755000D+02
EXPONENTS  0.1676000D+02 0.6207000D+01 0.6882000D+00 0.1533000D+05 0.2299000D+04
EXPONENTS  0.5224000D+03 0.1473000D+03 0.4755000D+02 0.1676000D+02 0.6207000D+01
EXPONENTS  0.6882000D+00 0.1752000D+01 0.2384000D+00 0.7376000D-01 0.3446000D+02
EXPONENTS  0.7749000D+01 0.2280000D+01 0.3446000D+02 0.7749000D+01 0.2280000D+01
EXPONENTS  0.3446000D+02 0.7749000D+01 0.2280000D+01 0.7156000D+00 0.7156000D+00
EXPONENTS  0.7156000D+00 0.2140000D+00 0.2140000D+00 0.2140000D+00 0.5974000D-01
EXPONENTS  0.5974000D-01 0.5974000D-01 0.2314000D+01 0.2314000D+01 0.2314000D+01
EXPONENTS  0.2314000D+01 0.2314000D+01 0.2314000D+01 0.6450000D+00 0.6450000D+00
EXPONENTS  0.6450000D+00 0.6450000D+00 0.6450000D+00 0.6450000D+00 0.2140000D+00
EXPONENTS  0.2140000D+00 0.2140000D+00 0.2140000D+00 0.2140000D+00 0.2140000D+00
EXPONENTS  0.1428000D+01 0.1428000D+01 0.1428000D+01 0.1428000D+01 0.1428000D+01
EXPONENTS  0.1428000D+01 0.1428000D+01 0.1428000D+01 0.1428000D+01 0.1428000D+01
EXPONENTS  0.5000000D+00 0.5000000D+00 0.5000000D+00 0.5000000D+00 0.5000000D+00
EXPONENTS  0.5000000D+00 0.5000000D+00 0.5000000D+00 0.5000000D+00 0.5000000D+00
EXPONENTS  0.3387000D+02 0.5095000D+01 0.1159000D+01 0.3258000D+00 0.1027000D+00
EXPONENTS  0.2526000D-01 0.1407000D+01 0.1407000D+01 0.1407000D+01 0.3880000D+00
EXPONENTS  0.3880000D+00 0.3880000D+00 0.1020000D+00 0.1020000D+00 0.1020000D+00
EXPONENTS  0.1057000D+01 0.1057000D+01 0.1057000D+01 0.1057000D+01 0.1057000D+01
EXPONENTS  0.1057000D+01 0.2470000D+00 0.2470000D+00 0.2470000D+00 0.2470000D+00
EXPONENTS  0.2470000D+00 0.2470000D+00
MO    1     MO 0.0        OCC NO =    2.0000000  ORB. ENERGY =  -19.742636
  0.21768229D-03  0.40561889D-03  0.68600322D-03  0.10330828D-02  0.12790236D-02
  0.10883913D-02  0.41415298D-03 -0.19396551D-05 -0.14407177D-03 -0.27013592D-03
 -0.45958157D-03 -0.71368166D-03 -0.94709707D-03 -0.99811030D-03 -0.61889206D-03
  0.41168724D-03 -0.48556475D-03  0.20074595D-02  0.68299711D-03  0.10254750D-02
  0.98495652D-03  0.69071950D-03  0.32099121D-03  0.30830822D-03  0.21620700D-03
 -0.79907510D-07 -0.76750208D-07 -0.53822543D-07 -0.19862590D-02 -0.79217372D-03
  0.77670052D-07 -0.92974019D-03  0.23726276D-03  0.71995603D-07 -0.63870634D-04
  0.73467036D-05  0.59991514D-08  0.87055187D-03 -0.51429854D-03 -0.35625333D-03
  0.69171008D-03 -0.10865852D-06 -0.36118325D-07  0.73263384D-03 -0.34282297D-03
 -0.38981087D-03  0.56471202D-03 -0.13722808D-06 -0.94465293D-07  0.69589101D-04
 -0.11127610D-04 -0.58461491D-04  0.30155551D-04 -0.22608695D-07 -0.60921190D-08
 -0.47139159D-03  0.15183177D-03 -0.34635803D-07  0.64385003D-03 -0.89606857D-03
  0.14168573D-06  0.77032475D-03  0.44057325D-03 -0.37778317D-07  0.65028604D-07
  0.50382436D-04 -0.54037285D-04 -0.16198019D-07 -0.18737167D-03  0.29079868D-03
  0.13546725D-07  0.36224359D-04 -0.12868682D-03  0.35047332D-07 -0.50520459D-07
 -0.31771130D-04 -0.59217299D-04 -0.10041292D-03 -0.15197963D-03 -0.18962620D-03
 -0.16286362D-03 -0.62526510D-04  0.27968492D-06 -0.94874101D-04 -0.17793873D-03
 -0.30334652D-03 -0.47407157D-03 -0.63392402D-03 -0.67688306D-03 -0.41383303D-03
  0.27302190D-03 -0.28060687D-04 -0.36827234D-03 -0.18820516D-03 -0.32233788D-04
 -0.31255931D-04 -0.21085067D-04  0.63059140D-04  0.61146154D-04  0.41248834D-04
  0.49546450D-07  0.48043390D-07  0.32409787D-07 -0.15700585D-04 -0.17902142D-03
 -0.54696679D-07  0.19860088D-04  0.99217030D-04  0.44349834D-07  0.12707839D-04
  0.75558878D-05  0.80339629D-09  0.34123908D-03 -0.15029256D-03 -0.19094652D-03
 -0.24362690D-03 -0.69724361D-07  0.52965539D-07 -0.21676856D-03  0.12869229D-03
  0.88076265D-04  0.21739878D-03  0.45199883D-07 -0.11262363D-07 -0.30751429D-04
  0.16137017D-04  0.14614412D-04  0.27409566D-04  0.91982045D-08 -0.19190870D-07
 -0.63217111D-04  0.13042824D-04  0.43315842D-07  0.43316904D-03 -0.61568822D-04
 -0.32801025D-07 -0.24351771D-03  0.22440351D-04 -0.97146500D-07  0.16237758D-06
  0.59135534D-04 -0.54678368D-04 -0.17057314D-07 -0.21731112D-03  0.22129772D-03
  0.14394326D-07  0.39904517D-04 -0.57262613D-04  0.36777615D-07 -0.85397255D-07
  0.43677228D-04  0.81408733D-04  0.13804224D-03  0.20893336D-03  0.26068783D-03
  0.22389608D-03  0.85958057D-04 -0.38449566D-06 -0.12747738D-03 -0.23908698D-03
 -0.40759088D-03 -0.63698521D-03 -0.85177060D-03 -0.90949241D-03 -0.55604583D-03
  0.36684527D-03  0.25076240D-04  0.13820208D-03 -0.76882259D-04 -0.14976519D-03
 -0.14522186D-03 -0.97965808D-04 -0.67633642D-04 -0.65581882D-04 -0.44241150D-04
  0.12149899D-06  0.11781315D-06  0.79476055D-07  0.12864334D-04  0.22732474D-03
 -0.14477555D-06  0.58637162D-04 -0.25196266D-04 -0.26010410D-07  0.12608930D-04
 -0.48561177D-05 -0.13793588D-08  0.19493590D-03 -0.83992975D-04 -0.11094292D-03
  0.24395568D-03 -0.59445975D-07  0.68239855D-07 -0.11785552D-03  0.44719896D-04
  0.73135621D-04 -0.79669107D-04  0.60052146D-07 -0.77258717D-07 -0.27560516D-04
 -0.33520839D-05  0.30912599D-04  0.41148383D-05  0.10886179D-07  0.20324287D-08
 -0.24868503D-04  0.12461462D-03  0.28438776D-07  0.32820211D-03 -0.36935649D-03
  0.12651652D-07 -0.25359660D-03 -0.44873823D-05 -0.97967979D-07 -0.78786450D-07
  0.63334921D-04 -0.31559819D-04 -0.90161640D-08 -0.19911798D-03  0.39770486D-04
 -0.47270736D-08  0.91132194D-05  0.54908971D-04  0.31775566D-07  0.44180330D-07
  0.49847579D+00  0.92909474D+00  0.15754368D+01  0.23844970D+01  0.29751561D+01
  0.25552623D+01  0.98101488D+00 -0.43881398D-02 -0.28141641D-03 -0.52780344D-03
 -0.89978916D-03 -0.14061953D-02 -0.18803511D-02 -0.20077766D-02 -0.12275152D-02
  0.80983999D-03  0.50072328D-01 -0.11787686D-02 -0.70762692D-03  0.51733244D-02
  0.50163845D-02  0.33840233D-02  0.73374352D-02  0.71148440D-02  0.47996317D-02
 -0.60721706D-06 -0.58879629D-06 -0.39719850D-06 -0.15241379D-02  0.28270034D-03
  0.84922676D-07 -0.11134732D-02 -0.48191563D-03  0.38431982D-07 -0.62311268D-04
 -0.19938613D-04  0.21322573D-08  0.25580449D-02  0.47087817D-03 -0.30289231D-02
 -0.18281084D-02 -0.59038358D-06 -0.23589969D-07 -0.12940899D-02  0.55163088D-03
  0.74245898D-03 -0.57148816D-03  0.18882280D-06  0.38988480D-07 -0.14943264D-03
  0.17805764D-04  0.13162688D-03 -0.84045597D-04  0.23379667D-07  0.56767134D-09
  0.18836834D-03  0.51988701D-03 -0.14908531D-07 -0.15073088D-02 -0.34867344D-03
  0.25345943D-07  0.94220379D-03 -0.12109876D-02  0.19379651D-07 -0.29283286D-07
 -0.29425797D-03  0.16313292D-04 -0.18032023D-07  0.64050286D-03 -0.41210659D-03
  0.76386699D-07  0.24227106D-03  0.36316672D-03 -0.22290629D-07  0.57374094D-07
  0.20283115D-03  0.36581432D-03  0.53939301D-03 -0.20085732D-03 -0.30391900D-03
 -0.28425367D-04 -0.27833606D-03  0.35547679D-03 -0.34679428D-08 -0.51732347D-03
  0.48403472D-03  0.22688237D-07 -0.86518492D-04  0.76523081D-04  0.61527326D-08
  0.26218522D-03 -0.11709343D-02  0.90874907D-03  0.24659291D-02  0.19903454D-07
 -0.54836579D-07 -0.46091518D-04  0.69717128D-05  0.39119805D-04  0.79202717D-04
  0.10566067D-07 -0.33912201D-09
MO    2     MO 0.0        OCC NO =    2.0000000  ORB. ENERGY =  -19.707834
  0.61093881D-03  0.11383945D-02  0.19253105D-02  0.28994109D-02  0.35896588D-02
  0.30546377D-02  0.11623460D-02 -0.54437621D-05 -0.45291932D-03 -0.84922796D-03
 -0.14447894D-02 -0.22436055D-02 -0.29773949D-02 -0.31377655D-02 -0.19456148D-02
  0.12942237D-02  0.78413789D-03 -0.15514854D-02 -0.56565899D-04  0.60319307D-03
  0.57935974D-03  0.40628704D-03 -0.48012523D-03 -0.46115454D-03 -0.32339339D-03
  0.10483023D-06  0.10068818D-06  0.70609503D-07  0.10683722D-02 -0.19294726D-02
  0.85240015D-07 -0.32834325D-03 -0.18223228D-05 -0.40036276D-08  0.32548548D-04
 -0.22757626D-04 -0.30721147D-08  0.28254086D-03  0.83588814D-03 -0.11184290D-02
 -0.30205354D-02  0.29497503D-06 -0.32996434D-06  0.85518160D-05 -0.57969277D-03
  0.57114095D-03  0.66851843D-03 -0.44478646D-08 -0.58885848D-07  0.18043098D-04
 -0.81239262D-04  0.63196164D-04  0.16129752D-03 -0.96774255D-08 -0.37294845D-08
  0.37020368D-03 -0.15712920D-03  0.92168018D-07 -0.13872689D-02  0.69095881D-03
 -0.36480798D-07  0.27665790D-03 -0.21957121D-03 -0.24002325D-06  0.25132234D-06
  0.34511039D-03 -0.68136388D-04 -0.57895868D-08 -0.12262996D-02  0.40556621D-03
  0.69702319D-07  0.19096844D-03 -0.20115705D-03 -0.52333558D-07  0.27934134D-06
 -0.23087863D-02 -0.43032807D-02 -0.72969382D-02 -0.11044256D-01 -0.13780007D-01
 -0.11835188D-01 -0.45437588D-02  0.20324512D-04 -0.28003579D-03 -0.52521407D-03
 -0.89537485D-03 -0.13992966D-02 -0.18711262D-02 -0.19979265D-02 -0.12214931D-02
  0.80586696D-03 -0.33949618D-03  0.10830266D-02  0.19913517D-03 -0.29146166D-03
 -0.28261977D-03 -0.19065363D-03  0.57597074D-03  0.55849787D-03  0.37675937D-03
  0.14010054D-06  0.13585039D-06  0.91643873D-07  0.26455085D-03 -0.12841500D-02
 -0.19755197D-06 -0.57777590D-05 -0.45810522D-03 -0.60159103D-07 -0.10646521D-04
 -0.12236730D-04  0.17033442D-08  0.44158987D-03  0.25039598D-03 -0.69198585D-03
 -0.35751439D-03  0.54514803D-06 -0.14310993D-06 -0.51904728D-03  0.38596896D-03
  0.13307832D-03  0.26983107D-03 -0.27151007D-06  0.24106622D-06 -0.75769652D-04
  0.70242080D-04  0.55275722D-05  0.13597712D-04 -0.23211728D-07  0.17582420D-07
 -0.12941642D-03 -0.10907843D-03  0.70208069D-07  0.25803221D-03  0.89204035D-04
 -0.14899680D-06  0.13021706D-03  0.23803126D-03 -0.61627406D-07 -0.17923294D-06
  0.15003471D-03 -0.33889056D-04 -0.22451526D-07 -0.40554901D-03  0.26614180D-03
  0.13658360D-06 -0.44555134D-04 -0.16447463D-03 -0.69229022D-07  0.20418797D-06
  0.49856383D+00  0.92925884D+00  0.15757151D+01  0.23849182D+01  0.29756816D+01
  0.25557136D+01  0.98118815D+00 -0.43889148D-02 -0.35075144D-03 -0.65784303D-03
 -0.11214781D-02 -0.17526520D-02 -0.23436297D-02 -0.25024502D-02 -0.15299490D-02
  0.10093674D-02  0.50246285D-01  0.96240829D-03 -0.42969392D-03 -0.61934755D-02
 -0.60055879D-02 -0.40513341D-02  0.82429377D-02  0.79928768D-02  0.53919475D-02
 -0.10514198D-05 -0.10195236D-05 -0.68776457D-06 -0.58739102D-04 -0.89919466D-05
 -0.50042272D-07  0.39657628D-03 -0.68140728D-03 -0.10337407D-07  0.19614151D-04
 -0.30885392D-04  0.43004679D-08  0.22873648D-03  0.19362887D-02 -0.21650252D-02
 -0.54121245D-02  0.67413878D-06 -0.88058080D-06 -0.10826797D-03 -0.60658072D-03
  0.71484869D-03  0.12103031D-02 -0.10640439D-06  0.13745655D-06 -0.58565235D-05
 -0.13406062D-03  0.13991714D-03  0.27678703D-03 -0.20945005D-07  0.32641417D-07
  0.70367912D-04  0.29838515D-04  0.27136009D-07 -0.14250259D-03  0.17040392D-04
 -0.18575504D-07 -0.68601150D-04 -0.10655594D-03 -0.62832523D-07  0.83368406D-07
 -0.22619635D-04 -0.10072491D-03 -0.42485766D-07  0.38854943D-03 -0.18014211D-03
  0.44493262D-07 -0.32069052D-03  0.48231684D-03  0.82964036D-07 -0.14296582D-06
  0.35808873D-03  0.66743132D-03  0.11317424D-02  0.17129448D-02  0.21372550D-02
  0.18356170D-02  0.70472906D-03 -0.31522963D-05 -0.14962797D-03 -0.28063097D-03
 -0.47841429D-03 -0.74766841D-03 -0.99977513D-03 -0.10675267D-02 -0.65266492D-03
  0.43058868D-03  0.48331413D-05  0.25283077D-03  0.17878783D-03 -0.36763783D-03
 -0.35648503D-03 -0.24048269D-03 -0.26723919D-03 -0.25913212D-03 -0.17480900D-03
  0.15245074D-06  0.14782594D-06  0.99722505D-07  0.67584690D-03  0.28698353D-03
 -0.15586786D-06  0.30140355D-03  0.32774013D-03 -0.31646416D-07  0.19375053D-04
 -0.29163692D-05  0.21601221D-08  0.24122768D-03  0.17658543D-03 -0.41781311D-03
 -0.13142863D-02  0.28004757D-06 -0.98858062D-07  0.23875135D-04 -0.19084910D-03
  0.16697396D-03  0.11017751D-02 -0.24540692D-06  0.32545374D-07  0.10301564D-04
  0.89412618D-05 -0.19242826D-04  0.17060280D-03 -0.35508981D-07  0.14623591D-07
 -0.14120550D-03 -0.34422474D-04  0.68872099D-07  0.55646242D-03  0.18909857D-03
 -0.72473971D-07 -0.13284593D-03 -0.85831143D-04 -0.13414233D-06 -0.17120556D-06
 -0.17483818D-04 -0.14438848D-03 -0.17152487D-07 -0.18689239D-04  0.38472955D-03
 -0.58996017D-07  0.71140694D-04  0.48435902D-04  0.11045348D-06 -0.21324180D-07
  0.79877206D-04  0.14406183D-03  0.21241909D-03 -0.46394704D-04  0.24887014D-04
  0.81412182D-05  0.39623267D-03 -0.20687674D-03 -0.72561895D-07 -0.22542525D-03
 -0.71416574D-04 -0.47738902D-07 -0.19901376D-04  0.14078840D-04 -0.95728474D-08
 -0.23396665D-03  0.11052320D-03  0.12344344D-03 -0.18493675D-03 -0.27353529D-07
  0.10313713D-06 -0.33526373D-04  0.43755890D-04 -0.10229517D-04  0.48243150D-04
  0.11336377D-08  0.83795218D-08
MO    3     MO 0.0        OCC NO =    2.0000000  ORB. ENERGY =  -19.705760
  0.59808308D-03  0.11144398D-02  0.18847970D-02  0.28383999D-02  0.35141232D-02
  0.29903602D-02  0.11378872D-02 -0.53292114D-05 -0.44206572D-03 -0.82887736D-03
 -0.14101670D-02 -0.21898405D-02 -0.29060457D-02 -0.30625732D-02 -0.18989908D-02
  0.12632094D-02  0.67260366D-03 -0.10305272D-02  0.94926899D-04  0.25146272D-03
  0.24152694D-03  0.16937536D-03  0.50872747D-03  0.48862665D-03  0.34265874D-03
  0.68676635D-07  0.65963087D-07  0.46257870D-07  0.41528806D-03  0.22535823D-02
  0.96647466D-07 -0.51012219D-03  0.13281666D-03  0.43443811D-07  0.13614527D-04
  0.54821250D-04  0.34632033D-08 -0.76987531D-03  0.18905923D-02 -0.11207170D-02
  0.15401945D-02  0.11504233D-06  0.41797297D-06 -0.12571060D-04 -0.48893740D-03
  0.50150846D-03  0.19334747D-03  0.14433178D-07  0.42306383D-07  0.28378161D-04
 -0.89812127D-04  0.61433966D-04  0.12837449D-03 -0.22027029D-08 -0.19403853D-07
  0.28779986D-03 -0.32079734D-03  0.70513696D-07 -0.96429122D-03  0.76169372D-03
  0.11483375D-07  0.10089166D-03  0.20069831D-03 -0.22302446D-06  0.47170750D-08
  0.17749664D-03 -0.43276403D-03 -0.10003153D-07 -0.65625272D-03  0.10892266D-02
  0.14198187D-06  0.12376278D-03  0.20906544D-03 -0.11197241D-06 -0.10336765D-06
  0.49853759D+00  0.92920991D+00  0.15756321D+01  0.23847926D+01  0.29755249D+01
  0.25555791D+01  0.98113649D+00 -0.43886837D-02 -0.33075969D-03 -0.62034800D-03
 -0.10575573D-02 -0.16527563D-02 -0.22100501D-02 -0.23598182D-02 -0.14427466D-02
  0.95183657D-03  0.50242795D-01  0.39363130D-03 -0.58583905D-03 -0.25369857D-02
 -0.24600228D-02 -0.16595168D-02 -0.98434555D-02 -0.95448407D-02 -0.64388932D-02
 -0.95292559D-06 -0.92401728D-06 -0.62333660D-06 -0.14229461D-04  0.20281498D-03
 -0.41465922D-07 -0.21291536D-04  0.94855183D-03  0.36024722D-07  0.83233829D-05
  0.42147702D-04  0.45782541D-08 -0.14100848D-02  0.36174816D-02 -0.22073968D-02
  0.22001531D-02  0.22190759D-06  0.10262296D-05  0.28334736D-03 -0.10535340D-02
  0.77018668D-03 -0.37675074D-03 -0.28279267D-07 -0.19492333D-06  0.90636620D-04
 -0.21914948D-03  0.12851286D-03 -0.70381525D-04 -0.40858161D-10 -0.44063161D-07
  0.32642619D-04 -0.11062839D-04  0.17327310D-07  0.58708749D-05  0.65298348D-04
  0.20496618D-07 -0.10379873D-03 -0.32109833D-04 -0.72478549D-07 -0.24789796D-08
 -0.18440971D-04  0.22752032D-03 -0.40003302D-07  0.16164477D-03 -0.12457140D-03
 -0.10525282D-07 -0.10632186D-03 -0.55798956D-03  0.13053519D-06  0.51059187D-07
  0.31175418D-02  0.58106967D-02  0.98530164D-02  0.14912999D-01  0.18607069D-01
  0.15980991D-01  0.61354130D-02 -0.27444079D-04 -0.27913235D-03 -0.52351963D-03
 -0.89248620D-03 -0.13947822D-02 -0.18650896D-02 -0.19914808D-02 -0.12175523D-02
  0.80326708D-03  0.23669063D-03  0.14178861D-02  0.21577709D-03 -0.16899062D-03
 -0.16386406D-03 -0.11054172D-03 -0.59666626D-03 -0.57856556D-03 -0.39029691D-03
  0.12067039D-06  0.11700969D-06  0.78934044D-07 -0.17641156D-03  0.13745381D-02
 -0.20572157D-06  0.90032249D-05  0.52162776D-03 -0.15023706D-06 -0.11038561D-04
 -0.12448200D-05 -0.42898986D-08  0.34285857D-03  0.36127522D-03 -0.70413378D-03
  0.22512811D-03  0.45790860D-06  0.39239838D-06 -0.36690110D-03  0.22066683D-03
  0.14623426D-03 -0.72532552D-03 -0.15462893D-06 -0.38613956D-06 -0.76594356D-04
  0.57399987D-04  0.19194369D-04 -0.57947832D-04 -0.67721427D-08 -0.54867038D-07
 -0.74669535D-05  0.14594320D-03  0.67081974D-07 -0.10650459D-03 -0.25376842D-03
 -0.20290660D-06  0.12890546D-03 -0.18406119D-03  0.16606725D-08  0.51338674D-07
  0.12285376D-03 -0.12640656D-03 -0.18507239D-07 -0.27695332D-03  0.23178588D-03
  0.18667113D-06 -0.91607957D-04  0.14743380D-03 -0.13114941D-06  0.31527769D-07
  0.35816118D-03  0.66756636D-03  0.11319714D-02  0.17132914D-02  0.21376874D-02
  0.18359884D-02  0.70487164D-03 -0.31529341D-05 -0.12414992D-03 -0.23284625D-03
 -0.39695182D-03 -0.62035842D-03 -0.82953742D-03 -0.88575256D-03 -0.54153175D-03
  0.35726976D-03 -0.96613373D-04  0.79950116D-03  0.23226841D-03 -0.38161930D-03
 -0.37004235D-03 -0.24962838D-03  0.90333069D-04  0.87592691D-04  0.59089512D-04
  0.12603967D-06  0.12221608D-06  0.82446248D-07  0.72756854D-03 -0.18605788D-04
 -0.13458693D-06 -0.13992848D-03  0.36340577D-03 -0.16881707D-07 -0.10336355D-05
 -0.81818594D-05 -0.39182217D-08 -0.34717654D-03  0.54321101D-03 -0.19603447D-03
  0.12940937D-02  0.26182247D-06  0.43124849D-07  0.47356153D-03 -0.46255990D-03
 -0.11001628D-04 -0.70300128D-03 -0.24026473D-06 -0.82171342D-08  0.67511380D-04
  0.11923782D-04 -0.79435162D-04 -0.19382786D-03 -0.29699066D-07  0.14862131D-08
  0.21573583D-05 -0.11805453D-03  0.71885602D-07  0.37538882D-03 -0.17808696D-03
 -0.16928951D-06 -0.38186090D-03  0.53225054D-03 -0.46367292D-07  0.20004782D-06
  0.15457768D-03 -0.37543150D-04 -0.21926382D-07 -0.69001081D-03  0.22452893D-03
 -0.84785098D-08  0.22627778D-03 -0.11189948D-03  0.74257656D-07 -0.19742882D-06
 -0.10188107D-04 -0.18374671D-04 -0.27093441D-04 -0.10479154D-02 -0.21561176D-03
 -0.58881285D-05  0.40221642D-03  0.16013823D-03 -0.52945260D-07 -0.35019270D-04
  0.38058897D-03 -0.64098347D-07 -0.83132976D-05  0.50741756D-04  0.32054260D-08
  0.13606374D-03 -0.14467875D-03  0.86150154D-05 -0.50664614D-03  0.86062698D-08
  0.13864283D-06 -0.32038431D-04  0.17070127D-04  0.14968304D-04 -0.57938177D-04
  0.24927339D-08  0.11967290D-07
MO    4     MO 0.0        OCC NO =    2.0000000  ORB. ENERGY =  -15.086950
  0.41324193D+00  0.77001548D+00  0.13022892D+01  0.19611754D+01  0.24280624D+01
  0.20661715D+01  0.78621637D+00 -0.36821867D-02 -0.16021313D-02 -0.30040112D-02
 -0.51107169D-02 -0.79364037D-02 -0.10532069D-01 -0.11099355D-01 -0.68823084D-02
  0.45781142D-02  0.39930234D-01 -0.20125752D-02 -0.15896768D-03 -0.17814301D-02
 -0.17110424D-02 -0.11999010D-02 -0.16530111D-03 -0.15876974D-03 -0.11134030D-03
  0.21635969D-06  0.20781089D-06  0.14573134D-06  0.25129212D-02 -0.27468115D-03
  0.48053051D-06  0.13566838D-03  0.15274516D-03 -0.89271903D-07  0.26867692D-04
  0.25341433D-04  0.13857327D-08  0.69396011D-03  0.38370598D-02 -0.45310199D-02
 -0.21067334D-02  0.46579232D-06 -0.13604510D-07 -0.71413692D-03 -0.15933479D-03
  0.87347171D-03 -0.53422321D-04  0.19873631D-06 -0.82890720D-07 -0.12269091D-03
 -0.61583297D-04  0.18427421D-03  0.33818404D-03 -0.28953336D-08 -0.20413026D-07
 -0.29323883D-03  0.46226951D-03 -0.26383272D-06  0.23579468D-02 -0.15113489D-02
  0.90899800D-07 -0.14782303D-02  0.12454037D-03  0.70059835D-06 -0.42181981D-06
  0.30378818D-03 -0.34561406D-03  0.26730667D-07 -0.10298280D-02  0.11410133D-02
 -0.40699576D-07  0.11846346D-03 -0.10417113D-03 -0.39492424D-07 -0.23258922D-07
  0.61063918D-03  0.11381529D-02  0.19299301D-02  0.29210391D-02  0.36446040D-02
  0.31302288D-02  0.12017557D-02 -0.53755269D-05 -0.50399444D-03 -0.94525406D-03
 -0.16114510D-02 -0.25183842D-02 -0.33675595D-02 -0.35957684D-02 -0.21983823D-02
  0.14503591D-02  0.67065039D-03  0.38798290D-04 -0.27660827D-03 -0.60413360D-03
 -0.58580637D-03 -0.39518152D-03 -0.22655091D-02 -0.21967817D-02 -0.14819360D-02
 -0.13390018D-07 -0.12983813D-07 -0.87588034D-08  0.10807699D-03 -0.20330359D-03
 -0.16093977D-06 -0.78783497D-04  0.65196568D-03  0.49908072D-07  0.53564140D-05
  0.31666997D-04  0.52568488D-08 -0.36799814D-03  0.17552013D-02 -0.13872032D-02
  0.77427705D-03  0.86433294D-07  0.29400596D-06  0.30880538D-03 -0.13118208D-02
  0.10030154D-02 -0.55347268D-03 -0.43099169D-07 -0.14518992D-06  0.65829037D-04
 -0.15610726D-03  0.90278220D-04 -0.95503862D-04  0.99916334D-08 -0.48095723D-07
 -0.37721927D-03  0.12217032D-02 -0.61213521D-07  0.13668041D-02 -0.20431155D-02
 -0.19888226D-06 -0.23514630D-03 -0.16219942D-02  0.38252283D-06  0.19866630D-06
 -0.43615970D-04  0.35373952D-03 -0.62673110D-07  0.30383892D-03 -0.26655237D-03
  0.24842116D-07 -0.17299100D-03 -0.79466618D-03  0.16317721D-06  0.14336033D-07
  0.60575426D-03  0.11290480D-02  0.19144913D-02  0.28976718D-02  0.36154483D-02
  0.31051879D-02  0.11921420D-02 -0.53325244D-05 -0.50843787D-03 -0.95358783D-03
 -0.16256582D-02 -0.25405873D-02 -0.33972493D-02 -0.36274703D-02 -0.22177642D-02
  0.14631461D-02  0.81525479D-03  0.68375189D-03 -0.20500102D-03 -0.17510357D-02
 -0.16979157D-02 -0.11454039D-02  0.19953451D-02  0.19348135D-02  0.13052138D-02
 -0.27298900D-07 -0.26470750D-07 -0.17857011D-07  0.38836874D-03  0.16403810D-03
 -0.18060738D-06  0.94591648D-03 -0.43767590D-03 -0.86699188D-07  0.35878380D-04
 -0.25921325D-04 -0.69371650D-09  0.42179470D-03  0.83131794D-03 -0.12531126D-02
 -0.26109494D-02  0.21859976D-06 -0.32933612D-07 -0.38925722D-03 -0.69656406D-03
  0.10858213D-02  0.24641129D-02 -0.15562169D-06  0.20499061D-07 -0.12030804D-03
 -0.38461241D-04  0.15876928D-03  0.42066323D-03 -0.28386444D-07  0.42999707D-08
 -0.75160879D-03 -0.13733851D-03 -0.10492749D-06  0.33354592D-02 -0.11436474D-02
 -0.45702891D-07 -0.10806329D-02  0.15556629D-02  0.36048536D-06 -0.72586500D-06
 -0.93938111D-04 -0.80138827D-04 -0.61286902D-07  0.80048014D-03 -0.48788372D-03
  0.10184554D-06 -0.51866580D-03  0.72830020D-03  0.82015167D-07 -0.15658729D-06
  0.22783142D-03  0.42464846D-03  0.72006308D-03  0.10898490D-02  0.13598134D-02
  0.11678983D-02  0.44837888D-03 -0.20056262D-05 -0.18117831D-03 -0.33980441D-03
 -0.57929203D-03 -0.90532068D-03 -0.12105862D-02 -0.12926239D-02 -0.79028489D-03
  0.52138197D-03 -0.20565450D-03  0.22682335D-02  0.22907875D-03 -0.37950658D-03
 -0.36799373D-03 -0.24824639D-03 -0.27709276D-03 -0.26868677D-03 -0.18125451D-03
  0.68470548D-07  0.66393400D-07  0.44788595D-07  0.18435452D-02  0.57471143D-03
 -0.13771410D-06  0.11259572D-02  0.76958370D-03 -0.35160590D-07  0.40411034D-04
 -0.36107788D-04 -0.37209248D-10  0.14846030D-02 -0.76521057D-03 -0.71939239D-03
  0.91018006D-03 -0.13123352D-06 -0.76920469D-07  0.79367056D-04  0.45888056D-04
 -0.12525511D-03  0.21594041D-03 -0.10172286D-06  0.50146637D-08  0.25395674D-04
  0.68906318D-04 -0.94301992D-04  0.22603919D-03  0.28878065D-08 -0.53674002D-08
  0.79393857D-04  0.87092542D-04  0.48924416D-07 -0.47287736D-04 -0.26934334D-03
 -0.10888064D-06 -0.19089384D-03  0.80657099D-05 -0.37892603D-07 -0.36724012D-07
 -0.10823937D-03  0.13821076D-03 -0.22760036D-07  0.55006093D-04 -0.37057592D-03
  0.34262415D-07  0.26971200D-03 -0.44056369D-04  0.34017694D-07  0.13289741D-07
  0.15697700D-04  0.28311448D-04  0.41745213D-04 -0.76328413D-03  0.34966528D-03
  0.15374359D-04 -0.15496189D-03  0.13438146D-03 -0.16858319D-07 -0.88636705D-03
 -0.23963104D-04  0.14532893D-07 -0.16693328D-04 -0.24713383D-04 -0.62774308D-08
 -0.53082042D-03  0.42961045D-03  0.10120997D-03  0.44425653D-03  0.72875975D-07
  0.27920631D-07 -0.95575125D-04  0.68929820D-04  0.26645305D-04  0.89548634D-04