 Molden2AIM, Version 4.0.0 (06/02/2016)           Time: Thu Jun 28 05:33:52 2018
GAUSSIAN             16 MOL ORBITALS    327 PRIMITIVES        5 NUCLEI
  N    1    (CENTRE  1)   0.14934884 -0.00324466  0.00000000  CHARGE =  7.0
  O    2    (CENTRE  2)   0.65940670  2.22034505  0.00000000  CHARGE =  8.0
  O    3    (CENTRE  3)   1.50538040 -1.80385886  0.00000000  CHARGE =  8.0
  O    4    (CENTRE  4)  -2.40382990 -0.58936400  0.00000000  CHARGE =  8.0
  H    5    (CENTRE  5)  -3.21167837  1.05904031  0.00000000  CHARGE =  1.0
CENTRE ASSIGNMENTS    1  1  1  1  1  1  1  1  1  1  1  1  1  1  1  1  1  1  1  1
CENTRE ASSIGNMENTS    1  1  1  1  1  1  1  1  1  1  1  1  1  1  1  1  1  1  1  1
CENTRE ASSIGNMENTS    1  1  1  1  1  1  1  1  1  1  1  1  1  1  1  1  1  1  1  1
CENTRE ASSIGNMENTS    1  1  1  1  1  1  1  1  1  1  1  1  1  1  1  2  2  2  2  2
CENTRE ASSIGNMENTS    2  2  2  2  2  2  2  2  2  2  2  2  2  2  2  2  2  2  2  2
CENTRE ASSIGNMENTS    2  2  2  2  2  2  2  2  2  2  2  2  2  2  2  2  2  2  2  2
CENTRE ASSIGNMENTS    2  2  2  2  2  2  2  2  2  2  2  2  2  2  2  2  2  2  2  2
CENTRE ASSIGNMENTS    2  2  2  2  2  2  2  2  2  2  3  3  3  3  3  3  3  3  3  3
CENTRE ASSIGNMENTS    3  3  3  3  3  3  3  3  3  3  3  3  3  3  3  3  3  3  3  3
CENTRE ASSIGNMENTS    3  3  3  3  3  3  3  3  3  3  3  3  3  3  3  3  3  3  3  3
CENTRE ASSIGNMENTS    3  3  3  3  3  3  3  3  3  3  3  3  3  3  3  3  3  3  3  3
CENTRE ASSIGNMENTS    3  3  3  3  3  4  4  4  4  4  4  4  4  4  4  4  4  4  4  4
CENTRE ASSIGNMENTS    4  4  4  4  4  4  4  4  4  4  4  4  4  4  4  4  4  4  4  4
CENTRE ASSIGNMENTS    4  4  4  4  4  4  4  4  4  4  4  4  4  4  4  4  4  4  4  4
CENTRE ASSIGNMENTS    4  4  4  4  4  4  4  4  4  4  4  4  4  4  4  4  4  4  4  4
CENTRE ASSIGNMENTS    5  5  5  5  5  5  5  5  5  5  5  5  5  5  5  5  5  5  5  5
CENTRE ASSIGNMENTS    5  5  5  5  5  5  5
TYPE ASSIGNMENTS      1  1  1  1  1  1  1  1  1  1  1  1  1  1  1  1  1  1  1  2
TYPE ASSIGNMENTS      2  2  3  3  3  4  4  4  2  3  4  2  3  4  2  3  4  5  6  7
TYPE ASSIGNMENTS      8  9 10  5  6  7  8  9 10  5  6  7  8  9 10 11 12 13 17 14
TYPE ASSIGNMENTS     15 18 19 16 20 11 12 13 17 14 15 18 19 16 20  1  1  1  1  1
TYPE ASSIGNMENTS      1  1  1  1  1  1  1  1  1  1  1  1  1  1  2  2  2  3  3  3
TYPE ASSIGNMENTS      4  4  4  2  3  4  2  3  4  2  3  4  5  6  7  8  9 10  5  6
TYPE ASSIGNMENTS      7  8  9 10  5  6  7  8  9 10 11 12 13 17 14 15 18 19 16 20
TYPE ASSIGNMENTS     11 12 13 17 14 15 18 19 16 20  1  1  1  1  1  1  1  1  1  1
TYPE ASSIGNMENTS      1  1  1  1  1  1  1  1  1  2  2  2  3  3  3  4  4  4  2  3
TYPE ASSIGNMENTS      4  2  3  4  2  3  4  5  6  7  8  9 10  5  6  7  8  9 10  5
TYPE ASSIGNMENTS      6  7  8  9 10 11 12 13 17 14 15 18 19 16 20 11 12 13 17 14
TYPE ASSIGNMENTS     15 18 19 16 20  1  1  1  1  1  1  1  1  1  1  1  1  1  1  1
TYPE ASSIGNMENTS      1  1  1  1  2  2  2  3  3  3  4  4  4  2  3  4  2  3  4  2
TYPE ASSIGNMENTS      3  4  5  6  7  8  9 10  5  6  7  8  9 10  5  6  7  8  9 10
TYPE ASSIGNMENTS     11 12 13 17 14 15 18 19 16 20 11 12 13 17 14 15 18 19 16 20
TYPE ASSIGNMENTS      1  1  1  1  1  1  2  3  4  2  3  4  2  3  4  5  6  7  8  9
TYPE ASSIGNMENTS     10  5  6  7  8  9 10
EXPONENTS  0.1142000D+05 0.1712000D+04 0.3893000D+03 0.1100000D+03 0.3557000D+02
EXPONENTS  0.1254000D+02 0.4644000D+01 0.5118000D+00 0.1142000D+05 0.1712000D+04
EXPONENTS  0.3893000D+03 0.1100000D+03 0.3557000D+02 0.1254000D+02 0.4644000D+01
EXPONENTS  0.5118000D+00 0.1293000D+01 0.1787000D+00 0.5760000D-01 0.2663000D+02
EXPONENTS  0.5948000D+01 0.1742000D+01 0.2663000D+02 0.5948000D+01 0.1742000D+01
EXPONENTS  0.2663000D+02 0.5948000D+01 0.1742000D+01 0.5550000D+00 0.5550000D+00
EXPONENTS  0.5550000D+00 0.1725000D+00 0.1725000D+00 0.1725000D+00 0.4910000D-01
EXPONENTS  0.4910000D-01 0.4910000D-01 0.1654000D+01 0.1654000D+01 0.1654000D+01
EXPONENTS  0.1654000D+01 0.1654000D+01 0.1654000D+01 0.4690000D+00 0.4690000D+00
EXPONENTS  0.4690000D+00 0.4690000D+00 0.4690000D+00 0.4690000D+00 0.1510000D+00
EXPONENTS  0.1510000D+00 0.1510000D+00 0.1510000D+00 0.1510000D+00 0.1510000D+00
EXPONENTS  0.1093000D+01 0.1093000D+01 0.1093000D+01 0.1093000D+01 0.1093000D+01
EXPONENTS  0.1093000D+01 0.1093000D+01 0.1093000D+01 0.1093000D+01 0.1093000D+01
EXPONENTS  0.3640000D+00 0.3640000D+00 0.3640000D+00 0.3640000D+00 0.3640000D+00
EXPONENTS  0.3640000D+00 0.3640000D+00 0.3640000D+00 0.3640000D+00 0.3640000D+00
EXPONENTS  0.1533000D+05 0.2299000D+04 0.5224000D+03 0.1473000D+03 0.4755000D+02
EXPONENTS  0.1676000D+02 0.6207000D+01 0.6882000D+00 0.1533000D+05 0.2299000D+04
EXPONENTS  0.5224000D+03 0.1473000D+03 0.4755000D+02 0.1676000D+02 0.6207000D+01
EXPONENTS  0.6882000D+00 0.1752000D+01 0.2384000D+00 0.7376000D-01 0.3446000D+02
EXPONENTS  0.7749000D+01 0.2280000D+01 0.3446000D+02 0.7749000D+01 0.2280000D+01
EXPONENTS  0.3446000D+02 0.7749000D+01 0.2280000D+01 0.7156000D+00 0.7156000D+00
EXPONENTS  0.7156000D+00 0.2140000D+00 0.2140000D+00 0.2140000D+00 0.5974000D-01
EXPONENTS  0.5974000D-01 0.5974000D-01 0.2314000D+01 0.2314000D+01 0.2314000D+01
EXPONENTS  0.2314000D+01 0.2314000D+01 0.2314000D+01 0.6450000D+00 0.6450000D+00
EXPONENTS  0.6450000D+00 0.6450000D+00 0.6450000D+00 0.6450000D+00 0.2140000D+00
EXPONENTS  0.2140000D+00 0.2140000D+00 0.2140000D+00 0.2140000D+00 0.2140000D+00
EXPONENTS  0.1428000D+01 0.1428000D+01 0.1428000D+01 0.1428000D+01 0.1428000D+01
EXPONENTS  0.1428000D+01 0.1428000D+01 0.1428000D+01 0.1428000D+01 0.1428000D+01
EXPONENTS  0.5000000D+00 0.5000000D+00 0.5000000D+00 0.5000000D+00 0.5000000D+00
EXPONENTS  0.5000000D+00 0.5000000D+00 0.5000000D+00 0.5000000D+00 0.5000000D+00
EXPONENTS  0.1533000D+05 0.2299000D+04 0.5224000D+03 0.1473000D+03 0.4755000D+02
EXPONENTS  0.1676000D+02 0.6207000D+01 0.6882000D+00 0.1533000D+05 0.2299000D+04
EXPONENTS  0.5224000D+03 0.1473000D+03 0.4755000D+02 0.1676000D+02 0.6207000D+01
EXPONENTS  0.6882000D+00 0.1752000D+01 0.2384000D+00 0.7376000D-01 0.3446000D+02
EXPONENTS  0.7749000D+01 0.2280000D+01 0.3446000D+02 0.7749000D+01 0.2280000D+01
EXPONENTS  0.3446000D+02 0.7749000D+01 0.2280000D+01 0.7156000D+00 0.7156000D+00
EXPONENTS  0.7156000D+00 0.2140000D+00 0.2140000D+00 0.2140000D+00 0.5974000D-01
EXPONENTS  0.5974000D-01 0.5974000D-01 0.2314000D+01 0.2314000D+01 0.2314000D+01
EXPONENTS  0.2314000D+01 0.2314000D+01 0.2314000D+01 0.6450000D+00 0.6450000D+00
EXPONENTS  0.6450000D+00 0.6450000D+00 0.6450000D+00 0.6450000D+00 0.2140000D+00
EXPONENTS  0.2140000D+00 0.2140000D+00 0.2140000D+00 0.2140000D+00 0.2140000D+00
EXPONENTS  0.1428000D+01 0.1428000D+01 0.1428000D+01 0.1428000D+01 0.1428000D+01
EXPONENTS  0.1428000D+01 0.1428000D+01 0.1428000D+01 0.1428000D+01 0.1428000D+01
EXPONENTS  0.5000000D+00 0.5000000D+00 0.5000000D+00 0.5000000D+00 0.5000000D+00
EXPONENTS  0.5000000D+00 0.5000000D+00 0.5000000D+00 0.5000000D+00 0.5000000D+00
EXPONENTS  0.1533000D+05 0.2299000D+04 0.5224000D+03 0.1473000D+03 0.4755000D+02
EXPONENTS  0.1676000D+02 0.6207000D+01 0.6882000D+00 0.1533000D+05 0.2299000D+04
EXPONENTS  0.5224000D+03 0.1473000D+03 0.4755000D+02 0.1676000D+02 0.6207000D+01
EXPONENTS  0.6882000D+00 0.1752000D+01 0.2384000D+00 0.7376000D-01 0.3446000D+02
EXPONENTS  0.7749000D+01 0.2280000D+01 0.3446000D+02 0.7749000D+01 0.2280000D+01
EXPONENTS  0.3446000D+02 0.7749000D+01 0.2280000D+01 0.7156000D+00 0.7156000D+00
EXPONENTS  0.7156000D+00 0.2140000D+00 0.2140000D+00 0.2140000D+00 0.5974000D-01
EXPONENTS  0.5974000D-01 0.5974000D-01 0.2314000D+01 0.2314000D+01 0.2314000D+01
EXPONENTS  0.2314000D+01 0.2314000D+01 0.2314000D+01 0.6450000D+00 0.6450000D+00
EXPONENTS  0.6450000D+00 0.6450000D+00 0.6450000D+00 0.6450000D+00 0.2140000D+00
EXPONENTS  0.2140000D+00 0.2140000D+00 0.2140000D+00 0.2140000D+00 0.2140000D+00
EXPONENTS  0.1428000D+01 0.1428000D+01 0.1428000D+01 0.1428000D+01 0.1428000D+01
EXPONENTS  0.1428000D+01 0.1428000D+01 0.1428000D+01 0.1428000D+01 0.1428000D+01
EXPONENTS  0.5000000D+00 0.5000000D+00 0.5000000D+00 0.5000000D+00 0.5000000D+00
EXPONENTS  0.5000000D+00 0.5000000D+00 0.5000000D+00 0.5000000D+00 0.5000000D+00
EXPONENTS  0.3387000D+02 0.5095000D+01 0.1159000D+01 0.3258000D+00 0.1027000D+00
EXPONENTS  0.2526000D-01 0.1407000D+01 0.1407000D+01 0.1407000D+01 0.3880000D+00
EXPONENTS  0.3880000D+00 0.3880000D+00 0.1020000D+00 0.1020000D+00 0.1020000D+00
EXPONENTS  0.1057000D+01 0.1057000D+01 0.1057000D+01 0.1057000D+01 0.1057000D+01
EXPONENTS  0.1057000D+01 0.2470000D+00 0.2470000D+00 0.2470000D+00 0.2470000D+00
EXPONENTS  0.2470000D+00 0.2470000D+00
MO    1     MO 0.0        OCC NO =    2.0000000  ORB. ENERGY =  -19.742623
  0.21641022D-03  0.40324858D-03  0.68199444D-03  0.10270458D-02  0.12715494D-02
  0.10820311D-02  0.41173280D-03 -0.19283204D-05 -0.14311932D-03 -0.26835006D-03
 -0.45654329D-03 -0.70896353D-03 -0.94083584D-03 -0.99151183D-03 -0.61480059D-03
  0.40896559D-03 -0.48698659D-03  0.20112601D-02  0.68375586D-03  0.10273037D-02
  0.98671296D-03  0.69195124D-03  0.32228827D-03  0.30955403D-03  0.21708066D-03
 -0.44402476D-15 -0.42648047D-15 -0.29907755D-15 -0.19820737D-02 -0.79247890D-03
  0.17766510D-15 -0.92933286D-03  0.23580145D-03 -0.60106492D-18 -0.63919034D-04
  0.72861850D-05 -0.40530238D-18  0.86439704D-03 -0.51107824D-03 -0.35331880D-03
  0.68889326D-03  0.27736528D-17  0.22804960D-17  0.73428895D-03 -0.34314448D-03
 -0.39114447D-03  0.56867553D-03 -0.13472085D-17 -0.73794711D-17  0.69818092D-04
 -0.11205907D-04 -0.58612185D-04  0.30534289D-04 -0.58691900D-18 -0.36382527D-18
 -0.47228272D-03  0.15324978D-03  0.23975531D-17  0.64513151D-03 -0.90111953D-03
 -0.24179944D-17  0.77171666D-03  0.44137019D-03 -0.47746648D-17 -0.11424557D-16
  0.49554145D-04 -0.53937188D-04  0.42143585D-18 -0.18515505D-03  0.29026662D-03
  0.13505845D-18  0.36492618D-04 -0.12845505D-03 -0.13993660D-17  0.24300823D-17
 -0.32444502D-04 -0.60472378D-04 -0.10254112D-03 -0.15520076D-03 -0.19364523D-03
 -0.16631543D-03 -0.63851726D-04  0.28561269D-06 -0.94638397D-04 -0.17749666D-03
 -0.30259289D-03 -0.47289379D-03 -0.63234911D-03 -0.67520142D-03 -0.41280491D-03
  0.27234361D-03 -0.28217581D-04 -0.36967613D-03 -0.18876797D-03 -0.30484840D-04
 -0.29560040D-04 -0.19941028D-04  0.62464584D-04  0.60569635D-04  0.40859918D-04
  0.11098863D-16  0.10762164D-16  0.72600923D-17 -0.17349781D-04 -0.17745489D-03
  0.45574455D-17  0.19111066D-04  0.10038714D-03  0.30022886D-17  0.12727417D-04
  0.76180761D-05  0.19587803D-18  0.34056385D-03 -0.15016913D-03 -0.19039472D-03
 -0.24536971D-03  0.37359848D-17 -0.26687498D-16 -0.21565904D-03  0.12769691D-03
  0.87962131D-04  0.21936185D-03 -0.24537988D-17 -0.49738560D-17 -0.30638835D-04
  0.15936248D-04  0.14702587D-04  0.27516318D-04 -0.55579693D-18 -0.22932740D-17
 -0.63215158D-04  0.13974142D-04  0.42978548D-19  0.43190163D-03 -0.64299211D-04
  0.21006238D-17 -0.24225616D-03  0.22376785D-04 -0.22295594D-17 -0.37650957D-17
  0.59176399D-04 -0.54563574D-04 -0.73740232D-18 -0.21726846D-03  0.22094983D-03
 -0.83117785D-18  0.39739261D-04 -0.57259103D-04  0.30433848D-17  0.35425088D-17
  0.42875261D-04  0.79913971D-04  0.13550762D-03  0.20509709D-03  0.25590128D-03
  0.21978507D-03  0.84379764D-04 -0.37743586D-06 -0.12712466D-03 -0.23842546D-03
 -0.40646313D-03 -0.63522276D-03 -0.84941386D-03 -0.90697597D-03 -0.55450733D-03
  0.36583026D-03  0.24918129D-04  0.13627515D-03 -0.77371095D-04 -0.14916257D-03
 -0.14463752D-03 -0.97571616D-04 -0.67185339D-04 -0.65147179D-04 -0.43947902D-04
  0.23178413D-18  0.22475264D-18  0.15161680D-18  0.12687872D-04  0.22621953D-03
  0.48215899D-17  0.58726988D-04 -0.25964824D-04  0.89783893D-18  0.12643870D-04
 -0.48753100D-05  0.85573992D-19  0.19385385D-03 -0.83594374D-04 -0.11025948D-03
  0.24451472D-03 -0.15624868D-16  0.15106654D-16 -0.11685329D-03  0.43944007D-04
  0.72909279D-04 -0.79622794D-04 -0.22560387D-18 -0.21679909D-17 -0.27490087D-04
 -0.34138386D-05  0.30903926D-04  0.41129323D-05  0.20883827D-18  0.87955503D-18
 -0.25019882D-04  0.12422159D-03 -0.16607818D-17  0.32834846D-03 -0.36889772D-03
  0.70808567D-17 -0.25328881D-03 -0.37670553D-05 -0.20985115D-17 -0.35678819D-17
  0.63137989D-04 -0.31739535D-04  0.85459250D-18 -0.19850922D-03  0.40433240D-04
 -0.28659295D-17  0.90952581D-05  0.54785366D-04  0.30215195D-18  0.32238494D-17
  0.49847543D+00  0.92909406D+00  0.15754357D+01  0.23844953D+01  0.29751539D+01
  0.25552604D+01  0.98101416D+00 -0.43881365D-02 -0.28106744D-03 -0.52714894D-03
 -0.89867338D-03 -0.14044516D-02 -0.18780194D-02 -0.20052868D-02 -0.12259930D-02
  0.80883575D-03  0.50071724D-01 -0.11781175D-02 -0.70766129D-03  0.51636161D-02
  0.50069706D-02  0.33776728D-02  0.73417662D-02  0.71190436D-02  0.48024648D-02
  0.75480825D-17  0.73191010D-17  0.49374223D-17 -0.15246048D-02  0.28209181D-03
  0.11650308D-17 -0.11130798D-02 -0.48211098D-03  0.21443699D-17 -0.62309112D-04
 -0.19976294D-04  0.13705973D-18  0.25580351D-02  0.47016521D-03 -0.30282003D-02
 -0.18237310D-02 -0.69051683D-18 -0.21104362D-17 -0.12935064D-02  0.55171074D-03
  0.74179570D-03 -0.57475705D-03 -0.27452496D-17  0.18628639D-17 -0.14937014D-03
  0.17821110D-04  0.13154903D-03 -0.84148384D-04 -0.13174206D-18  0.12734677D-17
  0.18877795D-03  0.51930559D-03  0.48770030D-18 -0.15094551D-02 -0.34715196D-03
  0.77301456D-17  0.94312128D-03 -0.12107648D-02 -0.91932465D-17  0.93061444D-17
 -0.29385502D-03  0.16867012D-04 -0.88263213D-18  0.64000403D-03 -0.41379817D-03
  0.19703478D-18  0.24156103D-03  0.36319713D-03  0.24508616D-17 -0.18142959D-17
  0.20276983D-03  0.36570374D-03  0.53922995D-03 -0.20170806D-03 -0.30410257D-03
 -0.28444287D-04 -0.27890972D-03  0.35609788D-03  0.20779781D-17 -0.51824438D-03
  0.48405427D-03 -0.41627191D-17 -0.86624807D-04  0.76469902D-04 -0.53903867D-18
  0.26107095D-03 -0.11699465D-02  0.90887556D-03  0.24684037D-02 -0.26841908D-18
  0.91787914D-18 -0.46168163D-04  0.70199146D-05  0.39148249D-04  0.79201222D-04
 -0.48360480D-18  0.10260196D-17
MO    2     MO 0.0        OCC NO =    2.0000000  ORB. ENERGY =  -19.707880
  0.61094218D-03  0.11384008D-02  0.19253211D-02  0.28994269D-02  0.35896786D-02
  0.30546545D-02  0.11623524D-02 -0.54437922D-05 -0.45289730D-03 -0.84918668D-03
 -0.14447192D-02 -0.22434964D-02 -0.29772502D-02 -0.31376130D-02 -0.19455202D-02
  0.12941608D-02  0.78304541D-03 -0.15475399D-02 -0.56451579D-04  0.60342887D-03
  0.57958622D-03  0.40644586D-03 -0.47906453D-03 -0.46013575D-03 -0.32267895D-03
  0.16337405D-15  0.15691882D-15  0.11004231D-15  0.10681594D-02 -0.19287898D-02
  0.11745486D-18 -0.32719785D-03 -0.27136464D-05 -0.28342407D-16  0.32607093D-04
 -0.22775308D-04  0.51406645D-17  0.28431208D-03  0.83405018D-03 -0.11183623D-02
 -0.30212803D-02 -0.74551251D-18 -0.90686182D-17  0.92604024D-05 -0.57964891D-03
  0.57038850D-03  0.66769013D-03 -0.29040744D-18 -0.62503561D-17  0.18025906D-04
 -0.81108298D-04  0.63082392D-04  0.16090184D-03 -0.28714154D-18  0.90057446D-19
  0.36884733D-03 -0.15804031D-03  0.37029187D-18 -0.13837222D-02  0.69323024D-03
  0.21066682D-17  0.27718019D-03 -0.21910931D-03 -0.32175438D-17 -0.46228252D-17
  0.34453407D-03 -0.68893787D-04  0.89080074D-18 -0.12242061D-02  0.40741853D-03
 -0.11192117D-17  0.19060388D-03 -0.20073717D-03 -0.15531906D-17 -0.18636134D-17
 -0.23662429D-02 -0.44103723D-02 -0.74785302D-02 -0.11319104D-01 -0.14122937D-01
 -0.12129719D-01 -0.46568350D-02  0.20830309D-04 -0.28005255D-03 -0.52524550D-03
 -0.89542843D-03 -0.13993803D-02 -0.18712381D-02 -0.19980461D-02 -0.12215662D-02
  0.80591518D-03 -0.34537495D-03  0.10824177D-02  0.19933486D-03 -0.28984089D-03
 -0.28104817D-03 -0.18959343D-03  0.57666045D-03  0.55916666D-03  0.37721052D-03
 -0.63100809D-17 -0.61186558D-17 -0.41276091D-17  0.26321263D-03 -0.12836610D-02
  0.41469401D-17 -0.61608198D-05 -0.45772527D-03  0.35368606D-17 -0.10666418D-04
 -0.12253056D-04 -0.12074673D-19  0.44177283D-03  0.24988118D-03 -0.69165402D-03
 -0.35845242D-03  0.77726995D-18  0.20108841D-16 -0.51875229D-03  0.38582799D-03
  0.13292430D-03  0.27067095D-03 -0.11104417D-17 -0.10519007D-16 -0.75635452D-04
  0.70120470D-04  0.55149818D-05  0.13631726D-04 -0.29128954D-18 -0.16254811D-17
 -0.12915769D-03 -0.10854514D-03  0.20231307D-17  0.25685757D-03  0.87667829D-04
  0.16399030D-17  0.13061549D-03  0.23796760D-03 -0.77092951D-17  0.19703590D-17
  0.14991301D-03 -0.34082431D-04 -0.13317236D-17 -0.40525225D-03  0.26663104D-03
 -0.62306834D-18 -0.44486782D-04 -0.16438375D-03  0.46182392D-17  0.44829478D-18
  0.49856270D+00  0.92925673D+00  0.15757115D+01  0.23849128D+01  0.29756748D+01
  0.25557078D+01  0.98118592D+00 -0.43889048D-02 -0.35013813D-03 -0.65669274D-03
 -0.11195172D-02 -0.17495874D-02 -0.23395317D-02 -0.24980745D-02 -0.15272737D-02
  0.10076025D-02  0.50245840D-01  0.95938486D-03 -0.43006681D-03 -0.61983548D-02
 -0.60103191D-02 -0.40545258D-02  0.82379474D-02  0.79880379D-02  0.53886832D-02
  0.55930739D-16  0.54234002D-16  0.36585938D-16 -0.57862043D-04 -0.10354540D-04
 -0.80062079D-17  0.39674316D-03 -0.68155662D-03  0.29571593D-17  0.19622590D-04
 -0.30889610D-04 -0.29401970D-19  0.23176987D-03  0.19322292D-02 -0.21639991D-02
 -0.54126063D-02  0.23400439D-17 -0.11272920D-16 -0.10867315D-03 -0.60593727D-03
  0.71461042D-03  0.12108655D-02 -0.94083664D-18  0.14094117D-17 -0.59368287D-05
 -0.13387164D-03  0.13980847D-03  0.27673491D-03 -0.51064154D-18  0.79443916D-18
  0.70225551D-04  0.29731983D-04  0.56886341D-18 -0.14210355D-03  0.17141276D-04
 -0.89880203D-20 -0.68573104D-04 -0.10633723D-03 -0.16976022D-17 -0.17235601D-17
 -0.22562258D-04 -0.10047550D-03 -0.32988194D-18  0.38853085D-03 -0.18051395D-03
  0.38872931D-18 -0.32084408D-03  0.48194046D-03  0.60091651D-18 -0.46846184D-18
  0.35793763D-03  0.66714969D-03  0.11312648D-02  0.17122220D-02  0.21363531D-02
  0.18348424D-02  0.70443168D-03 -0.31509661D-05 -0.14932098D-03 -0.28005521D-03
 -0.47743273D-03 -0.74613443D-03 -0.99772390D-03 -0.10653365D-02 -0.65132585D-03
  0.42970524D-03  0.46380945D-05  0.25188750D-03  0.17918243D-03 -0.36735469D-03
 -0.35621048D-03 -0.24029748D-03 -0.26722553D-03 -0.25911887D-03 -0.17480006D-03
  0.10445428D-17  0.10128552D-17  0.68326610D-18  0.67463051D-03  0.28700150D-03
 -0.47859531D-18  0.30019903D-03  0.32715844D-03 -0.50287071D-18  0.19376442D-04
 -0.28412778D-05 -0.37270884D-19  0.24224708D-03  0.17473140D-03 -0.41697848D-03
 -0.13140638D-02 -0.58752088D-17  0.29377825D-17  0.22597918D-04 -0.18913637D-03
  0.16653845D-03  0.11004836D-02  0.46656046D-17 -0.17243287D-17  0.10112693D-04
  0.90728061D-05 -0.19185499D-04  0.17021160D-03  0.12710079D-17 -0.68099376D-18
 -0.14107873D-03 -0.33304154D-04  0.33167212D-18  0.55608227D-03  0.18593148D-03
 -0.34565393D-17 -0.13284608D-03 -0.86019014D-04  0.24615229D-17 -0.63045543D-17
 -0.17918445D-04 -0.14419409D-03 -0.77888643D-19 -0.17360925D-04  0.38420737D-03
  0.15847742D-17  0.71116261D-04  0.48374913D-04 -0.13511083D-17  0.30788877D-17
  0.79827725D-04  0.14397259D-03  0.21228750D-03 -0.46429885D-04  0.24045223D-04
  0.81358952D-05  0.39564778D-03 -0.20603565D-03 -0.83695095D-18 -0.22527290D-03
 -0.71574864D-04  0.34721087D-17 -0.19997890D-04  0.14112732D-04  0.33956542D-18
 -0.23395679D-03  0.11038795D-03  0.12356884D-03 -0.18438475D-03  0.12180669D-17
 -0.12421772D-17 -0.33548103D-04  0.43737139D-04 -0.10189036D-04  0.47962335D-04
  0.15795288D-18 -0.15541973D-17
MO    3     MO 0.0        OCC NO =    2.0000000  ORB. ENERGY =  -19.705849
  0.59833225D-03  0.11149040D-02  0.18855822D-02  0.28395824D-02  0.35155872D-02
  0.29916060D-02  0.11383613D-02 -0.53314315D-05 -0.44223351D-03 -0.82919196D-03
 -0.14107022D-02 -0.21906716D-02 -0.29071487D-02 -0.30637356D-02 -0.18997115D-02
  0.12636889D-02  0.67217665D-03 -0.10286856D-02  0.94904866D-04  0.25137010D-03
  0.24143797D-03  0.16931297D-03  0.50796378D-03  0.48789314D-03  0.34214435D-03
  0.98999270D-16  0.95087616D-16  0.66682000D-16  0.41277925D-03  0.22539324D-02
 -0.90497342D-16 -0.50909667D-03  0.13324992D-03  0.67267118D-17  0.13610027D-04
  0.54822091D-04  0.20641031D-19 -0.77014268D-03  0.18911977D-02 -0.11210550D-02
  0.15371855D-02 -0.16955128D-17 -0.66946988D-17 -0.12425182D-04 -0.48879446D-03
  0.50121964D-03  0.19568153D-03  0.11679524D-17  0.10480930D-16  0.28367462D-04
 -0.89712992D-04  0.61345529D-04  0.12803822D-03  0.14391589D-18  0.38598007D-18
  0.28733006D-03 -0.32038638D-03 -0.20271613D-17 -0.96314896D-03  0.76114856D-03
 -0.68158027D-18  0.10115878D-03  0.20001059D-03  0.67630640D-17  0.97130660D-17
  0.17719997D-03 -0.43246423D-03 -0.12429860D-17 -0.65482695D-03  0.10883118D-02
  0.57322245D-18  0.12322704D-03  0.20908091D-03  0.31557356D-17  0.26916444D-18
  0.49853675D+00  0.92920835D+00  0.15756295D+01  0.23847886D+01  0.29755199D+01
  0.25555748D+01  0.98113484D+00 -0.43886764D-02 -0.33033277D-03 -0.61954729D-03
 -0.10561923D-02 -0.16506230D-02 -0.22071975D-02 -0.23567723D-02 -0.14408844D-02
  0.95060800D-03  0.50242296D-01  0.39239759D-03 -0.58574301D-03 -0.25343177D-02
 -0.24574357D-02 -0.16577716D-02 -0.98439641D-02 -0.95453339D-02 -0.64392258D-02
  0.47720891D-16  0.46273212D-16  0.31215635D-16 -0.13851847D-04  0.20383369D-03
 -0.10548434D-16 -0.21219084D-04  0.94854150D-03 -0.45993387D-17  0.82959655D-05
  0.42136774D-04 -0.12026508D-18 -0.14109281D-02  0.36174997D-02 -0.22065716D-02
  0.21967346D-02  0.29011571D-17 -0.33926583D-17  0.28379580D-03 -0.10536970D-02
  0.76990120D-03 -0.37606995D-03  0.17049219D-17  0.14077599D-16  0.90626081D-04
 -0.21910162D-03  0.12847554D-03 -0.70203260D-04  0.81941849D-18  0.25650850D-17
  0.32367101D-04 -0.10829235D-04 -0.12579863D-17  0.64214777D-05  0.64746566D-04
 -0.31778066D-17 -0.10352278D-03 -0.32258862D-04  0.69517657D-17 -0.10709465D-17
 -0.18422900D-04  0.22757940D-03  0.16754505D-17  0.16133768D-03 -0.12487680D-03
  0.87063381D-18 -0.10606898D-03 -0.55786141D-03 -0.58969854D-17 -0.29840561D-17
  0.31751284D-02  0.59180309D-02  0.10035019D-01  0.15188469D-01  0.18950775D-01
  0.16276189D-01  0.62487453D-02 -0.27951021D-04 -0.27919706D-03 -0.52364100D-03
 -0.89269312D-03 -0.13951056D-02 -0.18655220D-02 -0.19919425D-02 -0.12178346D-02
  0.80345331D-03  0.24233463D-03  0.14167926D-02  0.21566085D-03 -0.16789893D-03
 -0.16280548D-03 -0.10982762D-03 -0.59495606D-03 -0.57690724D-03 -0.38917822D-03
 -0.44099528D-17 -0.42761708D-17 -0.28846795D-17 -0.17915913D-03  0.13732449D-02
 -0.26194791D-17  0.74450936D-05  0.52083022D-03 -0.16244107D-17 -0.11050235D-04
 -0.12520244D-05 -0.25416961D-19  0.34249382D-03  0.36199755D-03 -0.70449137D-03
  0.22553623D-03  0.54540998D-17 -0.74983313D-17 -0.36555386D-03  0.21927904D-03
  0.14627482D-03 -0.72713223D-03  0.17816415D-17 -0.38781335D-19 -0.76320535D-04
  0.57160396D-04  0.19160139D-04 -0.58333529D-04  0.15735397D-18 -0.56831789D-18
 -0.76455112D-05  0.14528968D-03  0.16892542D-17 -0.10672613D-03 -0.25213532D-03
 -0.44298782D-17  0.12966267D-03 -0.18373374D-03 -0.63788442D-18  0.56030181D-17
  0.12281541D-03 -0.12662344D-03 -0.37844836D-18 -0.27661220D-03  0.23249887D-03
  0.98787004D-18 -0.91834030D-04  0.14737144D-03  0.14747503D-18 -0.16091017D-17
  0.35843270D-03  0.66807244D-03  0.11328295D-02  0.17145902D-02  0.21393080D-02
  0.18373802D-02  0.70540600D-03 -0.31553243D-05 -0.12407980D-03 -0.23271475D-03
 -0.39672763D-03 -0.62000805D-03 -0.82906891D-03 -0.88525230D-03 -0.54122590D-03
  0.35706798D-03 -0.96718754D-04  0.79711668D-03  0.23234913D-03 -0.38246609D-03
 -0.37086345D-03 -0.25018229D-03  0.88437324D-04  0.85754456D-04  0.57849449D-04
 -0.16419531D-17 -0.15921421D-17 -0.10740497D-17  0.72769664D-03 -0.16428727D-04
  0.62836777D-18 -0.14035492D-03  0.36229176D-03 -0.44147101D-18 -0.10024958D-05
 -0.81696592D-05 -0.44282718D-19 -0.34743036D-03  0.54379805D-03 -0.19636769D-03
  0.12880796D-02  0.65264491D-17 -0.13520205D-17  0.47316855D-03 -0.46239625D-03
 -0.10772301D-04 -0.69714245D-03 -0.30843946D-17  0.10954894D-17  0.67485385D-04
  0.11701479D-04 -0.79186864D-04 -0.19357784D-03 -0.12283377D-17  0.21620715D-19
  0.16353747D-05 -0.11791403D-03 -0.86344761D-18  0.37842293D-03 -0.17633082D-03
  0.75432840D-18 -0.38332905D-03  0.53007292D-03  0.18360144D-17  0.18685417D-18
  0.15411140D-03 -0.38304021D-04  0.63989495D-18 -0.68880343D-03  0.22600671D-03
 -0.19479226D-17  0.22646923D-03 -0.11109465D-03  0.28237745D-19 -0.15649073D-17
 -0.10049146D-04 -0.18124049D-04 -0.26723899D-04 -0.10447626D-02 -0.21571073D-03
 -0.58786019D-05  0.40260265D-03  0.15969653D-03  0.35211187D-18 -0.34148371D-04
  0.37936227D-03 -0.14635114D-17 -0.83857358D-05  0.50703325D-04 -0.17226712D-18
  0.13635291D-03 -0.14481514D-03  0.84622250D-05 -0.50614382D-03 -0.99183492D-18
  0.44809578D-18 -0.31982233D-04  0.17071095D-04  0.14911138D-04 -0.58085510D-04
 -0.17896969D-18  0.11367979D-17
MO    4     MO 0.0        OCC NO =    2.0000000  ORB. ENERGY =  -15.086954
  0.41324073D+00  0.77001325D+00  0.13022854D+01  0.19611697D+01  0.24280553D+01
  0.20661655D+01  0.78621409D+00 -0.36821760D-02 -0.16012086D-02 -0.30022810D-02
 -0.51077733D-02 -0.79318326D-02 -0.10526003D-01 -0.11092963D-01 -0.68783444D-02
  0.45754774D-02  0.39930089D-01 -0.20157835D-02 -0.16058833D-03 -0.17800885D-02
 -0.17097537D-02 -0.11989973D-02 -0.16573493D-03 -0.15918642D-03 -0.11163251D-03
 -0.12575500D-16 -0.12078617D-16 -0.84703600D-17  0.25167403D-02 -0.27179398D-03
  0.29958796D-17  0.13651890D-03  0.15223994D-03  0.13569202D-17  0.27003354D-04
  0.25336634D-04  0.15183986D-19  0.69371447D-03  0.38353866D-02 -0.45291010D-02
 -0.21080815D-02  0.49714281D-17  0.49259881D-17 -0.71552307D-03 -0.15849534D-03
  0.87401840D-03 -0.55738695D-04  0.43847809D-18 -0.65536428D-18 -0.12297103D-03
 -0.61342162D-04  0.18431319D-03  0.33804153D-03  0.13193182D-18 -0.42372271D-19
 -0.29111050D-03  0.46310446D-03  0.77658683D-18  0.23531919D-02 -0.15118499D-02
 -0.19915481D-17 -0.14798604D-02  0.12253654D-03 -0.33821240D-18  0.15118283D-17
  0.30319426D-03 -0.34637526D-03 -0.23983208D-18 -0.10280127D-02  0.11429398D-02
  0.26022147D-18  0.11842996D-03 -0.10381400D-03  0.45927477D-18 -0.28628779D-18
  0.61101160D-03  0.11388470D-02  0.19311072D-02  0.29228207D-02  0.36468268D-02
  0.31321379D-02  0.12024886D-02 -0.53788054D-05 -0.50423797D-03 -0.94571082D-03
 -0.16122296D-02 -0.25196011D-02 -0.33691867D-02 -0.35975059D-02 -0.21994446D-02
  0.14510599D-02  0.67043492D-03  0.39363500D-04 -0.27611847D-03 -0.60265215D-03
 -0.58436987D-03 -0.39421246D-03 -0.22656364D-02 -0.21969052D-02 -0.14820193D-02
 -0.13328674D-18 -0.12924330D-18 -0.87186769D-19  0.10712886D-03 -0.20366990D-03
 -0.32488540D-18 -0.78865379D-04  0.65169737D-03 -0.75215783D-18  0.53249611D-05
  0.31628880D-04 -0.17165839D-19 -0.36816368D-03  0.17560579D-02 -0.13878942D-02
  0.77409370D-03  0.83535760D-20 -0.98924836D-18  0.30890132D-03 -0.13119242D-02
  0.10030229D-02 -0.55253118D-03  0.45570084D-18  0.95991546D-18  0.65810435D-04
 -0.15614060D-03  0.90330165D-04 -0.95436928D-04  0.84653380D-19  0.38300421D-18
 -0.37673222D-03  0.12219106D-02 -0.51256362D-19  0.13639681D-02 -0.20442725D-02
  0.37443746D-18 -0.23377142D-03 -0.16214593D-02 -0.22066838D-18  0.17753452D-18
 -0.43440311D-04  0.35379791D-03  0.19256672D-18  0.30340405D-03 -0.26650422D-03
 -0.32232648D-19 -0.17308312D-03 -0.79488952D-03 -0.54546752D-18 -0.43099460D-18
  0.60579460D-03  0.11291232D-02  0.19146188D-02  0.28978648D-02  0.36156891D-02
  0.31053948D-02  0.11922214D-02 -0.53328796D-05 -0.50844193D-03 -0.95359544D-03
 -0.16256712D-02 -0.25406076D-02 -0.33972765D-02 -0.36274992D-02 -0.22177819D-02
  0.14631578D-02  0.81489032D-03  0.68358467D-03 -0.20479046D-03 -0.17520215D-02
 -0.16988715D-02 -0.11460487D-02  0.19936038D-02  0.19331251D-02  0.13040748D-02
  0.42085333D-19  0.40808616D-19  0.27529251D-19  0.38794384D-03  0.16491324D-03
 -0.60805317D-18  0.94629838D-03 -0.43665327D-03 -0.11216788D-17  0.35858192D-04
 -0.25881963D-04 -0.21463965D-19  0.42393767D-03  0.82977785D-03 -0.12537155D-02
 -0.26128469D-02 -0.13467034D-17  0.62825694D-18 -0.39122127D-03 -0.69442923D-03
  0.10856505D-02  0.24638401D-02  0.10201393D-17 -0.11616718D-17 -0.12065237D-03
 -0.38108972D-04  0.15876134D-03  0.42045489D-03  0.30168238D-18 -0.43888993D-18
 -0.75047212D-03 -0.13499399D-03 -0.15889085D-18  0.33325845D-02 -0.11488848D-02
  0.41076563D-18 -0.10811682D-02  0.15538668D-02  0.65906917D-19 -0.72622560D-18
 -0.93550394D-04 -0.79604643D-04  0.20796632D-18  0.79981815D-03 -0.48918790D-03
 -0.25543486D-18 -0.51916697D-03  0.72800183D-03 -0.36846409D-18  0.91201635D-18
  0.22650277D-03  0.42217202D-03  0.71586386D-03  0.10834933D-02  0.13518833D-02
  0.11610874D-02  0.44576405D-03 -0.19939299D-05 -0.18012666D-03 -0.33783201D-03
 -0.57592951D-03 -0.90006572D-03 -0.12035594D-02 -0.12851208D-02 -0.78569766D-03
  0.51835560D-03 -0.20748635D-03  0.22720922D-02  0.23118843D-03 -0.38531636D-03
 -0.37362726D-03 -0.25204674D-03 -0.27918905D-03 -0.27071947D-03 -0.18262575D-03
  0.35216398D-18  0.34148060D-18  0.23036080D-18  0.18439721D-02  0.57729541D-03
  0.20080875D-18  0.11277190D-02  0.77192462D-03 -0.29865188D-18  0.40592166D-04
 -0.35981668D-04 -0.63988111D-20  0.14768339D-02 -0.76050686D-03 -0.71632699D-03
  0.91051657D-03  0.95828646D-18 -0.16699545D-18  0.84196372D-04  0.43485479D-04
 -0.12768185D-03  0.21818639D-03 -0.35489916D-18  0.11143097D-18  0.25869590D-04
  0.68868065D-04 -0.94737655D-04  0.22636587D-03 -0.26691438D-18 -0.44152264D-19
  0.82637164D-04  0.85488309D-04 -0.35807085D-18 -0.52256701D-04 -0.26399481D-03
  0.12792921D-17 -0.19565479D-03  0.75298842D-05 -0.20507957D-18  0.10462507D-17
 -0.10708270D-03  0.13756511D-03  0.10609512D-18  0.52741094D-04 -0.36848431D-03
 -0.41711321D-18  0.26850699D-03 -0.44211016D-04  0.98827851D-19 -0.23607145D-18
  0.15714614D-04  0.28341954D-04  0.41790195D-04 -0.76500069D-03  0.34935256D-03
  0.15433660D-04 -0.15360055D-03  0.13464268D-03 -0.30349431D-19 -0.88529619D-03
 -0.22994983D-04 -0.10328729D-18 -0.16541034D-04 -0.24645124D-04  0.18865600D-20
 -0.52951305D-03  0.42810530D-03  0.10140775D-03  0.44118252D-03 -0.30331995D-18
  0.21230161D-19 -0.95419805D-04  0.68839951D-04  0.26579854D-04  0.89324215D-04