 Molden2AIM, Version 4.0.0 (06/02/2016)           Time: Thu Jun 28 03:05:02 2018
GAUSSIAN             19 MOL ORBITALS    337 PRIMITIVES        3 NUCLEI
  N    1    (CENTRE  1)   0.00000000  0.00000000 -0.02514470  CHARGE =  7.0
  S    2    (CENTRE  2)   0.00000000  2.84749413 -0.02541115  CHARGE = 16.0
  S    3    (CENTRE  3)   0.00000000 -2.84749413 -0.02541115  CHARGE = 16.0
CENTRE ASSIGNMENTS    1  1  1  1  1  1  1  1  1  1  1  1  1  1  1  1  1  1  1  1
CENTRE ASSIGNMENTS    1  1  1  1  1  1  1  1  1  1  1  1  1  1  1  1  1  1  1  1
CENTRE ASSIGNMENTS    1  1  1  1  1  1  1  1  1  1  1  1  1  1  1  1  1  1  1  1
CENTRE ASSIGNMENTS    1  1  1  1  1  1  1  1  1  1  1  1  1  1  1  2  2  2  2  2
CENTRE ASSIGNMENTS    2  2  2  2  2  2  2  2  2  2  2  2  2  2  2  2  2  2  2  2
CENTRE ASSIGNMENTS    2  2  2  2  2  2  2  2  2  2  2  2  2  2  2  2  2  2  2  2
CENTRE ASSIGNMENTS    2  2  2  2  2  2  2  2  2  2  2  2  2  2  2  2  2  2  2  2
CENTRE ASSIGNMENTS    2  2  2  2  2  2  2  2  2  2  2  2  2  2  2  2  2  2  2  2
CENTRE ASSIGNMENTS    2  2  2  2  2  2  2  2  2  2  2  2  2  2  2  2  2  2  2  2
CENTRE ASSIGNMENTS    2  2  2  2  2  2  2  2  2  2  2  2  2  2  2  2  2  2  2  2
CENTRE ASSIGNMENTS    2  2  2  2  2  2  3  3  3  3  3  3  3  3  3  3  3  3  3  3
CENTRE ASSIGNMENTS    3  3  3  3  3  3  3  3  3  3  3  3  3  3  3  3  3  3  3  3
CENTRE ASSIGNMENTS    3  3  3  3  3  3  3  3  3  3  3  3  3  3  3  3  3  3  3  3
CENTRE ASSIGNMENTS    3  3  3  3  3  3  3  3  3  3  3  3  3  3  3  3  3  3  3  3
CENTRE ASSIGNMENTS    3  3  3  3  3  3  3  3  3  3  3  3  3  3  3  3  3  3  3  3
CENTRE ASSIGNMENTS    3  3  3  3  3  3  3  3  3  3  3  3  3  3  3  3  3  3  3  3
CENTRE ASSIGNMENTS    3  3  3  3  3  3  3  3  3  3  3  3  3  3  3  3  3
TYPE ASSIGNMENTS      1  1  1  1  1  1  1  1  1  1  1  1  1  1  1  1  1  1  1  2
TYPE ASSIGNMENTS      2  2  3  3  3  4  4  4  2  3  4  2  3  4  2  3  4  5  6  7
TYPE ASSIGNMENTS      8  9 10  5  6  7  8  9 10  5  6  7  8  9 10 11 12 13 17 14
TYPE ASSIGNMENTS     15 18 19 16 20 11 12 13 17 14 15 18 19 16 20  1  1  1  1  1
TYPE ASSIGNMENTS      1  1  1  1  1  1  1  1  1  1  1  1  1  1  1  1  1  1  1  1
TYPE ASSIGNMENTS      1  1  1  1  1  1  1  1  1  1  1  1  1  1  1  1  1  2  2  2
TYPE ASSIGNMENTS      2  2  2  2  3  3  3  3  3  3  3  4  4  4  4  4  4  4  2  2
TYPE ASSIGNMENTS      2  2  2  2  2  3  3  3  3  3  3  3  4  4  4  4  4  4  4  2
TYPE ASSIGNMENTS      3  4  2  3  4  2  3  4  5  6  7  8  9 10  5  6  7  8  9 10
TYPE ASSIGNMENTS      5  6  7  8  9 10 11 12 13 17 14 15 18 19 16 20 11 12 13 17
TYPE ASSIGNMENTS     14 15 18 19 16 20  1  1  1  1  1  1  1  1  1  1  1  1  1  1
TYPE ASSIGNMENTS      1  1  1  1  1  1  1  1  1  1  1  1  1  1  1  1  1  1  1  1
TYPE ASSIGNMENTS      1  1  1  1  1  1  1  1  2  2  2  2  2  2  2  3  3  3  3  3
TYPE ASSIGNMENTS      3  3  4  4  4  4  4  4  4  2  2  2  2  2  2  2  3  3  3  3
TYPE ASSIGNMENTS      3  3  3  4  4  4  4  4  4  4  2  3  4  2  3  4  2  3  4  5
TYPE ASSIGNMENTS      6  7  8  9 10  5  6  7  8  9 10  5  6  7  8  9 10 11 12 13
TYPE ASSIGNMENTS     17 14 15 18 19 16 20 11 12 13 17 14 15 18 19 16 20
EXPONENTS  0.1142000D+05 0.1712000D+04 0.3893000D+03 0.1100000D+03 0.3557000D+02
EXPONENTS  0.1254000D+02 0.4644000D+01 0.5118000D+00 0.1142000D+05 0.1712000D+04
EXPONENTS  0.3893000D+03 0.1100000D+03 0.3557000D+02 0.1254000D+02 0.4644000D+01
EXPONENTS  0.5118000D+00 0.1293000D+01 0.1787000D+00 0.5760000D-01 0.2663000D+02
EXPONENTS  0.5948000D+01 0.1742000D+01 0.2663000D+02 0.5948000D+01 0.1742000D+01
EXPONENTS  0.2663000D+02 0.5948000D+01 0.1742000D+01 0.5550000D+00 0.5550000D+00
EXPONENTS  0.5550000D+00 0.1725000D+00 0.1725000D+00 0.1725000D+00 0.4910000D-01
EXPONENTS  0.4910000D-01 0.4910000D-01 0.1654000D+01 0.1654000D+01 0.1654000D+01
EXPONENTS  0.1654000D+01 0.1654000D+01 0.1654000D+01 0.4690000D+00 0.4690000D+00
EXPONENTS  0.4690000D+00 0.4690000D+00 0.4690000D+00 0.4690000D+00 0.1510000D+00
EXPONENTS  0.1510000D+00 0.1510000D+00 0.1510000D+00 0.1510000D+00 0.1510000D+00
EXPONENTS  0.1093000D+01 0.1093000D+01 0.1093000D+01 0.1093000D+01 0.1093000D+01
EXPONENTS  0.1093000D+01 0.1093000D+01 0.1093000D+01 0.1093000D+01 0.1093000D+01
EXPONENTS  0.3640000D+00 0.3640000D+00 0.3640000D+00 0.3640000D+00 0.3640000D+00
EXPONENTS  0.3640000D+00 0.3640000D+00 0.3640000D+00 0.3640000D+00 0.3640000D+00
EXPONENTS  0.3741000D+06 0.5605000D+05 0.1276000D+05 0.3615000D+04 0.1183000D+04
EXPONENTS  0.4288000D+03 0.1678000D+03 0.6947000D+02 0.2984000D+02 0.1272000D+02
EXPONENTS  0.5244000D+01 0.2219000D+01 0.3490000D+00 0.3741000D+06 0.5605000D+05
EXPONENTS  0.1276000D+05 0.3615000D+04 0.1183000D+04 0.4288000D+03 0.1678000D+03
EXPONENTS  0.6947000D+02 0.2984000D+02 0.1272000D+02 0.5244000D+01 0.2219000D+01
EXPONENTS  0.3490000D+00 0.3741000D+06 0.5605000D+05 0.1276000D+05 0.3615000D+04
EXPONENTS  0.1183000D+04 0.4288000D+03 0.1678000D+03 0.6947000D+02 0.2984000D+02
EXPONENTS  0.1272000D+02 0.5244000D+01 0.2219000D+01 0.3490000D+00 0.7767000D+00
EXPONENTS  0.1322000D+00 0.4970000D-01 0.5744000D+03 0.1358000D+03 0.4319000D+02
EXPONENTS  0.1587000D+02 0.6208000D+01 0.2483000D+01 0.3229000D+00 0.5744000D+03
EXPONENTS  0.1358000D+03 0.4319000D+02 0.1587000D+02 0.6208000D+01 0.2483000D+01
EXPONENTS  0.3229000D+00 0.5744000D+03 0.1358000D+03 0.4319000D+02 0.1587000D+02
EXPONENTS  0.6208000D+01 0.2483000D+01 0.3229000D+00 0.5744000D+03 0.1358000D+03
EXPONENTS  0.4319000D+02 0.1587000D+02 0.6208000D+01 0.2483000D+01 0.3229000D+00
EXPONENTS  0.5744000D+03 0.1358000D+03 0.4319000D+02 0.1587000D+02 0.6208000D+01
EXPONENTS  0.2483000D+01 0.3229000D+00 0.5744000D+03 0.1358000D+03 0.4319000D+02
EXPONENTS  0.1587000D+02 0.6208000D+01 0.2483000D+01 0.3229000D+00 0.8688000D+00
EXPONENTS  0.8688000D+00 0.8688000D+00 0.1098000D+00 0.1098000D+00 0.1098000D+00
EXPONENTS  0.3510000D-01 0.3510000D-01 0.3510000D-01 0.2690000D+00 0.2690000D+00
EXPONENTS  0.2690000D+00 0.2690000D+00 0.2690000D+00 0.2690000D+00 0.8190000D+00
EXPONENTS  0.8190000D+00 0.8190000D+00 0.8190000D+00 0.8190000D+00 0.8190000D+00
EXPONENTS  0.1010000D+00 0.1010000D+00 0.1010000D+00 0.1010000D+00 0.1010000D+00
EXPONENTS  0.1010000D+00 0.5570000D+00 0.5570000D+00 0.5570000D+00 0.5570000D+00
EXPONENTS  0.5570000D+00 0.5570000D+00 0.5570000D+00 0.5570000D+00 0.5570000D+00
EXPONENTS  0.5570000D+00 0.2180000D+00 0.2180000D+00 0.2180000D+00 0.2180000D+00
EXPONENTS  0.2180000D+00 0.2180000D+00 0.2180000D+00 0.2180000D+00 0.2180000D+00
EXPONENTS  0.2180000D+00 0.3741000D+06 0.5605000D+05 0.1276000D+05 0.3615000D+04
EXPONENTS  0.1183000D+04 0.4288000D+03 0.1678000D+03 0.6947000D+02 0.2984000D+02
EXPONENTS  0.1272000D+02 0.5244000D+01 0.2219000D+01 0.3490000D+00 0.3741000D+06
EXPONENTS  0.5605000D+05 0.1276000D+05 0.3615000D+04 0.1183000D+04 0.4288000D+03
EXPONENTS  0.1678000D+03 0.6947000D+02 0.2984000D+02 0.1272000D+02 0.5244000D+01
EXPONENTS  0.2219000D+01 0.3490000D+00 0.3741000D+06 0.5605000D+05 0.1276000D+05
EXPONENTS  0.3615000D+04 0.1183000D+04 0.4288000D+03 0.1678000D+03 0.6947000D+02
EXPONENTS  0.2984000D+02 0.1272000D+02 0.5244000D+01 0.2219000D+01 0.3490000D+00
EXPONENTS  0.7767000D+00 0.1322000D+00 0.4970000D-01 0.5744000D+03 0.1358000D+03
EXPONENTS  0.4319000D+02 0.1587000D+02 0.6208000D+01 0.2483000D+01 0.3229000D+00
EXPONENTS  0.5744000D+03 0.1358000D+03 0.4319000D+02 0.1587000D+02 0.6208000D+01
EXPONENTS  0.2483000D+01 0.3229000D+00 0.5744000D+03 0.1358000D+03 0.4319000D+02
EXPONENTS  0.1587000D+02 0.6208000D+01 0.2483000D+01 0.3229000D+00 0.5744000D+03
EXPONENTS  0.1358000D+03 0.4319000D+02 0.1587000D+02 0.6208000D+01 0.2483000D+01
EXPONENTS  0.3229000D+00 0.5744000D+03 0.1358000D+03 0.4319000D+02 0.1587000D+02
EXPONENTS  0.6208000D+01 0.2483000D+01 0.3229000D+00 0.5744000D+03 0.1358000D+03
EXPONENTS  0.4319000D+02 0.1587000D+02 0.6208000D+01 0.2483000D+01 0.3229000D+00
EXPONENTS  0.8688000D+00 0.8688000D+00 0.8688000D+00 0.1098000D+00 0.1098000D+00
EXPONENTS  0.1098000D+00 0.3510000D-01 0.3510000D-01 0.3510000D-01 0.2690000D+00
EXPONENTS  0.2690000D+00 0.2690000D+00 0.2690000D+00 0.2690000D+00 0.2690000D+00
EXPONENTS  0.8190000D+00 0.8190000D+00 0.8190000D+00 0.8190000D+00 0.8190000D+00
EXPONENTS  0.8190000D+00 0.1010000D+00 0.1010000D+00 0.1010000D+00 0.1010000D+00
EXPONENTS  0.1010000D+00 0.1010000D+00 0.5570000D+00 0.5570000D+00 0.5570000D+00
EXPONENTS  0.5570000D+00 0.5570000D+00 0.5570000D+00 0.5570000D+00 0.5570000D+00
EXPONENTS  0.5570000D+00 0.5570000D+00 0.2180000D+00 0.2180000D+00 0.2180000D+00
EXPONENTS  0.2180000D+00 0.2180000D+00 0.2180000D+00 0.2180000D+00 0.2180000D+00
EXPONENTS  0.2180000D+00 0.2180000D+00
MO    1     MO 0.0        OCC NO =    2.0000000  ORB. ENERGY =  -90.274758
  0.11613710D-03  0.21640438D-03  0.36599405D-03  0.55116676D-03  0.68238021D-03
  0.58067476D-03  0.22095746D-03 -0.10348380D-05 -0.88071890D-04 -0.16513562D-03
 -0.28094482D-03 -0.43627764D-03 -0.57896580D-03 -0.61015048D-03 -0.37833222D-03
  0.25166674D-03  0.33634879D-03 -0.10666435D-02 -0.31358989D-03  0.27435547D-17
  0.26351515D-17  0.18479501D-17 -0.32777128D-08 -0.31482040D-08 -0.22077379D-08
 -0.13621928D-06 -0.13083699D-06 -0.91751928D-07  0.31353849D-19  0.21337426D-09
  0.11028244D-06 -0.48381073D-18  0.16367645D-07  0.96024457D-07 -0.10548105D-19
  0.15003396D-08  0.24761267D-08 -0.26726782D-03  0.53453563D-03 -0.26726781D-03
  0.25112710D-18 -0.66699733D-21  0.37230643D-12  0.39524235D-03 -0.79048468D-03
  0.39524233D-03 -0.67956493D-19  0.86756712D-21 -0.80656667D-12  0.10113082D-03
 -0.20226164D-03  0.10113082D-03 -0.28718853D-19 -0.52251757D-21 -0.53866099D-12
 -0.15150142D-18 -0.15310277D-08 -0.32058940D-08  0.60514585D-18  0.22965417D-08
 -0.32057416D-08 -0.15064158D-18  0.22965416D-08  0.12823424D-07 -0.26353570D-20
  0.10414397D-18  0.21792976D-08 -0.26092084D-07 -0.41639794D-18 -0.32689465D-08
 -0.26092073D-07  0.10396602D-18 -0.32689464D-08  0.10436832D-06 -0.14241924D-20
  0.41377122D+00  0.77352126D+00  0.13368862D+01  0.21623535D+01  0.32682707D+01
  0.45009450D+01  0.52605612D+01  0.45455218D+01  0.21200476D+01  0.28785666D+00
  0.77080920D-03  0.15120090D-02  0.69029527D-04 -0.86446572D-03 -0.16144265D-02
 -0.28004726D-02 -0.45408696D-02 -0.69911856D-02 -0.99570187D-02 -0.12803434D-01
 -0.13439795D-01 -0.95028876D-02  0.21044543D-03  0.68279476D-02  0.37596532D-02
 -0.15899510D-04  0.38366391D-03  0.71597361D-03  0.12435605D-02  0.20142920D-02
  0.31114917D-02  0.44358989D-02  0.57696555D-02  0.61488975D-02  0.45605094D-02
 -0.14195172D-03 -0.41315839D-02 -0.40475262D-02  0.18904348D-02 -0.20275838D-02
  0.30657066D-03  0.50679597D-04  0.16110940D-17  0.21136676D-17  0.23183712D-17
  0.19075926D-17  0.10057205D-17  0.26164095D-18 -0.28953239D-21 -0.14276031D-01
 -0.18729375D-01 -0.20543270D-01 -0.16903328D-01 -0.89117687D-02 -0.23184210D-02
  0.25655692D-05  0.15207686D-05  0.19951656D-05  0.21883926D-05  0.18006441D-05
  0.94933517D-06  0.24697214D-06 -0.27329985D-09 -0.56378361D-17 -0.74025131D-17
 -0.83283264D-17 -0.70172447D-17 -0.39253483D-17 -0.97701120D-18  0.44810441D-18
  0.12574678D-01  0.16510629D-01  0.18575571D-01  0.15651323D-01  0.87551305D-02
  0.21791342D-02 -0.99945592D-03 -0.12620782D-05 -0.16571163D-05 -0.18643676D-05
 -0.15708707D-05 -0.87872303D-06 -0.21871237D-06  0.10031203D-06  0.14916169D-18
  0.39529591D-03 -0.91167384D-07  0.94406574D-19  0.24048061D-04  0.71928735D-08
  0.11300069D-20 -0.19991908D-05 -0.23434758D-09 -0.49801111D-04  0.99602221D-04
 -0.49801110D-04 -0.31179152D-18  0.17082332D-20 -0.32898666D-07 -0.21404675D-03
  0.42809351D-03 -0.21404676D-03 -0.21127939D-18  0.14794930D-19 -0.43716085D-07
  0.94196631D-05 -0.18839327D-04  0.94196636D-05 -0.24297793D-19  0.70352695D-22
  0.55999201D-08 -0.46218573D-19 -0.10699803D-03 -0.16573018D-07  0.19206852D-18
  0.16049704D-03 -0.16572913D-07 -0.53412806D-19  0.16049705D-03  0.66291967D-07
  0.96181308D-20 -0.11642956D-19  0.86851477D-05  0.21503517D-08  0.46243325D-19
 -0.13027721D-04  0.21503479D-08 -0.11314456D-19 -0.13027722D-04 -0.86014032D-08
 -0.66515839D-21  0.41377631D+00  0.77353078D+00  0.13369027D+01  0.21623801D+01
  0.32683109D+01  0.45010004D+01  0.52606260D+01  0.45455777D+01  0.21200736D+01
  0.28786020D+00  0.77081869D-03  0.15120276D-02  0.69030377D-04 -0.86447735D-03
 -0.16144483D-02 -0.28005103D-02 -0.45409307D-02 -0.69912797D-02 -0.99571527D-02
 -0.12803606D-01 -0.13439976D-01 -0.95030155D-02  0.21044826D-03  0.68280395D-02
  0.37597039D-02 -0.15899724D-04  0.38366931D-03  0.71598370D-03  0.12435780D-02
  0.20143204D-02  0.31115355D-02  0.44359614D-02  0.57697368D-02  0.61489841D-02
  0.45605736D-02 -0.14195372D-03 -0.41316421D-02 -0.40475833D-02  0.18904614D-02
 -0.20276039D-02  0.30658447D-03  0.50687585D-04  0.68406330D-17  0.89745380D-17
  0.98437003D-17  0.80995526D-17  0.42702443D-17  0.11109157D-17 -0.12293415D-20
  0.14276278D-01  0.18729699D-01  0.20543626D-01  0.16903621D-01  0.89119231D-02
  0.23184612D-02 -0.25656137D-05  0.15208001D-05  0.19952069D-05  0.21884379D-05
  0.18006814D-05  0.94935482D-06  0.24697725D-06 -0.27330551D-09 -0.43366475D-17
 -0.56940446D-17 -0.64061841D-17 -0.53976944D-17 -0.30193946D-17 -0.75152116D-18
  0.34468382D-18 -0.12574901D-01 -0.16510922D-01 -0.18575900D-01 -0.15651600D-01
 -0.87552858D-02 -0.21791728D-02  0.99947365D-03 -0.12621074D-05 -0.16571547D-05
 -0.18644108D-05 -0.15709070D-05 -0.87874337D-06 -0.21871744D-06  0.10031435D-06
 -0.29220885D-18 -0.39529666D-03 -0.91167075D-07  0.57690710D-19 -0.24044007D-04
  0.71933034D-08  0.15094621D-20  0.19994249D-05 -0.23427721D-09 -0.49801767D-04
  0.99603533D-04 -0.49801766D-04  0.24257953D-18 -0.80108556D-21  0.32899728D-07
 -0.21404955D-03  0.42809911D-03 -0.21404956D-03  0.17444179D-18 -0.27105142D-19
  0.43719220D-07  0.94196730D-05 -0.18839346D-04  0.94196734D-05  0.17252682D-19
  0.87294760D-22 -0.55998813D-08 -0.36242658D-19  0.10699915D-03 -0.16573312D-07
  0.14520461D-18 -0.16049872D-03 -0.16573206D-07 -0.36476639D-19 -0.16049873D-03
  0.66293141D-07 -0.60442808D-20 -0.94809831D-20 -0.86855010D-05  0.21503589D-08
  0.37811686D-19  0.13028251D-04  0.21503551D-08 -0.93687368D-20  0.13028252D-04
 -0.86014317D-08  0.50429476D-21
MO    2     MO 0.0        OCC NO =    2.0000000  ORB. ENERGY =  -90.274757
  0.71450752D-09  0.13313796D-08  0.22516966D-08  0.33909303D-08  0.41981917D-08
  0.35724717D-08  0.13593914D-08 -0.63666097D-11 -0.54184360D-09 -0.10159618D-08
 -0.17284533D-08 -0.26841055D-08 -0.35619642D-08 -0.37538213D-08 -0.23276087D-08
  0.15483262D-08  0.20693463D-08 -0.65621220D-08 -0.19291556D-08  0.11714089D-15
  0.11251242D-15  0.78901476D-16  0.53275359D-03  0.51170346D-03  0.35884178D-03
 -0.83715283D-12 -0.80407529D-12 -0.56387309D-12 -0.16239296D-16 -0.34682062D-04
  0.67796575D-12 -0.49945755D-17 -0.26603962D-02  0.59090761D-12  0.17373003D-18
 -0.24386531D-03  0.15233113D-13 -0.16443216D-08  0.32886432D-08 -0.16443216D-08
  0.77497575D-18 -0.79732853D-20 -0.60515778D-07  0.24316714D-08 -0.48633427D-08
  0.24316713D-08 -0.33015843D-18  0.14948055D-22  0.13109817D-06  0.62219482D-09
 -0.12443896D-08  0.62219480D-09  0.39413552D-19 -0.61560681D-21  0.87553580D-07
  0.11975524D-19  0.24885374D-03 -0.19722692D-13 -0.90712378D-19 -0.37328061D-03
 -0.19720685D-13  0.54785807D-19 -0.37328061D-03  0.78888762D-13  0.50820847D-20
 -0.15169966D-19 -0.35421984D-03 -0.16052943D-12  0.56595227D-19  0.53132976D-03
 -0.16052956D-12 -0.11085328D-19  0.53132976D-03  0.64211785D-12  0.24893680D-22
  0.41381266D+00  0.77359872D+00  0.13370201D+01  0.21625701D+01  0.32685980D+01
  0.45013958D+01  0.52610881D+01  0.45459770D+01  0.21202599D+01  0.28788549D+00
  0.77088640D-03  0.15121604D-02  0.69036441D-04 -0.94576341D-03 -0.17662535D-02
 -0.30638399D-02 -0.49679105D-02 -0.76486637D-02 -0.10893415D-01 -0.14007518D-01
 -0.14703726D-01 -0.10396576D-01  0.23023653D-03  0.74700742D-02  0.41132256D-02
 -0.17394761D-04  0.43945709D-03  0.82009195D-03  0.14244016D-02  0.23072145D-02
  0.35639711D-02  0.50809764D-02  0.66086905D-02  0.70430827D-02  0.52237079D-02
 -0.16259463D-03 -0.47324073D-02 -0.46361258D-02  0.21653457D-02 -0.16319675D-02
  0.11223819D-02  0.64924369D-03 -0.40574861D-17 -0.53232009D-17 -0.58387400D-17
 -0.48042078D-17 -0.25328734D-17 -0.65893393D-18  0.72917758D-21 -0.20103311D-01
 -0.26374449D-01 -0.28928750D-01 -0.23803034D-01 -0.12549430D-01 -0.32647687D-02
  0.36127994D-05  0.25582661D-05  0.33563058D-05  0.36813558D-05  0.30290779D-05
  0.15969898D-05  0.41546126D-06 -0.45975024D-09 -0.75296197D-18 -0.98864365D-18
 -0.11122908D-17 -0.93718907D-18 -0.52425042D-18 -0.13048486D-18  0.59846645D-19
  0.18131498D-01  0.23806768D-01  0.26784219D-01  0.22567730D-01  0.12624072D-01
  0.31421057D-02 -0.14411211D-02 -0.23737865D-05 -0.31167961D-05 -0.35066058D-05
 -0.29545805D-05 -0.16527509D-05 -0.41136634D-06  0.18867242D-06  0.28346052D-18
  0.61422494D-04  0.25161434D-07 -0.22839327D-19 -0.32941611D-03  0.34945415D-07
 -0.12336171D-19 -0.19028520D-04  0.57185905D-08 -0.53308206D-04  0.10661641D-03
 -0.53308199D-04 -0.82410335D-19  0.13674151D-20 -0.86284480D-07 -0.22770692D-03
  0.45541382D-03 -0.22770690D-03 -0.11078489D-18  0.14600715D-19 -0.25479161D-06
  0.80026884D-06 -0.16005374D-05  0.80026855D-06  0.35853268D-19  0.77418765D-22
 -0.31523035D-08  0.17455957D-19 -0.90864886D-04 -0.23846997D-07 -0.30569460D-19
  0.13629735D-03 -0.23846877D-07 -0.21798412D-19  0.13629731D-03  0.95387867D-07
  0.99565968D-20 -0.42014729D-20  0.28709464D-04  0.58060062D-09  0.16368078D-19
 -0.43064196D-04  0.58059680D-09 -0.37636595D-20 -0.43064195D-04 -0.23223987D-08
 -0.42288781D-21 -0.41380757D+00 -0.77358921D+00 -0.13370037D+01 -0.21625435D+01
 -0.32685578D+01 -0.45013404D+01 -0.52610233D+01 -0.45459211D+01 -0.21202338D+01
 -0.28788194D+00 -0.77087692D-03 -0.15121418D-02 -0.69035591D-04  0.94575277D-03
  0.17662336D-02  0.30638055D-02  0.49678546D-02  0.76485777D-02  0.10893293D-01
  0.14007360D-01  0.14703560D-01  0.10396459D-01 -0.23023394D-03 -0.74699901D-02
 -0.41131793D-02  0.17394566D-04 -0.43945237D-03 -0.82008314D-03 -0.14243863D-02
 -0.23071897D-02 -0.35639329D-02 -0.50809218D-02 -0.66086195D-02 -0.70430070D-02
 -0.52236518D-02  0.16259288D-03  0.47323564D-02  0.46360760D-02 -0.21653224D-02
  0.16319425D-02 -0.11223782D-02 -0.64924306D-03 -0.26266945D-17 -0.34460802D-17
 -0.37798247D-17 -0.31100997D-17 -0.16397061D-17 -0.42657402D-18  0.47204764D-21
 -0.20103135D-01 -0.26374218D-01 -0.28928498D-01 -0.23802826D-01 -0.12549321D-01
 -0.32647401D-02  0.36127678D-05 -0.25582473D-05 -0.33562812D-05 -0.36813289D-05
 -0.30290558D-05 -0.15969781D-05 -0.41545822D-06  0.45974688D-09  0.12829214D-17
  0.16844836D-17  0.18951576D-17  0.15968136D-17  0.89323512D-18  0.22232440D-18
 -0.10196868D-18  0.18131344D-01  0.23806565D-01  0.26783990D-01  0.22567537D-01
  0.12623964D-01  0.31420789D-02 -0.14411088D-02  0.23737710D-05  0.31167757D-05
  0.35065829D-05  0.29545612D-05  0.16527401D-05  0.41136365D-06 -0.18867119D-06
  0.14537411D-18  0.61417630D-04 -0.25162555D-07  0.24680762D-19 -0.32941640D-03
 -0.34945327D-07  0.24381450D-20 -0.19028495D-04 -0.57185933D-08  0.53307593D-04
 -0.10661518D-03  0.53307587D-04 -0.91821487D-19  0.84826533D-21 -0.86284075D-07
  0.22770429D-03 -0.45540855D-03  0.22770426D-03  0.76437080D-19  0.26776452D-19
 -0.25479107D-06 -0.80015293D-06  0.16003056D-05 -0.80015263D-06  0.24695528D-19
  0.36446329D-22 -0.31523724D-08  0.50496308D-19 -0.90863569D-04  0.23846793D-07
 -0.21683867D-18  0.13629537D-03  0.23846673D-07  0.65349749D-19  0.13629534D-03
 -0.95387051D-07  0.45538551D-20 -0.65616858D-21  0.28709357D-04 -0.58057416D-09
  0.22159821D-20 -0.43064036D-04 -0.58057034D-09 -0.24747632D-21 -0.43064035D-04
  0.23222928D-08 -0.17448462D-21
MO    3     MO 0.0        OCC NO =    2.0000000  ORB. ENERGY =  -15.176473
  0.41081656D+00  0.76549616D+00  0.12946459D+01  0.19496650D+01  0.24138118D+01
  0.20540449D+01  0.78160196D+00 -0.36605754D-02  0.44904479D-04  0.84196317D-04
  0.14324299D-03  0.22244123D-03  0.29519245D-03  0.31109233D-03  0.19289709D-03
 -0.12831522D-03  0.40147504D-01 -0.30324040D-02 -0.13093902D-02  0.44926380D-16
  0.43151251D-16  0.30260636D-16 -0.30997615D-13 -0.29772838D-13 -0.20878769D-13
 -0.65147150D-06 -0.62573059D-06 -0.43880548D-06 -0.55498696D-17  0.46972949D-14
  0.16460849D-06 -0.24312274D-18 -0.40229881D-13  0.73194256D-06  0.71428457D-19
 -0.90091254D-14  0.39437640D-07 -0.14316876D-02  0.28633750D-02 -0.14316875D-02
 -0.71382438D-17  0.27570398D-17 -0.34127468D-17  0.74448334D-03 -0.14889666D-02
  0.74448327D-03  0.99705325D-18 -0.12059066D-18  0.76913366D-17  0.98052404D-04
 -0.19610478D-03  0.98052380D-04  0.31419543D-19  0.82597468D-20  0.58033083D-17
  0.30680704D-18  0.26904938D-14  0.97411270D-07 -0.14991018D-18 -0.39467011D-14
  0.97824826D-07 -0.77051095D-18 -0.41247802D-14 -0.39005863D-06 -0.28129864D-18
  0.34211980D-18 -0.33839160D-14 -0.13073136D-06 -0.14014250D-17  0.50523092D-14
 -0.13074676D-06  0.37506564D-18  0.50994387D-14  0.52294083D-06  0.88050684D-19
  0.18362238D-03  0.34327136D-03  0.59328009D-03  0.95960393D-03  0.14503851D-02
  0.19974183D-02  0.23345189D-02  0.20172005D-02  0.94082950D-03  0.12774432D-03
  0.34206782D-06  0.67099565D-06  0.30633754D-07 -0.34592603D-03 -0.64603160D-03
 -0.11206418D-02 -0.18170819D-02 -0.27976044D-02 -0.39844171D-02 -0.51234432D-02
 -0.53780907D-02 -0.38026913D-02  0.84212190D-04  0.27322828D-02  0.15044691D-02
 -0.63623742D-05  0.20177492D-03  0.37654184D-03  0.65400811D-03  0.10593480D-02
  0.16363827D-02  0.23329094D-02  0.30343531D-02  0.32338024D-02  0.23984440D-02
 -0.74654656D-04 -0.21728653D-02 -0.21286581D-02  0.99420956D-03 -0.44989756D-03
  0.13704291D-02  0.40207499D-03  0.14812485D-16  0.19433174D-16  0.21315230D-16
  0.17538509D-16  0.92466489D-17  0.24055410D-17 -0.26619764D-20 -0.18501038D-01
 -0.24272355D-01 -0.26623073D-01 -0.21905887D-01 -0.11549217D-01 -0.30045603D-02
  0.33248523D-05 -0.23577461D-05 -0.30932345D-05 -0.33928068D-05 -0.27916552D-05
 -0.14718158D-05 -0.38289692D-06  0.42371448D-09 -0.14380662D-16 -0.18881896D-16
 -0.21243406D-16 -0.17899176D-16 -0.10012548D-16 -0.24921029D-17  0.11429984D-17
  0.17916320D-01  0.23524237D-01  0.26466353D-01  0.22299903D-01  0.12474253D-01
  0.31048163D-02 -0.14240183D-02  0.20865814D-05  0.27396941D-05  0.30823406D-05
  0.25971050D-05  0.14527841D-05  0.36159501D-06 -0.16584489D-06 -0.64277260D-18
 -0.76376162D-04  0.92646356D-07 -0.70299690D-19 -0.40159594D-03 -0.62562462D-07
 -0.15902662D-19 -0.23565940D-04 -0.30542731D-08 -0.12794903D-03  0.25589809D-03
 -0.12794906D-03 -0.77791201D-18  0.11486670D-19  0.19385317D-06 -0.39232297D-03
  0.78464598D-03 -0.39232300D-03 -0.89287047D-18  0.53044841D-19 -0.23784791D-07
 -0.10063156D-04  0.20126313D-04 -0.10063157D-04  0.61214570D-19 -0.35618336D-22
  0.23386862D-07 -0.29613970D-18 -0.26777878D-04  0.26387703D-07  0.11693805D-17
  0.40166773D-04  0.26386708D-07 -0.28096137D-18  0.40166861D-04 -0.10554982D-06
 -0.11942060D-20 -0.58592107D-20 -0.94693913D-05  0.10491024D-07  0.24975374D-19
  0.14204083D-04  0.10491868D-07 -0.73977421D-20  0.14204091D-04 -0.41964940D-07
 -0.48332081D-21  0.18362238D-03  0.34327136D-03  0.59328009D-03  0.95960393D-03
  0.14503851D-02  0.19974183D-02  0.23345189D-02  0.20172005D-02  0.94082950D-03
  0.12774432D-03  0.34206782D-06  0.67099565D-06  0.30633754D-07 -0.34592603D-03
 -0.64603160D-03 -0.11206418D-02 -0.18170819D-02 -0.27976044D-02 -0.39844171D-02
 -0.51234432D-02 -0.53780907D-02 -0.38026913D-02  0.84212190D-04  0.27322828D-02
  0.15044691D-02 -0.63623742D-05  0.20177492D-03  0.37654184D-03  0.65400811D-03
  0.10593480D-02  0.16363827D-02  0.23329094D-02  0.30343531D-02  0.32338024D-02
  0.23984440D-02 -0.74654656D-04 -0.21728653D-02 -0.21286581D-02  0.99420956D-03
 -0.44989756D-03  0.13704291D-02  0.40207499D-03  0.18924702D-16  0.24828178D-16
  0.27232727D-16  0.22407520D-16  0.11813687D-16  0.30733631D-17 -0.34009896D-20
  0.18501038D-01  0.24272355D-01  0.26623073D-01  0.21905887D-01  0.11549217D-01
  0.30045603D-02 -0.33248523D-05 -0.23577461D-05 -0.30932345D-05 -0.33928068D-05
 -0.27916552D-05 -0.14718158D-05 -0.38289692D-06  0.42371448D-09 -0.18702400D-16
 -0.24556365D-16 -0.27627566D-16 -0.23278313D-16 -0.13021562D-16 -0.32410403D-17
  0.14864972D-17 -0.17916320D-01 -0.23524237D-01 -0.26466353D-01 -0.22299903D-01
 -0.12474253D-01 -0.31048163D-02  0.14240183D-02  0.20865814D-05  0.27396941D-05
  0.30823406D-05  0.25971050D-05  0.14527841D-05  0.36159501D-06 -0.16584489D-06
 -0.96166297D-18  0.76376162D-04  0.92646356D-07 -0.19095974D-19  0.40159594D-03
 -0.62562462D-07 -0.14560763D-19  0.23565940D-04 -0.30542731D-08 -0.12794903D-03
  0.25589809D-03 -0.12794906D-03  0.10851180D-17 -0.99046341D-20 -0.19385317D-06
 -0.39232297D-03  0.78464598D-03 -0.39232300D-03  0.93695537D-18 -0.10282871D-18
  0.23784791D-07 -0.10063156D-04  0.20126313D-04 -0.10063157D-04 -0.47812463D-19
 -0.37949085D-21 -0.23386862D-07 -0.33963933D-18  0.26777878D-04  0.26387703D-07
  0.13495458D-17 -0.40166773D-04  0.26386708D-07 -0.33062779D-18 -0.40166861D-04
 -0.10554982D-06 -0.11314424D-18 -0.21721087D-19  0.94693913D-05  0.10491024D-07
  0.87062313D-19 -0.14204083D-04  0.10491868D-07 -0.21899051D-19 -0.14204091D-04
 -0.41964940D-07  0.63236564D-20
MO    4     MO 0.0        OCC NO =    2.0000000  ORB. ENERGY =   -8.605331
 -0.18481109D-09 -0.34436825D-09 -0.58241305D-09 -0.87708178D-09 -0.10858841D-08
 -0.92403840D-09 -0.35161366D-09  0.16467568D-11  0.92387495D-10  0.17322742D-09
  0.29471138D-09  0.45765565D-09  0.60733566D-09  0.64004842D-09  0.39687085D-09
 -0.26399864D-09 -0.26432845D-09  0.41976187D-09  0.18188406D-09  0.89339200D-16
  0.85809234D-16  0.60175358D-16  0.18299936D-03  0.17576870D-03  0.12326114D-03
  0.75983141D-13  0.72980899D-13  0.51179244D-13  0.21400783D-17 -0.59110154D-03
 -0.11688260D-12 -0.47222961D-17 -0.76609326D-02  0.46164369D-13 -0.52644502D-18
 -0.95645113D-03  0.98106992D-14  0.20401283D-09 -0.40802554D-09  0.20401271D-09
 -0.40414256D-16 -0.35703996D-16 -0.21268801D-06 -0.37999761D-09  0.75999525D-09
 -0.37999763D-09  0.19960794D-16  0.56098261D-17  0.47998483D-06 -0.15948145D-09
  0.31896291D-09 -0.15948145D-09 -0.31609225D-17 -0.16274075D-19  0.33277171D-06
 -0.30739486D-17  0.77634959D-03  0.29387246D-14  0.77099147D-17 -0.11645244D-02
  0.30058024D-14  0.15119312D-17 -0.11645244D-02 -0.11821976D-13  0.54124323D-18
  0.58209409D-18 -0.89689442D-03  0.11237618D-13 -0.21001851D-17  0.13453416D-02
  0.11232625D-13  0.35390284D-18  0.13453416D-02 -0.44945479D-13 -0.12047764D-18
  0.29255272D-02  0.54691031D-02  0.94523177D-02  0.15288700D-01  0.23107974D-01
  0.31823473D-01  0.37194261D-01  0.32138648D-01  0.14989580D-01  0.20352611D-02
  0.54499278D-05  0.10690505D-04  0.48806623D-06  0.10951417D+00  0.20452238D+00
  0.35477572D+00  0.57525657D+00  0.88567297D+00  0.12613973D+01  0.16219931D+01
  0.17026101D+01  0.12038660D+01 -0.26660117D-01 -0.86499329D+00 -0.47628878D+00
  0.20142172D-02  0.17754581D-02  0.33132675D-02  0.57547490D-02  0.93214165D-02
  0.14398861D-01  0.20527739D-01  0.26699883D-01  0.28454878D-01  0.21104392D-01
 -0.65690134D-03 -0.19119479D-01 -0.18730491D-01  0.87482500D-02 -0.40378497D-01
  0.24891583D-02  0.26312290D-02  0.38280035D-15  0.50221321D-15  0.55085135D-15
  0.45324922D-15  0.23896195D-15  0.62166605D-16 -0.68793687D-19 -0.17690308D-01
 -0.23208720D-01 -0.25456429D-01 -0.20945953D-01 -0.11043121D-01 -0.28728980D-02
  0.31791546D-05  0.32442280D-06  0.42562505D-06  0.46684581D-06  0.38412813D-06
  0.20251995D-06  0.52686118D-07 -0.58302561D-10 -0.32205691D-16 -0.42286268D-16
 -0.47574903D-16 -0.40085453D-16 -0.22423240D-16 -0.55810989D-17  0.25597609D-17
  0.54280981D-01  0.71271258D-01  0.80184971D-01  0.67561901D-01  0.37793180D-01
  0.94066455D-02 -0.43143409D-02 -0.52687759D-05 -0.69179349D-05 -0.77831432D-05
 -0.65578866D-05 -0.36683898D-05 -0.91305475D-06  0.41877090D-06  0.26256637D-17
  0.14949153D-02  0.34732891D-07  0.13869547D-17 -0.95461774D-03  0.81812832D-07
 -0.23941450D-18 -0.84166558D-04  0.23521150D-07 -0.20853826D-03  0.41707650D-03
 -0.20853825D-03 -0.34412651D-17  0.41010839D-18 -0.21110066D-06 -0.29582145D-03
  0.59164285D-03 -0.29582140D-03 -0.15676042D-17 -0.51109253D-17 -0.35301024D-06
  0.14056725D-04 -0.28113448D-04  0.14056723D-04 -0.26430164D-18  0.17014188D-19
 -0.18925938D-08 -0.11699781D-17 -0.26342458D-03 -0.49835454D-07  0.30998100D-17
  0.39513691D-03 -0.49784806D-07  0.41012428D-18  0.39513682D-03  0.19929117D-06
  0.38693316D-18 -0.12590925D-18  0.89914637D-04  0.20352611D-08  0.61179112D-18
 -0.13487196D-03  0.20359207D-08 -0.23406338D-18 -0.13487195D-03 -0.81417039D-08
 -0.14374666D-18 -0.29255296D-02 -0.54691076D-02 -0.94523255D-02 -0.15288712D-01
 -0.23107994D-01 -0.31823499D-01 -0.37194292D-01 -0.32138675D-01 -0.14989592D-01
 -0.20352628D-02 -0.54499323D-05 -0.10690514D-04 -0.48806663D-06 -0.10951426D+00
 -0.20452255D+00 -0.35477601D+00 -0.57525704D+00 -0.88567370D+00 -0.12613983D+01
 -0.16219945D+01 -0.17026115D+01 -0.12038670D+01  0.26660139D-01  0.86499400D+00
  0.47628917D+00 -0.20142188D-02 -0.17754595D-02 -0.33132702D-02 -0.57547537D-02
 -0.93214241D-02 -0.14398872D-01 -0.20527756D-01 -0.26699905D-01 -0.28454902D-01
 -0.21104409D-01  0.65690188D-03  0.19119495D-01  0.18730506D-01 -0.87482571D-02
  0.40378531D-01 -0.24891580D-02 -0.26312289D-02  0.53931389D-16  0.70755046D-16
  0.77607501D-16  0.63856682D-16  0.33666505D-16  0.87584335D-17 -0.96920996D-20
 -0.17690306D-01 -0.23208718D-01 -0.25456426D-01 -0.20945951D-01 -0.11043120D-01
 -0.28728978D-02  0.31791543D-05 -0.32442421D-06 -0.42562689D-06 -0.46684783D-06
 -0.38412979D-06 -0.20252082D-06 -0.52686346D-07  0.58302813D-10  0.45847118D-16
  0.60197544D-16  0.67726296D-16  0.57064525D-16  0.31921095D-16  0.79450957D-17
 -0.36440037D-17  0.54281010D-01  0.71271297D-01  0.80185015D-01  0.67561937D-01
  0.37793201D-01  0.94066507D-02 -0.43143432D-02  0.52687808D-05  0.69179413D-05
  0.77831504D-05  0.65578927D-05  0.36683932D-05  0.91305561D-06 -0.41877130D-06