 Molden2AIM, Version 4.0.0 (06/02/2016)           Time: Thu Jun 28 05:38:36 2018
GAUSSIAN             19 MOL ORBITALS    337 PRIMITIVES        3 NUCLEI
  P    1    (CENTRE  1)   0.00000000  0.00000000 -3.44092293  CHARGE = 15.0
  P    2    (CENTRE  2)   0.00000000  0.00000000  0.15240830  CHARGE = 15.0
  O    3    (CENTRE  3)   0.00000000  0.00000000  2.98944657  CHARGE =  8.0
CENTRE ASSIGNMENTS    1  1  1  1  1  1  1  1  1  1  1  1  1  1  1  1  1  1  1  1
CENTRE ASSIGNMENTS    1  1  1  1  1  1  1  1  1  1  1  1  1  1  1  1  1  1  1  1
CENTRE ASSIGNMENTS    1  1  1  1  1  1  1  1  1  1  1  1  1  1  1  1  1  1  1  1
CENTRE ASSIGNMENTS    1  1  1  1  1  1  1  1  1  1  1  1  1  1  1  1  1  1  1  1
CENTRE ASSIGNMENTS    1  1  1  1  1  1  1  1  1  1  1  1  1  1  1  1  1  1  1  1
CENTRE ASSIGNMENTS    1  1  1  1  1  1  1  1  1  1  1  1  1  1  1  1  1  1  1  1
CENTRE ASSIGNMENTS    1  1  1  1  1  1  1  1  1  1  1  2  2  2  2  2  2  2  2  2
CENTRE ASSIGNMENTS    2  2  2  2  2  2  2  2  2  2  2  2  2  2  2  2  2  2  2  2
CENTRE ASSIGNMENTS    2  2  2  2  2  2  2  2  2  2  2  2  2  2  2  2  2  2  2  2
CENTRE ASSIGNMENTS    2  2  2  2  2  2  2  2  2  2  2  2  2  2  2  2  2  2  2  2
CENTRE ASSIGNMENTS    2  2  2  2  2  2  2  2  2  2  2  2  2  2  2  2  2  2  2  2
CENTRE ASSIGNMENTS    2  2  2  2  2  2  2  2  2  2  2  2  2  2  2  2  2  2  2  2
CENTRE ASSIGNMENTS    2  2  2  2  2  2  2  2  2  2  2  2  2  2  2  2  2  2  2  2
CENTRE ASSIGNMENTS    2  2  3  3  3  3  3  3  3  3  3  3  3  3  3  3  3  3  3  3
CENTRE ASSIGNMENTS    3  3  3  3  3  3  3  3  3  3  3  3  3  3  3  3  3  3  3  3
CENTRE ASSIGNMENTS    3  3  3  3  3  3  3  3  3  3  3  3  3  3  3  3  3  3  3  3
CENTRE ASSIGNMENTS    3  3  3  3  3  3  3  3  3  3  3  3  3  3  3  3  3
TYPE ASSIGNMENTS      1  1  1  1  1  1  1  1  1  1  1  1  1  1  1  1  1  1  1  1
TYPE ASSIGNMENTS      1  1  1  1  1  1  1  1  1  1  1  1  1  1  1  1  1  1  1  1
TYPE ASSIGNMENTS      1  1  2  2  2  2  2  2  2  3  3  3  3  3  3  3  4  4  4  4
TYPE ASSIGNMENTS      4  4  4  2  2  2  2  2  2  2  3  3  3  3  3  3  3  4  4  4
TYPE ASSIGNMENTS      4  4  4  4  2  3  4  2  3  4  2  3  4  5  6  7  8  9 10  5
TYPE ASSIGNMENTS      6  7  8  9 10  5  6  7  8  9 10 11 12 13 17 14 15 18 19 16
TYPE ASSIGNMENTS     20 11 12 13 17 14 15 18 19 16 20  1  1  1  1  1  1  1  1  1
TYPE ASSIGNMENTS      1  1  1  1  1  1  1  1  1  1  1  1  1  1  1  1  1  1  1  1
TYPE ASSIGNMENTS      1  1  1  1  1  1  1  1  1  1  1  1  1  2  2  2  2  2  2  2
TYPE ASSIGNMENTS      3  3  3  3  3  3  3  4  4  4  4  4  4  4  2  2  2  2  2  2
TYPE ASSIGNMENTS      2  3  3  3  3  3  3  3  4  4  4  4  4  4  4  2  3  4  2  3
TYPE ASSIGNMENTS      4  2  3  4  5  6  7  8  9 10  5  6  7  8  9 10  5  6  7  8
TYPE ASSIGNMENTS      9 10 11 12 13 17 14 15 18 19 16 20 11 12 13 17 14 15 18 19
TYPE ASSIGNMENTS     16 20  1  1  1  1  1  1  1  1  1  1  1  1  1  1  1  1  1  1
TYPE ASSIGNMENTS      1  2  2  2  3  3  3  4  4  4  2  3  4  2  3  4  2  3  4  5
TYPE ASSIGNMENTS      6  7  8  9 10  5  6  7  8  9 10  5  6  7  8  9 10 11 12 13
TYPE ASSIGNMENTS     17 14 15 18 19 16 20 11 12 13 17 14 15 18 19 16 20
EXPONENTS  0.3124000D+06 0.4680000D+05 0.1065000D+05 0.3018000D+04 0.9868000D+03
EXPONENTS  0.3574000D+03 0.1396000D+03 0.5763000D+02 0.2460000D+02 0.1012000D+02
EXPONENTS  0.4283000D+01 0.1805000D+01 0.2782000D+00 0.3124000D+06 0.4680000D+05
EXPONENTS  0.1065000D+05 0.3018000D+04 0.9868000D+03 0.3574000D+03 0.1396000D+03
EXPONENTS  0.5763000D+02 0.2460000D+02 0.1012000D+02 0.4283000D+01 0.1805000D+01
EXPONENTS  0.2782000D+00 0.3124000D+06 0.4680000D+05 0.1065000D+05 0.3018000D+04
EXPONENTS  0.9868000D+03 0.3574000D+03 0.1396000D+03 0.5763000D+02 0.2460000D+02
EXPONENTS  0.1012000D+02 0.4283000D+01 0.1805000D+01 0.2782000D+00 0.6158000D+00
EXPONENTS  0.1055000D+00 0.4090000D-01 0.5049000D+03 0.1194000D+03 0.3796000D+02
EXPONENTS  0.1395000D+02 0.5457000D+01 0.2177000D+01 0.2877000D+00 0.5049000D+03
EXPONENTS  0.1194000D+03 0.3796000D+02 0.1395000D+02 0.5457000D+01 0.2177000D+01
EXPONENTS  0.2877000D+00 0.5049000D+03 0.1194000D+03 0.3796000D+02 0.1395000D+02
EXPONENTS  0.5457000D+01 0.2177000D+01 0.2877000D+00 0.5049000D+03 0.1194000D+03
EXPONENTS  0.3796000D+02 0.1395000D+02 0.5457000D+01 0.2177000D+01 0.2877000D+00
EXPONENTS  0.5049000D+03 0.1194000D+03 0.3796000D+02 0.1395000D+02 0.5457000D+01
EXPONENTS  0.2177000D+01 0.2877000D+00 0.5049000D+03 0.1194000D+03 0.3796000D+02
EXPONENTS  0.1395000D+02 0.5457000D+01 0.2177000D+01 0.2877000D+00 0.8010000D+00
EXPONENTS  0.8010000D+00 0.8010000D+00 0.9714000D-01 0.9714000D-01 0.9714000D-01
EXPONENTS  0.3070000D-01 0.3070000D-01 0.3070000D-01 0.2160000D+00 0.2160000D+00
EXPONENTS  0.2160000D+00 0.2160000D+00 0.2160000D+00 0.2160000D+00 0.6520000D+00
EXPONENTS  0.6520000D+00 0.6520000D+00 0.6520000D+00 0.6520000D+00 0.6520000D+00
EXPONENTS  0.7750000D-01 0.7750000D-01 0.7750000D-01 0.7750000D-01 0.7750000D-01
EXPONENTS  0.7750000D-01 0.4520000D+00 0.4520000D+00 0.4520000D+00 0.4520000D+00
EXPONENTS  0.4520000D+00 0.4520000D+00 0.4520000D+00 0.4520000D+00 0.4520000D+00
EXPONENTS  0.4520000D+00 0.1650000D+00 0.1650000D+00 0.1650000D+00 0.1650000D+00
EXPONENTS  0.1650000D+00 0.1650000D+00 0.1650000D+00 0.1650000D+00 0.1650000D+00
EXPONENTS  0.1650000D+00 0.3124000D+06 0.4680000D+05 0.1065000D+05 0.3018000D+04
EXPONENTS  0.9868000D+03 0.3574000D+03 0.1396000D+03 0.5763000D+02 0.2460000D+02
EXPONENTS  0.1012000D+02 0.4283000D+01 0.1805000D+01 0.2782000D+00 0.3124000D+06
EXPONENTS  0.4680000D+05 0.1065000D+05 0.3018000D+04 0.9868000D+03 0.3574000D+03
EXPONENTS  0.1396000D+03 0.5763000D+02 0.2460000D+02 0.1012000D+02 0.4283000D+01
EXPONENTS  0.1805000D+01 0.2782000D+00 0.3124000D+06 0.4680000D+05 0.1065000D+05
EXPONENTS  0.3018000D+04 0.9868000D+03 0.3574000D+03 0.1396000D+03 0.5763000D+02
EXPONENTS  0.2460000D+02 0.1012000D+02 0.4283000D+01 0.1805000D+01 0.2782000D+00
EXPONENTS  0.6158000D+00 0.1055000D+00 0.4090000D-01 0.5049000D+03 0.1194000D+03
EXPONENTS  0.3796000D+02 0.1395000D+02 0.5457000D+01 0.2177000D+01 0.2877000D+00
EXPONENTS  0.5049000D+03 0.1194000D+03 0.3796000D+02 0.1395000D+02 0.5457000D+01
EXPONENTS  0.2177000D+01 0.2877000D+00 0.5049000D+03 0.1194000D+03 0.3796000D+02
EXPONENTS  0.1395000D+02 0.5457000D+01 0.2177000D+01 0.2877000D+00 0.5049000D+03
EXPONENTS  0.1194000D+03 0.3796000D+02 0.1395000D+02 0.5457000D+01 0.2177000D+01
EXPONENTS  0.2877000D+00 0.5049000D+03 0.1194000D+03 0.3796000D+02 0.1395000D+02
EXPONENTS  0.5457000D+01 0.2177000D+01 0.2877000D+00 0.5049000D+03 0.1194000D+03
EXPONENTS  0.3796000D+02 0.1395000D+02 0.5457000D+01 0.2177000D+01 0.2877000D+00
EXPONENTS  0.8010000D+00 0.8010000D+00 0.8010000D+00 0.9714000D-01 0.9714000D-01
EXPONENTS  0.9714000D-01 0.3070000D-01 0.3070000D-01 0.3070000D-01 0.2160000D+00
EXPONENTS  0.2160000D+00 0.2160000D+00 0.2160000D+00 0.2160000D+00 0.2160000D+00
EXPONENTS  0.6520000D+00 0.6520000D+00 0.6520000D+00 0.6520000D+00 0.6520000D+00
EXPONENTS  0.6520000D+00 0.7750000D-01 0.7750000D-01 0.7750000D-01 0.7750000D-01
EXPONENTS  0.7750000D-01 0.7750000D-01 0.4520000D+00 0.4520000D+00 0.4520000D+00
EXPONENTS  0.4520000D+00 0.4520000D+00 0.4520000D+00 0.4520000D+00 0.4520000D+00
EXPONENTS  0.4520000D+00 0.4520000D+00 0.1650000D+00 0.1650000D+00 0.1650000D+00
EXPONENTS  0.1650000D+00 0.1650000D+00 0.1650000D+00 0.1650000D+00 0.1650000D+00
EXPONENTS  0.1650000D+00 0.1650000D+00 0.1533000D+05 0.2299000D+04 0.5224000D+03
EXPONENTS  0.1473000D+03 0.4755000D+02 0.1676000D+02 0.6207000D+01 0.6882000D+00
EXPONENTS  0.1533000D+05 0.2299000D+04 0.5224000D+03 0.1473000D+03 0.4755000D+02
EXPONENTS  0.1676000D+02 0.6207000D+01 0.6882000D+00 0.1752000D+01 0.2384000D+00
EXPONENTS  0.7376000D-01 0.3446000D+02 0.7749000D+01 0.2280000D+01 0.3446000D+02
EXPONENTS  0.7749000D+01 0.2280000D+01 0.3446000D+02 0.7749000D+01 0.2280000D+01
EXPONENTS  0.7156000D+00 0.7156000D+00 0.7156000D+00 0.2140000D+00 0.2140000D+00
EXPONENTS  0.2140000D+00 0.5974000D-01 0.5974000D-01 0.5974000D-01 0.2314000D+01
EXPONENTS  0.2314000D+01 0.2314000D+01 0.2314000D+01 0.2314000D+01 0.2314000D+01
EXPONENTS  0.6450000D+00 0.6450000D+00 0.6450000D+00 0.6450000D+00 0.6450000D+00
EXPONENTS  0.6450000D+00 0.2140000D+00 0.2140000D+00 0.2140000D+00 0.2140000D+00
EXPONENTS  0.2140000D+00 0.2140000D+00 0.1428000D+01 0.1428000D+01 0.1428000D+01
EXPONENTS  0.1428000D+01 0.1428000D+01 0.1428000D+01 0.1428000D+01 0.1428000D+01
EXPONENTS  0.1428000D+01 0.1428000D+01 0.5000000D+00 0.5000000D+00 0.5000000D+00
EXPONENTS  0.5000000D+00 0.5000000D+00 0.5000000D+00 0.5000000D+00 0.5000000D+00
EXPONENTS  0.5000000D+00 0.5000000D+00
MO    1     MO 0.0        OCC NO =    2.0000000  ORB. ENERGY =  -78.164305
 -0.41296372D-04 -0.77264889D-04 -0.13341365D-03 -0.21576394D-03 -0.32565183D-03
 -0.44615308D-03 -0.51558790D-03 -0.43328723D-03 -0.19031874D-03 -0.21753118D-04
  0.29318077D-06 -0.18235024D-06 -0.89698049D-08  0.54177002D-04  0.10133241D-03
  0.17545159D-03  0.28489237D-03  0.43752811D-03  0.62226541D-03  0.79173279D-03
  0.82051390D-03  0.54754860D-03 -0.53926556D-04 -0.41191102D-03 -0.21149945D-03
  0.92773411D-06 -0.28360454D-04 -0.52997777D-04 -0.91900024D-04 -0.14902572D-03
 -0.22970722D-03 -0.32686082D-03 -0.42089786D-03 -0.44246969D-03 -0.31018482D-03
  0.36015233D-04  0.29156620D-03  0.27440341D-03 -0.13381536D-03  0.66654708D-04
 -0.18712973D-03  0.18339136D-04  0.92254745D-15  0.12068681D-14  0.13203560D-14
  0.10876073D-14  0.58151879D-15  0.16067928D-15 -0.13170159D-18  0.26629531D-16
  0.34836508D-16  0.38112361D-16  0.31394018D-16  0.16785665D-16  0.46380421D-17
 -0.38015948D-20 -0.26160144D-02 -0.34222461D-02 -0.37440572D-02 -0.30840650D-02
 -0.16489792D-02 -0.45562895D-03  0.37345858D-06 -0.14748908D-17 -0.19533546D-17
 -0.21579320D-17 -0.18482754D-17 -0.10083042D-17 -0.30992626D-18  0.13493104D-18
  0.17000108D-17  0.22515048D-17  0.24873080D-17  0.21303869D-17  0.11622067D-17
  0.35723186D-18 -0.15552624D-18  0.21768766D-02  0.28830689D-02  0.31850167D-02
  0.27279765D-02  0.14882144D-02  0.45743809D-03 -0.19915253D-03  0.54498579D-19
  0.18956605D-18  0.18202138D-03  0.28971501D-19 -0.11103300D-18 -0.15917144D-03
  0.87583374D-21 -0.20931854D-20 -0.35856235D-05  0.39777657D-04  0.39777657D-04
 -0.79555314D-04 -0.56474363D-21  0.28264446D-19 -0.14665907D-18 -0.40209778D-04
 -0.40209778D-04  0.80419556D-04  0.20021633D-21 -0.32987369D-19  0.76131940D-19
  0.72204299D-05  0.72204299D-05 -0.14440860D-04  0.95621616D-24  0.49313961D-20
 -0.16634762D-19 -0.26904232D-20  0.19974383D-19 -0.55241649D-05 -0.26409327D-20
  0.19507825D-19  0.82862474D-05  0.10712202D-19 -0.79430973D-19  0.82862474D-05
 -0.10439815D-20 -0.86534032D-21  0.38377859D-20 -0.95990904D-05 -0.92481160D-21
  0.37955610D-20  0.14398636D-04  0.35208325D-20 -0.15308919D-19  0.14398636D-04
 -0.20691260D-21  0.54404465D+00  0.10178993D+01  0.17576115D+01  0.28425068D+01
  0.42901864D+01  0.58776881D+01  0.67924329D+01  0.57081914D+01  0.25072878D+01
  0.28657886D+00 -0.38624077D-02  0.24023096D-02  0.11816956D-03 -0.12477908D-02
 -0.23338620D-02 -0.40409560D-02 -0.65615679D-02 -0.10077035D-01 -0.14331857D-01
 -0.18234986D-01 -0.18897865D-01 -0.12610999D-01  0.12420226D-02  0.94870287D-02
  0.48712011D-02 -0.21367334D-04  0.58514785D-03  0.10934781D-02  0.18961298D-02
  0.30747773D-02  0.47394405D-02  0.67439650D-02  0.86841868D-02  0.91292682D-02
  0.63998969D-02 -0.74308530D-03 -0.60157477D-02 -0.56616360D-02  0.27609491D-02
 -0.24091783D-02  0.29650296D-03 -0.15638182D-03 -0.62087601D-18 -0.81222432D-18
 -0.88860187D-18 -0.73196155D-18 -0.39136314D-18 -0.10813743D-18  0.88635397D-22
  0.12917351D-16  0.16898361D-16  0.18487399D-16  0.15228491D-16  0.81423265D-17
  0.22498038D-17 -0.18440631D-20  0.13967418D-01  0.18272049D-01  0.19990262D-01
  0.16466433D-01  0.88042260D-02  0.24326931D-02 -0.19939692D-05  0.81538932D-18
  0.10799067D-17  0.11930068D-17  0.10218140D-17  0.55743818D-18  0.17134188D-18
 -0.74596256D-19 -0.58902188D-17 -0.78010424D-17 -0.86180563D-17 -0.73813915D-17
 -0.40268284D-17 -0.12377415D-17  0.53886929D-18 -0.12438754D-01 -0.16473963D-01
 -0.18199304D-01 -0.15587759D-01 -0.85037126D-02 -0.26138183D-02  0.11379650D-02
  0.10110511D-18 -0.99006721D-18 -0.14722808D-03 -0.41348544D-19  0.17362183D-18
 -0.23366880D-03 -0.31088656D-21  0.22796537D-20  0.93662346D-05 -0.91056345D-04
 -0.91056345D-04  0.18211269D-03  0.23199215D-20 -0.33021063D-19  0.16167154D-18
 -0.24085373D-03 -0.24085373D-03  0.48170746D-03 -0.18981499D-19 -0.28871423D-19
  0.18228095D-18  0.18931182D-04  0.18931182D-04 -0.37862365D-04 -0.92742411D-22
  0.53412278D-20 -0.16553717D-19  0.10282285D-19 -0.54702236D-19  0.95728352D-04
  0.76729830D-20 -0.54772507D-19 -0.14359253D-03 -0.38519837D-19  0.21887922D-18
 -0.14359253D-03  0.54209259D-20  0.38290305D-20 -0.19702017D-19 -0.20505893D-04
  0.39473021D-20 -0.19699627D-19  0.30758839D-04 -0.15434394D-19  0.78805679D-19
  0.30758839D-04 -0.45751561D-21  0.26614740D-03  0.49606450D-03  0.84116103D-03
  0.12731364D-02  0.15885025D-02  0.13643118D-02  0.52378583D-03 -0.23429262D-05
 -0.18004831D-03 -0.33768508D-03 -0.57567903D-03 -0.89967426D-03 -0.12030359D-02
 -0.12845619D-02 -0.78535594D-03  0.51813015D-03 -0.52263599D-05 -0.88842614D-03
  0.11290762D-03  0.74262782D-19  0.72009918D-19  0.48577465D-19 -0.54885497D-19
 -0.53220470D-19 -0.35902214D-19 -0.39080816D-03 -0.37895246D-03 -0.25563909D-03
 -0.31572828D-19  0.17131002D-18  0.26095111D-03  0.93311004D-19 -0.48044142D-18
  0.10346099D-02  0.27318615D-21 -0.68231341D-20  0.98657335D-05 -0.29227082D-03
 -0.29227082D-03  0.58454165D-03  0.19687757D-19 -0.22297871D-18 -0.61420266D-18
  0.21899912D-03  0.21899912D-03 -0.43799825D-03 -0.14376351D-20 -0.29752242D-19
  0.25719001D-18  0.11980598D-03  0.11980598D-03 -0.23961196D-03  0.30627515D-21
 -0.43513777D-19  0.23017845D-18  0.23241136D-19 -0.15439665D-18 -0.19600428D-03
  0.22195324D-19 -0.14433114D-18  0.29400642D-03 -0.91918733D-19  0.60752109D-18
  0.29400642D-03 -0.28584467D-20 -0.14897725D-19  0.75020552D-19  0.15400809D-03
 -0.14690109D-19  0.74467075D-19 -0.23101213D-03  0.59383285D-19 -0.29952873D-18
 -0.23101213D-03  0.96940756D-22
MO    2     MO 0.0        OCC NO =    2.0000000  ORB. ENERGY =  -78.107743
  0.54393148D+00  0.10176876D+01  0.17572459D+01  0.28419155D+01  0.42892940D+01
  0.58764654D+01  0.67910200D+01  0.57070040D+01  0.25067662D+01  0.28651924D+00
 -0.38616042D-02  0.24018099D-02  0.11814498D-03 -0.10335813D-02 -0.19332055D-02
 -0.33472409D-02 -0.54351367D-02 -0.83471000D-02 -0.11871492D-01 -0.15104567D-01
 -0.15653649D-01 -0.10446055D-01  0.10288033D-02  0.78583806D-02  0.40349569D-02
 -0.17699181D-04  0.46690655D-03  0.87251810D-03  0.15129773D-02  0.24534546D-02
  0.37817379D-02  0.53812065D-02  0.69293662D-02  0.72845096D-02  0.51066645D-02
 -0.59292945D-03 -0.48001407D-02 -0.45175846D-02  0.22030418D-02 -0.21541685D-02
  0.16689013D-03  0.49616862D-04 -0.12768794D-16 -0.16704020D-16 -0.18274783D-16
 -0.15053354D-16 -0.80486849D-17 -0.22239297D-17  0.18228553D-20  0.72854414D-17
  0.95307478D-17  0.10426972D-16  0.85889339D-17  0.45923070D-17  0.12688990D-17
 -0.10400595D-20  0.10247945D-01  0.13406268D-01  0.14666927D-01  0.12081482D-01
  0.64596925D-02  0.17848757D-02 -0.14629824D-05  0.31378456D-17  0.41557822D-17
  0.45910230D-17  0.39322252D-17  0.21451776D-17  0.65937136D-18 -0.28706720D-18
 -0.20779301D-17 -0.27520236D-17 -0.30402468D-17 -0.26039807D-17 -0.14205700D-17
 -0.43664597D-18  0.19010037D-18 -0.85921947D-02 -0.11379556D-01 -0.12571353D-01
 -0.10767402D-01 -0.58740251D-02 -0.18055213D-02  0.78606076D-03  0.90471362D-18
 -0.52312748D-18 -0.34695265D-03 -0.23482882D-19  0.34446601D-19 -0.95421399D-04
 -0.15123247D-20  0.11776354D-20 -0.11810820D-05  0.26733180D-04  0.26733180D-04
 -0.53466360D-04  0.38729555D-19 -0.91482903D-19  0.85588025D-19 -0.14128829D-03
 -0.14128829D-03  0.28257658D-03 -0.39558527D-18  0.14537068D-19 -0.46700981D-19
  0.11658922D-04  0.11658922D-04 -0.23317844D-04 -0.17505846D-20 -0.44374834D-20
  0.55686654D-20  0.99349677D-20 -0.55499392D-20  0.25053777D-04  0.15415824D-19
 -0.96401010D-20 -0.37580666D-04 -0.45220727D-19  0.26289919D-19 -0.37580666D-04
  0.42068267D-20  0.14847449D-20 -0.18215671D-20 -0.16321087D-04  0.12825674D-20
 -0.17265779D-20  0.24481631D-04 -0.57368021D-20  0.71912793D-20  0.24481631D-04
  0.33377294D-20 -0.22319947D-04 -0.41760283D-04 -0.72107677D-04 -0.11661653D-03
 -0.17600896D-03 -0.24113772D-03 -0.27866599D-03 -0.23418396D-03 -0.10286386D-03
 -0.11757169D-04  0.15845893D-06 -0.98557028D-07 -0.48480183D-08  0.59978160D-04
  0.11218287D-03  0.19423857D-03  0.31539804D-03  0.48437768D-03  0.68889626D-03
  0.87650984D-03  0.90837277D-03  0.60617893D-03 -0.59700896D-04 -0.45601756D-03
 -0.23414636D-03  0.10270739D-05 -0.31845794D-04 -0.59510905D-04 -0.10319402D-03
 -0.16734014D-03 -0.25793694D-03 -0.36703017D-03 -0.47262383D-03 -0.49684672D-03
 -0.34830478D-03  0.40441302D-04  0.32739804D-03  0.30812604D-03 -0.15026051D-03
  0.13306409D-03  0.15563658D-03 -0.96750485D-04  0.13655792D-17  0.17864382D-17
  0.19544260D-17  0.16099051D-17  0.86077951D-18  0.23784173D-18 -0.19494818D-21
 -0.99005195D-18 -0.12951769D-17 -0.14169689D-17 -0.11671895D-17 -0.62406959D-18
 -0.17243648D-18  0.14133844D-21 -0.49999497D-02 -0.65408884D-02 -0.71559611D-02
 -0.58945278D-02 -0.31516695D-02 -0.87083687D-03  0.71378586D-06 -0.10869542D-17
 -0.14395689D-17 -0.15903369D-17 -0.13621284D-17 -0.74309258D-18 -0.22840718D-18
  0.99440486D-19  0.78644870D-18  0.10415776D-17  0.11506634D-17  0.98554671D-18
  0.53765303D-18  0.16526044D-18 -0.71948610D-19  0.47863980D-02  0.63391353D-02
  0.70030416D-02  0.59981265D-02  0.32722050D-02  0.10057900D-02 -0.43788576D-03
 -0.13090372D-18  0.94896567D-19 -0.26093987D-03  0.76842636D-19 -0.69264819D-19
  0.68120037D-03  0.42593768D-21 -0.20076546D-21  0.71943616D-05  0.54452727D-04
  0.54452727D-04 -0.10890545D-03 -0.36567495D-20 -0.17080693D-19  0.23697477D-19
  0.15264209D-04  0.15264209D-04 -0.30528419D-04  0.50455853D-20  0.51482095D-19
 -0.38817572D-19  0.93211152D-05  0.93211152D-05 -0.18642230D-04  0.14572081D-21
 -0.26327796D-20  0.57974657D-20 -0.11682090D-19  0.69257455D-20  0.20412798D-04
 -0.12829320D-19  0.76801783D-20 -0.30619197D-04  0.47875590D-19 -0.28457415D-19
 -0.30619197D-04 -0.48842315D-20 -0.10285272D-19  0.82158234D-20  0.72497653D-04
 -0.10237662D-19  0.82297877D-20 -0.10874648D-03  0.41093478D-19 -0.32877258D-19
 -0.10874648D-03  0.68032691D-20 -0.10593812D-03 -0.19745502D-03 -0.33481829D-03
 -0.50676308D-03 -0.63229236D-03 -0.54305481D-03 -0.20848930D-03  0.93258544D-06
  0.69294984D-04  0.12996446D-03  0.22156091D-03  0.34625658D-03  0.46301102D-03
  0.49438782D-03  0.30225902D-03 -0.19941214D-03  0.72238445D-04 -0.63584468D-03
 -0.17280256D-03 -0.42057030D-19 -0.40781172D-19 -0.27510738D-19  0.28054869D-19
  0.27203785D-19  0.18351513D-19 -0.18529802D-03 -0.17967675D-03 -0.12120887D-03
  0.44710154D-19 -0.32128684D-19  0.24755698D-03 -0.14904913D-18  0.10817924D-18
 -0.29315489D-03 -0.52054360D-20  0.19533071D-20  0.15181122D-04  0.90689300D-04
  0.90689300D-04 -0.18137860D-03 -0.24386701D-19 -0.13321674D-18  0.90543532D-19
 -0.27905499D-04 -0.27905499D-04  0.55810999D-04  0.10168358D-19  0.67990032D-19
 -0.41505618D-19 -0.53222177D-04 -0.53222177D-04  0.10644435D-03 -0.74071402D-20
  0.42830215D-19 -0.29493097D-19  0.80340770D-20 -0.78668727D-20  0.93436600D-05
  0.99304559D-20 -0.92496335D-20 -0.14015490D-04 -0.34032687D-19  0.32850252D-19
 -0.14015490D-04 -0.38620855D-19  0.56707707D-20 -0.25870994D-20 -0.29667684D-04
  0.54762438D-20 -0.24811127D-20  0.44501526D-04 -0.22488556D-19  0.10242411D-19
  0.44501526D-04  0.11340831D-19
MO    3     MO 0.0        OCC NO =    2.0000000  ORB. ENERGY =  -19.670703
  0.53922555D-05  0.10088829D-04  0.17420428D-04  0.28173281D-04  0.42521843D-04
  0.58256241D-04  0.67322662D-04  0.56576288D-04  0.24850785D-04  0.28404037D-05
 -0.38281949D-07  0.23810302D-07  0.11712283D-08 -0.95726730D-05 -0.17904682D-04
 -0.31000990D-04 -0.50338361D-04 -0.77307960D-04 -0.10994967D-03 -0.13989329D-03
 -0.14497870D-03 -0.96747761D-04  0.95284209D-05  0.72781610D-04  0.37370379D-04
 -0.16392371D-06  0.56078833D-05  0.10479570D-04  0.18171945D-04  0.29467753D-04
  0.45421391D-04  0.64632158D-04  0.83226668D-04  0.87492195D-04  0.61334712D-04
 -0.71215089D-05 -0.57653140D-04 -0.54259438D-04  0.26460116D-04 -0.13037933D-03
 -0.47787637D-03 -0.16685144D-03  0.55764903D-15  0.72951135D-15  0.79811098D-15
  0.65742216D-15  0.35150863D-15  0.97125244D-16 -0.79609200D-19 -0.29561325D-15
 -0.38671855D-15 -0.42308365D-15 -0.34850362D-15 -0.18633693D-15 -0.51486703D-16
  0.42201337D-19  0.78927706D-03  0.10325250D-02  0.11296186D-02  0.93049248D-03
  0.49751310D-03  0.13746770D-03 -0.11267610D-06 -0.33373293D-15 -0.44199797D-15
 -0.48828902D-15 -0.41822104D-15 -0.22815540D-15 -0.70128988D-16  0.30531706D-16
  0.37443634D-15  0.49590581D-15  0.54784271D-15  0.46922895D-15  0.25598215D-15
  0.78682201D-16 -0.34255475D-16 -0.80695967D-03 -0.10687424D-02 -0.11806733D-02
 -0.10112502D-02 -0.55167528D-03 -0.16957052D-03  0.73825065D-04  0.60338038D-17
 -0.22010727D-18 -0.31068068D-04  0.45683137D-18 -0.55290800D-19 -0.17441147D-03
  0.10567620D-20  0.48220065D-20 -0.12318863D-04 -0.17437994D-04 -0.17437994D-04
  0.34875988D-04  0.39773067D-20 -0.11281967D-17 -0.72569110D-19 -0.84951731D-04
 -0.84951731D-04  0.16990346D-03 -0.12664694D-19  0.67110308D-18  0.16535983D-18
  0.38057294D-05  0.38057294D-05 -0.76114587D-05 -0.24760527D-21  0.76932920D-19
  0.65659572D-20  0.24713645D-18  0.12112789D-19  0.51334340D-04  0.24790271D-18
  0.11590397D-19 -0.77001510D-04 -0.98931205D-18 -0.47928765D-19 -0.77001510D-04
 -0.22845737D-20  0.15017941D-19 -0.44558900D-20  0.43174823D-05  0.15134927D-19
 -0.47779297D-20 -0.64762235D-05 -0.60188749D-19  0.18145600D-19 -0.64762235D-05
  0.11096441D-20  0.23284882D-03  0.43565662D-03  0.75225033D-03  0.12165809D-02
  0.18361817D-02  0.25156258D-02  0.29071327D-02  0.24430819D-02  0.10731086D-02
  0.12265455D-03 -0.16530942D-05  0.10281784D-05  0.50576076D-07 -0.45507495D-03
 -0.85117004D-03 -0.14737549D-02 -0.23930335D-02 -0.36751402D-02 -0.52268931D-02
 -0.66503819D-02 -0.68921370D-02 -0.45992883D-02  0.45297125D-03  0.34599623D-02
  0.17765491D-02 -0.77927633D-05  0.27535853D-03  0.51456829D-03  0.89227966D-03
  0.14469269D-02  0.22302832D-02  0.31735711D-02  0.40865996D-02  0.42960457D-02
  0.30116598D-02 -0.34968065D-03 -0.28308871D-02 -0.26642494D-02  0.12992458D-02
 -0.25801708D-03  0.11030608D-02  0.24610392D-03  0.29249206D-16  0.38263544D-16
  0.41861658D-16  0.34482399D-16  0.18436952D-16  0.50943087D-17 -0.41755760D-20
 -0.37148390D-17 -0.48597184D-17 -0.53167022D-17 -0.43794885D-17 -0.23416126D-17
 -0.64701027D-18  0.53032526D-21  0.25472997D-01  0.33323542D-01  0.36457122D-01
  0.30030560D-01  0.16056655D-01  0.44366097D-02 -0.36364897D-05 -0.15414548D-16
 -0.20415124D-16 -0.22553228D-16 -0.19316908D-16 -0.10538104D-16 -0.32391370D-17
  0.14102068D-17  0.20758837D-17  0.27493133D-17  0.30372526D-17  0.26014161D-17
  0.14191709D-17  0.43621594D-18 -0.18991314D-18 -0.23811289D-01 -0.31535819D-01
 -0.34838609D-01 -0.29839375D-01 -0.16278508D-01 -0.50035866D-02  0.21783864D-02
 -0.14332385D-17  0.20058483D-18 -0.30659890D-03  0.59972710D-18  0.80939677D-19
 -0.22385958D-03 -0.24189282D-19 -0.18168695D-19 -0.15509709D-06 -0.11534867D-03
 -0.11534867D-03  0.23069734D-03 -0.24354679D-20 -0.50805603D-18  0.14936193D-19
 -0.43955092D-03 -0.43955092D-03  0.87910185D-03 -0.14367351D-19  0.23401737D-18
 -0.12358314D-19 -0.45519431D-05 -0.45519431D-05  0.91038862D-05  0.11502926D-20
  0.23623859D-18 -0.28503096D-19 -0.22436560D-18  0.10898098D-18  0.26111097D-03
 -0.22113417D-18  0.11642046D-18 -0.39166645D-03  0.89423096D-18 -0.44336340D-18
 -0.39166645D-03 -0.34607300D-19 -0.11213766D-18 -0.20561255D-19 -0.18562733D-04
 -0.11318965D-18 -0.19750262D-19  0.27844100D-04  0.44960263D-18  0.81434027D-19
  0.27844100D-04  0.57736669D-20  0.49792062D+00  0.92805997D+00  0.15736822D+01
  0.23818413D+01  0.29718426D+01  0.25524164D+01  0.97992229D+00 -0.43832525D-02
  0.14620388D-03  0.27420900D-03  0.46746623D-03  0.73055872D-03  0.97689621D-03
  0.10430974D-02  0.63772930D-03 -0.42073506D-03  0.49926893D-01 -0.87343683D-03
 -0.47954386D-03  0.49530470D-17  0.48027895D-17  0.32399334D-17 -0.10110122D-16
 -0.98034170D-17 -0.66133272D-17 -0.82383241D-02 -0.79884032D-02 -0.53889296D-02
  0.32297681D-17 -0.14432012D-17  0.15138268D-02 -0.21235714D-17 -0.24599538D-18
  0.12652965D-02 -0.18674318D-18  0.33036417D-19  0.40928701D-04 -0.12411683D-02
 -0.12411683D-02  0.24823365D-02 -0.44240695D-17 -0.56048591D-17  0.35639894D-17
  0.52149104D-03  0.52149104D-03 -0.10429821D-02  0.47730951D-18  0.65533088D-18
 -0.28612023D-19  0.11893372D-03  0.11893372D-03 -0.23786743D-03 -0.26891757D-19
  0.49329387D-18 -0.59534672D-19 -0.14402041D-19  0.70298157D-19 -0.60357787D-04
 -0.42421401D-18  0.24388004D-18  0.90536681D-04  0.46742013D-18 -0.45477451D-18
  0.90536681D-04  0.53964768D-18  0.13280746D-19 -0.29224916D-19  0.23205764D-03
  0.48140810D-19 -0.44502237D-19 -0.34808646D-03 -0.87983047D-19  0.13217698D-18
 -0.34808646D-03 -0.13155154D-19
MO    4     MO 0.0        OCC NO =    2.0000000  ORB. ENERGY =   -6.957615
  0.69869084D-04  0.13072400D-03  0.22572174D-03  0.36504972D-03  0.55096837D-03
  0.75484372D-03  0.87232007D-03  0.73307606D-03  0.32199913D-03  0.36803969D-04
 -0.49603078D-06  0.30851728D-06  0.15175959D-07 -0.75348063D-03 -0.14093066D-02
 -0.24401383D-02 -0.39622141D-02 -0.60850350D-02 -0.86543167D-02 -0.11011228D-01
 -0.11411509D-01 -0.76151734D-02  0.74999748D-03  0.57287587D-02  0.29414832D-02
 -0.12902701D-04  0.78869197D-04  0.14738453D-03  0.25557000D-03  0.41443409D-03
  0.63880585D-03  0.90898583D-03  0.11704988D-02  0.12304891D-02  0.86261059D-03
 -0.10015681D-03 -0.81083301D-03 -0.76310404D-03  0.37213473D-03 -0.10840545D-03
 -0.16027734D-05 -0.24884822D-03 -0.15214318D-14 -0.19903231D-14 -0.21774833D-14
 -0.17936424D-14 -0.95901969D-15 -0.26498645D-15  0.21719749D-18  0.18747519D-14
  0.24525333D-14  0.26831574D-14  0.22101777D-14  0.11817316D-14  0.32652391D-15
 -0.26763698D-18  0.10790889D-01  0.14116543D-01  0.15443993D-01  0.12721568D-01
  0.68019319D-02  0.18794398D-02 -0.15404924D-05  0.53037577D-15  0.70243297D-15
  0.77599974D-15  0.66464614D-15  0.36258962D-15  0.11145054D-15 -0.48521664D-16
 -0.28809229D-15 -0.38155122D-15 -0.42151160D-15 -0.36102597D-15 -0.19695333D-15
 -0.60538289D-16  0.26356251D-16 -0.86082884D-02 -0.11400871D-01 -0.12594900D-01
 -0.10787570D-01 -0.58850276D-02 -0.18089032D-02  0.78753310D-03  0.28163915D-15
 -0.18633273D-15 -0.54957152D-03 -0.45501728D-17  0.24441969D-17  0.48153550D-03
 -0.11612759D-18  0.69773938D-19  0.68373162D-05 -0.18040165D-03 -0.18040165D-03
  0.36080330D-03  0.58637693D-19 -0.12016955D-17 -0.92278762D-18  0.10638095D-03
  0.10638095D-03 -0.21276190D-03 -0.32405809D-19  0.47888280D-18 -0.11395779D-17
 -0.30471968D-04 -0.30471968D-04  0.60943936D-04 -0.12454810D-20 -0.29318959D-18
  0.26034046D-18  0.10559654D-18  0.36435928D-18  0.10374090D-04  0.14357793D-18
  0.33204590D-18 -0.15561134D-04 -0.46036755D-18 -0.14251237D-17 -0.15561134D-04
 -0.14611610D-18  0.31047005D-19 -0.51804728D-19  0.46228716D-04  0.29363512D-19
 -0.53729418D-19 -0.69343073D-04 -0.12250453D-18  0.20914360D-18 -0.69343073D-04
  0.43943806D-19 -0.40556359D-02 -0.75880334D-02 -0.13102293D-01 -0.21189754D-01
 -0.31981629D-01 -0.43815821D-01 -0.50634879D-01 -0.42552291D-01 -0.18690830D-01
 -0.21363311D-02  0.28792709D-04 -0.17908260D-04 -0.88090697D-06 -0.14084268D+00
 -0.26343149D+00 -0.45611739D+00 -0.74062802D+00 -0.11374316D+01 -0.16176888D+01
 -0.20582492D+01 -0.21330708D+01 -0.14234493D+01  0.14019160D+00  0.10708354D+01
  0.54983017D+00 -0.24118086D-02 -0.26117632D-02 -0.48806568D-02 -0.84632319D-02
 -0.13724036D-01 -0.21154134D-01 -0.30101177D-01 -0.38761211D-01 -0.40747798D-01
 -0.28565455D-01  0.33167050D-02  0.26850835D-01  0.25270284D-01 -0.12323287D-01
  0.46020057D-01 -0.10687643D-03  0.89824044D-03 -0.25488999D-17 -0.33344476D-17
 -0.36480025D-17 -0.30049426D-17 -0.16066742D-17 -0.44393968D-18  0.36387741D-21
  0.64461841D-16  0.84328391D-16  0.92258214D-16  0.75995188D-16  0.40632893D-16
  0.11227263D-16 -0.92024829D-20 -0.11580074D-01 -0.15148947D-01 -0.16573479D-01
 -0.13651951D-01 -0.72993869D-02 -0.20168914D-02  0.16531553D-05  0.25567460D-16
  0.33861703D-16  0.37408086D-16  0.32040140D-16  0.17479109D-16  0.53726197D-17
 -0.23390505D-17 -0.11093678D-16 -0.14692536D-16 -0.16231305D-16 -0.13902162D-16
 -0.75841557D-17 -0.23311706D-17  0.10149101D-17  0.36461539D-01  0.48289890D-01
  0.53347356D-01  0.45692173D-01  0.24926809D-01  0.76618477D-02 -0.33357002D-02
  0.23144602D-17 -0.26811157D-17  0.13674469D-02  0.86698386D-18  0.85560002D-18
  0.40542897D-03 -0.44998464D-19  0.17580544D-19 -0.47478037D-04  0.37080946D-03
  0.37080946D-03 -0.74161892D-03 -0.49864700D-18 -0.21863432D-17  0.70504734D-18
  0.79783851D-03  0.79783851D-03 -0.15956770D-02  0.52916343D-17  0.15685138D-17
 -0.10023605D-17 -0.91847274D-04 -0.91847274D-04  0.18369455D-03  0.28362059D-19
 -0.52442682D-18  0.59344226D-18  0.68330022D-19 -0.64498188D-18 -0.33007107D-03
 -0.40941235D-18 -0.68246126D-18  0.49510661D-03  0.20442229D-18  0.26174069D-17
  0.49510661D-03  0.47416740D-18 -0.99628611D-19 -0.24731941D-18  0.39881432D-04
 -0.82789732D-19 -0.24539804D-18 -0.59822148D-04  0.38167557D-18  0.98735628D-18
 -0.59822148D-04  0.25448269D-20 -0.59795972D-03 -0.11145200D-02 -0.18898566D-02
 -0.28603860D-02 -0.35689266D-02 -0.30652319D-02 -0.11768021D-02  0.52639082D-05
  0.31126550D-03  0.58378615D-03  0.99522741D-03  0.15553467D-02  0.20797949D-02
  0.22207361D-02  0.13577145D-02 -0.89573756D-03 -0.21288805D-03  0.32647603D-02
 -0.71129571D-03  0.20109095D-17  0.19499058D-17  0.13153949D-17 -0.54075650D-17
 -0.52435190D-17 -0.35372469D-17 -0.17933950D-03 -0.17389899D-03 -0.11731123D-03