 Molden2AIM, Version 4.0.0 (06/02/2016)           Time: Thu Jun 28 03:10:12 2018
GAUSSIAN             33 MOL ORBITALS    524 PRIMITIVES        4 NUCLEI
  P    1    (CENTRE  1)   0.00000000  0.00003590  0.53874391  CHARGE = 15.0
  Cl   2    (CENTRE  2)   0.00000000  3.48702469 -1.27854712  CHARGE = 17.0
  Cl   3    (CENTRE  3)   3.01980313 -1.74352935 -1.27856980  CHARGE = 17.0
  Cl   4    (CENTRE  4)  -3.01980313 -1.74352935 -1.27856980  CHARGE = 17.0
CENTRE ASSIGNMENTS    1  1  1  1  1  1  1  1  1  1  1  1  1  1  1  1  1  1  1  1
CENTRE ASSIGNMENTS    1  1  1  1  1  1  1  1  1  1  1  1  1  1  1  1  1  1  1  1
CENTRE ASSIGNMENTS    1  1  1  1  1  1  1  1  1  1  1  1  1  1  1  1  1  1  1  1
CENTRE ASSIGNMENTS    1  1  1  1  1  1  1  1  1  1  1  1  1  1  1  1  1  1  1  1
CENTRE ASSIGNMENTS    1  1  1  1  1  1  1  1  1  1  1  1  1  1  1  1  1  1  1  1
CENTRE ASSIGNMENTS    1  1  1  1  1  1  1  1  1  1  1  1  1  1  1  1  1  1  1  1
CENTRE ASSIGNMENTS    1  1  1  1  1  1  1  1  1  1  1  2  2  2  2  2  2  2  2  2
CENTRE ASSIGNMENTS    2  2  2  2  2  2  2  2  2  2  2  2  2  2  2  2  2  2  2  2
CENTRE ASSIGNMENTS    2  2  2  2  2  2  2  2  2  2  2  2  2  2  2  2  2  2  2  2
CENTRE ASSIGNMENTS    2  2  2  2  2  2  2  2  2  2  2  2  2  2  2  2  2  2  2  2
CENTRE ASSIGNMENTS    2  2  2  2  2  2  2  2  2  2  2  2  2  2  2  2  2  2  2  2
CENTRE ASSIGNMENTS    2  2  2  2  2  2  2  2  2  2  2  2  2  2  2  2  2  2  2  2
CENTRE ASSIGNMENTS    2  2  2  2  2  2  2  2  2  2  2  2  2  2  2  2  2  2  2  2
CENTRE ASSIGNMENTS    2  2  3  3  3  3  3  3  3  3  3  3  3  3  3  3  3  3  3  3
CENTRE ASSIGNMENTS    3  3  3  3  3  3  3  3  3  3  3  3  3  3  3  3  3  3  3  3
CENTRE ASSIGNMENTS    3  3  3  3  3  3  3  3  3  3  3  3  3  3  3  3  3  3  3  3
CENTRE ASSIGNMENTS    3  3  3  3  3  3  3  3  3  3  3  3  3  3  3  3  3  3  3  3
CENTRE ASSIGNMENTS    3  3  3  3  3  3  3  3  3  3  3  3  3  3  3  3  3  3  3  3
CENTRE ASSIGNMENTS    3  3  3  3  3  3  3  3  3  3  3  3  3  3  3  3  3  3  3  3
CENTRE ASSIGNMENTS    3  3  3  3  3  3  3  3  3  3  3  3  3  4  4  4  4  4  4  4
CENTRE ASSIGNMENTS    4  4  4  4  4  4  4  4  4  4  4  4  4  4  4  4  4  4  4  4
CENTRE ASSIGNMENTS    4  4  4  4  4  4  4  4  4  4  4  4  4  4  4  4  4  4  4  4
CENTRE ASSIGNMENTS    4  4  4  4  4  4  4  4  4  4  4  4  4  4  4  4  4  4  4  4
CENTRE ASSIGNMENTS    4  4  4  4  4  4  4  4  4  4  4  4  4  4  4  4  4  4  4  4
CENTRE ASSIGNMENTS    4  4  4  4  4  4  4  4  4  4  4  4  4  4  4  4  4  4  4  4
CENTRE ASSIGNMENTS    4  4  4  4  4  4  4  4  4  4  4  4  4  4  4  4  4  4  4  4
CENTRE ASSIGNMENTS    4  4  4  4
TYPE ASSIGNMENTS      1  1  1  1  1  1  1  1  1  1  1  1  1  1  1  1  1  1  1  1
TYPE ASSIGNMENTS      1  1  1  1  1  1  1  1  1  1  1  1  1  1  1  1  1  1  1  1
TYPE ASSIGNMENTS      1  1  2  2  2  2  2  2  2  3  3  3  3  3  3  3  4  4  4  4
TYPE ASSIGNMENTS      4  4  4  2  2  2  2  2  2  2  3  3  3  3  3  3  3  4  4  4
TYPE ASSIGNMENTS      4  4  4  4  2  3  4  2  3  4  2  3  4  5  6  7  8  9 10  5
TYPE ASSIGNMENTS      6  7  8  9 10  5  6  7  8  9 10 11 12 13 17 14 15 18 19 16
TYPE ASSIGNMENTS     20 11 12 13 17 14 15 18 19 16 20  1  1  1  1  1  1  1  1  1
TYPE ASSIGNMENTS      1  1  1  1  1  1  1  1  1  1  1  1  1  1  1  1  1  1  1  1
TYPE ASSIGNMENTS      1  1  1  1  1  1  1  1  1  1  1  1  1  2  2  2  2  2  2  2
TYPE ASSIGNMENTS      3  3  3  3  3  3  3  4  4  4  4  4  4  4  2  2  2  2  2  2
TYPE ASSIGNMENTS      2  3  3  3  3  3  3  3  4  4  4  4  4  4  4  2  3  4  2  3
TYPE ASSIGNMENTS      4  2  3  4  5  6  7  8  9 10  5  6  7  8  9 10  5  6  7  8
TYPE ASSIGNMENTS      9 10 11 12 13 17 14 15 18 19 16 20 11 12 13 17 14 15 18 19
TYPE ASSIGNMENTS     16 20  1  1  1  1  1  1  1  1  1  1  1  1  1  1  1  1  1  1
TYPE ASSIGNMENTS      1  1  1  1  1  1  1  1  1  1  1  1  1  1  1  1  1  1  1  1
TYPE ASSIGNMENTS      1  1  1  1  2  2  2  2  2  2  2  3  3  3  3  3  3  3  4  4
TYPE ASSIGNMENTS      4  4  4  4  4  2  2  2  2  2  2  2  3  3  3  3  3  3  3  4
TYPE ASSIGNMENTS      4  4  4  4  4  4  2  3  4  2  3  4  2  3  4  5  6  7  8  9
TYPE ASSIGNMENTS     10  5  6  7  8  9 10  5  6  7  8  9 10 11 12 13 17 14 15 18
TYPE ASSIGNMENTS     19 16 20 11 12 13 17 14 15 18 19 16 20  1  1  1  1  1  1  1
TYPE ASSIGNMENTS      1  1  1  1  1  1  1  1  1  1  1  1  1  1  1  1  1  1  1  1
TYPE ASSIGNMENTS      1  1  1  1  1  1  1  1  1  1  1  1  1  1  1  2  2  2  2  2
TYPE ASSIGNMENTS      2  2  3  3  3  3  3  3  3  4  4  4  4  4  4  4  2  2  2  2
TYPE ASSIGNMENTS      2  2  2  3  3  3  3  3  3  3  4  4  4  4  4  4  4  2  3  4
TYPE ASSIGNMENTS      2  3  4  2  3  4  5  6  7  8  9 10  5  6  7  8  9 10  5  6
TYPE ASSIGNMENTS      7  8  9 10 11 12 13 17 14 15 18 19 16 20 11 12 13 17 14 15
TYPE ASSIGNMENTS     18 19 16 20
EXPONENTS  0.3124000D+06 0.4680000D+05 0.1065000D+05 0.3018000D+04 0.9868000D+03
EXPONENTS  0.3574000D+03 0.1396000D+03 0.5763000D+02 0.2460000D+02 0.1012000D+02
EXPONENTS  0.4283000D+01 0.1805000D+01 0.2782000D+00 0.3124000D+06 0.4680000D+05
EXPONENTS  0.1065000D+05 0.3018000D+04 0.9868000D+03 0.3574000D+03 0.1396000D+03
EXPONENTS  0.5763000D+02 0.2460000D+02 0.1012000D+02 0.4283000D+01 0.1805000D+01
EXPONENTS  0.2782000D+00 0.3124000D+06 0.4680000D+05 0.1065000D+05 0.3018000D+04
EXPONENTS  0.9868000D+03 0.3574000D+03 0.1396000D+03 0.5763000D+02 0.2460000D+02
EXPONENTS  0.1012000D+02 0.4283000D+01 0.1805000D+01 0.2782000D+00 0.6158000D+00
EXPONENTS  0.1055000D+00 0.4090000D-01 0.5049000D+03 0.1194000D+03 0.3796000D+02
EXPONENTS  0.1395000D+02 0.5457000D+01 0.2177000D+01 0.2877000D+00 0.5049000D+03
EXPONENTS  0.1194000D+03 0.3796000D+02 0.1395000D+02 0.5457000D+01 0.2177000D+01
EXPONENTS  0.2877000D+00 0.5049000D+03 0.1194000D+03 0.3796000D+02 0.1395000D+02
EXPONENTS  0.5457000D+01 0.2177000D+01 0.2877000D+00 0.5049000D+03 0.1194000D+03
EXPONENTS  0.3796000D+02 0.1395000D+02 0.5457000D+01 0.2177000D+01 0.2877000D+00
EXPONENTS  0.5049000D+03 0.1194000D+03 0.3796000D+02 0.1395000D+02 0.5457000D+01
EXPONENTS  0.2177000D+01 0.2877000D+00 0.5049000D+03 0.1194000D+03 0.3796000D+02
EXPONENTS  0.1395000D+02 0.5457000D+01 0.2177000D+01 0.2877000D+00 0.8010000D+00
EXPONENTS  0.8010000D+00 0.8010000D+00 0.9714000D-01 0.9714000D-01 0.9714000D-01
EXPONENTS  0.3070000D-01 0.3070000D-01 0.3070000D-01 0.2160000D+00 0.2160000D+00
EXPONENTS  0.2160000D+00 0.2160000D+00 0.2160000D+00 0.2160000D+00 0.6520000D+00
EXPONENTS  0.6520000D+00 0.6520000D+00 0.6520000D+00 0.6520000D+00 0.6520000D+00
EXPONENTS  0.7750000D-01 0.7750000D-01 0.7750000D-01 0.7750000D-01 0.7750000D-01
EXPONENTS  0.7750000D-01 0.4520000D+00 0.4520000D+00 0.4520000D+00 0.4520000D+00
EXPONENTS  0.4520000D+00 0.4520000D+00 0.4520000D+00 0.4520000D+00 0.4520000D+00
EXPONENTS  0.4520000D+00 0.1650000D+00 0.1650000D+00 0.1650000D+00 0.1650000D+00
EXPONENTS  0.1650000D+00 0.1650000D+00 0.1650000D+00 0.1650000D+00 0.1650000D+00
EXPONENTS  0.1650000D+00 0.4561000D+06 0.6833000D+05 0.1555000D+05 0.4405000D+04
EXPONENTS  0.1439000D+04 0.5204000D+03 0.2031000D+03 0.8396000D+02 0.3620000D+02
EXPONENTS  0.1583000D+02 0.6334000D+01 0.2694000D+01 0.4313000D+00 0.4561000D+06
EXPONENTS  0.6833000D+05 0.1555000D+05 0.4405000D+04 0.1439000D+04 0.5204000D+03
EXPONENTS  0.2031000D+03 0.8396000D+02 0.3620000D+02 0.1583000D+02 0.6334000D+01
EXPONENTS  0.2694000D+01 0.4313000D+00 0.4561000D+06 0.6833000D+05 0.1555000D+05
EXPONENTS  0.4405000D+04 0.1439000D+04 0.5204000D+03 0.2031000D+03 0.8396000D+02
EXPONENTS  0.3620000D+02 0.1583000D+02 0.6334000D+01 0.2694000D+01 0.4313000D+00
EXPONENTS  0.9768000D+00 0.1625000D+00 0.5910000D-01 0.6633000D+03 0.1568000D+03
EXPONENTS  0.4998000D+02 0.1842000D+02 0.7240000D+01 0.2922000D+01 0.3818000D+00
EXPONENTS  0.6633000D+03 0.1568000D+03 0.4998000D+02 0.1842000D+02 0.7240000D+01
EXPONENTS  0.2922000D+01 0.3818000D+00 0.6633000D+03 0.1568000D+03 0.4998000D+02
EXPONENTS  0.1842000D+02 0.7240000D+01 0.2922000D+01 0.3818000D+00 0.6633000D+03
EXPONENTS  0.1568000D+03 0.4998000D+02 0.1842000D+02 0.7240000D+01 0.2922000D+01
EXPONENTS  0.3818000D+00 0.6633000D+03 0.1568000D+03 0.4998000D+02 0.1842000D+02
EXPONENTS  0.7240000D+01 0.2922000D+01 0.3818000D+00 0.6633000D+03 0.1568000D+03
EXPONENTS  0.4998000D+02 0.1842000D+02 0.7240000D+01 0.2922000D+01 0.3818000D+00
EXPONENTS  0.1022000D+01 0.1022000D+01 0.1022000D+01 0.1301000D+00 0.1301000D+00
EXPONENTS  0.1301000D+00 0.4190000D-01 0.4190000D-01 0.4190000D-01 0.1046000D+01
EXPONENTS  0.1046000D+01 0.1046000D+01 0.1046000D+01 0.1046000D+01 0.1046000D+01
EXPONENTS  0.3440000D+00 0.3440000D+00 0.3440000D+00 0.3440000D+00 0.3440000D+00
EXPONENTS  0.3440000D+00 0.1350000D+00 0.1350000D+00 0.1350000D+00 0.1350000D+00
EXPONENTS  0.1350000D+00 0.1350000D+00 0.7060000D+00 0.7060000D+00 0.7060000D+00
EXPONENTS  0.7060000D+00 0.7060000D+00 0.7060000D+00 0.7060000D+00 0.7060000D+00
EXPONENTS  0.7060000D+00 0.7060000D+00 0.3120000D+00 0.3120000D+00 0.3120000D+00
EXPONENTS  0.3120000D+00 0.3120000D+00 0.3120000D+00 0.3120000D+00 0.3120000D+00
EXPONENTS  0.3120000D+00 0.3120000D+00 0.4561000D+06 0.6833000D+05 0.1555000D+05
EXPONENTS  0.4405000D+04 0.1439000D+04 0.5204000D+03 0.2031000D+03 0.8396000D+02
EXPONENTS  0.3620000D+02 0.1583000D+02 0.6334000D+01 0.2694000D+01 0.4313000D+00
EXPONENTS  0.4561000D+06 0.6833000D+05 0.1555000D+05 0.4405000D+04 0.1439000D+04
EXPONENTS  0.5204000D+03 0.2031000D+03 0.8396000D+02 0.3620000D+02 0.1583000D+02
EXPONENTS  0.6334000D+01 0.2694000D+01 0.4313000D+00 0.4561000D+06 0.6833000D+05
EXPONENTS  0.1555000D+05 0.4405000D+04 0.1439000D+04 0.5204000D+03 0.2031000D+03
EXPONENTS  0.8396000D+02 0.3620000D+02 0.1583000D+02 0.6334000D+01 0.2694000D+01
EXPONENTS  0.4313000D+00 0.9768000D+00 0.1625000D+00 0.5910000D-01 0.6633000D+03
EXPONENTS  0.1568000D+03 0.4998000D+02 0.1842000D+02 0.7240000D+01 0.2922000D+01
EXPONENTS  0.3818000D+00 0.6633000D+03 0.1568000D+03 0.4998000D+02 0.1842000D+02
EXPONENTS  0.7240000D+01 0.2922000D+01 0.3818000D+00 0.6633000D+03 0.1568000D+03
EXPONENTS  0.4998000D+02 0.1842000D+02 0.7240000D+01 0.2922000D+01 0.3818000D+00
EXPONENTS  0.6633000D+03 0.1568000D+03 0.4998000D+02 0.1842000D+02 0.7240000D+01
EXPONENTS  0.2922000D+01 0.3818000D+00 0.6633000D+03 0.1568000D+03 0.4998000D+02
EXPONENTS  0.1842000D+02 0.7240000D+01 0.2922000D+01 0.3818000D+00 0.6633000D+03
EXPONENTS  0.1568000D+03 0.4998000D+02 0.1842000D+02 0.7240000D+01 0.2922000D+01
EXPONENTS  0.3818000D+00 0.1022000D+01 0.1022000D+01 0.1022000D+01 0.1301000D+00
EXPONENTS  0.1301000D+00 0.1301000D+00 0.4190000D-01 0.4190000D-01 0.4190000D-01
EXPONENTS  0.1046000D+01 0.1046000D+01 0.1046000D+01 0.1046000D+01 0.1046000D+01
EXPONENTS  0.1046000D+01 0.3440000D+00 0.3440000D+00 0.3440000D+00 0.3440000D+00
EXPONENTS  0.3440000D+00 0.3440000D+00 0.1350000D+00 0.1350000D+00 0.1350000D+00
EXPONENTS  0.1350000D+00 0.1350000D+00 0.1350000D+00 0.7060000D+00 0.7060000D+00
EXPONENTS  0.7060000D+00 0.7060000D+00 0.7060000D+00 0.7060000D+00 0.7060000D+00
EXPONENTS  0.7060000D+00 0.7060000D+00 0.7060000D+00 0.3120000D+00 0.3120000D+00
EXPONENTS  0.3120000D+00 0.3120000D+00 0.3120000D+00 0.3120000D+00 0.3120000D+00
EXPONENTS  0.3120000D+00 0.3120000D+00 0.3120000D+00 0.4561000D+06 0.6833000D+05
EXPONENTS  0.1555000D+05 0.4405000D+04 0.1439000D+04 0.5204000D+03 0.2031000D+03
EXPONENTS  0.8396000D+02 0.3620000D+02 0.1583000D+02 0.6334000D+01 0.2694000D+01
EXPONENTS  0.4313000D+00 0.4561000D+06 0.6833000D+05 0.1555000D+05 0.4405000D+04
EXPONENTS  0.1439000D+04 0.5204000D+03 0.2031000D+03 0.8396000D+02 0.3620000D+02
EXPONENTS  0.1583000D+02 0.6334000D+01 0.2694000D+01 0.4313000D+00 0.4561000D+06
EXPONENTS  0.6833000D+05 0.1555000D+05 0.4405000D+04 0.1439000D+04 0.5204000D+03
EXPONENTS  0.2031000D+03 0.8396000D+02 0.3620000D+02 0.1583000D+02 0.6334000D+01
EXPONENTS  0.2694000D+01 0.4313000D+00 0.9768000D+00 0.1625000D+00 0.5910000D-01
EXPONENTS  0.6633000D+03 0.1568000D+03 0.4998000D+02 0.1842000D+02 0.7240000D+01
EXPONENTS  0.2922000D+01 0.3818000D+00 0.6633000D+03 0.1568000D+03 0.4998000D+02
EXPONENTS  0.1842000D+02 0.7240000D+01 0.2922000D+01 0.3818000D+00 0.6633000D+03
EXPONENTS  0.1568000D+03 0.4998000D+02 0.1842000D+02 0.7240000D+01 0.2922000D+01
EXPONENTS  0.3818000D+00 0.6633000D+03 0.1568000D+03 0.4998000D+02 0.1842000D+02
EXPONENTS  0.7240000D+01 0.2922000D+01 0.3818000D+00 0.6633000D+03 0.1568000D+03
EXPONENTS  0.4998000D+02 0.1842000D+02 0.7240000D+01 0.2922000D+01 0.3818000D+00
EXPONENTS  0.6633000D+03 0.1568000D+03 0.4998000D+02 0.1842000D+02 0.7240000D+01
EXPONENTS  0.2922000D+01 0.3818000D+00 0.1022000D+01 0.1022000D+01 0.1022000D+01
EXPONENTS  0.1301000D+00 0.1301000D+00 0.1301000D+00 0.4190000D-01 0.4190000D-01
EXPONENTS  0.4190000D-01 0.1046000D+01 0.1046000D+01 0.1046000D+01 0.1046000D+01
EXPONENTS  0.1046000D+01 0.1046000D+01 0.3440000D+00 0.3440000D+00 0.3440000D+00
EXPONENTS  0.3440000D+00 0.3440000D+00 0.3440000D+00 0.1350000D+00 0.1350000D+00
EXPONENTS  0.1350000D+00 0.1350000D+00 0.1350000D+00 0.1350000D+00 0.7060000D+00
EXPONENTS  0.7060000D+00 0.7060000D+00 0.7060000D+00 0.7060000D+00 0.7060000D+00
EXPONENTS  0.7060000D+00 0.7060000D+00 0.7060000D+00 0.7060000D+00 0.3120000D+00
EXPONENTS  0.3120000D+00 0.3120000D+00 0.3120000D+00 0.3120000D+00 0.3120000D+00
EXPONENTS  0.3120000D+00 0.3120000D+00 0.3120000D+00 0.3120000D+00
MO    1     MO 0.0        OCC NO =    2.0000000  ORB. ENERGY = -102.702160
 -0.56503298D-04 -0.10571682D-03 -0.18254172D-03 -0.29521659D-03 -0.44556946D-03
 -0.61044395D-03 -0.70544736D-03 -0.59284039D-03 -0.26040147D-03 -0.29763459D-04
  0.40114129D-06 -0.24949867D-06 -0.12272835D-07  0.10859233D-03  0.20311057D-03
  0.35167498D-03  0.57103796D-03  0.87698087D-03  0.12472681D-02  0.15869484D-02
  0.16446372D-02  0.10975058D-02 -0.10809033D-03 -0.82563400D-03 -0.42392928D-03
  0.18595493D-05 -0.62243224D-04 -0.11631522D-03 -0.20169472D-03 -0.32706956D-03
 -0.50414277D-03 -0.71736762D-03 -0.92375249D-03 -0.97109659D-03 -0.68076849D-03
  0.79043313D-04  0.63990585D-03  0.60223835D-03 -0.29368709D-03 -0.10334529D-03
  0.11443505D-02  0.17144906D-03  0.92148100D-11  0.12054730D-10  0.13188297D-10
  0.10863500D-10  0.58084656D-11  0.16049354D-11 -0.13154935D-14  0.30893789D-02
  0.40414973D-02  0.44215396D-02  0.36421227D-02  0.19473599D-02  0.53807443D-03
 -0.44103544D-06 -0.24194091D-02 -0.31650488D-02 -0.34626743D-02 -0.28522835D-02
 -0.15250509D-02 -0.42138637D-03  0.34539148D-06 -0.79581786D-11 -0.10539861D-10
 -0.11643715D-10 -0.99728777D-11 -0.54405822D-11 -0.16722923D-11  0.72805752D-12
 -0.26682777D-02 -0.35338836D-02 -0.39039920D-02 -0.33437811D-02 -0.18241591D-02
 -0.56069869D-03  0.24410858D-03  0.20339804D-02  0.26938163D-02  0.29759433D-02
  0.25489045D-02  0.13905239D-02  0.42741058D-03 -0.18607960D-03 -0.50638997D-12
 -0.16961774D-03  0.16880323D-03  0.95474688D-12  0.32010811D-03 -0.28025316D-03
  0.28361924D-13  0.95056047D-05 -0.64579661D-05 -0.39659768D-04  0.69096334D-04
 -0.29436566D-04 -0.32510107D-12 -0.44612229D-12 -0.14949500D-03 -0.22631642D-04
  0.22767921D-04 -0.13627938D-06 -0.13418246D-12  0.27864442D-13  0.91584221D-05
 -0.84520390D-05  0.52017159D-05  0.32503231D-05 -0.40854197D-13 -0.96512188D-13
 -0.32387023D-04 -0.29558650D-14  0.15246768D-04  0.15689815D-04 -0.29316369D-14
 -0.49670592D-04  0.84019784D-05  0.11799232D-13  0.39302877D-05 -0.55471423D-04
  0.19089123D-12  0.30405163D-15  0.43157419D-05  0.41907034D-05  0.35604219D-15
 -0.12516951D-04 -0.72217432D-05 -0.12681971D-14 -0.43027479D-06 -0.53503670D-05
 -0.52727154D-14  0.61594749D+00  0.11524401D+01  0.19911612D+01  0.32279046D+01
  0.49018306D+01  0.68129681D+01  0.80996362D+01  0.72145329D+01  0.35815102D+01
  0.57703867D+00  0.88590807D-02  0.15831090D-02  0.59158314D-04 -0.99807411D-03
 -0.18642591D-02 -0.32355121D-02 -0.52499213D-02 -0.81262546D-02 -0.11631995D-01
 -0.15183387D-01 -0.16180433D-01 -0.12095202D-01 -0.63848422D-03  0.82042053D-02
  0.48742405D-02 -0.18274748D-04  0.39846391D-03  0.74367547D-03  0.12924425D-02
  0.20946691D-02  0.32533490D-02  0.46605164D-02  0.61537776D-02  0.66540590D-02
  0.52168685D-02  0.25958965D-03 -0.44721753D-02 -0.46295305D-02  0.20949281D-02
 -0.26574520D-02 -0.13014900D-02 -0.36401987D-03  0.14730987D-12  0.19404016D-12
  0.21407175D-12  0.17781120D-12  0.94439846D-13  0.24358791D-13 -0.25040009D-16
 -0.19437621D-02 -0.25603710D-02 -0.28246890D-02 -0.23462289D-02 -0.12461392D-02
 -0.32141564D-03  0.33040435D-06  0.50345525D-03  0.66316356D-03  0.73162476D-03
  0.60769846D-03  0.32276341D-03  0.83250100D-04 -0.85578272D-07 -0.14683567D-12
 -0.19278447D-12 -0.21949930D-12 -0.18586299D-12 -0.10646948D-12 -0.24218112D-13
  0.11335409D-13  0.14616976D-02  0.19191018D-02  0.21850386D-02  0.18502009D-02
  0.10598663D-02  0.24108282D-03 -0.11284003D-03 -0.32870353D-03 -0.43156364D-03
 -0.49136695D-03 -0.41606935D-03 -0.23834055D-03 -0.54214205D-04  0.25375232D-04
  0.73049709D-14  0.27371217D-04  0.19651948D-04 -0.12940467D-12  0.53085264D-03
 -0.23620082D-03 -0.80545399D-14  0.12782274D-04 -0.56406574D-05 -0.11673723D-03
  0.16662363D-03 -0.49886402D-04 -0.25204661D-13  0.35579222D-13 -0.28657977D-03
  0.64450942D-04 -0.89450494D-04  0.24999552D-04  0.35605145D-13 -0.80911126D-14
  0.16074639D-03  0.37334543D-04 -0.54207093D-04  0.16872551D-04  0.42716799D-13
 -0.21956905D-13  0.84335684D-04  0.24372881D-13 -0.26513397D-04 -0.30696069D-04
 -0.11145482D-12  0.89482562D-04 -0.26290302D-04  0.38336180D-13 -0.99423712D-05
  0.11837851D-03 -0.15828573D-12 -0.35041391D-14  0.22167955D-04  0.23718942D-04
  0.14310513D-13 -0.69859345D-04  0.29679298D-04 -0.37980960D-14  0.33554810D-05
 -0.10083612D-03  0.61556154D-13  0.27971605D-01  0.52334980D-01  0.90423252D-01
  0.14658664D+00  0.22260350D+00  0.30939269D+00  0.36782328D+00  0.32762868D+00
  0.16264469D+00  0.26204665D-01  0.40231141D-03  0.71892654D-04  0.26865163D-05
 -0.59475708D-04 -0.11109208D-03 -0.19280570D-03 -0.31284529D-03 -0.48424736D-03
 -0.69315610D-03 -0.90478522D-03 -0.96419963D-03 -0.72075880D-03 -0.38047577D-04
  0.48889247D-03  0.29045830D-03 -0.10890009D-05  0.26291620D-04  0.49069521D-04
  0.85278509D-04  0.13821137D-03  0.21466390D-03  0.30751224D-03  0.40604126D-03
  0.43905104D-03  0.34422171D-03  0.17128358D-04 -0.29508504D-03 -0.30546771D-03
  0.13822846D-03 -0.11608496D-03 -0.16723445D-03 -0.52124661D-04  0.36527986D-03
  0.48115555D-03  0.53082729D-03  0.44091308D-03  0.23417965D-03  0.60401763D-04
 -0.62090959D-07 -0.16080366D-03 -0.21181451D-03 -0.23368102D-03 -0.19409895D-03
 -0.10309067D-03 -0.26590090D-04  0.27333709D-07 -0.47699039D-03 -0.62830339D-03
 -0.69316583D-03 -0.57575390D-03 -0.30579688D-03 -0.78873936D-04  0.81079725D-07
 -0.31172066D-03 -0.40926637D-03 -0.46597988D-03 -0.39457262D-03 -0.22602639D-03
 -0.51413162D-04  0.24064189D-04  0.13011740D-03  0.17083460D-03  0.19450776D-03
  0.16470118D-03  0.94347179D-04  0.21460710D-04 -0.10044793D-04  0.40361357D-03
  0.52991503D-03  0.60334724D-03  0.51088967D-03  0.29265727D-03  0.66569376D-04
 -0.31158131D-04 -0.37223559D-04  0.23914730D-04  0.41989738D-04  0.60887515D-04
 -0.78721037D-04 -0.11967843D-04  0.11817433D-05 -0.33975923D-05  0.10550859D-05
 -0.56673132D-06 -0.29192814D-05  0.34860127D-05 -0.18848436D-04 -0.32607051D-04
  0.30852929D-04  0.82219567D-06 -0.14305476D-05  0.60835190D-06  0.16905553D-04
  0.23458551D-04 -0.16304708D-04 -0.28921608D-05 -0.25864934D-05  0.54786542D-05
  0.25444529D-04  0.33173925D-06 -0.75697432D-05 -0.56383852D-05 -0.16952721D-04
 -0.39594499D-05  0.33882907D-04  0.28170501D-04 -0.17788110D-04 -0.16967752D-04
  0.22687662D-04  0.29666459D-04 -0.99284049D-05 -0.42829391D-06  0.61150813D-05
  0.21100773D-05 -0.55819097D-05 -0.13101911D-04  0.45597298D-05  0.68667914D-05
 -0.52433324D-05 -0.10889962D-04  0.91272459D-05  0.27971603D-01  0.52334976D-01
  0.90423245D-01  0.14658663D+00  0.22260349D+00  0.30939267D+00  0.36782325D+00
  0.32762866D+00  0.16264468D+00  0.26204663D-01  0.40231139D-03  0.71892649D-04
  0.26865161D-05 -0.59475705D-04 -0.11109208D-03 -0.19280569D-03 -0.31284528D-03
 -0.48424733D-03 -0.69315606D-03 -0.90478518D-03 -0.96419958D-03 -0.72075876D-03
 -0.38047575D-04  0.48889245D-03  0.29045828D-03 -0.10890008D-05  0.26291619D-04
  0.49069519D-04  0.85278504D-04  0.13821137D-03  0.21466389D-03  0.30751222D-03
  0.40604124D-03  0.43905102D-03  0.34422169D-03  0.17128358D-04 -0.29508502D-03
 -0.30546770D-03  0.13822846D-03 -0.11608495D-03 -0.16723445D-03 -0.52124660D-04
 -0.36527987D-03 -0.48115556D-03 -0.53082730D-03 -0.44091309D-03 -0.23417965D-03
 -0.60401764D-04  0.62090960D-07 -0.16080366D-03 -0.21181451D-03 -0.23368103D-03
 -0.19409896D-03 -0.10309067D-03 -0.26590091D-04  0.27333710D-07 -0.47699039D-03
 -0.62830339D-03 -0.69316583D-03 -0.57575390D-03 -0.30579688D-03 -0.78873936D-04
  0.81079725D-07  0.31172067D-03  0.40926638D-03  0.46597989D-03  0.39457263D-03
  0.22602639D-03  0.51413163D-04 -0.24064190D-04  0.13011740D-03  0.17083461D-03
  0.19450777D-03  0.16470119D-03  0.94347182D-04  0.21460711D-04 -0.10044794D-04
  0.40361357D-03  0.52991503D-03  0.60334725D-03  0.51088967D-03  0.29265727D-03
  0.66569376D-04 -0.31158132D-04  0.37223560D-04  0.23914730D-04  0.41989738D-04
 -0.60887514D-04 -0.78721036D-04 -0.11967843D-04 -0.11817433D-05 -0.33975923D-05
  0.10550859D-05 -0.56673163D-06 -0.29192812D-05  0.34860129D-05  0.18848436D-04
  0.32607050D-04  0.30852929D-04  0.82219582D-06 -0.14305476D-05  0.60835182D-06
 -0.16905553D-04 -0.23458551D-04 -0.16304708D-04 -0.28921607D-05 -0.25864935D-05
  0.54786542D-05 -0.25444528D-04 -0.33173902D-06 -0.75697430D-05  0.56383852D-05
 -0.16952721D-04 -0.39594498D-05 -0.33882907D-04  0.28170501D-04 -0.17788110D-04
  0.16967752D-04  0.22687662D-04  0.29666459D-04  0.99284043D-05  0.42829392D-06
  0.61150812D-05  0.21100772D-05  0.55819097D-05 -0.13101911D-04  0.45597300D-05
 -0.68667914D-05 -0.52433324D-05 -0.10889962D-04 -0.91272455D-05
MO    2     MO 0.0        OCC NO =    2.0000000  ORB. ENERGY = -102.702156
 -0.69933489D-04 -0.13084450D-03 -0.22592981D-03 -0.36538622D-03 -0.55147625D-03
 -0.75553953D-03 -0.87312417D-03 -0.73375180D-03 -0.32229594D-03 -0.36837895D-04
  0.49648801D-06 -0.30880167D-06 -0.15189948D-07  0.13440348D-03  0.25138763D-03
  0.43526410D-03  0.70676715D-03  0.10854292D-02  0.15437295D-02  0.19641478D-02
  0.20355486D-02  0.13583704D-02 -0.13378216D-03 -0.10218777D-02 -0.52469241D-03
  0.23015428D-05 -0.77037741D-04 -0.14396205D-03 -0.24963529D-03 -0.40481033D-03
 -0.62397186D-03 -0.88787786D-03 -0.11433181D-02 -0.12019154D-02 -0.84257952D-03
  0.97831022D-04  0.79200430D-03  0.74538366D-03 -0.36349322D-03 -0.12790181D-03
  0.14162634D-02  0.21218736D-03 -0.76014655D-10 -0.99441676D-10 -0.10879268D-09
 -0.89615002D-10 -0.47915097D-10 -0.13239406D-10  0.10851747D-13 -0.24961689D-02
 -0.32654653D-02 -0.35725334D-02 -0.29427770D-02 -0.15734357D-02 -0.43475555D-03
  0.35634960D-06 -0.29942660D-02 -0.39170713D-02 -0.42854133D-02 -0.35299923D-02
 -0.18874064D-02 -0.52150869D-03  0.42745725D-06  0.65663428D-10  0.86965053D-10
  0.96073022D-10  0.82286836D-10  0.44890583D-10  0.13798188D-10 -0.60072480D-11
  0.21559213D-02  0.28553156D-02  0.31543567D-02  0.27017161D-02  0.14738884D-02
  0.45303464D-03 -0.19723542D-03  0.25172531D-02  0.33338656D-02  0.36830259D-02
  0.31545230D-02  0.17209116D-02  0.52896312D-03 -0.23029202D-03  0.41666206D-11
  0.13705356D-03  0.20891699D-03 -0.78769920D-11 -0.25865102D-03 -0.34684648D-03
 -0.23376402D-12 -0.76806438D-05 -0.79924324D-05  0.62150447D-04 -0.25717384D-04
 -0.36433062D-04  0.26651808D-11  0.36752644D-11  0.12079236D-03  0.18420192D-04
 -0.18254670D-04 -0.16552185D-06  0.11362556D-11 -0.21703390D-12 -0.74000306D-05
  0.35050459D-05 -0.75273248D-05  0.40222789D-05  0.33400750D-12  0.79832024D-12
  0.26168787D-04  0.23855259D-13  0.20881278D-04  0.19418447D-04  0.23999812D-13
 -0.59467530D-04 -0.54930319D-04 -0.95565590D-13 -0.31763032D-05 -0.33250225D-05
 -0.15661749D-11 -0.28647293D-14  0.51208585D-05  0.51870073D-05 -0.21628528D-14
 -0.15711407D-04 -0.70250977D-05  0.10757041D-13  0.34883168D-06 -0.85359241D-05
  0.50776317D-13 -0.39536695D-01 -0.73973308D-01 -0.12780949D+00 -0.20719409D+00
 -0.31464075D+00 -0.43731365D+00 -0.51990284D+00 -0.46308946D+00 -0.22989147D+00
 -0.37039200D-01 -0.56865038D-03 -0.10161726D-03 -0.37972786D-05  0.44765684D-04
  0.83615870D-04  0.14511940D-03  0.23546981D-03  0.36447930D-03  0.52171900D-03
  0.68100626D-03  0.72572581D-03  0.54249478D-03  0.28637335D-04 -0.36797555D-03
 -0.21861975D-03  0.81966017D-06 -0.14398331D-04 -0.26872410D-04 -0.46701883D-04
 -0.75690013D-04 -0.11755844D-03 -0.16840586D-03 -0.22236424D-03 -0.24044171D-03
 -0.18850942D-03 -0.93801662D-05  0.16160023D-03  0.16728620D-03 -0.75699371D-04
  0.17684627D-03 -0.63930556D-04 -0.25174167D-04 -0.12670527D-11 -0.16689928D-11
 -0.18412900D-11 -0.15294030D-11 -0.81230310D-12 -0.20951667D-12  0.21537601D-15
  0.78628220D-03  0.10357101D-02  0.11426309D-02  0.94908630D-03  0.50408279D-03
  0.13001766D-03 -0.13365373D-06 -0.71401932D-03 -0.94052369D-03 -0.10376180D-02
 -0.86186099D-03 -0.45775531D-03 -0.11806845D-03  0.12137035D-06  0.12571645D-11
  0.16505649D-11  0.18792895D-11  0.15913052D-11  0.91156088D-12  0.20734848D-12
 -0.97050498D-13 -0.64129118D-03 -0.84196831D-03 -0.95864286D-03 -0.81173940D-03
 -0.46499558D-03 -0.10577036D-03  0.49506351D-04  0.59190832D-03  0.77713223D-03
  0.88482221D-03  0.74923111D-03  0.42918843D-03  0.97625477D-04 -0.45694096D-04
 -0.58266771D-13 -0.63728315D-04  0.54786822D-04  0.10804050D-11  0.58640673D-04
  0.13470136D-04  0.67504199D-13  0.21002850D-05  0.21504162D-05  0.41495673D-06
 -0.11457877D-04  0.11042921D-04  0.21338545D-12 -0.30047818D-12 -0.23404838D-04
  0.67153701D-06  0.16502068D-05 -0.23217438D-05 -0.29904896D-12  0.70124178D-13
  0.18551051D-04  0.66857060D-05 -0.12029501D-04  0.53437951D-05 -0.35683802D-12
  0.18230897D-12 -0.50833938D-05 -0.20225409D-12 -0.31621866D-05 -0.15289596D-05
  0.92554925D-12  0.43742277D-04  0.21732749D-04 -0.31878698D-12 -0.34255717D-04
 -0.17145870D-04  0.13144522D-11  0.28478383D-13  0.83465528D-06 -0.11347566D-06
 -0.11707454D-12 -0.13765555D-04 -0.79374567D-05  0.31639392D-13  0.11261589D-04
  0.82778836D-05 -0.51363989D-12  0.43554486D+00  0.81490611D+00  0.14079772D+01
  0.22824953D+01  0.34661512D+01  0.48175426D+01  0.57273631D+01  0.51014945D+01
  0.25325346D+01  0.40803191D+00  0.62643767D-02  0.11194380D-02  0.41831650D-04
 -0.71361239D-03 -0.13329255D-02 -0.23133568D-02 -0.37536380D-02 -0.58101858D-02
 -0.83167530D-02 -0.10855961D-01 -0.11568837D-01 -0.86479409D-02 -0.45650944D-03
  0.58659197D-02  0.34850302D-02 -0.13066251D-04  0.28631244D-03  0.53436092D-03
  0.92867224D-03  0.15051045D-02  0.23376629D-02  0.33487696D-02  0.44217383D-02
  0.47812107D-02  0.37485312D-02  0.18652567D-03 -0.32134390D-02 -0.33265050D-02
  0.15052906D-02 -0.18765620D-02 -0.98038575D-03 -0.27717828D-03 -0.97438161D-03
 -0.12834793D-02 -0.14159783D-02 -0.11761327D-02 -0.62467267D-03 -0.16112130D-03
  0.16562722D-06  0.52212269D-03  0.68775276D-03  0.75875241D-03  0.63023109D-03
  0.33473104D-03  0.86336900D-04 -0.88751398D-07  0.78234890D-04  0.10305291D-03
  0.11369150D-03  0.94433859D-04  0.50156117D-04  0.12936726D-04 -0.13298514D-07
  0.71933634D-03  0.94443588D-03  0.10753097D-02  0.91052812D-03  0.52158556D-03
  0.11864262D-03 -0.55531275D-04 -0.37505385D-03 -0.49241821D-03 -0.56065436D-03
 -0.47473908D-03 -0.27194882D-03 -0.61858923D-04  0.28953380D-04  0.15053663D-06
  0.19764357D-06  0.22503174D-06  0.19054764D-06  0.10915302D-06  0.24828526D-07
 -0.11621116D-07 -0.59538071D-05  0.14813915D-05  0.36735242D-04  0.37303271D-03
 -0.18018462D-03 -0.16771270D-03  0.98079381D-05 -0.34690487D-05 -0.32598981D-05
  0.69348473D-04 -0.37271253D-04 -0.32077220D-04 -0.17277556D-03 -0.19445780D-03
  0.10255679D-03 -0.40440153D-04  0.23056180D-04  0.17383973D-04  0.93185527D-04
  0.10959126D-03 -0.61044710D-04 -0.30318128D-04  0.15769492D-04  0.14548636D-04
  0.59705804D-04  0.54343084D-04 -0.25415304D-04  0.13716556D-04 -0.26746211D-04
 -0.23131937D-04 -0.18230639D-04  0.77425081D-04  0.73371828D-04 -0.22919029D-04
  0.28135536D-05 -0.39760171D-05 -0.59545932D-04 -0.26821788D-05  0.19045204D-04
  0.17346338D-04  0.14908084D-05 -0.54385197D-04 -0.54569688D-04  0.65557281D-05
 -0.27504133D-05  0.25306744D-05  0.69912652D-04  0.43554488D+00  0.81490614D+00
  0.14079773D+01  0.22824954D+01  0.34661513D+01  0.48175428D+01  0.57273633D+01
  0.51014947D+01  0.25325347D+01  0.40803192D+00  0.62643769D-02  0.11194380D-02
  0.41831651D-04 -0.71361241D-03 -0.13329255D-02 -0.23133569D-02 -0.37536381D-02
 -0.58101860D-02 -0.83167534D-02 -0.10855961D-01 -0.11568838D-01 -0.86479412D-02
 -0.45650945D-03  0.58659199D-02  0.34850303D-02 -0.13066251D-04  0.28631245D-03
  0.53436094D-03  0.92867228D-03  0.15051046D-02  0.23376630D-02  0.33487698D-02
  0.44217384D-02  0.47812109D-02  0.37485313D-02  0.18652568D-03 -0.32134391D-02
 -0.33265052D-02  0.15052906D-02 -0.18765621D-02 -0.98038578D-03 -0.27717829D-03
  0.97438167D-03  0.12834793D-02  0.14159784D-02  0.11761328D-02  0.62467271D-03
  0.16112131D-03 -0.16562723D-06  0.52212272D-03  0.68775281D-03  0.75875246D-03
  0.63023114D-03  0.33473107D-03  0.86336906D-04 -0.88751404D-07  0.78234918D-04
  0.10305295D-03  0.11369154D-03  0.94433893D-04  0.50156134D-04  0.12936730D-04
 -0.13298519D-07 -0.71933638D-03 -0.94443594D-03 -0.10753098D-02 -0.91052817D-03
 -0.52158559D-03 -0.11864263D-03  0.55531279D-04 -0.37505387D-03 -0.49241824D-03
 -0.56065440D-03 -0.47473911D-03 -0.27194884D-03 -0.61858927D-04  0.28953382D-04
  0.15051572D-06  0.19761611D-06  0.22500048D-06  0.19052117D-06  0.10913786D-06
  0.24825077D-07 -0.11619502D-07  0.59538054D-05  0.14813905D-05  0.36735241D-04
 -0.37303272D-03 -0.18018463D-03 -0.16771271D-03 -0.98079383D-05 -0.34690489D-05
 -0.32598983D-05  0.69348475D-04 -0.37271254D-04 -0.32077221D-04  0.17277557D-03
  0.19445781D-03  0.10255679D-03 -0.40440154D-04  0.23056180D-04  0.17383974D-04
 -0.93185531D-04 -0.10959127D-03 -0.61044712D-04 -0.30318128D-04  0.15769492D-04