 Molden2AIM, Version 4.0.0 (06/02/2016)           Time: Thu Jun 28 02:02:04 2018
GAUSSIAN             50 MOL ORBITALS    786 PRIMITIVES        6 NUCLEI
  P    1    (CENTRE  1)  -0.00007370  0.00000000  0.00000000  CHARGE = 15.0
  Cl   2    (CENTRE  2)  -1.94390835  3.36688724  0.00000000  CHARGE = 17.0
  Cl   3    (CENTRE  3)  -1.94390835 -3.36688724  0.00000000  CHARGE = 17.0
  Cl   4    (CENTRE  4)   3.88767686  0.00000000  0.00000000  CHARGE = 17.0
  Cl   5    (CENTRE  5)   0.00010582  0.00000000  4.07371095  CHARGE = 17.0
  Cl   6    (CENTRE  6)   0.00010582  0.00000000 -4.07371095  CHARGE = 17.0
CENTRE ASSIGNMENTS    1  1  1  1  1  1  1  1  1  1  1  1  1  1  1  1  1  1  1  1
CENTRE ASSIGNMENTS    1  1  1  1  1  1  1  1  1  1  1  1  1  1  1  1  1  1  1  1
CENTRE ASSIGNMENTS    1  1  1  1  1  1  1  1  1  1  1  1  1  1  1  1  1  1  1  1
CENTRE ASSIGNMENTS    1  1  1  1  1  1  1  1  1  1  1  1  1  1  1  1  1  1  1  1
CENTRE ASSIGNMENTS    1  1  1  1  1  1  1  1  1  1  1  1  1  1  1  1  1  1  1  1
CENTRE ASSIGNMENTS    1  1  1  1  1  1  1  1  1  1  1  1  1  1  1  1  1  1  1  1
CENTRE ASSIGNMENTS    1  1  1  1  1  1  1  1  1  1  1  2  2  2  2  2  2  2  2  2
CENTRE ASSIGNMENTS    2  2  2  2  2  2  2  2  2  2  2  2  2  2  2  2  2  2  2  2
CENTRE ASSIGNMENTS    2  2  2  2  2  2  2  2  2  2  2  2  2  2  2  2  2  2  2  2
CENTRE ASSIGNMENTS    2  2  2  2  2  2  2  2  2  2  2  2  2  2  2  2  2  2  2  2
CENTRE ASSIGNMENTS    2  2  2  2  2  2  2  2  2  2  2  2  2  2  2  2  2  2  2  2
CENTRE ASSIGNMENTS    2  2  2  2  2  2  2  2  2  2  2  2  2  2  2  2  2  2  2  2
CENTRE ASSIGNMENTS    2  2  2  2  2  2  2  2  2  2  2  2  2  2  2  2  2  2  2  2
CENTRE ASSIGNMENTS    2  2  3  3  3  3  3  3  3  3  3  3  3  3  3  3  3  3  3  3
CENTRE ASSIGNMENTS    3  3  3  3  3  3  3  3  3  3  3  3  3  3  3  3  3  3  3  3
CENTRE ASSIGNMENTS    3  3  3  3  3  3  3  3  3  3  3  3  3  3  3  3  3  3  3  3
CENTRE ASSIGNMENTS    3  3  3  3  3  3  3  3  3  3  3  3  3  3  3  3  3  3  3  3
CENTRE ASSIGNMENTS    3  3  3  3  3  3  3  3  3  3  3  3  3  3  3  3  3  3  3  3
CENTRE ASSIGNMENTS    3  3  3  3  3  3  3  3  3  3  3  3  3  3  3  3  3  3  3  3
CENTRE ASSIGNMENTS    3  3  3  3  3  3  3  3  3  3  3  3  3  4  4  4  4  4  4  4
CENTRE ASSIGNMENTS    4  4  4  4  4  4  4  4  4  4  4  4  4  4  4  4  4  4  4  4
CENTRE ASSIGNMENTS    4  4  4  4  4  4  4  4  4  4  4  4  4  4  4  4  4  4  4  4
CENTRE ASSIGNMENTS    4  4  4  4  4  4  4  4  4  4  4  4  4  4  4  4  4  4  4  4
CENTRE ASSIGNMENTS    4  4  4  4  4  4  4  4  4  4  4  4  4  4  4  4  4  4  4  4
CENTRE ASSIGNMENTS    4  4  4  4  4  4  4  4  4  4  4  4  4  4  4  4  4  4  4  4
CENTRE ASSIGNMENTS    4  4  4  4  4  4  4  4  4  4  4  4  4  4  4  4  4  4  4  4
CENTRE ASSIGNMENTS    4  4  4  4  5  5  5  5  5  5  5  5  5  5  5  5  5  5  5  5
CENTRE ASSIGNMENTS    5  5  5  5  5  5  5  5  5  5  5  5  5  5  5  5  5  5  5  5
CENTRE ASSIGNMENTS    5  5  5  5  5  5  5  5  5  5  5  5  5  5  5  5  5  5  5  5
CENTRE ASSIGNMENTS    5  5  5  5  5  5  5  5  5  5  5  5  5  5  5  5  5  5  5  5
CENTRE ASSIGNMENTS    5  5  5  5  5  5  5  5  5  5  5  5  5  5  5  5  5  5  5  5
CENTRE ASSIGNMENTS    5  5  5  5  5  5  5  5  5  5  5  5  5  5  5  5  5  5  5  5
CENTRE ASSIGNMENTS    5  5  5  5  5  5  5  5  5  5  5  5  5  5  5  6  6  6  6  6
CENTRE ASSIGNMENTS    6  6  6  6  6  6  6  6  6  6  6  6  6  6  6  6  6  6  6  6
CENTRE ASSIGNMENTS    6  6  6  6  6  6  6  6  6  6  6  6  6  6  6  6  6  6  6  6
CENTRE ASSIGNMENTS    6  6  6  6  6  6  6  6  6  6  6  6  6  6  6  6  6  6  6  6
CENTRE ASSIGNMENTS    6  6  6  6  6  6  6  6  6  6  6  6  6  6  6  6  6  6  6  6
CENTRE ASSIGNMENTS    6  6  6  6  6  6  6  6  6  6  6  6  6  6  6  6  6  6  6  6
CENTRE ASSIGNMENTS    6  6  6  6  6  6  6  6  6  6  6  6  6  6  6  6  6  6  6  6
CENTRE ASSIGNMENTS    6  6  6  6  6  6
TYPE ASSIGNMENTS      1  1  1  1  1  1  1  1  1  1  1  1  1  1  1  1  1  1  1  1
TYPE ASSIGNMENTS      1  1  1  1  1  1  1  1  1  1  1  1  1  1  1  1  1  1  1  1
TYPE ASSIGNMENTS      1  1  2  2  2  2  2  2  2  3  3  3  3  3  3  3  4  4  4  4
TYPE ASSIGNMENTS      4  4  4  2  2  2  2  2  2  2  3  3  3  3  3  3  3  4  4  4
TYPE ASSIGNMENTS      4  4  4  4  2  3  4  2  3  4  2  3  4  5  6  7  8  9 10  5
TYPE ASSIGNMENTS      6  7  8  9 10  5  6  7  8  9 10 11 12 13 17 14 15 18 19 16
TYPE ASSIGNMENTS     20 11 12 13 17 14 15 18 19 16 20  1  1  1  1  1  1  1  1  1
TYPE ASSIGNMENTS      1  1  1  1  1  1  1  1  1  1  1  1  1  1  1  1  1  1  1  1
TYPE ASSIGNMENTS      1  1  1  1  1  1  1  1  1  1  1  1  1  2  2  2  2  2  2  2
TYPE ASSIGNMENTS      3  3  3  3  3  3  3  4  4  4  4  4  4  4  2  2  2  2  2  2
TYPE ASSIGNMENTS      2  3  3  3  3  3  3  3  4  4  4  4  4  4  4  2  3  4  2  3
TYPE ASSIGNMENTS      4  2  3  4  5  6  7  8  9 10  5  6  7  8  9 10  5  6  7  8
TYPE ASSIGNMENTS      9 10 11 12 13 17 14 15 18 19 16 20 11 12 13 17 14 15 18 19
TYPE ASSIGNMENTS     16 20  1  1  1  1  1  1  1  1  1  1  1  1  1  1  1  1  1  1
TYPE ASSIGNMENTS      1  1  1  1  1  1  1  1  1  1  1  1  1  1  1  1  1  1  1  1
TYPE ASSIGNMENTS      1  1  1  1  2  2  2  2  2  2  2  3  3  3  3  3  3  3  4  4
TYPE ASSIGNMENTS      4  4  4  4  4  2  2  2  2  2  2  2  3  3  3  3  3  3  3  4
TYPE ASSIGNMENTS      4  4  4  4  4  4  2  3  4  2  3  4  2  3  4  5  6  7  8  9
TYPE ASSIGNMENTS     10  5  6  7  8  9 10  5  6  7  8  9 10 11 12 13 17 14 15 18
TYPE ASSIGNMENTS     19 16 20 11 12 13 17 14 15 18 19 16 20  1  1  1  1  1  1  1
TYPE ASSIGNMENTS      1  1  1  1  1  1  1  1  1  1  1  1  1  1  1  1  1  1  1  1
TYPE ASSIGNMENTS      1  1  1  1  1  1  1  1  1  1  1  1  1  1  1  2  2  2  2  2
TYPE ASSIGNMENTS      2  2  3  3  3  3  3  3  3  4  4  4  4  4  4  4  2  2  2  2
TYPE ASSIGNMENTS      2  2  2  3  3  3  3  3  3  3  4  4  4  4  4  4  4  2  3  4
TYPE ASSIGNMENTS      2  3  4  2  3  4  5  6  7  8  9 10  5  6  7  8  9 10  5  6
TYPE ASSIGNMENTS      7  8  9 10 11 12 13 17 14 15 18 19 16 20 11 12 13 17 14 15
TYPE ASSIGNMENTS     18 19 16 20  1  1  1  1  1  1  1  1  1  1  1  1  1  1  1  1
TYPE ASSIGNMENTS      1  1  1  1  1  1  1  1  1  1  1  1  1  1  1  1  1  1  1  1
TYPE ASSIGNMENTS      1  1  1  1  1  1  2  2  2  2  2  2  2  3  3  3  3  3  3  3
TYPE ASSIGNMENTS      4  4  4  4  4  4  4  2  2  2  2  2  2  2  3  3  3  3  3  3
TYPE ASSIGNMENTS      3  4  4  4  4  4  4  4  2  3  4  2  3  4  2  3  4  5  6  7
TYPE ASSIGNMENTS      8  9 10  5  6  7  8  9 10  5  6  7  8  9 10 11 12 13 17 14
TYPE ASSIGNMENTS     15 18 19 16 20 11 12 13 17 14 15 18 19 16 20  1  1  1  1  1
TYPE ASSIGNMENTS      1  1  1  1  1  1  1  1  1  1  1  1  1  1  1  1  1  1  1  1
TYPE ASSIGNMENTS      1  1  1  1  1  1  1  1  1  1  1  1  1  1  1  1  1  2  2  2
TYPE ASSIGNMENTS      2  2  2  2  3  3  3  3  3  3  3  4  4  4  4  4  4  4  2  2
TYPE ASSIGNMENTS      2  2  2  2  2  3  3  3  3  3  3  3  4  4  4  4  4  4  4  2
TYPE ASSIGNMENTS      3  4  2  3  4  2  3  4  5  6  7  8  9 10  5  6  7  8  9 10
TYPE ASSIGNMENTS      5  6  7  8  9 10 11 12 13 17 14 15 18 19 16 20 11 12 13 17
TYPE ASSIGNMENTS     14 15 18 19 16 20
EXPONENTS  0.3124000D+06 0.4680000D+05 0.1065000D+05 0.3018000D+04 0.9868000D+03
EXPONENTS  0.3574000D+03 0.1396000D+03 0.5763000D+02 0.2460000D+02 0.1012000D+02
EXPONENTS  0.4283000D+01 0.1805000D+01 0.2782000D+00 0.3124000D+06 0.4680000D+05
EXPONENTS  0.1065000D+05 0.3018000D+04 0.9868000D+03 0.3574000D+03 0.1396000D+03
EXPONENTS  0.5763000D+02 0.2460000D+02 0.1012000D+02 0.4283000D+01 0.1805000D+01
EXPONENTS  0.2782000D+00 0.3124000D+06 0.4680000D+05 0.1065000D+05 0.3018000D+04
EXPONENTS  0.9868000D+03 0.3574000D+03 0.1396000D+03 0.5763000D+02 0.2460000D+02
EXPONENTS  0.1012000D+02 0.4283000D+01 0.1805000D+01 0.2782000D+00 0.6158000D+00
EXPONENTS  0.1055000D+00 0.4090000D-01 0.5049000D+03 0.1194000D+03 0.3796000D+02
EXPONENTS  0.1395000D+02 0.5457000D+01 0.2177000D+01 0.2877000D+00 0.5049000D+03
EXPONENTS  0.1194000D+03 0.3796000D+02 0.1395000D+02 0.5457000D+01 0.2177000D+01
EXPONENTS  0.2877000D+00 0.5049000D+03 0.1194000D+03 0.3796000D+02 0.1395000D+02
EXPONENTS  0.5457000D+01 0.2177000D+01 0.2877000D+00 0.5049000D+03 0.1194000D+03
EXPONENTS  0.3796000D+02 0.1395000D+02 0.5457000D+01 0.2177000D+01 0.2877000D+00
EXPONENTS  0.5049000D+03 0.1194000D+03 0.3796000D+02 0.1395000D+02 0.5457000D+01
EXPONENTS  0.2177000D+01 0.2877000D+00 0.5049000D+03 0.1194000D+03 0.3796000D+02
EXPONENTS  0.1395000D+02 0.5457000D+01 0.2177000D+01 0.2877000D+00 0.8010000D+00
EXPONENTS  0.8010000D+00 0.8010000D+00 0.9714000D-01 0.9714000D-01 0.9714000D-01
EXPONENTS  0.3070000D-01 0.3070000D-01 0.3070000D-01 0.2160000D+00 0.2160000D+00
EXPONENTS  0.2160000D+00 0.2160000D+00 0.2160000D+00 0.2160000D+00 0.6520000D+00
EXPONENTS  0.6520000D+00 0.6520000D+00 0.6520000D+00 0.6520000D+00 0.6520000D+00
EXPONENTS  0.7750000D-01 0.7750000D-01 0.7750000D-01 0.7750000D-01 0.7750000D-01
EXPONENTS  0.7750000D-01 0.4520000D+00 0.4520000D+00 0.4520000D+00 0.4520000D+00
EXPONENTS  0.4520000D+00 0.4520000D+00 0.4520000D+00 0.4520000D+00 0.4520000D+00
EXPONENTS  0.4520000D+00 0.1650000D+00 0.1650000D+00 0.1650000D+00 0.1650000D+00
EXPONENTS  0.1650000D+00 0.1650000D+00 0.1650000D+00 0.1650000D+00 0.1650000D+00
EXPONENTS  0.1650000D+00 0.4561000D+06 0.6833000D+05 0.1555000D+05 0.4405000D+04
EXPONENTS  0.1439000D+04 0.5204000D+03 0.2031000D+03 0.8396000D+02 0.3620000D+02
EXPONENTS  0.1583000D+02 0.6334000D+01 0.2694000D+01 0.4313000D+00 0.4561000D+06
EXPONENTS  0.6833000D+05 0.1555000D+05 0.4405000D+04 0.1439000D+04 0.5204000D+03
EXPONENTS  0.2031000D+03 0.8396000D+02 0.3620000D+02 0.1583000D+02 0.6334000D+01
EXPONENTS  0.2694000D+01 0.4313000D+00 0.4561000D+06 0.6833000D+05 0.1555000D+05
EXPONENTS  0.4405000D+04 0.1439000D+04 0.5204000D+03 0.2031000D+03 0.8396000D+02
EXPONENTS  0.3620000D+02 0.1583000D+02 0.6334000D+01 0.2694000D+01 0.4313000D+00
EXPONENTS  0.9768000D+00 0.1625000D+00 0.5910000D-01 0.6633000D+03 0.1568000D+03
EXPONENTS  0.4998000D+02 0.1842000D+02 0.7240000D+01 0.2922000D+01 0.3818000D+00
EXPONENTS  0.6633000D+03 0.1568000D+03 0.4998000D+02 0.1842000D+02 0.7240000D+01
EXPONENTS  0.2922000D+01 0.3818000D+00 0.6633000D+03 0.1568000D+03 0.4998000D+02
EXPONENTS  0.1842000D+02 0.7240000D+01 0.2922000D+01 0.3818000D+00 0.6633000D+03
EXPONENTS  0.1568000D+03 0.4998000D+02 0.1842000D+02 0.7240000D+01 0.2922000D+01
EXPONENTS  0.3818000D+00 0.6633000D+03 0.1568000D+03 0.4998000D+02 0.1842000D+02
EXPONENTS  0.7240000D+01 0.2922000D+01 0.3818000D+00 0.6633000D+03 0.1568000D+03
EXPONENTS  0.4998000D+02 0.1842000D+02 0.7240000D+01 0.2922000D+01 0.3818000D+00
EXPONENTS  0.1022000D+01 0.1022000D+01 0.1022000D+01 0.1301000D+00 0.1301000D+00
EXPONENTS  0.1301000D+00 0.4190000D-01 0.4190000D-01 0.4190000D-01 0.1046000D+01
EXPONENTS  0.1046000D+01 0.1046000D+01 0.1046000D+01 0.1046000D+01 0.1046000D+01
EXPONENTS  0.3440000D+00 0.3440000D+00 0.3440000D+00 0.3440000D+00 0.3440000D+00
EXPONENTS  0.3440000D+00 0.1350000D+00 0.1350000D+00 0.1350000D+00 0.1350000D+00
EXPONENTS  0.1350000D+00 0.1350000D+00 0.7060000D+00 0.7060000D+00 0.7060000D+00
EXPONENTS  0.7060000D+00 0.7060000D+00 0.7060000D+00 0.7060000D+00 0.7060000D+00
EXPONENTS  0.7060000D+00 0.7060000D+00 0.3120000D+00 0.3120000D+00 0.3120000D+00
EXPONENTS  0.3120000D+00 0.3120000D+00 0.3120000D+00 0.3120000D+00 0.3120000D+00
EXPONENTS  0.3120000D+00 0.3120000D+00 0.4561000D+06 0.6833000D+05 0.1555000D+05
EXPONENTS  0.4405000D+04 0.1439000D+04 0.5204000D+03 0.2031000D+03 0.8396000D+02
EXPONENTS  0.3620000D+02 0.1583000D+02 0.6334000D+01 0.2694000D+01 0.4313000D+00
EXPONENTS  0.4561000D+06 0.6833000D+05 0.1555000D+05 0.4405000D+04 0.1439000D+04
EXPONENTS  0.5204000D+03 0.2031000D+03 0.8396000D+02 0.3620000D+02 0.1583000D+02
EXPONENTS  0.6334000D+01 0.2694000D+01 0.4313000D+00 0.4561000D+06 0.6833000D+05
EXPONENTS  0.1555000D+05 0.4405000D+04 0.1439000D+04 0.5204000D+03 0.2031000D+03
EXPONENTS  0.8396000D+02 0.3620000D+02 0.1583000D+02 0.6334000D+01 0.2694000D+01
EXPONENTS  0.4313000D+00 0.9768000D+00 0.1625000D+00 0.5910000D-01 0.6633000D+03
EXPONENTS  0.1568000D+03 0.4998000D+02 0.1842000D+02 0.7240000D+01 0.2922000D+01
EXPONENTS  0.3818000D+00 0.6633000D+03 0.1568000D+03 0.4998000D+02 0.1842000D+02
EXPONENTS  0.7240000D+01 0.2922000D+01 0.3818000D+00 0.6633000D+03 0.1568000D+03
EXPONENTS  0.4998000D+02 0.1842000D+02 0.7240000D+01 0.2922000D+01 0.3818000D+00
EXPONENTS  0.6633000D+03 0.1568000D+03 0.4998000D+02 0.1842000D+02 0.7240000D+01
EXPONENTS  0.2922000D+01 0.3818000D+00 0.6633000D+03 0.1568000D+03 0.4998000D+02
EXPONENTS  0.1842000D+02 0.7240000D+01 0.2922000D+01 0.3818000D+00 0.6633000D+03
EXPONENTS  0.1568000D+03 0.4998000D+02 0.1842000D+02 0.7240000D+01 0.2922000D+01
EXPONENTS  0.3818000D+00 0.1022000D+01 0.1022000D+01 0.1022000D+01 0.1301000D+00
EXPONENTS  0.1301000D+00 0.1301000D+00 0.4190000D-01 0.4190000D-01 0.4190000D-01
EXPONENTS  0.1046000D+01 0.1046000D+01 0.1046000D+01 0.1046000D+01 0.1046000D+01
EXPONENTS  0.1046000D+01 0.3440000D+00 0.3440000D+00 0.3440000D+00 0.3440000D+00
EXPONENTS  0.3440000D+00 0.3440000D+00 0.1350000D+00 0.1350000D+00 0.1350000D+00
EXPONENTS  0.1350000D+00 0.1350000D+00 0.1350000D+00 0.7060000D+00 0.7060000D+00
EXPONENTS  0.7060000D+00 0.7060000D+00 0.7060000D+00 0.7060000D+00 0.7060000D+00
EXPONENTS  0.7060000D+00 0.7060000D+00 0.7060000D+00 0.3120000D+00 0.3120000D+00
EXPONENTS  0.3120000D+00 0.3120000D+00 0.3120000D+00 0.3120000D+00 0.3120000D+00
EXPONENTS  0.3120000D+00 0.3120000D+00 0.3120000D+00 0.4561000D+06 0.6833000D+05
EXPONENTS  0.1555000D+05 0.4405000D+04 0.1439000D+04 0.5204000D+03 0.2031000D+03
EXPONENTS  0.8396000D+02 0.3620000D+02 0.1583000D+02 0.6334000D+01 0.2694000D+01
EXPONENTS  0.4313000D+00 0.4561000D+06 0.6833000D+05 0.1555000D+05 0.4405000D+04
EXPONENTS  0.1439000D+04 0.5204000D+03 0.2031000D+03 0.8396000D+02 0.3620000D+02
EXPONENTS  0.1583000D+02 0.6334000D+01 0.2694000D+01 0.4313000D+00 0.4561000D+06
EXPONENTS  0.6833000D+05 0.1555000D+05 0.4405000D+04 0.1439000D+04 0.5204000D+03
EXPONENTS  0.2031000D+03 0.8396000D+02 0.3620000D+02 0.1583000D+02 0.6334000D+01
EXPONENTS  0.2694000D+01 0.4313000D+00 0.9768000D+00 0.1625000D+00 0.5910000D-01
EXPONENTS  0.6633000D+03 0.1568000D+03 0.4998000D+02 0.1842000D+02 0.7240000D+01
EXPONENTS  0.2922000D+01 0.3818000D+00 0.6633000D+03 0.1568000D+03 0.4998000D+02
EXPONENTS  0.1842000D+02 0.7240000D+01 0.2922000D+01 0.3818000D+00 0.6633000D+03
EXPONENTS  0.1568000D+03 0.4998000D+02 0.1842000D+02 0.7240000D+01 0.2922000D+01
EXPONENTS  0.3818000D+00 0.6633000D+03 0.1568000D+03 0.4998000D+02 0.1842000D+02
EXPONENTS  0.7240000D+01 0.2922000D+01 0.3818000D+00 0.6633000D+03 0.1568000D+03
EXPONENTS  0.4998000D+02 0.1842000D+02 0.7240000D+01 0.2922000D+01 0.3818000D+00
EXPONENTS  0.6633000D+03 0.1568000D+03 0.4998000D+02 0.1842000D+02 0.7240000D+01
EXPONENTS  0.2922000D+01 0.3818000D+00 0.1022000D+01 0.1022000D+01 0.1022000D+01
EXPONENTS  0.1301000D+00 0.1301000D+00 0.1301000D+00 0.4190000D-01 0.4190000D-01
EXPONENTS  0.4190000D-01 0.1046000D+01 0.1046000D+01 0.1046000D+01 0.1046000D+01
EXPONENTS  0.1046000D+01 0.1046000D+01 0.3440000D+00 0.3440000D+00 0.3440000D+00
EXPONENTS  0.3440000D+00 0.3440000D+00 0.3440000D+00 0.1350000D+00 0.1350000D+00
EXPONENTS  0.1350000D+00 0.1350000D+00 0.1350000D+00 0.1350000D+00 0.7060000D+00
EXPONENTS  0.7060000D+00 0.7060000D+00 0.7060000D+00 0.7060000D+00 0.7060000D+00
EXPONENTS  0.7060000D+00 0.7060000D+00 0.7060000D+00 0.7060000D+00 0.3120000D+00
EXPONENTS  0.3120000D+00 0.3120000D+00 0.3120000D+00 0.3120000D+00 0.3120000D+00
EXPONENTS  0.3120000D+00 0.3120000D+00 0.3120000D+00 0.3120000D+00 0.4561000D+06
EXPONENTS  0.6833000D+05 0.1555000D+05 0.4405000D+04 0.1439000D+04 0.5204000D+03
EXPONENTS  0.2031000D+03 0.8396000D+02 0.3620000D+02 0.1583000D+02 0.6334000D+01
EXPONENTS  0.2694000D+01 0.4313000D+00 0.4561000D+06 0.6833000D+05 0.1555000D+05
EXPONENTS  0.4405000D+04 0.1439000D+04 0.5204000D+03 0.2031000D+03 0.8396000D+02
EXPONENTS  0.3620000D+02 0.1583000D+02 0.6334000D+01 0.2694000D+01 0.4313000D+00
EXPONENTS  0.4561000D+06 0.6833000D+05 0.1555000D+05 0.4405000D+04 0.1439000D+04
EXPONENTS  0.5204000D+03 0.2031000D+03 0.8396000D+02 0.3620000D+02 0.1583000D+02
EXPONENTS  0.6334000D+01 0.2694000D+01 0.4313000D+00 0.9768000D+00 0.1625000D+00
EXPONENTS  0.5910000D-01 0.6633000D+03 0.1568000D+03 0.4998000D+02 0.1842000D+02
EXPONENTS  0.7240000D+01 0.2922000D+01 0.3818000D+00 0.6633000D+03 0.1568000D+03
EXPONENTS  0.4998000D+02 0.1842000D+02 0.7240000D+01 0.2922000D+01 0.3818000D+00
EXPONENTS  0.6633000D+03 0.1568000D+03 0.4998000D+02 0.1842000D+02 0.7240000D+01
EXPONENTS  0.2922000D+01 0.3818000D+00 0.6633000D+03 0.1568000D+03 0.4998000D+02
EXPONENTS  0.1842000D+02 0.7240000D+01 0.2922000D+01 0.3818000D+00 0.6633000D+03
EXPONENTS  0.1568000D+03 0.4998000D+02 0.1842000D+02 0.7240000D+01 0.2922000D+01
EXPONENTS  0.3818000D+00 0.6633000D+03 0.1568000D+03 0.4998000D+02 0.1842000D+02
EXPONENTS  0.7240000D+01 0.2922000D+01 0.3818000D+00 0.1022000D+01 0.1022000D+01
EXPONENTS  0.1022000D+01 0.1301000D+00 0.1301000D+00 0.1301000D+00 0.4190000D-01
EXPONENTS  0.4190000D-01 0.4190000D-01 0.1046000D+01 0.1046000D+01 0.1046000D+01
EXPONENTS  0.1046000D+01 0.1046000D+01 0.1046000D+01 0.3440000D+00 0.3440000D+00
EXPONENTS  0.3440000D+00 0.3440000D+00 0.3440000D+00 0.3440000D+00 0.1350000D+00
EXPONENTS  0.1350000D+00 0.1350000D+00 0.1350000D+00 0.1350000D+00 0.1350000D+00
EXPONENTS  0.7060000D+00 0.7060000D+00 0.7060000D+00 0.7060000D+00 0.7060000D+00
EXPONENTS  0.7060000D+00 0.7060000D+00 0.7060000D+00 0.7060000D+00 0.7060000D+00
EXPONENTS  0.3120000D+00 0.3120000D+00 0.3120000D+00 0.3120000D+00 0.3120000D+00
EXPONENTS  0.3120000D+00 0.3120000D+00 0.3120000D+00 0.3120000D+00 0.3120000D+00
EXPONENTS  0.4561000D+06 0.6833000D+05 0.1555000D+05 0.4405000D+04 0.1439000D+04
EXPONENTS  0.5204000D+03 0.2031000D+03 0.8396000D+02 0.3620000D+02 0.1583000D+02
EXPONENTS  0.6334000D+01 0.2694000D+01 0.4313000D+00 0.4561000D+06 0.6833000D+05
EXPONENTS  0.1555000D+05 0.4405000D+04 0.1439000D+04 0.5204000D+03 0.2031000D+03
EXPONENTS  0.8396000D+02 0.3620000D+02 0.1583000D+02 0.6334000D+01 0.2694000D+01
EXPONENTS  0.4313000D+00 0.4561000D+06 0.6833000D+05 0.1555000D+05 0.4405000D+04
EXPONENTS  0.1439000D+04 0.5204000D+03 0.2031000D+03 0.8396000D+02 0.3620000D+02
EXPONENTS  0.1583000D+02 0.6334000D+01 0.2694000D+01 0.4313000D+00 0.9768000D+00
EXPONENTS  0.1625000D+00 0.5910000D-01 0.6633000D+03 0.1568000D+03 0.4998000D+02
EXPONENTS  0.1842000D+02 0.7240000D+01 0.2922000D+01 0.3818000D+00 0.6633000D+03
EXPONENTS  0.1568000D+03 0.4998000D+02 0.1842000D+02 0.7240000D+01 0.2922000D+01
EXPONENTS  0.3818000D+00 0.6633000D+03 0.1568000D+03 0.4998000D+02 0.1842000D+02
EXPONENTS  0.7240000D+01 0.2922000D+01 0.3818000D+00 0.6633000D+03 0.1568000D+03
EXPONENTS  0.4998000D+02 0.1842000D+02 0.7240000D+01 0.2922000D+01 0.3818000D+00
EXPONENTS  0.6633000D+03 0.1568000D+03 0.4998000D+02 0.1842000D+02 0.7240000D+01
EXPONENTS  0.2922000D+01 0.3818000D+00 0.6633000D+03 0.1568000D+03 0.4998000D+02
EXPONENTS  0.1842000D+02 0.7240000D+01 0.2922000D+01 0.3818000D+00 0.1022000D+01
EXPONENTS  0.1022000D+01 0.1022000D+01 0.1301000D+00 0.1301000D+00 0.1301000D+00
EXPONENTS  0.4190000D-01 0.4190000D-01 0.4190000D-01 0.1046000D+01 0.1046000D+01
EXPONENTS  0.1046000D+01 0.1046000D+01 0.1046000D+01 0.1046000D+01 0.3440000D+00
EXPONENTS  0.3440000D+00 0.3440000D+00 0.3440000D+00 0.3440000D+00 0.3440000D+00
EXPONENTS  0.1350000D+00 0.1350000D+00 0.1350000D+00 0.1350000D+00 0.1350000D+00
EXPONENTS  0.1350000D+00 0.7060000D+00 0.7060000D+00 0.7060000D+00 0.7060000D+00
EXPONENTS  0.7060000D+00 0.7060000D+00 0.7060000D+00 0.7060000D+00 0.7060000D+00
EXPONENTS  0.7060000D+00 0.3120000D+00 0.3120000D+00 0.3120000D+00 0.3120000D+00
EXPONENTS  0.3120000D+00 0.3120000D+00 0.3120000D+00 0.3120000D+00 0.3120000D+00
EXPONENTS  0.3120000D+00
MO    1     MO 0.0        OCC NO =    2.0000000  ORB. ENERGY = -102.725785
 -0.45644999D-04 -0.85401104D-04 -0.14746249D-03 -0.23848451D-03 -0.35994391D-03
 -0.49313429D-03 -0.56988079D-03 -0.47891362D-03 -0.21035985D-03 -0.24043784D-04
  0.32405354D-06 -0.20155225D-06 -0.99143511D-08  0.91099581D-04  0.17039223D-03
  0.29502493D-03  0.47905152D-03  0.73571120D-03  0.10463502D-02  0.13313126D-02
  0.13797085D-02  0.92071259D-03 -0.90678450D-04 -0.69263561D-03 -0.35564004D-03
  0.15600012D-05 -0.54508409D-04 -0.10186101D-03 -0.17663060D-03 -0.28642542D-03
 -0.44149417D-03 -0.62822208D-03 -0.80896000D-03 -0.85042077D-03 -0.59617103D-03
  0.69220792D-04  0.56038630D-03  0.52739965D-03 -0.25719131D-03 -0.22886505D-03
  0.17958669D-02  0.23719398D-03 -0.18384827D-02 -0.24050862D-02 -0.26312486D-02
 -0.21674193D-02 -0.11588696D-02 -0.32020692D-03  0.26245923D-06  0.14193197D-09
  0.18567411D-09  0.20313398D-09  0.16732608D-09  0.89465435D-10  0.24720168D-10
 -0.20262011D-13  0.24753401D-14  0.32382172D-14  0.35427231D-14  0.29182216D-14
  0.15603065D-14  0.43112782D-15 -0.35337611D-18  0.15915029D-02  0.21077963D-02
  0.23285487D-02  0.19944090D-02  0.10880256D-02  0.33443054D-03 -0.14559935D-03
 -0.12286330D-09 -0.16272092D-09 -0.17976291D-09 -0.15396748D-09 -0.83995085D-10
 -0.25817887D-10  0.11240204D-10 -0.23570923D-14 -0.31217478D-14 -0.34486927D-14
 -0.29538158D-14 -0.16114183D-14 -0.49530773D-15  0.21563964D-15  0.10582377D-03
 -0.81727881D-11  0.71542847D-16 -0.36445584D-03  0.28177838D-10 -0.10012482D-14
 -0.80963128D-05  0.62911983D-12 -0.21436140D-16 -0.13494649D-04  0.92875535D-04
 -0.79380886D-04 -0.82156084D-11 -0.56042001D-17 -0.17184047D-17  0.21307584D-04
  0.28038775D-04 -0.49346359D-04 -0.51763092D-12  0.65531552D-17  0.21904362D-17
  0.59723939D-06  0.21978628D-04 -0.22575867D-04 -0.16511340D-11 -0.24797219D-17
 -0.24916353D-17  0.24200129D-04  0.72370697D-12  0.24466700D-16 -0.11008391D-03
  0.72378457D-12 -0.36443430D-16  0.37483524D-04 -0.28949055D-11 -0.36956669D-16
 -0.41204869D-17  0.99037896D-06 -0.12260880D-12 -0.57379546D-16  0.34497068D-05
 -0.12722636D-12  0.86064527D-16 -0.64208437D-05  0.49505276D-12  0.86074111D-16
  0.24619264D-17  0.43570619D+00  0.81520795D+00  0.14084988D+01  0.22833408D+01
  0.34674351D+01  0.48193270D+01  0.57294846D+01  0.51033842D+01  0.25334727D+01
  0.40818305D+00  0.62666970D-02  0.11198526D-02  0.41847145D-04 -0.77953627D-03
 -0.14560618D-02 -0.25270659D-02 -0.41004010D-02 -0.63469338D-02 -0.90850590D-02
 -0.11858840D-01 -0.12637573D-01 -0.94468422D-02 -0.49868202D-03  0.64078164D-02
  0.38069791D-02 -0.14273318D-04  0.32035932D-03  0.59790450D-03  0.10391054D-02
  0.16840842D-02  0.26156464D-02  0.37469889D-02  0.49475498D-02  0.53497689D-02
  0.41942882D-02  0.20870639D-03 -0.35955654D-02 -0.37220767D-02  0.16842924D-02
 -0.19780299D-02 -0.10473198D-02 -0.34799696D-03  0.73965439D-03  0.97429084D-03
  0.10748710D-02  0.89280395D-03  0.47418986D-03  0.12230740D-03 -0.12572785D-06
 -0.21599601D-02 -0.28451522D-02 -0.31388694D-02 -0.26071918D-02 -0.13847429D-02
 -0.35716559D-03  0.36715408D-06 -0.13881430D-14 -0.18284958D-14 -0.20172592D-14
 -0.16755657D-14 -0.88993363D-15 -0.22953984D-15  0.23595915D-18 -0.55550433D-03
 -0.72933646D-03 -0.83040322D-03 -0.70315134D-03 -0.40279216D-03 -0.91621242D-04
  0.42883783D-04  0.17359716D-02  0.22792035D-02  0.25950409D-02  0.21973740D-02
  0.12587404D-02  0.28631978D-03 -0.13401342D-03  0.12360468D-14  0.16228388D-14
  0.18477213D-14  0.15645745D-14  0.89624853D-15  0.20386545D-15 -0.95420249D-16
  0.14695068D-05  0.46057369D-04  0.81126441D-16 -0.22353225D-03  0.46200507D-03
  0.66682967D-16 -0.70377924D-05  0.14335004D-04  0.12980400D-17 -0.25429014D-04
  0.12883429D-03 -0.10340528D-03 -0.23930527D-03  0.76069993D-17 -0.13089791D-16
  0.90399504D-05 -0.62873182D-04  0.53833232D-04  0.13452833D-03 -0.20600955D-16
  0.35848665D-16  0.14366154D-04 -0.50581436D-04  0.36215281D-04  0.71597105D-04
  0.13166190D-16 -0.23083416D-16 -0.12083882D-04 -0.30097197D-04  0.98606572D-17
  0.60333067D-04  0.20401024D-04 -0.95569209D-17 -0.24081422D-04  0.69890569D-04
 -0.20025051D-16  0.11873459D-16  0.13093628D-04  0.18634110D-04 -0.66005863D-18
 -0.66385912D-04  0.19032019D-06 -0.18902906D-17  0.27105029D-04 -0.56092649D-04
  0.38704665D-17 -0.75550661D-17  0.43570616D+00  0.81520789D+00  0.14084986D+01
  0.22833406D+01  0.34674348D+01  0.48193266D+01  0.57294841D+01  0.51033838D+01
  0.25334725D+01  0.40818301D+00  0.62666965D-02  0.11198525D-02  0.41847141D-04
 -0.77953621D-03 -0.14560617D-02 -0.25270657D-02 -0.41004007D-02 -0.63469333D-02
 -0.90850583D-02 -0.11858839D-01 -0.12637572D-01 -0.94468414D-02 -0.49868198D-03
  0.64078159D-02  0.38069788D-02 -0.14273316D-04  0.32035929D-03  0.59790446D-03
  0.10391053D-02  0.16840840D-02  0.26156462D-02  0.37469887D-02  0.49475494D-02
  0.53497685D-02  0.41942878D-02  0.20870638D-03 -0.35955651D-02 -0.37220765D-02
  0.16842923D-02 -0.19780298D-02 -0.10473198D-02 -0.34799694D-03  0.73965430D-03
  0.97429072D-03  0.10748709D-02  0.89280384D-03  0.47418981D-03  0.12230738D-03
 -0.12572783D-06  0.21599600D-02  0.28451521D-02  0.31388693D-02  0.26071917D-02
  0.13847429D-02  0.35716558D-03 -0.36715407D-06 -0.14567247D-14 -0.19188334D-14
 -0.21169227D-14 -0.17583477D-14 -0.93390116D-15 -0.24088035D-15  0.24761681D-18
 -0.55550426D-03 -0.72933637D-03 -0.83040311D-03 -0.70315125D-03 -0.40279211D-03
 -0.91621230D-04  0.42883778D-04 -0.17359716D-02 -0.22792034D-02 -0.25950408D-02
 -0.21973740D-02 -0.12587404D-02 -0.28631977D-03  0.13401341D-03  0.12878915D-14
  0.16909071D-14  0.19252221D-14  0.16301990D-14  0.93384077D-15  0.21241638D-15
 -0.99422555D-16  0.14695088D-05 -0.46057370D-04  0.84146221D-16 -0.22353223D-03
 -0.46200504D-03  0.63995191D-16 -0.70377920D-05 -0.14335003D-04  0.45441242D-17
 -0.25429011D-04  0.12883429D-03 -0.10340528D-03  0.23930525D-03  0.12824229D-16
  0.24610632D-16  0.90399487D-05 -0.62873177D-04  0.53833229D-04 -0.13452832D-03
 -0.24632592D-16 -0.43796027D-16  0.14366155D-04 -0.50581434D-04  0.36215280D-04
 -0.71597099D-04  0.15021778D-16  0.25714166D-16 -0.12083881D-04  0.30097199D-04
  0.88656207D-17  0.60333063D-04 -0.20401027D-04 -0.56993305D-17 -0.24081421D-04
 -0.69890568D-04 -0.20897532D-16 -0.23638110D-16  0.13093627D-04 -0.18634110D-04
 -0.23935237D-18 -0.66385907D-04 -0.19031848D-06 -0.29283182D-17  0.27105028D-04
  0.56092648D-04  0.36463753D-17  0.11797218D-16  0.36753683D-01  0.68766282D-01
  0.11881290D+00  0.19260957D+00  0.29249300D+00  0.40653087D+00  0.48330656D+00
  0.43049231D+00  0.21370927D+00  0.34431988D-01  0.52862273D-03  0.94464362D-04
  0.35299858D-05 -0.90493169D-04 -0.16902825D-03 -0.29335672D-03 -0.47599874D-03
 -0.73678951D-03 -0.10546473D-02 -0.13766441D-02 -0.14670440D-02 -0.10966452D-02
 -0.57889950D-04  0.74385713D-03  0.44193660D-03 -0.16569309D-05  0.39973421D-04
  0.74604630D-04  0.12965628D-03  0.21013469D-03  0.32637207D-03  0.46753741D-03
  0.61733959D-03  0.66752722D-03  0.52334999D-03  0.26041722D-04 -0.44864326D-03
 -0.46442895D-03  0.21016067D-03 -0.20062807D-03 -0.49800550D-04 -0.91417193D-04
 -0.98740287D-03 -0.13006312D-02 -0.14349009D-02 -0.11918501D-02 -0.63302055D-03
 -0.16327447D-03  0.16784060D-06  0.39301307D-10  0.51768642D-10  0.57112939D-10
  0.47438861D-10  0.25195932D-10  0.64987657D-11 -0.66805102D-14 -0.13200117D-14
 -0.17387517D-14 -0.19182505D-14 -0.15933275D-14 -0.84625494D-15 -0.21827384D-15
  0.22437808D-18  0.86565359D-03  0.11365397D-02  0.12940341D-02  0.10957349D-02
  0.62767914D-03  0.14277523D-03 -0.66826664D-04 -0.34602976D-10 -0.45431170D-10
 -0.51726730D-10 -0.43800070D-10 -0.25090367D-10 -0.57071879D-11  0.26712780D-11
  0.11530428D-14  0.15138607D-14  0.17236418D-14  0.14595091D-14  0.83606298D-15
  0.19017532D-15 -0.89012517D-16  0.36876734D-04 -0.21750979D-11  0.76698310D-16
  0.11116592D-03 -0.33406532D-11  0.61600669D-16  0.72623423D-05 -0.97216221D-13
  0.21991842D-17  0.47515041D-04 -0.72849352D-06 -0.46786547D-04 -0.12374921D-11
 -0.21349168D-16  0.65309050D-18 -0.20286090D-04  0.45784932D-06  0.19828241D-04
 -0.44979996D-12  0.42682872D-16 -0.40026876D-18 -0.22634705D-04  0.70324644D-05
  0.15602240D-04  0.18260108D-11 -0.24855584D-16 -0.34194147D-18 -0.17448507D-04
 -0.81208736D-12  0.10280870D-16 -0.74983807D-05  0.36957169D-11 -0.18476621D-16
  0.59843902D-04 -0.12594548D-11 -0.12365988D-16 -0.27208936D-17  0.11184924D-04
  0.30922033D-12 -0.10170551D-17  0.16470538D-05 -0.13364330D-11  0.45854846D-17
 -0.35201827D-04  0.40877199D-12 -0.15343194D-17  0.16765150D-17 -0.13951024D-04
 -0.26102420D-04 -0.45099199D-04 -0.73111062D-04 -0.11102498D-03 -0.15431167D-03
 -0.18345431D-03 -0.16340699D-03 -0.81120122D-04 -0.13069751D-04 -0.20065550D-06
 -0.35856940D-07 -0.13399179D-08  0.73756940D-05  0.13776737D-04  0.23910196D-04
  0.38796531D-04  0.60052422D-04  0.85959586D-04  0.11220411D-03  0.11957220D-03
  0.89382649D-04  0.47183513D-05 -0.60628472D-04 -0.36020278D-04  0.13504904D-06
 -0.32041724D-05 -0.59801260D-05 -0.10392933D-04 -0.16843886D-04 -0.26161193D-04
 -0.37476664D-04 -0.49484442D-04 -0.53507361D-04 -0.41950465D-04 -0.20874412D-05
  0.35962155D-04  0.37227497D-04 -0.16845969D-04  0.30373845D-04 -0.49054167D-04
  0.10973435D-04  0.26030236D-03  0.34287663D-03  0.37827325D-03  0.31419942D-03
  0.16687894D-03  0.43042947D-04 -0.44246686D-07 -0.20118364D-10 -0.26500401D-10
 -0.29236150D-10 -0.24283983D-10 -0.12897813D-10 -0.33267223D-11  0.34197574D-14
  0.66282929D-03  0.87309493D-03  0.96322824D-03  0.80007177D-03  0.42493755D-03
  0.10960379D-03 -0.11266897D-06 -0.22379949D-03 -0.29383232D-03 -0.33454971D-03
 -0.28328295D-03 -0.16227538D-03 -0.36912020D-04  0.17276857D-04  0.17296000D-10
  0.22708380D-10  0.25855161D-10  0.21893088D-10  0.12541204D-10  0.28526888D-11
 -0.13352154D-11 -0.56876770D-03 -0.74675030D-03 -0.85023015D-03 -0.71993997D-03
 -0.41240934D-03 -0.93808816D-04  0.43907689D-04 -0.19524078D-04  0.15095442D-11
 -0.49340205D-04  0.30225126D-04 -0.23356213D-11  0.40761727D-04  0.68005055D-06
 -0.53286517D-13 -0.18457563D-05  0.66935166D-05 -0.19331241D-04  0.12637724D-04
  0.20090946D-11  0.43953371D-05 -0.34028605D-12  0.18974390D-05  0.81151146D-05