 Molden2AIM, Version 4.0.0 (06/02/2016)           Time: Thu Jun 28 03:18:57 2018
GAUSSIAN             20 MOL ORBITALS    356 PRIMITIVES        4 NUCLEI
  P    1    (CENTRE  1)  -0.00005858  0.00000000  0.00000000  CHARGE = 15.0
  O    2    (CENTRE  2)  -1.43561360  2.48669817  0.00000000  CHARGE =  8.0
  O    3    (CENTRE  3)  -1.43561360 -2.48669817  0.00000000  CHARGE =  8.0
  O    4    (CENTRE  4)   2.87128767  0.00000000  0.00000000  CHARGE =  8.0
CENTRE ASSIGNMENTS    1  1  1  1  1  1  1  1  1  1  1  1  1  1  1  1  1  1  1  1
CENTRE ASSIGNMENTS    1  1  1  1  1  1  1  1  1  1  1  1  1  1  1  1  1  1  1  1
CENTRE ASSIGNMENTS    1  1  1  1  1  1  1  1  1  1  1  1  1  1  1  1  1  1  1  1
CENTRE ASSIGNMENTS    1  1  1  1  1  1  1  1  1  1  1  1  1  1  1  1  1  1  1  1
CENTRE ASSIGNMENTS    1  1  1  1  1  1  1  1  1  1  1  1  1  1  1  1  1  1  1  1
CENTRE ASSIGNMENTS    1  1  1  1  1  1  1  1  1  1  1  1  1  1  1  1  1  1  1  1
CENTRE ASSIGNMENTS    1  1  1  1  1  1  1  1  1  1  1  2  2  2  2  2  2  2  2  2
CENTRE ASSIGNMENTS    2  2  2  2  2  2  2  2  2  2  2  2  2  2  2  2  2  2  2  2
CENTRE ASSIGNMENTS    2  2  2  2  2  2  2  2  2  2  2  2  2  2  2  2  2  2  2  2
CENTRE ASSIGNMENTS    2  2  2  2  2  2  2  2  2  2  2  2  2  2  2  2  2  2  2  2
CENTRE ASSIGNMENTS    2  2  2  2  2  2  3  3  3  3  3  3  3  3  3  3  3  3  3  3
CENTRE ASSIGNMENTS    3  3  3  3  3  3  3  3  3  3  3  3  3  3  3  3  3  3  3  3
CENTRE ASSIGNMENTS    3  3  3  3  3  3  3  3  3  3  3  3  3  3  3  3  3  3  3  3
CENTRE ASSIGNMENTS    3  3  3  3  3  3  3  3  3  3  3  3  3  3  3  3  3  3  3  3
CENTRE ASSIGNMENTS    3  4  4  4  4  4  4  4  4  4  4  4  4  4  4  4  4  4  4  4
CENTRE ASSIGNMENTS    4  4  4  4  4  4  4  4  4  4  4  4  4  4  4  4  4  4  4  4
CENTRE ASSIGNMENTS    4  4  4  4  4  4  4  4  4  4  4  4  4  4  4  4  4  4  4  4
CENTRE ASSIGNMENTS    4  4  4  4  4  4  4  4  4  4  4  4  4  4  4  4
TYPE ASSIGNMENTS      1  1  1  1  1  1  1  1  1  1  1  1  1  1  1  1  1  1  1  1
TYPE ASSIGNMENTS      1  1  1  1  1  1  1  1  1  1  1  1  1  1  1  1  1  1  1  1
TYPE ASSIGNMENTS      1  1  2  2  2  2  2  2  2  3  3  3  3  3  3  3  4  4  4  4
TYPE ASSIGNMENTS      4  4  4  2  2  2  2  2  2  2  3  3  3  3  3  3  3  4  4  4
TYPE ASSIGNMENTS      4  4  4  4  2  3  4  2  3  4  2  3  4  5  6  7  8  9 10  5
TYPE ASSIGNMENTS      6  7  8  9 10  5  6  7  8  9 10 11 12 13 17 14 15 18 19 16
TYPE ASSIGNMENTS     20 11 12 13 17 14 15 18 19 16 20  1  1  1  1  1  1  1  1  1
TYPE ASSIGNMENTS      1  1  1  1  1  1  1  1  1  1  2  2  2  3  3  3  4  4  4  2
TYPE ASSIGNMENTS      3  4  2  3  4  2  3  4  5  6  7  8  9 10  5  6  7  8  9 10
TYPE ASSIGNMENTS      5  6  7  8  9 10 11 12 13 17 14 15 18 19 16 20 11 12 13 17
TYPE ASSIGNMENTS     14 15 18 19 16 20  1  1  1  1  1  1  1  1  1  1  1  1  1  1
TYPE ASSIGNMENTS      1  1  1  1  1  2  2  2  3  3  3  4  4  4  2  3  4  2  3  4
TYPE ASSIGNMENTS      2  3  4  5  6  7  8  9 10  5  6  7  8  9 10  5  6  7  8  9
TYPE ASSIGNMENTS     10 11 12 13 17 14 15 18 19 16 20 11 12 13 17 14 15 18 19 16
TYPE ASSIGNMENTS     20  1  1  1  1  1  1  1  1  1  1  1  1  1  1  1  1  1  1  1
TYPE ASSIGNMENTS      2  2  2  3  3  3  4  4  4  2  3  4  2  3  4  2  3  4  5  6
TYPE ASSIGNMENTS      7  8  9 10  5  6  7  8  9 10  5  6  7  8  9 10 11 12 13 17
TYPE ASSIGNMENTS     14 15 18 19 16 20 11 12 13 17 14 15 18 19 16 20
EXPONENTS  0.3124000D+06 0.4680000D+05 0.1065000D+05 0.3018000D+04 0.9868000D+03
EXPONENTS  0.3574000D+03 0.1396000D+03 0.5763000D+02 0.2460000D+02 0.1012000D+02
EXPONENTS  0.4283000D+01 0.1805000D+01 0.2782000D+00 0.3124000D+06 0.4680000D+05
EXPONENTS  0.1065000D+05 0.3018000D+04 0.9868000D+03 0.3574000D+03 0.1396000D+03
EXPONENTS  0.5763000D+02 0.2460000D+02 0.1012000D+02 0.4283000D+01 0.1805000D+01
EXPONENTS  0.2782000D+00 0.3124000D+06 0.4680000D+05 0.1065000D+05 0.3018000D+04
EXPONENTS  0.9868000D+03 0.3574000D+03 0.1396000D+03 0.5763000D+02 0.2460000D+02
EXPONENTS  0.1012000D+02 0.4283000D+01 0.1805000D+01 0.2782000D+00 0.6158000D+00
EXPONENTS  0.1055000D+00 0.4090000D-01 0.5049000D+03 0.1194000D+03 0.3796000D+02
EXPONENTS  0.1395000D+02 0.5457000D+01 0.2177000D+01 0.2877000D+00 0.5049000D+03
EXPONENTS  0.1194000D+03 0.3796000D+02 0.1395000D+02 0.5457000D+01 0.2177000D+01
EXPONENTS  0.2877000D+00 0.5049000D+03 0.1194000D+03 0.3796000D+02 0.1395000D+02
EXPONENTS  0.5457000D+01 0.2177000D+01 0.2877000D+00 0.5049000D+03 0.1194000D+03
EXPONENTS  0.3796000D+02 0.1395000D+02 0.5457000D+01 0.2177000D+01 0.2877000D+00
EXPONENTS  0.5049000D+03 0.1194000D+03 0.3796000D+02 0.1395000D+02 0.5457000D+01
EXPONENTS  0.2177000D+01 0.2877000D+00 0.5049000D+03 0.1194000D+03 0.3796000D+02
EXPONENTS  0.1395000D+02 0.5457000D+01 0.2177000D+01 0.2877000D+00 0.8010000D+00
EXPONENTS  0.8010000D+00 0.8010000D+00 0.9714000D-01 0.9714000D-01 0.9714000D-01
EXPONENTS  0.3070000D-01 0.3070000D-01 0.3070000D-01 0.2160000D+00 0.2160000D+00
EXPONENTS  0.2160000D+00 0.2160000D+00 0.2160000D+00 0.2160000D+00 0.6520000D+00
EXPONENTS  0.6520000D+00 0.6520000D+00 0.6520000D+00 0.6520000D+00 0.6520000D+00
EXPONENTS  0.7750000D-01 0.7750000D-01 0.7750000D-01 0.7750000D-01 0.7750000D-01
EXPONENTS  0.7750000D-01 0.4520000D+00 0.4520000D+00 0.4520000D+00 0.4520000D+00
EXPONENTS  0.4520000D+00 0.4520000D+00 0.4520000D+00 0.4520000D+00 0.4520000D+00
EXPONENTS  0.4520000D+00 0.1650000D+00 0.1650000D+00 0.1650000D+00 0.1650000D+00
EXPONENTS  0.1650000D+00 0.1650000D+00 0.1650000D+00 0.1650000D+00 0.1650000D+00
EXPONENTS  0.1650000D+00 0.1533000D+05 0.2299000D+04 0.5224000D+03 0.1473000D+03
EXPONENTS  0.4755000D+02 0.1676000D+02 0.6207000D+01 0.6882000D+00 0.1533000D+05
EXPONENTS  0.2299000D+04 0.5224000D+03 0.1473000D+03 0.4755000D+02 0.1676000D+02
EXPONENTS  0.6207000D+01 0.6882000D+00 0.1752000D+01 0.2384000D+00 0.7376000D-01
EXPONENTS  0.3446000D+02 0.7749000D+01 0.2280000D+01 0.3446000D+02 0.7749000D+01
EXPONENTS  0.2280000D+01 0.3446000D+02 0.7749000D+01 0.2280000D+01 0.7156000D+00
EXPONENTS  0.7156000D+00 0.7156000D+00 0.2140000D+00 0.2140000D+00 0.2140000D+00
EXPONENTS  0.5974000D-01 0.5974000D-01 0.5974000D-01 0.2314000D+01 0.2314000D+01
EXPONENTS  0.2314000D+01 0.2314000D+01 0.2314000D+01 0.2314000D+01 0.6450000D+00
EXPONENTS  0.6450000D+00 0.6450000D+00 0.6450000D+00 0.6450000D+00 0.6450000D+00
EXPONENTS  0.2140000D+00 0.2140000D+00 0.2140000D+00 0.2140000D+00 0.2140000D+00
EXPONENTS  0.2140000D+00 0.1428000D+01 0.1428000D+01 0.1428000D+01 0.1428000D+01
EXPONENTS  0.1428000D+01 0.1428000D+01 0.1428000D+01 0.1428000D+01 0.1428000D+01
EXPONENTS  0.1428000D+01 0.5000000D+00 0.5000000D+00 0.5000000D+00 0.5000000D+00
EXPONENTS  0.5000000D+00 0.5000000D+00 0.5000000D+00 0.5000000D+00 0.5000000D+00
EXPONENTS  0.5000000D+00 0.1533000D+05 0.2299000D+04 0.5224000D+03 0.1473000D+03
EXPONENTS  0.4755000D+02 0.1676000D+02 0.6207000D+01 0.6882000D+00 0.1533000D+05
EXPONENTS  0.2299000D+04 0.5224000D+03 0.1473000D+03 0.4755000D+02 0.1676000D+02
EXPONENTS  0.6207000D+01 0.6882000D+00 0.1752000D+01 0.2384000D+00 0.7376000D-01
EXPONENTS  0.3446000D+02 0.7749000D+01 0.2280000D+01 0.3446000D+02 0.7749000D+01
EXPONENTS  0.2280000D+01 0.3446000D+02 0.7749000D+01 0.2280000D+01 0.7156000D+00
EXPONENTS  0.7156000D+00 0.7156000D+00 0.2140000D+00 0.2140000D+00 0.2140000D+00
EXPONENTS  0.5974000D-01 0.5974000D-01 0.5974000D-01 0.2314000D+01 0.2314000D+01
EXPONENTS  0.2314000D+01 0.2314000D+01 0.2314000D+01 0.2314000D+01 0.6450000D+00
EXPONENTS  0.6450000D+00 0.6450000D+00 0.6450000D+00 0.6450000D+00 0.6450000D+00
EXPONENTS  0.2140000D+00 0.2140000D+00 0.2140000D+00 0.2140000D+00 0.2140000D+00
EXPONENTS  0.2140000D+00 0.1428000D+01 0.1428000D+01 0.1428000D+01 0.1428000D+01
EXPONENTS  0.1428000D+01 0.1428000D+01 0.1428000D+01 0.1428000D+01 0.1428000D+01
EXPONENTS  0.1428000D+01 0.5000000D+00 0.5000000D+00 0.5000000D+00 0.5000000D+00
EXPONENTS  0.5000000D+00 0.5000000D+00 0.5000000D+00 0.5000000D+00 0.5000000D+00
EXPONENTS  0.5000000D+00 0.1533000D+05 0.2299000D+04 0.5224000D+03 0.1473000D+03
EXPONENTS  0.4755000D+02 0.1676000D+02 0.6207000D+01 0.6882000D+00 0.1533000D+05
EXPONENTS  0.2299000D+04 0.5224000D+03 0.1473000D+03 0.4755000D+02 0.1676000D+02
EXPONENTS  0.6207000D+01 0.6882000D+00 0.1752000D+01 0.2384000D+00 0.7376000D-01
EXPONENTS  0.3446000D+02 0.7749000D+01 0.2280000D+01 0.3446000D+02 0.7749000D+01
EXPONENTS  0.2280000D+01 0.3446000D+02 0.7749000D+01 0.2280000D+01 0.7156000D+00
EXPONENTS  0.7156000D+00 0.7156000D+00 0.2140000D+00 0.2140000D+00 0.2140000D+00
EXPONENTS  0.5974000D-01 0.5974000D-01 0.5974000D-01 0.2314000D+01 0.2314000D+01
EXPONENTS  0.2314000D+01 0.2314000D+01 0.2314000D+01 0.2314000D+01 0.6450000D+00
EXPONENTS  0.6450000D+00 0.6450000D+00 0.6450000D+00 0.6450000D+00 0.6450000D+00
EXPONENTS  0.2140000D+00 0.2140000D+00 0.2140000D+00 0.2140000D+00 0.2140000D+00
EXPONENTS  0.2140000D+00 0.1428000D+01 0.1428000D+01 0.1428000D+01 0.1428000D+01
EXPONENTS  0.1428000D+01 0.1428000D+01 0.1428000D+01 0.1428000D+01 0.1428000D+01
EXPONENTS  0.1428000D+01 0.5000000D+00 0.5000000D+00 0.5000000D+00 0.5000000D+00
EXPONENTS  0.5000000D+00 0.5000000D+00 0.5000000D+00 0.5000000D+00 0.5000000D+00
EXPONENTS  0.5000000D+00
MO    1     MO 0.0        OCC NO =    2.0000000  ORB. ENERGY =  -77.972414
  0.54425732D+00  0.10182972D+01  0.17582986D+01  0.28436180D+01  0.42918635D+01
  0.58799858D+01  0.67950882D+01  0.57104229D+01  0.25082679D+01  0.28669089D+00
 -0.38639176D-02  0.24032488D-02  0.11821576D-03 -0.16481312D-02 -0.30826568D-02
 -0.53374536D-02 -0.86667770D-02 -0.13310144D-01 -0.18930081D-01 -0.24085487D-01
 -0.24961044D-01 -0.16657103D-01  0.16405123D-02  0.12530841D-01  0.64340740D-02
 -0.28222815D-04  0.81399544D-03  0.15211304D-02  0.26376941D-02  0.42773031D-02
  0.65930055D-02  0.93814866D-02  0.12080517D-01  0.12699667D-01  0.89028558D-02
 -0.10337012D-02 -0.83684683D-02 -0.78758657D-02  0.38407386D-02 -0.27559582D-02
  0.44188751D-03  0.44374550D-04 -0.20429527D-06 -0.26725721D-06 -0.29238875D-06
 -0.24084726D-06 -0.12877553D-06 -0.35581929D-07  0.29164909D-10  0.94466175D-14
  0.12357979D-13  0.13520062D-13  0.11136782D-13  0.59545832D-14  0.16453091D-14
 -0.13485860D-17 -0.31066573D-17 -0.40641006D-17 -0.44462685D-17 -0.36624924D-17
 -0.19582511D-17 -0.54108379D-18  0.44350208D-21  0.15367187D-06  0.20352398D-06
  0.22483933D-06  0.19257557D-06  0.10505726D-06  0.32291848D-07 -0.14058740D-07
 -0.83950937D-14 -0.11118514D-13 -0.12282972D-13 -0.10520403D-13 -0.57392777D-14
 -0.17641035D-14  0.76802889D-15  0.83855158D-18  0.11105829D-17  0.12268958D-17
  0.10508400D-17  0.57327299D-18  0.17620908D-18 -0.76715266D-19  0.19744697D-08
 -0.28400410D-15  0.26691715D-18  0.16518458D-07  0.32145315D-15 -0.47426673D-20
 -0.10119732D-08  0.72071005D-17 -0.16539677D-21  0.62399832D-04  0.62424856D-04
 -0.12482469D-03 -0.30373700D-15  0.17305049D-20 -0.58242197D-20  0.29653794D-03
  0.29661739D-03 -0.59315534D-03 -0.21267172D-15  0.37072261D-20  0.83420626D-20
 -0.49651194D-05 -0.49737179D-05  0.99388373D-05 -0.24062235D-16  0.36893301D-21
  0.93916761D-22  0.18398067D-03  0.27957947D-16  0.41786452D-20 -0.55194383D-03
  0.11404295D-16 -0.12750577D-19  0.18216227D-08 -0.95278135D-16  0.21464159D-21
  0.34174811D-19 -0.14721681D-04 -0.29771295D-18  0.10234236D-20  0.44165643D-04
  0.13808873D-16 -0.51746135D-21 -0.59937503D-09 -0.12915734D-16 -0.25528095D-20
 -0.64433937D-21  0.18510243D-03  0.34500712D-03  0.58501776D-03  0.88545163D-03
  0.11047851D-02  0.94886307D-03  0.36428698D-03 -0.16294780D-05 -0.12537188D-03
 -0.23513807D-03 -0.40085887D-03 -0.62646438D-03 -0.83770225D-03 -0.89447070D-03
 -0.54686184D-03  0.36078623D-03  0.14342747D-04 -0.72392937D-03 -0.14901100D-03
  0.21716232D-03  0.21057440D-03  0.14205224D-03 -0.37619326D-03 -0.36478092D-03
 -0.24607905D-03 -0.15607885D-19 -0.15134398D-19 -0.10209576D-19 -0.18082280D-03
  0.31323744D-03 -0.35363877D-20 -0.32728654D-03  0.56692976D-03  0.21764203D-19
 -0.94027904D-05  0.16297574D-04  0.60288051D-21 -0.92107359D-04  0.26969587D-03
 -0.17758851D-03 -0.62641567D-03 -0.11851376D-19  0.38513130D-19  0.65287392D-04
 -0.24016267D-03  0.17487528D-03  0.52887324D-03  0.13403660D-19 -0.20143991D-19
  0.10250738D-04 -0.87055974D-04  0.76805236D-04  0.16850500D-03  0.67797145D-20
 -0.10499478D-19 -0.19133909D-04 -0.22358148D-04  0.43696592D-20  0.10903154D-03
 -0.22354393D-04  0.51846510D-20 -0.51629810D-04  0.89428837D-04 -0.18293628D-19
 -0.12874546D-19  0.56048092D-04  0.28107688D-04 -0.46888008D-20 -0.23301160D-03
  0.28050394D-04  0.14051547D-20  0.64867323D-04 -0.11237346D-03  0.12661248D-19
 -0.12260294D-19  0.18510243D-03  0.34500712D-03  0.58501776D-03  0.88545163D-03
  0.11047851D-02  0.94886307D-03  0.36428698D-03 -0.16294780D-05 -0.12537188D-03
 -0.23513807D-03 -0.40085887D-03 -0.62646438D-03 -0.83770225D-03 -0.89447070D-03
 -0.54686184D-03  0.36078623D-03  0.14342747D-04 -0.72392937D-03 -0.14901100D-03
  0.21716232D-03  0.21057440D-03  0.14205224D-03  0.37619326D-03  0.36478092D-03
  0.24607905D-03  0.22405773D-19  0.21726063D-19  0.14656274D-19 -0.18082280D-03
 -0.31323744D-03 -0.17792876D-19 -0.32728654D-03 -0.56692976D-03  0.14410016D-19
 -0.94027904D-05 -0.16297574D-04  0.68021964D-21 -0.92107359D-04  0.26969587D-03
 -0.17758851D-03  0.62641567D-03  0.19261984D-19  0.26723938D-19  0.65287392D-04
 -0.24016267D-03  0.17487528D-03 -0.52887324D-03 -0.12540421D-19 -0.12092104D-19
  0.10250738D-04 -0.87055974D-04  0.76805236D-04 -0.16850500D-03  0.51729936D-20
  0.58220716D-20 -0.19133909D-04  0.22358148D-04  0.16064857D-19  0.10903154D-03
  0.22354393D-04 -0.26511686D-19 -0.51629810D-04 -0.89428837D-04 -0.21682884D-19
 -0.14550115D-19  0.56048092D-04 -0.28107688D-04 -0.19550615D-20 -0.23301160D-03
 -0.28050394D-04  0.48398669D-20  0.64867323D-04  0.11237346D-03  0.10253176D-20
 -0.16331675D-20  0.18510307D-03  0.34500831D-03  0.58501977D-03  0.88545467D-03
  0.11047889D-02  0.94886633D-03  0.36428823D-03 -0.16294836D-05 -0.12537211D-03
 -0.23513849D-03 -0.40085958D-03 -0.62646550D-03 -0.83770375D-03 -0.89447230D-03
 -0.54686282D-03  0.36078688D-03  0.14335939D-04 -0.72389387D-03 -0.14904903D-03
 -0.43435868D-03 -0.42118181D-03 -0.28412676D-03 -0.32472601D-16 -0.31487500D-16
 -0.21241281D-16 -0.30740413D-20 -0.29807860D-20 -0.20108206D-20  0.36166158D-03
  0.28900660D-16  0.12188999D-20  0.65457133D-03 -0.75087228D-17  0.10901792D-19
  0.18819330D-04  0.59445098D-17  0.37503839D-22  0.45047872D-03 -0.27288521D-03
 -0.17759352D-03 -0.37903174D-16 -0.95930464D-20  0.17070792D-20 -0.39279148D-03
  0.21791948D-03  0.17487200D-03  0.14811993D-16 -0.89690224D-20 -0.23929625D-20
 -0.13568563D-03  0.58887020D-04  0.76798613D-04 -0.12382193D-16 -0.74345574D-20
  0.34004516D-21 -0.57858073D-04  0.19647230D-16  0.90694919D-20  0.70318099D-04
 -0.29627288D-16 -0.12939925D-19  0.10325612D-03 -0.29314402D-16 -0.14268550D-19
 -0.91175269D-20  0.10469973D-03 -0.35540197D-17 -0.27344235D-20 -0.18435315D-03
 -0.15376471D-17  0.68645386D-20 -0.12974604D-03  0.12199706D-16  0.13387319D-20
  0.38386775D-20
MO    2     MO 0.0        OCC NO =    2.0000000  ORB. ENERGY =  -19.417251
  0.36719286D-12  0.68701230D-12  0.11862674D-11  0.19184973D-11  0.28955819D-11
  0.39670368D-11  0.45844269D-11  0.38526381D-11  0.16922475D-11  0.19342109D-12
 -0.26068606D-14  0.16213944D-14  0.79756360D-16 -0.70621381D-12 -0.13208990D-11
 -0.22870652D-11 -0.37136593D-11 -0.57033129D-11 -0.81114202D-11 -0.10320479D-10
 -0.10695650D-10 -0.71374636D-11  0.70294916D-12  0.53693862D-11  0.27569601D-11
 -0.12093298D-13  0.42436555D-12  0.79302084D-12  0.13751262D-11  0.22299143D-11
  0.34371745D-11  0.48909116D-11  0.62980146D-11  0.66208000D-11  0.46413838D-11
 -0.53890619D-12 -0.43627881D-11 -0.41059764D-11  0.20023173D-11 -0.92330142D-12
  0.25132469D-11  0.29647540D-12 -0.58794134D-10 -0.76913948D-10 -0.84146554D-10
 -0.69313429D-10 -0.37060309D-10 -0.10240123D-10  0.83933689D-14 -0.23371778D-01
 -0.30574746D-01 -0.33449844D-01 -0.27553397D-01 -0.14732172D-01 -0.40706422D-02
  0.33365226D-05  0.82204547D-15  0.10753924D-14  0.11765169D-14  0.96912373D-15
  0.51816834D-15  0.14317494D-15 -0.11735407D-18  0.55587077D-10  0.73619870D-10
  0.81330180D-10  0.69659547D-10  0.38001919D-10  0.11680793D-10 -0.50854085D-11
  0.22114032D-01  0.29287961D-01  0.32355329D-01  0.27712438D-01  0.15118184D-01
  0.46469333D-02 -0.20231120D-02 -0.72373948D-15 -0.95852508D-15 -0.10589127D-14
 -0.90696197D-15 -0.49478208D-15 -0.15208304D-15  0.66211629D-16  0.44565893D-12
  0.16862589D-03 -0.20336076D-15 -0.41758068D-12 -0.13923180D-03 -0.80120869D-17
 -0.17478541D-13 -0.69110513D-05  0.10717206D-17 -0.51274026D-12  0.86137626D-12
 -0.34863600D-12  0.54356974D-03  0.18539891D-16 -0.74585371D-17 -0.14037612D-11
  0.21566725D-11 -0.75291130D-12  0.14303701D-02  0.11702805D-17  0.18409352D-15
  0.32282433D-13 -0.15128597D-13 -0.17153836D-13 -0.21846402D-04 -0.90356060D-19
 -0.20418734D-18  0.41271871D-13 -0.83114954D-04  0.18900252D-18 -0.95861402D-12
 -0.83025981D-04 -0.65485313D-18  0.83479841D-12  0.33237084D-03  0.87845578D-19
  0.94991002D-19  0.47231451D-13  0.19244429D-05 -0.25588756D-19 -0.12651926D-12
  0.19067156D-05  0.89398406D-19 -0.15175095D-13 -0.76800442D-05 -0.12632137D-19
 -0.48957492D-20 -0.35210760D+00 -0.65628327D+00 -0.11128390D+01 -0.16843336D+01
 -0.21015566D+01 -0.18049568D+01 -0.69295802D+00  0.30996438D-02 -0.80476305D-04
 -0.15093530D-03 -0.25731161D-03 -0.40212795D-03 -0.53772170D-03 -0.57416141D-03
 -0.35103103D-03  0.23158895D-03 -0.35285514D-01  0.70569005D-03  0.31600519D-03
 -0.25854406D-02 -0.25070077D-02 -0.16912126D-02  0.44841425D-02  0.43481099D-02
  0.29332092D-02 -0.46880582D-17 -0.45458395D-17 -0.30665965D-17  0.44481438D-03
 -0.74793493D-03  0.26412174D-18  0.37858643D-03 -0.75233743D-03 -0.10294299D-17
  0.22371304D-04 -0.25349563D-04 -0.17590869D-18  0.28136784D-03 -0.96237687D-03
  0.68100903D-03  0.22280363D-02 -0.15793209D-17  0.36674017D-17 -0.82140810D-04
  0.37910482D-03 -0.29696401D-03 -0.84382445D-03  0.17835875D-17 -0.16252906D-17
 -0.32082846D-04  0.10255609D-03 -0.70473242D-04 -0.18547976D-03 -0.43916285D-18
  0.86956200D-18  0.85047064D-04 -0.44344866D-04  0.26281095D-18 -0.29557832D-03
  0.97100026D-04 -0.69729390D-18  0.40437131D-04  0.35934573D-04 -0.91138951D-19
 -0.48495402D-17 -0.68466092D-04 -0.33973172D-04 -0.18855545D-18  0.31988732D-03
 -0.65397592D-04  0.52500357D-18 -0.11448905D-03  0.16731711D-03  0.40662771D-19
  0.74997793D-19  0.35210761D+00  0.65628327D+00  0.11128390D+01  0.16843336D+01
  0.21015566D+01  0.18049568D+01  0.69295803D+00 -0.30996438D-02  0.80476305D-04
  0.15093531D-03  0.25731161D-03  0.40212796D-03  0.53772170D-03  0.57416141D-03
  0.35103103D-03 -0.23158895D-03  0.35285514D-01 -0.70569006D-03 -0.31600520D-03
  0.25854406D-02  0.25070077D-02  0.16912126D-02  0.44841426D-02  0.43481099D-02
  0.29332093D-02 -0.17927421D-16 -0.17383568D-16 -0.11726852D-16 -0.44481438D-03
 -0.74793493D-03  0.37656458D-18 -0.37858643D-03 -0.75233743D-03  0.39200953D-18
 -0.22371304D-04 -0.25349563D-04 -0.30752777D-18 -0.28136784D-03  0.96237687D-03
 -0.68100903D-03  0.22280363D-02  0.85370089D-17 -0.68939772D-17  0.82140811D-04
 -0.37910482D-03  0.29696401D-03 -0.84382445D-03 -0.24270236D-17  0.80352157D-18
  0.32082846D-04 -0.10255609D-03  0.70473242D-04 -0.18547976D-03  0.78224100D-18
 -0.23049908D-18 -0.85047064D-04 -0.44344866D-04  0.26856145D-17  0.29557832D-03
  0.97100025D-04 -0.76624426D-17 -0.40437131D-04  0.35934573D-04 -0.39440096D-18
 -0.14204988D-16  0.68466092D-04 -0.33973172D-04 -0.23611858D-18 -0.31988732D-03
 -0.65397592D-04  0.28140559D-18  0.11448905D-03  0.16731711D-03  0.42695015D-18
  0.83114837D-18 -0.60574368D-09 -0.11290283D-08 -0.19144579D-08 -0.28976212D-08
 -0.36153852D-08 -0.31051337D-08 -0.11921212D-08  0.53324313D-11 -0.93452743D-13
 -0.17527294D-12 -0.29880193D-12 -0.46696926D-12 -0.62442687D-12 -0.66674232D-12
 -0.40763318D-12  0.26893161D-12 -0.60730687D-10  0.96586353D-12  0.47114372D-12
  0.90759039D-11  0.88005738D-11  0.59368151D-11  0.56224431D-05  0.54518785D-05
  0.36778051D-05  0.62379920D-17  0.60487539D-17  0.40804536D-17 -0.14533841D-11
  0.22469795D-04  0.17908123D-19 -0.16924736D-11 -0.96403663D-04  0.70389094D-18
 -0.69332142D-13  0.13400252D-04 -0.30539904D-19 -0.30465557D-11  0.17576124D-11
  0.12889433D-11  0.74566877D-04 -0.24519331D-17 -0.12649166D-17  0.11919133D-11
 -0.62235848D-12 -0.56955482D-12 -0.45043921D-04 -0.58282086D-18 -0.27479799D-18
  0.33449527D-12 -0.14777722D-12 -0.18671805D-12  0.47636052D-04 -0.34863884D-18
  0.96346611D-19  0.20851079D-12  0.44247773D-04  0.64073828D-18 -0.67389563D-12
 -0.23895518D-03 -0.19771271D-17  0.48363259D-13  0.10621186D-03  0.54912299D-19
 -0.67187100D-17 -0.29189976D-12 -0.79910239D-05 -0.19954797D-18  0.43449632D-12
  0.54980690D-04  0.51871432D-18  0.44120296D-12 -0.31007619D-04  0.79929593D-19
  0.85514534D-18
MO    3     MO 0.0        OCC NO =    2.0000000  ORB. ENERGY =  -19.417244
 -0.75141399D-04 -0.14058842D-03 -0.24275469D-03 -0.39259634D-03 -0.59254440D-03
 -0.81180416D-03 -0.93814527D-03 -0.78839392D-03 -0.34629715D-03 -0.39581193D-04
  0.53346122D-06 -0.33179797D-06 -0.16321136D-07  0.14473712D-03  0.27071562D-03
  0.46872947D-03  0.76110709D-03  0.11688826D-02  0.16624194D-02  0.21151617D-02
  0.21920522D-02  0.14628090D-02 -0.14406803D-03 -0.11004450D-02 -0.56503349D-03
  0.24784974D-05 -0.87153590D-04 -0.16286575D-03 -0.28241498D-03 -0.45796610D-03
 -0.70590579D-03 -0.10044654D-02 -0.12934476D-02 -0.13597392D-02 -0.95321890D-03
  0.11067724D-03  0.89600263D-03  0.84326022D-03 -0.41122363D-03  0.18164335D-03
 -0.46546849D-03 -0.54195975D-04  0.22347576D-01  0.29234895D-01  0.31983999D-01
  0.26345947D-01  0.14086577D-01  0.38922578D-02 -0.31903089D-05 -0.65891187D-10
 -0.86198247D-10 -0.94303903D-10 -0.77680268D-10 -0.41533867D-10 -0.11476210D-10
  0.94065342D-14  0.39804529D-15  0.52071921D-15  0.56968506D-15  0.46926254D-15
  0.25090397D-15  0.69327202D-16 -0.56824393D-19 -0.21144964D-01 -0.28004521D-01
 -0.30937473D-01 -0.26498040D-01 -0.14455684D-01 -0.44432981D-02  0.19344564D-02
  0.62294949D-10  0.82503818D-10  0.91144556D-10  0.78065590D-10  0.42587734D-10
  0.13090353D-10 -0.56990812D-11  0.16945058D-15  0.22442140D-15  0.24792536D-15
  0.21234882D-15  0.11584432D-15  0.35607506D-16 -0.15502261D-16 -0.16129174D-03
  0.50592068D-12 -0.20367409D-17  0.13321045D-03 -0.49889381D-12 -0.14765975D-18
  0.66082351D-05 -0.18564936D-13 -0.51017769D-20  0.22689470D-03 -0.29298341D-03
  0.66088705D-04  0.15706211D-11 -0.28159838D-18  0.94205611D-19  0.60581164D-03
 -0.76214195D-03  0.15633032D-03  0.39829330D-11  0.28114383D-18 -0.12219261D-18
 -0.11974885D-04  0.89081168D-05  0.30667687D-05 -0.45173860D-13 -0.26902004D-19
  0.52507709D-20  0.29667879D-04 -0.23231853D-12 -0.14863644D-18  0.22880759D-03
 -0.24040487D-12  0.17214617D-18 -0.31781123D-03  0.93736045D-12  0.27376315D-18
  0.16394437D-18 -0.10079449D-04  0.59082268D-14 -0.44684488D-20  0.22900858D-04
 -0.18316483D-14 -0.23124095D-19  0.73374876D-05 -0.15893032D-13  0.36529441D-19
 -0.42825710D-19 -0.27847349D+00 -0.51903875D+00 -0.88011774D+00 -0.13320992D+01
 -0.16620709D+01 -0.14274972D+01 -0.54804393D+00  0.24514341D-02 -0.72458433D-04
 -0.13589759D-03 -0.23167559D-03 -0.36206386D-03 -0.48414837D-03 -0.51695758D-03
 -0.31605773D-03  0.20851569D-03 -0.27899811D-01  0.60431941D-03  0.27318043D-03
 -0.20325426D-02 -0.19708827D-02 -0.13295458D-02  0.35115457D-02  0.34050181D-02
  0.22970051D-02 -0.61043656D-17 -0.59191812D-17 -0.39930447D-17  0.33165437D-03
 -0.61171615D-03 -0.58888632D-18  0.37486132D-03 -0.48961329D-03 -0.52775025D-18
  0.28483097D-05 -0.27126877D-04 -0.23221852D-20  0.25247108D-03 -0.76778141D-03
  0.51531033D-03  0.16431674D-02  0.49882324D-19  0.47789750D-17 -0.86506007D-04
  0.30927726D-03 -0.22277125D-03 -0.61079022D-03 -0.33249595D-18  0.29612258D-19
 -0.17644070D-05  0.44153540D-04 -0.42389133D-04 -0.15842287D-03 -0.67469894D-19
  0.29322611D-18  0.81959325D-04  0.69361487D-04 -0.18642199D-18 -0.16898669D-03
 -0.16515084D-03  0.63191107D-18 -0.76891284D-04 -0.42933623D-04 -0.72645101D-19
 -0.10919310D-17 -0.61244348D-04 -0.46810235D-04  0.51743925D-19  0.23205149D-03
  0.53593877D-05  0.40922963D-20 -0.48318445D-04  0.13507132D-03 -0.15932407D-18
  0.33869245D-18 -0.27847348D+00 -0.51903874D+00 -0.88011773D+00 -0.13320992D+01
 -0.16620708D+01 -0.14274972D+01 -0.54804393D+00  0.24514341D-02 -0.72458433D-04
 -0.13589759D-03 -0.23167559D-03 -0.36206386D-03 -0.48414836D-03 -0.51695758D-03
 -0.31605773D-03  0.20851569D-03 -0.27899811D-01  0.60431941D-03  0.27318043D-03
 -0.20325426D-02 -0.19708826D-02 -0.13295458D-02 -0.35115457D-02 -0.34050181D-02
 -0.22970051D-02  0.16373524D-16  0.15876810D-16  0.10710403D-16  0.33165437D-03
  0.61171615D-03 -0.11366435D-17  0.37486132D-03  0.48961329D-03 -0.20669130D-18
  0.28483096D-05  0.27126877D-04  0.38746846D-20  0.25247108D-03 -0.76778140D-03
  0.51531033D-03 -0.16431674D-02 -0.61769831D-18 -0.56376187D-18 -0.86506007D-04
  0.30927726D-03 -0.22277125D-03  0.61079022D-03 -0.23055549D-18 -0.50600266D-18
 -0.17644068D-05  0.44153539D-04 -0.42389133D-04  0.15842287D-03 -0.10697767D-18
 -0.10039544D-18  0.81959324D-04 -0.69361487D-04  0.10579001D-18 -0.16898669D-03
  0.16515084D-03 -0.63242556D-18 -0.76891284D-04  0.42933623D-04  0.31505552D-18
 -0.82447257D-18 -0.61244348D-04  0.46810235D-04  0.36552135D-19  0.23205149D-03
 -0.53593881D-05  0.37468251D-19 -0.48318445D-04 -0.13507132D-03 -0.14712465D-18
 -0.27202275D-18  0.30472720D+00  0.56797230D+00  0.96309282D+00  0.14576859D+01
  0.18187663D+01  0.15620777D+01  0.59971201D+00 -0.26825486D-02  0.60823867D-04
  0.11407667D-03  0.19447571D-03  0.30392769D-03  0.40640923D-03  0.43395030D-03
  0.26530871D-03 -0.17503457D-03  0.30543991D-01 -0.56463739D-03 -0.25031198D-03
 -0.45159560D-02 -0.43789582D-02 -0.29540194D-02  0.36069727D-13  0.34975502D-13
  0.23594267D-13  0.44537853D-17  0.43186736D-17  0.29133517D-17  0.74567713D-03
  0.44640491D-13 -0.56972314D-18  0.78119841D-03 -0.24946859D-12  0.93702775D-19
  0.29979550D-04  0.29013655D-13  0.50195073D-19  0.14522915D-02 -0.84003040D-03
 -0.61226113D-03  0.20952470D-12 -0.27317142D-19  0.25975731D-17 -0.56729815D-03
  0.29821656D-03  0.26908159D-03 -0.12451728D-12  0.10152843D-17 -0.20613297D-18
 -0.14584165D-03  0.71521669D-04  0.74319981D-04  0.12768560D-12 -0.98342858D-19
  0.11989956D-19 -0.90372675D-04  0.11558399D-12 -0.16900707D-18  0.28880981D-03
 -0.66473745D-12  0.40224217D-18 -0.17691787D-04  0.31798549D-12  0.10477905D-18
 -0.15995311D-18  0.13587837D-03 -0.20866269D-13  0.97478406D-19 -0.21404144D-03
  0.15593501D-12 -0.31108667D-18 -0.19359368D-03 -0.93336201D-13  0.18651447D-19
  0.66331916D-19
MO    4     MO 0.0        OCC NO =    2.0000000  ORB. ENERGY =  -19.417221
  0.24566203D-03  0.45962995D-03  0.79364518D-03  0.12835270D-02  0.19372232D-02
  0.26540557D-02  0.30671065D-02  0.25775199D-02  0.11321597D-02  0.12940398D-03
 -0.17440608D-05  0.10847570D-05  0.53359178D-07 -0.47318243D-03 -0.88503818D-03
 -0.15323958D-02 -0.24882525D-02 -0.38213745D-02 -0.54348717D-02 -0.69150013D-02
 -0.71663758D-02 -0.47822944D-02  0.47099502D-03  0.35976345D-02  0.18472381D-02
 -0.81028381D-05  0.28492197D-03  0.53243969D-03  0.92326929D-03  0.14971799D-02
  0.23077428D-02  0.32837919D-02  0.42285307D-02  0.44452510D-02  0.31162573D-02
 -0.36182535D-03 -0.29292062D-02 -0.27567810D-02  0.13443697D-02 -0.59419337D-03
  0.15223104D-02  0.17724000D-03  0.68360504D-02  0.89428585D-02  0.97838006D-02
  0.80591389D-02  0.43090377D-02  0.11906289D-02 -0.97590505D-06  0.15026394D-10
  0.19657391D-10  0.21505875D-10  0.17714878D-10  0.94717411D-11  0.26171340D-11
 -0.21451472D-14  0.91662868D-16  0.11991253D-15  0.13118850D-15  0.10806295D-15
  0.57778795D-16  0.15964842D-16 -0.13085664D-19 -0.64681371D-02 -0.85664410D-02
 -0.94636160D-02 -0.81056160D-02 -0.44219203D-02 -0.13591823D-02  0.59174040D-03
 -0.14180169D-10 -0.18780304D-10 -0.20747191D-10 -0.17770033D-10 -0.96942252D-11
 -0.29797506D-11  0.12972791D-11  0.10536931D-15  0.13955177D-15  0.15416722D-15
  0.13204469D-15  0.72035377D-16  0.22141786D-16 -0.96397584D-17 -0.49392534D-04
 -0.13163122D-12 -0.36847470D-17  0.40745654D-04  0.17136531D-12 -0.18547231D-19
  0.20212869D-05  0.37371591D-14 -0.31602437D-20  0.18757526D-03  0.28575752D-04
 -0.21615101D-03 -0.37892067D-12 -0.19677196D-19  0.91062236D-19  0.46470356D-03
  0.46417375D-04 -0.51112094D-03 -0.88169235D-12 -0.10708154D-18 -0.13686646D-19
  0.18236707D-05  0.82098852D-05 -0.10033556D-04  0.13961266D-14 -0.80812938D-20
 -0.62134668D-20  0.18713408D-03  0.51887677D-13 -0.86744159D-20 -0.46417564D-03
  0.58340661D-13  0.16634678D-18 -0.97226610D-04 -0.21400369D-12 -0.14032353D-18
 -0.23305090D-18  0.26413363D-04 -0.16362176D-14 -0.53821134D-20 -0.81486874D-04
  0.44023973D-14  0.67536873D-20  0.22467834D-05  0.50625551D-15  0.93926530D-20
 -0.10935625D-19  0.21542803D+00  0.40153012D+00  0.68086204D+00  0.10305164D+01
  0.12857836D+01  0.11043166D+01  0.42396863D+00 -0.18964377D-02  0.78039914D-04
  0.14636579D-03  0.24952159D-03  0.38995368D-03  0.52144237D-03  0.55677888D-03
  0.34040369D-03 -0.22457768D-03  0.21566772D-01 -0.58298173D-03 -0.26933753D-03
  0.15227662D-02  0.14765710D-02  0.99608605D-03 -0.26406507D-02 -0.25605429D-02
 -0.17273271D-02  0.54577070D-17  0.52921399D-17  0.35700463D-17 -0.28327306D-03
  0.47929858D-03  0.52138837D-18 -0.14852384D-03  0.30619010D-03 -0.12322770D-18
 -0.10958232D-04  0.12197172D-04  0.54144515D-20 -0.14264020D-03  0.48324099D-03
 -0.34060078D-03 -0.11214420D-02  0.43646964D-18 -0.21425914D-17  0.43676380D-04
 -0.18587705D-03  0.14220067D-03  0.42030285D-03 -0.10567985D-19 -0.55213040D-19
  0.23915452D-04 -0.23398995D-04 -0.51645677D-06  0.57793115D-04 -0.46613269D-20
  0.86905593D-19 -0.93274872D-05  0.17510821D-04  0.33972287D-18  0.59993492D-04
 -0.54252258D-04 -0.12834836D-17 -0.32011030D-04  0.17197948D-05  0.26431497D-18
  0.45203036D-18  0.38586115D-04  0.85558264D-05  0.87786335D-20 -0.15378853D-03