 Molden2AIM, Version 4.0.0 (06/02/2016)           Time: Thu Jun 28 03:01:32 2018
GAUSSIAN             52 MOL ORBITALS    789 PRIMITIVES        3 NUCLEI
  Se   1    (CENTRE  1)   0.00000000  0.00000000  1.30671727  CHARGE = 34.0
  Br   2    (CENTRE  2)   0.00000000  3.42606779 -1.42918664  CHARGE = 35.0
  Br   3    (CENTRE  3)   0.00000000 -3.42606779 -1.42918664  CHARGE = 35.0
CENTRE ASSIGNMENTS    1  1  1  1  1  1  1  1  1  1  1  1  1  1  1  1  1  1  1  1
CENTRE ASSIGNMENTS    1  1  1  1  1  1  1  1  1  1  1  1  1  1  1  1  1  1  1  1
CENTRE ASSIGNMENTS    1  1  1  1  1  1  1  1  1  1  1  1  1  1  1  1  1  1  1  1
CENTRE ASSIGNMENTS    1  1  1  1  1  1  1  1  1  1  1  1  1  1  1  1  1  1  1  1
CENTRE ASSIGNMENTS    1  1  1  1  1  1  1  1  1  1  1  1  1  1  1  1  1  1  1  1
CENTRE ASSIGNMENTS    1  1  1  1  1  1  1  1  1  1  1  1  1  1  1  1  1  1  1  1
CENTRE ASSIGNMENTS    1  1  1  1  1  1  1  1  1  1  1  1  1  1  1  1  1  1  1  1
CENTRE ASSIGNMENTS    1  1  1  1  1  1  1  1  1  1  1  1  1  1  1  1  1  1  1  1
CENTRE ASSIGNMENTS    1  1  1  1  1  1  1  1  1  1  1  1  1  1  1  1  1  1  1  1
CENTRE ASSIGNMENTS    1  1  1  1  1  1  1  1  1  1  1  1  1  1  1  1  1  1  1  1
CENTRE ASSIGNMENTS    1  1  1  1  1  1  1  1  1  1  1  1  1  1  1  1  1  1  1  1
CENTRE ASSIGNMENTS    1  1  1  1  1  1  1  1  1  1  1  1  1  1  1  1  1  1  1  1
CENTRE ASSIGNMENTS    1  1  1  1  1  1  1  1  1  1  1  1  1  1  1  1  1  1  1  1
CENTRE ASSIGNMENTS    1  1  1  2  2  2  2  2  2  2  2  2  2  2  2  2  2  2  2  2
CENTRE ASSIGNMENTS    2  2  2  2  2  2  2  2  2  2  2  2  2  2  2  2  2  2  2  2
CENTRE ASSIGNMENTS    2  2  2  2  2  2  2  2  2  2  2  2  2  2  2  2  2  2  2  2
CENTRE ASSIGNMENTS    2  2  2  2  2  2  2  2  2  2  2  2  2  2  2  2  2  2  2  2
CENTRE ASSIGNMENTS    2  2  2  2  2  2  2  2  2  2  2  2  2  2  2  2  2  2  2  2
CENTRE ASSIGNMENTS    2  2  2  2  2  2  2  2  2  2  2  2  2  2  2  2  2  2  2  2
CENTRE ASSIGNMENTS    2  2  2  2  2  2  2  2  2  2  2  2  2  2  2  2  2  2  2  2
CENTRE ASSIGNMENTS    2  2  2  2  2  2  2  2  2  2  2  2  2  2  2  2  2  2  2  2
CENTRE ASSIGNMENTS    2  2  2  2  2  2  2  2  2  2  2  2  2  2  2  2  2  2  2  2
CENTRE ASSIGNMENTS    2  2  2  2  2  2  2  2  2  2  2  2  2  2  2  2  2  2  2  2
CENTRE ASSIGNMENTS    2  2  2  2  2  2  2  2  2  2  2  2  2  2  2  2  2  2  2  2
CENTRE ASSIGNMENTS    2  2  2  2  2  2  2  2  2  2  2  2  2  2  2  2  2  2  2  2
CENTRE ASSIGNMENTS    2  2  2  2  2  2  2  2  2  2  2  2  2  2  2  2  2  2  2  2
CENTRE ASSIGNMENTS    2  2  2  2  2  2  3  3  3  3  3  3  3  3  3  3  3  3  3  3
CENTRE ASSIGNMENTS    3  3  3  3  3  3  3  3  3  3  3  3  3  3  3  3  3  3  3  3
CENTRE ASSIGNMENTS    3  3  3  3  3  3  3  3  3  3  3  3  3  3  3  3  3  3  3  3
CENTRE ASSIGNMENTS    3  3  3  3  3  3  3  3  3  3  3  3  3  3  3  3  3  3  3  3
CENTRE ASSIGNMENTS    3  3  3  3  3  3  3  3  3  3  3  3  3  3  3  3  3  3  3  3
CENTRE ASSIGNMENTS    3  3  3  3  3  3  3  3  3  3  3  3  3  3  3  3  3  3  3  3
CENTRE ASSIGNMENTS    3  3  3  3  3  3  3  3  3  3  3  3  3  3  3  3  3  3  3  3
CENTRE ASSIGNMENTS    3  3  3  3  3  3  3  3  3  3  3  3  3  3  3  3  3  3  3  3
CENTRE ASSIGNMENTS    3  3  3  3  3  3  3  3  3  3  3  3  3  3  3  3  3  3  3  3
CENTRE ASSIGNMENTS    3  3  3  3  3  3  3  3  3  3  3  3  3  3  3  3  3  3  3  3
CENTRE ASSIGNMENTS    3  3  3  3  3  3  3  3  3  3  3  3  3  3  3  3  3  3  3  3
CENTRE ASSIGNMENTS    3  3  3  3  3  3  3  3  3  3  3  3  3  3  3  3  3  3  3  3
CENTRE ASSIGNMENTS    3  3  3  3  3  3  3  3  3  3  3  3  3  3  3  3  3  3  3  3
CENTRE ASSIGNMENTS    3  3  3  3  3  3  3  3  3
TYPE ASSIGNMENTS      1  1  1  1  1  1  1  1  1  1  1  1  1  1  1  1  1  1  1  1
TYPE ASSIGNMENTS      1  1  1  1  1  1  1  1  1  1  1  1  1  1  1  1  1  1  1  1
TYPE ASSIGNMENTS      1  1  1  1  1  1  1  1  1  1  1  1  1  1  1  1  1  1  1  1
TYPE ASSIGNMENTS      1  1  1  1  1  1  1  1  1  1  1  1  1  1  1  2  2  2  2  2
TYPE ASSIGNMENTS      2  2  2  2  2  2  3  3  3  3  3  3  3  3  3  3  3  4  4  4
TYPE ASSIGNMENTS      4  4  4  4  4  4  4  4  2  2  2  2  2  2  2  2  2  2  2  3
TYPE ASSIGNMENTS      3  3  3  3  3  3  3  3  3  3  4  4  4  4  4  4  4  4  4  4
TYPE ASSIGNMENTS      4  2  2  2  2  2  2  2  2  2  2  2  3  3  3  3  3  3  3  3
TYPE ASSIGNMENTS      3  3  3  4  4  4  4  4  4  4  4  4  4  4  2  3  4  2  3  4
TYPE ASSIGNMENTS      2  3  4  5  5  5  5  5  5  5  6  6  6  6  6  6  6  7  7  7
TYPE ASSIGNMENTS      7  7  7  7  8  8  8  8  8  8  8  9  9  9  9  9  9  9 10 10
TYPE ASSIGNMENTS     10 10 10 10 10  5  6  7  8  9 10  5  6  7  8  9 10  5  6  7
TYPE ASSIGNMENTS      8  9 10 11 12 13 17 14 15 18 19 16 20 11 12 13 17 14 15 18
TYPE ASSIGNMENTS     19 16 20  1  1  1  1  1  1  1  1  1  1  1  1  1  1  1  1  1
TYPE ASSIGNMENTS      1  1  1  1  1  1  1  1  1  1  1  1  1  1  1  1  1  1  1  1
TYPE ASSIGNMENTS      1  1  1  1  1  1  1  1  1  1  1  1  1  1  1  1  1  1  1  1
TYPE ASSIGNMENTS      1  1  1  1  1  1  1  1  1  1  1  1  1  1  1  1  1  1  2  2
TYPE ASSIGNMENTS      2  2  2  2  2  2  2  2  2  3  3  3  3  3  3  3  3  3  3  3
TYPE ASSIGNMENTS      4  4  4  4  4  4  4  4  4  4  4  2  2  2  2  2  2  2  2  2
TYPE ASSIGNMENTS      2  2  3  3  3  3  3  3  3  3  3  3  3  4  4  4  4  4  4  4
TYPE ASSIGNMENTS      4  4  4  4  2  2  2  2  2  2  2  2  2  2  2  3  3  3  3  3
TYPE ASSIGNMENTS      3  3  3  3  3  3  4  4  4  4  4  4  4  4  4  4  4  2  3  4
TYPE ASSIGNMENTS      2  3  4  2  3  4  5  5  5  5  5  5  5  6  6  6  6  6  6  6
TYPE ASSIGNMENTS      7  7  7  7  7  7  7  8  8  8  8  8  8  8  9  9  9  9  9  9
TYPE ASSIGNMENTS      9 10 10 10 10 10 10 10  5  6  7  8  9 10  5  6  7  8  9 10
TYPE ASSIGNMENTS      5  6  7  8  9 10 11 12 13 17 14 15 18 19 16 20 11 12 13 17
TYPE ASSIGNMENTS     14 15 18 19 16 20  1  1  1  1  1  1  1  1  1  1  1  1  1  1
TYPE ASSIGNMENTS      1  1  1  1  1  1  1  1  1  1  1  1  1  1  1  1  1  1  1  1
TYPE ASSIGNMENTS      1  1  1  1  1  1  1  1  1  1  1  1  1  1  1  1  1  1  1  1
TYPE ASSIGNMENTS      1  1  1  1  1  1  1  1  1  1  1  1  1  1  1  1  1  1  1  1
TYPE ASSIGNMENTS      1  2  2  2  2  2  2  2  2  2  2  2  3  3  3  3  3  3  3  3
TYPE ASSIGNMENTS      3  3  3  4  4  4  4  4  4  4  4  4  4  4  2  2  2  2  2  2
TYPE ASSIGNMENTS      2  2  2  2  2  3  3  3  3  3  3  3  3  3  3  3  4  4  4  4
TYPE ASSIGNMENTS      4  4  4  4  4  4  4  2  2  2  2  2  2  2  2  2  2  2  3  3
TYPE ASSIGNMENTS      3  3  3  3  3  3  3  3  3  4  4  4  4  4  4  4  4  4  4  4
TYPE ASSIGNMENTS      2  3  4  2  3  4  2  3  4  5  5  5  5  5  5  5  6  6  6  6
TYPE ASSIGNMENTS      6  6  6  7  7  7  7  7  7  7  8  8  8  8  8  8  8  9  9  9
TYPE ASSIGNMENTS      9  9  9  9 10 10 10 10 10 10 10  5  6  7  8  9 10  5  6  7
TYPE ASSIGNMENTS      8  9 10  5  6  7  8  9 10 11 12 13 17 14 15 18 19 16 20 11
TYPE ASSIGNMENTS     12 13 17 14 15 18 19 16 20
EXPONENTS  0.9563600D+07 0.1432100D+07 0.3259100D+06 0.9231200D+05 0.3011600D+05
EXPONENTS  0.1087200D+05 0.4240100D+04 0.1758400D+04 0.7665900D+03 0.3484300D+03
EXPONENTS  0.1640300D+03 0.7914200D+02 0.3552400D+02 0.1730500D+02 0.8378400D+01
EXPONENTS  0.3740500D+01 0.1689000D+01 0.2552000D+00 0.9563600D+07 0.1432100D+07
EXPONENTS  0.3259100D+06 0.9231200D+05 0.3011600D+05 0.1087200D+05 0.4240100D+04
EXPONENTS  0.1758400D+04 0.7665900D+03 0.3484300D+03 0.1640300D+03 0.7914200D+02
EXPONENTS  0.3552400D+02 0.1730500D+02 0.8378400D+01 0.3740500D+01 0.1689000D+01
EXPONENTS  0.2552000D+00 0.9563600D+07 0.1432100D+07 0.3259100D+06 0.9231200D+05
EXPONENTS  0.3011600D+05 0.1087200D+05 0.4240100D+04 0.1758400D+04 0.7665900D+03
EXPONENTS  0.3484300D+03 0.1640300D+03 0.7914200D+02 0.3552400D+02 0.1730500D+02
EXPONENTS  0.8378400D+01 0.3740500D+01 0.1689000D+01 0.2552000D+00 0.9563600D+07
EXPONENTS  0.1432100D+07 0.3259100D+06 0.9231200D+05 0.3011600D+05 0.1087200D+05
EXPONENTS  0.4240100D+04 0.1758400D+04 0.7665900D+03 0.3484300D+03 0.1640300D+03
EXPONENTS  0.7914200D+02 0.3552400D+02 0.1730500D+02 0.8378400D+01 0.3740500D+01
EXPONENTS  0.1689000D+01 0.2552000D+00 0.5092700D+00 0.1065100D+00 0.3920100D-01
EXPONENTS  0.8004300D+04 0.1896900D+04 0.6147100D+03 0.2335000D+03 0.9785600D+02
EXPONENTS  0.4351400D+02 0.2006300D+02 0.9112700D+01 0.4106300D+01 0.1794900D+01
EXPONENTS  0.2461500D+00 0.8004300D+04 0.1896900D+04 0.6147100D+03 0.2335000D+03
EXPONENTS  0.9785600D+02 0.4351400D+02 0.2006300D+02 0.9112700D+01 0.4106300D+01
EXPONENTS  0.1794900D+01 0.2461500D+00 0.8004300D+04 0.1896900D+04 0.6147100D+03
EXPONENTS  0.2335000D+03 0.9785600D+02 0.4351400D+02 0.2006300D+02 0.9112700D+01
EXPONENTS  0.4106300D+01 0.1794900D+01 0.2461500D+00 0.8004300D+04 0.1896900D+04
EXPONENTS  0.6147100D+03 0.2335000D+03 0.9785600D+02 0.4351400D+02 0.2006300D+02
EXPONENTS  0.9112700D+01 0.4106300D+01 0.1794900D+01 0.2461500D+00 0.8004300D+04
EXPONENTS  0.1896900D+04 0.6147100D+03 0.2335000D+03 0.9785600D+02 0.4351400D+02
EXPONENTS  0.2006300D+02 0.9112700D+01 0.4106300D+01 0.1794900D+01 0.2461500D+00
EXPONENTS  0.8004300D+04 0.1896900D+04 0.6147100D+03 0.2335000D+03 0.9785600D+02
EXPONENTS  0.4351400D+02 0.2006300D+02 0.9112700D+01 0.4106300D+01 0.1794900D+01
EXPONENTS  0.2461500D+00 0.8004300D+04 0.1896900D+04 0.6147100D+03 0.2335000D+03
EXPONENTS  0.9785600D+02 0.4351400D+02 0.2006300D+02 0.9112700D+01 0.4106300D+01
EXPONENTS  0.1794900D+01 0.2461500D+00 0.8004300D+04 0.1896900D+04 0.6147100D+03
EXPONENTS  0.2335000D+03 0.9785600D+02 0.4351400D+02 0.2006300D+02 0.9112700D+01
EXPONENTS  0.4106300D+01 0.1794900D+01 0.2461500D+00 0.8004300D+04 0.1896900D+04
EXPONENTS  0.6147100D+03 0.2335000D+03 0.9785600D+02 0.4351400D+02 0.2006300D+02
EXPONENTS  0.9112700D+01 0.4106300D+01 0.1794900D+01 0.2461500D+00 0.6243200D+00
EXPONENTS  0.6243200D+00 0.6243200D+00 0.8891700D-01 0.8891700D-01 0.8891700D-01
EXPONENTS  0.3025100D-01 0.3025100D-01 0.3025100D-01 0.3618500D+03 0.1085500D+03
EXPONENTS  0.4143300D+02 0.1757900D+02 0.7862700D+01 0.3518000D+01 0.1534800D+01
EXPONENTS  0.3618500D+03 0.1085500D+03 0.4143300D+02 0.1757900D+02 0.7862700D+01
EXPONENTS  0.3518000D+01 0.1534800D+01 0.3618500D+03 0.1085500D+03 0.4143300D+02
EXPONENTS  0.1757900D+02 0.7862700D+01 0.3518000D+01 0.1534800D+01 0.3618500D+03
EXPONENTS  0.1085500D+03 0.4143300D+02 0.1757900D+02 0.7862700D+01 0.3518000D+01
EXPONENTS  0.1534800D+01 0.3618500D+03 0.1085500D+03 0.4143300D+02 0.1757900D+02
EXPONENTS  0.7862700D+01 0.3518000D+01 0.1534800D+01 0.3618500D+03 0.1085500D+03
EXPONENTS  0.4143300D+02 0.1757900D+02 0.7862700D+01 0.3518000D+01 0.1534800D+01
EXPONENTS  0.6081300D+00 0.6081300D+00 0.6081300D+00 0.6081300D+00 0.6081300D+00
EXPONENTS  0.6081300D+00 0.2220000D+00 0.2220000D+00 0.2220000D+00 0.2220000D+00
EXPONENTS  0.2220000D+00 0.2220000D+00 0.8370000D-01 0.8370000D-01 0.8370000D-01
EXPONENTS  0.8370000D-01 0.8370000D-01 0.8370000D-01 0.4620000D+00 0.4620000D+00
EXPONENTS  0.4620000D+00 0.4620000D+00 0.4620000D+00 0.4620000D+00 0.4620000D+00
EXPONENTS  0.4620000D+00 0.4620000D+00 0.4620000D+00 0.1880000D+00 0.1880000D+00
EXPONENTS  0.1880000D+00 0.1880000D+00 0.1880000D+00 0.1880000D+00 0.1880000D+00
EXPONENTS  0.1880000D+00 0.1880000D+00 0.1880000D+00 0.1063900D+08 0.1593400D+07
EXPONENTS  0.3626100D+06 0.1027000D+06 0.3350100D+05 0.1209300D+05 0.4715900D+04
EXPONENTS  0.1955600D+04 0.8526100D+03 0.3876700D+03 0.1826800D+03 0.8824500D+02
EXPONENTS  0.3926300D+02 0.1923400D+02 0.9405700D+01 0.4160100D+01 0.1899500D+01
EXPONENTS  0.3011400D+00 0.1063900D+08 0.1593400D+07 0.3626100D+06 0.1027000D+06
EXPONENTS  0.3350100D+05 0.1209300D+05 0.4715900D+04 0.1955600D+04 0.8526100D+03
EXPONENTS  0.3876700D+03 0.1826800D+03 0.8824500D+02 0.3926300D+02 0.1923400D+02
EXPONENTS  0.9405700D+01 0.4160100D+01 0.1899500D+01 0.3011400D+00 0.1063900D+08
EXPONENTS  0.1593400D+07 0.3626100D+06 0.1027000D+06 0.3350100D+05 0.1209300D+05
EXPONENTS  0.4715900D+04 0.1955600D+04 0.8526100D+03 0.3876700D+03 0.1826800D+03
EXPONENTS  0.8824500D+02 0.3926300D+02 0.1923400D+02 0.9405700D+01 0.4160100D+01
EXPONENTS  0.1899500D+01 0.3011400D+00 0.1063900D+08 0.1593400D+07 0.3626100D+06
EXPONENTS  0.1027000D+06 0.3350100D+05 0.1209300D+05 0.4715900D+04 0.1955600D+04
EXPONENTS  0.8526100D+03 0.3876700D+03 0.1826800D+03 0.8824500D+02 0.3926300D+02
EXPONENTS  0.1923400D+02 0.9405700D+01 0.4160100D+01 0.1899500D+01 0.3011400D+00
EXPONENTS  0.6047200D+00 0.1251500D+00 0.4559300D-01 0.8676500D+04 0.2055900D+04
EXPONENTS  0.6662300D+03 0.2531000D+03 0.1061200D+03 0.4724200D+02 0.2182500D+02
EXPONENTS  0.9968400D+01 0.4517100D+01 0.1998200D+01 0.2814500D+00 0.8676500D+04
EXPONENTS  0.2055900D+04 0.6662300D+03 0.2531000D+03 0.1061200D+03 0.4724200D+02
EXPONENTS  0.2182500D+02 0.9968400D+01 0.4517100D+01 0.1998200D+01 0.2814500D+00
EXPONENTS  0.8676500D+04 0.2055900D+04 0.6662300D+03 0.2531000D+03 0.1061200D+03
EXPONENTS  0.4724200D+02 0.2182500D+02 0.9968400D+01 0.4517100D+01 0.1998200D+01
EXPONENTS  0.2814500D+00 0.8676500D+04 0.2055900D+04 0.6662300D+03 0.2531000D+03
EXPONENTS  0.1061200D+03 0.4724200D+02 0.2182500D+02 0.9968400D+01 0.4517100D+01
EXPONENTS  0.1998200D+01 0.2814500D+00 0.8676500D+04 0.2055900D+04 0.6662300D+03
EXPONENTS  0.2531000D+03 0.1061200D+03 0.4724200D+02 0.2182500D+02 0.9968400D+01
EXPONENTS  0.4517100D+01 0.1998200D+01 0.2814500D+00 0.8676500D+04 0.2055900D+04
EXPONENTS  0.6662300D+03 0.2531000D+03 0.1061200D+03 0.4724200D+02 0.2182500D+02
EXPONENTS  0.9968400D+01 0.4517100D+01 0.1998200D+01 0.2814500D+00 0.8676500D+04
EXPONENTS  0.2055900D+04 0.6662300D+03 0.2531000D+03 0.1061200D+03 0.4724200D+02
EXPONENTS  0.2182500D+02 0.9968400D+01 0.4517100D+01 0.1998200D+01 0.2814500D+00
EXPONENTS  0.8676500D+04 0.2055900D+04 0.6662300D+03 0.2531000D+03 0.1061200D+03
EXPONENTS  0.4724200D+02 0.2182500D+02 0.9968400D+01 0.4517100D+01 0.1998200D+01
EXPONENTS  0.2814500D+00 0.8676500D+04 0.2055900D+04 0.6662300D+03 0.2531000D+03
EXPONENTS  0.1061200D+03 0.4724200D+02 0.2182500D+02 0.9968400D+01 0.4517100D+01
EXPONENTS  0.1998200D+01 0.2814500D+00 0.7098800D+00 0.7098800D+00 0.7098800D+00
EXPONENTS  0.1020400D+00 0.1020400D+00 0.1020400D+00 0.3514200D-01 0.3514200D-01
EXPONENTS  0.3514200D-01 0.4038300D+03 0.1211700D+03 0.4634500D+02 0.1972100D+02
EXPONENTS  0.8862400D+01 0.3996200D+01 0.1763600D+01 0.4038300D+03 0.1211700D+03
EXPONENTS  0.4634500D+02 0.1972100D+02 0.8862400D+01 0.3996200D+01 0.1763600D+01
EXPONENTS  0.4038300D+03 0.1211700D+03 0.4634500D+02 0.1972100D+02 0.8862400D+01
EXPONENTS  0.3996200D+01 0.1763600D+01 0.4038300D+03 0.1211700D+03 0.4634500D+02
EXPONENTS  0.1972100D+02 0.8862400D+01 0.3996200D+01 0.1763600D+01 0.4038300D+03
EXPONENTS  0.1211700D+03 0.4634500D+02 0.1972100D+02 0.8862400D+01 0.3996200D+01
EXPONENTS  0.1763600D+01 0.4038300D+03 0.1211700D+03 0.4634500D+02 0.1972100D+02
EXPONENTS  0.8862400D+01 0.3996200D+01 0.1763600D+01 0.7061900D+00 0.7061900D+00
EXPONENTS  0.7061900D+00 0.7061900D+00 0.7061900D+00 0.7061900D+00 0.2639000D+00
EXPONENTS  0.2639000D+00 0.2639000D+00 0.2639000D+00 0.2639000D+00 0.2639000D+00
EXPONENTS  0.1047000D+00 0.1047000D+00 0.1047000D+00 0.1047000D+00 0.1047000D+00
EXPONENTS  0.1047000D+00 0.5515000D+00 0.5515000D+00 0.5515000D+00 0.5515000D+00
EXPONENTS  0.5515000D+00 0.5515000D+00 0.5515000D+00 0.5515000D+00 0.5515000D+00
EXPONENTS  0.5515000D+00 0.2580000D+00 0.2580000D+00 0.2580000D+00 0.2580000D+00
EXPONENTS  0.2580000D+00 0.2580000D+00 0.2580000D+00 0.2580000D+00 0.2580000D+00
EXPONENTS  0.2580000D+00 0.1063900D+08 0.1593400D+07 0.3626100D+06 0.1027000D+06
EXPONENTS  0.3350100D+05 0.1209300D+05 0.4715900D+04 0.1955600D+04 0.8526100D+03
EXPONENTS  0.3876700D+03 0.1826800D+03 0.8824500D+02 0.3926300D+02 0.1923400D+02
EXPONENTS  0.9405700D+01 0.4160100D+01 0.1899500D+01 0.3011400D+00 0.1063900D+08
EXPONENTS  0.1593400D+07 0.3626100D+06 0.1027000D+06 0.3350100D+05 0.1209300D+05
EXPONENTS  0.4715900D+04 0.1955600D+04 0.8526100D+03 0.3876700D+03 0.1826800D+03
EXPONENTS  0.8824500D+02 0.3926300D+02 0.1923400D+02 0.9405700D+01 0.4160100D+01
EXPONENTS  0.1899500D+01 0.3011400D+00 0.1063900D+08 0.1593400D+07 0.3626100D+06
EXPONENTS  0.1027000D+06 0.3350100D+05 0.1209300D+05 0.4715900D+04 0.1955600D+04
EXPONENTS  0.8526100D+03 0.3876700D+03 0.1826800D+03 0.8824500D+02 0.3926300D+02
EXPONENTS  0.1923400D+02 0.9405700D+01 0.4160100D+01 0.1899500D+01 0.3011400D+00
EXPONENTS  0.1063900D+08 0.1593400D+07 0.3626100D+06 0.1027000D+06 0.3350100D+05
EXPONENTS  0.1209300D+05 0.4715900D+04 0.1955600D+04 0.8526100D+03 0.3876700D+03
EXPONENTS  0.1826800D+03 0.8824500D+02 0.3926300D+02 0.1923400D+02 0.9405700D+01
EXPONENTS  0.4160100D+01 0.1899500D+01 0.3011400D+00 0.6047200D+00 0.1251500D+00
EXPONENTS  0.4559300D-01 0.8676500D+04 0.2055900D+04 0.6662300D+03 0.2531000D+03
EXPONENTS  0.1061200D+03 0.4724200D+02 0.2182500D+02 0.9968400D+01 0.4517100D+01
EXPONENTS  0.1998200D+01 0.2814500D+00 0.8676500D+04 0.2055900D+04 0.6662300D+03
EXPONENTS  0.2531000D+03 0.1061200D+03 0.4724200D+02 0.2182500D+02 0.9968400D+01
EXPONENTS  0.4517100D+01 0.1998200D+01 0.2814500D+00 0.8676500D+04 0.2055900D+04
EXPONENTS  0.6662300D+03 0.2531000D+03 0.1061200D+03 0.4724200D+02 0.2182500D+02
EXPONENTS  0.9968400D+01 0.4517100D+01 0.1998200D+01 0.2814500D+00 0.8676500D+04
EXPONENTS  0.2055900D+04 0.6662300D+03 0.2531000D+03 0.1061200D+03 0.4724200D+02
EXPONENTS  0.2182500D+02 0.9968400D+01 0.4517100D+01 0.1998200D+01 0.2814500D+00
EXPONENTS  0.8676500D+04 0.2055900D+04 0.6662300D+03 0.2531000D+03 0.1061200D+03
EXPONENTS  0.4724200D+02 0.2182500D+02 0.9968400D+01 0.4517100D+01 0.1998200D+01
EXPONENTS  0.2814500D+00 0.8676500D+04 0.2055900D+04 0.6662300D+03 0.2531000D+03
EXPONENTS  0.1061200D+03 0.4724200D+02 0.2182500D+02 0.9968400D+01 0.4517100D+01
EXPONENTS  0.1998200D+01 0.2814500D+00 0.8676500D+04 0.2055900D+04 0.6662300D+03
EXPONENTS  0.2531000D+03 0.1061200D+03 0.4724200D+02 0.2182500D+02 0.9968400D+01
EXPONENTS  0.4517100D+01 0.1998200D+01 0.2814500D+00 0.8676500D+04 0.2055900D+04
EXPONENTS  0.6662300D+03 0.2531000D+03 0.1061200D+03 0.4724200D+02 0.2182500D+02
EXPONENTS  0.9968400D+01 0.4517100D+01 0.1998200D+01 0.2814500D+00 0.8676500D+04
EXPONENTS  0.2055900D+04 0.6662300D+03 0.2531000D+03 0.1061200D+03 0.4724200D+02
EXPONENTS  0.2182500D+02 0.9968400D+01 0.4517100D+01 0.1998200D+01 0.2814500D+00
EXPONENTS  0.7098800D+00 0.7098800D+00 0.7098800D+00 0.1020400D+00 0.1020400D+00
EXPONENTS  0.1020400D+00 0.3514200D-01 0.3514200D-01 0.3514200D-01 0.4038300D+03
EXPONENTS  0.1211700D+03 0.4634500D+02 0.1972100D+02 0.8862400D+01 0.3996200D+01
EXPONENTS  0.1763600D+01 0.4038300D+03 0.1211700D+03 0.4634500D+02 0.1972100D+02
EXPONENTS  0.8862400D+01 0.3996200D+01 0.1763600D+01 0.4038300D+03 0.1211700D+03
EXPONENTS  0.4634500D+02 0.1972100D+02 0.8862400D+01 0.3996200D+01 0.1763600D+01
EXPONENTS  0.4038300D+03 0.1211700D+03 0.4634500D+02 0.1972100D+02 0.8862400D+01
EXPONENTS  0.3996200D+01 0.1763600D+01 0.4038300D+03 0.1211700D+03 0.4634500D+02
EXPONENTS  0.1972100D+02 0.8862400D+01 0.3996200D+01 0.1763600D+01 0.4038300D+03
EXPONENTS  0.1211700D+03 0.4634500D+02 0.1972100D+02 0.8862400D+01 0.3996200D+01
EXPONENTS  0.1763600D+01 0.7061900D+00 0.7061900D+00 0.7061900D+00 0.7061900D+00
EXPONENTS  0.7061900D+00 0.7061900D+00 0.2639000D+00 0.2639000D+00 0.2639000D+00
EXPONENTS  0.2639000D+00 0.2639000D+00 0.2639000D+00 0.1047000D+00 0.1047000D+00
EXPONENTS  0.1047000D+00 0.1047000D+00 0.1047000D+00 0.1047000D+00 0.5515000D+00
EXPONENTS  0.5515000D+00 0.5515000D+00 0.5515000D+00 0.5515000D+00 0.5515000D+00
EXPONENTS  0.5515000D+00 0.5515000D+00 0.5515000D+00 0.5515000D+00 0.2580000D+00
EXPONENTS  0.2580000D+00 0.2580000D+00 0.2580000D+00 0.2580000D+00 0.2580000D+00
EXPONENTS  0.2580000D+00 0.2580000D+00 0.2580000D+00 0.2580000D+00
MO    1     MO 0.0        OCC NO =    2.0000000  ORB. ENERGY = -485.406800
  0.18203966D-09  0.34013262D-09  0.58991742D-09  0.96643545D-09  0.15133612D-08
  0.22726649D-08  0.32414709D-08  0.42826397D-08  0.49389363D-08  0.44452011D-08
  0.24938683D-08  0.60290601D-09  0.28622989D-10 -0.48982537D-12  0.13776677D-12
 -0.53687490D-13  0.50782236D-14  0.50072354D-15 -0.38727962D-09 -0.71318144D-09
 -0.12379038D-08 -0.20274546D-08 -0.31911202D-08 -0.48165734D-08 -0.70211610D-08
 -0.96415290D-08 -0.12244619D-07 -0.13186678D-07 -0.10520084D-07 -0.23564149D-08
  0.63010004D-08  0.56033185D-08  0.10943508D-08  0.30315769D-10  0.21953649D-11
  0.44835358D-13  0.56364473D-09  0.10176084D-08  0.17714624D-08  0.29008445D-08
  0.45733465D-08  0.69010540D-08  0.10100206D-07  0.13916757D-07  0.17928512D-07
  0.19733654D-07  0.16612536D-07  0.39560394D-08 -0.13325462D-07 -0.17805610D-07
 -0.21874556D-08  0.76432671D-08  0.33740052D-08 -0.16744581D-10 -0.24863286D-09
 -0.53866032D-09 -0.91699863D-09 -0.14968657D-08 -0.23598731D-08 -0.35611811D-08
 -0.52120907D-08 -0.71897524D-08 -0.92740290D-08 -0.10252587D-07 -0.86831814D-08
 -0.21092025D-08  0.73176899D-08  0.10328080D-07  0.12322822D-08 -0.57914428D-08
 -0.46294206D-08  0.17538435D-08  0.36711426D-10 -0.39676250D-08 -0.94101058D-09
  0.49460451D-14  0.70888296D-14  0.93610715D-14  0.10760080D-13  0.98986007D-14
  0.63324061D-14  0.21918914D-14  0.24642100D-15  0.31350758D-17  0.54325445D-18
  0.55514693D-20 -0.28006538D-03 -0.40139864D-03 -0.53006231D-03 -0.60927990D-03
 -0.56049942D-03 -0.35856684D-03 -0.12411389D-03 -0.13953369D-04 -0.17752086D-06
 -0.30761298D-07 -0.31434699D-09  0.74309394D-08  0.10650260D-07  0.14064076D-07
  0.16165947D-07  0.14871660D-07  0.95138086D-08  0.32930982D-08  0.37022298D-09
  0.47101387D-11  0.81618564D-12  0.83405290D-14 -0.87305407D-15 -0.12593117D-14
 -0.16772403D-14 -0.19849522D-14 -0.19074645D-14 -0.13111032D-14 -0.41279397D-15
  0.19949960D-15  0.20473488D-15  0.51559840D-16 -0.56214769D-19  0.11842935D-02
  0.17082501D-02  0.22751681D-02  0.26925778D-02  0.25874661D-02  0.17785050D-02
  0.55995298D-03 -0.27062022D-03 -0.27772185D-03 -0.69940669D-04  0.76255057D-07
 -0.31138942D-07 -0.44915470D-07 -0.59821594D-07 -0.70796657D-07 -0.68032928D-07
 -0.46762700D-07 -0.14722991D-07  0.71154887D-08  0.73022137D-08  0.18389684D-08
 -0.20049943D-11  0.91762985D-15  0.13302761D-14  0.17656088D-14  0.21070851D-14
  0.20244086D-14  0.14169781D-14  0.42784395D-15 -0.26190432D-15 -0.28167342D-15
 -0.75751197D-16  0.28237575D-16 -0.87210998D-03 -0.12642865D-02 -0.16780241D-02
 -0.20025612D-02 -0.19239860D-02 -0.13466876D-02 -0.40662036D-03  0.24891232D-03
  0.26770076D-03  0.71993489D-04 -0.26836824D-04  0.22556953D-07  0.32700522D-07
  0.43401764D-07  0.51795853D-07  0.49763519D-07  0.34831810D-07  0.10517156D-07
 -0.64380682D-08 -0.69240274D-08 -0.18620974D-08  0.69412919D-09  0.61104371D-19
  0.18164217D-04 -0.53764523D-09  0.78975291D-20 -0.65209318D-04  0.10787777D-08
  0.20321877D-20 -0.18864645D-05  0.38644296D-10  0.12552560D-08  0.12993099D-08
  0.10870900D-08  0.70148177D-09  0.31511520D-09  0.92008539D-10  0.15522404D-10
 -0.71167358D-09 -0.73665016D-09 -0.61633106D-09 -0.39770855D-09 -0.17865612D-09
 -0.52164694D-10 -0.88005037D-11 -0.54358243D-09 -0.56265975D-09 -0.47075898D-09
 -0.30377322D-09 -0.13645908D-09 -0.39843844D-10 -0.67219007D-11  0.39515912D-17
  0.40902745D-17  0.34221987D-17  0.22082899D-17  0.99199402D-18  0.28964620D-18
  0.48865089D-19 -0.85977160D-18 -0.88994577D-18 -0.74458847D-18 -0.48047100D-18
 -0.21583414D-18 -0.63020076D-19 -0.10631873D-19  0.18251727D-03  0.18892282D-03
  0.15806553D-03  0.10199715D-03  0.45818515D-04  0.13378265D-04  0.22569953D-05
 -0.89440930D-10  0.52068015D-10  0.37372915D-10 -0.20314820D-21  0.19635124D-19
 -0.12109749D-04  0.24830876D-09 -0.19722457D-09 -0.51084197D-10  0.46570330D-20
  0.79699331D-20  0.29592657D-04  0.71944116D-10 -0.31111674D-10 -0.40832442D-10
  0.43486205D-20 -0.18679051D-20  0.11479884D-04 -0.90752809D-21  0.15579389D-05
 -0.52629196D-10  0.29511536D-20 -0.23060075D-05 -0.10688294D-10 -0.22856930D-21
 -0.23678090D-05  0.16857588D-09  0.10419751D-19 -0.63939585D-22 -0.74292785D-06
  0.43407353D-11  0.10065006D-20  0.32091030D-05 -0.46912240D-10 -0.81468181D-21
 -0.98031950D-06  0.33890035D-10 -0.68458172D-20  0.55387596D+00  0.10419081D+01
  0.18035944D+01  0.29564363D+01  0.46313147D+01  0.69612604D+01  0.99493897D+01
  0.13208062D+02  0.15382582D+02  0.14128753D+02  0.82616376D+01  0.21678950D+01
  0.11851798D+00 -0.42419894D-02  0.11855022D-02 -0.35201560D-03  0.60012565D-04
  0.48961998D-05  0.34039122D-04  0.62540414D-04  0.10814679D-03  0.17710548D-03
  0.27884462D-03  0.42108270D-03  0.61465216D-03  0.84641335D-03  0.10814897D-02
  0.11789505D-02  0.97045776D-03  0.26609293D-03 -0.53672669D-03 -0.52306360D-03
 -0.11446105D-03 -0.38560875D-05 -0.13063192D-06  0.33231076D-09 -0.83222031D-04
 -0.16314852D-03 -0.28575058D-03 -0.46682347D-03 -0.73629305D-03 -0.11110333D-02
 -0.16289956D-02 -0.22490979D-02 -0.29159666D-02 -0.32427265D-02 -0.28165076D-02
 -0.81814508D-03  0.20625338D-02  0.30052571D-02  0.51736575D-03 -0.12621509D-02
 -0.60075202D-03  0.29012149D-05  0.29184945D-04  0.63236727D-04  0.10765050D-03
  0.17571461D-03  0.27699683D-03  0.41806822D-03  0.61295615D-03  0.84736836D-03
  0.10997991D-02  0.12286679D-02  0.10732693D-02  0.31790340D-03 -0.82636623D-03
 -0.12712306D-02 -0.22250417D-03  0.70187710D-03  0.59578752D-03 -0.22228300D-03
  0.19903317D-03  0.13869705D-03  0.29730178D-04  0.44607130D-16  0.64003333D-16
  0.84743816D-16  0.97855097D-16  0.90716176D-16  0.58731306D-16  0.20729994D-16
  0.24297341D-17  0.35323837D-19  0.51727827D-20  0.53184239D-22 -0.27824744D-05
 -0.39923582D-05 -0.52860945D-05 -0.61039414D-05 -0.56586345D-05 -0.36635031D-05
 -0.12930821D-05 -0.15156037D-06 -0.22034072D-08 -0.32266446D-09 -0.33174918D-11
  0.55885742D-04  0.80186145D-04  0.10617072D-03  0.12259710D-03  0.11365315D-03
  0.73581122D-04  0.25971434D-04  0.30440760D-05  0.44255231D-07  0.64806859D-08
  0.66631516D-10  0.69046155D-17  0.99668919D-17  0.13315529D-16  0.15819257D-16
  0.15330073D-16  0.10656356D-16  0.34674761D-17 -0.15606394D-17 -0.16860112D-17
 -0.43405843D-18  0.42338392D-21 -0.47403285D-03 -0.68427186D-03 -0.91417085D-03
 -0.10860630D-02 -0.10524783D-02 -0.73160668D-03 -0.23805780D-03  0.10714490D-03
  0.11575224D-03  0.29800060D-04 -0.29067206D-07  0.16650709D-03  0.24035490D-03
  0.32110840D-03  0.38148663D-03  0.36968979D-03  0.25698156D-03  0.83619335D-04
 -0.37635336D-04 -0.40658720D-04 -0.10467463D-04  0.10210044D-07 -0.14062478D-17
 -0.20433405D-17 -0.27166448D-17 -0.32597857D-17 -0.31538571D-17 -0.22388713D-17
 -0.69584684D-18  0.39951136D-18  0.45894986D-18  0.12187817D-18 -0.43974024D-19
  0.33545431D-03  0.48743000D-03  0.64804383D-03  0.77760774D-03  0.75233893D-03
  0.53407304D-03  0.16599124D-03 -0.95301701D-04 -0.10948050D-03 -0.29073509D-04
  0.10489813D-04 -0.12234292D-03 -0.17776969D-03 -0.23634687D-03 -0.28359988D-03
 -0.27438414D-03 -0.19478079D-03 -0.60538360D-04  0.34757307D-04  0.39928430D-04
  0.10603346D-04 -0.38257201D-05  0.13602727D-18 -0.34541056D-05 -0.23799751D-05
 -0.24445120D-20 -0.39897125D-04  0.32640610D-04 -0.21732731D-20 -0.11947055D-05
  0.10029024D-05 -0.15313319D-03 -0.16023738D-03 -0.13653083D-03 -0.89915872D-04
 -0.41439548D-04 -0.12409140D-04 -0.21113099D-05  0.10982740D-03  0.11492254D-03
  0.97920159D-04  0.64487828D-04  0.29720520D-04  0.88998577D-05  0.15142353D-05
  0.43305786D-04  0.45314839D-04  0.38610668D-04  0.25428044D-04  0.11719029D-04
  0.35092820D-05  0.59707459D-06 -0.19974056D-17 -0.20900697D-17 -0.17808513D-17
 -0.11728252D-17 -0.54052022D-18 -0.16185965D-18 -0.27539048D-19 -0.13949112D-17
 -0.14596243D-17 -0.12436780D-17 -0.81905598D-18 -0.37747851D-18 -0.11303655D-18
 -0.19232211D-19 -0.31971832D-03 -0.33455077D-03 -0.28505517D-03 -0.18773038D-03
 -0.86519342D-04 -0.25908357D-04 -0.44080873D-05  0.94266390D-05 -0.64496769D-05
 -0.29769621D-05  0.35364252D-19 -0.36025284D-19  0.21239442D-04 -0.54333903D-05
  0.33347809D-05  0.20986094D-05 -0.44950994D-20  0.14495146D-19 -0.14218346D-04
 -0.29368489D-05  0.23601279D-05  0.57672102D-06  0.40241730D-20 -0.66507306D-20
 -0.88294939D-05  0.54105392D-20  0.14013039D-05  0.12295445D-05 -0.50900122D-20
 -0.10192987D-04  0.41713115D-05 -0.11141605D-19  0.59890749D-05 -0.78599449D-05
 -0.17185051D-19 -0.10959930D-20 -0.46089722D-06 -0.10523246D-05  0.33516807D-20
  0.61349076D-05 -0.36376796D-05 -0.63701857D-22 -0.47522160D-05  0.67946535D-05
  0.42566580D-20 -0.55384546D+00 -0.10418508D+01 -0.18034951D+01 -0.29562735D+01
 -0.46310597D+01 -0.69608770D+01 -0.99488418D+01 -0.13207335D+02 -0.15381735D+02
 -0.14127975D+02 -0.82611827D+01 -0.21677757D+01 -0.11851145D+00  0.42417558D-02
 -0.11854369D-02  0.35199621D-03 -0.60009260D-04 -0.48959302D-05 -0.34037604D-04
 -0.62537625D-04 -0.10814197D-03 -0.17709758D-03 -0.27883219D-03 -0.42106392D-03
 -0.61462474D-03 -0.84637560D-03 -0.10814414D-02 -0.11788979D-02 -0.97041448D-03
 -0.26608106D-03  0.53670275D-03  0.52304027D-03  0.11445595D-03  0.38559155D-05
  0.13062610D-06 -0.33229594D-09  0.83217902D-04  0.16314042D-03  0.28573641D-03
  0.46680031D-03  0.73625652D-03  0.11109782D-02  0.16289148D-02  0.22489863D-02
  0.29158219D-02  0.32425656D-02  0.28163678D-02  0.81810448D-03 -0.20624315D-02
 -0.30051080D-02 -0.51734008D-03  0.12620883D-02  0.60072221D-03 -0.29010710D-05
 -0.29183546D-04 -0.63233696D-04 -0.10764534D-03 -0.17570618D-03 -0.27698356D-03
 -0.41804819D-03 -0.61292678D-03 -0.84732775D-03 -0.10997464D-02 -0.12286091D-02
 -0.10732178D-02 -0.31788817D-03  0.82632662D-03  0.12711697D-02  0.22249351D-03
 -0.70184347D-03 -0.59575896D-03  0.22227234D-03 -0.19902294D-03 -0.13869115D-03
 -0.29728930D-04  0.27979881D-16  0.40146175D-16  0.53155671D-16  0.61379739D-16
  0.56901842D-16  0.36839290D-16  0.13002916D-16  0.15240539D-17  0.22156923D-19
  0.32446348D-20  0.33359884D-22 -0.27767263D-05 -0.39841106D-05 -0.52751743D-05
 -0.60913317D-05 -0.56469447D-05 -0.36559349D-05 -0.12904108D-05 -0.15124727D-06
 -0.21988554D-08 -0.32199789D-09 -0.33106384D-11 -0.55882232D-04 -0.80181108D-04
 -0.10616405D-03 -0.12258940D-03 -0.11364601D-03 -0.73576500D-04 -0.25969803D-04
 -0.30438848D-05 -0.44252451D-07 -0.64802789D-08 -0.66627330D-10  0.52732370D-17