 Molden2AIM, Version 4.0.0 (06/02/2016)           Time: Thu Jun 28 01:42:42 2018
GAUSSIAN             26 MOL ORBITALS    431 PRIMITIVES        5 NUCLEI
  S    1    (CENTRE  1)   0.00000000  0.00000000  0.78486373  CHARGE = 16.0
  F    2    (CENTRE  2)   2.34123272  0.00000000 -1.12729722  CHARGE =  9.0
  F    3    (CENTRE  3)  -2.34123272  0.00000000 -1.12729722  CHARGE =  9.0
  F    4    (CENTRE  4)   0.00000000 -3.18646753  0.56143574  CHARGE =  9.0
  F    5    (CENTRE  5)   0.00000000  3.18646753  0.56143574  CHARGE =  9.0
CENTRE ASSIGNMENTS    1  1  1  1  1  1  1  1  1  1  1  1  1  1  1  1  1  1  1  1
CENTRE ASSIGNMENTS    1  1  1  1  1  1  1  1  1  1  1  1  1  1  1  1  1  1  1  1
CENTRE ASSIGNMENTS    1  1  1  1  1  1  1  1  1  1  1  1  1  1  1  1  1  1  1  1
CENTRE ASSIGNMENTS    1  1  1  1  1  1  1  1  1  1  1  1  1  1  1  1  1  1  1  1
CENTRE ASSIGNMENTS    1  1  1  1  1  1  1  1  1  1  1  1  1  1  1  1  1  1  1  1
CENTRE ASSIGNMENTS    1  1  1  1  1  1  1  1  1  1  1  1  1  1  1  1  1  1  1  1
CENTRE ASSIGNMENTS    1  1  1  1  1  1  1  1  1  1  1  2  2  2  2  2  2  2  2  2
CENTRE ASSIGNMENTS    2  2  2  2  2  2  2  2  2  2  2  2  2  2  2  2  2  2  2  2
CENTRE ASSIGNMENTS    2  2  2  2  2  2  2  2  2  2  2  2  2  2  2  2  2  2  2  2
CENTRE ASSIGNMENTS    2  2  2  2  2  2  2  2  2  2  2  2  2  2  2  2  2  2  2  2
CENTRE ASSIGNMENTS    2  2  2  2  2  2  3  3  3  3  3  3  3  3  3  3  3  3  3  3
CENTRE ASSIGNMENTS    3  3  3  3  3  3  3  3  3  3  3  3  3  3  3  3  3  3  3  3
CENTRE ASSIGNMENTS    3  3  3  3  3  3  3  3  3  3  3  3  3  3  3  3  3  3  3  3
CENTRE ASSIGNMENTS    3  3  3  3  3  3  3  3  3  3  3  3  3  3  3  3  3  3  3  3
CENTRE ASSIGNMENTS    3  4  4  4  4  4  4  4  4  4  4  4  4  4  4  4  4  4  4  4
CENTRE ASSIGNMENTS    4  4  4  4  4  4  4  4  4  4  4  4  4  4  4  4  4  4  4  4
CENTRE ASSIGNMENTS    4  4  4  4  4  4  4  4  4  4  4  4  4  4  4  4  4  4  4  4
CENTRE ASSIGNMENTS    4  4  4  4  4  4  4  4  4  4  4  4  4  4  4  4  5  5  5  5
CENTRE ASSIGNMENTS    5  5  5  5  5  5  5  5  5  5  5  5  5  5  5  5  5  5  5  5
CENTRE ASSIGNMENTS    5  5  5  5  5  5  5  5  5  5  5  5  5  5  5  5  5  5  5  5
CENTRE ASSIGNMENTS    5  5  5  5  5  5  5  5  5  5  5  5  5  5  5  5  5  5  5  5
CENTRE ASSIGNMENTS    5  5  5  5  5  5  5  5  5  5  5
TYPE ASSIGNMENTS      1  1  1  1  1  1  1  1  1  1  1  1  1  1  1  1  1  1  1  1
TYPE ASSIGNMENTS      1  1  1  1  1  1  1  1  1  1  1  1  1  1  1  1  1  1  1  1
TYPE ASSIGNMENTS      1  1  2  2  2  2  2  2  2  3  3  3  3  3  3  3  4  4  4  4
TYPE ASSIGNMENTS      4  4  4  2  2  2  2  2  2  2  3  3  3  3  3  3  3  4  4  4
TYPE ASSIGNMENTS      4  4  4  4  2  3  4  2  3  4  2  3  4  5  6  7  8  9 10  5
TYPE ASSIGNMENTS      6  7  8  9 10  5  6  7  8  9 10 11 12 13 17 14 15 18 19 16
TYPE ASSIGNMENTS     20 11 12 13 17 14 15 18 19 16 20  1  1  1  1  1  1  1  1  1
TYPE ASSIGNMENTS      1  1  1  1  1  1  1  1  1  1  2  2  2  3  3  3  4  4  4  2
TYPE ASSIGNMENTS      3  4  2  3  4  2  3  4  5  6  7  8  9 10  5  6  7  8  9 10
TYPE ASSIGNMENTS      5  6  7  8  9 10 11 12 13 17 14 15 18 19 16 20 11 12 13 17
TYPE ASSIGNMENTS     14 15 18 19 16 20  1  1  1  1  1  1  1  1  1  1  1  1  1  1
TYPE ASSIGNMENTS      1  1  1  1  1  2  2  2  3  3  3  4  4  4  2  3  4  2  3  4
TYPE ASSIGNMENTS      2  3  4  5  6  7  8  9 10  5  6  7  8  9 10  5  6  7  8  9
TYPE ASSIGNMENTS     10 11 12 13 17 14 15 18 19 16 20 11 12 13 17 14 15 18 19 16
TYPE ASSIGNMENTS     20  1  1  1  1  1  1  1  1  1  1  1  1  1  1  1  1  1  1  1
TYPE ASSIGNMENTS      2  2  2  3  3  3  4  4  4  2  3  4  2  3  4  2  3  4  5  6
TYPE ASSIGNMENTS      7  8  9 10  5  6  7  8  9 10  5  6  7  8  9 10 11 12 13 17
TYPE ASSIGNMENTS     14 15 18 19 16 20 11 12 13 17 14 15 18 19 16 20  1  1  1  1
TYPE ASSIGNMENTS      1  1  1  1  1  1  1  1  1  1  1  1  1  1  1  2  2  2  3  3
TYPE ASSIGNMENTS      3  4  4  4  2  3  4  2  3  4  2  3  4  5  6  7  8  9 10  5
TYPE ASSIGNMENTS      6  7  8  9 10  5  6  7  8  9 10 11 12 13 17 14 15 18 19 16
TYPE ASSIGNMENTS     20 11 12 13 17 14 15 18 19 16 20
EXPONENTS  0.3741000D+06 0.5605000D+05 0.1276000D+05 0.3615000D+04 0.1183000D+04
EXPONENTS  0.4288000D+03 0.1678000D+03 0.6947000D+02 0.2984000D+02 0.1272000D+02
EXPONENTS  0.5244000D+01 0.2219000D+01 0.3490000D+00 0.3741000D+06 0.5605000D+05
EXPONENTS  0.1276000D+05 0.3615000D+04 0.1183000D+04 0.4288000D+03 0.1678000D+03
EXPONENTS  0.6947000D+02 0.2984000D+02 0.1272000D+02 0.5244000D+01 0.2219000D+01
EXPONENTS  0.3490000D+00 0.3741000D+06 0.5605000D+05 0.1276000D+05 0.3615000D+04
EXPONENTS  0.1183000D+04 0.4288000D+03 0.1678000D+03 0.6947000D+02 0.2984000D+02
EXPONENTS  0.1272000D+02 0.5244000D+01 0.2219000D+01 0.3490000D+00 0.7767000D+00
EXPONENTS  0.1322000D+00 0.4970000D-01 0.5744000D+03 0.1358000D+03 0.4319000D+02
EXPONENTS  0.1587000D+02 0.6208000D+01 0.2483000D+01 0.3229000D+00 0.5744000D+03
EXPONENTS  0.1358000D+03 0.4319000D+02 0.1587000D+02 0.6208000D+01 0.2483000D+01
EXPONENTS  0.3229000D+00 0.5744000D+03 0.1358000D+03 0.4319000D+02 0.1587000D+02
EXPONENTS  0.6208000D+01 0.2483000D+01 0.3229000D+00 0.5744000D+03 0.1358000D+03
EXPONENTS  0.4319000D+02 0.1587000D+02 0.6208000D+01 0.2483000D+01 0.3229000D+00
EXPONENTS  0.5744000D+03 0.1358000D+03 0.4319000D+02 0.1587000D+02 0.6208000D+01
EXPONENTS  0.2483000D+01 0.3229000D+00 0.5744000D+03 0.1358000D+03 0.4319000D+02
EXPONENTS  0.1587000D+02 0.6208000D+01 0.2483000D+01 0.3229000D+00 0.8688000D+00
EXPONENTS  0.8688000D+00 0.8688000D+00 0.1098000D+00 0.1098000D+00 0.1098000D+00
EXPONENTS  0.3510000D-01 0.3510000D-01 0.3510000D-01 0.2690000D+00 0.2690000D+00
EXPONENTS  0.2690000D+00 0.2690000D+00 0.2690000D+00 0.2690000D+00 0.8190000D+00
EXPONENTS  0.8190000D+00 0.8190000D+00 0.8190000D+00 0.8190000D+00 0.8190000D+00
EXPONENTS  0.1010000D+00 0.1010000D+00 0.1010000D+00 0.1010000D+00 0.1010000D+00
EXPONENTS  0.1010000D+00 0.5570000D+00 0.5570000D+00 0.5570000D+00 0.5570000D+00
EXPONENTS  0.5570000D+00 0.5570000D+00 0.5570000D+00 0.5570000D+00 0.5570000D+00
EXPONENTS  0.5570000D+00 0.2180000D+00 0.2180000D+00 0.2180000D+00 0.2180000D+00
EXPONENTS  0.2180000D+00 0.2180000D+00 0.2180000D+00 0.2180000D+00 0.2180000D+00
EXPONENTS  0.2180000D+00 0.1950000D+05 0.2923000D+04 0.6645000D+03 0.1875000D+03
EXPONENTS  0.6062000D+02 0.2142000D+02 0.7950000D+01 0.8815000D+00 0.1950000D+05
EXPONENTS  0.2923000D+04 0.6645000D+03 0.1875000D+03 0.6062000D+02 0.2142000D+02
EXPONENTS  0.7950000D+01 0.8815000D+00 0.2257000D+01 0.3041000D+00 0.9158000D-01
EXPONENTS  0.4388000D+02 0.9926000D+01 0.2930000D+01 0.4388000D+02 0.9926000D+01
EXPONENTS  0.2930000D+01 0.4388000D+02 0.9926000D+01 0.2930000D+01 0.9132000D+00
EXPONENTS  0.9132000D+00 0.9132000D+00 0.2672000D+00 0.2672000D+00 0.2672000D+00
EXPONENTS  0.7361000D-01 0.7361000D-01 0.7361000D-01 0.3107000D+01 0.3107000D+01
EXPONENTS  0.3107000D+01 0.3107000D+01 0.3107000D+01 0.3107000D+01 0.8550000D+00
EXPONENTS  0.8550000D+00 0.8550000D+00 0.8550000D+00 0.8550000D+00 0.8550000D+00
EXPONENTS  0.2920000D+00 0.2920000D+00 0.2920000D+00 0.2920000D+00 0.2920000D+00
EXPONENTS  0.2920000D+00 0.1917000D+01 0.1917000D+01 0.1917000D+01 0.1917000D+01
EXPONENTS  0.1917000D+01 0.1917000D+01 0.1917000D+01 0.1917000D+01 0.1917000D+01
EXPONENTS  0.1917000D+01 0.7240000D+00 0.7240000D+00 0.7240000D+00 0.7240000D+00
EXPONENTS  0.7240000D+00 0.7240000D+00 0.7240000D+00 0.7240000D+00 0.7240000D+00
EXPONENTS  0.7240000D+00 0.1950000D+05 0.2923000D+04 0.6645000D+03 0.1875000D+03
EXPONENTS  0.6062000D+02 0.2142000D+02 0.7950000D+01 0.8815000D+00 0.1950000D+05
EXPONENTS  0.2923000D+04 0.6645000D+03 0.1875000D+03 0.6062000D+02 0.2142000D+02
EXPONENTS  0.7950000D+01 0.8815000D+00 0.2257000D+01 0.3041000D+00 0.9158000D-01
EXPONENTS  0.4388000D+02 0.9926000D+01 0.2930000D+01 0.4388000D+02 0.9926000D+01
EXPONENTS  0.2930000D+01 0.4388000D+02 0.9926000D+01 0.2930000D+01 0.9132000D+00
EXPONENTS  0.9132000D+00 0.9132000D+00 0.2672000D+00 0.2672000D+00 0.2672000D+00
EXPONENTS  0.7361000D-01 0.7361000D-01 0.7361000D-01 0.3107000D+01 0.3107000D+01
EXPONENTS  0.3107000D+01 0.3107000D+01 0.3107000D+01 0.3107000D+01 0.8550000D+00
EXPONENTS  0.8550000D+00 0.8550000D+00 0.8550000D+00 0.8550000D+00 0.8550000D+00
EXPONENTS  0.2920000D+00 0.2920000D+00 0.2920000D+00 0.2920000D+00 0.2920000D+00
EXPONENTS  0.2920000D+00 0.1917000D+01 0.1917000D+01 0.1917000D+01 0.1917000D+01
EXPONENTS  0.1917000D+01 0.1917000D+01 0.1917000D+01 0.1917000D+01 0.1917000D+01
EXPONENTS  0.1917000D+01 0.7240000D+00 0.7240000D+00 0.7240000D+00 0.7240000D+00
EXPONENTS  0.7240000D+00 0.7240000D+00 0.7240000D+00 0.7240000D+00 0.7240000D+00
EXPONENTS  0.7240000D+00 0.1950000D+05 0.2923000D+04 0.6645000D+03 0.1875000D+03
EXPONENTS  0.6062000D+02 0.2142000D+02 0.7950000D+01 0.8815000D+00 0.1950000D+05
EXPONENTS  0.2923000D+04 0.6645000D+03 0.1875000D+03 0.6062000D+02 0.2142000D+02
EXPONENTS  0.7950000D+01 0.8815000D+00 0.2257000D+01 0.3041000D+00 0.9158000D-01
EXPONENTS  0.4388000D+02 0.9926000D+01 0.2930000D+01 0.4388000D+02 0.9926000D+01
EXPONENTS  0.2930000D+01 0.4388000D+02 0.9926000D+01 0.2930000D+01 0.9132000D+00
EXPONENTS  0.9132000D+00 0.9132000D+00 0.2672000D+00 0.2672000D+00 0.2672000D+00
EXPONENTS  0.7361000D-01 0.7361000D-01 0.7361000D-01 0.3107000D+01 0.3107000D+01
EXPONENTS  0.3107000D+01 0.3107000D+01 0.3107000D+01 0.3107000D+01 0.8550000D+00
EXPONENTS  0.8550000D+00 0.8550000D+00 0.8550000D+00 0.8550000D+00 0.8550000D+00
EXPONENTS  0.2920000D+00 0.2920000D+00 0.2920000D+00 0.2920000D+00 0.2920000D+00
EXPONENTS  0.2920000D+00 0.1917000D+01 0.1917000D+01 0.1917000D+01 0.1917000D+01
EXPONENTS  0.1917000D+01 0.1917000D+01 0.1917000D+01 0.1917000D+01 0.1917000D+01
EXPONENTS  0.1917000D+01 0.7240000D+00 0.7240000D+00 0.7240000D+00 0.7240000D+00
EXPONENTS  0.7240000D+00 0.7240000D+00 0.7240000D+00 0.7240000D+00 0.7240000D+00
EXPONENTS  0.7240000D+00 0.1950000D+05 0.2923000D+04 0.6645000D+03 0.1875000D+03
EXPONENTS  0.6062000D+02 0.2142000D+02 0.7950000D+01 0.8815000D+00 0.1950000D+05
EXPONENTS  0.2923000D+04 0.6645000D+03 0.1875000D+03 0.6062000D+02 0.2142000D+02
EXPONENTS  0.7950000D+01 0.8815000D+00 0.2257000D+01 0.3041000D+00 0.9158000D-01
EXPONENTS  0.4388000D+02 0.9926000D+01 0.2930000D+01 0.4388000D+02 0.9926000D+01
EXPONENTS  0.2930000D+01 0.4388000D+02 0.9926000D+01 0.2930000D+01 0.9132000D+00
EXPONENTS  0.9132000D+00 0.9132000D+00 0.2672000D+00 0.2672000D+00 0.2672000D+00
EXPONENTS  0.7361000D-01 0.7361000D-01 0.7361000D-01 0.3107000D+01 0.3107000D+01
EXPONENTS  0.3107000D+01 0.3107000D+01 0.3107000D+01 0.3107000D+01 0.8550000D+00
EXPONENTS  0.8550000D+00 0.8550000D+00 0.8550000D+00 0.8550000D+00 0.8550000D+00
EXPONENTS  0.2920000D+00 0.2920000D+00 0.2920000D+00 0.2920000D+00 0.2920000D+00
EXPONENTS  0.2920000D+00 0.1917000D+01 0.1917000D+01 0.1917000D+01 0.1917000D+01
EXPONENTS  0.1917000D+01 0.1917000D+01 0.1917000D+01 0.1917000D+01 0.1917000D+01
EXPONENTS  0.1917000D+01 0.7240000D+00 0.7240000D+00 0.7240000D+00 0.7240000D+00
EXPONENTS  0.7240000D+00 0.7240000D+00 0.7240000D+00 0.7240000D+00 0.7240000D+00
EXPONENTS  0.7240000D+00
MO    1     MO 0.0        OCC NO =    2.0000000  ORB. ENERGY =  -90.265427
  0.58522453D+00  0.10940432D+01  0.18908483D+01  0.30583623D+01  0.46225355D+01
  0.63659899D+01  0.74403663D+01  0.64290378D+01  0.29985261D+01  0.40713507D+00
  0.10902074D-02  0.21385363D-02  0.97633113D-04 -0.13169606D-02 -0.24594800D-02
 -0.42663486D-02 -0.69177368D-02 -0.10650643D-01 -0.15168908D-01 -0.19505247D-01
 -0.20474705D-01 -0.14477068D-01  0.32060072D-03  0.10401960D-01  0.57276015D-02
 -0.24221930D-04  0.59852843D-03  0.11169426D-02  0.19399956D-02  0.31423624D-02
  0.48540303D-02  0.69201496D-02  0.90008541D-02  0.95924843D-02  0.71145461D-02
 -0.22144940D-03 -0.64454081D-02 -0.63142753D-02  0.29491411D-02 -0.31721624D-02
 -0.28817108D-03 -0.21385641D-04 -0.58638055D-14 -0.76929935D-14 -0.84380413D-14
 -0.69429541D-14 -0.36604627D-14 -0.95227939D-15  0.10537942D-17  0.85718563D-15
  0.11245809D-14  0.12334938D-14  0.10149383D-14  0.53509552D-15  0.13920656D-15
 -0.15404625D-18 -0.14265826D-01 -0.18715987D-01 -0.20528585D-01 -0.16891245D-01
 -0.89053987D-02 -0.23167638D-02  0.25637354D-05  0.51078940D-14  0.67066960D-14
  0.75454852D-14  0.63576417D-14  0.35563757D-14  0.88517466D-15 -0.40598375D-15
 -0.68129473D-15 -0.89454413D-15 -0.10064225D-14 -0.84798701D-15 -0.47435205D-15
 -0.11806526D-15  0.54150416D-16  0.11681389D-01  0.15337735D-01  0.17255986D-01
  0.14539473D-01  0.81331773D-02  0.20243313D-02 -0.92845586D-03  0.32728572D-15
 -0.10815645D-15  0.50394504D-03 -0.32036896D-15  0.30610044D-15  0.11804777D-03
 -0.56387733D-17 -0.56736289D-17 -0.14146743D-05  0.71190103D-04 -0.10159558D-03
  0.30405473D-04  0.21093593D-18  0.44595937D-15  0.10159205D-16  0.80712764D-04
  0.52119240D-04 -0.13283200D-03 -0.27922053D-18 -0.11674985D-15 -0.12454380D-16
 -0.37120366D-05  0.72212760D-06  0.29899090D-05  0.35354674D-19  0.59688980D-16
 -0.17207300D-17  0.10272943D-16 -0.14004271D-17  0.10004065D-03  0.92087272D-16
 -0.27540940D-17 -0.46187867D-03 -0.12290610D-15  0.69553753D-17  0.16175672D-03
 -0.44500019D-19  0.18968773D-16  0.31580596D-16 -0.19409705D-04  0.11372077D-16
 -0.43970202D-16  0.38768415D-04 -0.68278394D-16 -0.50771588D-16  0.19460701D-04
 -0.92169529D-19  0.17028240D-03  0.31741378D-03  0.53809439D-03  0.81483349D-03
  0.10189521D-02  0.87722287D-03  0.33723650D-03 -0.14613010D-05 -0.11529947D-03
 -0.21651199D-03 -0.36868257D-03 -0.57753907D-03 -0.77397029D-03 -0.83250940D-03
 -0.49983755D-03  0.32871420D-03 -0.27782054D-04 -0.28458493D-03 -0.16894845D-04
 -0.21448230D-03 -0.20975900D-03 -0.13859664D-03 -0.44117360D-16 -0.43145814D-16
 -0.28508264D-16  0.96167783D-04  0.94049991D-04  0.62142806D-04  0.29319904D-04
  0.32113340D-16  0.31435840D-04  0.34679317D-03  0.47632326D-18 -0.28634517D-03
  0.24892109D-05  0.15833788D-16 -0.24410711D-05  0.30288156D-03 -0.43383126D-03
  0.13094969D-03 -0.75705904D-16 -0.71591418D-03  0.30609398D-16 -0.13067686D-03
  0.18038246D-03 -0.49705595D-04  0.28831302D-16  0.32217831D-03 -0.98071113D-17
 -0.80146162D-04  0.95055607D-04 -0.14909446D-04 -0.23222707D-16  0.28670938D-03
  0.93292413D-17 -0.45327078D-04  0.24501826D-16 -0.16315733D-03  0.63243822D-03
 -0.63837055D-16  0.10264975D-02 -0.49645698D-03 -0.96684223D-17 -0.53702552D-03
  0.16233620D-16  0.14343516D-04 -0.77395405D-17  0.77221517D-04 -0.32362848D-03
  0.19684554D-16 -0.50143207D-03  0.28059793D-03  0.35340680D-17  0.26976752D-03
  0.31510852D-18  0.17028240D-03  0.31741378D-03  0.53809439D-03  0.81483349D-03
  0.10189521D-02  0.87722287D-03  0.33723650D-03 -0.14613010D-05 -0.11529947D-03
 -0.21651199D-03 -0.36868257D-03 -0.57753907D-03 -0.77397029D-03 -0.83250940D-03
 -0.49983755D-03  0.32871420D-03 -0.27782054D-04 -0.28458493D-03 -0.16894845D-04
  0.21448230D-03  0.20975900D-03  0.13859664D-03 -0.43689992D-16 -0.42727858D-16
 -0.28232102D-16  0.96167783D-04  0.94049991D-04  0.62142806D-04 -0.29319904D-04
  0.31821777D-16  0.31435840D-04 -0.34679317D-03  0.85294140D-18 -0.28634517D-03
 -0.24892109D-05  0.15807605D-16 -0.24410711D-05  0.30288156D-03 -0.43383126D-03
  0.13094969D-03  0.75022908D-16  0.71591418D-03  0.30343191D-16 -0.13067686D-03
  0.18038246D-03 -0.49705595D-04 -0.28548689D-16 -0.32217831D-03 -0.97175619D-17
 -0.80146162D-04  0.95055607D-04 -0.14909446D-04  0.23285633D-16 -0.28670938D-03
  0.94578583D-17  0.45327078D-04  0.24812973D-16 -0.16315733D-03 -0.63243822D-03
 -0.64124496D-16  0.10264975D-02  0.49645698D-03 -0.10314422D-16 -0.53702552D-03
 -0.16683917D-16 -0.14343516D-04 -0.78287670D-17  0.77221517D-04  0.32362848D-03
  0.19769571D-16 -0.50143207D-03 -0.28059793D-03  0.37167301D-17  0.26976752D-03
 -0.51963067D-19  0.23270421D-04  0.43377073D-04  0.73534803D-04  0.11135336D-03
  0.13924777D-03  0.11987936D-03  0.46086003D-04 -0.19969820D-06 -0.16372825D-04
 -0.30745266D-04 -0.52353885D-04 -0.82012051D-04 -0.10990580D-03 -0.11821850D-03
 -0.70978234D-04  0.46678273D-04  0.99966573D-06  0.72640318D-04  0.20748960D-05
  0.34620896D-16  0.33858480D-16  0.22371729D-16 -0.13825268D-04 -0.13520810D-04
 -0.89337708D-05 -0.55442502D-04 -0.54221556D-04 -0.35826475D-04 -0.31599256D-16
  0.10101699D-03  0.59639901D-04  0.50009563D-16 -0.75267536D-04 -0.75114535D-04
 -0.83358029D-18 -0.30197839D-05 -0.27870157D-05 -0.14829251D-03  0.26695414D-03
 -0.11866164D-03 -0.76534329D-16  0.10809058D-15  0.96442086D-04  0.34103869D-04
 -0.61059986D-04  0.26956117D-04  0.25369485D-16 -0.35826937D-16 -0.17084661D-04
  0.42434890D-04 -0.77623549D-04  0.35188658D-04  0.19443610D-16 -0.86238529D-17
 -0.42031810D-04  0.63452139D-17  0.45940431D-03 -0.80328553D-05 -0.66757369D-16
 -0.71777729D-03 -0.99693578D-04  0.47721727D-16 -0.66043566D-03  0.12379214D-03
  0.28513229D-15 -0.52975220D-17 -0.17753739D-03  0.12053586D-04  0.29145745D-16
  0.27872052D-03  0.21444208D-04 -0.13253179D-16  0.25389165D-03 -0.57604967D-04
 -0.10065381D-15  0.23270421D-04  0.43377073D-04  0.73534803D-04  0.11135336D-03
  0.13924777D-03  0.11987936D-03  0.46086003D-04 -0.19969820D-06 -0.16372825D-04
 -0.30745266D-04 -0.52353885D-04 -0.82012051D-04 -0.10990580D-03 -0.11821850D-03
 -0.70978234D-04  0.46678273D-04  0.99966573D-06  0.72640318D-04  0.20748960D-05
  0.34611425D-16  0.33849218D-16  0.22365610D-16  0.13825268D-04  0.13520810D-04
  0.89337708D-05 -0.55442502D-04 -0.54221556D-04 -0.35826475D-04 -0.31499167D-16
 -0.10101699D-03  0.59639901D-04  0.49816457D-16  0.75267536D-04 -0.75114535D-04
 -0.87043855D-18  0.30197839D-05 -0.27870157D-05 -0.14829251D-03  0.26695414D-03
 -0.11866164D-03  0.75043956D-16  0.10806496D-15 -0.96442086D-04  0.34103869D-04
 -0.61059986D-04  0.26956117D-04 -0.24918389D-16 -0.35785046D-16  0.17084661D-04
  0.42434890D-04 -0.77623549D-04  0.35188658D-04 -0.19396779D-16 -0.86108064D-17
  0.42031810D-04  0.61727536D-17 -0.45940431D-03 -0.80328553D-05 -0.65866746D-16
  0.71777729D-03 -0.99693578D-04  0.47348485D-16  0.66043566D-03  0.12379214D-03
 -0.28604062D-15 -0.52450455D-17  0.17753739D-03  0.12053586D-04  0.28878275D-16
 -0.27872052D-03  0.21444208D-04 -0.13143138D-16 -0.25389165D-03 -0.57604967D-04
  0.10080451D-15
MO    2     MO 0.0        OCC NO =    2.0000000  ORB. ENERGY =  -25.338806
  0.24552615D-11  0.45899686D-11  0.79328989D-11  0.12831108D-10  0.19393468D-10
  0.26707988D-10  0.31215446D-10  0.26972500D-10  0.12580070D-10  0.17081018D-11
  0.45738757D-14  0.89720533D-14  0.40961171D-15 -0.41435916D-11 -0.77383338D-11
 -0.13423337D-10 -0.21765477D-10 -0.33510430D-10 -0.47726380D-10 -0.61369929D-10
 -0.64420163D-10 -0.45549620D-10  0.10087154D-11  0.32727991D-10  0.18020920D-10
 -0.76210166D-13  0.21366698D-11  0.39873420D-11  0.69255358D-11  0.11217831D-10
  0.17328266D-10  0.24704047D-10  0.32131896D-10  0.34243940D-10  0.25398018D-10
 -0.79054599D-12 -0.23009281D-10 -0.22541154D-10  0.10528056D-10 -0.11862067D-10
  0.72900702D-11  0.22977694D-11 -0.11209210D-01 -0.14705873D-01 -0.16130101D-01
 -0.13272103D-01 -0.69973152D-02 -0.18203707D-02  0.20144258D-05 -0.47787329D-15
 -0.62694373D-15 -0.68766172D-15 -0.56581896D-15 -0.29831095D-15 -0.77606408D-16
  0.85879403D-19 -0.18629441D-09 -0.24440812D-09 -0.26807846D-09 -0.22057920D-09
 -0.11629372D-09 -0.30254129D-10  0.33479278D-13  0.10084809D-01  0.13241416D-01
  0.14897486D-01  0.12552258D-01  0.70215572D-02  0.17476513D-02 -0.80155709D-03
  0.44419979D-15  0.58323703D-15  0.65618098D-15  0.55288209D-15  0.30927449D-15
  0.76977791D-16 -0.35305724D-16  0.17229533D-09  0.22622481D-09  0.25451817D-09
  0.21445080D-09  0.11996077D-09  0.29857992D-10 -0.13694314D-10  0.80634496D-03
  0.79027497D-16  0.10919205D-10 -0.30334447D-03 -0.20676052D-15 -0.20674023D-11
 -0.25181589D-05 -0.34255928D-17 -0.76157924D-13  0.58392116D-11 -0.68484850D-11
  0.10092734D-11  0.75222800D-18  0.66702076D-03 -0.47470297D-17  0.73284785D-13
 -0.48829671D-12  0.41501192D-12  0.13022812D-15  0.10932883D-03 -0.30106532D-15
  0.20293961D-12 -0.96375042D-13 -0.10656457D-12  0.31299391D-17  0.42780417D-04
 -0.80131412D-17  0.24075822D-04 -0.92437133D-17  0.24466920D-11  0.29627108D-03
  0.13324860D-16 -0.13223128D-10 -0.36849855D-03  0.14406280D-16  0.58830521D-11
  0.38793567D-17  0.23822161D-04 -0.25897276D-16  0.25801416D-12 -0.66045786D-06
  0.34906197D-16 -0.10135804D-11 -0.70806026D-04  0.42785630D-16  0.23953795D-12
  0.32252713D-18 -0.42090716D+00 -0.78458917D+00 -0.13300715D+01 -0.20141203D+01
 -0.25186645D+01 -0.21683355D+01 -0.83358734D+00  0.36120704D-02 -0.20815642D-03
 -0.39088089D-03 -0.66560274D-03 -0.10426628D-02 -0.13972908D-02 -0.15029746D-02
 -0.90238398D-03  0.59344567D-03 -0.42506673D-01  0.10103951D-03  0.38772116D-03
  0.38843042D-02  0.37987646D-02  0.25100044D-02  0.13829834D-15  0.13525275D-15
  0.89367212D-16 -0.30663196D-02 -0.29987936D-02 -0.19814297D-02 -0.58086218D-03
 -0.21056615D-16  0.43450783D-03 -0.35157245D-03 -0.18959056D-16  0.19180237D-03
 -0.34687432D-04  0.19653517D-17  0.24655117D-04 -0.45566708D-03  0.37542958D-03
  0.80237498D-04 -0.19387745D-16  0.15472567D-02  0.41428848D-16  0.19442675D-03
 -0.17251010D-03 -0.21916649D-04  0.14207671D-16 -0.58106529D-03 -0.15327807D-16
  0.45242632D-04 -0.26617689D-04 -0.18624943D-04  0.11681398D-16 -0.87119248D-04
  0.17124586D-17 -0.36059935D-04 -0.38761010D-16  0.10392654D-03 -0.58460233D-04
  0.99317506D-16 -0.45424304D-03  0.16664004D-03  0.16965523D-16  0.14246343D-03
  0.67891522D-16  0.46165144D-06  0.12046231D-16 -0.58193075D-04  0.57355315D-04
 -0.31532370D-16  0.23293138D-03 -0.58740270D-04 -0.46063242D-17 -0.58352150D-04
 -0.25444461D-16  0.42090717D+00  0.78458921D+00  0.13300716D+01  0.20141204D+01
  0.25186646D+01  0.21683356D+01  0.83358738D+00 -0.36120706D-02  0.20815643D-03
  0.39088091D-03  0.66560278D-03  0.10426628D-02  0.13972908D-02  0.15029747D-02
  0.90238403D-03 -0.59344570D-03  0.42506675D-01 -0.10103951D-03 -0.38772118D-03
  0.38843043D-02  0.37987648D-02  0.25100045D-02 -0.77898305D-16 -0.76182841D-16
 -0.50337224D-16  0.30663198D-02  0.29987937D-02  0.19814298D-02 -0.58086220D-03
  0.24844064D-17 -0.43450785D-03 -0.35157245D-03 -0.25719039D-16 -0.19180238D-03
 -0.34687433D-04 -0.39179318D-17 -0.24655118D-04  0.45566709D-03 -0.37542960D-03
 -0.80237491D-04 -0.37163928D-16  0.15472568D-02  0.11716924D-16 -0.19442675D-03
  0.17251011D-03  0.21916646D-04  0.75145001D-17 -0.58106532D-03 -0.27636853D-17
 -0.45242632D-04  0.26617691D-04  0.18624941D-04 -0.25158079D-16 -0.87119254D-04
 -0.79793368D-17 -0.36059931D-04 -0.39893945D-16 -0.10392653D-03 -0.58460262D-04
  0.11191870D-15  0.45424305D-03  0.16664006D-03  0.77631315D-17 -0.14246345D-03
 -0.16852084D-16  0.46165110D-06  0.12669011D-16  0.58193074D-04  0.57355326D-04
 -0.35274264D-16 -0.23293138D-03 -0.58740279D-04 -0.27327699D-17  0.58352157D-04
  0.10159642D-17 -0.16972142D-11 -0.31636808D-11 -0.53632168D-11 -0.81214909D-11
 -0.10155953D-10 -0.87433294D-11 -0.33612550D-11  0.14564868D-13  0.76528307D-13
  0.14370661D-12  0.24470757D-12  0.38333296D-12  0.51371126D-12  0.55256573D-12
  0.33175974D-12 -0.21817916D-12 -0.95159495D-12  0.40476349D-11  0.81293044D-12
  0.11173321D-03  0.10927264D-03  0.72201051D-04 -0.40767270D-11 -0.39869499D-11
 -0.26343464D-11  0.16187712D-11  0.15831228D-11  0.10460362D-11 -0.92762493D-04
  0.30401299D-11 -0.10842617D-11  0.10534414D-03  0.25308086D-11  0.94387110D-12
 -0.22849454D-05  0.19996024D-12 -0.38273083D-13  0.34437195D-12 -0.25715972D-12
 -0.87212238D-13 -0.18154927D-03  0.22615569D-03 -0.30261675D-12 -0.32848182D-12
  0.82744997D-12 -0.49896816D-12  0.19691239D-04 -0.53296642D-04 -0.49930687D-12
 -0.53544545D-12  0.53529694D-12  0.14850968D-15  0.76064801D-04 -0.34679445D-04
  0.98090953D-12  0.13874227D-03 -0.81955496D-12  0.28109435D-11 -0.49436338D-03
  0.74721011D-11 -0.26023526D-11  0.78136571D-04 -0.50134362D-11 -0.58304780D-11
  0.13084613D-02 -0.43447732D-04  0.39638218D-12 -0.78005760D-12  0.15405713D-03
 -0.24849889D-11  0.76841101D-12 -0.23713938D-04  0.12958424D-11  0.15717618D-11
 -0.41566828D-03 -0.16914225D-11 -0.31528849D-11 -0.53449150D-11 -0.80937765D-11
 -0.10121296D-10 -0.87134930D-11 -0.33497848D-11  0.14515166D-13  0.76578965D-13
  0.14380173D-12  0.24486955D-12  0.38358671D-12  0.51405131D-12  0.55293150D-12
  0.33197934D-12 -0.21832358D-12 -0.95103181D-12  0.40480773D-11  0.81328348D-12
  0.11173321D-03  0.10927264D-03  0.72201051D-04  0.40766341D-11  0.39868591D-11
  0.26342864D-11  0.16188135D-11  0.15831643D-11  0.10460636D-11 -0.92762493D-04
 -0.30400419D-11 -0.10843057D-11  0.10534414D-03 -0.25311111D-11  0.94396250D-12
 -0.22849454D-05 -0.20000656D-12 -0.38256528D-13  0.34436664D-12 -0.25716482D-12
 -0.87201825D-13  0.18154927D-03  0.22615569D-03  0.30242299D-12 -0.32853438D-12
  0.82752263D-12 -0.49898826D-12 -0.19691239D-04 -0.53296642D-04  0.49938256D-12
 -0.53544898D-12  0.53531623D-12  0.13275011D-15 -0.76064801D-04 -0.34679445D-04
 -0.98099236D-12  0.13874227D-03  0.81961439D-12  0.28109112D-11 -0.49436338D-03
 -0.74721671D-11 -0.26020644D-11  0.78136571D-04  0.50133239D-11 -0.58306691D-11
 -0.13084613D-02 -0.43447732D-04 -0.39641362D-12 -0.78006970D-12  0.15405713D-03
  0.24850059D-11  0.76835498D-12 -0.23713938D-04 -0.12957650D-11  0.15718541D-11
  0.41566828D-03
MO    3     MO 0.0        OCC NO =    2.0000000  ORB. ENERGY =  -25.338799
  0.10774823D-03  0.20142906D-03  0.34813230D-03  0.56308837D-03  0.85107510D-03
  0.11720701D-02  0.13698782D-02  0.11836781D-02  0.55207168D-03  0.74959407D-04
  0.20072282D-06  0.39373520D-06  0.17975657D-07 -0.18182740D-03 -0.33957041D-03
 -0.58903742D-03 -0.95510381D-03 -0.14704911D-02 -0.20943096D-02 -0.26930102D-02
 -0.28268594D-02 -0.19987899D-02  0.44264039D-04  0.14361564D-02  0.79078668D-03
 -0.33442235D-05  0.93752800D-04  0.17495659D-03  0.30387866D-03  0.49221601D-03
  0.76032968D-03  0.10839642D-02  0.14098834D-02  0.15025556D-02  0.11144142D-02
 -0.34687577D-04 -0.10096013D-02 -0.98906077D-03  0.46195004D-03 -0.52095423D-03
  0.32080898D-03  0.10119295D-03  0.25544084D-09  0.33512447D-09  0.36758046D-09
  0.30245103D-09  0.15945816D-09  0.41483478D-10 -0.45905697D-13 -0.80596328D-15
 -0.10573799D-14 -0.11597846D-14 -0.95428917D-15 -0.50312012D-15 -0.13088808D-15
  0.14484100D-18 -0.81820117D-02 -0.10734354D-01 -0.11773950D-01 -0.96877926D-02
 -0.51075958D-02 -0.13287550D-02  0.14704029D-05 -0.22982547D-09 -0.30176224D-09
 -0.33950287D-09 -0.28605684D-09 -0.16001618D-09 -0.39827702D-10  0.18266903D-10
  0.89785965D-15  0.11788952D-14  0.13263366D-14  0.11175388D-14  0.62513556D-15
  0.15559497D-15 -0.71363350D-16  0.75670744D-02  0.99356147D-02  0.11178236D-01
  0.94185094D-02  0.52685821D-02  0.13113394D-02 -0.60144341D-03 -0.18363925D-10
  0.16265508D-15  0.47955278D-03  0.68986106D-11 -0.48126852D-15 -0.90920473D-04
  0.55953083D-13  0.14367891D-16 -0.33545938D-05  0.25665255D-03 -0.30084131D-03
  0.44188757D-04  0.83342634D-17 -0.15188364D-10 -0.34945724D-16  0.30632933D-05
 -0.21382864D-04  0.18319571D-04 -0.36987363D-17 -0.25062673D-11  0.27852041D-16
  0.89536335D-05 -0.42372974D-05 -0.47163360D-05 -0.12769120D-17 -0.97065029D-12
 -0.69650226D-17 -0.54912763D-12  0.48349333D-17  0.10742731D-03 -0.67488793D-11
 -0.64266430D-17 -0.58063445D-03  0.83962621D-11 -0.80781570D-17  0.25835252D-03
 -0.81777056D-17 -0.54210862D-12 -0.52473335D-16  0.11374756D-04  0.15743173D-13
  0.74687455D-16 -0.44656796D-04  0.16105827D-11  0.82732551D-16  0.10532529D-04
  0.37387829D-17  0.42089959D+00  0.78457506D+00  0.13300476D+01  0.20140841D+01
  0.25186192D+01  0.21682965D+01  0.83357235D+00 -0.36120054D-02  0.21503468D-03
  0.40379705D-03  0.68759674D-03  0.10771162D-02  0.14434625D-02  0.15526385D-02
  0.93220212D-03 -0.61305533D-03  0.42480275D-01  0.11338691D-03 -0.25644289D-03
 -0.36851229D-02 -0.36039697D-02 -0.23812951D-02 -0.61098865D-16 -0.59753356D-16
 -0.39481568D-16  0.29948796D-02  0.29289269D-02  0.19352658D-02  0.47050866D-03
 -0.37965271D-16 -0.33998764D-03  0.21202773D-03 -0.11174115D-16 -0.29143056D-03
  0.14814286D-04 -0.29017980D-16 -0.17009733D-04  0.27642113D-03 -0.43202791D-03
  0.15560678D-03  0.12619495D-15 -0.15351072D-02 -0.13707659D-16 -0.11026625D-03
  0.17821956D-03 -0.67953306D-04 -0.51467890D-16  0.56217094D-03 -0.41760262D-17
 -0.71357265D-05  0.51625593D-04 -0.44489867D-04  0.42763657D-16  0.11349729D-03
 -0.10284572D-16 -0.95329502D-04 -0.65313104D-16  0.10838129D-03  0.64060185D-03
  0.15897719D-15  0.64597054D-04 -0.35461334D-03  0.36962120D-16 -0.38974091D-03
  0.49515668D-16  0.73596996D-05  0.20327738D-16 -0.20255758D-04 -0.23331138D-03
 -0.48584372D-16 -0.11128565D-03  0.21123228D-03 -0.12398843D-16  0.17205292D-03
 -0.20982358D-16  0.42089957D+00  0.78457503D+00  0.13300476D+01  0.20140840D+01
  0.25186191D+01  0.21682964D+01  0.83357231D+00 -0.36120053D-02  0.21503467D-03
  0.40379703D-03  0.68759671D-03  0.10771162D-02  0.14434624D-02  0.15526384D-02
  0.93220207D-03 -0.61305530D-03  0.42480273D-01  0.11338691D-03 -0.25644287D-03
  0.36851227D-02  0.36039695D-02  0.23812950D-02 -0.38257822D-16 -0.37415315D-16
 -0.24721880D-16  0.29948795D-02  0.29289267D-02  0.19352657D-02 -0.47050863D-03
 -0.28176337D-16 -0.33998762D-03 -0.21202771D-03 -0.23820364D-16 -0.29143055D-03
 -0.14814284D-04 -0.30027623D-16 -0.17009732D-04  0.27642111D-03 -0.43202790D-03
  0.15560679D-03 -0.14980474D-15  0.15351072D-02 -0.31090211D-16 -0.11026624D-03
  0.17821955D-03 -0.67953307D-04  0.53737879D-16 -0.56217092D-03  0.10179469D-16
 -0.71357244D-05  0.51625592D-04 -0.44489868D-04 -0.45943797D-16 -0.11349729D-03
 -0.15823953D-16  0.95329503D-04 -0.54759021D-16  0.10838129D-03 -0.64060184D-03
  0.13494076D-15  0.64597033D-04  0.35461333D-03  0.29336306D-16 -0.38974091D-03
 -0.79171160D-16 -0.73596997D-05  0.16695874D-16 -0.20255760D-04  0.23331138D-03
 -0.42184362D-16 -0.11128564D-03 -0.21123228D-03 -0.79032605D-17  0.17205292D-03
  0.26624103D-16 -0.74171962D-04 -0.13825975D-03 -0.23438427D-03 -0.35492686D-03
 -0.44383728D-03 -0.38210255D-03 -0.14689417D-03  0.63651649D-06  0.33586913D-05