 Molden2AIM, Version 4.0.0 (06/02/2016)           Time: Thu Jun 28 03:47:44 2018
GAUSSIAN             35 MOL ORBITALS    581 PRIMITIVES        7 NUCLEI
  S    1    (CENTRE  1)   0.00000000  0.00000000  0.00000000  CHARGE = 16.0
  F    2    (CENTRE  2)   0.00000000  0.00000000 -3.02755290  CHARGE =  9.0
  F    3    (CENTRE  3)   3.02755290  0.00000000  0.00000000  CHARGE =  9.0
  F    4    (CENTRE  4)  -3.02755290  0.00000000  0.00000000  CHARGE =  9.0
  F    5    (CENTRE  5)   0.00000000  3.02755290  0.00000000  CHARGE =  9.0
  F    6    (CENTRE  6)   0.00000000 -3.02755290  0.00000000  CHARGE =  9.0
  F    7    (CENTRE  7)   0.00000000  0.00000000  3.02755290  CHARGE =  9.0
CENTRE ASSIGNMENTS    1  1  1  1  1  1  1  1  1  1  1  1  1  1  1  1  1  1  1  1
CENTRE ASSIGNMENTS    1  1  1  1  1  1  1  1  1  1  1  1  1  1  1  1  1  1  1  1
CENTRE ASSIGNMENTS    1  1  1  1  1  1  1  1  1  1  1  1  1  1  1  1  1  1  1  1
CENTRE ASSIGNMENTS    1  1  1  1  1  1  1  1  1  1  1  1  1  1  1  1  1  1  1  1
CENTRE ASSIGNMENTS    1  1  1  1  1  1  1  1  1  1  1  1  1  1  1  1  1  1  1  1
CENTRE ASSIGNMENTS    1  1  1  1  1  1  1  1  1  1  1  1  1  1  1  1  1  1  1  1
CENTRE ASSIGNMENTS    1  1  1  1  1  1  1  1  1  1  1  2  2  2  2  2  2  2  2  2
CENTRE ASSIGNMENTS    2  2  2  2  2  2  2  2  2  2  2  2  2  2  2  2  2  2  2  2
CENTRE ASSIGNMENTS    2  2  2  2  2  2  2  2  2  2  2  2  2  2  2  2  2  2  2  2
CENTRE ASSIGNMENTS    2  2  2  2  2  2  2  2  2  2  2  2  2  2  2  2  2  2  2  2
CENTRE ASSIGNMENTS    2  2  2  2  2  2  3  3  3  3  3  3  3  3  3  3  3  3  3  3
CENTRE ASSIGNMENTS    3  3  3  3  3  3  3  3  3  3  3  3  3  3  3  3  3  3  3  3
CENTRE ASSIGNMENTS    3  3  3  3  3  3  3  3  3  3  3  3  3  3  3  3  3  3  3  3
CENTRE ASSIGNMENTS    3  3  3  3  3  3  3  3  3  3  3  3  3  3  3  3  3  3  3  3
CENTRE ASSIGNMENTS    3  4  4  4  4  4  4  4  4  4  4  4  4  4  4  4  4  4  4  4
CENTRE ASSIGNMENTS    4  4  4  4  4  4  4  4  4  4  4  4  4  4  4  4  4  4  4  4
CENTRE ASSIGNMENTS    4  4  4  4  4  4  4  4  4  4  4  4  4  4  4  4  4  4  4  4
CENTRE ASSIGNMENTS    4  4  4  4  4  4  4  4  4  4  4  4  4  4  4  4  5  5  5  5
CENTRE ASSIGNMENTS    5  5  5  5  5  5  5  5  5  5  5  5  5  5  5  5  5  5  5  5
CENTRE ASSIGNMENTS    5  5  5  5  5  5  5  5  5  5  5  5  5  5  5  5  5  5  5  5
CENTRE ASSIGNMENTS    5  5  5  5  5  5  5  5  5  5  5  5  5  5  5  5  5  5  5  5
CENTRE ASSIGNMENTS    5  5  5  5  5  5  5  5  5  5  5  6  6  6  6  6  6  6  6  6
CENTRE ASSIGNMENTS    6  6  6  6  6  6  6  6  6  6  6  6  6  6  6  6  6  6  6  6
CENTRE ASSIGNMENTS    6  6  6  6  6  6  6  6  6  6  6  6  6  6  6  6  6  6  6  6
CENTRE ASSIGNMENTS    6  6  6  6  6  6  6  6  6  6  6  6  6  6  6  6  6  6  6  6
CENTRE ASSIGNMENTS    6  6  6  6  6  6  7  7  7  7  7  7  7  7  7  7  7  7  7  7
CENTRE ASSIGNMENTS    7  7  7  7  7  7  7  7  7  7  7  7  7  7  7  7  7  7  7  7
CENTRE ASSIGNMENTS    7  7  7  7  7  7  7  7  7  7  7  7  7  7  7  7  7  7  7  7
CENTRE ASSIGNMENTS    7  7  7  7  7  7  7  7  7  7  7  7  7  7  7  7  7  7  7  7
CENTRE ASSIGNMENTS    7
TYPE ASSIGNMENTS      1  1  1  1  1  1  1  1  1  1  1  1  1  1  1  1  1  1  1  1
TYPE ASSIGNMENTS      1  1  1  1  1  1  1  1  1  1  1  1  1  1  1  1  1  1  1  1
TYPE ASSIGNMENTS      1  1  2  2  2  2  2  2  2  3  3  3  3  3  3  3  4  4  4  4
TYPE ASSIGNMENTS      4  4  4  2  2  2  2  2  2  2  3  3  3  3  3  3  3  4  4  4
TYPE ASSIGNMENTS      4  4  4  4  2  3  4  2  3  4  2  3  4  5  6  7  8  9 10  5
TYPE ASSIGNMENTS      6  7  8  9 10  5  6  7  8  9 10 11 12 13 17 14 15 18 19 16
TYPE ASSIGNMENTS     20 11 12 13 17 14 15 18 19 16 20  1  1  1  1  1  1  1  1  1
TYPE ASSIGNMENTS      1  1  1  1  1  1  1  1  1  1  2  2  2  3  3  3  4  4  4  2
TYPE ASSIGNMENTS      3  4  2  3  4  2  3  4  5  6  7  8  9 10  5  6  7  8  9 10
TYPE ASSIGNMENTS      5  6  7  8  9 10 11 12 13 17 14 15 18 19 16 20 11 12 13 17
TYPE ASSIGNMENTS     14 15 18 19 16 20  1  1  1  1  1  1  1  1  1  1  1  1  1  1
TYPE ASSIGNMENTS      1  1  1  1  1  2  2  2  3  3  3  4  4  4  2  3  4  2  3  4
TYPE ASSIGNMENTS      2  3  4  5  6  7  8  9 10  5  6  7  8  9 10  5  6  7  8  9
TYPE ASSIGNMENTS     10 11 12 13 17 14 15 18 19 16 20 11 12 13 17 14 15 18 19 16
TYPE ASSIGNMENTS     20  1  1  1  1  1  1  1  1  1  1  1  1  1  1  1  1  1  1  1
TYPE ASSIGNMENTS      2  2  2  3  3  3  4  4  4  2  3  4  2  3  4  2  3  4  5  6
TYPE ASSIGNMENTS      7  8  9 10  5  6  7  8  9 10  5  6  7  8  9 10 11 12 13 17
TYPE ASSIGNMENTS     14 15 18 19 16 20 11 12 13 17 14 15 18 19 16 20  1  1  1  1
TYPE ASSIGNMENTS      1  1  1  1  1  1  1  1  1  1  1  1  1  1  1  2  2  2  3  3
TYPE ASSIGNMENTS      3  4  4  4  2  3  4  2  3  4  2  3  4  5  6  7  8  9 10  5
TYPE ASSIGNMENTS      6  7  8  9 10  5  6  7  8  9 10 11 12 13 17 14 15 18 19 16
TYPE ASSIGNMENTS     20 11 12 13 17 14 15 18 19 16 20  1  1  1  1  1  1  1  1  1
TYPE ASSIGNMENTS      1  1  1  1  1  1  1  1  1  1  2  2  2  3  3  3  4  4  4  2
TYPE ASSIGNMENTS      3  4  2  3  4  2  3  4  5  6  7  8  9 10  5  6  7  8  9 10
TYPE ASSIGNMENTS      5  6  7  8  9 10 11 12 13 17 14 15 18 19 16 20 11 12 13 17
TYPE ASSIGNMENTS     14 15 18 19 16 20  1  1  1  1  1  1  1  1  1  1  1  1  1  1
TYPE ASSIGNMENTS      1  1  1  1  1  2  2  2  3  3  3  4  4  4  2  3  4  2  3  4
TYPE ASSIGNMENTS      2  3  4  5  6  7  8  9 10  5  6  7  8  9 10  5  6  7  8  9
TYPE ASSIGNMENTS     10 11 12 13 17 14 15 18 19 16 20 11 12 13 17 14 15 18 19 16
TYPE ASSIGNMENTS     20
EXPONENTS  0.3741000D+06 0.5605000D+05 0.1276000D+05 0.3615000D+04 0.1183000D+04
EXPONENTS  0.4288000D+03 0.1678000D+03 0.6947000D+02 0.2984000D+02 0.1272000D+02
EXPONENTS  0.5244000D+01 0.2219000D+01 0.3490000D+00 0.3741000D+06 0.5605000D+05
EXPONENTS  0.1276000D+05 0.3615000D+04 0.1183000D+04 0.4288000D+03 0.1678000D+03
EXPONENTS  0.6947000D+02 0.2984000D+02 0.1272000D+02 0.5244000D+01 0.2219000D+01
EXPONENTS  0.3490000D+00 0.3741000D+06 0.5605000D+05 0.1276000D+05 0.3615000D+04
EXPONENTS  0.1183000D+04 0.4288000D+03 0.1678000D+03 0.6947000D+02 0.2984000D+02
EXPONENTS  0.1272000D+02 0.5244000D+01 0.2219000D+01 0.3490000D+00 0.7767000D+00
EXPONENTS  0.1322000D+00 0.4970000D-01 0.5744000D+03 0.1358000D+03 0.4319000D+02
EXPONENTS  0.1587000D+02 0.6208000D+01 0.2483000D+01 0.3229000D+00 0.5744000D+03
EXPONENTS  0.1358000D+03 0.4319000D+02 0.1587000D+02 0.6208000D+01 0.2483000D+01
EXPONENTS  0.3229000D+00 0.5744000D+03 0.1358000D+03 0.4319000D+02 0.1587000D+02
EXPONENTS  0.6208000D+01 0.2483000D+01 0.3229000D+00 0.5744000D+03 0.1358000D+03
EXPONENTS  0.4319000D+02 0.1587000D+02 0.6208000D+01 0.2483000D+01 0.3229000D+00
EXPONENTS  0.5744000D+03 0.1358000D+03 0.4319000D+02 0.1587000D+02 0.6208000D+01
EXPONENTS  0.2483000D+01 0.3229000D+00 0.5744000D+03 0.1358000D+03 0.4319000D+02
EXPONENTS  0.1587000D+02 0.6208000D+01 0.2483000D+01 0.3229000D+00 0.8688000D+00
EXPONENTS  0.8688000D+00 0.8688000D+00 0.1098000D+00 0.1098000D+00 0.1098000D+00
EXPONENTS  0.3510000D-01 0.3510000D-01 0.3510000D-01 0.2690000D+00 0.2690000D+00
EXPONENTS  0.2690000D+00 0.2690000D+00 0.2690000D+00 0.2690000D+00 0.8190000D+00
EXPONENTS  0.8190000D+00 0.8190000D+00 0.8190000D+00 0.8190000D+00 0.8190000D+00
EXPONENTS  0.1010000D+00 0.1010000D+00 0.1010000D+00 0.1010000D+00 0.1010000D+00
EXPONENTS  0.1010000D+00 0.5570000D+00 0.5570000D+00 0.5570000D+00 0.5570000D+00
EXPONENTS  0.5570000D+00 0.5570000D+00 0.5570000D+00 0.5570000D+00 0.5570000D+00
EXPONENTS  0.5570000D+00 0.2180000D+00 0.2180000D+00 0.2180000D+00 0.2180000D+00
EXPONENTS  0.2180000D+00 0.2180000D+00 0.2180000D+00 0.2180000D+00 0.2180000D+00
EXPONENTS  0.2180000D+00 0.1950000D+05 0.2923000D+04 0.6645000D+03 0.1875000D+03
EXPONENTS  0.6062000D+02 0.2142000D+02 0.7950000D+01 0.8815000D+00 0.1950000D+05
EXPONENTS  0.2923000D+04 0.6645000D+03 0.1875000D+03 0.6062000D+02 0.2142000D+02
EXPONENTS  0.7950000D+01 0.8815000D+00 0.2257000D+01 0.3041000D+00 0.9158000D-01
EXPONENTS  0.4388000D+02 0.9926000D+01 0.2930000D+01 0.4388000D+02 0.9926000D+01
EXPONENTS  0.2930000D+01 0.4388000D+02 0.9926000D+01 0.2930000D+01 0.9132000D+00
EXPONENTS  0.9132000D+00 0.9132000D+00 0.2672000D+00 0.2672000D+00 0.2672000D+00
EXPONENTS  0.7361000D-01 0.7361000D-01 0.7361000D-01 0.3107000D+01 0.3107000D+01
EXPONENTS  0.3107000D+01 0.3107000D+01 0.3107000D+01 0.3107000D+01 0.8550000D+00
EXPONENTS  0.8550000D+00 0.8550000D+00 0.8550000D+00 0.8550000D+00 0.8550000D+00
EXPONENTS  0.2920000D+00 0.2920000D+00 0.2920000D+00 0.2920000D+00 0.2920000D+00
EXPONENTS  0.2920000D+00 0.1917000D+01 0.1917000D+01 0.1917000D+01 0.1917000D+01
EXPONENTS  0.1917000D+01 0.1917000D+01 0.1917000D+01 0.1917000D+01 0.1917000D+01
EXPONENTS  0.1917000D+01 0.7240000D+00 0.7240000D+00 0.7240000D+00 0.7240000D+00
EXPONENTS  0.7240000D+00 0.7240000D+00 0.7240000D+00 0.7240000D+00 0.7240000D+00
EXPONENTS  0.7240000D+00 0.1950000D+05 0.2923000D+04 0.6645000D+03 0.1875000D+03
EXPONENTS  0.6062000D+02 0.2142000D+02 0.7950000D+01 0.8815000D+00 0.1950000D+05
EXPONENTS  0.2923000D+04 0.6645000D+03 0.1875000D+03 0.6062000D+02 0.2142000D+02
EXPONENTS  0.7950000D+01 0.8815000D+00 0.2257000D+01 0.3041000D+00 0.9158000D-01
EXPONENTS  0.4388000D+02 0.9926000D+01 0.2930000D+01 0.4388000D+02 0.9926000D+01
EXPONENTS  0.2930000D+01 0.4388000D+02 0.9926000D+01 0.2930000D+01 0.9132000D+00
EXPONENTS  0.9132000D+00 0.9132000D+00 0.2672000D+00 0.2672000D+00 0.2672000D+00
EXPONENTS  0.7361000D-01 0.7361000D-01 0.7361000D-01 0.3107000D+01 0.3107000D+01
EXPONENTS  0.3107000D+01 0.3107000D+01 0.3107000D+01 0.3107000D+01 0.8550000D+00
EXPONENTS  0.8550000D+00 0.8550000D+00 0.8550000D+00 0.8550000D+00 0.8550000D+00
EXPONENTS  0.2920000D+00 0.2920000D+00 0.2920000D+00 0.2920000D+00 0.2920000D+00
EXPONENTS  0.2920000D+00 0.1917000D+01 0.1917000D+01 0.1917000D+01 0.1917000D+01
EXPONENTS  0.1917000D+01 0.1917000D+01 0.1917000D+01 0.1917000D+01 0.1917000D+01
EXPONENTS  0.1917000D+01 0.7240000D+00 0.7240000D+00 0.7240000D+00 0.7240000D+00
EXPONENTS  0.7240000D+00 0.7240000D+00 0.7240000D+00 0.7240000D+00 0.7240000D+00
EXPONENTS  0.7240000D+00 0.1950000D+05 0.2923000D+04 0.6645000D+03 0.1875000D+03
EXPONENTS  0.6062000D+02 0.2142000D+02 0.7950000D+01 0.8815000D+00 0.1950000D+05
EXPONENTS  0.2923000D+04 0.6645000D+03 0.1875000D+03 0.6062000D+02 0.2142000D+02
EXPONENTS  0.7950000D+01 0.8815000D+00 0.2257000D+01 0.3041000D+00 0.9158000D-01
EXPONENTS  0.4388000D+02 0.9926000D+01 0.2930000D+01 0.4388000D+02 0.9926000D+01
EXPONENTS  0.2930000D+01 0.4388000D+02 0.9926000D+01 0.2930000D+01 0.9132000D+00
EXPONENTS  0.9132000D+00 0.9132000D+00 0.2672000D+00 0.2672000D+00 0.2672000D+00
EXPONENTS  0.7361000D-01 0.7361000D-01 0.7361000D-01 0.3107000D+01 0.3107000D+01
EXPONENTS  0.3107000D+01 0.3107000D+01 0.3107000D+01 0.3107000D+01 0.8550000D+00
EXPONENTS  0.8550000D+00 0.8550000D+00 0.8550000D+00 0.8550000D+00 0.8550000D+00
EXPONENTS  0.2920000D+00 0.2920000D+00 0.2920000D+00 0.2920000D+00 0.2920000D+00
EXPONENTS  0.2920000D+00 0.1917000D+01 0.1917000D+01 0.1917000D+01 0.1917000D+01
EXPONENTS  0.1917000D+01 0.1917000D+01 0.1917000D+01 0.1917000D+01 0.1917000D+01
EXPONENTS  0.1917000D+01 0.7240000D+00 0.7240000D+00 0.7240000D+00 0.7240000D+00
EXPONENTS  0.7240000D+00 0.7240000D+00 0.7240000D+00 0.7240000D+00 0.7240000D+00
EXPONENTS  0.7240000D+00 0.1950000D+05 0.2923000D+04 0.6645000D+03 0.1875000D+03
EXPONENTS  0.6062000D+02 0.2142000D+02 0.7950000D+01 0.8815000D+00 0.1950000D+05
EXPONENTS  0.2923000D+04 0.6645000D+03 0.1875000D+03 0.6062000D+02 0.2142000D+02
EXPONENTS  0.7950000D+01 0.8815000D+00 0.2257000D+01 0.3041000D+00 0.9158000D-01
EXPONENTS  0.4388000D+02 0.9926000D+01 0.2930000D+01 0.4388000D+02 0.9926000D+01
EXPONENTS  0.2930000D+01 0.4388000D+02 0.9926000D+01 0.2930000D+01 0.9132000D+00
EXPONENTS  0.9132000D+00 0.9132000D+00 0.2672000D+00 0.2672000D+00 0.2672000D+00
EXPONENTS  0.7361000D-01 0.7361000D-01 0.7361000D-01 0.3107000D+01 0.3107000D+01
EXPONENTS  0.3107000D+01 0.3107000D+01 0.3107000D+01 0.3107000D+01 0.8550000D+00
EXPONENTS  0.8550000D+00 0.8550000D+00 0.8550000D+00 0.8550000D+00 0.8550000D+00
EXPONENTS  0.2920000D+00 0.2920000D+00 0.2920000D+00 0.2920000D+00 0.2920000D+00
EXPONENTS  0.2920000D+00 0.1917000D+01 0.1917000D+01 0.1917000D+01 0.1917000D+01
EXPONENTS  0.1917000D+01 0.1917000D+01 0.1917000D+01 0.1917000D+01 0.1917000D+01
EXPONENTS  0.1917000D+01 0.7240000D+00 0.7240000D+00 0.7240000D+00 0.7240000D+00
EXPONENTS  0.7240000D+00 0.7240000D+00 0.7240000D+00 0.7240000D+00 0.7240000D+00
EXPONENTS  0.7240000D+00 0.1950000D+05 0.2923000D+04 0.6645000D+03 0.1875000D+03
EXPONENTS  0.6062000D+02 0.2142000D+02 0.7950000D+01 0.8815000D+00 0.1950000D+05
EXPONENTS  0.2923000D+04 0.6645000D+03 0.1875000D+03 0.6062000D+02 0.2142000D+02
EXPONENTS  0.7950000D+01 0.8815000D+00 0.2257000D+01 0.3041000D+00 0.9158000D-01
EXPONENTS  0.4388000D+02 0.9926000D+01 0.2930000D+01 0.4388000D+02 0.9926000D+01
EXPONENTS  0.2930000D+01 0.4388000D+02 0.9926000D+01 0.2930000D+01 0.9132000D+00
EXPONENTS  0.9132000D+00 0.9132000D+00 0.2672000D+00 0.2672000D+00 0.2672000D+00
EXPONENTS  0.7361000D-01 0.7361000D-01 0.7361000D-01 0.3107000D+01 0.3107000D+01
EXPONENTS  0.3107000D+01 0.3107000D+01 0.3107000D+01 0.3107000D+01 0.8550000D+00
EXPONENTS  0.8550000D+00 0.8550000D+00 0.8550000D+00 0.8550000D+00 0.8550000D+00
EXPONENTS  0.2920000D+00 0.2920000D+00 0.2920000D+00 0.2920000D+00 0.2920000D+00
EXPONENTS  0.2920000D+00 0.1917000D+01 0.1917000D+01 0.1917000D+01 0.1917000D+01
EXPONENTS  0.1917000D+01 0.1917000D+01 0.1917000D+01 0.1917000D+01 0.1917000D+01
EXPONENTS  0.1917000D+01 0.7240000D+00 0.7240000D+00 0.7240000D+00 0.7240000D+00
EXPONENTS  0.7240000D+00 0.7240000D+00 0.7240000D+00 0.7240000D+00 0.7240000D+00
EXPONENTS  0.7240000D+00 0.1950000D+05 0.2923000D+04 0.6645000D+03 0.1875000D+03
EXPONENTS  0.6062000D+02 0.2142000D+02 0.7950000D+01 0.8815000D+00 0.1950000D+05
EXPONENTS  0.2923000D+04 0.6645000D+03 0.1875000D+03 0.6062000D+02 0.2142000D+02
EXPONENTS  0.7950000D+01 0.8815000D+00 0.2257000D+01 0.3041000D+00 0.9158000D-01
EXPONENTS  0.4388000D+02 0.9926000D+01 0.2930000D+01 0.4388000D+02 0.9926000D+01
EXPONENTS  0.2930000D+01 0.4388000D+02 0.9926000D+01 0.2930000D+01 0.9132000D+00
EXPONENTS  0.9132000D+00 0.9132000D+00 0.2672000D+00 0.2672000D+00 0.2672000D+00
EXPONENTS  0.7361000D-01 0.7361000D-01 0.7361000D-01 0.3107000D+01 0.3107000D+01
EXPONENTS  0.3107000D+01 0.3107000D+01 0.3107000D+01 0.3107000D+01 0.8550000D+00
EXPONENTS  0.8550000D+00 0.8550000D+00 0.8550000D+00 0.8550000D+00 0.8550000D+00
EXPONENTS  0.2920000D+00 0.2920000D+00 0.2920000D+00 0.2920000D+00 0.2920000D+00
EXPONENTS  0.2920000D+00 0.1917000D+01 0.1917000D+01 0.1917000D+01 0.1917000D+01
EXPONENTS  0.1917000D+01 0.1917000D+01 0.1917000D+01 0.1917000D+01 0.1917000D+01
EXPONENTS  0.1917000D+01 0.7240000D+00 0.7240000D+00 0.7240000D+00 0.7240000D+00
EXPONENTS  0.7240000D+00 0.7240000D+00 0.7240000D+00 0.7240000D+00 0.7240000D+00
EXPONENTS  0.7240000D+00
MO    1     MO 0.0        OCC NO =    2.0000000  ORB. ENERGY =  -90.395778
  0.58540813D+00  0.10943865D+01  0.18914415D+01  0.30593218D+01  0.46239858D+01
  0.63679872D+01  0.74427006D+01  0.64310548D+01  0.29994669D+01  0.40726280D+00
  0.10905494D-02  0.21392072D-02  0.97663744D-04 -0.16545457D-02 -0.30899345D-02
 -0.53599696D-02 -0.86910053D-02 -0.13380792D-01 -0.19057254D-01 -0.24505154D-01
 -0.25723120D-01 -0.18188069D-01  0.40278240D-03  0.13068362D-01  0.71957950D-02
 -0.30430895D-04  0.78827724D-03  0.14710419D-02  0.25550238D-02  0.41385716D-02
  0.63928820D-02  0.91140138D-02  0.11854355D-01  0.12633547D-01  0.93700389D-02
 -0.29165452D-03 -0.84887671D-02 -0.83160619D-02  0.38840941D-02 -0.34317109D-02
 -0.59629303D-03 -0.85658323D-04 -0.56381124D-14 -0.73968965D-14 -0.81132680D-14
 -0.66757255D-14 -0.35195745D-14 -0.91562694D-15  0.10132346D-17 -0.17019718D-14
 -0.22328944D-14 -0.24491448D-14 -0.20151951D-14 -0.10624507D-14 -0.27639946D-15
  0.30586419D-18 -0.50056303D-13 -0.65671143D-13 -0.72031235D-13 -0.59268441D-13
 -0.31247494D-13 -0.81291211D-14  0.89957013D-17  0.50570089D-14  0.66398835D-14
  0.74703166D-14  0.62943065D-14  0.35209468D-14  0.87635650D-15 -0.40193932D-15
  0.16398637D-14  0.21531511D-14  0.24224401D-14  0.20410889D-14  0.11417565D-14
  0.28418088D-15 -0.13033904D-15  0.45334794D-13  0.59524861D-13  0.66969482D-13
  0.56426852D-13  0.31564390D-13  0.78563124D-14 -0.36032834D-14  0.26409327D-15
  0.12558284D-16  0.20390616D-14 -0.23624436D-15  0.14806164D-15 -0.11389188D-14
  0.47321126D-17 -0.65778199D-17  0.57895001D-16 -0.89559239D-15 -0.38825395D-14
  0.47781319D-14 -0.22714334D-18 -0.42360431D-18 -0.26506923D-17 -0.13745980D-14
 -0.25093912D-15  0.16255371D-14  0.41579462D-18  0.21261137D-18  0.20477248D-17
  0.13403291D-14  0.54313170D-15 -0.18834608D-14 -0.11132836D-19 -0.64127599D-20
 -0.34041006D-18 -0.61135360D-16 -0.26514788D-16 -0.57265537D-15  0.11480144D-15
  0.14585333D-16  0.85881069D-15  0.68604641D-16  0.64959033D-16  0.85915542D-15
  0.20381682D-20 -0.27436888D-16  0.29795292D-16 -0.15649714D-15 -0.37208204D-16
  0.46010723D-16  0.23486855D-15  0.11951887D-15 -0.13539660D-15  0.23462287D-15
  0.96668535D-20  0.37255921D-04  0.69446651D-04  0.11772915D-03  0.17827663D-03
  0.22293555D-03  0.19192674D-03  0.73783645D-04 -0.31971661D-06 -0.26637524D-04
 -0.50020553D-04 -0.85176376D-04 -0.13342829D-03 -0.17880960D-03 -0.19233384D-03
 -0.11547698D-03  0.75942523D-04  0.18147173D-04  0.16151531D-04  0.20659005D-04
 -0.15925973D-17 -0.15575254D-17 -0.10291229D-17 -0.14064150D-16 -0.13754432D-16
 -0.90881346D-17  0.72760142D-04  0.71157830D-04  0.47016987D-04  0.17741554D-16
 -0.50251856D-17  0.60624839D-04 -0.13260635D-15  0.15165403D-15 -0.19153475D-03
 -0.90304384D-17  0.52289141D-17 -0.67777709D-05 -0.19891875D-03 -0.19891875D-03
  0.39783751D-03 -0.23817078D-19  0.43133396D-16 -0.81675159D-16  0.65801944D-04
  0.65801944D-04 -0.13160389D-03  0.30238814D-20 -0.11160010D-16  0.31208719D-16
  0.66690470D-04  0.66690470D-04 -0.13338094D-03  0.22668550D-19 -0.82421664D-16
  0.88465306D-16 -0.20954800D-16  0.45484907D-16  0.55170889D-03 -0.57470412D-16
 -0.12800529D-17 -0.82756333D-03  0.12033481D-15 -0.13517467D-15 -0.82756333D-03
 -0.38622309D-18  0.86243067D-17 -0.15404155D-16 -0.23403571D-03  0.21726686D-16
 -0.46719625D-17  0.35105356D-03 -0.47599606D-16  0.50884427D-16  0.35105356D-03
  0.12610800D-18  0.37255921D-04  0.69446651D-04  0.11772915D-03  0.17827663D-03
  0.22293555D-03  0.19192674D-03  0.73783645D-04 -0.31971661D-06 -0.26637524D-04
 -0.50020553D-04 -0.85176376D-04 -0.13342829D-03 -0.17880960D-03 -0.19233384D-03
 -0.11547698D-03  0.75942523D-04  0.18147173D-04  0.16151531D-04  0.20659005D-04
 -0.72760142D-04 -0.71157830D-04 -0.47016987D-04 -0.25633114D-16 -0.25068626D-16
 -0.16563901D-16 -0.11036998D-15 -0.10793943D-15 -0.71320145D-16 -0.60624839D-04
  0.31869875D-16  0.12905985D-15  0.19153475D-03 -0.98809854D-16 -0.25707973D-15
  0.67777709D-05  0.70291071D-17 -0.87843213D-16  0.39783751D-03 -0.19891875D-03
 -0.19891875D-03 -0.13442725D-15  0.30652714D-15  0.99586943D-19 -0.13160389D-03
  0.65801944D-04  0.65801944D-04  0.49207388D-16 -0.16937358D-15 -0.16949748D-18
 -0.13338094D-03  0.66690470D-04  0.66690470D-04  0.35694782D-16  0.23116431D-15
  0.32218899D-18 -0.55170889D-03  0.37566650D-16 -0.13454730D-15  0.82756333D-03
  0.12392043D-16  0.38857178D-15  0.82756333D-03 -0.12509199D-15  0.15070110D-16
  0.46255479D-17  0.23403571D-03 -0.10151717D-16  0.48973242D-16 -0.35105356D-03
 -0.14793438D-16 -0.15371586D-15 -0.35105356D-03  0.45248588D-16  0.67961304D-17
 -0.14502465D-17  0.37255921D-04  0.69446651D-04  0.11772915D-03  0.17827663D-03
  0.22293555D-03  0.19192674D-03  0.73783645D-04 -0.31971661D-06 -0.26637524D-04
 -0.50020553D-04 -0.85176376D-04 -0.13342829D-03 -0.17880960D-03 -0.19233384D-03
 -0.11547698D-03  0.75942523D-04  0.18147173D-04  0.16151531D-04  0.20659005D-04
  0.72760142D-04  0.71157830D-04  0.47016987D-04 -0.25653191D-16 -0.25088261D-16
 -0.16576875D-16 -0.11084426D-15 -0.10840326D-15 -0.71626620D-16  0.60624839D-04
  0.31912297D-16  0.12940452D-15 -0.19153475D-03 -0.98945767D-16 -0.25743594D-15
 -0.67777709D-05  0.70681638D-17 -0.87906238D-16  0.39783751D-03 -0.19891875D-03
 -0.19891875D-03  0.13488249D-15 -0.30777703D-15  0.10897866D-18 -0.13160389D-03
  0.65801944D-04  0.65801944D-04 -0.49412766D-16  0.16985549D-15 -0.15617755D-18
 -0.13338094D-03  0.66690470D-04  0.66690470D-04 -0.35720846D-16 -0.23159669D-15
  0.32817709D-18  0.55170889D-03  0.37539148D-16 -0.13536723D-15 -0.82756333D-03
  0.12382300D-16  0.39215446D-15 -0.82756333D-03 -0.12499974D-15  0.13947234D-16
 -0.46333890D-17 -0.23403571D-03 -0.10129021D-16  0.49200898D-16  0.35105356D-03
 -0.14843349D-16 -0.15466117D-15  0.35105356D-03  0.45230411D-16  0.70584735D-17
  0.14839314D-17  0.37255921D-04  0.69446651D-04  0.11772915D-03  0.17827663D-03
  0.22293555D-03  0.19192674D-03  0.73783645D-04 -0.31971661D-06 -0.26637524D-04
 -0.50020553D-04 -0.85176376D-04 -0.13342829D-03 -0.17880960D-03 -0.19233384D-03
 -0.11547698D-03  0.75942523D-04  0.18147173D-04  0.16151531D-04  0.20659005D-04
  0.92688424D-17  0.90647254D-17  0.59894473D-17 -0.72760142D-04 -0.71157830D-04
 -0.47016987D-04 -0.11059309D-15 -0.10815762D-15 -0.71464314D-16 -0.14960009D-16
 -0.60624839D-04  0.12874996D-15  0.84747978D-16  0.19153475D-03 -0.25582765D-15
 -0.10633192D-16  0.67777709D-05 -0.87723465D-16 -0.19891875D-03  0.39783751D-03
 -0.19891875D-03  0.14264627D-15 -0.16720085D-18  0.30598472D-15  0.65801944D-04
 -0.13160389D-03  0.65801944D-04 -0.57759419D-16  0.50521958D-19 -0.16915851D-15
  0.66690470D-04 -0.13338094D-03  0.66690470D-04 -0.25317887D-16  0.13200229D-19
  0.23023224D-15 -0.12666687D-16 -0.55170889D-03 -0.13371131D-15 -0.11637539D-16
  0.82756333D-03  0.14615213D-16  0.49637599D-16  0.82756333D-03  0.38651872D-15
  0.47918363D-18  0.37753106D-17  0.23403571D-03  0.48659187D-16  0.98335100D-17
 -0.35105356D-03  0.67937208D-17 -0.21159442D-16 -0.35105356D-03 -0.15277128D-15
 -0.15731692D-18  0.37255921D-04  0.69446651D-04  0.11772915D-03  0.17827663D-03
  0.22293555D-03  0.19192674D-03  0.73783645D-04 -0.31971661D-06 -0.26637524D-04
 -0.50020553D-04 -0.85176376D-04 -0.13342829D-03 -0.17880960D-03 -0.19233384D-03
 -0.11547698D-03  0.75942523D-04  0.18147173D-04  0.16151531D-04  0.20659005D-04
  0.92896294D-17  0.90850546D-17  0.60028797D-17  0.72760142D-04  0.71157830D-04
  0.47016987D-04 -0.11284026D-15 -0.11035531D-15 -0.72916417D-16 -0.14919158D-16
  0.60624839D-04  0.13075662D-15  0.84604847D-16 -0.19153475D-03 -0.25845311D-15
 -0.10678801D-16 -0.67777709D-05 -0.87874210D-16 -0.19891875D-03  0.39783751D-03
 -0.19891875D-03 -0.14310647D-15 -0.34676059D-19 -0.30536770D-15  0.65801944D-04
 -0.13160389D-03  0.65801944D-04  0.57913083D-16  0.22412110D-20  0.16916115D-15
  0.66690470D-04 -0.13338094D-03  0.66690470D-04  0.25142834D-16  0.31912991D-19
 -0.23200367D-15 -0.12986799D-16  0.55170889D-03 -0.13634316D-15 -0.10551794D-16
 -0.82756333D-03  0.13883379D-16  0.49512190D-16 -0.82756333D-03  0.39514611D-15
 -0.61162794D-18  0.38575340D-17 -0.23403571D-03  0.49563320D-16  0.95448209D-17
  0.35105356D-03  0.71328947D-17 -0.21117423D-16  0.35105356D-03 -0.15582285D-15
  0.20842325D-18  0.37255921D-04  0.69446651D-04  0.11772915D-03  0.17827663D-03
  0.22293555D-03  0.19192674D-03  0.73783645D-04 -0.31971661D-06 -0.26637524D-04
 -0.50020553D-04 -0.85176376D-04 -0.13342829D-03 -0.17880960D-03 -0.19233384D-03
 -0.11547698D-03  0.75942523D-04  0.18147173D-04  0.16151531D-04  0.20659005D-04
 -0.17744053D-17 -0.17353296D-17 -0.11466056D-17 -0.14946682D-16 -0.14617528D-16
 -0.96584189D-17 -0.72760142D-04 -0.71157830D-04 -0.47016987D-04  0.17797400D-16
 -0.52496429D-17 -0.60624839D-04 -0.13244438D-15  0.15346705D-15  0.19153475D-03
 -0.91006762D-17  0.53443333D-17  0.67777709D-05 -0.19891875D-03 -0.19891875D-03
  0.39783751D-03  0.13364968D-20 -0.41337369D-16  0.85794069D-16  0.65801944D-04
  0.65801944D-04 -0.13160389D-03 -0.87167194D-20  0.10463038D-16 -0.32782972D-16
  0.66690470D-04  0.66690470D-04 -0.13338094D-03  0.16064182D-19  0.82449410D-16
 -0.89426540D-16 -0.20621511D-16  0.48010277D-16 -0.55170889D-03 -0.58148348D-16
 -0.35569027D-17  0.82756333D-03  0.12001288D-15 -0.14047393D-15  0.82756333D-03
  0.33773495D-18  0.85032315D-17 -0.16252262D-16  0.23403571D-03  0.21889204D-16
 -0.42465453D-17 -0.35105356D-03 -0.47398899D-16  0.53003331D-16 -0.35105356D-03
 -0.99681445D-19
MO    2     MO 0.0        OCC NO =    2.0000000  ORB. ENERGY =  -25.324160
  0.90909928D-15  0.16995083D-14  0.29372809D-14  0.47509201D-14  0.71807375D-14
  0.98890538D-14  0.11558011D-13  0.99869937D-14  0.46579694D-14  0.63245162D-15
  0.16935496D-17  0.33220442D-17  0.15166520D-18 -0.10731135D-14 -0.20040852D-14
 -0.34763960D-14 -0.56368558D-14 -0.86785813D-14 -0.12360249D-13 -0.15893676D-13
 -0.16683630D-13 -0.11796509D-13  0.26123863D-15  0.84759440D-14  0.46670848D-14
 -0.19737023D-16  0.19009066D-15  0.35473729D-15  0.61613621D-15  0.99800396D-15
  0.15416240D-14  0.21978167D-14  0.28586416D-14  0.30465414D-14  0.22595564D-14
 -0.70331600D-16 -0.20470404D-14 -0.20053930D-14  0.93663748D-15 -0.24424064D-13
  0.75088533D-13  0.33080490D-13 -0.38280403D-12 -0.50221805D-12 -0.55085665D-12
 -0.45325358D-12 -0.23896425D-12 -0.62167204D-13  0.68794349D-16 -0.16089641D-10
 -0.21108733D-10 -0.23153063D-10 -0.19050707D-10 -0.10043910D-10 -0.26129506D-11
  0.28914962D-14 -0.75691971D-10 -0.99303744D-10 -0.10892107D-09 -0.89621983D-10
 -0.47250482D-10 -0.12292342D-10  0.13602730D-13  0.35125712D-12  0.46120273D-12
  0.51888417D-12  0.43719914D-12  0.24456307D-12  0.60871251D-13 -0.27918489D-13
  0.14594681D-10  0.19162905D-10  0.21559560D-10  0.18165559D-10  0.10161559D-10
  0.25291914D-11 -0.11600090D-11  0.68669486D-10  0.90163453D-10  0.10143996D-09
  0.85470839D-10  0.47811189D-10  0.11900108D-10 -0.54579628D-11  0.19735087D-13
  0.83770106D-12  0.39377502D-11  0.11179562D-13 -0.12690581D-12 -0.55916454D-12
 -0.89568316D-15  0.68473105D-14  0.28428678D-13  0.79057490D-03 -0.66649273D-03
 -0.12408216D-03 -0.52177616D-16 -0.14245256D-15  0.71969057D-16 -0.24421931D-03
  0.20588864D-03  0.38330663D-04  0.66443593D-17  0.17583639D-15 -0.16228421D-16
  0.69540109D-04 -0.58625662D-04 -0.10914446D-04 -0.11012492D-16 -0.19439871D-17
  0.12347174D-17 -0.83025821D-14 -0.28194765D-12 -0.13285839D-11  0.12725045D-13
  0.42292571D-12  0.19910949D-11  0.12182701D-13  0.42291725D-12  0.19946567D-11
  0.77361833D-16  0.22542275D-14 -0.22022654D-14 -0.47386604D-14 -0.29964198D-14
  0.36971952D-14  0.12557956D-13 -0.37662628D-14  0.29096010D-14  0.16580248D-14
 -0.41428195D-18 -0.50149734D-01 -0.93481276D-01 -0.15847375D+00 -0.23997596D+00
 -0.30009077D+00 -0.25835020D+00 -0.99319250D-01  0.43036657D-03 -0.23043867D-04
 -0.43272302D-04 -0.73685267D-04 -0.11542753D-03 -0.15468648D-03 -0.16638616D-03
 -0.99898032D-04  0.65697149D-04 -0.50705947D-02  0.62334733D-04  0.75796209D-04
  0.88028054D-15  0.86089514D-15  0.56882982D-15  0.42747348D-13  0.41805973D-13
  0.27622974D-13 -0.60920743D-03 -0.59579156D-03 -0.39366467D-03 -0.70791379D-15
 -0.23306788D-13  0.10672841D-03  0.36451783D-14  0.18288434D-13  0.73924382D-04
  0.80572384D-15 -0.12841640D-13  0.77471322D-05  0.32392573D-03 -0.22612244D-03
 -0.97803293D-04  0.28238109D-16  0.19240907D-14 -0.37244120D-13 -0.98746073D-04
  0.56528701D-04  0.42217372D-04 -0.12074116D-16 -0.20371319D-14 -0.10786661D-13
 -0.47723870D-04  0.36416014D-04  0.11307856D-04  0.10400929D-16  0.35591019D-14
  0.15662224D-13  0.32630673D-14  0.23809443D-13 -0.22009577D-04  0.23948960D-14
  0.13089996D-12  0.11773308D-02 -0.12184098D-13 -0.20232829D-12 -0.11113021D-02
 -0.44420629D-16 -0.86930989D-15 -0.52207843D-15  0.69327618D-05 -0.40139801D-15
 -0.30052397D-13 -0.40469665D-03  0.30093277D-14  0.31618632D-13  0.38389837D-03
  0.28994351D-16  0.31952313D+00  0.59560496D+00  0.10096968D+01  0.15289786D+01
  0.19119931D+01  0.16460480D+01  0.63280093D+00 -0.27420300D-02  0.14682129D-03
  0.27570438D-03  0.46947701D-03  0.73543296D-03  0.98556669D-03  0.10601099D-02
  0.63648857D-03 -0.41858166D-03  0.32306698D-01 -0.39715842D-03 -0.48292663D-03
 -0.38814935D-02 -0.37960159D-02 -0.25081882D-02  0.42566311D-13  0.41628922D-13
  0.27505989D-13  0.19779747D-12  0.19344161D-12  0.12781505D-12  0.68000751D-03
 -0.22991087D-13 -0.10642617D-12  0.47100051D-03  0.17084656D-13  0.81658758D-13
  0.49359942D-04 -0.12841061D-13 -0.56464374D-13  0.62314220D-03 -0.41395205D-03
 -0.20919015D-03  0.36114382D-13  0.15703865D-12  0.90817534D-16 -0.26898303D-03
  0.16339295D-03  0.10559008D-03  0.10977963D-13  0.57789263D-13 -0.91912350D-17
 -0.72046679D-04  0.51684370D-04  0.20362308D-04 -0.14979530D-13 -0.75177086D-13
 -0.53129285D-17 -0.14023144D-03  0.23581475D-13  0.11708589D-12  0.63633242D-03
 -0.20070578D-12 -0.95504519D-12 -0.21563810D-03  0.12996135D-12  0.60378752D-12
 -0.43054857D-15  0.44171281D-04 -0.45629013D-15 -0.41742652D-14 -0.21303881D-03
  0.31106974D-13  0.14938480D-12  0.80524967D-04 -0.29738104D-13 -0.13686201D-12
  0.66622308D-16  0.31952313D+00  0.59560496D+00  0.10096968D+01  0.15289786D+01
  0.19119931D+01  0.16460480D+01  0.63280093D+00 -0.27420300D-02  0.14682129D-03
  0.27570438D-03  0.46947701D-03  0.73543296D-03  0.98556669D-03  0.10601099D-02
  0.63648857D-03 -0.41858166D-03  0.32306698D-01 -0.39715842D-03 -0.48292663D-03
  0.38814935D-02  0.37960159D-02  0.25081882D-02  0.42356398D-13  0.41423632D-13
  0.27370345D-13  0.19774272D-12  0.19338806D-12  0.12777967D-12 -0.68000751D-03
 -0.22915968D-13 -0.10642218D-12 -0.47100051D-03  0.17029159D-13  0.81613391D-13
 -0.49359942D-04 -0.12850432D-13 -0.56467519D-13  0.62314220D-03 -0.41395205D-03
 -0.20919015D-03 -0.36133738D-13 -0.15709408D-12  0.72876996D-16 -0.26898303D-03
  0.16339295D-03  0.10559008D-03 -0.11035088D-13 -0.57840506D-13 -0.11090753D-16
 -0.72046679D-04  0.51684370D-04  0.20362308D-04  0.14965397D-13  0.75156937D-13
 -0.47951391D-17  0.14023144D-03  0.23563863D-13  0.11704234D-12 -0.63633242D-03