 Molden2AIM, Version 4.0.0 (06/02/2016)           Time: Thu Jun 28 06:43:07 2018
GAUSSIAN             17 MOL ORBITALS    424 PRIMITIVES        8 NUCLEI
  Si   1    (CENTRE  1)   0.00000000  0.00000189  2.21922066  CHARGE = 14.0
  Si   2    (CENTRE  2)   0.00000000 -0.00000189 -2.21922066  CHARGE = 14.0
  H    3    (CENTRE  3)   0.00000000  2.65808688  3.19919861  CHARGE =  1.0
  H    4    (CENTRE  4)  -2.30197177 -1.32904060  3.19919106  CHARGE =  1.0
  H    5    (CENTRE  5)   2.30197177 -1.32904060  3.19919106  CHARGE =  1.0
  H    6    (CENTRE  6)   0.00000000 -2.65808688 -3.19919861  CHARGE =  1.0
  H    7    (CENTRE  7)  -2.30197177  1.32904060 -3.19919106  CHARGE =  1.0
  H    8    (CENTRE  8)   2.30197177  1.32904060 -3.19919106  CHARGE =  1.0
CENTRE ASSIGNMENTS    1  1  1  1  1  1  1  1  1  1  1  1  1  1  1  1  1  1  1  1
CENTRE ASSIGNMENTS    1  1  1  1  1  1  1  1  1  1  1  1  1  1  1  1  1  1  1  1
CENTRE ASSIGNMENTS    1  1  1  1  1  1  1  1  1  1  1  1  1  1  1  1  1  1  1  1
CENTRE ASSIGNMENTS    1  1  1  1  1  1  1  1  1  1  1  1  1  1  1  1  1  1  1  1
CENTRE ASSIGNMENTS    1  1  1  1  1  1  1  1  1  1  1  1  1  1  1  1  1  1  1  1
CENTRE ASSIGNMENTS    1  1  1  1  1  1  1  1  1  1  1  1  1  1  1  1  1  1  1  1
CENTRE ASSIGNMENTS    1  1  1  1  1  1  1  1  1  1  1  2  2  2  2  2  2  2  2  2
CENTRE ASSIGNMENTS    2  2  2  2  2  2  2  2  2  2  2  2  2  2  2  2  2  2  2  2
CENTRE ASSIGNMENTS    2  2  2  2  2  2  2  2  2  2  2  2  2  2  2  2  2  2  2  2
CENTRE ASSIGNMENTS    2  2  2  2  2  2  2  2  2  2  2  2  2  2  2  2  2  2  2  2
CENTRE ASSIGNMENTS    2  2  2  2  2  2  2  2  2  2  2  2  2  2  2  2  2  2  2  2
CENTRE ASSIGNMENTS    2  2  2  2  2  2  2  2  2  2  2  2  2  2  2  2  2  2  2  2
CENTRE ASSIGNMENTS    2  2  2  2  2  2  2  2  2  2  2  2  2  2  2  2  2  2  2  2
CENTRE ASSIGNMENTS    2  2  3  3  3  3  3  3  3  3  3  3  3  3  3  3  3  3  3  3
CENTRE ASSIGNMENTS    3  3  3  3  3  3  3  3  3  4  4  4  4  4  4  4  4  4  4  4
CENTRE ASSIGNMENTS    4  4  4  4  4  4  4  4  4  4  4  4  4  4  4  4  5  5  5  5
CENTRE ASSIGNMENTS    5  5  5  5  5  5  5  5  5  5  5  5  5  5  5  5  5  5  5  5
CENTRE ASSIGNMENTS    5  5  5  6  6  6  6  6  6  6  6  6  6  6  6  6  6  6  6  6
CENTRE ASSIGNMENTS    6  6  6  6  6  6  6  6  6  6  7  7  7  7  7  7  7  7  7  7
CENTRE ASSIGNMENTS    7  7  7  7  7  7  7  7  7  7  7  7  7  7  7  7  7  8  8  8
CENTRE ASSIGNMENTS    8  8  8  8  8  8  8  8  8  8  8  8  8  8  8  8  8  8  8  8
CENTRE ASSIGNMENTS    8  8  8  8
TYPE ASSIGNMENTS      1  1  1  1  1  1  1  1  1  1  1  1  1  1  1  1  1  1  1  1
TYPE ASSIGNMENTS      1  1  1  1  1  1  1  1  1  1  1  1  1  1  1  1  1  1  1  1
TYPE ASSIGNMENTS      1  1  2  2  2  2  2  2  2  3  3  3  3  3  3  3  4  4  4  4
TYPE ASSIGNMENTS      4  4  4  2  2  2  2  2  2  2  3  3  3  3  3  3  3  4  4  4
TYPE ASSIGNMENTS      4  4  4  4  2  3  4  2  3  4  2  3  4  5  6  7  8  9 10  5
TYPE ASSIGNMENTS      6  7  8  9 10  5  6  7  8  9 10 11 12 13 17 14 15 18 19 16
TYPE ASSIGNMENTS     20 11 12 13 17 14 15 18 19 16 20  1  1  1  1  1  1  1  1  1
TYPE ASSIGNMENTS      1  1  1  1  1  1  1  1  1  1  1  1  1  1  1  1  1  1  1  1
TYPE ASSIGNMENTS      1  1  1  1  1  1  1  1  1  1  1  1  1  2  2  2  2  2  2  2
TYPE ASSIGNMENTS      3  3  3  3  3  3  3  4  4  4  4  4  4  4  2  2  2  2  2  2
TYPE ASSIGNMENTS      2  3  3  3  3  3  3  3  4  4  4  4  4  4  4  2  3  4  2  3
TYPE ASSIGNMENTS      4  2  3  4  5  6  7  8  9 10  5  6  7  8  9 10  5  6  7  8
TYPE ASSIGNMENTS      9 10 11 12 13 17 14 15 18 19 16 20 11 12 13 17 14 15 18 19
TYPE ASSIGNMENTS     16 20  1  1  1  1  1  1  2  3  4  2  3  4  2  3  4  5  6  7
TYPE ASSIGNMENTS      8  9 10  5  6  7  8  9 10  1  1  1  1  1  1  2  3  4  2  3
TYPE ASSIGNMENTS      4  2  3  4  5  6  7  8  9 10  5  6  7  8  9 10  1  1  1  1
TYPE ASSIGNMENTS      1  1  2  3  4  2  3  4  2  3  4  5  6  7  8  9 10  5  6  7
TYPE ASSIGNMENTS      8  9 10  1  1  1  1  1  1  2  3  4  2  3  4  2  3  4  5  6
TYPE ASSIGNMENTS      7  8  9 10  5  6  7  8  9 10  1  1  1  1  1  1  2  3  4  2
TYPE ASSIGNMENTS      3  4  2  3  4  5  6  7  8  9 10  5  6  7  8  9 10  1  1  1
TYPE ASSIGNMENTS      1  1  1  2  3  4  2  3  4  2  3  4  5  6  7  8  9 10  5  6
TYPE ASSIGNMENTS      7  8  9 10
EXPONENTS  0.2549000D+06 0.3819000D+05 0.8690000D+04 0.2462000D+04 0.8048000D+03
EXPONENTS  0.2913000D+03 0.1136000D+03 0.4675000D+02 0.1982000D+02 0.7708000D+01
EXPONENTS  0.3340000D+01 0.1402000D+01 0.2070000D+00 0.2549000D+06 0.3819000D+05
EXPONENTS  0.8690000D+04 0.2462000D+04 0.8048000D+03 0.2913000D+03 0.1136000D+03
EXPONENTS  0.4675000D+02 0.1982000D+02 0.7708000D+01 0.3340000D+01 0.1402000D+01
EXPONENTS  0.2070000D+00 0.2549000D+06 0.3819000D+05 0.8690000D+04 0.2462000D+04
EXPONENTS  0.8048000D+03 0.2913000D+03 0.1136000D+03 0.4675000D+02 0.1982000D+02
EXPONENTS  0.7708000D+01 0.3340000D+01 0.1402000D+01 0.2070000D+00 0.4387000D+00
EXPONENTS  0.7944000D-01 0.3300000D-01 0.4815000D+03 0.1139000D+03 0.3623000D+02
EXPONENTS  0.1334000D+02 0.5252000D+01 0.2120000D+01 0.2528000D+00 0.4815000D+03
EXPONENTS  0.1139000D+03 0.3623000D+02 0.1334000D+02 0.5252000D+01 0.2120000D+01
EXPONENTS  0.2528000D+00 0.4815000D+03 0.1139000D+03 0.3623000D+02 0.1334000D+02
EXPONENTS  0.5252000D+01 0.2120000D+01 0.2528000D+00 0.4815000D+03 0.1139000D+03
EXPONENTS  0.3623000D+02 0.1334000D+02 0.5252000D+01 0.2120000D+01 0.2528000D+00
EXPONENTS  0.4815000D+03 0.1139000D+03 0.3623000D+02 0.1334000D+02 0.5252000D+01
EXPONENTS  0.2120000D+01 0.2528000D+00 0.4815000D+03 0.1139000D+03 0.3623000D+02
EXPONENTS  0.1334000D+02 0.5252000D+01 0.2120000D+01 0.2528000D+00 0.8561000D+00
EXPONENTS  0.8561000D+00 0.8561000D+00 0.7889000D-01 0.7889000D-01 0.7889000D-01
EXPONENTS  0.2370000D-01 0.2370000D-01 0.2370000D-01 0.1590000D+00 0.1590000D+00
EXPONENTS  0.1590000D+00 0.1590000D+00 0.1590000D+00 0.1590000D+00 0.4810000D+00
EXPONENTS  0.4810000D+00 0.4810000D+00 0.4810000D+00 0.4810000D+00 0.4810000D+00
EXPONENTS  0.5560000D-01 0.5560000D-01 0.5560000D-01 0.5560000D-01 0.5560000D-01
EXPONENTS  0.5560000D-01 0.3360000D+00 0.3360000D+00 0.3360000D+00 0.3360000D+00
EXPONENTS  0.3360000D+00 0.3360000D+00 0.3360000D+00 0.3360000D+00 0.3360000D+00
EXPONENTS  0.3360000D+00 0.1250000D+00 0.1250000D+00 0.1250000D+00 0.1250000D+00
EXPONENTS  0.1250000D+00 0.1250000D+00 0.1250000D+00 0.1250000D+00 0.1250000D+00
EXPONENTS  0.1250000D+00 0.2549000D+06 0.3819000D+05 0.8690000D+04 0.2462000D+04
EXPONENTS  0.8048000D+03 0.2913000D+03 0.1136000D+03 0.4675000D+02 0.1982000D+02
EXPONENTS  0.7708000D+01 0.3340000D+01 0.1402000D+01 0.2070000D+00 0.2549000D+06
EXPONENTS  0.3819000D+05 0.8690000D+04 0.2462000D+04 0.8048000D+03 0.2913000D+03
EXPONENTS  0.1136000D+03 0.4675000D+02 0.1982000D+02 0.7708000D+01 0.3340000D+01
EXPONENTS  0.1402000D+01 0.2070000D+00 0.2549000D+06 0.3819000D+05 0.8690000D+04
EXPONENTS  0.2462000D+04 0.8048000D+03 0.2913000D+03 0.1136000D+03 0.4675000D+02
EXPONENTS  0.1982000D+02 0.7708000D+01 0.3340000D+01 0.1402000D+01 0.2070000D+00
EXPONENTS  0.4387000D+00 0.7944000D-01 0.3300000D-01 0.4815000D+03 0.1139000D+03
EXPONENTS  0.3623000D+02 0.1334000D+02 0.5252000D+01 0.2120000D+01 0.2528000D+00
EXPONENTS  0.4815000D+03 0.1139000D+03 0.3623000D+02 0.1334000D+02 0.5252000D+01
EXPONENTS  0.2120000D+01 0.2528000D+00 0.4815000D+03 0.1139000D+03 0.3623000D+02
EXPONENTS  0.1334000D+02 0.5252000D+01 0.2120000D+01 0.2528000D+00 0.4815000D+03
EXPONENTS  0.1139000D+03 0.3623000D+02 0.1334000D+02 0.5252000D+01 0.2120000D+01
EXPONENTS  0.2528000D+00 0.4815000D+03 0.1139000D+03 0.3623000D+02 0.1334000D+02
EXPONENTS  0.5252000D+01 0.2120000D+01 0.2528000D+00 0.4815000D+03 0.1139000D+03
EXPONENTS  0.3623000D+02 0.1334000D+02 0.5252000D+01 0.2120000D+01 0.2528000D+00
EXPONENTS  0.8561000D+00 0.8561000D+00 0.8561000D+00 0.7889000D-01 0.7889000D-01
EXPONENTS  0.7889000D-01 0.2370000D-01 0.2370000D-01 0.2370000D-01 0.1590000D+00
EXPONENTS  0.1590000D+00 0.1590000D+00 0.1590000D+00 0.1590000D+00 0.1590000D+00
EXPONENTS  0.4810000D+00 0.4810000D+00 0.4810000D+00 0.4810000D+00 0.4810000D+00
EXPONENTS  0.4810000D+00 0.5560000D-01 0.5560000D-01 0.5560000D-01 0.5560000D-01
EXPONENTS  0.5560000D-01 0.5560000D-01 0.3360000D+00 0.3360000D+00 0.3360000D+00
EXPONENTS  0.3360000D+00 0.3360000D+00 0.3360000D+00 0.3360000D+00 0.3360000D+00
EXPONENTS  0.3360000D+00 0.3360000D+00 0.1250000D+00 0.1250000D+00 0.1250000D+00
EXPONENTS  0.1250000D+00 0.1250000D+00 0.1250000D+00 0.1250000D+00 0.1250000D+00
EXPONENTS  0.1250000D+00 0.1250000D+00 0.3387000D+02 0.5095000D+01 0.1159000D+01
EXPONENTS  0.3258000D+00 0.1027000D+00 0.2526000D-01 0.1407000D+01 0.1407000D+01
EXPONENTS  0.1407000D+01 0.3880000D+00 0.3880000D+00 0.3880000D+00 0.1020000D+00
EXPONENTS  0.1020000D+00 0.1020000D+00 0.1057000D+01 0.1057000D+01 0.1057000D+01
EXPONENTS  0.1057000D+01 0.1057000D+01 0.1057000D+01 0.2470000D+00 0.2470000D+00
EXPONENTS  0.2470000D+00 0.2470000D+00 0.2470000D+00 0.2470000D+00 0.3387000D+02
EXPONENTS  0.5095000D+01 0.1159000D+01 0.3258000D+00 0.1027000D+00 0.2526000D-01
EXPONENTS  0.1407000D+01 0.1407000D+01 0.1407000D+01 0.3880000D+00 0.3880000D+00
EXPONENTS  0.3880000D+00 0.1020000D+00 0.1020000D+00 0.1020000D+00 0.1057000D+01
EXPONENTS  0.1057000D+01 0.1057000D+01 0.1057000D+01 0.1057000D+01 0.1057000D+01
EXPONENTS  0.2470000D+00 0.2470000D+00 0.2470000D+00 0.2470000D+00 0.2470000D+00
EXPONENTS  0.2470000D+00 0.3387000D+02 0.5095000D+01 0.1159000D+01 0.3258000D+00
EXPONENTS  0.1027000D+00 0.2526000D-01 0.1407000D+01 0.1407000D+01 0.1407000D+01
EXPONENTS  0.3880000D+00 0.3880000D+00 0.3880000D+00 0.1020000D+00 0.1020000D+00
EXPONENTS  0.1020000D+00 0.1057000D+01 0.1057000D+01 0.1057000D+01 0.1057000D+01
EXPONENTS  0.1057000D+01 0.1057000D+01 0.2470000D+00 0.2470000D+00 0.2470000D+00
EXPONENTS  0.2470000D+00 0.2470000D+00 0.2470000D+00 0.3387000D+02 0.5095000D+01
EXPONENTS  0.1159000D+01 0.3258000D+00 0.1027000D+00 0.2526000D-01 0.1407000D+01
EXPONENTS  0.1407000D+01 0.1407000D+01 0.3880000D+00 0.3880000D+00 0.3880000D+00
EXPONENTS  0.1020000D+00 0.1020000D+00 0.1020000D+00 0.1057000D+01 0.1057000D+01
EXPONENTS  0.1057000D+01 0.1057000D+01 0.1057000D+01 0.1057000D+01 0.2470000D+00
EXPONENTS  0.2470000D+00 0.2470000D+00 0.2470000D+00 0.2470000D+00 0.2470000D+00
EXPONENTS  0.3387000D+02 0.5095000D+01 0.1159000D+01 0.3258000D+00 0.1027000D+00
EXPONENTS  0.2526000D-01 0.1407000D+01 0.1407000D+01 0.1407000D+01 0.3880000D+00
EXPONENTS  0.3880000D+00 0.3880000D+00 0.1020000D+00 0.1020000D+00 0.1020000D+00
EXPONENTS  0.1057000D+01 0.1057000D+01 0.1057000D+01 0.1057000D+01 0.1057000D+01
EXPONENTS  0.1057000D+01 0.2470000D+00 0.2470000D+00 0.2470000D+00 0.2470000D+00
EXPONENTS  0.2470000D+00 0.2470000D+00 0.3387000D+02 0.5095000D+01 0.1159000D+01
EXPONENTS  0.3258000D+00 0.1027000D+00 0.2526000D-01 0.1407000D+01 0.1407000D+01
EXPONENTS  0.1407000D+01 0.3880000D+00 0.3880000D+00 0.3880000D+00 0.1020000D+00
EXPONENTS  0.1020000D+00 0.1020000D+00 0.1057000D+01 0.1057000D+01 0.1057000D+01
EXPONENTS  0.1057000D+01 0.1057000D+01 0.1057000D+01 0.2470000D+00 0.2470000D+00
EXPONENTS  0.2470000D+00 0.2470000D+00 0.2470000D+00 0.2470000D+00
MO    1     MO 0.0        OCC NO =    2.0000000  ORB. ENERGY =  -67.025986
 -0.35816669D+00 -0.66997178D+00 -0.11570112D+01 -0.18688746D+01 -0.28144867D+01
 -0.38276887D+01 -0.43574355D+01 -0.35301203D+01 -0.14329456D+01 -0.13066493D+00
  0.50214821D-02 -0.16791475D-02 -0.94229949D-04  0.15262080D-02  0.28566411D-02
  0.49406706D-02  0.80301670D-02  0.12286090D-01  0.17434811D-01  0.21870522D-01
  0.22298892D-01  0.13700883D-01 -0.29859953D-02 -0.10937259D-01 -0.50023172D-02
  0.26552574D-04 -0.80428435D-03 -0.15042925D-02 -0.26050270D-02 -0.42296451D-02
 -0.64924196D-02 -0.92221924D-02 -0.11699814D-01 -0.12112469D-01 -0.78019015D-02
  0.19189183D-02  0.78221015D-02  0.68222335D-02 -0.34769654D-02  0.14915397D-02
  0.68210477D-02 -0.15959789D-03  0.53803047D-14  0.70968992D-14  0.78829117D-14
  0.67466613D-14  0.38549881D-14  0.12510277D-14  0.88088469D-18 -0.44694162D-08
 -0.58953904D-08 -0.65483305D-08 -0.56044479D-08 -0.32023365D-08 -0.10392280D-08
 -0.73175043D-12 -0.43939434D-02 -0.57958378D-02 -0.64377521D-02 -0.55098084D-02
 -0.31482602D-02 -0.10216791D-02 -0.71939372D-06 -0.45388129D-14 -0.62067683D-14
 -0.67473823D-14 -0.61937441D-14 -0.33758421D-14 -0.14245405D-14  0.49130675D-15
 -0.35197498D-08 -0.48132125D-08 -0.52324468D-08 -0.48031126D-08 -0.26178914D-08
 -0.11046999D-08  0.38099759D-09  0.38623137D-02  0.52816644D-02  0.57417012D-02
  0.52705814D-02  0.28726809D-02  0.12122162D-02 -0.41807866D-03 -0.32817007D-15
  0.13652909D-08  0.94242005D-04  0.88844131D-15 -0.24207675D-08 -0.37749666D-03
  0.83317840D-16  0.36529820D-10 -0.10157902D-04 -0.47772743D-04 -0.47773857D-04
  0.95546600D-04 -0.66191366D-15  0.12952801D-15  0.10384730D-08 -0.66217443D-04
 -0.66215445D-04  0.13243289D-03 -0.17231799D-15  0.10125475D-15 -0.23823595D-08
 -0.43680517D-05 -0.43681793D-05  0.87362310D-05 -0.81305269D-16 -0.37744617D-16
 -0.45382321D-10  0.11586758D-16 -0.82219141D-04  0.80120419D-04  0.56756732D-16
  0.24665761D-03 -0.12018049D-03 -0.91517005D-16 -0.18279433D-09 -0.12018077D-03
 -0.35294737D-15  0.55117359D-17  0.20520141D-04 -0.24499485D-04  0.15142644D-16
 -0.61560537D-04  0.36749451D-04 -0.31677852D-16  0.11512410D-09  0.36749004D-04
 -0.48948194D-16  0.35816670D+00  0.66997180D+00  0.11570112D+01  0.18688747D+01
  0.28144868D+01  0.38276888D+01  0.43574356D+01  0.35301204D+01  0.14329456D+01
  0.13066493D+00 -0.50214823D-02  0.16791475D-02  0.94229953D-04 -0.15262080D-02
 -0.28566412D-02 -0.49406708D-02 -0.80301673D-02 -0.12286090D-01 -0.17434811D-01
 -0.21870523D-01 -0.22298893D-01 -0.13700883D-01  0.29859954D-02  0.10937259D-01
  0.50023173D-02 -0.26552574D-04  0.80428437D-03  0.15042926D-02  0.26050271D-02
  0.42296452D-02  0.64924198D-02  0.92221927D-02  0.11699814D-01  0.12112469D-01
  0.78019018D-02 -0.19189183D-02 -0.78221017D-02 -0.68222337D-02  0.34769655D-02
 -0.14915398D-02 -0.68210477D-02  0.15959789D-03 -0.15290644D-14 -0.20169147D-14
 -0.22402968D-14 -0.19173783D-14 -0.10955746D-14 -0.35553783D-15 -0.25034445D-18
 -0.44694543D-08 -0.58954406D-08 -0.65483863D-08 -0.56044957D-08 -0.32023638D-08
 -0.10392369D-08 -0.73175667D-12 -0.43939434D-02 -0.57958378D-02 -0.64377521D-02
 -0.55098084D-02 -0.31482602D-02 -0.10216791D-02 -0.71939373D-06  0.13417340D-14
  0.18348039D-14  0.19946167D-14  0.18309538D-14  0.99794418D-15  0.42111328D-15
 -0.14523686D-15 -0.35197171D-08 -0.48131679D-08 -0.52323983D-08 -0.48030680D-08
 -0.26178671D-08 -0.11046896D-08  0.38099406D-09  0.38623138D-02  0.52816644D-02
  0.57417012D-02  0.52705815D-02  0.28726809D-02  0.12122162D-02 -0.41807866D-03
  0.59067160D-16  0.13652925D-08  0.94242004D-04 -0.58535318D-15 -0.24207734D-08
 -0.37749666D-03 -0.83303530D-16  0.36529621D-10 -0.10157902D-04  0.47772745D-04
  0.47773859D-04 -0.95546604D-04 -0.31510496D-15  0.81125061D-16 -0.10384718D-08
  0.66217445D-04  0.66215447D-04 -0.13243289D-03 -0.16621334D-16  0.44825524D-16
  0.23823606D-08  0.43680517D-05  0.43681793D-05 -0.87362310D-05 -0.45473722D-16
 -0.38587276D-16  0.45382215D-10 -0.10220124D-16 -0.82219145D-04  0.80120421D-04
 -0.18040365D-16  0.24665762D-03 -0.12018050D-03  0.48700736D-16 -0.18279396D-09
 -0.12018077D-03  0.16830185D-15 -0.16764037D-17  0.20520141D-04 -0.24499486D-04
 -0.12374555D-16 -0.61560538D-04  0.36749452D-04  0.17403766D-16  0.11512409D-09
  0.36749005D-04  0.24602914D-16 -0.24323181D-04 -0.43867859D-04 -0.64683132D-04
  0.32177785D-03 -0.17828136D-02  0.35805932D-04 -0.27707622D-15  0.14066724D-03
 -0.12429926D-05  0.32829612D-15 -0.48811301D-03 -0.15156831D-03  0.16916986D-15
  0.23578975D-03  0.11073714D-03 -0.10497414D-03  0.16972416D-03 -0.64750029D-04
 -0.15394885D-16  0.30964889D-16  0.18681440D-03 -0.34235720D-04  0.64143911D-04
 -0.29908190D-04 -0.16938692D-15 -0.24803083D-16  0.88814004D-04 -0.24323164D-04
 -0.43867827D-04 -0.64683086D-04  0.32177659D-03 -0.17828192D-02  0.35806192D-04
 -0.12182308D-03 -0.70333160D-04 -0.12430231D-05  0.42272011D-03  0.24405595D-03
 -0.15156649D-03 -0.20420043D-03 -0.11789488D-03  0.11073534D-03  0.10105048D-03
 -0.36298941D-04 -0.64751537D-04  0.23789588D-03 -0.16178418D-03 -0.93405102D-04
  0.39549490D-04 -0.96411554D-05 -0.29908335D-04  0.85199671D-04 -0.76914612D-04
 -0.44406991D-04 -0.24323164D-04 -0.43867827D-04 -0.64683086D-04  0.32177659D-03
 -0.17828192D-02  0.35806192D-04  0.12182308D-03 -0.70333160D-04 -0.12430231D-05
 -0.42272011D-03  0.24405595D-03 -0.15156649D-03  0.20420043D-03 -0.11789488D-03
  0.11073534D-03  0.10105048D-03 -0.36298941D-04 -0.64751537D-04 -0.23789588D-03
  0.16178418D-03 -0.93405102D-04  0.39549490D-04 -0.96411554D-05 -0.29908335D-04
 -0.85199671D-04  0.76914612D-04 -0.44406991D-04  0.24323183D-04  0.43867861D-04
  0.64683136D-04 -0.32177787D-03  0.17828137D-02 -0.35805932D-04  0.76471446D-16
  0.14066724D-03 -0.12429882D-05 -0.11525295D-15 -0.48811303D-03 -0.15156832D-03
 -0.94281115D-16  0.23578975D-03  0.11073714D-03  0.10497414D-03 -0.16972417D-03
  0.64750029D-04 -0.10968936D-16  0.39036100D-16 -0.18681441D-03  0.34235721D-04
 -0.64143912D-04  0.29908191D-04 -0.89169817D-16 -0.17020853D-16 -0.88814007D-04
  0.24323165D-04  0.43867830D-04  0.64683090D-04 -0.32177661D-03  0.17828192D-02
 -0.35806192D-04  0.12182308D-03 -0.70333162D-04 -0.12430187D-05 -0.42272012D-03
  0.24405596D-03 -0.15156651D-03  0.20420043D-03 -0.11789488D-03  0.11073534D-03
 -0.10105048D-03  0.36298943D-04  0.64751536D-04  0.23789588D-03 -0.16178419D-03
  0.93405107D-04 -0.39549491D-04  0.96411559D-05  0.29908335D-04  0.85199673D-04
 -0.76914615D-04  0.44406992D-04  0.24323165D-04  0.43867830D-04  0.64683090D-04
 -0.32177661D-03  0.17828192D-02 -0.35806192D-04 -0.12182308D-03 -0.70333162D-04
 -0.12430187D-05  0.42272012D-03  0.24405596D-03 -0.15156651D-03 -0.20420043D-03
 -0.11789488D-03  0.11073534D-03 -0.10105048D-03  0.36298943D-04  0.64751536D-04
 -0.23789588D-03  0.16178419D-03  0.93405107D-04 -0.39549491D-04  0.96411559D-05
  0.29908335D-04 -0.85199673D-04  0.76914615D-04  0.44406992D-04
MO    2     MO 0.0        OCC NO =    2.0000000  ORB. ENERGY =  -67.025978
  0.35806564D+00  0.66978275D+00  0.11566847D+01  0.18683473D+01  0.28136926D+01
  0.38266087D+01  0.43562061D+01  0.35291243D+01  0.14325413D+01  0.13062806D+00
 -0.50200654D-02  0.16786737D-02  0.94203364D-04 -0.13265124D-02 -0.24828659D-02
 -0.42942121D-02 -0.69794656D-02 -0.10678525D-01 -0.15153565D-01 -0.19008889D-01
 -0.19381210D-01 -0.11908201D-01  0.25952949D-02  0.95061811D-02  0.43477926D-02
 -0.23078321D-04  0.68817705D-03  0.12871313D-02  0.22289627D-02  0.36190492D-02
  0.55551673D-02  0.78908674D-02  0.10010817D-01  0.10363900D-01  0.66756112D-02
 -0.16419013D-02 -0.66928950D-02 -0.58373690D-02  0.29750271D-02 -0.17223546D-02
 -0.13561293D-02  0.70729188D-04 -0.48442400D-14 -0.63898023D-14 -0.70975007D-14
 -0.60744602D-14 -0.34708977D-14 -0.11263820D-14 -0.79311806D-18  0.26534798D-08
  0.35000766D-08  0.38877253D-08  0.33273449D-08  0.19012181D-08  0.61698672D-09
  0.43443816D-12  0.56367729D-03  0.74351940D-03  0.82586741D-03  0.70682609D-03
  0.40387475D-03  0.13106616D-03  0.92287467D-07  0.41772956D-14  0.57123980D-14
  0.62099520D-14  0.57004112D-14  0.31069556D-14  0.13110756D-14 -0.45217407D-15
  0.39707657D-08  0.54299710D-08  0.59029255D-08  0.54185769D-08  0.29533444D-08
  0.12462546D-08 -0.42981811D-09 -0.62691205D-03 -0.85729417D-03 -0.93196511D-03
 -0.85549524D-03 -0.46627964D-03 -0.19676105D-03  0.67860501D-04  0.28650857D-15
 -0.29214282D-09  0.23663488D-04 -0.10221030D-14 -0.11028583D-08 -0.11706700D-03
 -0.39774985D-16  0.27863673D-10  0.15587791D-06  0.53041989D-04  0.53041683D-04
 -0.10608367D-03  0.57617376D-15 -0.20735368D-15 -0.16463011D-09  0.65478655D-04
  0.65477292D-04 -0.13095595D-03  0.10601008D-15 -0.74349331D-16  0.13856708D-08
  0.26917392D-06  0.26915286D-06 -0.53832677D-06  0.60864441D-16  0.22569627D-16
 -0.43404094D-10 -0.13166948D-16  0.10664868D-03 -0.54587909D-04 -0.51555525D-16
 -0.31994675D-03  0.81881778D-04  0.91056369D-16  0.69999032D-09  0.81881949D-04
  0.32700715D-15 -0.31427155D-17 -0.48352272D-05  0.17663339D-04 -0.68540519D-17
  0.14505781D-04 -0.26494937D-04  0.16282199D-16 -0.99695819D-10 -0.26495079D-04
  0.45855221D-16  0.35806563D+00  0.66978273D+00  0.11566847D+01  0.18683473D+01
  0.28136925D+01  0.38266086D+01  0.43562059D+01  0.35291242D+01  0.14325412D+01
  0.13062805D+00 -0.50200652D-02  0.16786736D-02  0.94203360D-04 -0.13265123D-02
 -0.24828658D-02 -0.42942119D-02 -0.69794653D-02 -0.10678525D-01 -0.15153565D-01
 -0.19008889D-01 -0.19381209D-01 -0.11908200D-01  0.25952948D-02  0.95061807D-02
  0.43477924D-02 -0.23078320D-04  0.68817702D-03  0.12871313D-02  0.22289626D-02
  0.36190491D-02  0.55551671D-02  0.78908671D-02  0.10010817D-01  0.10363900D-01
  0.66756109D-02 -0.16419012D-02 -0.66928948D-02 -0.58373688D-02  0.29750270D-02
 -0.17223545D-02 -0.13561290D-02  0.70729181D-04  0.67528859D-14  0.89074045D-14
  0.98939383D-14  0.84678166D-14  0.48384424D-14  0.15701800D-14  0.11056091D-17
 -0.26534940D-08 -0.35000953D-08 -0.38877461D-08 -0.33273627D-08 -0.19012283D-08
 -0.61699003D-09 -0.43444049D-12 -0.56367714D-03 -0.74351920D-03 -0.82586718D-03
 -0.70682590D-03 -0.40387464D-03 -0.13106612D-03 -0.92287442D-07 -0.57975383D-14
 -0.79280591D-14 -0.86185988D-14 -0.79114230D-14 -0.43120468D-14 -0.18196009D-14
  0.62755829D-15 -0.39707532D-08 -0.54299539D-08 -0.59029068D-08 -0.54185598D-08
 -0.29533351D-08 -0.12462507D-08  0.42981675D-09  0.62691191D-03  0.85729398D-03
  0.93196491D-03  0.85549505D-03  0.46627954D-03  0.19676101D-03 -0.67860487D-04
 -0.26441103D-15  0.29214342D-09 -0.23663491D-04  0.95726078D-15  0.11028568D-08
  0.11706701D-03  0.42708993D-16 -0.27863799D-10 -0.15587758D-06  0.53041988D-04
  0.53041681D-04 -0.10608367D-03  0.35681379D-15 -0.22794386D-15 -0.16462969D-09
  0.65478653D-04  0.65477289D-04 -0.13095594D-03  0.21621798D-15 -0.20516163D-15
  0.13856709D-08  0.26917377D-06  0.26915271D-06 -0.53832648D-06  0.30277030D-16
  0.22115253D-16 -0.43404022D-10  0.17318675D-16 -0.10664868D-03  0.54587906D-04
  0.19929465D-16  0.31994674D-03 -0.81881773D-04 -0.71885488D-16 -0.69999027D-09
 -0.81881945D-04 -0.28291203D-15  0.30712011D-17  0.48352264D-05 -0.17663338D-04
 -0.11362338D-17 -0.14505779D-04  0.26494936D-04 -0.80773695D-17  0.99695818D-10
  0.26495077D-04 -0.99201286D-17  0.45327867D-04  0.81750674D-04  0.12054132D-03
 -0.56622769D-03  0.41227704D-03 -0.92335251D-05  0.25851267D-15 -0.15321227D-03
 -0.12444976D-03 -0.29712073D-15  0.53363723D-03  0.31798706D-03 -0.68392878D-16
 -0.43021871D-04  0.32747321D-04  0.12560313D-03 -0.11531833D-03 -0.10284801D-04
  0.69244191D-16 -0.49395849D-16 -0.28157859D-03  0.32573831D-04 -0.46526844D-04
  0.13953013D-04  0.11080201D-15  0.35123673D-16 -0.81613367D-04  0.45327877D-04
  0.81750693D-04  0.12054135D-03 -0.56623028D-03  0.41227506D-03 -0.92334488D-05
  0.13268582D-03  0.76606406D-04 -0.12444670D-03 -0.46214518D-03 -0.26681930D-03
  0.31798438D-03  0.37258144D-04  0.21511002D-04  0.32747151D-04 -0.55088867D-04
  0.65373229D-04 -0.10284362D-04 -0.20864539D-03  0.24385477D-03  0.14078868D-03
 -0.26752063D-04  0.12798346D-04  0.13953717D-04 -0.68503120D-04  0.70678526D-04
  0.40806143D-04  0.45327877D-04  0.81750693D-04  0.12054135D-03 -0.56623028D-03
  0.41227506D-03 -0.92334488D-05 -0.13268582D-03  0.76606406D-04 -0.12444670D-03
  0.46214518D-03 -0.26681930D-03  0.31798438D-03 -0.37258144D-04  0.21511002D-04
  0.32747151D-04 -0.55088867D-04  0.65373229D-04 -0.10284362D-04  0.20864539D-03
 -0.24385477D-03  0.14078868D-03 -0.26752063D-04  0.12798346D-04  0.13953717D-04
  0.68503120D-04 -0.70678526D-04  0.40806143D-04  0.45327866D-04  0.81750672D-04
  0.12054132D-03 -0.56622768D-03  0.41227697D-03 -0.92335239D-05 -0.12011501D-15
  0.15321227D-03  0.12444976D-03  0.15132767D-15 -0.53363722D-03 -0.31798705D-03
 -0.29409999D-16  0.43021863D-04 -0.32747325D-04  0.12560313D-03 -0.11531832D-03
 -0.10284803D-04  0.10849599D-15 -0.76325942D-16 -0.28157858D-03  0.32573830D-04
 -0.46526842D-04  0.13953012D-04  0.25483488D-16  0.40327641D-16 -0.81613364D-04
  0.45327876D-04  0.81750692D-04  0.12054135D-03 -0.56623027D-03  0.41227500D-03
 -0.92334476D-05  0.13268582D-03 -0.76606404D-04  0.12444670D-03 -0.46214517D-03
  0.26681929D-03 -0.31798438D-03  0.37258137D-04 -0.21510998D-04 -0.32747155D-04
 -0.55088863D-04  0.65373228D-04 -0.10284365D-04  0.20864539D-03 -0.24385476D-03
  0.14078867D-03 -0.26752061D-04  0.12798346D-04  0.13953716D-04  0.68503117D-04
 -0.70678524D-04  0.40806142D-04  0.45327876D-04  0.81750692D-04  0.12054135D-03
 -0.56623027D-03  0.41227500D-03 -0.92334476D-05 -0.13268582D-03 -0.76606404D-04
  0.12444670D-03  0.46214517D-03  0.26681929D-03 -0.31798438D-03 -0.37258137D-04
 -0.21510998D-04 -0.32747155D-04 -0.55088863D-04  0.65373228D-04 -0.10284365D-04
 -0.20864539D-03  0.24385476D-03  0.14078867D-03 -0.26752061D-04  0.12798346D-04
  0.13953716D-04 -0.68503117D-04  0.70678524D-04  0.40806142D-04
MO    3     MO 0.0        OCC NO =    2.0000000  ORB. ENERGY =   -5.551537
 -0.30480686D-02 -0.57015908D-02 -0.98463911D-02 -0.15904488D-01 -0.23951832D-01
 -0.32574379D-01 -0.37082628D-01 -0.30042014D-01 -0.12194647D-01 -0.11119841D-02
  0.42733795D-04 -0.14289873D-04 -0.80191529D-06 -0.89753161D-01 -0.16799321D+00
 -0.29055071D+00 -0.47223766D+00 -0.72251976D+00 -0.10253055D+01 -0.12861606D+01
 -0.13113521D+01 -0.80572082D+00  0.17560026D+00  0.64319777D+00  0.29417602D+00
 -0.15615024D-02 -0.22433997D-02 -0.41959407D-02 -0.72662323D-02 -0.11797798D-01
 -0.18109382D-01 -0.25723569D-01 -0.32634428D-01 -0.33785450D-01 -0.21761935D-01
  0.53524612D-02  0.21818279D-01  0.19029336D-01 -0.96983401D-02  0.23219980D-01
  0.72909082D-02 -0.51773550D-03  0.93893407D-13  0.12385024D-12  0.13756720D-12
  0.11773813D-12  0.67274621D-13  0.21832081D-13  0.15372598D-16 -0.97294737D-07
 -0.12833677D-06 -0.14255063D-06 -0.12200325D-06 -0.69711674D-07 -0.22622958D-07
 -0.15929478D-10  0.12656240D-02  0.16694233D-02  0.18543192D-02  0.15870359D-02
  0.90681955D-03  0.29428271D-03  0.20721295D-06 -0.74021675D-13 -0.10122369D-12
 -0.11004035D-12 -0.10101128D-12 -0.55055251D-13 -0.23232259D-13  0.80125242D-14
  0.68508982D-06  0.93685152D-06  0.10184520D-05  0.93488565D-06  0.50955064D-06
  0.21502058D-06 -0.74157992D-07 -0.24282531D-02 -0.33206050D-02 -0.36098321D-02
 -0.33136371D-02 -0.18060668D-02 -0.76212548D-03  0.26284784D-03 -0.57051121D-14
  0.18536040D-06 -0.33812255D-03  0.61207597D-14 -0.27350801D-07  0.64038437D-03
  0.12136556D-14 -0.60496944D-09 -0.54835588D-08 -0.11108509D-03 -0.11108078D-03
  0.22216588D-03 -0.73343613D-14  0.47720840D-14  0.26759241D-07 -0.10944510D-03
 -0.10949380D-03  0.21893890D-03 -0.45263812D-14  0.23216162D-14 -0.13265573D-07
  0.48574679D-05  0.48577132D-05 -0.97151812D-05 -0.13958450D-14  0.24919587D-15
  0.22290898D-08  0.20225057D-15 -0.24782567D-03  0.14548050D-03  0.21066761D-15
  0.74347245D-03 -0.21821367D-03 -0.81741933D-15  0.45476280D-08 -0.21822783D-03
 -0.58490171D-14  0.17731906D-15  0.19036055D-04 -0.54516965D-04  0.13082718D-15
 -0.57105186D-04  0.81773729D-04 -0.66278436D-15 -0.29793917D-08  0.81777167D-04
 -0.10417513D-14 -0.30480686D-02 -0.57015908D-02 -0.98463911D-02 -0.15904488D-01
 -0.23951832D-01 -0.32574379D-01 -0.37082628D-01 -0.30042014D-01 -0.12194647D-01
 -0.11119841D-02  0.42733795D-04 -0.14289873D-04 -0.80191529D-06 -0.89753161D-01
 -0.16799321D+00 -0.29055071D+00 -0.47223766D+00 -0.72251976D+00 -0.10253055D+01
 -0.12861606D+01 -0.13113521D+01 -0.80572082D+00  0.17560026D+00  0.64319777D+00
  0.29417602D+00 -0.15615024D-02 -0.22433997D-02 -0.41959407D-02 -0.72662324D-02
 -0.11797798D-01 -0.18109382D-01 -0.25723569D-01 -0.32634428D-01 -0.33785450D-01
 -0.21761935D-01  0.53524612D-02  0.21818279D-01  0.19029336D-01 -0.96983401D-02
  0.23219980D-01  0.72909082D-02 -0.51773550D-03 -0.67692101D-13 -0.89289370D-13
 -0.99178556D-13 -0.84882865D-13 -0.48501387D-13 -0.15739757D-13 -0.11082817D-16
  0.97295084D-07  0.12833723D-06  0.14255114D-06  0.12200368D-06  0.69711922D-07
  0.22623038D-07  0.15929534D-10 -0.12656240D-02 -0.16694233D-02 -0.18543192D-02
 -0.15870359D-02 -0.90681954D-03 -0.29428271D-03 -0.20721295D-06  0.58594652D-13
  0.80127433D-13  0.87106591D-13  0.79959295D-13  0.43581063D-13  0.18390371D-13
 -0.63426161D-14 -0.68509009D-06 -0.93685189D-06 -0.10184524D-05 -0.93488602D-06
 -0.50955085D-06 -0.21502067D-06  0.74158021D-07  0.24282531D-02  0.33206049D-02
  0.36098320D-02  0.33136370D-02  0.18060668D-02  0.76212548D-03 -0.26284784D-03
  0.15828115D-14 -0.18536041D-06  0.33812255D-03 -0.62626128D-14  0.27350826D-07
 -0.64038437D-03  0.56091140D-15  0.60496821D-09  0.54836929D-08 -0.11108509D-03
 -0.11108078D-03  0.22216588D-03 -0.19098454D-14  0.43108169D-14  0.26759232D-07
 -0.10944510D-03 -0.10949380D-03  0.21893890D-03 -0.20140026D-14  0.44379334D-15
 -0.13265579D-07  0.48574679D-05  0.48577132D-05 -0.97151811D-05  0.62237924D-15
 -0.23280992D-15  0.22290895D-08 -0.32130260D-15  0.24782567D-03 -0.14548050D-03
 -0.23406009D-15 -0.74347245D-03  0.21821367D-03  0.11979679D-14 -0.45476293D-08
  0.21822783D-03  0.18599164D-14 -0.96120369D-16 -0.19036055D-04  0.54516965D-04
  0.13853917D-15  0.57105187D-04 -0.81773730D-04  0.14982194D-15  0.29793922D-08
 -0.81777167D-04 -0.10207569D-15 -0.23396908D-05 -0.42197287D-05 -0.62219875D-05
  0.12770630D-02 -0.24034707D-02  0.58230260D-04 -0.20817786D-14 -0.13980886D-04
  0.83790309D-04  0.33731187D-14 -0.91118188D-03 -0.57790737D-03  0.29835436D-14
  0.35331521D-03 -0.16553079D-04 -0.10460310D-03 -0.13499453D-04  0.11810256D-03
 -0.74060380D-15  0.22550119D-15  0.28515709D-03 -0.33526216D-04  0.54783735D-04
 -0.21257519D-04 -0.17901354D-14 -0.47475301D-15  0.12073505D-03 -0.23464225D-05
 -0.42318696D-05 -0.62398893D-05  0.12770749D-02 -0.24035195D-02  0.58229219D-04
  0.12102989D-04  0.68877589D-05  0.83715634D-04  0.78907193D-03  0.45558883D-03