 Molden2AIM, Version 4.0.0 (06/02/2016)           Time: Thu Jun 28 02:08:27 2018
GAUSSIAN             13 MOL ORBITALS    287 PRIMITIVES        5 NUCLEI
  F    1    (CENTRE  1)  -0.00000378  0.00000000 -1.96355017  CHARGE =  9.0
  Si   2    (CENTRE  2)  -0.00000567  0.00000000  1.15305419  CHARGE = 14.0
  H    3    (CENTRE  3)   2.68633450  0.00000000  2.00580444  CHARGE =  1.0
  H    4    (CENTRE  4)  -1.34316253  2.32644750  2.00579499  CHARGE =  1.0
  H    5    (CENTRE  5)  -1.34316253 -2.32644750  2.00579499  CHARGE =  1.0
CENTRE ASSIGNMENTS    1  1  1  1  1  1  1  1  1  1  1  1  1  1  1  1  1  1  1  1
CENTRE ASSIGNMENTS    1  1  1  1  1  1  1  1  1  1  1  1  1  1  1  1  1  1  1  1
CENTRE ASSIGNMENTS    1  1  1  1  1  1  1  1  1  1  1  1  1  1  1  1  1  1  1  1
CENTRE ASSIGNMENTS    1  1  1  1  1  1  1  1  1  1  1  1  1  1  1  2  2  2  2  2
CENTRE ASSIGNMENTS    2  2  2  2  2  2  2  2  2  2  2  2  2  2  2  2  2  2  2  2
CENTRE ASSIGNMENTS    2  2  2  2  2  2  2  2  2  2  2  2  2  2  2  2  2  2  2  2
CENTRE ASSIGNMENTS    2  2  2  2  2  2  2  2  2  2  2  2  2  2  2  2  2  2  2  2
CENTRE ASSIGNMENTS    2  2  2  2  2  2  2  2  2  2  2  2  2  2  2  2  2  2  2  2
CENTRE ASSIGNMENTS    2  2  2  2  2  2  2  2  2  2  2  2  2  2  2  2  2  2  2  2
CENTRE ASSIGNMENTS    2  2  2  2  2  2  2  2  2  2  2  2  2  2  2  2  2  2  2  2
CENTRE ASSIGNMENTS    2  2  2  2  2  2  3  3  3  3  3  3  3  3  3  3  3  3  3  3
CENTRE ASSIGNMENTS    3  3  3  3  3  3  3  3  3  3  3  3  3  4  4  4  4  4  4  4
CENTRE ASSIGNMENTS    4  4  4  4  4  4  4  4  4  4  4  4  4  4  4  4  4  4  4  4
CENTRE ASSIGNMENTS    5  5  5  5  5  5  5  5  5  5  5  5  5  5  5  5  5  5  5  5
CENTRE ASSIGNMENTS    5  5  5  5  5  5  5
TYPE ASSIGNMENTS      1  1  1  1  1  1  1  1  1  1  1  1  1  1  1  1  1  1  1  2
TYPE ASSIGNMENTS      2  2  3  3  3  4  4  4  2  3  4  2  3  4  2  3  4  5  6  7
TYPE ASSIGNMENTS      8  9 10  5  6  7  8  9 10  5  6  7  8  9 10 11 12 13 17 14
TYPE ASSIGNMENTS     15 18 19 16 20 11 12 13 17 14 15 18 19 16 20  1  1  1  1  1
TYPE ASSIGNMENTS      1  1  1  1  1  1  1  1  1  1  1  1  1  1  1  1  1  1  1  1
TYPE ASSIGNMENTS      1  1  1  1  1  1  1  1  1  1  1  1  1  1  1  1  1  2  2  2
TYPE ASSIGNMENTS      2  2  2  2  3  3  3  3  3  3  3  4  4  4  4  4  4  4  2  2
TYPE ASSIGNMENTS      2  2  2  2  2  3  3  3  3  3  3  3  4  4  4  4  4  4  4  2
TYPE ASSIGNMENTS      3  4  2  3  4  2  3  4  5  6  7  8  9 10  5  6  7  8  9 10
TYPE ASSIGNMENTS      5  6  7  8  9 10 11 12 13 17 14 15 18 19 16 20 11 12 13 17
TYPE ASSIGNMENTS     14 15 18 19 16 20  1  1  1  1  1  1  2  3  4  2  3  4  2  3
TYPE ASSIGNMENTS      4  5  6  7  8  9 10  5  6  7  8  9 10  1  1  1  1  1  1  2
TYPE ASSIGNMENTS      3  4  2  3  4  2  3  4  5  6  7  8  9 10  5  6  7  8  9 10
TYPE ASSIGNMENTS      1  1  1  1  1  1  2  3  4  2  3  4  2  3  4  5  6  7  8  9
TYPE ASSIGNMENTS     10  5  6  7  8  9 10
EXPONENTS  0.1950000D+05 0.2923000D+04 0.6645000D+03 0.1875000D+03 0.6062000D+02
EXPONENTS  0.2142000D+02 0.7950000D+01 0.8815000D+00 0.1950000D+05 0.2923000D+04
EXPONENTS  0.6645000D+03 0.1875000D+03 0.6062000D+02 0.2142000D+02 0.7950000D+01
EXPONENTS  0.8815000D+00 0.2257000D+01 0.3041000D+00 0.9158000D-01 0.4388000D+02
EXPONENTS  0.9926000D+01 0.2930000D+01 0.4388000D+02 0.9926000D+01 0.2930000D+01
EXPONENTS  0.4388000D+02 0.9926000D+01 0.2930000D+01 0.9132000D+00 0.9132000D+00
EXPONENTS  0.9132000D+00 0.2672000D+00 0.2672000D+00 0.2672000D+00 0.7361000D-01
EXPONENTS  0.7361000D-01 0.7361000D-01 0.3107000D+01 0.3107000D+01 0.3107000D+01
EXPONENTS  0.3107000D+01 0.3107000D+01 0.3107000D+01 0.8550000D+00 0.8550000D+00
EXPONENTS  0.8550000D+00 0.8550000D+00 0.8550000D+00 0.8550000D+00 0.2920000D+00
EXPONENTS  0.2920000D+00 0.2920000D+00 0.2920000D+00 0.2920000D+00 0.2920000D+00
EXPONENTS  0.1917000D+01 0.1917000D+01 0.1917000D+01 0.1917000D+01 0.1917000D+01
EXPONENTS  0.1917000D+01 0.1917000D+01 0.1917000D+01 0.1917000D+01 0.1917000D+01
EXPONENTS  0.7240000D+00 0.7240000D+00 0.7240000D+00 0.7240000D+00 0.7240000D+00
EXPONENTS  0.7240000D+00 0.7240000D+00 0.7240000D+00 0.7240000D+00 0.7240000D+00
EXPONENTS  0.2549000D+06 0.3819000D+05 0.8690000D+04 0.2462000D+04 0.8048000D+03
EXPONENTS  0.2913000D+03 0.1136000D+03 0.4675000D+02 0.1982000D+02 0.7708000D+01
EXPONENTS  0.3340000D+01 0.1402000D+01 0.2070000D+00 0.2549000D+06 0.3819000D+05
EXPONENTS  0.8690000D+04 0.2462000D+04 0.8048000D+03 0.2913000D+03 0.1136000D+03
EXPONENTS  0.4675000D+02 0.1982000D+02 0.7708000D+01 0.3340000D+01 0.1402000D+01
EXPONENTS  0.2070000D+00 0.2549000D+06 0.3819000D+05 0.8690000D+04 0.2462000D+04
EXPONENTS  0.8048000D+03 0.2913000D+03 0.1136000D+03 0.4675000D+02 0.1982000D+02
EXPONENTS  0.7708000D+01 0.3340000D+01 0.1402000D+01 0.2070000D+00 0.4387000D+00
EXPONENTS  0.7944000D-01 0.3300000D-01 0.4815000D+03 0.1139000D+03 0.3623000D+02
EXPONENTS  0.1334000D+02 0.5252000D+01 0.2120000D+01 0.2528000D+00 0.4815000D+03
EXPONENTS  0.1139000D+03 0.3623000D+02 0.1334000D+02 0.5252000D+01 0.2120000D+01
EXPONENTS  0.2528000D+00 0.4815000D+03 0.1139000D+03 0.3623000D+02 0.1334000D+02
EXPONENTS  0.5252000D+01 0.2120000D+01 0.2528000D+00 0.4815000D+03 0.1139000D+03
EXPONENTS  0.3623000D+02 0.1334000D+02 0.5252000D+01 0.2120000D+01 0.2528000D+00
EXPONENTS  0.4815000D+03 0.1139000D+03 0.3623000D+02 0.1334000D+02 0.5252000D+01
EXPONENTS  0.2120000D+01 0.2528000D+00 0.4815000D+03 0.1139000D+03 0.3623000D+02
EXPONENTS  0.1334000D+02 0.5252000D+01 0.2120000D+01 0.2528000D+00 0.8561000D+00
EXPONENTS  0.8561000D+00 0.8561000D+00 0.7889000D-01 0.7889000D-01 0.7889000D-01
EXPONENTS  0.2370000D-01 0.2370000D-01 0.2370000D-01 0.1590000D+00 0.1590000D+00
EXPONENTS  0.1590000D+00 0.1590000D+00 0.1590000D+00 0.1590000D+00 0.4810000D+00
EXPONENTS  0.4810000D+00 0.4810000D+00 0.4810000D+00 0.4810000D+00 0.4810000D+00
EXPONENTS  0.5560000D-01 0.5560000D-01 0.5560000D-01 0.5560000D-01 0.5560000D-01
EXPONENTS  0.5560000D-01 0.3360000D+00 0.3360000D+00 0.3360000D+00 0.3360000D+00
EXPONENTS  0.3360000D+00 0.3360000D+00 0.3360000D+00 0.3360000D+00 0.3360000D+00
EXPONENTS  0.3360000D+00 0.1250000D+00 0.1250000D+00 0.1250000D+00 0.1250000D+00
EXPONENTS  0.1250000D+00 0.1250000D+00 0.1250000D+00 0.1250000D+00 0.1250000D+00
EXPONENTS  0.1250000D+00 0.3387000D+02 0.5095000D+01 0.1159000D+01 0.3258000D+00
EXPONENTS  0.1027000D+00 0.2526000D-01 0.1407000D+01 0.1407000D+01 0.1407000D+01
EXPONENTS  0.3880000D+00 0.3880000D+00 0.3880000D+00 0.1020000D+00 0.1020000D+00
EXPONENTS  0.1020000D+00 0.1057000D+01 0.1057000D+01 0.1057000D+01 0.1057000D+01
EXPONENTS  0.1057000D+01 0.1057000D+01 0.2470000D+00 0.2470000D+00 0.2470000D+00
EXPONENTS  0.2470000D+00 0.2470000D+00 0.2470000D+00 0.3387000D+02 0.5095000D+01
EXPONENTS  0.1159000D+01 0.3258000D+00 0.1027000D+00 0.2526000D-01 0.1407000D+01
EXPONENTS  0.1407000D+01 0.1407000D+01 0.3880000D+00 0.3880000D+00 0.3880000D+00
EXPONENTS  0.1020000D+00 0.1020000D+00 0.1020000D+00 0.1057000D+01 0.1057000D+01
EXPONENTS  0.1057000D+01 0.1057000D+01 0.1057000D+01 0.1057000D+01 0.2470000D+00
EXPONENTS  0.2470000D+00 0.2470000D+00 0.2470000D+00 0.2470000D+00 0.2470000D+00
EXPONENTS  0.3387000D+02 0.5095000D+01 0.1159000D+01 0.3258000D+00 0.1027000D+00
EXPONENTS  0.2526000D-01 0.1407000D+01 0.1407000D+01 0.1407000D+01 0.3880000D+00
EXPONENTS  0.3880000D+00 0.3880000D+00 0.1020000D+00 0.1020000D+00 0.1020000D+00
EXPONENTS  0.1057000D+01 0.1057000D+01 0.1057000D+01 0.1057000D+01 0.1057000D+01
EXPONENTS  0.1057000D+01 0.2470000D+00 0.2470000D+00 0.2470000D+00 0.2470000D+00
EXPONENTS  0.2470000D+00 0.2470000D+00
MO    1     MO 0.0        OCC NO =    2.0000000  ORB. ENERGY =  -67.075608
  0.24123582D-03  0.44967402D-03  0.76230802D-03  0.11543590D-02  0.14435300D-02
  0.12427449D-02  0.47775649D-03 -0.20701971D-05 -0.16062741D-03 -0.30162984D-03
 -0.51362359D-03 -0.80458832D-03 -0.10782430D-02 -0.11597957D-02 -0.69633983D-03
  0.45794237D-03 -0.97268605D-04 -0.46798399D-03  0.54947164D-03 -0.32714236D-08
 -0.31993808D-08 -0.21139662D-08  0.15430297D-15  0.15090494D-15  0.99709273D-16
  0.63542245D-04  0.62142928D-04  0.41060460D-04  0.23752425D-08  0.30324378D-16
  0.72151691D-04 -0.20487721D-08 -0.49978345D-16 -0.82783224D-03  0.32049965D-09
 -0.40234514D-17  0.74726680D-04 -0.65140726D-04 -0.65146275D-04  0.13028700D-03
 -0.15581134D-16 -0.71846775D-08 -0.28213784D-16  0.27736731D-04  0.27738915D-04
 -0.55475646D-04  0.67310167D-17  0.30754208D-08  0.17545640D-16  0.16425649D-03
  0.16425584D-03 -0.32851233D-03 -0.14895937D-17 -0.15963953D-08 -0.36877275D-16
  0.82895288D-04 -0.35725027D-16  0.52666441D-03 -0.24869202D-03 -0.47345311D-17
 -0.78999496D-03  0.61524299D-08  0.11190961D-15 -0.78999825D-03  0.20344809D-16
 -0.23581359D-04  0.11773235D-16 -0.22375258D-03  0.70745255D-04  0.41153036D-17
  0.33562839D-03 -0.11774269D-08 -0.39435010D-16  0.33562935D-03  0.36620843D-18
  0.50649281D+00  0.94742447D+00  0.16361595D+01  0.26428241D+01  0.39800387D+01
  0.54128338D+01  0.61619625D+01  0.49920346D+01  0.20263655D+01  0.18477666D+00
 -0.71010081D-02  0.23745260D-02  0.13325302D-03 -0.21001008D-02 -0.39308105D-02
 -0.67984880D-02 -0.11049713D-01 -0.16905971D-01 -0.23990741D-01 -0.30094393D-01
 -0.30683841D-01 -0.18852762D-01  0.41088052D-02  0.15049945D-01  0.68833152D-02
 -0.36537014D-04  0.11100057D-02  0.20760982D-02  0.35952396D-02  0.58374009D-02
  0.89602924D-02  0.12727696D-01  0.16147101D-01  0.16716612D-01  0.10767529D-01
 -0.26483299D-02 -0.10795408D-01 -0.94154738D-02  0.47986156D-02 -0.24311713D-02
 -0.39820928D-02  0.19448629D-03  0.65985337D-07  0.87038060D-07  0.96677904D-07
  0.82742659D-07  0.47278491D-07  0.15342901D-07  0.10803379D-10 -0.33223235D-15
 -0.43823159D-15 -0.48676764D-15 -0.41660449D-15 -0.23804446D-15 -0.77250616D-16
 -0.54394388D-19 -0.45160470D-02 -0.59568987D-02 -0.66166511D-02 -0.56629207D-02
 -0.32357474D-02 -0.10500706D-02 -0.73938500D-06 -0.59456706D-07 -0.81306281D-07
 -0.88388117D-07 -0.81135670D-07 -0.44222235D-07 -0.18660934D-07  0.64359297D-08
  0.23433553D-15  0.32045082D-15  0.34836232D-15  0.31977839D-15  0.17429221D-15
  0.73547964D-16 -0.25365801D-16  0.36957044D-02  0.50538282D-02  0.54940203D-02
  0.50432233D-02  0.27487615D-02  0.11599246D-02 -0.40004391D-03 -0.20173821D-08
  0.45442957D-16  0.10231785D-03 -0.63553473D-08 -0.27396028D-16 -0.95276133D-04
  0.13338612D-09  0.12420274D-16  0.10780567D-05 -0.14199269D-05 -0.14221420D-05
  0.28420689D-05  0.22581632D-16 -0.32538776D-08 -0.54081070D-16 -0.31730654D-04
 -0.31719930D-04  0.63450584D-04  0.18063044D-16  0.62996001D-08 -0.11269918D-16
 -0.13893275D-05 -0.13894516D-05  0.27787791D-05 -0.57134225D-17 -0.11890791D-09
 -0.36823031D-19  0.14216288D-03 -0.53700833D-17 -0.17223826D-03 -0.42648930D-03
 -0.77708848D-17  0.25835673D-03  0.67545033D-09  0.23881135D-16  0.25835804D-03
  0.42364470D-16 -0.15000161D-04 -0.13160691D-17  0.25123475D-04  0.45000456D-04
  0.12789671D-17 -0.37685033D-04  0.25721756D-10  0.26692401D-17 -0.37685392D-04
  0.64058430D-18  0.53276914D-04  0.96087109D-04  0.14168039D-03 -0.72117105D-03
  0.12252469D-02 -0.22786955D-04 -0.20695362D-03  0.13897348D-16 -0.81209006D-04
  0.78814671D-03 -0.16703888D-16  0.28874932D-03 -0.14419746D-03  0.18179405D-16
 -0.20380823D-04 -0.21517448D-03  0.15950454D-03  0.55669946D-04  0.32315067D-16
 -0.27651440D-03 -0.10321067D-16 -0.86357478D-04  0.48085975D-04  0.38271503D-04
 -0.98015928D-17 -0.86721014D-04  0.41913825D-17  0.53276048D-04  0.96085547D-04
  0.14167808D-03 -0.72116938D-03  0.12252383D-02 -0.22786293D-04  0.10347401D-03
 -0.17922662D-03 -0.81201828D-04 -0.39406670D-03  0.68255953D-03  0.28874140D-03
  0.72098285D-04 -0.12487914D-03 -0.20379281D-04  0.65838092D-04 -0.12150959D-03
  0.55671493D-04  0.32448104D-03  0.13825089D-03 -0.23946866D-03  0.14475943D-04
 -0.52748133D-04  0.38272190D-04  0.11642937D-03  0.43358688D-04 -0.75100488D-04
  0.53276048D-04  0.96085547D-04  0.14167808D-03 -0.72116938D-03  0.12252383D-02
 -0.22786293D-04  0.10347401D-03  0.17922662D-03 -0.81201828D-04 -0.39406670D-03
 -0.68255953D-03  0.28874140D-03  0.72098285D-04  0.12487914D-03 -0.20379281D-04
  0.65838092D-04 -0.12150959D-03  0.55671493D-04 -0.32448104D-03  0.13825089D-03
  0.23946866D-03  0.14475943D-04 -0.52748133D-04  0.38272190D-04 -0.11642937D-03
  0.43358688D-04  0.75100488D-04
MO    2     MO 0.0        OCC NO =    2.0000000  ORB. ENERGY =  -25.225583
  0.59516276D+00  0.11094092D+01  0.18807213D+01  0.28479663D+01  0.35613919D+01
  0.30660267D+01  0.11786926D+01 -0.51074679D-02  0.36119163D-03  0.67825391D-03
  0.11549494D-02  0.18092214D-02  0.24245696D-02  0.26079515D-02  0.15658107D-02
 -0.10297430D-02  0.60012414D-01  0.57558025D-03 -0.28708482D-03 -0.34098784D-07
 -0.33347866D-07 -0.22034345D-07 -0.85465438D-16 -0.83583332D-16 -0.55227041D-16
  0.51682503D-02  0.50544359D-02  0.33396795D-02  0.29072362D-08  0.25235651D-16
 -0.55787333D-03 -0.41394878D-09 -0.21256767D-16 -0.23374996D-03  0.10681847D-09
  0.31411662D-16 -0.23536578D-04 -0.39612275D-03 -0.39611843D-03  0.79224118D-03
 -0.93293645D-16  0.67162991D-09 -0.79712009D-17  0.12578275D-03  0.12578219D-03
 -0.25156494D-03  0.43626619D-16  0.12901922D-08  0.63669040D-17  0.25288217D-04
  0.25288484D-04 -0.50576700D-04 -0.24510143D-16 -0.13559570D-09 -0.81269212D-17
 -0.41574690D-04  0.28200779D-17  0.20822500D-03  0.12472912D-03 -0.17884079D-17
 -0.31233567D-03 -0.50450755D-08 -0.66718258D-17 -0.31233932D-03  0.13875387D-15
  0.10939728D-04 -0.50330304D-18 -0.84668981D-04 -0.32819814D-04  0.11853509D-17
  0.12700285D-03  0.62846042D-09  0.32455820D-18  0.12700409D-03 -0.36541915D-16
  0.65689574D-04  0.12287620D-03  0.21220167D-03  0.34276101D-03  0.51619103D-03
  0.70201737D-03  0.79917560D-03  0.64744183D-03  0.26280943D-03  0.23964605D-04
 -0.92096510D-06  0.30796410D-06  0.17282247D-07 -0.12596611D-03 -0.23577387D-03
 -0.40777997D-03 -0.66277264D-03 -0.10140367D-02 -0.14389882D-02 -0.18050912D-02
 -0.18404468D-02 -0.11308071D-02  0.24645016D-03  0.90271048D-03  0.41286799D-03
 -0.21915259D-05  0.74305896D-04  0.13897797D-03  0.24067218D-03  0.39076673D-03
  0.59981902D-03  0.85201617D-03  0.10809177D-02  0.11190418D-02  0.72079891D-03
 -0.17728424D-03 -0.72266514D-03 -0.63028974D-03  0.32122846D-03 -0.75943540D-04
 -0.81383827D-03  0.67667244D-04  0.50721198D-08  0.66903874D-08  0.74313769D-08
  0.63602112D-08  0.36341736D-08  0.11793685D-08  0.83042743D-12 -0.33624374D-14
 -0.44352282D-14 -0.49264490D-14 -0.42163460D-14 -0.24091862D-14 -0.78183344D-15
 -0.55051149D-18 -0.31970197D-02 -0.42170338D-02 -0.46840886D-02 -0.40089196D-02
 -0.22906645D-02 -0.74337055D-03 -0.52342866D-06 -0.39206662D-08 -0.53614606D-08
 -0.58284477D-08 -0.53502102D-08 -0.29160818D-08 -0.12305305D-08  0.42439505D-09
  0.28873904D-14  0.39484692D-14  0.42923837D-14  0.39401838D-14  0.21475602D-14
  0.90622914D-15 -0.31254744D-15  0.29032555D-02  0.39701646D-02  0.43159688D-02
  0.39618337D-02  0.21593602D-02  0.91120855D-03 -0.31426478D-03 -0.61492355D-09
  0.11831957D-15  0.21749268D-03 -0.82115369D-09 -0.29470944D-15 -0.14495613D-03
  0.28840680D-10 -0.35332915D-17  0.13129971D-05 -0.41252525D-04 -0.41253440D-04
  0.82505965D-04  0.11450012D-15 -0.42930045D-09 -0.31064520D-16 -0.10664880D-03
 -0.10664885D-03  0.21329766D-03  0.11677170D-15  0.10243474D-09 -0.70219984D-16
 -0.15579501D-05 -0.15579441D-05  0.31158942D-05  0.91239878D-17 -0.13492112D-12
  0.36937000D-17 -0.16333414D-04 -0.69487389D-17 -0.64915417D-04  0.48999883D-04
 -0.65466977D-17  0.97372961D-04  0.35983900D-09  0.27392914D-16  0.97373291D-04
  0.53869822D-16 -0.41914511D-05 -0.10000957D-17  0.36143184D-05  0.12574342D-04
 -0.18091618D-17 -0.54214664D-05  0.11811057D-10  0.48094489D-17 -0.54214889D-05
 -0.86672658D-17 -0.98755911D-05 -0.17811035D-04 -0.26262361D-04  0.96518043D-04
  0.39705250D-03 -0.74319661D-05  0.55638458D-06  0.40810566D-16  0.43146782D-04
 -0.33066729D-04 -0.42507347D-16 -0.92116383D-04 -0.58746539D-04  0.20785379D-16
 -0.16490366D-04  0.65088395D-05 -0.47945907D-04  0.41437068D-04  0.16763396D-17
  0.12743986D-03 -0.10672605D-16 -0.62861345D-05  0.10377588D-05  0.52483757D-05
  0.10261899D-16  0.85075681D-05  0.74273799D-17 -0.98756179D-05 -0.17811084D-04
 -0.26262432D-04  0.96519896D-04  0.39705162D-03 -0.74318417D-05 -0.27732955D-06
  0.48056321D-06  0.43145740D-04  0.16532943D-04 -0.28637170D-04 -0.92116476D-04
  0.29372668D-04 -0.50876459D-04 -0.16489701D-04 -0.34332601D-04 -0.71037660D-05
  0.41436367D-04 -0.47159679D-04 -0.63719894D-04  0.11036710D-03 -0.79325491D-06
 -0.44551344D-05  0.52483893D-05  0.63427951D-05 -0.42534930D-05  0.73677447D-05
 -0.98756179D-05 -0.17811084D-04 -0.26262432D-04  0.96519896D-04  0.39705162D-03
 -0.74318417D-05 -0.27732955D-06 -0.48056321D-06  0.43145740D-04  0.16532943D-04
  0.28637170D-04 -0.92116476D-04  0.29372668D-04  0.50876459D-04 -0.16489701D-04
 -0.34332601D-04 -0.71037660D-05  0.41436367D-04  0.47159679D-04 -0.63719894D-04
 -0.11036710D-03 -0.79325491D-06 -0.44551344D-05  0.52483893D-05 -0.63427951D-05
 -0.42534930D-05 -0.73677447D-05
MO    3     MO 0.0        OCC NO =    2.0000000  ORB. ENERGY =   -5.594966
 -0.11415986D-03 -0.21279892D-03 -0.36074648D-03 -0.54627649D-03 -0.68312067D-03
 -0.58810326D-03 -0.22608836D-03  0.97967789D-06 -0.37694069D-04 -0.70782785D-04
 -0.12053088D-03 -0.18881090D-03 -0.25302882D-03 -0.27216661D-03 -0.16340848D-03
  0.10746429D-03  0.75580096D-04  0.33290740D-03 -0.25351515D-02  0.25323947D-07
  0.24766267D-07  0.16364120D-07  0.16028573D-14  0.15675594D-14  0.10357528D-14
  0.17377059D-02  0.16994384D-02  0.11228908D-02 -0.27133863D-07 -0.20637090D-14
  0.74971764D-03  0.33352132D-07  0.33446515D-14  0.10136889D-02  0.11199186D-09
 -0.12402832D-14 -0.36566384D-03 -0.49053020D-03 -0.49055428D-03  0.98108448D-03
  0.25465060D-14  0.23963300D-08 -0.30299865D-15  0.34956037D-04  0.34968476D-04
 -0.69924513D-04 -0.14769289D-14 -0.10163559D-07  0.69698929D-16 -0.23828609D-03
 -0.23829098D-03  0.47657707D-03  0.80767056D-15  0.28558571D-07  0.14548398D-14
 -0.15763755D-03  0.45229545D-15  0.29737525D-03  0.47308423D-03  0.78557525D-15
 -0.44605911D-03 -0.17158436D-06 -0.21424616D-14 -0.44606662D-03 -0.41623418D-14
  0.52963282D-04 -0.26647047D-15  0.56806175D-04 -0.15894885D-03 -0.36618067D-15
 -0.85212351D-04  0.59007119D-07  0.11655921D-14 -0.85206175D-04  0.11861233D-14
 -0.42398130D-02 -0.79308187D-02 -0.13696167D-01 -0.22122881D-01 -0.33316603D-01
 -0.45310423D-01 -0.51581323D-01 -0.41787945D-01 -0.16962552D-01 -0.15467515D-02
  0.59442003D-04 -0.19876978D-04 -0.11154509D-05 -0.12703485D+00 -0.23777427D+00
 -0.41123974D+00 -0.66839587D+00 -0.10226402D+01 -0.14511972D+01 -0.18204063D+01
 -0.18560619D+01 -0.11404014D+01  0.24854115D+00  0.91036944D+00  0.41637093D+00
 -0.22101197D-02 -0.31488955D-02 -0.58895339D-02 -0.10199077D-01 -0.16559703D-01
 -0.25418810D-01 -0.36106285D-01 -0.45806550D-01 -0.47422156D-01 -0.30545631D-01
  0.75128568D-02  0.30624717D-01  0.26710081D-01 -0.13612848D-01  0.32519522D-01
  0.13556347D-01 -0.85091636D-03 -0.39138748D-06 -0.51626025D-06 -0.57343832D-06
 -0.49078238D-06 -0.28042911D-06 -0.91005358D-07 -0.64079499D-10  0.16814576D-12
  0.22179292D-12  0.24635745D-12  0.21084725D-12  0.12047642D-12  0.39097226D-13
  0.27529485D-16 -0.17606489D-01 -0.23223866D-01 -0.25796010D-01 -0.22077749D-01
 -0.12615048D-01 -0.40938582D-02 -0.28826037D-05 -0.13007795D-06 -0.17787993D-06
 -0.19337340D-06 -0.17750667D-06 -0.96748343D-07 -0.40825943D-07  0.14080372D-07
 -0.14655068D-12 -0.20040617D-12 -0.21786169D-12 -0.19998564D-12 -0.10900030D-12
 -0.45996031D-13  0.15863473D-13 -0.50582378D-02 -0.69170751D-02 -0.75195574D-02
 -0.69025605D-02 -0.37621757D-02 -0.15875659D-02  0.54753223D-03 -0.52002155D-07
 -0.73387185D-14 -0.16265779D-02  0.40509857D-07  0.14868422D-13  0.10222811D-03
  0.79067530D-09  0.41672292D-15 -0.45796402D-05 -0.20608536D-04 -0.20639043D-04
  0.41247579D-04 -0.76357144D-14  0.35339899D-07  0.30626646D-14 -0.18085898D-03
 -0.18085024D-03  0.36170922D-03 -0.68694818D-14  0.44207146D-07  0.42046603D-14
  0.36115186D-05  0.36091755D-05 -0.72206942D-05 -0.71544912D-15  0.18295139D-08
  0.86359376D-17 -0.34432828D-03  0.64113220D-15  0.33446234D-03  0.10330000D-02
  0.56705260D-15 -0.50169348D-03 -0.15133144D-07 -0.24904492D-14 -0.50169356D-03
 -0.40451695D-14  0.39351431D-04  0.11854174D-15 -0.63352126D-04 -0.11805464D-03
  0.13305999D-15  0.95032355D-04  0.34975403D-09 -0.48868521D-15  0.95024023D-04
 -0.22469175D-15  0.22681574D-04  0.40907153D-04  0.60317574D-04  0.16330405D-02
 -0.39110578D-02  0.10178192D-03 -0.11704983D-03 -0.27013257D-14  0.13831217D-04
 -0.13598668D-02  0.33332294D-14 -0.56559771D-03  0.53175915D-03 -0.29613342D-15
  0.11187494D-03  0.72340734D-04 -0.14824741D-03  0.75906672D-04 -0.34567017D-15
  0.33339789D-03  0.95841674D-16  0.10618696D-03 -0.58694825D-04 -0.47492131D-04
 -0.10097572D-14  0.12162246D-03 -0.98503157D-17  0.22682906D-04  0.40909555D-04
  0.60321115D-04  0.16331087D-02 -0.39108852D-02  0.10179291D-03  0.58279652D-04
 -0.10137195D-03  0.13560892D-04  0.68000135D-03 -0.11777397D-02 -0.56550981D-03
 -0.26585755D-03  0.46050532D-03  0.11187686D-03 -0.93190140D-04  0.17340977D-04
  0.75849162D-04 -0.19099191D-03 -0.16681153D-03  0.28873540D-03 -0.17466184D-04
  0.64966643D-04 -0.47500459D-04 -0.14280455D-03 -0.60795424D-04  0.10530621D-03
  0.22682906D-04  0.40909555D-04  0.60321115D-04  0.16331087D-02 -0.39108852D-02
  0.10179291D-03  0.58279652D-04  0.10137195D-03  0.13560892D-04  0.68000135D-03
  0.11777397D-02 -0.56550981D-03 -0.26585755D-03 -0.46050532D-03  0.11187686D-03
 -0.93190140D-04  0.17340977D-04  0.75849162D-04  0.19099191D-03 -0.16681153D-03
 -0.28873540D-03 -0.17466184D-04  0.64966643D-04 -0.47500459D-04  0.14280455D-03
 -0.60795424D-04 -0.10530621D-03
MO    4     MO 0.0        OCC NO =    2.0000000  ORB. ENERGY =   -3.906837
 -0.63398769D-03 -0.11817805D-02 -0.20034085D-02 -0.30337509D-02 -0.37937162D-02
 -0.32660363D-02 -0.12555836D-02  0.54406491D-05  0.98190525D-03  0.18438442D-02
  0.31397486D-02  0.49183976D-02  0.65912314D-02  0.70897581D-02  0.42566815D-02
 -0.27993728D-02 -0.76734940D-03  0.26306255D-02  0.18075528D-02  0.36384395D-07
  0.35583144D-07  0.23511288D-07  0.11531180D-14  0.11277242D-14  0.74513508D-15
 -0.82341454D-02 -0.80528144D-02 -0.53208349D-02  0.18438377D-07 -0.18227051D-14
 -0.25221205D-02  0.18542337D-07  0.25314093D-14  0.29197882D-02 -0.35324393D-08
 -0.88457082D-15  0.18390468D-03  0.17238142D-02  0.17237821D-02 -0.34475964D-02
  0.97787935D-15 -0.15983603D-07  0.12945940D-14 -0.50726309D-04 -0.50709797D-04
  0.10143611D-03 -0.58938879D-15  0.39724072D-07 -0.87504691D-15 -0.33475850D-03
 -0.33476523D-03  0.66952373D-03  0.29683529D-15  0.43337672D-08  0.14832183D-14
  0.19782544D-03  0.50059710D-15 -0.98995289D-04 -0.59356354D-03  0.22030369D-15
  0.14853299D-03  0.87229642D-07 -0.17220950D-14  0.14845288D-03 -0.84736234D-15
 -0.66852565D-04 -0.21687107D-15  0.21966376D-03  0.20056748D-03 -0.12232356D-15
 -0.32950570D-03 -0.97810632D-08  0.77293677D-15 -0.32948559D-03  0.17107730D-15
 -0.59160275D-04 -0.11066276D-03 -0.19110961D-03 -0.30869184D-03 -0.46488356D-03
 -0.63223945D-03 -0.71974052D-03 -0.58308852D-03 -0.23668715D-03 -0.21582612D-04
  0.82942460D-06 -0.27735361D-06 -0.15564456D-07 -0.42073024D-03 -0.78749116D-03
 -0.13619962D-02 -0.22136787D-02 -0.33869103D-02 -0.48062599D-02 -0.60290538D-02
 -0.61471427D-02 -0.37769267D-02  0.82315027D-03  0.30150776D-02  0.13789904D-02
 -0.73197565D-05 -0.14879783D-03 -0.27830389D-03 -0.48194693D-03 -0.78251182D-03
 -0.12011398D-02 -0.17061655D-02 -0.21645416D-02 -0.22408854D-02 -0.14434025D-02
  0.35501235D-03  0.14471396D-02  0.12621575D-02 -0.64326118D-03 -0.42264583D-03
  0.70518253D-02 -0.41917384D-03  0.22299932D-03  0.29414760D-03  0.32672572D-03
  0.27963117D-03  0.15977900D-03  0.51851769D-04  0.36510327D-07  0.19585322D-12
  0.25834050D-12  0.28695283D-12  0.24559118D-12  0.14032882D-12  0.45539763D-13
  0.32065861D-16  0.62155698D+01  0.81986569D+01  0.91066938D+01  0.77940463D+01
  0.44534554D+01  0.14452434D+01  0.10176376D-02 -0.26253267D-05 -0.35901005D-05
 -0.39028009D-05 -0.35825671D-05 -0.19526446D-05 -0.82397851D-06  0.28418019D-06
 -0.95725152D-13 -0.13090291D-12 -0.14230465D-12 -0.13062823D-12 -0.71197690D-13
 -0.30044058D-13  0.10361831D-13 -0.46767228D-01 -0.63953583D-01 -0.69523987D-01
 -0.63819385D-01 -0.34784156D-01 -0.14678246D-01  0.50623490D-02  0.56154398D-05
 -0.17318131D-14  0.15551589D+00  0.76912161D-07  0.13572706D-13  0.13736780D-02
  0.14138646D-08  0.29337176D-15 -0.14857115D-04  0.30860336D-03  0.30852776D-03
 -0.61713112D-03 -0.43918210D-14  0.57214735D-07  0.36963899D-14  0.67058278D-03
  0.67046906D-03 -0.13410518D-02 -0.29093378D-14  0.11570179D-06  0.18402279D-14
  0.46793348D-05  0.46754132D-05 -0.93547480D-05 -0.46879064D-15  0.14141906D-08
  0.17950187D-15  0.13308971D-03  0.26506452D-15  0.18995809D-03 -0.39924379D-03
  0.20306529D-15 -0.28491360D-03 -0.25346743D-07 -0.99825886D-15 -0.28496068D-03
 -0.24692060D-14  0.15504783D-04  0.70127216D-16 -0.28059524D-04 -0.46515766D-04
  0.20952829D-16  0.42094576D-04  0.14151100D-08 -0.23133448D-15  0.42083997D-04
 -0.10493672D-15  0.18094838D-03  0.32634785D-03  0.48119971D-03 -0.10021202D-02
 -0.36161238D-02  0.36946876D-04 -0.80424742D-03 -0.14559391D-14  0.39632580D-05
  0.11448770D-02  0.17867622D-14  0.29352075D-03  0.69947167D-03 -0.12265632D-14
  0.26704377D-04 -0.38671137D-03  0.28653080D-03  0.10018057D-03 -0.47829728D-15
 -0.33498807D-03  0.20556478D-15 -0.13723899D-03  0.11632120D-04  0.12560687D-03
 -0.12594047D-15  0.82886796D-04 -0.24297258D-15  0.18086913D-03  0.32620493D-03
  0.48098898D-03 -0.10017425D-02 -0.36157159D-02  0.36969364D-04  0.40157515D-03
 -0.69627978D-03  0.36749645D-05 -0.57215164D-03  0.99115586D-03  0.29351124D-03
 -0.34967957D-03  0.60570280D-03  0.26687571D-04  0.11811620D-03 -0.21824975D-03
  0.10013356D-03  0.58305438D-03  0.16752328D-03 -0.28999786D-03 -0.25579875D-04
 -0.10000519D-03  0.12558507D-03  0.12885080D-03 -0.41455092D-04  0.71794612D-04
  0.18086913D-03  0.32620493D-03  0.48098898D-03 -0.10017425D-02 -0.36157159D-02
  0.36969364D-04  0.40157515D-03  0.69627978D-03  0.36749645D-05 -0.57215164D-03
 -0.99115586D-03  0.29351124D-03 -0.34967957D-03 -0.60570280D-03  0.26687571D-04
  0.11811620D-03 -0.21824975D-03  0.10013356D-03 -0.58305438D-03  0.16752328D-03
  0.28999786D-03 -0.25579875D-04 -0.10000519D-03  0.12558507D-03 -0.12885080D-03
 -0.41455092D-04 -0.71794612D-04
MO    5     MO 0.0        OCC NO =    2.0000000  ORB. ENERGY =   -3.904848
  0.33901873D-07  0.63194560D-07  0.10713032D-06  0.16222687D-06  0.20286527D-06
  0.17464810D-06  0.67141107D-07 -0.29093341D-09 -0.44023192D-07 -0.82667758D-07
 -0.14076893D-06 -0.22051370D-06 -0.29551430D-06 -0.31786548D-06 -0.19084602D-06
  0.12550837D-06  0.47263643D-07 -0.24962585D-06 -0.70707918D-07  0.95784363D-03
  0.93675015D-03  0.61895043D-03  0.15781417D-12  0.15433881D-12  0.10197818D-12
  0.38821870D-06  0.37966941D-06  0.25086363D-06  0.69886969D-03  0.11588631D-12
  0.10469521D-07 -0.18651854D-03 -0.31375876D-13 -0.19123605D-06 -0.89277667D-04
 -0.14470179D-13 -0.35331482D-08 -0.93566220D-04  0.93372667D-04  0.19355294D-06
  0.31116542D-13  0.63143211D-03  0.10383967D-12  0.55835676D-04 -0.55778932D-04
 -0.56743693D-07 -0.18271294D-13  0.65599779D-03  0.10865674D-12 -0.43460735D-04
  0.43499249D-04 -0.38513463D-07  0.14221717D-13 -0.40879770D-03 -0.67948058D-13
 -0.83610419D-03 -0.13843888D-12  0.15289035D-08 -0.83592918D-03 -0.13787892D-12
  0.24615553D-03  0.33442418D-02  0.55319557D-12 -0.24616011D-03 -0.80609243D-13
  0.24889112D-03  0.41233019D-13 -0.19799827D-07  0.24885231D-03  0.41050992D-13
 -0.78792616D-04 -0.99552566D-03 -0.16475005D-12  0.78852016D-04  0.25821566D-13
  0.32787086D-07  0.61330166D-07  0.10591444D-06  0.17107943D-06  0.25764210D-06
  0.35039204D-06  0.39888581D-06  0.32315221D-06  0.13117387D-06  0.11961252D-07
 -0.45967359D-09  0.15371154D-09  0.86259431D-11 -0.54758508D-07 -0.10249285D-06
 -0.17726533D-06 -0.28811274D-06 -0.44081015D-06 -0.62554006D-06 -0.78468806D-06
 -0.80005746D-06 -0.49157121D-06  0.10713392D-06  0.39241571D-06  0.17947713D-06
 -0.95267444D-09  0.36951731D-07  0.69112637D-07  0.11968436D-06  0.19432519D-06
  0.29828523D-06  0.42370086D-06  0.53753175D-06  0.55649060D-06  0.35844757D-06
 -0.88162044D-07 -0.35937562D-06 -0.31343807D-06  0.15974436D-06 -0.69357012D-07
 -0.62488173D-06  0.31295745D-07  0.62175023D+01  0.82012059D+01  0.91095251D+01
  0.77964695D+01  0.44548400D+01  0.14456927D+01  0.10179540D-02  0.10273172D-08
  0.13550844D-08  0.15051659D-08  0.12882098D-08  0.73607274D-09  0.23887165D-09
  0.16819642D-12 -0.22299277D-03 -0.29413895D-03 -0.32671612D-03 -0.27962295D-03
 -0.15977430D-03 -0.51850245D-04 -0.36509254D-07 -0.42874449D-01 -0.58630257D-01
 -0.63736995D-01 -0.58507228D-01 -0.31888815D-01 -0.13456468D-01  0.46409725D-02
 -0.70582644D-11 -0.96520858D-11 -0.10492789D-10 -0.96318321D-11 -0.52497396D-11
 -0.22152893D-11  0.76402641D-12  0.21559200D-05  0.29481928D-05  0.32049826D-05
  0.29420064D-05  0.16035130D-05  0.67665167D-06 -0.23336895D-06  0.15427656D+00
  0.25492900D-10 -0.54124915D-05  0.14311287D-02  0.23251126D-12 -0.64011462D-07
  0.15428420D-04  0.25251311D-14  0.98691347D-09  0.35074463D-03 -0.35081363D-03
  0.68998067D-07 -0.11501438D-12  0.51215673D-03  0.83641355D-13  0.49237137D-03
 -0.49247128D-03  0.99904172D-07 -0.16212780D-12 -0.22080305D-03 -0.36821347D-13
  0.10373230D-04 -0.10375051D-04  0.18214444D-08 -0.33658396D-14  0.68169654D-05
  0.10883305D-14  0.23377080D-04  0.37699636D-14 -0.40343722D-07  0.23414800D-04
  0.38363107D-14  0.23574797D-03 -0.93546040D-04 -0.15146202D-13 -0.23562694D-03
 -0.77414613D-13  0.33222243D-05  0.51323602D-15  0.12069430D-08  0.33367326D-05
  0.61049079D-15 -0.43358180D-05 -0.13303406D-04 -0.21501989D-14  0.43321972D-05
  0.13630436D-14  0.50387724D-03  0.90876336D-03  0.13399710D-02 -0.21346905D-02
 -0.39748434D-02 -0.18110016D-03 -0.19936969D-02  0.43866574D-13 -0.77388486D-03