 Molden2AIM, Version 4.0.0 (06/02/2016)           Time: Thu Jun 28 03:52:52 2018
GAUSSIAN             21 MOL ORBITALS    383 PRIMITIVES        5 NUCLEI
  Si   1    (CENTRE  1)   0.00000000 -0.00016252  0.63677534  CHARGE = 14.0
  H    2    (CENTRE  2)   0.00000000 -0.00027401  3.41358426  CHARGE =  1.0
  F    3    (CENTRE  3)   0.00000000  2.84595589 -0.46482160  CHARGE =  9.0
  F    4    (CENTRE  4)  -2.46526678 -1.42276913 -0.46438697  CHARGE =  9.0
  F    5    (CENTRE  5)   2.46526678 -1.42276913 -0.46438697  CHARGE =  9.0
CENTRE ASSIGNMENTS    1  1  1  1  1  1  1  1  1  1  1  1  1  1  1  1  1  1  1  1
CENTRE ASSIGNMENTS    1  1  1  1  1  1  1  1  1  1  1  1  1  1  1  1  1  1  1  1
CENTRE ASSIGNMENTS    1  1  1  1  1  1  1  1  1  1  1  1  1  1  1  1  1  1  1  1
CENTRE ASSIGNMENTS    1  1  1  1  1  1  1  1  1  1  1  1  1  1  1  1  1  1  1  1
CENTRE ASSIGNMENTS    1  1  1  1  1  1  1  1  1  1  1  1  1  1  1  1  1  1  1  1
CENTRE ASSIGNMENTS    1  1  1  1  1  1  1  1  1  1  1  1  1  1  1  1  1  1  1  1
CENTRE ASSIGNMENTS    1  1  1  1  1  1  1  1  1  1  1  2  2  2  2  2  2  2  2  2
CENTRE ASSIGNMENTS    2  2  2  2  2  2  2  2  2  2  2  2  2  2  2  2  2  2  3  3
CENTRE ASSIGNMENTS    3  3  3  3  3  3  3  3  3  3  3  3  3  3  3  3  3  3  3  3
CENTRE ASSIGNMENTS    3  3  3  3  3  3  3  3  3  3  3  3  3  3  3  3  3  3  3  3
CENTRE ASSIGNMENTS    3  3  3  3  3  3  3  3  3  3  3  3  3  3  3  3  3  3  3  3
CENTRE ASSIGNMENTS    3  3  3  3  3  3  3  3  3  3  3  3  3  4  4  4  4  4  4  4
CENTRE ASSIGNMENTS    4  4  4  4  4  4  4  4  4  4  4  4  4  4  4  4  4  4  4  4
CENTRE ASSIGNMENTS    4  4  4  4  4  4  4  4  4  4  4  4  4  4  4  4  4  4  4  4
CENTRE ASSIGNMENTS    4  4  4  4  4  4  4  4  4  4  4  4  4  4  4  4  4  4  4  4
CENTRE ASSIGNMENTS    4  4  4  4  4  4  4  4  5  5  5  5  5  5  5  5  5  5  5  5
CENTRE ASSIGNMENTS    5  5  5  5  5  5  5  5  5  5  5  5  5  5  5  5  5  5  5  5
CENTRE ASSIGNMENTS    5  5  5  5  5  5  5  5  5  5  5  5  5  5  5  5  5  5  5  5
CENTRE ASSIGNMENTS    5  5  5  5  5  5  5  5  5  5  5  5  5  5  5  5  5  5  5  5
CENTRE ASSIGNMENTS    5  5  5
TYPE ASSIGNMENTS      1  1  1  1  1  1  1  1  1  1  1  1  1  1  1  1  1  1  1  1
TYPE ASSIGNMENTS      1  1  1  1  1  1  1  1  1  1  1  1  1  1  1  1  1  1  1  1
TYPE ASSIGNMENTS      1  1  2  2  2  2  2  2  2  3  3  3  3  3  3  3  4  4  4  4
TYPE ASSIGNMENTS      4  4  4  2  2  2  2  2  2  2  3  3  3  3  3  3  3  4  4  4
TYPE ASSIGNMENTS      4  4  4  4  2  3  4  2  3  4  2  3  4  5  6  7  8  9 10  5
TYPE ASSIGNMENTS      6  7  8  9 10  5  6  7  8  9 10 11 12 13 17 14 15 18 19 16
TYPE ASSIGNMENTS     20 11 12 13 17 14 15 18 19 16 20  1  1  1  1  1  1  2  3  4
TYPE ASSIGNMENTS      2  3  4  2  3  4  5  6  7  8  9 10  5  6  7  8  9 10  1  1
TYPE ASSIGNMENTS      1  1  1  1  1  1  1  1  1  1  1  1  1  1  1  1  1  2  2  2
TYPE ASSIGNMENTS      3  3  3  4  4  4  2  3  4  2  3  4  2  3  4  5  6  7  8  9
TYPE ASSIGNMENTS     10  5  6  7  8  9 10  5  6  7  8  9 10 11 12 13 17 14 15 18
TYPE ASSIGNMENTS     19 16 20 11 12 13 17 14 15 18 19 16 20  1  1  1  1  1  1  1
TYPE ASSIGNMENTS      1  1  1  1  1  1  1  1  1  1  1  1  2  2  2  3  3  3  4  4
TYPE ASSIGNMENTS      4  2  3  4  2  3  4  2  3  4  5  6  7  8  9 10  5  6  7  8
TYPE ASSIGNMENTS      9 10  5  6  7  8  9 10 11 12 13 17 14 15 18 19 16 20 11 12
TYPE ASSIGNMENTS     13 17 14 15 18 19 16 20  1  1  1  1  1  1  1  1  1  1  1  1
TYPE ASSIGNMENTS      1  1  1  1  1  1  1  2  2  2  3  3  3  4  4  4  2  3  4  2
TYPE ASSIGNMENTS      3  4  2  3  4  5  6  7  8  9 10  5  6  7  8  9 10  5  6  7
TYPE ASSIGNMENTS      8  9 10 11 12 13 17 14 15 18 19 16 20 11 12 13 17 14 15 18
TYPE ASSIGNMENTS     19 16 20
EXPONENTS  0.2549000D+06 0.3819000D+05 0.8690000D+04 0.2462000D+04 0.8048000D+03
EXPONENTS  0.2913000D+03 0.1136000D+03 0.4675000D+02 0.1982000D+02 0.7708000D+01
EXPONENTS  0.3340000D+01 0.1402000D+01 0.2070000D+00 0.2549000D+06 0.3819000D+05
EXPONENTS  0.8690000D+04 0.2462000D+04 0.8048000D+03 0.2913000D+03 0.1136000D+03
EXPONENTS  0.4675000D+02 0.1982000D+02 0.7708000D+01 0.3340000D+01 0.1402000D+01
EXPONENTS  0.2070000D+00 0.2549000D+06 0.3819000D+05 0.8690000D+04 0.2462000D+04
EXPONENTS  0.8048000D+03 0.2913000D+03 0.1136000D+03 0.4675000D+02 0.1982000D+02
EXPONENTS  0.7708000D+01 0.3340000D+01 0.1402000D+01 0.2070000D+00 0.4387000D+00
EXPONENTS  0.7944000D-01 0.3300000D-01 0.4815000D+03 0.1139000D+03 0.3623000D+02
EXPONENTS  0.1334000D+02 0.5252000D+01 0.2120000D+01 0.2528000D+00 0.4815000D+03
EXPONENTS  0.1139000D+03 0.3623000D+02 0.1334000D+02 0.5252000D+01 0.2120000D+01
EXPONENTS  0.2528000D+00 0.4815000D+03 0.1139000D+03 0.3623000D+02 0.1334000D+02
EXPONENTS  0.5252000D+01 0.2120000D+01 0.2528000D+00 0.4815000D+03 0.1139000D+03
EXPONENTS  0.3623000D+02 0.1334000D+02 0.5252000D+01 0.2120000D+01 0.2528000D+00
EXPONENTS  0.4815000D+03 0.1139000D+03 0.3623000D+02 0.1334000D+02 0.5252000D+01
EXPONENTS  0.2120000D+01 0.2528000D+00 0.4815000D+03 0.1139000D+03 0.3623000D+02
EXPONENTS  0.1334000D+02 0.5252000D+01 0.2120000D+01 0.2528000D+00 0.8561000D+00
EXPONENTS  0.8561000D+00 0.8561000D+00 0.7889000D-01 0.7889000D-01 0.7889000D-01
EXPONENTS  0.2370000D-01 0.2370000D-01 0.2370000D-01 0.1590000D+00 0.1590000D+00
EXPONENTS  0.1590000D+00 0.1590000D+00 0.1590000D+00 0.1590000D+00 0.4810000D+00
EXPONENTS  0.4810000D+00 0.4810000D+00 0.4810000D+00 0.4810000D+00 0.4810000D+00
EXPONENTS  0.5560000D-01 0.5560000D-01 0.5560000D-01 0.5560000D-01 0.5560000D-01
EXPONENTS  0.5560000D-01 0.3360000D+00 0.3360000D+00 0.3360000D+00 0.3360000D+00
EXPONENTS  0.3360000D+00 0.3360000D+00 0.3360000D+00 0.3360000D+00 0.3360000D+00
EXPONENTS  0.3360000D+00 0.1250000D+00 0.1250000D+00 0.1250000D+00 0.1250000D+00
EXPONENTS  0.1250000D+00 0.1250000D+00 0.1250000D+00 0.1250000D+00 0.1250000D+00
EXPONENTS  0.1250000D+00 0.3387000D+02 0.5095000D+01 0.1159000D+01 0.3258000D+00
EXPONENTS  0.1027000D+00 0.2526000D-01 0.1407000D+01 0.1407000D+01 0.1407000D+01
EXPONENTS  0.3880000D+00 0.3880000D+00 0.3880000D+00 0.1020000D+00 0.1020000D+00
EXPONENTS  0.1020000D+00 0.1057000D+01 0.1057000D+01 0.1057000D+01 0.1057000D+01
EXPONENTS  0.1057000D+01 0.1057000D+01 0.2470000D+00 0.2470000D+00 0.2470000D+00
EXPONENTS  0.2470000D+00 0.2470000D+00 0.2470000D+00 0.1950000D+05 0.2923000D+04
EXPONENTS  0.6645000D+03 0.1875000D+03 0.6062000D+02 0.2142000D+02 0.7950000D+01
EXPONENTS  0.8815000D+00 0.1950000D+05 0.2923000D+04 0.6645000D+03 0.1875000D+03
EXPONENTS  0.6062000D+02 0.2142000D+02 0.7950000D+01 0.8815000D+00 0.2257000D+01
EXPONENTS  0.3041000D+00 0.9158000D-01 0.4388000D+02 0.9926000D+01 0.2930000D+01
EXPONENTS  0.4388000D+02 0.9926000D+01 0.2930000D+01 0.4388000D+02 0.9926000D+01
EXPONENTS  0.2930000D+01 0.9132000D+00 0.9132000D+00 0.9132000D+00 0.2672000D+00
EXPONENTS  0.2672000D+00 0.2672000D+00 0.7361000D-01 0.7361000D-01 0.7361000D-01
EXPONENTS  0.3107000D+01 0.3107000D+01 0.3107000D+01 0.3107000D+01 0.3107000D+01
EXPONENTS  0.3107000D+01 0.8550000D+00 0.8550000D+00 0.8550000D+00 0.8550000D+00
EXPONENTS  0.8550000D+00 0.8550000D+00 0.2920000D+00 0.2920000D+00 0.2920000D+00
EXPONENTS  0.2920000D+00 0.2920000D+00 0.2920000D+00 0.1917000D+01 0.1917000D+01
EXPONENTS  0.1917000D+01 0.1917000D+01 0.1917000D+01 0.1917000D+01 0.1917000D+01
EXPONENTS  0.1917000D+01 0.1917000D+01 0.1917000D+01 0.7240000D+00 0.7240000D+00
EXPONENTS  0.7240000D+00 0.7240000D+00 0.7240000D+00 0.7240000D+00 0.7240000D+00
EXPONENTS  0.7240000D+00 0.7240000D+00 0.7240000D+00 0.1950000D+05 0.2923000D+04
EXPONENTS  0.6645000D+03 0.1875000D+03 0.6062000D+02 0.2142000D+02 0.7950000D+01
EXPONENTS  0.8815000D+00 0.1950000D+05 0.2923000D+04 0.6645000D+03 0.1875000D+03
EXPONENTS  0.6062000D+02 0.2142000D+02 0.7950000D+01 0.8815000D+00 0.2257000D+01
EXPONENTS  0.3041000D+00 0.9158000D-01 0.4388000D+02 0.9926000D+01 0.2930000D+01
EXPONENTS  0.4388000D+02 0.9926000D+01 0.2930000D+01 0.4388000D+02 0.9926000D+01
EXPONENTS  0.2930000D+01 0.9132000D+00 0.9132000D+00 0.9132000D+00 0.2672000D+00
EXPONENTS  0.2672000D+00 0.2672000D+00 0.7361000D-01 0.7361000D-01 0.7361000D-01
EXPONENTS  0.3107000D+01 0.3107000D+01 0.3107000D+01 0.3107000D+01 0.3107000D+01
EXPONENTS  0.3107000D+01 0.8550000D+00 0.8550000D+00 0.8550000D+00 0.8550000D+00
EXPONENTS  0.8550000D+00 0.8550000D+00 0.2920000D+00 0.2920000D+00 0.2920000D+00
EXPONENTS  0.2920000D+00 0.2920000D+00 0.2920000D+00 0.1917000D+01 0.1917000D+01
EXPONENTS  0.1917000D+01 0.1917000D+01 0.1917000D+01 0.1917000D+01 0.1917000D+01
EXPONENTS  0.1917000D+01 0.1917000D+01 0.1917000D+01 0.7240000D+00 0.7240000D+00
EXPONENTS  0.7240000D+00 0.7240000D+00 0.7240000D+00 0.7240000D+00 0.7240000D+00
EXPONENTS  0.7240000D+00 0.7240000D+00 0.7240000D+00 0.1950000D+05 0.2923000D+04
EXPONENTS  0.6645000D+03 0.1875000D+03 0.6062000D+02 0.2142000D+02 0.7950000D+01
EXPONENTS  0.8815000D+00 0.1950000D+05 0.2923000D+04 0.6645000D+03 0.1875000D+03
EXPONENTS  0.6062000D+02 0.2142000D+02 0.7950000D+01 0.8815000D+00 0.2257000D+01
EXPONENTS  0.3041000D+00 0.9158000D-01 0.4388000D+02 0.9926000D+01 0.2930000D+01
EXPONENTS  0.4388000D+02 0.9926000D+01 0.2930000D+01 0.4388000D+02 0.9926000D+01
EXPONENTS  0.2930000D+01 0.9132000D+00 0.9132000D+00 0.9132000D+00 0.2672000D+00
EXPONENTS  0.2672000D+00 0.2672000D+00 0.7361000D-01 0.7361000D-01 0.7361000D-01
EXPONENTS  0.3107000D+01 0.3107000D+01 0.3107000D+01 0.3107000D+01 0.3107000D+01
EXPONENTS  0.3107000D+01 0.8550000D+00 0.8550000D+00 0.8550000D+00 0.8550000D+00
EXPONENTS  0.8550000D+00 0.8550000D+00 0.2920000D+00 0.2920000D+00 0.2920000D+00
EXPONENTS  0.2920000D+00 0.2920000D+00 0.2920000D+00 0.1917000D+01 0.1917000D+01
EXPONENTS  0.1917000D+01 0.1917000D+01 0.1917000D+01 0.1917000D+01 0.1917000D+01
EXPONENTS  0.1917000D+01 0.1917000D+01 0.1917000D+01 0.7240000D+00 0.7240000D+00
EXPONENTS  0.7240000D+00 0.7240000D+00 0.7240000D+00 0.7240000D+00 0.7240000D+00
EXPONENTS  0.7240000D+00 0.7240000D+00 0.7240000D+00
MO    1     MO 0.0        OCC NO =    2.0000000  ORB. ENERGY =  -67.163976
  0.50650868D+00  0.94745416D+00  0.16362108D+01  0.26429069D+01  0.39801634D+01
  0.54130034D+01  0.61621556D+01  0.49921911D+01  0.20264290D+01  0.18478245D+00
 -0.71012307D-02  0.23746004D-02  0.13325719D-03 -0.21318386D-02 -0.39902150D-02
 -0.69012302D-02 -0.11216702D-01 -0.17161463D-01 -0.24353302D-01 -0.30549195D-01
 -0.31147551D-01 -0.19137675D-01  0.41708996D-02  0.15277388D-01  0.69873394D-02
 -0.37089181D-04  0.11310283D-02  0.21154178D-02  0.36633305D-02  0.59479565D-02
  0.91299930D-02  0.12968748D-01  0.16452914D-01  0.17033211D-01  0.10971458D-01
 -0.26984871D-02 -0.10999864D-01 -0.95937952D-02  0.48894975D-02 -0.25112108D-02
 -0.16718803D-02  0.95372623D-04  0.64038089D-14  0.84469539D-14  0.93824908D-14
  0.80300897D-14  0.45883287D-14  0.14890127D-14  0.10484568D-17  0.26598498D-05
  0.35084789D-05  0.38970582D-05  0.33353325D-05  0.19057822D-05  0.61846787D-06
  0.43548108D-09 -0.38956631D-02 -0.51385805D-02 -0.57077006D-02 -0.48849872D-02
 -0.27912424D-02 -0.90581902D-03 -0.63781331D-06 -0.57162152D-14 -0.78168508D-14
 -0.84977041D-14 -0.78004480D-14 -0.42515609D-14 -0.17940771D-14  0.61875542D-15
 -0.24563449D-05 -0.33590201D-05 -0.36515932D-05 -0.33519716D-05 -0.18269606D-05
 -0.77094230D-06  0.26588865D-06  0.30941859D-02  0.42312594D-02  0.45998051D-02
  0.42223806D-02  0.23013689D-02  0.97113346D-03 -0.33493215D-03 -0.82943217D-16
 -0.44041807D-07  0.98193710D-04  0.17312802D-15 -0.75066602D-07 -0.51504139D-04
 -0.22944612D-17  0.13385564D-08  0.14347521D-05 -0.28074706D-05 -0.26247468D-05
  0.54322174D-05 -0.95121700D-16 -0.13933571D-15  0.10478131D-06  0.69879949D-05
  0.66455767D-05 -0.13633572D-04 -0.35377046D-15 -0.33790567D-15 -0.31470358D-06
  0.10714154D-06  0.11951013D-06 -0.22665166D-06  0.40299263D-17 -0.59627551D-17
  0.31246627D-08 -0.38670138D-17  0.11590115D-03  0.19519431D-03 -0.58386668D-17
 -0.34767206D-03 -0.29277893D-03  0.17439708D-16 -0.31403257D-07 -0.29280400D-03
  0.15157108D-15 -0.28616938D-17 -0.11896325D-04 -0.13855030D-04  0.40529521D-18
  0.35704819D-04  0.20795688D-04  0.81797861D-17 -0.15845088D-07  0.20769401D-04
  0.39195704D-17  0.56322203D-04  0.10157941D-03  0.14977878D-03 -0.85281291D-03
  0.52155030D-03 -0.28126224D-04 -0.60213929D-17  0.12677761D-06 -0.21153570D-03
 -0.16306948D-17 -0.13315109D-06  0.87870885D-03  0.17500466D-17  0.18735819D-07
 -0.28031193D-04  0.13452627D-03  0.13454440D-03 -0.26907067D-03 -0.35413728D-17
  0.53001399D-16  0.30613054D-07  0.43443317D-04  0.43422984D-04 -0.86866301D-04
 -0.11515534D-16 -0.95043237D-17  0.56549041D-07  0.28716198D-03  0.53528237D-03
  0.90743521D-03  0.13741243D-02  0.17183473D-02  0.14793370D-02  0.56871114D-03
 -0.24643185D-05 -0.19072555D-03 -0.35814880D-03 -0.60986563D-03 -0.95535090D-03
 -0.12802826D-02 -0.13771166D-02 -0.82681897D-03  0.54375094D-03 -0.12277195D-03
 -0.77374979D-03  0.20351385D-03 -0.32606362D-16 -0.31888310D-16 -0.21069955D-16
 -0.12994956D-03 -0.12708783D-03 -0.83972302D-04  0.60015667D-04  0.58694011D-04
  0.38781615D-04  0.30005730D-16  0.11866223D-04 -0.21763192D-04 -0.24632236D-16
  0.81673987D-03 -0.27129219D-03 -0.17071457D-16 -0.20943060D-04  0.17136573D-04
 -0.64093583D-04  0.19360977D-03 -0.12951618D-03 -0.23335655D-16  0.50532917D-16
 -0.13894887D-03  0.42091609D-04 -0.10019443D-03  0.58102822D-04 -0.65630888D-17
 -0.24110213D-16  0.91068852D-04  0.13434546D-03 -0.22236062D-03  0.88015156D-04
  0.20359723D-16  0.18943116D-16  0.26452378D-03 -0.76420161D-16 -0.21556112D-03
 -0.12720351D-03  0.16909710D-15  0.38947390D-03 -0.18745134D-03  0.60163388D-16
  0.25720946D-03  0.56906187D-03  0.17563524D-15  0.19341911D-16  0.10355739D-03
  0.62818650D-04 -0.43892736D-16 -0.19124994D-03  0.90541878D-04 -0.14132998D-16
 -0.11942223D-03 -0.27899783D-03 -0.52055698D-16  0.28709085D-03  0.53514979D-03
  0.90721045D-03  0.13737840D-02  0.17179217D-02  0.14789706D-02  0.56857028D-03
 -0.24637081D-05 -0.19067780D-03 -0.35805915D-03 -0.60971298D-03 -0.95511177D-03
 -0.12799621D-02 -0.13767719D-02 -0.82661201D-03  0.54361484D-03 -0.12275143D-03
 -0.77334557D-03  0.20344926D-03  0.11219243D-03  0.10972175D-03  0.72497799D-04
  0.65028840D-04  0.63596785D-04  0.42021085D-04  0.60166220D-04  0.58841249D-04
  0.38878901D-04 -0.99943459D-05 -0.60058413D-05 -0.21914431D-04 -0.70758891D-03
 -0.40803411D-03 -0.27086194D-03  0.18102669D-04  0.10469369D-04  0.17137552D-04
  0.12901821D-03  0.37211401D-06 -0.12939033D-03  0.22330186D-03  0.12050559D-03
  0.69118333D-04 -0.64542964D-04  0.64990951D-05  0.58043869D-04 -0.12327268D-03
 -0.78945289D-04 -0.45382107D-04 -0.13342622D-03  0.45288820D-04  0.88137404D-04
 -0.30877839D-03 -0.22885720D-03 -0.13208621D-03  0.56179920D-04 -0.11903582D-03
 -0.12702274D-03  0.55035182D-04  0.48599351D-03  0.37970483D-03 -0.22357494D-03
 -0.12888605D-03  0.13633958D-05  0.65428448D-03 -0.26038924D-04  0.58756764D-04
  0.62750858D-04 -0.25601598D-04 -0.23608835D-03 -0.18654720D-03  0.10371837D-03
  0.59818056D-04 -0.17053774D-05 -0.31965770D-03  0.28709085D-03  0.53514979D-03
  0.90721045D-03  0.13737840D-02  0.17179217D-02  0.14789706D-02  0.56857028D-03
 -0.24637081D-05 -0.19067780D-03 -0.35805915D-03 -0.60971298D-03 -0.95511177D-03
 -0.12799621D-02 -0.13767719D-02 -0.82661201D-03  0.54361484D-03 -0.12275143D-03
 -0.77334557D-03  0.20344926D-03 -0.11219243D-03 -0.10972175D-03 -0.72497799D-04
  0.65028840D-04  0.63596785D-04  0.42021085D-04  0.60166220D-04  0.58841249D-04
  0.38878901D-04  0.99943459D-05 -0.60058413D-05 -0.21914431D-04  0.70758891D-03
 -0.40803411D-03 -0.27086194D-03 -0.18102669D-04  0.10469369D-04  0.17137552D-04
  0.12901821D-03  0.37211401D-06 -0.12939033D-03 -0.22330186D-03 -0.12050559D-03
  0.69118333D-04 -0.64542964D-04  0.64990951D-05  0.58043869D-04  0.12327268D-03
  0.78945289D-04 -0.45382107D-04 -0.13342622D-03  0.45288820D-04  0.88137404D-04
  0.30877839D-03  0.22885720D-03 -0.13208621D-03 -0.56179920D-04 -0.11903582D-03
 -0.12702274D-03 -0.55035182D-04  0.48599351D-03  0.37970483D-03  0.22357494D-03
 -0.12888605D-03  0.13633958D-05 -0.65428448D-03  0.26038924D-04  0.58756764D-04
  0.62750858D-04  0.25601598D-04 -0.23608835D-03 -0.18654720D-03 -0.10371837D-03
  0.59818056D-04 -0.17053774D-05  0.31965770D-03
MO    2     MO 0.0        OCC NO =    2.0000000  ORB. ENERGY =  -25.265849
 -0.42437943D-16 -0.79382659D-16 -0.13709028D-15 -0.22143654D-15 -0.33347888D-15
 -0.45352970D-15 -0.51629759D-15 -0.41827185D-15 -0.16978481D-15 -0.15482039D-16
  0.59497820D-18 -0.19895642D-18 -0.11164984D-19 -0.53981519D-16 -0.10103854D-15
 -0.17475004D-15 -0.28402461D-15 -0.43455533D-15 -0.61666405D-15 -0.77355383D-15
 -0.78870515D-15 -0.48459612D-15  0.10561376D-15  0.38684758D-15  0.17693046D-15
 -0.93915659D-18  0.18335353D-15  0.34293511D-15  0.59387068D-15  0.96423652D-15
  0.14800835D-14  0.21023927D-14  0.26672186D-14  0.27612919D-14  0.17786075D-14
 -0.43745777D-15 -0.17832125D-14 -0.15552716D-14  0.79264736D-15 -0.54043852D-14
  0.75393323D-13  0.19599701D-14  0.35529794D-02  0.46865629D-02  0.52056201D-02
  0.44552771D-02  0.25457095D-02  0.82613824D-03  0.58170778D-06 -0.52330530D-11
 -0.69026665D-11 -0.76671669D-11 -0.65620142D-11 -0.37494822D-11 -0.12167887D-11
 -0.85677604D-15 -0.87234006D-13 -0.11506615D-12 -0.12781023D-12 -0.10938754D-12
 -0.62503160D-13 -0.20283638D-13 -0.14282295D-16 -0.33277926D-02 -0.45507136D-02
 -0.49470840D-02 -0.45411644D-02 -0.24751190D-02 -0.10444527D-02  0.36021907D-03
  0.48932448D-11  0.66914494D-11  0.72742795D-11  0.66774082D-11  0.36394586D-11
  0.15357816D-11 -0.52967246D-12  0.77938156D-13  0.10657943D-12  0.11586257D-12
  0.10635578D-12  0.57968220D-13  0.24461475D-13 -0.84364662D-14 -0.20788709D-03
  0.29819289D-12  0.36059599D-15  0.17266000D-03 -0.25503937D-12 -0.36255923D-14
 -0.88530862D-06  0.12891716D-14  0.30387175D-15  0.12757633D-12 -0.12914723D-12
  0.15709025D-14 -0.18236846D-03 -0.10250171D-03  0.15399789D-12  0.29997657D-12
 -0.29793350D-12 -0.20430627D-14 -0.41467860D-03 -0.28827677D-03  0.42006725D-12
  0.34451072D-14 -0.40250377D-14  0.57993048D-15 -0.67815540D-05 -0.36706716D-05
  0.64350663D-14  0.16258801D-04 -0.22388743D-13  0.16124931D-14  0.16172411D-04
 -0.25708084D-13 -0.22403906D-12 -0.64948815D-04  0.92874315D-13  0.21920158D-12
  0.30927120D-03  0.62274469D-06 -0.87006962D-15  0.47344154D-15  0.62063014D-06
 -0.34013080D-15 -0.11577197D-13 -0.24888642D-05  0.29503397D-14  0.10156873D-13
  0.16722326D-04  0.25231542D-15  0.45506126D-15  0.67098756D-15 -0.10035803D-13
 -0.20625312D-13 -0.21531500D-14 -0.58127933D-04  0.81784564D-13  0.88331728D-15
  0.10554730D-03 -0.15051875D-12  0.22931928D-14  0.74858420D-06 -0.39584402D-14
  0.45265336D-15  0.57628066D-13 -0.57072102D-13 -0.55596459D-15 -0.79305999D-04
 -0.17854509D-03  0.25246399D-12  0.51004547D-14 -0.59159610D-14  0.81550625D-15
 -0.83401252D-05 -0.13472936D-04  0.21771269D-13 -0.69453670D-09 -0.12946465D-08
 -0.21947441D-08 -0.33234894D-08 -0.41560352D-08 -0.35779591D-08 -0.13754981D-08
  0.59602585D-11 -0.37347404D-12 -0.70131810D-12 -0.11942238D-11 -0.18707445D-11
 -0.25070177D-11 -0.26966355D-11 -0.16190564D-11  0.10647596D-11 -0.70023089D-10
 -0.29348407D-12  0.71734352D-12 -0.13051651D-05 -0.12764229D-05 -0.84338659D-06
  0.61104322D-11  0.59758692D-11  0.39485095D-11 -0.23241658D-11 -0.22729834D-11
 -0.15018562D-11 -0.38205078D-04 -0.71350800D-12  0.25675052D-12  0.12495617D-03
 -0.38120946D-12  0.12826194D-12  0.61816506D-05 -0.62974415D-13  0.24176328D-13
  0.59612533D-12 -0.10418843D-11  0.44575894D-12  0.28420232D-03  0.37552685D-05
  0.12150034D-11 -0.19536755D-12  0.35456518D-12 -0.15919763D-12 -0.10132933D-03
 -0.51244949D-05 -0.40196761D-12 -0.27235337D-13  0.40545110D-13 -0.13309773D-13
 -0.71773191D-04  0.17421820D-04 -0.35243303D-13  0.22896599D-04  0.16212740D-12
  0.18104276D-12 -0.16181261D-03 -0.47566365D-12 -0.18022447D-12  0.93122815D-04
 -0.10718543D-13 -0.36290382D-12  0.12691801D-03 -0.20968400D-04 -0.79930058D-13
 -0.70495413D-13  0.11059481D-03  0.19254596D-12  0.29183125D-13 -0.47689607D-04
  0.47244211D-13  0.18230311D-12 -0.46185577D-04 -0.42088545D+00 -0.78454871D+00
 -0.13300029D+01 -0.20140164D+01 -0.25185346D+01 -0.21682237D+01 -0.83354435D+00
  0.36118841D-02 -0.22615246D-03 -0.42467427D-03 -0.72314704D-03 -0.11328056D-02
 -0.15180927D-02 -0.16329134D-02 -0.98039907D-03  0.64475167D-03 -0.42433231D-01
 -0.17437322D-03  0.43993023D-03 -0.32083843D-02 -0.31377298D-02 -0.20732308D-02
 -0.18504848D-02 -0.18097337D-02 -0.11957676D-02 -0.14106260D-02 -0.13795614D-02
 -0.91153453D-03  0.36576325D-03  0.23325742D-03  0.15761916D-03  0.23053850D-03
  0.60809614D-04  0.76713335D-04  0.34274459D-04  0.16204003D-04  0.15793290D-04
 -0.44606186D-03  0.17486244D-03  0.27119941D-03 -0.78922156D-03 -0.63227015D-03
 -0.36708129D-03  0.15404129D-03 -0.57057580D-04 -0.96983710D-04  0.26407984D-03
  0.20829783D-03  0.12326024D-03  0.29241392D-04 -0.21582914D-04 -0.76584784D-05
  0.16074576D-04  0.22897032D-04  0.31680386D-05 -0.30518236D-04  0.10422981D-03
  0.10957420D-03  0.62844637D-04 -0.27467996D-03 -0.21846554D-03  0.28710070D-04
 -0.38009470D-04 -0.11025707D-03 -0.58381021D-04  0.25645914D-04 -0.42346203D-04
 -0.42604810D-04 -0.40497944D-04  0.12035907D-03  0.96542315D-04 -0.36439798D-04
  0.66795340D-05  0.31272114D-04  0.66874967D-04  0.42088545D+00  0.78454872D+00
  0.13300029D+01  0.20140164D+01  0.25185346D+01  0.21682237D+01  0.83354435D+00
 -0.36118841D-02  0.22615246D-03  0.42467427D-03  0.72314705D-03  0.11328056D-02
  0.15180927D-02  0.16329134D-02  0.98039907D-03 -0.64475168D-03  0.42433231D-01
  0.17437322D-03 -0.43993023D-03 -0.32083844D-02 -0.31377298D-02 -0.20732308D-02
  0.18504848D-02  0.18097337D-02  0.11957676D-02  0.14106260D-02  0.13795614D-02
  0.91153453D-03  0.36576325D-03 -0.23325742D-03 -0.15761916D-03  0.23053850D-03
 -0.60809615D-04 -0.76713336D-04  0.34274459D-04 -0.16204004D-04 -0.15793290D-04
  0.44606186D-03 -0.17486244D-03 -0.27119941D-03 -0.78922156D-03 -0.63227015D-03
  0.36708129D-03 -0.15404129D-03  0.57057580D-04  0.96983710D-04  0.26407984D-03
  0.20829783D-03 -0.12326024D-03 -0.29241392D-04  0.21582914D-04  0.76584785D-05
  0.16074577D-04  0.22897032D-04 -0.31680387D-05 -0.30518235D-04 -0.10422981D-03
 -0.10957420D-03  0.62844637D-04  0.27467997D-03  0.21846554D-03  0.28710070D-04
  0.38009469D-04  0.11025707D-03 -0.58381021D-04  0.25645914D-04  0.42346203D-04
  0.42604810D-04 -0.40497944D-04 -0.12035907D-03 -0.96542315D-04 -0.36439798D-04
 -0.66795339D-05 -0.31272114D-04  0.66874967D-04
MO    3     MO 0.0        OCC NO =    2.0000000  ORB. ENERGY =  -25.265843
  0.94261402D-04  0.17632148D-03  0.30449926D-03  0.49184569D-03  0.74070948D-03
  0.10073614D-02  0.11467788D-02  0.92904811D-03  0.37711898D-03  0.34388064D-04
 -0.13215409D-05  0.44191377D-06  0.24799199D-07 -0.18223119D-03 -0.34108661D-03
 -0.58992241D-03 -0.95881224D-03 -0.14669749D-02 -0.20817388D-02 -0.26113684D-02
 -0.26625163D-02 -0.16359030D-02  0.35653167D-03  0.13059227D-02  0.59728309D-03
 -0.31704114D-05  0.10883387D-03  0.20355732D-03  0.35250613D-03  0.57234562D-03
  0.87853894D-03  0.12479254D-02  0.15831913D-02  0.16390307D-02  0.10557350D-02
 -0.25966351D-03 -0.10584684D-02 -0.92316859D-03  0.47049477D-03 -0.15244344D-03
 -0.25279384D-03  0.35620652D-04 -0.33900892D-11 -0.44717024D-11 -0.49669628D-11
 -0.42510201D-11 -0.24289987D-11 -0.78826304D-12 -0.55503876D-15 -0.22984133D-02
 -0.30317256D-02 -0.33675024D-02 -0.28821074D-02 -0.16468130D-02 -0.53442673D-03
 -0.37630528D-06 -0.18993803D-02 -0.25053805D-02 -0.27828622D-02 -0.23817378D-02
 -0.13609059D-02 -0.44164362D-03 -0.31097402D-06  0.31710170D-11  0.43363249D-11
  0.47140220D-11  0.43272257D-11  0.23585137D-11  0.99524749D-12 -0.34324879D-12
  0.21526935D-02  0.29437807D-02  0.32001862D-02  0.29376036D-02  0.16011132D-02
  0.67563903D-03 -0.23301971D-03  0.17614092D-02  0.24087044D-02  0.26185044D-02
  0.24036501D-02  0.13100869D-02  0.55283151D-03 -0.19066488D-03  0.19020331D-12
  0.13459761D-03  0.87113223D-04 -0.16243272D-12 -0.11176262D-03 -0.77966492D-04
  0.13122097D-14  0.57300169D-06  0.14051494D-05  0.82453198D-04 -0.35684485D-04
 -0.46768713D-04  0.16866664D-12  0.94744189D-13  0.66348802D-04  0.19302093D-03
 -0.75628048D-04 -0.11739288D-03  0.39006795D-12  0.27187319D-12  0.18644861D-03
  0.27098147D-05 -0.16819168D-05 -0.10278979D-05  0.60175765D-14  0.28727241D-14
  0.23770882D-05 -0.14904346D-13  0.35525937D-04  0.21540499D-04 -0.15408382D-13
 -0.14864228D-03 -0.13247657D-03  0.60121419D-13  0.42064472D-04  0.67855073D-04
 -0.28774571D-12 -0.25452023D-15 -0.22601005D-05 -0.41085693D-05 -0.87047821D-15
  0.51673186D-05  0.74704925D-06  0.16340389D-14  0.16129829D-05  0.11578659D-04
 -0.14563273D-13 -0.13698420D-04 -0.24705665D-04 -0.36428488D-04  0.11851005D-03
  0.30623801D-03 -0.10484805D-04  0.51698980D-13  0.37648670D-04  0.13086440D-04
 -0.95305439D-13 -0.68337060D-04 -0.70378134D-04  0.85808312D-15 -0.47913545D-06
 -0.41671563D-04 -0.69169069D-05 -0.58286712D-04  0.65203619D-04  0.73668566D-13
  0.16378251D-12  0.11554000D-03  0.33900281D-05 -0.20140216D-05 -0.13760065D-05
  0.74964403D-14  0.12692254D-13  0.87296457D-05 -0.52689859D-01 -0.98216180D-01
 -0.16650057D+00 -0.25213094D+00 -0.31529062D+00 -0.27143585D+00 -0.10434985D+00
  0.45216499D-03 -0.34451295D-05 -0.64693431D-05 -0.11016176D-04 -0.17256774D-04
 -0.23126107D-04 -0.24875246D-04 -0.14935065D-04  0.98219272D-05 -0.53094039D-02
  0.14956349D-03  0.26655102D-03  0.56880331D-14  0.55627721D-14  0.36755587D-14
  0.55483209D-03  0.54261367D-03  0.35852779D-03 -0.19120932D-03 -0.18699854D-03
 -0.12355784D-03  0.31921220D-13 -0.82051161D-04  0.33880908D-04 -0.11215163D-12
 -0.87377551D-04 -0.13678491D-04 -0.60686637D-14 -0.22928175D-04  0.11557720D-04
  0.96780540D-04 -0.24970621D-03  0.15292567D-03 -0.25734402D-12 -0.36836880D-14
  0.18197583D-03 -0.38674596D-04  0.10051274D-03 -0.61838139D-04  0.91383882D-13
  0.49213176D-14 -0.76595198D-04  0.48429874D-05 -0.32725746D-06 -0.45157299D-05
  0.66734315D-13 -0.16209683D-13  0.32208940D-04 -0.20400150D-13  0.26732079D-04
  0.61217019D-04  0.15248796D-12 -0.10215831D-03 -0.21177735D-03 -0.91287513D-13
  0.21962073D-04  0.28126297D-04 -0.12074306D-12  0.19188925D-13 -0.21744090D-04
 -0.22568697D-04 -0.10313666D-12  0.35666461D-04  0.61989056D-04  0.45569889D-13
  0.29565809D-04  0.57170358D-05  0.43519657D-13  0.41919995D+00  0.78140686D+00
  0.13246767D+01  0.20059510D+01  0.25084487D+01  0.21595407D+01  0.83020629D+00
 -0.35974198D-02  0.25018598D-03  0.46980497D-03  0.79999683D-03  0.12531903D-02
  0.16794224D-02  0.18064453D-02  0.10845874D-02 -0.71327028D-03  0.42266198D-01
  0.34489788D-03 -0.22670255D-03  0.31164067D-02  0.30477777D-02  0.20137956D-02
  0.17986494D-02  0.17590398D-02  0.11622720D-02  0.13904653D-02  0.13598447D-02
  0.89850687D-03 -0.36092598D-03 -0.18340006D-03 -0.14284437D-03 -0.11259783D-03
 -0.14591325D-03 -0.99779487D-04 -0.15090830D-04 -0.12709148D-04 -0.61577523D-05
  0.19910428D-03 -0.47929728D-04 -0.15117455D-03  0.74436494D-03  0.55374741D-03
  0.31696313D-03 -0.57941999D-04  0.10971146D-04  0.46970853D-04 -0.23244916D-03
 -0.17023481D-03 -0.94943123D-04  0.31247771D-05 -0.71369735D-05  0.40121964D-05
 -0.62778287D-04 -0.43830872D-04 -0.36530186D-04 -0.26670718D-04 -0.59419907D-04
 -0.61670622D-04  0.77677606D-04  0.23751702D-03  0.15194223D-03  0.23345475D-05
 -0.59257298D-04  0.33069641D-04  0.34436986D-03  0.21443825D-04  0.25285111D-04
  0.25213181D-04 -0.52459111D-04 -0.10002771D-03 -0.66233373D-04 -0.11872366D-04
  0.24172383D-04 -0.94061711D-05 -0.14958659D-03  0.41919995D+00  0.78140686D+00
  0.13246767D+01  0.20059510D+01  0.25084487D+01  0.21595407D+01  0.83020629D+00
 -0.35974197D-02  0.25018598D-03  0.46980497D-03  0.79999683D-03  0.12531903D-02
  0.16794224D-02  0.18064453D-02  0.10845874D-02 -0.71327028D-03  0.42266198D-01
  0.34489788D-03 -0.22670255D-03 -0.31164067D-02 -0.30477777D-02 -0.20137956D-02
  0.17986494D-02  0.17590398D-02  0.11622720D-02  0.13904653D-02  0.13598447D-02
  0.89850687D-03  0.36092598D-03 -0.18340006D-03 -0.14284437D-03  0.11259783D-03
 -0.14591325D-03 -0.99779487D-04  0.15090830D-04 -0.12709148D-04 -0.61577523D-05
  0.19910428D-03 -0.47929728D-04 -0.15117455D-03 -0.74436494D-03 -0.55374741D-03
  0.31696313D-03 -0.57941999D-04  0.10971146D-04  0.46970853D-04  0.23244916D-03
  0.17023481D-03 -0.94943123D-04  0.31247772D-05 -0.71369735D-05  0.40121964D-05
  0.62778287D-04  0.43830872D-04 -0.36530186D-04  0.26670718D-04 -0.59419907D-04
 -0.61670622D-04 -0.77677606D-04  0.23751702D-03  0.15194223D-03 -0.23345476D-05
 -0.59257298D-04  0.33069641D-04 -0.34436986D-03 -0.21443825D-04  0.25285110D-04
  0.25213181D-04  0.52459111D-04 -0.10002771D-03 -0.66233372D-04  0.11872366D-04
  0.24172383D-04 -0.94061710D-05  0.14958659D-03
MO    4     MO 0.0        OCC NO =    2.0000000  ORB. ENERGY =  -25.265792
  0.80084606D-04  0.14980295D-03  0.25870296D-03  0.41787271D-03  0.62930771D-03
  0.85585551D-03  0.97430473D-03  0.78932044D-03  0.32040076D-03  0.29216142D-04
 -0.11227828D-05  0.37545050D-06  0.21069431D-07 -0.15482891D-03 -0.28979709D-03
 -0.50121522D-03 -0.81463474D-03 -0.12463845D-02 -0.17687057D-02 -0.22186945D-02
 -0.22621512D-02 -0.13899107D-02  0.30291966D-03  0.11095499D-02  0.50746906D-03
 -0.26936736D-05  0.92469490D-04  0.17295023D-03  0.29950293D-03  0.48628712D-03
  0.74644090D-03  0.10602860D-02  0.13451410D-02  0.13925843D-02  0.89699353D-03
 -0.22062023D-03 -0.89931595D-03 -0.78435998D-03  0.39975068D-03 -0.12934989D-03
 -0.21523352D-03  0.30251346D-04  0.38586559D-11  0.50897660D-11  0.56534797D-11
  0.48385818D-11  0.27647268D-11  0.89721410D-12  0.63175435D-15  0.27079976D-02
  0.35719884D-02  0.39676016D-02  0.33957078D-02  0.19402801D-02  0.62966320D-03
  0.44336403D-06 -0.16139258D-02 -0.21288513D-02 -0.23646308D-02 -0.20237907D-02
 -0.11563777D-02 -0.37526978D-03 -0.26423829D-06 -0.36132701D-11 -0.49411004D-11
 -0.53714738D-11 -0.49307321D-11 -0.26874492D-11 -0.11340520D-11  0.39112076D-12