 Molden2AIM, Version 4.0.0 (06/02/2016)           Time: Thu Jun 28 04:13:23 2018
GAUSSIAN             23 MOL ORBITALS    393 PRIMITIVES        3 NUCLEI
  Si   1    (CENTRE  1)   0.00000000  0.00000000  0.00000000  CHARGE = 14.0
  S    2    (CENTRE  2)   0.00000000  0.00000000  3.66747464  CHARGE = 16.0
  S    3    (CENTRE  3)   0.00000000  0.00000000 -3.66747464  CHARGE = 16.0
CENTRE ASSIGNMENTS    1  1  1  1  1  1  1  1  1  1  1  1  1  1  1  1  1  1  1  1
CENTRE ASSIGNMENTS    1  1  1  1  1  1  1  1  1  1  1  1  1  1  1  1  1  1  1  1
CENTRE ASSIGNMENTS    1  1  1  1  1  1  1  1  1  1  1  1  1  1  1  1  1  1  1  1
CENTRE ASSIGNMENTS    1  1  1  1  1  1  1  1  1  1  1  1  1  1  1  1  1  1  1  1
CENTRE ASSIGNMENTS    1  1  1  1  1  1  1  1  1  1  1  1  1  1  1  1  1  1  1  1
CENTRE ASSIGNMENTS    1  1  1  1  1  1  1  1  1  1  1  1  1  1  1  1  1  1  1  1
CENTRE ASSIGNMENTS    1  1  1  1  1  1  1  1  1  1  1  2  2  2  2  2  2  2  2  2
CENTRE ASSIGNMENTS    2  2  2  2  2  2  2  2  2  2  2  2  2  2  2  2  2  2  2  2
CENTRE ASSIGNMENTS    2  2  2  2  2  2  2  2  2  2  2  2  2  2  2  2  2  2  2  2
CENTRE ASSIGNMENTS    2  2  2  2  2  2  2  2  2  2  2  2  2  2  2  2  2  2  2  2
CENTRE ASSIGNMENTS    2  2  2  2  2  2  2  2  2  2  2  2  2  2  2  2  2  2  2  2
CENTRE ASSIGNMENTS    2  2  2  2  2  2  2  2  2  2  2  2  2  2  2  2  2  2  2  2
CENTRE ASSIGNMENTS    2  2  2  2  2  2  2  2  2  2  2  2  2  2  2  2  2  2  2  2
CENTRE ASSIGNMENTS    2  2  3  3  3  3  3  3  3  3  3  3  3  3  3  3  3  3  3  3
CENTRE ASSIGNMENTS    3  3  3  3  3  3  3  3  3  3  3  3  3  3  3  3  3  3  3  3
CENTRE ASSIGNMENTS    3  3  3  3  3  3  3  3  3  3  3  3  3  3  3  3  3  3  3  3
CENTRE ASSIGNMENTS    3  3  3  3  3  3  3  3  3  3  3  3  3  3  3  3  3  3  3  3
CENTRE ASSIGNMENTS    3  3  3  3  3  3  3  3  3  3  3  3  3  3  3  3  3  3  3  3
CENTRE ASSIGNMENTS    3  3  3  3  3  3  3  3  3  3  3  3  3  3  3  3  3  3  3  3
CENTRE ASSIGNMENTS    3  3  3  3  3  3  3  3  3  3  3  3  3
TYPE ASSIGNMENTS      1  1  1  1  1  1  1  1  1  1  1  1  1  1  1  1  1  1  1  1
TYPE ASSIGNMENTS      1  1  1  1  1  1  1  1  1  1  1  1  1  1  1  1  1  1  1  1
TYPE ASSIGNMENTS      1  1  2  2  2  2  2  2  2  3  3  3  3  3  3  3  4  4  4  4
TYPE ASSIGNMENTS      4  4  4  2  2  2  2  2  2  2  3  3  3  3  3  3  3  4  4  4
TYPE ASSIGNMENTS      4  4  4  4  2  3  4  2  3  4  2  3  4  5  6  7  8  9 10  5
TYPE ASSIGNMENTS      6  7  8  9 10  5  6  7  8  9 10 11 12 13 17 14 15 18 19 16
TYPE ASSIGNMENTS     20 11 12 13 17 14 15 18 19 16 20  1  1  1  1  1  1  1  1  1
TYPE ASSIGNMENTS      1  1  1  1  1  1  1  1  1  1  1  1  1  1  1  1  1  1  1  1
TYPE ASSIGNMENTS      1  1  1  1  1  1  1  1  1  1  1  1  1  2  2  2  2  2  2  2
TYPE ASSIGNMENTS      3  3  3  3  3  3  3  4  4  4  4  4  4  4  2  2  2  2  2  2
TYPE ASSIGNMENTS      2  3  3  3  3  3  3  3  4  4  4  4  4  4  4  2  3  4  2  3
TYPE ASSIGNMENTS      4  2  3  4  5  6  7  8  9 10  5  6  7  8  9 10  5  6  7  8
TYPE ASSIGNMENTS      9 10 11 12 13 17 14 15 18 19 16 20 11 12 13 17 14 15 18 19
TYPE ASSIGNMENTS     16 20  1  1  1  1  1  1  1  1  1  1  1  1  1  1  1  1  1  1
TYPE ASSIGNMENTS      1  1  1  1  1  1  1  1  1  1  1  1  1  1  1  1  1  1  1  1
TYPE ASSIGNMENTS      1  1  1  1  2  2  2  2  2  2  2  3  3  3  3  3  3  3  4  4
TYPE ASSIGNMENTS      4  4  4  4  4  2  2  2  2  2  2  2  3  3  3  3  3  3  3  4
TYPE ASSIGNMENTS      4  4  4  4  4  4  2  3  4  2  3  4  2  3  4  5  6  7  8  9
TYPE ASSIGNMENTS     10  5  6  7  8  9 10  5  6  7  8  9 10 11 12 13 17 14 15 18
TYPE ASSIGNMENTS     19 16 20 11 12 13 17 14 15 18 19 16 20
EXPONENTS  0.2549000D+06 0.3819000D+05 0.8690000D+04 0.2462000D+04 0.8048000D+03
EXPONENTS  0.2913000D+03 0.1136000D+03 0.4675000D+02 0.1982000D+02 0.7708000D+01
EXPONENTS  0.3340000D+01 0.1402000D+01 0.2070000D+00 0.2549000D+06 0.3819000D+05
EXPONENTS  0.8690000D+04 0.2462000D+04 0.8048000D+03 0.2913000D+03 0.1136000D+03
EXPONENTS  0.4675000D+02 0.1982000D+02 0.7708000D+01 0.3340000D+01 0.1402000D+01
EXPONENTS  0.2070000D+00 0.2549000D+06 0.3819000D+05 0.8690000D+04 0.2462000D+04
EXPONENTS  0.8048000D+03 0.2913000D+03 0.1136000D+03 0.4675000D+02 0.1982000D+02
EXPONENTS  0.7708000D+01 0.3340000D+01 0.1402000D+01 0.2070000D+00 0.4387000D+00
EXPONENTS  0.7944000D-01 0.3300000D-01 0.4815000D+03 0.1139000D+03 0.3623000D+02
EXPONENTS  0.1334000D+02 0.5252000D+01 0.2120000D+01 0.2528000D+00 0.4815000D+03
EXPONENTS  0.1139000D+03 0.3623000D+02 0.1334000D+02 0.5252000D+01 0.2120000D+01
EXPONENTS  0.2528000D+00 0.4815000D+03 0.1139000D+03 0.3623000D+02 0.1334000D+02
EXPONENTS  0.5252000D+01 0.2120000D+01 0.2528000D+00 0.4815000D+03 0.1139000D+03
EXPONENTS  0.3623000D+02 0.1334000D+02 0.5252000D+01 0.2120000D+01 0.2528000D+00
EXPONENTS  0.4815000D+03 0.1139000D+03 0.3623000D+02 0.1334000D+02 0.5252000D+01
EXPONENTS  0.2120000D+01 0.2528000D+00 0.4815000D+03 0.1139000D+03 0.3623000D+02
EXPONENTS  0.1334000D+02 0.5252000D+01 0.2120000D+01 0.2528000D+00 0.8561000D+00
EXPONENTS  0.8561000D+00 0.8561000D+00 0.7889000D-01 0.7889000D-01 0.7889000D-01
EXPONENTS  0.2370000D-01 0.2370000D-01 0.2370000D-01 0.1590000D+00 0.1590000D+00
EXPONENTS  0.1590000D+00 0.1590000D+00 0.1590000D+00 0.1590000D+00 0.4810000D+00
EXPONENTS  0.4810000D+00 0.4810000D+00 0.4810000D+00 0.4810000D+00 0.4810000D+00
EXPONENTS  0.5560000D-01 0.5560000D-01 0.5560000D-01 0.5560000D-01 0.5560000D-01
EXPONENTS  0.5560000D-01 0.3360000D+00 0.3360000D+00 0.3360000D+00 0.3360000D+00
EXPONENTS  0.3360000D+00 0.3360000D+00 0.3360000D+00 0.3360000D+00 0.3360000D+00
EXPONENTS  0.3360000D+00 0.1250000D+00 0.1250000D+00 0.1250000D+00 0.1250000D+00
EXPONENTS  0.1250000D+00 0.1250000D+00 0.1250000D+00 0.1250000D+00 0.1250000D+00
EXPONENTS  0.1250000D+00 0.3741000D+06 0.5605000D+05 0.1276000D+05 0.3615000D+04
EXPONENTS  0.1183000D+04 0.4288000D+03 0.1678000D+03 0.6947000D+02 0.2984000D+02
EXPONENTS  0.1272000D+02 0.5244000D+01 0.2219000D+01 0.3490000D+00 0.3741000D+06
EXPONENTS  0.5605000D+05 0.1276000D+05 0.3615000D+04 0.1183000D+04 0.4288000D+03
EXPONENTS  0.1678000D+03 0.6947000D+02 0.2984000D+02 0.1272000D+02 0.5244000D+01
EXPONENTS  0.2219000D+01 0.3490000D+00 0.3741000D+06 0.5605000D+05 0.1276000D+05
EXPONENTS  0.3615000D+04 0.1183000D+04 0.4288000D+03 0.1678000D+03 0.6947000D+02
EXPONENTS  0.2984000D+02 0.1272000D+02 0.5244000D+01 0.2219000D+01 0.3490000D+00
EXPONENTS  0.7767000D+00 0.1322000D+00 0.4970000D-01 0.5744000D+03 0.1358000D+03
EXPONENTS  0.4319000D+02 0.1587000D+02 0.6208000D+01 0.2483000D+01 0.3229000D+00
EXPONENTS  0.5744000D+03 0.1358000D+03 0.4319000D+02 0.1587000D+02 0.6208000D+01
EXPONENTS  0.2483000D+01 0.3229000D+00 0.5744000D+03 0.1358000D+03 0.4319000D+02
EXPONENTS  0.1587000D+02 0.6208000D+01 0.2483000D+01 0.3229000D+00 0.5744000D+03
EXPONENTS  0.1358000D+03 0.4319000D+02 0.1587000D+02 0.6208000D+01 0.2483000D+01
EXPONENTS  0.3229000D+00 0.5744000D+03 0.1358000D+03 0.4319000D+02 0.1587000D+02
EXPONENTS  0.6208000D+01 0.2483000D+01 0.3229000D+00 0.5744000D+03 0.1358000D+03
EXPONENTS  0.4319000D+02 0.1587000D+02 0.6208000D+01 0.2483000D+01 0.3229000D+00
EXPONENTS  0.8688000D+00 0.8688000D+00 0.8688000D+00 0.1098000D+00 0.1098000D+00
EXPONENTS  0.1098000D+00 0.3510000D-01 0.3510000D-01 0.3510000D-01 0.2690000D+00
EXPONENTS  0.2690000D+00 0.2690000D+00 0.2690000D+00 0.2690000D+00 0.2690000D+00
EXPONENTS  0.8190000D+00 0.8190000D+00 0.8190000D+00 0.8190000D+00 0.8190000D+00
EXPONENTS  0.8190000D+00 0.1010000D+00 0.1010000D+00 0.1010000D+00 0.1010000D+00
EXPONENTS  0.1010000D+00 0.1010000D+00 0.5570000D+00 0.5570000D+00 0.5570000D+00
EXPONENTS  0.5570000D+00 0.5570000D+00 0.5570000D+00 0.5570000D+00 0.5570000D+00
EXPONENTS  0.5570000D+00 0.5570000D+00 0.2180000D+00 0.2180000D+00 0.2180000D+00
EXPONENTS  0.2180000D+00 0.2180000D+00 0.2180000D+00 0.2180000D+00 0.2180000D+00
EXPONENTS  0.2180000D+00 0.2180000D+00 0.3741000D+06 0.5605000D+05 0.1276000D+05
EXPONENTS  0.3615000D+04 0.1183000D+04 0.4288000D+03 0.1678000D+03 0.6947000D+02
EXPONENTS  0.2984000D+02 0.1272000D+02 0.5244000D+01 0.2219000D+01 0.3490000D+00
EXPONENTS  0.3741000D+06 0.5605000D+05 0.1276000D+05 0.3615000D+04 0.1183000D+04
EXPONENTS  0.4288000D+03 0.1678000D+03 0.6947000D+02 0.2984000D+02 0.1272000D+02
EXPONENTS  0.5244000D+01 0.2219000D+01 0.3490000D+00 0.3741000D+06 0.5605000D+05
EXPONENTS  0.1276000D+05 0.3615000D+04 0.1183000D+04 0.4288000D+03 0.1678000D+03
EXPONENTS  0.6947000D+02 0.2984000D+02 0.1272000D+02 0.5244000D+01 0.2219000D+01
EXPONENTS  0.3490000D+00 0.7767000D+00 0.1322000D+00 0.4970000D-01 0.5744000D+03
EXPONENTS  0.1358000D+03 0.4319000D+02 0.1587000D+02 0.6208000D+01 0.2483000D+01
EXPONENTS  0.3229000D+00 0.5744000D+03 0.1358000D+03 0.4319000D+02 0.1587000D+02
EXPONENTS  0.6208000D+01 0.2483000D+01 0.3229000D+00 0.5744000D+03 0.1358000D+03
EXPONENTS  0.4319000D+02 0.1587000D+02 0.6208000D+01 0.2483000D+01 0.3229000D+00
EXPONENTS  0.5744000D+03 0.1358000D+03 0.4319000D+02 0.1587000D+02 0.6208000D+01
EXPONENTS  0.2483000D+01 0.3229000D+00 0.5744000D+03 0.1358000D+03 0.4319000D+02
EXPONENTS  0.1587000D+02 0.6208000D+01 0.2483000D+01 0.3229000D+00 0.5744000D+03
EXPONENTS  0.1358000D+03 0.4319000D+02 0.1587000D+02 0.6208000D+01 0.2483000D+01
EXPONENTS  0.3229000D+00 0.8688000D+00 0.8688000D+00 0.8688000D+00 0.1098000D+00
EXPONENTS  0.1098000D+00 0.1098000D+00 0.3510000D-01 0.3510000D-01 0.3510000D-01
EXPONENTS  0.2690000D+00 0.2690000D+00 0.2690000D+00 0.2690000D+00 0.2690000D+00
EXPONENTS  0.2690000D+00 0.8190000D+00 0.8190000D+00 0.8190000D+00 0.8190000D+00
EXPONENTS  0.8190000D+00 0.8190000D+00 0.1010000D+00 0.1010000D+00 0.1010000D+00
EXPONENTS  0.1010000D+00 0.1010000D+00 0.1010000D+00 0.5570000D+00 0.5570000D+00
EXPONENTS  0.5570000D+00 0.5570000D+00 0.5570000D+00 0.5570000D+00 0.5570000D+00
EXPONENTS  0.5570000D+00 0.5570000D+00 0.5570000D+00 0.2180000D+00 0.2180000D+00
EXPONENTS  0.2180000D+00 0.2180000D+00 0.2180000D+00 0.2180000D+00 0.2180000D+00
EXPONENTS  0.2180000D+00 0.2180000D+00 0.2180000D+00
MO    1     MO 0.0        OCC NO =    2.0000000  ORB. ENERGY =  -89.950373
  0.14618889D-11  0.27345488D-11  0.47224429D-11  0.76279763D-11  0.11487575D-10
  0.15623048D-10  0.17785257D-10  0.14408497D-10  0.58486935D-11  0.53332040D-12
 -0.20495622D-13  0.68535882D-14  0.38460784D-15 -0.28382896D-11 -0.53124966D-11
 -0.91881672D-11 -0.14933705D-10 -0.22848447D-10 -0.32423525D-10 -0.40672619D-10
 -0.41469259D-10 -0.25479537D-10  0.55530567D-11  0.20340025D-10  0.93028113D-11
 -0.49379832D-13  0.15986104D-11  0.29899596D-11  0.51777999D-11  0.84069207D-11
  0.12904453D-10  0.18330200D-10  0.23254766D-10  0.24074966D-10  0.15507204D-10
 -0.38140774D-11 -0.15547354D-10 -0.13559997D-10  0.69108806D-11 -0.18798622D-11
  0.38226804D-10  0.69100093D-11  0.15119452D-15  0.19943337D-15  0.22152148D-15
  0.18959116D-15  0.10833087D-15  0.35155728D-16  0.24754163D-19  0.22069702D-14
  0.29111074D-14  0.32335252D-14  0.27674418D-14  0.15812940D-14  0.51316438D-15
  0.36133385D-18 -0.16906922D-02 -0.22301102D-02 -0.24771046D-02 -0.21200524D-02
 -0.12113809D-02 -0.39311951D-03 -0.27680679D-06  0.12822837D-16  0.17535065D-16
  0.19062382D-16  0.17498270D-16  0.95372678D-17  0.40245438D-17 -0.13880164D-17
 -0.62040102D-15 -0.84839042D-15 -0.92228584D-15 -0.84661017D-15 -0.46143692D-15
 -0.19471752D-15  0.67155711D-16  0.17037768D-02  0.23298929D-02  0.25328282D-02
  0.23250039D-02  0.12672215D-02  0.53474314D-03 -0.18442642D-03 -0.25445263D-16
 -0.60712881D-15 -0.28169545D-03  0.43135484D-20 -0.87435142D-18 -0.68779469D-04
 -0.11765279D-20 -0.76903403D-20  0.49303187D-06 -0.17051934D-11 -0.17051934D-11
  0.34103868D-11  0.36645551D-21 -0.92015222D-19 -0.14477651D-17  0.35118688D-12
  0.35118688D-12 -0.70237376D-12  0.18288449D-21  0.11385671D-19 -0.11560289D-18
 -0.33751751D-12 -0.33751751D-12  0.67503502D-12 -0.10737393D-21 -0.16264011D-19
 -0.10335987D-18  0.36352362D-20  0.22828421D-18  0.79039384D-04  0.35654479D-20
  0.22850295D-18 -0.11855908D-03 -0.14471157D-19 -0.91335559D-18 -0.11855908D-03
  0.16238329D-20 -0.84488040D-21  0.74943998D-19  0.15835393D-04 -0.86846435D-21
  0.74970197D-19 -0.23753090D-04  0.34031055D-20 -0.29980219D-18 -0.23753090D-04
  0.40115700D-21 -0.41370578D+00 -0.77339892D+00 -0.13366748D+01 -0.21620115D+01
 -0.32677538D+01 -0.45002332D+01 -0.52597292D+01 -0.45448029D+01 -0.21197123D+01
 -0.28781113D+00 -0.77068730D-03 -0.15117699D-02 -0.69018610D-04  0.74121158D-03
  0.13842442D-02  0.24011857D-02  0.38934396D-02  0.59943936D-02  0.85373629D-02
  0.10977940D-01  0.11523571D-01  0.81479811D-02 -0.18044045D-03 -0.58544297D-02
 -0.32236079D-02  0.13632583D-04 -0.31336685D-03 -0.58478889D-03 -0.10157083D-02
 -0.16452221D-02 -0.25413867D-02 -0.36231285D-02 -0.47125067D-02 -0.50222619D-02
 -0.37249072D-02  0.11594253D-03  0.33745719D-02  0.33059157D-02 -0.15440587D-02
  0.18583665D-02  0.38769846D-03  0.16310441D-03 -0.53037362D-17 -0.69582131D-17
 -0.76320992D-17 -0.62798122D-17 -0.33108412D-17 -0.86132439D-18  0.95314325D-21
  0.19704766D-16  0.25851580D-16  0.28355243D-16  0.23331143D-16  0.12300640D-16
  0.32000451D-17 -0.35411762D-20  0.67554595D-02  0.88627950D-02  0.97211352D-02
  0.79987041D-02  0.42170750D-02  0.10970836D-02 -0.12140348D-05  0.22389656D-17
  0.29397754D-17  0.33074456D-17  0.27867729D-17  0.15588817D-17  0.38800249D-18
 -0.17795663D-18 -0.10627602D-16 -0.13954106D-16 -0.15699310D-16 -0.13227856D-16
 -0.73994770D-17 -0.18417148D-17  0.84469913D-18 -0.57056171D-02 -0.74915100D-02
 -0.84284539D-02 -0.71016097D-02 -0.39725409D-02 -0.98875734D-03  0.45349176D-03
  0.36904926D-18 -0.17282155D-17 -0.28764561D-03  0.10834176D-18  0.20213082D-17
 -0.27348430D-03  0.65462800D-20  0.46017406D-19 -0.12087949D-04 -0.12784633D-04
 -0.12784633D-04  0.25569265D-04 -0.96304424D-20 -0.36818525D-19 -0.23456107D-17
  0.10562882D-03  0.10562882D-03 -0.21125764D-03  0.96141527D-19  0.10433512D-18
  0.24564691D-17 -0.16879274D-04 -0.16879274D-04  0.33758547D-04  0.63249389D-21
 -0.28338195D-19 -0.52172197D-18  0.11817507D-19  0.84453550D-19  0.45110695D-04
  0.99491252D-20  0.81284511D-19 -0.67666043D-04 -0.45401646D-19 -0.33464516D-18
 -0.67666043D-04  0.22453687D-20 -0.84229974D-20 -0.17263847D-18 -0.14987330D-04
 -0.83556435D-20 -0.17230854D-18  0.22480996D-04  0.33624636D-19  0.69022396D-18
  0.22480996D-04  0.99867666D-21  0.41370581D+00  0.77339897D+00  0.13366749D+01
  0.21620117D+01  0.32677540D+01  0.45002335D+01  0.52597296D+01  0.45448032D+01
  0.21197124D+01  0.28781115D+00  0.77068735D-03  0.15117700D-02  0.69018614D-04
 -0.74121162D-03 -0.13842443D-02 -0.24011859D-02 -0.38934399D-02 -0.59943939D-02
 -0.85373634D-02 -0.10977941D-01 -0.11523571D-01 -0.81479816D-02  0.18044046D-03
  0.58544301D-02  0.32236081D-02 -0.13632584D-04  0.31336686D-03  0.58478892D-03
  0.10157084D-02  0.16452222D-02  0.25413868D-02  0.36231287D-02  0.47125070D-02
  0.50222621D-02  0.37249074D-02 -0.11594254D-03 -0.33745720D-02 -0.33059159D-02
  0.15440588D-02 -0.18583666D-02 -0.38769852D-03 -0.16310443D-03  0.96598217D-17
  0.12673160D-16  0.13900525D-16  0.11437572D-16  0.60301143D-17  0.15687507D-17
 -0.17359826D-20  0.16717306D-16  0.21932195D-16  0.24056275D-16  0.19793884D-16
  0.10435727D-16  0.27148830D-17 -0.30042948D-20  0.67554595D-02  0.88627950D-02
  0.97211352D-02  0.79987041D-02  0.42170750D-02  0.10970836D-02 -0.12140349D-05
 -0.18832068D-17 -0.24726620D-17 -0.27819114D-17 -0.23439707D-17 -0.13111844D-17
 -0.32635112D-18  0.14968035D-18 -0.14736154D-16 -0.19348661D-16 -0.21768548D-16
 -0.18341647D-16 -0.10260060D-16 -0.25537081D-17  0.11712536D-17 -0.57056171D-02
 -0.74915100D-02 -0.84284539D-02 -0.71016097D-02 -0.39725409D-02 -0.98875734D-03
  0.45349176D-03 -0.62812997D-18 -0.65461829D-18 -0.28764561D-03 -0.10315920D-18
  0.14536777D-18 -0.27348433D-03 -0.65435329D-20 -0.43142281D-19 -0.12087949D-04
  0.12784635D-04  0.12784635D-04 -0.25569270D-04  0.76922179D-21 -0.50039641D-19
  0.48807714D-18 -0.10562882D-03 -0.10562882D-03  0.21125765D-03 -0.88357421D-20
  0.97025181D-20  0.29934661D-18  0.16879274D-04  0.16879274D-04 -0.33758549D-04
  0.26116623D-21 -0.23922050D-19 -0.44313724D-19 -0.77579072D-20 -0.12281554D-18
  0.45110696D-04 -0.52597915D-20 -0.12128149D-18 -0.67666045D-04  0.28533513D-19
  0.48972810D-18 -0.67666045D-04 -0.61698266D-20  0.57787091D-20  0.36878777D-19
 -0.14987331D-04  0.55864502D-20  0.36898901D-19  0.22480997D-04 -0.22922578D-19
 -0.14753523D-18  0.22480997D-04  0.61209967D-21
MO    2     MO 0.0        OCC NO =    2.0000000  ORB. ENERGY =  -89.950366
  0.44031380D-04  0.82363275D-04  0.14223767D-03  0.22975092D-03  0.34600016D-03
  0.47055859D-03  0.53568324D-03  0.43397689D-03  0.17615979D-03  0.16063350D-04
 -0.61731811D-06  0.20642673D-06  0.11584200D-07 -0.85456791D-04 -0.15995158D-03
 -0.27664242D-03 -0.44963224D-03 -0.68793366D-03 -0.97622541D-03 -0.12245937D-02
 -0.12485794D-02 -0.76715199D-03  0.16719450D-03  0.61240871D-03  0.28009418D-03
 -0.14867553D-05  0.48115193D-04  0.89992209D-04  0.15584212D-03  0.25303264D-03
  0.38839998D-03  0.55170484D-03  0.69992510D-03  0.72461160D-03  0.46673792D-03
 -0.11479662D-03 -0.46794635D-03 -0.40813064D-03  0.20800462D-03 -0.58396054D-04
  0.11622996D-02  0.21140325D-03 -0.17572890D-17 -0.23179547D-17 -0.25746783D-17
 -0.22035617D-17 -0.12590975D-17 -0.40860457D-18 -0.28771027D-21  0.72328801D-18
  0.95405417D-18  0.10597198D-17  0.90697079D-18  0.51823582D-18  0.16817882D-18
  0.11841956D-21  0.56454062D-10  0.74465817D-10  0.82713230D-10  0.70790866D-10
  0.40449332D-10  0.13126690D-10  0.92428814D-14  0.25479955D-18  0.34843511D-18
  0.37878406D-18  0.34770396D-18  0.18951278D-18  0.79970752D-19 -0.27580943D-19
 -0.38253517D-18 -0.52311192D-18 -0.56867535D-18 -0.52201424D-18 -0.28451896D-18
 -0.12006154D-18  0.41407767D-19 -0.56882219D-10 -0.77785703D-10 -0.84560894D-10
 -0.77622479D-10 -0.42307403D-10 -0.17852911D-10  0.61572526D-11  0.40529933D-19
  0.12176053D-19  0.93873763D-11 -0.15325600D-19  0.93836501D-20  0.21191004D-11
 -0.80948681D-21  0.36042019D-21 -0.18574797D-13 -0.52058783D-04 -0.52058783D-04
  0.10411757D-03 -0.23081192D-21  0.56846669D-20 -0.15060906D-19  0.10480943D-04
  0.10480943D-04 -0.20961886D-04 -0.12891861D-21 -0.72882793D-21  0.43660012D-19
 -0.10264760D-04 -0.10264760D-04  0.20529520D-04  0.10953694D-21  0.56535054D-21
 -0.33716933D-20  0.78837485D-20 -0.51931183D-20 -0.26271606D-11  0.80344859D-20
 -0.51447452D-20  0.39407408D-11 -0.31685731D-19  0.20724100D-19  0.39407408D-11
 -0.22324532D-20  0.19252751D-20 -0.91599382D-21 -0.53323565D-12  0.19554091D-20
 -0.86497731D-21  0.79985348D-12 -0.77312343D-20  0.36129588D-20  0.79985348D-12
 -0.44788379D-21  0.41363721D+00  0.77327073D+00  0.13364533D+01  0.21616532D+01
  0.32672122D+01  0.44994873D+01  0.52588575D+01  0.45440496D+01  0.21193609D+01
  0.28776343D+00  0.77055956D-03  0.15115193D-02  0.69007170D-04 -0.62029960D-03
 -0.11584359D-02 -0.20094863D-02 -0.32583126D-02 -0.50165432D-02 -0.71446844D-02
 -0.91871366D-02 -0.96437596D-02 -0.68188214D-02  0.15100566D-03  0.48994113D-02
  0.26977489D-02 -0.11408734D-04  0.24984087D-03  0.46624003D-03  0.80980312D-03
  0.13117014D-02  0.20261948D-02  0.28886451D-02  0.37571836D-02  0.40041450D-02
  0.29697911D-02 -0.92438568D-04 -0.26904760D-02 -0.26357379D-02  0.12310459D-02
 -0.16550120D-02 -0.95534139D-03 -0.31562413D-03  0.44301426D-17  0.58121058D-17
  0.63749942D-17  0.52454463D-17  0.27655030D-17  0.71945317D-18 -0.79614829D-21
 -0.60554557D-17 -0.79444282D-17 -0.87138268D-17 -0.71698748D-17 -0.37800998D-17
 -0.98340330D-18  0.10882360D-20 -0.47577154D-03 -0.62418635D-03 -0.68463728D-03
 -0.56333041D-03 -0.29699893D-03 -0.77265085D-04  0.85501693D-07 -0.14451501D-17
 -0.18974908D-17 -0.21348051D-17 -0.17987347D-17 -0.10061870D-17 -0.25043789D-18
  0.11486288D-18  0.89665582D-18  0.11773146D-17  0.13245583D-17  0.11160405D-17
  0.62429739D-18  0.15538635D-18 -0.71267667D-19  0.99976674D-04  0.13126998D-03
  0.14768758D-03  0.12443795D-03  0.69608846D-04  0.17325500D-04 -0.79463091D-05
 -0.35115246D-18  0.63635038D-18  0.26303316D-04 -0.18836540D-20  0.22934968D-19
  0.32431581D-03  0.14120508D-20  0.40342962D-21  0.94258395D-05  0.36455094D-04
  0.36455094D-04 -0.72910188D-04  0.98993708D-20 -0.32590941D-19  0.21059715D-19
 -0.55148982D-04 -0.55148982D-04  0.11029796D-03 -0.96291275D-19  0.40221859D-19
 -0.59333380D-19  0.12220344D-04  0.12220344D-04 -0.24440688D-04 -0.63315170D-21
  0.26907165D-21 -0.41407495D-20 -0.64346784D-20  0.42651774D-20 -0.15272032D-04
 -0.45525249D-20  0.77461695D-20  0.22908049D-04  0.23856560D-19 -0.20541702D-19
  0.22908049D-04 -0.19147393D-20  0.16315917D-21  0.24702673D-22  0.11851753D-04
  0.76986642D-22 -0.38539724D-21 -0.17777629D-04 -0.56646416D-21  0.31128922D-21
 -0.17777629D-04 -0.11699948D-20  0.41363718D+00  0.77327068D+00  0.13364532D+01
  0.21616530D+01  0.32672120D+01  0.44994870D+01  0.52588571D+01  0.45440493D+01
  0.21193608D+01  0.28776341D+00  0.77055951D-03  0.15115192D-02  0.69007166D-04
 -0.62029955D-03 -0.11584358D-02 -0.20094862D-02 -0.32583124D-02 -0.50165428D-02
 -0.71446838D-02 -0.91871359D-02 -0.96437589D-02 -0.68188209D-02  0.15100564D-03
  0.48994110D-02  0.26977486D-02 -0.11408733D-04  0.24984085D-03  0.46623999D-03
  0.80980305D-03  0.13117013D-02  0.20261946D-02  0.28886448D-02  0.37571833D-02
  0.40041446D-02  0.29697908D-02 -0.92438560D-04 -0.26904758D-02 -0.26357376D-02
  0.12310458D-02 -0.16550118D-02 -0.95534137D-03 -0.31562411D-03  0.96147335D-17
  0.12614007D-16  0.13835643D-16  0.11384186D-16  0.60019681D-17  0.15614284D-17
 -0.17278797D-20 -0.27132720D-17 -0.35596651D-17 -0.39044101D-17 -0.32126105D-17
 -0.16937518D-17 -0.44063416D-18  0.48760662D-21  0.47577109D-03  0.62418576D-03
  0.68463664D-03  0.56332987D-03  0.29699865D-03  0.77265011D-04 -0.85501612D-07
 -0.19783129D-17 -0.25975368D-17 -0.29224041D-17 -0.24623464D-17 -0.13774021D-17
 -0.34283257D-18  0.15723953D-18 -0.15739537D-18 -0.20666108D-18 -0.23250765D-18
 -0.19590527D-18 -0.10958666D-18 -0.27275897D-19  0.12510041D-19 -0.99976293D-04
 -0.13126948D-03 -0.14768702D-03 -0.12443748D-03 -0.69608581D-04 -0.17325434D-04
  0.79462789D-05 -0.61724249D-18  0.31317512D-18 -0.26303297D-04  0.54614995D-20
 -0.18367010D-19 -0.32431579D-03  0.19890467D-20 -0.20142460D-20 -0.94258387D-05
  0.36455093D-04  0.36455093D-04 -0.72910187D-04  0.50550273D-21  0.42792197D-19
 -0.10290557D-19 -0.55148975D-04 -0.55148975D-04  0.11029795D-03 -0.81958703D-20
 -0.69298510D-19  0.65670479D-19  0.12220343D-04  0.12220343D-04 -0.24440686D-04
 -0.43143079D-21  0.21503634D-20 -0.52306226D-20 -0.62863730D-20  0.40783480D-21
  0.15272029D-04 -0.36185464D-20  0.19663254D-20 -0.22908044D-04  0.22477665D-19
 -0.31898298D-20 -0.22908044D-04 -0.27312126D-20 -0.65279270D-21  0.42143923D-21
 -0.11851752D-04 -0.89320461D-21  0.42072610D-21  0.17777628D-04  0.28515827D-20
 -0.16850438D-20  0.17777628D-04 -0.11438464D-20
MO    3     MO 0.0        OCC NO =    2.0000000  ORB. ENERGY =  -67.125860
  0.50600330D+00  0.94650881D+00  0.16345782D+01  0.26402699D+01  0.39761921D+01
  0.54076025D+01  0.61560072D+01  0.49872100D+01  0.20244071D+01  0.18459808D+00
 -0.70941452D-02  0.23722311D-02  0.13312423D-03 -0.11362373D-02 -0.21267233D-02
 -0.36782497D-02 -0.59783300D-02 -0.91467961D-02 -0.12979936D-01 -0.16282252D-01
 -0.16601166D-01 -0.10200087D-01  0.22230254D-02  0.81426131D-02  0.37241446D-02
 -0.19767964D-04  0.55025773D-03  0.10291741D-02  0.17822506D-02  0.28937463D-02
  0.44418421D-02  0.63094386D-02  0.80045236D-02  0.82868447D-02  0.53377349D-02
 -0.13128437D-02 -0.53515549D-02 -0.46674870D-02  0.23787944D-02 -0.20054861D-02
  0.93140818D-03 -0.39451204D-04 -0.65906395D-17 -0.86933932D-17 -0.96562243D-17
 -0.82643670D-17 -0.47221929D-17 -0.15324545D-17 -0.10790455D-20  0.20245004D-17
  0.26704203D-17  0.29661810D-17  0.25386328D-17  0.14505544D-17  0.47073652D-18
  0.33145917D-21  0.32299996D-15  0.42605360D-15  0.47324089D-15  0.40502749D-15
  0.23142946D-15  0.75103903D-16  0.52882826D-19  0.18538894D-17  0.25351699D-17
  0.27559850D-17  0.25298501D-17  0.13788710D-17  0.58185709D-18 -0.20067546D-18
 -0.28693535D-18 -0.39238041D-18 -0.42655702D-18 -0.39155704D-18 -0.21341449D-18
 -0.90056815D-19  0.31059503D-19 -0.35910958D-16 -0.49107774D-16 -0.53385096D-16
 -0.49004727D-16 -0.26709566D-16 -0.11270924D-16  0.38872050D-17  0.67049228D-18
 -0.16423212D-18  0.34928591D-16 -0.67412833D-19  0.15402220D-19 -0.92042653D-15
  0.44496620D-23 -0.41453544D-22 -0.10322528D-16 -0.70534809D-04 -0.70534809D-04
  0.14106962D-03  0.33515676D-20  0.14460617D-20  0.50252875D-21 -0.16439437D-03
 -0.16439437D-03  0.32878874D-03 -0.46971989D-19 -0.29835221D-19  0.12090203D-19
  0.85545543D-05  0.85545543D-05 -0.17109109D-04 -0.18918076D-21  0.20022517D-21
  0.33690878D-21  0.16988853D-19 -0.32906853D-20  0.27968252D-16  0.18192511D-19
 -0.24901630D-20 -0.41943923D-16 -0.69159070D-19  0.12362219D-19 -0.41960832D-16
 -0.36455499D-20  0.38177683D-20 -0.97888352D-21 -0.32985285D-16  0.38088760D-20
 -0.99524521D-21  0.49478198D-16 -0.15262181D-19  0.39318958D-20  0.49477656D-16
  0.84590775D-22  0.64995847D-04  0.12150596D-03  0.21000023D-03  0.33966596D-03
  0.51338520D-03  0.70701566D-03  0.82633739D-03  0.71401785D-03  0.33302047D-03
  0.45216985D-04  0.12107995D-06  0.23750880D-06  0.10843269D-07 -0.12247274D-03
 -0.22872306D-03 -0.39675553D-03 -0.64332538D-03 -0.99047266D-03 -0.14106555D-02
 -0.18139199D-02 -0.19040761D-02 -0.13463168D-02  0.29814748D-04  0.96734599D-03
  0.53264695D-03 -0.22525549D-05  0.70127668D-04  0.13086860D-03  0.22730310D-03
  0.36818059D-03  0.56873125D-03  0.81081186D-03  0.10546014D-02  0.11239208D-02
  0.83358867D-03 -0.25946520D-04 -0.75518791D-03 -0.73982350D-03  0.34554145D-03
  0.44394180D-04 -0.66002010D-03 -0.17060748D-03  0.50213643D-18  0.65877565D-18
  0.72257648D-18  0.59454738D-18  0.31345714D-18  0.81546732D-19 -0.90239773D-22
 -0.87810721D-19 -0.11520288D-18 -0.12636001D-18 -0.10397101D-18 -0.54815575D-19
 -0.14260422D-19  0.15780611D-22  0.36383596D-02  0.47733296D-02  0.52356150D-02
  0.43079470D-02  0.22712349D-02  0.59086796D-03 -0.65385564D-06 -0.43613540D-18
 -0.57264844D-18 -0.64426810D-18 -0.54284459D-18 -0.30365965D-18 -0.75580269D-19
  0.34664753D-19  0.56211940D-19  0.73806619D-19  0.83037423D-19  0.69965307D-19
  0.39137612D-19  0.97412719D-20 -0.44678167D-20 -0.30356674D-02 -0.39858497D-02
 -0.44843497D-02 -0.37784037D-02 -0.21135860D-02 -0.52606726D-03  0.24127979D-03
 -0.59305495D-19  0.62027109D-20 -0.33711921D-03  0.70471587D-19 -0.17532964D-19
  0.46205901D-03  0.88566460D-21 -0.37162218D-21  0.17230107D-04  0.97638586D-04
  0.97638586D-04 -0.19527717D-03  0.16394725D-21 -0.81079636D-19  0.13399193D-19
 -0.85999591D-04 -0.85999591D-04  0.17199918D-03 -0.27583479D-20  0.95351879D-19
 -0.10829492D-19  0.28118716D-04  0.28118716D-04 -0.56237431D-04 -0.14640836D-21
 -0.19292303D-19  0.46347927D-20 -0.31887683D-20  0.15540398D-21  0.49643029D-05
 -0.29590772D-20 -0.25584481D-22 -0.74464544D-05  0.12525382D-19 -0.44062747D-21
 -0.74464544D-05 -0.17401598D-20 -0.64828398D-20  0.91149681D-21  0.35275626D-04
 -0.64203794D-20  0.91683338D-21 -0.52913439D-04  0.25868899D-19 -0.36513238D-20
 -0.52913439D-04  0.29165484D-21  0.64995847D-04  0.12150596D-03  0.21000023D-03
  0.33966596D-03  0.51338520D-03  0.70701566D-03  0.82633739D-03  0.71401785D-03
  0.33302047D-03  0.45216985D-04  0.12107995D-06  0.23750880D-06  0.10843269D-07
 -0.12247274D-03 -0.22872306D-03 -0.39675553D-03 -0.64332538D-03 -0.99047266D-03
 -0.14106555D-02 -0.18139199D-02 -0.19040761D-02 -0.13463168D-02  0.29814748D-04
  0.96734599D-03  0.53264695D-03 -0.22525549D-05  0.70127668D-04  0.13086860D-03
  0.22730310D-03  0.36818059D-03  0.56873125D-03  0.81081186D-03  0.10546014D-02
  0.11239208D-02  0.83358867D-03 -0.25946520D-04 -0.75518791D-03 -0.73982350D-03
  0.34554145D-03  0.44394180D-04 -0.66002010D-03 -0.17060748D-03  0.45931146D-18
  0.60259163D-18  0.66095117D-18  0.54384109D-18  0.28672378D-18  0.74591976D-19
 -0.82543626D-22 -0.15668317D-18 -0.20555979D-18 -0.22546776D-18 -0.18551845D-18
 -0.97808993D-19 -0.25445277D-19  0.28157793D-22 -0.36383596D-02 -0.47733296D-02
 -0.52356150D-02 -0.43079470D-02 -0.22712349D-02 -0.59086796D-03  0.65385564D-06
 -0.40459165D-18 -0.53123130D-18 -0.59767104D-18 -0.50358304D-18 -0.28169729D-18
 -0.70113882D-19  0.32157605D-19  0.10143685D-18  0.13318720D-18  0.14984458D-18
  0.12625539D-18  0.70625496D-19  0.17578542D-19 -0.80623664D-20  0.30356674D-02
  0.39858497D-02  0.44843497D-02  0.37784037D-02  0.21135860D-02  0.52606726D-03
 -0.24127979D-03 -0.51879347D-19  0.97101936D-20  0.33711921D-03  0.72871942D-19
 -0.14528894D-19 -0.46205901D-03  0.10570124D-20 -0.40942968D-22 -0.17230107D-04
  0.97638586D-04  0.97638586D-04 -0.19527717D-03 -0.50480366D-21  0.80185446D-19
 -0.12735688D-19 -0.85999591D-04 -0.85999591D-04  0.17199918D-03  0.19227238D-20
 -0.92015424D-19  0.96515348D-20  0.28118716D-04  0.28118716D-04 -0.56237431D-04
 -0.56038074D-22  0.19985848D-19 -0.36793797D-20 -0.23810872D-20  0.11500865D-20
 -0.49643029D-05 -0.15069033D-20  0.10254973D-20  0.74464544D-05  0.86501648D-20
 -0.44757567D-20  0.74464544D-05  0.15082808D-20 -0.64331372D-20  0.55088608D-21
 -0.35275626D-04 -0.65990671D-20  0.55884234D-21  0.52913439D-04  0.25898479D-19
 -0.22115006D-20  0.52913439D-04 -0.60788313D-21
MO    4     MO 0.0        OCC NO =    2.0000000  ORB. ENERGY =   -8.286339
 -0.46035429D-12 -0.86111967D-12 -0.14871150D-11 -0.24020783D-11 -0.36174805D-11
 -0.49197565D-11 -0.56006439D-11 -0.45372896D-11 -0.18417755D-11 -0.16794459D-12
  0.64541480D-14 -0.21582206D-14 -0.12111445D-15  0.85616205D-12  0.16024996D-11
  0.27715847D-11  0.45047100D-11  0.68921695D-11  0.97804648D-11  0.12268781D-10
  0.12509085D-10  0.76858306D-11 -0.16750639D-11 -0.61355111D-11 -0.28061668D-11
  0.14895287D-13 -0.45647077D-12 -0.85375969D-12 -0.14784805D-11 -0.24005308D-11
 -0.36847662D-11 -0.52340460D-11 -0.66402175D-11 -0.68744193D-11 -0.44279613D-11
  0.10890801D-11  0.44394258D-11  0.38719517D-11 -0.19733482D-11  0.34148624D-12