 Molden2AIM, Version 4.0.0 (06/02/2016)           Time: Thu Jun 28 06:03:30 2018
GAUSSIAN             41 MOL ORBITALS    657 PRIMITIVES        3 NUCLEI
  Si   1    (CENTRE  1)   0.00000000  0.00000000  0.00000000  CHARGE = 14.0
  Se   2    (CENTRE  2)   0.00000000  0.00000000  3.90870952  CHARGE = 34.0
  Se   3    (CENTRE  3)   0.00000000  0.00000000 -3.90870952  CHARGE = 34.0
CENTRE ASSIGNMENTS    1  1  1  1  1  1  1  1  1  1  1  1  1  1  1  1  1  1  1  1
CENTRE ASSIGNMENTS    1  1  1  1  1  1  1  1  1  1  1  1  1  1  1  1  1  1  1  1
CENTRE ASSIGNMENTS    1  1  1  1  1  1  1  1  1  1  1  1  1  1  1  1  1  1  1  1
CENTRE ASSIGNMENTS    1  1  1  1  1  1  1  1  1  1  1  1  1  1  1  1  1  1  1  1
CENTRE ASSIGNMENTS    1  1  1  1  1  1  1  1  1  1  1  1  1  1  1  1  1  1  1  1
CENTRE ASSIGNMENTS    1  1  1  1  1  1  1  1  1  1  1  1  1  1  1  1  1  1  1  1
CENTRE ASSIGNMENTS    1  1  1  1  1  1  1  1  1  1  1  2  2  2  2  2  2  2  2  2
CENTRE ASSIGNMENTS    2  2  2  2  2  2  2  2  2  2  2  2  2  2  2  2  2  2  2  2
CENTRE ASSIGNMENTS    2  2  2  2  2  2  2  2  2  2  2  2  2  2  2  2  2  2  2  2
CENTRE ASSIGNMENTS    2  2  2  2  2  2  2  2  2  2  2  2  2  2  2  2  2  2  2  2
CENTRE ASSIGNMENTS    2  2  2  2  2  2  2  2  2  2  2  2  2  2  2  2  2  2  2  2
CENTRE ASSIGNMENTS    2  2  2  2  2  2  2  2  2  2  2  2  2  2  2  2  2  2  2  2
CENTRE ASSIGNMENTS    2  2  2  2  2  2  2  2  2  2  2  2  2  2  2  2  2  2  2  2
CENTRE ASSIGNMENTS    2  2  2  2  2  2  2  2  2  2  2  2  2  2  2  2  2  2  2  2
CENTRE ASSIGNMENTS    2  2  2  2  2  2  2  2  2  2  2  2  2  2  2  2  2  2  2  2
CENTRE ASSIGNMENTS    2  2  2  2  2  2  2  2  2  2  2  2  2  2  2  2  2  2  2  2
CENTRE ASSIGNMENTS    2  2  2  2  2  2  2  2  2  2  2  2  2  2  2  2  2  2  2  2
CENTRE ASSIGNMENTS    2  2  2  2  2  2  2  2  2  2  2  2  2  2  2  2  2  2  2  2
CENTRE ASSIGNMENTS    2  2  2  2  2  2  2  2  2  2  2  2  2  2  2  2  2  2  2  2
CENTRE ASSIGNMENTS    2  2  2  2  2  2  2  2  2  2  2  2  2  2  3  3  3  3  3  3
CENTRE ASSIGNMENTS    3  3  3  3  3  3  3  3  3  3  3  3  3  3  3  3  3  3  3  3
CENTRE ASSIGNMENTS    3  3  3  3  3  3  3  3  3  3  3  3  3  3  3  3  3  3  3  3
CENTRE ASSIGNMENTS    3  3  3  3  3  3  3  3  3  3  3  3  3  3  3  3  3  3  3  3
CENTRE ASSIGNMENTS    3  3  3  3  3  3  3  3  3  3  3  3  3  3  3  3  3  3  3  3
CENTRE ASSIGNMENTS    3  3  3  3  3  3  3  3  3  3  3  3  3  3  3  3  3  3  3  3
CENTRE ASSIGNMENTS    3  3  3  3  3  3  3  3  3  3  3  3  3  3  3  3  3  3  3  3
CENTRE ASSIGNMENTS    3  3  3  3  3  3  3  3  3  3  3  3  3  3  3  3  3  3  3  3
CENTRE ASSIGNMENTS    3  3  3  3  3  3  3  3  3  3  3  3  3  3  3  3  3  3  3  3
CENTRE ASSIGNMENTS    3  3  3  3  3  3  3  3  3  3  3  3  3  3  3  3  3  3  3  3
CENTRE ASSIGNMENTS    3  3  3  3  3  3  3  3  3  3  3  3  3  3  3  3  3  3  3  3
CENTRE ASSIGNMENTS    3  3  3  3  3  3  3  3  3  3  3  3  3  3  3  3  3  3  3  3
CENTRE ASSIGNMENTS    3  3  3  3  3  3  3  3  3  3  3  3  3  3  3  3  3  3  3  3
CENTRE ASSIGNMENTS    3  3  3  3  3  3  3  3  3  3  3  3  3  3  3  3  3
TYPE ASSIGNMENTS      1  1  1  1  1  1  1  1  1  1  1  1  1  1  1  1  1  1  1  1
TYPE ASSIGNMENTS      1  1  1  1  1  1  1  1  1  1  1  1  1  1  1  1  1  1  1  1
TYPE ASSIGNMENTS      1  1  2  2  2  2  2  2  2  3  3  3  3  3  3  3  4  4  4  4
TYPE ASSIGNMENTS      4  4  4  2  2  2  2  2  2  2  3  3  3  3  3  3  3  4  4  4
TYPE ASSIGNMENTS      4  4  4  4  2  3  4  2  3  4  2  3  4  5  6  7  8  9 10  5
TYPE ASSIGNMENTS      6  7  8  9 10  5  6  7  8  9 10 11 12 13 17 14 15 18 19 16
TYPE ASSIGNMENTS     20 11 12 13 17 14 15 18 19 16 20  1  1  1  1  1  1  1  1  1
TYPE ASSIGNMENTS      1  1  1  1  1  1  1  1  1  1  1  1  1  1  1  1  1  1  1  1
TYPE ASSIGNMENTS      1  1  1  1  1  1  1  1  1  1  1  1  1  1  1  1  1  1  1  1
TYPE ASSIGNMENTS      1  1  1  1  1  1  1  1  1  1  1  1  1  1  1  1  1  1  1  1
TYPE ASSIGNMENTS      1  1  1  1  1  1  2  2  2  2  2  2  2  2  2  2  2  3  3  3
TYPE ASSIGNMENTS      3  3  3  3  3  3  3  3  4  4  4  4  4  4  4  4  4  4  4  2
TYPE ASSIGNMENTS      2  2  2  2  2  2  2  2  2  2  3  3  3  3  3  3  3  3  3  3
TYPE ASSIGNMENTS      3  4  4  4  4  4  4  4  4  4  4  4  2  2  2  2  2  2  2  2
TYPE ASSIGNMENTS      2  2  2  3  3  3  3  3  3  3  3  3  3  3  4  4  4  4  4  4
TYPE ASSIGNMENTS      4  4  4  4  4  2  3  4  2  3  4  2  3  4  5  5  5  5  5  5
TYPE ASSIGNMENTS      5  6  6  6  6  6  6  6  7  7  7  7  7  7  7  8  8  8  8  8
TYPE ASSIGNMENTS      8  8  9  9  9  9  9  9  9 10 10 10 10 10 10 10  5  6  7  8
TYPE ASSIGNMENTS      9 10  5  6  7  8  9 10  5  6  7  8  9 10 11 12 13 17 14 15
TYPE ASSIGNMENTS     18 19 16 20 11 12 13 17 14 15 18 19 16 20  1  1  1  1  1  1
TYPE ASSIGNMENTS      1  1  1  1  1  1  1  1  1  1  1  1  1  1  1  1  1  1  1  1
TYPE ASSIGNMENTS      1  1  1  1  1  1  1  1  1  1  1  1  1  1  1  1  1  1  1  1
TYPE ASSIGNMENTS      1  1  1  1  1  1  1  1  1  1  1  1  1  1  1  1  1  1  1  1
TYPE ASSIGNMENTS      1  1  1  1  1  1  1  1  1  2  2  2  2  2  2  2  2  2  2  2
TYPE ASSIGNMENTS      3  3  3  3  3  3  3  3  3  3  3  4  4  4  4  4  4  4  4  4
TYPE ASSIGNMENTS      4  4  2  2  2  2  2  2  2  2  2  2  2  3  3  3  3  3  3  3
TYPE ASSIGNMENTS      3  3  3  3  4  4  4  4  4  4  4  4  4  4  4  2  2  2  2  2
TYPE ASSIGNMENTS      2  2  2  2  2  2  3  3  3  3  3  3  3  3  3  3  3  4  4  4
TYPE ASSIGNMENTS      4  4  4  4  4  4  4  4  2  3  4  2  3  4  2  3  4  5  5  5
TYPE ASSIGNMENTS      5  5  5  5  6  6  6  6  6  6  6  7  7  7  7  7  7  7  8  8
TYPE ASSIGNMENTS      8  8  8  8  8  9  9  9  9  9  9  9 10 10 10 10 10 10 10  5
TYPE ASSIGNMENTS      6  7  8  9 10  5  6  7  8  9 10  5  6  7  8  9 10 11 12 13
TYPE ASSIGNMENTS     17 14 15 18 19 16 20 11 12 13 17 14 15 18 19 16 20
EXPONENTS  0.2549000D+06 0.3819000D+05 0.8690000D+04 0.2462000D+04 0.8048000D+03
EXPONENTS  0.2913000D+03 0.1136000D+03 0.4675000D+02 0.1982000D+02 0.7708000D+01
EXPONENTS  0.3340000D+01 0.1402000D+01 0.2070000D+00 0.2549000D+06 0.3819000D+05
EXPONENTS  0.8690000D+04 0.2462000D+04 0.8048000D+03 0.2913000D+03 0.1136000D+03
EXPONENTS  0.4675000D+02 0.1982000D+02 0.7708000D+01 0.3340000D+01 0.1402000D+01
EXPONENTS  0.2070000D+00 0.2549000D+06 0.3819000D+05 0.8690000D+04 0.2462000D+04
EXPONENTS  0.8048000D+03 0.2913000D+03 0.1136000D+03 0.4675000D+02 0.1982000D+02
EXPONENTS  0.7708000D+01 0.3340000D+01 0.1402000D+01 0.2070000D+00 0.4387000D+00
EXPONENTS  0.7944000D-01 0.3300000D-01 0.4815000D+03 0.1139000D+03 0.3623000D+02
EXPONENTS  0.1334000D+02 0.5252000D+01 0.2120000D+01 0.2528000D+00 0.4815000D+03
EXPONENTS  0.1139000D+03 0.3623000D+02 0.1334000D+02 0.5252000D+01 0.2120000D+01
EXPONENTS  0.2528000D+00 0.4815000D+03 0.1139000D+03 0.3623000D+02 0.1334000D+02
EXPONENTS  0.5252000D+01 0.2120000D+01 0.2528000D+00 0.4815000D+03 0.1139000D+03
EXPONENTS  0.3623000D+02 0.1334000D+02 0.5252000D+01 0.2120000D+01 0.2528000D+00
EXPONENTS  0.4815000D+03 0.1139000D+03 0.3623000D+02 0.1334000D+02 0.5252000D+01
EXPONENTS  0.2120000D+01 0.2528000D+00 0.4815000D+03 0.1139000D+03 0.3623000D+02
EXPONENTS  0.1334000D+02 0.5252000D+01 0.2120000D+01 0.2528000D+00 0.8561000D+00
EXPONENTS  0.8561000D+00 0.8561000D+00 0.7889000D-01 0.7889000D-01 0.7889000D-01
EXPONENTS  0.2370000D-01 0.2370000D-01 0.2370000D-01 0.1590000D+00 0.1590000D+00
EXPONENTS  0.1590000D+00 0.1590000D+00 0.1590000D+00 0.1590000D+00 0.4810000D+00
EXPONENTS  0.4810000D+00 0.4810000D+00 0.4810000D+00 0.4810000D+00 0.4810000D+00
EXPONENTS  0.5560000D-01 0.5560000D-01 0.5560000D-01 0.5560000D-01 0.5560000D-01
EXPONENTS  0.5560000D-01 0.3360000D+00 0.3360000D+00 0.3360000D+00 0.3360000D+00
EXPONENTS  0.3360000D+00 0.3360000D+00 0.3360000D+00 0.3360000D+00 0.3360000D+00
EXPONENTS  0.3360000D+00 0.1250000D+00 0.1250000D+00 0.1250000D+00 0.1250000D+00
EXPONENTS  0.1250000D+00 0.1250000D+00 0.1250000D+00 0.1250000D+00 0.1250000D+00
EXPONENTS  0.1250000D+00 0.9563600D+07 0.1432100D+07 0.3259100D+06 0.9231200D+05
EXPONENTS  0.3011600D+05 0.1087200D+05 0.4240100D+04 0.1758400D+04 0.7665900D+03
EXPONENTS  0.3484300D+03 0.1640300D+03 0.7914200D+02 0.3552400D+02 0.1730500D+02
EXPONENTS  0.8378400D+01 0.3740500D+01 0.1689000D+01 0.2552000D+00 0.9563600D+07
EXPONENTS  0.1432100D+07 0.3259100D+06 0.9231200D+05 0.3011600D+05 0.1087200D+05
EXPONENTS  0.4240100D+04 0.1758400D+04 0.7665900D+03 0.3484300D+03 0.1640300D+03
EXPONENTS  0.7914200D+02 0.3552400D+02 0.1730500D+02 0.8378400D+01 0.3740500D+01
EXPONENTS  0.1689000D+01 0.2552000D+00 0.9563600D+07 0.1432100D+07 0.3259100D+06
EXPONENTS  0.9231200D+05 0.3011600D+05 0.1087200D+05 0.4240100D+04 0.1758400D+04
EXPONENTS  0.7665900D+03 0.3484300D+03 0.1640300D+03 0.7914200D+02 0.3552400D+02
EXPONENTS  0.1730500D+02 0.8378400D+01 0.3740500D+01 0.1689000D+01 0.2552000D+00
EXPONENTS  0.9563600D+07 0.1432100D+07 0.3259100D+06 0.9231200D+05 0.3011600D+05
EXPONENTS  0.1087200D+05 0.4240100D+04 0.1758400D+04 0.7665900D+03 0.3484300D+03
EXPONENTS  0.1640300D+03 0.7914200D+02 0.3552400D+02 0.1730500D+02 0.8378400D+01
EXPONENTS  0.3740500D+01 0.1689000D+01 0.2552000D+00 0.5092700D+00 0.1065100D+00
EXPONENTS  0.3920100D-01 0.8004300D+04 0.1896900D+04 0.6147100D+03 0.2335000D+03
EXPONENTS  0.9785600D+02 0.4351400D+02 0.2006300D+02 0.9112700D+01 0.4106300D+01
EXPONENTS  0.1794900D+01 0.2461500D+00 0.8004300D+04 0.1896900D+04 0.6147100D+03
EXPONENTS  0.2335000D+03 0.9785600D+02 0.4351400D+02 0.2006300D+02 0.9112700D+01
EXPONENTS  0.4106300D+01 0.1794900D+01 0.2461500D+00 0.8004300D+04 0.1896900D+04
EXPONENTS  0.6147100D+03 0.2335000D+03 0.9785600D+02 0.4351400D+02 0.2006300D+02
EXPONENTS  0.9112700D+01 0.4106300D+01 0.1794900D+01 0.2461500D+00 0.8004300D+04
EXPONENTS  0.1896900D+04 0.6147100D+03 0.2335000D+03 0.9785600D+02 0.4351400D+02
EXPONENTS  0.2006300D+02 0.9112700D+01 0.4106300D+01 0.1794900D+01 0.2461500D+00
EXPONENTS  0.8004300D+04 0.1896900D+04 0.6147100D+03 0.2335000D+03 0.9785600D+02
EXPONENTS  0.4351400D+02 0.2006300D+02 0.9112700D+01 0.4106300D+01 0.1794900D+01
EXPONENTS  0.2461500D+00 0.8004300D+04 0.1896900D+04 0.6147100D+03 0.2335000D+03
EXPONENTS  0.9785600D+02 0.4351400D+02 0.2006300D+02 0.9112700D+01 0.4106300D+01
EXPONENTS  0.1794900D+01 0.2461500D+00 0.8004300D+04 0.1896900D+04 0.6147100D+03
EXPONENTS  0.2335000D+03 0.9785600D+02 0.4351400D+02 0.2006300D+02 0.9112700D+01
EXPONENTS  0.4106300D+01 0.1794900D+01 0.2461500D+00 0.8004300D+04 0.1896900D+04
EXPONENTS  0.6147100D+03 0.2335000D+03 0.9785600D+02 0.4351400D+02 0.2006300D+02
EXPONENTS  0.9112700D+01 0.4106300D+01 0.1794900D+01 0.2461500D+00 0.8004300D+04
EXPONENTS  0.1896900D+04 0.6147100D+03 0.2335000D+03 0.9785600D+02 0.4351400D+02
EXPONENTS  0.2006300D+02 0.9112700D+01 0.4106300D+01 0.1794900D+01 0.2461500D+00
EXPONENTS  0.6243200D+00 0.6243200D+00 0.6243200D+00 0.8891700D-01 0.8891700D-01
EXPONENTS  0.8891700D-01 0.3025100D-01 0.3025100D-01 0.3025100D-01 0.3618500D+03
EXPONENTS  0.1085500D+03 0.4143300D+02 0.1757900D+02 0.7862700D+01 0.3518000D+01
EXPONENTS  0.1534800D+01 0.3618500D+03 0.1085500D+03 0.4143300D+02 0.1757900D+02
EXPONENTS  0.7862700D+01 0.3518000D+01 0.1534800D+01 0.3618500D+03 0.1085500D+03
EXPONENTS  0.4143300D+02 0.1757900D+02 0.7862700D+01 0.3518000D+01 0.1534800D+01
EXPONENTS  0.3618500D+03 0.1085500D+03 0.4143300D+02 0.1757900D+02 0.7862700D+01
EXPONENTS  0.3518000D+01 0.1534800D+01 0.3618500D+03 0.1085500D+03 0.4143300D+02
EXPONENTS  0.1757900D+02 0.7862700D+01 0.3518000D+01 0.1534800D+01 0.3618500D+03
EXPONENTS  0.1085500D+03 0.4143300D+02 0.1757900D+02 0.7862700D+01 0.3518000D+01
EXPONENTS  0.1534800D+01 0.6081300D+00 0.6081300D+00 0.6081300D+00 0.6081300D+00
EXPONENTS  0.6081300D+00 0.6081300D+00 0.2220000D+00 0.2220000D+00 0.2220000D+00
EXPONENTS  0.2220000D+00 0.2220000D+00 0.2220000D+00 0.8370000D-01 0.8370000D-01
EXPONENTS  0.8370000D-01 0.8370000D-01 0.8370000D-01 0.8370000D-01 0.4620000D+00
EXPONENTS  0.4620000D+00 0.4620000D+00 0.4620000D+00 0.4620000D+00 0.4620000D+00
EXPONENTS  0.4620000D+00 0.4620000D+00 0.4620000D+00 0.4620000D+00 0.1880000D+00
EXPONENTS  0.1880000D+00 0.1880000D+00 0.1880000D+00 0.1880000D+00 0.1880000D+00
EXPONENTS  0.1880000D+00 0.1880000D+00 0.1880000D+00 0.1880000D+00 0.9563600D+07
EXPONENTS  0.1432100D+07 0.3259100D+06 0.9231200D+05 0.3011600D+05 0.1087200D+05
EXPONENTS  0.4240100D+04 0.1758400D+04 0.7665900D+03 0.3484300D+03 0.1640300D+03
EXPONENTS  0.7914200D+02 0.3552400D+02 0.1730500D+02 0.8378400D+01 0.3740500D+01
EXPONENTS  0.1689000D+01 0.2552000D+00 0.9563600D+07 0.1432100D+07 0.3259100D+06
EXPONENTS  0.9231200D+05 0.3011600D+05 0.1087200D+05 0.4240100D+04 0.1758400D+04
EXPONENTS  0.7665900D+03 0.3484300D+03 0.1640300D+03 0.7914200D+02 0.3552400D+02
EXPONENTS  0.1730500D+02 0.8378400D+01 0.3740500D+01 0.1689000D+01 0.2552000D+00
EXPONENTS  0.9563600D+07 0.1432100D+07 0.3259100D+06 0.9231200D+05 0.3011600D+05
EXPONENTS  0.1087200D+05 0.4240100D+04 0.1758400D+04 0.7665900D+03 0.3484300D+03
EXPONENTS  0.1640300D+03 0.7914200D+02 0.3552400D+02 0.1730500D+02 0.8378400D+01
EXPONENTS  0.3740500D+01 0.1689000D+01 0.2552000D+00 0.9563600D+07 0.1432100D+07
EXPONENTS  0.3259100D+06 0.9231200D+05 0.3011600D+05 0.1087200D+05 0.4240100D+04
EXPONENTS  0.1758400D+04 0.7665900D+03 0.3484300D+03 0.1640300D+03 0.7914200D+02
EXPONENTS  0.3552400D+02 0.1730500D+02 0.8378400D+01 0.3740500D+01 0.1689000D+01
EXPONENTS  0.2552000D+00 0.5092700D+00 0.1065100D+00 0.3920100D-01 0.8004300D+04
EXPONENTS  0.1896900D+04 0.6147100D+03 0.2335000D+03 0.9785600D+02 0.4351400D+02
EXPONENTS  0.2006300D+02 0.9112700D+01 0.4106300D+01 0.1794900D+01 0.2461500D+00
EXPONENTS  0.8004300D+04 0.1896900D+04 0.6147100D+03 0.2335000D+03 0.9785600D+02
EXPONENTS  0.4351400D+02 0.2006300D+02 0.9112700D+01 0.4106300D+01 0.1794900D+01
EXPONENTS  0.2461500D+00 0.8004300D+04 0.1896900D+04 0.6147100D+03 0.2335000D+03
EXPONENTS  0.9785600D+02 0.4351400D+02 0.2006300D+02 0.9112700D+01 0.4106300D+01
EXPONENTS  0.1794900D+01 0.2461500D+00 0.8004300D+04 0.1896900D+04 0.6147100D+03
EXPONENTS  0.2335000D+03 0.9785600D+02 0.4351400D+02 0.2006300D+02 0.9112700D+01
EXPONENTS  0.4106300D+01 0.1794900D+01 0.2461500D+00 0.8004300D+04 0.1896900D+04
EXPONENTS  0.6147100D+03 0.2335000D+03 0.9785600D+02 0.4351400D+02 0.2006300D+02
EXPONENTS  0.9112700D+01 0.4106300D+01 0.1794900D+01 0.2461500D+00 0.8004300D+04
EXPONENTS  0.1896900D+04 0.6147100D+03 0.2335000D+03 0.9785600D+02 0.4351400D+02
EXPONENTS  0.2006300D+02 0.9112700D+01 0.4106300D+01 0.1794900D+01 0.2461500D+00
EXPONENTS  0.8004300D+04 0.1896900D+04 0.6147100D+03 0.2335000D+03 0.9785600D+02
EXPONENTS  0.4351400D+02 0.2006300D+02 0.9112700D+01 0.4106300D+01 0.1794900D+01
EXPONENTS  0.2461500D+00 0.8004300D+04 0.1896900D+04 0.6147100D+03 0.2335000D+03
EXPONENTS  0.9785600D+02 0.4351400D+02 0.2006300D+02 0.9112700D+01 0.4106300D+01
EXPONENTS  0.1794900D+01 0.2461500D+00 0.8004300D+04 0.1896900D+04 0.6147100D+03
EXPONENTS  0.2335000D+03 0.9785600D+02 0.4351400D+02 0.2006300D+02 0.9112700D+01
EXPONENTS  0.4106300D+01 0.1794900D+01 0.2461500D+00 0.6243200D+00 0.6243200D+00
EXPONENTS  0.6243200D+00 0.8891700D-01 0.8891700D-01 0.8891700D-01 0.3025100D-01
EXPONENTS  0.3025100D-01 0.3025100D-01 0.3618500D+03 0.1085500D+03 0.4143300D+02
EXPONENTS  0.1757900D+02 0.7862700D+01 0.3518000D+01 0.1534800D+01 0.3618500D+03
EXPONENTS  0.1085500D+03 0.4143300D+02 0.1757900D+02 0.7862700D+01 0.3518000D+01
EXPONENTS  0.1534800D+01 0.3618500D+03 0.1085500D+03 0.4143300D+02 0.1757900D+02
EXPONENTS  0.7862700D+01 0.3518000D+01 0.1534800D+01 0.3618500D+03 0.1085500D+03
EXPONENTS  0.4143300D+02 0.1757900D+02 0.7862700D+01 0.3518000D+01 0.1534800D+01
EXPONENTS  0.3618500D+03 0.1085500D+03 0.4143300D+02 0.1757900D+02 0.7862700D+01
EXPONENTS  0.3518000D+01 0.1534800D+01 0.3618500D+03 0.1085500D+03 0.4143300D+02
EXPONENTS  0.1757900D+02 0.7862700D+01 0.3518000D+01 0.1534800D+01 0.6081300D+00
EXPONENTS  0.6081300D+00 0.6081300D+00 0.6081300D+00 0.6081300D+00 0.6081300D+00
EXPONENTS  0.2220000D+00 0.2220000D+00 0.2220000D+00 0.2220000D+00 0.2220000D+00
EXPONENTS  0.2220000D+00 0.8370000D-01 0.8370000D-01 0.8370000D-01 0.8370000D-01
EXPONENTS  0.8370000D-01 0.8370000D-01 0.4620000D+00 0.4620000D+00 0.4620000D+00
EXPONENTS  0.4620000D+00 0.4620000D+00 0.4620000D+00 0.4620000D+00 0.4620000D+00
EXPONENTS  0.4620000D+00 0.4620000D+00 0.1880000D+00 0.1880000D+00 0.1880000D+00
EXPONENTS  0.1880000D+00 0.1880000D+00 0.1880000D+00 0.1880000D+00 0.1880000D+00
EXPONENTS  0.1880000D+00 0.1880000D+00
MO    1     MO 0.0        OCC NO =    2.0000000  ORB. ENERGY = -456.347087
  0.21966392D-11  0.41089424D-11  0.70959589D-11  0.11461823D-10  0.17261270D-10
  0.23475246D-10  0.26724187D-10  0.21650256D-10  0.87882669D-11  0.80136905D-12
 -0.30796791D-13  0.10298225D-13  0.57791305D-15  0.51197293D-11  0.95827235D-11
  0.16573689D-10  0.26937535D-10  0.41214209D-10  0.58485812D-10  0.73365593D-10
  0.74802578D-10  0.45960192D-10 -0.10016648D-10 -0.36689498D-10 -0.16780485D-10
  0.89071733D-13 -0.86959164D-11 -0.16264399D-10 -0.28165533D-10 -0.45730891D-10
 -0.70195992D-10 -0.99710276D-10 -0.12649830D-09 -0.13095992D-09 -0.84354101D-10
  0.20747330D-10  0.84572503D-10  0.73761938D-10 -0.37592923D-10 -0.20929707D-09
 -0.56053011D-08 -0.20086101D-08  0.24482590D-15  0.32293798D-15  0.35870477D-15
  0.30700072D-15  0.17541774D-15  0.56926882D-16  0.40083861D-19 -0.11221183D-15
 -0.14801319D-15 -0.16440629D-15 -0.14070861D-15 -0.80399771D-16 -0.26091478D-16
 -0.18371763D-19 -0.31821654D-03 -0.41974401D-03 -0.46623248D-03 -0.39902929D-03
 -0.22800213D-03 -0.73991661D-04 -0.52099665D-07 -0.15442515D-15 -0.21117441D-15
 -0.22956786D-15 -0.21073129D-15 -0.11485711D-15 -0.48467494D-16  0.16715851D-16
  0.13396921D-15  0.18320117D-15  0.19915813D-15  0.18281675D-15  0.99642550D-16
  0.42047242D-16 -0.14501584D-16  0.30615557D-03  0.41866381D-03  0.45512973D-03
  0.41778529D-03  0.22770995D-03  0.96089225D-04 -0.33140008D-04  0.18661016D-19
 -0.23660780D-20 -0.28599626D-04 -0.58266378D-19  0.43603119D-19 -0.21330823D-04
 -0.10300732D-21  0.17001680D-21 -0.96300456D-06  0.12365632D-09  0.12365632D-09
 -0.24731263D-09  0.14563649D-21  0.78093221D-20  0.61896409D-20 -0.97397299D-10
 -0.97397299D-10  0.19479460D-09 -0.34587403D-21  0.38854168D-20 -0.47939827D-20
  0.54832749D-10  0.54832749D-10 -0.10966550D-09 -0.62591736D-22 -0.36068593D-20
  0.55736699D-20  0.34540987D-20 -0.32516280D-20  0.67788006D-05  0.34009801D-20
 -0.32823219D-20 -0.10168201D-04 -0.13763276D-19  0.13037206D-19 -0.10168201D-04
 -0.13260650D-21  0.40907811D-20 -0.34985445D-20  0.37264823D-05  0.40866720D-20
 -0.34925064D-20 -0.55897234D-05 -0.16359015D-19  0.13988140D-19 -0.55897234D-05
  0.15574573D-22  0.54599419D+00  0.10201647D+01  0.17693479D+01  0.28986438D+01
  0.45390460D+01  0.68164367D+01  0.97221905D+01  0.12844983D+02  0.14813423D+02
  0.13332556D+02  0.74798954D+01  0.18083047D+01  0.85849345D-01 -0.14691403D-02
  0.41320587D-03 -0.16102567D-03  0.15231190D-04  0.15018274D-05  0.45308531D-04
  0.83436364D-04  0.14482457D-03  0.23719551D-03  0.37333482D-03  0.56349948D-03
  0.82141810D-03  0.11279796D-02  0.14325197D-02  0.15427329D-02  0.12307633D-02
  0.27568116D-03 -0.73716523D-03 -0.65554218D-03 -0.12803005D-03 -0.35466957D-05
 -0.25683964D-06 -0.52453682D-08 -0.11081742D-03 -0.20007059D-03 -0.34828480D-03
 -0.57033106D-03 -0.89915940D-03 -0.13568068D-02 -0.19857877D-02 -0.27361545D-02
 -0.35249002D-02 -0.38798067D-02 -0.32661681D-02 -0.77779149D-03  0.26199008D-02
  0.35007367D-02  0.43007266D-03 -0.15027323D-02 -0.66335855D-03  0.32921292D-05
  0.38954136D-04  0.84393704D-04  0.14366922D-03  0.23451893D-03  0.36972916D-03
  0.55794208D-03  0.81659557D-03  0.11264424D-02  0.14529930D-02  0.16063070D-02
  0.13604229D-02  0.33045576D-03 -0.11464868D-02 -0.16181346D-02 -0.19306575D-03
  0.90736460D-03  0.72530672D-03 -0.27478049D-03  0.20249143D-03  0.97833623D-04
  0.29361540D-04  0.19448121D-16  0.27873668D-16  0.36808248D-16  0.42309225D-16
  0.38921842D-16  0.24899369D-16  0.86186373D-17  0.96894092D-18  0.12327290D-19
  0.21361064D-20  0.21828683D-22  0.98033043D-17  0.14050409D-16  0.18554104D-16
  0.21327007D-16  0.19619513D-16  0.12551140D-16  0.43444364D-17  0.48841853D-18
  0.62138742D-20  0.10767570D-20  0.11003285D-22  0.43239204D-03  0.61971806D-03
  0.81836148D-03  0.94066527D-03  0.86535324D-03  0.55359018D-03  0.19161903D-03
  0.21542561D-04  0.27407389D-06  0.47492268D-07  0.48531930D-09  0.96465813D-18
  0.13914434D-17  0.18532225D-17  0.21932207D-17  0.21076027D-17  0.14486690D-17
  0.45610584D-18 -0.22043183D-18 -0.22621642D-18 -0.56969690D-19  0.62113031D-22
  0.23385855D-17  0.33732254D-17  0.44926998D-17  0.53169449D-17  0.51093844D-17
  0.35119554D-17  0.11057208D-17 -0.53438486D-18 -0.54840822D-18 -0.13810954D-18
  0.15057836D-21 -0.24347739D-02 -0.35119695D-02 -0.46774889D-02 -0.55356361D-02
 -0.53195384D-02 -0.36564056D-02 -0.11512001D-02  0.55636463D-03  0.57096479D-03
  0.14379012D-03 -0.15677179D-06  0.91676364D-18  0.13290203D-17  0.17639421D-17
  0.21050961D-17  0.20224976D-17  0.14156405D-17  0.42744008D-18 -0.26165710D-18
 -0.28140754D-18 -0.75679691D-19  0.28210920D-19 -0.90555498D-18 -0.13127713D-17
 -0.17423755D-17 -0.20793585D-17 -0.19977699D-17 -0.13983324D-17 -0.42221405D-18
  0.25845799D-18  0.27796695D-18  0.74754405D-19 -0.27866004D-19  0.18179725D-02
  0.26354911D-02  0.34979553D-02  0.41744750D-02  0.40106795D-02  0.28072619D-02
  0.84762777D-03 -0.51887465D-03 -0.55804042D-03 -0.15007532D-03  0.55943185D-04
 -0.49404268D-20  0.46920948D-19 -0.17891591D-04  0.41352214D-19 -0.41962449D-19
 -0.47664487D-04  0.12389031D-20 -0.16683805D-20 -0.16111579D-05 -0.23084086D-03
 -0.23894235D-03 -0.19991524D-03 -0.12900210D-03 -0.57949505D-04 -0.16920318D-04
 -0.28545613D-05 -0.23084086D-03 -0.23894235D-03 -0.19991524D-03 -0.12900210D-03
 -0.57949505D-04 -0.16920318D-04 -0.28545613D-05  0.46168172D-03  0.47788470D-03
  0.39983047D-03  0.25800419D-03  0.11589901D-03  0.33840635D-04  0.57091225D-05
 -0.52603585D-17 -0.54449737D-17 -0.45556312D-17 -0.29396757D-17 -0.13205425D-17
 -0.38557705D-18 -0.65049211D-19  0.39192577D-17  0.40568062D-17  0.33941968D-17
  0.21902208D-17  0.98387713D-18  0.28727620D-18  0.48465255D-19 -0.40586021D-17
 -0.42010409D-17 -0.35148733D-17 -0.22680914D-17 -0.10188577D-17 -0.29748995D-18
 -0.50188378D-19  0.12830624D-04  0.12830624D-04 -0.25661248D-04  0.24031810D-19
  0.22514668D-19 -0.45035592D-20 -0.30570437D-05 -0.30570437D-05  0.61140873D-05
 -0.22205362D-20 -0.31187487D-19  0.34763178D-19 -0.25336729D-05 -0.25336729D-05
  0.50673458D-05  0.20585048D-21 -0.93230009D-20  0.94076699D-20 -0.24095921D-20
  0.76081444D-21  0.42807935D-05 -0.25640738D-20  0.48548427D-21 -0.64211903D-05
  0.97928502D-20 -0.27679276D-20 -0.64211903D-05  0.28323093D-21 -0.70144971D-21
  0.15200046D-20 -0.19147364D-05 -0.69581318D-21  0.15199146D-20  0.28721047D-05
  0.28001623D-20 -0.60799285D-20  0.28721047D-05  0.24933399D-22 -0.54596037D+00
 -0.10201015D+01 -0.17692383D+01 -0.28984643D+01 -0.45387648D+01 -0.68160144D+01
 -0.97215882D+01 -0.12844187D+02 -0.14812505D+02 -0.13331730D+02 -0.74794320D+01
 -0.18081927D+01 -0.85844026D-01  0.14690493D-02 -0.41318027D-03  0.16101569D-03
 -0.15230246D-04 -0.15017343D-05 -0.45306741D-04 -0.83433068D-04 -0.14481884D-03
 -0.23718614D-03 -0.37332007D-03 -0.56347722D-03 -0.82138564D-03 -0.11279350D-02
 -0.14324631D-02 -0.15426719D-02 -0.12307147D-02 -0.27567027D-03  0.73713611D-03
  0.65551628D-03  0.12802499D-03  0.35465556D-05  0.25682950D-06  0.52451610D-08
  0.11081203D-03  0.20006086D-03  0.34826786D-03  0.57030332D-03  0.89911566D-03
  0.13567408D-02  0.19856911D-02  0.27360214D-02  0.35247287D-02  0.38796179D-02
  0.32660092D-02  0.77775365D-03 -0.26197733D-02 -0.35005664D-02 -0.43005174D-03
  0.15026592D-02  0.66332628D-03 -0.32919690D-05 -0.38952374D-04 -0.84389885D-04
 -0.14366272D-03 -0.23450832D-03 -0.36971243D-03 -0.55791683D-03 -0.81655863D-03
 -0.11263914D-02 -0.14529272D-02 -0.16062343D-02 -0.13603613D-02 -0.33044081D-03
  0.11464349D-02  0.16180614D-02  0.19305701D-03 -0.90732355D-03 -0.72527391D-03
  0.27476806D-03 -0.20248019D-03 -0.97824419D-04 -0.29358579D-04 -0.14799594D-16
 -0.21211250D-16 -0.28010270D-16 -0.32196393D-16 -0.29618669D-16 -0.18947874D-16
 -0.65585942D-17 -0.73734281D-18 -0.93807978D-20 -0.16255302D-20 -0.16611149D-22
  0.32220108D-16  0.46178887D-16  0.60980992D-16  0.70094576D-16  0.64482629D-16
  0.41251304D-16  0.14278676D-16  0.16052647D-17  0.20422879D-19  0.35389320D-20
  0.36164034D-22  0.43239412D-03  0.61972105D-03  0.81836542D-03  0.94066979D-03
  0.86535741D-03  0.55359284D-03  0.19161995D-03  0.21542665D-04  0.27407521D-06
  0.47492497D-07  0.48532164D-09 -0.82461591D-17 -0.11894435D-16 -0.15841848D-16
 -0.18748245D-16 -0.18016359D-16 -0.12383615D-16 -0.38989163D-17  0.18843110D-17
  0.19337592D-17  0.48699234D-18 -0.53095902D-21  0.10812723D-16  0.15596501D-16
  0.20772521D-16  0.24583515D-16  0.23623834D-16  0.16237935D-16  0.51124288D-17
 -0.24707907D-17 -0.25356293D-17 -0.63856556D-18  0.69621658D-21 -0.24347479D-02
 -0.35119320D-02 -0.46774391D-02 -0.55355771D-02 -0.53194817D-02 -0.36563666D-02
 -0.11511879D-02  0.55635870D-03  0.57095870D-03  0.14378859D-03 -0.15677012D-06
  0.39128683D-17  0.56724343D-17  0.75287379D-17  0.89848284D-17  0.86322871D-17
  0.60421408D-17  0.18243707D-17 -0.11167871D-17 -0.12010845D-17 -0.32301092D-18
  0.12040793D-18 -0.42839599D-17 -0.62104009D-17 -0.82427540D-17 -0.98369383D-17
 -0.94509625D-17 -0.66151699D-17 -0.19973918D-17  0.12227017D-17  0.13149939D-17
  0.35364487D-18 -0.13182727D-18  0.18179550D-02  0.26354657D-02  0.34979215D-02
  0.41744347D-02  0.40106408D-02  0.28072347D-02  0.84761959D-03 -0.51886964D-03
 -0.55803503D-03 -0.15007387D-03  0.55942644D-04 -0.22794881D-18  0.26207301D-18
 -0.17891137D-04  0.15888463D-19  0.31882997D-20 -0.47661749D-04  0.19235318D-21
  0.28771168D-21 -0.16110135D-05  0.23083272D-03  0.23893392D-03  0.19990819D-03
  0.12899755D-03  0.57947461D-04  0.16919721D-04  0.28544606D-05  0.23083272D-03
  0.23893392D-03  0.19990819D-03  0.12899755D-03  0.57947461D-04  0.16919721D-04
  0.28544606D-05 -0.46166544D-03 -0.47786784D-03 -0.39981637D-03 -0.25799509D-03
 -0.11589492D-03 -0.33839442D-04 -0.57089212D-05 -0.41892300D-17 -0.43362533D-17
 -0.36280011D-17 -0.23410909D-17 -0.10516501D-17 -0.30706479D-18 -0.51803713D-19
  0.20528930D-17  0.21249404D-17  0.17778680D-17  0.11472297D-17  0.51535128D-18
  0.15047423D-18  0.25385925D-19 -0.50442162D-17 -0.52212457D-17 -0.43684453D-17
 -0.28188877D-17 -0.12662829D-17 -0.36973411D-18 -0.62376410D-19 -0.12830203D-04
 -0.12830203D-04  0.25660406D-04  0.16944561D-19 -0.46705887D-19  0.73721463D-19
  0.30567991D-05  0.30567991D-05 -0.61135982D-05 -0.20270454D-20  0.49001253D-19
 -0.42481686D-19  0.25335632D-05  0.25335632D-05 -0.50671264D-05  0.19199345D-21
  0.54372098D-20 -0.38812891D-21 -0.19985128D-20  0.31777031D-21  0.42805854D-05
 -0.20692394D-20  0.16359317D-20 -0.64208780D-05  0.80647777D-20 -0.25892426D-20
 -0.64208780D-05  0.59808233D-22 -0.17043898D-20  0.68590656D-21 -0.19146302D-05
 -0.17059575D-20  0.58989798D-21  0.28719453D-05  0.68191270D-20 -0.26476177D-20
  0.28719453D-05 -0.32817814D-22
MO    2     MO 0.0        OCC NO =    2.0000000  ORB. ENERGY = -456.347086
  0.70620171D-07  0.13209917D-06  0.22812932D-06  0.36848833D-06  0.55493584D-06
  0.75471012D-06  0.85916095D-06  0.69603819D-06  0.28253565D-06  0.25763365D-07
 -0.99009186D-09  0.33107959D-09  0.18579436D-10  0.16577423D-06  0.31028371D-06
  0.53664761D-06  0.87222369D-06  0.13344951D-05  0.18937408D-05  0.23755406D-05
  0.24220694D-05  0.14881676D-05 -0.32433395D-06 -0.11879873D-05 -0.54334356D-06
  0.28840974D-08 -0.28095894D-06 -0.52549130D-06 -0.91000855D-06 -0.14775329D-05
 -0.22679831D-05 -0.32215688D-05 -0.40870711D-05 -0.42312228D-05 -0.27254217D-05
  0.67033163D-06  0.27324781D-05  0.23831963D-05 -0.12146009D-05 -0.67533810D-05
 -0.18096155D-03 -0.64848956D-04  0.28782542D-18  0.37965656D-18  0.42170518D-18
  0.36092019D-18  0.20622690D-18  0.66925124D-19  0.47123911D-22 -0.26614831D-18
 -0.35106333D-18 -0.38994512D-18 -0.33373806D-18 -0.19069525D-18 -0.61884765D-19
 -0.43574849D-22  0.98578056D-08  0.13002954D-07  0.14443087D-07  0.12361247D-07
  0.70631172D-08  0.22921355D-08  0.16139588D-11 -0.84819306D-19 -0.11598931D-18
 -0.12609206D-18 -0.11574592D-18 -0.63086226D-19 -0.26621176D-19  0.91813207D-20
  0.10225482D-18  0.13983215D-18  0.15201163D-18  0.13953873D-18  0.76054273D-19
  0.32093443D-19 -0.11068639D-19 -0.94841986D-08 -0.12969520D-07 -0.14099174D-07
 -0.12942305D-07 -0.70540816D-08 -0.29766870D-08  0.10266232D-08 -0.22368646D-19
  0.27019172D-19  0.88598668D-09  0.32572139D-19 -0.36996460D-19  0.66054886D-09
  0.11078882D-21 -0.99154398D-22  0.29825921D-10  0.39927418D-05  0.39927418D-05
 -0.79854837D-05 -0.13566267D-22  0.28420655D-20 -0.94463144D-21 -0.31439298D-05
 -0.31439298D-05  0.62878596D-05 -0.13567367D-21 -0.76171635D-20  0.11731188D-19
  0.17702216D-05  0.17702216D-05 -0.35404432D-05 -0.50703767D-23  0.61234327D-20
 -0.70098176D-20 -0.22825534D-20  0.25984172D-20 -0.20999263D-09 -0.22736857D-20
  0.26004928D-20  0.31498895D-09  0.91213460D-20 -0.10395744D-19  0.31498895D-09
 -0.13010647D-21 -0.24694549D-20  0.27827519D-20 -0.11544663D-09 -0.24722880D-20
  0.27776961D-20  0.17316995D-09  0.98806525D-20 -0.11125952D-19  0.17316995D-09
  0.34756732D-21  0.54596811D+00  0.10201160D+01  0.17692634D+01  0.28985054D+01
  0.45388292D+01  0.68161111D+01  0.97217261D+01  0.12844370D+02  0.14812716D+02
  0.13331919D+02  0.74795381D+01  0.18082184D+01  0.85845244D-01 -0.14690702D-02
  0.41318613D-03 -0.16101798D-03  0.15230462D-04  0.15017556D-05  0.28890239D-04
  0.53201824D-04  0.92345000D-04  0.15124381D-03  0.23805080D-03  0.35930616D-03
  0.52376372D-03  0.71923763D-03  0.91342262D-03  0.98369822D-03  0.78477596D-03
  0.17578355D-03 -0.47004127D-03 -0.41799568D-03 -0.81636251D-04 -0.22614921D-05
 -0.16376957D-06 -0.33446227D-08 -0.87013685D-04 -0.15709515D-03 -0.27347274D-03
 -0.44782316D-03 -0.70601871D-03 -0.10653628D-02 -0.15592378D-02 -0.21484247D-02