 Molden2AIM, Version 4.0.0 (06/02/2016)           Time: Thu Jun 28 05:05:33 2018
GAUSSIAN             20 MOL ORBITALS    356 PRIMITIVES        4 NUCLEI
  S    1    (CENTRE  1)  -0.00005102  0.00000000  0.00000000  CHARGE = 16.0
  O    2    (CENTRE  2)  -1.38027675  2.39083614  0.00000000  CHARGE =  8.0
  O    3    (CENTRE  3)  -1.38027675 -2.39083614  0.00000000  CHARGE =  8.0
  O    4    (CENTRE  4)   2.76060641  0.00000000  0.00000000  CHARGE =  8.0
CENTRE ASSIGNMENTS    1  1  1  1  1  1  1  1  1  1  1  1  1  1  1  1  1  1  1  1
CENTRE ASSIGNMENTS    1  1  1  1  1  1  1  1  1  1  1  1  1  1  1  1  1  1  1  1
CENTRE ASSIGNMENTS    1  1  1  1  1  1  1  1  1  1  1  1  1  1  1  1  1  1  1  1
CENTRE ASSIGNMENTS    1  1  1  1  1  1  1  1  1  1  1  1  1  1  1  1  1  1  1  1
CENTRE ASSIGNMENTS    1  1  1  1  1  1  1  1  1  1  1  1  1  1  1  1  1  1  1  1
CENTRE ASSIGNMENTS    1  1  1  1  1  1  1  1  1  1  1  1  1  1  1  1  1  1  1  1
CENTRE ASSIGNMENTS    1  1  1  1  1  1  1  1  1  1  1  2  2  2  2  2  2  2  2  2
CENTRE ASSIGNMENTS    2  2  2  2  2  2  2  2  2  2  2  2  2  2  2  2  2  2  2  2
CENTRE ASSIGNMENTS    2  2  2  2  2  2  2  2  2  2  2  2  2  2  2  2  2  2  2  2
CENTRE ASSIGNMENTS    2  2  2  2  2  2  2  2  2  2  2  2  2  2  2  2  2  2  2  2
CENTRE ASSIGNMENTS    2  2  2  2  2  2  3  3  3  3  3  3  3  3  3  3  3  3  3  3
CENTRE ASSIGNMENTS    3  3  3  3  3  3  3  3  3  3  3  3  3  3  3  3  3  3  3  3
CENTRE ASSIGNMENTS    3  3  3  3  3  3  3  3  3  3  3  3  3  3  3  3  3  3  3  3
CENTRE ASSIGNMENTS    3  3  3  3  3  3  3  3  3  3  3  3  3  3  3  3  3  3  3  3
CENTRE ASSIGNMENTS    3  4  4  4  4  4  4  4  4  4  4  4  4  4  4  4  4  4  4  4
CENTRE ASSIGNMENTS    4  4  4  4  4  4  4  4  4  4  4  4  4  4  4  4  4  4  4  4
CENTRE ASSIGNMENTS    4  4  4  4  4  4  4  4  4  4  4  4  4  4  4  4  4  4  4  4
CENTRE ASSIGNMENTS    4  4  4  4  4  4  4  4  4  4  4  4  4  4  4  4
TYPE ASSIGNMENTS      1  1  1  1  1  1  1  1  1  1  1  1  1  1  1  1  1  1  1  1
TYPE ASSIGNMENTS      1  1  1  1  1  1  1  1  1  1  1  1  1  1  1  1  1  1  1  1
TYPE ASSIGNMENTS      1  1  2  2  2  2  2  2  2  3  3  3  3  3  3  3  4  4  4  4
TYPE ASSIGNMENTS      4  4  4  2  2  2  2  2  2  2  3  3  3  3  3  3  3  4  4  4
TYPE ASSIGNMENTS      4  4  4  4  2  3  4  2  3  4  2  3  4  5  6  7  8  9 10  5
TYPE ASSIGNMENTS      6  7  8  9 10  5  6  7  8  9 10 11 12 13 17 14 15 18 19 16
TYPE ASSIGNMENTS     20 11 12 13 17 14 15 18 19 16 20  1  1  1  1  1  1  1  1  1
TYPE ASSIGNMENTS      1  1  1  1  1  1  1  1  1  1  2  2  2  3  3  3  4  4  4  2
TYPE ASSIGNMENTS      3  4  2  3  4  2  3  4  5  6  7  8  9 10  5  6  7  8  9 10
TYPE ASSIGNMENTS      5  6  7  8  9 10 11 12 13 17 14 15 18 19 16 20 11 12 13 17
TYPE ASSIGNMENTS     14 15 18 19 16 20  1  1  1  1  1  1  1  1  1  1  1  1  1  1
TYPE ASSIGNMENTS      1  1  1  1  1  2  2  2  3  3  3  4  4  4  2  3  4  2  3  4
TYPE ASSIGNMENTS      2  3  4  5  6  7  8  9 10  5  6  7  8  9 10  5  6  7  8  9
TYPE ASSIGNMENTS     10 11 12 13 17 14 15 18 19 16 20 11 12 13 17 14 15 18 19 16
TYPE ASSIGNMENTS     20  1  1  1  1  1  1  1  1  1  1  1  1  1  1  1  1  1  1  1
TYPE ASSIGNMENTS      2  2  2  3  3  3  4  4  4  2  3  4  2  3  4  2  3  4  5  6
TYPE ASSIGNMENTS      7  8  9 10  5  6  7  8  9 10  5  6  7  8  9 10 11 12 13 17
TYPE ASSIGNMENTS     14 15 18 19 16 20 11 12 13 17 14 15 18 19 16 20
EXPONENTS  0.3741000D+06 0.5605000D+05 0.1276000D+05 0.3615000D+04 0.1183000D+04
EXPONENTS  0.4288000D+03 0.1678000D+03 0.6947000D+02 0.2984000D+02 0.1272000D+02
EXPONENTS  0.5244000D+01 0.2219000D+01 0.3490000D+00 0.3741000D+06 0.5605000D+05
EXPONENTS  0.1276000D+05 0.3615000D+04 0.1183000D+04 0.4288000D+03 0.1678000D+03
EXPONENTS  0.6947000D+02 0.2984000D+02 0.1272000D+02 0.5244000D+01 0.2219000D+01
EXPONENTS  0.3490000D+00 0.3741000D+06 0.5605000D+05 0.1276000D+05 0.3615000D+04
EXPONENTS  0.1183000D+04 0.4288000D+03 0.1678000D+03 0.6947000D+02 0.2984000D+02
EXPONENTS  0.1272000D+02 0.5244000D+01 0.2219000D+01 0.3490000D+00 0.7767000D+00
EXPONENTS  0.1322000D+00 0.4970000D-01 0.5744000D+03 0.1358000D+03 0.4319000D+02
EXPONENTS  0.1587000D+02 0.6208000D+01 0.2483000D+01 0.3229000D+00 0.5744000D+03
EXPONENTS  0.1358000D+03 0.4319000D+02 0.1587000D+02 0.6208000D+01 0.2483000D+01
EXPONENTS  0.3229000D+00 0.5744000D+03 0.1358000D+03 0.4319000D+02 0.1587000D+02
EXPONENTS  0.6208000D+01 0.2483000D+01 0.3229000D+00 0.5744000D+03 0.1358000D+03
EXPONENTS  0.4319000D+02 0.1587000D+02 0.6208000D+01 0.2483000D+01 0.3229000D+00
EXPONENTS  0.5744000D+03 0.1358000D+03 0.4319000D+02 0.1587000D+02 0.6208000D+01
EXPONENTS  0.2483000D+01 0.3229000D+00 0.5744000D+03 0.1358000D+03 0.4319000D+02
EXPONENTS  0.1587000D+02 0.6208000D+01 0.2483000D+01 0.3229000D+00 0.8688000D+00
EXPONENTS  0.8688000D+00 0.8688000D+00 0.1098000D+00 0.1098000D+00 0.1098000D+00
EXPONENTS  0.3510000D-01 0.3510000D-01 0.3510000D-01 0.2690000D+00 0.2690000D+00
EXPONENTS  0.2690000D+00 0.2690000D+00 0.2690000D+00 0.2690000D+00 0.8190000D+00
EXPONENTS  0.8190000D+00 0.8190000D+00 0.8190000D+00 0.8190000D+00 0.8190000D+00
EXPONENTS  0.1010000D+00 0.1010000D+00 0.1010000D+00 0.1010000D+00 0.1010000D+00
EXPONENTS  0.1010000D+00 0.5570000D+00 0.5570000D+00 0.5570000D+00 0.5570000D+00
EXPONENTS  0.5570000D+00 0.5570000D+00 0.5570000D+00 0.5570000D+00 0.5570000D+00
EXPONENTS  0.5570000D+00 0.2180000D+00 0.2180000D+00 0.2180000D+00 0.2180000D+00
EXPONENTS  0.2180000D+00 0.2180000D+00 0.2180000D+00 0.2180000D+00 0.2180000D+00
EXPONENTS  0.2180000D+00 0.1533000D+05 0.2299000D+04 0.5224000D+03 0.1473000D+03
EXPONENTS  0.4755000D+02 0.1676000D+02 0.6207000D+01 0.6882000D+00 0.1533000D+05
EXPONENTS  0.2299000D+04 0.5224000D+03 0.1473000D+03 0.4755000D+02 0.1676000D+02
EXPONENTS  0.6207000D+01 0.6882000D+00 0.1752000D+01 0.2384000D+00 0.7376000D-01
EXPONENTS  0.3446000D+02 0.7749000D+01 0.2280000D+01 0.3446000D+02 0.7749000D+01
EXPONENTS  0.2280000D+01 0.3446000D+02 0.7749000D+01 0.2280000D+01 0.7156000D+00
EXPONENTS  0.7156000D+00 0.7156000D+00 0.2140000D+00 0.2140000D+00 0.2140000D+00
EXPONENTS  0.5974000D-01 0.5974000D-01 0.5974000D-01 0.2314000D+01 0.2314000D+01
EXPONENTS  0.2314000D+01 0.2314000D+01 0.2314000D+01 0.2314000D+01 0.6450000D+00
EXPONENTS  0.6450000D+00 0.6450000D+00 0.6450000D+00 0.6450000D+00 0.6450000D+00
EXPONENTS  0.2140000D+00 0.2140000D+00 0.2140000D+00 0.2140000D+00 0.2140000D+00
EXPONENTS  0.2140000D+00 0.1428000D+01 0.1428000D+01 0.1428000D+01 0.1428000D+01
EXPONENTS  0.1428000D+01 0.1428000D+01 0.1428000D+01 0.1428000D+01 0.1428000D+01
EXPONENTS  0.1428000D+01 0.5000000D+00 0.5000000D+00 0.5000000D+00 0.5000000D+00
EXPONENTS  0.5000000D+00 0.5000000D+00 0.5000000D+00 0.5000000D+00 0.5000000D+00
EXPONENTS  0.5000000D+00 0.1533000D+05 0.2299000D+04 0.5224000D+03 0.1473000D+03
EXPONENTS  0.4755000D+02 0.1676000D+02 0.6207000D+01 0.6882000D+00 0.1533000D+05
EXPONENTS  0.2299000D+04 0.5224000D+03 0.1473000D+03 0.4755000D+02 0.1676000D+02
EXPONENTS  0.6207000D+01 0.6882000D+00 0.1752000D+01 0.2384000D+00 0.7376000D-01
EXPONENTS  0.3446000D+02 0.7749000D+01 0.2280000D+01 0.3446000D+02 0.7749000D+01
EXPONENTS  0.2280000D+01 0.3446000D+02 0.7749000D+01 0.2280000D+01 0.7156000D+00
EXPONENTS  0.7156000D+00 0.7156000D+00 0.2140000D+00 0.2140000D+00 0.2140000D+00
EXPONENTS  0.5974000D-01 0.5974000D-01 0.5974000D-01 0.2314000D+01 0.2314000D+01
EXPONENTS  0.2314000D+01 0.2314000D+01 0.2314000D+01 0.2314000D+01 0.6450000D+00
EXPONENTS  0.6450000D+00 0.6450000D+00 0.6450000D+00 0.6450000D+00 0.6450000D+00
EXPONENTS  0.2140000D+00 0.2140000D+00 0.2140000D+00 0.2140000D+00 0.2140000D+00
EXPONENTS  0.2140000D+00 0.1428000D+01 0.1428000D+01 0.1428000D+01 0.1428000D+01
EXPONENTS  0.1428000D+01 0.1428000D+01 0.1428000D+01 0.1428000D+01 0.1428000D+01
EXPONENTS  0.1428000D+01 0.5000000D+00 0.5000000D+00 0.5000000D+00 0.5000000D+00
EXPONENTS  0.5000000D+00 0.5000000D+00 0.5000000D+00 0.5000000D+00 0.5000000D+00
EXPONENTS  0.5000000D+00 0.1533000D+05 0.2299000D+04 0.5224000D+03 0.1473000D+03
EXPONENTS  0.4755000D+02 0.1676000D+02 0.6207000D+01 0.6882000D+00 0.1533000D+05
EXPONENTS  0.2299000D+04 0.5224000D+03 0.1473000D+03 0.4755000D+02 0.1676000D+02
EXPONENTS  0.6207000D+01 0.6882000D+00 0.1752000D+01 0.2384000D+00 0.7376000D-01
EXPONENTS  0.3446000D+02 0.7749000D+01 0.2280000D+01 0.3446000D+02 0.7749000D+01
EXPONENTS  0.2280000D+01 0.3446000D+02 0.7749000D+01 0.2280000D+01 0.7156000D+00
EXPONENTS  0.7156000D+00 0.7156000D+00 0.2140000D+00 0.2140000D+00 0.2140000D+00
EXPONENTS  0.5974000D-01 0.5974000D-01 0.5974000D-01 0.2314000D+01 0.2314000D+01
EXPONENTS  0.2314000D+01 0.2314000D+01 0.2314000D+01 0.2314000D+01 0.6450000D+00
EXPONENTS  0.6450000D+00 0.6450000D+00 0.6450000D+00 0.6450000D+00 0.6450000D+00
EXPONENTS  0.2140000D+00 0.2140000D+00 0.2140000D+00 0.2140000D+00 0.2140000D+00
EXPONENTS  0.2140000D+00 0.1428000D+01 0.1428000D+01 0.1428000D+01 0.1428000D+01
EXPONENTS  0.1428000D+01 0.1428000D+01 0.1428000D+01 0.1428000D+01 0.1428000D+01
EXPONENTS  0.1428000D+01 0.5000000D+00 0.5000000D+00 0.5000000D+00 0.5000000D+00
EXPONENTS  0.5000000D+00 0.5000000D+00 0.5000000D+00 0.5000000D+00 0.5000000D+00
EXPONENTS  0.5000000D+00
MO    1     MO 0.0        OCC NO =    2.0000000  ORB. ENERGY =  -90.230888
  0.58537893D+00  0.10943319D+01  0.18913472D+01  0.30591692D+01  0.46237551D+01
  0.63676695D+01  0.74423294D+01  0.64307340D+01  0.29993173D+01  0.40724249D+00
  0.10904950D-02  0.21391005D-02  0.97658872D-04 -0.16155901D-02 -0.30171833D-02
 -0.52337714D-02 -0.84863793D-02 -0.13065747D-01 -0.18608559D-01 -0.23928191D-01
 -0.25117480D-01 -0.17759838D-01  0.39329905D-03  0.12760673D-01  0.70263731D-02
 -0.29714413D-04  0.76660465D-03  0.14305977D-02  0.24847769D-02  0.40247873D-02
  0.62171185D-02  0.88634366D-02  0.11528436D-01  0.12286205D-01  0.91124227D-02
 -0.28363588D-03 -0.82553802D-02 -0.80874233D-02  0.37773063D-02 -0.31485706D-02
  0.47580114D-03  0.52599196D-04 -0.11022292D-07 -0.14460647D-07 -0.15861126D-07
 -0.13050786D-07 -0.68806322D-08 -0.17900153D-08  0.19808344D-11  0.31898171D-14
  0.41848663D-14  0.45901605D-14  0.37768568D-14  0.19912336D-14  0.51802487D-15
 -0.57324733D-18  0.11641265D-16  0.15272705D-16  0.16751830D-16  0.13783671D-16
  0.72670240D-17  0.18905362D-17 -0.20920710D-20 -0.51022844D-07 -0.66993305D-07
 -0.75371985D-07 -0.63506596D-07 -0.35524699D-07 -0.88420253D-08  0.40553789D-08
 -0.29900478D-14 -0.39259509D-14 -0.44169595D-14 -0.37216223D-14 -0.20818234D-14
 -0.51816159D-15  0.23765387D-15 -0.62425062D-17 -0.81964486D-17 -0.92215574D-17
 -0.77698593D-17 -0.43463504D-17 -0.10817978D-17  0.49616458D-18  0.41113393D-08
  0.30669517D-16 -0.70248167D-18  0.29480067D-08 -0.19202135D-15  0.90589893D-19
 -0.12460839D-08  0.10664306D-16  0.18971224D-20  0.62057192D-04  0.62063257D-04
 -0.12412045D-03  0.32395953D-16  0.68279769D-20  0.60236482D-20  0.33209184D-03
  0.33217593D-03 -0.66426777D-03 -0.19575908D-15  0.44605931D-20  0.33506187D-19
 -0.93616847D-05 -0.93706143D-05  0.18732299D-04  0.53968665D-16  0.28599552D-21
  0.84887826D-21  0.24612560D-03  0.12138386D-16 -0.57727623D-19 -0.73837330D-03
 -0.61414759D-17  0.91298628D-19 -0.34868225D-08 -0.30273682D-16  0.81884241D-19
  0.59220569D-20 -0.29245153D-04  0.73633598D-17 -0.16563445D-19  0.87733755D-04
 -0.47969491D-16  0.26805074D-19  0.17041931D-08  0.25879411D-16  0.22885260D-19
 -0.32986397D-20  0.15679734D-03  0.29225007D-03  0.49555929D-03  0.75005206D-03
  0.93584598D-03  0.80376689D-03  0.30858174D-03 -0.13803050D-05 -0.10793081D-03
 -0.20242690D-03 -0.34509349D-03 -0.53931395D-03 -0.72116551D-03 -0.77003663D-03
 -0.47078530D-03  0.31059555D-03  0.66422031D-04 -0.52760762D-03 -0.11263779D-03
  0.25328941D-03  0.24560552D-03  0.16568403D-03 -0.43873746D-03 -0.42542776D-03
 -0.28699105D-03 -0.16785674D-19 -0.16276458D-19 -0.10980002D-19 -0.19801051D-03
  0.34297735D-03  0.39362117D-19 -0.26567394D-03  0.46022440D-03 -0.14386362D-18
 -0.77739907D-05  0.13471160D-04 -0.58449544D-20 -0.30318083D-04  0.28454906D-03
 -0.25423098D-03 -0.54515406D-03  0.12640938D-18 -0.20070596D-18  0.46106734D-04
 -0.28095905D-03  0.23485231D-03  0.56632269D-03 -0.56811357D-19  0.92229003D-19
  0.13780914D-04 -0.77581415D-04  0.63800502D-04  0.15820953D-03 -0.41351332D-19
  0.75250138D-19  0.31154933D-04 -0.20012798D-04 -0.10748929D-18 -0.47217918D-04
 -0.20052888D-04  0.66811562D-19 -0.46246881D-04  0.80091282D-04  0.25565631D-18
 -0.28468299D-18  0.54868004D-04  0.38748810D-04  0.45618335D-19 -0.25404644D-03
  0.38694209D-04 -0.26843314D-19  0.89442425D-04 -0.15494064D-03 -0.11001169D-18
  0.13474734D-18  0.15679734D-03  0.29225007D-03  0.49555929D-03  0.75005206D-03
  0.93584598D-03  0.80376689D-03  0.30858174D-03 -0.13803050D-05 -0.10793081D-03
 -0.20242690D-03 -0.34509349D-03 -0.53931395D-03 -0.72116551D-03 -0.77003663D-03
 -0.47078530D-03  0.31059555D-03  0.66422031D-04 -0.52760762D-03 -0.11263779D-03
  0.25328941D-03  0.24560552D-03  0.16568403D-03  0.43873746D-03  0.42542776D-03
  0.28699105D-03 -0.65258444D-19 -0.63278739D-19 -0.42687463D-19 -0.19801051D-03
 -0.34297735D-03  0.51378084D-19 -0.26567394D-03 -0.46022440D-03 -0.13212922D-18
 -0.77739907D-05 -0.13471160D-04 -0.52928521D-20 -0.30318083D-04  0.28454906D-03
 -0.25423098D-03  0.54515406D-03  0.11773796D-18  0.18628708D-18  0.46106734D-04
 -0.28095905D-03  0.23485231D-03 -0.56632269D-03 -0.47123674D-19 -0.82372738D-19
  0.13780914D-04 -0.77581415D-04  0.63800502D-04 -0.15820953D-03 -0.38796778D-19
 -0.69308124D-19  0.31154933D-04  0.20012798D-04 -0.10308300D-18 -0.47217918D-04
  0.20052888D-04  0.78267554D-19 -0.46246881D-04 -0.80091282D-04  0.23098145D-18
  0.26735002D-18  0.54868004D-04 -0.38748810D-04  0.42708259D-19 -0.25404644D-03
 -0.38694209D-04 -0.27026742D-19  0.89442425D-04  0.15494064D-03 -0.10109803D-18
 -0.12291334D-18  0.15679965D-03  0.29225436D-03  0.49556657D-03  0.75006308D-03
  0.93585973D-03  0.80377870D-03  0.30858627D-03 -0.13803253D-05 -0.10793222D-03
 -0.20242956D-03 -0.34509802D-03 -0.53932103D-03 -0.72117498D-03 -0.77004674D-03
 -0.47079148D-03  0.31059962D-03  0.66416479D-04 -0.52760172D-03 -0.11264537D-03
 -0.50659882D-03 -0.49123045D-03 -0.33138116D-03  0.15863463D-17  0.15382223D-17
  0.10376757D-17 -0.26977632D-19 -0.26159228D-19 -0.17646861D-19  0.39602038D-03
 -0.32494893D-17  0.38090922D-19  0.53137578D-03  0.63993252D-16 -0.14627668D-18
  0.15555526D-04 -0.19016977D-16 -0.56616737D-20  0.44188866D-03 -0.18766163D-03
 -0.25422704D-03  0.43326059D-16 -0.23390240D-18  0.44466268D-20 -0.44440591D-03
  0.20955934D-03  0.23484656D-03 -0.12868093D-16  0.12368296D-18  0.28528482D-20
 -0.12324343D-03  0.59447853D-04  0.63795578D-04 -0.33202619D-16  0.85777294D-19
  0.43174185D-21 -0.35315428D-05 -0.15651106D-16 -0.10640193D-18 -0.81874820D-04
 -0.46466355D-16  0.31571167D-18  0.92469448D-04  0.93419674D-16  0.34941091D-20
 -0.57265297D-20  0.12195367D-03  0.36928699D-17  0.46005653D-19 -0.18696386D-03
  0.13297709D-16 -0.15073606D-18 -0.17889714D-03 -0.24376319D-16  0.12719105D-19
 -0.19293708D-20
MO    2     MO 0.0        OCC NO =    2.0000000  ORB. ENERGY =  -19.724431
  0.74727773D-12  0.13969923D-11  0.24144389D-11  0.39052465D-11  0.59025514D-11
  0.81287818D-11  0.95006614D-11  0.82092882D-11  0.38288413D-11  0.51987392D-12
  0.13920943D-14  0.27307135D-14  0.12466848D-15 -0.13873103D-11 -0.25908610D-11
 -0.44942493D-11 -0.72872699D-11 -0.11219582D-10 -0.15979204D-10 -0.20547183D-10
 -0.21568427D-10 -0.15250407D-10  0.33772664D-12  0.10957614D-10  0.60335598D-11
 -0.25515822D-13  0.81183482D-12  0.15150039D-11  0.26313804D-11  0.42622524D-11
  0.65839326D-11  0.93863852D-11  0.12208621D-10  0.13011099D-10  0.96500616D-11
 -0.30037058D-12 -0.87424531D-11 -0.85645866D-11  0.40001699D-11 -0.19454011D-11
  0.41350554D-11  0.85804485D-12 -0.16026280D-09 -0.21025607D-09 -0.23061886D-09
 -0.18975685D-09 -0.10004357D-09 -0.26026607D-10  0.28801094D-13  0.33132470D-01
  0.43467997D-01  0.47677767D-01  0.39230022D-01  0.20682844D-01  0.53806983D-02
 -0.59542913D-05  0.31913823D-15  0.41869198D-15  0.45924128D-15  0.37787101D-15
  0.19922107D-15  0.51827906D-16 -0.57352861D-19  0.15306929D-09  0.20098091D-09
  0.22611707D-09  0.19052073D-09  0.10657462D-09  0.26526207D-10 -0.12166197D-10
 -0.31646896D-01 -0.41552568D-01 -0.46749440D-01 -0.39389938D-01 -0.22034179D-01
 -0.54842623D-02  0.25153469D-02 -0.20787428D-15 -0.27294019D-15 -0.30707612D-15
 -0.25873485D-15 -0.14473264D-15 -0.36023661D-16  0.16522187D-16  0.18439521D-11
 -0.38154725D-03 -0.71002280D-16 -0.90547226D-12  0.18842701D-03 -0.25477991D-17
 -0.61651575D-13  0.12716495D-04 -0.20763338D-18 -0.13851408D-11  0.20168195D-11
 -0.63167877D-12 -0.71111468D-03  0.14763399D-16  0.10125368D-16 -0.34122499D-11
  0.51330690D-11 -0.17208191D-11 -0.17654931D-02 -0.29646829D-17 -0.85950374D-18
  0.76704230D-13 -0.41729211D-13 -0.34975019D-13  0.23311123D-04  0.18557936D-18
  0.30047501D-18 -0.17424089D-12  0.12831970D-03 -0.61287296D-18 -0.19566588D-11
  0.12817764D-03  0.92811381D-18  0.24793815D-11 -0.51313673D-03  0.91050506D-18
  0.32915123D-17  0.53251693D-13 -0.27960164D-05  0.34738611D-18 -0.10624685D-12
 -0.27431206D-05 -0.85504628D-18 -0.53508226D-13  0.11131170D-04 -0.18711206D-18
 -0.57558695D-18  0.35204491D+00  0.65616642D+00  0.11126408D+01  0.16840337D+01
  0.21011824D+01  0.18046355D+01  0.69283465D+00 -0.30990919D-02  0.11749850D-03
  0.22037136D-03  0.37568485D-03  0.58712230D-03  0.78509438D-03  0.83829776D-03
  0.51251881D-03 -0.33812878D-03  0.35408483D-01 -0.73572223D-03 -0.36562172D-03
  0.32986547D-02  0.31985854D-02  0.21577468D-02 -0.57642085D-02 -0.55893433D-02
 -0.37705380D-02 -0.28004063D-16 -0.27154522D-16 -0.18318280D-16 -0.58520076D-03
  0.10451454D-02  0.26322465D-17 -0.43712711D-03  0.78129773D-03  0.27945870D-18
 -0.20282337D-04  0.26562500D-04  0.13863482D-18 -0.35627014D-03  0.12025278D-02
 -0.84625769D-03 -0.28588781D-02  0.40875319D-17 -0.79369264D-17  0.11100073D-03
 -0.47351011D-03  0.36250939D-03  0.10802666D-02 -0.25913707D-19 -0.58132277D-18
  0.24245935D-04 -0.10571166D-03  0.81465728D-04  0.20722320D-03 -0.38415667D-18
 -0.19192626D-18 -0.87072538D-04  0.55018101D-04 -0.15668395D-17  0.25584132D-03
 -0.96407692D-04  0.40157062D-17  0.53762928D-05 -0.68646611D-04  0.68481230D-18
 -0.11815211D-16  0.80041166D-04  0.33221779D-04 -0.22875348D-18 -0.36807072D-03
  0.92335412D-04 -0.16102229D-18  0.12794723D-03 -0.19200075D-03  0.84728273D-18
  0.17579027D-17 -0.35204491D+00 -0.65616642D+00 -0.11126408D+01 -0.16840337D+01
 -0.21011824D+01 -0.18046355D+01 -0.69283464D+00  0.30990919D-02 -0.11749850D-03
 -0.22037135D-03 -0.37568485D-03 -0.58712229D-03 -0.78509437D-03 -0.83829775D-03
 -0.51251881D-03  0.33812878D-03 -0.35408482D-01  0.73572222D-03  0.36562172D-03
 -0.32986546D-02 -0.31985854D-02 -0.21577468D-02 -0.57642085D-02 -0.55893433D-02
 -0.37705379D-02  0.34743807D-16  0.33689806D-16  0.22726944D-16  0.58520076D-03
  0.10451454D-02 -0.69415448D-17  0.43712710D-03  0.78129773D-03  0.37967641D-17
  0.20282337D-04  0.26562500D-04 -0.81942681D-19  0.35627013D-03 -0.12025278D-02
  0.84625769D-03 -0.28588781D-02 -0.92062955D-17  0.10379183D-16 -0.11100072D-03
  0.47351011D-03 -0.36250938D-03  0.10802666D-02  0.23784973D-17 -0.42585933D-17
 -0.24245935D-04  0.10571166D-03 -0.81465727D-04  0.20722320D-03 -0.62678312D-18
  0.16658384D-17  0.87072538D-04  0.55018102D-04 -0.53185590D-18 -0.25584132D-03
 -0.96407694D-04 -0.25183625D-17 -0.53762923D-05 -0.68646612D-04  0.41139302D-17
 -0.62676794D-17 -0.80041165D-04  0.33221778D-04 -0.44932424D-19  0.36807072D-03
  0.92335412D-04  0.18850809D-18 -0.12794722D-03 -0.19200075D-03 -0.53710816D-19
 -0.81183889D-18 -0.12928420D-08 -0.24096911D-08 -0.40860377D-08 -0.61844084D-08
 -0.77163360D-08 -0.66273036D-08 -0.25443507D-08  0.11381037D-10 -0.43567578D-12
 -0.81712072D-12 -0.13930117D-11 -0.21770061D-11 -0.29110720D-11 -0.31083462D-11
 -0.19003819D-11  0.12537566D-11 -0.13018362D-09  0.26932993D-11  0.11801341D-11
  0.24973824D-10  0.24216208D-10  0.16336111D-10 -0.50323926D-04 -0.48797280D-04
 -0.32918357D-04  0.76905347D-17  0.74572317D-17  0.50306044D-17 -0.47654208D-11
  0.31507684D-04 -0.86595938D-18 -0.36448087D-11  0.23905688D-04  0.14611128D-17
 -0.11796064D-12 -0.85689127D-05  0.13343314D-18 -0.78538841D-11  0.46923810D-11
  0.31615031D-11 -0.16017358D-03 -0.86977491D-18  0.97692881D-18  0.31563411D-11
 -0.17235872D-11 -0.14327539D-11  0.68087696D-04 -0.15106987D-18  0.15335052D-18
  0.72429570D-12 -0.36436278D-12 -0.35993292D-12 -0.17742180D-04 -0.86802407D-18
 -0.32278384D-18  0.44219569D-12 -0.60919598D-04  0.19831004D-18 -0.17922870D-11
  0.24258806D-03 -0.94507170D-18  0.46569992D-12 -0.59829270D-04  0.35014158D-18
 -0.62909352D-17 -0.70183478D-12  0.22187013D-04 -0.71122918D-19  0.12192230D-11
 -0.96210109D-04  0.26154799D-18  0.88628136D-12  0.29649069D-04 -0.48179237D-19
  0.21837352D-17
MO    3     MO 0.0        OCC NO =    2.0000000  ORB. ENERGY =  -19.724421
 -0.86965864D-04 -0.16257763D-03 -0.28098490D-03 -0.45448047D-03 -0.68692062D-03
 -0.94600242D-03 -0.11056575D-02 -0.95537150D-03 -0.44558867D-03 -0.60501315D-04
 -0.16200761D-06 -0.31779197D-06 -0.14508531D-07  0.16141480D-03  0.30144902D-03
  0.52290997D-03  0.84788043D-03  0.13054084D-02  0.18591948D-02  0.23906832D-02
  0.25095060D-02  0.17743986D-02 -0.39294799D-04 -0.12749283D-02 -0.70201013D-03
  0.29687889D-05 -0.94455535D-04 -0.17626800D-03 -0.30615642D-03 -0.49590547D-03
 -0.76602883D-03 -0.10920892D-02 -0.14204513D-02 -0.15138182D-02 -0.11227675D-02
  0.34947582D-04  0.10171688D-02  0.99647439D-03 -0.46541264D-03  0.22888744D-03
 -0.49147982D-03 -0.10248337D-03  0.31870222D-01  0.41811995D-01  0.45861386D-01
  0.37735475D-01  0.19894889D-01  0.51757098D-02 -0.57274505D-05  0.17540888D-09
  0.23012690D-09  0.25241413D-09  0.20769034D-09  0.10949846D-09  0.28486323D-10
 -0.31523021D-13 -0.17084331D-15 -0.22413712D-15 -0.24584426D-15 -0.20228455D-15
 -0.10664842D-15 -0.27744877D-16  0.30702535D-19 -0.30441266D-01 -0.39969567D-01
 -0.44968458D-01 -0.37889326D-01 -0.21194758D-01 -0.52753321D-02  0.24195215D-02
 -0.16753568D-09 -0.21997537D-09 -0.24748712D-09 -0.20852661D-09 -0.11664686D-09
 -0.29033166D-10  0.13316009D-10 -0.12072470D-15 -0.15851227D-15 -0.17833699D-15
 -0.15026240D-15 -0.84054681D-16 -0.20921039D-16  0.95953965D-17 -0.36704905D-03
 -0.20126485D-11 -0.26926392D-16  0.18132085D-03  0.96307596D-12 -0.61781232D-18
  0.12232273D-04  0.66070645D-13  0.22275092D-20  0.30460318D-03 -0.37955645D-03
  0.74953268D-04 -0.37757673D-11  0.12048912D-18 -0.18981092D-18  0.74878719D-03
 -0.94971285D-03  0.20092566D-03 -0.93421644D-11  0.35464579D-18  0.28693370D-18
 -0.13343951D-04  0.90722493D-05  0.42717012D-05  0.12688154D-12 -0.82921238D-19
 -0.24714738D-19  0.70900630D-04  0.67725282D-12 -0.46794324D-18  0.28086933D-03
  0.68490970D-12  0.13960083D-17 -0.49357122D-03 -0.27166682D-11  0.78214347D-20
 -0.10702154D-18 -0.75255473D-05 -0.22620011D-13  0.73504583D-19  0.11875486D-04
  0.38268595D-14 -0.15161029D-18  0.10701156D-04  0.64033174D-13 -0.68903453D-19
  0.93283305D-19 -0.27402339D+00 -0.51074435D+00 -0.86605318D+00 -0.13108118D+01
 -0.16355104D+01 -0.14046854D+01 -0.53928602D+00  0.24122595D-02 -0.90914984D-04
 -0.17051331D-03 -0.29068781D-03 -0.45428846D-03 -0.60747023D-03 -0.64863658D-03
 -0.39656368D-03  0.26162863D-03 -0.27543628D-01  0.57433837D-03  0.30406606D-03
 -0.25865005D-02 -0.25080355D-02 -0.16919059D-02  0.43963989D-02  0.42630280D-02
  0.28758135D-02  0.32349955D-16  0.31368575D-16  0.21161055D-16  0.46722271D-03
 -0.75676345D-03 -0.33356299D-17  0.34529670D-03 -0.55821068D-03  0.96186184D-18
  0.69232663D-05 -0.26270473D-04  0.25059926D-19  0.34809240D-03 -0.10005548D-02
  0.65246235D-03  0.20684004D-02  0.11843572D-17 -0.21197605D-17 -0.11760753D-03
  0.38803599D-03 -0.27042846D-03 -0.76224973D-03  0.40017258D-19  0.78186121D-19
 -0.73559617D-05  0.63838841D-04 -0.56482879D-04 -0.15288486D-03  0.14053925D-18
 -0.31844295D-18  0.51364008D-04  0.65010671D-04 -0.31846753D-18 -0.10046008D-03
 -0.18788967D-03 -0.39463944D-18 -0.53631943D-04 -0.71423393D-05  0.13500420D-17
  0.31520236D-18 -0.62636305D-04 -0.65613715D-04  0.41834058D-21  0.25393813D-03
  0.33046087D-04  0.96631670D-19 -0.66029212D-04  0.16379506D-03 -0.97886692D-19
 -0.26728599D-18 -0.27402340D+00 -0.51074435D+00 -0.86605320D+00 -0.13108119D+01
 -0.16355105D+01 -0.14046854D+01 -0.53928603D+00  0.24122595D-02 -0.90914985D-04
 -0.17051331D-03 -0.29068781D-03 -0.45428846D-03 -0.60747024D-03 -0.64863658D-03
 -0.39656369D-03  0.26162864D-03 -0.27543628D-01  0.57433837D-03  0.30406607D-03
 -0.25865006D-02 -0.25080355D-02 -0.16919059D-02 -0.43963989D-02 -0.42630281D-02
 -0.28758136D-02  0.21766821D-16  0.21106495D-16  0.14238317D-16  0.46722272D-03
  0.75676346D-03 -0.26082444D-17  0.34529670D-03  0.55821069D-03  0.57895188D-18
  0.69232665D-05  0.26270473D-04  0.82303357D-20  0.34809241D-03 -0.10005548D-02
  0.65246236D-03 -0.20684004D-02  0.89321826D-18 -0.53816865D-19 -0.11760753D-03
  0.38803600D-03 -0.27042846D-03  0.76224974D-03  0.77413111D-19 -0.32871843D-18
 -0.73559619D-05  0.63838842D-04 -0.56482880D-04  0.15288486D-03  0.88734362D-19
  0.16342447D-18  0.51364009D-04 -0.65010670D-04 -0.27469995D-18 -0.10046008D-03
  0.18788967D-03  0.15003807D-18 -0.53631943D-04  0.71423386D-05  0.67406177D-18
  0.16726583D-17 -0.62636306D-04  0.65613715D-04 -0.39898314D-19  0.25393813D-03
 -0.33046086D-04  0.12532052D-18 -0.66029213D-04 -0.16379506D-03 -0.56255744D-20
  0.18820466D-18  0.31256156D+00  0.58257452D+00  0.98785336D+00  0.14951621D+01
  0.18655257D+01  0.16022378D+01  0.61513025D+00 -0.27515154D-02  0.10481206D-03
  0.19657761D-03  0.33512173D-03  0.52373004D-03  0.70032685D-03  0.74778580D-03
  0.45718158D-03 -0.30162064D-03  0.31454572D-01 -0.65162032D-03 -0.30519341D-03
 -0.59648446D-02 -0.57838928D-02 -0.39017799D-02 -0.25204076D-12 -0.24439476D-12
 -0.16486726D-12  0.64283123D-16  0.62333005D-16  0.42049477D-16  0.11065670D-02
  0.15377597D-12 -0.72060434D-17  0.83547281D-03  0.11279859D-12  0.13320955D-17
  0.29020639D-04 -0.44939721D-13  0.62817593D-19  0.18574472D-02 -0.11002429D-02
 -0.75720433D-03 -0.85920590D-12 -0.39725269D-17  0.11866291D-17 -0.73315326D-03
  0.39959148D-03  0.33356178D-03  0.37083257D-12  0.22483434D-17 -0.14019567D-19
 -0.15925284D-03  0.80009363D-04  0.79243481D-04 -0.90254778D-13 -0.49335258D-18
  0.73613314D-20 -0.83700712D-04 -0.32445908D-12 -0.50594124D-19  0.33516392D-03
  0.12755589D-11  0.20355746D-18 -0.84061782D-04 -0.30218162D-12 -0.51775090D-19
  0.16260165D-19  0.15967927D-03  0.11863122D-12  0.39814000D-19 -0.27034798D-03
 -0.50807143D-12 -0.41126358D-18 -0.20868982D-03  0.15217777D-12  0.29182158D-18
  0.55428136D-20
MO    4     MO 0.0        OCC NO =    2.0000000  ORB. ENERGY =  -19.724390
  0.30633215D-03  0.57267016D-03  0.98975284D-03  0.16008808D-02  0.24196376D-02
  0.33322380D-02  0.38946137D-02  0.33652400D-02  0.15695599D-02  0.21311233D-03
  0.57066232D-06  0.11194036D-05  0.51105448D-07 -0.56856705D-03 -0.10618232D-02
 -0.18418966D-02 -0.29865716D-02 -0.45981671D-02 -0.65488227D-02 -0.84209359D-02
 -0.88394769D-02 -0.62501365D-02  0.13841189D-03  0.44908039D-02  0.24727585D-02
 -0.10457254D-04  0.33270704D-03  0.62088056D-03  0.10783952D-02  0.17467610D-02
  0.26982345D-02  0.38467387D-02  0.50033505D-02  0.53322230D-02  0.39547989D-02
 -0.12309820D-03 -0.35828418D-02 -0.35099483D-02  0.16393540D-02 -0.80646824D-03
  0.17317545D-02  0.36109619D-03  0.90471462D-02  0.11869363D-01  0.13018882D-01
  0.10712143D-01  0.56476534D-02  0.14692525D-02 -0.16258777D-05 -0.30948593D-10
 -0.40602869D-10 -0.44535159D-10 -0.36644234D-10 -0.19319565D-10 -0.50260377D-11
  0.55618231D-14 -0.17494359D-15 -0.22951647D-15 -0.25174458D-15 -0.20713943D-15
 -0.10920801D-15 -0.28410761D-16  0.31439404D-19 -0.86414963D-02 -0.11346337D-01
 -0.12765394D-01 -0.10755810D-01 -0.60166493D-02 -0.14975318D-02  0.68684022D-03
  0.29553471D-10  0.38803888D-10  0.43656990D-10  0.36784315D-10  0.20576630D-10
  0.51214814D-11 -0.23489581D-11  0.36156818D-16  0.47474123D-16  0.53411589D-16
  0.45003302D-16  0.25174216D-16  0.62658112D-17 -0.28738029D-17 -0.10423890D-03
  0.35026835D-12  0.76277719D-17  0.51521836D-04 -0.14718864D-12 -0.18808597D-18
  0.34724428D-05 -0.10859936D-13  0.18573126D-20  0.22911160D-03  0.34971711D-04
 -0.26408332D-03  0.67289729D-12 -0.10757058D-18  0.19110295D-19  0.59488370D-03
  0.11288322D-03 -0.70776692D-03  0.16453439D-11  0.87325361D-18 -0.11786674D-18
  0.43494841D-05  0.10706524D-04 -0.15056008D-04 -0.24739004D-13 -0.19139353D-18
  0.10545475D-19  0.21994932D-03 -0.11818311D-12 -0.14962899D-18 -0.51973417D-03
 -0.12481784D-12  0.13459423D-17 -0.14011379D-03  0.47936718D-12 -0.89705529D-18
  0.37384787D-19  0.16329856D-04  0.89059515D-14  0.15402601D-19 -0.52024266D-04
 -0.12108985D-13 -0.37349572D-19  0.30346982D-05 -0.14608870D-13 -0.88582316D-20
 -0.38302035D-20  0.22102401D+00  0.41196031D+00  0.69854818D+00  0.10572852D+01
  0.13191833D+01  0.11330025D+01  0.43498168D+00 -0.19456998D-02  0.71823552D-04
  0.13470685D-03  0.22964565D-03  0.35889145D-03  0.47990625D-03  0.51242799D-03
  0.31328843D-03 -0.20668868D-03  0.22168844D-01 -0.46785185D-03 -0.29812821D-03
  0.19532655D-02  0.18940105D-02  0.12776883D-02 -0.34072218D-02 -0.33038591D-02
 -0.22287638D-02 -0.23027565D-16 -0.22328992D-16 -0.15063006D-16 -0.29327989D-03
  0.52291517D-03  0.24512191D-17 -0.20443820D-03  0.36543333D-03 -0.33114311D-18
 -0.12882421D-04  0.18264643D-04 -0.10760138D-19 -0.17990517D-03  0.68931463D-03
 -0.50940946D-03 -0.15807961D-02  0.14932207D-17  0.12526868D-17  0.55000326D-04
 -0.24129200D-03  0.18629167D-03  0.54532503D-03  0.35754249D-19 -0.55948858D-18
  0.72027593D-05 -0.33963079D-04  0.26760320D-04  0.62905558D-04  0.95446322D-19
  0.13669292D-18  0.57876641D-04  0.69634277D-05 -0.11317909D-18 -0.13213320D-03
 -0.64773074D-04  0.68265433D-19 -0.41496724D-04  0.43882791D-04  0.27127185D-18
  0.10183649D-17  0.24284547D-04  0.20114263D-04  0.51556503D-19 -0.14355055D-03