 Molden2AIM, Version 4.0.0 (06/02/2016)           Time: Thu Jun 28 03:42:58 2018
GAUSSIAN             25 MOL ORBITALS    431 PRIMITIVES        5 NUCLEI
  S    1    (CENTRE  1)   0.00000000  0.00000000  0.00000000  CHARGE = 16.0
  O    2    (CENTRE  2)  -1.67939205 -1.67939205  1.67939205  CHARGE =  8.0
  O    3    (CENTRE  3)   1.67939205  1.67939205  1.67939205  CHARGE =  8.0
  O    4    (CENTRE  4)   1.67939205 -1.67939205 -1.67939205  CHARGE =  8.0
  O    5    (CENTRE  5)  -1.67939205  1.67939205 -1.67939205  CHARGE =  8.0
CENTRE ASSIGNMENTS    1  1  1  1  1  1  1  1  1  1  1  1  1  1  1  1  1  1  1  1
CENTRE ASSIGNMENTS    1  1  1  1  1  1  1  1  1  1  1  1  1  1  1  1  1  1  1  1
CENTRE ASSIGNMENTS    1  1  1  1  1  1  1  1  1  1  1  1  1  1  1  1  1  1  1  1
CENTRE ASSIGNMENTS    1  1  1  1  1  1  1  1  1  1  1  1  1  1  1  1  1  1  1  1
CENTRE ASSIGNMENTS    1  1  1  1  1  1  1  1  1  1  1  1  1  1  1  1  1  1  1  1
CENTRE ASSIGNMENTS    1  1  1  1  1  1  1  1  1  1  1  1  1  1  1  1  1  1  1  1
CENTRE ASSIGNMENTS    1  1  1  1  1  1  1  1  1  1  1  2  2  2  2  2  2  2  2  2
CENTRE ASSIGNMENTS    2  2  2  2  2  2  2  2  2  2  2  2  2  2  2  2  2  2  2  2
CENTRE ASSIGNMENTS    2  2  2  2  2  2  2  2  2  2  2  2  2  2  2  2  2  2  2  2
CENTRE ASSIGNMENTS    2  2  2  2  2  2  2  2  2  2  2  2  2  2  2  2  2  2  2  2
CENTRE ASSIGNMENTS    2  2  2  2  2  2  3  3  3  3  3  3  3  3  3  3  3  3  3  3
CENTRE ASSIGNMENTS    3  3  3  3  3  3  3  3  3  3  3  3  3  3  3  3  3  3  3  3
CENTRE ASSIGNMENTS    3  3  3  3  3  3  3  3  3  3  3  3  3  3  3  3  3  3  3  3
CENTRE ASSIGNMENTS    3  3  3  3  3  3  3  3  3  3  3  3  3  3  3  3  3  3  3  3
CENTRE ASSIGNMENTS    3  4  4  4  4  4  4  4  4  4  4  4  4  4  4  4  4  4  4  4
CENTRE ASSIGNMENTS    4  4  4  4  4  4  4  4  4  4  4  4  4  4  4  4  4  4  4  4
CENTRE ASSIGNMENTS    4  4  4  4  4  4  4  4  4  4  4  4  4  4  4  4  4  4  4  4
CENTRE ASSIGNMENTS    4  4  4  4  4  4  4  4  4  4  4  4  4  4  4  4  5  5  5  5
CENTRE ASSIGNMENTS    5  5  5  5  5  5  5  5  5  5  5  5  5  5  5  5  5  5  5  5
CENTRE ASSIGNMENTS    5  5  5  5  5  5  5  5  5  5  5  5  5  5  5  5  5  5  5  5
CENTRE ASSIGNMENTS    5  5  5  5  5  5  5  5  5  5  5  5  5  5  5  5  5  5  5  5
CENTRE ASSIGNMENTS    5  5  5  5  5  5  5  5  5  5  5
TYPE ASSIGNMENTS      1  1  1  1  1  1  1  1  1  1  1  1  1  1  1  1  1  1  1  1
TYPE ASSIGNMENTS      1  1  1  1  1  1  1  1  1  1  1  1  1  1  1  1  1  1  1  1
TYPE ASSIGNMENTS      1  1  2  2  2  2  2  2  2  3  3  3  3  3  3  3  4  4  4  4
TYPE ASSIGNMENTS      4  4  4  2  2  2  2  2  2  2  3  3  3  3  3  3  3  4  4  4
TYPE ASSIGNMENTS      4  4  4  4  2  3  4  2  3  4  2  3  4  5  6  7  8  9 10  5
TYPE ASSIGNMENTS      6  7  8  9 10  5  6  7  8  9 10 11 12 13 17 14 15 18 19 16
TYPE ASSIGNMENTS     20 11 12 13 17 14 15 18 19 16 20  1  1  1  1  1  1  1  1  1
TYPE ASSIGNMENTS      1  1  1  1  1  1  1  1  1  1  2  2  2  3  3  3  4  4  4  2
TYPE ASSIGNMENTS      3  4  2  3  4  2  3  4  5  6  7  8  9 10  5  6  7  8  9 10
TYPE ASSIGNMENTS      5  6  7  8  9 10 11 12 13 17 14 15 18 19 16 20 11 12 13 17
TYPE ASSIGNMENTS     14 15 18 19 16 20  1  1  1  1  1  1  1  1  1  1  1  1  1  1
TYPE ASSIGNMENTS      1  1  1  1  1  2  2  2  3  3  3  4  4  4  2  3  4  2  3  4
TYPE ASSIGNMENTS      2  3  4  5  6  7  8  9 10  5  6  7  8  9 10  5  6  7  8  9
TYPE ASSIGNMENTS     10 11 12 13 17 14 15 18 19 16 20 11 12 13 17 14 15 18 19 16
TYPE ASSIGNMENTS     20  1  1  1  1  1  1  1  1  1  1  1  1  1  1  1  1  1  1  1
TYPE ASSIGNMENTS      2  2  2  3  3  3  4  4  4  2  3  4  2  3  4  2  3  4  5  6
TYPE ASSIGNMENTS      7  8  9 10  5  6  7  8  9 10  5  6  7  8  9 10 11 12 13 17
TYPE ASSIGNMENTS     14 15 18 19 16 20 11 12 13 17 14 15 18 19 16 20  1  1  1  1
TYPE ASSIGNMENTS      1  1  1  1  1  1  1  1  1  1  1  1  1  1  1  2  2  2  3  3
TYPE ASSIGNMENTS      3  4  4  4  2  3  4  2  3  4  2  3  4  5  6  7  8  9 10  5
TYPE ASSIGNMENTS      6  7  8  9 10  5  6  7  8  9 10 11 12 13 17 14 15 18 19 16
TYPE ASSIGNMENTS     20 11 12 13 17 14 15 18 19 16 20
EXPONENTS  0.3741000D+06 0.5605000D+05 0.1276000D+05 0.3615000D+04 0.1183000D+04
EXPONENTS  0.4288000D+03 0.1678000D+03 0.6947000D+02 0.2984000D+02 0.1272000D+02
EXPONENTS  0.5244000D+01 0.2219000D+01 0.3490000D+00 0.3741000D+06 0.5605000D+05
EXPONENTS  0.1276000D+05 0.3615000D+04 0.1183000D+04 0.4288000D+03 0.1678000D+03
EXPONENTS  0.6947000D+02 0.2984000D+02 0.1272000D+02 0.5244000D+01 0.2219000D+01
EXPONENTS  0.3490000D+00 0.3741000D+06 0.5605000D+05 0.1276000D+05 0.3615000D+04
EXPONENTS  0.1183000D+04 0.4288000D+03 0.1678000D+03 0.6947000D+02 0.2984000D+02
EXPONENTS  0.1272000D+02 0.5244000D+01 0.2219000D+01 0.3490000D+00 0.7767000D+00
EXPONENTS  0.1322000D+00 0.4970000D-01 0.5744000D+03 0.1358000D+03 0.4319000D+02
EXPONENTS  0.1587000D+02 0.6208000D+01 0.2483000D+01 0.3229000D+00 0.5744000D+03
EXPONENTS  0.1358000D+03 0.4319000D+02 0.1587000D+02 0.6208000D+01 0.2483000D+01
EXPONENTS  0.3229000D+00 0.5744000D+03 0.1358000D+03 0.4319000D+02 0.1587000D+02
EXPONENTS  0.6208000D+01 0.2483000D+01 0.3229000D+00 0.5744000D+03 0.1358000D+03
EXPONENTS  0.4319000D+02 0.1587000D+02 0.6208000D+01 0.2483000D+01 0.3229000D+00
EXPONENTS  0.5744000D+03 0.1358000D+03 0.4319000D+02 0.1587000D+02 0.6208000D+01
EXPONENTS  0.2483000D+01 0.3229000D+00 0.5744000D+03 0.1358000D+03 0.4319000D+02
EXPONENTS  0.1587000D+02 0.6208000D+01 0.2483000D+01 0.3229000D+00 0.8688000D+00
EXPONENTS  0.8688000D+00 0.8688000D+00 0.1098000D+00 0.1098000D+00 0.1098000D+00
EXPONENTS  0.3510000D-01 0.3510000D-01 0.3510000D-01 0.2690000D+00 0.2690000D+00
EXPONENTS  0.2690000D+00 0.2690000D+00 0.2690000D+00 0.2690000D+00 0.8190000D+00
EXPONENTS  0.8190000D+00 0.8190000D+00 0.8190000D+00 0.8190000D+00 0.8190000D+00
EXPONENTS  0.1010000D+00 0.1010000D+00 0.1010000D+00 0.1010000D+00 0.1010000D+00
EXPONENTS  0.1010000D+00 0.5570000D+00 0.5570000D+00 0.5570000D+00 0.5570000D+00
EXPONENTS  0.5570000D+00 0.5570000D+00 0.5570000D+00 0.5570000D+00 0.5570000D+00
EXPONENTS  0.5570000D+00 0.2180000D+00 0.2180000D+00 0.2180000D+00 0.2180000D+00
EXPONENTS  0.2180000D+00 0.2180000D+00 0.2180000D+00 0.2180000D+00 0.2180000D+00
EXPONENTS  0.2180000D+00 0.1533000D+05 0.2299000D+04 0.5224000D+03 0.1473000D+03
EXPONENTS  0.4755000D+02 0.1676000D+02 0.6207000D+01 0.6882000D+00 0.1533000D+05
EXPONENTS  0.2299000D+04 0.5224000D+03 0.1473000D+03 0.4755000D+02 0.1676000D+02
EXPONENTS  0.6207000D+01 0.6882000D+00 0.1752000D+01 0.2384000D+00 0.7376000D-01
EXPONENTS  0.3446000D+02 0.7749000D+01 0.2280000D+01 0.3446000D+02 0.7749000D+01
EXPONENTS  0.2280000D+01 0.3446000D+02 0.7749000D+01 0.2280000D+01 0.7156000D+00
EXPONENTS  0.7156000D+00 0.7156000D+00 0.2140000D+00 0.2140000D+00 0.2140000D+00
EXPONENTS  0.5974000D-01 0.5974000D-01 0.5974000D-01 0.2314000D+01 0.2314000D+01
EXPONENTS  0.2314000D+01 0.2314000D+01 0.2314000D+01 0.2314000D+01 0.6450000D+00
EXPONENTS  0.6450000D+00 0.6450000D+00 0.6450000D+00 0.6450000D+00 0.6450000D+00
EXPONENTS  0.2140000D+00 0.2140000D+00 0.2140000D+00 0.2140000D+00 0.2140000D+00
EXPONENTS  0.2140000D+00 0.1428000D+01 0.1428000D+01 0.1428000D+01 0.1428000D+01
EXPONENTS  0.1428000D+01 0.1428000D+01 0.1428000D+01 0.1428000D+01 0.1428000D+01
EXPONENTS  0.1428000D+01 0.5000000D+00 0.5000000D+00 0.5000000D+00 0.5000000D+00
EXPONENTS  0.5000000D+00 0.5000000D+00 0.5000000D+00 0.5000000D+00 0.5000000D+00
EXPONENTS  0.5000000D+00 0.1533000D+05 0.2299000D+04 0.5224000D+03 0.1473000D+03
EXPONENTS  0.4755000D+02 0.1676000D+02 0.6207000D+01 0.6882000D+00 0.1533000D+05
EXPONENTS  0.2299000D+04 0.5224000D+03 0.1473000D+03 0.4755000D+02 0.1676000D+02
EXPONENTS  0.6207000D+01 0.6882000D+00 0.1752000D+01 0.2384000D+00 0.7376000D-01
EXPONENTS  0.3446000D+02 0.7749000D+01 0.2280000D+01 0.3446000D+02 0.7749000D+01
EXPONENTS  0.2280000D+01 0.3446000D+02 0.7749000D+01 0.2280000D+01 0.7156000D+00
EXPONENTS  0.7156000D+00 0.7156000D+00 0.2140000D+00 0.2140000D+00 0.2140000D+00
EXPONENTS  0.5974000D-01 0.5974000D-01 0.5974000D-01 0.2314000D+01 0.2314000D+01
EXPONENTS  0.2314000D+01 0.2314000D+01 0.2314000D+01 0.2314000D+01 0.6450000D+00
EXPONENTS  0.6450000D+00 0.6450000D+00 0.6450000D+00 0.6450000D+00 0.6450000D+00
EXPONENTS  0.2140000D+00 0.2140000D+00 0.2140000D+00 0.2140000D+00 0.2140000D+00
EXPONENTS  0.2140000D+00 0.1428000D+01 0.1428000D+01 0.1428000D+01 0.1428000D+01
EXPONENTS  0.1428000D+01 0.1428000D+01 0.1428000D+01 0.1428000D+01 0.1428000D+01
EXPONENTS  0.1428000D+01 0.5000000D+00 0.5000000D+00 0.5000000D+00 0.5000000D+00
EXPONENTS  0.5000000D+00 0.5000000D+00 0.5000000D+00 0.5000000D+00 0.5000000D+00
EXPONENTS  0.5000000D+00 0.1533000D+05 0.2299000D+04 0.5224000D+03 0.1473000D+03
EXPONENTS  0.4755000D+02 0.1676000D+02 0.6207000D+01 0.6882000D+00 0.1533000D+05
EXPONENTS  0.2299000D+04 0.5224000D+03 0.1473000D+03 0.4755000D+02 0.1676000D+02
EXPONENTS  0.6207000D+01 0.6882000D+00 0.1752000D+01 0.2384000D+00 0.7376000D-01
EXPONENTS  0.3446000D+02 0.7749000D+01 0.2280000D+01 0.3446000D+02 0.7749000D+01
EXPONENTS  0.2280000D+01 0.3446000D+02 0.7749000D+01 0.2280000D+01 0.7156000D+00
EXPONENTS  0.7156000D+00 0.7156000D+00 0.2140000D+00 0.2140000D+00 0.2140000D+00
EXPONENTS  0.5974000D-01 0.5974000D-01 0.5974000D-01 0.2314000D+01 0.2314000D+01
EXPONENTS  0.2314000D+01 0.2314000D+01 0.2314000D+01 0.2314000D+01 0.6450000D+00
EXPONENTS  0.6450000D+00 0.6450000D+00 0.6450000D+00 0.6450000D+00 0.6450000D+00
EXPONENTS  0.2140000D+00 0.2140000D+00 0.2140000D+00 0.2140000D+00 0.2140000D+00
EXPONENTS  0.2140000D+00 0.1428000D+01 0.1428000D+01 0.1428000D+01 0.1428000D+01
EXPONENTS  0.1428000D+01 0.1428000D+01 0.1428000D+01 0.1428000D+01 0.1428000D+01
EXPONENTS  0.1428000D+01 0.5000000D+00 0.5000000D+00 0.5000000D+00 0.5000000D+00
EXPONENTS  0.5000000D+00 0.5000000D+00 0.5000000D+00 0.5000000D+00 0.5000000D+00
EXPONENTS  0.5000000D+00 0.1533000D+05 0.2299000D+04 0.5224000D+03 0.1473000D+03
EXPONENTS  0.4755000D+02 0.1676000D+02 0.6207000D+01 0.6882000D+00 0.1533000D+05
EXPONENTS  0.2299000D+04 0.5224000D+03 0.1473000D+03 0.4755000D+02 0.1676000D+02
EXPONENTS  0.6207000D+01 0.6882000D+00 0.1752000D+01 0.2384000D+00 0.7376000D-01
EXPONENTS  0.3446000D+02 0.7749000D+01 0.2280000D+01 0.3446000D+02 0.7749000D+01
EXPONENTS  0.2280000D+01 0.3446000D+02 0.7749000D+01 0.2280000D+01 0.7156000D+00
EXPONENTS  0.7156000D+00 0.7156000D+00 0.2140000D+00 0.2140000D+00 0.2140000D+00
EXPONENTS  0.5974000D-01 0.5974000D-01 0.5974000D-01 0.2314000D+01 0.2314000D+01
EXPONENTS  0.2314000D+01 0.2314000D+01 0.2314000D+01 0.2314000D+01 0.6450000D+00
EXPONENTS  0.6450000D+00 0.6450000D+00 0.6450000D+00 0.6450000D+00 0.6450000D+00
EXPONENTS  0.2140000D+00 0.2140000D+00 0.2140000D+00 0.2140000D+00 0.2140000D+00
EXPONENTS  0.2140000D+00 0.1428000D+01 0.1428000D+01 0.1428000D+01 0.1428000D+01
EXPONENTS  0.1428000D+01 0.1428000D+01 0.1428000D+01 0.1428000D+01 0.1428000D+01
EXPONENTS  0.1428000D+01 0.5000000D+00 0.5000000D+00 0.5000000D+00 0.5000000D+00
EXPONENTS  0.5000000D+00 0.5000000D+00 0.5000000D+00 0.5000000D+00 0.5000000D+00
EXPONENTS  0.5000000D+00
MO    1     MO 0.0        OCC NO =    2.0000000  ORB. ENERGY =  -89.760098
  0.58567982D+00  0.10948944D+01  0.18923194D+01  0.30607417D+01  0.46261318D+01
  0.63709426D+01  0.74461548D+01  0.64340395D+01  0.30008589D+01  0.40745182D+00
  0.10910556D-02  0.21402000D-02  0.97709070D-04 -0.21675585D-02 -0.40480079D-02
 -0.70218961D-02 -0.11385762D-01 -0.17529676D-01 -0.24966197D-01 -0.32103288D-01
 -0.33698899D-01 -0.23827510D-01  0.52767018D-03  0.17120374D-01  0.94269424D-02
 -0.39866380D-04  0.10773356D-02  0.20104676D-02  0.34919416D-02  0.56561705D-02
  0.87371282D-02  0.12456089D-01  0.16201303D-01  0.17266222D-01  0.12805998D-01
 -0.39860315D-03 -0.11601567D-01 -0.11365531D-01  0.53083771D-02 -0.33496784D-02
 -0.22214714D-02 -0.13838412D-03 -0.16008591D-13 -0.21002400D-13 -0.23036432D-13
 -0.18954741D-13 -0.99933143D-14 -0.25997881D-14  0.28769305D-17 -0.56777344D-14
 -0.74488784D-14 -0.81702842D-14 -0.67226393D-14 -0.35443084D-14 -0.92206153D-15
  0.10203551D-17 -0.80110577D-14 -0.10510072D-13 -0.11527947D-13 -0.94853771D-14
 -0.50008784D-14 -0.13009922D-14  0.14396805D-17  0.14423196D-13  0.18937744D-13
  0.21306239D-13  0.17952117D-13  0.10042163D-13  0.24994738D-14 -0.11463791D-14
  0.51811793D-14  0.68029199D-14  0.76537436D-14  0.64488577D-14  0.36074006D-14
  0.89787466D-15 -0.41180858D-15  0.68981338D-14  0.90572917D-14  0.10190064D-13
  0.85858992D-14  0.48028317D-14  0.11954150D-14 -0.54827493D-15  0.50738626D-15
  0.14533652D-15  0.60589370D-15 -0.10026795D-15  0.11117833D-16 -0.94939379D-15
  0.52123669D-17  0.44821586D-17 -0.78969957D-17  0.16306598D-15 -0.29288892D-15
  0.12982294D-15 -0.10847382D-14 -0.35655212D-15 -0.99555575D-15 -0.74920424D-16
  0.15427735D-15 -0.79356929D-16  0.51365397D-15 -0.87918596D-16 -0.64325649D-16
  0.26536461D-16 -0.45471801D-16  0.18935340D-16 -0.22361993D-15 -0.89254826D-17
 -0.48851038D-16  0.12451624D-15  0.51386439D-16  0.11081586D-15 -0.17547874D-15
 -0.75502208D-16 -0.13667032D-15 -0.19806998D-15 -0.78657108D-16 -0.19577727D-15
  0.14863165D-02  0.66489020D-16  0.19818881D-16  0.48833740D-16  0.33450137D-16
 -0.47189740D-16  0.19883084D-16 -0.23291720D-15 -0.12266902D-16 -0.16638430D-15
 -0.51640146D-03  0.41071196D-05  0.76551426D-05  0.12980585D-04  0.19646721D-04
  0.24513371D-04  0.21053716D-04  0.80829311D-05 -0.36155447D-07 -0.88671965D-05
 -0.16630647D-04 -0.28351607D-04 -0.44308043D-04 -0.59248296D-04 -0.63263367D-04
 -0.38677982D-04  0.25517384D-04  0.15398677D-03  0.64836800D-03  0.73060548D-04
  0.19147347D-03  0.18566486D-03  0.12524841D-03  0.19147347D-03  0.18566486D-03
  0.12524841D-03 -0.19147347D-03 -0.18566486D-03 -0.12524841D-03 -0.77839067D-04
 -0.77839067D-04  0.77839067D-04 -0.18798555D-04 -0.18798555D-04  0.18798555D-04
 -0.87410559D-06 -0.87410559D-06  0.87410559D-06 -0.18376212D-16  0.39216606D-15
 -0.37378985D-15  0.56212676D-03 -0.56212676D-03 -0.56212676D-03 -0.66271811D-17
 -0.16919252D-15  0.17581970D-15 -0.39959620D-03  0.39959620D-03  0.39959620D-03
  0.13560157D-16 -0.14123369D-15  0.12767353D-15 -0.98687276D-04  0.98687276D-04
  0.98687276D-04  0.23558475D-04  0.23558475D-04 -0.23558475D-04 -0.35337713D-04
 -0.35337713D-04  0.35337713D-04 -0.35337713D-04 -0.35337713D-04  0.35337713D-04
 -0.73377115D-03  0.46378590D-04  0.46378590D-04 -0.46378590D-04 -0.69567885D-04
 -0.69567885D-04  0.69567885D-04 -0.69567885D-04 -0.69567885D-04  0.69567885D-04
  0.61961494D-03  0.41071196D-05  0.76551426D-05  0.12980585D-04  0.19646721D-04
  0.24513371D-04  0.21053716D-04  0.80829311D-05 -0.36155447D-07 -0.88671965D-05
 -0.16630647D-04 -0.28351607D-04 -0.44308043D-04 -0.59248296D-04 -0.63263367D-04
 -0.38677982D-04  0.25517384D-04  0.15398677D-03  0.64836800D-03  0.73060548D-04
 -0.19147347D-03 -0.18566486D-03 -0.12524841D-03 -0.19147347D-03 -0.18566486D-03
 -0.12524841D-03 -0.19147347D-03 -0.18566486D-03 -0.12524841D-03  0.77839067D-04
  0.77839067D-04  0.77839067D-04  0.18798555D-04  0.18798555D-04  0.18798555D-04
  0.87410559D-06  0.87410559D-06  0.87410559D-06 -0.17746681D-15  0.21813363D-15
 -0.40666823D-16  0.56212676D-03  0.56212676D-03  0.56212676D-03  0.82007873D-16
 -0.98495906D-16  0.16488033D-16 -0.39959620D-03 -0.39959620D-03 -0.39959620D-03
  0.71732879D-16 -0.46855247D-16 -0.24877632D-16 -0.98687276D-04 -0.98687276D-04
 -0.98687276D-04 -0.23558475D-04 -0.23558475D-04 -0.23558475D-04  0.35337713D-04
  0.35337713D-04  0.35337713D-04  0.35337713D-04  0.35337713D-04  0.35337713D-04
 -0.73377115D-03 -0.46378590D-04 -0.46378590D-04 -0.46378590D-04  0.69567885D-04
  0.69567885D-04  0.69567885D-04  0.69567885D-04  0.69567885D-04  0.69567885D-04
  0.61961494D-03  0.41071196D-05  0.76551426D-05  0.12980585D-04  0.19646721D-04
  0.24513371D-04  0.21053716D-04  0.80829311D-05 -0.36155447D-07 -0.88671965D-05
 -0.16630647D-04 -0.28351607D-04 -0.44308043D-04 -0.59248296D-04 -0.63263367D-04
 -0.38677982D-04  0.25517384D-04  0.15398677D-03  0.64836800D-03  0.73060548D-04
 -0.19147347D-03 -0.18566486D-03 -0.12524841D-03  0.19147347D-03  0.18566486D-03
  0.12524841D-03  0.19147347D-03  0.18566486D-03  0.12524841D-03  0.77839067D-04
 -0.77839067D-04 -0.77839067D-04  0.18798555D-04 -0.18798555D-04 -0.18798555D-04
  0.87410559D-06 -0.87410559D-06 -0.87410559D-06 -0.20259228D-15  0.66867037D-16
  0.13572525D-15 -0.56212676D-03 -0.56212676D-03  0.56212676D-03  0.11196973D-15
 -0.22194443D-16 -0.89775290D-16  0.39959620D-03  0.39959620D-03 -0.39959620D-03
  0.67479917D-16  0.23117105D-16 -0.90597022D-16  0.98687276D-04  0.98687276D-04
 -0.98687276D-04 -0.23558475D-04  0.23558475D-04  0.23558475D-04  0.35337713D-04
 -0.35337713D-04 -0.35337713D-04  0.35337713D-04 -0.35337713D-04 -0.35337713D-04
 -0.73377115D-03 -0.46378590D-04  0.46378590D-04  0.46378590D-04  0.69567885D-04
 -0.69567885D-04 -0.69567885D-04  0.69567885D-04 -0.69567885D-04 -0.69567885D-04
  0.61961494D-03  0.41071196D-05  0.76551426D-05  0.12980585D-04  0.19646721D-04
  0.24513371D-04  0.21053716D-04  0.80829311D-05 -0.36155447D-07 -0.88671965D-05
 -0.16630647D-04 -0.28351607D-04 -0.44308043D-04 -0.59248296D-04 -0.63263367D-04
 -0.38677982D-04  0.25517384D-04  0.15398677D-03  0.64836800D-03  0.73060548D-04
  0.19147347D-03  0.18566486D-03  0.12524841D-03 -0.19147347D-03 -0.18566486D-03
 -0.12524841D-03  0.19147347D-03  0.18566486D-03  0.12524841D-03 -0.77839067D-04
  0.77839067D-04 -0.77839067D-04 -0.18798555D-04  0.18798555D-04 -0.18798555D-04
 -0.87410559D-06  0.87410559D-06 -0.87410559D-06  0.10667769D-15  0.76544207D-16
 -0.18322190D-15 -0.56212676D-03  0.56212676D-03 -0.56212676D-03 -0.33767052D-16
 -0.13077764D-16  0.46844815D-16  0.39959620D-03 -0.39959620D-03  0.39959620D-03
 -0.64604972D-16  0.18542814D-16  0.46062158D-16  0.98687276D-04 -0.98687276D-04
  0.98687276D-04  0.23558475D-04 -0.23558475D-04  0.23558475D-04 -0.35337713D-04
  0.35337713D-04 -0.35337713D-04 -0.35337713D-04  0.35337713D-04 -0.35337713D-04
 -0.73377115D-03  0.46378590D-04 -0.46378590D-04  0.46378590D-04 -0.69567885D-04
  0.69567885D-04 -0.69567885D-04 -0.69567885D-04  0.69567885D-04 -0.69567885D-04
  0.61961494D-03
MO    2     MO 0.0        OCC NO =    2.0000000  ORB. ENERGY =  -19.202156
  0.30480032D-11  0.56980649D-11  0.98480351D-11  0.15928755D-10  0.24075380D-10
  0.33155749D-10  0.38751384D-10  0.33484119D-10  0.15617113D-10  0.21204665D-11
  0.56780868D-14  0.11138059D-13  0.50849892D-15 -0.53426598D-11 -0.99776448D-11
 -0.17307769D-10 -0.28063949D-10 -0.43207644D-10 -0.61537390D-10 -0.79129095D-10
 -0.83062003D-10 -0.58730722D-10  0.13006164D-11  0.42198783D-10  0.23235795D-10
 -0.98263784D-13  0.29448670D-11  0.54955574D-11  0.95451255D-11  0.15460985D-10
  0.23882698D-10  0.34048374D-10  0.44285813D-10  0.47196739D-10  0.35004840D-10
 -0.10895707D-11 -0.31712561D-10 -0.31067364D-10  0.14510302D-10 -0.16165347D-10
  0.35783576D-10  0.76016673D-11 -0.10180048D-01 -0.13355668D-01 -0.14649132D-01
 -0.12053538D-01 -0.63548637D-02 -0.16532352D-02  0.18294733D-05  0.16578879D-01
  0.21750587D-01  0.23857079D-01  0.19629983D-01  0.10349315D-01  0.26924026D-02
 -0.29794180D-05 -0.18496366D-01 -0.24266225D-01 -0.26616350D-01 -0.21900355D-01
 -0.11546300D-01 -0.30038015D-02  0.33240127D-05  0.95631244D-02  0.12556441D-01
  0.14126842D-01  0.11902933D-01  0.66583337D-02  0.16572457D-02 -0.76009273D-03
 -0.15574179D-01 -0.20448992D-01 -0.23006495D-01 -0.19384712D-01 -0.10843536D-01
 -0.26989340D-02  0.12378612D-02  0.17375464D-01  0.22814090D-01  0.25667389D-01
  0.21626716D-01  0.12097682D-01  0.30110883D-02 -0.13810302D-02  0.29256319D-03
 -0.47645846D-03  0.53156487D-03 -0.11101192D-03  0.18079025D-03 -0.20170015D-03
 -0.12075331D-05  0.19665474D-05 -0.21939950D-05  0.10052534D-15  0.16075220D-15
 -0.26127754D-15 -0.64709043D-03  0.58000768D-03 -0.35614625D-03 -0.61450424D-16
 -0.81507842D-16  0.14295827D-15 -0.86250829D-03  0.77309354D-03 -0.47470814D-03
  0.22190632D-15  0.24517705D-15 -0.46708337D-15 -0.18394680D-04  0.16487735D-04
 -0.10124081D-04  0.74323271D-04 -0.12104035D-03  0.13503968D-03 -0.11148491D-03
  0.18156053D-03 -0.20255953D-03 -0.11148491D-03  0.18156053D-03 -0.20255953D-03
  0.16535589D-10  0.78902999D-05 -0.12849874D-04  0.14336070D-04 -0.11835450D-04
  0.19274811D-04 -0.21504105D-04 -0.11835450D-04  0.19274811D-04 -0.21504105D-04
  0.24452605D-11 -0.23087639D+00 -0.43032389D+00 -0.72968674D+00 -0.11044149D+01
 -0.13779873D+01 -0.11835073D+01 -0.45437147D+00  0.20324315D-02 -0.66171341D-04
 -0.12410599D-03 -0.21157351D-03 -0.33064821D-03 -0.44213965D-03 -0.47210207D-03
 -0.28863395D-03  0.19042315D-03 -0.23174032D-01  0.48961892D-03  0.29324102D-03
 -0.18794879D-02 -0.18224711D-02 -0.12294282D-02 -0.19397891D-02 -0.18809429D-02
 -0.12688730D-02  0.19441101D-02  0.18851329D-02  0.12716995D-02  0.33483513D-03
  0.37332808D-03 -0.37608640D-03  0.26281926D-03  0.32712548D-03 -0.33173352D-03
  0.13457181D-04  0.21035777D-04 -0.21578843D-04  0.17928660D-04 -0.80341120D-05
 -0.98945477D-05 -0.12384474D-02  0.12301626D-02  0.11145460D-02 -0.25166453D-04
  0.11277480D-04  0.13888973D-04  0.44323271D-03 -0.44265802D-03 -0.43463809D-03
 -0.12939752D-04  0.57985049D-05  0.71412476D-05  0.82893302D-04 -0.84292703D-04
 -0.10382164D-03  0.53029204D-04  0.80519490D-05 -0.48289768D-05 -0.86910191D-04
 -0.12224377D-03  0.11004293D-03 -0.72177420D-04  0.98087926D-04 -0.95555998D-04
  0.26065855D-03 -0.45489749D-04 -0.30349295D-04  0.29264363D-04  0.69716735D-04
  0.67689235D-04 -0.64579726D-04  0.66752512D-04  0.23358651D-04 -0.23213365D-04
 -0.29109429D-03 -0.11219172D+00 -0.20911093D+00 -0.35458285D+00 -0.53667765D+00
 -0.66961702D+00 -0.57511171D+00 -0.22079657D+00  0.98763661D-03 -0.32155199D-04
 -0.60307873D-04 -0.10281170D-03 -0.16067468D-03 -0.21485266D-03 -0.22941255D-03
 -0.14025834D-03  0.92533931D-04 -0.11261153D-01  0.23792466D-03  0.14249709D-03
  0.94740393D-03  0.91866313D-03  0.61972472D-03  0.88710280D-03  0.86019131D-03
  0.58027998D-03  0.96614472D-03  0.93683539D-03  0.63198362D-03 -0.18446948D-03
 -0.14597652D-03 -0.19643258D-03 -0.16406654D-03 -0.99760315D-04 -0.18405205D-03
 -0.10823571D-04 -0.32449755D-05 -0.13178898D-04 -0.59646293D-05  0.19998142D-04
 -0.14033513D-04 -0.64289137D-03 -0.49134264D-03 -0.60695926D-03  0.83725480D-05
 -0.28071385D-04  0.19698837D-04  0.21823354D-03  0.20772113D-03  0.21574106D-03
  0.43048855D-05 -0.14433372D-04  0.10128486D-04  0.33341810D-04  0.58940085D-04
  0.39411144D-04 -0.34311478D-06 -0.45320369D-04  0.13635217D-04  0.13526284D-03
  0.99929259D-04 -0.12325229D-03 -0.13423350D-03  0.36031850D-04  0.82346638D-04
  0.12666402D-03  0.13546262D-04  0.28686716D-04  0.88408104D-05 -0.47430631D-04
 -0.49458131D-04  0.74219650D-05  0.67918450D-05 -0.36602016D-04 -0.33944396D-04
 -0.14145391D-03 -0.76626436D-01 -0.14282182D+00 -0.24217848D+00 -0.36654841D+00
 -0.45734540D+00 -0.39279870D+00 -0.15080306D+00  0.67455134D-03 -0.21961856D-04
 -0.41190006D-04 -0.70219930D-04 -0.10974008D-03 -0.14674340D-03 -0.15668774D-03
 -0.95795811D-04  0.63200258D-04 -0.76913168D-02  0.16250146D-03  0.97324867D-04
  0.65434491D-03  0.63449445D-03  0.42802621D-03 -0.66876465D-03 -0.64847675D-03
 -0.43745859D-03 -0.58972273D-03 -0.57183267D-03 -0.38575494D-03 -0.13063406D-03
  0.13983884D-03  0.89382786D-04 -0.11981202D-03  0.13518949D-03  0.50897755D-04
 -0.83064273D-05  0.10118688D-04  0.18476595D-06 -0.72049198D-05 -0.13413368D-04
  0.20618288D-04  0.30459232D-03  0.45614105D-03 -0.42849377D-03  0.10113543D-04
  0.18828340D-04 -0.28941883D-04 -0.13972275D-03 -0.15023516D-03  0.14831737D-03
  0.52000473D-05  0.96809055D-05 -0.14880953D-04 -0.45490789D-04 -0.19892514D-04
  0.24562447D-04  0.51899016D-05 -0.15945261D-04  0.43010325D-04 -0.14253302D-03
  0.13408374D-03 -0.89097807D-04  0.12696332D-03 -0.86247957D-04 -0.39933169D-04
  0.86510954D-04  0.74261001D-05 -0.38055806D-05 -0.23651486D-04  0.15972088D-04
 -0.16456921D-04  0.40423174D-04 -0.38250388D-04  0.27873663D-04  0.30531283D-04
 -0.96612382D-04  0.41969456D+00  0.78225666D+00  0.13264481D+01  0.20076410D+01
  0.25049498D+01  0.21514178D+01  0.82597112D+00 -0.36946195D-02  0.12028840D-03
  0.22560387D-03  0.38460514D-03  0.60106298D-03  0.80373573D-03  0.85820237D-03
  0.52468810D-03 -0.34615734D-03  0.42126503D-01 -0.89004508D-03 -0.53306300D-03
  0.34812369D-02  0.33756288D-02  0.22771792D-02 -0.34956566D-02 -0.33896111D-02
 -0.22866116D-02  0.34999777D-02  0.33938010D-02  0.22894381D-02 -0.64993869D-03
  0.65914346D-03 -0.66190178D-03 -0.54669783D-03  0.56207530D-03 -0.56668335D-03
 -0.32587181D-04  0.34399442D-04 -0.34942507D-04 -0.47591106D-05  0.14493375D-05
  0.33097731D-05 -0.21859312D-02  0.21776463D-02 -0.21499991D-02  0.66803619D-05
 -0.20344345D-05 -0.46459274D-05  0.80118902D-03 -0.80061433D-03  0.79869654D-03
  0.34348197D-05 -0.10460385D-05 -0.23887812D-05  0.16172590D-03 -0.16312531D-03
  0.16779524D-03 -0.48182416D-04  0.37427057D-04 -0.34204084D-04  0.79640010D-04
 -0.88089289D-04  0.75888445D-04  0.64907239D-04 -0.24191880D-04  0.26723808D-04
 -0.47383351D-03  0.66462113D-04 -0.62841593D-04  0.61756661D-04 -0.10117528D-03
  0.10069045D-03 -0.97580937D-04 -0.98211057D-04  0.87834333D-04 -0.87689046D-04
  0.52916058D-03
MO    3     MO 0.0        OCC NO =    2.0000000  ORB. ENERGY =  -19.202156
  0.22774903D-11  0.42576359D-11  0.73585241D-11  0.11902083D-10  0.17989301D-10
  0.24774219D-10  0.28955318D-10  0.25019580D-10  0.11669221D-10  0.15844281D-11
  0.42427081D-14  0.83224394D-14  0.37995412D-15 -0.39941515D-11 -0.74592480D-11
 -0.12939220D-10 -0.20980498D-10 -0.32301864D-10 -0.46005111D-10 -0.59156600D-10
 -0.62096827D-10 -0.43906857D-10  0.97233573D-12  0.31547644D-10  0.17370989D-10
 -0.73461618D-13  0.22025686D-11  0.41103189D-11  0.71391320D-11  0.11563810D-10
  0.17862702D-10  0.25465966D-10  0.33122903D-10  0.35300086D-10  0.26181339D-10
 -0.81492788D-12 -0.23718930D-10 -0.23236365D-10  0.10852760D-10 -0.11988409D-10
  0.26300609D-10  0.55535758D-11 -0.23512688D-01 -0.30847366D-01 -0.33834859D-01
 -0.27839858D-01 -0.14677724D-01 -0.38184500D-02  0.42255043D-05 -0.12876471D-01
 -0.16893228D-01 -0.18529296D-01 -0.15246199D-01 -0.80380975D-02 -0.20911331D-02
  0.23140519D-05  0.13993469D-02  0.18358669D-02  0.20136662D-02  0.16568765D-02
  0.87353804D-03  0.22725331D-03 -0.25147896D-06  0.22087791D-01  0.29001404D-01
  0.32628535D-01  0.27492007D-01  0.15378643D-01  0.38277130D-02 -0.17555736D-02
  0.12096141D-01  0.15882307D-01  0.17868666D-01  0.15055702D-01  0.84219486D-02
  0.20962058D-02 -0.96142100D-03 -0.13145448D-02 -0.17260053D-02 -0.19418723D-02
 -0.16361743D-02 -0.91525294D-03 -0.22780459D-03  0.10448216D-03  0.67572836D-03
  0.37005536D-03 -0.40215665D-04 -0.25640241D-03 -0.14041602D-03  0.15259672D-04
 -0.27890193D-05 -0.15273764D-05  0.16598721D-06 -0.98859166D-15 -0.78773242D-15
  0.17763241D-14  0.48955778D-04 -0.45047989D-03 -0.82258512D-03  0.61413656D-15
  0.55134137D-15 -0.11654779D-14  0.65253267D-04 -0.60044566D-03 -0.10964256D-02
 -0.16049163D-15 -0.14220859D-15  0.30270022D-15  0.13916538D-05 -0.12805680D-04
 -0.23383424D-04  0.17166323D-03  0.94009522D-04 -0.10216459D-04 -0.25749485D-03
 -0.14101428D-03  0.15324688D-04 -0.25749485D-03 -0.14101428D-03  0.15324688D-04
  0.12276460D-10  0.18224096D-04  0.99802298D-05 -0.10845987D-05 -0.27336143D-04
 -0.14970345D-04  0.16268981D-05 -0.27336143D-04 -0.14970345D-04  0.16268981D-05
  0.17929250D-11  0.35044807D+00  0.65319012D+00  0.11075940D+01  0.16763951D+01
  0.20916517D+01  0.17964498D+01  0.68969202D+00 -0.30850347D-02  0.10044171D-03
  0.18838091D-03  0.32114815D-03  0.50189205D-03  0.67112530D-03  0.71660535D-03
  0.43811846D-03 -0.28904395D-03  0.35175943D-01 -0.74319424D-03 -0.44511156D-03
  0.29406887D-02  0.28514789D-02  0.19235908D-02  0.29167201D-02  0.28282373D-02
  0.19079122D-02 -0.28908564D-02 -0.28031583D-02 -0.18909940D-02 -0.56429891D-03
 -0.54899862D-03  0.53248868D-03 -0.49257377D-03 -0.46701315D-03  0.43943168D-03
 -0.31462276D-04 -0.28449913D-04  0.25199391D-04  0.10591722D-04  0.27196226D-06
 -0.10863684D-04  0.17645838D-02 -0.18141727D-02 -0.18601283D-02 -0.14867596D-04
 -0.38175330D-06  0.15249349D-04 -0.66478927D-03  0.66822908D-03  0.67141687D-03
 -0.76444229D-05 -0.19628485D-06  0.78407077D-05 -0.14529270D-03  0.13691658D-03
  0.12915416D-03 -0.14999570D-04 -0.32877263D-04  0.52168377D-04 -0.21592179D-04
 -0.35636675D-04 -0.37391530D-04  0.66590890D-04  0.13426846D-03 -0.11911360D-03
 -0.39565449D-03  0.47002272D-04  0.53020344D-04 -0.59514209D-04 -0.61632221D-04
 -0.62438118D-04  0.81050102D-04 -0.79374593D-04 -0.96622914D-04  0.97492525D-04
  0.44185301D-03 -0.32449317D+00 -0.60481352D+00 -0.10255633D+01 -0.15522379D+01
 -0.19367396D+01 -0.16634011D+01 -0.63861201D+00  0.28565507D-02 -0.93002787D-04
 -0.17442903D-03 -0.29736326D-03 -0.46472089D-03 -0.62142038D-03 -0.66353209D-03
 -0.40567051D-03  0.26763676D-03 -0.32570740D-01  0.68815175D-03  0.41214568D-03
  0.27268195D-02  0.26440977D-02  0.17836927D-02  0.27028509D-02  0.26208561D-02
  0.17680141D-02  0.26706804D-02  0.25896616D-02  0.17469704D-02 -0.52501080D-03
 -0.50971050D-03 -0.48917461D-03 -0.46027762D-03 -0.43471699D-03 -0.40040979D-03
 -0.29625309D-04 -0.26612947D-04 -0.22569786D-04 -0.11496863D-04 -0.11771038D-05
  0.12673967D-04 -0.16222506D-02 -0.16839318D-02 -0.17298874D-02  0.16138143D-04
  0.16523001D-05 -0.17790443D-04  0.61474588D-03  0.61902449D-03  0.62221227D-03
  0.82976957D-05  0.84955773D-06 -0.91472535D-05  0.13649891D-03  0.12608027D-03
  0.11831785D-03 -0.10961675D-04 -0.28839368D-04 -0.52834615D-04 -0.38400731D-04
 -0.52445228D-04  0.38390887D-04  0.71285757D-04  0.13896333D-03  0.12011296D-03
  0.36635152D-03  0.42535888D-04  0.48553960D-04  0.56631352D-04 -0.52769409D-04
 -0.53575306D-04 -0.76725817D-04 -0.74838254D-04 -0.92086574D-04 -0.93168241D-04
 -0.40912848D-03 -0.11161702D+00 -0.20803976D+00 -0.35276650D+00 -0.53392853D+00
 -0.66618691D+00 -0.57216571D+00 -0.21966554D+00  0.98257744D-03 -0.31990485D-04