 Molden2AIM, Version 4.0.0 (06/02/2016)           Time: Wed Jun 27 19:35:46 2018
GAUSSIAN             11 MOL ORBITALS    206 PRIMITIVES        2 NUCLEI
  Al   1    (CENTRE  1)   0.00000000  0.00000000 -0.00217130  CHARGE = 13.0
  F    2    (CENTRE  2)   0.00000000  0.00000000  3.14488222  CHARGE =  9.0
CENTRE ASSIGNMENTS    1  1  1  1  1  1  1  1  1  1  1  1  1  1  1  1  1  1  1  1
CENTRE ASSIGNMENTS    1  1  1  1  1  1  1  1  1  1  1  1  1  1  1  1  1  1  1  1
CENTRE ASSIGNMENTS    1  1  1  1  1  1  1  1  1  1  1  1  1  1  1  1  1  1  1  1
CENTRE ASSIGNMENTS    1  1  1  1  1  1  1  1  1  1  1  1  1  1  1  1  1  1  1  1
CENTRE ASSIGNMENTS    1  1  1  1  1  1  1  1  1  1  1  1  1  1  1  1  1  1  1  1
CENTRE ASSIGNMENTS    1  1  1  1  1  1  1  1  1  1  1  1  1  1  1  1  1  1  1  1
CENTRE ASSIGNMENTS    1  1  1  1  1  1  1  1  1  1  1  2  2  2  2  2  2  2  2  2
CENTRE ASSIGNMENTS    2  2  2  2  2  2  2  2  2  2  2  2  2  2  2  2  2  2  2  2
CENTRE ASSIGNMENTS    2  2  2  2  2  2  2  2  2  2  2  2  2  2  2  2  2  2  2  2
CENTRE ASSIGNMENTS    2  2  2  2  2  2  2  2  2  2  2  2  2  2  2  2  2  2  2  2
CENTRE ASSIGNMENTS    2  2  2  2  2  2
TYPE ASSIGNMENTS      1  1  1  1  1  1  1  1  1  1  1  1  1  1  1  1  1  1  1  1
TYPE ASSIGNMENTS      1  1  1  1  1  1  1  1  1  1  1  1  1  1  1  1  1  1  1  1
TYPE ASSIGNMENTS      1  1  2  2  2  2  2  2  2  3  3  3  3  3  3  3  4  4  4  4
TYPE ASSIGNMENTS      4  4  4  2  2  2  2  2  2  2  3  3  3  3  3  3  3  4  4  4
TYPE ASSIGNMENTS      4  4  4  4  2  3  4  2  3  4  2  3  4  5  6  7  8  9 10  5
TYPE ASSIGNMENTS      6  7  8  9 10  5  6  7  8  9 10 11 12 13 17 14 15 18 19 16
TYPE ASSIGNMENTS     20 11 12 13 17 14 15 18 19 16 20  1  1  1  1  1  1  1  1  1
TYPE ASSIGNMENTS      1  1  1  1  1  1  1  1  1  1  2  2  2  3  3  3  4  4  4  2
TYPE ASSIGNMENTS      3  4  2  3  4  2  3  4  5  6  7  8  9 10  5  6  7  8  9 10
TYPE ASSIGNMENTS      5  6  7  8  9 10 11 12 13 17 14 15 18 19 16 20 11 12 13 17
TYPE ASSIGNMENTS     14 15 18 19 16 20
EXPONENTS  0.2055000D+06 0.3078000D+05 0.7006000D+04 0.1985000D+04 0.6491000D+03
EXPONENTS  0.2350000D+03 0.9162000D+02 0.3767000D+02 0.1591000D+02 0.5850000D+01
EXPONENTS  0.2542000D+01 0.1057000D+01 0.1455000D+00 0.2055000D+06 0.3078000D+05
EXPONENTS  0.7006000D+04 0.1985000D+04 0.6491000D+03 0.2350000D+03 0.9162000D+02
EXPONENTS  0.3767000D+02 0.1591000D+02 0.5850000D+01 0.2542000D+01 0.1057000D+01
EXPONENTS  0.1455000D+00 0.2055000D+06 0.3078000D+05 0.7006000D+04 0.1985000D+04
EXPONENTS  0.6491000D+03 0.2350000D+03 0.9162000D+02 0.3767000D+02 0.1591000D+02
EXPONENTS  0.5850000D+01 0.2542000D+01 0.1057000D+01 0.1455000D+00 0.2931000D+00
EXPONENTS  0.5650000D-01 0.2210000D-01 0.4444000D+03 0.1051000D+03 0.3347000D+02
EXPONENTS  0.1233000D+02 0.4869000D+01 0.1961000D+01 0.1888000D+00 0.4444000D+03
EXPONENTS  0.1051000D+03 0.3347000D+02 0.1233000D+02 0.4869000D+01 0.1961000D+01
EXPONENTS  0.1888000D+00 0.4444000D+03 0.1051000D+03 0.3347000D+02 0.1233000D+02
EXPONENTS  0.4869000D+01 0.1961000D+01 0.1888000D+00 0.4444000D+03 0.1051000D+03
EXPONENTS  0.3347000D+02 0.1233000D+02 0.4869000D+01 0.1961000D+01 0.1888000D+00
EXPONENTS  0.4444000D+03 0.1051000D+03 0.3347000D+02 0.1233000D+02 0.4869000D+01
EXPONENTS  0.1961000D+01 0.1888000D+00 0.4444000D+03 0.1051000D+03 0.3347000D+02
EXPONENTS  0.1233000D+02 0.4869000D+01 0.1961000D+01 0.1888000D+00 0.7834000D+00
EXPONENTS  0.7834000D+00 0.7834000D+00 0.5557000D-01 0.5557000D-01 0.5557000D-01
EXPONENTS  0.1460000D-01 0.1460000D-01 0.1460000D-01 0.1090000D+00 0.1090000D+00
EXPONENTS  0.1090000D+00 0.1090000D+00 0.1090000D+00 0.1090000D+00 0.3330000D+00
EXPONENTS  0.3330000D+00 0.3330000D+00 0.3330000D+00 0.3330000D+00 0.3330000D+00
EXPONENTS  0.3560000D-01 0.3560000D-01 0.3560000D-01 0.3560000D-01 0.3560000D-01
EXPONENTS  0.3560000D-01 0.2440000D+00 0.2440000D+00 0.2440000D+00 0.2440000D+00
EXPONENTS  0.2440000D+00 0.2440000D+00 0.2440000D+00 0.2440000D+00 0.2440000D+00
EXPONENTS  0.2440000D+00 0.8580000D-01 0.8580000D-01 0.8580000D-01 0.8580000D-01
EXPONENTS  0.8580000D-01 0.8580000D-01 0.8580000D-01 0.8580000D-01 0.8580000D-01
EXPONENTS  0.8580000D-01 0.1950000D+05 0.2923000D+04 0.6645000D+03 0.1875000D+03
EXPONENTS  0.6062000D+02 0.2142000D+02 0.7950000D+01 0.8815000D+00 0.1950000D+05
EXPONENTS  0.2923000D+04 0.6645000D+03 0.1875000D+03 0.6062000D+02 0.2142000D+02
EXPONENTS  0.7950000D+01 0.8815000D+00 0.2257000D+01 0.3041000D+00 0.9158000D-01
EXPONENTS  0.4388000D+02 0.9926000D+01 0.2930000D+01 0.4388000D+02 0.9926000D+01
EXPONENTS  0.2930000D+01 0.4388000D+02 0.9926000D+01 0.2930000D+01 0.9132000D+00
EXPONENTS  0.9132000D+00 0.9132000D+00 0.2672000D+00 0.2672000D+00 0.2672000D+00
EXPONENTS  0.7361000D-01 0.7361000D-01 0.7361000D-01 0.3107000D+01 0.3107000D+01
EXPONENTS  0.3107000D+01 0.3107000D+01 0.3107000D+01 0.3107000D+01 0.8550000D+00
EXPONENTS  0.8550000D+00 0.8550000D+00 0.8550000D+00 0.8550000D+00 0.8550000D+00
EXPONENTS  0.2920000D+00 0.2920000D+00 0.2920000D+00 0.2920000D+00 0.2920000D+00
EXPONENTS  0.2920000D+00 0.1917000D+01 0.1917000D+01 0.1917000D+01 0.1917000D+01
EXPONENTS  0.1917000D+01 0.1917000D+01 0.1917000D+01 0.1917000D+01 0.1917000D+01
EXPONENTS  0.1917000D+01 0.7240000D+00 0.7240000D+00 0.7240000D+00 0.7240000D+00
EXPONENTS  0.7240000D+00 0.7240000D+00 0.7240000D+00 0.7240000D+00 0.7240000D+00
EXPONENTS  0.7240000D+00
MO    1     MO 0.0        OCC NO =    2.0000000  ORB. ENERGY =  -58.500331
  0.46696351D+00  0.87305993D+00  0.15074406D+01  0.24316385D+01  0.36494808D+01
  0.49210636D+01  0.55062302D+01  0.42956039D+01  0.16158170D+01  0.11918702D+00
 -0.70281875D-02  0.19410054D-02  0.12123682D-03  0.17286570D-05  0.32374104D-05
  0.55903003D-05  0.90940114D-05  0.13843788D-04  0.19585310D-04  0.24151863D-04
  0.24209408D-04  0.13620431D-04 -0.48463487D-05 -0.11478491D-04 -0.46217975D-05
  0.27406251D-07 -0.38098210D-05 -0.71290396D-05 -0.12327623D-04 -0.20029287D-04
 -0.30596374D-04 -0.43309987D-04 -0.54025640D-04 -0.54929456D-04 -0.32385138D-04
  0.12918000D-04  0.34167442D-04  0.27902938D-04 -0.14903857D-04 -0.33729409D-03
 -0.31487800D-04  0.34716696D-05 -0.47965268D-18 -0.63507942D-18 -0.71187745D-18
 -0.62683544D-18 -0.37647784D-18 -0.13687761D-18 -0.17549842D-21 -0.21546209D-17
 -0.28528047D-17 -0.31977849D-17 -0.28157724D-17 -0.16911550D-17 -0.61486024D-18
 -0.78834664D-21  0.58145120D-04  0.76986476D-04  0.86296193D-04  0.75987112D-04
  0.45637917D-04  0.16592767D-04  0.21274513D-07  0.68254480D-19  0.95257946D-19
  0.10219071D-18  0.98333483D-19  0.54167394D-19  0.26357250D-19 -0.73195970D-20
  0.12161629D-18  0.16973125D-18  0.18208409D-18  0.17521126D-18  0.96515827D-19
  0.46963525D-19 -0.13042107D-19  0.31732964D-03  0.44287451D-03  0.47510640D-03
  0.45717334D-03  0.25183577D-03  0.12254048D-03 -0.34030368D-04  0.72452724D-19
  0.20220493D-18 -0.61150043D-04 -0.37370735D-21 -0.97653794D-21 -0.10947099D-05
 -0.11706576D-21  0.54604662D-22 -0.92590547D-08  0.22014080D-06  0.22014080D-06
 -0.44028160D-06 -0.31808535D-20 -0.15766464D-20 -0.17763584D-20  0.12293144D-04
  0.12293144D-04 -0.24586289D-04  0.23870109D-19  0.16066254D-19  0.33841742D-20
  0.14069829D-07  0.14069829D-07 -0.28139658D-07  0.32923447D-21 -0.10286512D-21
 -0.42455294D-22  0.22700263D-21  0.77549033D-22 -0.21931959D-05 -0.65675397D-21
  0.80162914D-22  0.32897938D-05 -0.24253911D-22 -0.31281001D-21  0.32897938D-05
  0.16442176D-20  0.76716361D-22  0.14442150D-22  0.68748137D-07  0.80651820D-22
  0.13199767D-22 -0.10312221D-06 -0.31080090D-21 -0.56526218D-22 -0.10312221D-06
 -0.45552664D-21 -0.18596641D-04 -0.34664945D-04 -0.58765604D-04 -0.88988444D-04
 -0.11128036D-03 -0.95802025D-04 -0.36829796D-04  0.15958954D-06  0.12931037D-04
  0.24282197D-04  0.41348393D-04  0.64772013D-04  0.86802117D-04  0.93367381D-04
  0.56057653D-04 -0.36865871D-04  0.24125503D-05  0.46850664D-04  0.22996021D-04
  0.71799584D-20  0.70218425D-20  0.46396282D-20  0.16373802D-19  0.16013221D-19
  0.10580612D-19  0.32651380D-04  0.31932337D-04  0.21099045D-04  0.37993933D-20
 -0.23858810D-20  0.42905851D-05 -0.33812854D-20  0.30100963D-20 -0.52524264D-04
  0.36028766D-20  0.19612635D-20 -0.22716737D-05  0.47243676D-05  0.47243676D-05
 -0.94487353D-05  0.31276835D-19  0.41879048D-19 -0.77510457D-19 -0.69893363D-05
 -0.69893363D-05  0.13978673D-04 -0.52999346D-20  0.48806114D-20  0.22700497D-19
 -0.81680885D-05 -0.81680885D-05  0.16336177D-04 -0.28697356D-21  0.22674990D-20
 -0.10721725D-20 -0.20141615D-19 -0.14541985D-19 -0.16574083D-04 -0.11613774D-20
 -0.22214640D-19  0.24861124D-04  0.61586222D-19  0.65840595D-19  0.24861124D-04
 -0.85210845D-19  0.45733594D-20  0.72638476D-20 -0.46851180D-05  0.46590364D-20
  0.54600155D-20  0.70276770D-05 -0.18379115D-19 -0.27251558D-19  0.70276770D-05
  0.22810574D-19
MO    2     MO 0.0        OCC NO =    2.0000000  ORB. ENERGY =  -26.247868
  0.88998283D-04  0.16639595D-03  0.28730216D-03  0.46344446D-03  0.69555226D-03
  0.93790243D-03  0.10494290D-02  0.81869647D-03  0.30795754D-03  0.22715780D-04
 -0.13394979D-05  0.36993500D-06  0.23106451D-07 -0.19623176D-03 -0.36750075D-03
 -0.63459348D-03 -0.10323239D-02 -0.15715037D-02 -0.22232634D-02 -0.27416443D-02
 -0.27481766D-02 -0.15461488D-02  0.55014241D-03  0.13030025D-02  0.52465206D-03
 -0.31110723D-05  0.12113162D-03  0.22666475D-03  0.39195149D-03  0.63682256D-03
  0.97279855D-03  0.13770224D-02  0.17177220D-02  0.17464584D-02  0.10296715D-02
 -0.41072225D-03 -0.10863391D-02 -0.88716191D-03  0.47386173D-03  0.10923995D-03
  0.63664945D-04 -0.14732961D-05  0.27775871D-15  0.36776370D-15  0.41223613D-15
  0.36298975D-15  0.21801192D-15  0.79263496D-16  0.10162815D-18 -0.14541797D-15
 -0.19253923D-15 -0.21582236D-15 -0.19003987D-15 -0.11413809D-15 -0.41497659D-16
 -0.53206466D-19  0.53431710D-02  0.70745732D-02  0.79300777D-02  0.69827379D-02
  0.41938377D-02  0.15247709D-02  0.19549940D-05 -0.41321417D-15 -0.57669376D-15
 -0.61866486D-15 -0.59531313D-15 -0.32793063D-15 -0.15956739D-15  0.44313006D-16
  0.49994017D-16  0.69773109D-16  0.74851116D-16  0.72025833D-16  0.39675720D-16
  0.19305763D-16 -0.53613485D-17 -0.48290139D-02 -0.67395128D-02 -0.72300067D-02
 -0.69571075D-02 -0.38323506D-02 -0.18647791D-02  0.51786250D-03 -0.99744625D-17
 -0.88265397D-16  0.23848553D-03  0.72921098D-18 -0.11851435D-17  0.21934753D-04
  0.74023169D-18  0.94936804D-18 -0.29573932D-06 -0.15536487D-04 -0.15536487D-04
  0.31072974D-04  0.16855795D-17  0.57402417D-18  0.33832345D-18 -0.11942955D-03
 -0.11942955D-03  0.23885911D-03 -0.85776240D-17 -0.65824347D-17  0.22305573D-16
  0.75956474D-07  0.75956474D-07 -0.15191295D-06  0.54599797D-18 -0.87292827D-19
 -0.15083970D-18  0.20125734D-18 -0.17338348D-18  0.18928903D-04  0.20193741D-18
 -0.17728076D-18 -0.28393354D-04 -0.80570943D-18  0.69743120D-18 -0.28393354D-04
 -0.13038924D-17 -0.23927226D-18  0.41499890D-19  0.12500761D-05 -0.23948192D-18
  0.41640060D-19 -0.18751141D-05  0.95729869D-18 -0.16613973D-18 -0.18751141D-05
  0.90188396D-18 -0.59554095D+00 -0.11101141D+01 -0.18819164D+01 -0.28497760D+01
 -0.35636549D+01 -0.30679749D+01 -0.11794416D+01  0.51107134D-02 -0.43711197D-03
 -0.82081887D-03 -0.13977130D-02 -0.21895091D-02 -0.29341998D-02 -0.31561275D-02
 -0.18949348D-02  0.12461888D-02 -0.57400691D-01 -0.19998153D-02 -0.16971916D-03
 -0.20946388D-16 -0.20485110D-16 -0.13535379D-16 -0.20305041D-16 -0.19857886D-16
 -0.13120945D-16  0.42757233D-02  0.41815640D-02  0.27629361D-02 -0.82280838D-17
 -0.23420903D-17 -0.72591305D-03  0.18597510D-17 -0.10789983D-16  0.77877653D-03
 -0.25185310D-17  0.34712549D-18  0.74208874D-05  0.28355341D-04  0.28355341D-04
 -0.56710681D-04  0.26312701D-17  0.12059340D-15  0.34014076D-16  0.24057449D-04
  0.24057449D-04 -0.48114897D-04  0.41821763D-17 -0.13475798D-16 -0.30376347D-18
  0.90674353D-04  0.90674353D-04 -0.18134871D-03 -0.42206091D-17 -0.36535658D-17
  0.88752283D-17 -0.18262942D-16  0.52328063D-16 -0.45687774D-03 -0.17692173D-16
  0.51885533D-16  0.68531660D-03  0.72480998D-16 -0.20886972D-15  0.68531660D-03
  0.18370079D-17  0.40580976D-18 -0.27285864D-17  0.18062520D-03  0.46928707D-18
 -0.26940016D-17 -0.27093780D-03 -0.16867163D-17  0.10879761D-16 -0.27093780D-03
 -0.50413312D-18
MO    3     MO 0.0        OCC NO =    2.0000000  ORB. ENERGY =   -4.911098
  0.20214406D-03  0.37793934D-03  0.65255669D-03  0.10526332D-02  0.15798255D-02
  0.21302817D-02  0.23835947D-02  0.18595261D-02  0.69947180D-03  0.51594928D-04
 -0.30424356D-05  0.84024277D-06  0.52482269D-07  0.12093486D+00  0.22648551D+00
  0.39109098D+00  0.63620657D+00  0.96849548D+00  0.13701658D+01  0.16896365D+01
  0.16936623D+01  0.95286965D+00 -0.33904498D+00 -0.80302201D+00 -0.32333564D+00
  0.19173098D-02  0.19399404D-03  0.36300687D-03  0.62771597D-03  0.10198805D-02
  0.15579509D-02  0.22053213D-02  0.27509566D-02  0.27969784D-02  0.16490339D-02
 -0.65777762D-03 -0.17397878D-02 -0.14208026D-02  0.75889640D-03 -0.10643103D-01
 -0.22731940D-03  0.30569308D-04  0.96097244D-15  0.12723661D-14  0.14262291D-14
  0.12558495D-14  0.75426416D-15  0.27423095D-15  0.35160681D-18  0.11997757D-14
  0.15885513D-14  0.17806495D-14  0.15679302D-14  0.94170009D-15  0.34237780D-15
  0.43898170D-18 -0.92606466D-02 -0.12261468D-01 -0.13744207D-01 -0.12102302D-01
 -0.72686516D-02 -0.26426938D-02 -0.33883453D-05 -0.26417024D-16 -0.36868370D-16
 -0.39551607D-16 -0.38058718D-16 -0.20964797D-16 -0.10201237D-16  0.28329564D-17
 -0.40954770D-16 -0.57157673D-16 -0.61317542D-16 -0.59003089D-16 -0.32502089D-16
 -0.15815154D-16  0.43919815D-17 -0.44000321D-02 -0.61408134D-02 -0.65877346D-02
 -0.63390782D-02 -0.34919067D-02 -0.16991228D-02  0.47185858D-03  0.33005661D-16
  0.60000339D-16 -0.17960916D-02  0.78447907D-18  0.10983106D-18  0.18916171D-04
 -0.15938818D-18  0.13416205D-18 -0.76257266D-06 -0.73708918D-05 -0.73708918D-05
  0.14741784D-04 -0.18737873D-18  0.12770684D-17  0.32160309D-18 -0.17562135D-03
 -0.17562135D-03  0.35124269D-03 -0.53158825D-17 -0.18148648D-17 -0.47022638D-18
  0.21428815D-06  0.21428815D-06 -0.42857630D-06 -0.15047376D-20  0.12321913D-18
  0.14052537D-18  0.80191674D-19  0.13591198D-19  0.37595963D-04  0.15195859D-18
  0.92501453D-20 -0.56393945D-04 -0.39253361D-18 -0.50023740D-19 -0.56393945D-04
  0.50946001D-18 -0.42730797D-19 -0.11822424D-18 -0.70062770D-06 -0.42052252D-19
 -0.11791351D-18  0.10509415D-05  0.17024464D-18  0.47258624D-18  0.10509415D-05
 -0.26882795D-18  0.14819499D-03  0.27624188D-03  0.46829789D-03  0.70914102D-03
  0.88678334D-03  0.76343785D-03  0.29349338D-03 -0.12717549D-05  0.18564494D-03
  0.34860832D-03  0.59361985D-03  0.92990197D-03  0.12461780D-02  0.13404325D-02
  0.80479392D-03 -0.52926634D-03 -0.14803535D-03 -0.88548868D-03 -0.20490980D-03
  0.21708890D-17  0.21230820D-17  0.14028101D-17 -0.20427212D-16 -0.19977367D-16
 -0.13199891D-16  0.38498295D-02  0.37650492D-02  0.24877272D-02 -0.31963003D-18
 -0.40527989D-17  0.16188971D-02  0.78568555D-18 -0.24674149D-17  0.51030869D-03
 -0.24258332D-17 -0.16645998D-17  0.30355765D-04  0.24762660D-03  0.24762660D-03
 -0.49525321D-03  0.16299637D-17 -0.20748562D-16  0.30568185D-17  0.44630560D-03
  0.44630560D-03 -0.89261120D-03 -0.98565268D-18  0.56610127D-19  0.10488173D-17
  0.88795756D-05  0.88795756D-05 -0.17759151D-04  0.10883610D-17 -0.51046827D-18
  0.39648414D-18  0.17544898D-17 -0.30586381D-17  0.12610317D-02  0.10165662D-17
 -0.28320307D-17 -0.18915476D-02 -0.62800355D-17  0.12007945D-16 -0.18915476D-02
  0.17872957D-18  0.69755107D-19 -0.89736566D-19  0.34466264D-04  0.10112973D-18
  0.74384759D-20 -0.51699395D-04 -0.31039505D-18  0.26177122D-18 -0.51699395D-04
  0.55382152D-19
MO    4     MO 0.0        OCC NO =    2.0000000  ORB. ENERGY =   -3.220784
  0.10977978D-03  0.20525015D-03  0.35438850D-03  0.57166084D-03  0.85796685D-03
  0.11569069D-02  0.12944754D-02  0.10098658D-02  0.37986702D-03  0.28020016D-04
 -0.16522767D-05  0.45631649D-06  0.28501911D-07 -0.61959215D-03 -0.11603656D-02
 -0.20036977D-02 -0.32595119D-02 -0.49619458D-02 -0.70198451D-02 -0.86566071D-02
 -0.86772326D-02 -0.48818891D-02  0.17370476D-02  0.41141665D-02  0.16565631D-02
 -0.98230580D-05 -0.38983197D-04 -0.72946408D-04 -0.12613983D-03 -0.20494549D-03
 -0.31307100D-03 -0.44316040D-03 -0.55280607D-03 -0.56205417D-03 -0.33137416D-03
  0.13218073D-03  0.34961121D-03  0.28551098D-03 -0.15250060D-03 -0.70191241D-03
 -0.64646116D-03  0.51972984D-04  0.54942480D-14  0.72746052D-14  0.81542988D-14
  0.71801733D-14  0.43124175D-14  0.15678835D-14  0.20102710D-17  0.36261231D-13
  0.48011327D-13  0.53817176D-13  0.47388090D-13  0.28461323D-13  0.10347801D-13
  0.13267494D-16 -0.47455525D+01 -0.62833022D+01 -0.70431209D+01 -0.62017385D+01
 -0.37247688D+01 -0.13542296D+01 -0.17363334D-02 -0.24228608D-15 -0.33814153D-15
 -0.36275108D-15 -0.34905891D-15 -0.19228050D-15 -0.93561547D-16  0.25982712D-16
  0.19219858D-15  0.26823795D-15  0.28775999D-15  0.27689839D-15  0.15253059D-15
  0.74219683D-16 -0.20611337D-16  0.52600906D-02  0.73411361D-02  0.78754155D-02
  0.75781551D-02  0.41744572D-02  0.20312443D-02 -0.56409108D-03  0.51238093D-16
  0.16456346D-14 -0.19558502D+00  0.28039224D-17  0.29315347D-17 -0.85246875D-04
  0.16824432D-19 -0.41604055D-18  0.12378370D-05  0.30570056D-04  0.30570056D-04
 -0.61140111D-04  0.11013078D-17  0.31381414D-17 -0.54863289D-17  0.15550807D-03
  0.15550807D-03 -0.31101614D-03  0.21698593D-16 -0.13353670D-16  0.39928238D-17
  0.27079082D-06  0.27079082D-06 -0.54158163D-06  0.35367629D-18  0.64171155D-18
  0.81899454D-18  0.14242711D-17  0.51423885D-18 -0.34119982D-04  0.14219991D-17
  0.48455063D-18  0.51179973D-04 -0.56948126D-17 -0.20272672D-17  0.51179973D-04
  0.60858569D-19 -0.27444036D-18 -0.99845890D-19 -0.19244814D-05 -0.27815731D-18
 -0.99156440D-19  0.28867221D-05  0.11014784D-17  0.39869411D-18  0.28867221D-05
  0.81838710D-19 -0.63352239D-04 -0.11809132D-03 -0.20019382D-03 -0.30315244D-03
 -0.37909319D-03 -0.32636392D-03 -0.12546621D-03  0.54366561D-06  0.16744229D-02
  0.31442696D-02  0.53541489D-02  0.83872426D-02  0.11239892D-01  0.12090019D-01
  0.72588316D-02 -0.47737130D-02 -0.20372246D-02 -0.30949682D-04  0.10212301D-02
 -0.14534326D-16 -0.14214254D-16 -0.93919584D-17 -0.73982374D-16 -0.72353146D-16
 -0.47806783D-16  0.21211821D-01  0.20744698D-01  0.13706899D-01 -0.16016357D-16
 -0.18592265D-16  0.60540369D-02  0.18450189D-16  0.39675492D-17 -0.33908817D-03
 -0.96183898D-17 -0.86741754D-17 -0.11769082D-03  0.25754758D-02  0.25754758D-02
 -0.51509517D-02  0.50665364D-17  0.45075133D-16 -0.10290046D-16  0.52880463D-03
  0.52880463D-03 -0.10576093D-02  0.37052233D-18 -0.12154331D-16 -0.86390863D-17
 -0.14834621D-04 -0.14834621D-04  0.29669243D-04  0.98042634D-18 -0.10620308D-16
 -0.49767218D-17 -0.72406222D-17  0.15177428D-16  0.88830354D-03 -0.75088442D-17
  0.15046058D-16 -0.13324553D-02  0.29230711D-16 -0.60578341D-16 -0.13324553D-02
 -0.25123013D-18  0.64329769D-18 -0.36882437D-17 -0.12847319D-04  0.76734821D-18
 -0.36768794D-17  0.19270978D-04 -0.26972413D-17  0.14741611D-16  0.19270978D-04
 -0.98317911D-18
MO    5     MO 0.0        OCC NO =    2.0000000  ORB. ENERGY =   -3.220151
 -0.19450433D-16 -0.36365569D-16 -0.62789429D-16 -0.10128505D-15 -0.15201184D-15
 -0.20497708D-15 -0.22935103D-15 -0.17892481D-15 -0.67303631D-16 -0.49644974D-17
  0.29274513D-18 -0.80848705D-19 -0.50498780D-20  0.37498691D-16  0.70227148D-16
  0.12126694D-15  0.19727078D-15  0.30030476D-15  0.42485206D-15  0.52391147D-15
  0.52515976D-15  0.29545960D-15 -0.10512885D-15 -0.24899582D-15 -0.10025780D-15
  0.59450691D-18 -0.48729205D-16 -0.91183400D-16 -0.15767546D-15 -0.25618296D-15
 -0.39134043D-15 -0.55395286D-15 -0.69101054D-15 -0.70257073D-15 -0.41421947D-15
  0.16522662D-15  0.43701588D-15  0.35689025D-15 -0.19062657D-15 -0.18470625D-15
 -0.26083669D-17  0.45999741D-17  0.99564583D+00  0.13182751D+01  0.14776897D+01
  0.13011625D+01  0.78147920D+00  0.28412563D+00  0.36429333D-03  0.46252166D+01
  0.61239727D+01  0.68645242D+01  0.60444772D+01  0.36303176D+01  0.13198896D+01
  0.16923042D-02  0.33829277D-13  0.44791322D-13  0.50207787D-13  0.44209884D-13
  0.26552490D-13  0.96537988D-14  0.12377675D-16 -0.13605366D-03 -0.18988046D-03
 -0.20369974D-03 -0.19601102D-03 -0.10797346D-03 -0.52538681D-04  0.14590368D-04
 -0.63202962D-03 -0.88207900D-03 -0.94627568D-03 -0.91055817D-03 -0.50158462D-03
 -0.24406548D-03  0.67778732D-04  0.24657022D-14  0.34412060D-14  0.36916530D-14
  0.35523102D-14  0.19568043D-14  0.95215916D-15 -0.26442142D-15  0.41944007D-01
  0.19484852D+00  0.16053379D-14 -0.13571188D-04 -0.63044189D-04  0.29500908D-16
  0.70471131D-06  0.32736967D-05 -0.67344283D-18 -0.30305521D-17  0.61095563D-18
  0.24195965D-17  0.18143793D-16 -0.28941099D-05 -0.13444425D-04  0.72409984D-16
  0.74627767D-16 -0.14703775D-15 -0.58652717D-16  0.50688693D-04  0.23547147D-03
 -0.93450722D-18 -0.13221672D-17  0.22566745D-17 -0.45172109D-17  0.57924659D-07
  0.26908574D-06 -0.34812187D-06 -0.16171805D-05 -0.16715017D-16 -0.34812187D-06
 -0.16171805D-05  0.23461841D-16  0.13924875D-05  0.64687221D-05  0.26683211D-16
 -0.36008025D-17 -0.62331707D-07 -0.28955843D-06  0.11907147D-17 -0.62331707D-07
 -0.28955843D-06 -0.19748179D-17  0.24932683D-06  0.11582337D-05 -0.15973262D-17
  0.51854746D-18 -0.17042683D-15 -0.31768300D-15 -0.53855078D-15 -0.81552460D-15
 -0.10198164D-14 -0.87796690D-15 -0.33752253D-15  0.14625404D-17  0.16792988D-15
  0.31534258D-15  0.53697403D-15  0.84116665D-15  0.11272623D-14  0.12125226D-14
  0.72799695D-15 -0.47876142D-15  0.70859873D-16  0.32793185D-15  0.12376969D-17
  0.63280025D-03  0.61886482D-03  0.40891015D-03  0.29396379D-02  0.28749017D-02
  0.18995691D-02 -0.11986030D-14 -0.11722076D-14 -0.77452710D-15  0.24200573D-03
  0.11242240D-02  0.13994907D-15 -0.26448794D-04 -0.12286638D-03 -0.35176040D-15
  0.53733561D-06  0.24961623D-05 -0.25237322D-16  0.15538197D-15 -0.73440539D-16
 -0.81941433D-16  0.53205375D-15 -0.28966638D-03 -0.13456288D-02 -0.16300274D-15
  0.17844473D-15 -0.15441983D-16 -0.34871249D-16 -0.21481055D-03 -0.99789031D-03
 -0.35807906D-16 -0.67162015D-16  0.10296992D-15 -0.18871200D-16  0.35542118D-04
  0.16510891D-03 -0.11088060D-03 -0.51508958D-03  0.75051389D-16 -0.11088060D-03
 -0.51508958D-03 -0.56807368D-16  0.44352240D-03  0.20603583D-02 -0.16834680D-15
  0.25010848D-15  0.67514556D-05  0.31363507D-04 -0.58370209D-16  0.67514556D-05
  0.31363507D-04  0.69551157D-17 -0.27005822D-04 -0.12545403D-03  0.16815551D-15
 -0.10596980D-16
MO    6     MO 0.0        OCC NO =    2.0000000  ORB. ENERGY =   -3.220151
 -0.23647512D-16 -0.44212651D-16 -0.76338338D-16 -0.12314067D-15 -0.18481345D-15
 -0.24920771D-15 -0.27884115D-15 -0.21753379D-15 -0.81826630D-16 -0.60357530D-17
  0.35591463D-18 -0.98294504D-19 -0.61395573D-20  0.37250367D-16  0.69762089D-16
  0.12046388D-15  0.19596441D-15  0.29831608D-15  0.42203860D-15  0.52044202D-15
  0.52168204D-15  0.29350301D-15 -0.10443267D-15 -0.24734692D-15 -0.99593876D-16
  0.59056996D-18  0.20947258D-16  0.39197072D-16  0.67780062D-16  0.11012555D-15
  0.16822578D-15  0.23812811D-15  0.29704519D-15  0.30201457D-15  0.17806082D-15
 -0.71026085D-16 -0.18786032D-15 -0.15341666D-15  0.81944777D-16  0.45351656D-16
 -0.78831046D-17 -0.44447249D-17  0.46252166D+01  0.61239727D+01  0.68645242D+01
  0.60444772D+01  0.36303176D+01  0.13198896D+01  0.16923042D-02 -0.99564583D+00
 -0.13182751D+01 -0.14776897D+01 -0.13011625D+01 -0.78147920D+00 -0.28412563D+00
 -0.36429333D-03 -0.31634948D-14 -0.41885942D-14 -0.46951069D-14 -0.41342219D-14
 -0.24830168D-14 -0.90276071D-15 -0.11574799D-17 -0.63202962D-03 -0.88207900D-03
 -0.94627568D-03 -0.91055817D-03 -0.50158462D-03 -0.24406548D-03  0.67778732D-04
  0.13605366D-03  0.18988046D-03  0.20369974D-03  0.19601102D-03  0.10797346D-03
  0.52538681D-04 -0.14590368D-04  0.16152041D-14  0.22542261D-14  0.24182860D-14
  0.23270069D-14  0.12818411D-14  0.62372959D-15 -0.17321417D-15  0.19484852D+00
 -0.41944007D-01 -0.17984165D-15 -0.63044189D-04  0.13571188D-04 -0.45577935D-16
  0.32736967D-05 -0.70471131D-06  0.39985318D-18  0.73185368D-17  0.85322908D-17
 -0.15850828D-16 -0.20274621D-16 -0.13444425D-04  0.28941099D-05  0.48556968D-16
  0.32980841D-16 -0.81537809D-16  0.72663051D-16  0.23547147D-03 -0.50688693D-04
  0.77511386D-18  0.65968703D-18 -0.14348009D-17  0.37988291D-17  0.26908574D-06
 -0.57924659D-07 -0.16171805D-05  0.34812187D-06 -0.39337635D-17 -0.16171805D-05
  0.34812187D-06  0.57267684D-17  0.64687221D-05 -0.13924875D-05  0.60745221D-17
 -0.46780281D-17 -0.28955843D-06  0.62331707D-07 -0.92286376D-18 -0.28955843D-06
  0.62331707D-07  0.11020760D-17  0.11582337D-05 -0.24932683D-06  0.16665153D-17
  0.91237938D-18  0.23584767D-16  0.43963027D-16  0.74528139D-16  0.11285757D-15
  0.14112878D-15  0.12149874D-15  0.46708550D-16 -0.20239579D-18  0.12593117D-15
  0.23647643D-15  0.40267858D-15  0.63079362D-15  0.84533766D-15  0.90927463D-15
  0.54592729D-15 -0.35902476D-15 -0.37907140D-15  0.46668363D-16  0.21888435D-15
  0.29396379D-02  0.28749017D-02  0.18995691D-02 -0.63280025D-03 -0.61886482D-03
 -0.40891015D-03 -0.18188078D-15 -0.17787543D-15 -0.11752981D-15  0.11242240D-02
 -0.24200573D-03  0.85518212D-16 -0.12286638D-03  0.26448794D-04 -0.17578780D-15
  0.24961623D-05 -0.53733561D-06 -0.11267290D-16 -0.22345529D-15  0.50643573D-15
 -0.28298044D-15  0.37401032D-15 -0.13456288D-02  0.28966638D-03 -0.94702984D-16
  0.96222468D-16 -0.15194846D-17 -0.24622396D-16 -0.99789031D-03  0.21481055D-03
 -0.10563079D-16 -0.18716563D-16  0.29279642D-16 -0.64363960D-17  0.16510891D-03
 -0.35542118D-04 -0.51508958D-03  0.11088060D-03  0.17124165D-15 -0.51508958D-03
  0.11088060D-03 -0.50426848D-15  0.20603583D-02 -0.44352240D-03 -0.94564550D-17
  0.18528718D-15  0.31363507D-04 -0.67514556D-05 -0.54632473D-16  0.31363507D-04
 -0.67514556D-05  0.75824479D-16 -0.12545403D-03  0.27005822D-04  0.88072940D-16
 -0.11020752D-16
MO    7     MO 0.0        OCC NO =    2.0000000  ORB. ENERGY =   -1.532423
  0.97353166D-03  0.18201668D-02  0.31427319D-02  0.50695119D-02  0.76084855D-02
  0.10259498D-01  0.11479461D-01  0.89555315D-02  0.33686764D-02  0.24848267D-03
 -0.14652458D-04  0.40466335D-05  0.25275612D-06 -0.35748199D-02 -0.66948845D-02
 -0.11560602D-01 -0.18806190D-01 -0.28628610D-01 -0.40501936D-01 -0.49945454D-01
 -0.50064455D-01 -0.28166713D-01  0.10022129D-01  0.23737234D-01  0.95577627D-02
 -0.56675448D-04 -0.15819222D-02 -0.29601354D-02 -0.51187028D-02 -0.83166042D-02
 -0.12704293D-01 -0.17983268D-01 -0.22432644D-01 -0.22807929D-01 -0.13447028D-01
  0.53638401D-02  0.14187080D-01  0.11585919D-01 -0.61884121D-02 -0.37841012D-03
  0.18764069D-03  0.56303109D-04 -0.36388668D-14 -0.48180058D-14 -0.54006312D-14
 -0.47554631D-14 -0.28561348D-14 -0.10384167D-14 -0.13314121D-17 -0.10886106D-15
 -0.14413642D-15 -0.16156635D-15 -0.14226538D-15 -0.85444692D-16 -0.31065481D-16
 -0.39830788D-19  0.23157169D+00  0.30661022D+00  0.34368757D+00  0.30263010D+00
  0.18175987D+00  0.66083189D-01  0.84728947D-04  0.15012206D-15  0.20951474D-15
  0.22476298D-15  0.21627922D-15  0.11913828D-15  0.57971356D-16 -0.16099061D-16
  0.23558725D-15  0.32879244D-15  0.35272157D-15  0.33940797D-15  0.18696424D-15
  0.90974715D-16 -0.25264330D-16  0.49976630D-01  0.69748844D-01  0.74825084D-01
  0.72000784D-01  0.39661921D-01  0.19299048D-01 -0.53594839D-02 -0.22275564D-15
 -0.31380690D-16  0.49874232D-02  0.48503952D-18 -0.45071151D-17  0.12117990D-03
  0.18050926D-18  0.10197018D-17  0.60210827D-05  0.50029108D-04  0.50029108D-04
 -0.10005822D-03  0.11215798D-17  0.41216258D-17 -0.13068869D-17  0.24888725D-02
  0.24888725D-02 -0.49777451D-02  0.70005505D-17  0.75802070D-17 -0.38229738D-17
 -0.64926020D-05 -0.64926020D-05  0.12985204D-04 -0.51051427D-18 -0.52308227D-18
 -0.42027655D-18  0.50297825D-19  0.73156039D-18 -0.70644153D-03  0.24451676D-18
  0.34261118D-18  0.10596623D-02 -0.39541024D-18 -0.25372924D-17  0.10596623D-02
  0.10308142D-17 -0.17645758D-18 -0.12230657D-18  0.21362105D-04 -0.17772529D-18
 -0.10629161D-18 -0.32043157D-04  0.70709802D-18  0.47321132D-18 -0.32043157D-04
 -0.10567332D-18  0.39638943D-02  0.73888707D-02  0.12525952D-01  0.18967984D-01
  0.23719530D-01  0.20420306D-01  0.78503111D-02 -0.34016683D-04  0.12957643D+00
  0.24332159D+00  0.41433471D+00  0.64905287D+00  0.86980720D+00  0.93559492D+00
  0.56172996D+00 -0.36941726D+00 -0.20699311D+00 -0.10657881D+00 -0.22677544D-02
  0.31096296D-15  0.30411499D-15  0.20094163D-15 -0.16968077D-15 -0.16594408D-15
 -0.10964627D-15  0.14411437D+00  0.14094071D+00  0.93125484D-01  0.64827853D-16
 -0.38754868D-16  0.41779593D-01  0.73035224D-17 -0.17208478D-17  0.90806119D-02
  0.14212941D-17  0.58852615D-17 -0.29150383D-03  0.27350452D-02  0.27350452D-02
 -0.54700903D-02  0.50662433D-16  0.15690439D-16 -0.29903859D-17  0.50640417D-02
  0.50640417D-02 -0.10128083D-01  0.84910344D-18  0.10854340D-16  0.16067367D-16
  0.11386075D-02  0.11386075D-02 -0.22772151D-02  0.69525742D-17 -0.19261230D-17
 -0.72443618D-17 -0.52270450D-17  0.80501237D-17 -0.41913302D-02 -0.76333319D-17
  0.11972339D-18  0.62869953D-02  0.23314467D-16 -0.24270095D-16  0.62869953D-02
  0.62879818D-17  0.17464369D-17 -0.30920760D-18  0.47977969D-02  0.58432081D-17
  0.10891229D-17 -0.71966953D-02 -0.11082519D-16 -0.16150009D-18 -0.71966953D-02
 -0.22555703D-18
MO    8     MO 0.0        OCC NO =    2.0000000  ORB. ENERGY =   -0.671752
  0.13040968D-02  0.24382090D-02  0.42098543D-02  0.67908773D-02  0.10191966D-01
  0.13743136D-01  0.15377341D-01  0.11996404D-01  0.45125189D-02  0.33285557D-03
 -0.19627736D-04  0.54206779D-05  0.33858009D-06 -0.39241575D-02 -0.73491203D-02
 -0.12690325D-01 -0.20643964D-01 -0.31426248D-01 -0.44459856D-01 -0.54826211D-01
 -0.54956841D-01 -0.30919213D-01  0.11001509D-01  0.26056878D-01  0.10491764D-01
 -0.62213872D-04 -0.90194459D-02 -0.16877430D-01 -0.29184661D-01 -0.47417732D-01
 -0.72434463D-01 -0.10253293D+00 -0.12790137D+00 -0.13004108D+00 -0.76669220D-01
  0.30582329D-01  0.80888681D-01  0.66057969D-01 -0.35283687D-01 -0.73703195D-02