 Molden2AIM, Version 4.0.0 (06/02/2016)           Time: Wed Jun 27 19:36:21 2018
GAUSSIAN              7 MOL ORBITALS    158 PRIMITIVES        2 NUCLEI
  Al   1    (CENTRE  1)   0.00000000  0.00000000 -0.01387626  CHARGE = 13.0
  H    2    (CENTRE  2)   0.00000000  0.00000000  3.13186956  CHARGE =  1.0
CENTRE ASSIGNMENTS    1  1  1  1  1  1  1  1  1  1  1  1  1  1  1  1  1  1  1  1
CENTRE ASSIGNMENTS    1  1  1  1  1  1  1  1  1  1  1  1  1  1  1  1  1  1  1  1
CENTRE ASSIGNMENTS    1  1  1  1  1  1  1  1  1  1  1  1  1  1  1  1  1  1  1  1
CENTRE ASSIGNMENTS    1  1  1  1  1  1  1  1  1  1  1  1  1  1  1  1  1  1  1  1
CENTRE ASSIGNMENTS    1  1  1  1  1  1  1  1  1  1  1  1  1  1  1  1  1  1  1  1
CENTRE ASSIGNMENTS    1  1  1  1  1  1  1  1  1  1  1  1  1  1  1  1  1  1  1  1
CENTRE ASSIGNMENTS    1  1  1  1  1  1  1  1  1  1  1  2  2  2  2  2  2  2  2  2
CENTRE ASSIGNMENTS    2  2  2  2  2  2  2  2  2  2  2  2  2  2  2  2  2  2
TYPE ASSIGNMENTS      1  1  1  1  1  1  1  1  1  1  1  1  1  1  1  1  1  1  1  1
TYPE ASSIGNMENTS      1  1  1  1  1  1  1  1  1  1  1  1  1  1  1  1  1  1  1  1
TYPE ASSIGNMENTS      1  1  2  2  2  2  2  2  2  3  3  3  3  3  3  3  4  4  4  4
TYPE ASSIGNMENTS      4  4  4  2  2  2  2  2  2  2  3  3  3  3  3  3  3  4  4  4
TYPE ASSIGNMENTS      4  4  4  4  2  3  4  2  3  4  2  3  4  5  6  7  8  9 10  5
TYPE ASSIGNMENTS      6  7  8  9 10  5  6  7  8  9 10 11 12 13 17 14 15 18 19 16
TYPE ASSIGNMENTS     20 11 12 13 17 14 15 18 19 16 20  1  1  1  1  1  1  2  3  4
TYPE ASSIGNMENTS      2  3  4  2  3  4  5  6  7  8  9 10  5  6  7  8  9 10
EXPONENTS  0.2055000D+06 0.3078000D+05 0.7006000D+04 0.1985000D+04 0.6491000D+03
EXPONENTS  0.2350000D+03 0.9162000D+02 0.3767000D+02 0.1591000D+02 0.5850000D+01
EXPONENTS  0.2542000D+01 0.1057000D+01 0.1455000D+00 0.2055000D+06 0.3078000D+05
EXPONENTS  0.7006000D+04 0.1985000D+04 0.6491000D+03 0.2350000D+03 0.9162000D+02
EXPONENTS  0.3767000D+02 0.1591000D+02 0.5850000D+01 0.2542000D+01 0.1057000D+01
EXPONENTS  0.1455000D+00 0.2055000D+06 0.3078000D+05 0.7006000D+04 0.1985000D+04
EXPONENTS  0.6491000D+03 0.2350000D+03 0.9162000D+02 0.3767000D+02 0.1591000D+02
EXPONENTS  0.5850000D+01 0.2542000D+01 0.1057000D+01 0.1455000D+00 0.2931000D+00
EXPONENTS  0.5650000D-01 0.2210000D-01 0.4444000D+03 0.1051000D+03 0.3347000D+02
EXPONENTS  0.1233000D+02 0.4869000D+01 0.1961000D+01 0.1888000D+00 0.4444000D+03
EXPONENTS  0.1051000D+03 0.3347000D+02 0.1233000D+02 0.4869000D+01 0.1961000D+01
EXPONENTS  0.1888000D+00 0.4444000D+03 0.1051000D+03 0.3347000D+02 0.1233000D+02
EXPONENTS  0.4869000D+01 0.1961000D+01 0.1888000D+00 0.4444000D+03 0.1051000D+03
EXPONENTS  0.3347000D+02 0.1233000D+02 0.4869000D+01 0.1961000D+01 0.1888000D+00
EXPONENTS  0.4444000D+03 0.1051000D+03 0.3347000D+02 0.1233000D+02 0.4869000D+01
EXPONENTS  0.1961000D+01 0.1888000D+00 0.4444000D+03 0.1051000D+03 0.3347000D+02
EXPONENTS  0.1233000D+02 0.4869000D+01 0.1961000D+01 0.1888000D+00 0.7834000D+00
EXPONENTS  0.7834000D+00 0.7834000D+00 0.5557000D-01 0.5557000D-01 0.5557000D-01
EXPONENTS  0.1460000D-01 0.1460000D-01 0.1460000D-01 0.1090000D+00 0.1090000D+00
EXPONENTS  0.1090000D+00 0.1090000D+00 0.1090000D+00 0.1090000D+00 0.3330000D+00
EXPONENTS  0.3330000D+00 0.3330000D+00 0.3330000D+00 0.3330000D+00 0.3330000D+00
EXPONENTS  0.3560000D-01 0.3560000D-01 0.3560000D-01 0.3560000D-01 0.3560000D-01
EXPONENTS  0.3560000D-01 0.2440000D+00 0.2440000D+00 0.2440000D+00 0.2440000D+00
EXPONENTS  0.2440000D+00 0.2440000D+00 0.2440000D+00 0.2440000D+00 0.2440000D+00
EXPONENTS  0.2440000D+00 0.8580000D-01 0.8580000D-01 0.8580000D-01 0.8580000D-01
EXPONENTS  0.8580000D-01 0.8580000D-01 0.8580000D-01 0.8580000D-01 0.8580000D-01
EXPONENTS  0.8580000D-01 0.3387000D+02 0.5095000D+01 0.1159000D+01 0.3258000D+00
EXPONENTS  0.1027000D+00 0.2526000D-01 0.1407000D+01 0.1407000D+01 0.1407000D+01
EXPONENTS  0.3880000D+00 0.3880000D+00 0.3880000D+00 0.1020000D+00 0.1020000D+00
EXPONENTS  0.1020000D+00 0.1057000D+01 0.1057000D+01 0.1057000D+01 0.1057000D+01
EXPONENTS  0.1057000D+01 0.1057000D+01 0.2470000D+00 0.2470000D+00 0.2470000D+00
EXPONENTS  0.2470000D+00 0.2470000D+00 0.2470000D+00
MO    1     MO 0.0        OCC NO =    2.0000000  ORB. ENERGY =  -58.492582
  0.46696830D+00  0.87306888D+00  0.15074560D+01  0.24316635D+01  0.36495182D+01
  0.49211141D+01  0.55062866D+01  0.42956480D+01  0.16158335D+01  0.11918824D+00
 -0.70282596D-02  0.19410253D-02  0.12123807D-03 -0.82685792D-05 -0.15485307D-04
 -0.26739741D-04 -0.43498828D-04 -0.66218143D-04 -0.93681215D-04 -0.11552413D-03
 -0.11579938D-03 -0.65149771D-04  0.23181243D-04  0.54904362D-04  0.22107161D-04
 -0.13109064D-06  0.25127751D-05  0.47019725D-05  0.81307090D-05  0.13210357D-04
  0.20179900D-04  0.28565190D-04  0.35632720D-04  0.36228834D-04  0.21359684D-04
 -0.85200929D-05 -0.22535205D-04 -0.18403439D-04  0.98298691D-05 -0.33390333D-03
 -0.15233806D-04  0.90927670D-05 -0.25557407D-18 -0.33839034D-18 -0.37931076D-18
 -0.33399769D-18 -0.20059926D-18 -0.72932705D-19 -0.93511094D-22  0.37304072D-18
  0.49392091D-18  0.55364911D-18  0.48750931D-18  0.29279846D-18  0.10645395D-18
  0.13649055D-21  0.30074495D-03  0.39819840D-03  0.44635120D-03  0.39302937D-03
  0.23605374D-03  0.85823036D-04  0.11003851D-06  0.36988378D-19  0.51622061D-19
  0.55379054D-19  0.53288752D-19  0.29354323D-19  0.14283486D-19 -0.39666264D-20
 -0.58822176D-19 -0.82093947D-19 -0.88068649D-19 -0.84744466D-19 -0.46681830D-19
 -0.22714857D-19  0.63080786D-20  0.73406006D-04  0.10244757D-03  0.10990358D-03
  0.10575523D-03  0.58255693D-04  0.28346571D-04 -0.78720456D-05  0.40722498D-19
 -0.60434103D-19 -0.51321309D-04  0.17184468D-21  0.31365195D-21  0.52442117D-05
 -0.43348402D-22 -0.16608641D-21  0.25560022D-06 -0.87455632D-06 -0.87455632D-06
  0.17491126D-05  0.31095729D-20  0.86308005D-22  0.22315647D-20  0.71984820D-05
  0.71984820D-05 -0.14396964D-04 -0.51786215D-19  0.87809217D-20 -0.19191559D-20
 -0.67352489D-07 -0.67352489D-07  0.13470498D-06 -0.12005317D-21 -0.10162574D-21
  0.34451258D-22 -0.57177223D-21 -0.46708347D-21 -0.13129433D-05  0.50350745D-21
 -0.14842683D-20  0.19694150D-05  0.12118092D-20  0.28855187D-20  0.19694150D-05
 -0.43085567D-20  0.21385673D-22 -0.13062491D-22  0.15337896D-06  0.55719128D-22
  0.23773533D-22 -0.23006844D-06 -0.11987615D-21  0.15413940D-22 -0.23006844D-06
  0.27612234D-21 -0.44565425D-05 -0.80375579D-05 -0.11851374D-04  0.17726310D-04
 -0.17343020D-04 -0.76570456D-05  0.54873009D-20  0.10316173D-19  0.10294980D-04
 -0.46994168D-20 -0.10319284D-19 -0.31947585D-04  0.19094206D-20 -0.82367936D-21
  0.77281779D-06 -0.13876041D-04 -0.13876041D-04  0.27752083D-04 -0.73828380D-21
  0.61882406D-20 -0.22047916D-20 -0.29392975D-05 -0.29392975D-05  0.58785950D-05
  0.26077738D-20  0.15325120D-20  0.21678697D-20
MO    2     MO 0.0        OCC NO =    2.0000000  ORB. ENERGY =   -4.903078
  0.20244934D-03  0.37851010D-03  0.65354217D-03  0.10542229D-02  0.15822114D-02
  0.21334987D-02  0.23871943D-02  0.18623343D-02  0.70052812D-03  0.51672845D-04
 -0.30470302D-05  0.84151168D-06  0.52561526D-07  0.12093527D+00  0.22648628D+00
  0.39109232D+00  0.63620876D+00  0.96849880D+00  0.13701705D+01  0.16896423D+01
  0.16936681D+01  0.95287292D+00 -0.33904614D+00 -0.80302477D+00 -0.32333675D+00
  0.19173164D-02  0.20312703D-03  0.38009676D-03  0.65726802D-03  0.10678952D-02
  0.16312972D-02  0.23091450D-02  0.28804680D-02  0.29286565D-02  0.17266682D-02
 -0.68874493D-03 -0.18216947D-02 -0.14876921D-02  0.79462425D-03 -0.10598389D-01
 -0.21185045D-03  0.76331688D-04  0.79406067D-15  0.10513682D-14  0.11785067D-14
  0.10377204D-14  0.62325566D-15  0.22659964D-15  0.29053605D-18  0.56657003D-15
  0.75016150D-15  0.84087602D-15  0.74042362D-15  0.44469899D-15  0.16168105D-15
  0.20730031D-18 -0.11991759D-01 -0.15877571D-01 -0.17797593D-01 -0.15671464D-01
 -0.94122931D-02 -0.34220664D-02 -0.43876224D-05  0.42382503D-17  0.59150259D-17
  0.63455147D-17  0.61060009D-17  0.33635151D-17  0.16366489D-17 -0.45450913D-18
  0.13527295D-16  0.18879088D-16  0.20253086D-16  0.19488626D-16  0.10735388D-16
  0.52237200D-17 -0.14506644D-17 -0.45033651D-02 -0.62850278D-02 -0.67424449D-02
 -0.64879489D-02 -0.35739127D-02 -0.17390260D-02  0.48293998D-03  0.35882463D-16
  0.22425451D-16 -0.20536452D-02 -0.61909942D-18  0.42000123D-18  0.31755195D-04
  0.13021428D-18 -0.49724314D-19  0.19638292D-05 -0.31724030D-05 -0.31724030D-05
  0.63448061D-05 -0.65810560D-19 -0.37349476D-18  0.56651969D-18 -0.20515911D-03
 -0.20515911D-03  0.41031822D-03  0.14487330D-17  0.26474706D-17  0.19168234D-17
 -0.25190810D-06 -0.25190810D-06  0.50381620D-06  0.21062865D-19 -0.17311242D-19
  0.31363859D-19 -0.29266939D-19  0.36761833D-19  0.42605402D-04 -0.11288828D-18
  0.11792837D-18 -0.63908103D-04  0.20068910D-18 -0.22821387D-18 -0.63908103D-04
  0.29975160D-18  0.40392828D-20  0.11002083D-20 -0.12221904D-05  0.32636154D-21
 -0.17095088D-20  0.18332856D-05 -0.12444210D-19 -0.15911162D-20  0.18332856D-05
  0.27860613D-19  0.39271676D-05  0.70828085D-05  0.10443597D-04 -0.71503882D-03
 -0.31972540D-03 -0.62036187D-04 -0.13630058D-18 -0.46231427D-18  0.34873105D-04
  0.33584118D-18  0.77514380D-18  0.64479597D-03  0.26349598D-18 -0.26137263D-18
  0.11274053D-03  0.29176464D-03  0.29176464D-03 -0.58352928D-03  0.19043427D-18
 -0.92070682D-18 -0.13790586D-17  0.15494312D-04  0.15494312D-04 -0.30988625D-04
 -0.11523018D-18  0.27008616D-18  0.31023050D-18
MO    3     MO 0.0        OCC NO =    2.0000000  ORB. ENERGY =   -3.212159
 -0.56331899D-17 -0.10532113D-16 -0.18184931D-16 -0.29333944D-16 -0.44025321D-16
 -0.59364994D-16 -0.66424121D-16 -0.51819794D-16 -0.19492324D-16 -0.14378064D-17
  0.84784174D-19 -0.23415217D-19 -0.14625341D-20  0.28815170D-16  0.53964743D-16
  0.93185317D-16  0.15158906D-15  0.23076359D-15  0.32646965D-15  0.40259000D-15
  0.40354923D-15  0.22704042D-15 -0.80784308D-16 -0.19133620D-15 -0.77041241D-16
  0.45683775D-18 -0.58324116D-17 -0.10913766D-16 -0.18872219D-16 -0.30662607D-16
 -0.46839641D-16 -0.66302767D-16 -0.82707238D-16 -0.84090879D-16 -0.49578040D-16
  0.19776019D-16  0.52306548D-16  0.42716290D-16 -0.22816145D-16 -0.45063526D-16
 -0.20580736D-16 -0.32528123D-16 -0.41098693D+01 -0.54416322D+01 -0.60996705D+01
 -0.53709941D+01 -0.32258232D+01 -0.11728259D+01 -0.15037456D-02  0.23426224D+01
  0.31017262D+01  0.34768076D+01  0.30614626D+01  0.18387168D+01  0.66850987D+00
  0.85713383D-03 -0.51591344D-14 -0.68309013D-14 -0.76569393D-14 -0.67422291D-14
 -0.40493879D-14 -0.14722527D-14 -0.18876574D-17  0.89750921D-03  0.12525901D-02
  0.13437521D-02  0.12930317D-02  0.71227171D-03  0.34658347D-03 -0.96248711D-04
 -0.51157957D-03 -0.71397539D-03 -0.76593769D-03 -0.73702710D-03 -0.40599434D-03
 -0.19755231D-03  0.54861692D-04  0.10795438D-14  0.15066429D-14  0.16162946D-14
  0.15552870D-14  0.85673607D-15  0.41687821D-15 -0.11577007D-15 -0.17337145D+00
  0.98821597D-01 -0.44512538D-16  0.33378877D-04 -0.19025935D-04 -0.24242357D-17
 -0.25533095D-05  0.14553845D-05 -0.17616781D-17  0.95050841D-18 -0.10777978D-17
  0.12728936D-18  0.14262985D-17 -0.10026176D-04  0.57149129D-05  0.16046977D-16
  0.27658540D-16 -0.43705518D-16  0.30799467D-16 -0.29353776D-03  0.16731630D-03
 -0.69580394D-19 -0.18357816D-18  0.25315856D-18 -0.14403569D-18 -0.21268310D-05
  0.12122921D-05 -0.24003431D-05  0.13681938D-05 -0.40625111D-17 -0.24003431D-05
  0.13681938D-05 -0.49763729D-17  0.96013726D-05 -0.54727751D-05  0.17163906D-16
  0.33159034D-17  0.14775772D-05 -0.84221790D-06 -0.12936545D-17  0.14775772D-05
 -0.84221790D-06  0.23842968D-17 -0.59103089D-05  0.33688716D-05  0.14966668D-17
 -0.24068220D-17 -0.11296552D-16 -0.20373796D-16 -0.30041151D-16  0.65898052D-16
  0.78822923D-16  0.38374339D-16 -0.27566084D-03  0.15712647D-03 -0.87292318D-16
  0.54313562D-04 -0.30958689D-04 -0.11237484D-15  0.92654397D-04 -0.52812936D-04
 -0.28021964D-16  0.36590993D-16 -0.36290440D-16 -0.30055290D-18 -0.72037909D-17
  0.43936092D-03 -0.25043539D-03 -0.69071420D-17 -0.13300435D-16  0.20207577D-16
  0.76998309D-17 -0.13644613D-03  0.77774189D-04
MO    4     MO 0.0        OCC NO =    2.0000000  ORB. ENERGY =   -3.212159
  0.24901610D-16  0.46557381D-16  0.80386789D-16  0.12967119D-15  0.19461467D-15
  0.26242395D-15  0.29362893D-15  0.22907026D-15  0.86166141D-16  0.63558471D-17
 -0.37478985D-18  0.10350736D-18  0.64651564D-20 -0.75153995D-16 -0.14074760D-15
 -0.24304035D-15 -0.39536547D-15 -0.60186374D-15 -0.85147852D-15 -0.10500111D-14
 -0.10525129D-14 -0.59215319D-15  0.21069678D-15  0.49903158D-15  0.20093434D-15
 -0.11914968D-17 -0.29929668D-16 -0.56005200D-16 -0.96844885D-16 -0.15734857D-15
 -0.24036282D-15 -0.34024001D-15 -0.42442137D-15 -0.43152168D-15 -0.25441522D-15
  0.10148284D-15  0.26841686D-15  0.21920338D-15 -0.11708358D-15 -0.74130483D-16
 -0.56080447D-16  0.37696587D-16  0.23426224D+01  0.31017262D+01  0.34768076D+01
  0.30614626D+01  0.18387168D+01  0.66850987D+00  0.85713383D-03  0.41098693D+01
  0.54416322D+01  0.60996705D+01  0.53709941D+01  0.32258232D+01  0.11728259D+01
  0.15037456D-02  0.50936881D-15  0.67442478D-15  0.75598071D-15  0.66567005D-15
  0.39980194D-15  0.14535765D-15  0.18637115D-18 -0.51157957D-03 -0.71397539D-03
 -0.76593769D-03 -0.73702710D-03 -0.40599434D-03 -0.19755231D-03  0.54861692D-04
 -0.89750921D-03 -0.12525901D-02 -0.13437521D-02 -0.12930317D-02 -0.71227171D-03
 -0.34658347D-03  0.96248711D-04 -0.11687761D-14 -0.16311781D-14 -0.17498933D-14
 -0.16838430D-14 -0.92755165D-15 -0.45133629D-15  0.12533932D-15  0.98821597D-01
  0.17337145D+00 -0.31023831D-15 -0.19025935D-04 -0.33378877D-04  0.28176802D-16
  0.14553845D-05  0.25533095D-05  0.12737060D-17 -0.59391969D-17 -0.33613950D-18
  0.62753364D-17 -0.87667065D-17  0.57149129D-05  0.10026176D-04 -0.31061087D-16
 -0.47916290D-16  0.78977378D-16  0.32374177D-16  0.16731630D-03  0.29353776D-03
  0.23126511D-18  0.39506897D-18 -0.62633408D-18  0.35773815D-17  0.12122921D-05
  0.21268310D-05  0.13681938D-05  0.24003431D-05  0.21312684D-16  0.13681938D-05
  0.24003431D-05 -0.29604163D-16 -0.54727751D-05 -0.96013726D-05 -0.34333888D-16
 -0.78597937D-18 -0.84221790D-06 -0.14775772D-05 -0.45488123D-17 -0.84221790D-06
 -0.14775772D-05  0.59252077D-17  0.33688716D-05  0.59103089D-05  0.77212291D-17
  0.58725523D-18  0.23944464D-16  0.43184828D-16  0.63676003D-16 -0.23592724D-15
 -0.53685627D-16 -0.40248877D-16  0.15712647D-03  0.27566084D-03  0.19313512D-15
 -0.30958689D-04 -0.54313562D-04  0.17578197D-15 -0.52812936D-04 -0.92654397D-04
  0.36331160D-16  0.39016086D-16  0.33891332D-16 -0.72907418D-16  0.50421110D-18
 -0.25043539D-03 -0.43936092D-03  0.67526249D-17  0.12682677D-16 -0.19435302D-16
  0.68780521D-18  0.77774189D-04  0.13644613D-03
MO    5     MO 0.0        OCC NO =    2.0000000  ORB. ENERGY =   -3.211125
 -0.11044173D-03 -0.20648776D-03 -0.35652539D-03 -0.57510783D-03 -0.86314021D-03
 -0.11638828D-02 -0.13022808D-02 -0.10159551D-02 -0.38215754D-03 -0.28188971D-04
  0.16622395D-05 -0.45906798D-06 -0.28673771D-07  0.67230533D-03  0.12590863D-02
  0.21741668D-02  0.35368221D-02  0.53840944D-02  0.76170741D-02  0.93930873D-02
  0.94154675D-02  0.52972267D-02 -0.18848309D-02 -0.44641884D-02 -0.17974989D-02
  0.10658777D-04  0.12748178D-04  0.23854733D-04  0.41249900D-04  0.67020710D-04
  0.10237962D-03  0.14492109D-03  0.18077712D-03  0.18380141D-03  0.10836506D-03
 -0.43225379D-04 -0.11432889D-03 -0.93367013D-04  0.49870326D-04  0.66252882D-03
  0.51541138D-03 -0.28441289D-04 -0.21047522D-14 -0.27867765D-14 -0.31237720D-14
 -0.27506012D-14 -0.16520132D-14 -0.60062927D-15 -0.77010033D-18  0.31595019D-14
  0.41833074D-14  0.46891808D-14  0.41290038D-14  0.24798828D-14  0.90162126D-15
  0.11560190D-17  0.47496477D+01  0.62887245D+01  0.70491989D+01  0.62070903D+01
  0.37279832D+01  0.13553983D+01  0.17378318D-02  0.49563669D-16  0.69172504D-16
  0.74206798D-16  0.71405836D-16  0.39334192D-16  0.19139579D-16 -0.53151981D-17
  0.17049800D-15  0.23795199D-15  0.25526986D-15  0.24563461D-15  0.13530881D-15
  0.65839757D-16 -0.18284172D-16 -0.36638271D-02 -0.51133441D-02 -0.54854874D-02
 -0.52784357D-02 -0.29076475D-02 -0.14148288D-02  0.39290810D-03 -0.95681315D-16
  0.12201675D-15  0.19478829D+00 -0.43568994D-17 -0.77097584D-17  0.69833259D-04
 -0.21611178D-18  0.34029515D-18  0.41916887D-06 -0.25916746D-04 -0.25916746D-04
  0.51833492D-04 -0.73300765D-17 -0.85678528D-17 -0.42794646D-17 -0.11950013D-03
 -0.11950013D-03  0.23900025D-03  0.22744392D-16 -0.46464565D-17 -0.33824865D-16
 -0.60912540D-06 -0.60912540D-06  0.12182508D-05  0.24506368D-17 -0.12764292D-18
 -0.12913665D-17  0.40429647D-19 -0.22000463D-17  0.94263411D-05  0.32297660D-19
 -0.22042463D-17 -0.14139512D-04 -0.15358660D-18  0.88043853D-17 -0.14139512D-04
 -0.32907939D-18  0.16827482D-18  0.43380276D-18  0.27047979D-05  0.16853519D-18
  0.43397326D-18 -0.40571969D-05 -0.67335965D-18 -0.17353815D-17 -0.40571969D-05
  0.49656132D-18  0.33519386D-03  0.60453593D-03  0.89138788D-03  0.50269149D-04
 -0.95849876D-03 -0.22451111D-04 -0.49568614D-17 -0.74217086D-18 -0.14779866D-02
 -0.27430310D-17 -0.23114542D-16  0.31766509D-03  0.13534671D-16  0.30156958D-16
  0.17436322D-03  0.74468788D-04  0.74468788D-04 -0.14893758D-03 -0.24646590D-19
  0.23559613D-16  0.42912166D-16 -0.14564523D-05 -0.14564523D-05  0.29129047D-05
  0.98508853D-18 -0.11259904D-16 -0.31312732D-16
MO    6     MO 0.0        OCC NO =    2.0000000  ORB. ENERGY =   -0.494698
  0.10618560D-03  0.19853027D-03  0.34278583D-03  0.55294468D-03  0.82987704D-03
  0.11190298D-02  0.12520943D-02  0.97680280D-03  0.36743018D-03  0.27102642D-04
 -0.15981812D-05  0.44137670D-06  0.27568759D-07 -0.10749795D-02 -0.20132101D-02
 -0.34763739D-02 -0.56551853D-02 -0.86088728D-02 -0.12179285D-01 -0.15019033D-01
 -0.15054818D-01 -0.84699761D-02  0.30137416D-02  0.71379934D-02  0.28741026D-02
 -0.17042801D-04 -0.19623614D-01 -0.36720235D-01 -0.63497086D-01 -0.10316679D+00
 -0.15759571D+00 -0.22308095D+00 -0.27827510D+00 -0.28293047D+00 -0.16680927D+00
  0.66537994D-01  0.17598956D+00  0.14372237D+00 -0.76766741D-01 -0.18961631D-01
 -0.13992520D-01 -0.94709533D-04 -0.43928678D-14 -0.58163336D-14 -0.65196833D-14
 -0.57408316D-14 -0.34479478D-14 -0.12535847D-14 -0.16072909D-17 -0.61863748D-14
 -0.81910089D-14 -0.91815202D-14 -0.80846812D-14 -0.48556656D-14 -0.17653945D-14
 -0.22635108D-17  0.92000554D-01  0.12181243D+00  0.13654280D+00  0.12023118D+00
  0.72210938D-01  0.26254030D-01  0.33661758D-04  0.12278909D-15  0.17136805D-15
  0.18384001D-15  0.17690091D-15  0.97446575D-16  0.47416416D-16 -0.13167878D-16
 -0.53843602D-16 -0.75145703D-16 -0.80614721D-16 -0.77571889D-16 -0.42730787D-16
 -0.20792324D-16  0.57741773D-17  0.23239944D+00  0.32434344D+00  0.34794878D+00
  0.33481533D+00  0.18443437D+00  0.89743706D-01 -0.24922470D-01 -0.17403043D-15
 -0.26409424D-15 -0.24331288D-02 -0.11591328D-17 -0.39445796D-17 -0.10835920D-02
  0.31243213D-19  0.15165087D-18  0.18411677D-05  0.61585388D-03  0.61585388D-03
 -0.12317078D-02 -0.29243585D-17  0.87575225D-18 -0.18032369D-17  0.50480676D-02
  0.50480676D-02 -0.10096135D-01  0.39104624D-17  0.35875963D-18  0.41972645D-18
  0.19368834D-05  0.19368834D-05 -0.38737668D-05  0.13402916D-17 -0.16079878D-18
 -0.47975195D-18  0.14084858D-18 -0.51995618D-18 -0.98083085D-03  0.12661279D-18
 -0.47570860D-18  0.14712463D-02 -0.54915853D-18  0.20355771D-17  0.14712463D-02
 -0.12802141D-17  0.70578399D-19  0.13026099D-18 -0.21300940D-04  0.60868371D-19
  0.12855734D-18  0.31951410D-04 -0.27260357D-18 -0.51934031D-18  0.31951410D-04
  0.80373321D-18 -0.36774403D-01 -0.66324150D-01 -0.97794921D-01 -0.74793164D-01
 -0.21914928D-01  0.69011919D-04  0.26490437D-17  0.20424068D-17  0.13125966D-01
 -0.55955219D-18 -0.33006219D-17  0.61597411D-02  0.71323450D-17  0.10988746D-16
  0.26947683D-03  0.22864049D-02  0.22864049D-02 -0.45728098D-02  0.66639325D-18
 -0.78804736D-17 -0.37486153D-17  0.13832786D-03  0.13832786D-03 -0.27665572D-03
 -0.42713071D-18 -0.29278535D-17 -0.52563834D-17
MO    7     MO 0.0        OCC NO =    2.0000000  ORB. ENERGY =   -0.289099
  0.57771233D-04  0.10801218D-03  0.18649573D-03  0.30083455D-03  0.45150210D-03
  0.60881826D-03  0.68121320D-03  0.53143839D-03  0.19990371D-03  0.14745437D-04
 -0.86950490D-06  0.24013498D-06  0.14999032D-07 -0.66686856D-03 -0.12489043D-02
 -0.21565848D-02 -0.35082207D-02 -0.53405545D-02 -0.75554766D-02 -0.93171277D-02
 -0.93393269D-02 -0.52543893D-02  0.18695887D-02  0.44280876D-02  0.17829630D-02
 -0.10572582D-04  0.18004822D-01  0.33691108D-01  0.58259081D-01  0.94656351D-01
  0.14459532D+00  0.20467855D+00  0.25531962D+00  0.25959096D+00  0.15304883D+00
 -0.61049139D-01 -0.16147182D+00 -0.13186642D+00  0.70434096D-01  0.21270964D-01
  0.32172696D-01 -0.29180651D-03  0.45363285D-14  0.60062812D-14  0.67326007D-14
  0.59283135D-14  0.35605496D-14  0.12945238D-14  0.16597812D-17  0.68800997D-14
  0.91095285D-14  0.10211113D-13  0.89912774D-14  0.54001680D-14  0.19633615D-14
  0.25173354D-17  0.56142941D-01  0.74335510D-01  0.83324655D-01  0.73370558D-01
  0.44066413D-01  0.16021408D-01  0.20541942D-04  0.98314045D-16  0.13720995D-15
  0.14719593D-15  0.14163997D-15  0.78022947D-16  0.37965095D-16 -0.10543179D-16
 -0.16894573D-15 -0.23578559D-15 -0.25294580D-15 -0.24339827D-15 -0.13407691D-15
 -0.65240330D-16  0.18117707D-16  0.54128299D+00  0.75543034D+00  0.81040969D+00
  0.77982049D+00  0.42956725D+00  0.20902263D+00 -0.58047081D-01  0.18760659D-15
  0.29604052D-15 -0.10441749D-01 -0.22656945D-17  0.28900447D-17 -0.85441856D-02
  0.89949956D-18 -0.57721726D-18 -0.78105645D-04  0.87699607D-03  0.87699607D-03
 -0.17539921D-02 -0.25618128D-17 -0.11221695D-17 -0.46211842D-18  0.64324102D-02
  0.64324102D-02 -0.12864820D-01  0.16876986D-16  0.11457281D-17 -0.59143702D-19
  0.33028178D-04  0.33028178D-04 -0.66056356D-04  0.21132079D-17 -0.12086778D-18
 -0.37428786D-18 -0.11109870D-19 -0.27401108D-18 -0.68852147D-03  0.12875778D-19
 -0.32164322D-18  0.10327822D-02  0.20453831D-19  0.11436764D-17  0.10327822D-02
 -0.13382289D-17  0.10187890D-18  0.18504028D-18  0.54854867D-05  0.11607504D-18
  0.18686492D-18 -0.82282300D-05 -0.42171175D-18 -0.74198576D-18 -0.82282300D-05
  0.42763698D-18 -0.26043835D-01 -0.46971130D-01 -0.69258903D-01 -0.53087994D-01
 -0.28095989D-01  0.48999292D-03  0.16421633D-17  0.46207236D-17  0.31947039D-02
 -0.73237944D-18 -0.37511528D-17 -0.13049785D-02  0.75982403D-17  0.11947075D-16
  0.78539063D-03  0.94218058D-03  0.94218058D-03 -0.18843612D-02  0.38414656D-18
 -0.49151778D-17 -0.25493256D-17 -0.77794245D-04 -0.77794245D-04  0.15558849D-03
 -0.13138397D-18 -0.23949477D-17 -0.65982156D-17
END DATA
RHF
