 Molden2AIM, Version 4.0.0 (06/02/2016)           Time: Sun Jun 24 19:47:30 2018
GAUSSIAN              7 MOL ORBITALS    169 PRIMITIVES        2 NUCLEI
  Al   1    (CENTRE  1)   0.00000000  0.00000000 -0.01387626  CHARGE = 13.0
  H    2    (CENTRE  2)   0.00000000  0.00000000  3.13186956  CHARGE =  1.0
CENTRE ASSIGNMENTS    1  1  1  1  1  1  1  1  1  1  1  1  1  1  1  1  1  1  1  1
CENTRE ASSIGNMENTS    1  1  1  1  1  1  1  1  1  1  1  1  1  1  1  1  1  1  1  1
CENTRE ASSIGNMENTS    1  1  1  1  1  1  1  1  1  1  1  1  1  1  1  1  1  1  1  1
CENTRE ASSIGNMENTS    1  1  1  1  1  1  1  1  1  1  1  1  1  1  1  1  1  1  1  1
CENTRE ASSIGNMENTS    1  1  1  1  1  1  1  1  1  1  1  1  1  1  1  1  1  1  1  1
CENTRE ASSIGNMENTS    1  1  1  1  1  1  1  1  1  1  1  1  1  1  1  1  1  1  1  1
CENTRE ASSIGNMENTS    1  1  1  1  1  1  1  1  2  2  2  2  2  2  2  2  2  2  2  2
CENTRE ASSIGNMENTS    2  2  2  2  2  2  2  2  2  2  2  2  2  2  2  2  2  2  2  2
CENTRE ASSIGNMENTS    2  2  2  2  2  2  2  2  2
TYPE ASSIGNMENTS      1  1  1  1  1  1  1  1  1  1  1  1  1  1  1  1  1  1  1  1
TYPE ASSIGNMENTS      1  2  2  2  2  2  2  2  2  3  3  3  3  3  3  3  3  4  4  4
TYPE ASSIGNMENTS      4  4  4  4  4  2  2  3  3  4  4  2  3  4  2  3  4  2  3  4
TYPE ASSIGNMENTS      2  3  4  5  6  7  8  9 10  5  6  7  8  9 10  5  6  7  8  9
TYPE ASSIGNMENTS     10  5  6  7  8  9 10  5  6  7  8  9 10 11 12 13 17 14 15 18
TYPE ASSIGNMENTS     19 16 20 11 12 13 17 14 15 18 19 16 20 21 22 23 24 25 26 27
TYPE ASSIGNMENTS     28 29 30 31 32 33 34 35  1  1  1  1  1  1  1  2  3  4  2  3
TYPE ASSIGNMENTS      4  2  3  4  2  3  4  5  6  7  8  9 10  5  6  7  8  9 10 11
TYPE ASSIGNMENTS     12 13 17 14 15 18 19 16 20
EXPONENTS  0.7545508D+06 0.1129994D+06 0.2571583D+05 0.7283603D+04 0.2376001D+04
EXPONENTS  0.8576547D+03 0.3343892D+03 0.1384850D+03 0.6015037D+02 0.2712761D+02
EXPONENTS  0.2253650D+03 0.6934197D+02 0.2661934D+02 0.1234942D+02 0.4587879D+01
EXPONENTS  0.2057134D+01 0.9086455D+00 0.2422699D+00 0.1124814D+00 0.4815649D-01
EXPONENTS  0.2113485D-01 0.1489612D+04 0.3530140D+03 0.1144076D+03 0.4331219D+02
EXPONENTS  0.1802732D+02 0.7967543D+01 0.3609040D+01 0.1645608D+01 0.1489612D+04
EXPONENTS  0.3530140D+03 0.1144076D+03 0.4331219D+02 0.1802732D+02 0.7967543D+01
EXPONENTS  0.3609040D+01 0.1645608D+01 0.1489612D+04 0.3530140D+03 0.1144076D+03
EXPONENTS  0.4331219D+02 0.1802732D+02 0.7967543D+01 0.3609040D+01 0.1645608D+01
EXPONENTS  0.3473119D+02 0.1255308D+01 0.3473119D+02 0.1255308D+01 0.3473119D+02
EXPONENTS  0.1255308D+01 0.7363553D+00 0.7363553D+00 0.7363553D+00 0.2468647D+00
EXPONENTS  0.2468647D+00 0.2468647D+00 0.9482197D-01 0.9482197D-01 0.9482197D-01
EXPONENTS  0.3621417D-01 0.3621417D-01 0.3621417D-01 0.1970000D+01 0.1970000D+01
EXPONENTS  0.1970000D+01 0.1970000D+01 0.1970000D+01 0.1970000D+01 0.4370000D+00
EXPONENTS  0.4370000D+00 0.4370000D+00 0.4370000D+00 0.4370000D+00 0.4370000D+00
EXPONENTS  0.1950000D+00 0.1950000D+00 0.1950000D+00 0.1950000D+00 0.1950000D+00
EXPONENTS  0.1950000D+00 0.8000000D-01 0.8000000D-01 0.8000000D-01 0.8000000D-01
EXPONENTS  0.8000000D-01 0.8000000D-01 0.3066400D-01 0.3066400D-01 0.3066400D-01
EXPONENTS  0.3066400D-01 0.3066400D-01 0.3066400D-01 0.1540000D+00 0.1540000D+00
EXPONENTS  0.1540000D+00 0.1540000D+00 0.1540000D+00 0.1540000D+00 0.1540000D+00
EXPONENTS  0.1540000D+00 0.1540000D+00 0.1540000D+00 0.4010000D+00 0.4010000D+00
EXPONENTS  0.4010000D+00 0.4010000D+00 0.4010000D+00 0.4010000D+00 0.4010000D+00
EXPONENTS  0.4010000D+00 0.4010000D+00 0.4010000D+00 0.3570000D+00 0.3570000D+00
EXPONENTS  0.3570000D+00 0.3570000D+00 0.3570000D+00 0.3570000D+00 0.3570000D+00
EXPONENTS  0.3570000D+00 0.3570000D+00 0.3570000D+00 0.3570000D+00 0.3570000D+00
EXPONENTS  0.3570000D+00 0.3570000D+00 0.3570000D+00 0.1906917D+03 0.2860553D+02
EXPONENTS  0.6509594D+01 0.1841246D+01 0.5985373D+00 0.2139762D+00 0.8031629D-01
EXPONENTS  0.2292000D+01 0.2292000D+01 0.2292000D+01 0.8380000D+00 0.8380000D+00
EXPONENTS  0.8380000D+00 0.2920000D+00 0.2920000D+00 0.2920000D+00 0.8406320D-01
EXPONENTS  0.8406320D-01 0.8406320D-01 0.2062000D+01 0.2062000D+01 0.2062000D+01
EXPONENTS  0.2062000D+01 0.2062000D+01 0.2062000D+01 0.6620000D+00 0.6620000D+00
EXPONENTS  0.6620000D+00 0.6620000D+00 0.6620000D+00 0.6620000D+00 0.1397000D+01
EXPONENTS  0.1397000D+01 0.1397000D+01 0.1397000D+01 0.1397000D+01 0.1397000D+01
EXPONENTS  0.1397000D+01 0.1397000D+01 0.1397000D+01 0.1397000D+01
MO    1     MO 0.0        OCC NO =    2.0000000  ORB. ENERGY =  -58.491394
  0.24387674D+00  0.45638707D+00  0.79044233D+00  0.12920361D+01  0.20122884D+01
  0.29716110D+01  0.40761646D+01  0.49236332D+01  0.47586790D+01  0.30092633D+01
  0.32865348D-02  0.11691069D-01  0.19547376D-01  0.87071465D+00  0.43571848D-01
 -0.25852288D-02  0.89324552D-03 -0.13058270D-03  0.33757142D-04  0.35083305D-05
  0.37269269D-06 -0.13167306D-17 -0.18891891D-17 -0.24914415D-17 -0.28887405D-17
 -0.28533351D-17 -0.21961990D-17 -0.12152307D-17 -0.43952249D-18  0.48146016D-18
  0.69077854D-18  0.91099105D-18  0.10562627D-17  0.10433168D-17  0.80303616D-18
  0.44434690D-18  0.16071060D-18  0.32020872D-03  0.45942185D-03  0.60588042D-03
  0.70249745D-03  0.69388740D-03  0.53408196D-03  0.29552550D-03  0.10688514D-03
 -0.46460194D-17  0.24644779D-17  0.96449355D-18 -0.51161497D-18  0.80123995D-03
 -0.42501720D-03 -0.10941708D-17  0.18933301D-18  0.24505325D-03  0.79529931D-19
 -0.30887007D-19 -0.78246662D-04 -0.18487690D-19  0.42432066D-20  0.64317901D-05
  0.45571789D-21  0.26854288D-20  0.49342534D-06 -0.32446844D-04 -0.32446844D-04
  0.64893688D-04  0.26083173D-17  0.24178459D-18 -0.13553268D-17  0.77360626D-05
  0.77360626D-05 -0.15472125D-04 -0.34569108D-19 -0.13941760D-19  0.10533498D-19
  0.71475721D-05  0.71475721D-05 -0.14295144D-04  0.20448147D-20  0.40429869D-20
  0.13243989D-19 -0.40176832D-06 -0.40176832D-06  0.80353664D-06 -0.20966637D-21
  0.83441128D-21 -0.20807347D-20  0.15170710D-07  0.15170710D-07 -0.30341419D-07
  0.31053986D-22 -0.32132028D-22  0.29221997D-21 -0.69417895D-21 -0.93185324D-21
 -0.77082221D-06 -0.61215909D-21 -0.10114210D-20  0.11562333D-05  0.26946960D-20
  0.38069807D-20  0.11562333D-05  0.13989667D-21  0.82516256D-21  0.27329883D-20
 -0.11076628D-04 -0.12590327D-20  0.14848544D-20  0.16614942D-04 -0.12164550D-20
 -0.96838192D-20  0.16614942D-04 -0.21067627D-20 -0.74263556D-06 -0.74263556D-06
 -0.19803615D-05  0.33425731D-21  0.14851544D-20 -0.39814195D-21 -0.22161132D-20
 -0.21713519D-20  0.26516083D-20 -0.14852711D-05  0.59410845D-05  0.59410845D-05
 -0.13064852D-20  0.20585923D-20  0.19165391D-21 -0.23808948D-05 -0.44312047D-05
 -0.74674151D-05 -0.11147931D-04  0.95288869D-05  0.77553876D-04 -0.31166969D-04
 -0.24531049D-18  0.13489536D-18  0.35014135D-04  0.73842848D-19 -0.44632818D-19
 -0.39002588D-04 -0.19803829D-19  0.79484641D-20 -0.53385088D-04 -0.14826256D-20
 -0.47914023D-20  0.70782975D-05  0.13614319D-04  0.13614319D-04 -0.27228638D-04
 -0.10596415D-19  0.34628032D-18  0.37916064D-18 -0.18342973D-04 -0.18342973D-04
  0.36685946D-04  0.58269952D-21 -0.31587251D-19 -0.28007335D-19 -0.36083041D-19
  0.81166214D-20  0.78499411D-05 -0.35557124D-19  0.47848881D-20 -0.11774912D-04
  0.14380625D-18 -0.29134752D-19 -0.11774912D-04 -0.10903402D-19
MO    2     MO 0.0        OCC NO =    2.0000000  ORB. ENERGY =   -4.901621
  0.64241933D-01  0.12022134D+00  0.20821807D+00  0.34034773D+00  0.53007637D+00
  0.78278083D+00  0.10737420D+01  0.12969819D+01  0.12535297D+01  0.79269919D+00
  0.11110899D+00  0.39524393D+00  0.66084476D+00  0.47718088D+00 -0.57066253D+00
 -0.68760376D+00 -0.21539680D+00 -0.48774363D-02  0.17635713D-02  0.26069387D-04
  0.11074036D-04 -0.58159396D-16 -0.83444626D-16 -0.11004584D-15 -0.12759436D-15
 -0.12603052D-15 -0.97005115D-16 -0.53676191D-16 -0.19413509D-16 -0.28057487D-15
 -0.40255687D-15 -0.53088753D-15 -0.61554578D-15 -0.60800144D-15 -0.46797593D-15
 -0.25894681D-15 -0.93655423D-16 -0.69038410D-02 -0.99053372D-02 -0.13063048D-01
 -0.15146154D-01 -0.14960518D-01 -0.11515042D-01 -0.63716598D-02 -0.23044906D-02
  0.81730476D-18 -0.43353877D-18 -0.11461365D-18  0.60796737D-19  0.34122334D-02
 -0.18100169D-02  0.92962594D-17 -0.18056071D-16 -0.70812021D-03 -0.14754480D-17
 -0.88327106D-18  0.20179260D-03 -0.32277096D-19  0.48799285D-18  0.33833744D-03
  0.92377731D-19 -0.24207507D-18  0.52814658D-05 -0.27759326D-02 -0.27759326D-02
  0.55518651D-02 -0.86643380D-17 -0.76274539D-17 -0.24443165D-17 -0.19052492D-03
 -0.19052492D-03  0.38104985D-03 -0.73330212D-18 -0.36900254D-18 -0.98215478D-18
 -0.28683569D-04 -0.28683569D-04  0.57367138D-04 -0.10350329D-18  0.12430507D-18
 -0.21143843D-18 -0.14126821D-04 -0.14126821D-04  0.28253642D-04  0.21406783D-19
 -0.35359238D-19 -0.12567301D-19  0.39914686D-06  0.39914686D-06 -0.79829373D-06
 -0.16150749D-20  0.53512528D-20 -0.89243483D-20  0.45808847D-20  0.53719002D-19
  0.10132271D-04  0.61173757D-22  0.59970602D-19 -0.15198406D-04 -0.13803828D-19
 -0.22112761D-18 -0.15198406D-04  0.25967531D-21  0.79059298D-20 -0.16130895D-18
  0.75273308D-04  0.14671808D-18 -0.21938577D-19 -0.11290996D-03 -0.17043587D-18
  0.50586544D-18 -0.11290996D-03  0.55053679D-19  0.51663950D-05  0.51663950D-05
  0.13777053D-04 -0.24304032D-19  0.41053161D-19  0.29668090D-19  0.10256198D-18
 -0.40985036D-19 -0.11542628D-18  0.10332790D-04 -0.41331160D-04 -0.41331160D-04
  0.38592901D-19 -0.20437417D-21 -0.16092174D-19 -0.84387467D-05 -0.15705782D-04
 -0.26467202D-04 -0.39512273D-04 -0.17454687D-03 -0.74582529D-03 -0.61299072D-03
  0.23986536D-17 -0.18604052D-18 -0.27277144D-03 -0.95467088D-18  0.31843383D-18
  0.49601955D-03  0.72340542D-18 -0.97628309D-19  0.39479488D-03 -0.88534796D-19
  0.31826892D-18  0.13060721D-03  0.61644743D-04  0.61644743D-04 -0.12328949D-03
  0.52780855D-18 -0.80107893D-18 -0.18828018D-18  0.17714218D-03  0.17714218D-03
 -0.35428436D-03 -0.18442707D-18  0.48898367D-19 -0.84650199D-19  0.15918576D-18
  0.94171891D-19  0.27538651D-03  0.11344328D-18  0.22737950D-18 -0.41307976D-03
 -0.59100055D-18 -0.50989517D-18 -0.41307976D-03  0.84665743D-18
MO    3     MO 0.0        OCC NO =    2.0000000  ORB. ENERGY =   -3.210856
  0.35190123D-17  0.65854240D-17  0.11405665D-16  0.18643397D-16  0.29036257D-16
  0.42878775D-16  0.58816899D-16  0.71045423D-16  0.68665221D-16  0.43422078D-16
  0.61428181D-17  0.21851620D-16  0.36535738D-16  0.32531606D-16 -0.17346644D-16
 -0.17374800D-15  0.14339715D-15  0.33231068D-16 -0.14939739D-15 -0.83259551D-16
  0.13290876D-16 -0.26518917D+01 -0.38048213D+01 -0.50177560D+01 -0.58179150D+01
 -0.57466087D+01 -0.44231384D+01 -0.24474712D+01 -0.88519702D+00  0.18191482D+00
  0.26100364D+00  0.34420870D+00  0.39909811D+00  0.39420663D+00  0.30341904D+00
  0.16789195D+00  0.60722863D-01 -0.61913592D-14 -0.88830986D-14 -0.11714932D-13
 -0.13583059D-13 -0.13416581D-13 -0.10326681D-13 -0.57140995D-14 -0.20666654D-14
  0.37925761D-02 -0.20117695D-02 -0.26016364D-03  0.13800363D-03 -0.28494355D-15
  0.15114812D-15 -0.14456108D+00  0.99166203D-02 -0.18592110D-15 -0.28890320D-02
  0.19818221D-03 -0.19800235D-15  0.97068767D-04 -0.66587363D-05 -0.88897376D-16
 -0.11905726D-04  0.81671060D-06 -0.11614850D-17  0.16356090D-16  0.20621299D-15
 -0.22256908D-15 -0.15801529D-15 -0.97544717D-02  0.66913855D-03  0.35873474D-16
  0.21948372D-16 -0.57821846D-16  0.69702776D-16 -0.34806670D-03  0.23876726D-04
  0.24176187D-16  0.29796514D-16 -0.53972701D-16 -0.11807923D-16  0.13555264D-03
 -0.92986584D-05  0.59715490D-17  0.49946589D-17 -0.10966208D-16 -0.33563537D-17
 -0.90242994D-05  0.61905009D-06  0.33238987D-18  0.11648941D-18 -0.44887928D-18
  0.26751486D-18  0.29961945D-06 -0.20553335D-07  0.35779231D-05 -0.24543884D-06
 -0.59291258D-17  0.35779231D-05 -0.24543884D-06  0.75196200D-17 -0.14311692D-04
  0.98175538D-06  0.10267758D-16 -0.33121790D-17 -0.97332023D-04  0.66767951D-05
 -0.38702337D-16 -0.97332023D-04  0.66767951D-05  0.68340546D-16  0.38932809D-03
 -0.26707180D-04  0.47766466D-16  0.12352689D-16 -0.60249186D-17 -0.57971007D-17
 -0.63342502D-17  0.29487946D-18 -0.26832955D-04  0.33434270D-18  0.18406906D-05
  0.35777273D-04 -0.24542542D-05  0.16463308D-16  0.19686204D-16  0.18319297D-16
  0.18406906D-05 -0.26832955D-04 -0.18876665D-17  0.23752731D-16  0.44207418D-16
  0.74497831D-16  0.11121609D-15 -0.10516914D-15  0.44537164D-15  0.82959139D-16
  0.77994574D-04 -0.53502822D-05 -0.23087277D-15 -0.19610902D-03  0.13452712D-04
 -0.16487068D-17 -0.10367907D-03  0.71121910D-05 -0.28336801D-15  0.13980346D-04
 -0.95902562D-06  0.57504366D-18  0.15598539D-15  0.12826834D-15 -0.28425373D-15
  0.76180764D-16 -0.18130791D-03  0.12437384D-04 -0.71070979D-16 -0.11522885D-15
  0.18629983D-15 -0.50848903D-17  0.44998060D-03 -0.30867829D-04  0.13668592D-03
 -0.93763989D-05 -0.10152508D-15  0.13668592D-03 -0.93763989D-05  0.26843840D-15
 -0.54674368D-03  0.37505596D-04  0.36136830D-16 -0.18300709D-16
MO    4     MO 0.0        OCC NO =    2.0000000  ORB. ENERGY =   -3.210856
  0.65826112D-16  0.12318594D-15  0.21335264D-15  0.34874056D-15  0.54314784D-15
  0.80208388D-15  0.11002200D-14  0.13289649D-14  0.12844412D-14  0.81224682D-15
  0.12100134D-15  0.43043359D-15  0.71968160D-15  0.56160979D-15 -0.75077882D-15
 -0.93228253D-15 -0.74375343D-15  0.22036100D-15  0.53179770D-15 -0.12485865D-15
  0.12507451D-16  0.18191482D+00  0.26100364D+00  0.34420870D+00  0.39909811D+00
  0.39420663D+00  0.30341904D+00  0.16789195D+00  0.60722863D-01  0.26518917D+01
  0.38048213D+01  0.50177560D+01  0.58179150D+01  0.57466087D+01  0.44231384D+01
  0.24474712D+01  0.88519702D+00 -0.18584349D-14 -0.26664032D-14 -0.35164229D-14
 -0.40771711D-14 -0.40271999D-14 -0.30997173D-14 -0.17151778D-14 -0.62034246D-15
 -0.26016364D-03  0.13800363D-03 -0.37925761D-02  0.20117695D-02  0.55466429D-15
 -0.29422131D-15  0.99166203D-02  0.14456108D+00 -0.21108287D-15  0.19818221D-03
  0.28890320D-02  0.16198072D-15 -0.66587363D-05 -0.97068767D-04 -0.54772299D-16
  0.81671060D-06  0.11905726D-04 -0.19654324D-16  0.28106820D-15  0.13016890D-15
 -0.41123711D-15  0.16855754D-16  0.66913855D-03  0.97544717D-02  0.39031043D-16
 -0.81573013D-16  0.42541970D-16  0.52448082D-16  0.23876726D-04  0.34806670D-03
 -0.37826021D-16 -0.88029872D-17  0.46629009D-16 -0.22530774D-16 -0.92986584D-05
 -0.13555264D-03  0.44184112D-17  0.27912402D-17 -0.72096514D-17  0.66808327D-17
  0.61905009D-06  0.90242994D-05  0.24678814D-18  0.44714452D-18 -0.69393266D-18
 -0.51704508D-18 -0.20553335D-07 -0.29961945D-06 -0.24543884D-06 -0.35779231D-05
  0.33881964D-17 -0.24543884D-06 -0.35779231D-05 -0.73549458D-17  0.98175538D-06
  0.14311692D-04 -0.28096434D-17  0.27641129D-17  0.66767951D-05  0.97332023D-04
  0.31264264D-16  0.66767951D-05  0.97332023D-04 -0.26808639D-16 -0.26707180D-04
 -0.38932809D-03 -0.66984153D-16 -0.69133766D-17  0.66112121D-17  0.75631794D-17
  0.80168436D-18  0.21500488D-19  0.18406906D-05  0.23081874D-19  0.26832955D-04
 -0.24542542D-05 -0.35777273D-04 -0.40118122D-16  0.45084866D-18 -0.52609548D-17
  0.26832955D-04  0.18406906D-05 -0.13374708D-18  0.41677087D-16  0.77567351D-16
  0.13071560D-15  0.19514230D-15  0.19817677D-15 -0.20110304D-15  0.26969200D-15
 -0.53502822D-05 -0.77994574D-04 -0.20424928D-15  0.13452712D-04  0.19610902D-03
 -0.17553088D-16  0.71121910D-05  0.10367907D-03  0.15085239D-15 -0.95902562D-06
 -0.13980346D-04 -0.30637265D-16 -0.42120836D-15 -0.46145942D-15  0.88266779D-15
  0.57720366D-16  0.12437384D-04  0.18130791D-03  0.73765935D-16  0.10699615D-15
 -0.18076208D-15 -0.61174997D-17 -0.30867829D-04 -0.44998060D-03 -0.93763989D-05
 -0.13668592D-03 -0.53352046D-16 -0.93763989D-05 -0.13668592D-03  0.60644378D-16
  0.37505596D-04  0.54674368D-03  0.99411759D-16 -0.11038810D-17
MO    5     MO 0.0        OCC NO =    2.0000000  ORB. ENERGY =   -3.209713
  0.28213056D-03  0.52797467D-03  0.91442891D-03  0.14947012D-02  0.23279304D-02
  0.34377297D-02  0.47155405D-02  0.56959406D-02  0.55051122D-02  0.34812880D-02
  0.54875195D-03  0.19520550D-02  0.32638208D-02  0.18870894D-02 -0.26714231D-02
 -0.46082869D-02  0.20788498D-03  0.82030372D-03 -0.11937959D-02 -0.32359869D-03
  0.23027402D-04 -0.59351895D-14 -0.85155573D-14 -0.11230222D-13 -0.13021055D-13
 -0.12861465D-13 -0.98994106D-14 -0.54776767D-14 -0.19811564D-14  0.20240162D-14
  0.29039723D-14  0.38297264D-14  0.44404356D-14  0.43860121D-14  0.33758935D-14
  0.18679953D-14  0.67561324D-15  0.26679245D+01  0.38278245D+01  0.50480924D+01
  0.58530891D+01  0.57813516D+01  0.44498799D+01  0.24622681D+01  0.89054876D+00
 -0.11686905D-15  0.61993111D-16  0.14087812D-16 -0.74728706D-17  0.28714038D-02
 -0.15231342D-02 -0.29134571D-15  0.15275196D-15  0.14282716D+00  0.15918806D-16
  0.66868686D-17  0.23655878D-02 -0.99852680D-18 -0.39981591D-17 -0.57213699D-03
  0.39960974D-18  0.18628956D-17 -0.97652306D-07 -0.20371782D-02 -0.20371782D-02
  0.40743563D-02 -0.43900908D-16  0.10121745D-16  0.20011634D-16 -0.68509293D-04
 -0.68509293D-04  0.13701859D-03 -0.19760931D-16 -0.32802256D-17 -0.13462215D-16
  0.11668415D-03  0.11668415D-03 -0.23336830D-03  0.36505429D-17 -0.74787008D-17
  0.42709113D-17  0.14803129D-04  0.14803129D-04 -0.29606259D-04 -0.37781141D-18
  0.14362242D-17 -0.37165476D-18 -0.15656585D-06 -0.15656585D-06  0.31313171D-06
  0.19801141D-19 -0.99571238D-19  0.67148285D-19 -0.75345323D-19  0.15095632D-19
 -0.10833915D-04 -0.74078329D-19  0.19514958D-19  0.16250873D-04  0.30011430D-18
 -0.64801854D-19  0.16250873D-04  0.18585225D-19  0.19033143D-19  0.44715153D-18
 -0.23581098D-03  0.24690283D-19  0.46027786D-18  0.35371648D-03 -0.81789713D-19
 -0.18017325D-17  0.35371648D-03 -0.42643665D-18 -0.10680487D-04 -0.10680487D-04
 -0.28481298D-04 -0.12800143D-19  0.85115632D-18 -0.12674929D-19  0.11818569D-17
 -0.11320641D-17 -0.15694704D-17 -0.21360973D-04  0.85443894D-04  0.85443894D-04
  0.11628404D-17  0.84272321D-18  0.76425217D-19  0.90792033D-04  0.16897768D-03
  0.28475924D-03  0.42511047D-03  0.84980918D-03  0.10443595D-02  0.90483228D-03
  0.70081915D-18 -0.10802796D-16 -0.65614219D-04  0.25903460D-17  0.10754821D-17
 -0.11058853D-02  0.16562866D-17  0.37893042D-17 -0.56386117D-03  0.39551243D-19
 -0.14750417D-17 -0.18536992D-03 -0.20328761D-03 -0.20328761D-03  0.40657522D-03
 -0.38059127D-18  0.57696644D-16  0.40551928D-16 -0.17855315D-03 -0.17855315D-03
  0.35710631D-03  0.15983913D-18 -0.20938652D-16 -0.10225750D-16 -0.63267453D-18
 -0.49630649D-17  0.26435895D-05 -0.64444367D-18 -0.50070188D-17 -0.39653843D-05
  0.25424673D-17  0.19896213D-16 -0.39653843D-05  0.30506605D-17
MO    6     MO 0.0        OCC NO =    2.0000000  ORB. ENERGY =   -0.494229
  0.10882278D-01  0.20364924D-01  0.35271152D-01  0.57653289D-01  0.89792421D-01
  0.13259936D+00  0.18188680D+00  0.21970258D+00  0.21234198D+00  0.13427948D+00
  0.20685276D-01  0.73582969D-01  0.12303015D+00  0.87427741D-01 -0.11565226D+00
 -0.17357189D+00 -0.11401200D+00  0.54280890D-01  0.54205825D-01  0.78129871D-02
 -0.60267971D-04 -0.48610139D-15 -0.69743758D-15 -0.91977293D-15 -0.10664450D-14
 -0.10533743D-14 -0.81077736D-15 -0.44863037D-15 -0.16225983D-15 -0.10184705D-13
 -0.14612581D-13 -0.19270910D-13 -0.22343955D-13 -0.22070100D-13 -0.16987255D-13
 -0.93996192D-14 -0.33996376D-14 -0.19146916D+00 -0.27471180D+00 -0.36228686D+00
 -0.42005912D+00 -0.41491073D+00 -0.31935489D+00 -0.17670980D+00 -0.63912085D-01
 -0.25981840D-16  0.13782050D-16  0.72056749D-16 -0.38222455D-16  0.24020897D-01
 -0.12741869D-01  0.12245302D-16 -0.51346891D-15  0.15965921D-02 -0.44450012D-16
  0.57212799D-17  0.24244432D-01 -0.15119188D-16  0.73649574D-17  0.54400865D-02
  0.91894027D-18 -0.20427949D-17  0.52036988D-04 -0.12948746D-01 -0.12948746D-01
  0.25897492D-01  0.14793263D-16  0.38940150D-16  0.14783687D-16 -0.47909551D-02
 -0.47909551D-02  0.95819101D-02 -0.14644831D-16 -0.12584111D-16 -0.32187241D-17
 -0.14607572D-02 -0.14607572D-02  0.29215145D-02  0.19763419D-17  0.59716505D-17
  0.22437073D-17 -0.19971310D-03 -0.19971310D-03  0.39942620D-03 -0.24138399D-19
 -0.19627310D-17  0.36803061D-18  0.15942577D-06  0.15942577D-06 -0.31885155D-06
 -0.13225148D-19  0.12506912D-18 -0.11713257D-19 -0.16239365D-18 -0.13802627D-18
  0.16852397D-03 -0.19129517D-18 -0.19971954D-18 -0.25278595D-03  0.67847613D-18
  0.61379833D-18 -0.25278595D-03 -0.95689914D-20  0.24731094D-18 -0.76252709D-19
  0.19117155D-02  0.22284021D-18 -0.23123147D-18 -0.28675733D-02 -0.96477305D-18
  0.45998960D-18 -0.28675733D-02 -0.11212073D-19  0.87672253D-04  0.87672253D-04
  0.23379267D-03  0.21882026D-19 -0.78357819D-19 -0.75830848D-20 -0.25333054D-18
  0.10360795D-18  0.34336293D-18  0.17534451D-03 -0.70137802D-03 -0.70137802D-03
 -0.27009718D-18 -0.75750407D-19 -0.42896824D-19  0.16325420D-01  0.30384071D-01
  0.51202885D-01  0.76439602D-01  0.76307193D-01  0.53133332D-01  0.86737198D-02
 -0.37648921D-17 -0.91836042D-17 -0.83041753D-02 -0.41093898D-17  0.29332333D-17
 -0.80586629D-02  0.20321271D-17 -0.24330822D-17 -0.50141662D-02 -0.26424174D-17
  0.53352795D-18  0.42338423D-03 -0.10896597D-02 -0.10896597D-02  0.21793195D-02
 -0.25728266D-18  0.15338626D-17  0.51657900D-17 -0.47485193D-03 -0.47485193D-03
  0.94970386D-03  0.10468957D-18  0.86860729D-17  0.26079346D-17 -0.22159830D-17
  0.10845722D-17 -0.76082918D-03 -0.16275141D-17  0.14322322D-17  0.11412438D-02
  0.82754630D-17 -0.46859487D-17  0.11412438D-02  0.96370094D-18
MO    7     MO 0.0        OCC NO =    2.0000000  ORB. ENERGY =   -0.289457
 -0.92062050D-02 -0.17228346D-01 -0.29838738D-01 -0.48773609D-01 -0.75962717D-01
 -0.11217659D+00 -0.15387284D+00 -0.18586429D+00 -0.17963737D+00 -0.11359794D+00
 -0.17700352D-01 -0.62964810D-01 -0.10527667D+00 -0.72860653D-01  0.95979502D-01
  0.15505240D+00  0.97254676D-01 -0.48245098D-01 -0.57192492D-01 -0.18328493D-01
 -0.31900734D-03  0.48608557D-15  0.69741489D-15  0.91974299D-15  0.10664103D-14
  0.10533400D-14  0.81075097D-15  0.44861577D-15  0.16225455D-15  0.53931369D-14
  0.77378432D-14  0.10204582D-13  0.11831860D-13  0.11686845D-13  0.89953111D-14
  0.49774080D-14  0.18002201D-14 -0.35917812D+00 -0.51533348D+00 -0.67961605D+00
 -0.78799138D+00 -0.77833348D+00 -0.59907972D+00 -0.33149095D+00 -0.11989306D+00
 -0.73547885D-16  0.39013427D-16  0.67675800D-16 -0.35898583D-16  0.51729229D-01
 -0.27439735D-01 -0.19155191D-16  0.33899539D-15  0.10285736D-01 -0.35055795D-16
  0.19271231D-16  0.50816887D-01 -0.30960767D-16  0.16259341D-16  0.21652040D-01
 -0.26594123D-17 -0.76388233D-18  0.19650252D-02 -0.14987594D-01 -0.14987594D-01
  0.29975188D-01  0.39685564D-16  0.28481678D-16  0.73526488D-16 -0.51550065D-02
 -0.51550065D-02  0.10310013D-01 -0.88784645D-18 -0.14617925D-16 -0.24646133D-17
 -0.22409953D-02 -0.22409953D-02  0.44819906D-02  0.35635481D-17 -0.13560477D-17
  0.13535195D-17 -0.41326747D-03 -0.41326747D-03  0.82653494D-03 -0.33876015D-18
 -0.11405175D-17 -0.33839073D-18 -0.10545436D-04 -0.10545436D-04  0.21090872D-04
 -0.38583757D-20 -0.78580609D-20 -0.27889964D-19 -0.39514976D-18  0.88462029D-19
  0.99802639D-04 -0.42415387D-18  0.14781037D-19 -0.14970396D-03  0.16096032D-17
 -0.28016712D-18 -0.14970396D-03 -0.17143537D-18 -0.32102068D-18 -0.21223803D-18
  0.11032867D-02 -0.19202647D-18  0.22063586D-18 -0.16549301D-02  0.11550885D-17
  0.41607822D-18 -0.16549301D-02 -0.20226012D-17  0.40584033D-04  0.40584033D-04
  0.10822409D-03  0.50448300D-20 -0.66593450D-18  0.41226645D-19  0.88048689D-19
  0.89100292D-18 -0.98643160D-19  0.81168066D-04 -0.32467226D-03 -0.32467226D-03
  0.31783410D-19 -0.67520525D-18 -0.13881443D-18  0.11444799D-01  0.21300499D-01
  0.35895355D-01  0.53587344D-01  0.54640109D-01  0.40049115D-01  0.12079887D-01
 -0.67791007D-17 -0.22448307D-17 -0.25333103D-02 -0.11008254D-17  0.35425027D-17
 -0.99204600D-03 -0.15513332D-17 -0.13532549D-17 -0.11156883D-02 -0.88066914D-19
  0.10327216D-17  0.55342580D-03 -0.47328281D-03 -0.47328281D-03  0.94656563D-03
 -0.69040572D-18  0.69896445D-17  0.88920492D-17 -0.42439892D-05 -0.42439892D-05
  0.84879785D-05  0.16732653D-18  0.36917767D-17 -0.19469252D-17  0.36534721D-18
  0.16611538D-17 -0.79492217D-03  0.45817153D-18  0.17556770D-17  0.11923833D-02
 -0.15542132D-17 -0.67391383D-17  0.11923833D-02  0.11727728D-17
END DATA
RHF
