 Molden2AIM, Version 4.0.0 (06/02/2016)           Time: Wed Jun 27 19:36:26 2018
GAUSSIAN             33 MOL ORBITALS    526 PRIMITIVES        2 NUCLEI
  As   1    (CENTRE  1)   0.00000000  0.00000000  1.97269644  CHARGE = 33.0
  As   2    (CENTRE  2)   0.00000000  0.00000000 -1.97269644  CHARGE = 33.0
CENTRE ASSIGNMENTS    1  1  1  1  1  1  1  1  1  1  1  1  1  1  1  1  1  1  1  1
CENTRE ASSIGNMENTS    1  1  1  1  1  1  1  1  1  1  1  1  1  1  1  1  1  1  1  1
CENTRE ASSIGNMENTS    1  1  1  1  1  1  1  1  1  1  1  1  1  1  1  1  1  1  1  1
CENTRE ASSIGNMENTS    1  1  1  1  1  1  1  1  1  1  1  1  1  1  1  1  1  1  1  1
CENTRE ASSIGNMENTS    1  1  1  1  1  1  1  1  1  1  1  1  1  1  1  1  1  1  1  1
CENTRE ASSIGNMENTS    1  1  1  1  1  1  1  1  1  1  1  1  1  1  1  1  1  1  1  1
CENTRE ASSIGNMENTS    1  1  1  1  1  1  1  1  1  1  1  1  1  1  1  1  1  1  1  1
CENTRE ASSIGNMENTS    1  1  1  1  1  1  1  1  1  1  1  1  1  1  1  1  1  1  1  1
CENTRE ASSIGNMENTS    1  1  1  1  1  1  1  1  1  1  1  1  1  1  1  1  1  1  1  1
CENTRE ASSIGNMENTS    1  1  1  1  1  1  1  1  1  1  1  1  1  1  1  1  1  1  1  1
CENTRE ASSIGNMENTS    1  1  1  1  1  1  1  1  1  1  1  1  1  1  1  1  1  1  1  1
CENTRE ASSIGNMENTS    1  1  1  1  1  1  1  1  1  1  1  1  1  1  1  1  1  1  1  1
CENTRE ASSIGNMENTS    1  1  1  1  1  1  1  1  1  1  1  1  1  1  1  1  1  1  1  1
CENTRE ASSIGNMENTS    1  1  1  2  2  2  2  2  2  2  2  2  2  2  2  2  2  2  2  2
CENTRE ASSIGNMENTS    2  2  2  2  2  2  2  2  2  2  2  2  2  2  2  2  2  2  2  2
CENTRE ASSIGNMENTS    2  2  2  2  2  2  2  2  2  2  2  2  2  2  2  2  2  2  2  2
CENTRE ASSIGNMENTS    2  2  2  2  2  2  2  2  2  2  2  2  2  2  2  2  2  2  2  2
CENTRE ASSIGNMENTS    2  2  2  2  2  2  2  2  2  2  2  2  2  2  2  2  2  2  2  2
CENTRE ASSIGNMENTS    2  2  2  2  2  2  2  2  2  2  2  2  2  2  2  2  2  2  2  2
CENTRE ASSIGNMENTS    2  2  2  2  2  2  2  2  2  2  2  2  2  2  2  2  2  2  2  2
CENTRE ASSIGNMENTS    2  2  2  2  2  2  2  2  2  2  2  2  2  2  2  2  2  2  2  2
CENTRE ASSIGNMENTS    2  2  2  2  2  2  2  2  2  2  2  2  2  2  2  2  2  2  2  2
CENTRE ASSIGNMENTS    2  2  2  2  2  2  2  2  2  2  2  2  2  2  2  2  2  2  2  2
CENTRE ASSIGNMENTS    2  2  2  2  2  2  2  2  2  2  2  2  2  2  2  2  2  2  2  2
CENTRE ASSIGNMENTS    2  2  2  2  2  2  2  2  2  2  2  2  2  2  2  2  2  2  2  2
CENTRE ASSIGNMENTS    2  2  2  2  2  2  2  2  2  2  2  2  2  2  2  2  2  2  2  2
CENTRE ASSIGNMENTS    2  2  2  2  2  2
TYPE ASSIGNMENTS      1  1  1  1  1  1  1  1  1  1  1  1  1  1  1  1  1  1  1  1
TYPE ASSIGNMENTS      1  1  1  1  1  1  1  1  1  1  1  1  1  1  1  1  1  1  1  1
TYPE ASSIGNMENTS      1  1  1  1  1  1  1  1  1  1  1  1  1  1  1  1  1  1  1  1
TYPE ASSIGNMENTS      1  1  1  1  1  1  1  1  1  1  1  1  1  1  1  2  2  2  2  2
TYPE ASSIGNMENTS      2  2  2  2  2  2  3  3  3  3  3  3  3  3  3  3  3  4  4  4
TYPE ASSIGNMENTS      4  4  4  4  4  4  4  4  2  2  2  2  2  2  2  2  2  2  2  3
TYPE ASSIGNMENTS      3  3  3  3  3  3  3  3  3  3  4  4  4  4  4  4  4  4  4  4
TYPE ASSIGNMENTS      4  2  2  2  2  2  2  2  2  2  2  2  3  3  3  3  3  3  3  3
TYPE ASSIGNMENTS      3  3  3  4  4  4  4  4  4  4  4  4  4  4  2  3  4  2  3  4
TYPE ASSIGNMENTS      2  3  4  5  5  5  5  5  5  5  6  6  6  6  6  6  6  7  7  7
TYPE ASSIGNMENTS      7  7  7  7  8  8  8  8  8  8  8  9  9  9  9  9  9  9 10 10
TYPE ASSIGNMENTS     10 10 10 10 10  5  6  7  8  9 10  5  6  7  8  9 10  5  6  7
TYPE ASSIGNMENTS      8  9 10 11 12 13 17 14 15 18 19 16 20 11 12 13 17 14 15 18
TYPE ASSIGNMENTS     19 16 20  1  1  1  1  1  1  1  1  1  1  1  1  1  1  1  1  1
TYPE ASSIGNMENTS      1  1  1  1  1  1  1  1  1  1  1  1  1  1  1  1  1  1  1  1
TYPE ASSIGNMENTS      1  1  1  1  1  1  1  1  1  1  1  1  1  1  1  1  1  1  1  1
TYPE ASSIGNMENTS      1  1  1  1  1  1  1  1  1  1  1  1  1  1  1  1  1  1  2  2
TYPE ASSIGNMENTS      2  2  2  2  2  2  2  2  2  3  3  3  3  3  3  3  3  3  3  3
TYPE ASSIGNMENTS      4  4  4  4  4  4  4  4  4  4  4  2  2  2  2  2  2  2  2  2
TYPE ASSIGNMENTS      2  2  3  3  3  3  3  3  3  3  3  3  3  4  4  4  4  4  4  4
TYPE ASSIGNMENTS      4  4  4  4  2  2  2  2  2  2  2  2  2  2  2  3  3  3  3  3
TYPE ASSIGNMENTS      3  3  3  3  3  3  4  4  4  4  4  4  4  4  4  4  4  2  3  4
TYPE ASSIGNMENTS      2  3  4  2  3  4  5  5  5  5  5  5  5  6  6  6  6  6  6  6
TYPE ASSIGNMENTS      7  7  7  7  7  7  7  8  8  8  8  8  8  8  9  9  9  9  9  9
TYPE ASSIGNMENTS      9 10 10 10 10 10 10 10  5  6  7  8  9 10  5  6  7  8  9 10
TYPE ASSIGNMENTS      5  6  7  8  9 10 11 12 13 17 14 15 18 19 16 20 11 12 13 17
TYPE ASSIGNMENTS     14 15 18 19 16 20
EXPONENTS  0.8482340D+07 0.1270151D+07 0.2890570D+06 0.8187985D+05 0.2671656D+05
EXPONENTS  0.9647584D+04 0.3764119D+04 0.1561566D+04 0.6808147D+03 0.3092412D+03
EXPONENTS  0.1452574D+03 0.6973905D+02 0.3177032D+02 0.1539176D+02 0.7341526D+01
EXPONENTS  0.3323716D+01 0.1485867D+01 0.2115000D+00 0.8482340D+07 0.1270151D+07
EXPONENTS  0.2890570D+06 0.8187985D+05 0.2671656D+05 0.9647584D+04 0.3764119D+04
EXPONENTS  0.1561566D+04 0.6808147D+03 0.3092412D+03 0.1452574D+03 0.6973905D+02
EXPONENTS  0.3177032D+02 0.1539176D+02 0.7341526D+01 0.3323716D+01 0.1485867D+01
EXPONENTS  0.2115000D+00 0.8482340D+07 0.1270151D+07 0.2890570D+06 0.8187985D+05
EXPONENTS  0.2671656D+05 0.9647584D+04 0.3764119D+04 0.1561566D+04 0.6808147D+03
EXPONENTS  0.3092412D+03 0.1452574D+03 0.6973905D+02 0.3177032D+02 0.1539176D+02
EXPONENTS  0.7341526D+01 0.3323716D+01 0.1485867D+01 0.2115000D+00 0.8482340D+07
EXPONENTS  0.1270151D+07 0.2890570D+06 0.8187985D+05 0.2671656D+05 0.9647584D+04
EXPONENTS  0.3764119D+04 0.1561566D+04 0.6808147D+03 0.3092412D+03 0.1452574D+03
EXPONENTS  0.6973905D+02 0.3177032D+02 0.1539176D+02 0.7341526D+01 0.3323716D+01
EXPONENTS  0.1485867D+01 0.2115000D+00 0.4210860D+00 0.8897400D-01 0.3340700D-01
EXPONENTS  0.7423861D+04 0.1759517D+04 0.5702292D+03 0.2165800D+03 0.9073425D+02
EXPONENTS  0.4030879D+02 0.1855550D+02 0.8396543D+01 0.3767367D+01 0.1629701D+01
EXPONENTS  0.2225030D+00 0.7423861D+04 0.1759517D+04 0.5702292D+03 0.2165800D+03
EXPONENTS  0.9073425D+02 0.4030879D+02 0.1855550D+02 0.8396543D+01 0.3767367D+01
EXPONENTS  0.1629701D+01 0.2225030D+00 0.7423861D+04 0.1759517D+04 0.5702292D+03
EXPONENTS  0.2165800D+03 0.9073425D+02 0.4030879D+02 0.1855550D+02 0.8396543D+01
EXPONENTS  0.3767367D+01 0.1629701D+01 0.2225030D+00 0.7423861D+04 0.1759517D+04
EXPONENTS  0.5702292D+03 0.2165800D+03 0.9073425D+02 0.4030879D+02 0.1855550D+02
EXPONENTS  0.8396543D+01 0.3767367D+01 0.1629701D+01 0.2225030D+00 0.7423861D+04
EXPONENTS  0.1759517D+04 0.5702292D+03 0.2165800D+03 0.9073425D+02 0.4030879D+02
EXPONENTS  0.1855550D+02 0.8396543D+01 0.3767367D+01 0.1629701D+01 0.2225030D+00
EXPONENTS  0.7423861D+04 0.1759517D+04 0.5702292D+03 0.2165800D+03 0.9073425D+02
EXPONENTS  0.4030879D+02 0.1855550D+02 0.8396543D+01 0.3767367D+01 0.1629701D+01
EXPONENTS  0.2225030D+00 0.7423861D+04 0.1759517D+04 0.5702292D+03 0.2165800D+03
EXPONENTS  0.9073425D+02 0.4030879D+02 0.1855550D+02 0.8396543D+01 0.3767367D+01
EXPONENTS  0.1629701D+01 0.2225030D+00 0.7423861D+04 0.1759517D+04 0.5702292D+03
EXPONENTS  0.2165800D+03 0.9073425D+02 0.4030879D+02 0.1855550D+02 0.8396543D+01
EXPONENTS  0.3767367D+01 0.1629701D+01 0.2225030D+00 0.7423861D+04 0.1759517D+04
EXPONENTS  0.5702292D+03 0.2165800D+03 0.9073425D+02 0.4030879D+02 0.1855550D+02
EXPONENTS  0.8396543D+01 0.3767367D+01 0.1629701D+01 0.2225030D+00 0.5682630D+00
EXPONENTS  0.5682630D+00 0.5682630D+00 0.8040500D-01 0.8040500D-01 0.8040500D-01
EXPONENTS  0.2679900D-01 0.2679900D-01 0.2679900D-01 0.3210196D+03 0.9624931D+02
EXPONENTS  0.3664496D+02 0.1549396D+02 0.6891138D+01 0.3054831D+01 0.1314241D+01
EXPONENTS  0.3210196D+03 0.9624931D+02 0.3664496D+02 0.1549396D+02 0.6891138D+01
EXPONENTS  0.3054831D+01 0.1314241D+01 0.3210196D+03 0.9624931D+02 0.3664496D+02
EXPONENTS  0.1549396D+02 0.6891138D+01 0.3054831D+01 0.1314241D+01 0.3210196D+03
EXPONENTS  0.9624931D+02 0.3664496D+02 0.1549396D+02 0.6891138D+01 0.3054831D+01
EXPONENTS  0.1314241D+01 0.3210196D+03 0.9624931D+02 0.3664496D+02 0.1549396D+02
EXPONENTS  0.6891138D+01 0.3054831D+01 0.1314241D+01 0.3210196D+03 0.9624931D+02
EXPONENTS  0.3664496D+02 0.1549396D+02 0.6891138D+01 0.3054831D+01 0.1314241D+01
EXPONENTS  0.5134300D+00 0.5134300D+00 0.5134300D+00 0.5134300D+00 0.5134300D+00
EXPONENTS  0.5134300D+00 0.1877000D+00 0.1877000D+00 0.1877000D+00 0.1877000D+00
EXPONENTS  0.1877000D+00 0.1877000D+00 0.7000000D-01 0.7000000D-01 0.7000000D-01
EXPONENTS  0.7000000D-01 0.7000000D-01 0.7000000D-01 0.4158000D+00 0.4158000D+00
EXPONENTS  0.4158000D+00 0.4158000D+00 0.4158000D+00 0.4158000D+00 0.4158000D+00
EXPONENTS  0.4158000D+00 0.4158000D+00 0.4158000D+00 0.1690000D+00 0.1690000D+00
EXPONENTS  0.1690000D+00 0.1690000D+00 0.1690000D+00 0.1690000D+00 0.1690000D+00
EXPONENTS  0.1690000D+00 0.1690000D+00 0.1690000D+00 0.8482340D+07 0.1270151D+07
EXPONENTS  0.2890570D+06 0.8187985D+05 0.2671656D+05 0.9647584D+04 0.3764119D+04
EXPONENTS  0.1561566D+04 0.6808147D+03 0.3092412D+03 0.1452574D+03 0.6973905D+02
EXPONENTS  0.3177032D+02 0.1539176D+02 0.7341526D+01 0.3323716D+01 0.1485867D+01
EXPONENTS  0.2115000D+00 0.8482340D+07 0.1270151D+07 0.2890570D+06 0.8187985D+05
EXPONENTS  0.2671656D+05 0.9647584D+04 0.3764119D+04 0.1561566D+04 0.6808147D+03
EXPONENTS  0.3092412D+03 0.1452574D+03 0.6973905D+02 0.3177032D+02 0.1539176D+02
EXPONENTS  0.7341526D+01 0.3323716D+01 0.1485867D+01 0.2115000D+00 0.8482340D+07
EXPONENTS  0.1270151D+07 0.2890570D+06 0.8187985D+05 0.2671656D+05 0.9647584D+04
EXPONENTS  0.3764119D+04 0.1561566D+04 0.6808147D+03 0.3092412D+03 0.1452574D+03
EXPONENTS  0.6973905D+02 0.3177032D+02 0.1539176D+02 0.7341526D+01 0.3323716D+01
EXPONENTS  0.1485867D+01 0.2115000D+00 0.8482340D+07 0.1270151D+07 0.2890570D+06
EXPONENTS  0.8187985D+05 0.2671656D+05 0.9647584D+04 0.3764119D+04 0.1561566D+04
EXPONENTS  0.6808147D+03 0.3092412D+03 0.1452574D+03 0.6973905D+02 0.3177032D+02
EXPONENTS  0.1539176D+02 0.7341526D+01 0.3323716D+01 0.1485867D+01 0.2115000D+00
EXPONENTS  0.4210860D+00 0.8897400D-01 0.3340700D-01 0.7423861D+04 0.1759517D+04
EXPONENTS  0.5702292D+03 0.2165800D+03 0.9073425D+02 0.4030879D+02 0.1855550D+02
EXPONENTS  0.8396543D+01 0.3767367D+01 0.1629701D+01 0.2225030D+00 0.7423861D+04
EXPONENTS  0.1759517D+04 0.5702292D+03 0.2165800D+03 0.9073425D+02 0.4030879D+02
EXPONENTS  0.1855550D+02 0.8396543D+01 0.3767367D+01 0.1629701D+01 0.2225030D+00
EXPONENTS  0.7423861D+04 0.1759517D+04 0.5702292D+03 0.2165800D+03 0.9073425D+02
EXPONENTS  0.4030879D+02 0.1855550D+02 0.8396543D+01 0.3767367D+01 0.1629701D+01
EXPONENTS  0.2225030D+00 0.7423861D+04 0.1759517D+04 0.5702292D+03 0.2165800D+03
EXPONENTS  0.9073425D+02 0.4030879D+02 0.1855550D+02 0.8396543D+01 0.3767367D+01
EXPONENTS  0.1629701D+01 0.2225030D+00 0.7423861D+04 0.1759517D+04 0.5702292D+03
EXPONENTS  0.2165800D+03 0.9073425D+02 0.4030879D+02 0.1855550D+02 0.8396543D+01
EXPONENTS  0.3767367D+01 0.1629701D+01 0.2225030D+00 0.7423861D+04 0.1759517D+04
EXPONENTS  0.5702292D+03 0.2165800D+03 0.9073425D+02 0.4030879D+02 0.1855550D+02
EXPONENTS  0.8396543D+01 0.3767367D+01 0.1629701D+01 0.2225030D+00 0.7423861D+04
EXPONENTS  0.1759517D+04 0.5702292D+03 0.2165800D+03 0.9073425D+02 0.4030879D+02
EXPONENTS  0.1855550D+02 0.8396543D+01 0.3767367D+01 0.1629701D+01 0.2225030D+00
EXPONENTS  0.7423861D+04 0.1759517D+04 0.5702292D+03 0.2165800D+03 0.9073425D+02
EXPONENTS  0.4030879D+02 0.1855550D+02 0.8396543D+01 0.3767367D+01 0.1629701D+01
EXPONENTS  0.2225030D+00 0.7423861D+04 0.1759517D+04 0.5702292D+03 0.2165800D+03
EXPONENTS  0.9073425D+02 0.4030879D+02 0.1855550D+02 0.8396543D+01 0.3767367D+01
EXPONENTS  0.1629701D+01 0.2225030D+00 0.5682630D+00 0.5682630D+00 0.5682630D+00
EXPONENTS  0.8040500D-01 0.8040500D-01 0.8040500D-01 0.2679900D-01 0.2679900D-01
EXPONENTS  0.2679900D-01 0.3210196D+03 0.9624931D+02 0.3664496D+02 0.1549396D+02
EXPONENTS  0.6891138D+01 0.3054831D+01 0.1314241D+01 0.3210196D+03 0.9624931D+02
EXPONENTS  0.3664496D+02 0.1549396D+02 0.6891138D+01 0.3054831D+01 0.1314241D+01
EXPONENTS  0.3210196D+03 0.9624931D+02 0.3664496D+02 0.1549396D+02 0.6891138D+01
EXPONENTS  0.3054831D+01 0.1314241D+01 0.3210196D+03 0.9624931D+02 0.3664496D+02
EXPONENTS  0.1549396D+02 0.6891138D+01 0.3054831D+01 0.1314241D+01 0.3210196D+03
EXPONENTS  0.9624931D+02 0.3664496D+02 0.1549396D+02 0.6891138D+01 0.3054831D+01
EXPONENTS  0.1314241D+01 0.3210196D+03 0.9624931D+02 0.3664496D+02 0.1549396D+02
EXPONENTS  0.6891138D+01 0.3054831D+01 0.1314241D+01 0.5134300D+00 0.5134300D+00
EXPONENTS  0.5134300D+00 0.5134300D+00 0.5134300D+00 0.5134300D+00 0.1877000D+00
EXPONENTS  0.1877000D+00 0.1877000D+00 0.1877000D+00 0.1877000D+00 0.1877000D+00
EXPONENTS  0.7000000D-01 0.7000000D-01 0.7000000D-01 0.7000000D-01 0.7000000D-01
EXPONENTS  0.7000000D-01 0.4158000D+00 0.4158000D+00 0.4158000D+00 0.4158000D+00
EXPONENTS  0.4158000D+00 0.4158000D+00 0.4158000D+00 0.4158000D+00 0.4158000D+00
EXPONENTS  0.4158000D+00 0.1690000D+00 0.1690000D+00 0.1690000D+00 0.1690000D+00
EXPONENTS  0.1690000D+00 0.1690000D+00 0.1690000D+00 0.1690000D+00 0.1690000D+00
EXPONENTS  0.1690000D+00
MO    1     MO 0.0        OCC NO =    2.0000000  ORB. ENERGY = -432.597872
  0.53878032D+00  0.10070279D+01  0.17432517D+01  0.28553473D+01  0.44687126D+01
  0.67010672D+01  0.95300872D+01  0.12513496D+02  0.14254174D+02  0.12504829D+02
  0.66548191D+01  0.14371023D+01  0.54017526D-01  0.12899532D-02 -0.34241733D-03
  0.30650034D-04 -0.24830308D-04 -0.14778376D-05  0.72951501D-07  0.13797603D-06
  0.23860726D-06  0.39080548D-06  0.61469414D-06  0.92714756D-06  0.13486123D-05
  0.18456290D-05  0.23256026D-05  0.24683596D-05  0.18883849D-05  0.29728737D-06
 -0.12385409D-05 -0.98906191D-06 -0.16726665D-06 -0.33003717D-08 -0.52365973D-09
 -0.15964287D-10 -0.16690813D-06 -0.32141950D-06 -0.55765839D-06 -0.91429941D-06
 -0.14390841D-05 -0.21710793D-05 -0.31688646D-05 -0.43563530D-05 -0.55652442D-05
 -0.60537649D-05 -0.48850927D-05 -0.82502281D-06  0.43616388D-05  0.52508970D-05
  0.32901766D-06 -0.23146469D-05 -0.93448574D-06  0.46025084D-08  0.62011763D-07
  0.13434495D-06  0.22870616D-06  0.37430548D-06  0.58908101D-06  0.88891135D-06
  0.12975173D-05  0.17856892D-05  0.22843825D-05  0.24956648D-05  0.20264562D-05
  0.35002050D-06 -0.19008969D-05 -0.24162935D-05 -0.12500049D-06  0.13847227D-05
  0.10315068D-05 -0.39961502D-06  0.41862580D-05  0.29419586D-06 -0.15592156D-07
  0.34862320D-14  0.49920766D-14  0.65792130D-14  0.75366908D-14  0.68969125D-14
  0.43804560D-14  0.15006319D-14  0.16487622D-15  0.19436528D-17  0.37462332D-18
  0.38613253D-20  0.17698618D-14  0.25343367D-14  0.33400812D-14  0.38261658D-14
  0.35013683D-14  0.22238342D-14  0.76182857D-15  0.83703017D-16  0.98673780D-18
  0.19018571D-18  0.19602861D-20 -0.55984546D-04 -0.80166535D-04 -0.10565397D-03
 -0.12102987D-03 -0.11075583D-03 -0.70344671D-04 -0.24098280D-04 -0.26477069D-05
 -0.31212644D-07 -0.60159841D-08 -0.62008077D-10 -0.14916124D-15 -0.21505644D-15
 -0.28577342D-15 -0.33715595D-15 -0.32207507D-15 -0.21980008D-15 -0.68151133D-16
  0.33904624D-16  0.34020192D-16  0.85698148D-17 -0.99576782D-20 -0.45400246D-14
 -0.65456786D-14 -0.86980929D-14 -0.10262024D-13 -0.98030071D-14 -0.66900607D-14
 -0.20743178D-14  0.10319559D-14  0.10354735D-14  0.26083967D-15 -0.30308211D-18
 -0.26645943D-04 -0.38417364D-04 -0.51050139D-04 -0.60229039D-04 -0.57535012D-04
 -0.39264759D-04 -0.12174417D-04  0.60566716D-05  0.60773166D-05  0.15308990D-05
 -0.17788248D-08 -0.76433317D-16 -0.11049450D-15 -0.14681223D-15 -0.17397406D-15
 -0.16683576D-15 -0.11514017D-15 -0.34820046D-16  0.21806580D-16  0.22059684D-16
  0.63932792D-17 -0.24873733D-17 -0.68799745D-15 -0.99459164D-15 -0.13214975D-14
 -0.15659887D-14 -0.15017349D-14 -0.10364086D-14 -0.31342488D-15  0.19628707D-15
  0.19856533D-15  0.57547677D-16 -0.22389536D-16  0.57610318D-05  0.83283361D-05
  0.11065723D-04  0.13113000D-04  0.12574963D-04  0.86784956D-05  0.26245020D-05
 -0.16436340D-05 -0.16627113D-05 -0.48188259D-06  0.18748155D-06  0.16275979D-16
  0.17072503D-16 -0.73040256D-06 -0.45019708D-17  0.17273771D-16 -0.52719247D-07
  0.72251683D-18 -0.11353811D-17 -0.19884843D-08  0.80421749D-05  0.82142385D-05
  0.67261247D-05  0.42366463D-05  0.18451906D-05  0.52248624D-06  0.87026524D-07
  0.80421749D-05  0.82142385D-05  0.67261247D-05  0.42366463D-05  0.18451906D-05
  0.52248624D-06  0.87026524D-07 -0.16084350D-04 -0.16428477D-04 -0.13452249D-04
 -0.84732926D-05 -0.36903812D-05 -0.10449725D-05 -0.17405305D-06 -0.57504308D-14
 -0.58734622D-14 -0.48094098D-14 -0.30293474D-14 -0.13193746D-14 -0.37359557D-15
 -0.62226948D-16 -0.13898877D-14 -0.14196246D-14 -0.11624415D-14 -0.73219778D-15
 -0.31889480D-15 -0.90298607D-16 -0.15040346D-16 -0.47287437D-14 -0.48299159D-14
 -0.39549152D-14 -0.24911190D-14 -0.10849594D-14 -0.30721832D-15 -0.51170999D-16
 -0.86846115D-07 -0.86846115D-07  0.17369223D-06  0.12514211D-15  0.17180772D-17
 -0.99310948D-18  0.85633046D-08  0.85633046D-08 -0.17126609D-07 -0.12932794D-16
 -0.73631193D-18 -0.15843105D-16 -0.51539713D-08 -0.51539713D-08  0.10307943D-07
  0.10857609D-17  0.20169832D-17 -0.13301847D-17 -0.35350972D-18 -0.77410004D-18
  0.50960770D-07 -0.35409417D-18 -0.77340622D-18 -0.76441155D-07  0.14146233D-17
  0.30957063D-17 -0.76441155D-07  0.12057332D-16  0.30465512D-18 -0.11580253D-17
 -0.48538582D-08  0.30465725D-18 -0.11580923D-17  0.72807873D-08 -0.12186226D-17
  0.46321681D-17  0.72807873D-08  0.27732445D-18  0.53848005D+00  0.10064666D+01
  0.17422802D+01  0.28537560D+01  0.44662221D+01  0.66973325D+01  0.95247759D+01
  0.12506522D+02  0.14246229D+02  0.12497860D+02  0.66511102D+01  0.14363014D+01
  0.53987420D-01  0.12892343D-02 -0.34222649D-03  0.30632952D-04 -0.24816470D-04
 -0.14770139D-05  0.72830461D-07  0.13774710D-06  0.23821137D-06  0.39015706D-06
  0.61367425D-06  0.92560924D-06  0.13463747D-05  0.18425668D-05  0.23217440D-05
  0.24642641D-05  0.18852517D-05  0.29679411D-06 -0.12364859D-05 -0.98742086D-06
 -0.16698912D-06 -0.32948957D-08 -0.52279088D-09 -0.15937799D-10 -0.16670033D-06
 -0.32101935D-06 -0.55696412D-06 -0.91316113D-06 -0.14372925D-05 -0.21683763D-05
 -0.31649194D-05 -0.43509295D-05 -0.55583156D-05 -0.60462281D-05 -0.48790109D-05
 -0.82399568D-06  0.43562086D-05  0.52443597D-05  0.32860804D-06 -0.23117652D-05
 -0.93332233D-06  0.45967784D-08  0.61921848D-07  0.13415015D-06  0.22837454D-06
  0.37376275D-06  0.58822686D-06  0.88762247D-06  0.12956360D-05  0.17831001D-05
  0.22810702D-05  0.24920462D-05  0.20235179D-05  0.34951298D-06 -0.18981406D-05
 -0.24127900D-05 -0.12481924D-06  0.13827149D-05  0.10300112D-05 -0.39903560D-06
  0.41836822D-05  0.29432438D-06 -0.15454984D-07 -0.64912676D-15 -0.92951086D-15
 -0.12250313D-14 -0.14033110D-14 -0.12841860D-14 -0.81562881D-15 -0.27941351D-15
 -0.30699497D-16 -0.36190278D-18 -0.69753826D-19 -0.71896809D-21 -0.10935680D-14
 -0.15659243D-14 -0.20637803D-14 -0.23641238D-14 -0.21634369D-14 -0.13740699D-14
 -0.47072113D-15 -0.51718694D-16 -0.60968878D-18 -0.11751257D-18 -0.12112280D-20
  0.55957461D-04  0.80127752D-04  0.10560286D-03  0.12097132D-03  0.11070225D-03
  0.70310639D-04  0.24086622D-04  0.26464260D-05  0.31197544D-07  0.60130737D-08
  0.61978079D-10 -0.10182551D-15 -0.14680913D-15 -0.19508435D-15 -0.23016084D-15
 -0.21986581D-15 -0.15004739D-15 -0.46523639D-16  0.23145125D-16  0.23224018D-16
  0.58502178D-17 -0.67976482D-20  0.12568800D-14  0.18121339D-14  0.24080175D-14
  0.28409831D-14  0.27139067D-14  0.18521052D-14  0.57426308D-15 -0.28569112D-15
 -0.28666494D-15 -0.72211979D-16  0.83906557D-19  0.26612598D-04  0.38369288D-04
  0.50986254D-04  0.60153667D-04  0.57463011D-04  0.39215623D-04  0.12159182D-04
 -0.60490922D-05 -0.60697114D-05 -0.15289832D-05  0.17765988D-08  0.18119926D-15
  0.26194758D-15  0.34804543D-15  0.41243755D-15  0.39551490D-15  0.27296099D-15
  0.82547334D-16 -0.51696515D-16 -0.52296545D-16 -0.15156446D-16  0.58967765D-17
 -0.75225363D-15 -0.10874825D-14 -0.14449201D-14 -0.17122457D-14 -0.16419908D-14
 -0.11332050D-14 -0.34269750D-15  0.21461949D-15  0.21711052D-15  0.62922397D-16
 -0.24480628D-16 -0.57435591D-05 -0.83030770D-05 -0.11032162D-04 -0.13073229D-04
 -0.12536824D-04 -0.86521745D-05 -0.26165421D-05  0.16386490D-05  0.16576685D-05
  0.48042108D-06 -0.18691293D-06 -0.42814491D-18  0.45667331D-16  0.72983425D-06
  0.63828638D-17 -0.88116613D-17  0.52822600D-07  0.28226763D-18  0.34451466D-18
  0.19960456D-08  0.80375221D-05  0.82094861D-05  0.67222333D-05  0.42341952D-05
  0.18441231D-05  0.52218395D-06  0.86976174D-07  0.80375221D-05  0.82094861D-05
  0.67222333D-05  0.42341952D-05  0.18441231D-05  0.52218395D-06  0.86976174D-07
 -0.16075044D-04 -0.16418972D-04 -0.13444467D-04 -0.84683904D-05 -0.36882461D-05
 -0.10443679D-05 -0.17395235D-06  0.44509080D-14  0.45461359D-14  0.37225456D-14
  0.23447542D-14  0.10212130D-14  0.28916782D-15  0.48164465D-16  0.13407227D-15
  0.13694077D-15  0.11213221D-15  0.70629750D-16  0.30761442D-16  0.87104444D-17
  0.14508319D-17  0.90712318D-15  0.92653123D-15  0.75867831D-15  0.47787571D-15
  0.20812967D-15  0.58934229D-16  0.98162224D-17 -0.86821288D-07 -0.86821288D-07
  0.17364258D-06 -0.30843334D-16  0.55008713D-17  0.30609629D-16  0.85008136D-08
  0.85008136D-08 -0.17001627D-07  0.61134882D-17  0.58404673D-18 -0.18471100D-16
 -0.51558141D-08 -0.51558141D-08  0.10311628D-07 -0.27186898D-18  0.19726347D-17
 -0.12952086D-17  0.71109096D-18 -0.14540941D-17 -0.50945848D-07  0.71036512D-18
 -0.14543922D-17  0.76418772D-07 -0.28436380D-17  0.58166745D-17  0.76418772D-07
 -0.96491431D-18 -0.40553058D-18  0.13553108D-17  0.48640610D-08 -0.40549231D-18
  0.13553348D-17 -0.72960915D-08  0.16220841D-17 -0.54212671D-17 -0.72960915D-08
  0.11832236D-17
MO    2     MO 0.0        OCC NO =    2.0000000  ORB. ENERGY = -432.597872
 -0.53847998D+00 -0.10064665D+01 -0.17422799D+01 -0.28537556D+01 -0.44662215D+01
 -0.66973317D+01 -0.95247747D+01 -0.12506520D+02 -0.14246228D+02 -0.12497858D+02
 -0.66511093D+01 -0.14363012D+01 -0.53987413D-01 -0.12892341D-02  0.34222644D-03
 -0.30632948D-04  0.24816467D-04  0.14770138D-05 -0.21709225D-06 -0.41059506D-06
 -0.71005788D-06 -0.11629760D-05 -0.18292336D-05 -0.27590461D-05 -0.40132593D-05
 -0.54923031D-05 -0.69206295D-05 -0.73454520D-05 -0.56195380D-05 -0.88468069D-06
  0.36857039D-05  0.29432935D-05  0.49775937D-06  0.98213897D-08  0.15583294D-08
  0.47507220D-10  0.37269177D-06  0.71770263D-06  0.12452041D-05  0.20415534D-05
  0.32133534D-05  0.48478368D-05  0.70758071D-05  0.97273687D-05  0.12426721D-04
  0.13517546D-04  0.10908000D-04  0.18422063D-05 -0.97391713D-05 -0.11724810D-04
 -0.73466867D-06  0.51684111D-05  0.20866278D-05 -0.10277013D-07 -0.16126830D-06
 -0.34937857D-06 -0.59477511D-06 -0.97342188D-06 -0.15319689D-05 -0.23117101D-05
 -0.33743341D-05 -0.46438780D-05 -0.59407838D-05 -0.64902463D-05 -0.52700184D-05
 -0.91026616D-06  0.49434879D-05  0.62838327D-05  0.32507729D-06 -0.36011211D-05
 -0.26825451D-05  0.10392421D-05 -0.46190852D-05  0.22912567D-06  0.24587281D-06
  0.38725680D-14  0.55452867D-14  0.73083058D-14  0.83718891D-14  0.76612120D-14
  0.48658878D-14  0.16669284D-14  0.18314742D-15  0.21590438D-17  0.41613819D-18
  0.42892282D-20 -0.17270615D-13 -0.24730492D-13 -0.32593085D-13 -0.37336381D-13
 -0.34166952D-13 -0.21700555D-13 -0.74340537D-14 -0.81678838D-15 -0.96287565D-17
 -0.18558648D-17 -0.19128808D-19  0.48575223D-04  0.69556826D-04  0.91671104D-04
  0.10501207D-03  0.96097753D-04  0.61034844D-04  0.20908973D-04  0.22972938D-05
  0.27081780D-07  0.52197935D-08  0.53801564D-10 -0.14411227D-15 -0.20777697D-15
 -0.27610024D-15 -0.32574352D-15 -0.31117311D-15 -0.21236004D-15 -0.65844278D-16
  0.32756982D-16  0.32868639D-16  0.82797341D-17 -0.96206196D-20 -0.45415971D-14
 -0.65479458D-14 -0.87011057D-14 -0.10265579D-13 -0.98064026D-14 -0.66923779D-14
 -0.20750363D-14  0.10323134D-14  0.10358321D-14  0.26093002D-15 -0.30318709D-18
  0.59773013D-04  0.86179033D-04  0.11451727D-03  0.13510766D-03  0.12906434D-03
  0.88079937D-04  0.27310034D-04 -0.13586515D-04 -0.13632827D-04 -0.34341605D-05
  0.39903156D-08 -0.77509010D-16 -0.11204956D-15 -0.14887841D-15 -0.17642250D-15
 -0.16918374D-15 -0.11676061D-15 -0.35310091D-16  0.22113478D-16  0.22370144D-16
  0.64832558D-17 -0.25223796D-17 -0.68871741D-15 -0.99563243D-15 -0.13228804D-14
 -0.15676274D-14 -0.15033064D-14 -0.10374932D-14 -0.31375287D-15  0.19649247D-15
  0.19877312D-15  0.57607898D-16 -0.22412965D-16 -0.31316169D-04 -0.45271678D-04
 -0.60151733D-04 -0.71280446D-04 -0.68355750D-04 -0.47175097D-04 -0.14266428D-04
  0.89345663D-05  0.90382678D-05  0.26194468D-05 -0.10191236D-05  0.16396653D-16
  0.17216944D-16  0.10186645D-05 -0.45022789D-17  0.17284687D-16 -0.18496782D-06
  0.72267257D-18 -0.11362206D-17 -0.13556631D-07 -0.83445106D-05 -0.85230428D-05
 -0.69789851D-05 -0.43959178D-05 -0.19145583D-05 -0.54212847D-06 -0.90298179D-07
 -0.83445106D-05 -0.85230428D-05 -0.69789851D-05 -0.43959178D-05 -0.19145583D-05
 -0.54212847D-06 -0.90298179D-07  0.16689021D-04  0.17046086D-04  0.13957970D-04
  0.87918357D-05  0.38291166D-05  0.10842569D-05  0.18059636D-06 -0.57467315D-14
 -0.58696838D-14 -0.48063159D-14 -0.30273986D-14 -0.13185258D-14 -0.37335524D-15
 -0.62186918D-16 -0.13915351D-14 -0.14213073D-14 -0.11638194D-14 -0.73306566D-15
 -0.31927278D-15 -0.90405639D-16 -0.15058174D-16 -0.47296885D-14 -0.48308809D-14
 -0.39557054D-14 -0.24916167D-14 -0.10851762D-14 -0.30727970D-15 -0.51181223D-16
  0.44516290D-07  0.44516290D-07 -0.89032580D-07  0.12517777D-15  0.17199889D-17
 -0.10038245D-17 -0.11198523D-06 -0.11198523D-06  0.22397047D-06 -0.12936097D-16
 -0.73039718D-18 -0.15842197D-16 -0.32965785D-08 -0.32965785D-08  0.65931570D-08
  0.10861192D-17  0.20181518D-17 -0.13309406D-17 -0.35356383D-18 -0.77404399D-18
 -0.26687967D-07 -0.35290437D-18 -0.77467427D-18  0.40031951D-07  0.14135959D-17
  0.30968062D-17  0.40031951D-07  0.12063228D-16  0.30512646D-18 -0.11581942D-17
 -0.18289547D-07  0.30510135D-18 -0.11581413D-17  0.27434320D-07 -0.12204807D-17
  0.46327239D-17  0.27434320D-07  0.27727338D-18  0.53878025D+00  0.10070277D+01
  0.17432515D+01  0.28553469D+01  0.44687120D+01  0.67010663D+01  0.95300860D+01
  0.12513494D+02  0.14254172D+02  0.12504828D+02  0.66548182D+01  0.14371022D+01
  0.54017519D-01  0.12899530D-02 -0.34241728D-03  0.30650030D-04 -0.24830305D-04
 -0.14778374D-05  0.21713289D-06  0.41067193D-06  0.71019081D-06  0.11631937D-05
  0.18295760D-05  0.27595626D-05  0.40140106D-05  0.54933313D-05  0.69219250D-05
  0.73468271D-05  0.56205900D-05  0.88484631D-06 -0.36863939D-05 -0.29438445D-05
 -0.49785256D-06 -0.98232283D-08 -0.15586211D-08 -0.47516114D-10 -0.37278477D-06
 -0.71788172D-06 -0.12455148D-05 -0.20420629D-05 -0.32141553D-05 -0.48490465D-05
 -0.70775728D-05 -0.97297961D-05 -0.12429821D-04 -0.13520919D-04 -0.10910722D-04
 -0.18426660D-05  0.97416016D-05  0.11727736D-04  0.73485200D-06 -0.51697008D-05
 -0.20871485D-05  0.10279577D-07  0.16130285D-06  0.34945342D-06  0.59490253D-06
  0.97363043D-06  0.15322971D-05  0.23122054D-05  0.33750570D-05  0.46448730D-05
  0.59420566D-05  0.64916367D-05  0.52711475D-05  0.91046118D-06 -0.49445470D-05
 -0.62851789D-05 -0.32514693D-06  0.36018927D-05  0.26831198D-05 -0.10394647D-05
  0.46214182D-05 -0.22896167D-06 -0.24588145D-06 -0.10163443D-14 -0.14553444D-14
 -0.19180437D-14 -0.21971781D-14 -0.20106629D-14 -0.12770382D-14 -0.43748053D-15
 -0.48066510D-16 -0.56663479D-18 -0.10921426D-18 -0.11256955D-20  0.17948094D-13
  0.25700602D-13  0.33871622D-13  0.38800985D-13  0.35507228D-13  0.22551809D-13
  0.77256714D-14  0.84882876D-15  0.10006466D-16  0.19286653D-17  0.19879179D-19
  0.48606425D-04  0.69601505D-04  0.91729988D-04  0.10507952D-03  0.96159481D-04
  0.61074050D-04  0.20922403D-04  0.22987695D-05  0.27099175D-07  0.52231464D-08
  0.53836124D-10 -0.10216544D-15 -0.14729924D-15 -0.19573562D-15 -0.23092920D-15
 -0.22059981D-15 -0.15054831D-15 -0.46678954D-16  0.23222392D-16  0.23301549D-16
  0.58697481D-17 -0.68203414D-20  0.12561977D-14  0.18111502D-14  0.24067104D-14
  0.28394409D-14  0.27124336D-14  0.18510999D-14  0.57395136D-15 -0.28553604D-15
 -0.28650933D-15 -0.72172782D-16  0.83861011D-19  0.59787861D-04  0.86200440D-04
  0.11454572D-03  0.13514122D-03  0.12909640D-03  0.88101816D-04  0.27316818D-04
 -0.13589890D-04 -0.13636213D-04 -0.34350136D-05  0.39913067D-08  0.18150477D-15
  0.26238924D-15  0.34863226D-15  0.41313295D-15  0.39618176D-15  0.27342122D-15
  0.82686515D-16 -0.51783679D-16 -0.52384720D-16 -0.15182001D-16  0.59067189D-17
 -0.75228038D-15 -0.10875211D-14 -0.14449714D-14 -0.17123066D-14 -0.16420492D-14
 -0.11332453D-14 -0.34270968D-15  0.21462712D-15  0.21711824D-15  0.62924634D-16
 -0.24481498D-16 -0.31319377D-04 -0.45276316D-04 -0.60157896D-04 -0.71287749D-04
 -0.68362753D-04 -0.47179930D-04 -0.14267890D-04  0.89354817D-05  0.90391938D-05
  0.26197152D-05 -0.10192281D-05 -0.43320274D-18  0.45544719D-16  0.10190716D-05
  0.63875757D-17 -0.88179128D-17 -0.18493838D-06  0.28243844D-18  0.34489081D-18
 -0.13555517D-07  0.83489927D-05  0.85276208D-05  0.69827338D-05  0.43982790D-05
  0.19155867D-05  0.54241966D-06  0.90346681D-07  0.83489927D-05  0.85276208D-05
  0.69827338D-05  0.43982790D-05  0.19155867D-05  0.54241966D-06  0.90346681D-07
 -0.16697985D-04 -0.17055242D-04 -0.13965468D-04 -0.87965580D-05 -0.38311733D-05
 -0.10848393D-05 -0.18069336D-06  0.44534447D-14  0.45487268D-14  0.37246671D-14
  0.23460905D-14  0.10217950D-14  0.28933262D-15  0.48191915D-16  0.13424189D-15
  0.13711402D-15  0.11227407D-15  0.70719105D-16  0.30800359D-16  0.87214642D-17
  0.14526674D-17  0.90886644D-15  0.92831178D-15  0.76013629D-15  0.47879407D-15
  0.20852964D-15  0.59047485D-16  0.98350866D-17 -0.44564698D-07 -0.44564698D-07
  0.89129397D-07 -0.30859914D-16  0.54974114D-17  0.30621318D-16  0.11198999D-06
  0.11198999D-06 -0.22397998D-06  0.61164045D-17  0.59178254D-18 -0.18472114D-16
  0.32937022D-08  0.32937022D-08 -0.65874043D-08 -0.27197173D-18  0.19737480D-17