 Molden2AIM, Version 4.0.0 (06/02/2016)           Time: Sun Jun 24 19:46:23 2018
GAUSSIAN             20 MOL ORBITALS    288 PRIMITIVES        2 NUCLEI
  B    1    (CENTRE  1)   0.00000000  0.00000000 -0.37231573  CHARGE =  5.0
  Br   2    (CENTRE  2)   0.00000000  0.00000000  3.20690492  CHARGE = 35.0
CENTRE ASSIGNMENTS    1  1  1  1  1  1  1  1  1  1  1  1  1  1  1  1  1  1  1  1
CENTRE ASSIGNMENTS    1  1  1  1  1  1  1  1  1  1  1  1  1  1  1  1  1  1  1  1
CENTRE ASSIGNMENTS    1  1  1  1  1  1  1  1  1  1  1  1  1  1  1  1  1  1  1  1
CENTRE ASSIGNMENTS    1  1  1  1  1  1  1  1  1  1  1  1  1  1  1  1  1  1  1  1
CENTRE ASSIGNMENTS    1  1  1  1  1  1  1  1  1  1  1  1  1  1  1  1  1  1  1  2
CENTRE ASSIGNMENTS    2  2  2  2  2  2  2  2  2  2  2  2  2  2  2  2  2  2  2  2
CENTRE ASSIGNMENTS    2  2  2  2  2  2  2  2  2  2  2  2  2  2  2  2  2  2  2  2
CENTRE ASSIGNMENTS    2  2  2  2  2  2  2  2  2  2  2  2  2  2  2  2  2  2  2  2
CENTRE ASSIGNMENTS    2  2  2  2  2  2  2  2  2  2  2  2  2  2  2  2  2  2  2  2
CENTRE ASSIGNMENTS    2  2  2  2  2  2  2  2  2  2  2  2  2  2  2  2  2  2  2  2
CENTRE ASSIGNMENTS    2  2  2  2  2  2  2  2  2  2  2  2  2  2  2  2  2  2  2  2
CENTRE ASSIGNMENTS    2  2  2  2  2  2  2  2  2  2  2  2  2  2  2  2  2  2  2  2
CENTRE ASSIGNMENTS    2  2  2  2  2  2  2  2  2  2  2  2  2  2  2  2  2  2  2  2
CENTRE ASSIGNMENTS    2  2  2  2  2  2  2  2  2  2  2  2  2  2  2  2  2  2  2  2
CENTRE ASSIGNMENTS    2  2  2  2  2  2  2  2
TYPE ASSIGNMENTS      1  1  1  1  1  1  1  1  1  1  1  1  1  1  1  1  2  2  2  2
TYPE ASSIGNMENTS      2  3  3  3  3  3  4  4  4  4  4  2  3  4  2  3  4  2  3  4
TYPE ASSIGNMENTS      5  6  7  8  9 10  5  6  7  8  9 10  5  6  7  8  9 10  5  6
TYPE ASSIGNMENTS      7  8  9 10 11 12 13 17 14 15 18 19 16 20 11 12 13 17 14 15
TYPE ASSIGNMENTS     18 19 16 20 21 22 23 24 25 26 27 28 29 30 31 32 33 34 35  1
TYPE ASSIGNMENTS      1  1  1  1  1  1  1  1  1  1  1  1  1  1  1  1  1  1  1  1
TYPE ASSIGNMENTS      1  1  1  1  2  2  2  2  2  2  2  2  2  2  3  3  3  3  3  3
TYPE ASSIGNMENTS      3  3  3  3  4  4  4  4  4  4  4  4  4  4  2  2  2  2  2  3
TYPE ASSIGNMENTS      3  3  3  3  4  4  4  4  4  2  3  4  2  3  4  2  3  4  2  3
TYPE ASSIGNMENTS      4  2  3  4  2  3  4  5  5  5  5  5  5  5  6  6  6  6  6  6
TYPE ASSIGNMENTS      6  7  7  7  7  7  7  7  8  8  8  8  8  8  8  9  9  9  9  9
TYPE ASSIGNMENTS      9  9 10 10 10 10 10 10 10  5  6  7  8  9 10  5  6  7  8  9
TYPE ASSIGNMENTS     10  5  6  7  8  9 10  5  6  7  8  9 10 11 12 13 17 14 15 18
TYPE ASSIGNMENTS     19 16 20 11 12 13 17 14 15 18 19 16 20 21 22 23 24 25 26 27
TYPE ASSIGNMENTS     28 29 30 31 32 33 34 35
EXPONENTS  0.4644767D+05 0.6957689D+04 0.1583443D+04 0.4484660D+03 0.1462864D+03
EXPONENTS  0.5278439D+02 0.2051940D+02 0.8418566D+01 0.3651002D+02 0.1054185D+02
EXPONENTS  0.3600409D+01 0.1561702D+01 0.4499737D+00 0.1807523D+00 0.7159670D-01
EXPONENTS  0.2994140D-01 0.7224046D+02 0.1680771D+02 0.5225941D+01 0.1850835D+01
EXPONENTS  0.7220678D+00 0.7224046D+02 0.1680771D+02 0.5225941D+01 0.1850835D+01
EXPONENTS  0.7220678D+00 0.7224046D+02 0.1680771D+02 0.5225941D+01 0.1850835D+01
EXPONENTS  0.7220678D+00 0.2949102D+00 0.2949102D+00 0.2949102D+00 0.1220114D+00
EXPONENTS  0.1220114D+00 0.1220114D+00 0.4986539D-01 0.4986539D-01 0.4986539D-01
EXPONENTS  0.1110000D+01 0.1110000D+01 0.1110000D+01 0.1110000D+01 0.1110000D+01
EXPONENTS  0.1110000D+01 0.4020000D+00 0.4020000D+00 0.4020000D+00 0.4020000D+00
EXPONENTS  0.4020000D+00 0.4020000D+00 0.1450000D+00 0.1450000D+00 0.1450000D+00
EXPONENTS  0.1450000D+00 0.1450000D+00 0.1450000D+00 0.5089659D-01 0.5089659D-01
EXPONENTS  0.5089659D-01 0.5089659D-01 0.5089659D-01 0.5089659D-01 0.8820000D+00
EXPONENTS  0.8820000D+00 0.8820000D+00 0.8820000D+00 0.8820000D+00 0.8820000D+00
EXPONENTS  0.8820000D+00 0.8820000D+00 0.8820000D+00 0.8820000D+00 0.3110000D+00
EXPONENTS  0.3110000D+00 0.3110000D+00 0.3110000D+00 0.3110000D+00 0.3110000D+00
EXPONENTS  0.3110000D+00 0.3110000D+00 0.3110000D+00 0.3110000D+00 0.6730000D+00
EXPONENTS  0.6730000D+00 0.6730000D+00 0.6730000D+00 0.6730000D+00 0.6730000D+00
EXPONENTS  0.6730000D+00 0.6730000D+00 0.6730000D+00 0.6730000D+00 0.6730000D+00
EXPONENTS  0.6730000D+00 0.6730000D+00 0.6730000D+00 0.6730000D+00 0.1062904D+08
EXPONENTS  0.1591918D+07 0.3623340D+06 0.1026431D+06 0.3348985D+05 0.1209125D+05
EXPONENTS  0.4716191D+04 0.1956160D+04 0.8530860D+03 0.3879663D+03 0.1828516D+03
EXPONENTS  0.3240409D+04 0.1000463D+04 0.3833730D+03 0.1660393D+03 0.8791991D+02
EXPONENTS  0.3567584D+02 0.1754366D+02 0.8447366D+01 0.3966618D+01 0.1835682D+01
EXPONENTS  0.5908478D+00 0.2886322D+00 0.1215338D+00 0.4797394D-01 0.2656648D+05
EXPONENTS  0.6290509D+04 0.2043318D+04 0.7816722D+03 0.3315108D+03 0.1510920D+03
EXPONENTS  0.7239528D+02 0.3586951D+02 0.1813991D+02 0.9046669D+01 0.2656648D+05
EXPONENTS  0.6290509D+04 0.2043318D+04 0.7816722D+03 0.3315108D+03 0.1510920D+03
EXPONENTS  0.7239528D+02 0.3586951D+02 0.1813991D+02 0.9046669D+01 0.2656648D+05
EXPONENTS  0.6290509D+04 0.2043318D+04 0.7816722D+03 0.3315108D+03 0.1510920D+03
EXPONENTS  0.7239528D+02 0.3586951D+02 0.1813991D+02 0.9046669D+01 0.2537182D+03
EXPONENTS  0.9725082D+02 0.4203490D+02 0.9968567D+01 0.4939585D+01 0.2537182D+03
EXPONENTS  0.9725082D+02 0.4203490D+02 0.9968567D+01 0.4939585D+01 0.2537182D+03
EXPONENTS  0.9725082D+02 0.4203490D+02 0.9968567D+01 0.4939585D+01 0.2438285D+01
EXPONENTS  0.2438285D+01 0.2438285D+01 0.1180000D+01 0.1180000D+01 0.1180000D+01
EXPONENTS  0.5104756D+00 0.5104756D+00 0.5104756D+00 0.2121585D+00 0.2121585D+00
EXPONENTS  0.2121585D+00 0.8394360D-01 0.8394360D-01 0.8394360D-01 0.2444463D-01
EXPONENTS  0.2444463D-01 0.2444463D-01 0.6014443D+03 0.1808572D+03 0.6998681D+02
EXPONENTS  0.3032471D+02 0.1402791D+02 0.6651170D+01 0.3135417D+01 0.6014443D+03
EXPONENTS  0.1808572D+03 0.6998681D+02 0.3032471D+02 0.1402791D+02 0.6651170D+01
EXPONENTS  0.3135417D+01 0.6014443D+03 0.1808572D+03 0.6998681D+02 0.3032471D+02
EXPONENTS  0.1402791D+02 0.6651170D+01 0.3135417D+01 0.6014443D+03 0.1808572D+03
EXPONENTS  0.6998681D+02 0.3032471D+02 0.1402791D+02 0.6651170D+01 0.3135417D+01
EXPONENTS  0.6014443D+03 0.1808572D+03 0.6998681D+02 0.3032471D+02 0.1402791D+02
EXPONENTS  0.6651170D+01 0.3135417D+01 0.6014443D+03 0.1808572D+03 0.6998681D+02
EXPONENTS  0.3032471D+02 0.1402791D+02 0.6651170D+01 0.3135417D+01 0.1439359D+01
EXPONENTS  0.1439359D+01 0.1439359D+01 0.1439359D+01 0.1439359D+01 0.1439359D+01
EXPONENTS  0.5935044D+00 0.5935044D+00 0.5935044D+00 0.5935044D+00 0.5935044D+00
EXPONENTS  0.5935044D+00 0.2300000D+00 0.2300000D+00 0.2300000D+00 0.2300000D+00
EXPONENTS  0.2300000D+00 0.2300000D+00 0.7666551D-01 0.7666551D-01 0.7666551D-01
EXPONENTS  0.7666551D-01 0.7666551D-01 0.7666551D-01 0.3407000D+00 0.3407000D+00
EXPONENTS  0.3407000D+00 0.3407000D+00 0.3407000D+00 0.3407000D+00 0.3407000D+00
EXPONENTS  0.3407000D+00 0.3407000D+00 0.3407000D+00 0.8257000D+00 0.8257000D+00
EXPONENTS  0.8257000D+00 0.8257000D+00 0.8257000D+00 0.8257000D+00 0.8257000D+00
EXPONENTS  0.8257000D+00 0.8257000D+00 0.8257000D+00 0.6491000D+00 0.6491000D+00
EXPONENTS  0.6491000D+00 0.6491000D+00 0.6491000D+00 0.6491000D+00 0.6491000D+00
EXPONENTS  0.6491000D+00 0.6491000D+00 0.6491000D+00 0.6491000D+00 0.6491000D+00
EXPONENTS  0.6491000D+00 0.6491000D+00 0.6491000D+00
MO    1     MO 0.0        OCC NO =    2.0000000  ORB. ENERGY = -490.056483
 -0.74818252D-07 -0.14001740D-06 -0.24192017D-06 -0.39306632D-06 -0.59955513D-06
 -0.83978547D-06 -0.10167154D-05 -0.97158380D-06  0.81286508D-06  0.31992183D-05
 -0.31193828D-05  0.31464743D-05  0.26404461D-05 -0.10366148D-04  0.16736877D-05
  0.27971792D-06  0.96639293D-16  0.12407946D-15  0.12977946D-15  0.11941462D-15
  0.92340939D-16  0.48786992D-16  0.62639774D-16  0.65517342D-16  0.60284796D-16
  0.46617028D-16  0.20304803D-05  0.26070234D-05  0.27267858D-05  0.25090108D-05
  0.19401680D-05 -0.81640542D-16 -0.35735091D-16 -0.97708833D-05  0.37134479D-16
 -0.19812926D-16 -0.12633536D-05 -0.10204158D-16 -0.28162243D-17  0.43391570D-06
 -0.63259955D-06 -0.63259955D-06  0.12651991D-05  0.29047059D-15  0.28426230D-15
  0.26652635D-15  0.21148259D-05  0.21148259D-05 -0.42296517D-05 -0.50166114D-16
 -0.41718830D-16 -0.42635790D-16  0.22548001D-06  0.22548001D-06 -0.45096001D-06
  0.15078794D-16 -0.22330037D-17 -0.89933414D-17 -0.23235934D-07 -0.23235934D-07
  0.46471868D-07 -0.23503200D-18  0.24826304D-19 -0.12697432D-17  0.11280351D-16
  0.13481607D-17 -0.13101348D-05  0.11282946D-16  0.13385455D-17  0.19652023D-05
 -0.45123998D-16 -0.53830276D-17  0.19652023D-05 -0.93418396D-17 -0.19165122D-17
  0.21679642D-17 -0.25076959D-06 -0.19166866D-17  0.21683200D-17  0.37615438D-06
  0.76662231D-17 -0.86722126D-17  0.37615438D-06  0.53462755D-19  0.18605822D-06
  0.18605822D-06  0.49615525D-06  0.22615867D-17 -0.71793656D-17  0.22648723D-17
  0.49136058D-16  0.95726546D-17 -0.65515400D-16  0.37211644D-06 -0.14884658D-05
 -0.14884658D-05  0.49138025D-16 -0.71798670D-17 -0.13579377D-16  0.78700137D+00
  0.14730197D+01  0.25517336D+01  0.41813995D+01  0.65494424D+01  0.98430530D+01
  0.14066778D+02  0.18670882D+02  0.21745406D+02  0.19980128D+02  0.11693219D+02
  0.30663281D-03  0.13188867D-02  0.32376319D-02  0.41246695D-02  0.30945335D+01
  0.15012109D+00 -0.14627833D-01  0.40669436D-02 -0.12621102D-02  0.28689152D-03
 -0.72680309D-04  0.32819299D-04 -0.10147362D-05 -0.94692357D-06 -0.44090185D-16
 -0.64680780D-16 -0.91143089D-16 -0.11959116D-15 -0.14224866D-15 -0.14601293D-15
 -0.11878505D-15 -0.67700973D-16 -0.21252902D-16 -0.25042080D-17  0.15585739D-14
  0.22864448D-14  0.32218790D-14  0.42275092D-14  0.50284444D-14  0.51615103D-14
  0.41990135D-14  0.23932077D-14  0.75128326D-15  0.88522949D-16 -0.76765756D-04
 -0.11261620D-03 -0.15868992D-03 -0.20822108D-03 -0.24767021D-03 -0.25422422D-03
 -0.20681756D-03 -0.11787468D-03 -0.37003588D-04 -0.43600955D-05 -0.29458464D-16
 -0.67261673D-16 -0.73038437D-16  0.90923649D-16  0.83572362D-16  0.33845865D-16
  0.77279300D-16  0.83916428D-16 -0.10446538D-15 -0.96019225D-16 -0.76541104D-05
 -0.17476413D-04 -0.18977373D-04  0.23624438D-04  0.21714373D-04  0.13372492D-15
 -0.59345675D-16 -0.11260805D-04 -0.16431694D-15  0.28420640D-16 -0.92403540D-06
  0.50950937D-16 -0.13312729D-16  0.81375051D-05 -0.10457456D-16  0.25494026D-16
 -0.10529132D-04  0.26928430D-17  0.12378094D-16  0.54451817D-06  0.14930993D-17
  0.30835244D-18 -0.45488898D-08 -0.23212963D-04 -0.25826423D-04 -0.24860253D-04
 -0.19130411D-04 -0.11356626D-04 -0.46929592D-05 -0.13040240D-05 -0.23212963D-04
 -0.25826423D-04 -0.24860253D-04 -0.19130411D-04 -0.11356626D-04 -0.46929592D-05
 -0.13040240D-05  0.46425926D-04  0.51652845D-04  0.49720506D-04  0.38260823D-04
  0.22713252D-04  0.93859183D-05  0.26080480D-05 -0.18645511D-14 -0.20744739D-14
 -0.19968675D-14 -0.15366254D-14 -0.91220622D-15 -0.37695585D-15 -0.10474403D-15
  0.23980657D-15  0.26680549D-15  0.25682426D-15  0.19763088D-15  0.11732210D-15
  0.48481637D-16  0.13471504D-16  0.19497294D-14  0.21692421D-14  0.20880904D-14
  0.16068231D-14  0.95387855D-15  0.39417633D-15  0.10952906D-15  0.21311388D-05
  0.21311388D-05 -0.42622776D-05  0.26410353D-17 -0.65235773D-16 -0.20232914D-15
 -0.11882674D-06 -0.11882674D-06  0.23765348D-06  0.50669497D-17  0.29266690D-17
  0.56556264D-16 -0.15217575D-05 -0.15217575D-05  0.30435151D-05  0.14604059D-16
  0.13928947D-16 -0.21860123D-16  0.20975516D-07  0.20975516D-07 -0.41951032D-07
 -0.16205622D-17 -0.10263974D-17 -0.43494420D-17 -0.27397118D-18 -0.45710915D-17
 -0.14367431D-05 -0.27291065D-18 -0.45709530D-17  0.21551146D-05  0.10948242D-17
  0.18284227D-16  0.21551146D-05 -0.13177623D-17  0.36568631D-17 -0.40204143D-17
  0.14404726D-05  0.36559878D-17 -0.40200895D-17 -0.21607089D-05 -0.14626577D-16
  0.16081333D-16 -0.21607089D-05 -0.22371779D-16  0.33930531D-06  0.33930531D-06
  0.90481416D-06 -0.64160873D-17  0.50463931D-17 -0.64158717D-17  0.32905986D-16
 -0.67283478D-17 -0.43875183D-16  0.67861062D-06 -0.27144425D-05 -0.27144425D-05
  0.32907591D-16  0.50458641D-17  0.38495877D-16
MO    2     MO 0.0        OCC NO =    2.0000000  ORB. ENERGY =  -65.197636
  0.12812933D-06  0.23978555D-06  0.41429824D-06  0.67314223D-06  0.10267628D-05
  0.14381671D-05  0.17411670D-05  0.16638772D-05 -0.21798302D-05 -0.85792253D-05
  0.10074122D-04 -0.12076349D-04 -0.10535230D-04  0.41970599D-04 -0.85068029D-05
 -0.14530915D-05  0.55614053D-16  0.71405339D-16  0.74685583D-16  0.68720814D-16
  0.53140433D-16  0.18936475D-15  0.24313377D-15  0.25430293D-15  0.23399301D-15
  0.18094212D-15 -0.67992506D-05 -0.87298582D-05 -0.91308935D-05 -0.84016542D-05
 -0.64968313D-05 -0.44224961D-16 -0.18428787D-16  0.39880181D-04  0.77304051D-17
  0.32720091D-16  0.46956992D-05  0.37595933D-18  0.14064115D-17 -0.20341527D-05
  0.19744084D-05  0.19744084D-05 -0.39488167D-05 -0.37303687D-16  0.18080359D-16
 -0.10938518D-15 -0.85605972D-05 -0.85605972D-05  0.17121194D-04  0.41941086D-16
  0.22436026D-16  0.57613148D-16 -0.89420781D-06 -0.89420781D-06  0.17884156D-05
 -0.93858494D-19 -0.10719634D-16  0.14980018D-16  0.10230531D-06  0.10230531D-06
 -0.20461061D-06 -0.22627959D-18  0.10675902D-17  0.10619786D-17 -0.30654192D-17
  0.67765867D-17  0.52871754D-05 -0.30479729D-17  0.67118310D-17 -0.79307630D-05
  0.12244231D-16 -0.27041591D-16 -0.79307630D-05 -0.38805632D-16  0.31054526D-17
 -0.63518160D-17  0.99456418D-06  0.31020166D-17 -0.63492236D-17 -0.14918463D-05
 -0.12418374D-16  0.25404672D-16 -0.14918463D-05  0.11625586D-17 -0.75190148D-06
 -0.75190148D-06 -0.20050706D-05 -0.67250067D-17  0.18568487D-16 -0.67065695D-17
 -0.22506472D-16 -0.24753838D-16  0.30007222D-16 -0.15038030D-05  0.60152118D-05
  0.60152118D-05 -0.22502251D-16  0.18556053D-16  0.40294728D-16  0.24908209D+00
  0.46620354D+00  0.80761121D+00  0.13233925D+01  0.20728665D+01  0.31152782D+01
  0.44520664D+01  0.59092431D+01  0.68823149D+01  0.63236131D+01  0.37008467D+01
  0.27055454D+00  0.11637072D+01  0.28566937D+01  0.36393629D+01  0.12527119D+01
 -0.43405935D+01 -0.34774458D+01 -0.60794898D+00 -0.12256553D-01 -0.23664310D-02
  0.32622876D-03 -0.12841967D-03  0.67328803D-05  0.51340236D-05 -0.15166752D-15
 -0.22249790D-15 -0.31352661D-15 -0.41138622D-15 -0.48932661D-15 -0.50227548D-15
 -0.40861326D-15 -0.23288718D-15 -0.73108672D-16 -0.86143211D-17  0.16599066D-14
  0.24351010D-14  0.34313536D-14  0.45023662D-14  0.53553752D-14  0.54970926D-14
  0.44720178D-14  0.25488052D-14  0.80012892D-15  0.94278383D-16  0.63066670D-03
  0.92519488D-03  0.13037122D-02  0.17106338D-02  0.20347270D-02  0.20885712D-02
  0.16991032D-02  0.96839578D-03  0.30400184D-03  0.35820230D-04 -0.32145242D-16
 -0.73396316D-16 -0.79699953D-16  0.99216398D-16  0.91194632D-16  0.13878421D-16
  0.31688203D-16  0.34409742D-16 -0.42835793D-16 -0.39372467D-16 -0.63949183D-04
 -0.14601335D-03 -0.15855370D-03  0.19737937D-03  0.18142101D-03 -0.39511737D-16
 -0.25090033D-17 -0.63135177D-04  0.44094616D-16 -0.20685088D-17  0.42052293D-04
 -0.34378353D-16  0.28317990D-16 -0.41754845D-04  0.14219782D-16 -0.31900391D-16
  0.43498660D-04 -0.43043736D-18 -0.10507902D-16 -0.30041242D-05 -0.37942998D-18
  0.26940759D-18  0.67227839D-08  0.48342935D-03  0.53785683D-03  0.51773554D-03
  0.39840680D-03  0.23651122D-03  0.97734796D-04  0.27157390D-04  0.48342935D-03
  0.53785683D-03  0.51773554D-03  0.39840680D-03  0.23651122D-03  0.97734796D-04
  0.27157390D-04 -0.96685869D-03 -0.10757137D-02 -0.10354711D-02 -0.79681360D-03
 -0.47302245D-03 -0.19546959D-03 -0.54314779D-04 -0.77187316D-15 -0.85877545D-15
 -0.82664854D-15 -0.63612091D-15 -0.37762843D-15 -0.15604941D-15 -0.43361166D-16
  0.50063103D-15  0.55699519D-15  0.53615793D-15  0.41258316D-15  0.24492691D-15
  0.10121246D-15  0.28123721D-16 -0.41641870D-15 -0.46330171D-15 -0.44596953D-15
 -0.34318157D-15 -0.20372718D-15 -0.84187269D-16 -0.23392963D-16 -0.14789243D-04
 -0.14789243D-04  0.29578487D-04  0.15435504D-16 -0.82759345D-17 -0.52265228D-16
  0.16994070D-05  0.16994070D-05 -0.33988141D-05  0.33100169D-17 -0.22133888D-16
  0.19441300D-16  0.59757287D-05  0.59757287D-05 -0.11951457D-04  0.89204863D-18
 -0.86687340D-17  0.22018712D-16 -0.97040238D-07 -0.97040238D-07  0.19408048D-06
 -0.14404668D-18 -0.16474970D-17  0.53131725D-17 -0.25574922D-17  0.11874807D-16
  0.57041377D-05 -0.25487047D-17  0.11875987D-16 -0.85562066D-05  0.10221181D-16
 -0.47500407D-16 -0.85562066D-05  0.58556636D-17 -0.15700279D-17 -0.10383843D-16
 -0.72626543D-05 -0.15904074D-17 -0.10382438D-16  0.10893981D-04  0.63004910D-17
  0.41533966D-16  0.10893981D-04 -0.12214302D-16 -0.12821407D-05 -0.12821407D-05
 -0.34190418D-05  0.23180578D-17  0.87411238D-17  0.23123482D-17 -0.18272761D-16
 -0.11644590D-16  0.24372188D-16 -0.25642813D-05  0.10257125D-04  0.10257125D-04
 -0.18298282D-16  0.87103973D-17 -0.13891218D-16
MO    3     MO 0.0        OCC NO =    2.0000000  ORB. ENERGY =  -58.552259
 -0.10976849D-05 -0.20542446D-05 -0.35492961D-05 -0.57668146D-05 -0.87962847D-05
 -0.12320789D-04 -0.14916590D-04 -0.14254448D-04  0.14478713D-04  0.56984322D-04
 -0.62114084D-04  0.48838345D-04  0.93083382D-05  0.78651783D-05 -0.43545504D-04
 -0.12762860D-04  0.35061505D-16  0.45017015D-16  0.47085022D-16  0.43324574D-16
  0.33502027D-16 -0.32800977D-16 -0.42114623D-16 -0.44049299D-16 -0.40531299D-16
 -0.31342044D-16  0.29847908D-04  0.38323047D-04  0.40083545D-04  0.36882270D-04
  0.28520323D-04 -0.29929361D-15  0.12589089D-15 -0.17801645D-04 -0.78695490D-16
 -0.36505966D-16 -0.11525102D-05  0.37592797D-15 -0.44699484D-16 -0.83167835D-05
 -0.25266650D-04 -0.25266650D-04  0.50533301D-04 -0.15791744D-15 -0.55542371D-15
 -0.37399851D-15  0.18890457D-04  0.18890457D-04 -0.37780913D-04  0.40538117D-16
 -0.72852129D-16  0.10857224D-15  0.80817383D-07  0.80817383D-07 -0.16163477D-06
 -0.19503552D-17 -0.26936177D-15  0.35682307D-16  0.14616635D-06  0.14616635D-06
 -0.29233269D-06  0.25418898D-19  0.11281106D-15 -0.16634638D-16 -0.34485479D-15
  0.72100412D-16 -0.29017599D-04 -0.34494912D-15  0.72450104D-16  0.43526398D-04
  0.13795135D-14 -0.28875134D-15  0.43526398D-04 -0.58793264D-16  0.52514754D-16
 -0.15179428D-16 -0.89011267D-05  0.52527302D-16 -0.15210709D-16  0.13351690D-04
 -0.21007156D-15  0.60748993D-16  0.13351690D-04 -0.47439851D-17 -0.57461490D-05
 -0.57461490D-05 -0.15323064D-04  0.70133062D-17 -0.90204342D-15  0.70094849D-17
  0.14678537D-15  0.12027248D-14 -0.19568878D-15 -0.11492298D-04  0.45969192D-04
  0.45969192D-04  0.14671024D-15 -0.90204409D-15 -0.42068373D-16  0.11074924D-04
  0.20728784D-04  0.35908775D-04  0.58841933D-04  0.92165758D-04  0.13851445D-03
  0.19795200D-03  0.26274237D-03  0.30600801D-03  0.28116648D-03  0.16455056D-03
  0.13285594D-04  0.57143899D-04  0.14027809D-03  0.17871109D-03  0.76556298D-04
 -0.31154462D-03 -0.25888565D-03  0.57535053D-04  0.64376302D-04  0.72767567D-05
 -0.83271680D-04  0.11629737D-03 -0.44802424D-04  0.51402922D-04 -0.25799068D-08
 -0.37847512D-08 -0.53331749D-08 -0.69977942D-08 -0.83235819D-08 -0.85438458D-08
 -0.69506253D-08 -0.39614757D-08 -0.12435989D-08 -0.14653200D-09  0.38970678D-09
  0.57170406D-09  0.80560059D-09  0.10570490D-08  0.12573153D-08  0.12905872D-08
  0.10499239D-08  0.59839912D-09  0.18785133D-09  0.22134332D-10 -0.30005067D+02
 -0.44017758D+02 -0.62026377D+02 -0.81386384D+02 -0.96805682D+02 -0.99367415D+02
 -0.80837797D+02 -0.46073116D+02 -0.14463417D+02 -0.17042098D+01  0.70033371D-12
  0.15990520D-11  0.17363865D-11 -0.21615824D-11 -0.19868158D-11 -0.10580520D-12
 -0.24158201D-12 -0.26233026D-12  0.32656812D-12  0.30016469D-12  0.82006386D-02
  0.18724285D-01  0.20332419D-01 -0.25311299D-01 -0.23264850D-01 -0.15273310D-11
  0.23072793D-12 -0.18011410D-01  0.26204531D-12 -0.39591390D-13  0.33508646D-02
 -0.49747716D-13  0.75156467D-14 -0.75229611D-03  0.90244581D-14 -0.13841367D-14
  0.13219602D-03 -0.16009911D-14  0.24713676D-15 -0.27264780D-04 -0.14275657D-16
  0.19056641D-17 -0.68153464D-06 -0.28450972D-03 -0.31654160D-03 -0.30469974D-03
 -0.23447192D-03 -0.13919251D-03 -0.57519263D-04 -0.15982773D-04 -0.28450972D-03
 -0.31654160D-03 -0.30469974D-03 -0.23447192D-03 -0.13919251D-03 -0.57519263D-04
 -0.15982773D-04  0.56901945D-03  0.63308320D-03  0.60939947D-03  0.46894385D-03
  0.27838501D-03  0.11503853D-03  0.31965545D-04  0.44965657D-16  0.50028171D-16
  0.48156610D-16  0.37057377D-16  0.21998835D-16  0.90906962D-17  0.25260152D-17
  0.34441034D-13  0.38318620D-13  0.36885115D-13  0.28383759D-13  0.16849807D-13
  0.69629356D-14  0.19347782D-14 -0.75366734D-14 -0.83851990D-14 -0.80715076D-14
 -0.62111702D-14 -0.36872148D-14 -0.15236875D-14 -0.42338426D-15  0.75083296D-04
  0.75083296D-04 -0.15016659D-03  0.43689357D-18 -0.44597804D-14  0.63101993D-15
 -0.44710923D-04 -0.44710923D-04  0.89421846D-04 -0.21759342D-18  0.27419752D-14
 -0.36551759D-15  0.57484970D-05  0.57484970D-05 -0.11496994D-04 -0.40615192D-19
 -0.93807236D-15  0.16525545D-15 -0.67530166D-06 -0.67530166D-06  0.13506033D-05
  0.11954243D-18  0.17714195D-15 -0.33165474D-16 -0.73826317D-16  0.15406293D-16
  0.19965484D-05 -0.73833159D-16  0.15422721D-16 -0.29948226D-05  0.29531211D-15
 -0.61641601D-16 -0.29948226D-05 -0.61628274D-17  0.32637680D-15 -0.56336014D-16
 -0.34542053D-04  0.32635572D-15 -0.56546433D-16  0.51813079D-04 -0.13054861D-14
  0.22555448D-15  0.51813079D-04  0.14477761D-16  0.18015034D-05  0.18015034D-05
  0.48040090D-05 -0.50060345D-17 -0.31666484D-16 -0.50240107D-17  0.12373921D-16
  0.42216238D-16 -0.16483577D-16  0.36030067D-05 -0.14412027D-04 -0.14412027D-04
  0.12328966D-16 -0.31649263D-16  0.30090136D-16
MO    4     MO 0.0        OCC NO =    2.0000000  ORB. ENERGY =  -58.551995
  0.93854321D-16  0.17564214D-15  0.30347212D-15  0.49307451D-15  0.75210044D-15
  0.10534528D-14  0.12753992D-14  0.12187847D-14 -0.11718302D-14 -0.46120085D-14
  0.49386488D-14 -0.39393019D-14 -0.64220447D-15 -0.57554022D-15  0.34489619D-14
  0.10000049D-14  0.20313028D-06  0.26080794D-06  0.27278902D-06  0.25100271D-06
  0.19409538D-06  0.52890250D-07  0.67908129D-07  0.71027716D-07  0.65355083D-07
  0.50537780D-07 -0.23652954D-14 -0.30369073D-14 -0.31764178D-14 -0.29227330D-14
 -0.22600910D-14 -0.30026902D-05 -0.78182849D-06  0.13720166D-14 -0.96098768D-06
 -0.25021814D-06  0.84659842D-16  0.41975456D-05  0.10929402D-05  0.66060943D-15
  0.19512577D-14  0.21770270D-14 -0.41282847D-14 -0.12131328D-15 -0.63867729D-05
 -0.16629624D-05 -0.15041513D-14 -0.15208424D-14  0.30249937D-14  0.17888428D-16
 -0.10310706D-05 -0.26846606D-06 -0.65653941D-17 -0.64893538D-17  0.13054748D-16
 -0.24970514D-17 -0.29615586D-05 -0.77111880D-06 -0.11976148D-16 -0.11982242D-16
  0.23958389D-16  0.29510832D-18  0.12501354D-05  0.32550526D-06 -0.39233214D-05
 -0.10215388D-05  0.23066563D-14 -0.39233214D-05 -0.10215388D-05 -0.33801115D-14
  0.15693285D-04  0.40861550D-05 -0.35398573D-14  0.14037762D-15  0.57044107D-06
  0.14852917D-06  0.71052208D-15  0.57044107D-06  0.14852917D-06 -0.10632807D-14
 -0.22817643D-05 -0.59411667D-06 -0.10682856D-14 -0.27862300D-17  0.45567440D-15
  0.45905871D-15  0.12200104D-14  0.13238920D-16 -0.10366483D-04  0.24021183D-16
 -0.26991836D-05  0.13821978D-04  0.35989114D-05  0.91583185D-15 -0.36498783D-14
 -0.36701841D-14 -0.26991836D-05 -0.10366483D-04 -0.11178031D-15 -0.85682401D-15
 -0.16037058D-14 -0.27781230D-14 -0.45523726D-14 -0.71305079D-14 -0.10716327D-13
 -0.15314780D-13 -0.20327360D-13 -0.23674655D-13 -0.21752762D-13 -0.12730640D-13
 -0.10225546D-14 -0.43982042D-14 -0.10796807D-13 -0.13754887D-13 -0.63285473D-14
  0.24762034D-13  0.19594457D-13 -0.42634601D-14 -0.54286679D-14 -0.28286224D-16
  0.62200019D-14 -0.89150047D-14  0.34269697D-14 -0.40263453D-14 -0.29037276D+02
 -0.42597999D+02 -0.60025764D+02 -0.78761329D+02 -0.93683289D+02 -0.96162395D+02
 -0.78230436D+02 -0.44587063D+02 -0.13996911D+02 -0.16492419D+01 -0.75606101D+01
 -0.11091497D+02 -0.15629269D+02 -0.20507560D+02 -0.24392881D+02 -0.25038381D+02
 -0.20369329D+02 -0.11609401D+02 -0.36444597D+01 -0.42942301D+00  0.23984320D-08
  0.35185257D-08  0.49580308D-08  0.65055581D-08  0.77380877D-08  0.79428579D-08
  0.64617071D-08  0.36828191D-08  0.11561221D-08  0.13622470D-09  0.78827230D-02
  0.17998397D-01  0.19544188D-01 -0.24330051D-01 -0.22362937D-01  0.20524719D-02
  0.46863508D-02  0.50888377D-02 -0.63349616D-02 -0.58227723D-02 -0.65501389D-12
 -0.14955746D-11 -0.16240219D-11  0.20217026D-11  0.18582455D-11 -0.17188384D-01
 -0.44754429D-02  0.14392046D-11  0.29477364D-02  0.76751983D-03 -0.26804371D-12
 -0.55924428D-03 -0.14561379D-03  0.60110385D-13  0.10136669D-03  0.26393453D-04
 -0.10593732D-13 -0.17956826D-04 -0.46755267D-05  0.21592485D-14 -0.15220792D-06
 -0.39631290D-07  0.51734261D-16  0.32521033D-13  0.36182453D-13  0.34828863D-13
  0.26801436D-13  0.15910472D-13  0.65747694D-14  0.18269192D-14  0.28188131D-13
  0.31361727D-13  0.30188480D-13  0.23230578D-13  0.13790659D-13  0.56987878D-14
  0.15835118D-14 -0.60709164D-13 -0.67544180D-13 -0.65017343D-13 -0.50032014D-13
 -0.29701132D-13 -0.12273557D-13 -0.34104310D-14  0.57913889D-15  0.64434196D-15
  0.62023704D-15  0.47728355D-15  0.28333581D-15  0.11708437D-15  0.32534021D-16
  0.38946243D-03  0.43331054D-03  0.41710033D-03  0.32096620D-03  0.19053919D-03
  0.78737527D-04  0.21878653D-04  0.10140667D-03  0.11282367D-03  0.10860292D-03
  0.83571899D-04  0.49611834D-04  0.20501363D-04  0.56966764D-05 -0.60973971D-14
 -0.59312609D-14  0.12028658D-13 -0.44265125D-16 -0.50259228D-04 -0.13086297D-04
  0.35680345D-14  0.35323657D-14 -0.71004002D-14  0.10723708D-16  0.30927372D-04
  0.80527457D-05 -0.46732070D-15 -0.46368442D-15  0.93100512D-15 -0.29374396D-17
 -0.10540517D-04 -0.27444978D-05  0.52722073D-16  0.52774369D-16 -0.10549644D-15
 -0.46306313D-20  0.19923399D-05  0.51875751D-06 -0.81180073D-06 -0.21137343D-06
 -0.15921144D-15 -0.81180073D-06 -0.21137343D-06  0.24316174D-15  0.32472029D-05
  0.84549373D-06  0.23447257D-15  0.70590352D-17  0.37066940D-05  0.96513419D-06
  0.27325410D-14  0.37066940D-05  0.96513419D-06 -0.41065814D-14 -0.14826776D-04
 -0.38605368D-05 -0.40910417D-14 -0.66679702D-16 -0.14273573D-15 -0.15136499D-15
 -0.39062647D-15  0.31326084D-17 -0.53648580D-06  0.17795004D-17 -0.13968803D-06
  0.71531440D-06  0.18625071D-06 -0.28957725D-15  0.11459916D-14  0.11977672D-14
 -0.13968803D-06 -0.53648580D-06 -0.14736326D-16
MO    5     MO 0.0        OCC NO =    2.0000000  ORB. ENERGY =  -58.551995
  0.31796018D-16  0.59504139D-16  0.10281045D-15  0.16704405D-15  0.25479700D-15
  0.35688930D-15  0.43208043D-15  0.41290053D-15 -0.48867845D-15 -0.19233069D-14
  0.20744327D-14 -0.17255426D-14 -0.48501625D-15  0.23774756D-15  0.19359031D-14
  0.48942385D-15  0.52890250D-07  0.67908129D-07  0.71027716D-07  0.65355083D-07
  0.50537780D-07 -0.20313028D-06 -0.26080794D-06 -0.27278902D-06 -0.25100271D-06
 -0.19409538D-06 -0.11880996D-14 -0.15254536D-14 -0.15955304D-14 -0.14681033D-14
 -0.11352549D-14 -0.78182849D-06  0.30026902D-05  0.99159354D-15 -0.25021814D-06
  0.96098768D-06  0.35019125D-15  0.10929402D-05 -0.41975456D-05  0.32460395D-15
  0.97183255D-15  0.54236825D-15 -0.15142008D-14 -0.42141125D-16 -0.16629624D-05
  0.63867729D-05 -0.71117482D-15 -0.67937519D-15  0.13905500D-14  0.34189629D-16
 -0.26846606D-06  0.10310706D-05 -0.35240032D-16 -0.32998664D-16  0.68238696D-16
  0.36271503D-17 -0.77111880D-06  0.29615586D-05 -0.60005128D-17 -0.62120173D-17
  0.12212530D-16 -0.10383636D-18  0.32550526D-06 -0.12501354D-05 -0.10215388D-05
  0.39233214D-05  0.10673987D-14 -0.10215388D-05  0.39233214D-05 -0.16321581D-14
  0.40861550D-05 -0.15693285D-04 -0.15700380D-14  0.38778125D-16  0.14852917D-06
 -0.57044107D-06  0.34164054D-15  0.14852917D-06 -0.57044107D-06 -0.50707446D-15
 -0.59411667D-06  0.22817643D-05 -0.51784716D-15  0.41438602D-18  0.20503977D-15
  0.20770991D-15  0.55032178D-15 -0.63626426D-17 -0.26991836D-05 -0.27511244D-17
  0.10366483D-04  0.35989114D-05 -0.13821978D-04  0.41271630D-15 -0.16429549D-14
 -0.16589758D-14  0.10366483D-04 -0.26991836D-05  0.27341301D-16 -0.39134618D-15
 -0.73247729D-15 -0.12688811D-14 -0.20792527D-14 -0.32567914D-14 -0.48945800D-14
 -0.69948793D-14 -0.92843275D-14 -0.10813173D-13 -0.99353663D-14 -0.58145980D-14
 -0.48183944D-15 -0.20724842D-14 -0.50875794D-14 -0.64814604D-14 -0.16659815D-14
  0.95318726D-14  0.10049499D-13 -0.28625915D-14 -0.10342347D-14 -0.12606919D-14
  0.35440426D-14 -0.42566065D-14  0.88628661D-15 -0.19824874D-14 -0.75606101D+01
 -0.11091497D+02 -0.15629269D+02 -0.20507560D+02 -0.24392881D+02 -0.25038381D+02
 -0.20369329D+02 -0.11609401D+02 -0.36444597D+01 -0.42942301D+00  0.29037276D+02
  0.42597999D+02  0.60025764D+02  0.78761329D+02  0.93683289D+02  0.96162395D+02
  0.78230436D+02  0.44587063D+02  0.13996911D+02  0.16492419D+01  0.10271921D-08
  0.15069019D-08  0.21234081D-08  0.27861777D-08  0.33140412D-08  0.34017394D-08
  0.27673973D-08  0.15772649D-08  0.49513994D-09  0.58341840D-10  0.20524719D-02
  0.46863508D-02  0.50888377D-02 -0.63349616D-02 -0.58227723D-02 -0.78827230D-02
 -0.17998397D-01 -0.19544188D-01  0.24330051D-01  0.22362937D-01 -0.28062035D-12
 -0.64073247D-12 -0.69576173D-12  0.86613568D-12  0.79610755D-12 -0.44754429D-02
  0.17188384D-01  0.61638682D-12  0.76751983D-03 -0.29477364D-02 -0.11414423D-12
 -0.14561379D-03  0.55924428D-03  0.25104235D-13  0.26393453D-04 -0.10136669D-03
 -0.39461204D-14 -0.46755267D-05  0.17956826D-04  0.10840153D-14 -0.39631290D-07
  0.15220792D-06  0.25188113D-16  0.51906486D-14  0.57750441D-14  0.55589989D-14
  0.42777496D-14  0.25394541D-14  0.10493922D-14  0.29159269D-15  0.84888192D-14
  0.94445433D-14  0.90912217D-14  0.69958585D-14  0.41530392D-14  0.17161826D-14
  0.47687252D-15 -0.13679468D-13 -0.15219587D-13 -0.14650221D-13 -0.11273608D-13
 -0.66924933D-14 -0.27655747D-14 -0.76846521D-15  0.28436841D-14  0.31638438D-14
  0.30454840D-14  0.23435547D-14  0.13912337D-14  0.57490694D-15  0.15974834D-15
  0.10140667D-03  0.11282367D-03  0.10860292D-03  0.83571899D-04  0.49611834D-04