 Molden2AIM, Version 4.0.0 (06/02/2016)           Time: Sun Jun 24 19:46:31 2018
GAUSSIAN             11 MOL ORBITALS    230 PRIMITIVES        2 NUCLEI
  B    1    (CENTRE  1)   0.00000000  0.00000000 -0.20585921  CHARGE =  5.0
  Cl   2    (CENTRE  2)   0.00000000  0.00000000  3.04044839  CHARGE = 17.0
CENTRE ASSIGNMENTS    1  1  1  1  1  1  1  1  1  1  1  1  1  1  1  1  1  1  1  1
CENTRE ASSIGNMENTS    1  1  1  1  1  1  1  1  1  1  1  1  1  1  1  1  1  1  1  1
CENTRE ASSIGNMENTS    1  1  1  1  1  1  1  1  1  1  1  1  1  1  1  1  1  1  1  1
CENTRE ASSIGNMENTS    1  1  1  1  1  1  1  1  1  1  1  1  1  1  1  1  1  1  1  1
CENTRE ASSIGNMENTS    1  1  1  1  1  1  1  1  1  1  1  1  1  1  1  1  1  1  1  2
CENTRE ASSIGNMENTS    2  2  2  2  2  2  2  2  2  2  2  2  2  2  2  2  2  2  2  2
CENTRE ASSIGNMENTS    2  2  2  2  2  2  2  2  2  2  2  2  2  2  2  2  2  2  2  2
CENTRE ASSIGNMENTS    2  2  2  2  2  2  2  2  2  2  2  2  2  2  2  2  2  2  2  2
CENTRE ASSIGNMENTS    2  2  2  2  2  2  2  2  2  2  2  2  2  2  2  2  2  2  2  2
CENTRE ASSIGNMENTS    2  2  2  2  2  2  2  2  2  2  2  2  2  2  2  2  2  2  2  2
CENTRE ASSIGNMENTS    2  2  2  2  2  2  2  2  2  2  2  2  2  2  2  2  2  2  2  2
CENTRE ASSIGNMENTS    2  2  2  2  2  2  2  2  2  2
TYPE ASSIGNMENTS      1  1  1  1  1  1  1  1  1  1  1  1  1  1  1  1  2  2  2  2
TYPE ASSIGNMENTS      2  3  3  3  3  3  4  4  4  4  4  2  3  4  2  3  4  2  3  4
TYPE ASSIGNMENTS      5  6  7  8  9 10  5  6  7  8  9 10  5  6  7  8  9 10  5  6
TYPE ASSIGNMENTS      7  8  9 10 11 12 13 17 14 15 18 19 16 20 11 12 13 17 14 15
TYPE ASSIGNMENTS     18 19 16 20 21 22 23 24 25 26 27 28 29 30 31 32 33 34 35  1
TYPE ASSIGNMENTS      1  1  1  1  1  1  1  1  1  1  1  1  1  1  1  1  1  1  1  1
TYPE ASSIGNMENTS      2  2  2  2  2  2  2  2  3  3  3  3  3  3  3  3  4  4  4  4
TYPE ASSIGNMENTS      4  4  4  4  2  2  3  3  4  4  2  3  4  2  3  4  2  3  4  2
TYPE ASSIGNMENTS      3  4  2  3  4  5  6  7  8  9 10  5  6  7  8  9 10  5  6  7
TYPE ASSIGNMENTS      8  9 10  5  6  7  8  9 10  5  6  7  8  9 10 11 12 13 17 14
TYPE ASSIGNMENTS     15 18 19 16 20 11 12 13 17 14 15 18 19 16 20 21 22 23 24 25
TYPE ASSIGNMENTS     26 27 28 29 30 31 32 33 34 35
EXPONENTS  0.4644767D+05 0.6957689D+04 0.1583443D+04 0.4484660D+03 0.1462864D+03
EXPONENTS  0.5278439D+02 0.2051940D+02 0.8418566D+01 0.3651002D+02 0.1054185D+02
EXPONENTS  0.3600409D+01 0.1561702D+01 0.4499737D+00 0.1807523D+00 0.7159670D-01
EXPONENTS  0.2994140D-01 0.7224046D+02 0.1680771D+02 0.5225941D+01 0.1850835D+01
EXPONENTS  0.7220678D+00 0.7224046D+02 0.1680771D+02 0.5225941D+01 0.1850835D+01
EXPONENTS  0.7220678D+00 0.7224046D+02 0.1680771D+02 0.5225941D+01 0.1850835D+01
EXPONENTS  0.7220678D+00 0.2949102D+00 0.2949102D+00 0.2949102D+00 0.1220114D+00
EXPONENTS  0.1220114D+00 0.1220114D+00 0.4986539D-01 0.4986539D-01 0.4986539D-01
EXPONENTS  0.1110000D+01 0.1110000D+01 0.1110000D+01 0.1110000D+01 0.1110000D+01
EXPONENTS  0.1110000D+01 0.4020000D+00 0.4020000D+00 0.4020000D+00 0.4020000D+00
EXPONENTS  0.4020000D+00 0.4020000D+00 0.1450000D+00 0.1450000D+00 0.1450000D+00
EXPONENTS  0.1450000D+00 0.1450000D+00 0.1450000D+00 0.5089659D-01 0.5089659D-01
EXPONENTS  0.5089659D-01 0.5089659D-01 0.5089659D-01 0.5089659D-01 0.8820000D+00
EXPONENTS  0.8820000D+00 0.8820000D+00 0.8820000D+00 0.8820000D+00 0.8820000D+00
EXPONENTS  0.8820000D+00 0.8820000D+00 0.8820000D+00 0.8820000D+00 0.3110000D+00
EXPONENTS  0.3110000D+00 0.3110000D+00 0.3110000D+00 0.3110000D+00 0.3110000D+00
EXPONENTS  0.3110000D+00 0.3110000D+00 0.3110000D+00 0.3110000D+00 0.6730000D+00
EXPONENTS  0.6730000D+00 0.6730000D+00 0.6730000D+00 0.6730000D+00 0.6730000D+00
EXPONENTS  0.6730000D+00 0.6730000D+00 0.6730000D+00 0.6730000D+00 0.6730000D+00
EXPONENTS  0.6730000D+00 0.6730000D+00 0.6730000D+00 0.6730000D+00 0.1467459D+07
EXPONENTS  0.2197562D+06 0.5001077D+05 0.1416482D+05 0.4620747D+04 0.1667899D+04
EXPONENTS  0.6502920D+03 0.2693804D+03 0.1170675D+03 0.5281177D+02 0.4614277D+03
EXPONENTS  0.1421267D+03 0.5443784D+02 0.2416077D+02 0.9708354D+01 0.4564070D+01
EXPONENTS  0.2119474D+01 0.7572237D+00 0.3374722D+00 0.1386078D+00 0.5423457D-01
EXPONENTS  0.2501946D+04 0.5928806D+03 0.1921809D+03 0.7287571D+02 0.3043636D+02
EXPONENTS  0.1349018D+02 0.6147807D+01 0.2845094D+01 0.2501946D+04 0.5928806D+03
EXPONENTS  0.1921809D+03 0.7287571D+02 0.3043636D+02 0.1349018D+02 0.6147807D+01
EXPONENTS  0.2845094D+01 0.2501946D+04 0.5928806D+03 0.1921809D+03 0.7287571D+02
EXPONENTS  0.3043636D+02 0.1349018D+02 0.6147807D+01 0.2845094D+01 0.1053940D+03
EXPONENTS  0.6736974D+01 0.1053940D+03 0.6736974D+01 0.1053940D+03 0.6736974D+01
EXPONENTS  0.1242110D+01 0.1242110D+01 0.1242110D+01 0.5566971D+00 0.5566971D+00
EXPONENTS  0.5566971D+00 0.2338780D+00 0.2338780D+00 0.2338780D+00 0.9316449D-01
EXPONENTS  0.9316449D-01 0.9316449D-01 0.2725615D-01 0.2725615D-01 0.2725615D-01
EXPONENTS  0.5191000D+01 0.5191000D+01 0.5191000D+01 0.5191000D+01 0.5191000D+01
EXPONENTS  0.5191000D+01 0.1276000D+01 0.1276000D+01 0.1276000D+01 0.1276000D+01
EXPONENTS  0.1276000D+01 0.1276000D+01 0.5830000D+00 0.5830000D+00 0.5830000D+00
EXPONENTS  0.5830000D+00 0.5830000D+00 0.5830000D+00 0.2430000D+00 0.2430000D+00
EXPONENTS  0.2430000D+00 0.2430000D+00 0.2430000D+00 0.2430000D+00 0.8345654D-01
EXPONENTS  0.8345654D-01 0.8345654D-01 0.8345654D-01 0.8345654D-01 0.8345654D-01
EXPONENTS  0.4230000D+00 0.4230000D+00 0.4230000D+00 0.4230000D+00 0.4230000D+00
EXPONENTS  0.4230000D+00 0.4230000D+00 0.4230000D+00 0.4230000D+00 0.4230000D+00
EXPONENTS  0.1089000D+01 0.1089000D+01 0.1089000D+01 0.1089000D+01 0.1089000D+01
EXPONENTS  0.1089000D+01 0.1089000D+01 0.1089000D+01 0.1089000D+01 0.1089000D+01
EXPONENTS  0.8270000D+00 0.8270000D+00 0.8270000D+00 0.8270000D+00 0.8270000D+00
EXPONENTS  0.8270000D+00 0.8270000D+00 0.8270000D+00 0.8270000D+00 0.8270000D+00
EXPONENTS  0.8270000D+00 0.8270000D+00 0.8270000D+00 0.8270000D+00 0.8270000D+00
MO    1     MO 0.0        OCC NO =    2.0000000  ORB. ENERGY = -104.879231
 -0.61846920D-06 -0.11574241D-05 -0.19997818D-05 -0.32491994D-05 -0.49560953D-05
 -0.69419084D-05 -0.84044624D-05 -0.80313913D-05  0.79814705D-05  0.31412921D-04
 -0.35844489D-04  0.40515352D-04  0.25906381D-05 -0.70582497D-04  0.10763496D-04
  0.61234134D-06 -0.37888290D-16 -0.48646449D-16 -0.50881186D-16 -0.46817557D-16
 -0.36203082D-16  0.23116479D-16  0.29680269D-16  0.31043731D-16  0.28564422D-16
  0.22088297D-16  0.11268048D-04  0.14467544D-04  0.15132159D-04  0.13923629D-04
  0.10766864D-04  0.47241406D-16 -0.27164559D-17 -0.78828564D-04 -0.34217425D-17
  0.13155329D-16 -0.65314746D-05  0.17912525D-17 -0.14333207D-17  0.17705487D-05
 -0.27859122D-05 -0.27859122D-05  0.55718243D-05  0.56856014D-16  0.35975414D-15
 -0.17648495D-16  0.17579575D-04  0.17579575D-04 -0.35159151D-04 -0.25815966D-16
 -0.90801855D-16  0.47497091D-16  0.14755878D-05  0.14755878D-05 -0.29511756D-05
  0.21850906D-16  0.95652713D-17 -0.18671154D-16 -0.10615160D-06 -0.10615160D-06
  0.21230320D-06 -0.11282431D-17  0.72321338D-18  0.37091902D-18 -0.62285361D-17
  0.10196654D-16 -0.12424534D-04 -0.62239515D-17  0.10193050D-16  0.18636802D-04
  0.24909560D-16 -0.40783012D-16  0.18636802D-04  0.14688738D-15 -0.15610091D-17
 -0.12347046D-17 -0.27241074D-05 -0.15613258D-17 -0.12346669D-17  0.40861611D-05
  0.62443533D-17  0.49387806D-17  0.40861611D-05 -0.74093529D-17  0.49979502D-06
  0.49979502D-06  0.13327867D-05  0.40454740D-17  0.23267071D-16  0.40436148D-17
  0.47851303D-17 -0.31021574D-16 -0.63812997D-17  0.99959005D-06 -0.39983602D-05
 -0.39983602D-05  0.47885084D-17  0.23263509D-16 -0.24267267D-16  0.34406491D+00
  0.64391356D+00  0.11153549D+01  0.18242697D+01  0.28457289D+01  0.42219215D+01
  0.58556922D+01  0.72474725D+01  0.73344884D+01  0.50625503D+01  0.23556212D-02
  0.89124809D-02  0.16813392D-01  0.17075238D+01  0.12359308D+00 -0.71716461D-02
  0.23920187D-02 -0.53913604D-03  0.19363436D-03  0.92943347D-05 -0.65273824D-05
  0.17877131D-15  0.25700987D-15  0.34092376D-15  0.39892738D-15  0.39319020D-15
  0.29622745D-15  0.15470534D-15  0.44459833D-16  0.12012960D-15  0.17270384D-15
  0.22909175D-15  0.26806865D-15  0.26421342D-15  0.19905702D-15  0.10395790D-15
  0.29875832D-16 -0.95812333D-03 -0.13774422D-02 -0.18271780D-02 -0.21380479D-02
 -0.21072995D-02 -0.15876285D-02 -0.82914195D-03 -0.23828210D-03  0.92965266D-15
 -0.55786810D-15  0.23517496D-15 -0.14112433D-15 -0.29958455D-02  0.17977539D-02
  0.80084670D-17 -0.51829423D-17  0.85245278D-04 -0.19887850D-17 -0.35328680D-16
  0.53171589D-05  0.33883825D-17  0.15475580D-16 -0.74897810D-04 -0.10146237D-16
 -0.45001881D-17  0.34836444D-05  0.40012185D-18  0.15369671D-18 -0.19525456D-07
 -0.44856156D-04 -0.44856156D-04  0.89712313D-04  0.22824186D-15 -0.15263576D-15
 -0.40468053D-15  0.27538050D-04  0.27538050D-04 -0.55076101D-04  0.88434611D-16
 -0.50572943D-16 -0.19998864D-15 -0.16224294D-04 -0.16224294D-04  0.32448587D-04
  0.16821654D-17 -0.97822144D-17  0.26286001D-16 -0.88024037D-05 -0.88024037D-05
  0.17604807D-04  0.21017293D-16  0.75129056D-17 -0.70191166D-17  0.19354816D-06
  0.19354816D-06 -0.38709632D-06 -0.19551278D-17  0.16028296D-18 -0.30120632D-18
  0.26767282D-17 -0.10676677D-17 -0.12791605D-04  0.26754987D-17 -0.10650988D-17
  0.19187407D-04 -0.10705683D-16  0.42681020D-17  0.19187407D-04 -0.51920987D-17
  0.95352553D-17  0.37873714D-17  0.14165554D-04  0.96137682D-17  0.37321977D-17
 -0.21248331D-04 -0.38219534D-16 -0.15094312D-16 -0.21248331D-04 -0.10209057D-15
  0.30414386D-05  0.30414386D-05  0.81105029D-05  0.28964035D-17  0.12188596D-16
  0.28909284D-17 -0.40990401D-16 -0.16245937D-16  0.54656250D-16  0.60828772D-05
 -0.24331509D-04 -0.24331509D-04 -0.40997548D-16  0.12172022D-16 -0.17361996D-16
MO    2     MO 0.0        OCC NO =    2.0000000  ORB. ENERGY =  -10.606987
 -0.42340720D-05 -0.79237851D-05 -0.13690609D-04 -0.22244186D-04 -0.33929684D-04
 -0.47524663D-04 -0.57537383D-04 -0.54983319D-04  0.17036012D-04  0.67049161D-04
 -0.85982467D-04  0.12756565D-03 -0.60786478D-04 -0.13411435D-03  0.23120550D-03
  0.75593379D-05  0.22101313D-15  0.28376852D-15  0.29680438D-15  0.27310008D-15
  0.21118283D-15  0.78854786D-16  0.10124514D-15  0.10589618D-15  0.97438773D-16
  0.75347457D-16 -0.38267806D-04 -0.49133727D-04 -0.51390849D-04 -0.47286516D-04
 -0.36565718D-04 -0.20401818D-15 -0.10904637D-15 -0.26883982D-03  0.11282174D-15
  0.76227519D-17  0.75592189D-04 -0.13699665D-16 -0.37031507D-17  0.22510101D-04
  0.16861764D-04  0.16861764D-04 -0.33723527D-04  0.21344946D-16 -0.13676523D-15
  0.24091315D-15  0.54131218D-04  0.54131218D-04 -0.10826244D-03 -0.19814751D-16
  0.43255425D-16 -0.58150780D-16 -0.79514597D-06 -0.79514597D-06  0.15902919D-05
 -0.16131620D-17  0.29464975D-16 -0.14345464D-16 -0.10841354D-05 -0.10841354D-05
  0.21682709D-05 -0.12966822D-18 -0.11030051D-17 -0.54075743D-18  0.13228836D-16
 -0.14463946D-16 -0.24683176D-04  0.13066126D-16 -0.14640341D-16  0.37024764D-04
 -0.52752633D-16  0.58032179D-16  0.37024764D-04  0.22960951D-16 -0.94786180D-17
  0.48773336D-17 -0.57997131D-05 -0.94617723D-17  0.48743234D-17  0.86995697D-05
  0.37897626D-16 -0.19506324D-16  0.86995697D-05 -0.10213993D-16  0.39824904D-05
  0.39824904D-05  0.10619974D-04  0.20746561D-17 -0.30980920D-16  0.21605884D-17
  0.15478372D-16  0.41279731D-16 -0.20602005D-16  0.79649808D-05 -0.31859923D-04
 -0.31859923D-04  0.15370898D-16 -0.30896435D-16 -0.12705734D-16  0.97588532D-01
  0.18263582D+00  0.31635266D+00  0.51742503D+00  0.80714568D+00  0.11974808D+01
  0.16608738D+01  0.20556301D+01  0.20803108D+01  0.14359117D+01  0.14897954D+00
  0.56366332D+00  0.10633506D+01  0.11203670D+01 -0.72982791D+00 -0.12668160D+01
 -0.47400839D+00 -0.20150055D-01  0.18931819D-02 -0.48740679D-03 -0.10679193D-03
  0.70975171D-15  0.10203717D-14  0.13535237D-14  0.15838077D-14  0.15610302D-14
  0.11760720D-14  0.61420580D-15  0.17651290D-15 -0.21530883D-15 -0.30953788D-15
 -0.41060220D-15 -0.48046068D-15 -0.47355092D-15 -0.35677080D-15 -0.18632422D-15
 -0.53546592D-16  0.32701647D-02  0.47013393D-02  0.62363297D-02  0.72973578D-02
  0.71924108D-02  0.54187249D-02  0.28299392D-02  0.81327913D-03 -0.84520280D-17
  0.50719123D-17  0.22916834D-16 -0.13751987D-16 -0.49638155D-02  0.29786978D-02
  0.72800742D-17  0.31067471D-16  0.65262291D-03  0.15811093D-16 -0.17872559D-16
  0.14548919D-03 -0.51422294D-16  0.40048741D-16 -0.18537891D-03 -0.10648557D-16
  0.13650716D-16  0.90215071D-04  0.22557889D-18 -0.11233372D-17  0.75965456D-07
  0.15838392D-02  0.15838392D-02 -0.31676784D-02  0.11795466D-15  0.62847438D-16
 -0.29722856D-15  0.30290961D-03  0.30290961D-03 -0.60581922D-03  0.13677258D-16
  0.22629926D-16 -0.12616254D-15 -0.49600641D-04 -0.49600641D-04  0.99201282D-04
  0.65260148D-17 -0.15072667D-16  0.14383064D-16 -0.17272256D-04 -0.17272256D-04
  0.34544512D-04  0.18255706D-17  0.55261392D-16 -0.37768936D-16  0.24977956D-05
  0.24977956D-05 -0.49955913D-05  0.25297255D-18  0.30321696D-17 -0.12696033D-17
  0.20111829D-16 -0.10191150D-16 -0.27072092D-04  0.20100058D-16 -0.10233601D-16
  0.40608137D-04 -0.80435546D-16  0.40807051D-16  0.40608137D-04  0.20046211D-17
 -0.19562880D-16  0.19109112D-16  0.15163664D-03 -0.22838510D-16  0.19805083D-16
 -0.22745496D-03  0.81527150D-16 -0.77132419D-16 -0.22745496D-03 -0.57839917D-17
 -0.12460000D-05 -0.12460000D-05 -0.33226666D-05 -0.38489323D-17 -0.82902029D-17
 -0.36042028D-17 -0.69874712D-17  0.10848574D-16  0.92101033D-17 -0.24920000D-05
  0.99679998D-05  0.99679998D-05 -0.66678965D-17 -0.76751145D-17  0.22359405D-16
MO    3     MO 0.0        OCC NO =    2.0000000  ORB. ENERGY =   -8.073313
  0.91508057D-04  0.17125126D-03  0.29588562D-03  0.48074814D-03  0.73329868D-03
  0.10271175D-02  0.12435155D-02  0.11883163D-02 -0.17502963D-04 -0.68886956D-04
  0.79547823D-03  0.24697977D-05  0.10255743D-04  0.16128192D-03  0.28441420D-03
  0.40009314D-04  0.11704575D-15  0.15028021D-15  0.15718384D-15  0.14463034D-15
  0.11183975D-15 -0.44260757D-16 -0.56828341D-16 -0.59438942D-16 -0.54691847D-16
 -0.42292113D-16  0.45726745D-04  0.58710587D-04  0.61407655D-04  0.56503329D-04
  0.43692895D-04 -0.15362639D-15  0.36006692D-16  0.21951129D-03 -0.75727661D-17
 -0.16121837D-16  0.76173769D-04 -0.69469070D-16  0.31821358D-16  0.37070404D-04
 -0.44192326D-04 -0.44192326D-04  0.88384651D-04 -0.13549192D-15  0.40743978D-16
 -0.20411768D-16 -0.92955690D-04 -0.92955690D-04  0.18591138D-03 -0.47320201D-18
 -0.20790301D-15  0.11231243D-16 -0.51146161D-05 -0.51146161D-05  0.10229232D-04
  0.32887690D-18  0.12112385D-16 -0.46143365D-17 -0.87186369D-06 -0.87186369D-06
  0.17437274D-05  0.26144638D-18 -0.21008042D-16  0.63352915D-17  0.17499846D-15
 -0.50780693D-16  0.13261914D-03  0.17501007D-15 -0.50546005D-16 -0.19892871D-03
 -0.70000544D-15  0.20288808D-15 -0.19892871D-03  0.52511014D-16  0.11192927D-16
 -0.81282973D-19  0.29006287D-04  0.11205112D-16 -0.78981824D-19 -0.43509431D-04
 -0.44783893D-16  0.32283074D-18 -0.43509431D-04  0.28170229D-17  0.89997164D-05
  0.89997164D-05  0.23999244D-04  0.27000360D-17  0.26945907D-15  0.27011131D-17
 -0.77569879D-16 -0.35928429D-15  0.10341820D-15  0.17999433D-04 -0.71997731D-04
 -0.71997731D-04 -0.77544968D-16  0.26947567D-15 -0.16203447D-16  0.12331064D-03
  0.23077446D-03  0.39973600D-03  0.65380645D-03  0.10198908D-02  0.15131093D-02
  0.20986422D-02  0.25974473D-02  0.26286332D-02  0.18143853D-02  0.20774537D-03
  0.78600357D-03  0.14827954D-02  0.15150521D-02 -0.13872399D-02 -0.18485582D-02
 -0.86418433D-03  0.69114934D-03 -0.26118953D-03 -0.63212168D-04 -0.26883931D-03
 -0.35269356D-10 -0.50704850D-10 -0.67260016D-10 -0.78703409D-10 -0.77571535D-10
 -0.58441991D-10 -0.30521439D-10 -0.87713720D-11  0.10699604D-10  0.15382244D-10
  0.20404556D-10  0.23876119D-10  0.23532744D-10  0.17729447D-10  0.92592368D-11
  0.26609561D-11 -0.61264318D+01 -0.88076403D+01 -0.11683341D+02 -0.13671105D+02
 -0.13474494D+02 -0.10151614D+02 -0.53016991D+01 -0.15236233D+01 -0.15519510D-12
  0.93129834D-13  0.47448622D-13 -0.28473078D-13 -0.23888739D-01  0.14335209D-01
 -0.73398863D-12  0.22267304D-12 -0.12947923D+00  0.51009242D-14 -0.15024198D-14
  0.12705662D-02 -0.26646971D-14  0.80482557D-15 -0.43365012D-03  0.41997204D-15
 -0.11714222D-15  0.15600674D-03  0.28846160D-17 -0.25387266D-17  0.24611584D-05
 -0.13154318D-02 -0.13154318D-02  0.26308635D-02 -0.33069621D-16  0.51757500D-13
 -0.15595410D-13 -0.11942878D-03 -0.11942878D-03  0.23885757D-03 -0.76169026D-17
  0.61576997D-16 -0.20277503D-16  0.44154492D-04  0.44154492D-04 -0.88308985D-04
 -0.32113603D-17 -0.32336660D-15  0.12490924D-15  0.77220043D-05  0.77220043D-05
 -0.15444009D-04  0.67177563D-18  0.51459509D-16 -0.41041461D-16  0.35048153D-05
  0.35048153D-05 -0.70096306D-05 -0.68983477D-20 -0.42180301D-16  0.12854848D-16
 -0.46460756D-16  0.84811924D-17  0.27204041D-04 -0.46488321D-16  0.84718006D-17
 -0.40806062D-04  0.18587059D-15 -0.33915378D-16 -0.40806062D-04  0.34890736D-17
  0.83620122D-15 -0.25485559D-15 -0.36236049D-03  0.83662801D-15 -0.25462762D-15
  0.54354073D-03 -0.33452317D-14  0.10191944D-14  0.54354073D-03 -0.59299552D-16
  0.67919714D-05  0.67919714D-05  0.18111924D-04  0.80308996D-18 -0.13751181D-15
  0.86584037D-18  0.47870599D-16  0.18332034D-15 -0.63895569D-16  0.13583943D-04
 -0.54335771D-04 -0.54335771D-04  0.48074912D-16 -0.13742561D-15 -0.50067910D-17
MO    4     MO 0.0        OCC NO =    2.0000000  ORB. ENERGY =   -8.072418
 -0.52237733D-16 -0.97759454D-16 -0.16890747D-15 -0.27443696D-15 -0.41860643D-15
 -0.58633406D-15 -0.70986568D-15 -0.67835500D-15  0.91297646D-17  0.35932298D-16
 -0.43810237D-15 -0.16620501D-16 -0.76671000D-16 -0.46646524D-16  0.55320906D-15
  0.54775729D-16  0.11696027D-05  0.15017046D-05  0.15706905D-05  0.14452472D-05
  0.11175808D-05  0.30853410D-05  0.39614055D-05  0.41433860D-05  0.38124742D-05
  0.29481101D-05  0.86858549D-16  0.11152153D-15  0.11664464D-15  0.10732881D-15
  0.82995225D-16 -0.10607814D-05 -0.27982770D-05 -0.11645596D-16 -0.23816696D-05
 -0.62826997D-05  0.22100514D-15 -0.50670381D-05 -0.13366539D-04  0.53816130D-16
 -0.72625955D-16  0.11897215D-15 -0.46346193D-16  0.75188278D-16 -0.73003774D-05
 -0.19257952D-04  0.61669873D-16  0.30854504D-16 -0.92524376D-16 -0.12301435D-16
 -0.12863499D-04 -0.33933129D-04 -0.23017774D-16 -0.20582971D-16  0.43600745D-16
 -0.21032368D-17  0.11606300D-05  0.30616714D-05 -0.26240983D-17 -0.18786409D-17
  0.45027391D-17  0.25105654D-18 -0.14624895D-05 -0.38579584D-05  0.11177835D-04
  0.29486450D-04 -0.77631629D-16  0.11177835D-04  0.29486450D-04  0.12606386D-15
 -0.44711340D-04 -0.11794580D-03  0.10683103D-15 -0.90865417D-16  0.60773237D-06
  0.16031611D-05  0.14661556D-16  0.60773237D-06  0.16031611D-05 -0.25535048D-16
 -0.24309295D-05 -0.64126442D-05 -0.18449621D-16  0.19976133D-17  0.22716481D-18
 -0.25303669D-17 -0.54135462D-17 -0.10779160D-16  0.15253738D-04  0.98294598D-17
  0.40238434D-04 -0.20338317D-04 -0.53651245D-04 -0.93310324D-17  0.79680435D-17
  0.24513234D-16  0.40238434D-04  0.15253738D-04  0.28491012D-17 -0.55484071D-16
 -0.10383781D-15 -0.17986267D-15 -0.29418259D-15 -0.45890360D-15 -0.68082906D-15
 -0.94429170D-15 -0.11687309D-14 -0.11827631D-14 -0.81638926D-15 -0.95451834D-16
 -0.36114153D-15 -0.68129336D-15 -0.67082296D-15  0.57371491D-15  0.98510875D-15
  0.33598216D-15 -0.21160086D-15 -0.11466402D-15 -0.30812287D-15 -0.39057710D-15
 -0.21730280D+01 -0.31240450D+01 -0.41440478D+01 -0.48491022D+01 -0.47793647D+01
 -0.36007485D+01 -0.18804976D+01 -0.54042486D+00 -0.57323158D+01 -0.82410410D+01
 -0.10931746D+02 -0.12791637D+02 -0.12607674D+02 -0.94985558D+01 -0.49606385D+01
 -0.14256079D+01  0.24947404D-11  0.35865536D-11  0.47575657D-11  0.55670019D-11
  0.54869400D-11  0.41338321D-11  0.21589015D-11  0.62043367D-12 -0.96061055D-02
  0.57644538D-02 -0.25340323D-01  0.15206279D-01  0.97193554D-14 -0.58324131D-14
 -0.45222969D-01 -0.11929544D+00  0.52793683D-13  0.31369386D-03  0.82750534D-03
 -0.25549619D-15 -0.16407035D-03 -0.43280762D-03  0.26427679D-15  0.26108391D-04
  0.68872348D-04  0.11572131D-15  0.41188157D-06  0.10865186D-05  0.10786709D-16
  0.28411576D-14 -0.20228688D-14 -0.81828883D-15 -0.34121754D-15  0.31929613D-02
  0.84228379D-02 -0.16187649D-15  0.19413340D-15 -0.32256908D-16  0.20774197D-16
  0.79744421D-05  0.21036094D-04  0.18462980D-16 -0.70047213D-16  0.51584233D-16
  0.20531509D-16 -0.22029369D-04 -0.58112138D-04  0.46888709D-17  0.12024641D-16
 -0.16713512D-16 -0.70124186D-17  0.40831752D-05  0.10771168D-04  0.55572682D-17
  0.37481243D-17 -0.93053924D-17  0.12995857D-17 -0.27473538D-05 -0.72473525D-05
 -0.29286816D-05 -0.77256841D-05  0.49515620D-17 -0.29286816D-05 -0.77256841D-05
 -0.63434006D-17  0.11714726D-04  0.30902737D-04 -0.85112855D-17 -0.54279509D-17
  0.51088036D-04  0.13476713D-03  0.14624497D-15  0.51088036D-04  0.13476713D-03
 -0.32417108D-15 -0.20435214D-03 -0.53906853D-03 -0.11456384D-15  0.62557408D-16
 -0.20937546D-16  0.12439609D-16 -0.10095936D-16  0.27566032D-17 -0.92074346D-05
  0.58402069D-17 -0.24288653D-04  0.12276579D-04  0.32384871D-04 -0.47939988D-17
  0.13041928D-15 -0.69843657D-16 -0.24288653D-04 -0.92074346D-05 -0.25790430D-16
MO    5     MO 0.0        OCC NO =    2.0000000  ORB. ENERGY =   -8.072418
  0.48792588D-15  0.91312093D-15  0.15776781D-14  0.25633750D-14  0.39099880D-14
  0.54766458D-14  0.66304914D-14  0.63361663D-14 -0.10354663D-15 -0.40753168D-15
  0.42953810D-14 -0.10607591D-15  0.17852116D-16  0.10445491D-14  0.17056981D-14
  0.22476081D-15 -0.30853410D-05 -0.39614055D-05 -0.41433860D-05 -0.38124742D-05
 -0.29481101D-05  0.11696027D-05  0.15017046D-05  0.15706905D-05  0.14452472D-05
  0.11175808D-05  0.30915364D-15  0.39693601D-15  0.41517060D-15  0.38201298D-15
  0.29540300D-15  0.27982770D-05 -0.10607814D-05  0.13570154D-14  0.62826997D-05
 -0.23816696D-05  0.48091520D-15  0.13366539D-04 -0.50670381D-05  0.21701324D-15
 -0.62411869D-16 -0.43726940D-15  0.49968127D-15 -0.26817324D-15  0.19257952D-04
 -0.73003774D-05 -0.69606643D-15 -0.45019310D-15  0.11462595D-14  0.30530026D-16
  0.33933129D-04 -0.12863499D-04 -0.11809697D-16 -0.42599157D-16  0.54408854D-16
  0.85557423D-17 -0.30616714D-05  0.11606300D-05 -0.76518061D-17 -0.46856070D-17
  0.12337413D-16 -0.66338837D-18  0.38579584D-05 -0.14624895D-05 -0.29486450D-04
  0.11177835D-04  0.78964679D-15 -0.29486450D-04  0.11177835D-04 -0.13750930D-14
  0.11794580D-03 -0.44711340D-04 -0.99384737D-15  0.23255190D-15 -0.16031611D-05
  0.60773237D-06  0.17764401D-15 -0.16031611D-05  0.60773237D-06 -0.25346622D-15
  0.64126442D-05 -0.24309295D-05 -0.27946582D-15  0.14348922D-16  0.98117513D-16
  0.28294965D-16  0.14262090D-15  0.16788990D-16 -0.40238434D-04 -0.20756099D-16
  0.15253738D-04  0.53651245D-04 -0.20338317D-04  0.48625279D-16 -0.63733036D-15
 -0.21839507D-15  0.15253738D-04 -0.40238434D-04  0.11901327D-16  0.72733649D-15
  0.13612019D-14  0.23578061D-14  0.38564173D-14  0.60157325D-14  0.89249366D-14
  0.12378648D-13  0.15320804D-13  0.15504752D-13  0.10701985D-13  0.12284225D-14
  0.46477302D-14  0.87679413D-14  0.89258040D-14 -0.82037677D-14 -0.10945169D-13
 -0.50648416D-14  0.40652062D-14 -0.14908821D-14 -0.47798786D-15 -0.15799708D-14
  0.57323158D+01  0.82410410D+01  0.10931746D+02  0.12791637D+02  0.12607674D+02
  0.94985558D+01  0.49606385D+01  0.14256079D+01 -0.21730280D+01 -0.31240450D+01
 -0.41440478D+01 -0.48491022D+01 -0.47793647D+01 -0.36007485D+01 -0.18804976D+01
 -0.54042486D+00 -0.36746679D-10 -0.52828717D-10 -0.70077327D-10 -0.82000048D-10
 -0.80820763D-10 -0.60889943D-10 -0.31799886D-10 -0.91387772D-11  0.25340323D-01
 -0.15206279D-01 -0.96061055D-02  0.57644538D-02 -0.14327732D-12  0.85978185D-13
  0.11929544D+00 -0.45222969D-01 -0.77663790D-12 -0.82750534D-03  0.31369386D-03
  0.77045830D-14  0.43280762D-03 -0.16407035D-03 -0.26049704D-14 -0.68872348D-04
  0.26108391D-04  0.95969564D-15 -0.10865186D-05  0.41188157D-06  0.11051294D-16
 -0.72906651D-14 -0.83653816D-14  0.15656047D-13 -0.71432471D-15 -0.84228379D-02
  0.31929613D-02 -0.86298885D-15 -0.52226407D-15  0.13852529D-14 -0.87893331D-16
 -0.21036094D-04  0.79744421D-05  0.30217684D-15  0.24421890D-15 -0.54639574D-15
 -0.21902998D-16  0.58112138D-04 -0.22029369D-04  0.38361530D-16  0.69970600D-16
 -0.10833213D-15 -0.13528703D-16 -0.10771168D-04  0.40831752D-05  0.23897367D-16
  0.19673563D-16 -0.43570929D-16  0.11280689D-17  0.72473525D-05 -0.27473538D-05
  0.77256841D-05 -0.29286816D-05  0.17788735D-15  0.77256841D-05 -0.29286816D-05
 -0.34249615D-15 -0.30902737D-04  0.11714726D-04 -0.19116589D-15  0.61603733D-17
 -0.13476713D-03  0.51088036D-04 -0.21912267D-14 -0.13476713D-03  0.51088036D-04
  0.37557573D-14  0.53906853D-03 -0.20435214D-03  0.28179228D-14 -0.14279374D-15
 -0.47026517D-16  0.10092844D-15  0.10937053D-15  0.14301415D-16  0.24288653D-04
  0.98413747D-17 -0.92074346D-05 -0.32384871D-04  0.12276579D-04  0.16640583D-15
  0.11575327D-15 -0.77197648D-15 -0.92074346D-05  0.24288653D-04 -0.72428369D-16
MO    6     MO 0.0        OCC NO =    2.0000000  ORB. ENERGY =   -7.718864
  0.86760868D-01  0.16236721D+00  0.28053588D+00  0.45580824D+00  0.69525715D+00
  0.97383346D+00  0.11790053D+01  0.11266697D+01 -0.45462153D-03 -0.17892681D-02
  0.69716588D+00  0.17961166D+00  0.63111272D-02 -0.45624526D-02 -0.10759782D-02
 -0.28058464D-05  0.20432653D-17  0.26234386D-17  0.27439550D-17  0.25248089D-17
  0.19523843D-17  0.97762762D-18  0.12552193D-17  0.13128820D-17  0.12080286D-17
  0.93414438D-18  0.38767843D-02  0.49775746D-02  0.52062361D-02  0.47904398D-02
  0.37043514D-02 -0.15383055D-17  0.38103881D-18 -0.37217330D-02 -0.11287228D-17
 -0.69268090D-18 -0.11786382D-02 -0.32142260D-19 -0.90164781D-20 -0.36919527D-04
 -0.83642568D-03 -0.83642568D-03  0.16728514D-02 -0.10001058D-16 -0.51994524D-17
 -0.68778237D-17  0.69943318D-03  0.69943318D-03 -0.13988664D-02 -0.71173166D-18
 -0.42924267D-18  0.21466867D-17  0.15193807D-03  0.15193807D-03 -0.30387614D-03
 -0.10841498D-18 -0.70171831D-18 -0.54651397D-18 -0.11562575D-05 -0.11562575D-05
  0.23125149D-05 -0.17572086D-20 -0.35633216D-19  0.59599991D-19 -0.51904204D-18
 -0.97347735D-19 -0.12417125D-03 -0.65019273D-18 -0.11652873D-18  0.18625687D-03
  0.22073189D-17  0.40857194D-18  0.18625687D-03  0.17401319D-18  0.43549734D-18
  0.22381391D-18 -0.24100946D-03  0.44613663D-18  0.23355116D-18  0.36151420D-03
 -0.17526286D-17 -0.90499289D-18  0.36151420D-03  0.40873459D-18 -0.61249657D-04
 -0.61249657D-04 -0.16333242D-03  0.14261200D-18  0.48745147D-18  0.14132858D-18
 -0.28393487D-18 -0.65291635D-18  0.41922414D-18 -0.12249931D-03  0.48999726D-03
  0.48999726D-03 -0.40586781D-18  0.49639463D-18 -0.85182176D-18  0.31595229D-04
  0.59130111D-04  0.10242223D-03  0.16752135D-03  0.26132121D-03  0.38769596D-03
  0.53772393D-03  0.66553010D-03  0.67352070D-03  0.46489029D-03  0.72294472D-04
  0.27352577D-03  0.51600626D-03  0.71412068D-04  0.39841343D-03 -0.15972094D-02
  0.96967965D-03 -0.23038086D-02  0.18731146D-02  0.36013524D-02  0.39449524D-03
  0.38346760D-14  0.55129067D-14  0.73128743D-14  0.85570622D-14  0.84339986D-14
  0.63541307D-14  0.33184566D-14  0.95367120D-15 -0.24063537D-14 -0.34594848D-14
 -0.45890089D-14 -0.53697674D-14 -0.52925420D-14 -0.39873736D-14 -0.20824133D-14
 -0.59845219D-15  0.90028742D-02  0.12942946D-01  0.17168827D-01  0.20089873D-01
  0.19800950D-01  0.14917933D-01  0.77909183D-02  0.22389850D-02  0.29631474D-17
 -0.17781323D-17 -0.13395981D-16  0.80386912D-17  0.57189782D-03 -0.34318576D-03
  0.79191418D-16 -0.51126419D-16  0.12525224D-02 -0.23533866D-17  0.15387984D-17
 -0.84747065D-03  0.26280693D-17  0.70654343D-18 -0.31895732D-02  0.42106775D-18
  0.16457784D-18 -0.50137817D-03  0.39021910D-19 -0.57756053D-19 -0.38029957D-05
 -0.66951427D-03 -0.66951427D-03  0.13390285D-02 -0.71026447D-17 -0.60587729D-17
  0.92136148D-17  0.59657117D-03  0.59657117D-03 -0.11931423D-02 -0.26590700D-17
 -0.13626666D-17  0.19826610D-17 -0.71246586D-03 -0.71246586D-03  0.14249317D-02
 -0.41333884D-19 -0.50659674D-18  0.80511128D-19 -0.33980259D-03 -0.33980259D-03
  0.67960518D-03 -0.49244463D-18 -0.18427265D-17 -0.86113579D-18 -0.10171109D-04
 -0.10171109D-04  0.20342219D-04  0.80823519D-19 -0.10918908D-18 -0.12852439D-19
 -0.90488621D-18 -0.48928343D-18 -0.30855411D-03 -0.87609850D-18 -0.48769457D-18
  0.46283117D-03  0.35907571D-17  0.19555449D-17  0.46283117D-03  0.37242123D-18
 -0.92298719D-18 -0.12151770D-17 -0.35897289D-03 -0.10395052D-17 -0.11737934D-17
  0.53845933D-03  0.38084668D-17  0.48193244D-17  0.53845933D-03 -0.93168841D-18
  0.57075942D-04  0.57075942D-04  0.15220251D-03 -0.11104141D-18  0.48074852D-18
 -0.11694311D-18  0.37486111D-18 -0.71702512D-18 -0.50381836D-18  0.11415188D-03
 -0.45660754D-03 -0.45660754D-03  0.38687177D-18  0.70882978D-18  0.68395356D-18
MO    7     MO 0.0        OCC NO =    2.0000000  ORB. ENERGY =   -1.159653
  0.48355654D-02  0.90494399D-02  0.15635501D-01  0.25404201D-01  0.38749743D-01
  0.54276028D-01  0.65711158D-01  0.62794263D-01  0.35268859D-02  0.13880874D-01
  0.65270690D-01  0.27007842D-01 -0.28062170D-01 -0.17717969D-01  0.59678058D-03
  0.11371440D-03 -0.50760130D-16 -0.65173173D-16 -0.68167121D-16 -0.62722950D-16
 -0.48502404D-16 -0.77557776D-16 -0.99579855D-16 -0.10415439D-15 -0.95836093D-16
 -0.74108136D-16 -0.39753920D-01 -0.51041814D-01 -0.53386590D-01 -0.49122867D-01
 -0.37985732D-01  0.26612644D-17 -0.24188741D-16 -0.19229108D-01  0.14848814D-16
 -0.26606205D-16 -0.11115508D-02 -0.34839734D-18 -0.11466056D-16  0.23394129D-03
  0.71159548D-02  0.71159548D-02 -0.14231910D-01  0.67265995D-16 -0.75905613D-16
  0.52723274D-16  0.35082040D-02  0.35082040D-02 -0.70164080D-02  0.38876744D-17
  0.57558210D-17  0.37997201D-16  0.22004440D-03  0.22004440D-03 -0.44008881D-03
  0.32640911D-17  0.45978568D-17 -0.10463218D-16 -0.16045865D-04 -0.16045865D-04
  0.32091730D-04 -0.64089253D-18 -0.66949303D-18 -0.33504493D-17  0.53130277D-17
 -0.34846951D-17 -0.35741966D-02  0.64738384D-17  0.34618132D-18  0.53612949D-02