 Molden2AIM, Version 4.0.0 (06/02/2016)           Time: Wed Jun 27 19:35:49 2018
GAUSSIAN             10 MOL ORBITALS    208 PRIMITIVES        2 NUCLEI
  Be   1    (CENTRE  1)   0.00000000  0.00000000 -0.22844332  CHARGE =  4.0
  S    2    (CENTRE  2)   0.00000000  0.00000000  3.06303251  CHARGE = 16.0
CENTRE ASSIGNMENTS    1  1  1  1  1  1  1  1  1  1  1  1  1  1  1  1  1  1  1  1
CENTRE ASSIGNMENTS    1  1  1  1  1  1  1  1  1  1  1  1  1  1  1  1  1  1  1  1
CENTRE ASSIGNMENTS    1  1  1  1  1  1  1  1  1  1  1  1  1  1  1  1  1  1  1  1
CENTRE ASSIGNMENTS    1  1  1  1  1  1  1  1  1  1  1  1  1  1  1  1  1  2  2  2
CENTRE ASSIGNMENTS    2  2  2  2  2  2  2  2  2  2  2  2  2  2  2  2  2  2  2  2
CENTRE ASSIGNMENTS    2  2  2  2  2  2  2  2  2  2  2  2  2  2  2  2  2  2  2  2
CENTRE ASSIGNMENTS    2  2  2  2  2  2  2  2  2  2  2  2  2  2  2  2  2  2  2  2
CENTRE ASSIGNMENTS    2  2  2  2  2  2  2  2  2  2  2  2  2  2  2  2  2  2  2  2
CENTRE ASSIGNMENTS    2  2  2  2  2  2  2  2  2  2  2  2  2  2  2  2  2  2  2  2
CENTRE ASSIGNMENTS    2  2  2  2  2  2  2  2  2  2  2  2  2  2  2  2  2  2  2  2
CENTRE ASSIGNMENTS    2  2  2  2  2  2  2  2
TYPE ASSIGNMENTS      1  1  1  1  1  1  1  1  1  1  1  1  1  1  1  1  1  1  1  1
TYPE ASSIGNMENTS      1  2  2  2  3  3  3  4  4  4  2  3  4  2  3  4  2  3  4  5
TYPE ASSIGNMENTS      6  7  8  9 10  5  6  7  8  9 10  5  6  7  8  9 10 11 12 13
TYPE ASSIGNMENTS     17 14 15 18 19 16 20 11 12 13 17 14 15 18 19 16 20  1  1  1
TYPE ASSIGNMENTS      1  1  1  1  1  1  1  1  1  1  1  1  1  1  1  1  1  1  1  1
TYPE ASSIGNMENTS      1  1  1  1  1  1  1  1  1  1  1  1  1  1  1  1  1  1  1  2
TYPE ASSIGNMENTS      2  2  2  2  2  2  3  3  3  3  3  3  3  4  4  4  4  4  4  4
TYPE ASSIGNMENTS      2  2  2  2  2  2  2  3  3  3  3  3  3  3  4  4  4  4  4  4
TYPE ASSIGNMENTS      4  2  3  4  2  3  4  2  3  4  5  6  7  8  9 10  5  6  7  8
TYPE ASSIGNMENTS      9 10  5  6  7  8  9 10 11 12 13 17 14 15 18 19 16 20 11 12
TYPE ASSIGNMENTS     13 17 14 15 18 19 16 20
EXPONENTS  0.6863000D+04 0.1030000D+04 0.2347000D+03 0.6656000D+02 0.2169000D+02
EXPONENTS  0.7734000D+01 0.2916000D+01 0.1130000D+01 0.1101000D+00 0.6863000D+04
EXPONENTS  0.1030000D+04 0.2347000D+03 0.6656000D+02 0.2169000D+02 0.7734000D+01
EXPONENTS  0.2916000D+01 0.1130000D+01 0.1101000D+00 0.2577000D+00 0.4409000D-01
EXPONENTS  0.1503000D-01 0.7436000D+01 0.1577000D+01 0.4352000D+00 0.7436000D+01
EXPONENTS  0.1577000D+01 0.4352000D+00 0.7436000D+01 0.1577000D+01 0.4352000D+00
EXPONENTS  0.1438000D+00 0.1438000D+00 0.1438000D+00 0.4994000D-01 0.4994000D-01
EXPONENTS  0.4994000D-01 0.7060000D-02 0.7060000D-02 0.7060000D-02 0.3480000D+00
EXPONENTS  0.3480000D+00 0.3480000D+00 0.3480000D+00 0.3480000D+00 0.3480000D+00
EXPONENTS  0.1803000D+00 0.1803000D+00 0.1803000D+00 0.1803000D+00 0.1803000D+00
EXPONENTS  0.1803000D+00 0.6540000D-01 0.6540000D-01 0.6540000D-01 0.6540000D-01
EXPONENTS  0.6540000D-01 0.6540000D-01 0.3250000D+00 0.3250000D+00 0.3250000D+00
EXPONENTS  0.3250000D+00 0.3250000D+00 0.3250000D+00 0.3250000D+00 0.3250000D+00
EXPONENTS  0.3250000D+00 0.3250000D+00 0.1533000D+00 0.1533000D+00 0.1533000D+00
EXPONENTS  0.1533000D+00 0.1533000D+00 0.1533000D+00 0.1533000D+00 0.1533000D+00
EXPONENTS  0.1533000D+00 0.1533000D+00 0.3741000D+06 0.5605000D+05 0.1276000D+05
EXPONENTS  0.3615000D+04 0.1183000D+04 0.4288000D+03 0.1678000D+03 0.6947000D+02
EXPONENTS  0.2984000D+02 0.1272000D+02 0.5244000D+01 0.2219000D+01 0.3490000D+00
EXPONENTS  0.3741000D+06 0.5605000D+05 0.1276000D+05 0.3615000D+04 0.1183000D+04
EXPONENTS  0.4288000D+03 0.1678000D+03 0.6947000D+02 0.2984000D+02 0.1272000D+02
EXPONENTS  0.5244000D+01 0.2219000D+01 0.3490000D+00 0.3741000D+06 0.5605000D+05
EXPONENTS  0.1276000D+05 0.3615000D+04 0.1183000D+04 0.4288000D+03 0.1678000D+03
EXPONENTS  0.6947000D+02 0.2984000D+02 0.1272000D+02 0.5244000D+01 0.2219000D+01
EXPONENTS  0.3490000D+00 0.7767000D+00 0.1322000D+00 0.4970000D-01 0.5744000D+03
EXPONENTS  0.1358000D+03 0.4319000D+02 0.1587000D+02 0.6208000D+01 0.2483000D+01
EXPONENTS  0.3229000D+00 0.5744000D+03 0.1358000D+03 0.4319000D+02 0.1587000D+02
EXPONENTS  0.6208000D+01 0.2483000D+01 0.3229000D+00 0.5744000D+03 0.1358000D+03
EXPONENTS  0.4319000D+02 0.1587000D+02 0.6208000D+01 0.2483000D+01 0.3229000D+00
EXPONENTS  0.5744000D+03 0.1358000D+03 0.4319000D+02 0.1587000D+02 0.6208000D+01
EXPONENTS  0.2483000D+01 0.3229000D+00 0.5744000D+03 0.1358000D+03 0.4319000D+02
EXPONENTS  0.1587000D+02 0.6208000D+01 0.2483000D+01 0.3229000D+00 0.5744000D+03
EXPONENTS  0.1358000D+03 0.4319000D+02 0.1587000D+02 0.6208000D+01 0.2483000D+01
EXPONENTS  0.3229000D+00 0.8688000D+00 0.8688000D+00 0.8688000D+00 0.1098000D+00
EXPONENTS  0.1098000D+00 0.1098000D+00 0.3510000D-01 0.3510000D-01 0.3510000D-01
EXPONENTS  0.2690000D+00 0.2690000D+00 0.2690000D+00 0.2690000D+00 0.2690000D+00
EXPONENTS  0.2690000D+00 0.8190000D+00 0.8190000D+00 0.8190000D+00 0.8190000D+00
EXPONENTS  0.8190000D+00 0.8190000D+00 0.1010000D+00 0.1010000D+00 0.1010000D+00
EXPONENTS  0.1010000D+00 0.1010000D+00 0.1010000D+00 0.5570000D+00 0.5570000D+00
EXPONENTS  0.5570000D+00 0.5570000D+00 0.5570000D+00 0.5570000D+00 0.5570000D+00
EXPONENTS  0.5570000D+00 0.5570000D+00 0.5570000D+00 0.2180000D+00 0.2180000D+00
EXPONENTS  0.2180000D+00 0.2180000D+00 0.2180000D+00 0.2180000D+00 0.2180000D+00
EXPONENTS  0.2180000D+00 0.2180000D+00 0.2180000D+00
MO    1     MO 0.0        OCC NO =    2.0000000  ORB. ENERGY =  -91.894334
 -0.41299519D-05 -0.77050627D-05 -0.13153945D-04 -0.20528128D-04 -0.27983157D-04
 -0.30370304D-04 -0.22134856D-04 -0.67731642D-05  0.32271635D-07  0.32354611D-05
  0.60416336D-05  0.10387637D-04  0.16305500D-04  0.23194094D-04  0.26905771D-04
  0.25508840D-04  0.14864013D-04 -0.11013626D-04  0.94035372D-05 -0.94255170D-05
 -0.76324605D-07  0.17927979D-17  0.15105571D-17  0.11930056D-17  0.38805079D-16
  0.32695982D-16  0.25822586D-16 -0.30790500D-05 -0.25943141D-05 -0.20489337D-05
  0.29826518D-16 -0.13206108D-16 -0.18445991D-04 -0.18791222D-17 -0.10759130D-17
 -0.30318440D-05  0.19638052D-18 -0.26369045D-19 -0.84299857D-09  0.17482627D-05
  0.17482627D-05 -0.34965253D-05 -0.74738813D-16 -0.66841667D-17 -0.97410022D-16
  0.39109682D-05  0.39109682D-05 -0.78219364D-05  0.31009061D-16  0.24958265D-16
  0.30561974D-16  0.29229326D-06  0.29229326D-06 -0.58458653D-06 -0.24377447D-17
  0.16006064D-17 -0.67598624D-17 -0.13901081D-17 -0.17900988D-17 -0.13415545D-05
 -0.17643340D-18  0.20573830D-17  0.20123318D-05  0.43467577D-17  0.33129135D-17
  0.20123318D-05  0.11726441D-16 -0.48837789D-18  0.82053461D-18 -0.87197997D-06
 -0.62104116D-18  0.14954028D-18  0.13079700D-05  0.20861748D-17 -0.26111441D-17
  0.13079700D-05 -0.38872749D-18  0.58448736D+00  0.10926652D+01  0.18884665D+01
  0.30545099D+01  0.46167128D+01  0.63579711D+01  0.74309942D+01  0.64209396D+01
  0.29947491D+01  0.40662223D+00  0.10888342D-02  0.21358425D-02  0.97510131D-04
 -0.31095064D-04 -0.58071356D-04 -0.10073375D-03 -0.16333630D-03 -0.25147482D-03
 -0.35815663D-03 -0.46054294D-03 -0.48343304D-03 -0.34182142D-03  0.75697784D-05
  0.24560311D-03  0.13523574D-03 -0.57190963D-06  0.13921372D-04  0.25979340D-04
  0.45123004D-04  0.73089255D-04  0.11290151D-03  0.16095806D-03  0.20935386D-03
  0.22311479D-03  0.16547960D-03 -0.51507654D-05 -0.14991589D-03 -0.14686583D-03
  0.68595054D-04 -0.41997958D-03 -0.12834761D-05  0.89613010D-05  0.41652914D-15
  0.54646355D-15  0.59938722D-15  0.49318530D-15  0.26001704D-15  0.67644146D-16
 -0.74855143D-19 -0.28668989D-15 -0.37612152D-15 -0.41254798D-15 -0.33945101D-15
 -0.17896529D-15 -0.46558309D-16  0.51521516D-19 -0.11839449D-02 -0.15532713D-02
 -0.17037018D-02 -0.14018329D-02 -0.73907402D-03 -0.19227213D-03  0.21276871D-06
 -0.21734819D-15 -0.28537950D-15 -0.32107118D-15 -0.27052675D-15 -0.15132887D-15
 -0.37665447D-16  0.17275189D-16  0.28724287D-15  0.37715164D-15  0.42432103D-15
  0.35752255D-15  0.19999310D-15  0.49777876D-16 -0.22830532D-16  0.65034071D-03
  0.85390131D-03  0.96069655D-03  0.80945947D-03  0.45280028D-03  0.11270107D-03
 -0.51690140D-04 -0.42945474D-17  0.32292662D-17  0.69037680D-04 -0.19997618D-16
  0.32394625D-16  0.43235203D-05  0.86784440D-18 -0.38632883D-17 -0.17689866D-06
 -0.21167524D-05 -0.21167524D-05  0.42335048D-05 -0.76738247D-17  0.13689094D-16
 -0.60975800D-17 -0.25097797D-05 -0.25097797D-05  0.50195595D-05 -0.41897721D-17
  0.11085863D-17  0.16663324D-16  0.78168204D-06  0.78168204D-06 -0.15633641D-05
  0.83953415D-18  0.42757081D-17 -0.37040409D-17  0.46610598D-21  0.31362192D-17
 -0.39905189D-05  0.26224276D-18  0.40604132D-17  0.59857783D-05 -0.26364108D-18
 -0.13469071D-16  0.59857783D-05  0.19332680D-16  0.56456680D-18 -0.86398175D-18
  0.84227099D-06  0.55644768D-18 -0.85571121D-18 -0.12634065D-05 -0.22501481D-17
  0.34476565D-17 -0.12634065D-05  0.23805251D-17
MO    2     MO 0.0        OCC NO =    2.0000000  ORB. ENERGY =   -8.896703
 -0.10044802D-04 -0.18740130D-04 -0.31992813D-04 -0.49928183D-04 -0.68060185D-04
 -0.73866165D-04 -0.53836042D-04 -0.16473581D-04  0.78490553D-07  0.13962159D-04
  0.26071786D-04  0.44826329D-04  0.70364002D-04  0.10009072D-03  0.11610792D-03
  0.11007967D-03  0.64143476D-04 -0.47527694D-04  0.24248635D-04 -0.15748695D-03
 -0.18206688D-05 -0.11898854D-15 -0.10025613D-15 -0.79180146D-16  0.44277817D-16
  0.37307145D-16  0.29464384D-16 -0.10602857D-03 -0.89336454D-04 -0.70556018D-04
 -0.41733047D-16  0.44823746D-16 -0.13290723D-03 -0.12979544D-16  0.33219939D-17
 -0.41494103D-04  0.39025312D-19 -0.53082451D-19 -0.12431876D-08 -0.91778160D-06
 -0.91778160D-06  0.18355632D-05 -0.51732871D-16  0.60647447D-16 -0.72669517D-16
  0.35531880D-04  0.35531880D-04 -0.71063759D-04  0.16950464D-16 -0.91123013D-16
  0.62792692D-16  0.30319513D-05  0.30319513D-05 -0.60639027D-05 -0.98223728D-19
 -0.40630306D-17 -0.29839182D-17  0.88625597D-18 -0.41162963D-17  0.78382704D-05
  0.77895056D-18 -0.40199792D-17 -0.11757406D-04 -0.34377185D-17  0.16368868D-16
 -0.11757406D-04 -0.12396091D-16  0.21929557D-17  0.76986092D-18 -0.10548398D-04
  0.22073127D-17  0.63180549D-18  0.15822597D-04 -0.87861798D-17 -0.29413883D-17
  0.15822597D-04  0.49293278D-17  0.21473285D-03  0.40143058D-03  0.69379737D-03
  0.11221861D-02  0.16961186D-02  0.23358336D-02  0.27300480D-02  0.23589674D-02
  0.11002308D-02  0.14938757D-03  0.40002312D-06  0.78467999D-06  0.35823919D-07
  0.16118200D+00  0.30101424D+00  0.52215578D+00  0.84665755D+00  0.13035257D+01
  0.18565134D+01  0.23872352D+01  0.25058866D+01  0.17718394D+01 -0.39238125D-01
 -0.12730895D+01 -0.70099763D+00  0.29645071D-02  0.14446238D-03  0.26958817D-03
  0.46824239D-03  0.75844877D-03  0.11715814D-02  0.16702653D-02  0.21724696D-02
  0.23152670D-02  0.17171853D-02 -0.53449603D-04 -0.15556805D-02 -0.15240299D-02
  0.71181236D-03 -0.41327261D-01 -0.41409377D-03  0.19207311D-03 -0.18083922D-14
 -0.23725120D-14 -0.26022841D-14 -0.21412006D-14 -0.11288833D-14 -0.29368208D-15
  0.32498916D-18  0.10596775D-14  0.13902392D-14  0.15248805D-14  0.12546958D-14
  0.66150044D-15  0.17209115D-15 -0.19043640D-18  0.14766801D-01  0.19373238D-01
  0.21249490D-01  0.17484417D-01  0.92181303D-02  0.23981218D-02 -0.26537663D-05
 -0.27955154D-15 -0.36705287D-15 -0.41295923D-15 -0.34794937D-15 -0.19463800D-15
 -0.48445002D-16  0.22219212D-16 -0.38756276D-15 -0.50887226D-15 -0.57251560D-15
 -0.48238768D-15 -0.26984091D-15 -0.67162852D-16  0.30804120D-16  0.44275949D-02
  0.58134591D-02  0.65405335D-02  0.55108939D-02  0.30827168D-02  0.76728194D-03
 -0.35191247D-03  0.12266815D-16  0.19271007D-16  0.10900833D-02  0.73779021D-16
 -0.35067073D-16  0.37855019D-04  0.33900453D-17 -0.14979305D-18 -0.77703103D-05
 -0.17852737D-04 -0.17852737D-04  0.35705474D-04  0.63916382D-17 -0.54831788D-16
  0.12794276D-16  0.12431335D-03  0.12431335D-03 -0.24862670D-03  0.19927142D-16
 -0.70011291D-16 -0.27250844D-16  0.62433088D-05  0.62433088D-05 -0.12486618D-04
 -0.19978584D-17 -0.26723613D-16  0.97325205D-17  0.13960239D-17 -0.27039946D-17
  0.23523782D-04  0.15653193D-17 -0.28142492D-17 -0.35285673D-04 -0.57533910D-17
  0.10926233D-16 -0.35285673D-04 -0.66139258D-18 -0.58804291D-17  0.67870499D-17
  0.18255713D-05 -0.58648347D-17  0.67534209D-17 -0.27383570D-05  0.23506122D-16
 -0.27114571D-16 -0.27383570D-05  0.94809832D-18
MO    3     MO 0.0        OCC NO =    2.0000000  ORB. ENERGY =   -6.577302
 -0.16092393D-03 -0.30022844D-03 -0.51254460D-03 -0.79988030D-03 -0.10903661D-02
 -0.11833815D-02 -0.86248660D-03 -0.26391693D-03  0.12574671D-05  0.98422016D-04
  0.18378517D-03  0.31598964D-03  0.49600973D-03  0.70555925D-03  0.81846764D-03
  0.77597331D-03  0.45216002D-03 -0.33503209D-03 -0.33130993D-03  0.24519221D-03
  0.46284537D-05 -0.53823611D-16 -0.45350141D-16 -0.35816570D-16 -0.88241041D-16
 -0.74349222D-16 -0.58719423D-16 -0.54968680D-03 -0.46314941D-03 -0.36578549D-03
 -0.21291573D-15  0.27697136D-15 -0.53029538D-03 -0.33173779D-17 -0.76698093D-17
  0.31305597D-04 -0.45349558D-18  0.39455143D-18 -0.83121716D-07  0.24266230D-05
  0.24266230D-05 -0.48532460D-05 -0.79098715D-16 -0.69798143D-16  0.39199441D-16
  0.95012530D-04  0.95012530D-04 -0.19002506D-03  0.22529432D-16 -0.21670137D-15
  0.27464919D-15  0.45402555D-05  0.45402555D-05 -0.90805111D-05 -0.70030401D-18
 -0.90359302D-18 -0.49183458D-17  0.23893012D-16 -0.28103151D-16  0.46709155D-04
  0.23261786D-16 -0.29162946D-16 -0.70063733D-04 -0.94940822D-16  0.11347240D-15
 -0.70063733D-04 -0.54580391D-17  0.57539943D-17 -0.79177608D-17 -0.24605533D-04
  0.58243763D-17 -0.77237983D-17  0.36908299D-04 -0.23086359D-16  0.31477081D-16
  0.36908299D-04  0.11241950D-17  0.14066097D-03  0.26295752D-03  0.45447269D-03
  0.73508918D-03  0.11110443D-02  0.15300903D-02  0.17883208D-02  0.15452441D-02
  0.72070733D-03  0.97856486D-04  0.26203556D-06  0.51400544D-06  0.23466496D-07
 -0.56404403D-03 -0.10533762D-02 -0.18272441D-02 -0.29628131D-02 -0.45615881D-02
 -0.64967261D-02 -0.83539464D-02 -0.87691578D-02 -0.62004160D-02  0.13731081D-03
  0.44550790D-02  0.24530874D-02 -0.10374065D-04  0.19412089D-04  0.36225830D-04
  0.62919931D-04  0.10191633D-03  0.15743090D-03  0.22444140D-03  0.29192495D-03
  0.31111331D-03  0.23074627D-03 -0.71822745D-05 -0.20904410D-03 -0.20479107D-03
  0.95649574D-04 -0.71566097D-03  0.12225721D-02 -0.47380415D-03 -0.55187781D-11
 -0.72403364D-11 -0.79415454D-11 -0.65344294D-11 -0.34450804D-11 -0.89624710D-12
  0.99178879D-15  0.65837049D-11  0.86374622D-11  0.94739796D-11  0.77953405D-11
  0.41098577D-11  0.10691907D-11 -0.11831685D-14  0.96899683D+01  0.12712711D+02
  0.13943906D+02  0.11473267D+02  0.60489332D+01  0.15736465D+01 -0.17414003D-02
 -0.52124747D-14 -0.68440110D-14 -0.76999739D-14 -0.64878102D-14 -0.36291901D-14
 -0.90329802D-15  0.41429599D-15  0.73072900D-14  0.95945162D-14  0.10794478D-13
  0.90951636D-14  0.50877070D-14  0.12663199D-14 -0.58079533D-15  0.17426862D-01
  0.22881577D-01  0.25743316D-01  0.21690690D-01  0.12133468D-01  0.30199955D-02
 -0.13851155D-02 -0.42252901D-13  0.50417033D-13  0.75627121D-01  0.17516249D-16
  0.11951337D-17  0.20745938D-03  0.70658976D-17 -0.32793373D-17  0.29811662D-04
 -0.14295273D-03 -0.14295273D-03  0.28590546D-03  0.21202322D-17 -0.32781079D-15
  0.42348913D-15  0.46949697D-03  0.46949697D-03 -0.93899394D-03 -0.12088405D-16
  0.59799324D-15 -0.68483041D-15  0.14482534D-04  0.14482534D-04 -0.28965068D-04
  0.23893829D-19 -0.34771391D-16  0.28112985D-16  0.10442400D-16 -0.66885096D-17
  0.62821080D-04  0.10340928D-16 -0.69770608D-17 -0.94231620D-04 -0.41668129D-16
  0.27042590D-16 -0.94231620D-04  0.45630897D-17 -0.18815618D-16  0.20959750D-16
 -0.15333615D-04 -0.18809373D-16  0.20949181D-16  0.23000422D-04  0.75256228D-16
 -0.83828431D-16  0.23000422D-04  0.16195175D-18
MO    4     MO 0.0        OCC NO =    2.0000000  ORB. ENERGY =   -6.576224
  0.36173767D-16  0.67487746D-16  0.11521387D-15  0.17980348D-15  0.24510121D-15
  0.26600995D-15  0.19387663D-15  0.59325355D-16 -0.28266349D-18 -0.17646759D-16
 -0.32952105D-16 -0.56655953D-16 -0.88932992D-16 -0.12650456D-15 -0.14674869D-15
 -0.13912959D-15 -0.81070876D-16  0.60070206D-16 -0.15996362D-15  0.84846264D-16
  0.11990173D-17 -0.25608659D-04 -0.21577079D-04 -0.17041115D-04 -0.10636982D-04
 -0.89623982D-05 -0.70783101D-05  0.31383386D-15  0.26442689D-15  0.20883869D-15
 -0.35256683D-03 -0.14644449D-03  0.83381194D-16  0.25727952D-05  0.10686532D-05
  0.41121734D-16 -0.22598847D-06 -0.93868065D-07 -0.34301372D-18  0.14252722D-16
  0.70234947D-17 -0.21276217D-16 -0.29486001D-16 -0.53390976D-04 -0.22176829D-04
 -0.31133642D-16 -0.30170679D-16  0.61304321D-16  0.54712020D-17 -0.35187606D-03
 -0.14615757D-03 -0.45195971D-17 -0.48383354D-17  0.93579324D-17  0.40240218D-18
  0.30642906D-05  0.12728040D-05  0.38219210D-04  0.15874984D-04 -0.19591649D-18
  0.38219210D-04  0.15874984D-04 -0.74994686D-18 -0.15287684D-03 -0.63499936D-04
  0.13376963D-17  0.10690179D-16  0.10958426D-04  0.45517643D-05 -0.23601854D-17
  0.10958426D-04  0.45517643D-05  0.35204758D-17 -0.43833704D-04 -0.18207057D-04
  0.35600803D-17 -0.11505049D-17 -0.37291647D-16 -0.69714568D-16 -0.12048854D-15
 -0.19488480D-15 -0.29455697D-15 -0.40565328D-15 -0.47411464D-15 -0.40967082D-15
 -0.19107193D-15 -0.25943440D-16 -0.69470140D-19 -0.13627170D-18 -0.62213722D-20
  0.15321061D-15  0.28612734D-15  0.49633215D-15  0.80478542D-15  0.12390588D-14
  0.17646980D-14  0.22691726D-14  0.23819559D-14  0.16842116D-14 -0.37297572D-16
 -0.12101278D-14 -0.66632923D-15  0.28178950D-17 -0.10128467D-16 -0.18901217D-16
 -0.32829152D-16 -0.53175943D-16 -0.82141269D-16 -0.11710472D-15 -0.15231499D-15
 -0.16232672D-15 -0.12039435D-15  0.37474292D-17  0.10907101D-15  0.10685195D-15
 -0.49906196D-16  0.19416782D-15 -0.31192649D-15 -0.21501807D-16 -0.89595107D+01
 -0.11754390D+02 -0.12892774D+02 -0.10608379D+02 -0.55929472D+01 -0.14550205D+01
  0.16101286D-02 -0.37214816D+01 -0.48823812D+01 -0.53552280D+01 -0.44063665D+01
 -0.23231236D+01 -0.60436695D+00  0.66879365D-03 -0.25658389D-11 -0.33662409D-11
 -0.36922532D-11 -0.30380445D-11 -0.16017171D-11 -0.41669109D-12  0.46111117D-15
 -0.94345578D-02 -0.12387632D-01 -0.13936921D-01 -0.11742910D-01 -0.65688191D-02
 -0.16349657D-02  0.74987405D-03 -0.39188003D-02 -0.51454087D-02 -0.57889317D-02
 -0.48776127D-02 -0.27284681D-02 -0.67911017D-03  0.31147264D-03 -0.49739878D-14
 -0.65308763D-14 -0.73476762D-14 -0.61909727D-14 -0.34631433D-14 -0.86196933D-15
  0.39534067D-15 -0.68648362D-01 -0.28514238D-01 -0.19968086D-13 -0.97196424D-05
 -0.40372150D-05 -0.91799450D-16  0.75968693D-05  0.31554859D-05  0.53404592D-18
  0.48643598D-16  0.41103347D-16 -0.89746945D-16 -0.37403720D-17 -0.56102698D-03
 -0.23303188D-03 -0.12143941D-15 -0.11287697D-15  0.23431638D-15  0.64386433D-17
  0.94512273D-03  0.39257243D-03 -0.14202132D-16 -0.13533872D-16  0.27736004D-16
  0.23141753D-17 -0.37931102D-04 -0.15755313D-04  0.89217177D-05  0.37057837D-05
 -0.16307143D-16  0.89217177D-05  0.37057837D-05  0.45585140D-16 -0.35686871D-04
 -0.14823135D-04  0.33362885D-17  0.12503620D-16 -0.25824718D-04 -0.10726726D-04
 -0.16018145D-16 -0.25824718D-04 -0.10726726D-04  0.21827834D-16  0.10329887D-03
  0.42906902D-04  0.26226600D-16 -0.34491910D-17
MO    5     MO 0.0        OCC NO =    2.0000000  ORB. ENERGY =   -6.576224
 -0.13608729D-15 -0.25389185D-15 -0.43343962D-15 -0.67642857D-15 -0.92208148D-15
 -0.10007411D-14 -0.72937235D-15 -0.22318458D-15  0.10633924D-17  0.82959744D-16
  0.15491219D-15  0.26634711D-15  0.41808573D-15  0.59471465D-15  0.68988494D-15
  0.65406654D-15  0.38112488D-15 -0.28239796D-15 -0.23601781D-15  0.19774705D-15
  0.55906254D-17  0.10636982D-04  0.89623982D-05  0.70783101D-05 -0.25608659D-04
 -0.21577079D-04 -0.17041115D-04 -0.50633088D-15 -0.42661903D-15 -0.33693457D-15
  0.14644449D-03 -0.35256683D-03 -0.42586223D-15 -0.10686532D-05  0.25727952D-05
  0.17680329D-16  0.93868065D-07 -0.22598847D-06  0.31626803D-18 -0.57823107D-17
 -0.89360346D-19  0.58716710D-17  0.18845212D-16  0.22176829D-04 -0.53390976D-04
  0.80882565D-16  0.79682686D-16 -0.16056525D-15 -0.32994457D-17  0.14615757D-03
 -0.35187606D-03  0.43170141D-17  0.50531153D-17 -0.93701294D-17 -0.12123585D-17
 -0.12728040D-05  0.30642906D-05 -0.15874984D-04  0.38219210D-04  0.38525529D-16
 -0.15874984D-04  0.38219210D-04 -0.54175700D-16  0.63499936D-04 -0.15287684D-03
 -0.61400887D-16  0.37355653D-16 -0.45517643D-05  0.10958426D-04 -0.18909278D-16
 -0.45517643D-05  0.10958426D-04  0.26181430D-16  0.18207057D-04 -0.43833704D-04
  0.30546403D-16 -0.34541783D-18  0.11867279D-15  0.22185188D-15  0.38342932D-15
  0.62017972D-15  0.93736533D-15  0.12909059D-14  0.15087697D-14  0.13036908D-14
  0.60804605D-15  0.82559517D-16  0.22107405D-18  0.43365589D-18  0.19798203D-19
 -0.46166351D-15 -0.86217627D-15 -0.14955781D-14 -0.24250282D-14 -0.37336071D-14
 -0.53174951D-14 -0.68376084D-14 -0.71774541D-14 -0.50749687D-14  0.11238731D-15
  0.36464306D-14  0.20078237D-14 -0.84910522D-17  0.30798154D-16  0.57473912D-16
  0.99825307D-16  0.16169485D-15  0.24977122D-15  0.35608640D-15  0.46315209D-15
  0.49359528D-15  0.36608936D-15 -0.11395002D-16 -0.33165789D-15 -0.32491026D-15
  0.15175236D-15 -0.59749876D-15  0.10549630D-14 -0.40537049D-15  0.37214816D+01
  0.48823812D+01  0.53552280D+01  0.44063665D+01  0.23231236D+01  0.60436695D+00
 -0.66879365D-03 -0.89595107D+01 -0.11754390D+02 -0.12892774D+02 -0.10608379D+02
 -0.55929472D+01 -0.14550205D+01  0.16101286D-02  0.81858387D-11  0.10739375D-10
  0.11779457D-10  0.96923240D-11  0.51099849D-11  0.13293765D-11 -0.14710907D-14
  0.39188003D-02  0.51454087D-02  0.57889317D-02  0.48776127D-02  0.27284681D-02
  0.67911017D-03 -0.31147264D-03 -0.94345578D-02 -0.12387632D-01 -0.13936921D-01
 -0.11742910D-01 -0.65688191D-02 -0.16349657D-02  0.74987405D-03  0.14153613D-13
  0.18583780D-13  0.20908005D-13  0.17616575D-13  0.98544652D-14  0.24527563D-14
 -0.11249522D-14  0.28514238D-01 -0.68648362D-01  0.63895991D-13  0.40372150D-05
 -0.97196424D-05  0.18881304D-15 -0.31554859D-05  0.75968693D-05  0.25006354D-16
 -0.11778573D-15 -0.12811661D-15  0.24590234D-15  0.10584517D-18  0.23303188D-03
 -0.56102698D-03  0.37452104D-15  0.41549367D-15 -0.79001471D-15  0.23897804D-16
 -0.39257243D-03  0.94512273D-03  0.14173284D-16  0.13189754D-16 -0.27363038D-16
  0.22899993D-17  0.15755313D-04 -0.37931102D-04 -0.37057837D-05  0.89217177D-05
  0.54012528D-16 -0.37057837D-05  0.89217177D-05 -0.27113335D-16  0.14823135D-04
 -0.35686871D-04 -0.13492425D-15  0.17765251D-16  0.10726726D-04 -0.25824718D-04
 -0.86068006D-17  0.10726726D-04 -0.25824718D-04  0.79280232D-17 -0.42906902D-04
  0.10329887D-03  0.17892379D-16 -0.68537791D-17
MO    6     MO 0.0        OCC NO =    2.0000000  ORB. ENERGY =   -4.769090
 -0.12636289D+00 -0.23574948D+00 -0.40246728D+00 -0.62809294D+00 -0.85619220D+00
 -0.92923101D+00 -0.67725351D+00 -0.20723646D+00  0.98740547D-03 -0.23260884D-03
 -0.43435458D-03 -0.74680427D-03 -0.11722605D-02 -0.16675061D-02 -0.19343518D-02
 -0.18339215D-02 -0.10686269D-02  0.79180886D-03 -0.25888646D-02 -0.10873115D-02
  0.54398929D-04 -0.13487993D-17 -0.11364573D-17 -0.89754966D-18 -0.42144738D-18
 -0.35509877D-18 -0.28044940D-18  0.81895038D-02  0.69002273D-02  0.54496518D-02
  0.58478677D-18 -0.19491659D-19 -0.64019591D-03  0.95158144D-19  0.18593187D-19
 -0.19215446D-03  0.35554884D-20 -0.50985018D-20  0.56234819D-06 -0.46815968D-03
 -0.46815968D-03  0.93631935D-03  0.54372765D-18  0.28670774D-18  0.11117063D-17
  0.21933615D-03  0.21933615D-03 -0.43867229D-03 -0.61655569D-18  0.58920413D-19
 -0.86218149D-18  0.17878563D-04  0.17878563D-04 -0.35757127D-04  0.66252848D-19
  0.84708506D-19  0.27502112D-19 -0.24580524D-19  0.54012077D-19 -0.15267006D-05
  0.94711374D-21  0.35385162D-19  0.22900509D-05  0.72794457D-19 -0.19742139D-18
  0.22900509D-05 -0.35084784D-19 -0.38349745D-20  0.17367609D-20 -0.47450324D-04
 -0.82960610D-21 -0.37212173D-20  0.71175486D-04  0.12334530D-19 -0.14890654D-20
  0.71175486D-04  0.35458342D-19  0.22111283D-03  0.41335760D-03  0.71441098D-03
  0.11555277D-02  0.17465125D-02  0.24052342D-02  0.28111612D-02  0.24290554D-02
  0.11329201D-02  0.15382607D-03  0.41190832D-06  0.80799384D-06  0.36888294D-07
 -0.51078945D-03 -0.95392105D-03 -0.16547237D-02 -0.26830772D-02 -0.41309028D-02
 -0.58833335D-02 -0.75652031D-02 -0.79412121D-02 -0.56149997D-02  0.12434652D-03
  0.40344498D-02  0.22214776D-02 -0.93945910D-05  0.19680679D-03  0.36727059D-03
  0.63790505D-03  0.10332646D-02  0.15960915D-02  0.22754682D-02  0.29596409D-02
  0.31541794D-02  0.23393892D-02 -0.72816500D-04 -0.21193648D-02 -0.20762460D-02
  0.96973002D-03  0.95067888D-03 -0.56873105D-03  0.48503014D-03  0.19441709D-15
  0.25506464D-15  0.27976703D-15  0.23019675D-15  0.12136428D-15  0.31573249D-16
 -0.34939019D-19  0.17792424D-15  0.23342691D-15  0.25603375D-15  0.21066862D-15
  0.11106866D-15  0.28894817D-16 -0.31975061D-19  0.64800390D-02  0.85014583D-02
  0.93248040D-02  0.76725965D-02  0.40451446D-02  0.10523554D-02 -0.11645386D-05
  0.12644506D-17  0.16602314D-17  0.18678722D-17  0.15738236D-17  0.88037485D-18
  0.21912351D-18 -0.10050060D-18 -0.85249710D-17 -0.11193339D-16 -0.12593261D-16
 -0.10610774D-16 -0.59355185D-17 -0.14773385D-17  0.67757860D-18 -0.18141764D-01
 -0.23820247D-01 -0.26799384D-01 -0.22580507D-01 -0.12631219D-01 -0.31438847D-02
  0.14419370D-02  0.10920711D-17 -0.12213656D-18 -0.17160766D-02 -0.48819193D-18
  0.16895049D-19  0.71899650D-03 -0.33469355D-19 -0.22707538D-19 -0.33708368D-04
  0.54073799D-03  0.54073799D-03 -0.10814760D-02 -0.11174493D-19  0.11988640D-18
 -0.58770102D-18  0.38054217D-04  0.38054217D-04 -0.76108433D-04  0.14291288D-18
 -0.48205117D-19  0.52071687D-18  0.46828294D-04  0.46828294D-04 -0.93656588D-04
  0.32077223D-20  0.13776289D-18  0.20830572D-19 -0.21618853D-19 -0.12893240D-18
  0.78505103D-03  0.11027887D-19 -0.13273918D-18 -0.11775765D-02  0.53828671D-19
  0.51953640D-18 -0.11775765D-02 -0.37293262D-18  0.33404441D-19 -0.15899215D-19
  0.13311552D-03  0.42760035D-19 -0.16929657D-19 -0.19967328D-03 -0.14297336D-18
  0.64627303D-19 -0.19967328D-03  0.32314845D-19
MO    7     MO 0.0        OCC NO =    2.0000000  ORB. ENERGY =   -0.859399
  0.16267887D-02  0.30350254D-02  0.51813409D-02  0.80860329D-02  0.11022570D-01
  0.11962867D-01  0.87189234D-02  0.26679505D-02 -0.12711802D-04  0.77913500D-02
  0.14548925D-01  0.25014585D-01  0.39265457D-01  0.55853957D-01  0.64792088D-01
  0.61428123D-01  0.35794196D-01 -0.26522036D-01 -0.22127966D-01 -0.25162595D-02
 -0.12558485D-03  0.32747188D-16  0.27591787D-16  0.21791402D-16  0.15037543D-16
  0.12670177D-16  0.10006635D-16 -0.50698120D-01 -0.42716697D-01 -0.33736732D-01
  0.92728568D-17  0.26981004D-16 -0.13088375D-01  0.40937774D-17  0.56864852D-17
 -0.51000768D-03 -0.26517898D-18  0.25481915D-19 -0.19776166D-06  0.25360584D-02
  0.25360584D-02 -0.50721167D-02  0.15771153D-16 -0.36355339D-16  0.23825581D-16
  0.55954678D-03  0.55954678D-03 -0.11190936D-02 -0.72025876D-17  0.29961863D-16
  0.17234618D-17  0.11936609D-04  0.11936609D-04 -0.23873219D-04 -0.11129843D-17
  0.42664706D-17  0.54864217D-17  0.51502369D-19  0.79429418D-18 -0.83365170D-03
 -0.49525285D-19 -0.66656771D-19  0.12504775D-02 -0.10498182D-18 -0.23162258D-17
  0.12504775D-02  0.70982767D-17 -0.10515623D-17 -0.93018407D-18  0.39393237D-04
 -0.72748850D-18 -0.99931460D-18 -0.59089855D-04  0.38821754D-17  0.37898668D-17
 -0.59089855D-04 -0.27623300D-17  0.42340992D-03  0.79154024D-03  0.13680287D-02
  0.22127250D-02  0.33444042D-02  0.46057934D-02  0.53831047D-02  0.46514086D-02
  0.21694335D-02  0.29456220D-03  0.78876501D-06  0.15472309D-05  0.70637553D-07
 -0.17108074D-02 -0.31950056D-02 -0.55422316D-02 -0.89865370D-02 -0.13835797D-01
 -0.19705282D-01 -0.25338435D-01 -0.26597817D-01 -0.18806541D-01  0.41647873D-03
  0.13512743D-01  0.74404830D-02 -0.31465677D-04 -0.42141334D-01 -0.78641964D-01
 -0.13659168D+00 -0.22124821D+00 -0.34176374D+00 -0.48723556D+00 -0.63373431D+00
 -0.67538994D+00 -0.50092267D+00  0.15591863D-01  0.45380985D+00  0.44457702D+00
 -0.20764384D+00 -0.39544619D-01 -0.40464713D-01  0.43907266D-02  0.64046373D-15
  0.84025353D-15  0.92163006D-15  0.75833182D-15  0.39980753D-15  0.10401102D-15
 -0.11509880D-18 -0.59596956D-15 -0.78187962D-15 -0.85760276D-15 -0.70564915D-15
 -0.37203218D-15 -0.96785191D-16  0.10710268D-18 -0.15931429D+00 -0.20901167D+00
 -0.22925395D+00 -0.18863378D+00 -0.99451459D-01 -0.25872569D-01  0.28630635D-04
  0.45147616D-16  0.59279095D-16  0.66692979D-16  0.56193877D-16  0.31434067D-16
  0.78238753D-17 -0.35884062D-17  0.92808504D-17  0.12185813D-16  0.13709861D-16
  0.11551595D-16  0.64618002D-17  0.16083289D-17 -0.73765713D-18 -0.14064357D+00
 -0.18466587D+00 -0.20776155D+00 -0.17505481D+00 -0.97923209D-01 -0.24372887D-01
  0.11178580D-01 -0.12290863D-16 -0.92871585D-18  0.24508900D-01 -0.37515402D-16
 -0.25670508D-16 -0.55817242D-02 -0.18655489D-17 -0.21277088D-17 -0.30475903D-03
  0.22396865D-03  0.22396865D-03 -0.44793730D-03 -0.36000479D-17  0.22758870D-16
  0.80685080D-17  0.72442128D-02  0.72442128D-02 -0.14488426D-01 -0.12655260D-16
  0.33037507D-16 -0.10760093D-16 -0.32418150D-03 -0.32418150D-03  0.64836301D-03
  0.13221828D-17  0.10032603D-16  0.74012721D-17 -0.21989007D-17 -0.17995458D-17
  0.15559344D-02 -0.31545050D-18 -0.21293895D-17 -0.23339016D-02  0.69121526D-17
  0.75280270D-17 -0.23339016D-02 -0.33553199D-17  0.22949115D-17  0.76278030D-18
 -0.15793369D-03  0.31482900D-17  0.63898152D-18  0.23690053D-03 -0.10033024D-16
 -0.29273224D-17  0.23690053D-03 -0.87913068D-18
MO    8     MO 0.0        OCC NO =    2.0000000  ORB. ENERGY =   -0.416131
  0.72993468D-03  0.13618058D-02  0.23248505D-02  0.36281761D-02  0.49457905D-02
  0.53676989D-02  0.39121520D-02  0.11971005D-02 -0.57037435D-05  0.15562900D-01
  0.29060877D-01  0.49965599D-01  0.78431127D-01  0.11156597D+00  0.12941952D+00
  0.12270014D+00  0.71497427D-01 -0.52976671D-01 -0.43164248D-01 -0.15947124D-02
 -0.12671325D-03 -0.27358850D-16 -0.23051737D-16 -0.18205768D-16  0.31001976D-16