 Molden2AIM, Version 4.0.0 (06/02/2016)           Time: Sun Jun 24 19:46:45 2018
GAUSSIAN              7 MOL ORBITALS    201 PRIMITIVES        2 NUCLEI
  F    1    (CENTRE  1)   0.00000000  0.00000000  0.00362260  CHARGE =  9.0
  B    2    (CENTRE  2)   0.00000000  0.00000000  2.39160526  CHARGE =  5.0
CENTRE ASSIGNMENTS    1  1  1  1  1  1  1  1  1  1  1  1  1  1  1  1  1  1  1  1
CENTRE ASSIGNMENTS    1  1  1  1  1  1  1  1  1  1  1  1  1  1  1  1  1  1  1  1
CENTRE ASSIGNMENTS    1  1  1  1  1  1  1  1  1  1  1  1  1  1  1  1  1  1  1  1
CENTRE ASSIGNMENTS    1  1  1  1  1  1  1  1  1  1  1  1  1  1  1  1  1  1  1  1
CENTRE ASSIGNMENTS    1  1  1  1  1  1  1  1  1  1  1  1  1  1  1  1  1  1  1  1
CENTRE ASSIGNMENTS    1  1  2  2  2  2  2  2  2  2  2  2  2  2  2  2  2  2  2  2
CENTRE ASSIGNMENTS    2  2  2  2  2  2  2  2  2  2  2  2  2  2  2  2  2  2  2  2
CENTRE ASSIGNMENTS    2  2  2  2  2  2  2  2  2  2  2  2  2  2  2  2  2  2  2  2
CENTRE ASSIGNMENTS    2  2  2  2  2  2  2  2  2  2  2  2  2  2  2  2  2  2  2  2
CENTRE ASSIGNMENTS    2  2  2  2  2  2  2  2  2  2  2  2  2  2  2  2  2  2  2  2
CENTRE ASSIGNMENTS    2
TYPE ASSIGNMENTS      1  1  1  1  1  1  1  1  1  1  1  1  1  1  1  1  2  2  2  2
TYPE ASSIGNMENTS      2  3  3  3  3  3  4  4  4  4  4  2  3  4  2  3  4  2  3  4
TYPE ASSIGNMENTS      2  3  4  5  6  7  8  9 10  5  6  7  8  9 10  5  6  7  8  9
TYPE ASSIGNMENTS     10  5  6  7  8  9 10 11 12 13 17 14 15 18 19 16 20 11 12 13
TYPE ASSIGNMENTS     17 14 15 18 19 16 20 21 22 23 24 25 26 27 28 29 30 31 32 33
TYPE ASSIGNMENTS     34 35  1  1  1  1  1  1  1  1  1  1  1  1  1  1  1  1  2  2
TYPE ASSIGNMENTS      2  2  2  3  3  3  3  3  4  4  4  4  4  2  3  4  2  3  4  2
TYPE ASSIGNMENTS      3  4  5  6  7  8  9 10  5  6  7  8  9 10  5  6  7  8  9 10
TYPE ASSIGNMENTS      5  6  7  8  9 10 11 12 13 17 14 15 18 19 16 20 11 12 13 17
TYPE ASSIGNMENTS     14 15 18 19 16 20 21 22 23 24 25 26 27 28 29 30 31 32 33 34
TYPE ASSIGNMENTS     35
EXPONENTS  0.1325360D+06 0.1975811D+05 0.4485200D+04 0.1273815D+04 0.4189383D+03
EXPONENTS  0.1525572D+03 0.5982152D+02 0.2481908D+02 0.1007445D+03 0.3010373D+02
EXPONENTS  0.1081428D+02 0.4817289D+01 0.1655933D+01 0.6489352D+00 0.2477810D+00
EXPONENTS  0.8762624D-01 0.2409665D+03 0.5702070D+02 0.1812695D+02 0.6645740D+01
EXPONENTS  0.2637572D+01 0.2409665D+03 0.5702070D+02 0.1812695D+02 0.6645740D+01
EXPONENTS  0.2637572D+01 0.2409665D+03 0.5702070D+02 0.1812695D+02 0.6645740D+01
EXPONENTS  0.2637572D+01 0.1063822D+01 0.1063822D+01 0.1063822D+01 0.4193256D+00
EXPONENTS  0.4193256D+00 0.4193256D+00 0.1574759D+00 0.1574759D+00 0.1574759D+00
EXPONENTS  0.4677240D-01 0.4677240D-01 0.4677240D-01 0.5014000D+01 0.5014000D+01
EXPONENTS  0.5014000D+01 0.5014000D+01 0.5014000D+01 0.5014000D+01 0.1725000D+01
EXPONENTS  0.1725000D+01 0.1725000D+01 0.1725000D+01 0.1725000D+01 0.1725000D+01
EXPONENTS  0.5860000D+00 0.5860000D+00 0.5860000D+00 0.5860000D+00 0.5860000D+00
EXPONENTS  0.5860000D+00 0.1596799D+00 0.1596799D+00 0.1596799D+00 0.1596799D+00
EXPONENTS  0.1596799D+00 0.1596799D+00 0.3562000D+01 0.3562000D+01 0.3562000D+01
EXPONENTS  0.3562000D+01 0.3562000D+01 0.3562000D+01 0.3562000D+01 0.3562000D+01
EXPONENTS  0.3562000D+01 0.3562000D+01 0.1148000D+01 0.1148000D+01 0.1148000D+01
EXPONENTS  0.1148000D+01 0.1148000D+01 0.1148000D+01 0.1148000D+01 0.1148000D+01
EXPONENTS  0.1148000D+01 0.1148000D+01 0.2376000D+01 0.2376000D+01 0.2376000D+01
EXPONENTS  0.2376000D+01 0.2376000D+01 0.2376000D+01 0.2376000D+01 0.2376000D+01
EXPONENTS  0.2376000D+01 0.2376000D+01 0.2376000D+01 0.2376000D+01 0.2376000D+01
EXPONENTS  0.2376000D+01 0.2376000D+01 0.4644767D+05 0.6957689D+04 0.1583443D+04
EXPONENTS  0.4484660D+03 0.1462864D+03 0.5278439D+02 0.2051940D+02 0.8418566D+01
EXPONENTS  0.3651002D+02 0.1054185D+02 0.3600409D+01 0.1561702D+01 0.4499737D+00
EXPONENTS  0.1807523D+00 0.7159670D-01 0.2994140D-01 0.7224046D+02 0.1680771D+02
EXPONENTS  0.5225941D+01 0.1850835D+01 0.7220678D+00 0.7224046D+02 0.1680771D+02
EXPONENTS  0.5225941D+01 0.1850835D+01 0.7220678D+00 0.7224046D+02 0.1680771D+02
EXPONENTS  0.5225941D+01 0.1850835D+01 0.7220678D+00 0.2949102D+00 0.2949102D+00
EXPONENTS  0.2949102D+00 0.1220114D+00 0.1220114D+00 0.1220114D+00 0.4986539D-01
EXPONENTS  0.4986539D-01 0.4986539D-01 0.1110000D+01 0.1110000D+01 0.1110000D+01
EXPONENTS  0.1110000D+01 0.1110000D+01 0.1110000D+01 0.4020000D+00 0.4020000D+00
EXPONENTS  0.4020000D+00 0.4020000D+00 0.4020000D+00 0.4020000D+00 0.1450000D+00
EXPONENTS  0.1450000D+00 0.1450000D+00 0.1450000D+00 0.1450000D+00 0.1450000D+00
EXPONENTS  0.5089659D-01 0.5089659D-01 0.5089659D-01 0.5089659D-01 0.5089659D-01
EXPONENTS  0.5089659D-01 0.8820000D+00 0.8820000D+00 0.8820000D+00 0.8820000D+00
EXPONENTS  0.8820000D+00 0.8820000D+00 0.8820000D+00 0.8820000D+00 0.8820000D+00
EXPONENTS  0.8820000D+00 0.3110000D+00 0.3110000D+00 0.3110000D+00 0.3110000D+00
EXPONENTS  0.3110000D+00 0.3110000D+00 0.3110000D+00 0.3110000D+00 0.3110000D+00
EXPONENTS  0.3110000D+00 0.6730000D+00 0.6730000D+00 0.6730000D+00 0.6730000D+00
EXPONENTS  0.6730000D+00 0.6730000D+00 0.6730000D+00 0.6730000D+00 0.6730000D+00
EXPONENTS  0.6730000D+00 0.6730000D+00 0.6730000D+00 0.6730000D+00 0.6730000D+00
EXPONENTS  0.6730000D+00
MO    1     MO 0.0        OCC NO =    2.0000000  ORB. ENERGY =  -26.376114
  0.23008815D+00  0.43183057D+00  0.74516724D+00  0.12008844D+01  0.18119259D+01
  0.25104106D+01  0.29852115D+01  0.27095974D+01  0.96042672D-02  0.34758317D-01
  0.14948414D+01  0.31187492D+00  0.90017500D-02 -0.53749133D-03 -0.94273387D-04
 -0.15761157D-03 -0.30401080D-17 -0.40215268D-17 -0.45097907D-17 -0.41672789D-17
 -0.28260231D-17 -0.28904825D-17 -0.38235988D-17 -0.42878317D-17 -0.39621773D-17
 -0.26869343D-17  0.36823915D-02  0.48711547D-02  0.54625742D-02  0.50476998D-02
  0.34230769D-02  0.12915873D-17  0.22585310D-17 -0.13653266D-02 -0.21295831D-17
 -0.47642492D-19  0.13842430D-04  0.38300573D-18 -0.43796433D-18 -0.86639273D-04
  0.33485372D-19 -0.54094189D-19  0.59292846D-06 -0.89589741D-03 -0.89589741D-03
  0.17917948D-02  0.22140815D-16  0.93097179D-18 -0.10052759D-16  0.17586266D-03
  0.17586266D-03 -0.35172533D-03  0.91777818D-18  0.99555803D-18  0.17194249D-17
  0.25909918D-04  0.25909918D-04 -0.51819836D-04 -0.27196727D-18 -0.11821044D-17
  0.43642869D-19  0.13437918D-05  0.13437918D-05 -0.26875837D-05 -0.97863493D-21
 -0.51823824D-19 -0.23688610D-18 -0.24000184D-17  0.15955278D-17  0.45589550D-03
 -0.15648265D-17  0.10614072D-17 -0.68384325D-03  0.87648818D-17 -0.58479906D-17
 -0.68384325D-03 -0.12062840D-16  0.81454906D-18 -0.58593872D-18 -0.49213548D-04
  0.11312432D-17 -0.64442740D-18  0.73820321D-04 -0.35748904D-17  0.24022435D-17
  0.73820321D-04 -0.11981672D-17 -0.29904927D-04 -0.29904927D-04 -0.79746473D-04
 -0.10336766D-17 -0.45086333D-20  0.71978366D-18  0.98242686D-18 -0.46093460D-19
 -0.13867740D-17 -0.59809854D-04  0.23923942D-03  0.23923942D-03  0.12130415D-17
  0.15180628D-18  0.94167879D-18  0.61117202D-06  0.11437679D-05  0.19761868D-05
  0.32108628D-05  0.48976195D-05  0.68600024D-05  0.83053000D-05  0.79366308D-05
 -0.31354249D-04 -0.12340189D-03  0.15603827D-03 -0.26109936D-03  0.25614079D-04
  0.29369722D-03  0.76004023D-04  0.39187899D-05 -0.18702748D-18 -0.24013285D-18
 -0.25116415D-18 -0.23110491D-18 -0.17870881D-18 -0.13948049D-17 -0.17908516D-17
 -0.18731203D-17 -0.17235235D-17 -0.13327663D-17  0.67967789D-05  0.87266846D-05
  0.91275741D-05  0.83985999D-05  0.64944695D-05  0.25519840D-18  0.77524279D-18
 -0.32933953D-03  0.85204256D-19  0.19028267D-18 -0.53062929D-04 -0.46296367D-19
  0.45115847D-19 -0.88746586D-05 -0.40904818D-04 -0.40904818D-04  0.81809635D-04
 -0.11296781D-18 -0.56616854D-19  0.14062954D-17 -0.10542432D-03 -0.10542432D-03
  0.21084863D-03  0.11847592D-18 -0.84798029D-18  0.13000014D-18 -0.54106946D-05
 -0.54106946D-05  0.10821389D-04  0.33196805D-20 -0.10850626D-18 -0.10503971D-18
 -0.35678252D-06 -0.35678252D-06  0.71356504D-06 -0.58664226D-21  0.27165306D-19
 -0.15649300D-19 -0.39277545D-18  0.38441022D-18 -0.19534129D-03 -0.39631445D-18
  0.36908796D-18  0.29301194D-03  0.15746408D-17 -0.15223186D-17  0.29301194D-03
 -0.16080146D-18 -0.43033122D-19  0.26401505D-20 -0.26950848D-04 -0.38872709D-19
  0.42740631D-20  0.40426272D-04  0.16797208D-18 -0.12194515D-19  0.40426272D-04
 -0.56552106D-19  0.17889093D-04  0.17889093D-04  0.47704249D-04 -0.45664371D-19
  0.39043878D-18 -0.47543884D-19 -0.48337871D-18 -0.51578346D-18  0.64496777D-18
  0.35778187D-04 -0.14311275D-03 -0.14311275D-03 -0.48476717D-18  0.37603405D-18
  0.27962477D-18
MO    2     MO 0.0        OCC NO =    2.0000000  ORB. ENERGY =   -7.708622
 -0.13708540D-03 -0.25728255D-03 -0.44396701D-03 -0.71548105D-03 -0.10795366D-02
 -0.14956904D-02 -0.17785745D-02 -0.16143649D-02 -0.28707996D-03 -0.10389565D-02
 -0.60985161D-03 -0.18373483D-02  0.21356464D-02 -0.55573528D-04 -0.14162742D-02
  0.33093539D-03 -0.15692055D-15 -0.20757822D-15 -0.23278083D-15 -0.21510147D-15
 -0.14587018D-15 -0.10941483D-15 -0.14473653D-15 -0.16230937D-15 -0.14998221D-15
 -0.10170982D-15  0.27792800D-02  0.36764974D-02  0.41228704D-02  0.38097446D-02
  0.25835626D-02  0.61766663D-16 -0.18446160D-15  0.26271636D-02  0.83681012D-16
 -0.15929600D-15 -0.23929445D-02 -0.42367977D-16  0.34379967D-16  0.13308619D-03
  0.22370908D-17  0.46790208D-17 -0.55343190D-05  0.11244024D-03  0.11244024D-03
 -0.22488047D-03 -0.39020299D-15  0.10079859D-14 -0.43404728D-15 -0.14036245D-02
 -0.14036245D-02  0.28072490D-02 -0.20115719D-15 -0.43618875D-15 -0.18951410D-16
  0.67941223D-03  0.67941223D-03 -0.13588245D-02 -0.21384560D-16  0.12179500D-15
 -0.11872452D-15 -0.58999190D-05 -0.58999190D-05  0.11799838D-04  0.20269543D-18
 -0.23796550D-16  0.15137355D-16  0.94975007D-16 -0.24712288D-16  0.49062454D-02
  0.94343571D-16 -0.25553921D-16 -0.73593682D-02 -0.37926859D-15  0.99690786D-16
 -0.73593682D-02  0.19579590D-15 -0.89792122D-16  0.88321878D-16 -0.10124040D-02
 -0.89643478D-16  0.88414224D-16  0.15186060D-02  0.35901984D-15 -0.35337986D-15
  0.15186060D-02 -0.15508483D-15 -0.15803745D-03 -0.15803745D-03 -0.42143320D-03
 -0.27195972D-17  0.34878749D-16 -0.29013959D-17 -0.64291397D-16 -0.46117124D-16
  0.85975385D-16 -0.31607490D-03  0.12642996D-02  0.12642996D-02 -0.65051963D-16
  0.33715125D-16  0.16862980D-16  0.86739494D-01  0.16232721D+00  0.28046677D+00
  0.45569595D+00  0.69508586D+00  0.97359354D+00  0.11787148D+01  0.11263921D+01
 -0.55438984D-03 -0.21819293D-02  0.69715066D+00  0.17876111D+00  0.59962048D-02
 -0.20033056D-03 -0.23468848D-04 -0.28633983D-04 -0.31699750D-16 -0.40700710D-16
 -0.42570433D-16 -0.39170543D-16 -0.30289798D-16 -0.26894278D-16 -0.34530751D-16
 -0.36117037D-16 -0.33232548D-16 -0.25698065D-16 -0.35080448D-02 -0.45041337D-02
 -0.47110461D-02 -0.43347981D-02 -0.33520128D-02 -0.23485623D-16  0.35895496D-16
 -0.62861349D-03  0.46642725D-16 -0.21494960D-16 -0.34886121D-04 -0.69020044D-17
 -0.43445579D-17  0.30305151D-04 -0.95745165D-03 -0.95745165D-03  0.19149033D-02
 -0.30512241D-17  0.51841588D-16 -0.43111906D-16 -0.36983986D-03 -0.36983986D-03
  0.73967972D-03  0.43857121D-17  0.52787056D-16 -0.68276984D-16 -0.12887936D-06
 -0.12887936D-06  0.25775872D-06 -0.29085206D-18 -0.23606838D-16  0.57213981D-17
  0.83982528D-06  0.83982528D-06 -0.16796506D-05  0.12228471D-19  0.20075176D-17
  0.14741280D-17  0.32981811D-16 -0.56232363D-16 -0.83086803D-03  0.32976388D-16
 -0.56319347D-16  0.12463020D-02 -0.13192182D-15  0.22501643D-15  0.12463020D-02
 -0.36907153D-16 -0.41206135D-18 -0.39096003D-17 -0.29961394D-05 -0.40108228D-18
 -0.39073724D-17  0.44942091D-05  0.16372663D-17  0.15636173D-16  0.44942091D-05
 -0.13502830D-17  0.28134580D-05  0.28134580D-05  0.75025547D-05 -0.48681477D-17
 -0.17027305D-16 -0.48732940D-17  0.58246198D-16  0.22710851D-16 -0.77675693D-16
  0.56269160D-05 -0.22507664D-04 -0.22507664D-04  0.58288483D-16 -0.17050638D-16
  0.29224325D-16
MO    3     MO 0.0        OCC NO =    2.0000000  ORB. ENERGY =   -1.698855
  0.51237092D-01  0.96162024D-01  0.16593728D+00  0.26741847D+00  0.40348803D+00
  0.55902982D+00  0.66476068D+00  0.60338565D+00  0.56683948D-01  0.20514200D+00
  0.66853686D+00  0.11883515D+00 -0.33661757D+00 -0.26706688D+00 -0.53321436D-01
 -0.43021298D-03  0.25504786D-15  0.33738336D-15  0.37834594D-15  0.34961113D-15
  0.23708735D-15  0.13883584D-15  0.18365534D-15  0.20595340D-15  0.19031155D-15
  0.12905900D-15 -0.14169288D+00 -0.18743470D+00 -0.21019163D+00 -0.19422789D+00
 -0.13171484D+00  0.14829158D-15  0.12667361D-16 -0.67821728D-01 -0.16094502D-16
 -0.20113774D-16 -0.16932850D-01  0.10343620D-16  0.29226381D-16 -0.89710574D-03
 -0.23448307D-17  0.18265819D-17 -0.54488341D-04  0.83219917D-02  0.83219917D-02
 -0.16643983D-01 -0.44873332D-16 -0.14847683D-15  0.39227427D-16  0.11454691D-01
  0.11454691D-01 -0.22909382D-01  0.36711638D-16 -0.10114693D-15  0.28951893D-16
  0.32697675D-02  0.32697675D-02 -0.65395351D-02 -0.38896384D-17  0.12595424D-16
  0.21529498D-16  0.18359157D-04  0.18359157D-04 -0.36718315D-04 -0.25123070D-18
 -0.24595363D-17  0.12877163D-16 -0.53449920D-17 -0.82020367D-17 -0.64742935D-02
  0.16732744D-18 -0.86134128D-18  0.97114403D-02  0.15867648D-16  0.25467451D-16
  0.97114403D-02  0.96634884D-16 -0.98782325D-18  0.80427305D-17 -0.54441061D-02
 -0.89162179D-17  0.63804111D-17  0.81661592D-02  0.11879688D-16 -0.30508603D-16
  0.81661592D-02 -0.48571407D-16 -0.18568948D-02 -0.18568948D-02 -0.49517194D-02
  0.83632875D-17  0.15788542D-18 -0.13151607D-16 -0.10643385D-16 -0.82453830D-17
  0.13564149D-16 -0.37137895D-02  0.14855158D-01  0.14855158D-01 -0.87622910D-17
  0.24262493D-16  0.14364958D-16  0.50193597D-02  0.93933989D-02  0.16229788D-01
  0.26369786D-01  0.40222577D-01  0.56338998D-01  0.68208765D-01  0.65181002D-01
  0.29725316D-02  0.11699085D-01  0.66960081D-01  0.22513901D-01 -0.26299618D-01
 -0.44156255D-02  0.74398242D-03 -0.14033328D-03  0.67228228D-17  0.86317291D-17
  0.90282565D-17  0.83072143D-17  0.64238028D-17  0.49371054D-17  0.63389678D-17
  0.66301695D-17  0.61006506D-17  0.47175112D-17  0.46532270D-01  0.59744837D-01
  0.62489416D-01  0.57498695D-01  0.44462592D-01 -0.22597375D-17 -0.85296992D-17
  0.11412876D-01  0.25305260D-17 -0.24488537D-16 -0.79278973D-03  0.11264068D-17
  0.10096542D-19  0.12100985D-03  0.12827165D-01  0.12827165D-01 -0.25654330D-01
 -0.13032255D-17 -0.52852138D-17 -0.12766555D-16  0.28934107D-02  0.28934107D-02
 -0.57868213D-02  0.18903790D-17  0.71919458D-17 -0.62130614D-17 -0.20363122D-04
 -0.20363122D-04  0.40726244D-04  0.95283581D-19 -0.46923596D-18  0.14292507D-16
  0.40500683D-05  0.40500683D-05 -0.81001366D-05  0.13316505D-19 -0.29827391D-18
  0.35011541D-20  0.15486845D-17 -0.87254271D-17  0.64588453D-02  0.20806530D-17
 -0.74814393D-17 -0.96882679D-02 -0.67267065D-17  0.33657721D-16 -0.96882679D-02
 -0.10832112D-16 -0.27342034D-18  0.19344442D-17  0.42534860D-03 -0.82590093D-18
  0.17976441D-17 -0.63802290D-03  0.16461619D-17 -0.76009766D-17 -0.63802290D-03
 -0.11622155D-17 -0.33320288D-03 -0.33320288D-03 -0.88854101D-03 -0.14342021D-17
  0.12037430D-17 -0.13342345D-17  0.62892184D-17 -0.20488652D-17 -0.83387275D-17
 -0.66640576D-03  0.26656230D-02  0.26656230D-02  0.61485273D-17  0.25353665D-17
  0.83053098D-17
MO    4     MO 0.0        OCC NO =    2.0000000  ORB. ENERGY =   -0.854332
 -0.12290262D-01 -0.23066423D-01 -0.39803442D-01 -0.64145776D-01 -0.96784836D-01
 -0.13409471D+00 -0.15945641D+00 -0.14473436D+00 -0.14003825D-01 -0.50680534D-01
 -0.16618131D+00 -0.26354038D-01  0.89390817D-01  0.78338474D-01  0.35103589D-01
  0.35416604D-02 -0.42515828D-14 -0.56240945D-14 -0.63069303D-14 -0.58279284D-14
 -0.39521857D-14 -0.59093663D-15 -0.78170498D-15 -0.87661379D-15 -0.81003629D-15
 -0.54932278D-15 -0.11765510D+01 -0.15563695D+01 -0.17453323D+01 -0.16127770D+01
 -0.10936981D+01 -0.17080618D-14 -0.28580568D-15 -0.49559669D+00 -0.50283253D-15
 -0.16647527D-15 -0.13125696D+00 -0.69169526D-16  0.19833805D-16 -0.10287172D-01
 -0.10181039D-16 -0.25576255D-17 -0.14666291D-05  0.28129128D-01  0.28129128D-01
 -0.56258256D-01 -0.12747889D-15 -0.33896663D-15 -0.38576791D-16  0.23573777D-01
  0.23573777D-01 -0.47147554D-01  0.57854615D-16 -0.36754583D-15 -0.12519953D-15
  0.58428175D-02  0.58428175D-02 -0.11685635D-01  0.29037063D-17 -0.25844496D-16
  0.90900926D-17  0.43594863D-04  0.43594863D-04 -0.87189726D-04  0.73737294D-18
 -0.18007725D-16 -0.16246945D-16  0.20817309D-16 -0.62176321D-17 -0.16702101D-01
  0.20131517D-16 -0.55821612D-18  0.25053151D-01 -0.82583444D-16  0.19211112D-16
  0.25053151D-01 -0.79904898D-16  0.10964321D-16  0.17234907D-17 -0.85957682D-02
  0.11829244D-16 -0.19605802D-17  0.12893652D-01 -0.44722207D-16 -0.32098919D-17
  0.12893652D-01  0.37183443D-16 -0.32450375D-02 -0.32450375D-02 -0.86534333D-02
  0.34847446D-18  0.59346127D-16  0.50816127D-17  0.75470599D-17 -0.92807764D-16
 -0.11111969D-16 -0.64900750D-02  0.25960300D-01  0.25960300D-01  0.10694726D-16
  0.10038491D-15 -0.16290262D-16  0.87118653D-02  0.16303678D-01  0.28169276D-01
  0.45768790D-01  0.69812425D-01  0.97784936D-01  0.11838673D+00  0.11313158D+00
  0.61345823D-02  0.24144066D-01  0.12350572D+00  0.45508721D-01 -0.56706043D-01
 -0.26895778D-01 -0.13819997D-02 -0.11092863D-03 -0.15280427D-15 -0.19619215D-15
 -0.20520490D-15 -0.18881620D-15 -0.14600779D-15 -0.17984631D-16 -0.23091263D-16
 -0.24152037D-16 -0.22223133D-16 -0.17184705D-16  0.80231985D-01  0.10301339D+00
  0.10774565D+00  0.99140541D-01  0.76663400D-01 -0.10674884D-15 -0.16795658D-16
  0.25464433D-01  0.12444502D-16  0.22011830D-16  0.10211322D-02  0.48488437D-17
 -0.14071495D-17  0.55354828D-04  0.17379008D-01  0.17379008D-01 -0.34758016D-01
  0.59779464D-18  0.13495812D-15  0.37847187D-16  0.38426819D-02  0.38426819D-02
 -0.76853639D-02  0.19764766D-17  0.71775693D-16 -0.70468632D-17  0.14425686D-03
  0.14425686D-03 -0.28851373D-03  0.10800316D-18 -0.22950549D-17 -0.41731236D-17
 -0.82863892D-06 -0.82863892D-06  0.16572778D-05 -0.42134225D-19 -0.11629013D-17
 -0.25111168D-18  0.23018986D-16  0.42685731D-18  0.81858537D-02  0.23137634D-16
  0.86441468D-18 -0.12278781D-01 -0.92194591D-16 -0.21449866D-17 -0.12278781D-01
  0.10419433D-16  0.16023307D-17 -0.69800420D-19  0.47044096D-03  0.16047517D-17
 -0.66410328D-19 -0.70566144D-03 -0.64117439D-17  0.27581159D-18 -0.70566144D-03
 -0.18013578D-17 -0.43190846D-03 -0.43190846D-03 -0.11517559D-02  0.11344223D-17
 -0.13399396D-16  0.11862680D-17  0.12814156D-17  0.18121834D-16 -0.16092285D-17
 -0.86381691D-03  0.34552676D-02  0.34552676D-02  0.98343859D-18 -0.14167313D-16
 -0.69620710D-17
MO    5     MO 0.0        OCC NO =    2.0000000  ORB. ENERGY =   -0.745406
 -0.20341448D-16 -0.38176930D-16 -0.65878146D-16 -0.10616682D-15 -0.16018729D-15
 -0.22193837D-15 -0.26391418D-15 -0.23954791D-15 -0.17060714D-16 -0.61743565D-16
 -0.31091646D-15  0.21649180D-16  0.39745285D-16  0.26510022D-15 -0.14365450D-15
  0.11397901D-15  0.40088603D+00  0.53030153D+00  0.59468681D+00  0.54952123D+00
  0.37265557D+00  0.11925686D+01  0.15775580D+01  0.17690934D+01  0.16347334D+01
  0.11085877D+01 -0.12918485D-14 -0.17088878D-14 -0.19163683D-14 -0.17708230D-14
 -0.12008763D-14  0.16940172D+00  0.50394166D+00 -0.50220526D-15  0.49101127D-01
  0.14606761D+00 -0.23428457D-15  0.54046926D-02  0.16078053D-01  0.22622956D-16
  0.38078297D-04  0.11327654D-03 -0.81961965D-17 -0.66010854D-16 -0.22190006D-17
  0.68229855D-16 -0.68746705D-15  0.20188805D-01  0.60058304D-01 -0.86365874D-16
  0.16946218D-15 -0.83096302D-16  0.51036079D-16  0.20593470D-01  0.61262114D-01
  0.11452510D-16  0.12410026D-18 -0.11576610D-16  0.80113971D-16  0.63237428D-02
  0.18812073D-01 -0.27277190D-17 -0.14106149D-16  0.16833868D-16  0.27514208D-17
  0.16819342D-03  0.50034717D-03 -0.21715341D-02 -0.64599492D-02  0.17018273D-15
 -0.21715341D-02 -0.64599492D-02 -0.19824135D-15  0.86861363D-02  0.25839797D-01
 -0.31230682D-15  0.67362656D-15 -0.17352412D-02 -0.51620511D-02 -0.32470412D-16
 -0.17352412D-02 -0.51620511D-02  0.40969959D-16  0.69409648D-02  0.20648204D-01
  0.56441278D-16 -0.30918940D-15 -0.49367515D-16 -0.60861800D-16 -0.12193701D-15
  0.68245303D-16 -0.65980253D-02 -0.73226741D-16 -0.19628017D-01  0.87973670D-02
  0.26170689D-01 -0.35123084D-16  0.33132818D-15  0.40029389D-15 -0.19628017D-01
 -0.65980253D-02  0.14944315D-16  0.20287266D-16  0.37966273D-16  0.65597615D-16
  0.10658149D-15  0.16257175D-15  0.22771116D-15  0.27568642D-15  0.26344880D-15
  0.17615571D-16  0.69330151D-16  0.17697039D-15  0.11511040D-15 -0.77603961D-16
 -0.19181986D-15  0.60154645D-16 -0.35301387D-16  0.15674520D-01  0.20125209D-01
  0.21049728D-01  0.19368590D-01  0.14977344D-01  0.46629065D-01  0.59869116D-01
  0.62619405D-01  0.57618302D-01  0.44555082D-01  0.96353025D-16  0.12371191D-15
  0.12939503D-15  0.11906089D-15  0.92067404D-16  0.69672443D-02  0.20726382D-01
  0.38150263D-16  0.58472160D-03  0.17394485D-02 -0.34742250D-16  0.58921814D-05
  0.17528250D-04  0.15458316D-16  0.31707897D-16  0.63593334D-16 -0.95301231D-16
 -0.82505185D-16 -0.13636136D-01 -0.40565215D-01 -0.21489787D-16  0.10280524D-16
  0.11209263D-16  0.91241507D-16 -0.53429906D-02 -0.15894500D-01 -0.79122177D-17
 -0.67629751D-17  0.14675193D-16 -0.96745039D-17 -0.24294514D-03 -0.72272099D-03
  0.18584612D-17  0.98268766D-18 -0.28411489D-17  0.57103028D-17  0.64634657D-05
  0.19227725D-04 -0.16905856D-02 -0.50292083D-02 -0.25640302D-17 -0.16905856D-02
 -0.50292083D-02 -0.27018743D-16  0.67623425D-02  0.20116833D-01  0.34710834D-16
 -0.89927387D-16 -0.13882136D-03 -0.41297024D-03 -0.13128029D-17 -0.13882136D-03
 -0.41297024D-03  0.11679972D-18  0.55528546D-03  0.16518810D-02  0.38216091D-17
 -0.21281371D-16  0.73803566D-18  0.28392651D-17 -0.23370156D-17 -0.97420317D-17
  0.91730954D-03 -0.66421807D-17  0.27288418D-02 -0.12230794D-02 -0.36384557D-02
 -0.17742949D-16  0.13314735D-16  0.70735834D-18  0.27288418D-02  0.91730954D-03
  0.49152637D-16
MO    6     MO 0.0        OCC NO =    2.0000000  ORB. ENERGY =   -0.745406
 -0.42887540D-16 -0.80491545D-16 -0.13889629D-15 -0.22384019D-15 -0.33773597D-15
 -0.46793081D-15 -0.55643186D-15 -0.50505845D-15 -0.51459292D-16 -0.18623372D-15
 -0.56440469D-15 -0.11748404D-15  0.35556928D-15  0.21743062D-15  0.74647636D-16
 -0.51929944D-16  0.11925686D+01  0.15775580D+01  0.17690934D+01  0.16347334D+01
  0.11085877D+01 -0.40088603D+00 -0.53030153D+00 -0.59468681D+00 -0.54952123D+00
 -0.37265557D+00 -0.32774783D-14 -0.43355259D-14 -0.48619133D-14 -0.44926582D-14
 -0.30466777D-14  0.50394166D+00 -0.16940172D+00 -0.13916793D-14  0.14606761D+00
 -0.49101127D-01 -0.40628595D-15  0.16078053D-01 -0.54046926D-02 -0.23146024D-16
  0.11327654D-03 -0.38078297D-04  0.85713819D-17  0.46175923D-16  0.28987900D-16
 -0.75163823D-16  0.27405374D-15  0.60058304D-01 -0.20188805D-01 -0.46955037D-16
  0.15905700D-15 -0.11210196D-15  0.14175777D-16  0.61262114D-01 -0.20593470D-01
  0.33609064D-16  0.85441579D-17 -0.42153221D-16 -0.39782661D-16  0.18812073D-01
 -0.63237428D-02 -0.35273121D-17 -0.22439349D-17  0.57712470D-17 -0.18812219D-17
  0.50034717D-03 -0.16819342D-03 -0.64599492D-02  0.21715341D-02 -0.10591688D-15
 -0.64599492D-02  0.21715341D-02  0.22755590D-15  0.25839797D-01 -0.86861363D-02
  0.90194734D-16 -0.10575508D-14 -0.51620511D-02  0.17352412D-02 -0.43072100D-16
 -0.51620511D-02  0.17352412D-02 -0.50553492D-16  0.20648204D-01 -0.69409648D-02
  0.17976979D-15  0.15406859D-15 -0.47667115D-16 -0.36671755D-16 -0.13811015D-15
 -0.58973546D-16 -0.19628017D-01  0.66751860D-16  0.65980253D-02  0.26170689D-01
 -0.87973670D-02 -0.16131385D-15  0.44731655D-15  0.38134438D-15  0.65980253D-02
 -0.19628017D-01 -0.23334942D-16  0.30463665D-16  0.57010730D-16  0.98502371D-16
  0.16004438D-15  0.24412021D-15  0.34193453D-15  0.41397491D-15  0.39559871D-15
  0.21834263D-17  0.85933784D-17  0.42990387D-15  0.91016518D-16 -0.15841970D-15
 -0.11725232D-15  0.18049024D-16  0.56849829D-18  0.46629065D-01  0.59869116D-01
  0.62619405D-01  0.57618302D-01  0.44555082D-01 -0.15674520D-01 -0.20125209D-01
 -0.21049728D-01 -0.19368590D-01 -0.14977344D-01  0.18976204D-15  0.24364387D-15
  0.25483646D-15  0.23448393D-15  0.18132174D-15  0.20726382D-01 -0.69672443D-02
  0.18440013D-16  0.17394485D-02 -0.58472160D-03 -0.11028611D-16  0.17528250D-04
 -0.58921814D-05 -0.14542757D-16  0.26318206D-16 -0.17283346D-16 -0.90348601D-17
  0.51611644D-16 -0.40565215D-01  0.13636136D-01  0.20487072D-16  0.43231933D-17
 -0.24810265D-16 -0.41088302D-16 -0.15894500D-01  0.53429906D-02 -0.42318681D-17
 -0.25393995D-17  0.67712676D-17  0.70438331D-17 -0.72272099D-03  0.24294514D-03
 -0.14433434D-17 -0.61488012D-18  0.20582235D-17 -0.23488954D-17  0.19227725D-04
 -0.64634657D-05 -0.50292083D-02  0.16905856D-02  0.16115422D-17 -0.50292083D-02
  0.16905856D-02 -0.72371230D-16  0.20116833D-01 -0.67623425D-02  0.67536604D-16
  0.33074615D-16 -0.41297024D-03  0.13882136D-03 -0.22953892D-17 -0.41297024D-03
  0.13882136D-03  0.88256353D-17  0.16518810D-02 -0.55528546D-03 -0.19394675D-17
  0.72779625D-17  0.67072224D-17  0.14280532D-16  0.72099354D-17  0.15621088D-17
  0.27288418D-02  0.75704448D-18 -0.91730954D-03 -0.36384557D-02  0.12230794D-02
 -0.41333457D-16  0.10901225D-17 -0.44349735D-16 -0.91730954D-03  0.27288418D-02
 -0.69574599D-17
MO    7     MO 0.0        OCC NO =    2.0000000  ORB. ENERGY =   -0.405216
  0.49399726D-02  0.92713647D-02  0.15998676D-01  0.25782883D-01  0.38901892D-01
  0.53898297D-01  0.64092232D-01  0.58174820D-01  0.57555365D-02  0.20829570D-01
  0.65808140D-01  0.12600190D-01 -0.36473507D-01 -0.32191830D-01 -0.11529203D-01
 -0.30002465D-02  0.35776335D-15  0.47325784D-15  0.53071729D-15  0.49041011D-15
  0.33256960D-15  0.53220654D-16  0.70401543D-16  0.78949175D-16  0.72953103D-16
  0.49472847D-16 -0.28455169D+00 -0.37641172D+00 -0.42211283D+00 -0.39005400D+00
 -0.26451351D+00  0.19242247D-15  0.55589611D-16 -0.12313483D+00  0.77873140D-17
 -0.86325898D-17 -0.35018817D-01  0.30281245D-16 -0.11940981D-16 -0.68462483D-02
 -0.93790176D-17 -0.78165993D-17 -0.21658972D-03  0.43455866D-02  0.43455866D-02
 -0.86911732D-02 -0.58175741D-16 -0.44012012D-16 -0.67047635D-16  0.62642256D-02
  0.62642256D-02 -0.12528451D-01 -0.76104344D-17  0.76862095D-16 -0.56636770D-17
  0.10375835D-02  0.10375835D-02 -0.20751670D-02 -0.10300095D-17 -0.18131155D-16
  0.19227307D-16  0.10454475D-03  0.10454475D-03 -0.20908951D-03 -0.19080000D-18
  0.85685559D-17 -0.65925129D-17 -0.12620168D-16 -0.50379296D-17 -0.75613002D-02
 -0.89214407D-17  0.62626942D-17  0.11341950D-01  0.46781944D-16  0.88510945D-17
  0.11341950D-01 -0.25297334D-16  0.36179769D-17  0.15793883D-17 -0.29111862D-02
  0.46256953D-17 -0.80151563D-18  0.43667793D-02 -0.15479626D-16 -0.39366492D-17
  0.43667793D-02 -0.73601020D-17 -0.14466589D-02 -0.14466589D-02 -0.38577571D-02
  0.99296758D-20 -0.18743834D-17  0.17020932D-17 -0.29582183D-17 -0.25538816D-17
  0.36452621D-17 -0.28933179D-02  0.11573271D-01  0.11573271D-01 -0.20611314D-17
  0.13284795D-16 -0.51360686D-17 -0.13644974D-01 -0.25535665D-01 -0.44120178D-01
 -0.71685449D-01 -0.10934383D+00 -0.15315583D+00 -0.18542342D+00 -0.17719254D+00
 -0.10771125D-01 -0.42392250D-01 -0.19973011D+00 -0.76927824D-01  0.83516378D-01
  0.10431123D+00  0.32712149D-01  0.98814331D-03  0.44041642D-16  0.56547010D-16
  0.59144686D-16  0.54421092D-16  0.42082743D-16  0.42698186D-16  0.54822087D-16
  0.57340524D-16  0.52761019D-16  0.40799042D-16  0.12285200D+00  0.15773510D+00
  0.16498120D+00  0.15180496D+00  0.11738774D+00  0.12467781D-16  0.15735158D-16
  0.51492022D-01  0.22236119D-17  0.15096275D-16  0.12737489D-01 -0.47836676D-18
  0.57983441D-17  0.83560560D-03  0.99643473D-02  0.99643473D-02 -0.19928695D-01
 -0.11549791D-17 -0.82626346D-17 -0.12301644D-16  0.37644187D-02  0.37644187D-02
 -0.75288375D-02  0.18220999D-17 -0.18924007D-16 -0.35451522D-17  0.46001167D-03
  0.46001167D-03 -0.92002335D-03 -0.51375256D-18  0.66871694D-17 -0.50922758D-17
  0.49929913D-05  0.49929913D-05 -0.99859826D-05 -0.93362368D-19 -0.26152472D-17
 -0.13492000D-17 -0.26584696D-17 -0.14004993D-17  0.25932563D-02 -0.29243834D-17
 -0.17292621D-17 -0.38898845D-02  0.10899792D-16  0.59307599D-17 -0.38898845D-02
  0.18809355D-17 -0.72993976D-18 -0.55214271D-18  0.66665095D-04 -0.62885993D-18
 -0.58714847D-18 -0.99997642D-04  0.28186792D-17  0.22435766D-17 -0.99997642D-04
 -0.16461880D-17 -0.10941171D-03 -0.10941171D-03 -0.29176455D-03 -0.23332320D-18
  0.19696116D-17 -0.29012495D-18  0.43676816D-17 -0.24424321D-17 -0.57895075D-17
 -0.21882341D-03  0.87529365D-03  0.87529365D-03  0.42654777D-17  0.14184616D-17
  0.15703444D-17
END DATA
RHF
