 Molden2AIM, Version 4.0.0 (06/02/2016)           Time: Wed Jun 27 19:36:01 2018
GAUSSIAN              7 MOL ORBITALS    150 PRIMITIVES        2 NUCLEI
  F    1    (CENTRE  1)   0.00000000  0.00000000  0.00362260  CHARGE =  9.0
  B    2    (CENTRE  2)   0.00000000  0.00000000  2.39160526  CHARGE =  5.0
CENTRE ASSIGNMENTS    1  1  1  1  1  1  1  1  1  1  1  1  1  1  1  1  1  1  1  1
CENTRE ASSIGNMENTS    1  1  1  1  1  1  1  1  1  1  1  1  1  1  1  1  1  1  1  1
CENTRE ASSIGNMENTS    1  1  1  1  1  1  1  1  1  1  1  1  1  1  1  1  1  1  1  1
CENTRE ASSIGNMENTS    1  1  1  1  1  1  1  1  1  1  1  1  1  1  1  2  2  2  2  2
CENTRE ASSIGNMENTS    2  2  2  2  2  2  2  2  2  2  2  2  2  2  2  2  2  2  2  2
CENTRE ASSIGNMENTS    2  2  2  2  2  2  2  2  2  2  2  2  2  2  2  2  2  2  2  2
CENTRE ASSIGNMENTS    2  2  2  2  2  2  2  2  2  2  2  2  2  2  2  2  2  2  2  2
CENTRE ASSIGNMENTS    2  2  2  2  2  2  2  2  2  2
TYPE ASSIGNMENTS      1  1  1  1  1  1  1  1  1  1  1  1  1  1  1  1  1  1  1  2
TYPE ASSIGNMENTS      2  2  3  3  3  4  4  4  2  3  4  2  3  4  2  3  4  5  6  7
TYPE ASSIGNMENTS      8  9 10  5  6  7  8  9 10  5  6  7  8  9 10 11 12 13 17 14
TYPE ASSIGNMENTS     15 18 19 16 20 11 12 13 17 14 15 18 19 16 20  1  1  1  1  1
TYPE ASSIGNMENTS      1  1  1  1  1  1  1  1  1  1  1  1  1  1  2  2  2  3  3  3
TYPE ASSIGNMENTS      4  4  4  2  3  4  2  3  4  2  3  4  5  6  7  8  9 10  5  6
TYPE ASSIGNMENTS      7  8  9 10  5  6  7  8  9 10 11 12 13 17 14 15 18 19 16 20
TYPE ASSIGNMENTS     11 12 13 17 14 15 18 19 16 20
EXPONENTS  0.1950000D+05 0.2923000D+04 0.6645000D+03 0.1875000D+03 0.6062000D+02
EXPONENTS  0.2142000D+02 0.7950000D+01 0.8815000D+00 0.1950000D+05 0.2923000D+04
EXPONENTS  0.6645000D+03 0.1875000D+03 0.6062000D+02 0.2142000D+02 0.7950000D+01
EXPONENTS  0.8815000D+00 0.2257000D+01 0.3041000D+00 0.9158000D-01 0.4388000D+02
EXPONENTS  0.9926000D+01 0.2930000D+01 0.4388000D+02 0.9926000D+01 0.2930000D+01
EXPONENTS  0.4388000D+02 0.9926000D+01 0.2930000D+01 0.9132000D+00 0.9132000D+00
EXPONENTS  0.9132000D+00 0.2672000D+00 0.2672000D+00 0.2672000D+00 0.7361000D-01
EXPONENTS  0.7361000D-01 0.7361000D-01 0.3107000D+01 0.3107000D+01 0.3107000D+01
EXPONENTS  0.3107000D+01 0.3107000D+01 0.3107000D+01 0.8550000D+00 0.8550000D+00
EXPONENTS  0.8550000D+00 0.8550000D+00 0.8550000D+00 0.8550000D+00 0.2920000D+00
EXPONENTS  0.2920000D+00 0.2920000D+00 0.2920000D+00 0.2920000D+00 0.2920000D+00
EXPONENTS  0.1917000D+01 0.1917000D+01 0.1917000D+01 0.1917000D+01 0.1917000D+01
EXPONENTS  0.1917000D+01 0.1917000D+01 0.1917000D+01 0.1917000D+01 0.1917000D+01
EXPONENTS  0.7240000D+00 0.7240000D+00 0.7240000D+00 0.7240000D+00 0.7240000D+00
EXPONENTS  0.7240000D+00 0.7240000D+00 0.7240000D+00 0.7240000D+00 0.7240000D+00
EXPONENTS  0.5473000D+04 0.8209000D+03 0.1868000D+03 0.5283000D+02 0.1708000D+02
EXPONENTS  0.5999000D+01 0.2208000D+01 0.2415000D+00 0.5473000D+04 0.8209000D+03
EXPONENTS  0.1868000D+03 0.5283000D+02 0.1708000D+02 0.5999000D+01 0.2208000D+01
EXPONENTS  0.2415000D+00 0.5879000D+00 0.8610000D-01 0.2914000D-01 0.1205000D+02
EXPONENTS  0.2613000D+01 0.7475000D+00 0.1205000D+02 0.2613000D+01 0.7475000D+00
EXPONENTS  0.1205000D+02 0.2613000D+01 0.7475000D+00 0.2385000D+00 0.2385000D+00
EXPONENTS  0.2385000D+00 0.7698000D-01 0.7698000D-01 0.7698000D-01 0.2096000D-01
EXPONENTS  0.2096000D-01 0.2096000D-01 0.6610000D+00 0.6610000D+00 0.6610000D+00
EXPONENTS  0.6610000D+00 0.6610000D+00 0.6610000D+00 0.1990000D+00 0.1990000D+00
EXPONENTS  0.1990000D+00 0.1990000D+00 0.1990000D+00 0.1990000D+00 0.6040000D-01
EXPONENTS  0.6040000D-01 0.6040000D-01 0.6040000D-01 0.6040000D-01 0.6040000D-01
EXPONENTS  0.4900000D+00 0.4900000D+00 0.4900000D+00 0.4900000D+00 0.4900000D+00
EXPONENTS  0.4900000D+00 0.4900000D+00 0.4900000D+00 0.4900000D+00 0.4900000D+00
EXPONENTS  0.1630000D+00 0.1630000D+00 0.1630000D+00 0.1630000D+00 0.1630000D+00
EXPONENTS  0.1630000D+00 0.1630000D+00 0.1630000D+00 0.1630000D+00 0.1630000D+00
MO    1     MO 0.0        OCC NO =    2.0000000  ORB. ENERGY =  -26.380624
  0.59553206D+00  0.11100976D+01  0.18818883D+01  0.28497335D+01  0.35636017D+01
  0.30679291D+01  0.11794240D+01 -0.51106371D-02  0.43071577D-03  0.80880793D-03
  0.13772604D-02  0.21574703D-02  0.28912640D-02  0.31099443D-02  0.18672065D-02
 -0.12279535D-02  0.57522002D-01  0.14513048D-02 -0.70181361D-04 -0.76609187D-17
 -0.74922112D-17 -0.49504207D-17 -0.25629833D-17 -0.25065417D-17 -0.16561781D-17
  0.69299950D-02  0.67773838D-02  0.44781040D-02  0.86850966D-18  0.81416374D-18
 -0.13711874D-02 -0.20228960D-18 -0.20624895D-18  0.51056223D-03  0.55521090D-19
  0.28746261D-19 -0.53869016D-05 -0.41908849D-03 -0.41908849D-03  0.83817698D-03
 -0.14274802D-16 -0.26915538D-17  0.24133302D-19  0.16160762D-03  0.16160762D-03
 -0.32321525D-03 -0.21640786D-17 -0.55094302D-18 -0.39579156D-18 -0.80854711D-04
 -0.80854711D-04  0.16170942D-03 -0.14504068D-20  0.82910765D-19  0.12338091D-18
  0.19442718D-18 -0.35466303D-19 -0.35519144D-03 -0.54964743D-18  0.14568421D-18
  0.53278715D-03 -0.33634111D-19 -0.39285304D-19  0.53278715D-03 -0.16322458D-17
  0.21340365D-19 -0.11485983D-20  0.10474335D-03  0.85386309D-19 -0.46668685D-19
 -0.15711503D-03 -0.14940740D-18  0.50114480D-19 -0.15711503D-03 -0.49308443D-19
 -0.18110537D-03 -0.33747799D-03 -0.56874376D-03 -0.84856102D-03 -0.10278443D-02
 -0.85524301D-03 -0.31764170D-03  0.16862930D-05  0.11036520D-03  0.20614958D-03
  0.35086763D-03  0.53661332D-03  0.69789746D-03  0.70643043D-03  0.46514862D-03
 -0.31795475D-03 -0.26390316D-03  0.15470010D-04  0.83308164D-05 -0.20292335D-18
 -0.18288575D-18 -0.13278692D-18  0.26334974D-19  0.23734537D-19  0.17232813D-19
 -0.52367829D-04 -0.47196787D-04 -0.34267928D-04  0.70171450D-19 -0.36244085D-19
  0.15237070D-03 -0.35464945D-19 -0.75879859D-20 -0.10949513D-04 -0.10576120D-20
 -0.24250574D-20 -0.14432125D-06 -0.18715155D-03 -0.18715155D-03  0.37430310D-03
  0.21133862D-19 -0.10900274D-18 -0.53293125D-19 -0.22097123D-05 -0.22097123D-05
  0.44194246D-05  0.14449563D-19 -0.44723154D-19 -0.35550147D-20  0.54648419D-07
  0.54648419D-07 -0.10929684D-06 -0.42240930D-22  0.90297303D-20  0.20275636D-20
 -0.50292231D-20 -0.23721958D-20 -0.13843013D-03 -0.10379524D-19 -0.66989994D-20
  0.20764519D-03  0.25467193D-19  0.13815587D-19  0.20764519D-03  0.81092519D-19
 -0.12681304D-20 -0.15125021D-20  0.50613599D-06 -0.73995734D-21 -0.19567595D-20
 -0.75920398D-06  0.45443484D-20  0.64942657D-20 -0.75920398D-06 -0.87740179D-20
MO    2     MO 0.0        OCC NO =    2.0000000  ORB. ENERGY =   -7.710086
  0.22003610D-03  0.41015683D-03  0.69531666D-03  0.10529143D-02  0.13166731D-02
  0.11335329D-02  0.43577142D-03 -0.18882689D-05 -0.50405917D-03 -0.94653384D-03
 -0.16117839D-02 -0.25248499D-02 -0.33835959D-02 -0.36395136D-02 -0.21851592D-02
  0.14370526D-02  0.38272929D-03 -0.38590400D-03 -0.10275555D-02 -0.14809936D-14
 -0.14483794D-14 -0.95700552D-15  0.14627984D-14  0.14305849D-14  0.94524790D-15
  0.56732896D-02  0.55483533D-02  0.36660316D-02 -0.30698963D-15  0.36888030D-15
  0.14186485D-02  0.10233513D-15  0.94583010D-17 -0.15011355D-02  0.19095341D-16
 -0.41749896D-19 -0.16237241D-03 -0.17112737D-02 -0.17112737D-02  0.34225474D-02
  0.11080554D-14  0.11898717D-15 -0.69281366D-15  0.16556933D-03  0.16556933D-03
 -0.33113865D-03 -0.25303160D-15 -0.15684380D-16  0.29965160D-16  0.27996837D-03
  0.27996837D-03 -0.55993675D-03  0.19478056D-16  0.53982598D-16 -0.16194332D-17
 -0.15407370D-16 -0.39349788D-16  0.32258789D-02 -0.49543214D-17  0.91315232D-17
 -0.48388183D-02  0.51176432D-16  0.10891784D-15 -0.48388183D-02 -0.25298028D-15
 -0.59525156D-17 -0.33790397D-17 -0.68691319D-03 -0.65350471D-17 -0.14910231D-17
  0.10303698D-02  0.24392594D-16  0.11628142D-16  0.10303698D-02  0.36891553D-16
  0.25196097D+00  0.46951276D+00  0.79125886D+00  0.11805517D+01  0.14299777D+01
  0.11898480D+01  0.44191572D+00 -0.23460377D-02 -0.34397993D-03 -0.64251521D-03
 -0.10935641D-02 -0.16724857D-02 -0.21751668D-02 -0.22017619D-02 -0.14497486D-02
  0.99098313D-03  0.19439566D-01  0.10318236D-02 -0.28407093D-04 -0.48423470D-16
 -0.43641912D-16 -0.31686858D-16  0.57255888D-16  0.51602176D-16  0.37466526D-16
 -0.65682411D-02 -0.59196626D-02 -0.42980589D-02 -0.59609954D-16 -0.37168899D-17
 -0.19396786D-03 -0.22867282D-16 -0.24013778D-17 -0.76850269D-04  0.13821142D-18
 -0.42431644D-18  0.23322596D-05 -0.73525455D-03 -0.73525455D-03  0.14705091D-02
  0.27659122D-16  0.54593777D-17 -0.32689347D-16  0.55170365D-04  0.55170365D-04
 -0.11034073D-03 -0.10169353D-16  0.65810543D-16 -0.82217870D-17  0.11345644D-05
  0.11345644D-05 -0.22691288D-05  0.83138222D-19  0.31885079D-17 -0.17725297D-18
 -0.11057607D-17 -0.95520133D-18 -0.92833067D-04 -0.11006441D-17 -0.25015982D-18
  0.13924960D-03  0.44179262D-17  0.31157638D-17  0.13924960D-03 -0.41556812D-16
  0.40226943D-17 -0.32028263D-18  0.23061043D-04  0.40249425D-17 -0.34364561D-18
 -0.34591564D-04 -0.16093025D-16  0.13044935D-17 -0.34591564D-04  0.66081887D-17
MO    3     MO 0.0        OCC NO =    2.0000000  ORB. ENERGY =   -1.700731
  0.83745009D-03  0.15610432D-02  0.26463521D-02  0.40073570D-02  0.50112140D-02
  0.43141884D-02  0.16585315D-02 -0.71866886D-05  0.12976127D+00  0.24366868D+00
  0.41492573D+00  0.64997870D+00  0.87104793D+00  0.93692949D+00  0.56253123D+00
 -0.36994421D+00 -0.20455634D+00 -0.77277615D-01  0.76130839D-02  0.19156956D-16
  0.18735084D-16  0.12379062D-16  0.11812474D-15  0.11552342D-15  0.76331207D-16
 -0.28033960D+00 -0.27416600D+00 -0.18115307D+00  0.25403777D-16  0.62183963D-16
 -0.70368101D-01  0.27756683D-20  0.87165040D-17  0.81552013D-03 -0.56301117D-18
  0.12481470D-17  0.88720408D-03  0.15045360D-01  0.15045360D-01 -0.30090721D-01
  0.48459744D-16 -0.11186322D-17  0.30340628D-17  0.59107256D-02  0.59107256D-02
 -0.11821451D-01  0.76520826D-17  0.42426555D-17  0.25206646D-16  0.12789666D-03
  0.12789666D-03 -0.25579333D-03  0.38913316D-17  0.65905039D-17 -0.26754887D-17
  0.26927968D-17  0.84250950D-18 -0.77966312D-02  0.12138205D-16 -0.19837087D-16
  0.11694947D-01 -0.20216595D-16  0.17309558D-16  0.11694947D-01 -0.14047899D-16
 -0.37112932D-18  0.28494049D-17 -0.24375731D-02 -0.22481569D-17  0.34508185D-17
  0.36563596D-02  0.33615449D-17 -0.11999033D-16  0.36563596D-02 -0.31732326D-17
  0.63038256D-02  0.11746766D-01  0.19796550D-01  0.29536290D-01  0.35776692D-01
  0.29768873D-01  0.11056314D-01 -0.58695648D-04  0.89605226D-02  0.16737232D-01
  0.28486854D-01  0.43567500D-01  0.56662118D-01  0.57354908D-01  0.37765298D-01
 -0.25814665D-01 -0.84613557D-02 -0.73404893D-02 -0.18777537D-03  0.24181173D-16
  0.21793412D-16  0.15823430D-16 -0.34725231D-17 -0.31296301D-17 -0.22723144D-17
  0.86740882D-01  0.78175685D-01  0.56760617D-01 -0.11346013D-17  0.16738722D-17
  0.18779988D-01  0.13709798D-17 -0.18511311D-17  0.14208948D-02 -0.83714395D-19
 -0.14041845D-18 -0.15590731D-04  0.11280714D-01  0.11280714D-01 -0.22561428D-01
 -0.95282393D-17  0.94889005D-18 -0.12355504D-16  0.14428445D-02  0.14428445D-02
 -0.28856889D-02  0.31383543D-17 -0.60936490D-18 -0.24169678D-17  0.36330744D-06
  0.36330744D-06 -0.72661489D-06 -0.18097257D-18 -0.38600792D-18  0.56154607D-18
  0.10766684D-18 -0.26932000D-17  0.34535297D-02  0.48330053D-18 -0.21470223D-17
 -0.51802945D-02 -0.80630105D-18  0.10226622D-16 -0.51802945D-02  0.30589735D-17
 -0.19601507D-18 -0.71282811D-20  0.11072840D-03 -0.27895152D-18  0.78565453D-19
 -0.16609260D-03  0.86699673D-18 -0.57180610D-19 -0.16609260D-03 -0.20229032D-17
MO    4     MO 0.0        OCC NO =    2.0000000  ORB. ENERGY =   -0.854876
 -0.39324378D-03 -0.73302345D-03 -0.12426550D-02 -0.18817458D-02 -0.23531298D-02
 -0.20258255D-02 -0.77880130D-03  0.33746735D-05 -0.31451491D-01 -0.59060331D-01
 -0.10056956D+00 -0.15754162D+00 -0.21112430D+00 -0.22709265D+00 -0.13634613D+00
  0.89666951D-01  0.58601135D-01  0.81678500D-01  0.13807365D-01 -0.48749550D-14
 -0.47675995D-14 -0.31501546D-14 -0.80370353D-15 -0.78600450D-15 -0.51934640D-15
 -0.23140646D+01 -0.22631047D+01 -0.14953289D+01 -0.12514263D-14 -0.65257529D-16
 -0.53243347D+00 -0.27340775D-15 -0.20416043D-16 -0.55911171D-01 -0.22528289D-17
  0.10241113D-17  0.26527030D-03  0.38456012D-01  0.38456012D-01 -0.76912025D-01
  0.86138914D-16 -0.20563932D-15  0.83664002D-16  0.11161081D-01  0.11161081D-01
 -0.22322162D-01 -0.16887666D-16 -0.93315685D-16 -0.47772449D-16  0.72814400D-03
  0.72814400D-03 -0.14562880D-02  0.39612218D-17 -0.27934839D-16 -0.82688575D-17
  0.21423361D-16  0.15232612D-16 -0.14662057D-01  0.18661747D-16 -0.42579406D-16
  0.21993085D-01 -0.82931829D-16 -0.31184307D-17  0.21993085D-01 -0.28902752D-15
  0.77804018D-17  0.25828790D-17 -0.36118906D-02  0.85414919D-17  0.39294277D-17
  0.54178360D-02 -0.31882697D-16 -0.11678065D-16  0.54178360D-02 -0.24524554D-16
  0.51503274D-02  0.95972979D-02  0.16174101D-01  0.24131626D-01  0.29230136D-01
  0.24321651D-01  0.90331876D-02 -0.47955293D-04  0.20696514D-01  0.38658724D-01
  0.65797343D-01  0.10062978D+00  0.13087499D+00  0.13247516D+00  0.87228175D-01
 -0.59625271D-01 -0.21871885D-01 -0.14064350D-01 -0.96912459D-04 -0.20846721D-15
 -0.18788219D-15 -0.13641466D-15 -0.53559066D-16 -0.48270395D-16 -0.35047437D-16
  0.15183318D+00  0.13684047D+00  0.99355054D-01 -0.20888398D-16 -0.17889539D-16
  0.35479235D-01  0.14815956D-17  0.20028149D-17  0.23593946D-02 -0.15359350D-18
 -0.36689930D-19 -0.18512113D-04  0.14462306D-01  0.14462306D-01 -0.28924612D-01
 -0.10661836D-16  0.83905882D-16  0.16658715D-16  0.27327469D-02  0.27327469D-02
 -0.54654937D-02 -0.12813785D-17 -0.18124062D-16 -0.22127514D-17  0.15492902D-04
  0.15492902D-04 -0.30985804D-04 -0.16935083D-18 -0.47114308D-18 -0.38036821D-18
  0.44326147D-17 -0.20262320D-17  0.37684127D-02  0.44778759D-17 -0.19391871D-17
 -0.56526190D-02 -0.17775720D-16  0.80178830D-17 -0.56526190D-02  0.31663792D-18
 -0.15139757D-17 -0.26629317D-18  0.35676328D-03 -0.15096589D-17 -0.28746148D-18
 -0.53514492D-03  0.60515859D-17  0.10863410D-17 -0.53514492D-03  0.97502724D-18
MO    5     MO 0.0        OCC NO =    2.0000000  ORB. ENERGY =   -0.745696
 -0.16770273D-17 -0.31260516D-17 -0.52994259D-17 -0.80248927D-17 -0.10035156D-16
 -0.86393350D-17 -0.33212758D-17  0.14391632D-19  0.14453120D-16  0.27140400D-16
  0.46215420D-16  0.72396183D-16  0.97019402D-16  0.10435745D-15  0.62656075D-16
 -0.41205271D-16 -0.41069906D-16  0.10564505D-15  0.61322033D-17 -0.95965807D+00
 -0.93852463D+00 -0.62012291D+00  0.22776563D+01  0.22274981D+01  0.14718022D+01
  0.21777024D-14  0.21297454D-14  0.14072128D-14 -0.22498759D+00  0.53398643D+00
  0.31939332D-15 -0.37061895D-01  0.87962848D-01  0.73864038D-16 -0.73418815D-03
  0.17425251D-02 -0.64502886D-17 -0.42837786D-16 -0.96580451D-16  0.13941824D-15
 -0.34618604D-15 -0.35346941D-01  0.83892569D-01 -0.20104160D-16 -0.15653984D-16
  0.35758144D-16  0.38815169D-16 -0.15664647D-01  0.37178535D-01  0.83974730D-18
  0.93604223D-17 -0.10200170D-16  0.80861423D-17 -0.35472674D-02  0.84190986D-02
  0.27932077D-02 -0.66294101D-02 -0.19955608D-15  0.27932077D-02 -0.66294101D-02
  0.41168090D-15 -0.11172831D-01  0.26517640D-01  0.18698734D-15 -0.19820189D-15
  0.11336426D-02 -0.26905919D-02  0.38720483D-16  0.11336426D-02 -0.26905919D-02
 -0.15499621D-15 -0.45345705D-02  0.10762368D-01  0.38834758D-16 -0.39284703D-16
 -0.29386047D-16 -0.54758975D-16 -0.92284018D-16 -0.13768700D-15 -0.16677739D-15
 -0.13877121D-15 -0.51540350D-16  0.27361688D-18 -0.41615623D-17 -0.77733230D-17
 -0.13230235D-16 -0.20234184D-16 -0.26315757D-16 -0.26637512D-16 -0.17539451D-16
  0.11989182D-16  0.42860563D-16 -0.63692236D-16  0.53522738D-18 -0.37538087D-01
 -0.33831403D-01 -0.24563792D-01  0.89093045D-01  0.80295585D-01  0.58299802D-01
 -0.14671898D-15 -0.13223127D-15 -0.96008474D-16 -0.44644554D-02  0.10595956D-01
  0.18251000D-17  0.21867381D-03 -0.51900129D-03  0.89899746D-17  0.12448336D-05
 -0.29544930D-05  0.71865902D-18 -0.11291843D-16 -0.26445851D-16  0.37737694D-16
 -0.39365226D-17  0.14946590D-01 -0.35474295D-01  0.63990172D-17  0.13962679D-16
 -0.20361696D-16 -0.11439531D-17 -0.76104825D-03  0.18062749D-02  0.13208531D-18
  0.13331054D-17 -0.14651907D-17  0.23773926D-17 -0.49930422D-04  0.11850506D-03
  0.70431937D-03 -0.16716344D-02  0.48413746D-17  0.70431937D-03 -0.16716344D-02
 -0.11135246D-16 -0.28172775D-02  0.66865376D-02 -0.33888774D-17 -0.16081408D-16
 -0.82504785D-04  0.19581718D-03  0.29465943D-17 -0.82504785D-04  0.19581718D-03
 -0.37892565D-17  0.33001914D-03 -0.78326874D-03 -0.50505264D-17 -0.28854899D-17
MO    6     MO 0.0        OCC NO =    2.0000000  ORB. ENERGY =   -0.745696
 -0.28760275D-17 -0.53610399D-17 -0.90882806D-17 -0.13762335D-16 -0.17209849D-16
 -0.14816077D-16 -0.56958407D-17  0.24681010D-19 -0.91495044D-16 -0.17181149D-15
 -0.29256533D-15 -0.45830186D-15 -0.61417841D-15 -0.66063169D-15 -0.39664240D-15
  0.26084873D-15  0.16827263D-15  0.33365563D-15  0.39800211D-16  0.22776563D+01
  0.22274981D+01  0.14718022D+01  0.95965807D+00  0.93852463D+00  0.62012291D+00
 -0.49493924D-14 -0.48403976D-14 -0.31982554D-14  0.53398643D+00  0.22498759D+00
 -0.12102877D-14  0.87962848D-01  0.37061895D-01 -0.64830960D-16  0.17425251D-02
  0.73418815D-03  0.33921142D-17  0.56640328D-16  0.11883931D-15 -0.17547963D-15
 -0.34956868D-15  0.83892569D-01  0.35346941D-01  0.78191169D-16 -0.64594936D-16
 -0.13596233D-16  0.94385324D-16  0.37178535D-01  0.15664647D-01 -0.12852445D-16
  0.91232421D-17  0.37292027D-17 -0.16710276D-16  0.84190986D-02  0.35472674D-02
 -0.66294101D-02 -0.27932077D-02  0.31540688D-16 -0.66294101D-02 -0.27932077D-02
 -0.22035123D-15  0.26517640D-01  0.11172831D-01  0.12572917D-15  0.78411088D-16
 -0.26905919D-02 -0.11336426D-02 -0.56843165D-17 -0.26905919D-02 -0.11336426D-02
  0.13590503D-16  0.10762368D-01  0.45345705D-02  0.34624462D-17 -0.25678574D-16
  0.97193314D-17  0.18111338D-16  0.30522613D-16  0.45539488D-16  0.55161032D-16
  0.45898089D-16  0.17046789D-16 -0.90497817D-19  0.68212462D-16  0.12741308D-15
  0.21685771D-15  0.33165994D-15  0.43134343D-15  0.43661733D-15  0.28749037D-15
 -0.19651553D-15 -0.71564654D-16 -0.97155547D-16 -0.61777694D-17  0.89093045D-01
  0.80295585D-01  0.58299802D-01  0.37538087D-01  0.33831403D-01  0.24563792D-01
  0.21773306D-15  0.19623308D-15  0.14247794D-15  0.10595956D-01  0.44644554D-02
  0.11863205D-15 -0.51900129D-03 -0.21867381D-03  0.14575465D-16 -0.29544930D-05
 -0.12448336D-05 -0.18985393D-17  0.21201062D-16  0.49939678D-17 -0.26195030D-16
 -0.45971028D-16 -0.35474295D-01 -0.14946590D-01  0.16636436D-16  0.18228149D-16
 -0.34864585D-16  0.44049181D-17  0.18062749D-02  0.76104825D-03 -0.50872450D-18
  0.20504361D-18  0.30368089D-18 -0.63340312D-18  0.11850506D-03  0.49930422D-04
 -0.16716344D-02 -0.70431937D-03  0.27261329D-16 -0.16716344D-02 -0.70431937D-03
 -0.53496218D-16  0.66865376D-02  0.28172775D-02 -0.28287770D-16  0.43816791D-16
  0.19581718D-03  0.82504785D-04 -0.62291677D-18  0.19581718D-03  0.82504785D-04
  0.46756056D-17 -0.78326874D-03 -0.33001914D-03 -0.28068553D-17 -0.76237860D-17
MO    7     MO 0.0        OCC NO =    2.0000000  ORB. ENERGY =   -0.405354
 -0.23505889D-02 -0.43815995D-02 -0.74278883D-02 -0.11248012D-01 -0.14065679D-01
 -0.12109239D-01 -0.46552336D-02  0.20171889D-04  0.14492688D-01  0.27214701D-01
  0.46341942D-01  0.72594378D-01  0.97285007D-01  0.10464314D+00  0.62827605D-01
 -0.41318076D-01 -0.24744666D-01 -0.10376585D-01 -0.36482167D-02  0.78148351D-15
  0.76427381D-15  0.50498802D-15  0.11116375D-14  0.10871572D-14  0.71833070D-15
 -0.56216846D+00 -0.54978848D+00 -0.36326849D+00  0.17101005D-15  0.29764335D-15
 -0.13221925D+00  0.16931440D-16  0.17519587D-16 -0.18148916D-01 -0.32483259D-17
 -0.14833995D-17 -0.14633870D-02  0.74799504D-02  0.74799504D-02 -0.14959901D-01
  0.14990586D-15 -0.15929316D-16 -0.39104650D-16  0.17386613D-02  0.17386613D-02
 -0.34773227D-02  0.22720527D-16 -0.15528391D-17 -0.36435267D-16  0.34756710D-04
  0.34756710D-04 -0.69513419D-04  0.53681981D-18 -0.73753980D-17 -0.17113521D-16
 -0.10788958D-16  0.11409335D-16 -0.53778719D-02 -0.16846456D-17 -0.68032007D-16
  0.80668078D-02  0.34051518D-16  0.33804003D-16  0.80668078D-02 -0.84334080D-16
 -0.61480533D-18  0.15974714D-17 -0.27717631D-03 -0.78996418D-18 -0.28467614D-17
  0.41576446D-03  0.26343802D-17 -0.19456528D-17  0.41576446D-03 -0.86353821D-19
  0.12607770D-02  0.23493753D-02  0.39593472D-02  0.59073135D-02  0.71554056D-02
  0.59538306D-02  0.22112836D-02 -0.11739240D-04 -0.40252604D-01 -0.75187265D-01
 -0.12796910D+00 -0.19571462D+00 -0.25453848D+00 -0.25765064D+00 -0.16964988D+00
  0.11596506D+00  0.43253776D-01  0.54013386D-01  0.14133458D-02  0.29170842D-16
  0.26290378D-16  0.19088520D-16 -0.16312862D-16 -0.14702054D-16 -0.10674645D-16
  0.23337445D+00  0.21032997D+00  0.15271320D+00  0.10344632D-16  0.13420332D-16
  0.54643369D-01  0.23614052D-17 -0.22315339D-17  0.49999962D-02  0.24595013D-20
 -0.38842506D-18  0.21286599D-04  0.10087974D-01  0.10087974D-01 -0.20175947D-01
 -0.32535827D-18 -0.18674173D-16 -0.22764926D-16  0.14296251D-02  0.14296251D-02
 -0.28592503D-02 -0.32307910D-18 -0.43828830D-17 -0.62312312D-17  0.23230584D-04
  0.23230584D-04 -0.46461167D-04 -0.81186090D-18 -0.18148981D-17  0.15279365D-17
 -0.14224700D-17 -0.52585102D-17  0.12450548D-02 -0.15868920D-17 -0.48454906D-17
 -0.18675821D-02  0.58543019D-17  0.20621021D-16 -0.18675821D-02 -0.39813703D-17
 -0.40613030D-18 -0.21999738D-18  0.22620276D-04 -0.38567936D-18 -0.27868928D-18
 -0.33930415D-04  0.16040702D-17  0.93868143D-18 -0.33930415D-04  0.13040614D-17
END DATA
RHF
