 Molden2AIM, Version 4.0.0 (06/02/2016)           Time: Sun Jun 24 19:48:05 2018
GAUSSIAN              3 MOL ORBITALS    140 PRIMITIVES        2 NUCLEI
  B    1    (CENTRE  1)   0.00000000  0.00000000  2.65025774  CHARGE =  5.0
  H    2    (CENTRE  2)   0.00000000  0.00000000  0.30508494  CHARGE =  1.0
CENTRE ASSIGNMENTS    1  1  1  1  1  1  1  1  1  1  1  1  1  1  1  1  1  1  1  1
CENTRE ASSIGNMENTS    1  1  1  1  1  1  1  1  1  1  1  1  1  1  1  1  1  1  1  1
CENTRE ASSIGNMENTS    1  1  1  1  1  1  1  1  1  1  1  1  1  1  1  1  1  1  1  1
CENTRE ASSIGNMENTS    1  1  1  1  1  1  1  1  1  1  1  1  1  1  1  1  1  1  1  1
CENTRE ASSIGNMENTS    1  1  1  1  1  1  1  1  1  1  1  1  1  1  1  1  1  1  1  2
CENTRE ASSIGNMENTS    2  2  2  2  2  2  2  2  2  2  2  2  2  2  2  2  2  2  2  2
CENTRE ASSIGNMENTS    2  2  2  2  2  2  2  2  2  2  2  2  2  2  2  2  2  2  2  2
TYPE ASSIGNMENTS      1  1  1  1  1  1  1  1  1  1  1  1  1  1  1  1  2  2  2  2
TYPE ASSIGNMENTS      2  3  3  3  3  3  4  4  4  4  4  2  3  4  2  3  4  2  3  4
TYPE ASSIGNMENTS      5  6  7  8  9 10  5  6  7  8  9 10  5  6  7  8  9 10  5  6
TYPE ASSIGNMENTS      7  8  9 10 11 12 13 17 14 15 18 19 16 20 11 12 13 17 14 15
TYPE ASSIGNMENTS     18 19 16 20 21 22 23 24 25 26 27 28 29 30 31 32 33 34 35  1
TYPE ASSIGNMENTS      1  1  1  1  1  1  2  3  4  2  3  4  2  3  4  2  3  4  5  6
TYPE ASSIGNMENTS      7  8  9 10  5  6  7  8  9 10 11 12 13 17 14 15 18 19 16 20
EXPONENTS  0.4644767D+05 0.6957689D+04 0.1583443D+04 0.4484660D+03 0.1462864D+03
EXPONENTS  0.5278439D+02 0.2051940D+02 0.8418566D+01 0.3651002D+02 0.1054185D+02
EXPONENTS  0.3600409D+01 0.1561702D+01 0.4499737D+00 0.1807523D+00 0.7159670D-01
EXPONENTS  0.2994140D-01 0.7224046D+02 0.1680771D+02 0.5225941D+01 0.1850835D+01
EXPONENTS  0.7220678D+00 0.7224046D+02 0.1680771D+02 0.5225941D+01 0.1850835D+01
EXPONENTS  0.7220678D+00 0.7224046D+02 0.1680771D+02 0.5225941D+01 0.1850835D+01
EXPONENTS  0.7220678D+00 0.2949102D+00 0.2949102D+00 0.2949102D+00 0.1220114D+00
EXPONENTS  0.1220114D+00 0.1220114D+00 0.4986539D-01 0.4986539D-01 0.4986539D-01
EXPONENTS  0.1110000D+01 0.1110000D+01 0.1110000D+01 0.1110000D+01 0.1110000D+01
EXPONENTS  0.1110000D+01 0.4020000D+00 0.4020000D+00 0.4020000D+00 0.4020000D+00
EXPONENTS  0.4020000D+00 0.4020000D+00 0.1450000D+00 0.1450000D+00 0.1450000D+00
EXPONENTS  0.1450000D+00 0.1450000D+00 0.1450000D+00 0.5089659D-01 0.5089659D-01
EXPONENTS  0.5089659D-01 0.5089659D-01 0.5089659D-01 0.5089659D-01 0.8820000D+00
EXPONENTS  0.8820000D+00 0.8820000D+00 0.8820000D+00 0.8820000D+00 0.8820000D+00
EXPONENTS  0.8820000D+00 0.8820000D+00 0.8820000D+00 0.8820000D+00 0.3110000D+00
EXPONENTS  0.3110000D+00 0.3110000D+00 0.3110000D+00 0.3110000D+00 0.3110000D+00
EXPONENTS  0.3110000D+00 0.3110000D+00 0.3110000D+00 0.3110000D+00 0.6730000D+00
EXPONENTS  0.6730000D+00 0.6730000D+00 0.6730000D+00 0.6730000D+00 0.6730000D+00
EXPONENTS  0.6730000D+00 0.6730000D+00 0.6730000D+00 0.6730000D+00 0.6730000D+00
EXPONENTS  0.6730000D+00 0.6730000D+00 0.6730000D+00 0.6730000D+00 0.1906917D+03
EXPONENTS  0.2860553D+02 0.6509594D+01 0.1841246D+01 0.5985373D+00 0.2139762D+00
EXPONENTS  0.8031629D-01 0.2292000D+01 0.2292000D+01 0.2292000D+01 0.8380000D+00
EXPONENTS  0.8380000D+00 0.8380000D+00 0.2920000D+00 0.2920000D+00 0.2920000D+00
EXPONENTS  0.8406320D-01 0.8406320D-01 0.8406320D-01 0.2062000D+01 0.2062000D+01
EXPONENTS  0.2062000D+01 0.2062000D+01 0.2062000D+01 0.2062000D+01 0.6620000D+00
EXPONENTS  0.6620000D+00 0.6620000D+00 0.6620000D+00 0.6620000D+00 0.6620000D+00
EXPONENTS  0.1397000D+01 0.1397000D+01 0.1397000D+01 0.1397000D+01 0.1397000D+01
EXPONENTS  0.1397000D+01 0.1397000D+01 0.1397000D+01 0.1397000D+01 0.1397000D+01
MO    1     MO 0.0        OCC NO =    2.0000000  ORB. ENERGY =   -7.686980
  0.86756735D-01  0.16235948D+00  0.28052252D+00  0.45578652D+00  0.69522402D+00
  0.97378706D+00  0.11789491D+01  0.11266160D+01 -0.47514129D-03 -0.18700283D-02
  0.69707693D+00  0.17969174D+00  0.50839510D-02 -0.15269803D-02  0.20533778D-03
 -0.88346735D-05  0.42470673D-17  0.54529973D-17  0.57034991D-17  0.52479888D-17
  0.40581649D-17 -0.38035532D-17 -0.48835500D-17 -0.51078922D-17 -0.46999501D-17
 -0.36343775D-17 -0.24923445D-02 -0.32000312D-02 -0.33470353D-02 -0.30797241D-02
 -0.23814891D-02 -0.13950019D-17  0.24405821D-17  0.12931585D-02  0.50144529D-18
 -0.12325211D-18  0.71834190D-04 -0.23574394D-18 -0.18261099D-18 -0.14665273D-04
 -0.28420861D-03 -0.28420861D-03  0.56841723D-03  0.10915384D-16 -0.21131258D-17
 -0.82757449D-18  0.65841157D-04  0.65841157D-04 -0.13168231D-03 -0.97753982D-18
  0.13455766D-18  0.23783220D-18  0.36891920D-04  0.36891920D-04 -0.73783840D-04
  0.36779897D-20 -0.84391403D-20 -0.13417761D-18 -0.20631941D-05 -0.20631941D-05
  0.41263882D-05  0.49604235D-20  0.23943314D-19  0.35950460D-19 -0.17047671D-18
 -0.25197434D-19 -0.17645603D-03 -0.17047680D-18 -0.25197074D-19  0.26468404D-03
  0.68190694D-18  0.10078938D-18  0.26468404D-03  0.63994257D-18  0.34000187D-20
 -0.75669143D-20  0.80015844D-04  0.34002459D-20 -0.75671485D-20 -0.12002377D-03
 -0.13600302D-19  0.30267891D-19 -0.12002377D-03  0.58745487D-19 -0.22397080D-04
 -0.22397080D-04 -0.59725546D-04  0.16312494D-18 -0.26991420D-18  0.16312461D-18
  0.66850509D-19  0.35988611D-18 -0.89133931D-19 -0.44794160D-04  0.17917664D-03
  0.17917664D-03  0.66850266D-19 -0.26991575D-18 -0.97874865D-18  0.43640016D-04
  0.81220657D-04  0.13687212D-03  0.20433321D-03  0.72963942D-03  0.10191318D-02
 -0.14912079D-03 -0.72871397D-18  0.14249107D-18  0.69433300D-03  0.82108519D-18
  0.15838583D-19  0.35348549D-03 -0.69291004D-18 -0.43175667D-18  0.30441444D-03
  0.32083798D-18  0.29416852D-18  0.10681957D-04 -0.56143022D-03 -0.56143022D-03
  0.11228604D-02 -0.38891682D-18  0.39752812D-19  0.53020000D-18  0.16304883D-03
  0.16304883D-03 -0.32609765D-03  0.54800673D-18 -0.88950382D-20 -0.43394442D-18
 -0.21823623D-18  0.75334036D-19 -0.51494550D-03 -0.21823621D-18  0.75333943D-19
  0.77241826D-03  0.87294489D-18 -0.30133605D-18  0.77241826D-03 -0.77737299D-20
MO    2     MO 0.0        OCC NO =    2.0000000  ORB. ENERGY =   -0.647007
  0.13497746D-01  0.25260137D-01  0.43644125D-01  0.70911969D-01  0.10816402D+00
  0.15150329D+00  0.18342272D+00  0.17528065D+00  0.10286388D-01  0.40484455D-01
  0.19181158D+00  0.76268040D-01 -0.84678006D-01 -0.72303912D-01 -0.81050675D-02
  0.76525293D-04 -0.16513531D-16 -0.21202452D-16 -0.22176458D-16 -0.20405334D-16
 -0.15779037D-16  0.30559264D-16  0.39236389D-16  0.41038844D-16  0.37761275D-16
  0.29200039D-16  0.71293208D-01  0.91536499D-01  0.95741535D-01  0.88095131D-01
  0.68122205D-01 -0.18162989D-16  0.17886009D-16  0.35868714D-01  0.19674954D-17
 -0.14214297D-16  0.39291058D-02 -0.21815220D-17  0.46920255D-17 -0.26117219D-04
  0.97908989D-02  0.97908989D-02 -0.19581798D-01 -0.45079836D-16  0.35335696D-16
 -0.23648501D-16  0.45509628D-02  0.45509628D-02 -0.91019255D-02 -0.66739230D-17
 -0.84083821D-17  0.62231695D-17  0.41307709D-03  0.41307709D-03 -0.82615418D-03
  0.25747210D-17 -0.10788523D-17  0.25390053D-17 -0.77817496D-06 -0.77817496D-06
  0.15563499D-05 -0.40361723D-18 -0.15188621D-19  0.27295580D-19  0.20306126D-17
 -0.13496816D-17  0.34760775D-02  0.20306201D-17 -0.13496943D-17 -0.52141163D-02
 -0.81224578D-17  0.53987392D-17 -0.52141163D-02  0.45839052D-17 -0.58203220D-18
  0.14381220D-18  0.61703110D-03 -0.58204162D-18  0.14382163D-18 -0.92554665D-03
  0.23281382D-17 -0.57525823D-18 -0.92554665D-03 -0.80642409D-18 -0.15644489D-03
 -0.15644489D-03 -0.41718638D-03 -0.49443463D-18  0.19522985D-17 -0.49442764D-18
 -0.12458802D-17 -0.26030757D-17  0.16611721D-17 -0.31288978D-03  0.12515591D-02
  0.12515591D-02 -0.12458757D-17  0.19523318D-17  0.29665868D-17 -0.17974808D-01
 -0.33453830D-01 -0.56376009D-01 -0.84162438D-01 -0.82354498D-01 -0.46876690D-01
 -0.62788388D-02 -0.30753648D-18  0.71266802D-17 -0.15941667D-01 -0.13160115D-17
 -0.76058070D-17 -0.13160816D-01 -0.32588106D-18  0.15444931D-16 -0.49459881D-02
  0.97347878D-18  0.27800610D-17 -0.10509844D-03  0.26960297D-02  0.26960297D-02
 -0.53920594D-02  0.87292298D-18 -0.12744750D-16  0.76265457D-17  0.72980797D-03
  0.72980797D-03 -0.14596159D-02 -0.12498163D-17  0.15298937D-17 -0.21868191D-18
  0.96211459D-18 -0.91884547D-18 -0.32214304D-03  0.96210836D-18 -0.91884350D-18
  0.48321456D-03 -0.38484521D-17  0.36753799D-17  0.48321456D-03 -0.21860474D-18
MO    3     MO 0.0        OCC NO =    2.0000000  ORB. ENERGY =   -0.348484
 -0.10391694D-01 -0.19447367D-01 -0.33600898D-01 -0.54593965D-01 -0.83273712D-01
 -0.11663990D+00 -0.14121415D+00 -0.13494570D+00 -0.81532423D-02 -0.32088968D-01
 -0.15362728D+00 -0.57660221D-01  0.66628844D-01  0.78630198D-01  0.27268292D-01
  0.10887026D-02 -0.79696348D-16 -0.10232566D-15 -0.10702633D-15 -0.98478670D-16
 -0.76151588D-16  0.50026484D-16  0.64231213D-16  0.67181889D-16  0.61816403D-16
  0.47801390D-16  0.14833202D+00  0.19045003D+00  0.19919899D+00  0.18328996D+00
  0.14173446D+00  0.10445777D-16  0.53185096D-16  0.69019955D-01 -0.25240963D-16
  0.74335897D-18  0.21484499D-01  0.66150741D-17  0.55527115D-17  0.22823137D-02
  0.75801195D-02  0.75801195D-02 -0.15160239D-01  0.11730518D-16 -0.14879224D-17
 -0.27538234D-16  0.43432487D-02  0.43432487D-02 -0.86864974D-02 -0.12271456D-16
 -0.37249695D-17 -0.50833797D-17  0.82232837D-03  0.82232837D-03 -0.16446567D-02
  0.10220179D-17 -0.28771720D-17 -0.19307890D-17  0.32848544D-04  0.32848544D-04
 -0.65697088D-04  0.46530107D-18 -0.11486405D-18  0.14163872D-18 -0.63053662D-19
  0.33230809D-19  0.18634053D-03 -0.63046945D-19  0.33220426D-19 -0.27951079D-03
  0.25220793D-18 -0.13291285D-18 -0.27951079D-03  0.20274054D-17 -0.89299637D-19
  0.11056659D-17 -0.72337781D-04 -0.89307418D-19  0.11056737D-17  0.10850667D-03
  0.35720633D-18 -0.44226713D-17  0.10850667D-03 -0.15138874D-18  0.76576294D-05
  0.76576294D-05  0.20420345D-04 -0.18225700D-18 -0.17314470D-18 -0.18225189D-18
 -0.16754346D-17  0.23085208D-18  0.22339114D-17  0.15315259D-04 -0.61261035D-04
 -0.61261035D-04 -0.16754305D-17 -0.17312214D-18  0.10935267D-17 -0.11083106D-01
 -0.20627333D-01 -0.34760943D-01 -0.51893807D-01 -0.54358709D-01 -0.38256053D-01
 -0.94026263D-02  0.14154198D-17  0.76699444D-17 -0.50526153D-02 -0.26271740D-17
 -0.11902410D-17 -0.40218301D-02  0.33497608D-17  0.13928558D-16 -0.23521132D-02
 -0.26001848D-17  0.10759726D-17  0.26402254D-03  0.16379087D-02  0.16379087D-02
 -0.32758174D-02 -0.35478175D-18 -0.10960846D-16  0.33355426D-17  0.29252279D-03
  0.29252279D-03 -0.58504559D-03  0.66730813D-18  0.41005013D-17  0.52779144D-17
  0.20681536D-17 -0.29110622D-18 -0.51655294D-04  0.20681224D-17 -0.29109859D-18
  0.77482941D-04 -0.82725832D-17  0.11644172D-17  0.77482941D-04  0.90003701D-18
END DATA
RHF
