 Molden2AIM, Version 4.0.0 (06/02/2016)           Time: Wed Jun 27 19:36:13 2018
GAUSSIAN             22 MOL ORBITALS    338 PRIMITIVES        2 NUCLEI
  Br   1    (CENTRE  1)  -4.48326941 -2.80050420  2.10635866  CHARGE = 35.0
  O    2    (CENTRE  2)  -2.52772790 -4.50638643 -0.06156161  CHARGE =  8.0
CENTRE ASSIGNMENTS    1  1  1  1  1  1  1  1  1  1  1  1  1  1  1  1  1  1  1  1
CENTRE ASSIGNMENTS    1  1  1  1  1  1  1  1  1  1  1  1  1  1  1  1  1  1  1  1
CENTRE ASSIGNMENTS    1  1  1  1  1  1  1  1  1  1  1  1  1  1  1  1  1  1  1  1
CENTRE ASSIGNMENTS    1  1  1  1  1  1  1  1  1  1  1  1  1  1  1  1  1  1  1  1
CENTRE ASSIGNMENTS    1  1  1  1  1  1  1  1  1  1  1  1  1  1  1  1  1  1  1  1
CENTRE ASSIGNMENTS    1  1  1  1  1  1  1  1  1  1  1  1  1  1  1  1  1  1  1  1
CENTRE ASSIGNMENTS    1  1  1  1  1  1  1  1  1  1  1  1  1  1  1  1  1  1  1  1
CENTRE ASSIGNMENTS    1  1  1  1  1  1  1  1  1  1  1  1  1  1  1  1  1  1  1  1
CENTRE ASSIGNMENTS    1  1  1  1  1  1  1  1  1  1  1  1  1  1  1  1  1  1  1  1
CENTRE ASSIGNMENTS    1  1  1  1  1  1  1  1  1  1  1  1  1  1  1  1  1  1  1  1
CENTRE ASSIGNMENTS    1  1  1  1  1  1  1  1  1  1  1  1  1  1  1  1  1  1  1  1
CENTRE ASSIGNMENTS    1  1  1  1  1  1  1  1  1  1  1  1  1  1  1  1  1  1  1  1
CENTRE ASSIGNMENTS    1  1  1  1  1  1  1  1  1  1  1  1  1  1  1  1  1  1  1  1
CENTRE ASSIGNMENTS    1  1  1  2  2  2  2  2  2  2  2  2  2  2  2  2  2  2  2  2
CENTRE ASSIGNMENTS    2  2  2  2  2  2  2  2  2  2  2  2  2  2  2  2  2  2  2  2
CENTRE ASSIGNMENTS    2  2  2  2  2  2  2  2  2  2  2  2  2  2  2  2  2  2  2  2
CENTRE ASSIGNMENTS    2  2  2  2  2  2  2  2  2  2  2  2  2  2  2  2  2  2
TYPE ASSIGNMENTS      1  1  1  1  1  1  1  1  1  1  1  1  1  1  1  1  1  1  1  1
TYPE ASSIGNMENTS      1  1  1  1  1  1  1  1  1  1  1  1  1  1  1  1  1  1  1  1
TYPE ASSIGNMENTS      1  1  1  1  1  1  1  1  1  1  1  1  1  1  1  1  1  1  1  1
TYPE ASSIGNMENTS      1  1  1  1  1  1  1  1  1  1  1  1  1  1  1  2  2  2  2  2
TYPE ASSIGNMENTS      2  2  2  2  2  2  3  3  3  3  3  3  3  3  3  3  3  4  4  4
TYPE ASSIGNMENTS      4  4  4  4  4  4  4  4  2  2  2  2  2  2  2  2  2  2  2  3
TYPE ASSIGNMENTS      3  3  3  3  3  3  3  3  3  3  4  4  4  4  4  4  4  4  4  4
TYPE ASSIGNMENTS      4  2  2  2  2  2  2  2  2  2  2  2  3  3  3  3  3  3  3  3
TYPE ASSIGNMENTS      3  3  3  4  4  4  4  4  4  4  4  4  4  4  2  3  4  2  3  4
TYPE ASSIGNMENTS      2  3  4  5  5  5  5  5  5  5  6  6  6  6  6  6  6  7  7  7
TYPE ASSIGNMENTS      7  7  7  7  8  8  8  8  8  8  8  9  9  9  9  9  9  9 10 10
TYPE ASSIGNMENTS     10 10 10 10 10  5  6  7  8  9 10  5  6  7  8  9 10  5  6  7
TYPE ASSIGNMENTS      8  9 10 11 12 13 17 14 15 18 19 16 20 11 12 13 17 14 15 18
TYPE ASSIGNMENTS     19 16 20  1  1  1  1  1  1  1  1  1  1  1  1  1  1  1  1  1
TYPE ASSIGNMENTS      1  1  2  2  2  3  3  3  4  4  4  2  3  4  2  3  4  2  3  4
TYPE ASSIGNMENTS      5  6  7  8  9 10  5  6  7  8  9 10  5  6  7  8  9 10 11 12
TYPE ASSIGNMENTS     13 17 14 15 18 19 16 20 11 12 13 17 14 15 18 19 16 20
EXPONENTS  0.1063900D+08 0.1593400D+07 0.3626100D+06 0.1027000D+06 0.3350100D+05
EXPONENTS  0.1209300D+05 0.4715900D+04 0.1955600D+04 0.8526100D+03 0.3876700D+03
EXPONENTS  0.1826800D+03 0.8824500D+02 0.3926300D+02 0.1923400D+02 0.9405700D+01
EXPONENTS  0.4160100D+01 0.1899500D+01 0.3011400D+00 0.1063900D+08 0.1593400D+07
EXPONENTS  0.3626100D+06 0.1027000D+06 0.3350100D+05 0.1209300D+05 0.4715900D+04
EXPONENTS  0.1955600D+04 0.8526100D+03 0.3876700D+03 0.1826800D+03 0.8824500D+02
EXPONENTS  0.3926300D+02 0.1923400D+02 0.9405700D+01 0.4160100D+01 0.1899500D+01
EXPONENTS  0.3011400D+00 0.1063900D+08 0.1593400D+07 0.3626100D+06 0.1027000D+06
EXPONENTS  0.3350100D+05 0.1209300D+05 0.4715900D+04 0.1955600D+04 0.8526100D+03
EXPONENTS  0.3876700D+03 0.1826800D+03 0.8824500D+02 0.3926300D+02 0.1923400D+02
EXPONENTS  0.9405700D+01 0.4160100D+01 0.1899500D+01 0.3011400D+00 0.1063900D+08
EXPONENTS  0.1593400D+07 0.3626100D+06 0.1027000D+06 0.3350100D+05 0.1209300D+05
EXPONENTS  0.4715900D+04 0.1955600D+04 0.8526100D+03 0.3876700D+03 0.1826800D+03
EXPONENTS  0.8824500D+02 0.3926300D+02 0.1923400D+02 0.9405700D+01 0.4160100D+01
EXPONENTS  0.1899500D+01 0.3011400D+00 0.6047200D+00 0.1251500D+00 0.4559300D-01
EXPONENTS  0.8676500D+04 0.2055900D+04 0.6662300D+03 0.2531000D+03 0.1061200D+03
EXPONENTS  0.4724200D+02 0.2182500D+02 0.9968400D+01 0.4517100D+01 0.1998200D+01
EXPONENTS  0.2814500D+00 0.8676500D+04 0.2055900D+04 0.6662300D+03 0.2531000D+03
EXPONENTS  0.1061200D+03 0.4724200D+02 0.2182500D+02 0.9968400D+01 0.4517100D+01
EXPONENTS  0.1998200D+01 0.2814500D+00 0.8676500D+04 0.2055900D+04 0.6662300D+03
EXPONENTS  0.2531000D+03 0.1061200D+03 0.4724200D+02 0.2182500D+02 0.9968400D+01
EXPONENTS  0.4517100D+01 0.1998200D+01 0.2814500D+00 0.8676500D+04 0.2055900D+04
EXPONENTS  0.6662300D+03 0.2531000D+03 0.1061200D+03 0.4724200D+02 0.2182500D+02
EXPONENTS  0.9968400D+01 0.4517100D+01 0.1998200D+01 0.2814500D+00 0.8676500D+04
EXPONENTS  0.2055900D+04 0.6662300D+03 0.2531000D+03 0.1061200D+03 0.4724200D+02
EXPONENTS  0.2182500D+02 0.9968400D+01 0.4517100D+01 0.1998200D+01 0.2814500D+00
EXPONENTS  0.8676500D+04 0.2055900D+04 0.6662300D+03 0.2531000D+03 0.1061200D+03
EXPONENTS  0.4724200D+02 0.2182500D+02 0.9968400D+01 0.4517100D+01 0.1998200D+01
EXPONENTS  0.2814500D+00 0.8676500D+04 0.2055900D+04 0.6662300D+03 0.2531000D+03
EXPONENTS  0.1061200D+03 0.4724200D+02 0.2182500D+02 0.9968400D+01 0.4517100D+01
EXPONENTS  0.1998200D+01 0.2814500D+00 0.8676500D+04 0.2055900D+04 0.6662300D+03
EXPONENTS  0.2531000D+03 0.1061200D+03 0.4724200D+02 0.2182500D+02 0.9968400D+01
EXPONENTS  0.4517100D+01 0.1998200D+01 0.2814500D+00 0.8676500D+04 0.2055900D+04
EXPONENTS  0.6662300D+03 0.2531000D+03 0.1061200D+03 0.4724200D+02 0.2182500D+02
EXPONENTS  0.9968400D+01 0.4517100D+01 0.1998200D+01 0.2814500D+00 0.7098800D+00
EXPONENTS  0.7098800D+00 0.7098800D+00 0.1020400D+00 0.1020400D+00 0.1020400D+00
EXPONENTS  0.3514200D-01 0.3514200D-01 0.3514200D-01 0.4038300D+03 0.1211700D+03
EXPONENTS  0.4634500D+02 0.1972100D+02 0.8862400D+01 0.3996200D+01 0.1763600D+01
EXPONENTS  0.4038300D+03 0.1211700D+03 0.4634500D+02 0.1972100D+02 0.8862400D+01
EXPONENTS  0.3996200D+01 0.1763600D+01 0.4038300D+03 0.1211700D+03 0.4634500D+02
EXPONENTS  0.1972100D+02 0.8862400D+01 0.3996200D+01 0.1763600D+01 0.4038300D+03
EXPONENTS  0.1211700D+03 0.4634500D+02 0.1972100D+02 0.8862400D+01 0.3996200D+01
EXPONENTS  0.1763600D+01 0.4038300D+03 0.1211700D+03 0.4634500D+02 0.1972100D+02
EXPONENTS  0.8862400D+01 0.3996200D+01 0.1763600D+01 0.4038300D+03 0.1211700D+03
EXPONENTS  0.4634500D+02 0.1972100D+02 0.8862400D+01 0.3996200D+01 0.1763600D+01
EXPONENTS  0.7061900D+00 0.7061900D+00 0.7061900D+00 0.7061900D+00 0.7061900D+00
EXPONENTS  0.7061900D+00 0.2639000D+00 0.2639000D+00 0.2639000D+00 0.2639000D+00
EXPONENTS  0.2639000D+00 0.2639000D+00 0.1047000D+00 0.1047000D+00 0.1047000D+00
EXPONENTS  0.1047000D+00 0.1047000D+00 0.1047000D+00 0.5515000D+00 0.5515000D+00
EXPONENTS  0.5515000D+00 0.5515000D+00 0.5515000D+00 0.5515000D+00 0.5515000D+00
EXPONENTS  0.5515000D+00 0.5515000D+00 0.5515000D+00 0.2580000D+00 0.2580000D+00
EXPONENTS  0.2580000D+00 0.2580000D+00 0.2580000D+00 0.2580000D+00 0.2580000D+00
EXPONENTS  0.2580000D+00 0.2580000D+00 0.2580000D+00 0.1533000D+05 0.2299000D+04
EXPONENTS  0.5224000D+03 0.1473000D+03 0.4755000D+02 0.1676000D+02 0.6207000D+01
EXPONENTS  0.6882000D+00 0.1533000D+05 0.2299000D+04 0.5224000D+03 0.1473000D+03
EXPONENTS  0.4755000D+02 0.1676000D+02 0.6207000D+01 0.6882000D+00 0.1752000D+01
EXPONENTS  0.2384000D+00 0.7376000D-01 0.3446000D+02 0.7749000D+01 0.2280000D+01
EXPONENTS  0.3446000D+02 0.7749000D+01 0.2280000D+01 0.3446000D+02 0.7749000D+01
EXPONENTS  0.2280000D+01 0.7156000D+00 0.7156000D+00 0.7156000D+00 0.2140000D+00
EXPONENTS  0.2140000D+00 0.2140000D+00 0.5974000D-01 0.5974000D-01 0.5974000D-01
EXPONENTS  0.2314000D+01 0.2314000D+01 0.2314000D+01 0.2314000D+01 0.2314000D+01
EXPONENTS  0.2314000D+01 0.6450000D+00 0.6450000D+00 0.6450000D+00 0.6450000D+00
EXPONENTS  0.6450000D+00 0.6450000D+00 0.2140000D+00 0.2140000D+00 0.2140000D+00
EXPONENTS  0.2140000D+00 0.2140000D+00 0.2140000D+00 0.1428000D+01 0.1428000D+01
EXPONENTS  0.1428000D+01 0.1428000D+01 0.1428000D+01 0.1428000D+01 0.1428000D+01
EXPONENTS  0.1428000D+01 0.1428000D+01 0.1428000D+01 0.5000000D+00 0.5000000D+00
EXPONENTS  0.5000000D+00 0.5000000D+00 0.5000000D+00 0.5000000D+00 0.5000000D+00
EXPONENTS  0.5000000D+00 0.5000000D+00 0.5000000D+00
MO    1     MO 0.0        OCC NO =    2.0000000  ORB. ENERGY = -489.805135
  0.78331749D+00  0.14735156D+01  0.25507282D+01  0.41811315D+01  0.65498235D+01
  0.98449425D+01  0.14070896D+02  0.18679464D+02  0.21754773D+02  0.19981548D+02
  0.11683997D+02  0.30659393D+01  0.16761371D+00 -0.59992213D-02  0.16765930D-02
 -0.49783705D-03  0.84872597D-04  0.69244366D-05 -0.39142576D-06 -0.71917040D-06
 -0.12436114D-05 -0.20365874D-05 -0.32065154D-05 -0.48421524D-05 -0.70680638D-05
 -0.97331532D-05 -0.12436364D-04 -0.13557094D-04 -0.11159576D-04 -0.30598799D-05
  0.61719762D-05  0.60148604D-05  0.13162209D-05  0.44342271D-07  0.15021744D-08
 -0.38213380D-11  0.52545867D-06  0.10301095D-05  0.18042112D-05  0.29474940D-05
  0.46489080D-05  0.70149946D-05  0.10285376D-04  0.14200663D-04  0.18411230D-04
  0.20474371D-04  0.17783252D-04  0.51657166D-05 -0.13022709D-04 -0.18975004D-04
 -0.32666148D-05  0.79691415D-05  0.37931104D-05 -0.18318089D-07 -0.23410171D-06
 -0.50724187D-06 -0.86349884D-06 -0.14094626D-05 -0.22218796D-05 -0.33534580D-05
 -0.49167159D-05 -0.67970107D-05 -0.88218379D-05 -0.98555357D-05 -0.86090335D-05
 -0.25500041D-05  0.66285459D-05  0.10196944D-04  0.17847766D-05 -0.56299791D-05
 -0.47790008D-05  0.17830025D-05 -0.18993317D-04 -0.20430348D-05 -0.24120138D-07
  0.12850817D-03  0.18438647D-03  0.24413749D-03  0.28190963D-03  0.26134319D-03
  0.16919835D-03  0.59720804D-04  0.69997931D-05  0.10176404D-06  0.14902210D-07
  0.15321787D-09 -0.11210184D-03 -0.16084629D-03 -0.21296904D-03 -0.24591891D-03
 -0.22797814D-03 -0.14759720D-03 -0.52096392D-04 -0.61061464D-05 -0.88772067D-07
 -0.12999681D-07 -0.13365691D-09 -0.14246461D-03 -0.20441150D-03 -0.27065169D-03
 -0.31252602D-03 -0.28972599D-03 -0.18757389D-03 -0.66206695D-04 -0.77599955D-05
 -0.11281597D-06 -0.16520643D-07 -0.16985787D-09  0.23718551D-04  0.34238001D-04
  0.45741151D-04  0.54341891D-04  0.52661458D-04  0.36606431D-04  0.11911381D-04
 -0.53610669D-05 -0.57917409D-05 -0.14910660D-05  0.14543972D-08 -0.20690461D-04
 -0.29866918D-04 -0.39901489D-04 -0.47404193D-04 -0.45938296D-04 -0.31932976D-04
 -0.10390684D-04  0.46766324D-05  0.50523233D-05  0.13007052D-05 -0.12687178D-08
 -0.26294470D-04 -0.37956370D-04 -0.50708803D-04 -0.60243614D-04 -0.58380680D-04
 -0.40582019D-04 -0.13205000D-04  0.59432979D-05  0.64207446D-05  0.16530010D-05
 -0.16123499D-08 -0.20043238D-05 -0.29123715D-05 -0.38720316D-05 -0.46461699D-05
 -0.44951899D-05 -0.31910614D-05 -0.99178992D-06  0.56942321D-06  0.65414086D-06
  0.17371285D-06 -0.62676139D-07  0.17484366D-05  0.25405560D-05  0.33776987D-05
  0.40530046D-05  0.39212999D-05  0.27836663D-05  0.86517049D-06 -0.49672632D-06
 -0.57062827D-06 -0.15153535D-06  0.54674427D-07  0.22220005D-05  0.32286653D-05
  0.42925480D-05  0.51507605D-05  0.49833835D-05  0.35376221D-05  0.10995018D-05
 -0.63126459D-06 -0.72518288D-06 -0.19257869D-06  0.69482991D-07  0.52972786D-06
 -0.46209878D-06 -0.58725819D-06 -0.15061180D-06  0.13138356D-06  0.16696878D-06
 -0.61712164D-08  0.53833521D-08  0.68414325D-08  0.81367871D-07  0.85142710D-07
  0.72546146D-07  0.47777122D-07  0.22019053D-07  0.65936410D-08  0.11218521D-08
 -0.57336292D-05 -0.59996252D-05 -0.51120017D-05 -0.33666396D-05 -0.15515840D-05
 -0.46462433D-06 -0.79051891D-07  0.56522613D-05  0.59144824D-05  0.50394556D-05
  0.33188625D-05  0.15295649D-05  0.45803069D-06  0.77930039D-07 -0.42442199D-04
 -0.44411188D-04 -0.37840709D-04 -0.24920968D-04 -0.11485332D-04 -0.34393013D-05
 -0.58516796D-06 -0.53937664D-04 -0.56439954D-04 -0.48089862D-04 -0.31670810D-04
 -0.14596133D-04 -0.43708357D-05 -0.74366064D-06  0.47051573D-04  0.49234401D-04
  0.41950345D-04  0.27627474D-04  0.12732680D-04  0.38128216D-05  0.64871928D-06
 -0.71761152D-09  0.50566867D-07 -0.49849256D-07  0.37431249D-06  0.47569500D-06
 -0.41496416D-06  0.19687540D-10 -0.13872926D-08  0.13676050D-08 -0.10269193D-07
 -0.13050604D-07  0.11384464D-07 -0.77554601D-10  0.54649252D-08 -0.53873706D-08
  0.40453164D-07  0.51409900D-07 -0.44846522D-07 -0.38200919D-07  0.43356424D-07
  0.30135059D-07  0.23523143D-07 -0.50617572D-07 -0.64327337D-07  0.91079615D-07
 -0.79451700D-07 -0.26077840D-07  0.27917344D-06  0.13171158D-07 -0.14948706D-07
 -0.10390159D-07 -0.81104604D-08  0.17452252D-07  0.22179193D-07 -0.31403015D-07
  0.27393868D-07  0.89912852D-08 -0.96255214D-07 -0.15954597D-06 -0.29737317D-06
 -0.50424636D-06 -0.76320035D-06 -0.95225121D-06 -0.81785679D-06 -0.31399112D-06
  0.14045016D-08  0.10233766D-06  0.19193681D-06  0.32721019D-06  0.51136584D-06
  0.68379356D-06  0.73013210D-06  0.44638845D-06 -0.29449999D-06  0.16321272D-06
  0.45306180D-06  0.45643993D-06 -0.25348910D-06 -0.24579915D-06 -0.16581466D-06
  0.22112675D-06  0.21441857D-06  0.14464550D-06  0.28101891D-06  0.27249382D-06
  0.18382272D-06  0.17040667D-06 -0.14865126D-06 -0.18891344D-06 -0.14959744D-06
  0.13049870D-06  0.16584425D-06 -0.35899994D-07  0.31316728D-07  0.39798861D-07
 -0.11850289D-08  0.83503679D-07 -0.82318650D-07  0.61812155D-06  0.78553971D-06
 -0.68525175D-06  0.13030304D-09 -0.91818710D-08  0.90515679D-08 -0.67967213D-07
 -0.86376126D-07  0.75348694D-07 -0.27652868D-10  0.19485737D-08 -0.19209209D-08
  0.14423980D-07  0.18330714D-07 -0.15990476D-07  0.41861039D-07 -0.47510504D-07
 -0.33022369D-07 -0.25776950D-07  0.55467360D-07  0.70490689D-07 -0.99806166D-07
  0.87064153D-07  0.28576419D-07 -0.30592170D-06  0.15425038D-07 -0.17506764D-07
 -0.12168147D-07 -0.94983413D-08  0.20438722D-07  0.25974548D-07 -0.36776772D-07
  0.32081570D-07  0.10529895D-07 -0.11272663D-06
MO    2     MO 0.0        OCC NO =    2.0000000  ORB. ENERGY =  -64.943723
 -0.10672560D-05 -0.20076385D-05 -0.34753213D-05 -0.56967165D-05 -0.89240168D-05
 -0.13413557D-04 -0.19171343D-04 -0.25450434D-04 -0.29640487D-04 -0.27224501D-04
 -0.15919236D-04 -0.41772872D-05 -0.22837066D-06  0.81738312D-08 -0.22843279D-08
  0.67829403D-09 -0.11563739D-09 -0.94344204D-11  0.25225662D+00  0.46347357D+00
  0.80145262D+00  0.13124907D+01  0.20664576D+01  0.31205534D+01  0.45550551D+01
  0.62725875D+01  0.80146875D+01  0.87369485D+01  0.71918539D+01  0.19719575D+01
 -0.39775662D+01 -0.38763120D+01 -0.84824626D+00 -0.28576636D-01 -0.96808510D-03
  0.24626836D-05 -0.31238648D-05 -0.61240263D-05 -0.10726080D-04 -0.17522925D-04
 -0.27637873D-04 -0.41704317D-04 -0.61146815D-04 -0.84423292D-04 -0.10945522D-03
 -0.12172064D-03 -0.10572187D-03 -0.30710313D-04  0.77420326D-04  0.11280687D-03
  0.19420106D-04 -0.47376744D-04 -0.22550135D-04  0.10890149D-06  0.71557803D-06
  0.15504848D-05  0.26394545D-05  0.43083005D-05  0.67916130D-05  0.10250506D-04
  0.15028912D-04  0.20776404D-04  0.26965687D-04  0.30125388D-04  0.26315209D-04
  0.77945904D-05 -0.20261458D-04 -0.31168971D-04 -0.54555216D-05  0.17209141D-04
  0.14607958D-04 -0.54500987D-05  0.36688846D-04 -0.96643625D-05 -0.10527609D-05
 -0.26450384D-01 -0.37951618D-01 -0.50249960D-01 -0.58024467D-01 -0.53791350D-01
 -0.34825501D-01 -0.12292123D-01 -0.14407428D-02 -0.20945734D-04 -0.30672695D-05
 -0.31536294D-07  0.23073527D-01  0.33106427D-01  0.43834669D-01  0.50616623D-01
  0.46923938D-01  0.30379413D-01  0.10722817D-01  0.12568066D-02  0.18271642D-04
  0.26756786D-05  0.27510131D-07  0.29322990D-01  0.42073299D-01  0.55707285D-01
  0.64326130D-01  0.59633282D-01  0.38607674D-01  0.13627091D-01  0.15972126D-02
  0.23220515D-04  0.34003859D-05  0.34961248D-07  0.11700300D-02  0.16889517D-02
  0.22563991D-02  0.26806714D-02  0.25977760D-02  0.18057857D-02  0.58758535D-03
 -0.26446004D-03 -0.28570507D-03 -0.73553896D-04  0.71745034D-07 -0.10206551D-02
 -0.14733273D-02 -0.19683301D-02 -0.23384365D-02 -0.22661242D-02 -0.15752454D-02
 -0.51256974D-03  0.23069706D-03  0.24922979D-03  0.64163447D-04 -0.62585518D-07
 -0.12970994D-02 -0.18723779D-02 -0.25014521D-02 -0.29718018D-02 -0.28799037D-02
 -0.20019005D-02 -0.65139921D-03  0.29318134D-03  0.31673366D-03  0.81542111D-04
 -0.79536800D-07 -0.40418693D-03 -0.58730153D-03 -0.78082420D-03 -0.93693498D-03
 -0.90648874D-03 -0.64350146D-03 -0.20000187D-03  0.11482846D-03  0.13191241D-03
  0.35030499D-04 -0.12639113D-04  0.35258535D-03  0.51232216D-03  0.68113825D-03
  0.81731875D-03  0.79075951D-03  0.56134718D-03  0.17446811D-03 -0.10016858D-03
 -0.11507147D-03 -0.30558240D-04  0.11025508D-04  0.44808306D-03  0.65108457D-03
  0.86562448D-03  0.10386895D-02  0.10049366D-02  0.71338801D-03  0.22172279D-03
 -0.12729924D-03 -0.14623856D-03 -0.38834936D-04  0.14011766D-04  0.25263342D-04
 -0.22038032D-04 -0.28007031D-04 -0.15404443D-05  0.13437795D-05  0.17077420D-05
 -0.32103046D-07  0.28004527D-07  0.35589550D-07 -0.49354803D-05 -0.51644483D-05
 -0.44003864D-05 -0.28979871D-05 -0.13355960D-05 -0.39994638D-06 -0.68047485D-07
  0.34778118D-03  0.36391553D-03  0.31007551D-03  0.20420817D-03  0.94113464D-04
  0.28182429D-04  0.47950014D-05 -0.34284570D-03 -0.35875108D-03 -0.30567513D-03
 -0.20131018D-03 -0.92777868D-04 -0.27782483D-04 -0.47269539D-05  0.25743901D-02
  0.26938218D-02  0.22952804D-02  0.15116157D-02  0.69665865D-03  0.20861556D-03
  0.35494169D-04  0.32716634D-02  0.34234432D-02  0.29169568D-02  0.19210366D-02
  0.88534858D-03  0.26511906D-03  0.45107761D-04 -0.28539780D-02 -0.29863805D-02
 -0.25445560D-02 -0.16757825D-02 -0.77231826D-03 -0.23127195D-03 -0.39348962D-04
  0.18858599D-07 -0.13288810D-05  0.13100224D-05 -0.98368116D-05 -0.12501111D-04
  0.10905124D-04 -0.12110947D-07  0.85340417D-06 -0.84129323D-06  0.63171769D-05
  0.80281836D-05 -0.70032447D-05 -0.25863872D-09  0.18225111D-07 -0.17966472D-07
  0.13490823D-06  0.17144812D-06 -0.14955975D-06 -0.40691977D-06  0.46183669D-06
  0.32100147D-06  0.25057072D-06 -0.53918312D-06 -0.68522082D-06  0.97018860D-06
 -0.84632695D-06 -0.27778360D-06  0.29737817D-05  0.37163593D-06 -0.42179103D-06
 -0.29316757D-06 -0.22884384D-06  0.49243078D-06  0.62580561D-06 -0.88606396D-06
  0.77294230D-06  0.25369710D-06 -0.27159263D-05 -0.42766801D-05 -0.79711814D-05
 -0.13516482D-04 -0.20457826D-04 -0.25525393D-04 -0.21922909D-04 -0.84166310D-05
  0.37648107D-07  0.27678514D-05  0.51911739D-05  0.88498135D-05  0.13830536D-04
  0.18494062D-04  0.19747346D-04  0.12073140D-04 -0.79651247D-05  0.72359207D-06
  0.17898974D-04  0.45394191D-05 -0.26797147D-05 -0.25984219D-05 -0.17528800D-05
  0.23376020D-05  0.22666876D-05  0.15290941D-05  0.29707413D-05  0.28806197D-05
  0.19432491D-05 -0.43486053D-05  0.37934293D-05  0.48208793D-05 -0.73268826D-05
  0.63914771D-05  0.81226081D-05 -0.26642855D-06  0.23241425D-06  0.29536363D-06
  0.60365769D-08 -0.42537052D-06  0.41933394D-06 -0.31487318D-05 -0.40015654D-05
  0.34906952D-05  0.84382780D-08 -0.59460763D-06  0.58616936D-06 -0.44014802D-05
 -0.55936207D-05  0.48794966D-05  0.34835836D-08 -0.24547253D-06  0.24198895D-06
 -0.18170680D-05 -0.23092207D-05  0.20144080D-05  0.14918348D-05 -0.16931693D-05
 -0.11768442D-05 -0.91863348D-06  0.19767340D-05  0.25121322D-05 -0.35568709D-05
  0.31027738D-05  0.10184003D-05 -0.10902373D-04 -0.40781047D-07  0.46284760D-07
  0.32170411D-07  0.25111919D-07 -0.54036333D-07 -0.68672069D-07  0.97231222D-07
 -0.84817946D-07 -0.27839163D-07  0.29802909D-06
MO    3     MO 0.0        OCC NO =    2.0000000  ORB. ENERGY =  -58.299031
  0.20426669D-05  0.38425052D-05  0.66515659D-05  0.10903189D-04  0.17080057D-04
  0.25672780D-04  0.36692852D-04  0.48710673D-04  0.56730195D-04  0.52106135D-04
  0.30468506D-04  0.79950885D-05  0.43708837D-06 -0.15644245D-07  0.43720727D-08
 -0.12982159D-08  0.22132334D-09  0.18056940D-10 -0.21750793D-03 -0.39962946D-03
 -0.69105143D-03 -0.11316933D-02 -0.17818002D-02 -0.26906930D-02 -0.39275900D-02
 -0.54085300D-02 -0.69106534D-02 -0.75334220D-02 -0.62011663D-02 -0.17003177D-02
  0.34296510D-02  0.33423447D-02  0.73139918D-03  0.24640165D-04  0.83473006D-06
 -0.21234456D-08 -0.49408492D-05 -0.96860435D-05 -0.16964865D-04 -0.27715069D-04
 -0.43713340D-04 -0.65961478D-04 -0.96712632D-04 -0.13352779D-03 -0.17311944D-03
 -0.19251900D-03 -0.16721461D-03 -0.48572852D-04  0.12245157D-03  0.17842057D-03
  0.30715739D-04 -0.74933251D-04 -0.35666338D-04  0.17224364D-06 -0.25122598D-07
 -0.54434604D-07 -0.92666281D-07 -0.15125632D-06 -0.23844076D-06 -0.35987597D-06
 -0.52763682D-06 -0.72942044D-06 -0.94671455D-06 -0.10576457D-05 -0.92387747D-06
 -0.27365341D-06  0.71134166D-06  0.10942839D-05  0.19153310D-06 -0.60418057D-06
 -0.51285794D-06  0.19134271D-06  0.47851023D-04 -0.63375689D-04 -0.33803336D-05
 -0.30076953D+02 -0.43155103D+02 -0.57139650D+02 -0.65980107D+02 -0.61166594D+02
 -0.39600368D+02 -0.13977476D+02 -0.16382807D+01 -0.23817569D-01 -0.34878178D-02
 -0.35860184D-04  0.26237101D+02  0.37645595D+02  0.49844769D+02  0.57556585D+02
  0.53357602D+02  0.34544684D+02  0.12193005D+02  0.14291253D+01  0.20776837D-01
  0.30425365D-02  0.31282000D-04  0.33343417D+02  0.47841900D+02  0.63345219D+02
  0.73145781D+02  0.67809504D+02  0.43901109D+02  0.15495479D+02  0.18162038D+01
  0.26404241D-01  0.38666072D-02  0.39754727D-04  0.27927254D-02  0.40313312D-02
  0.53857621D-02  0.63984506D-02  0.62005891D-02  0.43102004D-02  0.14024979D-02
 -0.63123534D-03 -0.68194476D-03 -0.17556459D-03  0.17124705D-06 -0.24361849D-02
 -0.35166608D-02 -0.46981748D-02 -0.55815758D-02 -0.54089748D-02 -0.37599275D-02
 -0.12234443D-02  0.55064704D-03  0.59488252D-03  0.15315068D-03 -0.14938435D-06
 -0.30960253D-02 -0.44691481D-02 -0.59706750D-02 -0.70933451D-02 -0.68739951D-02
 -0.47783035D-02 -0.15548141D-02  0.69978974D-03  0.75600639D-03  0.19463153D-03
 -0.18984509D-06 -0.15445029D-02 -0.22442313D-02 -0.29837315D-02 -0.35802713D-02
 -0.34639283D-02 -0.24589858D-02 -0.76425895D-03  0.43878928D-03  0.50407148D-03
  0.13386061D-03 -0.48297326D-04  0.13473200D-02  0.19577157D-02  0.26028057D-02
  0.31231866D-02  0.30216969D-02  0.21450530D-02  0.66668785D-03 -0.38277011D-03
 -0.43971788D-03 -0.11677095D-03  0.42131322D-04  0.17122414D-02  0.24879628D-02
  0.33077754D-02  0.39691015D-02  0.38401232D-02  0.27260404D-02  0.84726019D-03
 -0.48644336D-03 -0.55881543D-03 -0.14839835D-03  0.53542587D-04  0.31371187D-03
 -0.27366103D-03 -0.34778210D-03 -0.50177745D-05  0.43771673D-05  0.55627226D-05
 -0.30640495D-06  0.26728696D-06  0.33968161D-06 -0.10235148D-04 -0.10709980D-04
 -0.91254760D-05 -0.60098158D-05 -0.27697452D-05 -0.82940467D-06 -0.14111617D-06
  0.72122501D-03  0.75468426D-03  0.64303139D-03  0.42348478D-03  0.19517153D-03
  0.58444430D-04  0.99438242D-05 -0.71098986D-03 -0.74397429D-03 -0.63390591D-03
 -0.41747497D-03 -0.19240178D-03 -0.57615025D-04 -0.98027081D-05  0.53387435D-02
  0.55864198D-02  0.47599287D-02  0.31347729D-02  0.14447235D-02  0.43262479D-03
  0.73607440D-04  0.67847416D-02  0.70995011D-02  0.60491549D-02  0.39838258D-02
  0.18360267D-02  0.54980117D-03  0.93544008D-04 -0.59185500D-02 -0.61931249D-02
 -0.52768739D-02 -0.34752204D-02 -0.16016256D-02 -0.47960938D-03 -0.81601470D-04
  0.11473303D-06 -0.80847223D-05  0.79699893D-05 -0.59845760D-04 -0.76054978D-04
  0.66345222D-04 -0.54194200D-07  0.38188224D-05 -0.37646282D-05  0.28268173D-04
  0.35924604D-04 -0.31338197D-04 -0.16482298D-08  0.11614337D-06 -0.11449514D-06
  0.85973120D-06  0.10925893D-05 -0.95310106D-06 -0.39945525D-06  0.45336477D-06
  0.31511303D-06  0.24597426D-06 -0.52929236D-06 -0.67265114D-06  0.95239148D-06
 -0.83080195D-06 -0.27268794D-06  0.29192307D-05  0.19716071D-05 -0.22376905D-05
 -0.15553159D-05 -0.12140649D-05  0.26124493D-05  0.33200310D-05 -0.47007565D-05
  0.41006222D-05  0.13459167D-05 -0.14408563D-04 -0.18596403D-04 -0.34661303D-04
 -0.58774085D-04 -0.88957315D-04 -0.11099276D-03 -0.95327975D-04 -0.36598263D-04
  0.16370628D-06  0.12021240D-04  0.22546134D-04  0.38436215D-04  0.60068323D-04
  0.80322793D-04  0.85766016D-04  0.52435661D-04 -0.34593864D-04  0.54732924D-05
  0.86061391D-04  0.20520484D-04  0.23771479D-05  0.23050339D-05  0.15549622D-05
 -0.20736632D-05 -0.20107558D-05 -0.13564440D-05 -0.26353147D-05 -0.25553688D-05
 -0.17238367D-05 -0.15458812D-04  0.13485223D-04  0.17137694D-04 -0.33352305D-04
  0.29094297D-04  0.36974484D-04 -0.11084455D-05  0.96693291D-06  0.12288266D-05
  0.68128246D-07 -0.48006922D-05  0.47325639D-05 -0.35536294D-04 -0.45161296D-04
  0.39395662D-04  0.14866645D-07 -0.10475859D-05  0.10327192D-05 -0.77545734D-05
 -0.98548989D-05  0.85967476D-05  0.14562010D-07 -0.10261196D-05  0.10115576D-05
 -0.75956728D-05 -0.96529601D-05  0.84205899D-05  0.34767974D-05 -0.39460176D-05
 -0.27426956D-05 -0.21409223D-05  0.46068797D-05  0.58546527D-05 -0.82894697D-05
  0.72311731D-05  0.23734341D-05 -0.25408537D-04 -0.24908667D-05  0.28270281D-05
  0.19649374D-05  0.15338116D-05 -0.33004867D-05 -0.41944232D-05  0.59387885D-05
 -0.51805977D-05 -0.17003890D-05  0.18203327D-04
MO    4     MO 0.0        OCC NO =    2.0000000  ORB. ENERGY =  -58.297843
  0.20185946D-14  0.37972223D-14  0.65731790D-14  0.10774698D-13  0.16878773D-13
  0.25370234D-13  0.36260437D-13  0.48136631D-13  0.56061645D-13  0.51492079D-13
  0.30109444D-13  0.79008686D-14  0.43193740D-15 -0.15459882D-16  0.43205491D-17
 -0.12829168D-17  0.21871511D-18  0.17844144D-19  0.12972565D-13  0.23834621D-13
  0.41215552D-13  0.67496227D-13  0.10626978D-12  0.16047777D-12  0.23424854D-12
  0.32257447D-12  0.41216382D-12  0.44930686D-12  0.36984873D-12  0.10141001D-12
 -0.20455057D-12 -0.19934346D-12 -0.43621965D-13 -0.14695838D-14 -0.49784805D-16
  0.12664612D-18  0.43300422D-14  0.84886172D-14  0.14867603D-13  0.24288825D-13
  0.38309327D-13  0.57807064D-13  0.84756642D-13  0.11702056D-12  0.15171774D-12
  0.16871906D-12  0.14654289D-12  0.42568088D-13 -0.10731363D-12 -0.15636352D-12
 -0.26918540D-13  0.65669711D-13  0.31257127D-13 -0.15095021D-15 -0.19273076D-14
 -0.41760102D-14 -0.71089951D-14 -0.11603794D-13 -0.18292243D-13 -0.27608278D-13
 -0.40478236D-13 -0.55958287D-13 -0.72628242D-13 -0.81138447D-13 -0.70876271D-13
 -0.20993620D-13  0.54571353D-13  0.83949187D-13  0.14693671D-13 -0.46350374D-13
 -0.39344458D-13  0.14679065D-13 -0.11820685D-13  0.27846152D-15  0.96496001D-16
  0.22465779D+02  0.32234415D+02  0.42680079D+02  0.49283399D+02  0.45687978D+02
  0.29579230D+02  0.10440382D+02  0.12237028D+01  0.17790373D-01  0.26052022D-02
  0.26785524D-04  0.44519077D+02  0.63876994D+02  0.84576536D+02  0.97661936D+02
  0.90537107D+02  0.58615374D+02  0.20689074D+02  0.24249379D+01  0.35254109D-01
  0.51625718D-02  0.53079256D-04 -0.14766014D+02 -0.21186615D+02 -0.28052205D+02
 -0.32392349D+02 -0.30029197D+02 -0.19441450D+02 -0.68621178D+01 -0.80429938D+00
 -0.11693024D-01 -0.17123132D-02 -0.17605239D-04 -0.35877099D-04 -0.51789005D-04
 -0.69188873D-04 -0.82198504D-04 -0.79656651D-04 -0.55371533D-04 -0.18017366D-04
  0.81092444D-05  0.87606895D-05  0.22554127D-05 -0.21999468D-08 -0.71095481D-04
 -0.10262714D-03 -0.13710741D-03 -0.16288781D-03 -0.15785077D-03 -0.10972642D-03
 -0.35703926D-04  0.16069600D-04  0.17360529D-04  0.44694151D-05 -0.43595017D-08
  0.23580831D-04  0.34039201D-04  0.45475559D-04  0.54026359D-04  0.52355683D-04
  0.36393878D-04  0.11842219D-04 -0.53299383D-05 -0.57581116D-05 -0.14824082D-05
  0.14459523D-08  0.17883368D-03  0.25985326D-03  0.34547793D-03  0.41454960D-03
  0.40107857D-03  0.28471909D-03  0.88491407D-04 -0.50806184D-04 -0.58365027D-04
 -0.15499346D-04  0.55922123D-05  0.35438390D-03  0.51493553D-03  0.68461275D-03
  0.82148791D-03  0.79479319D-03  0.56421062D-03  0.17535808D-03 -0.10067955D-03
 -0.11565845D-03 -0.30714118D-04  0.11081749D-04 -0.11754146D-03 -0.17079296D-03
 -0.22707122D-03 -0.27246975D-03 -0.26361568D-03 -0.18713644D-03 -0.58162476D-04
  0.33393225D-04  0.38361402D-04  0.10187208D-04 -0.36755763D-05 -0.18366524D-03
 -0.36395832D-03  0.12071709D-03 -0.28475124D-05 -0.56427434D-05  0.18715757D-05
  0.24184906D-06  0.47925769D-06 -0.15895939D-06  0.24351858D-02  0.25481595D-02
  0.21711683D-02  0.14298785D-02  0.65898841D-03  0.19733515D-03  0.33574902D-04
 -0.42095801D-02 -0.44048720D-02 -0.37531867D-02 -0.24717572D-02 -0.11391593D-02
 -0.34112310D-03 -0.58039203D-04  0.17743944D-02  0.18567125D-02  0.15820184D-02
  0.10418787D-02  0.48017090D-03  0.14378795D-03  0.24464301D-04  0.27013692D-02
  0.28266918D-02  0.24084927D-02  0.15861745D-02  0.73102060D-03  0.21890530D-03
  0.37244881D-04 -0.43002227D-02 -0.44997197D-02 -0.38340020D-02 -0.25249802D-02
 -0.11636882D-02 -0.34846831D-03 -0.59288929D-04 -0.39535180D-02 -0.41369306D-02
 -0.35248863D-02 -0.23214041D-02 -0.10698660D-02 -0.32037311D-03 -0.54508769D-04
 -0.11463802D-04  0.19816884D-04 -0.83530819D-05 -0.12716879D-04  0.20243590D-04
  0.18611454D-04  0.33431916D-05 -0.57792031D-05  0.24360115D-05  0.37086266D-05
 -0.59036435D-05 -0.54276632D-05  0.15149821D-07 -0.26188715D-07  0.11038894D-07
  0.16805806D-07 -0.26752622D-07 -0.24595697D-07 -0.18177396D-07 -0.14602673D-07
  0.18753198D-07  0.14895833D-06  0.42866814D-07  0.11220203D-06 -0.94426140D-07
  0.94120451D-09 -0.16846162D-06  0.59362807D-07  0.26943629D-06  0.21644961D-06
 -0.27797117D-06 -0.22079499D-05 -0.63539772D-06 -0.16631260D-05  0.13996411D-05
 -0.13951116D-07  0.24970395D-05 -0.87991118D-06  0.32077963D-14  0.59789196D-14
  0.10138267D-13  0.15344739D-13  0.19145754D-13  0.16443649D-13  0.63130366D-14
 -0.28238600D-16 -0.20199080D-14 -0.37883875D-14 -0.64583703D-14 -0.10093176D-13
 -0.13496499D-13 -0.14411114D-13 -0.88106727D-14  0.58127467D-14 -0.14365164D-14
 -0.48326082D-14 -0.89624681D-15 -0.24461180D-05 -0.23719116D-05 -0.16000776D-05
 -0.48473243D-05 -0.47002740D-05 -0.31707771D-05  0.16077525D-05  0.15589791D-05