 Molden2AIM, Version 4.0.0 (06/02/2016)           Time: Wed Jun 27 19:35:52 2018
GAUSSIAN             20 MOL ORBITALS    338 PRIMITIVES        2 NUCLEI
  C    1    (CENTRE  1)   0.00000000  0.00000000 -0.18384956  CHARGE =  6.0
  Br   2    (CENTRE  2)   0.00000000  0.00000000  3.01843875  CHARGE = 35.0
CENTRE ASSIGNMENTS    1  1  1  1  1  1  1  1  1  1  1  1  1  1  1  1  1  1  1  1
CENTRE ASSIGNMENTS    1  1  1  1  1  1  1  1  1  1  1  1  1  1  1  1  1  1  1  1
CENTRE ASSIGNMENTS    1  1  1  1  1  1  1  1  1  1  1  1  1  1  1  1  1  1  1  1
CENTRE ASSIGNMENTS    1  1  1  1  1  1  1  1  1  1  1  1  1  1  1  2  2  2  2  2
CENTRE ASSIGNMENTS    2  2  2  2  2  2  2  2  2  2  2  2  2  2  2  2  2  2  2  2
CENTRE ASSIGNMENTS    2  2  2  2  2  2  2  2  2  2  2  2  2  2  2  2  2  2  2  2
CENTRE ASSIGNMENTS    2  2  2  2  2  2  2  2  2  2  2  2  2  2  2  2  2  2  2  2
CENTRE ASSIGNMENTS    2  2  2  2  2  2  2  2  2  2  2  2  2  2  2  2  2  2  2  2
CENTRE ASSIGNMENTS    2  2  2  2  2  2  2  2  2  2  2  2  2  2  2  2  2  2  2  2
CENTRE ASSIGNMENTS    2  2  2  2  2  2  2  2  2  2  2  2  2  2  2  2  2  2  2  2
CENTRE ASSIGNMENTS    2  2  2  2  2  2  2  2  2  2  2  2  2  2  2  2  2  2  2  2
CENTRE ASSIGNMENTS    2  2  2  2  2  2  2  2  2  2  2  2  2  2  2  2  2  2  2  2
CENTRE ASSIGNMENTS    2  2  2  2  2  2  2  2  2  2  2  2  2  2  2  2  2  2  2  2
CENTRE ASSIGNMENTS    2  2  2  2  2  2  2  2  2  2  2  2  2  2  2  2  2  2  2  2
CENTRE ASSIGNMENTS    2  2  2  2  2  2  2  2  2  2  2  2  2  2  2  2  2  2  2  2
CENTRE ASSIGNMENTS    2  2  2  2  2  2  2  2  2  2  2  2  2  2  2  2  2  2  2  2
CENTRE ASSIGNMENTS    2  2  2  2  2  2  2  2  2  2  2  2  2  2  2  2  2  2
TYPE ASSIGNMENTS      1  1  1  1  1  1  1  1  1  1  1  1  1  1  1  1  1  1  1  2
TYPE ASSIGNMENTS      2  2  3  3  3  4  4  4  2  3  4  2  3  4  2  3  4  5  6  7
TYPE ASSIGNMENTS      8  9 10  5  6  7  8  9 10  5  6  7  8  9 10 11 12 13 17 14
TYPE ASSIGNMENTS     15 18 19 16 20 11 12 13 17 14 15 18 19 16 20  1  1  1  1  1
TYPE ASSIGNMENTS      1  1  1  1  1  1  1  1  1  1  1  1  1  1  1  1  1  1  1  1
TYPE ASSIGNMENTS      1  1  1  1  1  1  1  1  1  1  1  1  1  1  1  1  1  1  1  1
TYPE ASSIGNMENTS      1  1  1  1  1  1  1  1  1  1  1  1  1  1  1  1  1  1  1  1
TYPE ASSIGNMENTS      1  1  1  1  1  1  1  1  1  1  2  2  2  2  2  2  2  2  2  2
TYPE ASSIGNMENTS      2  3  3  3  3  3  3  3  3  3  3  3  4  4  4  4  4  4  4  4
TYPE ASSIGNMENTS      4  4  4  2  2  2  2  2  2  2  2  2  2  2  3  3  3  3  3  3
TYPE ASSIGNMENTS      3  3  3  3  3  4  4  4  4  4  4  4  4  4  4  4  2  2  2  2
TYPE ASSIGNMENTS      2  2  2  2  2  2  2  3  3  3  3  3  3  3  3  3  3  3  4  4
TYPE ASSIGNMENTS      4  4  4  4  4  4  4  4  4  2  3  4  2  3  4  2  3  4  5  5
TYPE ASSIGNMENTS      5  5  5  5  5  6  6  6  6  6  6  6  7  7  7  7  7  7  7  8
TYPE ASSIGNMENTS      8  8  8  8  8  8  9  9  9  9  9  9  9 10 10 10 10 10 10 10
TYPE ASSIGNMENTS      5  6  7  8  9 10  5  6  7  8  9 10  5  6  7  8  9 10 11 12
TYPE ASSIGNMENTS     13 17 14 15 18 19 16 20 11 12 13 17 14 15 18 19 16 20
EXPONENTS  0.8236000D+04 0.1235000D+04 0.2808000D+03 0.7927000D+02 0.2559000D+02
EXPONENTS  0.8997000D+01 0.3319000D+01 0.3643000D+00 0.8236000D+04 0.1235000D+04
EXPONENTS  0.2808000D+03 0.7927000D+02 0.2559000D+02 0.8997000D+01 0.3319000D+01
EXPONENTS  0.3643000D+00 0.9059000D+00 0.1285000D+00 0.4402000D-01 0.1871000D+02
EXPONENTS  0.4133000D+01 0.1200000D+01 0.1871000D+02 0.4133000D+01 0.1200000D+01
EXPONENTS  0.1871000D+02 0.4133000D+01 0.1200000D+01 0.3827000D+00 0.3827000D+00
EXPONENTS  0.3827000D+00 0.1209000D+00 0.1209000D+00 0.1209000D+00 0.3569000D-01
EXPONENTS  0.3569000D-01 0.3569000D-01 0.1097000D+01 0.1097000D+01 0.1097000D+01
EXPONENTS  0.1097000D+01 0.1097000D+01 0.1097000D+01 0.3180000D+00 0.3180000D+00
EXPONENTS  0.3180000D+00 0.3180000D+00 0.3180000D+00 0.3180000D+00 0.1000000D+00
EXPONENTS  0.1000000D+00 0.1000000D+00 0.1000000D+00 0.1000000D+00 0.1000000D+00
EXPONENTS  0.7610000D+00 0.7610000D+00 0.7610000D+00 0.7610000D+00 0.7610000D+00
EXPONENTS  0.7610000D+00 0.7610000D+00 0.7610000D+00 0.7610000D+00 0.7610000D+00
EXPONENTS  0.2680000D+00 0.2680000D+00 0.2680000D+00 0.2680000D+00 0.2680000D+00
EXPONENTS  0.2680000D+00 0.2680000D+00 0.2680000D+00 0.2680000D+00 0.2680000D+00
EXPONENTS  0.1063900D+08 0.1593400D+07 0.3626100D+06 0.1027000D+06 0.3350100D+05
EXPONENTS  0.1209300D+05 0.4715900D+04 0.1955600D+04 0.8526100D+03 0.3876700D+03
EXPONENTS  0.1826800D+03 0.8824500D+02 0.3926300D+02 0.1923400D+02 0.9405700D+01
EXPONENTS  0.4160100D+01 0.1899500D+01 0.3011400D+00 0.1063900D+08 0.1593400D+07
EXPONENTS  0.3626100D+06 0.1027000D+06 0.3350100D+05 0.1209300D+05 0.4715900D+04
EXPONENTS  0.1955600D+04 0.8526100D+03 0.3876700D+03 0.1826800D+03 0.8824500D+02
EXPONENTS  0.3926300D+02 0.1923400D+02 0.9405700D+01 0.4160100D+01 0.1899500D+01
EXPONENTS  0.3011400D+00 0.1063900D+08 0.1593400D+07 0.3626100D+06 0.1027000D+06
EXPONENTS  0.3350100D+05 0.1209300D+05 0.4715900D+04 0.1955600D+04 0.8526100D+03
EXPONENTS  0.3876700D+03 0.1826800D+03 0.8824500D+02 0.3926300D+02 0.1923400D+02
EXPONENTS  0.9405700D+01 0.4160100D+01 0.1899500D+01 0.3011400D+00 0.1063900D+08
EXPONENTS  0.1593400D+07 0.3626100D+06 0.1027000D+06 0.3350100D+05 0.1209300D+05
EXPONENTS  0.4715900D+04 0.1955600D+04 0.8526100D+03 0.3876700D+03 0.1826800D+03
EXPONENTS  0.8824500D+02 0.3926300D+02 0.1923400D+02 0.9405700D+01 0.4160100D+01
EXPONENTS  0.1899500D+01 0.3011400D+00 0.6047200D+00 0.1251500D+00 0.4559300D-01
EXPONENTS  0.8676500D+04 0.2055900D+04 0.6662300D+03 0.2531000D+03 0.1061200D+03
EXPONENTS  0.4724200D+02 0.2182500D+02 0.9968400D+01 0.4517100D+01 0.1998200D+01
EXPONENTS  0.2814500D+00 0.8676500D+04 0.2055900D+04 0.6662300D+03 0.2531000D+03
EXPONENTS  0.1061200D+03 0.4724200D+02 0.2182500D+02 0.9968400D+01 0.4517100D+01
EXPONENTS  0.1998200D+01 0.2814500D+00 0.8676500D+04 0.2055900D+04 0.6662300D+03
EXPONENTS  0.2531000D+03 0.1061200D+03 0.4724200D+02 0.2182500D+02 0.9968400D+01
EXPONENTS  0.4517100D+01 0.1998200D+01 0.2814500D+00 0.8676500D+04 0.2055900D+04
EXPONENTS  0.6662300D+03 0.2531000D+03 0.1061200D+03 0.4724200D+02 0.2182500D+02
EXPONENTS  0.9968400D+01 0.4517100D+01 0.1998200D+01 0.2814500D+00 0.8676500D+04
EXPONENTS  0.2055900D+04 0.6662300D+03 0.2531000D+03 0.1061200D+03 0.4724200D+02
EXPONENTS  0.2182500D+02 0.9968400D+01 0.4517100D+01 0.1998200D+01 0.2814500D+00
EXPONENTS  0.8676500D+04 0.2055900D+04 0.6662300D+03 0.2531000D+03 0.1061200D+03
EXPONENTS  0.4724200D+02 0.2182500D+02 0.9968400D+01 0.4517100D+01 0.1998200D+01
EXPONENTS  0.2814500D+00 0.8676500D+04 0.2055900D+04 0.6662300D+03 0.2531000D+03
EXPONENTS  0.1061200D+03 0.4724200D+02 0.2182500D+02 0.9968400D+01 0.4517100D+01
EXPONENTS  0.1998200D+01 0.2814500D+00 0.8676500D+04 0.2055900D+04 0.6662300D+03
EXPONENTS  0.2531000D+03 0.1061200D+03 0.4724200D+02 0.2182500D+02 0.9968400D+01
EXPONENTS  0.4517100D+01 0.1998200D+01 0.2814500D+00 0.8676500D+04 0.2055900D+04
EXPONENTS  0.6662300D+03 0.2531000D+03 0.1061200D+03 0.4724200D+02 0.2182500D+02
EXPONENTS  0.9968400D+01 0.4517100D+01 0.1998200D+01 0.2814500D+00 0.7098800D+00
EXPONENTS  0.7098800D+00 0.7098800D+00 0.1020400D+00 0.1020400D+00 0.1020400D+00
EXPONENTS  0.3514200D-01 0.3514200D-01 0.3514200D-01 0.4038300D+03 0.1211700D+03
EXPONENTS  0.4634500D+02 0.1972100D+02 0.8862400D+01 0.3996200D+01 0.1763600D+01
EXPONENTS  0.4038300D+03 0.1211700D+03 0.4634500D+02 0.1972100D+02 0.8862400D+01
EXPONENTS  0.3996200D+01 0.1763600D+01 0.4038300D+03 0.1211700D+03 0.4634500D+02
EXPONENTS  0.1972100D+02 0.8862400D+01 0.3996200D+01 0.1763600D+01 0.4038300D+03
EXPONENTS  0.1211700D+03 0.4634500D+02 0.1972100D+02 0.8862400D+01 0.3996200D+01
EXPONENTS  0.1763600D+01 0.4038300D+03 0.1211700D+03 0.4634500D+02 0.1972100D+02
EXPONENTS  0.8862400D+01 0.3996200D+01 0.1763600D+01 0.4038300D+03 0.1211700D+03
EXPONENTS  0.4634500D+02 0.1972100D+02 0.8862400D+01 0.3996200D+01 0.1763600D+01
EXPONENTS  0.7061900D+00 0.7061900D+00 0.7061900D+00 0.7061900D+00 0.7061900D+00
EXPONENTS  0.7061900D+00 0.2639000D+00 0.2639000D+00 0.2639000D+00 0.2639000D+00
EXPONENTS  0.2639000D+00 0.2639000D+00 0.1047000D+00 0.1047000D+00 0.1047000D+00
EXPONENTS  0.1047000D+00 0.1047000D+00 0.1047000D+00 0.5515000D+00 0.5515000D+00
EXPONENTS  0.5515000D+00 0.5515000D+00 0.5515000D+00 0.5515000D+00 0.5515000D+00
EXPONENTS  0.5515000D+00 0.5515000D+00 0.5515000D+00 0.2580000D+00 0.2580000D+00
EXPONENTS  0.2580000D+00 0.2580000D+00 0.2580000D+00 0.2580000D+00 0.2580000D+00
EXPONENTS  0.2580000D+00 0.2580000D+00 0.2580000D+00
MO    1     MO 0.0        OCC NO =    2.0000000  ORB. ENERGY = -490.402546
 -0.24293833D-06 -0.45289228D-06 -0.76546773D-06 -0.11507487D-05 -0.14138278D-05
 -0.11942036D-05 -0.45040965D-06  0.22291025D-08  0.15725788D-06  0.29443637D-06
  0.50130312D-06  0.77543970D-06  0.10212268D-05  0.10611201D-05  0.67429417D-06
 -0.45189627D-06  0.16825829D-07  0.24766016D-05  0.15585777D-06  0.90258965D-17
  0.84623517D-17  0.60256985D-17 -0.23160920D-15 -0.21714835D-15 -0.15462256D-15
 -0.59943982D-06 -0.56201294D-06 -0.40018669D-06  0.31549038D-16  0.13879759D-16
  0.55938308D-06  0.23754524D-16 -0.18145691D-17  0.79316610D-06  0.23152464D-17
 -0.61043780D-18  0.71963867D-08  0.15585906D-07  0.15585906D-07 -0.31171811D-07
  0.71952650D-16 -0.58593587D-15  0.59628282D-15 -0.12177129D-06 -0.12177129D-06
  0.24354259D-06  0.20815584D-16  0.58998974D-16 -0.12490743D-16 -0.13032980D-07
 -0.13032980D-07  0.26065960D-07 -0.18502890D-18  0.81417919D-17  0.34876868D-17
 -0.68311205D-16  0.93317692D-17  0.38484900D-06 -0.68310603D-16 -0.72390442D-16
 -0.57727351D-06  0.27324422D-15  0.44395135D-16 -0.57727351D-06  0.46519953D-16
  0.71275170D-18 -0.16545711D-17 -0.52535847D-08  0.71273359D-18  0.14310917D-17
  0.78803770D-08 -0.28509887D-17  0.35326216D-17  0.78803770D-08 -0.40200090D-17
  0.78331754D+00  0.14735157D+01  0.25507283D+01  0.41811318D+01  0.65498239D+01
  0.98449431D+01  0.14070897D+02  0.18679465D+02  0.21754774D+02  0.19981550D+02
  0.11683998D+02  0.30659395D+01  0.16761372D+00 -0.59992217D-02  0.16765931D-02
 -0.49783708D-03  0.84872603D-04  0.69244370D-05 -0.49919163D-06 -0.91716971D-06
 -0.15859978D-05 -0.25972931D-05 -0.40893212D-05 -0.61752757D-05 -0.90140167D-05
 -0.12412848D-04 -0.15860297D-04 -0.17289582D-04 -0.14231989D-04 -0.39023146D-05
  0.78712216D-05  0.76708493D-05  0.16785979D-05  0.56550419D-07  0.19157475D-08
 -0.48734145D-11  0.66988057D-06  0.13132342D-05  0.23000972D-05  0.37576104D-05
  0.59266567D-05  0.89430603D-05  0.13112303D-04  0.18103704D-04  0.23471542D-04
  0.26101736D-04  0.22670964D-04  0.65855096D-05 -0.16601990D-04 -0.24190269D-04
 -0.41644413D-05  0.10159454D-04  0.48356438D-05 -0.23352801D-07 -0.29596589D-06
 -0.64128661D-06 -0.10916888D-05 -0.17819300D-05 -0.28090379D-05 -0.42396494D-05
 -0.62160171D-05 -0.85932023D-05 -0.11153114D-04 -0.12459979D-04 -0.10884074D-04
 -0.32238733D-05  0.83802186D-05  0.12891609D-04  0.22564252D-05 -0.71177686D-05
 -0.60419091D-05  0.22541823D-05 -0.19054219D-04 -0.37456495D-05 -0.78722456D-07
  0.25124667D-14  0.36049448D-14  0.47731386D-14  0.55116227D-14  0.51095278D-14
  0.33080015D-14  0.11676030D-14  0.13685314D-15  0.19895914D-17  0.29135351D-18
  0.29955666D-20  0.15734491D-14  0.22576209D-14  0.29892101D-14  0.34516907D-14
  0.31998761D-14  0.20716581D-14  0.73121923D-15  0.85705199D-16  0.12459950D-17
  0.18246209D-18  0.18759937D-20 -0.10958862D-03 -0.15724027D-03 -0.20819447D-03
 -0.24040563D-03 -0.22286708D-03 -0.14428821D-03 -0.50928438D-04 -0.59692521D-05
 -0.86781878D-07 -0.12708240D-07 -0.13066044D-09  0.36913398D-14  0.53284914D-14
  0.71187372D-14  0.84572782D-14  0.81957508D-14  0.56970923D-14  0.18537792D-14
 -0.83434774D-15 -0.90137393D-15 -0.23205596D-15  0.22634916D-18 -0.16939352D-14
 -0.24452150D-14 -0.32667487D-14 -0.38809977D-14 -0.37609843D-14 -0.26143638D-14
 -0.85068892D-15  0.38287752D-15  0.41363546D-15  0.10648918D-15 -0.10387037D-18
 -0.71486581D-04 -0.10319170D-03 -0.13786165D-03 -0.16378386D-03 -0.15871912D-03
 -0.11033003D-03 -0.35900335D-04  0.16158000D-04  0.17456030D-04  0.44940016D-05
 -0.43834836D-08 -0.12526164D-14 -0.18201072D-14 -0.24198536D-14 -0.29036568D-14
 -0.28093008D-14 -0.19942765D-14 -0.61982614D-15  0.35586507D-15  0.40880996D-15
  0.10856308D-15 -0.39169897D-16  0.10063873D-14  0.14623254D-14  0.19441786D-14
  0.23328797D-14  0.22570714D-14  0.16022579D-14  0.49798579D-15 -0.28591203D-15
 -0.32844945D-15 -0.87222637D-16  0.31470200D-16  0.26129257D-04  0.37966970D-04
  0.50477526D-04  0.60569537D-04  0.58601295D-04  0.41600096D-04  0.12929415D-04
 -0.74232542D-05 -0.85276712D-05 -0.22645980D-05  0.81707403D-06  0.21769017D-15
 -0.88975691D-16 -0.13443085D-05 -0.20864922D-16 -0.28009158D-17  0.74678877D-06
  0.63789157D-18 -0.12964124D-18 -0.13992497D-08 -0.11031522D-04 -0.11543300D-04
 -0.98355091D-05 -0.64774263D-05 -0.29852529D-05 -0.89393882D-06 -0.15209611D-06
 -0.11031522D-04 -0.11543300D-04 -0.98355091D-05 -0.64774263D-05 -0.29852529D-05
 -0.89393882D-06 -0.15209611D-06  0.22063045D-04  0.23086599D-04  0.19671018D-04
  0.12954853D-04  0.59705059D-05  0.17878776D-05  0.30419222D-06  0.27658325D-14
  0.28941457D-14  0.24659671D-14  0.16240257D-14  0.74846511D-15  0.22412909D-15
  0.38133664D-16 -0.34309756D-14 -0.35901463D-14 -0.30589968D-14 -0.20145807D-14
 -0.92846025D-15 -0.27802892D-15 -0.47304265D-16 -0.95337993D-16 -0.99760937D-16
 -0.85001658D-16 -0.55980018D-16 -0.25799524D-16 -0.77257091D-17 -0.13144639D-17
  0.11034163D-06  0.11034163D-06 -0.22068326D-06 -0.27049461D-16  0.28126960D-16
  0.26799938D-16  0.94132276D-07  0.94132276D-07 -0.18826455D-06 -0.14127417D-16
  0.50620503D-16 -0.68064939D-17  0.44791187D-07  0.44791187D-07 -0.89582374D-07
 -0.70579777D-18  0.52064404D-17  0.15484605D-17 -0.80520941D-17 -0.30975140D-16
 -0.75547411D-08 -0.80521051D-17 -0.25083708D-16  0.11332112D-07  0.32208387D-16
  0.11800913D-15  0.11332112D-07  0.21667812D-16  0.39553894D-17  0.71759696D-17
  0.42379318D-07  0.39554335D-17  0.64020978D-17 -0.63568977D-07 -0.15821602D-16
 -0.27930007D-16 -0.63568977D-07 -0.28761164D-18
MO    2     MO 0.0        OCC NO =    2.0000000  ORB. ENERGY =  -65.542217
  0.13225689D-05  0.24655692D-05  0.41672462D-05  0.62647361D-05  0.76969521D-05
  0.65013065D-05  0.24520536D-05 -0.12135350D-07 -0.11565994D-05 -0.21655190D-05
 -0.36869814D-05 -0.57031996D-05 -0.75109133D-05 -0.78043200D-05 -0.49592950D-05
  0.33236042D-05 -0.46653869D-06  0.33563859D-05  0.93339267D-06 -0.54558753D-15
 -0.51152299D-15 -0.36423484D-15 -0.36354712D-15 -0.34084854D-15 -0.24270446D-15
  0.58219814D-05  0.54584776D-05  0.38867613D-05  0.71766823D-16  0.39577456D-16
  0.51122578D-05 -0.22294005D-16 -0.85116632D-17  0.14359291D-05 -0.19390506D-17
  0.39829000D-17  0.81806428D-07 -0.14445804D-05 -0.14445804D-05  0.28891608D-05
  0.18683414D-15 -0.67020270D-15 -0.64947231D-16 -0.40793388D-06 -0.40793388D-06
  0.81586777D-06 -0.73707451D-18  0.86861637D-16 -0.69604356D-16 -0.49429102D-07
 -0.49429102D-07  0.98858205D-07 -0.28516753D-17 -0.86717721D-17  0.44741066D-17
 -0.53266878D-16 -0.69780486D-16 -0.70264321D-06 -0.53278836D-16  0.42585953D-16
  0.10539648D-05  0.21307947D-15  0.16675550D-15  0.10539648D-05 -0.20343474D-16
  0.54136028D-18  0.59197919D-17  0.28883727D-07  0.54265485D-18  0.45344542D-17
 -0.43325591D-07 -0.21667357D-17 -0.22293830D-16 -0.43325591D-07 -0.90689378D-17
 -0.51738569D-06 -0.97326550D-06 -0.16847706D-05 -0.27616613D-05 -0.43261959D-05
 -0.65026409D-05 -0.92939073D-05 -0.12337893D-04 -0.14369152D-04 -0.13197927D-04
 -0.77173471D-05 -0.20250705D-05 -0.11070981D-06  0.39625200D-08 -0.11073993D-08
  0.32882422D-09 -0.56058837D-10 -0.45736300D-11  0.25225555D+00  0.46347161D+00
  0.80144923D+00  0.13124851D+01  0.20664489D+01  0.31205402D+01  0.45550358D+01
  0.62725609D+01  0.80146536D+01  0.87369116D+01  0.71918235D+01  0.19719492D+01
 -0.39775494D+01 -0.38762956D+01 -0.84824267D+00 -0.28576515D-01 -0.96808101D-03
  0.24626732D-05 -0.14541325D-05 -0.28506822D-05 -0.49928991D-05 -0.81567725D-05
 -0.12865195D-04 -0.19413005D-04 -0.28463322D-04 -0.39298324D-04 -0.50950472D-04
 -0.56659924D-04 -0.49212632D-04 -0.14295389D-04  0.36038503D-04  0.52510638D-04
  0.90398941D-05 -0.22053471D-04 -0.10496896D-04  0.50692718D-07  0.32077510D-06
  0.69504219D-06  0.11831991D-05  0.19312996D-05  0.30445043D-05  0.45950362D-05
  0.67370720D-05  0.93135238D-05  0.12088019D-04  0.13504432D-04  0.11796427D-04
  0.34941131D-05 -0.90826869D-05 -0.13972242D-04 -0.24455691D-05  0.77144125D-05
  0.65483695D-05 -0.24431381D-05  0.27162845D-04 -0.16476567D-05 -0.10873982D-05
  0.32286970D-13  0.46326086D-13  0.61338200D-13  0.70828242D-13  0.65661039D-13
  0.42510154D-13  0.15004523D-13  0.17586595D-14  0.25567654D-16  0.37440983D-17
  0.38495145D-19 -0.14352850D-14 -0.20593798D-14 -0.27267284D-14 -0.31485987D-14
 -0.29188958D-14 -0.18897464D-14 -0.66701107D-15 -0.78179449D-16 -0.11365845D-17
 -0.16644015D-18 -0.17112632D-20 -0.34183207D-02 -0.49046850D-02 -0.64940637D-02
 -0.74988036D-02 -0.69517359D-02 -0.45006806D-02 -0.15885750D-02 -0.18619468D-03
 -0.27069261D-05 -0.39639919D-06 -0.40755993D-08  0.22324706D-14  0.32225969D-14
  0.43053124D-14  0.51148433D-14  0.49566752D-14  0.34455215D-14  0.11211397D-14
 -0.50460181D-15 -0.54513831D-15 -0.14034419D-15  0.13689280D-18  0.36276091D-15
  0.52364954D-15  0.69958327D-15  0.83112639D-15  0.80542518D-15  0.55987324D-15
  0.18217738D-15 -0.81994279D-16 -0.88581177D-16 -0.22804953D-16  0.22244126D-19
 -0.74856336D-03 -0.10805598D-02 -0.14436021D-02 -0.17150436D-02 -0.16620087D-02
 -0.11553080D-02 -0.37592615D-03  0.16919660D-03  0.18278878D-03  0.47058411D-04
 -0.45901135D-07 -0.14180492D-14 -0.20604883D-14 -0.27394431D-14 -0.32871421D-14
 -0.31803245D-14 -0.22576601D-14 -0.70168644D-15  0.40286409D-15  0.46280141D-15
  0.12290098D-15 -0.44343057D-16  0.11715270D-15  0.17022808D-15  0.22632020D-15
  0.27156857D-15  0.26274380D-15  0.18651750D-15  0.57970109D-16 -0.33282779D-16
 -0.38234525D-16 -0.10153514D-16  0.36634196D-17  0.15036938D-03  0.21849338D-03
  0.29048948D-03  0.34856727D-03  0.33724037D-03  0.23940140D-03  0.74406556D-04
 -0.42719551D-04 -0.49075281D-04 -0.13032372D-04  0.47021205D-05  0.82924780D-16
  0.28862725D-16 -0.14172166D-04  0.22796272D-16  0.97903901D-17  0.92454868D-06
  0.14905495D-17 -0.19713046D-17  0.43147704D-07  0.49355893D-03  0.51645624D-03
  0.44004836D-03  0.28980511D-03  0.13356255D-03  0.39995521D-04  0.68048988D-05
  0.49355893D-03  0.51645624D-03  0.44004836D-03  0.28980511D-03  0.13356255D-03
  0.39995521D-04  0.68048988D-05 -0.98711786D-03 -0.10329125D-02 -0.88009672D-03
 -0.57961022D-03 -0.26712510D-03 -0.79991042D-04 -0.13609798D-04  0.87373863D-15
  0.91427333D-15  0.77900981D-15  0.51303685D-15  0.23644341D-15  0.70803362D-16
  0.12046592D-16 -0.67827316D-15 -0.70973978D-15 -0.60473628D-15 -0.39826456D-15
 -0.18354828D-15 -0.54963829D-16 -0.93516295D-17 -0.13097598D-14 -0.13705225D-14
 -0.11677585D-14 -0.76905727D-15 -0.35443560D-15 -0.10613631D-15 -0.18058194D-16
 -0.21305609D-05 -0.21305609D-05  0.42611218D-05  0.53864536D-18  0.20444934D-16
  0.87414582D-16  0.89011928D-06  0.89011928D-06 -0.17802386D-05 -0.48787716D-17
  0.33717222D-16 -0.62562898D-16  0.19118714D-07  0.19118714D-07 -0.38237428D-07
  0.16247214D-17 -0.95347416D-17  0.95889679D-17  0.11609551D-16 -0.26093974D-16
 -0.59952004D-06  0.11616007D-16 -0.30623157D-16  0.89928007D-06 -0.46444660D-16
  0.10890508D-15  0.89928007D-06 -0.42809531D-17  0.91463945D-18  0.20003633D-17
  0.26035868D-06  0.91429993D-18 -0.91727625D-19 -0.39053803D-06 -0.36582183D-17
 -0.59093622D-17 -0.39053803D-06 -0.94557000D-17
MO    3     MO 0.0        OCC NO =    2.0000000  ORB. ENERGY =  -58.896483
  0.99833027D-05  0.18611146D-04  0.31456115D-04  0.47288845D-04  0.58099810D-04
  0.49074578D-04  0.18509125D-04 -0.91602693D-07 -0.72567390D-05 -0.13586905D-04
 -0.23132868D-04 -0.35783030D-04 -0.47124992D-04 -0.48965885D-04 -0.31115622D-04
  0.20852966D-04  0.56136154D-06  0.92896658D-04  0.14293669D-04  0.10227315D-15
  0.95887581D-16  0.68277670D-16  0.11321390D-14  0.10614522D-14  0.75581723D-15
 -0.15508129D-05 -0.14539857D-05 -0.10353244D-05  0.10716192D-15 -0.21905857D-15
  0.56004224D-04  0.25972087D-16 -0.73520016D-16  0.35905022D-04  0.32826036D-17
 -0.53507319D-17  0.10324310D-05  0.33781693D-06  0.33781693D-06 -0.67563386D-06
 -0.10609595D-15 -0.25802245D-15  0.16379491D-15 -0.52346170D-05 -0.52346170D-05
  0.10469234D-04  0.14237039D-16  0.23022628D-15 -0.31269213D-15 -0.11319746D-05
 -0.11319746D-05  0.22639493D-05 -0.77458854D-18  0.40422250D-17 -0.19803434D-16
  0.16487571D-16 -0.55797019D-16 -0.16931762D-04  0.16484141D-16  0.16859390D-17
  0.25397644D-04 -0.65946853D-16  0.16570512D-15  0.25397644D-04  0.13812756D-16
 -0.17734738D-16  0.23115972D-16 -0.33891377D-06 -0.17734764D-16  0.23214789D-16
  0.50837065D-06  0.70938980D-16 -0.92562706D-16  0.50837065D-06 -0.20425240D-17
  0.12137013D-05  0.22831200D-05  0.39521933D-05  0.64784010D-05  0.10148541D-04
  0.15254121D-04  0.21801970D-04  0.28942658D-04  0.33707656D-04  0.30960156D-04
  0.18103621D-04  0.47504807D-05  0.25970692D-06 -0.92954171D-08  0.25977757D-08
 -0.77136728D-09  0.13150477D-09  0.10728980D-10  0.18154983D-04  0.33356329D-04
  0.57680781D-04  0.94460341D-04  0.14872356D-03  0.22458715D-03  0.32782865D-03
  0.45143997D-03  0.57681942D-03  0.62880076D-03  0.51759984D-03  0.14192236D-03
 -0.28626661D-03 -0.27897931D-03 -0.61048533D-04 -0.20566689D-05 -0.69673370D-07
  0.17724007D-09 -0.34623185D-05 -0.67875312D-05 -0.11888193D-04 -0.19421438D-04
 -0.30632286D-04 -0.46222752D-04 -0.67771739D-04 -0.93570096D-04 -0.12131409D-03
 -0.13490841D-03 -0.11717626D-03 -0.34037608D-04  0.85808396D-04  0.12502888D-03
  0.21524169D-04 -0.52509755D-04 -0.24993320D-04  0.12070037D-06 -0.18630285D-05
 -0.40367330D-05 -0.68718977D-05 -0.11216788D-04 -0.17682165D-04 -0.26687494D-04
 -0.39128216D-04 -0.54091980D-04 -0.70205964D-04 -0.78432339D-04 -0.68512424D-04
 -0.20293447D-04  0.52751304D-04  0.81149336D-04  0.14203612D-04 -0.44804508D-04
 -0.38032251D-04  0.14189493D-04  0.55834936D-04 -0.10494360D-03 -0.13800208D-04
 -0.49770578D-09 -0.71411968D-09 -0.94553242D-09 -0.10918220D-08 -0.10121693D-08
 -0.65529683D-09 -0.23129572D-09 -0.27109852D-10 -0.39412708D-12 -0.57715523D-13
 -0.59340521D-15  0.63127773D-09  0.90577177D-09  0.11992900D-08  0.13848401D-08
  0.12838105D-08  0.83116233D-09  0.29336978D-09  0.34385468D-10  0.49990106D-12
  0.73204945D-13  0.75266053D-15  0.52007534D+02  0.74621604D+02  0.98802971D+02
  0.11408944D+03  0.10576616D+03  0.68474938D+02  0.24169139D+02  0.28328314D+01
  0.41184126D-01  0.60309568D-02  0.62007602D-04  0.12239965D-13  0.17668529D-13
  0.23604733D-13  0.28043147D-13  0.27175959D-13  0.18890758D-13  0.61468715D-14
 -0.27665800D-14 -0.29888294D-14 -0.76946498D-15  0.75054203D-18 -0.17925479D-13
 -0.25875634D-13 -0.34569229D-13 -0.41069305D-13 -0.39799304D-13 -0.27665593D-13
 -0.90021187D-14  0.40516678D-14  0.43771530D-14  0.11268846D-14 -0.10991719D-17
 -0.41073980D-02 -0.59290762D-02 -0.79211040D-02 -0.94105146D-02 -0.91195100D-02
 -0.63392227D-02 -0.20627223D-02  0.92838871D-03  0.10029696D-02  0.25821144D-03
 -0.25186142D-06 -0.95979148D-14 -0.13946196D-13 -0.18541629D-13 -0.22248671D-13
 -0.21525688D-13 -0.15280732D-13 -0.47492900D-14  0.27267427D-14  0.31324220D-14
  0.83184221D-15 -0.30013126D-15  0.11735042D-13  0.17051536D-13  0.22670215D-13
  0.27202689D-13  0.26318722D-13  0.18683228D-13  0.58067943D-14 -0.33338950D-14
 -0.38299052D-14 -0.10170650D-14  0.36696022D-15  0.24713234D-02  0.35909426D-02
  0.47741998D-02  0.57287092D-02  0.55425515D-02  0.39345662D-02  0.12228731D-02
 -0.70209658D-03 -0.80655311D-03 -0.21418727D-03  0.77279433D-04  0.43062326D-14
 -0.56567033D-14 -0.52679630D-03  0.79973662D-16 -0.82487553D-16  0.21788926D-04
 -0.99516403D-17  0.16214357D-16  0.71864991D-06 -0.27519266D-03 -0.28795947D-03
 -0.24535688D-03 -0.16158605D-03 -0.74470201D-04 -0.22300222D-04 -0.37941937D-05
 -0.27519266D-03 -0.28795947D-03 -0.24535688D-03 -0.16158605D-03 -0.74470201D-04
 -0.22300222D-04 -0.37941937D-05  0.55038532D-03  0.57591893D-03  0.49071375D-03
  0.32317210D-03  0.14894040D-03  0.44600444D-04  0.75883875D-05  0.22306526D-16
  0.23341375D-16  0.19888101D-16  0.13097818D-16  0.60363945D-17  0.18076081D-17
  0.30754919D-18 -0.62022478D-14 -0.64899841D-14 -0.55298138D-14 -0.36418004D-14
 -0.16783974D-14 -0.50259882D-15 -0.85512928D-16  0.72778349D-14  0.76154701D-14
  0.64887881D-14  0.42733575D-14  0.19694632D-14  0.58975896D-15  0.10034249D-15
 -0.13797174D-04 -0.13797174D-04  0.27594348D-04  0.57692422D-17 -0.42140846D-16
  0.77305460D-16  0.12737436D-04  0.12737436D-04 -0.25474873D-04 -0.51163616D-17
  0.13046857D-15 -0.17205535D-15  0.11241914D-05  0.11241914D-05 -0.22483829D-05
  0.20280096D-17  0.35862865D-17 -0.20940367D-16  0.34056853D-16 -0.20004235D-17
  0.32390361D-06  0.34040168D-16 -0.21347366D-17 -0.48585541D-06 -0.13621073D-15
  0.81360071D-17 -0.48585541D-06  0.47069258D-17  0.92373655D-17 -0.18931246D-16
  0.41551351D-05  0.92380253D-17 -0.20615247D-16 -0.62327026D-05 -0.36950122D-16
  0.77408984D-16 -0.62327026D-05 -0.10289712D-16
MO    4     MO 0.0        OCC NO =    2.0000000  ORB. ENERGY =  -58.896159
  0.12321274D-15  0.22969655D-15  0.38822764D-15  0.58363331D-15  0.71706095D-15
  0.60567260D-15  0.22843742D-15 -0.11305496D-17 -0.83891757D-17 -0.15707184D-16
 -0.26742824D-16 -0.41367083D-16 -0.54478993D-16 -0.56607163D-16 -0.35971311D-16
  0.24107136D-16  0.65812815D-16 -0.13848854D-15  0.43553923D-16  0.93337800D-05
  0.87510121D-05  0.62312419D-05  0.66731221D-05  0.62564761D-05  0.44549837D-05
 -0.10268630D-15 -0.96274935D-16 -0.68553489D-16 -0.86552311D-05 -0.61879982D-05
  0.10055920D-16 -0.28257264D-05 -0.20202337D-05 -0.79087595D-16 -0.14075729D-06
 -0.10063346D-06  0.68009777D-17 -0.80169502D-15  0.45989534D-15  0.34179968D-15
  0.26548319D-15  0.15633031D-04  0.11176729D-04  0.51103341D-16  0.32768113D-17
 -0.54380152D-16 -0.10007160D-16 -0.13927869D-04 -0.99576347D-05  0.24791499D-18
 -0.75362203D-18  0.50570704D-18 -0.44863638D-18 -0.69127942D-06 -0.49422548D-06
 -0.20503475D-05 -0.14658819D-05 -0.12533585D-15 -0.20503475D-05 -0.14658819D-05
  0.28181294D-15  0.82013899D-05  0.58635275D-05  0.94194616D-16  0.52253279D-16
  0.10913482D-05  0.78025195D-06  0.15949307D-16  0.10913482D-05  0.78025195D-06
 -0.22837947D-16 -0.43653930D-05 -0.31210078D-05 -0.25009974D-16 -0.21132154D-16
 -0.11663831D-16 -0.21941087D-16 -0.37981103D-16 -0.62258295D-16 -0.97528825D-16
 -0.14659413D-15 -0.20951984D-15 -0.27814279D-15 -0.32393506D-15 -0.29753122D-15
 -0.17397820D-15 -0.45652751D-16 -0.24958181D-17  0.89330195D-19 -0.24964970D-19
  0.74129421D-20 -0.12637783D-20 -0.10310693D-21 -0.11534912D-15 -0.21193208D-15
 -0.36647941D-15 -0.60016126D-15 -0.94492693D-15 -0.14269322D-14 -0.20828853D-14
 -0.28682596D-14 -0.36648679D-14 -0.39951354D-14 -0.32886116D-14 -0.90171497D-15
  0.18188176D-14  0.17725172D-14  0.38787669D-15  0.13067209D-16  0.44267527D-18
 -0.11261088D-20 -0.11096915D-16 -0.21754399D-16 -0.38102291D-16 -0.62246744D-16
 -0.98178109D-16 -0.14814638D-15 -0.21721203D-15 -0.29989714D-15 -0.38881813D-15
 -0.43238864D-15 -0.37555615D-15 -0.10909235D-15  0.27502048D-15  0.40072422D-15
  0.68986107D-16 -0.16829656D-15 -0.80104921D-16  0.38685113D-18  0.19121504D-16
  0.41431682D-16  0.70530868D-16  0.11512537D-15  0.18148385D-15  0.27391154D-15
  0.40159896D-15  0.55518206D-15  0.72057061D-15  0.80500338D-15  0.70318868D-15
  0.20828517D-15 -0.54142180D-15 -0.83288973D-15 -0.14578114D-15  0.45985853D-15
  0.39035035D-15 -0.14563623D-15 -0.13773981D-15  0.26160609D-15 -0.89522609D-16
  0.42306525D+02  0.60702373D+02  0.80373169D+02  0.92808238D+02  0.86037506D+02
  0.55702250D+02  0.19660849D+02  0.23044210D+01  0.33502016D-01  0.49059973D-02
  0.50441272D-04  0.30246760D+02  0.43398746D+02  0.57462246D+02  0.66352614D+02
  0.61511926D+02  0.39823942D+02  0.14056389D+02  0.16475300D+01  0.23952037D-01
  0.35075092D-02  0.36062642D-04  0.37722589D-10  0.54125236D-10  0.71664690D-10
  0.82752413D-10  0.76715293D-10  0.49666879D-10  0.17530585D-10  0.20547357D-11
  0.29872054D-13  0.43744297D-14  0.44975931D-16 -0.69809999D-03 -0.10077154D-02
 -0.13462836D-02 -0.15994263D-02 -0.15499666D-02 -0.10774245D-02 -0.35058361D-03
  0.15779044D-03  0.17046632D-03  0.43886033D-04 -0.42806773D-07 -0.49910181D-03
 -0.72045919D-03 -0.96251626D-03 -0.11434988D-02 -0.11081380D-02 -0.77029729D-03
 -0.25064735D-03  0.11281120D-03  0.12187373D-03  0.31376019D-04 -0.30604409D-07
  0.46968041D-14  0.67798907D-14  0.90577719D-14  0.10760911D-13  0.10428148D-13
  0.72488928D-14  0.23587202D-14 -0.10616113D-14 -0.11468944D-14 -0.29526444D-15
  0.28800320D-18  0.58837667D-03  0.85493740D-03  0.11366492D-02  0.13639003D-02
  0.13195796D-02  0.93674788D-03  0.29114359D-03 -0.16715629D-03 -0.19202547D-03
 -0.50994050D-04  0.18398812D-04  0.42065587D-03  0.61123164D-03  0.81263955D-03
  0.97511120D-03  0.94342440D-03  0.66972148D-03  0.20815112D-03 -0.11950724D-03
 -0.13728729D-03 -0.36457847D-04  0.13154105D-04 -0.72641954D-14 -0.10555198D-13
 -0.14033258D-13 -0.16838939D-13 -0.16291748D-13 -0.11565244D-13 -0.35945069D-14
  0.20637391D-14  0.23707781D-14  0.62958096D-15 -0.22715477D-15 -0.35790943D-03
 -0.25588490D-03  0.11095157D-16 -0.52550001D-05 -0.37570264D-05 -0.65598846D-17
  0.64920881D-06  0.46414739D-06  0.43457026D-17 -0.25840760D-15 -0.27039571D-15
 -0.23039162D-15 -0.15173030D-15 -0.69927978D-16 -0.20940046D-16 -0.35627713D-17
 -0.51676598D-14 -0.54073991D-14 -0.46073935D-14 -0.30343169D-14 -0.13984263D-14
 -0.41876103D-15 -0.71248639D-16  0.54260674D-14  0.56777948D-14  0.48377851D-14
  0.31860472D-14  0.14683543D-14  0.43970107D-15  0.74811410D-16 -0.91316705D-17
 -0.95553093D-17 -0.81416349D-17 -0.53618821D-17 -0.24711318D-17 -0.73998442D-18
 -0.12590208D-18  0.86617180D-03  0.90635546D-03  0.77226336D-03  0.50859381D-03