 Molden2AIM, Version 4.0.0 (06/02/2016)           Time: Wed Jun 27 19:36:22 2018
GAUSSIAN             11 MOL ORBITALS    206 PRIMITIVES        2 NUCLEI
  C    1    (CENTRE  1)   0.00000000  0.00000000 -0.03331965  CHARGE =  6.0
  Cl   2    (CENTRE  2)   0.00000000  0.00000000  2.86790884  CHARGE = 17.0
CENTRE ASSIGNMENTS    1  1  1  1  1  1  1  1  1  1  1  1  1  1  1  1  1  1  1  1
CENTRE ASSIGNMENTS    1  1  1  1  1  1  1  1  1  1  1  1  1  1  1  1  1  1  1  1
CENTRE ASSIGNMENTS    1  1  1  1  1  1  1  1  1  1  1  1  1  1  1  1  1  1  1  1
CENTRE ASSIGNMENTS    1  1  1  1  1  1  1  1  1  1  1  1  1  1  1  2  2  2  2  2
CENTRE ASSIGNMENTS    2  2  2  2  2  2  2  2  2  2  2  2  2  2  2  2  2  2  2  2
CENTRE ASSIGNMENTS    2  2  2  2  2  2  2  2  2  2  2  2  2  2  2  2  2  2  2  2
CENTRE ASSIGNMENTS    2  2  2  2  2  2  2  2  2  2  2  2  2  2  2  2  2  2  2  2
CENTRE ASSIGNMENTS    2  2  2  2  2  2  2  2  2  2  2  2  2  2  2  2  2  2  2  2
CENTRE ASSIGNMENTS    2  2  2  2  2  2  2  2  2  2  2  2  2  2  2  2  2  2  2  2
CENTRE ASSIGNMENTS    2  2  2  2  2  2  2  2  2  2  2  2  2  2  2  2  2  2  2  2
CENTRE ASSIGNMENTS    2  2  2  2  2  2
TYPE ASSIGNMENTS      1  1  1  1  1  1  1  1  1  1  1  1  1  1  1  1  1  1  1  2
TYPE ASSIGNMENTS      2  2  3  3  3  4  4  4  2  3  4  2  3  4  2  3  4  5  6  7
TYPE ASSIGNMENTS      8  9 10  5  6  7  8  9 10  5  6  7  8  9 10 11 12 13 17 14
TYPE ASSIGNMENTS     15 18 19 16 20 11 12 13 17 14 15 18 19 16 20  1  1  1  1  1
TYPE ASSIGNMENTS      1  1  1  1  1  1  1  1  1  1  1  1  1  1  1  1  1  1  1  1
TYPE ASSIGNMENTS      1  1  1  1  1  1  1  1  1  1  1  1  1  1  1  1  1  2  2  2
TYPE ASSIGNMENTS      2  2  2  2  3  3  3  3  3  3  3  4  4  4  4  4  4  4  2  2
TYPE ASSIGNMENTS      2  2  2  2  2  3  3  3  3  3  3  3  4  4  4  4  4  4  4  2
TYPE ASSIGNMENTS      3  4  2  3  4  2  3  4  5  6  7  8  9 10  5  6  7  8  9 10
TYPE ASSIGNMENTS      5  6  7  8  9 10 11 12 13 17 14 15 18 19 16 20 11 12 13 17
TYPE ASSIGNMENTS     14 15 18 19 16 20
EXPONENTS  0.8236000D+04 0.1235000D+04 0.2808000D+03 0.7927000D+02 0.2559000D+02
EXPONENTS  0.8997000D+01 0.3319000D+01 0.3643000D+00 0.8236000D+04 0.1235000D+04
EXPONENTS  0.2808000D+03 0.7927000D+02 0.2559000D+02 0.8997000D+01 0.3319000D+01
EXPONENTS  0.3643000D+00 0.9059000D+00 0.1285000D+00 0.4402000D-01 0.1871000D+02
EXPONENTS  0.4133000D+01 0.1200000D+01 0.1871000D+02 0.4133000D+01 0.1200000D+01
EXPONENTS  0.1871000D+02 0.4133000D+01 0.1200000D+01 0.3827000D+00 0.3827000D+00
EXPONENTS  0.3827000D+00 0.1209000D+00 0.1209000D+00 0.1209000D+00 0.3569000D-01
EXPONENTS  0.3569000D-01 0.3569000D-01 0.1097000D+01 0.1097000D+01 0.1097000D+01
EXPONENTS  0.1097000D+01 0.1097000D+01 0.1097000D+01 0.3180000D+00 0.3180000D+00
EXPONENTS  0.3180000D+00 0.3180000D+00 0.3180000D+00 0.3180000D+00 0.1000000D+00
EXPONENTS  0.1000000D+00 0.1000000D+00 0.1000000D+00 0.1000000D+00 0.1000000D+00
EXPONENTS  0.7610000D+00 0.7610000D+00 0.7610000D+00 0.7610000D+00 0.7610000D+00
EXPONENTS  0.7610000D+00 0.7610000D+00 0.7610000D+00 0.7610000D+00 0.7610000D+00
EXPONENTS  0.2680000D+00 0.2680000D+00 0.2680000D+00 0.2680000D+00 0.2680000D+00
EXPONENTS  0.2680000D+00 0.2680000D+00 0.2680000D+00 0.2680000D+00 0.2680000D+00
EXPONENTS  0.4561000D+06 0.6833000D+05 0.1555000D+05 0.4405000D+04 0.1439000D+04
EXPONENTS  0.5204000D+03 0.2031000D+03 0.8396000D+02 0.3620000D+02 0.1583000D+02
EXPONENTS  0.6334000D+01 0.2694000D+01 0.4313000D+00 0.4561000D+06 0.6833000D+05
EXPONENTS  0.1555000D+05 0.4405000D+04 0.1439000D+04 0.5204000D+03 0.2031000D+03
EXPONENTS  0.8396000D+02 0.3620000D+02 0.1583000D+02 0.6334000D+01 0.2694000D+01
EXPONENTS  0.4313000D+00 0.4561000D+06 0.6833000D+05 0.1555000D+05 0.4405000D+04
EXPONENTS  0.1439000D+04 0.5204000D+03 0.2031000D+03 0.8396000D+02 0.3620000D+02
EXPONENTS  0.1583000D+02 0.6334000D+01 0.2694000D+01 0.4313000D+00 0.9768000D+00
EXPONENTS  0.1625000D+00 0.5910000D-01 0.6633000D+03 0.1568000D+03 0.4998000D+02
EXPONENTS  0.1842000D+02 0.7240000D+01 0.2922000D+01 0.3818000D+00 0.6633000D+03
EXPONENTS  0.1568000D+03 0.4998000D+02 0.1842000D+02 0.7240000D+01 0.2922000D+01
EXPONENTS  0.3818000D+00 0.6633000D+03 0.1568000D+03 0.4998000D+02 0.1842000D+02
EXPONENTS  0.7240000D+01 0.2922000D+01 0.3818000D+00 0.6633000D+03 0.1568000D+03
EXPONENTS  0.4998000D+02 0.1842000D+02 0.7240000D+01 0.2922000D+01 0.3818000D+00
EXPONENTS  0.6633000D+03 0.1568000D+03 0.4998000D+02 0.1842000D+02 0.7240000D+01
EXPONENTS  0.2922000D+01 0.3818000D+00 0.6633000D+03 0.1568000D+03 0.4998000D+02
EXPONENTS  0.1842000D+02 0.7240000D+01 0.2922000D+01 0.3818000D+00 0.1022000D+01
EXPONENTS  0.1022000D+01 0.1022000D+01 0.1301000D+00 0.1301000D+00 0.1301000D+00
EXPONENTS  0.4190000D-01 0.4190000D-01 0.4190000D-01 0.1046000D+01 0.1046000D+01
EXPONENTS  0.1046000D+01 0.1046000D+01 0.1046000D+01 0.1046000D+01 0.3440000D+00
EXPONENTS  0.3440000D+00 0.3440000D+00 0.3440000D+00 0.3440000D+00 0.3440000D+00
EXPONENTS  0.1350000D+00 0.1350000D+00 0.1350000D+00 0.1350000D+00 0.1350000D+00
EXPONENTS  0.1350000D+00 0.7060000D+00 0.7060000D+00 0.7060000D+00 0.7060000D+00
EXPONENTS  0.7060000D+00 0.7060000D+00 0.7060000D+00 0.7060000D+00 0.7060000D+00
EXPONENTS  0.7060000D+00 0.3120000D+00 0.3120000D+00 0.3120000D+00 0.3120000D+00
EXPONENTS  0.3120000D+00 0.3120000D+00 0.3120000D+00 0.3120000D+00 0.3120000D+00
EXPONENTS  0.3120000D+00
MO    1     MO 0.0        OCC NO =    2.0000000  ORB. ENERGY = -105.259737
 -0.98543302D-05 -0.18370712D-04 -0.31049740D-04 -0.46677929D-04 -0.57349229D-04
 -0.48440592D-04 -0.18270009D-04  0.90419295D-07  0.67613918D-05  0.12659459D-04
  0.21553812D-04  0.33340469D-04  0.43908225D-04  0.45623458D-04  0.28991660D-04
 -0.19429536D-04  0.11203036D-04 -0.16721552D-05 -0.71848886D-06 -0.15408538D-15
 -0.14446484D-15 -0.10286757D-15 -0.97405590D-16 -0.91323932D-16 -0.65028080D-16
  0.75189212D-05  0.70494666D-05  0.50196402D-05 -0.38274536D-16  0.53647827D-16
 -0.32914076D-04 -0.11351631D-16 -0.13831732D-16 -0.31888991D-05 -0.87489191D-18
  0.14819111D-17 -0.12258886D-06  0.71530667D-05  0.71530667D-05 -0.14306133D-04
 -0.32573131D-16  0.77883532D-16 -0.20068317D-15  0.53187835D-05  0.53187835D-05
 -0.10637567D-04  0.43989420D-16 -0.52450131D-16  0.40917365D-16  0.21655610D-06
  0.21655610D-06 -0.43311221D-06 -0.60177832D-17 -0.10127096D-17 -0.48794683D-17
 -0.14026297D-16 -0.13421578D-16 -0.97801249D-06 -0.82439254D-17 -0.29470085D-16
  0.14670187D-05  0.50322818D-16  0.69734818D-16  0.14670187D-05 -0.31603893D-16
  0.33661197D-17  0.25222047D-17 -0.13103628D-05  0.30939936D-17  0.53433862D-17
  0.19655442D-05 -0.13192353D-16 -0.12910000D-16  0.19655442D-05  0.13066025D-16
  0.61664075D+00  0.11537372D+01  0.19934023D+01  0.32315376D+01  0.49073477D+01
  0.68206362D+01  0.81087525D+01  0.72226530D+01  0.35855412D+01  0.57768814D+00
  0.88690518D-02  0.15848908D-02  0.59224898D-04 -0.15893695D-04 -0.29687140D-04
 -0.51523472D-04 -0.83601656D-04 -0.12940544D-03 -0.18523212D-03 -0.24178578D-03
 -0.25766310D-03 -0.19260840D-03 -0.10167455D-04  0.13064675D-03  0.77619180D-04
 -0.29101373D-06  0.76721264D-05  0.14318919D-04  0.24885020D-04  0.40331297D-04
  0.62640819D-04  0.89734781D-04  0.11848642D-03  0.12811896D-03  0.10044693D-03
  0.49982059D-05 -0.86108413D-04 -0.89138171D-04  0.40336283D-04 -0.29855312D-03
 -0.26510510D-05  0.12865761D-06  0.48729617D-15  0.64187842D-15  0.70814227D-15
  0.58819355D-15  0.31240389D-15  0.80578075D-16 -0.82831522D-19  0.59215095D-15
  0.77999569D-15  0.86051797D-15  0.71475909D-15  0.37962592D-15  0.97916598D-16
 -0.10065493D-18 -0.13837506D-02 -0.18227101D-02 -0.20108763D-02 -0.16702639D-02
 -0.88711773D-03 -0.22881354D-03  0.23521254D-06 -0.55765781D-15 -0.73216382D-15
 -0.83362237D-15 -0.70587719D-15 -0.40435363D-15 -0.91976422D-16  0.43050028D-16
 -0.10241285D-15 -0.13446057D-15 -0.15309325D-15 -0.12963308D-15 -0.74258817D-16
 -0.16891304D-16  0.79060601D-17  0.70942067D-03  0.93141733D-03  0.10604872D-02
  0.89797697D-03  0.51439578D-03  0.11700719D-03 -0.54765806D-04 -0.69945611D-16
 -0.19585432D-16  0.89591560D-04  0.14210517D-16  0.15530151D-17  0.41935368D-05
  0.13297621D-17 -0.18707646D-17  0.58863357D-07 -0.25654496D-06 -0.25654496D-06
  0.51308991D-06  0.21277809D-16  0.42699394D-16  0.16427743D-15 -0.62520370D-05
 -0.62520370D-05  0.12504074D-04 -0.17176069D-16 -0.46388235D-16 -0.31415052D-16
  0.69539643D-06  0.69539643D-06 -0.13907929D-05 -0.35418058D-18 -0.95746239D-17
  0.65736305D-17  0.12306913D-16 -0.18195323D-17 -0.69891113D-05  0.11594193D-16
 -0.13000334D-18  0.10483667D-04 -0.48514931D-16  0.55886004D-17  0.10483667D-04
 -0.12543303D-17 -0.64176112D-17 -0.14073339D-18 -0.39817123D-06 -0.63029368D-17
  0.95411437D-18  0.59725684D-06  0.25555770D-16 -0.53191419D-18  0.59725684D-06
  0.18744430D-16
MO    2     MO 0.0        OCC NO =    2.0000000  ORB. ENERGY =  -11.768453
  0.32687614D+00  0.60937145D+00  0.10299451D+01  0.15483449D+01  0.19023205D+01
  0.16068138D+01  0.60603105D+00 -0.29992815D-02  0.25833187D-03  0.48367877D-03
  0.82350449D-03  0.12738362D-02  0.16775975D-02  0.17431313D-02  0.11076817D-02
 -0.74234250D-03  0.26263194D-01 -0.13046432D-02 -0.17622025D-03  0.26605527D-17
  0.24944373D-17  0.17761879D-17  0.40625669D-17  0.38089147D-17  0.27121742D-17
  0.92058635D-02  0.86310822D-02  0.61458447D-02 -0.85162666D-19 -0.82398615D-18
 -0.25392069D-02 -0.91622107D-19  0.39486906D-19 -0.58817505D-03 -0.21318098D-19
 -0.98641227D-20 -0.11548851D-04 -0.65841291D-03 -0.65841291D-03  0.13168258D-02
  0.45973800D-17  0.17719753D-17 -0.10631367D-17  0.33126430D-03  0.33126430D-03
 -0.66252859D-03 -0.36060708D-18  0.11080612D-18 -0.33209368D-18  0.15731368D-04
  0.15731368D-04 -0.31462736D-04 -0.50524486D-19 -0.12043250D-19 -0.18617420D-19
  0.11300336D-18  0.18249164D-18 -0.17755329D-03  0.19177629D-18 -0.29606497D-18
  0.26632993D-03 -0.53078637D-18 -0.25140997D-18  0.26632993D-03 -0.80669674D-18
  0.17415065D-19  0.61053065D-20 -0.63277817D-04  0.13659324D-19  0.24200913D-19
  0.94916725D-04 -0.65904519D-19 -0.42516832D-19  0.94916725D-04 -0.11908596D-19
  0.12289168D-03  0.22993081D-03  0.39726949D-03  0.64402018D-03  0.97799603D-03
  0.13592995D-02  0.16160110D-02  0.14394183D-02  0.71457034D-03  0.11512873D-03
  0.17675327D-05  0.31585635D-06  0.11803059D-07 -0.32085580D-03 -0.59931256D-03
 -0.10401360D-02 -0.16877180D-02 -0.26123871D-02 -0.37393948D-02 -0.48810783D-02
 -0.52016034D-02 -0.38883041D-02 -0.20525667D-03  0.26374463D-02  0.15669461D-02
 -0.58748732D-05  0.13619990D-03  0.25419749D-03  0.44177286D-03  0.71598384D-03
  0.11120350D-02  0.15930222D-02  0.21034374D-02  0.22744398D-02  0.17831903D-02
  0.88730959D-04 -0.15286449D-02 -0.15824309D-02  0.71607236D-03 -0.52867395D-03
  0.20153068D-02  0.33085857D-03  0.67017620D-15  0.88277246D-15  0.97390483D-15
  0.80893991D-15  0.42964764D-15  0.11081866D-15 -0.11391781D-18 -0.13323732D-14
 -0.17550346D-14 -0.19362143D-14 -0.16082485D-14 -0.85417985D-15 -0.22031790D-15
  0.22647931D-18 -0.29801609D-01 -0.39255407D-01 -0.43307910D-01 -0.35972197D-01
 -0.19105708D-01 -0.49279194D-02  0.50657336D-05 -0.12934726D-17 -0.16982347D-17
 -0.19335651D-17 -0.16372635D-17 -0.93788758D-18 -0.21333689D-18  0.99853404D-19
 -0.39445313D-17 -0.51788804D-17 -0.58965363D-17 -0.49929448D-17 -0.28601510D-17
 -0.65058513D-18  0.30450964D-18  0.28071833D-01  0.36856259D-01  0.41963563D-01
  0.35533022D-01  0.20354683D-01  0.46299842D-02 -0.21670874D-02  0.48616849D-17
 -0.10249263D-16  0.54661544D-03  0.10295087D-18  0.26796540D-19 -0.59332250D-03
 -0.67474327D-21 -0.92068877D-20 -0.45366500D-05 -0.29305753D-03 -0.29305753D-03
  0.58611506D-03 -0.33469181D-18  0.45013312D-18  0.28930080D-18 -0.27443085D-03
 -0.27443085D-03  0.54886170D-03  0.48130004D-19 -0.25864421D-18 -0.20421203D-18
 -0.23376789D-04 -0.23376789D-04  0.46753579D-04  0.18069162D-19 -0.20299078D-19
 -0.94804218D-20 -0.12286555D-18 -0.19499957D-18 -0.73834884D-04 -0.88857517D-19
 -0.71133463D-19  0.11075233D-03  0.45745416D-18  0.65613216D-18  0.11075233D-03
  0.29348780D-18 -0.11256376D-19 -0.44152902D-20 -0.36018559D-04 -0.15985221D-19
 -0.22039372D-19  0.54027839D-04  0.49754349D-19  0.35285242D-19  0.54027839D-04
 -0.10757121D-18
MO    3     MO 0.0        OCC NO =    2.0000000  ORB. ENERGY =  -10.983720
  0.18224371D-03  0.33974372D-03  0.57422673D-03  0.86325087D-03  0.10606034D-02
  0.89584915D-03  0.33788134D-03 -0.16721936D-05  0.67049119D-04  0.12553711D-03
  0.21373767D-03  0.33061967D-03  0.43541447D-03  0.45242353D-03  0.28749484D-03
 -0.19267236D-03 -0.29170888D-04  0.44672930D-03  0.48366840D-05 -0.39899194D-15
 -0.37408030D-15 -0.26636746D-15 -0.32726470D-15 -0.30683146D-15 -0.21848228D-15
 -0.57275934D-03 -0.53699829D-03 -0.38237477D-03 -0.61804364D-16 -0.27905011D-16
 -0.10504377D-03 -0.81195186D-17 -0.48083229D-16  0.15568289D-03 -0.10108149D-17
  0.13330151D-17 -0.12312493D-05  0.68825134D-04  0.68825134D-04 -0.13765027D-03
  0.85544506D-17 -0.50117066D-16 -0.95039083D-16  0.35466764D-05  0.35466764D-05
 -0.70933529D-05  0.28123043D-16  0.24043345D-16 -0.21630389D-16 -0.38866034D-05
 -0.38866034D-05  0.77732068D-05  0.63390451D-18 -0.16152386D-17 -0.11139115D-16
 -0.59959113D-17 -0.14508398D-16  0.86546382D-04  0.74260658D-17 -0.45363372D-17
 -0.12981957D-03  0.10561668D-16  0.48061532D-16 -0.12981957D-03  0.28253112D-17
 -0.20531404D-17  0.33859634D-17 -0.76941584D-05 -0.26854910D-17  0.35614976D-17
  0.11541238D-04  0.88449122D-17 -0.13719388D-16  0.11541238D-04  0.39524918D-17
  0.14215865D-03  0.26597938D-03  0.45955344D-03  0.74498973D-03  0.11313263D-02
  0.15724106D-02  0.18693693D-02  0.16650904D-02  0.82660074D-03  0.13317862D-03
  0.20446466D-05  0.36537634D-06  0.13653544D-07  0.17275358D+00  0.32267888D+00
  0.56002485D+00  0.90869274D+00  0.14065484D+01  0.20133463D+01  0.26280458D+01
  0.28006214D+01  0.20935213D+01  0.11051327D+00 -0.14200407D+01 -0.84366732D+00
  0.31631199D-02  0.11616510D-03  0.21680542D-03  0.37678873D-03  0.61066369D-03
  0.94845632D-03  0.13586910D-02  0.17940249D-02  0.19398731D-02  0.15208857D-02
  0.75678768D-04 -0.13037835D-02 -0.13496577D-02  0.61073919D-03 -0.55731962D-01
 -0.10611348D-02 -0.42598034D-05  0.47872902D-15  0.63059356D-15  0.69569242D-15
  0.57785252D-15  0.30691151D-15  0.79161432D-16 -0.81375261D-19 -0.14962389D-15
 -0.19708824D-15 -0.21743450D-15 -0.18060435D-15 -0.95923356D-16 -0.24741432D-16
  0.25433351D-19  0.12773119D-01  0.16825065D-01  0.18561988D-01  0.15417865D-01
  0.81888025D-02  0.21121310D-02 -0.21711989D-05 -0.35220044D-15 -0.46241336D-15
 -0.52649163D-15 -0.44581149D-15 -0.25537798D-15 -0.58089631D-16  0.27189144D-16
  0.65919959D-15  0.86548074D-15  0.98541350D-15  0.83440768D-15  0.47798084D-15
  0.10872406D-15 -0.50888843D-16  0.95346727D-03  0.12518326D-02  0.14253035D-02
  0.12068885D-02  0.69135220D-03  0.15725864D-03 -0.73605698D-04  0.50088602D-16
  0.16546785D-15  0.10795399D-02  0.37179326D-17  0.49638217D-16  0.19427095D-03
  0.43719175D-17 -0.10956881D-17 -0.15045784D-05  0.37300695D-03  0.37300695D-03
 -0.74601390D-03  0.12861986D-17  0.58383212D-16  0.35883276D-16 -0.22046045D-04
 -0.22046045D-04  0.44092090D-04 -0.13535513D-17  0.23808330D-16 -0.15393965D-16
  0.11584754D-04  0.11584754D-04 -0.23169509D-04 -0.21580518D-17  0.25273161D-18
 -0.17348628D-16  0.49239461D-16  0.15567435D-16  0.12284786D-03  0.45187279D-16
  0.31455398D-16 -0.18427179D-03 -0.19290566D-15 -0.78157703D-16 -0.18427179D-03
 -0.81022556D-18 -0.39833720D-17 -0.62961975D-17 -0.10237148D-04 -0.35818290D-17
 -0.84673918D-17  0.15355722D-04  0.15531945D-16  0.27355984D-16  0.15355722D-04
  0.71010554D-18
MO    4     MO 0.0        OCC NO =    2.0000000  ORB. ENERGY =   -8.449506
  0.24216846D-03  0.45145707D-03  0.76304198D-03  0.11471020D-02  0.14093474D-02
  0.11904192D-02  0.44898232D-03 -0.22220385D-05 -0.29099842D-03 -0.54484086D-03
 -0.92763819D-03 -0.14349152D-02 -0.18897329D-02 -0.19635535D-02 -0.12477501D-02
  0.83621311D-03  0.93811797D-04  0.10242709D-02  0.46214551D-04  0.65224325D-15
  0.61151951D-15  0.43543832D-15  0.34244369D-15  0.32106272D-15  0.22861578D-15
  0.60082191D-03  0.56330873D-03  0.40110938D-03 -0.13470870D-15 -0.30744333D-16
  0.14393137D-02 -0.31551293D-16  0.18835827D-16  0.42109787D-03 -0.16252336D-17
  0.22523504D-17  0.14761519D-05 -0.12535744D-03 -0.12535744D-03  0.25071488D-03
 -0.43187001D-18  0.14738376D-15  0.15574979D-15 -0.15579721D-03 -0.15579721D-03
  0.31159442D-03  0.15994870D-17 -0.16115916D-15 -0.55326008D-16 -0.17430516D-04
 -0.17430516D-04  0.34861031D-04 -0.13097421D-17 -0.56194610D-17  0.71133445D-17
 -0.36734110D-19 -0.61562424D-18 -0.21071438D-03 -0.24759805D-16  0.10867667D-16
  0.31607157D-03  0.24870007D-16 -0.90207943D-17  0.31607157D-03  0.60247396D-18
  0.11344723D-16  0.31120664D-17  0.21781657D-04  0.12503665D-16  0.19001765D-17
 -0.32672485D-04 -0.46537835D-16 -0.11236376D-16 -0.32672485D-04  0.25040135D-17
 -0.94458284D-06 -0.17673181D-05 -0.30535342D-05 -0.49501351D-05 -0.75171750D-05
 -0.10447989D-04 -0.12421152D-04 -0.11063807D-04 -0.54924050D-05 -0.88491444D-06
 -0.13585794D-07 -0.24277680D-08 -0.90721903D-10  0.19326758D-03  0.36099610D-03
  0.62652623D-03  0.10165975D-02  0.15735721D-02  0.22524255D-02  0.29401189D-02
  0.31331873D-02  0.23421211D-02  0.12363641D-03 -0.15886665D-02 -0.94385045D-03
  0.35387316D-05  0.14896862D-03  0.27802847D-03  0.48318902D-03  0.78310725D-03
  0.12162882D-02  0.17423679D-02  0.23006345D-02  0.24876683D-02  0.19503642D-02
  0.97049477D-04 -0.16719552D-02 -0.17307836D-02  0.78320407D-03  0.66826514D-03
 -0.18448166D-02 -0.56167502D-04 -0.27907835D-11 -0.36760882D-11 -0.40555865D-11
 -0.33686307D-11 -0.17891616D-11 -0.46147697D-12  0.47438264D-15 -0.12583705D-11
 -0.16575564D-11 -0.18286730D-11 -0.15189231D-11 -0.80673697D-12 -0.20808100D-12
  0.21390019D-15 -0.11507835D+02 -0.15158402D+02 -0.16723268D+02 -0.13890596D+02
 -0.73776332D+01 -0.19029068D+01  0.19561235D-02 -0.30505423D-14 -0.40051384D-14
 -0.45601448D-14 -0.38613433D-14 -0.22119261D-14 -0.50313645D-15  0.23549555D-15
 -0.11834854D-14 -0.15538296D-14 -0.17691493D-14 -0.14980430D-14 -0.85813669D-15
 -0.19519633D-15  0.91362623D-16 -0.25191578D-01 -0.33074695D-01 -0.37657973D-01
 -0.31887225D-01 -0.18266230D-01 -0.41549337D-02  0.19447376D-02 -0.20537405D-13
 -0.93037045D-14 -0.88226687D-01 -0.18829717D-16 -0.48692469D-16  0.17409489D-03
  0.52070657D-17  0.39541936D-18  0.56343928D-05 -0.66997757D-03 -0.66997757D-03
  0.13399551D-02  0.12948723D-16  0.16350595D-15  0.16820430D-15  0.29623821D-03
  0.29623821D-03 -0.59247642D-03  0.41679612D-17 -0.15682416D-15 -0.65593147D-16
  0.84325501D-05  0.84325501D-05 -0.16865100D-04 -0.14332246D-17 -0.78976025D-17
  0.14395783D-16 -0.24058814D-17 -0.46327468D-17 -0.23312402D-03  0.16794671D-17
 -0.30916070D-17  0.34968603D-03  0.55381770D-17  0.16989847D-16  0.34968603D-03
  0.78663297D-17 -0.12316401D-16 -0.10982336D-17  0.10627109D-03 -0.12895978D-16
 -0.18624333D-18 -0.15940663D-03  0.49845183D-16  0.34809441D-17 -0.15940663D-03
  0.45155343D-17
MO    5     MO 0.0        OCC NO =    2.0000000  ORB. ENERGY =   -8.447681
 -0.11044313D-15 -0.20589111D-15 -0.34799224D-15 -0.52314633D-15 -0.64274571D-15
 -0.54290150D-15 -0.20476247D-15  0.10133809D-17  0.61871674D-16  0.11584330D-15
  0.19723312D-15  0.30508965D-15  0.40179234D-15  0.41748798D-15  0.26529487D-15
 -0.17779445D-15 -0.12446601D-16 -0.18541066D-15  0.18437152D-17  0.30544422D-03
  0.28637338D-03  0.20391490D-03  0.15785753D-03  0.14800147D-03  0.10538586D-03
 -0.30823165D-15 -0.28898676D-15 -0.20577579D-15 -0.37757556D-03 -0.19513593D-03
 -0.40891586D-15 -0.37218763D-05 -0.19235138D-05 -0.93805258D-16 -0.16200953D-05
 -0.83728623D-06  0.27409482D-19  0.24789575D-15 -0.18707673D-15 -0.60819020D-16
  0.61729283D-16  0.14924514D-03  0.77131818D-04  0.27577549D-16  0.46539095D-16
 -0.74116644D-16  0.75259067D-17 -0.46182550D-03 -0.23867740D-03  0.21303528D-17
  0.67701099D-17 -0.89004627D-17  0.68635886D-17  0.93675176D-05  0.48412543D-05
  0.14212166D-04  0.73450314D-05  0.60025763D-16  0.14212166D-04  0.73450314D-05
 -0.10940703D-15 -0.56848665D-04 -0.29380126D-04 -0.70670254D-16  0.18836030D-15
  0.29638310D-04  0.15317462D-04 -0.78443508D-17  0.29638310D-04  0.15317462D-04
 -0.28962757D-16 -0.11855324D-03 -0.61269849D-04  0.52495809D-16  0.28537615D-17
 -0.16930919D-17 -0.31677814D-17 -0.54732245D-17 -0.88727352D-17 -0.13473956D-16
 -0.18727215D-16 -0.22263957D-16 -0.19831020D-16 -0.98447122D-17 -0.15861409D-17
 -0.24351487D-19 -0.43515869D-20 -0.16261201D-21 -0.40042673D-16 -0.74793963D-16
 -0.12980855D-15 -0.21062652D-15 -0.32602484D-15 -0.46667494D-15 -0.60915657D-15
 -0.64915798D-15 -0.48525877D-15 -0.25615948D-16  0.32915222D-15  0.19555423D-15
 -0.73318177D-18 -0.27167774D-16 -0.50704736D-16 -0.88120369D-16 -0.14281719D-15
 -0.22181746D-15 -0.31775992D-15 -0.41957236D-15 -0.45368218D-15 -0.35569271D-15
 -0.17699152D-16  0.30491858D-15  0.31564726D-15 -0.14283485D-15 -0.14421431D-15
  0.47624521D-15 -0.23225177D-16 -0.10241385D+02 -0.13490202D+02 -0.14882853D+02
 -0.12361920D+02 -0.65657162D+01 -0.16934897D+01  0.17408499D-02 -0.52928801D+01
 -0.69719110D+01 -0.76916511D+01 -0.63888003D+01 -0.33932471D+01 -0.87521740D+00
  0.89969373D-03  0.30498633D-11  0.40173544D-11  0.44320831D-11  0.36813544D-11
  0.19552568D-11  0.50431776D-12 -0.51842151D-15 -0.12261966D-01 -0.16099062D-01
 -0.18329966D-01 -0.15521063D-01 -0.88910622D-02 -0.20224082D-02  0.94659834D-03
 -0.63371424D-02 -0.83202034D-02 -0.94731637D-02 -0.80214860D-02 -0.45950160D-02
 -0.10452067D-02  0.48921427D-03  0.59903400D-14  0.78648773D-14  0.89547414D-14
  0.75825073D-14  0.43435521D-14  0.98800741D-15 -0.46244184D-15 -0.76010464D-01
 -0.39283191D-01  0.23459541D-13 -0.22149177D-03 -0.11446981D-03 -0.63371809D-17
  0.15643525D-04  0.80847762D-05  0.67599855D-18  0.18799979D-15  0.17921475D-15
 -0.36721454D-15 -0.37310263D-16  0.75538789D-03  0.39039424D-03 -0.67229391D-16
 -0.81378186D-16  0.14860758D-15 -0.12179066D-16 -0.51300697D-03 -0.26512864D-03
  0.12077938D-16 -0.11988593D-16 -0.89344653D-19 -0.37781462D-17  0.13755456D-04
  0.71089978D-05  0.42321376D-04  0.21872235D-04  0.64475109D-16  0.42321376D-04
  0.21872235D-04  0.29085528D-16 -0.16928550D-03 -0.87488939D-04 -0.22251085D-15
 -0.10402006D-15 -0.34065357D-04 -0.17605417D-04 -0.26606394D-16 -0.34065357D-04
 -0.17605417D-04 -0.36567205D-16  0.13626143D-03  0.70421669D-04  0.11638639D-15
  0.23002656D-16
MO    6     MO 0.0        OCC NO =    2.0000000  ORB. ENERGY =   -8.447681
  0.41669088D-16  0.77680655D-16  0.13129399D-15  0.19737788D-15  0.24250153D-15
  0.20483131D-15  0.77254832D-16 -0.38233848D-18 -0.21325271D-16 -0.39927635D-16
 -0.67980216D-16 -0.10515506D-15 -0.13848551D-15 -0.14389532D-15 -0.91439014D-16
  0.61280301D-16 -0.26934497D-16  0.39885238D-15  0.10190120D-15  0.15785753D-03
  0.14800147D-03  0.10538586D-03 -0.30544422D-03 -0.28637338D-03 -0.20391490D-03
 -0.17787516D-15 -0.16676927D-15 -0.11874965D-15 -0.19513593D-03  0.37757556D-03
  0.68749750D-16 -0.19235138D-05  0.37218763D-05  0.16925674D-15 -0.83728623D-06
  0.16200953D-05  0.85405983D-17  0.58793692D-16 -0.48746657D-16 -0.10047034D-16
  0.52918076D-16  0.77131818D-04 -0.14924514D-03 -0.10879931D-15  0.20520170D-16
  0.88279138D-16 -0.59122081D-16 -0.23867740D-03  0.46182550D-03  0.91419239D-17
 -0.19469703D-16  0.10327779D-16  0.65686193D-17  0.48412543D-05 -0.93675176D-05
  0.73450314D-05 -0.14212166D-04  0.16912811D-16  0.73450314D-05 -0.14212166D-04
 -0.74585490D-16 -0.29380126D-04  0.56848665D-04  0.23847058D-16 -0.40641205D-16
  0.15317462D-04 -0.29638310D-04  0.17641387D-17  0.15317462D-04 -0.29638310D-04
  0.22101530D-16 -0.61269849D-04  0.11855324D-03 -0.27393947D-16  0.14463245D-17
  0.87667747D-17  0.16402669D-16  0.28340178D-16  0.45942735D-16  0.69767708D-16
  0.96968909D-16  0.11528204D-15  0.10268438D-15  0.50975600D-16  0.82129859D-17
  0.12609121D-18  0.22532375D-19  0.84199971D-21 -0.28907284D-16 -0.53994655D-16
 -0.93710343D-16 -0.15205380D-15 -0.23536123D-15 -0.33689821D-15 -0.43975741D-15
 -0.46863490D-15 -0.35031410D-15 -0.18492459D-16  0.23761892D-15  0.14117294D-15
 -0.52929268D-18  0.32847959D-17  0.61305982D-17  0.10654440D-16  0.17267713D-16
  0.26819462D-16  0.38419653D-16  0.50729572D-16  0.54853716D-16  0.43006024D-16
  0.21399655D-17 -0.36867036D-16 -0.38164217D-16  0.17269848D-16 -0.11929684D-17
 -0.35968828D-15 -0.21112603D-15 -0.52928801D+01 -0.69719110D+01 -0.76916511D+01
 -0.63888003D+01 -0.33932471D+01 -0.87521740D+00  0.89969373D-03  0.10241385D+02
  0.13490202D+02  0.14882853D+02  0.12361920D+02  0.65657162D+01  0.16934897D+01
 -0.17408499D-02  0.16468944D-12  0.21693295D-12  0.23932786D-12  0.19878930D-12
  0.10558183D-12  0.27232633D-13 -0.27994221D-16 -0.63371424D-02 -0.83202034D-02
 -0.94731637D-02 -0.80214860D-02 -0.45950160D-02 -0.10452067D-02  0.48921427D-03
  0.12261966D-01  0.16099062D-01  0.18329966D-01  0.15521063D-01  0.88910622D-02
  0.20224082D-02 -0.94659834D-03 -0.57841927D-15 -0.75942209D-15 -0.86465792D-15
 -0.73215682D-15 -0.41940761D-15 -0.95400681D-16  0.44652769D-16 -0.39283191D-01
  0.76010464D-01  0.11004103D-14 -0.11446981D-03  0.22149177D-03  0.19414230D-15
  0.80847762D-05 -0.15643525D-04  0.44858091D-17  0.65643405D-16 -0.89435552D-16
  0.23792148D-16  0.27836456D-16  0.39039424D-03 -0.75538789D-03  0.63450329D-16
 -0.52585575D-17 -0.58191772D-16  0.21952055D-16 -0.26512864D-03  0.51300697D-03
 -0.76274928D-17  0.17070729D-16 -0.94432357D-17 -0.57572154D-17  0.71089978D-05
 -0.13755456D-04  0.21872235D-04 -0.42321376D-04  0.29045478D-16  0.21872235D-04
 -0.42321376D-04 -0.97500195D-16 -0.87488939D-04  0.16928550D-03  0.10363760D-16
  0.39616955D-16 -0.17605417D-04  0.34065357D-04  0.32893836D-17 -0.17605417D-04
  0.34065357D-04  0.37838460D-16  0.70421669D-04 -0.13626143D-03 -0.47706610D-16
  0.64863613D-17
MO    7     MO 0.0        OCC NO =    2.0000000  ORB. ENERGY =   -1.587672
  0.28340601D-02  0.52833323D-02  0.89297623D-02  0.13424358D-01  0.16493375D-01
  0.13931292D-01  0.52543706D-02 -0.26004173D-04  0.29703184D-01  0.55613731D-01
  0.94687136D-01  0.14646660D+00  0.19289136D+00  0.20042648D+00  0.12736203D+00
 -0.85355072D-01 -0.37538632D-01 -0.12974501D-01 -0.15869986D-02 -0.61622921D-15
 -0.57775406D-15 -0.41139531D-15 -0.31212422D-16 -0.29263630D-16 -0.20837448D-16
 -0.19962432D+00 -0.18716049D+00 -0.13326942D+00 -0.74777547D-16 -0.59724535D-16
 -0.53832065D-01 -0.57822251D-18  0.25981417D-16 -0.28429299D-02  0.27534213D-18
  0.11866073D-17 -0.95766840D-04  0.18750686D-01  0.18750686D-01 -0.37501372D-01
 -0.82101608D-16  0.71650415D-16 -0.60652763D-17  0.36638430D-02  0.36638430D-02
 -0.73276861D-02  0.39226949D-16  0.25341555D-16 -0.35952584D-17  0.38336431D-05
  0.38336431D-05 -0.76672863D-05  0.33780818D-17  0.12559357D-17  0.89524570D-17
  0.87396263D-18  0.65401426D-17 -0.55483346D-02  0.39439732D-17  0.23334074D-17
  0.83225019D-02 -0.65658611D-17 -0.21953835D-16  0.83225019D-02  0.14337709D-16
 -0.22487907D-17 -0.60088426D-18 -0.35733119D-03 -0.21407454D-17 -0.16084759D-17
  0.53599678D-03  0.88871176D-17  0.34111287D-17  0.53599678D-03  0.58641205D-17
 -0.30656694D-03 -0.57358792D-03 -0.99103285D-03 -0.16065798D-02 -0.24397196D-02
 -0.33909234D-02 -0.40313188D-02 -0.35907887D-02 -0.17825750D-02 -0.28720140D-03
 -0.44093064D-05 -0.78793873D-06 -0.29444041D-07 -0.33969933D-03 -0.63450957D-03
 -0.11012221D-02 -0.17868360D-02 -0.27658099D-02 -0.39590056D-02 -0.51677390D-02
 -0.55070882D-02 -0.41166602D-02 -0.21731118D-03  0.27923408D-02  0.16589712D-02
 -0.62198984D-05 -0.43711571D-01 -0.81581349D-01 -0.14178120D+00 -0.22978562D+00
 -0.35689305D+00 -0.51125959D+00 -0.67507065D+00 -0.72995162D+00 -0.57229153D+00
 -0.28477037D-01  0.49059854D+00  0.50786044D+00 -0.22981403D+00 -0.42555993D-01
 -0.38988264D-01  0.41113198D-02 -0.95010084D-15 -0.12514960D-14 -0.13806933D-14
 -0.11468245D-14 -0.60910635D-15 -0.15710630D-15  0.16149993D-18 -0.63208011D-15
 -0.83259135D-15 -0.91854331D-15 -0.76295580D-15 -0.40522436D-15 -0.10451918D-15
  0.10744217D-18 -0.30219595D+00 -0.39805989D+00 -0.43915331D+00 -0.36476730D+00
 -0.19373678D+00 -0.49970366D-01  0.51367837D-04  0.87585413D-15  0.11499323D-14
  0.13092825D-14  0.11086466D-14  0.63507548D-15  0.14445764D-15 -0.67614125D-16
 -0.27323594D-15 -0.35873876D-15 -0.40845047D-15 -0.34585908D-15 -0.19812140D-15
 -0.45065744D-16  0.21093249D-16 -0.46871774D+00 -0.61539203D+00 -0.70066910D+00
 -0.59329782D+00 -0.33986383D+00 -0.77307231D-01  0.36184039D-01 -0.28689418D-16
 -0.26120611D-16  0.78131424D-01 -0.73548762D-17 -0.23331224D-16 -0.99477515D-03
 -0.19865492D-17  0.12383136D-17 -0.26364939D-03  0.24337085D-01  0.24337085D-01
 -0.48674170D-01  0.46322622D-16 -0.34948405D-16 -0.12034109D-16  0.17739679D-02
  0.17739679D-02 -0.35479358D-02  0.27000947D-18  0.11660960D-16 -0.22491098D-16
 -0.18791512D-03 -0.18791512D-03  0.37583025D-03 -0.29664462D-17  0.26315053D-17
  0.15432076D-16  0.20750618D-17  0.62966573D-17  0.68794052D-02 -0.54788916D-17
 -0.40117597D-17 -0.10319108D-01 -0.74629371D-18 -0.14878212D-16 -0.10319108D-01
 -0.13825914D-16  0.92640735D-18 -0.16121311D-17 -0.36663408D-03  0.19212028D-17
  0.28858796D-17  0.54995113D-03 -0.47004248D-17  0.19505138D-17  0.54995113D-03
  0.47494176D-17
MO    8     MO 0.0        OCC NO =    2.0000000  ORB. ENERGY =   -1.122506
  0.10633157D-02  0.19822622D-02  0.33503723D-02  0.50367070D-02  0.61881766D-02
  0.52269044D-02  0.19713960D-02 -0.97565489D-05 -0.48604876D-01 -0.91003664D-01
 -0.15494152D+00 -0.23967098D+00 -0.31563825D+00 -0.32796836D+00 -0.20840917D+00
  0.13967098D+00  0.67779288D-01  0.39412607D-01  0.16514319D-02 -0.12181655D-16
 -0.11421076D-16 -0.81324863D-17  0.56695481D-16  0.53155617D-16  0.37849966D-16
  0.94182192D-01  0.88301792D-01  0.62876136D-01  0.28342424D-16 -0.51825778D-17
  0.29064249D-01 -0.52920205D-17 -0.21648630D-16  0.61800752D-02 -0.31038554D-17
  0.29506346D-17  0.11055309D-03 -0.10535395D-01 -0.10535395D-01  0.21070790D-01