 Molden2AIM, Version 4.0.0 (06/02/2016)           Time: Wed Jun 27 19:36:37 2018
GAUSSIAN              7 MOL ORBITALS    150 PRIMITIVES        2 NUCLEI
  C    1    (CENTRE  1)   0.00000000  0.00000000 -1.33233251  CHARGE =  6.0
  F    2    (CENTRE  2)   0.00000000  0.00000000  0.84648392  CHARGE =  9.0
CENTRE ASSIGNMENTS    1  1  1  1  1  1  1  1  1  1  1  1  1  1  1  1  1  1  1  1
CENTRE ASSIGNMENTS    1  1  1  1  1  1  1  1  1  1  1  1  1  1  1  1  1  1  1  1
CENTRE ASSIGNMENTS    1  1  1  1  1  1  1  1  1  1  1  1  1  1  1  1  1  1  1  1
CENTRE ASSIGNMENTS    1  1  1  1  1  1  1  1  1  1  1  1  1  1  1  2  2  2  2  2
CENTRE ASSIGNMENTS    2  2  2  2  2  2  2  2  2  2  2  2  2  2  2  2  2  2  2  2
CENTRE ASSIGNMENTS    2  2  2  2  2  2  2  2  2  2  2  2  2  2  2  2  2  2  2  2
CENTRE ASSIGNMENTS    2  2  2  2  2  2  2  2  2  2  2  2  2  2  2  2  2  2  2  2
CENTRE ASSIGNMENTS    2  2  2  2  2  2  2  2  2  2
TYPE ASSIGNMENTS      1  1  1  1  1  1  1  1  1  1  1  1  1  1  1  1  1  1  1  2
TYPE ASSIGNMENTS      2  2  3  3  3  4  4  4  2  3  4  2  3  4  2  3  4  5  6  7
TYPE ASSIGNMENTS      8  9 10  5  6  7  8  9 10  5  6  7  8  9 10 11 12 13 17 14
TYPE ASSIGNMENTS     15 18 19 16 20 11 12 13 17 14 15 18 19 16 20  1  1  1  1  1
TYPE ASSIGNMENTS      1  1  1  1  1  1  1  1  1  1  1  1  1  1  2  2  2  3  3  3
TYPE ASSIGNMENTS      4  4  4  2  3  4  2  3  4  2  3  4  5  6  7  8  9 10  5  6
TYPE ASSIGNMENTS      7  8  9 10  5  6  7  8  9 10 11 12 13 17 14 15 18 19 16 20
TYPE ASSIGNMENTS     11 12 13 17 14 15 18 19 16 20
EXPONENTS  0.8236000D+04 0.1235000D+04 0.2808000D+03 0.7927000D+02 0.2559000D+02
EXPONENTS  0.8997000D+01 0.3319000D+01 0.3643000D+00 0.8236000D+04 0.1235000D+04
EXPONENTS  0.2808000D+03 0.7927000D+02 0.2559000D+02 0.8997000D+01 0.3319000D+01
EXPONENTS  0.3643000D+00 0.9059000D+00 0.1285000D+00 0.4402000D-01 0.1871000D+02
EXPONENTS  0.4133000D+01 0.1200000D+01 0.1871000D+02 0.4133000D+01 0.1200000D+01
EXPONENTS  0.1871000D+02 0.4133000D+01 0.1200000D+01 0.3827000D+00 0.3827000D+00
EXPONENTS  0.3827000D+00 0.1209000D+00 0.1209000D+00 0.1209000D+00 0.3569000D-01
EXPONENTS  0.3569000D-01 0.3569000D-01 0.1097000D+01 0.1097000D+01 0.1097000D+01
EXPONENTS  0.1097000D+01 0.1097000D+01 0.1097000D+01 0.3180000D+00 0.3180000D+00
EXPONENTS  0.3180000D+00 0.3180000D+00 0.3180000D+00 0.3180000D+00 0.1000000D+00
EXPONENTS  0.1000000D+00 0.1000000D+00 0.1000000D+00 0.1000000D+00 0.1000000D+00
EXPONENTS  0.7610000D+00 0.7610000D+00 0.7610000D+00 0.7610000D+00 0.7610000D+00
EXPONENTS  0.7610000D+00 0.7610000D+00 0.7610000D+00 0.7610000D+00 0.7610000D+00
EXPONENTS  0.2680000D+00 0.2680000D+00 0.2680000D+00 0.2680000D+00 0.2680000D+00
EXPONENTS  0.2680000D+00 0.2680000D+00 0.2680000D+00 0.2680000D+00 0.2680000D+00
EXPONENTS  0.1950000D+05 0.2923000D+04 0.6645000D+03 0.1875000D+03 0.6062000D+02
EXPONENTS  0.2142000D+02 0.7950000D+01 0.8815000D+00 0.1950000D+05 0.2923000D+04
EXPONENTS  0.6645000D+03 0.1875000D+03 0.6062000D+02 0.2142000D+02 0.7950000D+01
EXPONENTS  0.8815000D+00 0.2257000D+01 0.3041000D+00 0.9158000D-01 0.4388000D+02
EXPONENTS  0.9926000D+01 0.2930000D+01 0.4388000D+02 0.9926000D+01 0.2930000D+01
EXPONENTS  0.4388000D+02 0.9926000D+01 0.2930000D+01 0.9132000D+00 0.9132000D+00
EXPONENTS  0.9132000D+00 0.2672000D+00 0.2672000D+00 0.2672000D+00 0.7361000D-01
EXPONENTS  0.7361000D-01 0.7361000D-01 0.3107000D+01 0.3107000D+01 0.3107000D+01
EXPONENTS  0.3107000D+01 0.3107000D+01 0.3107000D+01 0.8550000D+00 0.8550000D+00
EXPONENTS  0.8550000D+00 0.8550000D+00 0.8550000D+00 0.8550000D+00 0.2920000D+00
EXPONENTS  0.2920000D+00 0.2920000D+00 0.2920000D+00 0.2920000D+00 0.2920000D+00
EXPONENTS  0.1917000D+01 0.1917000D+01 0.1917000D+01 0.1917000D+01 0.1917000D+01
EXPONENTS  0.1917000D+01 0.1917000D+01 0.1917000D+01 0.1917000D+01 0.1917000D+01
EXPONENTS  0.7240000D+00 0.7240000D+00 0.7240000D+00 0.7240000D+00 0.7240000D+00
EXPONENTS  0.7240000D+00 0.7240000D+00 0.7240000D+00 0.7240000D+00 0.7240000D+00
MO    1     MO 0.0        OCC NO =    2.0000000  ORB. ENERGY =  -26.858830
  0.87795666D-04  0.16367108D-03  0.27663296D-03  0.41586996D-03  0.51094429D-03
  0.43157414D-03  0.16277389D-03 -0.80557704D-06 -0.78405367D-04 -0.14679959D-03
 -0.24993886D-03 -0.38661741D-03 -0.50916152D-03 -0.52905144D-03 -0.33618844D-03
  0.22530567D-03 -0.24766198D-03  0.10575471D-03  0.14423679D-04  0.44756557D-15
  0.41962117D-15  0.29879527D-15  0.14951231D-15  0.14017730D-15  0.99814585D-16
  0.37902923D-03  0.35536400D-03  0.25304034D-03 -0.56064480D-16  0.87703592D-16
  0.70098595D-03 -0.35382824D-16 -0.22746255D-16  0.49271272D-04 -0.11221558D-17
 -0.98852055D-17  0.16775235D-05 -0.53518805D-03 -0.53518805D-03  0.10703761D-02
 -0.12501268D-15  0.98003493D-16 -0.28939686D-15 -0.14396969D-03 -0.14396969D-03
  0.28793938D-03  0.24710948D-16 -0.91965000D-16  0.37720863D-16 -0.43495682D-06
 -0.43495682D-06  0.86991365D-06  0.98407339D-18  0.27258695D-17 -0.72929773D-17
  0.11316858D-16 -0.10439069D-16  0.28585519D-03  0.11410687D-16 -0.50139486D-17
 -0.42878278D-03 -0.45361261D-16  0.36331156D-16 -0.42878278D-03 -0.24713768D-16
  0.12294842D-17  0.15965184D-17  0.36191391D-04  0.12256098D-17  0.15434858D-17
 -0.54287086D-04 -0.49140625D-17 -0.63330409D-17 -0.54287086D-04  0.10287849D-16
  0.59552304D+00  0.11100807D+01  0.18818598D+01  0.28496903D+01  0.35635477D+01
  0.30678827D+01  0.11794061D+01 -0.51105597D-02  0.45721511D-03  0.85856900D-03
  0.14619949D-02  0.22902064D-02  0.30691460D-02  0.33012804D-02  0.19820844D-02
 -0.13035021D-02  0.57527672D-01  0.49615713D-03 -0.74444362D-04  0.16425620D-15
  0.16063898D-15  0.10614097D-15 -0.10400246D-15 -0.10171213D-15 -0.67205506D-16
 -0.11331963D-01 -0.11082412D-01 -0.73226185D-02  0.50944903D-16 -0.14152143D-16
  0.23950644D-02  0.44526772D-16 -0.18712570D-16 -0.19537691D-03  0.82201710D-17
  0.18116935D-16 -0.16543040D-05 -0.75390383D-03 -0.75390383D-03  0.15078077D-02
 -0.24913340D-16  0.22852671D-16  0.23117158D-15  0.35023184D-03  0.35023184D-03
 -0.70046368D-03  0.56775683D-17  0.25423279D-16 -0.65711043D-16 -0.54885341D-04
 -0.54885341D-04  0.10977068D-03 -0.20795526D-16 -0.88196559D-16 -0.31408063D-17
 -0.72087054D-17 -0.10191402D-16  0.53151543D-03 -0.78459387D-17 -0.13300218D-16
 -0.79727314D-03  0.29472055D-16  0.43874425D-16 -0.79727314D-03  0.23774209D-16
 -0.14159032D-16  0.27862393D-17 -0.32873327D-04 -0.14372198D-16  0.64788050D-17
  0.49309990D-04  0.56849293D-16 -0.14837523D-16  0.49309990D-04 -0.20527329D-16
MO    2     MO 0.0        OCC NO =    2.0000000  ORB. ENERGY =  -11.880236
  0.32737633D+00  0.61030392D+00  0.10315211D+01  0.15507142D+01  0.19052315D+01
  0.16092726D+01  0.60695841D+00 -0.30038710D-02 -0.11913337D-03 -0.22305525D-03
 -0.37977065D-03 -0.58744745D-03 -0.77364762D-03 -0.80386944D-03 -0.51082294D-03
  0.34234166D-03  0.26878136D-01 -0.11246111D-03 -0.43106207D-04  0.36877712D-17
  0.34575199D-17  0.24619601D-17  0.14409406D-16  0.13509734D-16  0.96197356D-17
  0.11801210D-01  0.11064384D-01  0.78785006D-02 -0.14071576D-17  0.39807400D-18
 -0.13279950D-02 -0.51589261D-18 -0.40137399D-18 -0.25929117D-03  0.36491924D-19
 -0.37391028D-20 -0.16256539D-05 -0.15149982D-02 -0.15149982D-02  0.30299963D-02
  0.16810781D-17  0.94496755D-20  0.60073400D-17  0.27071690D-03  0.27071690D-03
 -0.54143380D-03  0.29865834D-20 -0.18317378D-18 -0.12645487D-17  0.11892657D-04
  0.11892657D-04 -0.23785313D-04 -0.13526642D-19 -0.43518499D-19 -0.12644225D-18
  0.50692275D-19 -0.78772131D-19  0.19009637D-03  0.26168855D-18  0.38346572D-18
 -0.28514455D-03 -0.41376538D-18 -0.14714933D-18 -0.28514455D-03 -0.15104126D-18
  0.39314957D-19  0.77457436D-19 -0.81327868D-04  0.29876195D-19  0.54766285D-19
  0.12199180D-03 -0.14782107D-18 -0.28713859D-18  0.12199180D-03 -0.95695013D-19
  0.21179227D-03  0.39478997D-03  0.66926606D-03  0.10134661D-02  0.12673429D-02
  0.10910642D-02  0.41944489D-03 -0.18175234D-05 -0.37198506D-03 -0.69852206D-03
 -0.11894626D-02 -0.18632861D-02 -0.24970226D-02 -0.26858845D-02 -0.16126015D-02
  0.10605146D-02  0.44617336D-03  0.11365503D-02  0.54453791D-04 -0.46410971D-16
 -0.45388916D-16 -0.29990376D-16  0.10066235D-15  0.98445579D-16  0.65047156D-16
 -0.39989544D-02 -0.39108900D-02 -0.25840904D-02 -0.10813334D-16  0.23359347D-16
 -0.10052150D-02 -0.83007813D-18  0.47984824D-17  0.27073292D-03  0.50287806D-19
  0.17282234D-18  0.35979442D-04 -0.16026992D-02 -0.16026992D-02  0.32053985D-02
  0.86071638D-19  0.26191027D-17 -0.53592410D-17  0.57318400D-03  0.57318400D-03
 -0.11463680D-02  0.27465348D-18  0.99393812D-18 -0.33372274D-17  0.12751076D-03
  0.12751076D-03 -0.25502152D-03 -0.64698631D-19 -0.39826322D-18 -0.12941165D-17
  0.39351209D-18 -0.20828027D-18 -0.17097305D-02  0.47067306D-18 -0.17990166D-18
  0.25645958D-02 -0.16512093D-17  0.80474247D-18  0.25645958D-02  0.32201132D-18
  0.74097027D-20 -0.45257132D-18  0.89956220D-03 -0.58355860D-19 -0.46065713D-18
 -0.13493433D-02  0.36126751D-19  0.18183711D-17 -0.13493433D-02 -0.42214049D-18
MO    3     MO 0.0        OCC NO =    2.0000000  ORB. ENERGY =   -2.224344
  0.61484812D-02  0.11462167D-01  0.19373081D-01  0.29124087D-01  0.35782306D-01
  0.30223878D-01  0.11399335D-01 -0.56415944D-04  0.20076434D-01  0.37589419D-01
  0.63999202D-01  0.98997035D-01  0.13037561D+00  0.13546861D+00  0.86084222D-01
 -0.57691643D-01 -0.27169767D-01 -0.29053836D-02  0.77774067D-05 -0.28661440D-15
 -0.26871922D-15 -0.19134409D-15  0.40390104D-15  0.37868290D-15  0.26964478D-15
 -0.20347348D+00 -0.19076932D+00 -0.13583912D+00  0.73173299D-17  0.38133781D-16
 -0.45690078D-01  0.39303164D-16 -0.52932890D-17  0.22819342D-03 -0.22942463D-17
 -0.35188768D-17  0.23663371D-04  0.24050877D-01  0.24050877D-01 -0.48101754D-01
  0.10782600D-15 -0.60494269D-16  0.15168222D-15  0.34942964D-02  0.34942964D-02
 -0.69885928D-02 -0.45368892D-16  0.64903164D-16 -0.55395022D-17 -0.11386985D-03
 -0.11386985D-03  0.22773970D-03 -0.18971392D-17  0.61109286D-17 -0.11095241D-16
 -0.50942449D-17  0.15039022D-17 -0.66376223D-02 -0.89045247D-17 -0.65803358D-17
  0.99564334D-02  0.24187259D-16  0.20686291D-17  0.99564334D-02  0.59613064D-17
 -0.44199647D-17 -0.88249363D-18 -0.31452677D-03 -0.39466373D-17 -0.99633898D-18
  0.47179016D-03  0.17206531D-16  0.36438199D-17  0.47179016D-03 -0.46071968D-17
  0.72727996D-03  0.13556813D-02  0.22982132D-02  0.34801721D-02  0.43519674D-02
  0.37466385D-02  0.14403446D-02 -0.62412491D-05  0.12443376D+00  0.23366456D+00
  0.39789045D+00  0.62329303D+00  0.83528599D+00  0.89846270D+00  0.53943583D+00
 -0.35475570D+00 -0.19682348D+00 -0.63745564D-01  0.10165526D-02 -0.12580865D-15
 -0.12303812D-15 -0.81296485D-16  0.18094932D-15  0.17696448D-15  0.11692792D-15
  0.47413343D+00  0.46369214D+00  0.30638100D+00 -0.41991564D-16  0.61529694D-16
  0.11605402D+00 -0.81848276D-16 -0.95387281D-17  0.28285676D-04 -0.84532288D-17
  0.13111626D-16 -0.36202465D-03  0.31462336D-01  0.31462336D-01 -0.62924671D-01
 -0.16971078D-16  0.26227275D-16 -0.38726416D-15  0.11314586D-01  0.11314586D-01
 -0.22629172D-01 -0.34754927D-16  0.31081197D-16  0.45772072D-16 -0.62704262D-03
 -0.62704262D-03  0.12540852D-02  0.12933518D-16  0.63431313D-16 -0.20572681D-16
 -0.15761888D-16 -0.18827187D-16  0.17054775D-01 -0.22503930D-16 -0.19913541D-16
 -0.25582163D-01  0.69789594D-16  0.76395104D-16 -0.25582163D-01  0.46319894D-16
  0.12068724D-16 -0.88124769D-18  0.25518109D-02  0.18656046D-16 -0.47641867D-17
 -0.38277164D-02 -0.54862220D-16  0.74079297D-17 -0.38277164D-02 -0.40481058D-16
MO    4     MO 0.0        OCC NO =    2.0000000  ORB. ENERGY =   -1.374777
  0.12359110D-02  0.23040191D-02  0.38941982D-02  0.58542555D-02  0.71926293D-02
  0.60753253D-02  0.22913892D-02 -0.11340213D-04  0.37710622D-01  0.70606183D-01
  0.12021307D+00  0.18595134D+00  0.24489137D+00  0.25445782D+00  0.16169652D+00
 -0.10836525D+00 -0.56994827D-01 -0.16186252D-01  0.21454564D-03 -0.89545636D-16
 -0.83954726D-16 -0.59780766D-16 -0.22309585D-15 -0.20916654D-15 -0.14893904D-15
 -0.22235109D+00 -0.20846828D+00 -0.14844184D+00 -0.61982727D-16  0.16400303D-16
 -0.56439522D-01 -0.34434934D-16 -0.28246468D-16 -0.19221844D-02  0.12502229D-17
  0.23767788D-17  0.79335312D-04  0.18034379D-01  0.18034379D-01 -0.36068757D-01
 -0.77786266D-17  0.15083840D-15 -0.10432656D-15  0.38021089D-02  0.38021089D-02
 -0.76042179D-02 -0.91839010D-17 -0.59213881D-16 -0.70452671D-17 -0.75363620D-06
 -0.75363620D-06  0.15072724D-05  0.74818963D-17 -0.56627495D-18  0.54460279D-17
  0.29044534D-17  0.48742971D-17 -0.37386692D-02  0.13921411D-17  0.30122444D-17
  0.56080038D-02 -0.10105501D-16 -0.17635136D-16  0.56080038D-02 -0.42690900D-16
  0.30134256D-17  0.16377584D-17 -0.38016087D-03  0.29708513D-17  0.18426310D-17
  0.57024130D-03 -0.12011128D-16 -0.67559063D-17  0.57024130D-03  0.11405394D-16
  0.37155141D-02  0.69258793D-02  0.11741068D-01  0.17779437D-01  0.22233249D-01
  0.19140756D-01  0.73584055D-02 -0.31885176D-04 -0.56584580D-01 -0.10625582D+00
 -0.18093534D+00 -0.28343413D+00 -0.37983509D+00 -0.40856385D+00 -0.24530120D+00
  0.16132039D+00  0.10138485D+00  0.89883318D-01  0.38913495D-02  0.24602863D-14
  0.24061063D-14  0.15898161D-14 -0.12710394D-14 -0.12430488D-14 -0.82133487D-15
  0.21359910D+01  0.20889525D+01  0.13802593D+01  0.59726363D-15 -0.31125182D-15
  0.48722721D+00  0.12121378D-15 -0.22146789D-17  0.34923287D-01  0.26776551D-17
 -0.33405103D-17 -0.59148368D-03  0.58158523D-01  0.58158523D-01 -0.11631705D+00
  0.15794830D-16 -0.86811207D-16  0.44636656D-15  0.17338620D-01  0.17338620D-01
 -0.34677241D-01  0.34251230D-16 -0.12190922D-15 -0.75458617D-16 -0.24427694D-03
 -0.24427694D-03  0.48855388D-03 -0.66935496D-17 -0.37202368D-16  0.48784813D-17
  0.12618188D-16  0.30965254D-16  0.26075913D-01  0.15347793D-16  0.31015520D-16
 -0.39113870D-01 -0.53202357D-16 -0.12391128D-15 -0.39113870D-01 -0.80473758D-17
 -0.14499101D-16 -0.34382603D-17  0.33549883D-02 -0.15999966D-16 -0.32646077D-17
 -0.50324825D-02  0.59497270D-16  0.13579389D-16 -0.50324825D-02  0.56098559D-16
MO    5     MO 0.0        OCC NO =    2.0000000  ORB. ENERGY =   -1.200601
  0.25871949D-16  0.48231196D-16  0.81519218D-16  0.12255009D-15  0.15056694D-15
  0.12717785D-15  0.47966807D-16 -0.23739040D-18  0.14111575D-16  0.26421320D-16
  0.44984559D-16  0.69584272D-16  0.91640038D-16  0.95219870D-16  0.60507953D-16
 -0.40551023D-16 -0.63682240D-16 -0.18702485D-15 -0.62582167D-16 -0.23756012D+00
 -0.22272772D+00 -0.15859540D+00  0.22148705D-01  0.20765819D-01  0.14786500D-01
 -0.24818591D-15 -0.23269006D-15 -0.16568919D-15 -0.57857985D-01  0.53943373D-02
 -0.13329177D-15 -0.18433352D-02  0.17186171D-03 -0.88112968D-16 -0.10867329D-04
  0.10132057D-05 -0.35213047D-17  0.12229915D-15 -0.91489600D-16 -0.30809549D-16
  0.15313519D-15 -0.92878128D-01  0.86594090D-02  0.27693141D-16 -0.72700808D-17
 -0.20423061D-16 -0.65607349D-16 -0.15475327D-01  0.14428282D-02  0.69651528D-17
  0.31925322D-17 -0.10157685D-16  0.27449158D-16  0.33576962D-03 -0.31305180D-04
  0.53877243D-02 -0.50231964D-03 -0.13215650D-16  0.53877243D-02 -0.50231964D-03
  0.86052863D-17 -0.21550897D-01  0.20092786D-02  0.31041663D-16 -0.29276894D-15
  0.36807067D-03 -0.34316738D-04 -0.39416602D-17  0.36807067D-03 -0.34316738D-04
  0.15490162D-16 -0.14722827D-02  0.13726695D-03 -0.36651812D-17 -0.60906836D-16
 -0.61464045D-18 -0.11457164D-17 -0.19422710D-17 -0.29411707D-17 -0.36779443D-17
 -0.31663675D-17 -0.12172672D-17  0.52746182D-20 -0.67639365D-16 -0.12701475D-15
 -0.21628421D-15 -0.33880794D-15 -0.45404249D-15 -0.48838392D-15 -0.29322506D-15
  0.19283714D-15  0.14860327D-15  0.24515719D-15  0.18158229D-15 -0.24575473D+01
 -0.24034276D+01 -0.15880462D+01  0.22912722D+00  0.22408141D+00  0.14806006D+00
  0.16258091D-14  0.15900058D-14  0.10505841D-14 -0.58455820D+00  0.54500759D-01
  0.32534440D-15 -0.67973896D-01  0.63374852D-02 -0.27285019D-16 -0.10893446D-03
  0.10156407D-04 -0.13893886D-16 -0.24535189D-15  0.32329381D-15 -0.77941918D-16
 -0.59115260D-15  0.15927812D+00 -0.14850153D-01  0.27172569D-16 -0.30718984D-16
  0.35464143D-17 -0.62760972D-16  0.63213036D-01 -0.58936107D-02 -0.25898811D-16
  0.41003408D-16 -0.15104597D-16 -0.24622872D-16  0.29392698D-02 -0.27404018D-03
  0.16944296D-01 -0.15797863D-02 -0.10148970D-16  0.16944296D-01 -0.15797863D-02
 -0.54832848D-16 -0.67777185D-01  0.63191450D-02  0.85279759D-16  0.31322506D-15
  0.20774974D-02 -0.19369360D-03 -0.26293298D-16  0.20774974D-02 -0.19369360D-03
  0.11575513D-15 -0.83099894D-02  0.77477441D-03 -0.36875234D-16 -0.67321045D-16
MO    6     MO 0.0        OCC NO =    2.0000000  ORB. ENERGY =   -1.200601
 -0.86953428D-17 -0.16210096D-16 -0.27397918D-16 -0.41188045D-16 -0.50604272D-16
 -0.42743398D-16 -0.16121237D-16  0.79784902D-19 -0.15740902D-16 -0.29471935D-16
 -0.50178491D-16 -0.77618496D-16 -0.10222083D-15 -0.10621399D-15 -0.67494222D-16
  0.45233058D-16  0.40676728D-16  0.10577976D-15  0.23885834D-16 -0.22148705D-01
 -0.20765819D-01 -0.14786500D-01 -0.23756012D+00 -0.22272772D+00 -0.15859540D+00
  0.14763394D-15  0.13841621D-15  0.98560584D-16 -0.53943373D-02 -0.57857985D-01
 -0.74422077D-17 -0.17186171D-03 -0.18433352D-02  0.35866522D-16 -0.10132057D-05
 -0.10867329D-04  0.44025865D-17  0.52783006D-16 -0.89832122D-19 -0.52693174D-16
 -0.11911732D-15 -0.86594090D-02 -0.92878128D-01 -0.53609253D-17  0.23004386D-16
 -0.17643461D-16 -0.79189935D-16 -0.14428282D-02 -0.15475327D-01 -0.25541468D-17
 -0.20167479D-17  0.45708948D-17  0.26793878D-16  0.31305180D-04  0.33576962D-03
  0.50231964D-03  0.53877243D-02 -0.13180071D-16  0.50231964D-03  0.53877243D-02
  0.61257741D-16 -0.20092786D-02 -0.21550897D-01 -0.21717528D-16  0.37640035D-15
  0.34316738D-04  0.36807067D-03  0.83209230D-17  0.34316738D-04  0.36807067D-03
 -0.29147914D-16 -0.13726695D-03 -0.14722827D-02  0.41851451D-17  0.16660578D-17
  0.63363030D-17  0.11811143D-16  0.20022792D-16  0.30320408D-16  0.37915776D-16
  0.32641951D-16  0.12548758D-16 -0.54375822D-19  0.36826039D-16  0.69152779D-16
  0.11775526D-15  0.18446291D-15  0.24720200D-15  0.26589908D-15  0.15964546D-15
 -0.10498957D-15 -0.81747694D-16 -0.99746391D-16 -0.87519580D-16 -0.22912722D+00
 -0.22408141D+00 -0.14806006D+00 -0.24575473D+01 -0.24034276D+01 -0.15880462D+01
 -0.98061120D-15 -0.95901633D-15 -0.63366264D-15 -0.54500759D-01 -0.58455820D+00
 -0.21837433D-15 -0.63374852D-02 -0.67973896D-01  0.12702479D-16 -0.10156407D-04
 -0.10893446D-03  0.51826916D-17  0.26457461D-15 -0.13106982D-15 -0.13350479D-15
 -0.23481319D-15  0.14850153D-01  0.15927812D+00 -0.96599471D-16  0.22957245D-16
  0.73642226D-16  0.89723872D-16  0.58936107D-02  0.63213036D-01  0.11557385D-16
  0.42051956D-17 -0.15762581D-16  0.18221851D-16  0.27404018D-03  0.29392698D-02
  0.15797863D-02  0.16944296D-01 -0.55814452D-16  0.15797863D-02  0.16944296D-01
  0.14178032D-15 -0.63191450D-02 -0.67777185D-01  0.25663041D-16  0.13265567D-15
  0.19369360D-03  0.20774974D-02  0.16654738D-16  0.19369360D-03  0.20774974D-02
 -0.60726195D-16 -0.77477441D-03 -0.83099894D-02  0.10761981D-16  0.29119737D-16
MO    7     MO 0.0        OCC NO =    2.0000000  ORB. ENERGY =   -0.973119
  0.43527262D-02  0.81144712D-02  0.13714886D-01  0.20617966D-01  0.25331553D-01
  0.21396546D-01  0.80699900D-02 -0.39938831D-04 -0.57911592D-01 -0.10842877D+00
 -0.18460926D+00 -0.28556246D+00 -0.37607572D+00 -0.39076676D+00 -0.24831473D+00
  0.16641476D+00  0.85038501D-01  0.51363479D-01 -0.59484340D-04 -0.51183125D-15
 -0.47987433D-15 -0.34169911D-15  0.93549760D-16  0.87708847D-16  0.62453924D-16
 -0.51555443D+00 -0.48336505D+00 -0.34418471D+00 -0.10235938D-15  0.20813173D-16
 -0.12588558D+00 -0.22665179D-16 -0.40213512D-16 -0.53907764D-02 -0.49615000D-18
 -0.10423808D-17  0.10541596D-03  0.23751728D-01  0.23751728D-01 -0.47503456D-01
  0.30942504D-16  0.33281683D-16  0.43658984D-16  0.37287085D-02  0.37287085D-02
 -0.74574170D-02 -0.28734528D-16 -0.11860919D-16 -0.17954445D-16 -0.92782112D-04
 -0.92782112D-04  0.18556422D-03  0.16049624D-17 -0.28060792D-17 -0.12795553D-16
 -0.14270360D-17  0.32460634D-17 -0.27182341D-02  0.12710588D-17  0.15464157D-18
  0.40773511D-02  0.30100493D-17 -0.98928317D-17  0.40773511D-02 -0.15587785D-16
  0.10982836D-17  0.12399012D-17 -0.34852709D-04  0.10045908D-17  0.40996435D-18
  0.52279063D-04 -0.42994416D-17 -0.41296681D-17  0.52279063D-04 -0.72415160D-18
 -0.26213377D-02 -0.48862870D-02 -0.82834577D-02 -0.12543596D-01 -0.15685811D-01
 -0.13504022D-01 -0.51914391D-02  0.22495356D-04  0.11971167D-01  0.22479731D-01
  0.38279104D-01  0.59963990D-01  0.80358802D-01  0.86436726D-01  0.51896497D-01
 -0.34129320D-01 -0.18798515D-01  0.33589109D-02 -0.17644681D-02  0.53296934D-15
  0.52123238D-15  0.34440027D-15  0.41303083D-15  0.40393513D-15  0.26689702D-15
  0.87786338D+00  0.85853121D+00  0.56726787D+00  0.12026696D-15  0.96606494D-16
  0.20622383D+00  0.42160056D-16  0.45496319D-16  0.14327069D-01  0.70830335D-17
  0.19263388D-16  0.42885792D-03  0.20802732D-01  0.20802732D-01 -0.41605463D-01
 -0.18746728D-16  0.38942836D-16 -0.42463836D-16  0.60503310D-02  0.60503310D-02
 -0.12100662D-01  0.33415755D-17 -0.22158913D-16 -0.27958715D-16 -0.11695855D-02
 -0.11695855D-02  0.23391710D-02 -0.20082562D-17 -0.61129355D-17 -0.27960538D-16
  0.54071049D-17  0.33408045D-17  0.95278670D-02  0.59317690D-17  0.31869000D-17
 -0.14291801D-01 -0.22153084D-16 -0.13209314D-16 -0.14291801D-01  0.26476212D-16
 -0.32258454D-17 -0.72251758D-17  0.40192640D-03 -0.37592184D-17 -0.69263398D-17
 -0.60288960D-03  0.13436755D-16  0.28601867D-16 -0.60288960D-03 -0.24430362D-17
END DATA
RHF
