 Molden2AIM, Version 4.0.0 (06/02/2016)           Time: Sun Jun 24 19:46:33 2018
GAUSSIAN             13 MOL ORBITALS    233 PRIMITIVES        2 NUCLEI
  Cl   1    (CENTRE  1)  -0.39513228  2.73230587  0.75452040  CHARGE = 17.0
  O    2    (CENTRE  2)   2.42815634  4.09130619  0.83453140  CHARGE =  8.0
CENTRE ASSIGNMENTS    1  1  1  1  1  1  1  1  1  1  1  1  1  1  1  1  1  1  1  1
CENTRE ASSIGNMENTS    1  1  1  1  1  1  1  1  1  1  1  1  1  1  1  1  1  1  1  1
CENTRE ASSIGNMENTS    1  1  1  1  1  1  1  1  1  1  1  1  1  1  1  1  1  1  1  1
CENTRE ASSIGNMENTS    1  1  1  1  1  1  1  1  1  1  1  1  1  1  1  1  1  1  1  1
CENTRE ASSIGNMENTS    1  1  1  1  1  1  1  1  1  1  1  1  1  1  1  1  1  1  1  1
CENTRE ASSIGNMENTS    1  1  1  1  1  1  1  1  1  1  1  1  1  1  1  1  1  1  1  1
CENTRE ASSIGNMENTS    1  1  1  1  1  1  1  1  1  1  1  2  2  2  2  2  2  2  2  2
CENTRE ASSIGNMENTS    2  2  2  2  2  2  2  2  2  2  2  2  2  2  2  2  2  2  2  2
CENTRE ASSIGNMENTS    2  2  2  2  2  2  2  2  2  2  2  2  2  2  2  2  2  2  2  2
CENTRE ASSIGNMENTS    2  2  2  2  2  2  2  2  2  2  2  2  2  2  2  2  2  2  2  2
CENTRE ASSIGNMENTS    2  2  2  2  2  2  2  2  2  2  2  2  2  2  2  2  2  2  2  2
CENTRE ASSIGNMENTS    2  2  2  2  2  2  2  2  2  2  2  2  2
TYPE ASSIGNMENTS      1  1  1  1  1  1  1  1  1  1  1  1  1  1  1  1  1  1  1  1
TYPE ASSIGNMENTS      1  2  2  2  2  2  2  2  2  3  3  3  3  3  3  3  3  4  4  4
TYPE ASSIGNMENTS      4  4  4  4  4  2  2  3  3  4  4  2  3  4  2  3  4  2  3  4
TYPE ASSIGNMENTS      2  3  4  2  3  4  5  6  7  8  9 10  5  6  7  8  9 10  5  6
TYPE ASSIGNMENTS      7  8  9 10  5  6  7  8  9 10  5  6  7  8  9 10 11 12 13 17
TYPE ASSIGNMENTS     14 15 18 19 16 20 11 12 13 17 14 15 18 19 16 20 21 22 23 24
TYPE ASSIGNMENTS     25 26 27 28 29 30 31 32 33 34 35  1  1  1  1  1  1  1  1  1
TYPE ASSIGNMENTS      1  1  1  1  1  1  1  2  2  2  2  2  3  3  3  3  3  4  4  4
TYPE ASSIGNMENTS      4  4  2  3  4  2  3  4  2  3  4  2  3  4  5  6  7  8  9 10
TYPE ASSIGNMENTS      5  6  7  8  9 10  5  6  7  8  9 10  5  6  7  8  9 10 11 12
TYPE ASSIGNMENTS     13 17 14 15 18 19 16 20 11 12 13 17 14 15 18 19 16 20 21 22
TYPE ASSIGNMENTS     23 24 25 26 27 28 29 30 31 32 33 34 35
EXPONENTS  0.1467459D+07 0.2197562D+06 0.5001077D+05 0.1416482D+05 0.4620747D+04
EXPONENTS  0.1667899D+04 0.6502920D+03 0.2693804D+03 0.1170675D+03 0.5281177D+02
EXPONENTS  0.4614277D+03 0.1421267D+03 0.5443784D+02 0.2416077D+02 0.9708354D+01
EXPONENTS  0.4564070D+01 0.2119474D+01 0.7572237D+00 0.3374722D+00 0.1386078D+00
EXPONENTS  0.5423457D-01 0.2501946D+04 0.5928806D+03 0.1921809D+03 0.7287571D+02
EXPONENTS  0.3043636D+02 0.1349018D+02 0.6147807D+01 0.2845094D+01 0.2501946D+04
EXPONENTS  0.5928806D+03 0.1921809D+03 0.7287571D+02 0.3043636D+02 0.1349018D+02
EXPONENTS  0.6147807D+01 0.2845094D+01 0.2501946D+04 0.5928806D+03 0.1921809D+03
EXPONENTS  0.7287571D+02 0.3043636D+02 0.1349018D+02 0.6147807D+01 0.2845094D+01
EXPONENTS  0.1053940D+03 0.6736974D+01 0.1053940D+03 0.6736974D+01 0.1053940D+03
EXPONENTS  0.6736974D+01 0.1242110D+01 0.1242110D+01 0.1242110D+01 0.5566971D+00
EXPONENTS  0.5566971D+00 0.5566971D+00 0.2338780D+00 0.2338780D+00 0.2338780D+00
EXPONENTS  0.9316449D-01 0.9316449D-01 0.9316449D-01 0.2725615D-01 0.2725615D-01
EXPONENTS  0.2725615D-01 0.5191000D+01 0.5191000D+01 0.5191000D+01 0.5191000D+01
EXPONENTS  0.5191000D+01 0.5191000D+01 0.1276000D+01 0.1276000D+01 0.1276000D+01
EXPONENTS  0.1276000D+01 0.1276000D+01 0.1276000D+01 0.5830000D+00 0.5830000D+00
EXPONENTS  0.5830000D+00 0.5830000D+00 0.5830000D+00 0.5830000D+00 0.2430000D+00
EXPONENTS  0.2430000D+00 0.2430000D+00 0.2430000D+00 0.2430000D+00 0.2430000D+00
EXPONENTS  0.8345654D-01 0.8345654D-01 0.8345654D-01 0.8345654D-01 0.8345654D-01
EXPONENTS  0.8345654D-01 0.4230000D+00 0.4230000D+00 0.4230000D+00 0.4230000D+00
EXPONENTS  0.4230000D+00 0.4230000D+00 0.4230000D+00 0.4230000D+00 0.4230000D+00
EXPONENTS  0.4230000D+00 0.1089000D+01 0.1089000D+01 0.1089000D+01 0.1089000D+01
EXPONENTS  0.1089000D+01 0.1089000D+01 0.1089000D+01 0.1089000D+01 0.1089000D+01
EXPONENTS  0.1089000D+01 0.8270000D+00 0.8270000D+00 0.8270000D+00 0.8270000D+00
EXPONENTS  0.8270000D+00 0.8270000D+00 0.8270000D+00 0.8270000D+00 0.8270000D+00
EXPONENTS  0.8270000D+00 0.8270000D+00 0.8270000D+00 0.8270000D+00 0.8270000D+00
EXPONENTS  0.8270000D+00 0.1165065D+06 0.1750435D+05 0.3993451D+04 0.1133006D+04
EXPONENTS  0.3699957D+03 0.1336207D+03 0.5203564D+02 0.2146194D+02 0.8983505D+02
EXPONENTS  0.2642801D+02 0.9282282D+01 0.4094773D+01 0.1325535D+01 0.5187723D+00
EXPONENTS  0.1977268D+00 0.6963854D-01 0.1911526D+03 0.4523336D+02 0.1435347D+02
EXPONENTS  0.5242237D+01 0.2079242D+01 0.1911526D+03 0.4523336D+02 0.1435347D+02
EXPONENTS  0.5242237D+01 0.2079242D+01 0.1911526D+03 0.4523336D+02 0.1435347D+02
EXPONENTS  0.5242237D+01 0.2079242D+01 0.8428237D+00 0.8428237D+00 0.8428237D+00
EXPONENTS  0.3361769D+00 0.3361769D+00 0.3361769D+00 0.1286400D+00 0.1286400D+00
EXPONENTS  0.1286400D+00 0.4359816D-01 0.4359816D-01 0.4359816D-01 0.3775000D+01
EXPONENTS  0.3775000D+01 0.3775000D+01 0.3775000D+01 0.3775000D+01 0.3775000D+01
EXPONENTS  0.1300000D+01 0.1300000D+01 0.1300000D+01 0.1300000D+01 0.1300000D+01
EXPONENTS  0.1300000D+01 0.4440000D+00 0.4440000D+00 0.4440000D+00 0.4440000D+00
EXPONENTS  0.4440000D+00 0.4440000D+00 0.1254638D+00 0.1254638D+00 0.1254638D+00
EXPONENTS  0.1254638D+00 0.1254638D+00 0.1254638D+00 0.2666000D+01 0.2666000D+01
EXPONENTS  0.2666000D+01 0.2666000D+01 0.2666000D+01 0.2666000D+01 0.2666000D+01
EXPONENTS  0.2666000D+01 0.2666000D+01 0.2666000D+01 0.8590000D+00 0.8590000D+00
EXPONENTS  0.8590000D+00 0.8590000D+00 0.8590000D+00 0.8590000D+00 0.8590000D+00
EXPONENTS  0.8590000D+00 0.8590000D+00 0.8590000D+00 0.1846000D+01 0.1846000D+01
EXPONENTS  0.1846000D+01 0.1846000D+01 0.1846000D+01 0.1846000D+01 0.1846000D+01
EXPONENTS  0.1846000D+01 0.1846000D+01 0.1846000D+01 0.1846000D+01 0.1846000D+01
EXPONENTS  0.1846000D+01 0.1846000D+01 0.1846000D+01
MO    1     MO 0.0        OCC NO =    2.0000000  ORB. ENERGY = -104.610266
  0.34406773D+00  0.64391883D+00  0.11153641D+01  0.18242846D+01  0.28457522D+01
  0.42219560D+01  0.58557401D+01  0.72475319D+01  0.73345485D+01  0.50625917D+01
  0.23615245D-02  0.89348161D-02  0.16855527D-01  0.17075187D+01  0.12349389D+00
 -0.71125650D-02  0.23484911D-02 -0.50631728D-03  0.16910326D-03 -0.22298844D-05
 -0.39254569D-05  0.10910406D-02  0.15685301D-02  0.20806562D-02  0.24346521D-02
  0.23996381D-02  0.18078749D-02  0.94416601D-03  0.27133817D-03  0.52517637D-03
  0.75501772D-03  0.10015315D-02  0.11719287D-02  0.11550746D-02  0.87022719D-03
  0.45447777D-03  0.13060962D-03  0.30919705D-04  0.44451590D-04  0.58965064D-04
  0.68997181D-04  0.68004897D-04  0.51234536D-04  0.26757332D-04  0.76896281D-05
  0.32226608D-02 -0.19338617D-02  0.15512396D-02 -0.93087142D-03  0.91329072D-04
 -0.54804959D-04 -0.97092169D-04 -0.46735671D-04 -0.27515578D-05  0.66653788D-05
  0.32084045D-05  0.18889448D-06  0.49658484D-04  0.23903293D-04  0.14073039D-05
 -0.35086760D-05 -0.16889141D-05 -0.99434642D-07 -0.10388797D-06 -0.50006857D-07
 -0.29441486D-08 -0.14811582D-04  0.45034063D-05  0.10308175D-04 -0.24202412D-04
 -0.14249145D-05 -0.68588782D-06 -0.19646686D-04  0.59735018D-05  0.13673184D-04
 -0.32103066D-04 -0.18900647D-05 -0.90978957D-06  0.20438852D-04 -0.62143571D-05
 -0.14224495D-04  0.33397482D-04  0.19662733D-05  0.94647286D-06  0.10819050D-04
 -0.32894919D-05 -0.75295582D-05  0.17678538D-04  0.10408221D-05  0.50100353D-06
 -0.33696943D-06  0.10245430D-06  0.23451513D-06 -0.55061459D-06 -0.32417377D-07
 -0.15604223D-07  0.58083552D-05 -0.54501449D-05 -0.46677996D-06 -0.98996451D-06
  0.24261531D-04  0.14283951D-05 -0.16435101D-04 -0.79110961D-05 -0.28055245D-07
  0.18249875D-05 -0.66895573D-05  0.62770019D-05  0.53759648D-06  0.11401548D-05
 -0.27942317D-04 -0.16451010D-05  0.18928517D-04  0.91113110D-05  0.32311586D-07
 -0.21018616D-05  0.18678560D-05 -0.15415512D-05  0.32751938D-05  0.22999116D-04
  0.13540706D-05 -0.14454884D-04 -0.40964630D-06 -0.15137327D-05 -0.72864077D-06
  0.88466672D-05 -0.20053803D-04  0.40264023D-06  0.34148612D-05  0.47898619D-06
 -0.25632699D-04  0.66074677D-06  0.12340866D-05  0.21299393D-05  0.34598159D-05
  0.52804256D-05  0.74162600D-05  0.90152545D-05  0.85529097D-05 -0.87982306D-05
 -0.34288099D-04  0.45568545D-04 -0.50918274D-04  0.52656936D-04 -0.28052625D-04
 -0.45876253D-04  0.92282106D-05  0.97028045D-06  0.12777082D-05  0.14214801D-05
  0.13200833D-05  0.92024848D-06  0.46704805D-06  0.61502952D-06  0.68423464D-06
  0.63542695D-06  0.44296498D-06  0.27497406D-07  0.36209800D-07  0.40284244D-07
  0.37410696D-07  0.26079518D-07 -0.13513107D-04 -0.65045833D-05 -0.38295667D-06
  0.68221914D-04  0.32838868D-04  0.19333850D-05  0.50049832D-07  0.24091670D-07
  0.14183946D-08 -0.29960983D-06 -0.14421829D-06 -0.84908369D-08  0.23232687D-05
 -0.70638120D-06 -0.16168875D-05  0.37962661D-05  0.22350478D-06  0.10758484D-06
 -0.39222710D-06  0.11925519D-06  0.27297191D-06 -0.64090670D-06 -0.37733316D-07
 -0.18163070D-07 -0.22406783D-04  0.68126990D-05  0.15594084D-04 -0.36613118D-04
 -0.21555936D-05 -0.10376029D-05 -0.31619719D-06  0.96138580D-07  0.22005861D-06
 -0.51667235D-06 -0.30419031D-07 -0.14642312D-07 -0.44545747D-05  0.41798542D-05
  0.35798538D-06  0.75922886D-06 -0.18606783D-04 -0.10954724D-05  0.12604495D-04
  0.60672200D-05  0.21516278D-07 -0.13996292D-05  0.67682754D-05 -0.63508653D-05
 -0.54392254D-06 -0.11535714D-05  0.28271123D-04  0.16644594D-05 -0.19151255D-04
 -0.92185266D-05 -0.32691807D-07  0.21265948D-05  0.10418256D-05 -0.85982407D-06
  0.18267901D-05  0.12828113D-04  0.75525385D-06 -0.80624351D-05 -0.22848657D-06
 -0.84430783D-06 -0.40641067D-06  0.49343656D-05 -0.11185319D-04  0.22457882D-06
  0.19046917D-05  0.26716196D-06 -0.14297035D-04
MO    2     MO 0.0        OCC NO =    2.0000000  ORB. ENERGY =  -20.276425
 -0.73812240D-06 -0.13813877D-05 -0.23927708D-05 -0.39136054D-05 -0.61049418D-05
 -0.90572874D-05 -0.12562215D-04 -0.15548002D-04 -0.15734677D-04 -0.10860688D-04
 -0.74741815D-05 -0.28278528D-04 -0.53347431D-04  0.76052348D-04 -0.16809452D-03
  0.29285748D-03 -0.26836523D-03  0.31673199D-03 -0.16449100D-03 -0.82897431D-04
 -0.39602660D-04  0.12950038D-03  0.18617570D-03  0.24696219D-03  0.28897950D-03
  0.28482354D-03  0.21458457D-03  0.11206719D-03  0.32206314D-04  0.62335480D-04
  0.89616355D-04  0.11887615D-03  0.13910134D-03  0.13710085D-03  0.10329107D-03
  0.53943954D-04  0.15502627D-04  0.36699950D-05  0.52761537D-05  0.69988213D-05
  0.81895772D-05  0.80717987D-05  0.60812512D-05  0.31759448D-05  0.91271558D-06
  0.23601483D-03 -0.14162832D-03  0.11360660D-03 -0.68173311D-04  0.66885770D-05
 -0.40136966D-05  0.26190898D-03  0.12607085D-03  0.74224080D-05 -0.10963544D-03
 -0.52773422D-04 -0.31070298D-05 -0.11033976D-03 -0.53112447D-04 -0.31269899D-05
 -0.15282549D-04 -0.73563111D-05 -0.43310206D-06 -0.10740993D-05 -0.51702163D-06
 -0.30439596D-07 -0.44655359D-03  0.13577296D-03  0.31078063D-03 -0.72967723D-03
 -0.42959672D-04 -0.20678795D-04  0.31330844D-03 -0.95260267D-04 -0.21804818D-03
  0.51195208D-03  0.30141126D-04  0.14508541D-04 -0.17734122D-03  0.53919939D-04
  0.12342128D-03 -0.28977900D-03 -0.17060709D-04 -0.82122347D-05 -0.24008995D-04
  0.72998457D-05  0.16709150D-04 -0.39231164D-04 -0.23097308D-05 -0.11117974D-05
  0.43305744D-07 -0.13166950D-07 -0.30138794D-07  0.70762426D-07  0.41661306D-08
  0.20053822D-08 -0.33427643D-04  0.31366108D-04  0.26863636D-05  0.56973410D-05
 -0.13962744D-03 -0.82205513D-05  0.94585587D-04  0.45529119D-04  0.16146063D-06
 -0.10502979D-04 -0.12904902D-04  0.12109037D-04  0.10370836D-05  0.21994858D-05
 -0.53903846D-04 -0.31735834D-05  0.36515221D-04  0.17576735D-04  0.62332654D-07
 -0.40547254D-05 -0.24478472D-04  0.20202210D-04 -0.42921799D-04 -0.30140612D-03
 -0.17745254D-04  0.18943294D-03  0.53684629D-05  0.19837644D-04  0.95489228D-05
 -0.11593661D-03  0.26280744D-03 -0.52766475D-05 -0.44752157D-04 -0.62771702D-05
  0.33591953D-03 -0.18136681D+00 -0.33874149D+00 -0.58464196D+00 -0.94967661D+00
 -0.14494114D+01 -0.20356715D+01 -0.24745757D+01 -0.23476678D+01 -0.34182136D-04
 -0.13321320D-03 -0.13880472D+01 -0.33361941D+00 -0.10207998D-01  0.79913347D-03
 -0.17889356D-03  0.92168412D-04  0.39993062D-02  0.52664632D-02  0.58590627D-02
  0.54411252D-02  0.37930842D-02  0.19250807D-02  0.25350313D-02  0.28202813D-02
  0.26191056D-02  0.18258150D-02  0.11333893D-03  0.14924971D-03  0.16604377D-03
  0.15419957D-03  0.10749467D-03 -0.14466165D-02 -0.69633417D-03 -0.40996603D-04
  0.15495101D-03  0.74586235D-04  0.43912569D-05 -0.57952518D-04 -0.27895657D-04
 -0.16423539D-05 -0.19994752D-05 -0.96245473D-06 -0.56664423D-07 -0.15056289D-02
  0.45778086D-03  0.10478480D-02 -0.24602268D-02 -0.14484560D-03 -0.69721960D-04
  0.91179301D-03 -0.27722727D-03 -0.63456573D-03  0.14898875D-02  0.87716971D-04
  0.42222886D-04  0.33522883D-04 -0.10192508D-04 -0.23330375D-04  0.54777042D-04
  0.32249927D-05  0.15523621D-05  0.32533809D-05 -0.98917836D-06 -0.22642025D-05
  0.53160875D-05  0.31298411D-06  0.15065605D-06  0.13737428D-03 -0.12890220D-03
 -0.11039883D-04 -0.23413800D-04  0.57381312D-03  0.33783188D-04 -0.38870905D-03
 -0.18710652D-03 -0.66353883D-06  0.43163055D-04 -0.32757704D-04  0.30737486D-04
  0.26325249D-05  0.55831580D-05 -0.13682911D-03 -0.80557996D-05  0.92689955D-04
  0.44616649D-04  0.15822473D-06 -0.10292484D-04  0.21532254D-04 -0.17770681D-04
  0.37755750D-04  0.26512901D-03  0.15609443D-04 -0.16663288D-03 -0.47223170D-05
 -0.17449994D-04 -0.83996186D-05  0.10198253D-03 -0.23117605D-03  0.46415525D-05
  0.39365807D-04  0.55216527D-05 -0.29548840D-03
MO    3     MO 0.0        OCC NO =    2.0000000  ORB. ENERGY =  -10.330383
  0.97604782D-01  0.18266624D+00  0.31640534D+00  0.51751119D+00  0.80728008D+00
  0.11976802D+01  0.16611504D+01  0.20559724D+01  0.20806572D+01  0.14361508D+01
  0.14902493D+00  0.56383506D+00  0.10636746D+01  0.11205444D+01 -0.73034276D+00
 -0.12671658D+01 -0.47387316D+00 -0.20202683D-01  0.19983928D-02 -0.35756158D-03
 -0.40709310D-04 -0.18883619D-01 -0.27147960D-01 -0.36011787D-01 -0.42138711D-01
 -0.41532692D-01 -0.31290515D-01 -0.16341530D-01 -0.46962935D-02 -0.90896993D-02
 -0.13067770D-01 -0.17334405D-01 -0.20283623D-01 -0.19991914D-01 -0.15061804D-01
 -0.78660551D-02 -0.22605781D-02 -0.53515511D-03 -0.76936361D-03 -0.10205613D-02
 -0.11941962D-02 -0.11770219D-02 -0.88676215D-03 -0.46311319D-03 -0.13309130D-03
  0.90201857D-02 -0.54128537D-02  0.43418994D-02 -0.26054970D-02  0.25562888D-03
 -0.15339837D-03 -0.26275181D-02 -0.12647655D-02 -0.74462938D-04  0.53289849D-03
  0.25651264D-03  0.15102155D-04  0.21211972D-03  0.10210461D-03  0.60113981D-05
 -0.41232948D-04 -0.19847631D-04 -0.11685272D-05 -0.65753950D-06 -0.31650905D-06
 -0.18634438D-07 -0.10256183D-01  0.31183544D-02  0.71378290D-02 -0.16758803D-01
 -0.98667280D-03 -0.47493856D-03 -0.11854921D-02  0.36044445D-03  0.82504761D-03
 -0.19371171D-02 -0.11404757D-03 -0.54897214D-04  0.39051282D-03 -0.11873397D-03
 -0.27177885D-03  0.63810552D-03  0.37568397D-04  0.18083686D-04  0.42514671D-04
 -0.12926428D-04 -0.29588244D-04  0.69469798D-04  0.40900272D-05  0.19687496D-05
 -0.17534018D-05  0.53311531D-06  0.12202865D-05 -0.28650926D-05 -0.16868203D-06
 -0.81195715D-07  0.24287960D-04 -0.22790084D-04 -0.19518663D-05 -0.41395916D-05
  0.10145094D-03  0.59729136D-05 -0.68724288D-04 -0.33080688D-04 -0.11731457D-06
  0.76312866D-05 -0.48184940D-05  0.45213300D-05  0.38723121D-06  0.82125453D-06
 -0.20126875D-04 -0.11849677D-05  0.13634227D-04  0.65628853D-05  0.23274064D-07
 -0.15139727D-05  0.77980318D-05 -0.64357561D-05  0.13673466D-04  0.96018024D-04
  0.56530513D-05 -0.60347073D-04 -0.17102148D-05 -0.63196176D-05 -0.30419711D-05
  0.36933571D-04 -0.83721762D-04  0.16809654D-05  0.14256558D-04  0.19996989D-05
 -0.10701285D-03  0.12230467D-04  0.22843026D-04  0.39425319D-04  0.64041424D-04
  0.97741031D-04  0.13727547D-03  0.16687296D-03  0.15831493D-03 -0.33495804D-04
 -0.13053846D-03  0.38472299D-03 -0.32331791D-03  0.39267086D-03 -0.26233464D-03
 -0.23179646D-03  0.13282655D-03  0.21677919D-03  0.28546442D-03  0.31758580D-03
  0.29493183D-03  0.20560109D-03  0.10434746D-03  0.13740934D-03  0.15287109D-03
  0.14196652D-03  0.98966837D-04  0.61434457D-05  0.80899609D-05  0.90002696D-05
  0.83582641D-05  0.58266624D-05 -0.14558818D-05 -0.70079403D-06 -0.41259176D-07
  0.52093782D-03  0.25075533D-03  0.14763194D-04 -0.57280312D-04 -0.27572088D-04
 -0.16233039D-05 -0.52686275D-05 -0.25360732D-05 -0.14931105D-06 -0.38345828D-04
  0.11658906D-04  0.26686922D-04 -0.62657828D-04 -0.36889731D-05 -0.17757007D-05
 -0.59371053D-04  0.18051548D-04  0.41319505D-04 -0.97013454D-04 -0.57116571D-05
 -0.27493271D-05 -0.19759285D-03  0.60077370D-04  0.13751548D-03 -0.32287054D-03
 -0.19008970D-04 -0.91500374D-05  0.34050496D-05 -0.10352927D-05 -0.23697570D-05
  0.55639172D-05  0.32757505D-06  0.15767945D-06 -0.14786387D-03  0.13874488D-03
  0.11882864D-04  0.25201625D-04 -0.61762819D-03 -0.36362796D-04  0.41839000D-03
  0.20139356D-03  0.71420516D-06 -0.46458888D-04  0.96482236D-04 -0.90532027D-04
 -0.77536536D-05 -0.16444240D-04  0.40300682D-03  0.23726985D-04 -0.27300247D-03
 -0.13141074D-03 -0.46602398D-06  0.30314757D-04 -0.28154293D-04  0.23235884D-04
 -0.49367172D-04 -0.34666691D-03 -0.20409979D-04  0.21787923D-03  0.61746206D-05
  0.22816574D-04  0.10982841D-04 -0.13334629D-03  0.30227205D-03 -0.60690177D-05
 -0.51472386D-04 -0.72197844D-05  0.38636304D-03
MO    4     MO 0.0        OCC NO =    2.0000000  ORB. ENERGY =   -7.797603
 -0.46501645D-03 -0.87027298D-03 -0.15074434D-02 -0.24655679D-02 -0.38461079D-02
 -0.57060829D-02 -0.79141844D-02 -0.97952270D-02 -0.99128322D-02 -0.68422238D-02
 -0.74696316D-03 -0.28261313D-02 -0.53314956D-02 -0.55873990D-02  0.44445608D-02
  0.69522981D-02  0.16615451D-02 -0.74837597D-03  0.39241198D-03 -0.16483346D-03
  0.58215159D-04 -0.55149052D+01 -0.79284815D+01 -0.10517136D+02 -0.12306486D+02
 -0.12129500D+02 -0.91383023D+01 -0.47724954D+01 -0.13715386D+01 -0.26546198D+01
 -0.38164036D+01 -0.50624619D+01 -0.59237722D+01 -0.58385793D+01 -0.43987553D+01
 -0.22972582D+01 -0.66019515D+00 -0.15629047D+00 -0.22469037D+00 -0.29805192D+00
 -0.34876148D+00 -0.34374576D+00 -0.25897627D+00 -0.13525084D+00 -0.38868921D-01
 -0.16812744D-01  0.10089030D-01 -0.80928760D-02  0.48563916D-02 -0.47646724D-03
  0.28591956D-03 -0.11849850D+00 -0.57039689D-01 -0.33582058D-02  0.15646504D-02
  0.75315021D-03  0.44341641D-04 -0.44710874D-03 -0.21521743D-03 -0.12670904D-04
  0.75939296D-04  0.36553659D-04  0.21520929D-05 -0.46216727D-06 -0.22246591D-06
 -0.13097658D-07 -0.10282082D-01  0.31262287D-02  0.71558530D-02 -0.16801121D-01
 -0.98916427D-03 -0.47613784D-03 -0.10312120D-02  0.31353618D-03  0.71767585D-03
 -0.16850205D-02 -0.99205407D-04 -0.47752886D-04  0.20970537D-03 -0.63760137D-04
 -0.14594523D-03  0.34266264D-03  0.20174228D-04  0.97109384D-05  0.18878613D-04
 -0.57399720D-05 -0.13138641D-04  0.30848020D-04  0.18161740D-05  0.87422200D-06
  0.46800961D-05 -0.14229658D-05 -0.32571303D-05  0.76473679D-05  0.45023800D-06
  0.21672371D-06  0.51808923D-04 -0.48613787D-04 -0.41635483D-05 -0.88302099D-05
  0.21640615D-03  0.12740890D-04 -0.14659656D-03 -0.70564791D-04 -0.25024503D-06
  0.16278384D-04 -0.35390191D-03  0.33207623D-03  0.28440809D-04  0.60318337D-04
 -0.14782502D-02 -0.87031826D-04  0.10013874D-02  0.48202148D-03  0.17094004D-05
 -0.11119612D-03  0.91987407D-05 -0.75917685D-05  0.16129541D-04  0.11326511D-03
  0.66684716D-05 -0.71186819D-04 -0.20174094D-05 -0.74547688D-05 -0.35883803D-05
  0.43567705D-04 -0.98760149D-04  0.19829061D-05  0.16817369D-04  0.23588916D-05
 -0.12623487D-03  0.20383275D-04  0.38070146D-04  0.65706167D-04  0.10673132D-03
  0.16289503D-03  0.22878306D-03  0.27811019D-03  0.26384738D-03 -0.29760658D-05
 -0.11598200D-04  0.35845009D-03 -0.13163700D-03  0.32697645D-03 -0.36441128D-03
 -0.12455963D-03 -0.66493176D-05  0.18805498D-03  0.24763911D-03  0.27550427D-03
  0.25585205D-03  0.17835803D-03  0.90520954D-04  0.11920199D-03  0.13261499D-03
  0.12315532D-03  0.85853292D-04  0.53294119D-05  0.70180051D-05  0.78076939D-05
  0.72507570D-05  0.50546037D-05  0.32336492D-03  0.15565289D-03  0.91640478D-05
  0.32764212D-03  0.15771173D-03  0.92852620D-05 -0.77857683D-04 -0.37477081D-04
 -0.22064593D-05  0.28147146D-06  0.13548732D-06  0.79768018D-08  0.23473041D-03
 -0.71368907D-04 -0.16336150D-03  0.38355404D-03  0.22581705D-04  0.10869786D-04
 -0.34148507D-03  0.10382726D-03  0.23765780D-03 -0.55799323D-03 -0.32851794D-04
 -0.15813331D-04 -0.15489782D-03  0.47096106D-04  0.10780171D-03 -0.25310604D-03
 -0.14901592D-04 -0.71729360D-05  0.14999221D-04 -0.45604574D-05 -0.10438764D-04
  0.24509019D-04  0.14429660D-05  0.69457695D-06  0.12075978D-03 -0.11331234D-03
 -0.97046832D-05 -0.20582057D-04  0.50441426D-03  0.29697338D-04 -0.34169729D-03
 -0.16447724D-03 -0.58328825D-06  0.37942772D-04  0.97058870D-04 -0.91073099D-04
 -0.77999940D-05 -0.16542521D-04  0.40541542D-03  0.23868791D-04 -0.27463409D-03
 -0.13219613D-03 -0.46880921D-06  0.30495936D-04 -0.17733355D-04  0.14635430D-04
 -0.31094568D-04 -0.21835275D-03 -0.12855496D-04  0.13723412D-03  0.38891667D-05
  0.14371322D-04  0.69176883D-05 -0.83989929D-04  0.19039006D-03 -0.38226513D-05
 -0.32420565D-04 -0.45474770D-05  0.24335589D-03
MO    5     MO 0.0        OCC NO =    2.0000000  ORB. ENERGY =   -7.796222
  0.61320260D-14  0.11476017D-13  0.19878183D-13  0.32512670D-13  0.50717417D-13
  0.75244324D-13  0.10436187D-12  0.12916658D-12  0.13071741D-12  0.90226258D-13
  0.74755783D-14  0.28283812D-13  0.53357401D-13  0.93460495D-13 -0.45896006D-15
 -0.23715753D-12  0.12530621D-12 -0.11513727D-12  0.82278571D-13 -0.37996393D-13
 -0.18738875D-13  0.25806848D+01  0.37101113D+01  0.49214651D+01  0.57587866D+01
  0.56759665D+01  0.42762436D+01  0.22332762D+01  0.64180777D+00 -0.54325708D+01
 -0.78101138D+01 -0.10360121D+02 -0.12122757D+02 -0.11948414D+02 -0.90018727D+01
 -0.47012448D+01 -0.13510624D+01  0.12104252D+01  0.17401630D+01  0.23083274D+01
  0.27010585D+01  0.26622131D+01  0.20056975D+01  0.10474793D+01  0.30102874D+00
  0.13995868D-01 -0.83986728D-02 -0.29462546D-01  0.17679952D-01  0.65645181D-02
 -0.39392511D-02  0.52758910D-01 -0.11106219D+00  0.24745647D-01 -0.16915535D-03
  0.35608704D-03 -0.79339369D-04  0.13567911D-03 -0.28561659D-03  0.63637923D-04
 -0.12592763D-04  0.26508886D-04 -0.59064162D-05  0.42089731D-06 -0.88602622D-06
  0.19741455D-06  0.14578859D-01 -0.14772645D-01  0.19378537D-03 -0.23672207D-01
  0.72511196D-02  0.24217391D-02  0.91913039D-03 -0.93134767D-03  0.12217281D-04
 -0.14924243D-02  0.45714992D-03  0.15267957D-03 -0.16201305D-03  0.16416656D-03
 -0.21535127D-05  0.26306628D-03 -0.80580789D-04 -0.26912485D-04 -0.86311256D-06
  0.87458524D-06 -0.11472681D-07  0.14014662D-05 -0.42928820D-06 -0.14337428D-06
 -0.78032721D-06  0.79069949D-06 -0.10372279D-07  0.12670447D-05 -0.38811307D-06
 -0.12962255D-06 -0.42555976D-04 -0.17595301D-05  0.65085166D-05  0.11529289D-03
  0.35212512D-04 -0.23161261D-04  0.12375040D-04 -0.29933922D-04  0.36357112D-05
 -0.20304275D-04  0.44087202D-03  0.18228405D-04 -0.67427024D-04 -0.11944129D-02
 -0.36479509D-03  0.23994637D-03 -0.12820312D-03  0.31010988D-03 -0.37665294D-04
  0.21034853D-03 -0.12641042D-04 -0.80504664D-05  0.18784005D-06 -0.52692127D-05
 -0.78059764D-05  0.13237438D-04  0.20604811D-05  0.70084694D-05  0.23377235D-05
  0.62638046D-04  0.13208208D-04 -0.14335248D-04 -0.13194614D-04  0.23925211D-05
 -0.23904677D-04 -0.17831261D-16 -0.33303712D-16 -0.57479665D-16 -0.93368416D-16
 -0.14250035D-15 -0.20013910D-15 -0.24329041D-15 -0.23081333D-15 -0.34773596D-14
 -0.13551822D-13  0.20778817D-13 -0.31804668D-13  0.33638520D-13 -0.20476959D-13
 -0.15151385D-14  0.36168307D-13  0.44243082D-04  0.58261247D-04  0.64816992D-04
  0.60193478D-04  0.41961713D-04 -0.93135618D-04 -0.12264510D-03 -0.13644552D-03
 -0.12671262D-03 -0.88333132D-04  0.20751447D-04  0.27326422D-04  0.30401280D-04
  0.28232702D-04  0.19681410D-04  0.21980020D-04 -0.46269894D-04  0.10309345D-04
  0.22366432D-04 -0.47083326D-04  0.10490585D-04  0.27348521D-06 -0.57571069D-06
  0.12827348D-06  0.50518699D-06 -0.10634635D-05  0.23694915D-06  0.27799702D-04
 -0.28169222D-04  0.36951969D-06 -0.45139353D-04  0.13826799D-04  0.46178938D-05
 -0.60491819D-04  0.61295889D-04 -0.80407043D-06  0.98222694D-04 -0.30086950D-04
 -0.10048482D-04 -0.38945256D-04  0.39462925D-04 -0.51766880D-06  0.63236781D-04
 -0.19370288D-04 -0.64693160D-05  0.80822548D-06 -0.81896859D-06  0.10743108D-07
 -0.13123441D-05  0.40198890D-06  0.13425681D-06 -0.46552936D-04 -0.19247894D-05
  0.71198122D-05  0.12612148D-03  0.38519756D-04 -0.25336623D-04  0.13537334D-04
 -0.32745388D-04  0.39771860D-05 -0.22211302D-04  0.80211390D-04  0.33164402D-05
 -0.12267541D-04 -0.21730915D-03 -0.66370104D-04  0.43655371D-04 -0.23325024D-04
  0.56420783D-04 -0.68527496D-05  0.38270398D-04 -0.10886079D-03 -0.69328155D-04
  0.16176211D-05 -0.45376849D-04 -0.67222682D-04  0.11399677D-03  0.17744233D-04
  0.60354795D-04  0.20131760D-04  0.53941970D-03  0.11374505D-03 -0.12345078D-03
 -0.11362798D-03  0.20603660D-04 -0.20585977D-03
MO    6     MO 0.0        OCC NO =    2.0000000  ORB. ENERGY =   -7.796222
 -0.14814533D-14 -0.27725229D-14 -0.48024259D-14 -0.78548268D-14 -0.12252963D-13
 -0.18178487D-13 -0.25213075D-13 -0.31205716D-13 -0.31580384D-13 -0.21798014D-13
 -0.83435884D-14 -0.31567924D-13 -0.59552877D-13  0.34443411D-13 -0.40518938D-13
  0.82703281D-13 -0.33652898D-13  0.28232310D-13 -0.24924821D-13  0.25335272D-13
  0.65627844D-14 -0.66349449D+00 -0.95387021D+00 -0.12653095D+01 -0.14805850D+01
 -0.14592919D+01 -0.10994229D+01 -0.57417568D+00 -0.16500888D+00  0.10244170D+01
  0.14727491D+01  0.19536026D+01  0.22859820D+01  0.22531061D+01  0.16974784D+01
  0.88651127D+00  0.25476912D+00  0.60123401D+01  0.86436169D+01  0.11465763D+02
  0.13416510D+02  0.13223560D+02  0.99625615D+01  0.52029663D+01  0.14952491D+01
 -0.35983400D-02  0.21593001D-02  0.55557369D-02 -0.33338993D-02  0.32606818D-01
 -0.19566774D-01 -0.13564324D-01  0.20942939D-01  0.12291486D+00  0.43489869D-04
 -0.67147147D-04 -0.39408900D-03 -0.34883122D-04  0.53858570D-04  0.31609787D-03
  0.32376015D-05 -0.49987666D-05 -0.29337940D-04 -0.10821277D-06  0.16707750D-06
  0.98058382D-06 -0.37482271D-02  0.27856699D-02  0.96255723D-03  0.39829355D-02
  0.33858816D-01  0.16513202D-01 -0.23630857D-03  0.17562374D-03  0.60684830D-04
  0.25110586D-03  0.21346434D-02  0.10410818D-02  0.41653581D-04 -0.30956803D-04
 -0.10696779D-04 -0.44261866D-04 -0.37626880D-03 -0.18350916D-03  0.22190638D-06
 -0.16492008D-06 -0.56986300D-07 -0.23580182D-06 -0.20045443D-05 -0.97763149D-06
  0.20062225D-06 -0.14910179D-06 -0.51520464D-07 -0.21318492D-06 -0.18122786D-05
 -0.88386207D-06  0.10941148D-04  0.33179366D-06  0.32328652D-04 -0.21798001D-04
 -0.29138821D-05 -0.98321606D-04 -0.11025444D-04  0.19185011D-05  0.13356513D-05
 -0.12754656D-03 -0.11334827D-03 -0.34373208D-05 -0.33491883D-03  0.22582324D-03
  0.30187278D-04  0.10185936D-02  0.11422156D-03 -0.19875315D-04 -0.13837099D-04
  0.13213587D-02  0.32500141D-05  0.15180722D-05  0.93302606D-06  0.31783525D-05
 -0.28967862D-04 -0.27582579D-05  0.88593163D-05  0.32719761D-04  0.15958314D-04
 -0.11505181D-04 -0.79949037D-05  0.23967473D-05 -0.74452889D-04 -0.11255696D-04
 -0.12602836D-05  0.63030064D-16  0.11772219D-15  0.20317952D-15  0.33003932D-15
  0.50371121D-15  0.70745308D-15  0.85998462D-15  0.81588055D-15  0.86784386D-15
  0.33821251D-14 -0.50464417D-14  0.82600661D-14 -0.82722923D-14  0.83089860D-14
 -0.13073520D-13 -0.14277037D-13 -0.11374904D-04 -0.14978976D-04 -0.16664459D-04
 -0.15475753D-04 -0.10788363D-04  0.17562535D-04  0.23127122D-04  0.25729461D-04
  0.23894132D-04  0.16656932D-04  0.10307514D-03  0.13573391D-03  0.15100713D-03
  0.14023551D-03  0.97760131D-04 -0.56510666D-05  0.87250896D-05  0.51207862D-04
 -0.57504133D-05  0.88784781D-05  0.52108105D-04 -0.70313086D-07  0.10856147D-06
  0.63715110D-06 -0.12988366D-06  0.20053675D-06  0.11769574D-05 -0.71473078D-05
  0.53118553D-05  0.18354525D-05  0.75948616D-05  0.64563692D-04  0.31488204D-04
  0.15552456D-04 -0.11558534D-04 -0.39939227D-05 -0.16526328D-04 -0.14048982D-03
 -0.68517955D-04  0.10012832D-04 -0.74415030D-05 -0.25713286D-05 -0.10639820D-04
 -0.90448793D-04 -0.44112565D-04 -0.20779490D-06  0.15443248D-06  0.53362425D-07
  0.22080671D-06  0.18770712D-05  0.91546192D-06  0.11968767D-04  0.36295652D-06
  0.35365037D-04 -0.23845322D-04 -0.31875609D-05 -0.10755621D-03 -0.12060981D-04
  0.20986914D-05  0.14610989D-05 -0.13952604D-03 -0.20622361D-04 -0.62537939D-06
 -0.60934475D-04  0.41085838D-04  0.54922141D-05  0.18532092D-03  0.20781246D-04
 -0.36160759D-05 -0.25174947D-05  0.24040540D-03  0.27988127D-04  0.13073174D-04
  0.80349352D-05  0.27371000D-04 -0.24946237D-03 -0.23753274D-04  0.76293723D-04
  0.28177258D-03  0.13742812D-03 -0.99079098D-04 -0.68849666D-04  0.20640055D-04
 -0.64116552D-03 -0.96930613D-04 -0.10853177D-04
MO    7     MO 0.0        OCC NO =    2.0000000  ORB. ENERGY =   -1.032268
 -0.14924670D-01 -0.27931350D-01 -0.48381291D-01 -0.79132228D-01 -0.12344056D+00
 -0.18313633D+00 -0.25400519D+00 -0.31437712D+00 -0.31815165D+00 -0.21960069D+00
 -0.25616041D-01 -0.96918161D-01 -0.18283607D+00 -0.18909331D+00  0.13543536D+00
  0.30975871D+00  0.19919185D+00 -0.86724366D-01 -0.10289602D+00 -0.13905239D-01
  0.16574728D-03  0.29797414D+00  0.42838133D+00  0.56824811D+00  0.66492794D+00
  0.65536527D+00  0.49374878D+00  0.25786122D+00  0.74105180D-01  0.14343094D+00
  0.20620292D+00  0.27352831D+00  0.32006550D+00  0.31546247D+00  0.23766779D+00
  0.12412244D+00  0.35670800D-01  0.84444819D-02  0.12140176D-01  0.16103951D-01
  0.18843823D-01  0.18572821D-01  0.13992666D-01  0.73076961D-02  0.21001147D-02
 -0.38304871D-01  0.22986075D-01 -0.18438190D-01  0.11064431D-01 -0.10855465D-02