 Molden2AIM, Version 4.0.0 (06/02/2016)           Time: Wed Jun 27 19:35:55 2018
GAUSSIAN             13 MOL ORBITALS    206 PRIMITIVES        2 NUCLEI
  Cl   1    (CENTRE  1)  -0.39513228  2.73230587  0.75452040  CHARGE = 17.0
  O    2    (CENTRE  2)   2.42815634  4.09130619  0.83453140  CHARGE =  8.0
CENTRE ASSIGNMENTS    1  1  1  1  1  1  1  1  1  1  1  1  1  1  1  1  1  1  1  1
CENTRE ASSIGNMENTS    1  1  1  1  1  1  1  1  1  1  1  1  1  1  1  1  1  1  1  1
CENTRE ASSIGNMENTS    1  1  1  1  1  1  1  1  1  1  1  1  1  1  1  1  1  1  1  1
CENTRE ASSIGNMENTS    1  1  1  1  1  1  1  1  1  1  1  1  1  1  1  1  1  1  1  1
CENTRE ASSIGNMENTS    1  1  1  1  1  1  1  1  1  1  1  1  1  1  1  1  1  1  1  1
CENTRE ASSIGNMENTS    1  1  1  1  1  1  1  1  1  1  1  1  1  1  1  1  1  1  1  1
CENTRE ASSIGNMENTS    1  1  1  1  1  1  1  1  1  1  1  2  2  2  2  2  2  2  2  2
CENTRE ASSIGNMENTS    2  2  2  2  2  2  2  2  2  2  2  2  2  2  2  2  2  2  2  2
CENTRE ASSIGNMENTS    2  2  2  2  2  2  2  2  2  2  2  2  2  2  2  2  2  2  2  2
CENTRE ASSIGNMENTS    2  2  2  2  2  2  2  2  2  2  2  2  2  2  2  2  2  2  2  2
CENTRE ASSIGNMENTS    2  2  2  2  2  2
TYPE ASSIGNMENTS      1  1  1  1  1  1  1  1  1  1  1  1  1  1  1  1  1  1  1  1
TYPE ASSIGNMENTS      1  1  1  1  1  1  1  1  1  1  1  1  1  1  1  1  1  1  1  1
TYPE ASSIGNMENTS      1  1  2  2  2  2  2  2  2  3  3  3  3  3  3  3  4  4  4  4
TYPE ASSIGNMENTS      4  4  4  2  2  2  2  2  2  2  3  3  3  3  3  3  3  4  4  4
TYPE ASSIGNMENTS      4  4  4  4  2  3  4  2  3  4  2  3  4  5  6  7  8  9 10  5
TYPE ASSIGNMENTS      6  7  8  9 10  5  6  7  8  9 10 11 12 13 17 14 15 18 19 16
TYPE ASSIGNMENTS     20 11 12 13 17 14 15 18 19 16 20  1  1  1  1  1  1  1  1  1
TYPE ASSIGNMENTS      1  1  1  1  1  1  1  1  1  1  2  2  2  3  3  3  4  4  4  2
TYPE ASSIGNMENTS      3  4  2  3  4  2  3  4  5  6  7  8  9 10  5  6  7  8  9 10
TYPE ASSIGNMENTS      5  6  7  8  9 10 11 12 13 17 14 15 18 19 16 20 11 12 13 17
TYPE ASSIGNMENTS     14 15 18 19 16 20
EXPONENTS  0.4561000D+06 0.6833000D+05 0.1555000D+05 0.4405000D+04 0.1439000D+04
EXPONENTS  0.5204000D+03 0.2031000D+03 0.8396000D+02 0.3620000D+02 0.1583000D+02
EXPONENTS  0.6334000D+01 0.2694000D+01 0.4313000D+00 0.4561000D+06 0.6833000D+05
EXPONENTS  0.1555000D+05 0.4405000D+04 0.1439000D+04 0.5204000D+03 0.2031000D+03
EXPONENTS  0.8396000D+02 0.3620000D+02 0.1583000D+02 0.6334000D+01 0.2694000D+01
EXPONENTS  0.4313000D+00 0.4561000D+06 0.6833000D+05 0.1555000D+05 0.4405000D+04
EXPONENTS  0.1439000D+04 0.5204000D+03 0.2031000D+03 0.8396000D+02 0.3620000D+02
EXPONENTS  0.1583000D+02 0.6334000D+01 0.2694000D+01 0.4313000D+00 0.9768000D+00
EXPONENTS  0.1625000D+00 0.5910000D-01 0.6633000D+03 0.1568000D+03 0.4998000D+02
EXPONENTS  0.1842000D+02 0.7240000D+01 0.2922000D+01 0.3818000D+00 0.6633000D+03
EXPONENTS  0.1568000D+03 0.4998000D+02 0.1842000D+02 0.7240000D+01 0.2922000D+01
EXPONENTS  0.3818000D+00 0.6633000D+03 0.1568000D+03 0.4998000D+02 0.1842000D+02
EXPONENTS  0.7240000D+01 0.2922000D+01 0.3818000D+00 0.6633000D+03 0.1568000D+03
EXPONENTS  0.4998000D+02 0.1842000D+02 0.7240000D+01 0.2922000D+01 0.3818000D+00
EXPONENTS  0.6633000D+03 0.1568000D+03 0.4998000D+02 0.1842000D+02 0.7240000D+01
EXPONENTS  0.2922000D+01 0.3818000D+00 0.6633000D+03 0.1568000D+03 0.4998000D+02
EXPONENTS  0.1842000D+02 0.7240000D+01 0.2922000D+01 0.3818000D+00 0.1022000D+01
EXPONENTS  0.1022000D+01 0.1022000D+01 0.1301000D+00 0.1301000D+00 0.1301000D+00
EXPONENTS  0.4190000D-01 0.4190000D-01 0.4190000D-01 0.1046000D+01 0.1046000D+01
EXPONENTS  0.1046000D+01 0.1046000D+01 0.1046000D+01 0.1046000D+01 0.3440000D+00
EXPONENTS  0.3440000D+00 0.3440000D+00 0.3440000D+00 0.3440000D+00 0.3440000D+00
EXPONENTS  0.1350000D+00 0.1350000D+00 0.1350000D+00 0.1350000D+00 0.1350000D+00
EXPONENTS  0.1350000D+00 0.7060000D+00 0.7060000D+00 0.7060000D+00 0.7060000D+00
EXPONENTS  0.7060000D+00 0.7060000D+00 0.7060000D+00 0.7060000D+00 0.7060000D+00
EXPONENTS  0.7060000D+00 0.3120000D+00 0.3120000D+00 0.3120000D+00 0.3120000D+00
EXPONENTS  0.3120000D+00 0.3120000D+00 0.3120000D+00 0.3120000D+00 0.3120000D+00
EXPONENTS  0.3120000D+00 0.1533000D+05 0.2299000D+04 0.5224000D+03 0.1473000D+03
EXPONENTS  0.4755000D+02 0.1676000D+02 0.6207000D+01 0.6882000D+00 0.1533000D+05
EXPONENTS  0.2299000D+04 0.5224000D+03 0.1473000D+03 0.4755000D+02 0.1676000D+02
EXPONENTS  0.6207000D+01 0.6882000D+00 0.1752000D+01 0.2384000D+00 0.7376000D-01
EXPONENTS  0.3446000D+02 0.7749000D+01 0.2280000D+01 0.3446000D+02 0.7749000D+01
EXPONENTS  0.2280000D+01 0.3446000D+02 0.7749000D+01 0.2280000D+01 0.7156000D+00
EXPONENTS  0.7156000D+00 0.7156000D+00 0.2140000D+00 0.2140000D+00 0.2140000D+00
EXPONENTS  0.5974000D-01 0.5974000D-01 0.5974000D-01 0.2314000D+01 0.2314000D+01
EXPONENTS  0.2314000D+01 0.2314000D+01 0.2314000D+01 0.2314000D+01 0.6450000D+00
EXPONENTS  0.6450000D+00 0.6450000D+00 0.6450000D+00 0.6450000D+00 0.6450000D+00
EXPONENTS  0.2140000D+00 0.2140000D+00 0.2140000D+00 0.2140000D+00 0.2140000D+00
EXPONENTS  0.2140000D+00 0.1428000D+01 0.1428000D+01 0.1428000D+01 0.1428000D+01
EXPONENTS  0.1428000D+01 0.1428000D+01 0.1428000D+01 0.1428000D+01 0.1428000D+01
EXPONENTS  0.1428000D+01 0.5000000D+00 0.5000000D+00 0.5000000D+00 0.5000000D+00
EXPONENTS  0.5000000D+00 0.5000000D+00 0.5000000D+00 0.5000000D+00 0.5000000D+00
EXPONENTS  0.5000000D+00
MO    1     MO 0.0        OCC NO =    2.0000000  ORB. ENERGY = -104.611819
  0.61663699D+00  0.11537302D+01  0.19933901D+01  0.32315179D+01  0.49073177D+01
  0.68205946D+01  0.81087030D+01  0.72226090D+01  0.35855194D+01  0.57768462D+00
  0.88689976D-02  0.15848812D-02  0.59224536D-04 -0.92295547D-05 -0.17239483D-04
 -0.29919959D-04 -0.48547934D-04 -0.75146435D-04 -0.10756530D-03 -0.14040631D-03
 -0.14962635D-03 -0.11184874D-03 -0.59042961D-05  0.75867274D-04  0.45073877D-04
 -0.16899325D-06  0.41103877D-05  0.76714464D-05  0.13332299D-04  0.21607734D-04
  0.33560194D-04  0.48075947D-04  0.63479808D-04  0.68640502D-04  0.53815044D-04
  0.26778188D-05 -0.46133099D-04 -0.47756309D-04  0.21610406D-04 -0.29154213D-03
  0.55997582D-05  0.38778245D-05  0.11814840D-02  0.15562796D-02  0.17169410D-02
  0.14261169D-02  0.75744532D-03  0.19536724D-03 -0.20083088D-06  0.56871167D-03
  0.74912091D-03  0.82645585D-03  0.68646658D-03  0.36459908D-03  0.94040738D-04
 -0.96670681D-07  0.33482841D-04  0.44104416D-04  0.48657503D-04  0.40415649D-04
  0.21465733D-04  0.55366388D-05 -0.56914764D-08 -0.54757083D-03 -0.71892036D-03
 -0.81854372D-03 -0.69310921D-03 -0.39703964D-03 -0.90312743D-04  0.42271334D-04
 -0.26357523D-03 -0.34605495D-03 -0.39400902D-03 -0.33363066D-03 -0.19111648D-03
 -0.43472370D-04  0.20347462D-04 -0.15517964D-04 -0.20373950D-04 -0.23197241D-04
 -0.19642471D-04 -0.11251963D-04 -0.25594313D-05  0.11979547D-05 -0.74981539D-04
 -0.36092638D-04 -0.21249504D-05  0.33661720D-05  0.16203192D-05  0.95396128D-07
  0.17284898D-06  0.83201490D-07  0.48984792D-08  0.64125041D-05 -0.19496980D-05
 -0.44628061D-05  0.10478156D-04  0.61690037D-06  0.29694725D-06  0.81729705D-05
 -0.24849613D-05 -0.56880092D-05  0.13354792D-04  0.78626203D-06  0.37847011D-06
 -0.67679150D-09  0.20577594D-09  0.47101556D-09 -0.11058905D-08 -0.65109188D-10
 -0.31340546D-10  0.27057335D-05 -0.25388668D-05 -0.21744232D-06 -0.46115985D-06
  0.11301864D-04  0.66539606D-06 -0.76560408D-05 -0.36852633D-05 -0.13069107D-07
  0.85014256D-06  0.18762203D-06 -0.17605109D-06 -0.15077970D-07 -0.31977926D-07
  0.78369824D-06  0.46140154D-07 -0.53088818D-06 -0.25554497D-06 -0.90624316D-09
  0.58950918D-07  0.74684318D-05  0.13920196D-04  0.23604040D-04  0.35725814D-04
  0.44575385D-04  0.38284311D-04  0.14698091D-04 -0.65745465D-07 -0.51176150D-05
 -0.95982138D-05 -0.16362850D-04 -0.25571950D-04 -0.34194570D-04 -0.36511828D-04
 -0.22322616D-04  0.14727106D-04  0.23851540D-05 -0.24126732D-04 -0.65003849D-05
 -0.14576620D-04 -0.14134418D-04 -0.95349952D-05 -0.70165096D-05 -0.68036541D-05
 -0.45897049D-05 -0.41309628D-06 -0.40056444D-06 -0.27021840D-06  0.11060666D-04
  0.53240922D-05  0.31345538D-06  0.18898474D-04  0.90968497D-05  0.53557609D-06
  0.55022006D-06  0.26485044D-06  0.15593042D-07  0.14435521D-04 -0.43890665D-05
 -0.10046455D-04  0.23587922D-04  0.13887365D-05  0.66847338D-06 -0.12764854D-04
  0.38811062D-05  0.88837473D-05 -0.20858018D-04 -0.12280137D-05 -0.59110889D-06
 -0.33462298D-05  0.10174087D-05  0.23288211D-05 -0.54678044D-05 -0.32191642D-06
 -0.15495565D-06  0.14122145D-05 -0.13251211D-05 -0.11349055D-06 -0.24069504D-06
  0.58988277D-05  0.34729288D-06 -0.39959486D-05 -0.19234645D-05 -0.68212125D-08
  0.44371837D-06  0.21802907D-05 -0.20458288D-05 -0.17521587D-06 -0.37160441D-06
  0.91070859D-05  0.53617875D-06 -0.61692676D-05 -0.29695996D-05 -0.10531138D-07
  0.68504820D-06
MO    2     MO 0.0        OCC NO =    2.0000000  ORB. ENERGY =  -20.279326
 -0.49005920D-04 -0.91690263D-04 -0.15842046D-03 -0.25681805D-03 -0.38999869D-03
 -0.54205232D-03 -0.64442201D-03 -0.57400156D-03 -0.28495156D-03 -0.45910262D-04
 -0.70484482D-06 -0.12595508D-06 -0.47067447D-08  0.78312095D-04  0.14627575D-03
  0.25386866D-03  0.41192566D-03  0.63761200D-03  0.91268365D-03  0.11913373D-02
  0.12695686D-02  0.94902833D-03  0.50097519D-04 -0.64372826D-03 -0.38244854D-03
  0.14338953D-05 -0.38679563D-04 -0.72189830D-04 -0.12545957D-03 -0.20333306D-03
 -0.31580807D-03 -0.45240418D-03 -0.59735756D-03 -0.64592072D-03 -0.50641022D-03
 -0.25198805D-04  0.43412159D-03  0.44939633D-03 -0.20335820D-03  0.24887351D-03
  0.34681665D-03  0.53351110D-04 -0.54183018D-03 -0.71371195D-03 -0.78739148D-03
 -0.65401913D-03 -0.34736545D-03 -0.89595682D-04  0.92101315D-07 -0.26081194D-03
 -0.34354786D-03 -0.37901377D-03 -0.31481450D-03 -0.16720563D-03 -0.43127210D-04
  0.44333305D-07 -0.15355276D-04 -0.20226345D-04 -0.22314397D-04 -0.18534672D-04
 -0.98442143D-05 -0.25391100D-05  0.26101188D-08  0.79523134D-03  0.10440804D-02
  0.11887624D-02  0.10065952D-02  0.57661647D-03  0.13116024D-03 -0.61390212D-04
  0.38278752D-03  0.50257195D-03  0.57221514D-03  0.48452828D-03  0.27755645D-03
  0.63134463D-04 -0.29550403D-04  0.22536576D-04  0.29588872D-04  0.33689107D-04
  0.28526552D-04  0.16341107D-04  0.37170350D-05 -0.17397770D-05  0.21525486D-03
  0.10361372D-03  0.61002469D-05  0.15131813D-03  0.72837539D-04  0.42883026D-05
 -0.71323755D-06 -0.34331951D-06 -0.20212901D-07 -0.13720343D-04  0.41716191D-05
  0.95487234D-05 -0.22419306D-04 -0.13199343D-05 -0.63535523D-06 -0.66409786D-04
  0.20191648D-04  0.46218138D-04 -0.10851488D-03 -0.63888024D-05 -0.30752734D-05
  0.21030027D-04 -0.63941016D-05 -0.14635926D-04  0.34363473D-04  0.20231459D-05
  0.97384870D-06 -0.93094136D-04  0.87352876D-04  0.74813740D-05  0.15866779D-04
 -0.38885471D-03 -0.22893781D-04  0.26341563D-03  0.12679608D-03  0.44965894D-06
 -0.29250215D-04 -0.53460179D-05  0.50163207D-05  0.42962490D-06  0.91116465D-06
 -0.22330345D-04 -0.13146968D-05  0.15126889D-04  0.72813834D-05  0.25822085D-07
 -0.16797209D-05 -0.49836856D+00 -0.92889488D+00 -0.15750979D+01 -0.23839841D+01
 -0.29745161D+01 -0.25547126D+01 -0.98080385D+00  0.43871958D-02 -0.26645377D-03
 -0.49974064D-03 -0.85194824D-03 -0.13314293D-02 -0.17803746D-02 -0.19010250D-02
 -0.11622494D-02  0.76678158D-03 -0.46766309D-01 -0.12241127D-02 -0.58945575D-04
  0.70701832D-02  0.68556994D-02  0.46248143D-02  0.34032586D-02  0.33000160D-02
  0.22261713D-02  0.20036650D-03  0.19428810D-03  0.13106561D-03 -0.11498861D-02
 -0.55350189D-03 -0.32587367D-04  0.34645733D-03  0.16676851D-03  0.98184786D-05
  0.77764540D-05  0.37432246D-05  0.22038196D-06  0.63830055D-03 -0.19407291D-03
 -0.44422764D-03  0.10429955D-02  0.61406252D-04  0.29558125D-04  0.25510785D-03
 -0.77564592D-04 -0.17754325D-03  0.41685117D-03  0.24542070D-04  0.11813415D-04
 -0.51961957D-04  0.15798840D-04  0.36163117D-04 -0.84906847D-04 -0.49988819D-05
 -0.24062301D-05 -0.91264042D-04  0.85635647D-04  0.73343011D-05  0.15554862D-04
 -0.38121039D-03 -0.22443723D-04  0.25823726D-03  0.12430345D-03  0.44081930D-06
 -0.28675198D-04  0.18235710D-04 -0.17111086D-04 -0.14654862D-05 -0.31080582D-05
  0.76170660D-04  0.44845398D-05 -0.51599073D-04 -0.24837403D-04 -0.88081274D-07
  0.57296675D-05
MO    3     MO 0.0        OCC NO =    2.0000000  ORB. ENERGY =  -10.331668
  0.73569223D-04  0.13764830D-03  0.23782576D-03  0.38554330D-03  0.58547826D-03
  0.81374594D-03  0.96742653D-03  0.86170914D-03  0.42777822D-03  0.68921925D-04
  0.10581351D-05  0.18908771D-06  0.70659127D-08  0.17287747D+00  0.32291030D+00
  0.56042648D+00  0.90934443D+00  0.14075572D+01  0.20147902D+01  0.26299306D+01
  0.28026299D+01  0.20950227D+01  0.11059253D+00 -0.14210591D+01 -0.84427237D+00
  0.31653884D-02  0.46416398D-04  0.86629519D-04  0.15055448D-03  0.24400452D-03
  0.37897722D-03  0.54289581D-03  0.71684333D-03  0.77512027D-03  0.60770434D-03
  0.30239167D-04 -0.52095627D-03 -0.53928631D-03  0.24403469D-03 -0.55735346D-01
 -0.24736908D-03  0.86665196D-04 -0.37451796D-01 -0.49332420D-01 -0.54425217D-01
 -0.45206398D-01 -0.24010216D-01 -0.61929352D-02  0.63661268D-05 -0.18027559D-01
 -0.23746341D-01 -0.26197777D-01 -0.21760265D-01 -0.11557406D-01 -0.29809920D-02
  0.30643585D-05 -0.10613707D-02 -0.13980634D-02 -0.15423914D-02 -0.12811334D-02
 -0.68044106D-03 -0.17550560D-03  0.18041379D-06 -0.78191449D-02 -0.10265964D-01
 -0.11688555D-01 -0.98973886D-02 -0.56696052D-02 -0.12896385D-02  0.60362179D-03
 -0.37637740D-02 -0.49415594D-02 -0.56263289D-02 -0.47641442D-02 -0.27290852D-02
 -0.62077221D-03  0.29055556D-03 -0.22159181D-03 -0.29093380D-03 -0.33124954D-03
 -0.28048850D-03 -0.16067461D-03 -0.36547900D-04  0.17106429D-04 -0.19925982D-02
 -0.95914445D-03 -0.56469531D-04  0.78508243D-04  0.37790231D-04  0.22248959D-05
  0.15000312D-05  0.72204552D-06  0.42510356D-07 -0.85370576D-03  0.25956606D-03
  0.59413970D-03 -0.13949718D-02 -0.82128820D-04 -0.39533009D-04  0.21919318D-03
 -0.66644870D-04 -0.15254831D-03  0.35816590D-03  0.21086981D-04  0.10150295D-04
 -0.14659413D-05  0.44571401D-06  0.10202273D-05 -0.23953766D-05 -0.14102755D-06
 -0.67884129D-07  0.45265494D-06 -0.42473901D-06 -0.36376952D-07 -0.77149608D-07
  0.18907421D-05  0.11131725D-06 -0.12808152D-05 -0.61652509D-06 -0.21863927D-08
  0.14222436D-06  0.95677144D-05 -0.89776586D-05 -0.76889536D-06 -0.16307022D-05
  0.39964395D-04  0.23528996D-05 -0.27072441D-04 -0.13031419D-04 -0.46213526D-07
  0.30061797D-05  0.35582062D-04  0.66320385D-04  0.11245740D-03  0.17020951D-03
  0.21237177D-03  0.18239903D-03  0.70026534D-04 -0.31323298D-06 -0.27985481D-05
 -0.52487464D-05 -0.89479620D-05 -0.13983923D-04 -0.18699169D-04 -0.19966353D-04
 -0.12207037D-04  0.80534616D-05  0.91411931D-04 -0.36195833D-03 -0.95204043D-04
  0.24635157D-03  0.23887815D-03  0.16114579D-03  0.11858223D-03  0.11498487D-03
  0.77568117D-04  0.69815166D-05  0.67697226D-05  0.45668149D-05  0.44396846D-03
  0.21370584D-03  0.12581910D-04  0.26286783D-03  0.12653239D-03  0.74495815D-05
  0.76633586D-05  0.36887857D-05  0.21717688D-06 -0.27140543D-03  0.82519813D-04
  0.18888562D-03 -0.44348175D-03 -0.26109942D-04 -0.12568116D-04 -0.16833667D-03
  0.51182138D-04  0.11715453D-03 -0.27506538D-03 -0.16194446D-04 -0.77952560D-05
 -0.42732254D-04  0.12992583D-04  0.29739671D-04 -0.69825333D-04 -0.41109593D-05
 -0.19788253D-05  0.35554294D-04 -0.33361606D-04 -0.28572688D-05 -0.60598032D-05
  0.14851048D-03  0.87435391D-05 -0.10060308D-03 -0.48425661D-04 -0.17173269D-06
  0.11171173D-04  0.58202396D-05 -0.54612964D-05 -0.46773504D-06 -0.99199006D-06
  0.24311172D-04  0.14313178D-05 -0.16468729D-04 -0.79272829D-05 -0.28112649D-07
  0.18287216D-05
MO    4     MO 0.0        OCC NO =    2.0000000  ORB. ENERGY =   -7.798707
 -0.75827105D-04 -0.14187280D-03 -0.24512478D-03 -0.39737585D-03 -0.60344693D-03
 -0.83872028D-03 -0.99711741D-03 -0.88815550D-03 -0.44090698D-03 -0.71037179D-04
 -0.10906099D-05 -0.19489092D-06 -0.72827697D-08  0.86469152D-03  0.16151196D-02
  0.28031184D-02  0.45483220D-02  0.70402622D-02  0.10077496D-01  0.13154280D-01
  0.14018080D-01  0.10478799D-01  0.55315721D-03 -0.71077956D-02 -0.42228472D-02
  0.15832511D-04  0.79034557D-04  0.14750661D-03  0.25635351D-03  0.41547362D-03
  0.64529559D-03  0.92440455D-03  0.12205901D-02  0.13198199D-02  0.10347559D-02
  0.51489113D-04 -0.88704746D-03 -0.91825856D-03  0.41552499D-03  0.96580206D-03
 -0.17519534D-02 -0.20818627D-03  0.10357362D+02  0.13642970D+02  0.15051392D+02
  0.12501911D+02  0.66400689D+01  0.17126675D+01 -0.17605639D-02  0.49855542D+01
  0.65670937D+01  0.72450428D+01  0.60178409D+01  0.31962215D+01  0.82439875D+00
 -0.84745389D-03  0.29352399D+00  0.38663697D+00  0.42655115D+00  0.35429976D+00
  0.18817721D+00  0.48536392D-01 -0.49893761D-04  0.28085596D-01  0.36874329D-01
  0.41984137D-01  0.35550442D-01  0.20364662D-01  0.46322541D-02 -0.21681499D-02
  0.13519105D-01  0.17749593D-01  0.20209218D-01  0.17112336D-01  0.98026047D-02
  0.22297525D-02 -0.10436469D-02  0.79593590D-03  0.10450055D-02  0.11898156D-02
  0.10074870D-02  0.57712734D-03  0.13127645D-03 -0.61444603D-04  0.80700280D-01
  0.38845375D-01  0.22870175D-02 -0.31024473D-03 -0.14933744D-03 -0.87922263D-05
 -0.19279724D-04 -0.92803659D-05 -0.54638059D-06  0.14849850D-02 -0.45150417D-03
 -0.10334808D-02  0.24264943D-02  0.14285960D-03  0.68765993D-04 -0.57394354D-03
  0.17450540D-03  0.39943814D-03 -0.93783488D-03 -0.55214932D-04 -0.26577910D-04
 -0.43063190D-04  0.13093203D-04  0.29969987D-04 -0.70366089D-04 -0.41427962D-05
 -0.19941501D-05  0.84641281D-04 -0.79421322D-04 -0.68020726D-05 -0.14426092D-04
  0.35354709D-03  0.20815048D-04 -0.23949775D-03 -0.11528312D-03 -0.40883035D-06
  0.26594324D-04 -0.71110341D-04  0.66724856D-04  0.57146785D-05  0.12119905D-04
 -0.29702828D-03 -0.17487509D-04  0.20121112D-03  0.96853709D-04  0.34347384D-06
 -0.22342898D-04 -0.32896417D-03 -0.61314689D-03 -0.10396940D-02 -0.15736253D-02
 -0.19634249D-02 -0.16863201D-02 -0.64741108D-03  0.28959095D-05  0.18088380D-03
  0.33925204D-03  0.57835036D-03  0.90384904D-03  0.12086184D-02  0.12905227D-02
  0.78900025D-03 -0.52053444D-03 -0.93909067D-04  0.19561228D-02  0.48319029D-03
 -0.27066794D-03 -0.26245686D-03 -0.17705185D-03 -0.13028701D-03 -0.12633457D-03
 -0.85224555D-04 -0.76706341D-05 -0.74379348D-05 -0.50175869D-05 -0.91178975D-03
 -0.43889334D-03 -0.25839800D-04 -0.12298262D-02 -0.59198134D-03 -0.34852841D-04
 -0.37934950D-04 -0.18260127D-04 -0.10750631D-05  0.42747456D-03 -0.12997205D-03
 -0.29750251D-03  0.69850173D-03  0.41124218D-04  0.19795293D-04  0.40881244D-03
 -0.12429790D-03 -0.28451454D-03  0.66800747D-03  0.39328871D-04  0.18931096D-04
  0.16836410D-03 -0.51190479D-04 -0.11717362D-03  0.27511021D-03  0.16197085D-04
  0.77965263D-05  0.50932456D-04 -0.47791372D-04 -0.40931123D-05 -0.86808265D-05
  0.21274514D-03  0.12525348D-04 -0.14411654D-03 -0.69371025D-04 -0.24601156D-06
  0.16002998D-04 -0.14318451D-04  0.13435410D-04  0.11506814D-05  0.24404083D-05
 -0.59808247D-04 -0.35212044D-05  0.40514945D-04  0.19502017D-04  0.69160312D-07
 -0.44988631D-05
MO    5     MO 0.0        OCC NO =    2.0000000  ORB. ENERGY =   -7.797010
 -0.23987267D-14 -0.44880269D-14 -0.77543162D-14 -0.12570651D-13 -0.19089536D-13
 -0.26532211D-13 -0.31542971D-13 -0.28096052D-13 -0.13947722D-13 -0.22472014D-14
 -0.34500528D-16 -0.61652104D-17 -0.23038429D-18  0.27336548D-14  0.51060746D-14
  0.88618401D-14  0.14379165D-13  0.22257240D-13  0.31859217D-13  0.41586229D-13
  0.44317067D-13  0.33127907D-13  0.17487634D-14 -0.22470741D-13 -0.13350202D-13
  0.50053248D-16 -0.14108681D-14 -0.26331820D-14 -0.45762385D-14 -0.74167364D-14
 -0.11519353D-13 -0.16501805D-13 -0.21789096D-13 -0.23560476D-13 -0.18471719D-13
 -0.91914662D-15  0.15834933D-13  0.16392092D-13 -0.74176533D-14  0.20173732D-13
 -0.35413109D-13 -0.83795702D-14  0.50092874D+01  0.65983558D+01  0.72795322D+01
  0.60464882D+01  0.32114368D+01  0.82832322D+00 -0.85148811D-03 -0.10393251D+02
 -0.13690244D+02 -0.15103546D+02 -0.12545231D+02 -0.66630770D+01 -0.17186019D+01
  0.17666643D-02 -0.22788152D+00 -0.30017110D+00 -0.33115905D+00 -0.27506565D+00
 -0.14609405D+00 -0.37681917D-01  0.38735730D-04  0.29606620D-02  0.38871322D-02
  0.44257860D-02  0.37475738D-02  0.21467546D-02  0.48831219D-03 -0.22855698D-03
 -0.61427705D-02 -0.80650074D-02 -0.91826042D-02 -0.77754521D-02 -0.44540783D-02
 -0.10131483D-02  0.47420916D-03 -0.13468586D-03 -0.17683266D-03 -0.20133699D-03
 -0.17048389D-03 -0.97659737D-04 -0.22214202D-04  0.10397469D-04  0.36503686D-01
 -0.75737711D-01 -0.16606185D-02  0.72737569D-04 -0.15091564D-03 -0.33089632D-05
 -0.69986096D-05  0.14520689D-04  0.31837937D-06  0.10126814D-02 -0.10113758D-02
 -0.13055708D-05 -0.16136497D-02 -0.17369669D-04 -0.81719987D-04 -0.19610526D-03
  0.19585244D-03  0.25282316D-06  0.31248247D-03  0.33636280D-05  0.15825036D-04
 -0.94098369D-05  0.93977055D-05  0.12131366D-07  0.14994035D-04  0.16139899D-06
  0.75934223D-06  0.12882206D-03  0.52496628D-05  0.19109172D-05 -0.34401962D-03
 -0.10269016D-03  0.38298343D-05 -0.42446570D-04  0.86941173D-04 -0.95625858D-05
 -0.22928216D-04 -0.61552211D-04 -0.25083308D-05 -0.91305149D-06  0.16437532D-03
  0.49066180D-04 -0.18299254D-05  0.20281311D-04 -0.41541188D-04  0.45690799D-05
  0.10955285D-04 -0.11704714D-13 -0.21816082D-13 -0.36992846D-13 -0.55990396D-13
 -0.69859666D-13 -0.60000136D-13 -0.23035219D-13  0.10303795D-15  0.82877235D-14
  0.15543831D-13  0.26498824D-13  0.41412504D-13  0.55376408D-13  0.59129094D-13
  0.36150368D-13 -0.23849817D-13 -0.11371569D-14  0.38487057D-13  0.16652385D-13
  0.70423553D-04  0.68287157D-04  0.46066113D-04 -0.14611452D-03 -0.14168194D-03
 -0.95577798D-04 -0.32036944D-05 -0.31065059D-05 -0.20956305D-05  0.27340276D-04
 -0.56725503D-04 -0.12437585D-05  0.89504041D-04 -0.18570265D-03 -0.40717002D-05
  0.17971843D-05 -0.37287913D-05 -0.81757155D-07  0.25830759D-04 -0.25797458D-04
 -0.33301560D-07 -0.41159832D-04 -0.44305321D-06 -0.20844555D-05 -0.12932331D-03
  0.12915659D-03  0.16672641D-06  0.20606927D-03  0.22181736D-05  0.10435957D-04
 -0.65601331D-04  0.65516756D-04  0.84574653D-07  0.10453195D-03  0.11252043D-05
  0.52938070D-05 -0.13487136D-03 -0.54961793D-05 -0.20006510D-05  0.36017427D-03
  0.10751234D-03 -0.40096777D-05  0.44439799D-04 -0.91023804D-04  0.10011631D-04
  0.24004892D-04  0.10403518D-03  0.42395660D-05  0.15432342D-05 -0.27782620D-03
 -0.82931367D-04  0.30929292D-05 -0.34279351D-04  0.70212669D-04 -0.77226319D-05
 -0.18516558D-04
MO    6     MO 0.0        OCC NO =    2.0000000  ORB. ENERGY =   -7.797010
  0.99366938D-15  0.18591592D-14  0.32122153D-14  0.52073756D-14  0.79078152D-14
  0.10990933D-13  0.13066634D-13  0.11638753D-13  0.57778253D-14  0.93090023D-15
  0.14291798D-16  0.25539303D-17  0.95436390D-19 -0.54877125D-16 -0.10250259D-15
 -0.17789822D-15 -0.28865651D-15 -0.44680600D-15 -0.63956219D-15 -0.83482843D-15
 -0.88964900D-15 -0.66503069D-15 -0.35105789D-16  0.45109196D-15  0.26800045D-15
 -0.10048008D-17  0.12151183D-14  0.22678432D-14  0.39413119D-14  0.63877072D-14
  0.99211093D-14  0.14212275D-13  0.18765985D-13  0.20291597D-13  0.15908875D-13
  0.79162036D-15 -0.13637928D-13 -0.14117784D-13  0.63884969D-14 -0.86395178D-15
 -0.10344997D-13 -0.27210073D-14 -0.16650372D+00 -0.21932276D+00 -0.24196439D+00
 -0.20097923D+00 -0.10674495D+00 -0.27532637D-01  0.28302615D-04 -0.33313718D+00
 -0.43881643D+00 -0.48411732D+00 -0.40211508D+00 -0.21357309D+00 -0.55086729D-01
  0.56627285D-04  0.11533683D+02  0.15192449D+02  0.16760831D+02  0.13921796D+02
  0.73942043D+01  0.19071810D+01 -0.19605172D-02 -0.98409452D-04 -0.12920440D-03
 -0.14710871D-03 -0.12456561D-03 -0.71355980D-04 -0.16231010D-04  0.75970059D-05
 -0.19689559D-03 -0.25850947D-03 -0.29433205D-03 -0.24922829D-03 -0.14276756D-03
 -0.32474667D-04  0.15199932D-04  0.68168055D-02  0.89499659D-02  0.10190195D-01
  0.86286383D-02  0.49428162D-02  0.11243192D-02 -0.52624327D-03 -0.12133461D-02
 -0.24276377D-02  0.84048272D-01 -0.24177242D-05 -0.48373324D-05  0.16747533D-03
  0.23262680D-06  0.46543487D-06 -0.16114018D-04 -0.33660519D-04 -0.32417854D-04
  0.66078373D-04 -0.83549882D-04  0.23307044D-02  0.11204437D-02  0.65183431D-05
  0.62777016D-05 -0.12796045D-04  0.16179394D-04 -0.45133976D-03 -0.21697337D-03
  0.31277359D-06  0.30122674D-06 -0.61400033D-06  0.77634561D-06 -0.21656908D-04
 -0.10411164D-04 -0.42819168D-05  0.16826861D-06 -0.96716545D-04 -0.10861734D-04
 -0.14037957D-04  0.29628554D-03  0.23707485D-04  0.13533151D-04 -0.61358999D-05
  0.37816094D-03  0.20459341D-05 -0.80400085D-07  0.46211938D-04  0.51898235D-05
  0.67074479D-05 -0.14156760D-03 -0.11327626D-04 -0.64662476D-05  0.29317820D-05
 -0.18068832D-03 -0.17966543D-14 -0.33487325D-14 -0.56783408D-14 -0.85944333D-14
 -0.10723343D-13 -0.92099219D-14 -0.35358681D-14  0.15816155D-16  0.11264960D-14
  0.21127711D-14  0.36018116D-14  0.56289304D-14  0.75269525D-14  0.80370304D-14
  0.49136828D-14 -0.32417495D-14 -0.71523621D-15  0.10954436D-13  0.47374610D-14
 -0.23408086D-05 -0.22697970D-05 -0.15311916D-05 -0.46834413D-05 -0.45413626D-05
 -0.30635764D-05  0.16214740D-03  0.15722844D-03  0.10606538D-03 -0.90876351D-06
 -0.18182352D-05  0.62949889D-04 -0.29750250D-05 -0.59523683D-05  0.20607946D-03
 -0.59736613D-07 -0.11951977D-06  0.41379447D-05 -0.85858866D-06 -0.82689164D-06
  0.16854803D-05 -0.21311312D-05  0.59449954D-04  0.28579482D-04  0.42985778D-05
  0.41398847D-05 -0.84384626D-05  0.10669641D-04 -0.29763991D-03 -0.14308497D-03
  0.21805228D-05  0.21000231D-05 -0.42805459D-05  0.54123473D-05 -0.15098264D-03
 -0.72582151D-04  0.44829894D-05 -0.17617026D-06  0.10125821D-03  0.11371786D-04
  0.14697159D-04 -0.31019867D-03 -0.24820754D-04 -0.14168648D-04  0.64240327D-05
 -0.39591883D-03 -0.34580257D-05  0.13589175D-06 -0.78107145D-04 -0.87718090D-05
 -0.11336889D-04  0.23927671D-03  0.19145886D-04  0.10929213D-04 -0.49552806D-05
  0.30539833D-03
MO    7     MO 0.0        OCC NO =    2.0000000  ORB. ENERGY =   -1.033368
 -0.40730393D-03 -0.76206721D-03 -0.13166833D-02 -0.21344972D-02 -0.32414043D-02
 -0.45051708D-02 -0.53559982D-02 -0.47707112D-02 -0.23683239D-02 -0.38157493D-03
 -0.58581915D-05 -0.10468531D-05 -0.39119266D-07 -0.22511610D-03 -0.42048456D-03
 -0.72977134D-03 -0.11841223D-02 -0.18328807D-02 -0.26236022D-02 -0.34246204D-02
 -0.36495045D-02 -0.27280787D-02 -0.14401043D-03  0.18504625D-02  0.10993873D-02
 -0.41218783D-05 -0.25942839D-01 -0.48418572D-01 -0.84147216D-01 -0.13637788D+00
 -0.21181620D+00 -0.30343283D+00 -0.40065477D+00 -0.43322666D+00 -0.33965531D+00
 -0.16901136D-01  0.29117048D+00  0.30141542D+00 -0.13639474D+00 -0.21569484D-01
 -0.27809534D-01  0.95627307D-03  0.98558707D-01  0.12982394D+00  0.14322621D+00
  0.11896583D+00  0.63185645D-01  0.16297421D-01 -0.16753195D-04  0.47441595D-01
  0.62491227D-01  0.68942463D-01  0.57264640D-01  0.30414642D-01  0.78448233D-02
 -0.80642116D-05  0.27931190D-02  0.36791646D-02  0.40589804D-02  0.33714498D-02
  0.17906589D-02  0.46186316D-03 -0.47477963D-06  0.45024178D+00  0.59113445D+00
  0.67305006D+00  0.56991115D+00  0.32646705D+00  0.74259927D-01 -0.34757733D-01
  0.21672553D+00  0.28454473D+00  0.32397511D+00  0.27432882D+00  0.15714611D+00
  0.35745288D-01 -0.16730762D-01  0.12759693D-01  0.16752542D-01  0.19074001D-01
  0.16151081D-01  0.92519611D-02  0.21045002D-02 -0.98502189D-03 -0.56306875D-01
 -0.27103521D-01 -0.15957170D-02  0.28170984D-03  0.13560206D-03  0.79835576D-05
  0.81502941D-04  0.39231739D-04  0.23097646D-05 -0.28067180D-01  0.85337218D-02
  0.19533459D-01 -0.45862318D-01 -0.27001392D-02 -0.12997219D-02 -0.40894002D-02
  0.12433669D-02  0.28460333D-02 -0.66821593D-02 -0.39341144D-03 -0.18937004D-03
  0.28331284D-03 -0.86140216D-04 -0.19717263D-03  0.46293868D-03  0.27255467D-04
  0.13119519D-04 -0.30207537D-02  0.28344592D-02  0.24275845D-03  0.51485126D-03
 -0.12617705D-01 -0.74286606D-03  0.85474099D-02  0.41143271D-02  0.14590703D-04
 -0.94912202D-03 -0.11057656D-03  0.10375713D-03  0.88863230D-05  0.18846448D-04
 -0.46187887D-03 -0.27193071D-04  0.31288322D-03  0.15060748D-03  0.53410170D-06
 -0.34743198D-04  0.34530960D-02  0.64361267D-02  0.10913538D-01  0.16518149D-01
  0.20609827D-01  0.17701092D-01  0.67957936D-02 -0.30398002D-04  0.84371638D-01
  0.15824110D+00  0.26976638D+00  0.42159235D+00  0.56374930D+00  0.60195282D+00
  0.36802215D+00 -0.24279866D+00 -0.12414215D+00 -0.68530399D-01 -0.24282052D-02
  0.16199668D+00  0.15708228D+00  0.10596678D+00  0.77977694D-01  0.75612133D-01
  0.51007498D-01  0.45909287D-02  0.44516565D-02  0.30030612D-02  0.50063112D-01
  0.24098062D-01  0.14187709D-02  0.41319183D-02  0.19889140D-02  0.11709711D-03
 -0.43915738D-04 -0.21139001D-04 -0.12445565D-05 -0.14458162D-01  0.43959504D-02
  0.10062212D-01 -0.23624917D-01 -0.13909146D-02 -0.66952182D-03 -0.77382552D-02
  0.23527877D-02  0.53854675D-02 -0.12644459D-01 -0.74444124D-03 -0.35833952D-03
  0.11529581D-03 -0.35055261D-04 -0.80240545D-04  0.18839559D-03  0.11091771D-04
  0.53390645D-05  0.44445933D-02 -0.41704884D-02 -0.35718324D-03 -0.75752765D-03
  0.18565090D-01  0.10930178D-02 -0.12576252D-01 -0.60536251D-02 -0.21468067D-04
  0.13964930D-02  0.56288859D-03 -0.52817438D-03 -0.45235718D-04 -0.95937612D-04
  0.23511887D-02  0.13842599D-03 -0.15927282D-02 -0.76666554D-03 -0.27188381D-05
  0.17685982D-03
MO    8     MO 0.0        OCC NO =    2.0000000  ORB. ENERGY =   -0.740343
 -0.38037574D-03 -0.71168447D-03 -0.12296331D-02 -0.19933787D-02 -0.30271045D-02
 -0.42073193D-02 -0.50018957D-02 -0.44553040D-02 -0.22117463D-02 -0.35634777D-03
 -0.54708874D-05 -0.97764220D-06 -0.36532964D-07  0.47711370D-03  0.89117988D-03
  0.15466859D-02  0.25096427D-02  0.38846288D-02  0.55604932D-02  0.72581805D-02
  0.77348025D-02  0.57819219D-02  0.30521738D-03 -0.39218919D-02 -0.23300544D-02
  0.87359570D-05  0.43435585D-01  0.81066261D-01  0.14088603D+00  0.22833480D+00
  0.35463970D+00  0.50803160D+00  0.67080839D+00  0.72534285D+00  0.56867820D+00
  0.28297239D-01 -0.48750100D+00 -0.50465391D+00  0.22836303D+00  0.44481777D-01