 Molden2AIM, Version 4.0.0 (06/02/2016)           Time: Sun Jun 24 19:46:11 2018
GAUSSIAN              7 MOL ORBITALS    201 PRIMITIVES        2 NUCLEI
  C    1    (CENTRE  1)   0.00000000  0.00000000 -1.21389770  CHARGE =  6.0
  O    2    (CENTRE  2)   0.00000000  0.00000000  0.90932865  CHARGE =  8.0
CENTRE ASSIGNMENTS    1  1  1  1  1  1  1  1  1  1  1  1  1  1  1  1  1  1  1  1
CENTRE ASSIGNMENTS    1  1  1  1  1  1  1  1  1  1  1  1  1  1  1  1  1  1  1  1
CENTRE ASSIGNMENTS    1  1  1  1  1  1  1  1  1  1  1  1  1  1  1  1  1  1  1  1
CENTRE ASSIGNMENTS    1  1  1  1  1  1  1  1  1  1  1  1  1  1  1  1  1  1  1  1
CENTRE ASSIGNMENTS    1  1  1  1  1  1  1  1  1  1  1  1  1  1  1  1  1  1  1  2
CENTRE ASSIGNMENTS    2  2  2  2  2  2  2  2  2  2  2  2  2  2  2  2  2  2  2  2
CENTRE ASSIGNMENTS    2  2  2  2  2  2  2  2  2  2  2  2  2  2  2  2  2  2  2  2
CENTRE ASSIGNMENTS    2  2  2  2  2  2  2  2  2  2  2  2  2  2  2  2  2  2  2  2
CENTRE ASSIGNMENTS    2  2  2  2  2  2  2  2  2  2  2  2  2  2  2  2  2  2  2  2
CENTRE ASSIGNMENTS    2  2  2  2  2  2  2  2  2  2  2  2  2  2  2  2  2  2  2  2
CENTRE ASSIGNMENTS    2
TYPE ASSIGNMENTS      1  1  1  1  1  1  1  1  1  1  1  1  1  1  1  1  2  2  2  2
TYPE ASSIGNMENTS      2  3  3  3  3  3  4  4  4  4  4  2  3  4  2  3  4  2  3  4
TYPE ASSIGNMENTS      5  6  7  8  9 10  5  6  7  8  9 10  5  6  7  8  9 10  5  6
TYPE ASSIGNMENTS      7  8  9 10 11 12 13 17 14 15 18 19 16 20 11 12 13 17 14 15
TYPE ASSIGNMENTS     18 19 16 20 21 22 23 24 25 26 27 28 29 30 31 32 33 34 35  1
TYPE ASSIGNMENTS      1  1  1  1  1  1  1  1  1  1  1  1  1  1  1  2  2  2  2  2
TYPE ASSIGNMENTS      3  3  3  3  3  4  4  4  4  4  2  3  4  2  3  4  2  3  4  2
TYPE ASSIGNMENTS      3  4  5  6  7  8  9 10  5  6  7  8  9 10  5  6  7  8  9 10
TYPE ASSIGNMENTS      5  6  7  8  9 10 11 12 13 17 14 15 18 19 16 20 11 12 13 17
TYPE ASSIGNMENTS     14 15 18 19 16 20 21 22 23 24 25 26 27 28 29 30 31 32 33 34
TYPE ASSIGNMENTS     35
EXPONENTS  0.6702507D+05 0.1003999D+05 0.2284932D+04 0.6471412D+03 0.2110947D+03
EXPONENTS  0.7617764D+02 0.2963384D+02 0.1218779D+02 0.5302601D+02 0.1525850D+02
EXPONENTS  0.5240396D+01 0.2290502D+01 0.6967328D+00 0.2759934D+00 0.1073988D+00
EXPONENTS  0.4498140D-01 0.1051256D+03 0.2488446D+02 0.7863723D+01 0.2840700D+01
EXPONENTS  0.1122714D+01 0.1051256D+03 0.2488446D+02 0.7863723D+01 0.2840700D+01
EXPONENTS  0.1122714D+01 0.1051256D+03 0.2488446D+02 0.7863723D+01 0.2840700D+01
EXPONENTS  0.1122714D+01 0.4605073D+00 0.4605073D+00 0.4605073D+00 0.1893753D+00
EXPONENTS  0.1893753D+00 0.1893753D+00 0.7598379D-01 0.7598379D-01 0.7598379D-01
EXPONENTS  0.1848000D+01 0.1848000D+01 0.1848000D+01 0.1848000D+01 0.1848000D+01
EXPONENTS  0.1848000D+01 0.6490000D+00 0.6490000D+00 0.6490000D+00 0.6490000D+00
EXPONENTS  0.6490000D+00 0.6490000D+00 0.2280000D+00 0.2280000D+00 0.2280000D+00
EXPONENTS  0.2280000D+00 0.2280000D+00 0.2280000D+00 0.7688983D-01 0.7688983D-01
EXPONENTS  0.7688983D-01 0.7688983D-01 0.7688983D-01 0.7688983D-01 0.1419000D+01
EXPONENTS  0.1419000D+01 0.1419000D+01 0.1419000D+01 0.1419000D+01 0.1419000D+01
EXPONENTS  0.1419000D+01 0.1419000D+01 0.1419000D+01 0.1419000D+01 0.4850000D+00
EXPONENTS  0.4850000D+00 0.4850000D+00 0.4850000D+00 0.4850000D+00 0.4850000D+00
EXPONENTS  0.4850000D+00 0.4850000D+00 0.4850000D+00 0.4850000D+00 0.1011000D+01
EXPONENTS  0.1011000D+01 0.1011000D+01 0.1011000D+01 0.1011000D+01 0.1011000D+01
EXPONENTS  0.1011000D+01 0.1011000D+01 0.1011000D+01 0.1011000D+01 0.1011000D+01
EXPONENTS  0.1011000D+01 0.1011000D+01 0.1011000D+01 0.1011000D+01 0.1165065D+06
EXPONENTS  0.1750435D+05 0.3993451D+04 0.1133006D+04 0.3699957D+03 0.1336207D+03
EXPONENTS  0.5203564D+02 0.2146194D+02 0.8983505D+02 0.2642801D+02 0.9282282D+01
EXPONENTS  0.4094773D+01 0.1325535D+01 0.5187723D+00 0.1977268D+00 0.6963854D-01
EXPONENTS  0.1911526D+03 0.4523336D+02 0.1435347D+02 0.5242237D+01 0.2079242D+01
EXPONENTS  0.1911526D+03 0.4523336D+02 0.1435347D+02 0.5242237D+01 0.2079242D+01
EXPONENTS  0.1911526D+03 0.4523336D+02 0.1435347D+02 0.5242237D+01 0.2079242D+01
EXPONENTS  0.8428237D+00 0.8428237D+00 0.8428237D+00 0.3361769D+00 0.3361769D+00
EXPONENTS  0.3361769D+00 0.1286400D+00 0.1286400D+00 0.1286400D+00 0.4359816D-01
EXPONENTS  0.4359816D-01 0.4359816D-01 0.3775000D+01 0.3775000D+01 0.3775000D+01
EXPONENTS  0.3775000D+01 0.3775000D+01 0.3775000D+01 0.1300000D+01 0.1300000D+01
EXPONENTS  0.1300000D+01 0.1300000D+01 0.1300000D+01 0.1300000D+01 0.4440000D+00
EXPONENTS  0.4440000D+00 0.4440000D+00 0.4440000D+00 0.4440000D+00 0.4440000D+00
EXPONENTS  0.1254638D+00 0.1254638D+00 0.1254638D+00 0.1254638D+00 0.1254638D+00
EXPONENTS  0.1254638D+00 0.2666000D+01 0.2666000D+01 0.2666000D+01 0.2666000D+01
EXPONENTS  0.2666000D+01 0.2666000D+01 0.2666000D+01 0.2666000D+01 0.2666000D+01
EXPONENTS  0.2666000D+01 0.8590000D+00 0.8590000D+00 0.8590000D+00 0.8590000D+00
EXPONENTS  0.8590000D+00 0.8590000D+00 0.8590000D+00 0.8590000D+00 0.8590000D+00
EXPONENTS  0.8590000D+00 0.1846000D+01 0.1846000D+01 0.1846000D+01 0.1846000D+01
EXPONENTS  0.1846000D+01 0.1846000D+01 0.1846000D+01 0.1846000D+01 0.1846000D+01
EXPONENTS  0.1846000D+01 0.1846000D+01 0.1846000D+01 0.1846000D+01 0.1846000D+01
EXPONENTS  0.1846000D+01
MO    1     MO 0.0        OCC NO =    2.0000000  ORB. ENERGY =  -20.664871
  0.69492480D-05  0.13005354D-04  0.22470948D-04  0.36518046D-04  0.55732035D-04
  0.78201073D-04  0.94960044D-04  0.90716078D-04 -0.92938936D-04 -0.37118421D-03
  0.52856947D-03 -0.88390197D-03  0.35110494D-03  0.22361811D-02  0.51003735D-03
  0.25086578D-04 -0.23170066D-15 -0.29952373D-15 -0.32253241D-15 -0.29974247D-15
 -0.22390840D-15  0.14641589D-15  0.18927453D-15  0.20381413D-15  0.18941276D-15
  0.14149182D-15  0.64124253D-04  0.82894608D-04  0.89262369D-04  0.82955146D-04
  0.61967708D-04  0.18654663D-15 -0.69464782D-16  0.25332605D-02 -0.42111912D-16
  0.19546583D-16  0.59608468D-03  0.97057148D-17  0.17176236D-17  0.25066005D-04
 -0.22699911D-04 -0.22699911D-04  0.45399822D-04 -0.85283215D-16  0.11063243D-15
 -0.62388026D-16 -0.67672013D-03 -0.67672013D-03  0.13534403D-02  0.51426281D-16
 -0.13351241D-15 -0.26400348D-15 -0.83147666D-04 -0.83147666D-04  0.16629533D-03
 -0.87726012D-17 -0.33202889D-16  0.54601091D-16  0.53454293D-06  0.53454293D-06
 -0.10690859D-05 -0.57919505D-18  0.10384093D-17 -0.48601812D-17  0.40031361D-16
 -0.29838701D-16  0.71393635D-03  0.39928251D-16 -0.29708412D-16 -0.10709045D-02
 -0.16002233D-15  0.11922451D-15 -0.10709045D-02 -0.28754286D-17  0.15565814D-16
  0.16957237D-16  0.13986429D-03  0.15572363D-16  0.16953420D-16 -0.20979644D-03
 -0.62269806D-16 -0.67825130D-16 -0.20979644D-03  0.43420118D-18  0.22636046D-04
  0.22636046D-04  0.60362791D-04  0.15470830D-18  0.35239311D-16  0.17090542D-18
  0.12031152D-15 -0.47005088D-16 -0.16042289D-15  0.45272093D-04 -0.18108837D-03
 -0.18108837D-03  0.12033411D-15  0.35297332D-16 -0.97684117D-18  0.18134052D+00
  0.33869238D+00  0.58455721D+00  0.94953894D+00  0.14492013D+01  0.20353764D+01
  0.24742170D+01  0.23473275D+01 -0.33338021D-04 -0.12992355D-03  0.13876856D+01
  0.33351602D+00  0.11366173D-01 -0.25983389D-02 -0.14551373D-02 -0.18027496D-03
 -0.66722276D-16 -0.87862843D-16 -0.97749455D-16 -0.90776810D-16 -0.63281779D-16
  0.15389263D-16  0.20265262D-16  0.22545575D-16  0.20937358D-16  0.14595724D-16
 -0.46177173D-02 -0.60808142D-02 -0.67650472D-02 -0.62824842D-02 -0.43796073D-02
 -0.46309461D-16  0.16178130D-15  0.25596227D-02  0.11689217D-15 -0.37747642D-16
  0.15243903D-02 -0.89327669D-17 -0.26680878D-17  0.18275881D-03  0.19616274D-18
  0.14925084D-17  0.44142434D-05 -0.18575084D-02 -0.18575084D-02  0.37150168D-02
  0.11907362D-16 -0.13252400D-15  0.68331747D-16  0.38886911D-03  0.38886911D-03
 -0.77773822D-03 -0.15540943D-17 -0.10463368D-16 -0.81655032D-16  0.32995967D-03
  0.32995967D-03 -0.65991934D-03  0.74858601D-17 -0.13929895D-15 -0.67421419D-16
  0.41396045D-05  0.41396045D-05 -0.82792090D-05 -0.62476488D-18 -0.10315386D-18
  0.97819250D-17  0.24494790D-16 -0.11749323D-16 -0.98131516D-03  0.24893590D-16
 -0.11184276D-16  0.14719727D-02 -0.98377961D-16  0.46432245D-16  0.14719727D-02
  0.30548300D-17 -0.30315614D-16  0.21052031D-18  0.40323578D-03 -0.30416652D-16
  0.28698781D-18 -0.60485368D-03  0.12136349D-15 -0.91854873D-18 -0.60485368D-03
 -0.84795814D-17 -0.64411438D-04 -0.64411438D-04 -0.17176383D-03 -0.11446216D-17
  0.67272791D-16  0.24379915D-18  0.10496581D-15 -0.89687407D-16 -0.13977944D-15
 -0.12882288D-03  0.51529150D-03  0.51529150D-03  0.10444089D-15  0.67243847D-16
  0.27024674D-17
MO    2     MO 0.0        OCC NO =    2.0000000  ORB. ENERGY =  -11.358155
  0.11509712D+00  0.21540155D+00  0.37217572D+00  0.60483116D+00  0.92306341D+00
  0.12952075D+01  0.15727784D+01  0.15024876D+01 -0.43243595D-03 -0.17270845D-02
  0.91632429D+00  0.23182331D+00  0.77362696D-02 -0.25180681D-02 -0.74288375D-03
 -0.38108991D-04 -0.11946877D-16 -0.15443949D-16 -0.16630315D-16 -0.15455227D-16
 -0.11545095D-16  0.78215437D-18  0.10111054D-17  0.10887761D-17  0.10118438D-17
  0.75584996D-18  0.36881099D-02  0.47676879D-02  0.51339300D-02  0.47711697D-02
  0.35640761D-02 -0.71273251D-17 -0.25861028D-17 -0.16879817D-02  0.73030358D-18
 -0.52904101D-18 -0.74642446D-03  0.53014256D-18 -0.66961936D-18 -0.27039554D-04
 -0.14527922D-02 -0.14527922D-02  0.29055843D-02 -0.18720655D-16 -0.98793175D-17
  0.77451831D-17  0.12869682D-03  0.12869682D-03 -0.25739364D-03 -0.40255092D-17
 -0.31173921D-17  0.41110296D-17  0.11557678D-03  0.11557678D-03 -0.23115356D-03
  0.46723371D-18  0.48168950D-18  0.62700208D-18 -0.21843515D-05 -0.21843515D-05
  0.43687030D-05 -0.99789185D-20  0.16246701D-18 -0.16930561D-18  0.10261551D-17
 -0.13808082D-17  0.98455151D-03  0.14432320D-17 -0.95422342D-18 -0.14768273D-02
 -0.45216975D-17  0.50966481D-17 -0.14768273D-02  0.80369043D-17  0.14540177D-18
 -0.53657982D-18 -0.18442062D-03  0.16032321D-18 -0.55391263D-18  0.27663093D-03
 -0.59652851D-18  0.21636521D-17  0.27663093D-03 -0.10871050D-18  0.13140109D-05
  0.13140109D-05  0.35040290D-05 -0.31574519D-19  0.11441407D-17 -0.12832714D-19
 -0.12375813D-17 -0.15084990D-17  0.16479483D-17  0.26280218D-05 -0.10512087D-04
 -0.10512087D-04 -0.12311010D-17  0.10930749D-17  0.13322170D-18 -0.11480326D-03
 -0.21441976D-03 -0.37007215D-03 -0.60113521D-03 -0.91746203D-03 -0.12885585D-02
 -0.15663801D-02 -0.14860488D-02 -0.89801371D-04 -0.34997018D-03 -0.10830407D-02
 -0.71064472D-03  0.43423810D-03  0.12481815D-02  0.16932005D-02  0.30736658D-03
 -0.29688354D-16 -0.39094937D-16 -0.43494026D-16 -0.40391519D-16 -0.28157490D-16
 -0.35661321D-17 -0.46960405D-17 -0.52244542D-17 -0.48517844D-17 -0.33822465D-17
 -0.14331991D-02 -0.18873000D-02 -0.20996651D-02 -0.19498922D-02 -0.13592970D-02
 -0.13090808D-16 -0.28183033D-17 -0.14733054D-02 -0.28215698D-17 -0.31245369D-17
 -0.87996702D-03 -0.17255933D-17  0.14445134D-17 -0.32651562D-03 -0.12564255D-18
  0.10805800D-18 -0.10095356D-04 -0.82987254D-03 -0.82987254D-03  0.16597451D-02
  0.28340154D-18  0.61684306D-17  0.10482400D-17 -0.47376513D-03 -0.47376513D-03
  0.94753026D-03 -0.82880451D-18 -0.18469757D-19  0.39331143D-17 -0.34994011D-04
 -0.34994011D-04  0.69988021D-04  0.30101922D-18  0.65644687D-18  0.19745099D-17
 -0.13456223D-04 -0.13456223D-04  0.26912445D-04  0.37314932D-19  0.31213715D-18
 -0.37921455D-18  0.97662187D-18 -0.97015301D-18 -0.22148660D-02  0.11332142D-17
 -0.96506131D-18  0.33222990D-02 -0.40630799D-17  0.38755203D-17  0.33222990D-02
 -0.26453717D-17 -0.16027691D-18  0.64837790D-18  0.22332761D-03 -0.19195530D-18
  0.68611590D-18 -0.33499142D-03  0.67278603D-18 -0.26312496D-17 -0.33499142D-03
  0.21943513D-17 -0.78284465D-04 -0.78284465D-04 -0.20875857D-03 -0.97095149D-18
 -0.17473552D-17 -0.66041468D-18  0.18676643D-17  0.23369179D-17 -0.23890570D-17
 -0.15656893D-03  0.62627572D-03  0.62627572D-03  0.15641781D-17 -0.17686883D-17
  0.48940985D-17
MO    3     MO 0.0        OCC NO =    2.0000000  ORB. ENERGY =   -1.524892
  0.12445895D-01  0.23292200D-01  0.40244796D-01  0.65402728D-01  0.99814408D-01
  0.14005578D+00  0.17007060D+00  0.16246978D+00  0.93607122D-02  0.37385285D-01
  0.17545621D+00  0.57463938D-01 -0.75494470D-01 -0.36247386D-01  0.10688372D-02
  0.41278066D-03  0.86860981D-16  0.11228680D-15  0.12091239D-15  0.11236880D-15
  0.83939784D-16  0.14791043D-16  0.19120655D-16  0.20589457D-16  0.19134619D-16
  0.14293610D-16 -0.13835467D+00 -0.17885365D+00 -0.19259275D+00 -0.17898427D+00
 -0.13370171D+00 -0.12773287D-15 -0.31287101D-16 -0.47400770D-01  0.94264503D-17
 -0.28613549D-17 -0.26204945D-02  0.69589636D-17 -0.27278835D-17  0.55772727D-03
  0.29682669D-01  0.29682669D-01 -0.59365338D-01  0.64294032D-16  0.14499531D-15
  0.31356237D-16  0.96306353D-02  0.96306353D-02 -0.19261271D-01 -0.66722372D-17
 -0.12197263D-15 -0.63476895D-16  0.46807561D-03  0.46807561D-03 -0.93615122D-03
  0.61590930D-17  0.26884512D-16  0.19427305D-16 -0.31961751D-04 -0.31961751D-04
  0.63923503D-04 -0.43596892D-18  0.45732091D-18 -0.25295424D-17 -0.69674480D-19
  0.33814412D-17 -0.15267627D-01 -0.25889038D-17 -0.11328840D-18  0.22901441D-01
  0.27979272D-17 -0.10031035D-16  0.22901441D-01  0.78121844D-17  0.62112583D-17
  0.27011664D-17 -0.15586213D-02  0.62171604D-17  0.32911672D-17  0.23379319D-02
 -0.24850935D-16 -0.11394666D-16  0.23379319D-02  0.19248961D-17 -0.79392194D-03
 -0.79392194D-03 -0.21171252D-02 -0.46735955D-17  0.14569125D-16 -0.58271007D-17
 -0.14631905D-16 -0.19384753D-16  0.19595694D-16 -0.15878439D-02  0.63513755D-02
  0.63513755D-02 -0.14891366D-16  0.14446884D-16  0.31502089D-16  0.35564823D-01
  0.66424949D-01  0.11464439D+00  0.18622526D+00  0.28421992D+00  0.39918162D+00
  0.48524781D+00  0.46036201D+00  0.33093390D-01  0.12897019D+00  0.51156971D+00
  0.13829566D+00 -0.23666770D+00 -0.18795440D+00 -0.32884642D-01 -0.14605914D-02
 -0.17930500D-15 -0.23611675D-15 -0.26268538D-15 -0.24394755D-15 -0.17005924D-15
  0.95083318D-16  0.12520992D-15  0.13929894D-15  0.12936250D-15  0.90180400D-16
  0.23080257D+00  0.30393103D+00  0.33813034D+00  0.31401089D+00  0.21890137D+00
 -0.59664509D-16  0.54966238D-16  0.10185184D+00 -0.18113382D-16 -0.75015955D-17
  0.18443000D-01 -0.27472556D-16  0.73864693D-17  0.68368261D-03  0.11264326D-17
  0.16038619D-17 -0.10988012D-04  0.25803125D-01  0.25803125D-01 -0.51606250D-01
 -0.14224788D-16  0.29154842D-16  0.25975228D-18  0.18779642D-01  0.18779642D-01
 -0.37559284D-01 -0.13422615D-16  0.35176806D-16  0.38989249D-16  0.28538400D-02
  0.28538400D-02 -0.57076799D-02 -0.36149202D-17 -0.30961692D-16 -0.42147609D-17
 -0.11343434D-04 -0.11343434D-04  0.22686867D-04 -0.70683624D-18  0.95539050D-17
  0.14470777D-17 -0.10294140D-17 -0.36312181D-17  0.20088387D-01 -0.76870165D-17
 -0.65503001D-17 -0.30132580D-01  0.10775258D-16  0.17443954D-16 -0.30132580D-01
 -0.17817729D-16 -0.34982261D-17  0.23445766D-17  0.46614138D-02 -0.10038309D-17
  0.32704050D-18 -0.69921208D-02  0.11498509D-16 -0.73607704D-17 -0.69921208D-02
  0.14738793D-16 -0.16981091D-02 -0.16981091D-02 -0.45282910D-02  0.92733306D-17
  0.60961740D-16 -0.99705690D-17  0.12162714D-16 -0.81673560D-16 -0.17866163D-16
 -0.33962183D-02  0.13584873D-01  0.13584873D-01  0.17110347D-16  0.62135460D-16
  0.20917151D-17
MO    4     MO 0.0        OCC NO =    2.0000000  ORB. ENERGY =   -0.804936
  0.14271743D-01  0.26709232D-01  0.46148821D-01  0.74997491D-01  0.11445746D+00
  0.16060236D+00  0.19502043D+00  0.18630455D+00  0.11607816D-01  0.46359880D-01
  0.20940507D+00  0.69301031D-01 -0.94802748D-01 -0.74707228D-01 -0.11204569D-01
 -0.54648378D-03  0.15364671D-15  0.19862194D-15  0.21387959D-15  0.19876699D-15
  0.14847946D-15  0.29306854D-16  0.37885512D-16  0.40795785D-16  0.37913180D-16
  0.28321243D-16 -0.82665452D-01 -0.10686316D+00 -0.11507213D+00 -0.10694120D+00
 -0.79885354D-01  0.90779146D-16 -0.55560636D-16 -0.31607472D-01  0.33563501D-16
  0.27566960D-16 -0.24627581D-02  0.12754212D-16 -0.18710136D-16 -0.20640384D-03
  0.16629509D-01  0.16629509D-01 -0.33259018D-01  0.12036178D-16  0.75017067D-16
 -0.56654682D-16  0.66176318D-02  0.66176318D-02 -0.13235264D-01  0.18128544D-16
  0.29880739D-16  0.58860496D-16  0.41090247D-03  0.41090247D-03 -0.82180495D-03
  0.59712357D-17 -0.37035801D-17 -0.22805858D-16  0.94991136D-05  0.94991136D-05
 -0.18998227D-04 -0.10341049D-17  0.27147595D-17 -0.21100520D-17 -0.74310499D-17
 -0.15612629D-17 -0.10602772D-01 -0.52874216D-17 -0.35490865D-17  0.15904158D-01
  0.27580571D-16  0.82328751D-17  0.15904158D-01 -0.67185055D-17  0.32396130D-17
 -0.16359279D-17 -0.15544141D-02  0.30179469D-17 -0.16841506D-17  0.23316211D-02
 -0.12736786D-16  0.65919342D-17  0.23316211D-02  0.42502132D-17 -0.81379213D-03
 -0.81379213D-03 -0.21701124D-02 -0.33924793D-17  0.44066886D-18 -0.38008107D-17
  0.50677576D-17 -0.53632657D-18 -0.66270805D-17 -0.16275843D-02  0.65103371D-02
  0.65103371D-02  0.46779687D-17  0.28697314D-18  0.21579870D-16 -0.19002876D-01
 -0.35491955D-01 -0.61256406D-01 -0.99503252D-01 -0.15186343D+00 -0.21328938D+00
 -0.25927598D+00 -0.24597908D+00 -0.18075145D-01 -0.70441704D-01 -0.28357185D+00
 -0.70061872D-01  0.13250273D+00  0.13832182D+00  0.52449761D-01  0.37209611D-02
  0.51482518D-15  0.67794455D-15  0.75422908D-15  0.70042856D-15  0.48827851D-15
  0.27061172D-15  0.35635347D-15  0.39645152D-15  0.36817192D-15  0.25665777D-15
  0.71369635D+00  0.93982691D+00  0.10455793D+01  0.97099623D+00  0.67689500D+00
  0.22853930D-15  0.12871004D-15  0.30246133D+00  0.79964904D-16  0.35924528D-16
  0.73397703D-01 -0.14675396D-16  0.38139302D-16  0.51469601D-02 -0.28598442D-17
 -0.24255832D-17 -0.64406169D-04  0.31226956D-01  0.31226956D-01 -0.62453911D-01
  0.57497370D-17 -0.88934318D-16 -0.49966063D-16  0.19172250D-01  0.19172250D-01
 -0.38344499D-01  0.76222159D-18 -0.97869008D-16 -0.34814149D-16  0.27462237D-02
  0.27462237D-02 -0.54924473D-02 -0.25233144D-19 -0.24312562D-16 -0.76072017D-17
  0.26485000D-04  0.26485000D-04 -0.52970001D-04 -0.13585916D-17  0.34921538D-17
 -0.95346850D-17 -0.11997431D-16  0.27518314D-17  0.16588186D-01 -0.12699859D-16
  0.53256984D-17 -0.24882278D-01  0.48692153D-16 -0.13581193D-16 -0.24882278D-01
 -0.31667239D-16 -0.77359397D-17 -0.25680155D-19  0.39258945D-02 -0.84288120D-17
  0.26548118D-18 -0.58888418D-02  0.31636631D-16 -0.18844071D-18 -0.58888418D-02
  0.69107623D-17 -0.22067762D-02 -0.22067762D-02 -0.58847366D-02 -0.43977106D-17
  0.84138925D-17  0.17414878D-17 -0.23668876D-17 -0.12274955D-16  0.38300667D-17
 -0.44135524D-02  0.17654210D-01  0.17654210D-01 -0.43895375D-17  0.11583187D-16
  0.79686686D-17
MO    5     MO 0.0        OCC NO =    2.0000000  ORB. ENERGY =   -0.642434
 -0.25139719D-16 -0.47048392D-16 -0.81291287D-16 -0.13210831D-15 -0.20161716D-15
 -0.28290154D-15 -0.34352908D-15 -0.32817604D-15 -0.22295456D-16 -0.89044716D-16
 -0.35928212D-15 -0.14859821D-15  0.18670965D-15  0.31702126D-15 -0.22775500D-16
  0.98318003D-17 -0.30586674D-01 -0.39539960D-01 -0.42577323D-01 -0.39568836D-01
 -0.29558023D-01  0.17626276D+00  0.22785813D+00  0.24536164D+00  0.22802454D+00
  0.17033492D+00 -0.42906725D-15 -0.55466318D-15 -0.59727105D-15 -0.55506825D-15
 -0.41463741D-15 -0.14451773D-01  0.83281672D-01 -0.11118782D-15 -0.32274458D-02
  0.18598901D-01 -0.68723628D-16 -0.12613687D-03  0.72689280D-03 -0.41453584D-17
  0.15957161D-15 -0.12800655D-15 -0.31565057D-16  0.15642631D-16 -0.15480388D-01
  0.89209306D-01  0.14412880D-16 -0.10575588D-17 -0.13355321D-16 -0.63644174D-16
 -0.80253015D-02  0.46247650D-01  0.56342143D-17  0.75875939D-17 -0.13221808D-16
  0.15442701D-16 -0.86199941D-03  0.49674703D-02  0.35235599D-18 -0.10661534D-17
  0.71379741D-18 -0.34029764D-17 -0.91558025D-06  0.52762423D-05  0.19444012D-02
 -0.11205060D-01 -0.80432719D-17  0.19444012D-02 -0.11205060D-01  0.23286907D-16
 -0.77776048D-02  0.44820241D-01  0.84290900D-18  0.14356761D-15  0.25479868D-03
 -0.14683361D-02 -0.16688473D-16  0.25479868D-03 -0.14683361D-02  0.57597194D-17
 -0.10191947D-02  0.58733445D-02  0.44305699D-16 -0.69570769D-16 -0.78593985D-17
  0.17894678D-16 -0.15414161D-16  0.58435352D-17  0.12766499D-02  0.74931782D-17
 -0.73569894D-02 -0.17021999D-02  0.98093192D-02 -0.76348323D-16  0.12350471D-15
 -0.31019747D-16 -0.73569894D-02  0.12766499D-02 -0.40010140D-16  0.14666756D-17
  0.27393318D-17  0.47278777D-17  0.76798368D-17  0.11721088D-16  0.16462051D-16
  0.20011378D-16  0.18985100D-16 -0.24546096D-18 -0.95660026D-18  0.19455514D-18
  0.74748089D-16 -0.87537951D-16  0.15556303D-15 -0.11691266D-15  0.38459213D-16
 -0.13125345D+00 -0.17284034D+00 -0.19228890D+00 -0.17857259D+00 -0.12448544D+00
  0.75637826D+00  0.99603233D+00  0.11081091D+01  0.10290657D+01  0.71737604D+00
  0.34090381D-15  0.44891720D-15  0.49943083D-15  0.46380552D-15  0.32332529D-15
 -0.58547459D-01  0.33739323D+00  0.65266301D-16 -0.16896143D-01  0.97367917D-01
  0.14274353D-15 -0.18006342D-02  0.10376570D-01  0.83111857D-17 -0.15256940D-04
  0.87921631D-04 -0.15378155D-18  0.17491327D-15 -0.69548412D-16 -0.10536486D-15
 -0.12155136D-15  0.16917651D-01 -0.97491865D-01 -0.34183938D-16  0.39805130D-16
 -0.56211921D-17  0.23241334D-16  0.14135718D-01 -0.81460331D-01  0.38587367D-16
 -0.15428108D-17 -0.37044557D-16 -0.13284477D-16  0.28526211D-02 -0.16438887D-01
 -0.36880546D-17  0.36390370D-17  0.49017687D-19 -0.34521438D-17  0.53782161D-04
 -0.30993210D-03  0.25193841D-02 -0.14518531D-01 -0.28692890D-16  0.25193841D-02
 -0.14518531D-01 -0.62808143D-17 -0.10077536D-01  0.58074125D-01  0.92359483D-16
 -0.10634545D-16  0.61180910D-03 -0.35256910D-02  0.24810569D-16  0.61180910D-03
 -0.35256910D-02 -0.19581245D-16 -0.24472364D-02  0.14102764D-01 -0.54850463D-16
 -0.12630952D-16 -0.19444254D-16  0.11615917D-16  0.18802173D-16 -0.67279321D-16
 -0.33510266D-02  0.61234362D-16  0.19311063D-01  0.44680355D-02 -0.25748084D-01
  0.79891529D-16  0.36773993D-16 -0.14958703D-15  0.19311063D-01 -0.33510266D-02
  0.18134878D-16
MO    6     MO 0.0        OCC NO =    2.0000000  ORB. ENERGY =   -0.642434
  0.69996926D-18  0.13099760D-17  0.22634065D-17  0.36783130D-17  0.56136593D-17
  0.78768734D-17  0.95649359D-17  0.91374585D-17  0.43307026D-17  0.17296179D-16
 -0.22421743D-16  0.69325577D-16 -0.80027619D-16 -0.18414752D-15 -0.23850345D-15
 -0.40673444D-16 -0.17626276D+00 -0.22785813D+00 -0.24536164D+00 -0.22802454D+00
 -0.17033492D+00 -0.30586674D-01 -0.39539960D-01 -0.42577323D-01 -0.39568836D-01
 -0.29558023D-01 -0.11030527D-15 -0.14259366D-15 -0.15354736D-15 -0.14269780D-15
 -0.10659562D-15 -0.83281672D-01 -0.14451773D-01 -0.28086238D-15 -0.18598901D-01
 -0.32274458D-02 -0.16014184D-15 -0.72689280D-03 -0.12613687D-03 -0.64708922D-16
  0.28165754D-16  0.95397482D-17 -0.37705502D-16  0.97437369D-16 -0.89209306D-01
 -0.15480388D-01  0.14393396D-15 -0.57500077D-16 -0.86433884D-16 -0.12710748D-15
 -0.46247650D-01 -0.80253015D-02  0.13794928D-16  0.18440241D-16 -0.32235169D-16
  0.27684733D-16 -0.49674703D-02 -0.86199941D-03  0.50484580D-17  0.28785246D-17
 -0.79269826D-17 -0.26886466D-18 -0.52762423D-05 -0.91558025D-06  0.11205060D-01
  0.19444012D-02 -0.31502400D-16  0.11205060D-01  0.19444012D-02  0.23526485D-16
 -0.44820241D-01 -0.77776048D-02  0.70980716D-16  0.31711972D-16  0.14683361D-02
  0.25479868D-03 -0.44786793D-17  0.14683361D-02  0.25479868D-03  0.34555276D-16
 -0.58733445D-02 -0.10191947D-02 -0.21119239D-16 -0.15918207D-16 -0.27893398D-16
 -0.46022356D-17 -0.16435773D-16  0.42521360D-16  0.73569894D-02  0.13335104D-17
  0.12766499D-02 -0.98093192D-02 -0.17021999D-02  0.48179582D-16  0.11918081D-15
 -0.20566169D-16  0.12766499D-02  0.73569894D-02 -0.13156461D-15 -0.13619757D-16
 -0.25437824D-16 -0.43903743D-16 -0.71316054D-16 -0.10884369D-15 -0.15286894D-15
 -0.18582849D-15 -0.17629833D-15 -0.19547894D-16 -0.76181243D-16 -0.17287636D-15
 -0.92819857D-16  0.63271946D-16  0.13422571D-15  0.56308336D-15  0.12623798D-15
 -0.75637826D+00 -0.99603233D+00 -0.11081091D+01 -0.10290657D+01 -0.71737604D+00
 -0.13125345D+00 -0.17284034D+00 -0.19228890D+00 -0.17857259D+00 -0.12448544D+00
  0.56740278D-15  0.74718106D-15  0.83125630D-15  0.77196129D-15  0.53814497D-15
 -0.33739323D+00 -0.58547459D-01  0.18032913D-15 -0.97367917D-01 -0.16896143D-01
 -0.20045091D-15 -0.10376570D-01 -0.18006342D-02 -0.14420201D-16 -0.87921631D-04
 -0.15256940D-04  0.52313107D-17  0.82948638D-16  0.12948888D-15 -0.21243751D-15
 -0.11791334D-15  0.97491865D-01  0.16917651D-01 -0.35190978D-16 -0.41808017D-16
  0.76998995D-16 -0.10776206D-15  0.81460331D-01  0.14135718D-01 -0.72731337D-16
 -0.35198786D-16  0.10793012D-15  0.82657315D-17  0.16438887D-01  0.28526211D-02
 -0.11911709D-17  0.48197180D-17 -0.36285472D-17 -0.46490584D-17  0.30993210D-03
  0.53782161D-04  0.14518531D-01  0.25193841D-02 -0.30367360D-16  0.14518531D-01
  0.25193841D-02  0.23201278D-16 -0.58074125D-01 -0.10077536D-01  0.67900801D-16
  0.10821064D-14  0.35256910D-02  0.61180910D-03 -0.33140701D-16  0.35256910D-02
  0.61180910D-03  0.88449165D-16 -0.14102764D-01 -0.24472364D-02  0.10972939D-16
 -0.69122671D-16  0.27459477D-16  0.15927650D-16  0.36354174D-16 -0.10905544D-15
 -0.19311063D-01  0.11648391D-15 -0.33510266D-02  0.25748084D-01  0.44680355D-02
 -0.21098857D-16 -0.14365800D-15 -0.74467040D-16 -0.33510266D-02 -0.19311063D-01
 -0.22285385D-16
MO    7     MO 0.0        OCC NO =    2.0000000  ORB. ENERGY =   -0.554329
 -0.14915486D-01 -0.27913981D-01 -0.48230414D-01 -0.78380336D-01 -0.11962019D+00
 -0.16784651D+00 -0.20381705D+00 -0.19470803D+00 -0.12845657D-01 -0.51303633D-01
 -0.22127467D+00 -0.75643806D-01  0.97758248D-01  0.11471973D+00  0.35888207D-01
  0.14974827D-02  0.13968911D-15  0.18057870D-15  0.19445031D-15  0.18071057D-15
  0.13499127D-15 -0.20171533D-15 -0.26076114D-15 -0.28079217D-15 -0.26095157D-15
 -0.19493150D-15 -0.28655699D+00 -0.37043752D+00 -0.39889363D+00 -0.37070805D+00
 -0.27691987D+00  0.11489468D-16 -0.17281510D-15 -0.12230854D+00  0.97484429D-17
  0.16946154D-16 -0.31877965D-01  0.13100783D-17 -0.34199385D-16 -0.19580219D-02
  0.20926346D-01  0.20926346D-01 -0.41852691D-01 -0.13436184D-16  0.39203678D-16
 -0.16148350D-15  0.79928297D-02  0.79928297D-02 -0.15985659D-01 -0.81398700D-17
 -0.41438688D-17 -0.40816753D-16  0.80475818D-03  0.80475818D-03 -0.16095164D-02
 -0.19100828D-17 -0.46454153D-18  0.12398059D-17 -0.48885506D-05 -0.48885506D-05
  0.97771012D-05 -0.34741554D-18  0.38509511D-18 -0.37725995D-17 -0.47525258D-17
  0.75639249D-17 -0.72926897D-02 -0.65559083D-17  0.11482154D-16  0.10939035D-01
  0.20813486D-16 -0.34173929D-16  0.10939035D-01  0.37226912D-17  0.77241751D-19
 -0.56168986D-18 -0.35790856D-03  0.66250988D-18 -0.48344039D-18  0.53686285D-03
 -0.89423513D-18  0.21685100D-17  0.53686285D-03 -0.27603131D-17 -0.63521884D-03
 -0.63521884D-03 -0.16939169D-02  0.15087233D-17 -0.11868224D-16  0.10489683D-17
  0.75332679D-18  0.15610998D-16 -0.11289459D-17 -0.12704377D-02  0.50817507D-02
  0.50817507D-02  0.11268575D-17 -0.11228322D-16 -0.76730749D-17  0.27308445D-02
  0.51004391D-02  0.88029686D-02  0.14299305D-01  0.21823824D-01  0.30651157D-01
  0.37259748D-01  0.35348893D-01  0.27310231D-02  0.10643230D-01  0.38883700D-01
  0.12980463D-01 -0.21761772D-01 -0.13048928D-01  0.74702329D-02  0.15257711D-02
  0.52437180D-15  0.69051597D-15  0.76821507D-15  0.71341690D-15  0.49733286D-15
 -0.78492990D-15 -0.10336304D-14 -0.11499378D-14 -0.10679107D-14 -0.74445543D-15
  0.35953201D+00  0.47344765D+00  0.52672152D+00  0.48914952D+00  0.34099294D+00
  0.22758442D-15 -0.31236447D-15  0.15680857D+00  0.78970445D-16 -0.15872328D-15
  0.39101208D-01  0.72365473D-17  0.27954616D-16  0.29852982D-02 -0.24017358D-17
 -0.22416567D-17  0.30369181D-04  0.17817558D-01  0.17817558D-01 -0.35635117D-01
 -0.93190093D-17 -0.57116345D-16  0.11416178D-15  0.12551299D-01  0.12551299D-01
 -0.25102598D-01 -0.97617189D-18 -0.43178279D-16  0.11241634D-15  0.16216930D-02
  0.16216930D-02 -0.32433860D-02 -0.40712380D-18 -0.15046437D-16  0.45183236D-16
 -0.33298777D-04 -0.33298777D-04  0.66597555D-04  0.43575595D-19  0.95364540D-19
 -0.64010598D-17 -0.59978190D-17  0.10173908D-16  0.17138237D-01 -0.18376753D-17
  0.47676281D-17 -0.25707355D-01  0.19831132D-16 -0.35289354D-16 -0.25707355D-01
 -0.11644200D-16 -0.35230490D-17  0.11330210D-16  0.35189673D-02 -0.41441226D-17
  0.11724767D-16 -0.52784510D-02  0.14713270D-16 -0.45715398D-16 -0.52784510D-02
 -0.36034260D-18 -0.21703884D-02 -0.21703884D-02 -0.57877023D-02 -0.26127311D-17
  0.23125114D-16 -0.74901627D-18 -0.34645380D-16 -0.31551553D-16  0.47312930D-16
 -0.43407767D-02  0.17363107D-01  0.17363107D-01 -0.38002650D-16  0.25279317D-16
  0.10085242D-16
END DATA
RHF
