 Molden2AIM, Version 4.0.0 (06/02/2016)           Time: Sun Jun 24 19:47:14 2018
GAUSSIAN             18 MOL ORBITALS    230 PRIMITIVES        2 NUCLEI
  H    1    (CENTRE  1)   0.00000000  0.00000000  2.54665162  CHARGE =  1.0
  Br   2    (CENTRE  2)   0.00000000  0.00000000 -0.13800670  CHARGE = 35.0
CENTRE ASSIGNMENTS    1  1  1  1  1  1  1  1  1  1  1  1  1  1  1  1  1  1  1  1
CENTRE ASSIGNMENTS    1  1  1  1  1  1  1  1  1  1  1  1  1  1  1  1  1  1  1  1
CENTRE ASSIGNMENTS    1  2  2  2  2  2  2  2  2  2  2  2  2  2  2  2  2  2  2  2
CENTRE ASSIGNMENTS    2  2  2  2  2  2  2  2  2  2  2  2  2  2  2  2  2  2  2  2
CENTRE ASSIGNMENTS    2  2  2  2  2  2  2  2  2  2  2  2  2  2  2  2  2  2  2  2
CENTRE ASSIGNMENTS    2  2  2  2  2  2  2  2  2  2  2  2  2  2  2  2  2  2  2  2
CENTRE ASSIGNMENTS    2  2  2  2  2  2  2  2  2  2  2  2  2  2  2  2  2  2  2  2
CENTRE ASSIGNMENTS    2  2  2  2  2  2  2  2  2  2  2  2  2  2  2  2  2  2  2  2
CENTRE ASSIGNMENTS    2  2  2  2  2  2  2  2  2  2  2  2  2  2  2  2  2  2  2  2
CENTRE ASSIGNMENTS    2  2  2  2  2  2  2  2  2  2  2  2  2  2  2  2  2  2  2  2
CENTRE ASSIGNMENTS    2  2  2  2  2  2  2  2  2  2  2  2  2  2  2  2  2  2  2  2
CENTRE ASSIGNMENTS    2  2  2  2  2  2  2  2  2  2
TYPE ASSIGNMENTS      1  1  1  1  1  1  1  2  3  4  2  3  4  2  3  4  2  3  4  5
TYPE ASSIGNMENTS      6  7  8  9 10  5  6  7  8  9 10 11 12 13 17 14 15 18 19 16
TYPE ASSIGNMENTS     20  1  1  1  1  1  1  1  1  1  1  1  1  1  1  1  1  1  1  1
TYPE ASSIGNMENTS      1  1  1  1  1  1  2  2  2  2  2  2  2  2  2  2  3  3  3  3
TYPE ASSIGNMENTS      3  3  3  3  3  3  4  4  4  4  4  4  4  4  4  4  2  2  2  2
TYPE ASSIGNMENTS      2  3  3  3  3  3  4  4  4  4  4  2  3  4  2  3  4  2  3  4
TYPE ASSIGNMENTS      2  3  4  2  3  4  2  3  4  5  5  5  5  5  5  5  6  6  6  6
TYPE ASSIGNMENTS      6  6  6  7  7  7  7  7  7  7  8  8  8  8  8  8  8  9  9  9
TYPE ASSIGNMENTS      9  9  9  9 10 10 10 10 10 10 10  5  6  7  8  9 10  5  6  7
TYPE ASSIGNMENTS      8  9 10  5  6  7  8  9 10  5  6  7  8  9 10 11 12 13 17 14
TYPE ASSIGNMENTS     15 18 19 16 20 11 12 13 17 14 15 18 19 16 20 21 22 23 24 25
TYPE ASSIGNMENTS     26 27 28 29 30 31 32 33 34 35
EXPONENTS  0.1906917D+03 0.2860553D+02 0.6509594D+01 0.1841246D+01 0.5985373D+00
EXPONENTS  0.2139762D+00 0.8031629D-01 0.2292000D+01 0.2292000D+01 0.2292000D+01
EXPONENTS  0.8380000D+00 0.8380000D+00 0.8380000D+00 0.2920000D+00 0.2920000D+00
EXPONENTS  0.2920000D+00 0.8406320D-01 0.8406320D-01 0.8406320D-01 0.2062000D+01
EXPONENTS  0.2062000D+01 0.2062000D+01 0.2062000D+01 0.2062000D+01 0.2062000D+01
EXPONENTS  0.6620000D+00 0.6620000D+00 0.6620000D+00 0.6620000D+00 0.6620000D+00
EXPONENTS  0.6620000D+00 0.1397000D+01 0.1397000D+01 0.1397000D+01 0.1397000D+01
EXPONENTS  0.1397000D+01 0.1397000D+01 0.1397000D+01 0.1397000D+01 0.1397000D+01
EXPONENTS  0.1397000D+01 0.1062904D+08 0.1591918D+07 0.3623340D+06 0.1026431D+06
EXPONENTS  0.3348985D+05 0.1209125D+05 0.4716191D+04 0.1956160D+04 0.8530860D+03
EXPONENTS  0.3879663D+03 0.1828516D+03 0.3240409D+04 0.1000463D+04 0.3833730D+03
EXPONENTS  0.1660393D+03 0.8791991D+02 0.3567584D+02 0.1754366D+02 0.8447366D+01
EXPONENTS  0.3966618D+01 0.1835682D+01 0.5908478D+00 0.2886322D+00 0.1215338D+00
EXPONENTS  0.4797394D-01 0.2656648D+05 0.6290509D+04 0.2043318D+04 0.7816722D+03
EXPONENTS  0.3315108D+03 0.1510920D+03 0.7239528D+02 0.3586951D+02 0.1813991D+02
EXPONENTS  0.9046669D+01 0.2656648D+05 0.6290509D+04 0.2043318D+04 0.7816722D+03
EXPONENTS  0.3315108D+03 0.1510920D+03 0.7239528D+02 0.3586951D+02 0.1813991D+02
EXPONENTS  0.9046669D+01 0.2656648D+05 0.6290509D+04 0.2043318D+04 0.7816722D+03
EXPONENTS  0.3315108D+03 0.1510920D+03 0.7239528D+02 0.3586951D+02 0.1813991D+02
EXPONENTS  0.9046669D+01 0.2537182D+03 0.9725082D+02 0.4203490D+02 0.9968567D+01
EXPONENTS  0.4939585D+01 0.2537182D+03 0.9725082D+02 0.4203490D+02 0.9968567D+01
EXPONENTS  0.4939585D+01 0.2537182D+03 0.9725082D+02 0.4203490D+02 0.9968567D+01
EXPONENTS  0.4939585D+01 0.2438285D+01 0.2438285D+01 0.2438285D+01 0.1180000D+01
EXPONENTS  0.1180000D+01 0.1180000D+01 0.5104756D+00 0.5104756D+00 0.5104756D+00
EXPONENTS  0.2121585D+00 0.2121585D+00 0.2121585D+00 0.8394360D-01 0.8394360D-01
EXPONENTS  0.8394360D-01 0.2444463D-01 0.2444463D-01 0.2444463D-01 0.6014443D+03
EXPONENTS  0.1808572D+03 0.6998681D+02 0.3032471D+02 0.1402791D+02 0.6651170D+01
EXPONENTS  0.3135417D+01 0.6014443D+03 0.1808572D+03 0.6998681D+02 0.3032471D+02
EXPONENTS  0.1402791D+02 0.6651170D+01 0.3135417D+01 0.6014443D+03 0.1808572D+03
EXPONENTS  0.6998681D+02 0.3032471D+02 0.1402791D+02 0.6651170D+01 0.3135417D+01
EXPONENTS  0.6014443D+03 0.1808572D+03 0.6998681D+02 0.3032471D+02 0.1402791D+02
EXPONENTS  0.6651170D+01 0.3135417D+01 0.6014443D+03 0.1808572D+03 0.6998681D+02
EXPONENTS  0.3032471D+02 0.1402791D+02 0.6651170D+01 0.3135417D+01 0.6014443D+03
EXPONENTS  0.1808572D+03 0.6998681D+02 0.3032471D+02 0.1402791D+02 0.6651170D+01
EXPONENTS  0.3135417D+01 0.1439359D+01 0.1439359D+01 0.1439359D+01 0.1439359D+01
EXPONENTS  0.1439359D+01 0.1439359D+01 0.5935044D+00 0.5935044D+00 0.5935044D+00
EXPONENTS  0.5935044D+00 0.5935044D+00 0.5935044D+00 0.2300000D+00 0.2300000D+00
EXPONENTS  0.2300000D+00 0.2300000D+00 0.2300000D+00 0.2300000D+00 0.7666551D-01
EXPONENTS  0.7666551D-01 0.7666551D-01 0.7666551D-01 0.7666551D-01 0.7666551D-01
EXPONENTS  0.3407000D+00 0.3407000D+00 0.3407000D+00 0.3407000D+00 0.3407000D+00
EXPONENTS  0.3407000D+00 0.3407000D+00 0.3407000D+00 0.3407000D+00 0.3407000D+00
EXPONENTS  0.8257000D+00 0.8257000D+00 0.8257000D+00 0.8257000D+00 0.8257000D+00
EXPONENTS  0.8257000D+00 0.8257000D+00 0.8257000D+00 0.8257000D+00 0.8257000D+00
EXPONENTS  0.6491000D+00 0.6491000D+00 0.6491000D+00 0.6491000D+00 0.6491000D+00
EXPONENTS  0.6491000D+00 0.6491000D+00 0.6491000D+00 0.6491000D+00 0.6491000D+00
EXPONENTS  0.6491000D+00 0.6491000D+00 0.6491000D+00 0.6491000D+00 0.6491000D+00
MO    1     MO 0.0        OCC NO =    2.0000000  ORB. ENERGY = -490.037793
 -0.20555199D-06 -0.38256329D-06 -0.64469124D-06 -0.96244462D-06 -0.10590535D-05
 -0.66340129D-05  0.79427894D-05  0.59772346D-15  0.59571168D-15  0.71138488D-05
  0.62455658D-16 -0.19297625D-15 -0.36054855D-05 -0.33292968D-16  0.69886770D-16
  0.39759256D-05  0.60397585D-17 -0.72129540D-17 -0.12835727D-05 -0.13669297D-05
 -0.13669297D-05  0.27338594D-05 -0.19649077D-15  0.64686369D-15  0.38144790D-15
 -0.11373927D-05 -0.11373927D-05  0.22747853D-05  0.16919495D-16 -0.37588435D-16
 -0.22510974D-15  0.15272867D-15 -0.69130336D-16 -0.83648529D-05 -0.77247355D-16
 -0.76056455D-16  0.12547279D-04 -0.38093865D-15  0.28344746D-15  0.12547279D-04
  0.15664199D-15  0.78700164D+00  0.14730202D+01  0.25517344D+01  0.41814010D+01
  0.65494447D+01  0.98430564D+01  0.14066782D+02  0.18670889D+02  0.21745414D+02
  0.19980135D+02  0.11693223D+02  0.30719810D-03  0.13213181D-02  0.32436006D-02
  0.41322734D-02  0.30945158D+01  0.15012810D+00 -0.14639570D-01  0.40782750D-02
 -0.12704063D-02  0.29128036D-03 -0.73217481D-04  0.35961353D-04 -0.97410541D-05
 -0.18434601D-05 -0.14700792D-15 -0.21566222D-15 -0.30389431D-15 -0.39874744D-15
 -0.47429331D-15 -0.48684436D-15 -0.39605967D-15 -0.22573231D-15 -0.70862596D-16
 -0.83496682D-17 -0.75154158D-16 -0.11025196D-15 -0.15535843D-15 -0.20384974D-15
 -0.24247070D-15 -0.24888711D-15 -0.20247569D-15 -0.11540005D-15 -0.36226746D-16
 -0.42685609D-17  0.18413304D-03  0.27012517D-03  0.38063924D-03  0.49944640D-03
  0.59407050D-03  0.60979117D-03  0.49607987D-03  0.28273835D-03  0.88758110D-04
  0.10458279D-04 -0.91446024D-17 -0.20879611D-16 -0.22672854D-16  0.28224847D-16
  0.25942833D-16  0.64596013D-18  0.14749024D-17  0.16015743D-17 -0.19937581D-17
 -0.18325604D-17  0.14701857D-04  0.33568331D-04  0.36451345D-04 -0.45377331D-04
 -0.41708519D-04  0.25747589D-16 -0.38448594D-17  0.22582648D-04 -0.13259923D-16
  0.16730648D-16  0.48132849D-06 -0.90980604D-17  0.89715663D-17 -0.75714951D-05
  0.59451802D-17 -0.32277240D-16  0.66926989D-05 -0.19810996D-17  0.50456358D-17
 -0.23545069D-05  0.24102601D-20  0.16860248D-18 -0.13935222D-07 -0.37114929D-04
 -0.41293559D-04 -0.39748761D-04 -0.30587386D-04 -0.18157974D-04 -0.75035164D-05
 -0.20849884D-05 -0.37114929D-04 -0.41293559D-04 -0.39748761D-04 -0.30587386D-04
 -0.18157974D-04 -0.75035164D-05 -0.20849884D-05  0.74229858D-04  0.82587118D-04
  0.79497523D-04  0.61174773D-04  0.36315947D-04  0.15007033D-04  0.41699768D-05
  0.12646923D-15  0.14070792D-15  0.13544402D-15  0.10422661D-15  0.61873347D-16
  0.25568254D-16  0.71046040D-17  0.11666873D-14  0.12980402D-14  0.12494804D-14
  0.96149761D-15  0.57078588D-15  0.23586890D-15  0.65540461D-16  0.36811740D-14
  0.40956235D-14  0.39424057D-14  0.30337520D-14  0.18009642D-14  0.74422207D-15
  0.20679563D-15  0.42482404D-06  0.42482404D-06 -0.84964807D-06 -0.15571584D-16
 -0.79553479D-16  0.10028976D-16  0.12152283D-05  0.12152283D-05 -0.24304566D-05
  0.32257729D-17  0.12639459D-16 -0.10197389D-15 -0.89102101D-06 -0.89102101D-06
  0.17820420D-05  0.18770735D-19  0.40799004D-17 -0.21080888D-16  0.76727015D-07
  0.76727015D-07 -0.15345403D-06  0.13908748D-19 -0.10634326D-17  0.56777449D-19
  0.19111614D-17  0.90265255D-17  0.78235708D-06  0.22879856D-17  0.89234385D-17
 -0.11735356D-05 -0.80214698D-17 -0.36003015D-16 -0.11735356D-05 -0.38474239D-18
 -0.24089719D-16 -0.16015399D-16 -0.27530990D-05 -0.27590565D-16 -0.16195286D-16
  0.41296485D-05  0.99859723D-16  0.64241483D-16  0.41296485D-05  0.41695099D-17
  0.55807280D-07  0.55807280D-07  0.14881941D-06 -0.36252622D-17 -0.40399931D-16
 -0.36254114D-17 -0.16724612D-16  0.54650976D-16  0.22651327D-16  0.11161456D-06
 -0.44645824D-06 -0.44645824D-06 -0.17780143D-16 -0.42753134D-16  0.21752021D-16
MO    2     MO 0.0        OCC NO =    2.0000000  ORB. ENERGY =  -65.177956
  0.71998790D-06  0.13400062D-05  0.22581629D-05  0.33711591D-05  0.97300282D-05
  0.33673546D-04 -0.35354535D-04 -0.72117241D-15  0.28213710D-14 -0.21206427D-04
  0.34776816D-15 -0.11332976D-14  0.52108599D-05 -0.10795950D-15  0.34399305D-17
 -0.20682573D-04  0.20885569D-16 -0.58243093D-17  0.56519108D-05  0.48090502D-05
  0.48090502D-05 -0.96181005D-05 -0.16143091D-15  0.32777392D-15 -0.11179591D-15
  0.24787837D-05  0.24787837D-05 -0.49575674D-05 -0.22384002D-16 -0.87822149D-16
  0.30718922D-16 -0.18453634D-15  0.45029066D-16  0.27488945D-04 -0.67231734D-16
  0.83798860D-16 -0.41233417D-04  0.62084076D-15 -0.21888606D-15 -0.41233417D-04
 -0.10620633D-15  0.24908250D+00  0.46620430D+00  0.80761253D+00  0.13233947D+01
  0.20728699D+01  0.31152833D+01  0.44520737D+01  0.59092527D+01  0.68823261D+01
  0.63236234D+01  0.37008528D+01  0.27055577D+00  0.11637124D+01  0.28567067D+01
  0.36393793D+01  0.12526947D+01 -0.43406362D+01 -0.34774112D+01 -0.60798064D+00
 -0.12221786D-01 -0.23853731D-02  0.33553205D-03 -0.14949395D-03  0.41525556D-04
  0.84738463D-05 -0.17955506D-14 -0.26340922D-14 -0.37117564D-14 -0.48702898D-14
 -0.57930049D-14 -0.59463031D-14 -0.48374614D-14 -0.27570880D-14 -0.86551372D-15
 -0.10198261D-15 -0.30515219D-14 -0.44766156D-14 -0.63080962D-14 -0.82770131D-14
 -0.98451590D-14 -0.10105688D-13 -0.82212217D-14 -0.46856460D-14 -0.14709327D-14
 -0.17331851D-15 -0.19472712D-01 -0.28566680D-01 -0.40253928D-01 -0.52818200D-01
 -0.62825028D-01 -0.64487544D-01 -0.52462178D-01 -0.29900568D-01 -0.93864799D-02
 -0.11059995D-02  0.22699026D-16  0.51828041D-16  0.56279289D-16 -0.70060623D-16
 -0.64396136D-16  0.29495314D-16  0.67345813D-16  0.73129803D-16 -0.91037389D-16
 -0.83676905D-16  0.24706290D-03  0.56411169D-03  0.61256039D-03 -0.76256049D-03
 -0.70090655D-03 -0.19425189D-15  0.17710936D-17  0.33993600D-03  0.16442090D-15
 -0.86340320D-16 -0.13635413D-03 -0.42413460D-16  0.81875701D-16  0.53681236D-04
  0.25870724D-16 -0.12618926D-16 -0.35902030D-04 -0.15373709D-16  0.85328700D-17
  0.10880585D-04  0.10398122D-18 -0.22111361D-18  0.43303943D-07  0.18056263D-02
  0.20089150D-02  0.19337612D-02  0.14880640D-02  0.88337809D-03  0.36504305D-03
  0.10143385D-03  0.18056263D-02  0.20089150D-02  0.19337612D-02  0.14880640D-02
  0.88337809D-03  0.36504305D-03  0.10143385D-03 -0.36112527D-02 -0.40178300D-02
 -0.38675224D-02 -0.29761280D-02 -0.17667562D-02 -0.73008609D-03 -0.20286769D-03
 -0.34028803D-15 -0.37859977D-15 -0.36443630D-15 -0.28044029D-15 -0.16648128D-15
 -0.68795949D-16 -0.19116205D-16  0.79338581D-15  0.88271013D-15  0.84968782D-15
  0.65385005D-15  0.38815320D-15  0.16039862D-15  0.44569672D-16  0.10048051D-14
  0.11179324D-14  0.10761104D-14  0.82808626D-15  0.49158723D-15  0.20314122D-15
  0.56446479D-16 -0.34450553D-04 -0.34450553D-04  0.68901105D-04  0.25920537D-16
  0.46814430D-16 -0.30795463D-15  0.38432738D-05  0.38432738D-05 -0.76865477D-05
 -0.88074870D-17 -0.10106656D-16  0.11507487D-15  0.38266995D-05  0.38266995D-05
 -0.76533991D-05  0.39689754D-17  0.25032759D-17 -0.86170182D-17 -0.31736036D-06
 -0.31736036D-06  0.63472072D-06 -0.20561099D-18 -0.22538617D-17  0.17547808D-17
  0.56348032D-17  0.23775535D-17 -0.37132878D-05  0.58834007D-17  0.19887900D-17
  0.55699317D-05 -0.22787810D-16 -0.91214506D-17  0.55699317D-05  0.46129289D-18
  0.13485828D-16 -0.37678640D-16  0.11849849D-04  0.12273156D-16 -0.37900898D-16
 -0.17774773D-04 -0.52730641D-16  0.15093682D-15 -0.17774773D-04 -0.58381379D-17
 -0.40709466D-06 -0.40709466D-06 -0.10855858D-05  0.37453303D-18  0.15889705D-16
  0.37885121D-18 -0.46929128D-16 -0.19415962D-16  0.61277435D-16 -0.81418931D-06
  0.32567573D-05  0.32567573D-05 -0.43044920D-16  0.10578771D-16 -0.22601527D-17
MO    3     MO 0.0        OCC NO =    2.0000000  ORB. ENERGY =  -58.533394
  0.71311471D-05  0.13272141D-04  0.22366059D-04  0.33389772D-04 -0.90254507D-04
 -0.20697293D-04 -0.27760824D-04  0.58074892D-15 -0.51160704D-15 -0.65167570D-04
 -0.11300945D-15  0.32572681D-15  0.17534206D-03  0.19562255D-16 -0.82954736D-16
  0.24885237D-04 -0.19175138D-16  0.34793299D-17  0.99167029D-06  0.38942606D-04
  0.38942606D-04 -0.77885211D-04  0.55075028D-15  0.30914690D-15 -0.34096481D-15
  0.25546143D-04  0.25546143D-04 -0.51092285D-04 -0.30659528D-16  0.20687247D-15
  0.15330474D-15  0.18742220D-15 -0.12731701D-16 -0.47839249D-04 -0.31903482D-16
 -0.16962966D-16  0.71758873D-04 -0.53036312D-15  0.55158069D-16  0.71758873D-04
  0.16066155D-16  0.17471845D-03  0.32701814D-03  0.56649830D-03  0.92829273D-03
  0.14540107D-02  0.21852097D-02  0.31228988D-02  0.41450343D-02  0.48275948D-02
  0.44356938D-02  0.25959563D-02  0.19577583D-03  0.84206952D-03  0.20671306D-02
  0.26334774D-02  0.87069178D-03 -0.34199159D-02 -0.24661145D-02 -0.26238321D-03
  0.32649315D-04  0.23944704D-04 -0.95925140D-04  0.88080705D-04  0.81815251D-05
  0.11683945D-04  0.12593373D-09  0.18474615D-09  0.26032980D-09  0.34158534D-09
  0.40630140D-09  0.41705320D-09  0.33928287D-09  0.19337265D-09  0.60704149D-10
  0.71527087D-11  0.48228335D-10  0.70751490D-10  0.99697459D-10  0.13081557D-09
  0.15559962D-09  0.15971719D-09  0.12993380D-09  0.74055149D-10  0.23247624D-10
  0.27392441D-11  0.30004469D+02  0.44016881D+02  0.62025141D+02  0.81384762D+02
  0.96803753D+02  0.99365435D+02  0.80836186D+02  0.46072198D+02  0.14463129D+02
  0.17041759D+01 -0.33861891D-13 -0.77315892D-13 -0.83956162D-13  0.10451484D-12
  0.96064690D-13 -0.12949395D-13 -0.29566985D-13 -0.32106343D-13  0.39968351D-13
  0.36736861D-13 -0.83755056D-02 -0.19123554D-01 -0.20765979D-01  0.25851027D-01
  0.23760940D-01  0.74957449D-13  0.28709557D-13  0.17669460D-01 -0.12828442D-13
 -0.49425450D-14 -0.31831056D-02  0.23175556D-14  0.95563052D-15  0.65049757D-03
 -0.34118148D-15 -0.14721626D-15 -0.64722847D-04  0.49221449D-16  0.19479768D-16
  0.17814010D-04 -0.71101719D-18 -0.84774961D-18 -0.15387116D-06 -0.30052586D-02
 -0.33436094D-02 -0.32185245D-02 -0.24767124D-02 -0.14702819D-02 -0.60757242D-03
 -0.16882504D-03 -0.30052586D-02 -0.33436094D-02 -0.32185245D-02 -0.24767124D-02
 -0.14702819D-02 -0.60757242D-03 -0.16882504D-03  0.60105173D-02  0.66872188D-02
  0.64370490D-02  0.49534249D-02  0.29405637D-02  0.12151448D-02  0.33765008D-03
 -0.29549155D-15 -0.32875983D-15 -0.31646088D-15 -0.24352234D-15 -0.14456522D-15
 -0.59739457D-16 -0.16599694D-16  0.40165532D-13  0.44687618D-13  0.43015848D-13
  0.33101468D-13  0.19650439D-13  0.81202560D-14  0.22563607D-14  0.14668279D-13
  0.16319725D-13  0.15709202D-13  0.12088513D-13  0.71762555D-14  0.29654824D-14
  0.82401318D-15  0.14633885D-03  0.14633885D-03 -0.29267770D-03  0.24829184D-16
 -0.10061164D-14 -0.19073003D-15 -0.53153901D-04 -0.53153901D-04  0.10630780D-03
 -0.37451056D-17  0.17327858D-15 -0.23091118D-16 -0.26062594D-05 -0.26062594D-05
  0.52125188D-05  0.47894228D-19  0.13846029D-16  0.47457680D-16 -0.46462557D-06
 -0.46462557D-06  0.92925113D-06  0.22159893D-19 -0.13874403D-17 -0.58620458D-17
 -0.33845116D-17 -0.50329107D-17  0.77914415D-05 -0.28829924D-17 -0.47900558D-17
 -0.11687162D-04  0.13036527D-16  0.19888788D-16 -0.11687162D-04 -0.48215709D-17
 -0.45993293D-16  0.15016620D-16  0.35924299D-04 -0.47259807D-16  0.13539235D-16
 -0.53886449D-04  0.18523969D-15 -0.58589095D-16 -0.53886449D-04 -0.14084018D-16
  0.56589806D-05  0.56589806D-05  0.15090615D-04 -0.41596449D-17 -0.89249693D-16
 -0.41658430D-17  0.52895326D-17  0.12149269D-15 -0.63756578D-17  0.11317961D-04
 -0.45271845D-04 -0.45271845D-04  0.32583754D-17 -0.96728992D-16  0.24976464D-16
MO    4     MO 0.0        OCC NO =    2.0000000  ORB. ENERGY =  -58.532114
 -0.24494421D-16 -0.45587816D-16 -0.76824062D-16 -0.11468886D-15  0.41197903D-15
  0.13176406D-15  0.79732842D-18  0.33699983D-04  0.11175761D-04  0.12324516D-15
 -0.28649657D-04 -0.95009460D-05 -0.10066782D-14  0.31645050D-05  0.10494294D-05
  0.16227199D-16 -0.27827051D-05 -0.92281494D-06 -0.42788065D-17 -0.12584657D-14
  0.38992080D-15  0.86854486D-15 -0.58298010D-15 -0.51776246D-05 -0.17170304D-05
  0.85611791D-16 -0.18642558D-15  0.10081379D-15 -0.32816465D-16  0.38403614D-04
  0.12735603D-04  0.22855828D-04  0.75795667D-05  0.66903043D-15  0.22855828D-04
  0.75795667D-05 -0.14255160D-14 -0.91423310D-04 -0.30318267D-04 -0.58157530D-15
  0.76864400D-16 -0.77548861D-15 -0.14514714D-14 -0.25144052D-14 -0.41202313D-14
 -0.64536330D-14 -0.96990625D-14 -0.13861000D-13 -0.18397753D-13 -0.21427300D-13
 -0.19687846D-13 -0.11522163D-13 -0.88066880D-15 -0.37879260D-14 -0.92986834D-14
 -0.11846311D-13 -0.35707358D-14  0.15185527D-13  0.11368538D-13  0.15632249D-14
 -0.17092686D-14  0.95261608D-15 -0.65962118D-16 -0.11319774D-15 -0.94819392D-16
  0.69270833D-17  0.28480530D+02  0.41781247D+02  0.58874861D+02  0.77251199D+02
  0.91887053D+02  0.94318626D+02  0.76730485D+02  0.43732173D+02  0.13728541D+02
  0.16176201D+01  0.94448595D+01  0.13855711D+02  0.19524383D+02  0.25618439D+02
  0.30472055D+02  0.31278426D+02  0.25445757D+02  0.14502687D+02  0.45527291D+01
  0.53644348D+00 -0.13469172D-09 -0.19759421D-09 -0.27843429D-09 -0.36534070D-09
 -0.43455740D-09 -0.44605694D-09 -0.36287811D-09 -0.20682065D-09 -0.64925786D-10
 -0.76501398D-11 -0.76511618D-02 -0.17469680D-01 -0.18970062D-01  0.23615337D-01
  0.21706008D-01 -0.25373175D-02 -0.57933849D-02 -0.62909493D-02  0.78314391D-02
  0.71982577D-02  0.38357716D-13  0.87581082D-13  0.95102977D-13 -0.11839122D-12
 -0.10881915D-12  0.16936560D-01  0.56165888D-02 -0.79215265D-13 -0.28875067D-02
 -0.95756976D-03  0.13416006D-13  0.52769770D-03  0.17499782D-03 -0.24284518D-14
 -0.81439208D-04 -0.27007288D-04  0.24195702D-15  0.11292225D-04  0.37447854D-05
 -0.43532501D-16 -0.40424928D-06 -0.13405922D-06  0.25360793D-17  0.18007716D-13
  0.20035137D-13  0.19285620D-13  0.14840631D-13  0.88100299D-14  0.36406157D-14
  0.10116112D-14  0.15221441D-13  0.16935166D-13  0.16301619D-13  0.12544389D-13
  0.74468827D-14  0.30773151D-14  0.85508794D-15 -0.33229157D-13 -0.36970303D-13
 -0.35587239D-13 -0.27385020D-13 -0.16256913D-13 -0.67179308D-14 -0.18666992D-14
  0.43933270D-14  0.48879551D-14  0.47050961D-14  0.36206560D-14  0.21493754D-14
  0.88819787D-15  0.24680192D-15  0.84482048D-02  0.93993563D-02  0.90477251D-02
  0.69623871D-02  0.41331691D-02  0.17079716D-02  0.47459094D-03  0.28016370D-02
  0.31170627D-02  0.30004530D-02  0.23089025D-02  0.13706627D-02  0.56640628D-03
  0.15738628D-03 -0.71532272D-15 -0.32136215D-15  0.10366849D-14  0.74720344D-16
 -0.21976695D-03 -0.72880242D-04  0.25506725D-15  0.19407846D-15 -0.44914571D-15
 -0.37639177D-18  0.52322551D-04  0.17351473D-04  0.60584964D-17  0.14127656D-16
 -0.20186152D-16 -0.11450183D-17 -0.25414519D-05 -0.84280930D-06  0.11344297D-17
  0.59492683D-18 -0.17293565D-17  0.28619953D-18  0.78766924D-06  0.26121091D-06
 -0.87029241D-06 -0.28861083D-06 -0.35348235D-16 -0.87029241D-06 -0.28861083D-06
  0.58155677D-16  0.34811696D-05  0.11544433D-05  0.47889028D-16  0.88015933D-17
 -0.55055273D-05 -0.18257712D-05 -0.28525596D-15 -0.55055273D-05 -0.18257712D-05
  0.42115236D-15  0.22022109D-04  0.73030847D-05  0.43461551D-15 -0.21756987D-16
 -0.36508454D-16 -0.49885219D-16 -0.11489019D-15 -0.65168208D-18 -0.10781024D-04
 -0.71728399D-18 -0.35752584D-05  0.14374699D-04  0.47670112D-05 -0.85489546D-16
  0.30454027D-15  0.38480086D-15 -0.35752584D-05 -0.10781024D-04  0.41068982D-17
MO    5     MO 0.0        OCC NO =    2.0000000  ORB. ENERGY =  -58.532114
 -0.28855927D-17 -0.53705237D-17 -0.90503446D-17 -0.13511050D-16 -0.68648377D-16
 -0.14533511D-16  0.77712694D-16 -0.11175761D-04  0.33699983D-04 -0.64097701D-16
  0.95009460D-05 -0.28649657D-04 -0.10168924D-15 -0.10494294D-05  0.31645050D-05
  0.31698585D-16  0.92281494D-06 -0.27827051D-05 -0.13333175D-17 -0.41019560D-15
  0.21038410D-15  0.19981150D-15  0.66135527D-15  0.17170304D-05 -0.51776246D-05
  0.14980069D-15 -0.12657661D-15 -0.23224078D-16 -0.13185505D-16 -0.12735603D-04
  0.38403614D-04 -0.75795667D-05  0.22855828D-04  0.18281725D-15 -0.75795667D-05
  0.22855828D-04  0.35521311D-15  0.30318267D-04 -0.91423310D-04 -0.90366487D-15
  0.65103994D-15 -0.34746925D-16 -0.65035344D-16 -0.11266168D-15 -0.18461311D-15
 -0.28916466D-15 -0.43458098D-15 -0.62106278D-15 -0.82433877D-15 -0.96008219D-15
 -0.88214334D-15 -0.51626772D-15 -0.46670377D-16 -0.20073828D-15 -0.49277670D-15
 -0.62778631D-15 -0.67058429D-16  0.79286648D-15  0.99332673D-15  0.18965650D-15
 -0.87282791D-15  0.17235550D-15 -0.70509819D-16  0.85788004D-16  0.23583227D-16
 -0.36493731D-16 -0.94448595D+01 -0.13855711D+02 -0.19524383D+02 -0.25618439D+02
 -0.30472055D+02 -0.31278426D+02 -0.25445757D+02 -0.14502687D+02 -0.45527291D+01
 -0.53644348D+00  0.28480530D+02  0.41781247D+02  0.58874861D+02  0.77251199D+02
  0.91887053D+02  0.94318626D+02  0.76730485D+02  0.43732173D+02  0.13728541D+02
  0.16176201D+01 -0.61299172D-11 -0.89926549D-11 -0.12671745D-10 -0.16626918D-10
 -0.19777020D-10 -0.20300372D-10 -0.16514844D-10 -0.94125564D-11 -0.29548192D-11
 -0.34816337D-12  0.25373175D-02  0.57933849D-02  0.62909493D-02 -0.78314391D-02
 -0.71982577D-02 -0.76511618D-02 -0.17469680D-01 -0.18970062D-01  0.23615337D-01
  0.21706008D-01  0.22075175D-14  0.50403620D-14  0.54732531D-14 -0.68135104D-14
 -0.62626298D-14 -0.56165888D-02  0.16936560D-01 -0.37325980D-14  0.95756976D-03
 -0.28875067D-02  0.23582036D-15 -0.17499782D-03  0.52769770D-03 -0.66963507D-16
  0.27007288D-04 -0.81439208D-04 -0.19379036D-16 -0.37447854D-05  0.11292225D-04
 -0.12062309D-16  0.13405922D-06 -0.40424928D-06 -0.23121739D-17  0.98314027D-15
  0.10938283D-14  0.10529081D-14  0.81023168D-15  0.48098799D-15  0.19876123D-15
  0.55229422D-16  0.97875574D-15  0.10889502D-14  0.10482124D-14  0.80661827D-15
  0.47884292D-15  0.19787482D-15  0.54983114D-16 -0.19618960D-14 -0.21827785D-14
 -0.21011205D-14 -0.16168499D-14 -0.95983090D-15 -0.39663605D-15 -0.11021254D-15
 -0.29237242D-13 -0.32528952D-13 -0.31312040D-13 -0.24095177D-13 -0.14303922D-13
 -0.59108862D-14 -0.16424472D-14 -0.28016370D-02 -0.31170627D-02 -0.30004530D-02
 -0.23089025D-02 -0.13706627D-02 -0.56640628D-03 -0.15738628D-03  0.84482048D-02
  0.93993563D-02  0.90477251D-02  0.69623871D-02  0.41331691D-02  0.17079716D-02
  0.47459094D-03  0.53533899D-15 -0.51591578D-15 -0.19423211D-16 -0.27587516D-15
  0.72880242D-04 -0.21976695D-03 -0.78778847D-16  0.94328301D-16 -0.15549454D-16
 -0.87370399D-17 -0.17351473D-04  0.52322551D-04  0.41055520D-18 -0.12588306D-16
  0.12177751D-16  0.22434244D-17  0.84280930D-06 -0.25414519D-05  0.18111582D-17
  0.30481104D-17 -0.48592685D-17 -0.31603427D-18 -0.26121091D-06  0.78766924D-06
  0.28861083D-06 -0.87029241D-06  0.12354523D-16  0.28861083D-06 -0.87029241D-06
 -0.18486886D-16 -0.11544433D-05  0.34811696D-05 -0.18576684D-16  0.84991232D-17
  0.18257712D-05 -0.55055273D-05 -0.97143690D-16  0.18257712D-05 -0.55055273D-05
  0.19779047D-15 -0.73030847D-05  0.22022109D-04  0.93640601D-16  0.49524279D-16
 -0.97238886D-17  0.26238045D-17 -0.10355008D-16 -0.33778822D-17  0.35752584D-05
 -0.33630887D-17 -0.10781024D-04 -0.47670112D-05  0.14374699D-04 -0.97647709D-17
  0.68108102D-16 -0.59780561D-17 -0.10781024D-04  0.35752584D-05  0.20222913D-16
MO    6     MO 0.0        OCC NO =    2.0000000  ORB. ENERGY =   -9.850628
  0.71711011D-06  0.13346502D-05  0.22491371D-05  0.33576847D-05 -0.23974048D-03
 -0.47032458D-03  0.64818317D-03 -0.25687196D-15 -0.81418032D-15 -0.28431682D-03
  0.84683489D-16  0.52844873D-15  0.36775371D-03 -0.42982906D-16 -0.96324505D-16
  0.33021048D-03  0.10535220D-16  0.11282453D-16 -0.11061504D-03 -0.24384387D-04
 -0.24384387D-04  0.48768774D-04  0.69568916D-15 -0.10826729D-14 -0.26749228D-15
  0.93585961D-04  0.93585961D-04 -0.18717192D-03 -0.49575045D-16  0.19721270D-15
 -0.17696228D-15  0.14027463D-15 -0.87399906D-16  0.20217212D-03 -0.18613647D-15
 -0.80998423D-16 -0.30325818D-03 -0.23468743D-15  0.34319814D-15 -0.30325818D-03
 -0.30336004D-15 -0.98682001D-01 -0.18470175D+00 -0.31996154D+00 -0.52430515D+00
 -0.82123374D+00 -0.12342192D+01 -0.17638314D+01 -0.23411395D+01 -0.27266537D+01
 -0.25053057D+01 -0.14662112D+01 -0.12717356D+00 -0.54699794D+00 -0.13427825D+01
 -0.17106743D+01 -0.60506359D+00  0.26608504D+01  0.31225113D+01  0.25451447D+00
 -0.14041790D+01 -0.60758561D+00 -0.20929741D-01  0.40792366D-02 -0.10211867D-02
 -0.13777141D-03  0.11279579D-14  0.16547265D-14  0.23317110D-14  0.30594972D-14
  0.36391432D-14  0.37354446D-14  0.30388745D-14  0.17319920D-14  0.54371237D-15
  0.64065080D-16 -0.51296255D-15 -0.75252162D-15 -0.10603945D-14 -0.13913706D-14
 -0.16549768D-14 -0.16987718D-14 -0.13819920D-14 -0.78765974D-15 -0.24726461D-15
 -0.29134940D-16  0.38685552D-01  0.56752123D-01  0.79970648D-01  0.10493152D+00
  0.12481163D+00  0.12811447D+00  0.10422422D+00  0.59402098D-01  0.18647693D-01
  0.21972388D-02 -0.57465918D-16 -0.13121030D-15 -0.14247928D-15  0.17736875D-15
  0.16302827D-15  0.42045076D-16  0.96000325D-16  0.10424531D-15 -0.12977227D-15
 -0.11928002D-15  0.42455955D-02  0.96938475D-02  0.10526403D-01 -0.13104045D-01
 -0.12044567D-01  0.44586399D-16  0.24061314D-16 -0.85113364D-02  0.27474468D-16
 -0.54229638D-16 -0.10079634D-02 -0.13506527D-16 -0.99565652D-17 -0.56625936D-04
  0.56600213D-17 -0.29802182D-16  0.39379284D-03  0.46543614D-17 -0.78192940D-17
 -0.19051960D-03 -0.20706173D-17  0.16245154D-18 -0.89193278D-06  0.32498093D-01
  0.36156931D-01  0.34804295D-01  0.26782531D-01  0.15899249D-01  0.65701317D-02
  0.18256305D-02  0.32498093D-01  0.36156931D-01  0.34804295D-01  0.26782531D-01
  0.15899249D-01  0.65701317D-02  0.18256305D-02 -0.64996186D-01 -0.72313862D-01
 -0.69608590D-01 -0.53565061D-01 -0.31798499D-01 -0.13140263D-01 -0.36512611D-02
  0.69586954D-15  0.77421487D-15  0.74525139D-15  0.57348434D-15  0.34044470D-15
  0.14068378D-15  0.39091545D-16 -0.34150611D-14 -0.37995500D-14 -0.36574083D-14
 -0.28144414D-14 -0.16707721D-14 -0.69042209D-15 -0.19184633D-15 -0.22328902D-14
 -0.24842828D-14 -0.23913455D-14 -0.18401833D-14 -0.10924111D-14 -0.45142287D-15
 -0.12543605D-15  0.13554936D-02  0.13554936D-02 -0.27109872D-02  0.38558395D-17
 -0.38067033D-16  0.32978022D-15 -0.18513462D-03 -0.18513462D-03  0.37026923D-03
  0.35571798D-17  0.99919048D-17 -0.15318649D-15 -0.39131417D-04 -0.39131417D-04
  0.78262833D-04  0.31473878D-17  0.18209470D-16  0.16366897D-16  0.53935124D-05
  0.53935124D-05 -0.10787025D-04  0.67997070D-19 -0.55372737D-17 -0.31398639D-17
 -0.56044012D-17  0.30159306D-17  0.29602164D-04 -0.63167893D-17  0.26828396D-17
 -0.44403245D-04  0.23129993D-16 -0.11730631D-16 -0.44403245D-04 -0.56533248D-18
  0.50615865D-17  0.15715064D-16  0.94112557D-04  0.99330383D-17  0.12357348D-16
 -0.14116884D-03 -0.25117798D-16 -0.59502539D-16 -0.14116884D-03 -0.15100369D-16
  0.92456961D-05  0.92456961D-05  0.24655190D-04 -0.34080145D-18 -0.16604410D-16
 -0.32295251D-18  0.55469039D-16  0.27696797D-16 -0.74910977D-16  0.18491392D-04
 -0.73965569D-04 -0.73965569D-04  0.58325812D-16 -0.33277162D-16  0.19912619D-17
MO    7     MO 0.0        OCC NO =    2.0000000  ORB. ENERGY =   -7.462116
 -0.52720336D-04 -0.98120504D-04 -0.16535154D-03 -0.24684949D-03 -0.10327212D-03
 -0.84697790D-04 -0.11516578D-03  0.16040422D-15 -0.12033554D-15  0.72612614D-03
 -0.17644234D-15 -0.10858865D-15 -0.25313092D-03  0.24288432D-16  0.94493691D-16
  0.28597768D-04  0.12152060D-17 -0.37653555D-16  0.16862020D-04  0.52125348D-04
  0.52125348D-04 -0.10425070D-03 -0.88475191D-15 -0.23652551D-16  0.11930749D-15
 -0.91204102D-04 -0.91204102D-04  0.18240820D-03 -0.27182488D-16 -0.12355493D-16
 -0.24892304D-16  0.10572163D-15  0.62923885D-16 -0.27377972D-03 -0.45138736D-15
 -0.56804843D-16  0.41066957D-03  0.13422246D-15 -0.13196681D-15  0.41066957D-03
 -0.16729794D-15  0.40657256D-03  0.76097630D-03  0.13182504D-02  0.21601516D-02
  0.33835056D-02  0.50850169D-02  0.72670341D-02  0.96455594D-02  0.11233888D-01
  0.10321929D-01  0.60408306D-02  0.53210393D-03  0.22886814D-02  0.56183051D-02
  0.71575929D-02  0.24999857D-02 -0.11287681D-01 -0.13997998D-01 -0.32191066D-03
  0.77270838D-02  0.13425193D-02 -0.14447478D-03 -0.18498498D-03  0.19310711D-03
  0.29208828D-04  0.75942016D-13  0.11140776D-12  0.15698709D-12  0.20598675D-12