 Molden2AIM, Version 4.0.0 (06/02/2016)           Time: Wed Jun 27 19:36:14 2018
GAUSSIAN              9 MOL ORBITALS    158 PRIMITIVES        2 NUCLEI
  H    1    (CENTRE  1)   0.00000000  0.00000000  2.41309900  CHARGE =  1.0
  Cl   2    (CENTRE  2)   0.00000000  0.00000000 -0.00445408  CHARGE = 17.0
CENTRE ASSIGNMENTS    1  1  1  1  1  1  1  1  1  1  1  1  1  1  1  1  1  1  1  1
CENTRE ASSIGNMENTS    1  1  1  1  1  1  1  2  2  2  2  2  2  2  2  2  2  2  2  2
CENTRE ASSIGNMENTS    2  2  2  2  2  2  2  2  2  2  2  2  2  2  2  2  2  2  2  2
CENTRE ASSIGNMENTS    2  2  2  2  2  2  2  2  2  2  2  2  2  2  2  2  2  2  2  2
CENTRE ASSIGNMENTS    2  2  2  2  2  2  2  2  2  2  2  2  2  2  2  2  2  2  2  2
CENTRE ASSIGNMENTS    2  2  2  2  2  2  2  2  2  2  2  2  2  2  2  2  2  2  2  2
CENTRE ASSIGNMENTS    2  2  2  2  2  2  2  2  2  2  2  2  2  2  2  2  2  2  2  2
CENTRE ASSIGNMENTS    2  2  2  2  2  2  2  2  2  2  2  2  2  2  2  2  2  2
TYPE ASSIGNMENTS      1  1  1  1  1  1  2  3  4  2  3  4  2  3  4  5  6  7  8  9
TYPE ASSIGNMENTS     10  5  6  7  8  9 10  1  1  1  1  1  1  1  1  1  1  1  1  1
TYPE ASSIGNMENTS      1  1  1  1  1  1  1  1  1  1  1  1  1  1  1  1  1  1  1  1
TYPE ASSIGNMENTS      1  1  1  1  1  1  1  1  1  2  2  2  2  2  2  2  3  3  3  3
TYPE ASSIGNMENTS      3  3  3  4  4  4  4  4  4  4  2  2  2  2  2  2  2  3  3  3
TYPE ASSIGNMENTS      3  3  3  3  4  4  4  4  4  4  4  2  3  4  2  3  4  2  3  4
TYPE ASSIGNMENTS      5  6  7  8  9 10  5  6  7  8  9 10  5  6  7  8  9 10 11 12
TYPE ASSIGNMENTS     13 17 14 15 18 19 16 20 11 12 13 17 14 15 18 19 16 20
EXPONENTS  0.3387000D+02 0.5095000D+01 0.1159000D+01 0.3258000D+00 0.1027000D+00
EXPONENTS  0.2526000D-01 0.1407000D+01 0.1407000D+01 0.1407000D+01 0.3880000D+00
EXPONENTS  0.3880000D+00 0.3880000D+00 0.1020000D+00 0.1020000D+00 0.1020000D+00
EXPONENTS  0.1057000D+01 0.1057000D+01 0.1057000D+01 0.1057000D+01 0.1057000D+01
EXPONENTS  0.1057000D+01 0.2470000D+00 0.2470000D+00 0.2470000D+00 0.2470000D+00
EXPONENTS  0.2470000D+00 0.2470000D+00 0.4561000D+06 0.6833000D+05 0.1555000D+05
EXPONENTS  0.4405000D+04 0.1439000D+04 0.5204000D+03 0.2031000D+03 0.8396000D+02
EXPONENTS  0.3620000D+02 0.1583000D+02 0.6334000D+01 0.2694000D+01 0.4313000D+00
EXPONENTS  0.4561000D+06 0.6833000D+05 0.1555000D+05 0.4405000D+04 0.1439000D+04
EXPONENTS  0.5204000D+03 0.2031000D+03 0.8396000D+02 0.3620000D+02 0.1583000D+02
EXPONENTS  0.6334000D+01 0.2694000D+01 0.4313000D+00 0.4561000D+06 0.6833000D+05
EXPONENTS  0.1555000D+05 0.4405000D+04 0.1439000D+04 0.5204000D+03 0.2031000D+03
EXPONENTS  0.8396000D+02 0.3620000D+02 0.1583000D+02 0.6334000D+01 0.2694000D+01
EXPONENTS  0.4313000D+00 0.9768000D+00 0.1625000D+00 0.5910000D-01 0.6633000D+03
EXPONENTS  0.1568000D+03 0.4998000D+02 0.1842000D+02 0.7240000D+01 0.2922000D+01
EXPONENTS  0.3818000D+00 0.6633000D+03 0.1568000D+03 0.4998000D+02 0.1842000D+02
EXPONENTS  0.7240000D+01 0.2922000D+01 0.3818000D+00 0.6633000D+03 0.1568000D+03
EXPONENTS  0.4998000D+02 0.1842000D+02 0.7240000D+01 0.2922000D+01 0.3818000D+00
EXPONENTS  0.6633000D+03 0.1568000D+03 0.4998000D+02 0.1842000D+02 0.7240000D+01
EXPONENTS  0.2922000D+01 0.3818000D+00 0.6633000D+03 0.1568000D+03 0.4998000D+02
EXPONENTS  0.1842000D+02 0.7240000D+01 0.2922000D+01 0.3818000D+00 0.6633000D+03
EXPONENTS  0.1568000D+03 0.4998000D+02 0.1842000D+02 0.7240000D+01 0.2922000D+01
EXPONENTS  0.3818000D+00 0.1022000D+01 0.1022000D+01 0.1022000D+01 0.1301000D+00
EXPONENTS  0.1301000D+00 0.1301000D+00 0.4190000D-01 0.4190000D-01 0.4190000D-01
EXPONENTS  0.1046000D+01 0.1046000D+01 0.1046000D+01 0.1046000D+01 0.1046000D+01
EXPONENTS  0.1046000D+01 0.3440000D+00 0.3440000D+00 0.3440000D+00 0.3440000D+00
EXPONENTS  0.3440000D+00 0.3440000D+00 0.1350000D+00 0.1350000D+00 0.1350000D+00
EXPONENTS  0.1350000D+00 0.1350000D+00 0.1350000D+00 0.7060000D+00 0.7060000D+00
EXPONENTS  0.7060000D+00 0.7060000D+00 0.7060000D+00 0.7060000D+00 0.7060000D+00
EXPONENTS  0.7060000D+00 0.7060000D+00 0.7060000D+00 0.3120000D+00 0.3120000D+00
EXPONENTS  0.3120000D+00 0.3120000D+00 0.3120000D+00 0.3120000D+00 0.3120000D+00
EXPONENTS  0.3120000D+00 0.3120000D+00 0.3120000D+00
MO    1     MO 0.0        OCC NO =    2.0000000  ORB. ENERGY = -104.850776
  0.92302605D-06  0.16647155D-05  0.24546220D-05 -0.54842990D-04 -0.12634000D-05
 -0.65725734D-07  0.46134530D-15  0.52446304D-16  0.10037025D-04 -0.17927029D-15
 -0.13525004D-15  0.53361031D-04 -0.21741369D-16 -0.41378119D-16  0.17045099D-05
  0.94492886D-05  0.94492886D-05 -0.18898577D-04 -0.29212325D-15 -0.38888096D-15
 -0.27314729D-16  0.24612569D-05  0.24612569D-05 -0.49225138D-05 -0.27134738D-16
  0.76351785D-16  0.55869023D-16  0.61664396D+00  0.11537432D+01  0.19934127D+01
  0.32315544D+01  0.49073732D+01  0.68206717D+01  0.81087947D+01  0.72226906D+01
  0.35855599D+01  0.57769115D+00  0.88690979D-02  0.15848991D-02  0.59225206D-04
 -0.22110044D-04 -0.41298387D-04 -0.71675353D-04 -0.11629997D-03 -0.18001854D-03
 -0.25768019D-03 -0.33635313D-03 -0.35844039D-03 -0.26794147D-03 -0.14144154D-04
  0.18174536D-03  0.10797762D-03 -0.40483514D-06  0.96732646D-05  0.18053755D-04
  0.31375836D-04  0.50851001D-04  0.78979566D-04  0.11314051D-03  0.14939150D-03
  0.16153652D-03  0.12664673D-03  0.63018993D-05 -0.10856827D-03 -0.11238828D-03
  0.50857288D-04 -0.31543630D-03  0.78413667D-05 -0.32915357D-06  0.44556798D-14
  0.58691303D-14  0.64750256D-14  0.53782531D-14  0.28565209D-14  0.73678006D-15
 -0.75738485D-18 -0.10517908D-14 -0.13854445D-14 -0.15284699D-14 -0.12695699D-14
 -0.67429942D-15 -0.17392149D-15  0.17878538D-18  0.18052374D-02  0.23779028D-02
  0.26233838D-02  0.21790218D-02  0.11573314D-02  0.29850954D-03 -0.30685765D-06
 -0.22725585D-14 -0.29837028D-14 -0.33971651D-14 -0.28765799D-14 -0.16478157D-14
 -0.37482091D-15  0.17543681D-15 -0.19769873D-14 -0.25956394D-14 -0.29553264D-14
 -0.25024490D-14 -0.14334992D-14 -0.32607133D-15  0.15261933D-15 -0.10043489D-02
 -0.13186365D-02 -0.15013646D-02 -0.12712939D-02 -0.72824610D-03 -0.16565072D-03
  0.77533654D-04 -0.19098284D-15 -0.21262476D-15 -0.10519689D-03  0.36721865D-16
  0.37530804D-16  0.15944961D-06  0.15271896D-17  0.32337402D-17 -0.12489799D-06
 -0.52119841D-05 -0.52119841D-05  0.10423968D-04  0.50218019D-16 -0.41904378D-15
 -0.98708455D-16 -0.10004209D-04 -0.10004209D-04  0.20008418D-04  0.21485212D-16
  0.10300430D-15  0.10315295D-15  0.32587855D-06  0.32587855D-06 -0.65175709D-06
  0.20276603D-17  0.15939363D-16  0.21800548D-16  0.42736644D-16  0.99885894D-16
  0.78727742D-05  0.42719151D-16  0.99890162D-16 -0.11809161D-04 -0.17092908D-15
 -0.39954785D-15 -0.11809161D-04 -0.67381433D-17 -0.12979323D-16 -0.18970423D-16
  0.15557853D-05 -0.12978458D-16 -0.18970593D-16 -0.23336779D-05  0.51916427D-16
  0.75881861D-16 -0.23336779D-05 -0.54477441D-17
MO    2     MO 0.0        OCC NO =    2.0000000  ORB. ENERGY =  -10.575519
  0.80612683D-04  0.14538829D-03  0.21437495D-03  0.23495649D-03 -0.31667827D-03
 -0.23172749D-05  0.43300019D-15  0.24329079D-15 -0.19607394D-04 -0.14064867D-15
 -0.38357715D-18 -0.20653520D-03 -0.30672113D-16 -0.16792733D-16  0.55583877D-04
  0.17543062D-03  0.17543062D-03 -0.35086124D-03  0.21836163D-15 -0.38009266D-15
 -0.39717515D-15 -0.14881252D-04 -0.14881252D-04  0.29762505D-04 -0.11010799D-16
  0.55927729D-16  0.50198977D-16 -0.17106966D-03 -0.32007200D-03 -0.55301350D-03
 -0.89649938D-03 -0.13614058D-02 -0.18921940D-02 -0.22495457D-02 -0.20037223D-02
 -0.99470775D-03 -0.16026335D-03 -0.24604694D-05 -0.43968346D-06 -0.16430285D-07
 -0.17271908D+00 -0.32261444D+00 -0.55991302D+00 -0.90851128D+00 -0.14062676D+01
 -0.20129442D+01 -0.26275210D+01 -0.28000621D+01 -0.20931033D+01 -0.11049120D+00
  0.14197571D+01  0.84349884D+00 -0.31624883D-02 -0.11209934D-03 -0.20921726D-03
 -0.36360119D-03 -0.58929056D-03 -0.91526050D-03 -0.13111371D-02 -0.17312343D-02
 -0.18719779D-02 -0.14676549D-02 -0.73030023D-04  0.12581513D-02  0.13024199D-02
 -0.58936341D-03  0.55979235D-01  0.77632498D-03  0.61458273D-04 -0.15878712D-13
 -0.20915827D-13 -0.23075057D-13 -0.19166487D-13 -0.10179787D-13 -0.26256640D-14
  0.26990933D-17 -0.10773270D-13 -0.14190814D-13 -0.15655792D-13 -0.13003935D-13
 -0.69067058D-14 -0.17814409D-14  0.18312607D-17  0.34843470D-01  0.45896670D-01
  0.50634779D-01  0.42058004D-01  0.22338028D-01  0.57616289D-02 -0.59227587D-05
  0.22092693D-15  0.29006086D-15  0.33025563D-15  0.27964690D-15  0.16019251D-15
  0.36438239D-16 -0.17055101D-16 -0.13031114D-15 -0.17108898D-15 -0.19479739D-15
 -0.16494643D-15 -0.94487665D-16 -0.21492666D-16  0.10059750D-16  0.63991105D-02
  0.84015629D-02  0.95657975D-02  0.80999244D-02  0.46399486D-02  0.10554273D-02
 -0.49399807D-03  0.98758796D-16 -0.52076139D-16  0.19448290D-02  0.40005475D-16
  0.59770414D-17  0.13906226D-03  0.16636150D-17  0.89480811D-18  0.56728355D-05
 -0.61157847D-03 -0.61157847D-03  0.12231569D-02  0.14519205D-16  0.84509182D-16
  0.42461099D-16  0.10494737D-03  0.10494737D-03 -0.20989474D-03  0.12265561D-16
  0.30783769D-16  0.60658722D-16 -0.12114349D-04 -0.12114349D-04  0.24228699D-04
 -0.17017908D-17  0.13780053D-16 -0.34323911D-17  0.56253054D-16  0.42656626D-16
  0.97983142D-04  0.55416797D-16  0.43082877D-16 -0.14697471D-03 -0.22417596D-15
 -0.17105276D-15 -0.14697471D-03 -0.87806368D-16 -0.76434518D-17 -0.70334293D-17
 -0.18497363D-04 -0.75836395D-17 -0.70379208D-17  0.27746044D-04  0.30513995D-16
  0.28138209D-16  0.27746044D-04  0.80644802D-17
MO    3     MO 0.0        OCC NO =    2.0000000  ORB. ENERGY =   -8.042625
  0.36193173D-04  0.65275877D-04  0.96249243D-04  0.33357850D-02  0.57918861D-03
  0.16328019D-05 -0.73364286D-15  0.28059054D-15  0.42260216D-03  0.12286670D-14
 -0.37511413D-15 -0.23533725D-02  0.10486508D-15 -0.44449788D-16 -0.13635123D-03
  0.96434764D-04  0.96434764D-04 -0.19286953D-03  0.12924753D-15 -0.10549637D-16
  0.23756496D-15 -0.55092692D-04 -0.55092692D-04  0.11018538D-03  0.48038154D-17
 -0.54352585D-15  0.16908367D-15 -0.18370126D-03 -0.34370576D-03 -0.59384741D-03
 -0.96269591D-03 -0.14619305D-02 -0.20319115D-02 -0.24156497D-02 -0.21516749D-02
 -0.10681559D-02 -0.17209702D-03 -0.26421477D-05 -0.47214921D-06 -0.17643479D-07
  0.91814293D-03  0.17149592D-02  0.29763948D-02  0.48294792D-02  0.74754602D-02
  0.10700442D-01  0.13967419D-01  0.14884616D-01  0.11126553D-01  0.58735095D-03
 -0.75471681D-02 -0.44838850D-02  0.16811207D-04 -0.10363966D-04 -0.19342850D-04
 -0.33616171D-04 -0.54481924D-04 -0.84618957D-04 -0.12121910D-03 -0.16005852D-03
 -0.17307074D-03 -0.13568971D-03 -0.67518749D-05  0.11632038D-03  0.12041316D-03
 -0.54488659D-04  0.12893361D-02 -0.20624613D-02 -0.61532398D-04  0.23198720D-10
  0.30557921D-10  0.33712545D-10  0.28002144D-10  0.14872619D-10  0.38360822D-11
 -0.39433621D-14 -0.52086182D-11 -0.68609192D-11 -0.75692011D-11 -0.62870916D-11
 -0.33392271D-11 -0.86128407D-12  0.88537074D-15  0.11484153D+02  0.15127207D+02
  0.16688853D+02  0.13862011D+02  0.73624505D+01  0.18989908D+01 -0.19520979D-02
  0.20415271D-13  0.26803755D-13  0.30518047D-13  0.25841428D-13  0.14802965D-13
  0.33671610D-14 -0.15760167D-14 -0.55820448D-14 -0.73288156D-14 -0.83443957D-14
 -0.70656916D-14 -0.40475002D-14 -0.92066587D-15  0.43092229D-15  0.43488492D-01
  0.57097202D-01  0.65009365D-01  0.55047260D-01  0.31533190D-01  0.71727067D-02
 -0.33572215D-02  0.17017723D-12 -0.38459880D-13  0.90150678D-01  0.28585198D-15
 -0.36633830D-16 -0.29446610D-03 -0.33189530D-16  0.89273545D-17 -0.85393449D-05
 -0.94902996D-03 -0.94902996D-03  0.18980599D-02 -0.87448495D-17  0.41998078D-14
 -0.10971508D-14  0.56029650D-03  0.56029650D-03 -0.11205930D-02  0.46125368D-17
 -0.11134969D-14  0.32934682D-15  0.24068473D-04  0.24068473D-04 -0.48136947D-04
 -0.32706354D-17 -0.50943971D-16  0.26695269D-16 -0.23970733D-15  0.24747555D-16
  0.27360544D-03 -0.23970209D-15  0.24673805D-16 -0.41040816D-03  0.95882409D-15
 -0.98916471D-16 -0.41040816D-03 -0.81545721D-16  0.10204430D-15 -0.30295992D-16
 -0.21774552D-03  0.10204344D-15 -0.30295372D-16  0.32661828D-03 -0.40817635D-15
  0.12118335D-15  0.32661828D-03  0.94023986D-17
MO    4     MO 0.0        OCC NO =    2.0000000  ORB. ENERGY =   -8.040501
  0.17969123D-16  0.32408054D-16  0.47785656D-16  0.10583007D-14  0.94209380D-16
 -0.54101702D-17 -0.22317551D-04 -0.29516718D-03  0.21804825D-15  0.44198187D-04
  0.58455582D-03 -0.86299375D-15  0.34238365D-05  0.45282933D-04  0.11578330D-17
 -0.13521055D-15  0.16594894D-15 -0.30738391D-16  0.43855778D-15  0.72499854D-05
  0.95886764D-04 -0.91726793D-17 -0.15352843D-16  0.24525522D-16 -0.41357154D-16
 -0.19702696D-04 -0.26058366D-03 -0.24537096D-16 -0.45909001D-16 -0.79320584D-16
 -0.12858792D-15 -0.19527101D-15 -0.27140374D-15 -0.32265990D-15 -0.28740062D-15
 -0.14267427D-15 -0.22987111D-16 -0.35291339D-18 -0.63065276D-19 -0.23566510D-20
  0.11296985D-15  0.21101147D-15  0.36622064D-15  0.59422726D-15  0.91979323D-15
  0.13166004D-14  0.17185748D-14  0.18314283D-14  0.13690298D-14  0.72268651D-16
 -0.92861630D-15 -0.55170477D-15  0.20684793D-17  0.13399130D-16  0.25007546D-16
  0.43460914D-16  0.70437356D-16  0.10940024D-15  0.15671900D-15  0.20693284D-15
  0.22375578D-15  0.17542744D-15  0.87292112D-17 -0.15038567D-15 -0.15567704D-15
  0.70446065D-16  0.36788126D-15 -0.60174148D-15  0.32893296D-16  0.86970231D+00
  0.11455931D+01  0.12638576D+01  0.10497790D+01  0.55756313D+00  0.14381180D+00
 -0.14783364D-03  0.11502498D+02  0.15151371D+02  0.16715511D+02  0.13884154D+02
  0.73742113D+01  0.19020242D+01 -0.19552162D-02  0.34287723D-11  0.45164626D-11
  0.49827163D-11  0.41387186D-11  0.21981740D-11  0.56697319D-12 -0.58282917D-15
  0.71876015D-03  0.94367939D-03  0.10744484D-02  0.90979878D-03  0.52116777D-03
  0.11854759D-03 -0.55486795D-04  0.95061688D-02  0.12480903D-01  0.14210426D-01
  0.12032805D-01  0.68928540D-02  0.15678852D-02 -0.73385654D-03  0.14205516D-13
  0.18650801D-13  0.21235309D-13  0.17981188D-13  0.10300317D-13  0.23429647D-14
 -0.10966364D-14  0.63789763D-02  0.84366982D-01  0.27141937D-13  0.11324304D-04
  0.14977284D-03 -0.10425599D-15 -0.12281610D-05 -0.16243395D-04  0.30115002D-17
 -0.23272376D-15 -0.31591966D-15  0.54864342D-15 -0.67677853D-16  0.15792783D-03
  0.20887199D-02  0.19044109D-15  0.18732152D-15 -0.37776261D-15 -0.26096327D-16
 -0.41547128D-04 -0.54949347D-03  0.54550740D-17  0.55973881D-17 -0.11052462D-16
 -0.39761237D-17 -0.16643772D-05 -0.22012698D-04 -0.86830816D-05 -0.11484059D-03
 -0.75652378D-17 -0.86830816D-05 -0.11484059D-03  0.24416779D-17  0.34732326D-04
  0.45936235D-03  0.20254035D-16 -0.68387559D-16  0.35566881D-05  0.47040000D-04
 -0.61435253D-16  0.35566881D-05  0.47040000D-04  0.79680360D-16 -0.14226752D-04
 -0.18816000D-03  0.10462540D-15  0.91583682D-17
MO    5     MO 0.0        OCC NO =    2.0000000  ORB. ENERGY =   -8.040501
 -0.42281636D-16 -0.76256672D-16 -0.11244042D-15 -0.70405150D-14 -0.11914430D-14
  0.12858481D-16 -0.29516718D-03  0.22317551D-04 -0.10464494D-14  0.58455582D-03
 -0.44198187D-04  0.50450111D-14  0.45282933D-04 -0.34238365D-05  0.28844657D-15
  0.84925140D-17 -0.13138479D-16  0.46459649D-17  0.87689803D-16  0.95886764D-04
 -0.72499854D-05  0.12236705D-15  0.13471487D-15 -0.25708192D-15  0.19651370D-17
 -0.26058366D-03  0.19702696D-04  0.40802393D-15  0.76341434D-15  0.13190109D-14
  0.21382704D-14  0.32471342D-14  0.45131347D-14  0.53654661D-14  0.47791445D-14
  0.23725104D-14  0.38224945D-15  0.58685472D-17  0.10487036D-17  0.39188418D-19
 -0.21115911D-14 -0.39441489D-14 -0.68452617D-14 -0.11107078D-13 -0.17192437D-13
 -0.24609412D-13 -0.32122970D-13 -0.34232385D-13 -0.25589403D-13 -0.13508191D-14
  0.17357355D-13  0.10312263D-13 -0.38663255D-16  0.50149681D-16  0.93597154D-16
  0.16266362D-15  0.26362987D-15  0.40945846D-15  0.58656106D-15  0.77449922D-15
  0.83746340D-15  0.65658216D-15  0.32671311D-16 -0.56285692D-15 -0.58266125D-15
  0.26366246D-15 -0.27905116D-14  0.43572205D-14  0.78897333D-16  0.11502498D+02
  0.15151371D+02  0.16715511D+02  0.13884154D+02  0.73742113D+01  0.19020242D+01
 -0.19552162D-02 -0.86970231D+00 -0.11455931D+01 -0.12638576D+01 -0.10497790D+01
 -0.55756313D+00 -0.14381180D+00  0.14783364D-03 -0.23414823D-10 -0.30842577D-10
 -0.34026587D-10 -0.28262992D-10 -0.15011162D-10 -0.38718165D-11  0.39800957D-14
  0.95061688D-02  0.12480903D-01  0.14210426D-01  0.12032805D-01  0.68928540D-02
  0.15678852D-02 -0.73385654D-03 -0.71876015D-03 -0.94367939D-03 -0.10744484D-02
 -0.90979878D-03 -0.52116777D-03 -0.11854759D-03  0.55486795D-04 -0.91104990D-13
 -0.11961417D-12 -0.13618954D-12 -0.11531971D-12 -0.66059567D-13 -0.15026260D-13
  0.70331165D-14  0.84366982D-01 -0.63789763D-02 -0.18374654D-12  0.14977284D-03
 -0.11324304D-04  0.62387915D-15 -0.16243395D-04  0.12281610D-05  0.10232563D-16
  0.19922682D-14  0.16755258D-14 -0.36677940D-14  0.39140520D-17  0.20887199D-02
 -0.15792783D-03 -0.12127371D-14 -0.11184702D-14  0.23312073D-14  0.35155328D-17
 -0.54949347D-03  0.41547128D-04 -0.45814152D-16 -0.55003666D-16  0.10081782D-15
  0.10316309D-17 -0.22012698D-04  0.16643772D-05 -0.11484059D-03  0.86830816D-05
 -0.40347369D-15 -0.11484059D-03  0.86830816D-05  0.56338705D-15  0.45936235D-03
 -0.34732326D-04  0.64703402D-15 -0.95298671D-17  0.47040000D-04 -0.35566881D-05
  0.43098658D-15  0.47040000D-04 -0.35566881D-05 -0.63466637D-15 -0.18816000D-03
  0.14226752D-04 -0.65829337D-15  0.15334568D-17
MO    6     MO 0.0        OCC NO =    2.0000000  ORB. ENERGY =   -1.116790
 -0.21586469D-01 -0.38932087D-01 -0.57405339D-01 -0.30569005D-01  0.66933016D-03
 -0.26160000D-04  0.40743697D-16  0.16586517D-15  0.24175134D-01  0.13409697D-16
 -0.19749235D-16  0.62779715D-02 -0.92070294D-17  0.19982724D-17 -0.57071821D-03
  0.27247939D-02  0.27247939D-02 -0.54495877D-02  0.48142100D-16 -0.68866099D-16
  0.50483504D-16  0.35342729D-04  0.35342729D-04 -0.70685458D-04 -0.14975465D-16
 -0.17408537D-17 -0.33742715D-17  0.17352065D-03  0.32465780D-03  0.56093675D-03
  0.90934390D-03  0.13809113D-02  0.19193043D-02  0.22817759D-02  0.20324305D-02
  0.10089593D-02  0.16255951D-03  0.24957216D-05  0.44598299D-06  0.16665689D-07
 -0.10140797D-02 -0.18941554D-02 -0.32873985D-02 -0.53341118D-02 -0.82565715D-02
 -0.11818532D-01 -0.15426876D-01 -0.16439911D-01 -0.12289167D-01 -0.64872329D-03
  0.83357722D-02  0.49524064D-02 -0.18567811D-04 -0.48285418D-01 -0.90117776D-01
 -0.15661676D+00 -0.25382970D+00 -0.39423726D+00 -0.56475626D+00 -0.74570801D+00
 -0.80633156D+00 -0.63217440D+00 -0.31456789D-01  0.54193329D+00  0.56100142D+00
 -0.25386108D+00 -0.45145551D-01 -0.64937599D-01 -0.84332021D-03 -0.29266156D-15
 -0.38550096D-15 -0.42529787D-15 -0.35325877D-15 -0.18762431D-15 -0.48393783D-16
  0.49747164D-19  0.92726111D-15  0.12214110D-14  0.13475025D-14  0.11192557D-14
  0.59446388D-15  0.15332958D-15 -0.15761759D-18  0.94099705D-01  0.12395043D+00
  0.13674636D+00  0.11358357D+00  0.60326994D-01  0.15560092D-01 -0.15995245D-04
  0.52883007D-15  0.69431511D-15  0.79052883D-15  0.66938735D-15  0.38345085D-15
  0.87221764D-16 -0.40824586D-16  0.37462334D-15  0.49185298D-15  0.56001080D-15
  0.47419415D-15  0.27163666D-15  0.61787917D-16 -0.28920146D-16  0.26730784D+00
  0.35095559D+00  0.39958876D+00  0.33835535D+00  0.19382297D+00  0.44088002D-01
 -0.20635611D-01 -0.13844285D-16 -0.28807946D-16 -0.34875316D-01 -0.47365216D-18
 -0.70447642D-18 -0.17285372D-02  0.10780069D-17 -0.50803596D-18  0.43973742D-05
  0.12918268D-01  0.12918268D-01 -0.25836536D-01 -0.70615062D-17  0.87474532D-16
  0.13747899D-16  0.16963641D-02  0.16963641D-02 -0.33927282D-02 -0.43254345D-17
  0.36510220D-17  0.60673100D-18 -0.45204606D-04 -0.45204606D-04  0.90409212D-04
 -0.16135707D-17 -0.18065746D-17 -0.55694000D-17  0.59035768D-17  0.88258668D-17
 -0.41024320D-02  0.70213746D-17  0.80984545D-17  0.61536480D-02 -0.24732105D-16
 -0.34576055D-16  0.61536480D-02 -0.50485333D-17  0.11133953D-17  0.82175307D-18
 -0.18439879D-03  0.18434332D-18  0.46248656D-18  0.27659819D-03 -0.35245293D-17
 -0.29277458D-17  0.27659819D-03  0.15773925D-17
MO    7     MO 0.0        OCC NO =    2.0000000  ORB. ENERGY =   -0.624644
  0.39419030D-01  0.71093844D-01  0.10482783D+00  0.77440983D-01  0.76168049D-02
 -0.12277824D-04  0.46852522D-16  0.54376223D-16 -0.29061478D-01  0.14723843D-16
 -0.11794562D-16 -0.66019294D-02 -0.12399504D-16  0.11543844D-16  0.10584331D-02
 -0.35231302D-02 -0.35231302D-02  0.70462604D-02  0.56059133D-16  0.16469117D-16
  0.80396924D-17  0.38760407D-03  0.38760407D-03 -0.77520814D-03 -0.31980175D-17
  0.35484463D-17 -0.79975384D-17  0.25970718D-03  0.48591313D-03  0.83955025D-03
  0.13610089D-02  0.20668006D-02  0.28726097D-02  0.34151186D-02  0.30419249D-02
  0.15101026D-02  0.24330173D-03  0.37353296D-05  0.66749973D-06  0.24943423D-07
  0.56136419D-03  0.10485477D-02  0.18198054D-02  0.29528046D-02  0.45705908D-02
  0.65423855D-02  0.85398568D-02  0.91006424D-02  0.68029149D-02  0.35911379D-03
 -0.46144340D-02 -0.27415039D-02  0.10278584D-04 -0.15221322D-01 -0.28408405D-01
 -0.49371307D-01 -0.80016364D-01 -0.12427794D+00 -0.17803174D+00 -0.23507432D+00
 -0.25418507D+00 -0.19928439D+00 -0.99163254D-02  0.17083711D+00  0.17684808D+00
 -0.80026257D-01 -0.19893610D-01 -0.32554584D-01 -0.14800762D-02 -0.32576674D-15
 -0.42910791D-15 -0.47340655D-15 -0.39321855D-15 -0.20884793D-15 -0.53867972D-16
  0.55374444D-19  0.75721398D-15  0.99742075D-15  0.11003888D-14  0.91399935D-15
  0.48544726D-15  0.12521101D-15 -0.12871266D-18 -0.15153650D+00 -0.19960758D+00
 -0.22021392D+00 -0.18291297D+00 -0.97149524D-01 -0.25057696D-01  0.25758460D-04
  0.11518884D-14  0.15123450D-14  0.17219160D-14  0.14580478D-14  0.83522590D-15
  0.18998491D-15 -0.88923396D-16  0.29241816D-16  0.38392360D-16  0.43712527D-16
  0.37013972D-16  0.21203028D-16  0.48229534D-17 -0.22574076D-17 -0.23659552D+01
 -0.31063257D+01 -0.35367804D+01 -0.29948004D+01 -0.17155370D+01 -0.39022514D+00
  0.18264684D+00 -0.13564457D-15  0.29656524D-16  0.29454028D+00 -0.66551788D-17
 -0.22692200D-17  0.20697856D-01  0.10040448D-17 -0.65722814D-18  0.19756945D-07
 -0.37332398D-01 -0.37332398D-01  0.74664795D-01 -0.40500426D-17  0.12126379D-15
  0.46397150D-16 -0.50292607D-02 -0.50292607D-02  0.10058521D-01 -0.24215192D-17
  0.17536967D-16 -0.20975863D-17 -0.21823062D-03 -0.21823062D-03  0.43646123D-03
 -0.13643198D-17  0.26647109D-17 -0.46412755D-17  0.39930458D-18  0.22683377D-17
  0.86021877D-02  0.91896496D-18  0.14219906D-17 -0.12903282D-01 -0.21168787D-17
 -0.82270036D-17 -0.12903282D-01 -0.40914708D-16 -0.81619450D-18  0.89669998D-18
  0.68487992D-04 -0.10842576D-17  0.78117191D-18 -0.10273199D-03  0.35328411D-17
 -0.34712719D-17 -0.10273199D-03  0.83426041D-18
MO    8     MO 0.0        OCC NO =    2.0000000  ORB. ENERGY =   -0.477138
 -0.10731571D-16 -0.19354830D-16 -0.28538686D-16 -0.28421907D-16  0.24132154D-15
  0.11381364D-16 -0.12928574D-01 -0.33173880D-02  0.23195417D-16 -0.97682156D-02
 -0.25064606D-02 -0.13393200D-16 -0.96507423D-03 -0.24763177D-03 -0.76854673D-16
  0.54109777D-16 -0.94141581D-17 -0.44695619D-16 -0.40459300D-16  0.93584435D-02
  0.24013157D-02 -0.73444627D-17 -0.22643239D-16  0.29987701D-16  0.22581971D-16
  0.13209650D-02  0.33895103D-03  0.30903272D-18  0.57820141D-18  0.99900395D-18
  0.16195019D-17  0.24593429D-17  0.34181974D-17  0.40637436D-17  0.36196702D-17
  0.17969127D-17  0.28951142D-18  0.44447715D-20  0.79427630D-21  0.29680866D-22
 -0.29710321D-18 -0.55494614D-18 -0.96313594D-18 -0.15627782D-17 -0.24189951D-17
 -0.34625717D-17 -0.45197377D-17 -0.48165347D-17 -0.36004574D-17 -0.19006175D-18
  0.24421992D-17  0.14509469D-17 -0.54399631D-20  0.99214733D-17  0.18517000D-16
  0.32180917D-16  0.52155799D-16  0.81006122D-16  0.11604361D-15  0.15322477D-15
  0.16568143D-15  0.12989639D-15  0.64636013D-17 -0.11135405D-15 -0.11527208D-15
  0.52162248D-16  0.26643015D-16 -0.20083806D-15 -0.81363798D-16  0.52200344D-03
  0.68759569D-03  0.75857912D-03  0.63008716D-03  0.33465459D-03  0.86317182D-04
 -0.88731129D-07  0.13394269D-03  0.17643258D-03  0.19464647D-03  0.16167627D-03
  0.85870192D-04  0.22148427D-04 -0.22767830D-07 -0.32420140D-15 -0.42704601D-15
 -0.47113179D-15 -0.39132910D-15 -0.20784439D-15 -0.53609132D-16  0.55108365D-19
  0.29455074D+01  0.38672353D+01  0.44031319D+01  0.37283913D+01  0.21357661D+01
  0.48581268D+00 -0.22738707D+00  0.75579805D+00  0.99230743D+00  0.11298150D+01
  0.95668095D+00  0.54802368D+00  0.12465637D+00 -0.58346044D-01  0.18628429D-15
  0.24457761D-15  0.27846960D-15  0.23579662D-15  0.13507338D-15  0.30724509D-16
 -0.14380761D-16 -0.36083645D+00 -0.92588286D-01  0.85099733D-17 -0.36089683D-01
 -0.92603779D-02 -0.92708600D-16 -0.44273008D-03 -0.11360166D-03 -0.75435318D-17
  0.93698366D-17 -0.38185747D-17 -0.55512620D-17 -0.73424591D-16 -0.19053886D-01
 -0.48891032D-02  0.88226102D-17  0.76981201D-17 -0.16520730D-16 -0.21038415D-17
 -0.26279269D-02 -0.67430895D-03  0.21070105D-17 -0.78729811D-18 -0.13197124D-17
 -0.46585630D-18 -0.24439857D-03 -0.62711082D-04  0.19447913D-02  0.49902081D-03
  0.55706588D-17  0.19447913D-02  0.49902081D-03 -0.23310172D-18 -0.77791653D-02
 -0.19960832D-02 -0.16478875D-16  0.34340180D-16  0.14047989D-03  0.36046227D-04
  0.40528316D-19  0.14047989D-03  0.36046227D-04 -0.19841374D-17 -0.56191958D-03
 -0.14418491D-03  0.18625525D-17 -0.19112685D-17
MO    9     MO 0.0        OCC NO =    2.0000000  ORB. ENERGY =   -0.477138
 -0.10977418D-17 -0.19798226D-17 -0.29192473D-17  0.14948328D-15  0.45900660D-16
  0.34907019D-17  0.33173880D-02 -0.12928574D-01  0.30537637D-16  0.25064606D-02
 -0.97682156D-02 -0.14684285D-16  0.24763177D-03 -0.96507423D-03 -0.75137231D-17
 -0.44565839D-16  0.60234757D-16 -0.15668918D-16  0.16444273D-15 -0.24013157D-02
  0.93584435D-02  0.24669362D-17  0.12816687D-16 -0.15283623D-16 -0.75115459D-17
 -0.33895103D-03  0.13209650D-02  0.49562628D-19  0.92731866D-19  0.16022012D-18
  0.25973550D-18  0.39442908D-18  0.54821004D-18  0.65174266D-18  0.58052223D-18
  0.28818862D-18  0.46431804D-19  0.71285187D-21  0.12738593D-21  0.47602134D-23
  0.39046126D-17  0.72932557D-17  0.12657799D-16  0.20538464D-16  0.31791103D-16
  0.45506075D-16  0.59399642D-16  0.63300231D-16  0.47318207D-16  0.24978441D-17
 -0.32096057D-16 -0.19068745D-16  0.71493499D-19 -0.28382265D-17 -0.52971408D-17
 -0.92059646D-17 -0.14920160D-16 -0.23173345D-16 -0.33196485D-16 -0.43832866D-16
 -0.47396330D-16 -0.37159337D-16 -0.18490363D-17  0.31854947D-16  0.32975776D-16
 -0.14922005D-16  0.25152937D-18  0.80748452D-17 -0.53054099D-16 -0.13394269D-03
 -0.17643258D-03 -0.19464647D-03 -0.16167627D-03 -0.85870192D-04 -0.22148427D-04
  0.22767830D-07  0.52200344D-03  0.68759569D-03  0.75857912D-03  0.63008716D-03
  0.33465459D-03  0.86317182D-04 -0.88731129D-07  0.77038604D-15  0.10147713D-14
  0.11195305D-14  0.92989875D-15  0.49389181D-15  0.12738911D-15 -0.13095167D-18
 -0.75579805D+00 -0.99230743D+00 -0.11298150D+01 -0.95668095D+00 -0.54802368D+00
 -0.12465637D+00  0.58346044D-01  0.29455074D+01  0.38672353D+01  0.44031319D+01
  0.37283913D+01  0.21357661D+01  0.48581268D+00 -0.22738707D+00 -0.83907748D-15
 -0.11016472D-14 -0.12543064D-14 -0.10620952D-14 -0.60840899D-15 -0.13839194D-15
  0.64775044D-16  0.92588286D-01 -0.36083645D+00 -0.23945630D-16  0.92603779D-02
 -0.36089683D-01 -0.65127187D-16  0.11360166D-03 -0.44273008D-03  0.47566913D-17
 -0.24709740D-16  0.63209055D-16 -0.38499315D-16  0.15118636D-15  0.48891032D-02
 -0.19053886D-01  0.19316946D-16  0.19530279D-16 -0.38847224D-16 -0.20765003D-16
  0.67430895D-03 -0.26279269D-02 -0.87461450D-18  0.90055991D-17 -0.81309846D-17
 -0.12770407D-17  0.62711082D-04 -0.24439857D-03 -0.49902081D-03  0.19447913D-02
  0.74131210D-17 -0.49902081D-03  0.19447913D-02  0.95615724D-16  0.19960832D-02
 -0.77791653D-02 -0.11785509D-15 -0.93241312D-16 -0.36046227D-04  0.14047989D-03
 -0.19097999D-16 -0.36046227D-04  0.14047989D-03  0.14509003D-16  0.14418491D-03
 -0.56191958D-03  0.42784995D-16  0.11447122D-16
END DATA
RHF
