 Molden2AIM, Version 4.0.0 (06/02/2016)           Time: Sun Jun 24 19:47:18 2018
GAUSSIAN              9 MOL ORBITALS    172 PRIMITIVES        2 NUCLEI
  H    1    (CENTRE  1)   0.00000000  0.00000000  2.41309900  CHARGE =  1.0
  Cl   2    (CENTRE  2)   0.00000000  0.00000000 -0.00445408  CHARGE = 17.0
CENTRE ASSIGNMENTS    1  1  1  1  1  1  1  1  1  1  1  1  1  1  1  1  1  1  1  1
CENTRE ASSIGNMENTS    1  1  1  1  1  1  1  1  1  1  1  1  1  1  1  1  1  1  1  1
CENTRE ASSIGNMENTS    1  2  2  2  2  2  2  2  2  2  2  2  2  2  2  2  2  2  2  2
CENTRE ASSIGNMENTS    2  2  2  2  2  2  2  2  2  2  2  2  2  2  2  2  2  2  2  2
CENTRE ASSIGNMENTS    2  2  2  2  2  2  2  2  2  2  2  2  2  2  2  2  2  2  2  2
CENTRE ASSIGNMENTS    2  2  2  2  2  2  2  2  2  2  2  2  2  2  2  2  2  2  2  2
CENTRE ASSIGNMENTS    2  2  2  2  2  2  2  2  2  2  2  2  2  2  2  2  2  2  2  2
CENTRE ASSIGNMENTS    2  2  2  2  2  2  2  2  2  2  2  2  2  2  2  2  2  2  2  2
CENTRE ASSIGNMENTS    2  2  2  2  2  2  2  2  2  2  2  2
TYPE ASSIGNMENTS      1  1  1  1  1  1  1  2  3  4  2  3  4  2  3  4  2  3  4  5
TYPE ASSIGNMENTS      6  7  8  9 10  5  6  7  8  9 10 11 12 13 17 14 15 18 19 16
TYPE ASSIGNMENTS     20  1  1  1  1  1  1  1  1  1  1  1  1  1  1  1  1  1  1  1
TYPE ASSIGNMENTS      1  1  2  2  2  2  2  2  2  2  3  3  3  3  3  3  3  3  4  4
TYPE ASSIGNMENTS      4  4  4  4  4  4  2  2  3  3  4  4  2  3  4  2  3  4  2  3
TYPE ASSIGNMENTS      4  2  3  4  2  3  4  5  6  7  8  9 10  5  6  7  8  9 10  5
TYPE ASSIGNMENTS      6  7  8  9 10  5  6  7  8  9 10  5  6  7  8  9 10 11 12 13
TYPE ASSIGNMENTS     17 14 15 18 19 16 20 11 12 13 17 14 15 18 19 16 20 21 22 23
TYPE ASSIGNMENTS     24 25 26 27 28 29 30 31 32 33 34 35
EXPONENTS  0.1906917D+03 0.2860553D+02 0.6509594D+01 0.1841246D+01 0.5985373D+00
EXPONENTS  0.2139762D+00 0.8031629D-01 0.2292000D+01 0.2292000D+01 0.2292000D+01
EXPONENTS  0.8380000D+00 0.8380000D+00 0.8380000D+00 0.2920000D+00 0.2920000D+00
EXPONENTS  0.2920000D+00 0.8406320D-01 0.8406320D-01 0.8406320D-01 0.2062000D+01
EXPONENTS  0.2062000D+01 0.2062000D+01 0.2062000D+01 0.2062000D+01 0.2062000D+01
EXPONENTS  0.6620000D+00 0.6620000D+00 0.6620000D+00 0.6620000D+00 0.6620000D+00
EXPONENTS  0.6620000D+00 0.1397000D+01 0.1397000D+01 0.1397000D+01 0.1397000D+01
EXPONENTS  0.1397000D+01 0.1397000D+01 0.1397000D+01 0.1397000D+01 0.1397000D+01
EXPONENTS  0.1397000D+01 0.1467459D+07 0.2197562D+06 0.5001077D+05 0.1416482D+05
EXPONENTS  0.4620747D+04 0.1667899D+04 0.6502920D+03 0.2693804D+03 0.1170675D+03
EXPONENTS  0.5281177D+02 0.4614277D+03 0.1421267D+03 0.5443784D+02 0.2416077D+02
EXPONENTS  0.9708354D+01 0.4564070D+01 0.2119474D+01 0.7572237D+00 0.3374722D+00
EXPONENTS  0.1386078D+00 0.5423457D-01 0.2501946D+04 0.5928806D+03 0.1921809D+03
EXPONENTS  0.7287571D+02 0.3043636D+02 0.1349018D+02 0.6147807D+01 0.2845094D+01
EXPONENTS  0.2501946D+04 0.5928806D+03 0.1921809D+03 0.7287571D+02 0.3043636D+02
EXPONENTS  0.1349018D+02 0.6147807D+01 0.2845094D+01 0.2501946D+04 0.5928806D+03
EXPONENTS  0.1921809D+03 0.7287571D+02 0.3043636D+02 0.1349018D+02 0.6147807D+01
EXPONENTS  0.2845094D+01 0.1053940D+03 0.6736974D+01 0.1053940D+03 0.6736974D+01
EXPONENTS  0.1053940D+03 0.6736974D+01 0.1242110D+01 0.1242110D+01 0.1242110D+01
EXPONENTS  0.5566971D+00 0.5566971D+00 0.5566971D+00 0.2338780D+00 0.2338780D+00
EXPONENTS  0.2338780D+00 0.9316449D-01 0.9316449D-01 0.9316449D-01 0.2725615D-01
EXPONENTS  0.2725615D-01 0.2725615D-01 0.5191000D+01 0.5191000D+01 0.5191000D+01
EXPONENTS  0.5191000D+01 0.5191000D+01 0.5191000D+01 0.1276000D+01 0.1276000D+01
EXPONENTS  0.1276000D+01 0.1276000D+01 0.1276000D+01 0.1276000D+01 0.5830000D+00
EXPONENTS  0.5830000D+00 0.5830000D+00 0.5830000D+00 0.5830000D+00 0.5830000D+00
EXPONENTS  0.2430000D+00 0.2430000D+00 0.2430000D+00 0.2430000D+00 0.2430000D+00
EXPONENTS  0.2430000D+00 0.8345654D-01 0.8345654D-01 0.8345654D-01 0.8345654D-01
EXPONENTS  0.8345654D-01 0.8345654D-01 0.4230000D+00 0.4230000D+00 0.4230000D+00
EXPONENTS  0.4230000D+00 0.4230000D+00 0.4230000D+00 0.4230000D+00 0.4230000D+00
EXPONENTS  0.4230000D+00 0.4230000D+00 0.1089000D+01 0.1089000D+01 0.1089000D+01
EXPONENTS  0.1089000D+01 0.1089000D+01 0.1089000D+01 0.1089000D+01 0.1089000D+01
EXPONENTS  0.1089000D+01 0.1089000D+01 0.8270000D+00 0.8270000D+00 0.8270000D+00
EXPONENTS  0.8270000D+00 0.8270000D+00 0.8270000D+00 0.8270000D+00 0.8270000D+00
EXPONENTS  0.8270000D+00 0.8270000D+00 0.8270000D+00 0.8270000D+00 0.8270000D+00
EXPONENTS  0.8270000D+00 0.8270000D+00
MO    1     MO 0.0        OCC NO =    2.0000000  ORB. ENERGY = -104.849203
 -0.13027096D-05 -0.24245393D-05 -0.40858057D-05 -0.60996046D-05 -0.15670050D-04
 -0.27880758D-04  0.37722703D-04  0.83441914D-16 -0.19114948D-15  0.35748334D-04
  0.38407415D-15 -0.41867794D-15 -0.14762445D-04  0.35295890D-16  0.52651133D-16
  0.18402181D-04 -0.79626764D-17 -0.79799855D-17 -0.61021501D-05 -0.14600961D-04
 -0.14600961D-04  0.29201921D-04 -0.27625413D-15  0.63257557D-16 -0.13758142D-14
 -0.67717200D-05 -0.67717200D-05  0.13543440D-04  0.26203632D-16 -0.17051923D-15
  0.24779279D-15 -0.75278249D-16  0.72352620D-16 -0.50773611D-04  0.87729764D-16
  0.57014461D-15  0.76160417D-04  0.13810498D-15 -0.78720247D-15  0.76160417D-04
  0.59953930D-15  0.34406563D+00  0.64391490D+00  0.11153573D+01  0.18242735D+01
  0.28457349D+01  0.42219302D+01  0.58557043D+01  0.72474876D+01  0.73345036D+01
  0.50625608D+01  0.23575674D-02  0.89198443D-02  0.16827283D-01  0.17075092D+01
  0.12359149D+00 -0.71831066D-02  0.23959691D-02 -0.51652937D-03  0.18222607D-03
 -0.45683461D-04 -0.12649229D-04  0.26961723D-15  0.38761414D-15  0.51417041D-15
  0.60164963D-15  0.59299700D-15  0.44676086D-15  0.23332169D-15  0.67052911D-16
  0.12967548D-15  0.18642744D-15  0.24729613D-15  0.28937026D-15  0.28520868D-15
  0.21487473D-15  0.11221873D-15  0.32249863D-16  0.14746301D-02  0.21199961D-02
  0.28121762D-02  0.32906304D-02  0.32433061D-02  0.24434900D-02  0.12761172D-02
  0.36673562D-03  0.13665459D-14 -0.82003998D-15 -0.43457518D-15  0.26078087D-15
  0.45229585D-02 -0.27141473D-02  0.24899980D-15 -0.21076606D-15 -0.89135708D-04
 -0.16619421D-15  0.10912641D-15 -0.20766129D-04 -0.26275433D-17 -0.16462642D-16
  0.36282623D-04  0.28300811D-17  0.46951369D-17 -0.11717207D-04  0.47505478D-18
  0.49345332D-18 -0.15116704D-06  0.10204679D-05  0.10204679D-05 -0.20409358D-05
 -0.56293681D-16 -0.27815664D-15 -0.31621586D-17  0.54724928D-05  0.54724928D-05
 -0.10944986D-04 -0.89638728D-17  0.13504292D-15 -0.60831360D-16  0.12415981D-05
  0.12415981D-05 -0.24831962D-05  0.59217395D-17 -0.14044244D-15  0.27382815D-16
 -0.43898998D-05 -0.43898998D-05  0.87797995D-05  0.11126701D-17 -0.43689498D-16
  0.44291420D-17  0.34736635D-06  0.34736635D-06 -0.69473270D-06  0.68696308D-19
  0.32415285D-17  0.17044935D-17  0.17901663D-16 -0.10657237D-16  0.58426516D-05
  0.18067015D-16 -0.11425252D-16 -0.87639773D-05 -0.71772005D-16  0.43396963D-16
 -0.87639773D-05  0.45222961D-17  0.49723700D-16 -0.16722926D-16 -0.29073582D-04
  0.51052553D-16 -0.57716886D-17  0.43610372D-04 -0.20022365D-15  0.55940466D-16
  0.43610372D-04  0.15718461D-16  0.47176588D-06  0.47176588D-06  0.12580423D-05
 -0.80718348D-17  0.12627707D-15 -0.80701942D-17 -0.87998902D-16 -0.17141866D-15
  0.91623229D-16  0.94353176D-06 -0.37741270D-05 -0.37741270D-05 -0.10872982D-16
  0.13542477D-15  0.48426087D-16
MO    2     MO 0.0        OCC NO =    2.0000000  ORB. ENERGY =  -10.574386
 -0.21394737D-05 -0.39818835D-05 -0.67102241D-05 -0.10017538D-04 -0.48448583D-03
 -0.28534492D-03  0.32364031D-03  0.15856694D-15  0.94809595D-15 -0.12560711D-03
 -0.22794645D-15 -0.34248542D-15  0.61322278D-03  0.78740001D-16  0.11676852D-15
  0.22981399D-03  0.45710852D-17 -0.25180042D-17 -0.59944155D-04  0.12245307D-03
  0.12245307D-03 -0.24490614D-03  0.44709096D-16 -0.18884887D-16 -0.91604283D-15
  0.71187714D-04  0.71187714D-04 -0.14237543D-03 -0.34609135D-16 -0.11590121D-15
  0.72149677D-17  0.87592338D-16 -0.15818430D-15  0.99412429D-05  0.25634975D-16
  0.11073474D-15 -0.14911864D-04 -0.28841199D-15  0.36381816D-15 -0.14911864D-04
  0.23776244D-15  0.97592259D-01  0.18264280D+00  0.31636475D+00  0.51744479D+00
  0.80717651D+00  0.11975265D+01  0.16609372D+01  0.20557086D+01  0.20803903D+01
  0.14359666D+01  0.14899149D+00  0.56370856D+00  0.10634360D+01  0.11203834D+01
 -0.72989967D+00 -0.12669774D+01 -0.47387272D+00 -0.20439537D-01  0.22964159D-02
 -0.55205374D-03 -0.96410960D-04 -0.16824727D-15 -0.24188001D-15 -0.32085399D-15
 -0.37544302D-15 -0.37004357D-15 -0.27878891D-15 -0.14559803D-15 -0.41842537D-16
 -0.28297420D-15 -0.40681673D-15 -0.53964266D-15 -0.63145565D-15 -0.62237436D-15
 -0.46889361D-15 -0.24488056D-15 -0.70374746D-16 -0.15931590D-01 -0.22903987D-01
 -0.30382154D-01 -0.35551272D-01 -0.35039991D-01 -0.26398947D-01 -0.13786899D-01
 -0.39621337D-02  0.17829091D-16 -0.10698922D-16 -0.41385546D-16  0.24834733D-16
  0.10047467D-01 -0.60293068D-02  0.65356094D-16 -0.93206361D-16 -0.25242301D-02
 -0.53970620D-16  0.44755323D-16  0.52159224D-03 -0.85696453D-18 -0.26233259D-16
  0.26356586D-03 -0.80596700D-17  0.68733872D-17 -0.93072941D-04  0.53159035D-18
 -0.63330753D-18 -0.10167712D-05  0.64972865D-02  0.64972865D-02 -0.12994573D-01
  0.18065560D-15  0.45786893D-15 -0.30129219D-16  0.79474866D-03  0.79474866D-03
 -0.15894973D-02 -0.22236576D-17  0.16963266D-15  0.13318768D-15 -0.26508523D-03
 -0.26508523D-03  0.53017047D-03  0.76636255D-17 -0.76341180D-17 -0.94861896D-16
 -0.23746595D-04 -0.23746595D-04  0.47493191D-04  0.99673556D-18  0.52060597D-17
  0.46033162D-16  0.18299103D-05  0.18299103D-05 -0.36598205D-05 -0.78405647D-19
 -0.55451531D-18 -0.83548408D-17 -0.49299711D-17  0.83526952D-17  0.53752230D-04
 -0.48955022D-17  0.43275006D-17 -0.80628345D-04  0.19685415D-16 -0.29385586D-16
 -0.80628345D-04  0.38466066D-16 -0.19470869D-16  0.17095659D-16 -0.15411792D-04
 -0.15061185D-16  0.31038736D-16  0.23117688D-04  0.73473792D-16 -0.82325714D-16
  0.23117688D-04  0.59735680D-17  0.19490844D-04  0.19490844D-04  0.51975585D-04
 -0.93650135D-17  0.11812928D-16 -0.93989082D-17  0.26883282D-16 -0.17003858D-16
 -0.28080058D-16  0.38981688D-04 -0.15592675D-03 -0.15592675D-03  0.35903284D-17
  0.15572790D-16  0.56291765D-16
MO    3     MO 0.0        OCC NO =    2.0000000  ORB. ENERGY =   -8.041671
 -0.50527597D-04 -0.94039486D-04 -0.15847426D-03 -0.23658255D-03 -0.31957633D-03
 -0.29498308D-05 -0.28402553D-03 -0.12714306D-15 -0.32304025D-15  0.52917211D-03
 -0.10304992D-15  0.21396181D-15  0.19520244D-03  0.53224722D-16 -0.46154169D-16
  0.10044197D-04 -0.18066138D-16 -0.23620869D-16  0.28538748D-04 -0.58632003D-04
 -0.58632003D-04  0.11726401D-03 -0.29795630D-15 -0.20098182D-15  0.55188254D-15
 -0.37231364D-04 -0.37231364D-04  0.74462729D-04  0.75098244D-16  0.26863642D-16
 -0.18066826D-15  0.82698681D-16 -0.14618764D-15 -0.47495556D-03  0.13739681D-16
  0.51041785D-16  0.71243335D-03 -0.26183572D-15  0.38752113D-15  0.71243335D-03
 -0.39074803D-16 -0.38841020D-03 -0.72690526D-03 -0.12591090D-02 -0.20593932D-02
 -0.32125047D-02 -0.47660697D-02 -0.66104113D-02 -0.81815732D-02 -0.82798042D-02
 -0.57150441D-02 -0.63395890D-03 -0.23985803D-02 -0.45249208D-02 -0.46493422D-02
  0.37817244D-02  0.59603751D-02  0.14927515D-02 -0.57788217D-03 -0.83455339D-04
  0.19759716D-03  0.12715771D-03 -0.71393644D-12 -0.10263879D-11 -0.13615042D-11
 -0.15931459D-11 -0.15702341D-11 -0.11830062D-11 -0.61782719D-12 -0.17755363D-12
 -0.13062349D-11 -0.18779034D-11 -0.24910401D-11 -0.29148573D-11 -0.28729372D-11
 -0.21644560D-11 -0.11303912D-11 -0.32485629D-12 -0.61220310D+01 -0.88013136D+01
 -0.11674948D+02 -0.13661285D+02 -0.13464815D+02 -0.10144321D+02 -0.52978907D+01
 -0.15225288D+01 -0.37801218D-14  0.22683842D-14 -0.65878566D-14  0.39532561D-14
 -0.18120280D-01  0.10873659D-01 -0.14724403D-13 -0.26838486D-13 -0.13133410D+00
  0.97851894D-16  0.44472814D-16  0.12639058D-02 -0.67043350D-16 -0.71303194D-16
 -0.46772248D-03  0.13242445D-16  0.12924963D-16  0.14003743D-03  0.45055976D-18
  0.19443951D-17  0.24010108D-06  0.62593618D-02  0.62593618D-02 -0.12518724D-01
 -0.31071522D-16 -0.37181394D-14 -0.61987422D-14  0.52385461D-03  0.52385461D-03
 -0.10477092D-02  0.32116466D-17 -0.27806101D-15 -0.26159360D-15 -0.13983628D-04
 -0.13983628D-04  0.27967256D-04 -0.11118234D-16  0.56862836D-16  0.60638383D-16
 -0.15266889D-04 -0.15266889D-04  0.30533777D-04 -0.13403234D-17 -0.31523821D-16
 -0.61090687D-16 -0.32509101D-05 -0.32509101D-05  0.65018201D-05  0.32422506D-19
  0.38873279D-17  0.56105659D-17 -0.13480360D-17  0.45953103D-17  0.84164333D-04
 -0.17447201D-17  0.58369340D-17 -0.12624650D-03  0.57888281D-17 -0.19622865D-16
 -0.12624650D-03 -0.18192886D-16  0.20721298D-16  0.88067323D-16 -0.98420976D-03
  0.22053734D-16  0.84562292D-16  0.14763146D-02 -0.84217627D-16 -0.34876426D-15
  0.14763146D-02 -0.38913972D-16 -0.68342160D-05 -0.68342160D-05 -0.18224576D-04
 -0.88715756D-18 -0.99184036D-17 -0.91384321D-18  0.39332432D-16  0.10854324D-16
 -0.59065756D-16 -0.13668432D-04  0.54673728D-04  0.54673728D-04  0.59199974D-16
 -0.28077618D-17  0.54030023D-17
MO    4     MO 0.0        OCC NO =    2.0000000  ORB. ENERGY =   -8.039834
 -0.11903039D-18 -0.22153353D-18 -0.37332575D-18 -0.55732936D-18 -0.24516201D-16
 -0.33617595D-15  0.13382208D-15  0.67027577D-04 -0.15426348D-04  0.48064395D-16
  0.63900895D-04 -0.14706745D-04  0.41051379D-16 -0.44962311D-05  0.10348043D-05
  0.13089582D-15  0.11069341D-04 -0.25476007D-05  0.78635565D-17 -0.51591923D-15
  0.40123696D-15  0.11468227D-15  0.18124684D-14 -0.11028502D-03  0.25382017D-04
  0.12888359D-16 -0.56714770D-17 -0.72168825D-17 -0.18802870D-15 -0.14128288D-04
  0.32516152D-05  0.96671214D-04 -0.22248810D-04 -0.47921950D-16  0.96671214D-04
 -0.22248810D-04 -0.11108299D-14 -0.38668486D-03  0.88995239D-04  0.12545957D-14
  0.39435698D-15 -0.18420119D-16 -0.34473043D-16 -0.59712486D-16 -0.97665480D-16
 -0.15235110D-15 -0.22602798D-15 -0.31349476D-15 -0.38800617D-15 -0.39266471D-15
 -0.27103252D-15 -0.40113609D-16 -0.15176964D-15 -0.28631336D-15 -0.11547126D-15
  0.45784568D-16  0.39677077D-15 -0.30463567D-16 -0.27812560D-16  0.41044464D-16
  0.18920399D-15 -0.74560417D-16  0.59773015D+01  0.85932437D+01  0.11398943D+02
  0.13338321D+02  0.13146496D+02  0.99045017D+01  0.51726445D+01  0.14865351D+01
 -0.13756716D+01 -0.19777288D+01 -0.26234585D+01 -0.30698049D+01 -0.30256565D+01
 -0.22795139D+01 -0.11904804D+01 -0.34212496D+00 -0.40200943D-12 -0.57794726D-12
 -0.76664741D-12 -0.89708223D-12 -0.88418082D-12 -0.66613724D-12 -0.34789141D-12
 -0.99978413D-13  0.30266235D-01 -0.18162232D-01 -0.69657520D-02  0.41800245D-02
 -0.10443842D-14  0.62671648D-15  0.12280900D+00 -0.28264403D-01 -0.85263637D-14
 -0.51155512D-03  0.11773404D-03 -0.84000802D-16  0.35538064D-03 -0.81790595D-04
  0.24685836D-15 -0.42163859D-04  0.97039816D-05 -0.34236368D-16  0.12264882D-05
 -0.28227536D-06 -0.23815318D-17  0.17321409D-15  0.42505002D-15 -0.59826410D-15
  0.44572896D-15  0.29831649D-01 -0.68657323D-02  0.25186832D-15 -0.22632356D-15
 -0.25544767D-16 -0.66549229D-16  0.12957052D-02 -0.29820561D-03 -0.10393476D-15
  0.66639325D-16  0.37295431D-16 -0.18422274D-16 -0.20101246D-03  0.46262872D-04
 -0.26026431D-16 -0.39962058D-16  0.65988489D-16  0.14113843D-16  0.61358146D-05
 -0.14121533D-05  0.22142774D-17  0.36597368D-17 -0.58740142D-17  0.79990475D-19
 -0.39566058D-05  0.91060995D-06  0.21068114D-04 -0.48488112D-05  0.25211490D-16
  0.21068114D-04 -0.48488112D-05 -0.42049424D-16 -0.84272457D-04  0.19395245D-04
 -0.33585048D-16  0.10601613D-15 -0.33479524D-03  0.77052882D-04 -0.10122419D-15
 -0.33479524D-03  0.77052882D-04  0.15501993D-15  0.13391810D-02 -0.30821153D-03
  0.14865263D-15 -0.48075709D-16  0.54424197D-17 -0.11872273D-16 -0.44271026D-17
 -0.20664231D-16 -0.45088901D-04 -0.20797842D-16  0.10377178D-04  0.60118535D-04
 -0.13836237D-04  0.60082536D-17 -0.38662772D-16  0.65225387D-16  0.10377178D-04
 -0.45088901D-04  0.12438622D-15
MO    5     MO 0.0        OCC NO =    2.0000000  ORB. ENERGY =   -8.039834
 -0.12220988D-16 -0.22745103D-16 -0.38329786D-16 -0.57221650D-16 -0.55887716D-16
 -0.37934013D-15  0.46011745D-17  0.15426348D-04  0.67027577D-04  0.19519605D-15
  0.14706745D-04  0.63900895D-04  0.24856001D-16 -0.10348043D-05 -0.44962311D-05
  0.25330545D-15  0.25476007D-05  0.11069341D-04  0.36660535D-17  0.41376486D-15
 -0.62698821D-15  0.21322336D-15 -0.14558681D-14 -0.25382017D-04 -0.11028502D-03
  0.77386068D-17  0.76395204D-17 -0.15378127D-16  0.15696835D-15 -0.32516152D-05
 -0.14128288D-04  0.22248810D-04  0.96671214D-04 -0.11019906D-15  0.22248810D-04
  0.96671214D-04  0.55993886D-15 -0.88995239D-04 -0.38668486D-03 -0.22934169D-15
 -0.32762180D-15 -0.90550994D-16 -0.16946515D-15 -0.29353908D-15 -0.48011124D-15
 -0.74893886D-15 -0.11111252D-14 -0.15411009D-14 -0.19073896D-14 -0.19302904D-14
 -0.13323618D-14 -0.15889838D-15 -0.60119121D-15 -0.11341470D-14 -0.95887316D-15
  0.67902385D-15  0.15970476D-14  0.32725995D-15 -0.18639321D-15  0.11855568D-16
  0.23220496D-15 -0.94680436D-17  0.13756716D+01  0.19777288D+01  0.26234585D+01
  0.30698049D+01  0.30256565D+01  0.22795139D+01  0.11904804D+01  0.34212496D+00
  0.59773015D+01  0.85932437D+01  0.11398943D+02  0.13338321D+02  0.13146496D+02
  0.99045017D+01  0.51726445D+01  0.14865351D+01 -0.14296287D-11 -0.20553000D-11
 -0.27263568D-11 -0.31902099D-11 -0.31443299D-11 -0.23689218D-11 -0.12371738D-11
 -0.35554391D-12  0.69657520D-02 -0.41800245D-02  0.30266235D-01 -0.18162232D-01
 -0.41370322D-14  0.24825598D-14  0.28264403D-01  0.12280900D+00 -0.30661562D-13
 -0.11773404D-03 -0.51155512D-03  0.26999928D-15  0.81790595D-04  0.35538064D-03
  0.13784359D-15 -0.97039816D-05 -0.42163859D-04  0.24521804D-16  0.28227536D-06
  0.12264882D-05 -0.23969906D-17  0.15996603D-14  0.10226060D-14 -0.26222663D-14
 -0.37989968D-15  0.68657323D-02  0.29831649D-01  0.35381312D-16  0.31567185D-15
 -0.35105316D-15 -0.15109632D-15  0.29820561D-03  0.12957052D-02  0.39081022D-16
 -0.66300245D-16  0.27219223D-16  0.45370755D-16 -0.46262872D-04 -0.20101246D-03
 -0.29370127D-16 -0.26132935D-16  0.55503063D-16 -0.12996022D-16  0.14121533D-05
  0.61358146D-05  0.67779503D-18  0.18474454D-18 -0.86253957D-18 -0.16613925D-18
 -0.91060995D-06 -0.39566058D-05  0.48488112D-05  0.21068114D-04  0.41067279D-16
  0.48488112D-05  0.21068114D-04 -0.45003766D-16 -0.19395245D-04 -0.84272457D-04
 -0.78198071D-16 -0.38295943D-16 -0.77052882D-04 -0.33479524D-03 -0.27556010D-15
 -0.77052882D-04 -0.33479524D-03  0.35039389D-15  0.30821153D-03  0.13391810D-02
  0.47628642D-15  0.12791141D-15 -0.44917011D-17 -0.12374412D-16 -0.86098851D-17
 -0.57399810D-17 -0.10377178D-04 -0.58632523D-17 -0.45088901D-04  0.13836237D-04
  0.60118535D-04  0.24768685D-16  0.21815214D-17  0.49477789D-16 -0.45088901D-04
 -0.10377178D-04  0.34809700D-16
MO    6     MO 0.0        OCC NO =    2.0000000  ORB. ENERGY =   -1.116029
  0.93901008D-02  0.17476395D-01  0.29451020D-01  0.43966745D-01  0.42250858D-01
  0.12745083D-01 -0.12971122D-02 -0.48132632D-16  0.24456544D-17 -0.17065441D-01
  0.14037868D-16  0.68417252D-16 -0.12717091D-01 -0.40091425D-17 -0.13099193D-16
 -0.26361084D-02  0.34393654D-17  0.89807027D-17  0.37342179D-03 -0.39886123D-02
 -0.39886123D-02  0.79772247D-02  0.12528607D-16 -0.13732388D-15  0.13423889D-16
 -0.42815318D-03 -0.42815318D-03  0.85630635D-03 -0.31698193D-17  0.86098075D-17
 -0.40549008D-16  0.91862591D-17 -0.54672595D-17 -0.48228039D-03  0.16701948D-16
 -0.12319526D-16  0.72342058D-03 -0.44260725D-16  0.28721305D-16  0.72342058D-03
  0.48983146D-16  0.27699214D-01  0.51838762D-01  0.89792518D-01  0.14686425D+00
  0.22909762D+00  0.33988907D+00  0.47141705D+00  0.58346341D+00  0.59046870D+00
  0.40756455D+00  0.47753231D-01  0.18067411D+00  0.34084163D+00  0.34960300D+00
 -0.24798194D+00 -0.58589041D+00 -0.37000780D+00  0.16511897D+00  0.19336995D+00
  0.38069098D-01  0.76417114D-03 -0.42649239D-15 -0.61314508D-15 -0.81333735D-15
 -0.95171584D-15 -0.93802872D-15 -0.70670596D-15 -0.36907850D-15 -0.10606724D-15
  0.20722124D-15  0.29791079D-15  0.39517885D-15  0.46241326D-15  0.45576305D-15
  0.34336951D-15  0.17932537D-15  0.51535235D-16 -0.19250652D+00 -0.27675623D+00
 -0.36711732D+00 -0.42957742D+00 -0.42339945D+00 -0.31898694D+00 -0.16659153D+00
 -0.47875733D-01  0.32917875D-16 -0.19753434D-16  0.12292940D-16 -0.73767757D-17
  0.25289643D-01 -0.15175867D-01 -0.80627707D-17  0.23095692D-16  0.17803470D-01
  0.33484592D-16  0.23012409D-16  0.30634202D-01  0.42355000D-17  0.12160589D-16
  0.58433552D-02  0.22265093D-17 -0.35448234D-17  0.51969330D-03 -0.24076468D-18
  0.29444877D-18  0.14161593D-05 -0.33651064D-01 -0.33651064D-01  0.67302127D-01
  0.97606579D-16 -0.12500831D-15  0.14612958D-15 -0.96430261D-02 -0.96430261D-02
  0.19286052D-01  0.62288378D-16 -0.21209290D-16  0.29736592D-16 -0.48999427D-02
 -0.48999427D-02  0.97998854D-02 -0.90153083D-18 -0.21986010D-16  0.11577643D-16
 -0.37536206D-03 -0.37536206D-03  0.75072413D-03  0.13627289D-17  0.11016011D-16
  0.67467384D-17  0.12416470D-04  0.12416470D-04 -0.24832940D-04  0.37106514D-18
 -0.10983579D-17 -0.89764362D-19 -0.31212444D-17  0.37787787D-17  0.10243053D-02
 -0.30955539D-17  0.42926971D-17 -0.15364579D-02  0.12459287D-16 -0.15629033D-16
 -0.15364579D-02 -0.10184117D-16 -0.57908852D-17 -0.65395197D-17  0.68284438D-02
 -0.73203514D-17 -0.25452102D-17 -0.10242666D-01  0.24693007D-16  0.22163769D-16
 -0.10242666D-01  0.29360263D-16  0.41093347D-03  0.41093347D-03  0.10958226D-02
 -0.12782127D-17 -0.18288522D-16 -0.15024435D-17 -0.26090973D-18  0.22668442D-16
 -0.22847158D-17  0.82186695D-03 -0.32874678D-02 -0.32874678D-02  0.76368767D-17
 -0.13139759D-16  0.83419686D-17
MO    7     MO 0.0        OCC NO =    2.0000000  ORB. ENERGY =   -0.624990
  0.17109281D-01  0.31842955D-01  0.53661381D-01  0.80109833D-01  0.84900989D-01
  0.43560272D-01  0.45575488D-02 -0.81013122D-17 -0.85904335D-18 -0.17191577D-01
 -0.66704275D-17 -0.18198853D-16 -0.16915364D-01  0.48205080D-17 -0.50250418D-17
 -0.44532732D-02  0.52606899D-18  0.94030064D-18 -0.11033208D-03 -0.42819662D-02
 -0.42819662D-02  0.85639325D-02  0.42652002D-16  0.26320194D-16  0.10957070D-15
 -0.63273865D-03 -0.63273865D-03  0.12654773D-02 -0.36536292D-16  0.31628782D-17
 -0.46216379D-17 -0.96612415D-17  0.35611261D-17 -0.97840383D-04  0.16791863D-16
  0.14201536D-16  0.14676057D-03  0.12191861D-16 -0.24884914D-16  0.14676057D-03
  0.10605220D-16 -0.81188087D-02 -0.15194258D-01 -0.26318735D-01 -0.43046808D-01
 -0.67149912D-01 -0.99623563D-01 -0.13817522D+00 -0.17101669D+00 -0.17306998D+00
 -0.11945966D+00 -0.14214270D-01 -0.53779617D-01 -0.10145523D+00 -0.10133208D+00
  0.69733829D-01  0.18370407D+00  0.10853644D+00 -0.53976664D-01 -0.64893864D-01
 -0.26510033D-01 -0.13642560D-02  0.17075042D-15  0.24547866D-15  0.32562760D-15
  0.38102879D-15  0.37554902D-15  0.28293668D-15  0.14776421D-15  0.42465063D-16
  0.27337267D-15  0.39301313D-15  0.52133217D-15  0.61002988D-15  0.60125672D-15
  0.45298369D-15  0.23657157D-15  0.67986876D-16 -0.13908729D+01 -0.19995830D+01
 -0.26524481D+01 -0.31037267D+01 -0.30590904D+01 -0.23047028D+01 -0.12036353D+01
 -0.34590549D+00  0.33488067D-16 -0.20095596D-16 -0.27289938D-16  0.16376209D-16
  0.19785906D+00 -0.11873172D+00  0.34191075D-17 -0.27770043D-16  0.20120461D+00
 -0.25624467D-16 -0.16177441D-16  0.22708885D+00 -0.13237702D-17 -0.12701847D-16
  0.67615284D-01 -0.40865340D-17  0.79167553D-18  0.52640959D-02 -0.14429472D-18
 -0.19474537D-19 -0.78849498D-05 -0.10514664D+00 -0.10514664D+00  0.21029329D+00
 -0.47956862D-16  0.28699674D-16 -0.17476794D-15 -0.33593589D-01 -0.33593589D-01
  0.67187179D-01 -0.26987265D-16  0.13444206D-17 -0.58995138D-16 -0.11474929D-01
 -0.11474929D-01  0.22949857D-01 -0.17939118D-17  0.25554801D-17 -0.20217826D-16
 -0.20321555D-02 -0.20321555D-02  0.40643111D-02 -0.78205299D-18 -0.80346952D-17
 -0.86348896D-17 -0.36645265D-04 -0.36645265D-04  0.73290530D-04 -0.34521847D-18
  0.63095478D-18 -0.13233786D-17  0.13275231D-17  0.10546643D-17  0.18023104D-02
  0.74477326D-18  0.12766428D-17 -0.27034656D-02 -0.47273426D-17 -0.44406358D-17
 -0.27034656D-02 -0.48558199D-17  0.55998089D-17  0.25159257D-17  0.13432393D-01
  0.65801942D-17  0.17078285D-17 -0.20148590D-01 -0.23379621D-16 -0.92556057D-17
 -0.20148590D-01 -0.31939821D-16  0.52318339D-03  0.52318339D-03  0.13951557D-02
  0.41231873D-17  0.90726281D-17  0.44006792D-17  0.50120069D-17 -0.12214384D-16
 -0.38113707D-17  0.10463668D-02 -0.41854671D-02 -0.41854671D-02 -0.36019086D-17
  0.94252689D-17 -0.25571600D-16
MO    8     MO 0.0        OCC NO =    2.0000000  ORB. ENERGY =   -0.476902
  0.33919369D-17  0.63129066D-17  0.10638437D-16  0.15881877D-16 -0.15517397D-16
  0.68127316D-16 -0.29750343D-16 -0.89434602D-02 -0.30830516D-02 -0.27534133D-16
 -0.94882987D-02 -0.32708721D-02  0.17392306D-16 -0.55540362D-02 -0.19146259D-02
 -0.34588948D-17 -0.37878264D-03 -0.13057658D-03  0.20067661D-16  0.16577980D-16
 -0.46340220D-17 -0.11943958D-16 -0.27525421D-17  0.84882542D-02  0.29261299D-02
  0.15819218D-16 -0.30908564D-16  0.15089347D-16  0.39769573D-16  0.50704086D-02
  0.17479064D-02  0.10820045D-02  0.37299609D-03 -0.25030378D-16  0.10820045D-02
  0.37299609D-03 -0.11265228D-16 -0.43280179D-02 -0.14919843D-02  0.86356363D-16
  0.64725062D-16  0.13138674D-17  0.24588878D-17  0.42591628D-17  0.69662680D-17
  0.10866875D-16  0.16122088D-16  0.22360905D-16  0.27675643D-16  0.28007927D-16
  0.19332165D-16  0.37667082D-17  0.14251321D-16  0.26885112D-16  0.76612425D-17
  0.12124001D-17 -0.35644297D-16 -0.28264313D-16  0.37898552D-16 -0.59292447D-16
  0.74652029D-16 -0.24585960D-17  0.16011262D+01  0.23018527D+01  0.30534091D+01
  0.35729059D+01  0.35215220D+01  0.26530964D+01  0.13855845D+01  0.39819477D+00
  0.55195132D+00  0.79351062D+00  0.10525924D+01  0.12316769D+01  0.12139635D+01
  0.91459379D+00  0.47764831D+00  0.13726846D+00  0.34760698D-15  0.49973579D-15
  0.66289985D-15  0.77568340D-15  0.76452789D-15  0.57599134D-15  0.30081255D-15
  0.86448703D-16 -0.23188862D+00  0.13915225D+00 -0.79938252D-01  0.47969530D-01
 -0.40607982D-16  0.24368131D-16 -0.25326812D+00 -0.87308344D-01 -0.19718105D-16
 -0.26148102D+00 -0.90139551D-01 -0.85602794D-16 -0.95410220D-01 -0.32890473D-01
 -0.12716112D-16 -0.12165109D-01 -0.41936409D-02 -0.43078711D-17 -0.55434224D-04
 -0.19109670D-04 -0.37853733D-18  0.75854553D-16 -0.12507812D-15  0.49223563D-16
 -0.24288479D-15 -0.49580398D-01 -0.17091699D-01 -0.81988348D-18  0.23717501D-16
 -0.22897618D-16  0.11327646D-16 -0.14975359D-01 -0.51624097D-02  0.17122408D-16
 -0.15194089D-16 -0.19283192D-17 -0.48517566D-16 -0.52441036D-02 -0.18077837D-02
 -0.11583501D-16  0.10706266D-16  0.87723512D-18  0.15198089D-16 -0.16659922D-02
 -0.57431237D-03  0.27587582D-17 -0.10715441D-17 -0.16872141D-17 -0.26522426D-17
 -0.60896177D-04 -0.20992552D-04  0.68081193D-03  0.23469421D-03  0.33007683D-17
  0.68081193D-03  0.23469421D-03 -0.15764143D-16 -0.27232477D-02 -0.93877684D-03
  0.58618379D-17 -0.49246149D-17  0.22500400D-02  0.77564938D-03 -0.80035974D-17
  0.22500400D-02  0.77564938D-03 -0.28735832D-16 -0.90001599D-02 -0.31025975D-02
  0.52746624D-16 -0.13903219D-16 -0.29666961D-17 -0.91848280D-17 -0.53846009D-18
  0.43017174D-17  0.52793677D-03  0.21987730D-17  0.18199402D-03 -0.70391569D-03
 -0.24265870D-03  0.34839192D-16 -0.17039016D-16  0.20269776D-16  0.18199402D-03
  0.52793677D-03 -0.19501471D-16
MO    9     MO 0.0        OCC NO =    2.0000000  ORB. ENERGY =   -0.476902
  0.78970198D-18  0.14697546D-17  0.24768135D-17  0.36975775D-17  0.24189964D-16
 -0.22106158D-16 -0.19310986D-15  0.30830516D-02 -0.89434602D-02  0.11329205D-16
  0.32708721D-02 -0.94882987D-02 -0.50516447D-16  0.19146259D-02 -0.55540362D-02
  0.11208658D-16  0.13057658D-03 -0.37878264D-03  0.17127735D-16  0.11363728D-15
 -0.12672366D-15  0.13086382D-16  0.81994575D-16 -0.29261299D-02  0.84882542D-02
 -0.14582040D-16  0.17779912D-16 -0.31978713D-17 -0.37243664D-16 -0.17479064D-02
  0.50704086D-02 -0.37299609D-03  0.10820045D-02 -0.75591237D-17 -0.37299609D-03
  0.10820045D-02 -0.18461241D-16  0.14919843D-02 -0.43280179D-02  0.41138612D-16
  0.65636888D-16  0.32318641D-17  0.60483969D-17  0.10476731D-16  0.17135696D-16
  0.26730448D-16  0.39657274D-16  0.55003579D-16  0.68076824D-16  0.68894180D-16
  0.47553453D-16  0.61504744D-17  0.23270289D-16  0.43899391D-16  0.42208540D-16
 -0.27750041D-16 -0.49127191D-16 -0.98594627D-16  0.97154229D-16 -0.51396247D-16
  0.10860772D-15  0.79491297D-16 -0.55195132D+00 -0.79351062D+00 -0.10525924D+01
 -0.12316769D+01 -0.12139635D+01 -0.91459379D+00 -0.47764831D+00 -0.13726846D+00
  0.16011262D+01  0.23018527D+01  0.30534091D+01  0.35729059D+01  0.35215220D+01
  0.26530964D+01  0.13855845D+01  0.39819477D+00  0.13001881D-15  0.18692102D-15
  0.24795086D-15  0.29013638D-15  0.28596378D-15  0.21544362D-15  0.11251583D-15
  0.32335246D-16  0.79938252D-01 -0.47969530D-01 -0.23188862D+00  0.13915225D+00
 -0.42586501D-16  0.25555405D-16  0.87308344D-01 -0.25326812D+00 -0.26331295D-16
  0.90139551D-01 -0.26148102D+00  0.40501459D-16  0.32890473D-01 -0.95410220D-01
 -0.63676557D-16  0.41936409D-02 -0.12165109D-01  0.84443695D-16  0.19109670D-04
 -0.55434224D-04 -0.51547232D-17 -0.22934340D-15  0.20184941D-15  0.27493991D-16
  0.53539335D-15  0.17091699D-01 -0.49580398D-01 -0.19532003D-16 -0.70716822D-16
  0.90248825D-16  0.67205301D-16  0.51624097D-02 -0.14975359D-01 -0.63448873D-16
  0.52583282D-16  0.10865592D-16  0.12311932D-15  0.18077837D-02 -0.52441036D-02
  0.18957889D-16 -0.16893673D-16 -0.20642162D-17 -0.29403931D-16  0.57431237D-03
 -0.16659922D-02 -0.87181687D-17  0.27626332D-18  0.84419054D-17  0.55680808D-17
  0.20992552D-04 -0.60896177D-04 -0.23469421D-03  0.68081193D-03 -0.15425650D-17
 -0.23469421D-03  0.68081193D-03 -0.11032282D-16  0.93877684D-03 -0.27232477D-02
  0.15659976D-16  0.47466177D-17 -0.77564938D-03  0.22500400D-02 -0.23701501D-16
 -0.77564938D-03  0.22500400D-02  0.48519928D-16  0.31025975D-02 -0.90001599D-02