 Molden2AIM, Version 4.0.0 (06/02/2016)           Time: Wed Jun 27 19:36:22 2018
GAUSSIAN              5 MOL ORBITALS    102 PRIMITIVES        2 NUCLEI
  H    1    (CENTRE  1)   0.00000000  0.00000000  1.73657327  CHARGE =  1.0
  F    2    (CENTRE  2)   0.00000000  0.00000000 -0.00407236  CHARGE =  9.0
CENTRE ASSIGNMENTS    1  1  1  1  1  1  1  1  1  1  1  1  1  1  1  1  1  1  1  1
CENTRE ASSIGNMENTS    1  1  1  1  1  1  1  2  2  2  2  2  2  2  2  2  2  2  2  2
CENTRE ASSIGNMENTS    2  2  2  2  2  2  2  2  2  2  2  2  2  2  2  2  2  2  2  2
CENTRE ASSIGNMENTS    2  2  2  2  2  2  2  2  2  2  2  2  2  2  2  2  2  2  2  2
CENTRE ASSIGNMENTS    2  2  2  2  2  2  2  2  2  2  2  2  2  2  2  2  2  2  2  2
CENTRE ASSIGNMENTS    2  2
TYPE ASSIGNMENTS      1  1  1  1  1  1  2  3  4  2  3  4  2  3  4  5  6  7  8  9
TYPE ASSIGNMENTS     10  5  6  7  8  9 10  1  1  1  1  1  1  1  1  1  1  1  1  1
TYPE ASSIGNMENTS      1  1  1  1  1  1  2  2  2  3  3  3  4  4  4  2  3  4  2  3
TYPE ASSIGNMENTS      4  2  3  4  5  6  7  8  9 10  5  6  7  8  9 10  5  6  7  8
TYPE ASSIGNMENTS      9 10 11 12 13 17 14 15 18 19 16 20 11 12 13 17 14 15 18 19
TYPE ASSIGNMENTS     16 20
EXPONENTS  0.3387000D+02 0.5095000D+01 0.1159000D+01 0.3258000D+00 0.1027000D+00
EXPONENTS  0.2526000D-01 0.1407000D+01 0.1407000D+01 0.1407000D+01 0.3880000D+00
EXPONENTS  0.3880000D+00 0.3880000D+00 0.1020000D+00 0.1020000D+00 0.1020000D+00
EXPONENTS  0.1057000D+01 0.1057000D+01 0.1057000D+01 0.1057000D+01 0.1057000D+01
EXPONENTS  0.1057000D+01 0.2470000D+00 0.2470000D+00 0.2470000D+00 0.2470000D+00
EXPONENTS  0.2470000D+00 0.2470000D+00 0.1950000D+05 0.2923000D+04 0.6645000D+03
EXPONENTS  0.1875000D+03 0.6062000D+02 0.2142000D+02 0.7950000D+01 0.8815000D+00
EXPONENTS  0.1950000D+05 0.2923000D+04 0.6645000D+03 0.1875000D+03 0.6062000D+02
EXPONENTS  0.2142000D+02 0.7950000D+01 0.8815000D+00 0.2257000D+01 0.3041000D+00
EXPONENTS  0.9158000D-01 0.4388000D+02 0.9926000D+01 0.2930000D+01 0.4388000D+02
EXPONENTS  0.9926000D+01 0.2930000D+01 0.4388000D+02 0.9926000D+01 0.2930000D+01
EXPONENTS  0.9132000D+00 0.9132000D+00 0.9132000D+00 0.2672000D+00 0.2672000D+00
EXPONENTS  0.2672000D+00 0.7361000D-01 0.7361000D-01 0.7361000D-01 0.3107000D+01
EXPONENTS  0.3107000D+01 0.3107000D+01 0.3107000D+01 0.3107000D+01 0.3107000D+01
EXPONENTS  0.8550000D+00 0.8550000D+00 0.8550000D+00 0.8550000D+00 0.8550000D+00
EXPONENTS  0.8550000D+00 0.2920000D+00 0.2920000D+00 0.2920000D+00 0.2920000D+00
EXPONENTS  0.2920000D+00 0.2920000D+00 0.1917000D+01 0.1917000D+01 0.1917000D+01
EXPONENTS  0.1917000D+01 0.1917000D+01 0.1917000D+01 0.1917000D+01 0.1917000D+01
EXPONENTS  0.1917000D+01 0.1917000D+01 0.7240000D+00 0.7240000D+00 0.7240000D+00
EXPONENTS  0.7240000D+00 0.7240000D+00 0.7240000D+00 0.7240000D+00 0.7240000D+00
EXPONENTS  0.7240000D+00 0.7240000D+00
MO    1     MO 0.0        OCC NO =    2.0000000  ORB. ENERGY =  -26.299509
  0.13988873D-03  0.25229509D-03  0.37200896D-03 -0.75834762D-03 -0.73731885D-04
  0.34403171D-05  0.18423738D-15  0.24225593D-15 -0.12058368D-02  0.11129058D-15
 -0.12916203D-15  0.60298804D-04  0.31865635D-16 -0.62327523D-17 -0.13893606D-05
 -0.13108733D-03 -0.13108733D-03  0.26217466D-03  0.12771841D-15  0.14142157D-15
 -0.14682563D-16 -0.35965128D-04 -0.35965128D-04  0.71930256D-04 -0.43889403D-17
 -0.66231580D-16  0.40534093D-16  0.59561970D+00  0.11102609D+01  0.18821652D+01
  0.28501529D+01  0.35641262D+01  0.30683806D+01  0.11795975D+01 -0.51113892D-02
  0.37986782D-03  0.71332449D-03  0.12146686D-02  0.19027711D-02  0.25499372D-02
  0.27428013D-02  0.16467743D-02 -0.10829880D-02  0.57501727D-01  0.13949388D-02
  0.46094601D-04 -0.49652976D-15 -0.48559526D-15 -0.32085332D-15 -0.11129497D-14
 -0.10884405D-14 -0.71917863D-15  0.86457130D-02  0.84553184D-02  0.55867864D-02
  0.13512759D-15  0.22211052D-15 -0.15930632D-02 -0.14057132D-15  0.49554315D-16
  0.62006360D-03 -0.14432099D-16  0.52664321D-18  0.10845269D-04 -0.66745500D-04
 -0.66745500D-04  0.13349100D-03 -0.45079138D-16  0.14445102D-14 -0.92253549D-15
  0.33889313D-03  0.33889313D-03 -0.67778626D-03 -0.23169255D-15  0.34116768D-16
  0.76177663D-16 -0.96791970D-04 -0.96791970D-04  0.19358394D-03  0.24885502D-16
 -0.84110678D-16  0.52442800D-16 -0.84866137D-15 -0.18549888D-15 -0.70051126D-03
 -0.84928912D-15 -0.18539761D-15  0.10507669D-02  0.33952732D-14  0.74189425D-15
  0.10507669D-02 -0.80720458D-16  0.69930025D-16 -0.10933693D-16  0.33924469D-04
  0.69929900D-16 -0.10923734D-16 -0.50886703D-04 -0.27971997D-15  0.43724812D-16
 -0.50886703D-04  0.25199160D-16
MO    2     MO 0.0        OCC NO =    2.0000000  ORB. ENERGY =   -1.601364
 -0.21711556D-01 -0.39157686D-01 -0.57737985D-01 -0.12418805D-01  0.27880261D-02
  0.23711440D-04  0.31277069D-16 -0.84234735D-18  0.32630832D-01  0.33943291D-16
  0.76621714D-16  0.27463467D-02  0.13714327D-16  0.79711193D-17 -0.52447693D-03
  0.24631070D-02  0.24631070D-02 -0.49262141D-02  0.53431052D-16 -0.56129011D-17
 -0.41460619D-16  0.12237612D-03  0.12237612D-03 -0.24475224D-03 -0.93441889D-17
 -0.39580662D-16 -0.12376959D-16  0.24773782D-02  0.46179404D-02  0.78285442D-02
  0.11854723D-01  0.14824373D-01  0.12762404D-01  0.49063341D-02 -0.21259949D-04
  0.12871194D+00  0.24169823D+00  0.41157040D+00  0.64472259D+00  0.86400412D+00
  0.92935292D+00  0.55798227D+00 -0.36695262D+00 -0.20600634D+00 -0.99497870D-01
 -0.37892960D-02 -0.42043267D-15 -0.41117397D-15 -0.27168003D-15 -0.16559187D-15
 -0.16194523D-15 -0.10700406D-15 -0.22893549D+00 -0.22389391D+00 -0.14793617D+00
 -0.15179835D-15 -0.52647363D-16 -0.61464973D-01 -0.45264552D-16 -0.49555802D-16
 -0.73689128D-02 -0.80264029D-17 -0.24717452D-18 -0.22725180D-03  0.15919463D-01
  0.15919463D-01 -0.31838925D-01  0.19516764D-16 -0.53438327D-16 -0.47859387D-16
  0.50412100D-02  0.50412100D-02 -0.10082420D-01 -0.17846733D-16 -0.51281671D-16
  0.70799689D-16  0.41218496D-03  0.41218496D-03 -0.82436993D-03  0.37447873D-17
 -0.28822239D-16 -0.26254168D-16  0.33377103D-17  0.31769665D-17 -0.97416051D-02
  0.95937712D-17  0.29632120D-17  0.14612408D-01 -0.19606902D-16 -0.12494111D-16
  0.14612408D-01 -0.78989596D-16  0.85974696D-17 -0.24103797D-17 -0.54361942D-03
  0.92052423D-17 -0.29436498D-17  0.81542913D-03 -0.34997651D-16  0.10174789D-16
  0.81542913D-03  0.62384224D-16
MO    3     MO 0.0        OCC NO =    2.0000000  ORB. ENERGY =   -0.767071
 -0.40600193D-01 -0.73224120D-01 -0.10796892D+00 -0.83790529D-01 -0.89665638D-02
 -0.43322453D-04 -0.56704894D-16  0.20195575D-16  0.32164783D-01  0.11649166D-16
 -0.26121370D-16  0.25242985D-01 -0.75923244D-17 -0.55732971D-17  0.66532845D-03
  0.51363657D-02  0.51363657D-02 -0.10272731D-01 -0.61691025D-16  0.15601910D-16
  0.42143627D-16  0.78709967D-03  0.78709967D-03 -0.15741993D-02  0.35518892D-17
  0.19024506D-16  0.58420347D-17  0.15710472D-02  0.29285000D-02  0.49645275D-02
  0.75177578D-02  0.94009825D-02  0.80933703D-02  0.31113870D-02 -0.13482149D-04
 -0.32475955D-01 -0.60984091D-01 -0.10384539D+00 -0.16267319D+00 -0.21800121D+00
 -0.23448970D+00 -0.14078731D+00  0.92587655D-01  0.57834959D-01  0.73442353D-01
  0.67468341D-02 -0.21444917D-14 -0.20972660D-14 -0.13857523D-14 -0.11198337D-14
 -0.10951729D-14 -0.72362704D-15 -0.21811010D+01 -0.21330691D+01 -0.14094090D+01
 -0.45171582D-15 -0.27313391D-15 -0.49783431D+00 -0.80204893D-16 -0.29945693D-16
 -0.53227073D-01  0.47557616D-17  0.19911183D-18 -0.57470893D-03  0.47615194D-01
  0.47615194D-01 -0.95230387D-01  0.18252510D-16 -0.80217310D-17 -0.27204105D-16
  0.11237770D-01  0.11237770D-01 -0.22475540D-01 -0.46286559D-17 -0.13537969D-17
 -0.21471089D-16 -0.15853615D-03 -0.15853615D-03  0.31707229D-03  0.43396386D-17
 -0.20953466D-17  0.60881686D-17 -0.26062322D-16 -0.29613699D-17 -0.21288266D-01
 -0.26481369D-16 -0.39672711D-17  0.31932399D-01  0.10466834D-15  0.12851381D-16
  0.31932399D-01 -0.74476104D-16  0.10168581D-16  0.24760453D-17 -0.15191609D-02
  0.98250293D-17  0.27653663D-17  0.22787414D-02 -0.40330771D-16 -0.10193502D-16
  0.22787414D-02  0.27601082D-17
MO    4     MO 0.0        OCC NO =    2.0000000  ORB. ENERGY =   -0.650122
 -0.77982642D-17 -0.14064491D-16 -0.20738083D-16 -0.17576146D-16 -0.20218962D-15
 -0.59750410D-17 -0.13498437D-01  0.22611052D-01 -0.18429346D-16 -0.45491565D-02
  0.76202315D-02  0.18788168D-17 -0.32868894D-03  0.55058247D-03  0.47277889D-17
 -0.59697900D-16  0.55059954D-16  0.46379457D-17  0.77012692D-16  0.86698028D-02
 -0.14522671D-01 -0.15435949D-16 -0.13250045D-16  0.28685994D-16  0.44253206D-17
  0.12097466D-03 -0.20264304D-03 -0.22456828D-17 -0.41860500D-17 -0.70963839D-17
 -0.10746017D-16 -0.13437931D-16 -0.11568807D-16 -0.44474719D-17  0.19271624D-19
  0.53513499D-17  0.10048887D-16  0.17111522D-16  0.26805098D-16  0.35921985D-16
  0.38638938D-16  0.23198768D-16 -0.15256486D-16 -0.17607247D-16 -0.72653016D-16
  0.20896576D-15 -0.13162545D+01 -0.12872682D+01 -0.85055250D+00  0.22048404D+01
  0.21562858D+01  0.14247492D+01 -0.12074794D-15 -0.11808885D-15 -0.78026296D-16
 -0.30705093D+00  0.51433693D+00 -0.88503953D-16 -0.47263211D-01  0.79169975D-01
  0.61529677D-16 -0.82278168D-03  0.13782306D-02  0.52469892D-16 -0.86627244D-17
 -0.29851115D-16  0.38513839D-16  0.12201881D-15 -0.39818680D-01  0.66699742D-01
 -0.33927232D-16  0.55946065D-16 -0.22018833D-16 -0.12499805D-15 -0.12736603D-01
  0.21334914D-01  0.90457388D-17 -0.18082492D-16  0.90367532D-17  0.61085526D-17
 -0.16272586D-02  0.27257992D-02  0.45691353D-02 -0.76536978D-02 -0.45938885D-16
  0.45691353D-02 -0.76536978D-02  0.76162945D-16 -0.18276541D-01  0.30614791D-01
  0.61653711D-16 -0.47147519D-15  0.51852372D-03 -0.86857218D-03  0.18902829D-16
  0.51852372D-03 -0.86857218D-03  0.13768952D-16 -0.20740949D-02  0.34742887D-02
 -0.70477438D-16  0.28864914D-17
MO    5     MO 0.0        OCC NO =    2.0000000  ORB. ENERGY =   -0.650122
  0.41752866D-16  0.75303014D-16  0.11103425D-15 -0.50606230D-16 -0.13975165D-15
  0.36100235D-17 -0.22611052D-01 -0.13498437D-01  0.26138245D-16 -0.76202315D-02
 -0.45491565D-02  0.15283859D-15 -0.55058247D-03 -0.32868894D-03  0.15756555D-16
  0.77982748D-16  0.22694819D-16 -0.10067757D-15  0.17505810D-16  0.14522671D-01
  0.86698028D-02  0.15321025D-17  0.69167278D-17 -0.84488303D-17  0.13867584D-16
  0.20264304D-03  0.12097466D-03 -0.13764426D-16 -0.25657486D-16 -0.43495747D-16
 -0.65865380D-16 -0.82364889D-16 -0.70908497D-16 -0.27259815D-16  0.11812124D-18
  0.29096201D-16  0.54637512D-16  0.93038261D-16  0.14574388D-15  0.19531395D-15
  0.21008649D-15  0.12613565D-15 -0.82952112D-16 -0.48590558D-16  0.14471172D-15
  0.10506219D-15 -0.22048404D+01 -0.21562858D+01 -0.14247492D+01 -0.13162545D+01
 -0.12872682D+01 -0.85055250D+00  0.15285728D-14  0.14949108D-14  0.98775079D-15
 -0.51433693D+00 -0.30705093D+00  0.47916714D-15 -0.79169975D-01 -0.47263211D-01
  0.15809192D-15 -0.13782306D-02 -0.82278168D-03  0.14049907D-16 -0.14353857D-16
  0.27503503D-16 -0.13149646D-16  0.36026652D-16 -0.66699742D-01 -0.39818680D-01
 -0.72283826D-16 -0.13370509D-16  0.85654335D-16 -0.25474899D-16 -0.21334914D-01
 -0.12736603D-01 -0.59480844D-17 -0.14621992D-16  0.20570077D-16  0.94664546D-18
 -0.27257992D-02 -0.16272586D-02  0.76536978D-02  0.45691353D-02  0.10292138D-15
  0.76536978D-02  0.45691353D-02 -0.27181842D-15 -0.30614791D-01 -0.18276541D-01
 -0.36945704D-16 -0.79075922D-16  0.86857218D-03  0.51852372D-03  0.40145894D-17
  0.86857218D-03  0.51852372D-03  0.24871274D-16 -0.34742887D-02 -0.20740949D-02
 -0.36915042D-16  0.42758216D-17
END DATA
RHF
