 Molden2AIM, Version 4.0.0 (06/02/2016)           Time: Sun Jun 24 19:46:27 2018
GAUSSIAN             10 MOL ORBITALS    186 PRIMITIVES        2 NUCLEI
  Li   1    (CENTRE  1)   0.00000000  0.00000000  3.38620969  CHARGE =  3.0
  Cl   2    (CENTRE  2)   0.00000000  0.00000000 -0.43086701  CHARGE = 17.0
CENTRE ASSIGNMENTS    1  1  1  1  1  1  1  1  1  1  1  1  1  1  1  1  1  1  1  1
CENTRE ASSIGNMENTS    1  1  1  1  1  1  1  1  1  1  1  1  1  1  1  1  1  1  1  1
CENTRE ASSIGNMENTS    1  1  1  1  1  1  1  1  1  1  1  1  1  1  1  2  2  2  2  2
CENTRE ASSIGNMENTS    2  2  2  2  2  2  2  2  2  2  2  2  2  2  2  2  2  2  2  2
CENTRE ASSIGNMENTS    2  2  2  2  2  2  2  2  2  2  2  2  2  2  2  2  2  2  2  2
CENTRE ASSIGNMENTS    2  2  2  2  2  2  2  2  2  2  2  2  2  2  2  2  2  2  2  2
CENTRE ASSIGNMENTS    2  2  2  2  2  2  2  2  2  2  2  2  2  2  2  2  2  2  2  2
CENTRE ASSIGNMENTS    2  2  2  2  2  2  2  2  2  2  2  2  2  2  2  2  2  2  2  2
CENTRE ASSIGNMENTS    2  2  2  2  2  2  2  2  2  2  2  2  2  2  2  2  2  2  2  2
CENTRE ASSIGNMENTS    2  2  2  2  2  2
TYPE ASSIGNMENTS      1  1  1  1  1  1  1  1  1  1  1  1  1  1  1  2  2  2  3  3
TYPE ASSIGNMENTS      3  4  4  4  2  3  4  2  3  4  2  3  4  5  6  7  8  9 10  5
TYPE ASSIGNMENTS      6  7  8  9 10 11 12 13 17 14 15 18 19 16 20  1  1  1  1  1
TYPE ASSIGNMENTS      1  1  1  1  1  1  1  1  1  1  1  1  1  1  1  1  2  2  2  2
TYPE ASSIGNMENTS      2  2  2  2  3  3  3  3  3  3  3  3  4  4  4  4  4  4  4  4
TYPE ASSIGNMENTS      2  2  3  3  4  4  2  3  4  2  3  4  2  3  4  2  3  4  2  3
TYPE ASSIGNMENTS      4  5  6  7  8  9 10  5  6  7  8  9 10  5  6  7  8  9 10  5
TYPE ASSIGNMENTS      6  7  8  9 10  5  6  7  8  9 10 11 12 13 17 14 15 18 19 16
TYPE ASSIGNMENTS     20 11 12 13 17 14 15 18 19 16 20 21 22 23 24 25 26 27 28 29
TYPE ASSIGNMENTS     30 31 32 33 34 35
EXPONENTS  0.1485398D+05 0.2225224D+04 0.5048874D+03 0.1424585D+03 0.4631560D+02
EXPONENTS  0.1665534D+02 0.6433119D+01 0.2602704D+01 0.1089725D+01 0.4423660D+01
EXPONENTS  0.1235639D+01 0.4606747D+00 0.9661717D-01 0.4591545D-01 0.2114005D-01
EXPONENTS  0.3260511D+01 0.6500304D+00 0.1694167D+00 0.3260511D+01 0.6500304D+00
EXPONENTS  0.1694167D+00 0.3260511D+01 0.6500304D+00 0.1694167D+00 0.5573234D-01
EXPONENTS  0.5573234D-01 0.5573234D-01 0.2048996D-01 0.2048996D-01 0.2048996D-01
EXPONENTS  0.3327000D+01 0.3327000D+01 0.3327000D+01 0.2300000D+00 0.2300000D+00
EXPONENTS  0.2300000D+00 0.2300000D+00 0.2300000D+00 0.2300000D+00 0.7570000D-01
EXPONENTS  0.7570000D-01 0.7570000D-01 0.7570000D-01 0.7570000D-01 0.7570000D-01
EXPONENTS  0.1350000D+00 0.1350000D+00 0.1350000D+00 0.1350000D+00 0.1350000D+00
EXPONENTS  0.1350000D+00 0.1350000D+00 0.1350000D+00 0.1350000D+00 0.1350000D+00
EXPONENTS  0.1467459D+07 0.2197562D+06 0.5001077D+05 0.1416482D+05 0.4620747D+04
EXPONENTS  0.1667899D+04 0.6502920D+03 0.2693804D+03 0.1170675D+03 0.5281177D+02
EXPONENTS  0.4614277D+03 0.1421267D+03 0.5443784D+02 0.2416077D+02 0.9708354D+01
EXPONENTS  0.4564070D+01 0.2119474D+01 0.7572237D+00 0.3374722D+00 0.1386078D+00
EXPONENTS  0.5423457D-01 0.2501946D+04 0.5928806D+03 0.1921809D+03 0.7287571D+02
EXPONENTS  0.3043636D+02 0.1349018D+02 0.6147807D+01 0.2845094D+01 0.2501946D+04
EXPONENTS  0.5928806D+03 0.1921809D+03 0.7287571D+02 0.3043636D+02 0.1349018D+02
EXPONENTS  0.6147807D+01 0.2845094D+01 0.2501946D+04 0.5928806D+03 0.1921809D+03
EXPONENTS  0.7287571D+02 0.3043636D+02 0.1349018D+02 0.6147807D+01 0.2845094D+01
EXPONENTS  0.1053940D+03 0.6736974D+01 0.1053940D+03 0.6736974D+01 0.1053940D+03
EXPONENTS  0.6736974D+01 0.1242110D+01 0.1242110D+01 0.1242110D+01 0.5566971D+00
EXPONENTS  0.5566971D+00 0.5566971D+00 0.2338780D+00 0.2338780D+00 0.2338780D+00
EXPONENTS  0.9316449D-01 0.9316449D-01 0.9316449D-01 0.2725615D-01 0.2725615D-01
EXPONENTS  0.2725615D-01 0.5191000D+01 0.5191000D+01 0.5191000D+01 0.5191000D+01
EXPONENTS  0.5191000D+01 0.5191000D+01 0.1276000D+01 0.1276000D+01 0.1276000D+01
EXPONENTS  0.1276000D+01 0.1276000D+01 0.1276000D+01 0.5830000D+00 0.5830000D+00
EXPONENTS  0.5830000D+00 0.5830000D+00 0.5830000D+00 0.5830000D+00 0.2430000D+00
EXPONENTS  0.2430000D+00 0.2430000D+00 0.2430000D+00 0.2430000D+00 0.2430000D+00
EXPONENTS  0.8345654D-01 0.8345654D-01 0.8345654D-01 0.8345654D-01 0.8345654D-01
EXPONENTS  0.8345654D-01 0.4230000D+00 0.4230000D+00 0.4230000D+00 0.4230000D+00
EXPONENTS  0.4230000D+00 0.4230000D+00 0.4230000D+00 0.4230000D+00 0.4230000D+00
EXPONENTS  0.4230000D+00 0.1089000D+01 0.1089000D+01 0.1089000D+01 0.1089000D+01
EXPONENTS  0.1089000D+01 0.1089000D+01 0.1089000D+01 0.1089000D+01 0.1089000D+01
EXPONENTS  0.1089000D+01 0.8270000D+00 0.8270000D+00 0.8270000D+00 0.8270000D+00
EXPONENTS  0.8270000D+00 0.8270000D+00 0.8270000D+00 0.8270000D+00 0.8270000D+00
EXPONENTS  0.8270000D+00 0.8270000D+00 0.8270000D+00 0.8270000D+00 0.8270000D+00
EXPONENTS  0.8270000D+00
MO    1     MO 0.0        OCC NO =    2.0000000  ORB. ENERGY = -104.728922
 -0.99312301D-07 -0.18608325D-06 -0.32245456D-06 -0.52360141D-06 -0.79463886D-06
 -0.10923748D-05 -0.12757818D-05 -0.11563822D-05 -0.68197995D-06  0.13497180D-05
  0.37299539D-05  0.87516188D-06  0.42339576D-05  0.37589868D-05 -0.71898245D-06
  0.30633003D-16  0.22461846D-16  0.18449334D-16  0.21164659D-17  0.15519123D-17
  0.12746836D-17 -0.49619949D-06 -0.36384147D-06 -0.29884599D-06  0.31125562D-17
  0.92986726D-17 -0.16904581D-05 -0.84971538D-18  0.13038735D-17  0.14650859D-06
  0.25968446D-15 -0.18648100D-15 -0.45453383D-05  0.96390635D-06  0.96390635D-06
 -0.19278127D-05 -0.67136807D-17 -0.29634335D-16 -0.22093956D-16 -0.88147241D-07
 -0.88147241D-07  0.17629448D-06 -0.14864629D-17  0.11402432D-17 -0.63124026D-17
 -0.22079973D-17 -0.18177532D-17  0.20687729D-06  0.18568564D-17  0.38255713D-17
 -0.31031594D-06  0.47671356D-17  0.16276881D-17 -0.31031594D-06  0.28064881D-18
  0.34406547D+00  0.64391461D+00  0.11153568D+01  0.18242726D+01  0.28457336D+01
  0.42219283D+01  0.58557017D+01  0.72474843D+01  0.73345003D+01  0.50625585D+01
  0.23489165D-02  0.88871135D-02  0.16765536D-01  0.17075903D+01  0.12350400D+00
 -0.70628819D-02  0.23017462D-02 -0.45724931D-03  0.15369012D-03 -0.39273184D-04
  0.23235201D-07  0.26403998D-15  0.37959603D-15  0.50353438D-15  0.58920403D-15
  0.58073038D-15  0.43751925D-15  0.22849524D-15  0.65665869D-16  0.64902388D-16
  0.93306660D-16  0.12377135D-15  0.14482939D-15  0.14274652D-15  0.10754449D-15
  0.56165308D-16  0.16141009D-16  0.53357625D-03  0.76709377D-03  0.10175504D-02
  0.11906730D-02  0.11735493D-02  0.88414594D-03  0.46174687D-03  0.13269864D-03
  0.29370938D-15 -0.17624980D-15 -0.14279776D-15  0.85690406D-16  0.16596202D-02
 -0.99590872D-03  0.48955710D-17 -0.28372109D-16 -0.37691013D-04 -0.33666371D-16
 -0.51809923D-16  0.46503330D-05  0.18827877D-16 -0.79231804D-17  0.57117584D-05
 -0.20914501D-16 -0.22158276D-16 -0.47580694D-05  0.24240869D-17 -0.20262209D-17
 -0.20558483D-07 -0.97758192D-05 -0.97758192D-05  0.19551638D-04  0.21236060D-16
 -0.85070780D-16 -0.12613269D-15  0.45150113D-05  0.45150113D-05 -0.90300227D-05
  0.19720516D-16 -0.54524515D-16 -0.45356356D-16 -0.25446629D-05 -0.25446629D-05
  0.50893257D-05 -0.11042488D-16  0.58760201D-17 -0.15845459D-16  0.33852888D-06
  0.33852888D-06 -0.67705776D-06  0.95613037D-17 -0.23665131D-16 -0.13385487D-16
  0.13329648D-06  0.13329648D-06 -0.26659296D-06 -0.31345324D-17 -0.17212614D-17
 -0.65215263D-17 -0.11988670D-17 -0.12022835D-18 -0.16290769D-06 -0.49249619D-18
 -0.17528358D-17  0.24436153D-06  0.40890972D-17  0.21135209D-17  0.24436153D-06
  0.52843815D-18 -0.48592866D-17  0.52499523D-17  0.10560519D-05 -0.44684184D-17
  0.46308936D-17 -0.15840778D-05  0.19046278D-16 -0.20380751D-16 -0.15840778D-05
  0.14437649D-17  0.45059108D-07  0.45059108D-07  0.12015762D-06  0.12116081D-18
  0.68754058D-18  0.12374880D-18  0.10240001D-17 -0.94160232D-18 -0.13376296D-17
  0.90118215D-07 -0.36047286D-06 -0.36047286D-06  0.94088864D-18  0.76218520D-18
 -0.73472884D-18
MO    2     MO 0.0        OCC NO =    2.0000000  ORB. ENERGY =  -10.455028
  0.50213361D-06  0.94085681D-06  0.16303647D-05  0.26473847D-05  0.40177790D-05
  0.55231636D-05  0.64504893D-05  0.58467918D-05  0.34481635D-05  0.10931475D-04
  0.30209198D-04  0.12482836D-04  0.23285887D-04  0.23597419D-04 -0.69105548D-05
 -0.13811559D-16 -0.10127414D-16 -0.83182852D-17  0.56254132D-16  0.41248704D-16
  0.33880167D-16  0.96074051D-05  0.70446916D-05  0.57862503D-05  0.20887408D-16
 -0.23642309D-16 -0.11034998D-04 -0.55213246D-17  0.23198081D-17  0.13055216D-05
 -0.20007554D-15 -0.48647206D-16 -0.37507334D-04  0.89462785D-05  0.89462785D-05
 -0.17892557D-04  0.83931725D-17 -0.17351504D-16  0.91633486D-17 -0.54286769D-06
 -0.54286769D-06  0.10857354D-05 -0.70174487D-18 -0.15698281D-17  0.37882496D-17
 -0.16640403D-18 -0.10911573D-18  0.17431049D-05 -0.29363202D-18  0.13867766D-18
 -0.26146573D-05  0.79284411D-18  0.18866953D-18 -0.26146573D-05 -0.25330543D-17
  0.97589652D-01  0.18263792D+00  0.31635629D+00  0.51743097D+00  0.80715494D+00
  0.11974945D+01  0.16608929D+01  0.20556537D+01  0.20803347D+01  0.14359282D+01
  0.14897201D+00  0.56363485D+00  0.10632969D+01  0.11204743D+01 -0.72998159D+00
 -0.12665420D+01 -0.47435073D+00 -0.19849537D-01  0.17405394D-02 -0.45411611D-03
  0.20662613D-04 -0.34163948D-15 -0.49115664D-15 -0.65151960D-15 -0.76236696D-15
 -0.75140296D-15 -0.56610309D-15 -0.29564839D-15 -0.84964606D-16  0.24966368D-15
  0.35892800D-15  0.47611823D-15  0.55712338D-15  0.54911110D-15  0.41369745D-15
  0.21605426D-15  0.62090530D-16 -0.44237263D-02 -0.63597526D-02 -0.84362160D-02
 -0.98715254D-02 -0.97295579D-02 -0.73301983D-02 -0.38282097D-02 -0.11001661D-02
 -0.12724277D-16  0.76356132D-17  0.23096553D-16 -0.13859833D-16  0.33894497D-02
 -0.20339488D-02  0.31834403D-17  0.19554951D-18 -0.60833561D-03  0.43307138D-17
 -0.15633902D-16  0.26866369D-04  0.52977341D-17 -0.87363050D-17  0.31019462D-04
 -0.75069494D-17  0.11341183D-16 -0.32980117D-04  0.98390290D-19 -0.65768443D-19
  0.15568688D-06  0.97327380D-04  0.97327380D-04 -0.19465476D-03 -0.61746150D-16
 -0.22195390D-16 -0.39718421D-16  0.66896652D-04  0.66896652D-04 -0.13379330D-03
  0.57800567D-17 -0.12986517D-16 -0.28907656D-16 -0.85289303D-05 -0.85289303D-05
  0.17057861D-04 -0.88171796D-18  0.79976844D-17  0.17691894D-17  0.16998012D-05
  0.16998012D-05 -0.33996023D-05  0.18240113D-17 -0.90240615D-17 -0.14557580D-16
  0.98108688D-06  0.98108688D-06 -0.19621738D-05 -0.25015676D-18 -0.37138289D-17
  0.46501969D-17  0.20898020D-17 -0.98087260D-18 -0.13170181D-05  0.19970310D-17
 -0.36053552D-18  0.19755271D-05 -0.82664369D-17  0.33031533D-17  0.19755271D-05
  0.69685145D-18  0.22329649D-17  0.68085252D-17 -0.30711137D-04  0.32432432D-17
  0.79968654D-17  0.46066706D-04 -0.99421379D-17 -0.28422441D-16  0.46066706D-04
 -0.82216958D-18 -0.96559978D-06 -0.96559978D-06 -0.25749327D-05  0.35400729D-19
 -0.13947884D-19 -0.72601114D-19 -0.33119414D-17  0.21523107D-18  0.42772999D-17
 -0.19311996D-05  0.77247982D-05  0.77247982D-05 -0.28960754D-17 -0.60384955D-18
  0.11160115D-18
MO    3     MO 0.0        OCC NO =    2.0000000  ORB. ENERGY =   -7.921544
  0.10560789D-05  0.19787940D-05  0.34289554D-05  0.55679344D-05  0.84501244D-05
  0.11616223D-04  0.13566559D-04  0.12296873D-04  0.72521188D-05 -0.95437309D-05
 -0.26374158D-04  0.24447644D-04  0.70047337D-05 -0.14482633D-03  0.55176341D-05
  0.68699202D-16  0.50374132D-16  0.41375457D-16 -0.11295069D-16 -0.82821823D-17
 -0.68026796D-17 -0.10548317D-03 -0.77346210D-04 -0.63529328D-04 -0.14977060D-15
  0.21743848D-16  0.36484794D-04  0.12104292D-16 -0.27689657D-17 -0.73315421D-06
 -0.65107130D-17  0.12396844D-16  0.18736554D-03 -0.18071484D-04 -0.18071484D-04
  0.36142967D-04  0.25363714D-17 -0.21134482D-15  0.10161934D-16  0.37547970D-06
  0.37547970D-06 -0.75095939D-06 -0.12156559D-18  0.68001852D-16 -0.26443319D-17
 -0.25812776D-17 -0.13401816D-18 -0.17404136D-05 -0.27292416D-17 -0.21570594D-17
  0.26106205D-05  0.10473074D-16  0.25591139D-17  0.26106205D-05  0.88888544D-18
 -0.11503902D-03 -0.21529421D-03 -0.37292189D-03 -0.60994941D-03 -0.95147704D-03
 -0.14116107D-02 -0.19578663D-02 -0.24232117D-02 -0.24523057D-02 -0.16926771D-02
 -0.19277958D-03 -0.72938055D-03 -0.13759761D-02 -0.13298747D-02  0.10442320D-02
  0.19217435D-02  0.36876445D-03 -0.15037684D-03  0.56715721D-04 -0.20496183D-03
  0.20158192D-03 -0.68787972D-10 -0.98892754D-10 -0.13118130D-09 -0.15350005D-09
 -0.15129248D-09 -0.11398297D-09 -0.59527819D-10 -0.17107341D-10  0.51538898D-11
  0.74094692D-11  0.98286657D-11  0.11500882D-10  0.11335482D-10  0.85400930D-11
  0.44600795D-11  0.12817553D-11 -0.61292390D+01 -0.88116760D+01 -0.11688694D+02
 -0.13677369D+02 -0.13480668D+02 -0.10156265D+02 -0.53041284D+01 -0.15243214D+01
 -0.29550514D-12  0.17732740D-12  0.21953996D-13 -0.13174204D-13 -0.26271976D-01
  0.15765347D-01 -0.14336826D-11  0.10738319D-12 -0.12818314D+00  0.10351118D-13
 -0.78407312D-15  0.11461408D-02 -0.54588226D-14  0.39354347D-15 -0.70855277D-03
  0.75183457D-15 -0.57232806D-16  0.12730081D-03 -0.20913353D-16  0.33004187D-17
  0.45853024D-05  0.23606581D-02  0.23606581D-02 -0.47213163D-02 -0.82861961D-17
 -0.86515353D-13  0.64685130D-14  0.12991513D-03  0.12991513D-03 -0.25983026D-03
 -0.70238889D-18 -0.31715251D-14  0.23509009D-15 -0.23582208D-04 -0.23582208D-04
  0.47164417D-04 -0.96653976D-18  0.72911064D-15 -0.26652388D-16  0.27824027D-04
  0.27824027D-04 -0.55648053D-04  0.43584460D-18 -0.35358727D-15  0.16321440D-16
 -0.40212418D-05 -0.40212418D-05  0.80424837D-05  0.20484705D-18  0.84443096D-16
 -0.30855750D-17  0.45107203D-16 -0.26078731D-17 -0.23308843D-04  0.45159306D-16
 -0.30136877D-17  0.34963265D-04 -0.18048092D-15  0.10837307D-16  0.34963265D-04
  0.22968437D-18  0.33354340D-15 -0.34960621D-16 -0.49200837D-04  0.33329107D-15
 -0.35016840D-16  0.73801256D-04 -0.13339213D-14  0.13989870D-15  0.73801256D-04
  0.17758360D-17 -0.96540808D-05 -0.96540808D-05 -0.25744215D-04  0.12103438D-19
  0.33037605D-15  0.13453065D-19 -0.21252289D-16 -0.44051582D-15  0.28300799D-16
 -0.19308162D-04  0.77232646D-04  0.77232646D-04 -0.21145531D-16  0.33041931D-15
 -0.76669509D-19
MO    4     MO 0.0        OCC NO =    2.0000000  ORB. ENERGY =   -7.921276
  0.80117740D-17  0.15011805D-16  0.26013223D-16  0.42240247D-16  0.64105522D-16
  0.88124628D-16  0.10292054D-15  0.93288267D-16  0.55017044D-16 -0.38727671D-16
 -0.10702415D-15  0.82392996D-16  0.21804660D-18 -0.44990915D-15  0.25286054D-16
 -0.17815462D-05 -0.13063302D-05 -0.10729715D-05  0.75968368D-05  0.55704295D-05
  0.45753456D-05 -0.35839654D-15 -0.26279657D-15 -0.21585143D-15  0.28685027D-05
 -0.12231817D-04  0.86218352D-16 -0.25301930D-06  0.10789203D-05 -0.27938373D-17
  0.22766095D-05 -0.97078769D-05  0.75801499D-15 -0.66501809D-16 -0.63483581D-16
  0.12998539D-15 -0.83357676D-18  0.42237801D-05 -0.18010966D-04 -0.35967438D-17
 -0.28029335D-17  0.63996773D-17 -0.56842830D-18 -0.13179854D-05  0.56201295D-05
  0.62579230D-07 -0.26684921D-06 -0.12144194D-16  0.62579230D-07 -0.26684921D-06
  0.14986457D-16 -0.25031692D-06  0.10673968D-05  0.21446124D-16  0.19557126D-17
 -0.37926668D-15 -0.70979326D-15 -0.12294685D-14 -0.20109133D-14 -0.31368795D-14
 -0.46538722D-14 -0.64547963D-14 -0.79889716D-14 -0.80848902D-14 -0.55805069D-14
 -0.62936387D-15 -0.23811950D-14 -0.44921234D-14 -0.44072830D-14  0.34146954D-14
  0.63570460D-14  0.10635362D-14 -0.43212130D-15  0.27227589D-15 -0.86094653D-15
  0.65985076D-15  0.13995660D+01  0.20120806D+01  0.26690262D+01  0.31231253D+01
  0.30782100D+01  0.23191074D+01  0.12111582D+01  0.34806744D+00 -0.59680040D+01
 -0.85798772D+01 -0.11381213D+02 -0.13317574D+02 -0.13126047D+02 -0.98890956D+01
 -0.51645986D+01 -0.14842228D+01 -0.20721428D-10 -0.29790079D-10 -0.39516559D-10
 -0.46239774D-10 -0.45574776D-10 -0.34335799D-10 -0.17931935D-10 -0.51533505D-11
  0.60229888D-02 -0.36142889D-02 -0.25683119D-01  0.15411985D-01 -0.88166150D-13
  0.52906945D-13  0.29169235D-01 -0.12438292D+00 -0.43314909D-12 -0.21093332D-03
  0.89945800D-03  0.40585524D-14  0.11067902D-03 -0.47195545D-03 -0.24059589D-14
 -0.14901044D-04  0.63540760D-04  0.44430843D-15  0.43370048D-06 -0.18493777D-05
  0.19273778D-16  0.70159363D-14  0.87444746D-14 -0.15760411D-13  0.35977218D-15
  0.17608243D-02 -0.75084749D-02  0.42289768D-15  0.50024810D-15 -0.92314578D-15
 -0.49760793D-16  0.64356968D-04 -0.27442981D-03 -0.52102530D-16 -0.15469379D-15
  0.20679632D-15  0.40284531D-17 -0.15033552D-04  0.64105798D-04  0.98746840D-16
  0.10705744D-15 -0.20580428D-15 -0.43488256D-17  0.72040397D-05 -0.30719335D-04
 -0.16544521D-16 -0.16866157D-16  0.33410678D-16  0.63697331D-18 -0.16432766D-05
  0.70072299D-05 -0.93225059D-06  0.39752860D-05 -0.91896420D-16 -0.93225059D-06
  0.39752860D-05  0.13061965D-15  0.37290024D-05 -0.15901144D-04  0.14506961D-15
  0.23623398D-18 -0.66276458D-05  0.28261486D-04 -0.13473051D-15 -0.66276458D-05
  0.28261486D-04  0.28124675D-15  0.26510583D-04 -0.11304594D-03  0.12294477D-15
 -0.45651573D-17 -0.37646882D-16 -0.51666262D-16 -0.93638417D-16 -0.34965123D-19
 -0.67682567D-05 -0.11084730D-18  0.28861077D-04  0.90243422D-05 -0.38481436D-04
 -0.12975820D-16  0.23885711D-15  0.32297339D-15  0.28861077D-04 -0.67682567D-05
  0.43743728D-18
MO    5     MO 0.0        OCC NO =    2.0000000  ORB. ENERGY =   -7.921276
 -0.10199196D-16 -0.19110418D-16 -0.33115509D-16 -0.53772931D-16 -0.81607994D-16
 -0.11218494D-15 -0.13102052D-15 -0.11875839D-15 -0.70038125D-16  0.98621582D-16
  0.27254134D-15 -0.26110666D-15 -0.66445036D-16  0.15480699D-14 -0.62222468D-16
  0.75968368D-05  0.55704295D-05  0.45753456D-05  0.17815462D-05  0.13063302D-05
  0.10729715D-05  0.11240543D-14  0.82422004D-15  0.67698399D-15 -0.12231817D-04
 -0.28685027D-05 -0.38117258D-15  0.10789203D-05  0.25301930D-06  0.77891408D-17
 -0.97078769D-05 -0.22766095D-05 -0.20861232D-14  0.19474179D-15  0.19493807D-15
 -0.38967985D-15 -0.28189571D-17 -0.18010966D-04 -0.42237801D-05 -0.24525680D-17
 -0.36742666D-17  0.61268346D-17  0.15287579D-17  0.56201295D-05  0.13179854D-05
 -0.26684921D-06 -0.62579230D-07  0.21355136D-16 -0.26684921D-06 -0.62579230D-07
 -0.32642915D-16  0.10673968D-05  0.25031692D-06 -0.31422491D-16 -0.31331166D-17
  0.12362216D-14  0.23135747D-14  0.40074586D-14  0.65545817D-14  0.10224674D-13
  0.15169319D-13  0.21039440D-13  0.26040093D-13  0.26352740D-13  0.18189690D-13
  0.20676493D-14  0.78229408D-14  0.14757975D-13  0.14304537D-13 -0.11181144D-13
 -0.20727549D-13 -0.39406146D-14  0.15994057D-14 -0.57053103D-15  0.22566613D-14
 -0.21619846D-14 -0.59680040D+01 -0.85798772D+01 -0.11381213D+02 -0.13317574D+02
 -0.13126047D+02 -0.98890956D+01 -0.51645986D+01 -0.14842228D+01 -0.13995660D+01
 -0.20120806D+01 -0.26690262D+01 -0.31231253D+01 -0.30782100D+01 -0.23191074D+01
 -0.12111582D+01 -0.34806744D+00  0.65784949D-10  0.94575470D-10  0.12545442D-09
  0.14679882D-09  0.14468763D-09  0.10900691D-09  0.56929059D-10  0.16360499D-10
 -0.25683119D-01  0.15411985D-01 -0.60229888D-02  0.36142889D-02  0.28176253D-12
 -0.16908071D-12 -0.12438292D+00 -0.29169235D-01  0.13758190D-11  0.89945800D-03
  0.21093332D-03 -0.12221063D-13 -0.47195545D-03 -0.11067902D-03  0.76428501D-14
  0.63540760D-04  0.14901044D-04 -0.13653386D-14 -0.18493777D-05 -0.43370048D-06
 -0.50133877D-16 -0.25114605D-13 -0.25544260D-13  0.50658865D-13  0.55362641D-15
 -0.75084749D-02 -0.17608243D-02 -0.17602142D-14 -0.10509258D-14  0.28111401D-14
 -0.70779299D-16 -0.27442981D-03 -0.64356968D-04  0.40566152D-15  0.12653430D-15
 -0.53219582D-15  0.12682975D-16  0.64105798D-04  0.15033552D-04 -0.32394962D-15
 -0.28349953D-15  0.60744915D-15 -0.17648345D-17 -0.30719335D-04 -0.72040397D-05
  0.44291873D-16  0.43491590D-16 -0.87783463D-16  0.27693110D-19  0.70072299D-05
  0.16432766D-05  0.39752860D-05  0.93225059D-06  0.25850974D-15  0.39752860D-05
  0.93225059D-06 -0.39651180D-15 -0.15901144D-04 -0.37290024D-05 -0.37901742D-15
 -0.49444354D-18  0.28261486D-04  0.66276458D-05  0.50351634D-15  0.28261486D-04
  0.66276458D-05 -0.56426393D-15 -0.11304594D-03 -0.26510583D-04 -0.94628510D-15
 -0.23272340D-17  0.99265313D-16  0.69089707D-16  0.27810307D-15  0.30465584D-18
  0.28861077D-04 -0.20738828D-18  0.67682567D-05 -0.38481436D-04 -0.90243422D-05
  0.32924414D-15 -0.92483602D-15 -0.74378238D-15  0.67682567D-05  0.28861077D-04
 -0.29180269D-18
MO    6     MO 0.0        OCC NO =    2.0000000  ORB. ENERGY =   -2.479344
 -0.40863549D-01 -0.76566769D-01 -0.13267881D+00 -0.21544373D+00 -0.32696618D+00
 -0.44947412D+00 -0.52493973D+00 -0.47581094D+00 -0.28061097D+00 -0.37435373D-04
 -0.10345288D-03 -0.67932355D-01  0.25329205D-02  0.18578337D-02 -0.10546540D-04
  0.59678826D-18  0.43759883D-18  0.35942757D-18 -0.42322254D-18 -0.31033065D-18
 -0.25489417D-18 -0.54249816D-02 -0.39779026D-02 -0.32673027D-02 -0.40177589D-19
 -0.14894887D-18 -0.85250413D-03 -0.36847145D-19 -0.28147519D-19  0.12441617D-04
  0.24177131D-17  0.17689658D-17 -0.66000055D-02 -0.48774355D-03 -0.48774355D-03
  0.97548710D-03 -0.11962707D-17  0.43142529D-18  0.51501855D-19 -0.87741811D-04
 -0.87741811D-04  0.17548362D-03  0.34739683D-19 -0.74893113D-19  0.84255609D-19
 -0.19695615D-19  0.27449363D-19 -0.58318558D-04  0.84377155D-20 -0.78164026D-19
  0.87477837D-04  0.50649129D-19 -0.41840624D-20  0.87477837D-04 -0.35884454D-20
 -0.21073687D-03 -0.39439165D-03 -0.68314555D-03 -0.11173499D-02 -0.17429851D-02
 -0.25858915D-02 -0.35865623D-02 -0.44390161D-02 -0.44923126D-02 -0.31007696D-02
 -0.36217506D-03 -0.13702875D-02 -0.25850468D-02 -0.25713904D-02  0.17268221D-02
  0.43544076D-02  0.24176985D-02 -0.10104778D-02  0.11216372D-02 -0.61446735D-02
 -0.22393789D-02 -0.92202155D-16 -0.13255406D-15 -0.17583305D-15 -0.20574869D-15
 -0.20278971D-15 -0.15278072D-15 -0.79790014D-16 -0.22930370D-16 -0.50627585D-15
 -0.72784546D-15 -0.96548748D-15 -0.11297523D-14 -0.11135047D-14 -0.83890867D-15
 -0.43812162D-15 -0.12590913D-15  0.13420189D-01  0.19293481D-01  0.25592815D-01
  0.29947090D-01  0.29516406D-01  0.22237507D-01  0.11613579D-01  0.33375564D-02
  0.46066078D-17 -0.27643438D-17  0.63804339D-17 -0.38287854D-17 -0.22776519D-02
  0.13667786D-02 -0.22190548D-17 -0.10622245D-16 -0.26973567D-02  0.21850716D-18
 -0.52899740D-20  0.94025474D-03 -0.35326498D-18 -0.10138766D-18 -0.40442571D-02
  0.24148984D-18  0.52781557D-18 -0.12463059D-02  0.36427841D-19  0.24726505D-19
 -0.39826707D-04  0.15255845D-02  0.15255845D-02 -0.30511691D-02 -0.11698822D-17
 -0.43928690D-17  0.12617862D-16  0.53048511D-03  0.53048511D-03 -0.10609702D-02
  0.68655867D-18 -0.10567478D-18  0.50630098D-17 -0.27071259D-05 -0.27071259D-05
  0.54142518D-05 -0.10989268D-18  0.30352754D-18 -0.42231168D-18  0.63805926D-03
  0.63805926D-03 -0.12761185D-02  0.99940527D-19 -0.43533358D-18  0.15379727D-17
  0.98915238D-05  0.98915238D-05 -0.19783048D-04  0.38780007D-20  0.19827381D-18
  0.37650272D-19  0.95014055D-20  0.19662345D-19 -0.54287546D-03  0.45305223D-19
 -0.25464922D-19  0.81431319D-03 -0.73809439D-19 -0.33522113D-19  0.81431319D-03
 -0.12347089D-18  0.89019158D-19  0.13697245D-18  0.42358008D-03  0.64745210D-19
  0.32216781D-18 -0.63537012D-03 -0.33180268D-18 -0.73308515D-18 -0.63537012D-03
  0.55120037D-19 -0.10022745D-03 -0.10022745D-03 -0.26727321D-03  0.72437942D-20
  0.95501193D-19  0.65124446D-20  0.12388222D-18 -0.13860290D-18 -0.15580010D-18
 -0.20045490D-03  0.80181962D-03  0.80181962D-03  0.95753653D-19  0.12930514D-18
 -0.41268716D-19
MO    7     MO 0.0        OCC NO =    2.0000000  ORB. ENERGY =   -0.972868
  0.17678815D-02  0.33125115D-02  0.57400892D-02  0.93207513D-02  0.14145552D-01
  0.19445619D-01  0.22710491D-01  0.20585029D-01  0.12140085D-01  0.22266181D-02
  0.61532727D-02  0.66107530D-02 -0.57365931D-02 -0.17451007D-02 -0.11010409D-03
 -0.15613974D-16 -0.11449047D-16 -0.94038257D-17 -0.51302411D-17 -0.37617823D-17
 -0.30897895D-17  0.94173987D-02  0.69053682D-02  0.56718151D-02  0.43403074D-17
 -0.35655142D-17  0.10458107D-02  0.13569240D-17 -0.52428452D-18 -0.10266319D-04
  0.56587158D-16 -0.23633842D-16  0.42718928D-02  0.79243593D-03  0.79243593D-03
 -0.15848719D-02 -0.22415023D-16  0.70685994D-17 -0.51097106D-17  0.10680840D-03
  0.10680840D-03 -0.21361680D-03  0.23558340D-17 -0.11704154D-17  0.40617761D-17
 -0.50637901D-18  0.13493191D-17  0.91480368D-04  0.20634730D-18 -0.19893272D-17
 -0.13722055D-03  0.13127897D-17 -0.20586303D-17 -0.13722055D-03  0.21466393D-17
 -0.28602137D-01 -0.53528572D-01 -0.92719523D-01 -0.15165165D+00 -0.23656562D+00
 -0.35096858D+00 -0.48678404D+00 -0.60248282D+00 -0.60971645D+00 -0.42085010D+00
 -0.49424486D-01 -0.18699729D+00 -0.35277032D+00 -0.35957842D+00  0.25289408D+00
  0.61103452D+00  0.37786933D+00 -0.16720667D+00 -0.19926227D+00 -0.41821317D-01
  0.19878663D-02 -0.18442881D-15 -0.26514334D-15 -0.35171282D-15 -0.41155205D-15
 -0.40563331D-15 -0.30560203D-15 -0.15960123D-15 -0.45866833D-16 -0.59211012D-15
 -0.85124476D-15 -0.11291767D-14 -0.13212911D-14 -0.13022889D-14 -0.98113768D-15
 -0.51240098D-15 -0.14725582D-15  0.58990909D-01  0.84808046D-01  0.11249793D+00
  0.13163795D+00  0.12974479D+00  0.97749053D-01  0.51049625D-01  0.14670844D-01
  0.94822647D-17 -0.56901392D-17 -0.39331545D-16  0.23602164D-16 -0.70988588D-02
  0.42598995D-02 -0.27246944D-16 -0.33736832D-16 -0.48408982D-02 -0.42700708D-16
 -0.11224392D-16 -0.75610240D-02 -0.10621338D-16 -0.40585565D-17 -0.30948126D-02
 -0.89410834D-17  0.10983063D-16  0.93863790D-03 -0.38167219D-18  0.14646650D-17
  0.60521485D-04  0.87098930D-02  0.87098930D-02 -0.17419786D-01  0.30029356D-16
 -0.40602048D-16  0.13914500D-15  0.11505769D-02  0.11505769D-02 -0.23011538D-02
  0.55175767D-16  0.32972535D-18  0.56985103D-16  0.15457114D-02  0.15457114D-02
 -0.30914228D-02 -0.65320307D-17 -0.31913092D-17 -0.73078885D-17  0.20807910D-03
  0.20807910D-03 -0.41615819D-03  0.53987579D-17 -0.31874555D-18  0.17732894D-16
 -0.20836429D-04 -0.20836429D-04  0.41672858D-04 -0.99395894D-18 -0.79200088D-18
  0.32192434D-17 -0.52857242D-18 -0.10940432D-17 -0.56647996D-03  0.14990760D-17
 -0.20103549D-17  0.84971995D-03  0.86641234D-19  0.52924845D-17  0.84971995D-03
 -0.34818657D-17  0.23930864D-17  0.21209011D-17 -0.27428595D-03 -0.76516376D-18
  0.22402504D-17  0.41142892D-03 -0.64140953D-17 -0.86029536D-17  0.41142892D-03
 -0.32184062D-17 -0.17713625D-03 -0.17713625D-03 -0.47236333D-03 -0.35080321D-18
 -0.14667542D-17 -0.20005305D-18 -0.99959573D-18  0.17076820D-17  0.14482734D-17
 -0.35427250D-03  0.14170900D-02  0.14170900D-02 -0.13460329D-17 -0.72278332D-18
  0.16525688D-17
MO    8     MO 0.0        OCC NO =    2.0000000  ORB. ENERGY =   -0.407993
 -0.36390183D-02 -0.68184943D-02 -0.11815435D-01 -0.19185893D-01 -0.29117293D-01
 -0.40026983D-01 -0.46747416D-01 -0.42372353D-01 -0.24989226D-01 -0.63393592D-02
 -0.17518858D-01 -0.19038813D-01  0.18903208D-01  0.66694753D-02  0.19931170D-03
  0.11542454D-16  0.84635788D-17  0.69516720D-17  0.66173399D-16  0.48522071D-16
  0.39854242D-16 -0.30371624D-01 -0.22270189D-01 -0.18291913D-01  0.39359808D-17
 -0.12810956D-16 -0.34467442D-02  0.11980461D-17  0.19949891D-17  0.45740588D-04
  0.18048630D-16 -0.76088012D-16 -0.56390533D-02 -0.16938697D-02 -0.16938697D-02
  0.33877394D-02 -0.63056518D-17  0.19512491D-17 -0.26947975D-17 -0.28007108D-03
 -0.28007108D-03  0.56014217D-03 -0.17499403D-17 -0.20118958D-17  0.55782564D-17
  0.70827412D-20  0.16872540D-18 -0.17994321D-03  0.35744678D-18  0.21501242D-17
  0.26991482D-03 -0.37869500D-18 -0.26563004D-17  0.26991482D-03 -0.12267497D-17
 -0.24474034D-02 -0.45802875D-02 -0.79337455D-02 -0.12976399D-01 -0.20242246D-01
 -0.30031382D-01 -0.41652724D-01 -0.51552739D-01 -0.52171701D-01 -0.36010945D-01
 -0.41981373D-02 -0.15883631D-01 -0.29964464D-01 -0.31960919D-01  0.24015081D-01
  0.50946775D-01  0.38245658D-01 -0.23256358D-01 -0.14818960D-01 -0.19110285D-01
 -0.96944471D-02 -0.19171009D-14 -0.27561125D-14 -0.36559850D-14 -0.42780020D-14
 -0.42164778D-14 -0.31766725D-14 -0.16590231D-14 -0.47677663D-15 -0.47832463D-14
 -0.68766150D-14 -0.91218343D-14 -0.10673793D-13 -0.10520287D-13 -0.79259297D-14
 -0.41393315D-14 -0.11895775D-14 -0.16036118D+01 -0.23054261D+01 -0.30581492D+01
 -0.35784525D+01 -0.35269889D+01 -0.26572151D+01 -0.13877355D+01 -0.39881294D+00
  0.41491012D-15 -0.24898022D-15  0.92861889D-15 -0.55724775D-15  0.23056884D+00
 -0.13836028D+00  0.37716323D-15  0.10435110D-14  0.24473013D+00  0.38206599D-15
  0.10435583D-14  0.25871246D+00  0.14481030D-15  0.38960984D-15  0.91163965D-01
  0.20366148D-16  0.79338200D-16  0.90214993D-02 -0.82311291D-18  0.15124286D-17
 -0.60137821D-04 -0.29337697D-01 -0.29337697D-01  0.58675393D-01 -0.50819913D-16
  0.15358021D-15  0.28509512D-15 -0.66588852D-02 -0.66588852D-02  0.13317770D-01
 -0.21626057D-16  0.54147166D-16  0.93109334D-16 -0.37876409D-02 -0.37876409D-02
  0.75752817D-02 -0.38455137D-17  0.41384332D-17  0.30427560D-16 -0.57874057D-03
 -0.57874057D-03  0.11574811D-02 -0.60564112D-17  0.19096320D-16  0.21457375D-16
  0.37675350D-04  0.37675350D-04 -0.75350699D-04 -0.70700554D-18 -0.30235370D-17
  0.72591438D-17 -0.10259228D-17 -0.43424582D-17  0.11868080D-02 -0.10610903D-17
 -0.39553197D-17 -0.17802120D-02  0.41388585D-17  0.16982694D-16 -0.17802120D-02
  0.22622903D-17  0.10360205D-17  0.21602540D-17  0.77639689D-03  0.54685068D-18
  0.29225021D-17 -0.11645953D-02 -0.36549121D-17 -0.94032641D-17 -0.11645953D-02
 -0.13803074D-16  0.37304118D-03  0.37304118D-03  0.99477649D-03  0.61421220D-18
 -0.29175321D-17  0.65861833D-18 -0.72047444D-17  0.29454545D-17  0.98485137D-17
  0.74608236D-03 -0.29843295D-02 -0.29843295D-02 -0.79313079D-17 -0.83767176D-19
 -0.38184916D-17
MO    9     MO 0.0        OCC NO =    2.0000000  ORB. ENERGY =   -0.380128
  0.51071207D-17  0.95693041D-17  0.16582179D-16  0.26926127D-16  0.40864188D-16
  0.56175213D-16  0.65606895D-16  0.59466785D-16  0.35070720D-16  0.14720313D-16
  0.40679674D-16  0.14558715D-16 -0.31372701D-16 -0.96809182D-16 -0.13687032D-16
  0.11512712D-01  0.84417701D-02  0.69337591D-02 -0.20615652D-03 -0.15116560D-03