 Molden2AIM, Version 4.0.0 (06/02/2016)           Time: Wed Jun 27 19:35:52 2018
GAUSSIAN             10 MOL ORBITALS    208 PRIMITIVES        2 NUCLEI
  Li   1    (CENTRE  1)   0.00000000  0.00000000  3.38620969  CHARGE =  3.0
  Cl   2    (CENTRE  2)   0.00000000  0.00000000 -0.43086701  CHARGE = 17.0
CENTRE ASSIGNMENTS    1  1  1  1  1  1  1  1  1  1  1  1  1  1  1  1  1  1  1  1
CENTRE ASSIGNMENTS    1  1  1  1  1  1  1  1  1  1  1  1  1  1  1  1  1  1  1  1
CENTRE ASSIGNMENTS    1  1  1  1  1  1  1  1  1  1  1  1  1  1  1  1  1  1  1  1
CENTRE ASSIGNMENTS    1  1  1  1  1  1  1  1  1  1  1  1  1  1  1  1  1  2  2  2
CENTRE ASSIGNMENTS    2  2  2  2  2  2  2  2  2  2  2  2  2  2  2  2  2  2  2  2
CENTRE ASSIGNMENTS    2  2  2  2  2  2  2  2  2  2  2  2  2  2  2  2  2  2  2  2
CENTRE ASSIGNMENTS    2  2  2  2  2  2  2  2  2  2  2  2  2  2  2  2  2  2  2  2
CENTRE ASSIGNMENTS    2  2  2  2  2  2  2  2  2  2  2  2  2  2  2  2  2  2  2  2
CENTRE ASSIGNMENTS    2  2  2  2  2  2  2  2  2  2  2  2  2  2  2  2  2  2  2  2
CENTRE ASSIGNMENTS    2  2  2  2  2  2  2  2  2  2  2  2  2  2  2  2  2  2  2  2
CENTRE ASSIGNMENTS    2  2  2  2  2  2  2  2
TYPE ASSIGNMENTS      1  1  1  1  1  1  1  1  1  1  1  1  1  1  1  1  1  1  1  1
TYPE ASSIGNMENTS      1  2  2  2  3  3  3  4  4  4  2  3  4  2  3  4  2  3  4  5
TYPE ASSIGNMENTS      6  7  8  9 10  5  6  7  8  9 10  5  6  7  8  9 10 11 12 13
TYPE ASSIGNMENTS     17 14 15 18 19 16 20 11 12 13 17 14 15 18 19 16 20  1  1  1
TYPE ASSIGNMENTS      1  1  1  1  1  1  1  1  1  1  1  1  1  1  1  1  1  1  1  1
TYPE ASSIGNMENTS      1  1  1  1  1  1  1  1  1  1  1  1  1  1  1  1  1  1  1  2
TYPE ASSIGNMENTS      2  2  2  2  2  2  3  3  3  3  3  3  3  4  4  4  4  4  4  4
TYPE ASSIGNMENTS      2  2  2  2  2  2  2  3  3  3  3  3  3  3  4  4  4  4  4  4
TYPE ASSIGNMENTS      4  2  3  4  2  3  4  2  3  4  5  6  7  8  9 10  5  6  7  8
TYPE ASSIGNMENTS      9 10  5  6  7  8  9 10 11 12 13 17 14 15 18 19 16 20 11 12
TYPE ASSIGNMENTS     13 17 14 15 18 19 16 20
EXPONENTS  0.5988000D+04 0.8989000D+03 0.2059000D+03 0.5924000D+02 0.1987000D+02
EXPONENTS  0.7406000D+01 0.2930000D+01 0.1189000D+01 0.4798000D+00 0.5988000D+04
EXPONENTS  0.8989000D+03 0.2059000D+03 0.5924000D+02 0.1987000D+02 0.7406000D+01
EXPONENTS  0.2930000D+01 0.1189000D+01 0.4798000D+00 0.7509000D-01 0.2832000D-01
EXPONENTS  0.7600000D-02 0.3266000D+01 0.6511000D+00 0.1696000D+00 0.3266000D+01
EXPONENTS  0.6511000D+00 0.1696000D+00 0.3266000D+01 0.6511000D+00 0.1696000D+00
EXPONENTS  0.5578000D-01 0.5578000D-01 0.5578000D-01 0.2050000D-01 0.2050000D-01
EXPONENTS  0.2050000D-01 0.9100000D-02 0.9100000D-02 0.9100000D-02 0.1874000D+00
EXPONENTS  0.1874000D+00 0.1874000D+00 0.1874000D+00 0.1874000D+00 0.1874000D+00
EXPONENTS  0.8010000D-01 0.8010000D-01 0.8010000D-01 0.8010000D-01 0.8010000D-01
EXPONENTS  0.8010000D-01 0.3710000D-01 0.3710000D-01 0.3710000D-01 0.3710000D-01
EXPONENTS  0.3710000D-01 0.3710000D-01 0.1829000D+00 0.1829000D+00 0.1829000D+00
EXPONENTS  0.1829000D+00 0.1829000D+00 0.1829000D+00 0.1829000D+00 0.1829000D+00
EXPONENTS  0.1829000D+00 0.1829000D+00 0.8160000D-01 0.8160000D-01 0.8160000D-01
EXPONENTS  0.8160000D-01 0.8160000D-01 0.8160000D-01 0.8160000D-01 0.8160000D-01
EXPONENTS  0.8160000D-01 0.8160000D-01 0.4561000D+06 0.6833000D+05 0.1555000D+05
EXPONENTS  0.4405000D+04 0.1439000D+04 0.5204000D+03 0.2031000D+03 0.8396000D+02
EXPONENTS  0.3620000D+02 0.1583000D+02 0.6334000D+01 0.2694000D+01 0.4313000D+00
EXPONENTS  0.4561000D+06 0.6833000D+05 0.1555000D+05 0.4405000D+04 0.1439000D+04
EXPONENTS  0.5204000D+03 0.2031000D+03 0.8396000D+02 0.3620000D+02 0.1583000D+02
EXPONENTS  0.6334000D+01 0.2694000D+01 0.4313000D+00 0.4561000D+06 0.6833000D+05
EXPONENTS  0.1555000D+05 0.4405000D+04 0.1439000D+04 0.5204000D+03 0.2031000D+03
EXPONENTS  0.8396000D+02 0.3620000D+02 0.1583000D+02 0.6334000D+01 0.2694000D+01
EXPONENTS  0.4313000D+00 0.9768000D+00 0.1625000D+00 0.5910000D-01 0.6633000D+03
EXPONENTS  0.1568000D+03 0.4998000D+02 0.1842000D+02 0.7240000D+01 0.2922000D+01
EXPONENTS  0.3818000D+00 0.6633000D+03 0.1568000D+03 0.4998000D+02 0.1842000D+02
EXPONENTS  0.7240000D+01 0.2922000D+01 0.3818000D+00 0.6633000D+03 0.1568000D+03
EXPONENTS  0.4998000D+02 0.1842000D+02 0.7240000D+01 0.2922000D+01 0.3818000D+00
EXPONENTS  0.6633000D+03 0.1568000D+03 0.4998000D+02 0.1842000D+02 0.7240000D+01
EXPONENTS  0.2922000D+01 0.3818000D+00 0.6633000D+03 0.1568000D+03 0.4998000D+02
EXPONENTS  0.1842000D+02 0.7240000D+01 0.2922000D+01 0.3818000D+00 0.6633000D+03
EXPONENTS  0.1568000D+03 0.4998000D+02 0.1842000D+02 0.7240000D+01 0.2922000D+01
EXPONENTS  0.3818000D+00 0.1022000D+01 0.1022000D+01 0.1022000D+01 0.1301000D+00
EXPONENTS  0.1301000D+00 0.1301000D+00 0.4190000D-01 0.4190000D-01 0.4190000D-01
EXPONENTS  0.1046000D+01 0.1046000D+01 0.1046000D+01 0.1046000D+01 0.1046000D+01
EXPONENTS  0.1046000D+01 0.3440000D+00 0.3440000D+00 0.3440000D+00 0.3440000D+00
EXPONENTS  0.3440000D+00 0.3440000D+00 0.1350000D+00 0.1350000D+00 0.1350000D+00
EXPONENTS  0.1350000D+00 0.1350000D+00 0.1350000D+00 0.7060000D+00 0.7060000D+00
EXPONENTS  0.7060000D+00 0.7060000D+00 0.7060000D+00 0.7060000D+00 0.7060000D+00
EXPONENTS  0.7060000D+00 0.7060000D+00 0.7060000D+00 0.3120000D+00 0.3120000D+00
EXPONENTS  0.3120000D+00 0.3120000D+00 0.3120000D+00 0.3120000D+00 0.3120000D+00
EXPONENTS  0.3120000D+00 0.3120000D+00 0.3120000D+00
MO    1     MO 0.0        OCC NO =    2.0000000  ORB. ENERGY = -104.729828
 -0.82226494D-06 -0.15282915D-05 -0.26026541D-05 -0.40589019D-05 -0.56705170D-05
 -0.67593604D-05 -0.64078516D-05 -0.40696335D-05 -0.99938228D-06  0.66081632D-06
  0.12218265D-05  0.20604223D-05  0.32830965D-05  0.45763895D-05  0.58310646D-05
  0.57908490D-05  0.52234824D-05  0.29898237D-05  0.66273255D-05  0.51217523D-06
 -0.24275746D-07  0.82205836D-17  0.60321503D-17  0.49533778D-17  0.26655018D-16
  0.19559083D-16  0.16061192D-16 -0.36937684D-05 -0.27104360D-05 -0.22257094D-05
  0.81619620D-17  0.57803302D-17 -0.20140125D-05 -0.26977329D-17 -0.22107633D-17
  0.12501387D-06  0.14196558D-18  0.74441802D-20 -0.16451470D-07  0.36007326D-06
  0.36007326D-06 -0.72014653D-06 -0.19960386D-16  0.88724065D-17  0.25463456D-17
 -0.26877818D-06 -0.26877818D-06  0.53755636D-06  0.17446036D-17  0.11608074D-19
 -0.12565125D-16 -0.19819642D-08 -0.19819642D-08  0.39639284D-08  0.57789187D-18
 -0.55319537D-18  0.95384014D-18 -0.13624701D-18  0.23170385D-17  0.39830518D-06
 -0.13632589D-18 -0.12800733D-16 -0.59745777D-06  0.54506693D-18  0.58496178D-17
 -0.59745777D-06 -0.32684009D-18  0.21233225D-19  0.17148998D-18 -0.68525568D-07
  0.21196221D-19 -0.76885250D-18  0.10278835D-06 -0.84895894D-19  0.25438257D-18
  0.10278835D-06  0.24263592D-18  0.61664081D+00  0.11537373D+01  0.19934025D+01
  0.32315379D+01  0.49073482D+01  0.68206369D+01  0.81087533D+01  0.72226537D+01
  0.35855416D+01  0.57768820D+00  0.88690526D-02  0.15848910D-02  0.59224903D-04
 -0.17258147D-04 -0.32235741D-04 -0.55946692D-04 -0.90778745D-04 -0.14051472D-03
 -0.20113405D-03 -0.26254276D-03 -0.27978312D-03 -0.20914356D-03 -0.11040317D-04
  0.14186260D-03  0.84282680D-04 -0.31599686D-06  0.67945018D-05  0.12680959D-04
  0.22038390D-04  0.35717747D-04  0.55475253D-04  0.79469901D-04  0.10493260D-03
  0.11346327D-03  0.88956671D-04  0.44264545D-05 -0.76258358D-04 -0.78941538D-04
  0.35722163D-04 -0.29951150D-03 -0.29524832D-04 -0.25298851D-05 -0.81304044D-15
 -0.10709567D-14 -0.11815162D-14 -0.98138498D-15 -0.52123740D-15 -0.13444233D-15
  0.13820215D-18  0.58860053D-15  0.77531900D-15  0.85535849D-15  0.71047354D-15
  0.37734976D-15  0.97329510D-16 -0.10005143D-18  0.42795484D-03  0.56371257D-03
  0.62190702D-03  0.51656527D-03  0.27436036D-03  0.70765541D-04 -0.72744570D-07
  0.45176915D-16  0.59313978D-16  0.67533328D-16  0.57184448D-16  0.32757454D-16
  0.74511842D-17 -0.34875643D-17 -0.11389386D-15 -0.14953429D-15 -0.17025579D-15
 -0.14416561D-15 -0.82583611D-16 -0.18784906D-16  0.87923700D-17 -0.17066419D-03
 -0.22406957D-03 -0.25511969D-03 -0.21602487D-03 -0.12374736D-03 -0.28148232D-04
  0.13174922D-04 -0.12300396D-16 -0.30505900D-16 -0.28258474D-04 -0.11311515D-17
 -0.35318652D-16 -0.59564229D-05 -0.28790241D-18  0.23759853D-18 -0.48419791D-07
 -0.43120904D-06 -0.43120904D-06  0.86241807D-06 -0.55888212D-17 -0.40976782D-17
 -0.20330844D-16 -0.29500079D-06 -0.29500079D-06  0.59000158D-06 -0.60816033D-17
 -0.88257815D-17  0.30386534D-17  0.38745775D-06  0.38745775D-06 -0.77491549D-06
  0.14440038D-17 -0.49427457D-17 -0.20906425D-16 -0.19953260D-17 -0.35562982D-17
  0.19758107D-05 -0.21513622D-17 -0.16839696D-17 -0.29637161D-05  0.81373402D-17
  0.12352864D-16 -0.29637161D-05  0.23505596D-18  0.11854098D-17  0.22238120D-17
 -0.67723953D-06  0.12014937D-17 -0.74157093D-18  0.10158593D-05 -0.47577230D-17
 -0.59298651D-17  0.10158593D-05 -0.21825800D-17
MO    2     MO 0.0        OCC NO =    2.0000000  ORB. ENERGY =  -10.455562
  0.12564686D-04  0.23353181D-04  0.39770065D-04  0.62022377D-04  0.86648791D-04
  0.10328695D-03  0.97915692D-04  0.62186362D-04  0.15271141D-04 -0.12124064D-04
 -0.22416975D-04 -0.37802778D-04 -0.60235307D-04 -0.83963485D-04 -0.10698314D-03
 -0.10624530D-03 -0.95835766D-04 -0.54854601D-04 -0.86712689D-04  0.70414414D-05
 -0.39345169D-07  0.50579130D-16  0.37114264D-16  0.30476856D-16 -0.59927153D-17
 -0.43973715D-17 -0.36109582D-17  0.42863101D-04  0.31452350D-04  0.25827502D-04
  0.80245714D-18  0.58519684D-17  0.27974373D-04  0.17383423D-17 -0.79838999D-18
 -0.36253213D-05 -0.48175437D-19  0.84855093D-19  0.45928796D-06 -0.10407892D-04
 -0.10407892D-04  0.20815784D-04 -0.47106781D-17  0.57393609D-17  0.22811792D-16
  0.51438928D-05  0.51438928D-05 -0.10287786D-04 -0.26930155D-17 -0.94986767D-17
 -0.10966005D-16 -0.16049763D-06 -0.16049763D-06  0.32099526D-06  0.25631315D-18
 -0.30333577D-18 -0.17251875D-20 -0.98037699D-18 -0.40147367D-18 -0.83076677D-05
 -0.98649067D-18  0.11598821D-17  0.12461502D-04  0.39276216D-17  0.44538917D-19
  0.12461502D-04  0.19636576D-17 -0.35539767D-18 -0.13490497D-18  0.13077593D-05
 -0.35400228D-18 -0.56709267D-18 -0.19616389D-05  0.14201953D-17  0.97180759D-18
 -0.19616389D-05 -0.19771120D-17 -0.20453508D-03 -0.38268592D-03 -0.66119649D-03
 -0.10718766D-02 -0.16277302D-02 -0.22623535D-02 -0.26896120D-02 -0.23956995D-02
 -0.11892970D-02 -0.19161479D-03 -0.29417975D-05 -0.52569632D-06 -0.19644451D-07
 -0.17266600D+00 -0.32251529D+00 -0.55974092D+00 -0.90823204D+00 -0.14058353D+01
 -0.20123256D+01 -0.26267134D+01 -0.27992015D+01 -0.20924599D+01 -0.11045724D+00
  0.14193207D+01  0.84323959D+00 -0.31615163D-02 -0.13647649D-03 -0.25471370D-03
 -0.44266999D-03 -0.71743782D-03 -0.11142933D-02 -0.15962573D-02 -0.21077090D-02
 -0.22790586D-02 -0.17868115D-02 -0.88911149D-04  0.15317492D-02  0.15856444D-02
 -0.71752652D-03  0.56080643D-01  0.90437451D-03 -0.40173312D-04 -0.46864125D-15
 -0.61730570D-15 -0.68103281D-15 -0.56567603D-15 -0.30044428D-15 -0.77493344D-16
  0.79660523D-19 -0.24640834D-14 -0.32457509D-14 -0.35808236D-14 -0.29742856D-14
 -0.15797153D-14 -0.40745466D-15  0.41884954D-18  0.94872555D-02  0.12496845D-01
  0.13786947D-01  0.11451644D-01  0.60822466D-02  0.15687888D-02 -0.16126616D-05
 -0.98050476D-15 -0.12873309D-14 -0.14657209D-14 -0.12411123D-14 -0.71095689D-15
 -0.16171803D-15  0.75692936D-16 -0.64372025D-15 -0.84515749D-15 -0.96227399D-15
 -0.81481409D-15 -0.46675688D-15 -0.10617100D-15  0.49693870D-16  0.25169616D-02
  0.33045861D-02  0.37625144D-02  0.31859426D-02  0.18250306D-02  0.41513115D-03
 -0.19430422D-03  0.21350376D-16  0.79266126D-17  0.62498677D-03 -0.48804413D-16
 -0.30933156D-16  0.91024224D-04 -0.25542697D-17 -0.29997622D-18 -0.23705331D-05
 -0.43426093D-04 -0.43426093D-04  0.86852186D-04  0.11663908D-16 -0.25583019D-16
 -0.11978430D-15  0.75278978D-05  0.75278978D-05 -0.15055796D-04  0.10460963D-17
 -0.17468588D-16 -0.32922278D-16 -0.62067739D-05 -0.62067739D-05  0.12413548D-04
 -0.34013712D-17 -0.59770598D-17 -0.13682070D-17  0.13091772D-18  0.43724757D-17
 -0.15235886D-04 -0.47565457D-19  0.31070202D-17  0.22853829D-04 -0.34518769D-18
 -0.16224447D-16  0.22853829D-04  0.20058850D-17 -0.66889361D-18 -0.17841865D-17
  0.97528840D-05 -0.60789129D-18 -0.12778865D-17 -0.14629326D-04  0.26145721D-17
  0.66304461D-17 -0.14629326D-04  0.22534741D-18
MO    3     MO 0.0        OCC NO =    2.0000000  ORB. ENERGY =   -7.921735
  0.57200154D-04  0.10631428D-03  0.18105140D-03  0.28235402D-03  0.39446464D-03
  0.47020910D-03  0.44575669D-03  0.28310056D-03  0.69521170D-04 -0.49939146D-04
 -0.92335751D-04 -0.15571003D-03 -0.24810985D-03 -0.34584646D-03 -0.44066464D-03
 -0.43762548D-03 -0.39474850D-03 -0.22594666D-03 -0.41338555D-03 -0.14643520D-03
  0.51050767D-05  0.12442795D-15  0.91303508D-16  0.74975051D-16  0.26596009D-15
  0.19515783D-15  0.16025636D-15 -0.37568259D-04 -0.27567067D-04 -0.22637052D-04
  0.23924051D-15  0.39181860D-15  0.11544370D-03 -0.28822036D-16 -0.39895768D-16
  0.71670972D-05  0.40018405D-17  0.42095444D-17 -0.79518119D-06 -0.59154922D-04
 -0.59154922D-04  0.11830984D-03 -0.29841320D-17  0.12533682D-15  0.21753409D-15
  0.50359140D-05  0.50359140D-05 -0.10071828D-04 -0.34293075D-18 -0.21052891D-15
 -0.36340814D-15  0.13256895D-05  0.13256895D-05 -0.26513790D-05 -0.43891289D-19
  0.40950003D-17  0.78799934D-17  0.24121833D-16  0.39976948D-16 -0.30314966D-04
  0.24121775D-16  0.41245261D-16  0.45472449D-04 -0.96487273D-16 -0.16117611D-15
  0.45472449D-04 -0.84360067D-18 -0.11169908D-16 -0.18762306D-16  0.41315204D-06
 -0.11169869D-16 -0.18829974D-16 -0.61972806D-06  0.44679594D-16  0.75116892D-16
 -0.61972806D-06 -0.11464073D-17 -0.68617087D-04 -0.12838283D-03 -0.22181709D-03
 -0.35959138D-03 -0.54606820D-03 -0.75897058D-03 -0.90230653D-03 -0.80370525D-03
 -0.39898335D-03 -0.64282611D-04 -0.98690931D-06 -0.17635972D-06 -0.65902877D-08
  0.29528480D-03  0.55154961D-03  0.95724111D-03  0.15532133D-02  0.24041897D-02
  0.34413792D-02  0.44920748D-02  0.47870552D-02  0.35784210D-02  0.18889849D-03
 -0.24272518D-02 -0.14420664D-02  0.54066680D-05 -0.10056786D-04 -0.18769541D-04
 -0.32619811D-04 -0.52867118D-04 -0.82110911D-04 -0.11762625D-03 -0.15531450D-03
 -0.16794105D-03 -0.13166796D-03 -0.65517541D-05  0.11287273D-03  0.11684420D-03
 -0.52873654D-04  0.36782629D-03 -0.51825717D-03  0.77436898D-03 -0.35283721D-10
 -0.46476579D-10 -0.51274555D-10 -0.42589412D-10 -0.22620271D-10 -0.58344278D-11
  0.59975934D-14 -0.59065675D-10 -0.77802749D-10 -0.85834659D-10 -0.71295551D-10
 -0.37866799D-10 -0.97669520D-11  0.10040095D-13  0.11518408D+02  0.15172328D+02
  0.16738633D+02  0.13903358D+02  0.73844114D+01  0.19046551D+01 -0.19579207D-02
 -0.39039409D-13 -0.51255882D-13 -0.58358592D-13 -0.49415659D-13 -0.28307192D-13
 -0.64389041D-14  0.30137615D-14 -0.65489385D-13 -0.85982761D-13 -0.97897699D-13
 -0.82895751D-13 -0.47485878D-13 -0.10801390D-13  0.50556448D-14  0.19998350D-01
  0.26256367D-01  0.29894805D-01  0.25313693D-01  0.14500658D-01  0.32983966D-02
 -0.15438312D-02 -0.26287071D-12 -0.44004645D-12  0.86702858D-01 -0.17061249D-14
 -0.28693735D-14  0.59579861D-03  0.20216026D-16  0.30651416D-16  0.27022782D-04
 -0.32687423D-03 -0.32687423D-03  0.65374847D-03  0.10950988D-16 -0.24706474D-14
 -0.41511408D-14  0.11995874D-03  0.11995874D-03 -0.23991747D-03  0.83699674D-17
  0.74853539D-15  0.12724660D-14 -0.39184685D-04 -0.39184685D-04  0.78369371D-04
 -0.28195193D-17 -0.30579738D-15 -0.52299301D-15  0.30448099D-16  0.51966608D-16
 -0.43500628D-04  0.30293144D-16  0.51299037D-16  0.65250942D-04 -0.12163744D-15
 -0.20719886D-15  0.65250942D-04 -0.24262471D-18 -0.73296568D-17 -0.11467587D-16
  0.18101168D-04 -0.73185541D-17 -0.11113724D-16 -0.27151752D-04  0.29307524D-16
  0.45516486D-16 -0.27151752D-04  0.16689484D-17
MO    4     MO 0.0        OCC NO =    2.0000000  ORB. ENERGY =   -7.921462
 -0.52751341D-17 -0.98045558D-17 -0.16696990D-16 -0.26039359D-16 -0.36378467D-16
 -0.43363801D-16 -0.41108741D-16 -0.26108206D-16 -0.64114075D-17  0.37954390D-17
  0.70176352D-17  0.11834161D-16  0.18856666D-16  0.26284773D-16  0.33491076D-16
  0.33260096D-16  0.30001391D-16  0.17172235D-16  0.90501255D-16 -0.25681411D-16
  0.19148905D-17 -0.40863445D-04 -0.29985030D-04 -0.24622593D-04  0.25584413D-04
  0.18773488D-04  0.15416091D-04 -0.20879114D-16 -0.15320804D-16 -0.12580875D-16
 -0.64327342D-04  0.40275050D-04 -0.10183736D-16  0.64767125D-05 -0.40550396D-05
  0.10894527D-16 -0.75638436D-06  0.47356873D-06 -0.23345636D-17 -0.22050114D-17
  0.63990567D-17 -0.41940453D-17 -0.22357815D-16 -0.35787426D-04  0.22406341D-04
  0.42802828D-17 -0.41814726D-17 -0.98810240D-19  0.46812475D-17  0.59613542D-04
 -0.37323761D-04 -0.60260328D-18  0.96860460D-18 -0.36600132D-18  0.14153105D-17
 -0.14487816D-05  0.90707540D-06 -0.65042655D-05  0.40722904D-05 -0.13482229D-17
 -0.65042655D-05  0.40722904D-05 -0.71350441D-19  0.26017062D-04 -0.16289162D-04
  0.41160191D-17  0.91473827D-17  0.30785705D-05 -0.19274787D-05  0.61372879D-18
  0.30785705D-05 -0.19274787D-05 -0.18232606D-18 -0.12314282D-04  0.77099146D-05
 -0.16588603D-17 -0.26683055D-17  0.38707743D-17  0.72422335D-17  0.12512975D-16
  0.20284992D-16  0.30804379D-16  0.42814464D-16  0.50900221D-16  0.45338002D-16
  0.22507142D-16  0.36262612D-17  0.55672768D-19  0.99486690D-20  0.37176624D-21
 -0.16858331D-16 -0.31488942D-16 -0.54650586D-16 -0.88675691D-16 -0.13725944D-15
 -0.19647442D-15 -0.25646048D-15 -0.27330144D-15 -0.20429837D-15 -0.10784548D-16
  0.13857609D-15  0.82330120D-16 -0.30867623D-18  0.47182677D-17  0.88059668D-17
  0.15303995D-16  0.24803274D-16  0.38523368D-16  0.55185837D-16  0.72867755D-16
  0.78791658D-16  0.61773681D-16  0.30738380D-17 -0.52955663D-16 -0.54818929D-16
  0.24806341D-16  0.13231445D-17  0.64501906D-16 -0.37272462D-16  0.97708342D+01
  0.12870381D+02  0.14199046D+02  0.11793940D+02  0.62640479D+01  0.16156807D+01
 -0.16608648D-02 -0.61174739D+01 -0.80580860D+01 -0.88899566D+01 -0.73841308D+01
 -0.39218913D+01 -0.10115702D+01  0.10398597D-02 -0.14378185D-11 -0.18939297D-11
 -0.20894481D-11 -0.17355268D-11 -0.92178046D-12 -0.23775407D-12  0.24440310D-15
  0.10772881D-01  0.14144003D-01  0.16103988D-01  0.13636196D-01  0.78113379D-02
  0.17768084D-02 -0.83164411D-03 -0.67448508D-02 -0.88554946D-02 -0.10082632D-01
 -0.85375588D-02 -0.48906424D-02 -0.11124515D-02  0.52068851D-03 -0.13114827D-14
 -0.17218806D-14 -0.19604877D-14 -0.16600605D-14 -0.95094656D-15 -0.21630735D-15
  0.10124374D-15  0.72794948D-01 -0.45576578D-01 -0.10850552D-13  0.47235409D-03
 -0.29573870D-03 -0.87886743D-16 -0.51587988D-05  0.32298999D-05 -0.58897831D-17
  0.12715008D-15 -0.11588950D-15 -0.11260581D-16 -0.10931669D-16  0.66852122D-03
 -0.41855803D-03 -0.37818279D-16  0.27023649D-16  0.10794630D-16 -0.12369757D-16
 -0.21391101D-03  0.13392869D-03  0.97810580D-17  0.10219693D-17 -0.10803027D-16
  0.32758265D-17  0.85544734D-04 -0.53559160D-04 -0.79668438D-05  0.49880038D-05
 -0.12709149D-16 -0.79668438D-05  0.49880038D-05  0.13773860D-15  0.31867375D-04
 -0.19952015D-04 -0.99611150D-16 -0.14903538D-17  0.14018546D-05 -0.87769465D-06
 -0.56409385D-17  0.14018546D-05 -0.87769465D-06 -0.81942328D-17 -0.56074184D-05
  0.35107786D-05  0.25117048D-16 -0.17940045D-18
MO    5     MO 0.0        OCC NO =    2.0000000  ORB. ENERGY =   -7.921462
 -0.38035990D-15 -0.70695073D-15 -0.12039249D-14 -0.18775500D-14 -0.26230442D-14
 -0.31267169D-14 -0.29641174D-14 -0.18825142D-14 -0.46229011D-15  0.32307255D-15
  0.59734996D-15  0.10073387D-14  0.16051032D-14  0.22373930D-14  0.28508027D-14
  0.28311413D-14  0.25537563D-14  0.14617224D-14  0.24512733D-14  0.88019424D-15
 -0.32288383D-16  0.25584413D-04  0.18773488D-04  0.15416091D-04  0.40863445D-04
  0.29985030D-04  0.24622593D-04  0.25523808D-15  0.18729016D-15  0.15379573D-15
  0.40275050D-04  0.64327342D-04 -0.70752382D-15 -0.40550396D-05 -0.64767125D-05
 -0.35911329D-16  0.47356873D-06  0.75638436D-06  0.34719815D-17  0.35205227D-15
  0.36899503D-15 -0.72104730D-15  0.52985492D-16  0.22406341D-04  0.35787426D-04
 -0.31906071D-16 -0.37203844D-16  0.69109915D-16 -0.12179314D-16 -0.37323761D-04
 -0.59613542D-04 -0.78554341D-17 -0.74395533D-17  0.15294987D-16 -0.31611425D-17
  0.90707540D-06  0.14487816D-05  0.40722904D-05  0.65042655D-05  0.18964763D-15
  0.40722904D-05  0.65042655D-05 -0.28939258D-15 -0.16289162D-04 -0.26017062D-04
 -0.27955033D-15 -0.60176698D-17 -0.19274787D-05 -0.30785705D-05 -0.38486873D-17
 -0.19274787D-05 -0.30785705D-05  0.67605584D-17  0.77099146D-05  0.12314282D-04
  0.47855035D-17  0.11899034D-17  0.46583228D-15  0.87157399D-15  0.15058868D-14
  0.24412181D-14  0.37071844D-14  0.51525504D-14  0.61256391D-14  0.54562481D-14
  0.27086450D-14  0.43640610D-15  0.66999961D-17  0.11972827D-17  0.44740587D-19
 -0.18187052D-14 -0.33970802D-14 -0.58957975D-14 -0.95664833D-14 -0.14807780D-13
 -0.21195992D-13 -0.27667390D-13 -0.29484221D-13 -0.22040054D-13 -0.11634553D-14
  0.14949823D-13  0.88819123D-14 -0.33300512D-16  0.10310724D-15  0.19243481D-15
  0.33443477D-15  0.54202037D-15  0.84184250D-15  0.12059637D-14  0.15923627D-14
  0.17218164D-14  0.13499264D-14  0.67171890D-16 -0.11572282D-14 -0.11979457D-14
  0.54208739D-15 -0.23474731D-14  0.28710914D-14 -0.45799866D-14 -0.61174739D+01
 -0.80580860D+01 -0.88899566D+01 -0.73841308D+01 -0.39218913D+01 -0.10115702D+01
  0.10398597D-02 -0.97708342D+01 -0.12870381D+02 -0.14199046D+02 -0.11793940D+02
 -0.62640479D+01 -0.16156807D+01  0.16608648D-02 -0.68727848D-10 -0.90530001D-10
 -0.99875799D-10 -0.82958331D-10 -0.44061185D-10 -0.11364665D-10  0.11682489D-13
 -0.67448508D-02 -0.88554946D-02 -0.10082632D-01 -0.85375588D-02 -0.48906424D-02
 -0.11124515D-02  0.52068851D-03 -0.10772881D-01 -0.14144003D-01 -0.16103988D-01
 -0.13636196D-01 -0.78113379D-02 -0.17768084D-02  0.83164411D-03 -0.12086210D-12
 -0.15868308D-12 -0.18067236D-12 -0.15298593D-12 -0.87636233D-13 -0.19934203D-13
  0.93303039D-14 -0.45576578D-01 -0.72794948D-01 -0.51750325D-12 -0.29573870D-03
 -0.47235409D-03 -0.35667400D-14  0.32298999D-05  0.51587988D-05 -0.15741734D-15
  0.20896875D-14  0.20105632D-14 -0.41002508D-14 -0.98198720D-17 -0.41855803D-03
 -0.66852122D-03 -0.73284616D-15 -0.72830540D-15  0.14611516D-14  0.91268704D-17
  0.13392869D-03  0.21391101D-03  0.23842130D-15  0.23666230D-15 -0.47508360D-15
 -0.33406296D-17 -0.53559160D-04 -0.85544734D-04  0.49880038D-05  0.79668438D-05
  0.22661127D-15  0.49880038D-05  0.79668438D-05 -0.30276968D-15 -0.19952015D-04
 -0.31867375D-04 -0.37706414D-15  0.10687364D-18 -0.87769465D-06 -0.14018546D-05
 -0.93247621D-16 -0.87769465D-06 -0.14018546D-05  0.13635503D-15  0.35107786D-05
  0.56074184D-05  0.14338783D-15  0.14229788D-17
MO    6     MO 0.0        OCC NO =    2.0000000  ORB. ENERGY =   -2.480099
 -0.64328712D-01 -0.11956368D+00 -0.20361489D+00 -0.31754234D+00 -0.44362472D+00
 -0.52880882D+00 -0.50130903D+00 -0.31838191D+00 -0.78185232D-01 -0.92093208D-04
 -0.17027715D-03 -0.28714620D-03 -0.45754150D-03 -0.63777842D-03 -0.81263345D-03
 -0.80702890D-03 -0.72795910D-03 -0.41667018D-03  0.43089130D-02  0.53257993D-03
 -0.21011333D-04 -0.38751305D-18 -0.28435170D-18 -0.23349906D-18 -0.92372440D-19
 -0.67781616D-19 -0.55659747D-19 -0.56662695D-02 -0.41578300D-02 -0.34142556D-02
 -0.26246038D-18 -0.89987810D-19 -0.85801356D-03  0.20205858D-19  0.30237756D-19
  0.68689332D-05  0.63647687D-20 -0.38557227D-20  0.50572942D-06 -0.37781238D-03
 -0.37781238D-03  0.75562476D-03  0.13465545D-19  0.64280276D-18  0.55247246D-18
 -0.56849518D-04 -0.56849518D-04  0.11369904D-03  0.42155936D-19  0.43322940D-19
 -0.15733925D-18 -0.34208341D-05 -0.34208341D-05  0.68416683D-05 -0.81481273D-20
  0.86104302D-20  0.96245166D-20  0.21682202D-19  0.55455777D-20 -0.92603362D-04
  0.14731203D-19 -0.37038600D-19  0.13890504D-03 -0.79777810D-19  0.20401867D-19
  0.13890504D-03 -0.21730283D-19  0.29657918D-20 -0.14787723D-20 -0.83449801D-06
  0.30948705D-20  0.98907245D-20  0.12517470D-05 -0.11992246D-19 -0.54544077D-20
  0.12517470D-05  0.14480994D-19  0.38204562D-03  0.71480882D-03  0.12350313D-02
  0.20021298D-02  0.30403938D-02  0.42257898D-02  0.50238545D-02  0.44748632D-02
  0.22214561D-02  0.35791216D-03  0.54949051D-05  0.98193414D-06  0.36693347D-07
 -0.77190753D-03 -0.14418124D-02 -0.25023354D-02 -0.40602734D-02 -0.62848210D-02
 -0.89961503D-02 -0.11742786D-01 -0.12513898D-01 -0.93543929D-02 -0.49380178D-03
  0.63451078D-02  0.37697230D-02 -0.14133635D-04  0.98999538D-04  0.18476837D-03
  0.32111117D-03  0.52042674D-03  0.80830421D-03  0.11579191D-02  0.15289243D-02
  0.16532207D-02  0.12961464D-02  0.64495818D-04 -0.11111252D-02 -0.11502206D-02
  0.52049108D-03  0.77478761D-04 -0.47172535D-02 -0.36510409D-02 -0.41055192D-15
 -0.54078901D-15 -0.59661697D-15 -0.49555897D-15 -0.26320341D-15 -0.67887837D-16
  0.69786388D-19  0.33241210D-15  0.43786133D-15  0.48306362D-15  0.40123987D-15
  0.21310824D-15  0.54966832D-16 -0.56504034D-19 -0.98205558D-02 -0.12935876D-01
 -0.14271302D-01 -0.11853957D-01 -0.62959243D-02 -0.16239025D-02  0.16693166D-05
  0.11710620D-17  0.15375186D-17  0.17505781D-17  0.14823176D-17  0.84912859D-18
  0.19314730D-18 -0.90403564D-19 -0.10942238D-17 -0.14366356D-17 -0.16357154D-17
 -0.13850566D-17 -0.79341374D-18 -0.18047410D-18  0.84471811D-19  0.31712622D-01
  0.41636348D-01  0.47406046D-01  0.40141492D-01  0.22994592D-01  0.52304720D-02
 -0.24481487D-02 -0.25924653D-17  0.26225958D-17 -0.73411174D-03  0.52684747D-18
  0.57355799D-20 -0.30740166D-02  0.65153162D-19  0.31417295D-20 -0.21285196D-03
  0.84631089D-04  0.84631089D-04 -0.16926218D-03  0.72697949D-18 -0.37713496D-20
 -0.34021617D-18  0.61216277D-03  0.61216277D-03 -0.12243255D-02  0.16691172D-18
  0.53954521D-19 -0.94112622D-19  0.18342186D-03  0.18342186D-03 -0.36684372D-03
  0.81344141D-20  0.33001426D-18 -0.19599247D-19  0.93969240D-19  0.45685382D-19
 -0.13472587D-03  0.88876330D-19  0.25831070D-19  0.20208880D-03 -0.37078405D-18
 -0.16288722D-18  0.20208880D-03  0.16508901D-18 -0.54936950D-19  0.10896674D-19
 -0.25023557D-03 -0.57093730D-19  0.32417318D-19  0.37535336D-03  0.22190458D-18
 -0.65107341D-19  0.37535336D-03  0.29155519D-19
MO    7     MO 0.0        OCC NO =    2.0000000  ORB. ENERGY =   -0.973058
  0.14521296D-02  0.26989808D-02  0.45963178D-02  0.71680687D-02  0.10014200D-01
  0.11937110D-01  0.11316342D-01  0.71870208D-02  0.17649209D-02  0.13964278D-02
  0.25819465D-02  0.43540554D-02  0.69377935D-02  0.96707619D-02  0.12322124D-01
  0.12237141D-01  0.11038190D-01  0.63180534D-02 -0.70314452D-02 -0.74728207D-03
  0.30232504D-04  0.23556576D-16  0.17285489D-16  0.14194202D-16  0.60138190D-17
  0.44128570D-17  0.36236743D-17  0.94978495D-02  0.69693903D-02  0.57230045D-02
 -0.94488263D-17 -0.63068538D-17  0.14601722D-02  0.29726108D-17  0.23358012D-17
 -0.21224971D-04 -0.14745787D-18 -0.37191351D-18  0.20396453D-07  0.77588944D-03
  0.77588944D-03 -0.15517789D-02  0.42210548D-17 -0.62673084D-18  0.66174139D-17
  0.10389684D-03  0.10389684D-03 -0.20779367D-03 -0.45428554D-18  0.55336871D-17
  0.11928749D-17  0.72176453D-05  0.72176453D-05 -0.14435291D-04  0.44136556D-18
 -0.59779218D-18 -0.82226937D-18  0.12506880D-18  0.14587888D-17  0.23914593D-03
  0.42403020D-20 -0.36353356D-17 -0.35871889D-03 -0.37944670D-18 -0.74103074D-18
 -0.35871889D-03 -0.28808220D-17 -0.84098391D-19 -0.12795629D-18  0.74584837D-05
 -0.91055780D-19  0.86786619D-18 -0.11187725D-04  0.34335095D-18 -0.48399731D-18
 -0.11187725D-04  0.86447753D-18  0.75791396D-03  0.14180599D-02  0.24500934D-02
  0.39718872D-02  0.60316275D-02  0.83832530D-02  0.99664784D-02  0.88773724D-02
  0.44069935D-02  0.71003726D-03  0.10900963D-04  0.19479914D-05  0.72793400D-07
 -0.20108815D-02 -0.37560380D-02 -0.65187861D-02 -0.10577341D-01 -0.16372467D-01
 -0.23435699D-01 -0.30590908D-01 -0.32599717D-01 -0.24368950D-01 -0.12863936D-02
  0.16529519D-01  0.98204334D-02 -0.36819263D-04 -0.49354423D-01 -0.92112919D-01
 -0.16008415D+00 -0.25944931D+00 -0.40296539D+00 -0.57725955D+00 -0.76221745D+00
 -0.82418316D+00 -0.64617028D+00 -0.32153220D-01  0.55393131D+00  0.57342159D+00
 -0.25948138D+00 -0.45977997D-01 -0.68872444D-01  0.26657990D-02  0.75591142D-15
  0.99570498D-15  0.10984959D-14  0.91242708D-15  0.48461218D-15  0.12499562D-15
 -0.12849125D-18  0.50446237D-16  0.66449016D-16  0.73308831D-16  0.60891411D-16
  0.32340908D-16  0.83416635D-17 -0.85749465D-20  0.24929315D-01  0.32837503D-01
  0.36227458D-01  0.30091069D-01  0.15982097D-01  0.41222491D-02 -0.42375320D-05
 -0.41968519D-16 -0.55101589D-16 -0.62737213D-16 -0.53123295D-16 -0.30431069D-16
 -0.69220124D-17  0.32398827D-17  0.38038876D-16  0.49942256D-16  0.56862933D-16
  0.48149196D-16  0.27581713D-16  0.62738829D-17 -0.29365225D-17  0.84924952D-01
  0.11150024D+00  0.12695122D+00  0.10749708D+00  0.61578467D-01  0.14006965D-01
 -0.65560304D-02  0.16293234D-17  0.10253420D-16 -0.82079269D-02 -0.18335365D-17
  0.96905726D-17  0.38159555D-03  0.15213023D-17  0.41591235D-18  0.28054515D-03
  0.23245233D-02  0.23245233D-02 -0.46490467D-02  0.90259595D-16  0.36728363D-16
 -0.13678653D-16  0.69484504D-03  0.69484504D-03 -0.13896901D-02  0.11792720D-16
 -0.20224377D-17 -0.21564283D-18  0.34528309D-04  0.34528309D-04 -0.69056617D-04
 -0.22205887D-18  0.10891812D-16  0.21966486D-17  0.36651980D-18  0.17988203D-17
 -0.42916743D-03 -0.25622784D-18 -0.14824808D-17  0.64375114D-03 -0.84333156D-18
 -0.39139800D-17  0.64375114D-03  0.22367223D-17  0.21348857D-18 -0.60895383D-18
 -0.34312349D-03 -0.82039970D-20  0.11270207D-17  0.51468524D-03 -0.63226172D-18
  0.69984075D-18  0.51468524D-03  0.49798323D-18
MO    8     MO 0.0        OCC NO =    2.0000000  ORB. ENERGY =   -0.407995
 -0.13585974D-02 -0.25251385D-02 -0.43002674D-02 -0.67063708D-02 -0.93691818D-02
 -0.11168237D-01 -0.10587452D-01 -0.67241022D-02 -0.16512417D-02 -0.44496759D-02
 -0.82272966D-02 -0.13874069D-01 -0.22107074D-01 -0.30815598D-01 -0.39264084D-01
 -0.38993289D-01 -0.35172866D-01 -0.20132291D-01  0.23003008D-01  0.17647853D-02
 -0.65758589D-04 -0.73419357D-18 -0.53874107D-18 -0.44239416D-18  0.54501871D-17