 Molden2AIM, Version 4.0.0 (06/02/2016)           Time: Wed Jun 27 19:36:21 2018
GAUSSIAN              2 MOL ORBITALS    104 PRIMITIVES        2 NUCLEI
  Li   1    (CENTRE  1)   0.00000000  0.00000000  0.73607856  CHARGE =  3.0
  H    2    (CENTRE  2)   0.00000000  0.00000000 -2.28565398  CHARGE =  1.0
CENTRE ASSIGNMENTS    1  1  1  1  1  1  1  1  1  1  1  1  1  1  1  1  1  1  1  1
CENTRE ASSIGNMENTS    1  1  1  1  1  1  1  1  1  1  1  1  1  1  1  1  1  1  1  1
CENTRE ASSIGNMENTS    1  1  1  1  1  1  1  1  1  1  1  1  1  1  1  1  1  1  1  1
CENTRE ASSIGNMENTS    1  1  1  1  1  1  1  1  1  1  1  1  1  1  1  1  1  2  2  2
CENTRE ASSIGNMENTS    2  2  2  2  2  2  2  2  2  2  2  2  2  2  2  2  2  2  2  2
CENTRE ASSIGNMENTS    2  2  2  2
TYPE ASSIGNMENTS      1  1  1  1  1  1  1  1  1  1  1  1  1  1  1  1  1  1  1  1
TYPE ASSIGNMENTS      1  2  2  2  3  3  3  4  4  4  2  3  4  2  3  4  2  3  4  5
TYPE ASSIGNMENTS      6  7  8  9 10  5  6  7  8  9 10  5  6  7  8  9 10 11 12 13
TYPE ASSIGNMENTS     17 14 15 18 19 16 20 11 12 13 17 14 15 18 19 16 20  1  1  1
TYPE ASSIGNMENTS      1  1  1  2  3  4  2  3  4  2  3  4  5  6  7  8  9 10  5  6
TYPE ASSIGNMENTS      7  8  9 10
EXPONENTS  0.5988000D+04 0.8989000D+03 0.2059000D+03 0.5924000D+02 0.1987000D+02
EXPONENTS  0.7406000D+01 0.2930000D+01 0.1189000D+01 0.4798000D+00 0.5988000D+04
EXPONENTS  0.8989000D+03 0.2059000D+03 0.5924000D+02 0.1987000D+02 0.7406000D+01
EXPONENTS  0.2930000D+01 0.1189000D+01 0.4798000D+00 0.7509000D-01 0.2832000D-01
EXPONENTS  0.7600000D-02 0.3266000D+01 0.6511000D+00 0.1696000D+00 0.3266000D+01
EXPONENTS  0.6511000D+00 0.1696000D+00 0.3266000D+01 0.6511000D+00 0.1696000D+00
EXPONENTS  0.5578000D-01 0.5578000D-01 0.5578000D-01 0.2050000D-01 0.2050000D-01
EXPONENTS  0.2050000D-01 0.9100000D-02 0.9100000D-02 0.9100000D-02 0.1874000D+00
EXPONENTS  0.1874000D+00 0.1874000D+00 0.1874000D+00 0.1874000D+00 0.1874000D+00
EXPONENTS  0.8010000D-01 0.8010000D-01 0.8010000D-01 0.8010000D-01 0.8010000D-01
EXPONENTS  0.8010000D-01 0.3710000D-01 0.3710000D-01 0.3710000D-01 0.3710000D-01
EXPONENTS  0.3710000D-01 0.3710000D-01 0.1829000D+00 0.1829000D+00 0.1829000D+00
EXPONENTS  0.1829000D+00 0.1829000D+00 0.1829000D+00 0.1829000D+00 0.1829000D+00
EXPONENTS  0.1829000D+00 0.1829000D+00 0.8160000D-01 0.8160000D-01 0.8160000D-01
EXPONENTS  0.8160000D-01 0.8160000D-01 0.8160000D-01 0.8160000D-01 0.8160000D-01
EXPONENTS  0.8160000D-01 0.8160000D-01 0.3387000D+02 0.5095000D+01 0.1159000D+01
EXPONENTS  0.3258000D+00 0.1027000D+00 0.2526000D-01 0.1407000D+01 0.1407000D+01
EXPONENTS  0.1407000D+01 0.3880000D+00 0.3880000D+00 0.3880000D+00 0.1020000D+00
EXPONENTS  0.1020000D+00 0.1020000D+00 0.1057000D+01 0.1057000D+01 0.1057000D+01
EXPONENTS  0.1057000D+01 0.1057000D+01 0.1057000D+01 0.2470000D+00 0.2470000D+00
EXPONENTS  0.2470000D+00 0.2470000D+00 0.2470000D+00 0.2470000D+00
MO    1     MO 0.0        OCC NO =    2.0000000  ORB. ENERGY =   -2.446436
 -0.64366189D-01 -0.11963334D+00 -0.20373351D+00 -0.31772733D+00 -0.44388317D+00
 -0.52911690D+00 -0.50160109D+00 -0.31856740D+00 -0.78230782D-01 -0.81874204D-04
 -0.15138257D-03 -0.25528339D-03 -0.40677100D-03 -0.56700816D-03 -0.72246063D-03
 -0.71747798D-03 -0.64718206D-03 -0.37043491D-03  0.47205638D-02 -0.45098356D-03
  0.67793710D-05 -0.84498842D-20 -0.62004079D-20 -0.50915447D-20  0.75427671D-19
  0.55347779D-19  0.45449541D-19 -0.62496225D-02 -0.45858864D-02 -0.37657596D-02
 -0.22958900D-18  0.23617000D-18 -0.67265221D-03  0.25723322D-19 -0.37455611D-19
  0.85761594D-04 -0.17665672D-20  0.88699535D-20 -0.86040134D-05 -0.40638035D-03
 -0.40638035D-03  0.81276070D-03  0.21662202D-18 -0.27501045D-19 -0.12333444D-19
 -0.63267701D-04 -0.63267701D-04  0.12653540D-03 -0.99403494D-20  0.21841180D-18
 -0.99233584D-19  0.41223400D-05  0.41223400D-05 -0.82446801D-05 -0.20857081D-20
 -0.41072232D-20 -0.81843671D-20  0.65857068D-20 -0.11482999D-19 -0.14204179D-03
  0.67467282D-20  0.68640449D-19  0.21306268D-03 -0.26503849D-19 -0.34191453D-19
  0.21306268D-03 -0.12063996D-20  0.93161299D-20 -0.64609738D-20  0.24809920D-05
  0.87052515D-20 -0.11745686D-19 -0.37214880D-05 -0.36653641D-19  0.31128607D-19
 -0.37214880D-05 -0.11912225D-19 -0.14951291D-03 -0.26965269D-03 -0.39760273D-03
 -0.35120226D-02 -0.62583592D-02  0.19240400D-03  0.38422297D-18  0.45025545D-18
  0.11581799D-02  0.23698842D-19  0.11163988D-19 -0.35571591D-02  0.68846662D-18
 -0.44670414D-18 -0.13462818D-02  0.38753207D-03  0.38753207D-03 -0.77506415D-03
  0.33725051D-18  0.11041460D-17  0.11761819D-17  0.13026685D-03  0.13026685D-03
 -0.26053370D-03 -0.34444470D-19  0.22434038D-18 -0.10821254D-18
MO    2     MO 0.0        OCC NO =    2.0000000  ORB. ENERGY =   -0.301317
  0.10373404D-02  0.19280385D-02  0.32834165D-02  0.51205673D-02  0.71537239D-02
  0.85273704D-02  0.80839192D-02  0.51341059D-02  0.12607854D-02  0.61827944D-02
  0.11431773D-01  0.19277925D-01  0.30717630D-01  0.42818064D-01  0.54557178D-01
  0.54180909D-01  0.48872458D-01  0.27973682D-01 -0.29457932D-01 -0.25967649D-02
  0.10570985D-03  0.11544747D-16  0.84713753D-17  0.69563789D-17 -0.95565569D-17
 -0.70124690D-17 -0.57583792D-17  0.33219773D-01  0.24376209D-01  0.20016838D-01
  0.48182716D-17  0.78943794D-18  0.45013130D-02  0.18062252D-17  0.14080559D-17
 -0.87266301D-04 -0.61326859D-18 -0.10457263D-17  0.52532106D-05  0.13079371D-02
  0.13079371D-02 -0.26158742D-02 -0.82982026D-17  0.26292944D-17  0.27999392D-17
  0.23287136D-03  0.23287136D-03 -0.46574272D-03  0.32224387D-17  0.22599578D-17
  0.29341241D-17  0.15013567D-04  0.15013567D-04 -0.30027134D-04 -0.51468917D-18
 -0.19921764D-18 -0.10193682D-19 -0.18738704D-18 -0.36776722D-19  0.33436415D-03
 -0.18161919D-19  0.21866396D-18 -0.50154623D-03  0.58032304D-18 -0.10833379D-18
 -0.50154623D-03  0.18250117D-19  0.85503285D-19  0.21175749D-18  0.25857075D-04
  0.13928019D-18 -0.75811389D-19 -0.38785613D-04 -0.39579004D-18 -0.55946109D-18
 -0.38785613D-04 -0.70858636D-19 -0.42965483D-01 -0.77490019D-01 -0.11425899D+00
 -0.88312419D-01 -0.33948328D-01 -0.22310725D-02 -0.49851914D-17  0.13679507D-17
 -0.65702812D-02  0.11322888D-17 -0.22135233D-17 -0.44156929D-02 -0.51353642D-17
  0.10511020D-16 -0.30033341D-03  0.12568871D-02  0.12568871D-02 -0.25137743D-02
  0.50278689D-17 -0.15864915D-16 -0.15011054D-16  0.52012422D-03  0.52012422D-03
 -0.10402484D-02 -0.17969317D-17 -0.78795774D-18  0.13038481D-17
END DATA
RHF
