 Molden2AIM, Version 4.0.0 (06/02/2016)           Time: Wed Jun 27 19:36:05 2018
GAUSSIAN             12 MOL ORBITALS    274 PRIMITIVES        2 NUCLEI
  Mg   1    (CENTRE  1)   0.00000000  0.00000000  3.58422464  CHARGE = 12.0
  Mg   2    (CENTRE  2)   0.00000000  0.00000000 -3.58422464  CHARGE = 12.0
CENTRE ASSIGNMENTS    1  1  1  1  1  1  1  1  1  1  1  1  1  1  1  1  1  1  1  1
CENTRE ASSIGNMENTS    1  1  1  1  1  1  1  1  1  1  1  1  1  1  1  1  1  1  1  1
CENTRE ASSIGNMENTS    1  1  1  1  1  1  1  1  1  1  1  1  1  1  1  1  1  1  1  1
CENTRE ASSIGNMENTS    1  1  1  1  1  1  1  1  1  1  1  1  1  1  1  1  1  1  1  1
CENTRE ASSIGNMENTS    1  1  1  1  1  1  1  1  1  1  1  1  1  1  1  1  1  1  1  1
CENTRE ASSIGNMENTS    1  1  1  1  1  1  1  1  1  1  1  1  1  1  1  1  1  1  1  1
CENTRE ASSIGNMENTS    1  1  1  1  1  1  1  1  1  1  1  1  1  1  1  1  1  2  2  2
CENTRE ASSIGNMENTS    2  2  2  2  2  2  2  2  2  2  2  2  2  2  2  2  2  2  2  2
CENTRE ASSIGNMENTS    2  2  2  2  2  2  2  2  2  2  2  2  2  2  2  2  2  2  2  2
CENTRE ASSIGNMENTS    2  2  2  2  2  2  2  2  2  2  2  2  2  2  2  2  2  2  2  2
CENTRE ASSIGNMENTS    2  2  2  2  2  2  2  2  2  2  2  2  2  2  2  2  2  2  2  2
CENTRE ASSIGNMENTS    2  2  2  2  2  2  2  2  2  2  2  2  2  2  2  2  2  2  2  2
CENTRE ASSIGNMENTS    2  2  2  2  2  2  2  2  2  2  2  2  2  2  2  2  2  2  2  2
CENTRE ASSIGNMENTS    2  2  2  2  2  2  2  2  2  2  2  2  2  2
TYPE ASSIGNMENTS      1  1  1  1  1  1  1  1  1  1  1  1  1  1  1  1  1  1  1  1
TYPE ASSIGNMENTS      1  1  1  1  1  1  1  1  1  1  1  1  1  1  1  1  1  1  1  1
TYPE ASSIGNMENTS      1  1  2  2  2  2  2  2  2  2  3  3  3  3  3  3  3  3  4  4
TYPE ASSIGNMENTS      4  4  4  4  4  4  2  2  2  2  2  2  2  2  3  3  3  3  3  3
TYPE ASSIGNMENTS      3  3  4  4  4  4  4  4  4  4  2  3  4  2  3  4  2  3  4  5
TYPE ASSIGNMENTS      6  7  8  9 10  5  6  7  8  9 10  5  6  7  8  9 10 11 12 13
TYPE ASSIGNMENTS     17 14 15 18 19 16 20 11 12 13 17 14 15 18 19 16 20  1  1  1
TYPE ASSIGNMENTS      1  1  1  1  1  1  1  1  1  1  1  1  1  1  1  1  1  1  1  1
TYPE ASSIGNMENTS      1  1  1  1  1  1  1  1  1  1  1  1  1  1  1  1  1  1  1  2
TYPE ASSIGNMENTS      2  2  2  2  2  2  2  3  3  3  3  3  3  3  3  4  4  4  4  4
TYPE ASSIGNMENTS      4  4  4  2  2  2  2  2  2  2  2  3  3  3  3  3  3  3  3  4
TYPE ASSIGNMENTS      4  4  4  4  4  4  4  2  3  4  2  3  4  2  3  4  5  6  7  8
TYPE ASSIGNMENTS      9 10  5  6  7  8  9 10  5  6  7  8  9 10 11 12 13 17 14 15
TYPE ASSIGNMENTS     18 19 16 20 11 12 13 17 14 15 18 19 16 20
EXPONENTS  0.1649000D+06 0.2471000D+05 0.5628000D+04 0.1596000D+04 0.5210000D+03
EXPONENTS  0.1880000D+03 0.7301000D+02 0.2990000D+02 0.1254000D+02 0.4306000D+01
EXPONENTS  0.1826000D+01 0.7417000D+00 0.7612000D-01 0.1649000D+06 0.2471000D+05
EXPONENTS  0.5628000D+04 0.1596000D+04 0.5210000D+03 0.1880000D+03 0.7301000D+02
EXPONENTS  0.2990000D+02 0.1254000D+02 0.4306000D+01 0.1826000D+01 0.7417000D+00
EXPONENTS  0.7612000D-01 0.1649000D+06 0.2471000D+05 0.5628000D+04 0.1596000D+04
EXPONENTS  0.5210000D+03 0.1880000D+03 0.7301000D+02 0.2990000D+02 0.1254000D+02
EXPONENTS  0.4306000D+01 0.1826000D+01 0.7417000D+00 0.7612000D-01 0.1457000D+00
EXPONENTS  0.3310000D-01 0.1290000D-01 0.3169000D+03 0.7486000D+02 0.2372000D+02
EXPONENTS  0.8669000D+01 0.3363000D+01 0.1310000D+01 0.4911000D+00 0.2364000D+00
EXPONENTS  0.3169000D+03 0.7486000D+02 0.2372000D+02 0.8669000D+01 0.3363000D+01
EXPONENTS  0.1310000D+01 0.4911000D+00 0.2364000D+00 0.3169000D+03 0.7486000D+02
EXPONENTS  0.2372000D+02 0.8669000D+01 0.3363000D+01 0.1310000D+01 0.4911000D+00
EXPONENTS  0.2364000D+00 0.3169000D+03 0.7486000D+02 0.2372000D+02 0.8669000D+01
EXPONENTS  0.3363000D+01 0.1310000D+01 0.4911000D+00 0.2364000D+00 0.3169000D+03
EXPONENTS  0.7486000D+02 0.2372000D+02 0.8669000D+01 0.3363000D+01 0.1310000D+01
EXPONENTS  0.4911000D+00 0.2364000D+00 0.3169000D+03 0.7486000D+02 0.2372000D+02
EXPONENTS  0.8669000D+01 0.3363000D+01 0.1310000D+01 0.4911000D+00 0.2364000D+00
EXPONENTS  0.8733000D-01 0.8733000D-01 0.8733000D-01 0.3237000D-01 0.3237000D-01
EXPONENTS  0.3237000D-01 0.7450000D-02 0.7450000D-02 0.7450000D-02 0.1260000D+00
EXPONENTS  0.1260000D+00 0.1260000D+00 0.1260000D+00 0.1260000D+00 0.1260000D+00
EXPONENTS  0.2940000D+00 0.2940000D+00 0.2940000D+00 0.2940000D+00 0.2940000D+00
EXPONENTS  0.2940000D+00 0.4680000D-01 0.4680000D-01 0.4680000D-01 0.4680000D-01
EXPONENTS  0.4680000D-01 0.4680000D-01 0.2520000D+00 0.2520000D+00 0.2520000D+00
EXPONENTS  0.2520000D+00 0.2520000D+00 0.2520000D+00 0.2520000D+00 0.2520000D+00
EXPONENTS  0.2520000D+00 0.2520000D+00 0.9400000D-01 0.9400000D-01 0.9400000D-01
EXPONENTS  0.9400000D-01 0.9400000D-01 0.9400000D-01 0.9400000D-01 0.9400000D-01
EXPONENTS  0.9400000D-01 0.9400000D-01 0.1649000D+06 0.2471000D+05 0.5628000D+04
EXPONENTS  0.1596000D+04 0.5210000D+03 0.1880000D+03 0.7301000D+02 0.2990000D+02
EXPONENTS  0.1254000D+02 0.4306000D+01 0.1826000D+01 0.7417000D+00 0.7612000D-01
EXPONENTS  0.1649000D+06 0.2471000D+05 0.5628000D+04 0.1596000D+04 0.5210000D+03
EXPONENTS  0.1880000D+03 0.7301000D+02 0.2990000D+02 0.1254000D+02 0.4306000D+01
EXPONENTS  0.1826000D+01 0.7417000D+00 0.7612000D-01 0.1649000D+06 0.2471000D+05
EXPONENTS  0.5628000D+04 0.1596000D+04 0.5210000D+03 0.1880000D+03 0.7301000D+02
EXPONENTS  0.2990000D+02 0.1254000D+02 0.4306000D+01 0.1826000D+01 0.7417000D+00
EXPONENTS  0.7612000D-01 0.1457000D+00 0.3310000D-01 0.1290000D-01 0.3169000D+03
EXPONENTS  0.7486000D+02 0.2372000D+02 0.8669000D+01 0.3363000D+01 0.1310000D+01
EXPONENTS  0.4911000D+00 0.2364000D+00 0.3169000D+03 0.7486000D+02 0.2372000D+02
EXPONENTS  0.8669000D+01 0.3363000D+01 0.1310000D+01 0.4911000D+00 0.2364000D+00
EXPONENTS  0.3169000D+03 0.7486000D+02 0.2372000D+02 0.8669000D+01 0.3363000D+01
EXPONENTS  0.1310000D+01 0.4911000D+00 0.2364000D+00 0.3169000D+03 0.7486000D+02
EXPONENTS  0.2372000D+02 0.8669000D+01 0.3363000D+01 0.1310000D+01 0.4911000D+00
EXPONENTS  0.2364000D+00 0.3169000D+03 0.7486000D+02 0.2372000D+02 0.8669000D+01
EXPONENTS  0.3363000D+01 0.1310000D+01 0.4911000D+00 0.2364000D+00 0.3169000D+03
EXPONENTS  0.7486000D+02 0.2372000D+02 0.8669000D+01 0.3363000D+01 0.1310000D+01
EXPONENTS  0.4911000D+00 0.2364000D+00 0.8733000D-01 0.8733000D-01 0.8733000D-01
EXPONENTS  0.3237000D-01 0.3237000D-01 0.3237000D-01 0.7450000D-02 0.7450000D-02
EXPONENTS  0.7450000D-02 0.1260000D+00 0.1260000D+00 0.1260000D+00 0.1260000D+00
EXPONENTS  0.1260000D+00 0.1260000D+00 0.2940000D+00 0.2940000D+00 0.2940000D+00
EXPONENTS  0.2940000D+00 0.2940000D+00 0.2940000D+00 0.4680000D-01 0.4680000D-01
EXPONENTS  0.4680000D-01 0.4680000D-01 0.4680000D-01 0.4680000D-01 0.2520000D+00
EXPONENTS  0.2520000D+00 0.2520000D+00 0.2520000D+00 0.2520000D+00 0.2520000D+00
EXPONENTS  0.2520000D+00 0.2520000D+00 0.2520000D+00 0.2520000D+00 0.9400000D-01
EXPONENTS  0.9400000D-01 0.9400000D-01 0.9400000D-01 0.9400000D-01 0.9400000D-01
EXPONENTS  0.9400000D-01 0.9400000D-01 0.9400000D-01 0.9400000D-01
MO    1     MO 0.0        OCC NO =    2.0000000  ORB. ENERGY =  -49.031147
  0.30096202D+00  0.56271250D+00  0.96999022D+00  0.15644481D+01  0.23480165D+01
  0.31469147D+01  0.34587537D+01  0.25887991D+01  0.88876665D+00  0.50096687D-01
 -0.34930880D-02  0.82966850D-03  0.51712141D-04 -0.12200939D-04 -0.22886609D-04
 -0.39368982D-04 -0.64245373D-04 -0.97496915D-04 -0.13807263D-03 -0.16694115D-03
 -0.16484748D-03 -0.82446370D-04  0.46165803D-04  0.73722763D-04  0.24061516D-04
 -0.13995862D-06  0.65412377D-05  0.12260971D-04  0.21117652D-04  0.34424260D-04
  0.52406110D-04  0.74265733D-04  0.90753813D-04  0.90869803D-04  0.47448749D-04
 -0.29543323D-04 -0.53415925D-04 -0.39153143D-04  0.17848705D-04 -0.11219311D-03
 -0.10196933D-04  0.52445284D-05 -0.49118452D-15 -0.63483010D-15 -0.68448903D-15
 -0.56426635D-15 -0.30807311D-15 -0.98780947D-16 -0.11125364D-16  0.12766854D-18
 -0.12033845D-15 -0.15553110D-15 -0.16769736D-15 -0.13824323D-15 -0.75476809D-16
 -0.24200978D-16 -0.27256742D-17  0.31278336D-19  0.10631035D-03  0.13740052D-03
  0.14814853D-03  0.12212794D-03  0.66678322D-04  0.21379820D-04  0.24079368D-05
 -0.27632156D-07  0.26183112D-15  0.33838672D-15  0.37033265D-15  0.30940322D-15
  0.17309352D-15  0.58633338D-16  0.91764511D-17 -0.17332135D-16  0.15486383D-15
  0.20014375D-15  0.21903864D-15  0.18300104D-15  0.10237868D-15  0.34679542D-16
  0.54275456D-17 -0.10251344D-16 -0.11247812D-03 -0.14536509D-03 -0.15908850D-03
 -0.13291428D-03 -0.74357983D-04 -0.25187869D-04 -0.39420448D-05  0.74455855D-05
  0.28939503D-16  0.15343294D-16 -0.63369985D-05 -0.81605059D-17 -0.79706705D-17
 -0.15757689D-05 -0.64389958D-19  0.11497912D-18 -0.89642098D-07 -0.10456944D-05
 -0.10456944D-05  0.20913888D-05  0.37635024D-17 -0.43490179D-17 -0.47646223D-17
  0.12815681D-05  0.12815681D-05 -0.25631361D-05 -0.98059166D-17  0.64732581D-17
  0.65116425D-17 -0.17045723D-06 -0.17045723D-06  0.34091446D-06 -0.91915625D-18
  0.11625349D-17  0.38807520D-17 -0.15756454D-18 -0.51915652D-18 -0.17844319D-06
 -0.15940288D-18 -0.51838980D-18  0.26766478D-06  0.63209651D-18  0.20758594D-17
  0.26766478D-06 -0.52841527D-18  0.95770616D-19  0.34085887D-18 -0.18223451D-06
  0.95788100D-19  0.34084678D-18  0.27335176D-06 -0.38309995D-18 -0.13634234D-17
  0.27335176D-06  0.32763534D-18 -0.30108472D+00 -0.56294192D+00 -0.97038569D+00
 -0.15650859D+01 -0.23489739D+01 -0.31481977D+01 -0.34601639D+01 -0.25898546D+01
 -0.88912900D+00 -0.50117112D-01  0.34945122D-02 -0.83000676D-03 -0.51733224D-04
  0.12203095D-04  0.22890654D-04  0.39375940D-04  0.64256728D-04  0.97514146D-04
  0.13809704D-03  0.16697065D-03  0.16487662D-03  0.82460941D-04 -0.46173962D-04
 -0.73735792D-04 -0.24065769D-04  0.13998336D-06 -0.65423449D-05 -0.12263046D-04
 -0.21121226D-04 -0.34430087D-04 -0.52414980D-04 -0.74278304D-04 -0.90769174D-04
 -0.90885184D-04 -0.47456780D-04  0.29548324D-04  0.53424966D-04  0.39159770D-04
 -0.17851726D-04  0.11223540D-03  0.10202154D-04 -0.52450982D-05  0.69618091D-16
  0.89977712D-16  0.97016126D-16  0.79976350D-16  0.43664775D-16  0.14000728D-16
  0.15768546D-17 -0.18095115D-19 -0.30220627D-15 -0.39058567D-15 -0.42113883D-15
 -0.34717060D-15 -0.18954511D-15 -0.60775981D-16 -0.68449930D-17  0.78549369D-19
  0.10631747D-03  0.13740972D-03  0.14815846D-03  0.12213611D-03  0.66682788D-04
  0.21381252D-04  0.24080980D-05 -0.27634007D-07  0.73546147D-16  0.95049966D-16
  0.10402331D-15  0.86908748D-16  0.48620504D-16  0.16469609D-16  0.25775875D-17
 -0.48684500D-17  0.42681562D-15  0.55161027D-15  0.60368591D-15  0.50436376D-15
  0.28216285D-15  0.95579259D-16  0.14958698D-16 -0.28253425D-16 -0.11248933D-03
 -0.14537957D-03 -0.15910436D-03 -0.13292752D-03 -0.74365393D-04 -0.25190379D-04
 -0.39424376D-05  0.74463275D-05  0.13394166D-17  0.18686145D-17 -0.63369189D-05
  0.14716833D-17  0.72022765D-17 -0.15758138D-05 -0.18371626D-18 -0.42291986D-18
 -0.89644469D-07  0.10457088D-05  0.10457088D-05 -0.20914176D-05 -0.97773701D-18
  0.37677786D-17 -0.48957229D-17 -0.12818371D-05 -0.12818371D-05  0.25636742D-05
  0.35196852D-16 -0.43676010D-17  0.80153168D-17  0.17045576D-06  0.17045576D-06
 -0.34091152D-06 -0.31392546D-18  0.37179225D-19  0.37882903D-17  0.38342430D-18
  0.37444787D-18 -0.17832703D-06  0.38553638D-18  0.37590505D-18  0.26749055D-06
 -0.15358093D-17 -0.14992487D-17  0.26749055D-06 -0.60499064D-19 -0.38439825D-18
 -0.19768550D-18 -0.18225783D-06 -0.38450075D-18 -0.19772746D-18  0.27338675D-06
  0.15376955D-17  0.79078395D-18  0.27338675D-06 -0.29229152D-18
MO    2     MO 0.0        OCC NO =    2.0000000  ORB. ENERGY =  -49.031147
  0.30108139D+00  0.56293569D+00  0.97037494D+00  0.15650686D+01  0.23489478D+01
  0.31481629D+01  0.34601255D+01  0.25898259D+01  0.88911916D+00  0.50116557D-01
 -0.34944735D-02  0.82999757D-03  0.51732651D-04 -0.52925059D-05 -0.99277203D-05
 -0.17077421D-04 -0.27868266D-04 -0.42292072D-04 -0.59892949D-04 -0.72415493D-04
 -0.71507305D-04 -0.35763468D-04  0.20025736D-04  0.31979354D-04  0.10437370D-04
 -0.60711051D-07  0.27174557D-05  0.50936299D-05  0.87730006D-05  0.14301025D-04
  0.21771305D-04  0.30852546D-04  0.37702263D-04  0.37750449D-04  0.19711846D-04
 -0.12273315D-04 -0.22190817D-04 -0.16265565D-04  0.74149675D-05 -0.10377463D-03
 -0.12812366D-04  0.13989552D-05  0.49148533D-15  0.63521888D-15  0.68490823D-15
  0.56461191D-15  0.30826178D-15  0.98841442D-16  0.11132177D-16 -0.12774673D-18
  0.12193949D-15  0.15760037D-15  0.16992849D-15  0.14008249D-15  0.76480991D-16
  0.24522960D-16  0.27619380D-17 -0.31694479D-19  0.17489091D-04  0.22603728D-04
  0.24371881D-04  0.20091239D-04  0.10969235D-04  0.35171893D-05  0.39612913D-06
 -0.45457596D-08 -0.26163603D-15 -0.33813458D-15 -0.37005670D-15 -0.30917268D-15
 -0.17296454D-15 -0.58589649D-16 -0.91696135D-17  0.17319220D-16 -0.15529713D-15
 -0.20070374D-15 -0.21965150D-15 -0.18351307D-15 -0.10266513D-15 -0.34776573D-16
 -0.54427316D-17  0.10280026D-16 -0.27519988D-04 -0.35566430D-04 -0.38924135D-04
 -0.32520095D-04 -0.18193144D-04 -0.61627080D-05 -0.96449886D-06  0.18217091D-05
 -0.28928319D-16 -0.15344619D-16  0.19394172D-06  0.81574350D-17  0.79680660D-17
 -0.11051789D-06  0.64400689D-19 -0.11495407D-18 -0.58357007D-08 -0.35507316D-07
 -0.35507316D-07  0.71014631D-07 -0.37621506D-17  0.43472680D-17  0.47604503D-17
  0.66026975D-06  0.66026975D-06 -0.13205395D-05  0.98016955D-17 -0.64684778D-17
 -0.64996533D-17  0.35822819D-08  0.35822819D-08 -0.71645638D-08  0.91882637D-18
 -0.11620563D-17 -0.38789742D-17  0.15836003D-18  0.51815921D-18  0.28491105D-06
  0.15637151D-18  0.51904746D-18 -0.42736657D-06 -0.63145159D-18 -0.20735251D-17
 -0.42736657D-06  0.53816770D-18 -0.95760395D-19 -0.34070643D-18 -0.57252639D-07
 -0.95705889D-19 -0.34072436D-18  0.85878958D-07  0.38298707D-18  0.13628437D-17
  0.85878958D-07 -0.32810618D-18  0.30095868D+00  0.56270626D+00  0.96997947D+00
  0.15644308D+01  0.23479905D+01  0.31468798D+01  0.34587154D+01  0.25887704D+01
  0.88875680D+00  0.50096132D-01 -0.34930493D-02  0.82965930D-03  0.51711568D-04
 -0.52875321D-05 -0.99183904D-05 -0.17061371D-04 -0.27842076D-04 -0.42252327D-04
 -0.59836663D-04 -0.72347438D-04 -0.71440103D-04 -0.35729858D-04  0.20006916D-04
  0.31949301D-04  0.10427561D-04 -0.60653995D-07  0.27147891D-05  0.50886317D-05
  0.87643918D-05  0.14286991D-04  0.21749941D-04  0.30822271D-04  0.37665267D-04
  0.37713406D-04  0.19692504D-04 -0.12261272D-04 -0.22169042D-04 -0.16249604D-04
  0.74076914D-05 -0.10372888D-03 -0.12808209D-04  0.13968172D-05 -0.69584414D-16
 -0.89934187D-16 -0.96969197D-16 -0.79937664D-16 -0.43643654D-16 -0.13993955D-16
 -0.15760918D-17  0.18086362D-19  0.30210309D-15  0.39045231D-15  0.42099504D-15
  0.34705207D-15  0.18948040D-15  0.60755230D-16  0.68426559D-17 -0.78522550D-19
 -0.17445753D-04 -0.22547715D-04 -0.24311487D-04 -0.20041452D-04 -0.10942053D-04
 -0.35084736D-05 -0.39514751D-06  0.45344951D-08 -0.73547378D-16 -0.95051557D-16
 -0.10402505D-15 -0.86910202D-16 -0.48621318D-16 -0.16469884D-16 -0.25776306D-17
  0.48685315D-17 -0.42667678D-15 -0.55143084D-15 -0.60348953D-15 -0.50419970D-15
 -0.28207107D-15 -0.95548168D-16 -0.14953832D-16  0.28244234D-16  0.27474134D-04
  0.35507170D-04  0.38859280D-04  0.32465910D-04  0.18162831D-04  0.61524397D-05
  0.96289183D-06 -0.18186738D-05 -0.13391088D-17 -0.18680544D-17 -0.19652495D-06
 -0.14710636D-17 -0.71994526D-17  0.10987541D-06  0.18362620D-18  0.42276835D-18
  0.57991591D-08 -0.35081053D-07 -0.35081053D-07  0.70162106D-07  0.97692832D-18
 -0.37655905D-17  0.48936806D-17  0.65974728D-06  0.65974728D-06 -0.13194946D-05
 -0.35182374D-16  0.43650892D-17 -0.80101161D-17  0.36517765D-08  0.36517765D-08
 -0.73035531D-08  0.31381880D-18 -0.37374138D-19 -0.37867892D-17 -0.38320808D-18
 -0.37426972D-18 -0.28498376D-06 -0.38560058D-18 -0.37564480D-18  0.42747564D-06
  0.15352248D-17  0.14984540D-17  0.42747564D-06  0.60625828D-19  0.38424117D-18
  0.19758296D-18  0.57178345D-07  0.38437611D-18  0.19760990D-18 -0.85767518D-07
 -0.15370996D-17 -0.79035880D-18 -0.85767518D-07  0.29211901D-18
MO    3     MO 0.0        OCC NO =    2.0000000  ORB. ENERGY =   -3.767328
  0.25777681D-04  0.48196857D-04  0.83080578D-04  0.13399646D-03  0.20110983D-03
  0.26953622D-03  0.29624552D-03  0.22173309D-03  0.76123702D-04  0.42908286D-05
 -0.29918628D-06  0.71061890D-07  0.44291937D-08  0.75929581D-01  0.14242925D+00
  0.24500330D+00  0.39981548D+00  0.60674837D+00  0.85926150D+00  0.10389177D+01
  0.10258883D+01  0.51308496D+00 -0.28730166D+00 -0.45879571D+00 -0.14974100D+00
  0.87099849D-03  0.26088489D-04  0.48900561D-04  0.84223757D-04  0.13729465D-03
  0.20901185D-03  0.29619482D-03  0.36195441D-03  0.36241702D-03  0.18924036D-03
 -0.11782795D-03 -0.21303931D-03 -0.15615490D-03  0.71186183D-04 -0.25646839D-02
 -0.16246001D-03  0.16277395D-04 -0.54306282D-15 -0.70188007D-15 -0.75678391D-15
 -0.62386345D-15 -0.34061141D-15 -0.10921407D-15 -0.12300411D-16  0.14115274D-18
  0.30567279D-15  0.39506596D-15  0.42596959D-15  0.35115289D-15  0.19171933D-15
  0.61473125D-16  0.69235099D-17 -0.79450386D-19  0.15197084D-02  0.19641430D-02
  0.21177860D-02  0.17458211D-02  0.95316784D-03  0.30562492D-03  0.34421500D-04
 -0.39500218D-06  0.57864554D-15  0.74783304D-15  0.81843339D-15  0.68377966D-15
  0.38253585D-15  0.12957940D-15  0.20279913D-16 -0.38303936D-16 -0.31458023D-15
 -0.40655889D-15 -0.44494072D-15 -0.37173632D-15 -0.20796534D-15 -0.70445747D-16
 -0.11025160D-16  0.20823907D-16 -0.50546389D-03 -0.65325414D-03 -0.71492562D-03
 -0.59730163D-03 -0.33415631D-03 -0.11319141D-03 -0.17715100D-04  0.33459614D-04
  0.11997045D-16 -0.10066572D-16  0.40647473D-05  0.30419187D-18  0.83856426D-18
 -0.20363323D-05  0.10252625D-18 -0.45657497D-19 -0.70348351D-07  0.19934628D-06
  0.19934628D-06 -0.39869256D-06  0.10249606D-17 -0.11918631D-17 -0.77708479D-19
  0.45914609D-05  0.45914609D-05 -0.91829218D-05 -0.26135082D-18 -0.82028765D-18
 -0.64240821D-17 -0.16111674D-06 -0.16111674D-06  0.32223348D-06 -0.17169605D-18
 -0.25579444D-18 -0.47764977D-18 -0.23457005D-19  0.76379415D-20  0.16984921D-05
  0.14653340D-18 -0.70072944D-19 -0.25477381D-05 -0.76162385D-19  0.47159119D-19
 -0.25477381D-05 -0.37674727D-18 -0.12475385D-18 -0.14511921D-18 -0.80599590D-06
 -0.12861991D-18 -0.14415263D-18  0.12089939D-05  0.50288145D-18  0.57951026D-18
  0.12089939D-05  0.43519249D-19  0.25777851D-04  0.48197174D-04  0.83081125D-04
  0.13399734D-03  0.20111116D-03  0.26953799D-03  0.29624747D-03  0.22173455D-03
  0.76124204D-04  0.42908568D-05 -0.29918826D-06  0.71062358D-07  0.44292229D-08
  0.75929879D-01  0.14242981D+00  0.24500426D+00  0.39981705D+00  0.60675075D+00
  0.85926487D+00  0.10389218D+01  0.10258923D+01  0.51308697D+00 -0.28730279D+00
 -0.45879751D+00 -0.14974159D+00  0.87100191D-03  0.26088681D-04  0.48900922D-04
  0.84224379D-04  0.13729566D-03  0.20901339D-03  0.29619701D-03  0.36195708D-03
  0.36241969D-03  0.18924175D-03 -0.11782882D-03 -0.21304088D-03 -0.15615605D-03
  0.71186709D-04 -0.25646940D-02 -0.16246071D-03  0.16277623D-04 -0.26599740D-15
 -0.34378761D-15 -0.37068004D-15 -0.30557432D-15 -0.16683475D-15 -0.53494101D-16
 -0.60248595D-17  0.69137969D-19  0.29936928D-15  0.38691901D-15  0.41718535D-15
  0.34391150D-15  0.18776574D-15  0.60205440D-16  0.67807349D-17 -0.77811978D-19
 -0.15197134D-02 -0.19641495D-02 -0.21177931D-02 -0.17458269D-02 -0.95317102D-03
 -0.30562594D-03 -0.34421615D-04  0.39500349D-06  0.48861906D-15  0.63148413D-15
  0.69110038D-15  0.57739626D-15  0.32302039D-15  0.10941925D-15  0.17124736D-16
 -0.32344556D-16 -0.39409103D-15 -0.50931748D-15 -0.55740040D-15 -0.46569343D-15
 -0.26052900D-15 -0.88251053D-16 -0.13811792D-16  0.26087192D-16  0.50546485D-03
  0.65325539D-03  0.71492699D-03  0.59730277D-03  0.33415695D-03  0.11319163D-03
  0.17715134D-04 -0.33459678D-04  0.73907799D-17 -0.86461128D-17 -0.40646870D-05
 -0.18786387D-17  0.35107523D-18  0.20363685D-05  0.75759724D-19 -0.19889248D-18
  0.70352226D-07  0.19934527D-06  0.19934527D-06 -0.39869055D-06 -0.65051108D-18
 -0.60996899D-18  0.27888405D-18  0.45914424D-05  0.45914424D-05 -0.91828849D-05
  0.35017231D-17 -0.11904099D-17 -0.62421785D-17 -0.16112074D-06 -0.16112074D-06
  0.32224148D-06  0.28889590D-18 -0.35729373D-18 -0.43094173D-18 -0.21655358D-18
  0.87440647D-19 -0.16984997D-05 -0.30120150D-19  0.20187457D-18  0.25477496D-05
  0.67978089D-18 -0.46419651D-18  0.25477496D-05  0.28339125D-18  0.15271174D-18
  0.10046367D-18  0.80599745D-06  0.14214425D-18  0.99296305D-19 -0.12089962D-05
 -0.60027947D-18 -0.40068731D-18 -0.12089962D-05 -0.36640439D-19
MO    4     MO 0.0        OCC NO =    2.0000000  ORB. ENERGY =   -3.767327
  0.43238272D-04  0.80843146D-04  0.13935546D-03  0.22475937D-03  0.33733220D-03
  0.45210740D-03  0.49690833D-03  0.37192468D-03  0.12768633D-03  0.71972345D-05
 -0.50184104D-06  0.11919588D-06  0.74293217D-08  0.75892565D-01  0.14235982D+00
  0.24488386D+00  0.39962057D+00  0.60645258D+00  0.85884261D+00  0.10384112D+01
  0.10253881D+01  0.51283483D+00 -0.28716160D+00 -0.45857205D+00 -0.14966800D+00
  0.87057388D-03  0.49011336D-04  0.91867408D-04  0.15822760D-03  0.25792962D-03
  0.39266169D-03  0.55644864D-03  0.67998838D-03  0.68085745D-03  0.35551782D-03
 -0.22135837D-03 -0.40022790D-03 -0.29336158D-03  0.13373446D-03 -0.25828408D-02
 -0.17780979D-03  0.58222949D-04  0.15606189D-15  0.20170177D-15  0.21747968D-15
  0.17928186D-15  0.97882713D-16  0.31385235D-16  0.35348128D-17 -0.40563564D-19
  0.14489226D-14  0.18726561D-14  0.20191427D-14  0.16645033D-14  0.90877070D-15
  0.29138937D-15  0.32818198D-16 -0.37660356D-18  0.12925855D-02  0.16705986D-02
  0.18012795D-02  0.14849053D-02  0.81071537D-03  0.25994879D-03  0.29277152D-04
 -0.33596846D-06 -0.35958681D-15 -0.46472474D-15 -0.50859780D-15 -0.42492014D-15
 -0.23771866D-15 -0.80524326D-16 -0.12602515D-16  0.23803156D-16 -0.69402154D-15
 -0.89694329D-15 -0.98162063D-15 -0.82011832D-15 -0.45880958D-15 -0.15541620D-15
 -0.24323520D-16  0.45941348D-16 -0.24816235D-03 -0.32072139D-03 -0.35099960D-03
 -0.29325097D-03 -0.16405725D-03 -0.55572411D-04 -0.86973985D-05  0.16427318D-04
 -0.78932297D-17 -0.12366510D-16 -0.15433024D-04  0.46942633D-19 -0.12903967D-17
 -0.93274055D-05 -0.95383844D-19  0.74733157D-19 -0.98768385D-06 -0.25911306D-06
 -0.25911306D-06  0.51822613D-06 -0.15440336D-17  0.92354179D-18 -0.12665811D-18
 -0.47052901D-05 -0.47052901D-05  0.94105802D-05  0.25217716D-18  0.21371803D-17
  0.61077941D-17 -0.10271244D-05 -0.10271244D-05  0.20542489D-05  0.40979810D-18
  0.24259934D-18  0.42999426D-18 -0.62706491D-19  0.56062791D-19  0.19532939D-05
  0.92468038D-19 -0.11882632D-19 -0.29299409D-05  0.95651437D-19 -0.15630574D-18
 -0.29299409D-05 -0.52586985D-18  0.14212138D-18  0.14447788D-18 -0.39789030D-06
  0.14236421D-18  0.14513300D-18  0.59683545D-06 -0.56872834D-18 -0.57856665D-18
  0.59683545D-06  0.42979796D-21 -0.43238171D-04 -0.80842957D-04 -0.13935514D-03
 -0.22475884D-03 -0.33733141D-03 -0.45210634D-03 -0.49690717D-03 -0.37192381D-03
 -0.12768603D-03 -0.71972177D-05  0.50183986D-06 -0.11919560D-06 -0.74293043D-08
 -0.75892267D-01 -0.14235926D+00 -0.24488290D+00 -0.39961900D+00 -0.60645020D+00
 -0.85883924D+00 -0.10384072D+01 -0.10253841D+01 -0.51283281D+00  0.28716047D+00
  0.45857024D+00  0.14966742D+00 -0.87057046D-03 -0.49011234D-04 -0.91867215D-04
 -0.15822726D-03 -0.25792908D-03 -0.39266087D-03 -0.55644747D-03 -0.67998696D-03
 -0.68085603D-03 -0.35551708D-03  0.22135791D-03  0.40022707D-03  0.29336097D-03
 -0.13373418D-03  0.25828307D-02  0.17780915D-03 -0.58222885D-04  0.29802059D-15
  0.38517590D-15  0.41530589D-15  0.34236215D-15  0.18691984D-15  0.59934209D-16
  0.67501870D-17 -0.77461428D-19  0.49060222D-15  0.63407751D-15  0.68367757D-15
  0.56359740D-15  0.30770789D-15  0.98663841D-16  0.11112174D-16 -0.12751719D-18
  0.12925795D-02  0.16705909D-02  0.18012712D-02  0.14848984D-02  0.81071163D-03
  0.25994759D-03  0.29277017D-04 -0.33596691D-06 -0.46996010D-15 -0.60736957D-15
 -0.66470924D-15 -0.55534716D-15 -0.31068517D-15 -0.10524085D-15 -0.16470792D-16
  0.31109410D-16  0.42890473D-15  0.55431021D-15  0.60664073D-15  0.50683244D-15
  0.28354394D-15  0.96047085D-16  0.15031915D-16 -0.28391715D-16 -0.24816036D-03
 -0.32071883D-03 -0.35099679D-03 -0.29324862D-03 -0.16405593D-03 -0.55571966D-04
 -0.86973290D-05  0.16427187D-04 -0.69774718D-17  0.97643687D-17 -0.15433040D-04
  0.17402398D-17 -0.58186212D-18 -0.93273975D-05 -0.97401891D-19  0.19286774D-18
 -0.98768357D-06  0.25911384D-06  0.25911384D-06 -0.51822769D-06  0.10226216D-17
  0.80608854D-18  0.89009788D-19  0.47053081D-05  0.47053081D-05 -0.94106163D-05
 -0.51546879D-17  0.63993552D-18  0.51880806D-17  0.10271238D-05  0.10271238D-05
 -0.20542476D-05 -0.35629740D-18  0.33111403D-18  0.31653546D-18  0.22123371D-18
 -0.83920178D-19  0.19532872D-05  0.59978720D-19 -0.20590914D-18 -0.29299309D-05
 -0.72367985D-18  0.45766967D-18 -0.29299309D-05 -0.35685701D-18 -0.16785170D-18
 -0.95355345D-19 -0.39788714D-06 -0.16053907D-18 -0.92654758D-19  0.59683071D-06
  0.66409418D-18  0.37872079D-18  0.59683071D-06  0.46899442D-19
MO    5     MO 0.0        OCC NO =    2.0000000  ORB. ENERGY =   -2.281837
 -0.27203292D-04 -0.50862340D-04 -0.87675274D-04 -0.14140701D-03 -0.21223203D-03
 -0.28444267D-03 -0.31262911D-03 -0.23399584D-03 -0.80333655D-04 -0.45281290D-05
  0.31573251D-06 -0.74991904D-07 -0.46741462D-08  0.87135669D-04  0.16344971D-03
  0.28116218D-03  0.45882235D-03  0.69629549D-03  0.98607584D-03  0.11922466D-02
  0.11772943D-02  0.58880874D-03 -0.32970315D-03 -0.52650720D-03 -0.17184057D-03
  0.99954504D-06 -0.28506823D-04 -0.53433514D-04 -0.92031077D-04 -0.15002150D-03
 -0.22838670D-03 -0.32365130D-03 -0.39550663D-03 -0.39601211D-03 -0.20678244D-03
  0.12875029D-03  0.23278749D-03  0.17063005D-03 -0.77784954D-04  0.34926446D-04
  0.45011086D-04 -0.91864569D-05 -0.33644903D-11 -0.43484263D-11 -0.46885775D-11
 -0.38650823D-11 -0.21102232D-11 -0.67662460D-12 -0.76205938D-13  0.87449737D-15
  0.63561171D-10  0.82149463D-10  0.88575520D-10  0.73018241D-10  0.39865849D-10
  0.12782635D-10  0.14396649D-11 -0.16520802D-13 -0.27955437D+01 -0.36130929D+01
 -0.38957234D+01 -0.32114840D+01 -0.17533774D+01 -0.56220513D+00 -0.63319260D-01
  0.72661695D-03  0.16799460D-14  0.21711377D-14  0.23761073D-14  0.19851754D-14
  0.11105928D-14  0.37619990D-15  0.58877424D-16 -0.11120546D-15  0.12369559D-13
  0.15986238D-13  0.17495444D-13  0.14616985D-13  0.81773721D-14  0.27699860D-14
  0.43351858D-15 -0.81881354D-15 -0.12445163D-02 -0.16083947D-02 -0.17602378D-02
 -0.14706325D-02 -0.82273531D-03 -0.27869165D-03 -0.43616829D-04  0.82381822D-04
 -0.31031791D-15  0.75892406D-14 -0.31191040D-03  0.20366376D-16 -0.59840358D-15
  0.24602752D-04  0.14557433D-18  0.35986546D-16 -0.11631534D-05 -0.21264887D-05
 -0.21264887D-05  0.42529773D-05 -0.41149501D-17 -0.30676096D-16 -0.26773515D-15
  0.89844561D-05  0.89844561D-05 -0.17968912D-04  0.14364672D-16  0.80724042D-16
 -0.21347012D-15 -0.88308882D-07 -0.88308882D-07  0.17661776D-06  0.26166008D-18
 -0.37977973D-17 -0.84511080D-16  0.35070613D-17  0.52378955D-16  0.64828903D-05
  0.35003428D-17  0.52385623D-16 -0.97243355D-05 -0.14021527D-16 -0.20952249D-15
 -0.97243355D-05 -0.14735484D-18 -0.30399440D-17 -0.35640481D-16 -0.26462658D-05
 -0.30384313D-17 -0.35640800D-16  0.39693987D-05  0.12158263D-16  0.14256224D-15
  0.39693987D-05  0.81139381D-19 -0.27203289D-04 -0.50862335D-04 -0.87675265D-04
 -0.14140699D-03 -0.21223201D-03 -0.28444264D-03 -0.31262908D-03 -0.23399581D-03
 -0.80333646D-04 -0.45281285D-05  0.31573248D-06 -0.74991896D-07 -0.46741457D-08
  0.87135663D-04  0.16344970D-03  0.28116216D-03  0.45882232D-03  0.69629545D-03
  0.98607578D-03  0.11922466D-02  0.11772942D-02  0.58880870D-03 -0.32970313D-03
 -0.52650716D-03 -0.17184056D-03  0.99954498D-06 -0.28506819D-04 -0.53433507D-04
 -0.92031064D-04 -0.15002148D-03 -0.22838667D-03 -0.32365126D-03 -0.39550657D-03
 -0.39601206D-03 -0.20678241D-03  0.12875028D-03  0.23278746D-03  0.17063002D-03
 -0.77784944D-04  0.34926452D-04  0.45011040D-04 -0.91864656D-05 -0.10107985D-10
 -0.13064038D-10 -0.14085959D-10 -0.11611921D-10 -0.63397732D-11 -0.20327928D-11
 -0.22894657D-12  0.26272647D-14 -0.49454434D-10 -0.63917249D-10 -0.68917110D-10
 -0.56812606D-10 -0.31018041D-10 -0.99456632D-11 -0.11201464D-11  0.12854183D-13
  0.27955438D+01  0.36130930D+01  0.38957235D+01  0.32114841D+01  0.17533775D+01
  0.56220515D+00  0.63319262D-01 -0.72661697D-03 -0.81302333D-15 -0.10507395D-14
 -0.11499362D-14 -0.96074156D-15 -0.53748029D-15 -0.18206496D-15 -0.28494202D-16
  0.53818774D-16 -0.12277403D-13 -0.15867136D-13 -0.17365098D-13 -0.14508084D-13
 -0.81164485D-14 -0.27493489D-14 -0.43028875D-15  0.81271317D-15  0.12445163D-02
  0.16083947D-02  0.17602377D-02  0.14706325D-02  0.82273528D-03  0.27869164D-03
  0.43616828D-04 -0.82381820D-04 -0.11569836D-14 -0.60142004D-14  0.31191041D-03
  0.94278625D-16  0.46767874D-15 -0.24602766D-04 -0.39915931D-17 -0.31903695D-16
  0.11631533D-05 -0.21264891D-05 -0.21264891D-05  0.42529781D-05 -0.84710579D-18
 -0.41846745D-17 -0.29963862D-15  0.89844563D-05  0.89844563D-05 -0.17968913D-04
  0.21156215D-17 -0.94459966D-16 -0.22199734D-16 -0.88307936D-07 -0.88307936D-07
  0.17661587D-06  0.16057080D-18 -0.46042116D-17 -0.84484030D-16 -0.39434572D-17
 -0.51896411D-16 -0.64828899D-05 -0.39577783D-17 -0.51904686D-16  0.97243349D-05
  0.15788150D-16  0.20759392D-15  0.97243349D-05 -0.19562988D-19  0.18687873D-17
  0.36747181D-16  0.26462656D-05  0.18693931D-17  0.36747221D-16 -0.39693983D-05
 -0.74757551D-17 -0.14698876D-15 -0.39693983D-05 -0.39012180D-19
MO    6     MO 0.0        OCC NO =    2.0000000  ORB. ENERGY =   -2.281794
  0.22634904D-04  0.42320766D-04  0.72951515D-04  0.11765980D-03  0.17659082D-03
  0.23667475D-03  0.26012770D-03  0.19469972D-03  0.66842812D-04  0.37676970D-05
 -0.26270993D-06  0.62398128D-07  0.38891929D-08 -0.76999014D-04 -0.14443530D-03
 -0.24845405D-03 -0.40544669D-03 -0.61529414D-03 -0.87136380D-03 -0.10535504D-02