 Molden2AIM, Version 4.0.0 (06/02/2016)           Time: Sun Jun 24 19:48:11 2018
GAUSSIAN             23 MOL ORBITALS    279 PRIMITIVES        2 NUCLEI
  Mg   1    (CENTRE  1)   0.00000000  0.00000000 -0.71579235  CHARGE = 12.0
  Se   2    (CENTRE  2)   0.00000000  0.00000000  3.55038154  CHARGE = 34.0
CENTRE ASSIGNMENTS    1  1  1  1  1  1  1  1  1  1  1  1  1  1  1  1  1  1  1  1
CENTRE ASSIGNMENTS    1  1  1  1  1  1  1  1  1  1  1  1  1  1  1  1  1  1  1  1
CENTRE ASSIGNMENTS    1  1  1  1  1  1  1  1  1  1  1  1  1  1  1  1  1  1  1  1
CENTRE ASSIGNMENTS    1  1  1  1  1  1  1  1  1  1  1  1  1  1  1  1  1  1  1  1
CENTRE ASSIGNMENTS    1  1  1  1  1  1  1  1  1  1  2  2  2  2  2  2  2  2  2  2
CENTRE ASSIGNMENTS    2  2  2  2  2  2  2  2  2  2  2  2  2  2  2  2  2  2  2  2
CENTRE ASSIGNMENTS    2  2  2  2  2  2  2  2  2  2  2  2  2  2  2  2  2  2  2  2
CENTRE ASSIGNMENTS    2  2  2  2  2  2  2  2  2  2  2  2  2  2  2  2  2  2  2  2
CENTRE ASSIGNMENTS    2  2  2  2  2  2  2  2  2  2  2  2  2  2  2  2  2  2  2  2
CENTRE ASSIGNMENTS    2  2  2  2  2  2  2  2  2  2  2  2  2  2  2  2  2  2  2  2
CENTRE ASSIGNMENTS    2  2  2  2  2  2  2  2  2  2  2  2  2  2  2  2  2  2  2  2
CENTRE ASSIGNMENTS    2  2  2  2  2  2  2  2  2  2  2  2  2  2  2  2  2  2  2  2
CENTRE ASSIGNMENTS    2  2  2  2  2  2  2  2  2  2  2  2  2  2  2  2  2  2  2  2
CENTRE ASSIGNMENTS    2  2  2  2  2  2  2  2  2  2  2  2  2  2  2  2  2  2  2
TYPE ASSIGNMENTS      1  1  1  1  1  1  1  1  1  1  1  1  1  1  1  1  1  1  1  1
TYPE ASSIGNMENTS      2  2  2  2  2  2  2  2  3  3  3  3  3  3  3  3  4  4  4  4
TYPE ASSIGNMENTS      4  4  4  4  2  3  4  2  3  4  2  3  4  2  3  4  5  6  7  8
TYPE ASSIGNMENTS      9 10  5  6  7  8  9 10  5  6  7  8  9 10  5  6  7  8  9 10
TYPE ASSIGNMENTS     11 12 13 17 14 15 18 19 16 20  1  1  1  1  1  1  1  1  1  1
TYPE ASSIGNMENTS      1  1  1  1  1  1  1  1  1  1  1  1  1  1  1  2  2  2  2  2
TYPE ASSIGNMENTS      2  2  2  2  2  3  3  3  3  3  3  3  3  3  3  4  4  4  4  4
TYPE ASSIGNMENTS      4  4  4  4  4  2  2  2  2  2  3  3  3  3  3  4  4  4  4  4
TYPE ASSIGNMENTS      2  3  4  2  3  4  2  3  4  2  3  4  2  3  4  2  3  4  5  5
TYPE ASSIGNMENTS      5  5  5  5  5  6  6  6  6  6  6  6  7  7  7  7  7  7  7  8
TYPE ASSIGNMENTS      8  8  8  8  8  8  9  9  9  9  9  9  9 10 10 10 10 10 10 10
TYPE ASSIGNMENTS      5  6  7  8  9 10  5  6  7  8  9 10  5  6  7  8  9 10  5  6
TYPE ASSIGNMENTS      7  8  9 10 11 12 13 17 14 15 18 19 16 20 11 12 13 17 14 15
TYPE ASSIGNMENTS     18 19 16 20 21 22 23 24 25 26 27 28 29 30 31 32 33 34 35
EXPONENTS  0.6059678D+06 0.9056909D+05 0.2057425D+05 0.5818628D+04 0.1895630D+04
EXPONENTS  0.6834594D+03 0.2661822D+03 0.1101122D+03 0.4777704D+02 0.2154217D+02
EXPONENTS  0.1741214D+03 0.5348497D+02 0.2050021D+02 0.9805683D+01 0.3540299D+01
EXPONENTS  0.1545085D+01 0.6654020D+00 0.1435544D+00 0.6662467D-01 0.2977265D-01
EXPONENTS  0.8932046D+03 0.2117826D+03 0.6844320D+02 0.2572727D+02 0.1060663D+02
EXPONENTS  0.4593413D+01 0.2010047D+01 0.8738484D+00 0.8932046D+03 0.2117826D+03
EXPONENTS  0.6844320D+02 0.2572727D+02 0.1060663D+02 0.4593413D+01 0.2010047D+01
EXPONENTS  0.8738484D+00 0.8932046D+03 0.2117826D+03 0.6844320D+02 0.2572727D+02
EXPONENTS  0.1060663D+02 0.4593413D+01 0.2010047D+01 0.8738484D+00 0.3561508D+00
EXPONENTS  0.3561508D+00 0.3561508D+00 0.1899595D+00 0.1899595D+00 0.1899595D+00
EXPONENTS  0.7458014D-01 0.7458014D-01 0.7458014D-01 0.2922164D-01 0.2922164D-01
EXPONENTS  0.2922164D-01 0.3810000D+01 0.3810000D+01 0.3810000D+01 0.3810000D+01
EXPONENTS  0.3810000D+01 0.3810000D+01 0.6500000D+00 0.6500000D+00 0.6500000D+00
EXPONENTS  0.6500000D+00 0.6500000D+00 0.6500000D+00 0.2000000D+00 0.2000000D+00
EXPONENTS  0.2000000D+00 0.2000000D+00 0.2000000D+00 0.2000000D+00 0.5200000D-01
EXPONENTS  0.5200000D-01 0.5200000D-01 0.5200000D-01 0.5200000D-01 0.5200000D-01
EXPONENTS  0.1600000D+00 0.1600000D+00 0.1600000D+00 0.1600000D+00 0.1600000D+00
EXPONENTS  0.1600000D+00 0.1600000D+00 0.1600000D+00 0.1600000D+00 0.1600000D+00
EXPONENTS  0.9520447D+07 0.1424984D+07 0.3241276D+06 0.9177488D+05 0.2993273D+05
EXPONENTS  0.1080462D+05 0.4214013D+04 0.1747812D+04 0.7621216D+03 0.3464560D+03
EXPONENTS  0.1631157D+03 0.2614515D+04 0.8186855D+03 0.3186340D+03 0.1390484D+03
EXPONENTS  0.7834873D+02 0.3170429D+02 0.1550586D+02 0.7322742D+01 0.3496948D+01
EXPONENTS  0.1612155D+01 0.4958716D+00 0.2409214D+00 0.1023174D+00 0.4031630D-01
EXPONENTS  0.2536022D+05 0.5993790D+04 0.1943074D+04 0.7423532D+03 0.3146211D+03
EXPONENTS  0.1433475D+03 0.6867362D+02 0.3401355D+02 0.1719810D+02 0.8583033D+01
EXPONENTS  0.2536022D+05 0.5993790D+04 0.1943074D+04 0.7423532D+03 0.3146211D+03
EXPONENTS  0.1433475D+03 0.6867362D+02 0.3401355D+02 0.1719810D+02 0.8583033D+01
EXPONENTS  0.2536022D+05 0.5993790D+04 0.1943074D+04 0.7423532D+03 0.3146211D+03
EXPONENTS  0.1433475D+03 0.6867362D+02 0.3401355D+02 0.1719810D+02 0.8583033D+01
EXPONENTS  0.2365821D+03 0.9057618D+02 0.3908669D+02 0.9308434D+01 0.4616992D+01
EXPONENTS  0.2365821D+03 0.9057618D+02 0.3908669D+02 0.9308434D+01 0.4616992D+01
EXPONENTS  0.2365821D+03 0.9057618D+02 0.3908669D+02 0.9308434D+01 0.4616992D+01
EXPONENTS  0.2265348D+01 0.2265348D+01 0.2265348D+01 0.1080000D+01 0.1080000D+01
EXPONENTS  0.1080000D+01 0.4793933D+00 0.4793933D+00 0.4793933D+00 0.1961998D+00
EXPONENTS  0.1961998D+00 0.1961998D+00 0.7625634D-01 0.7625634D-01 0.7625634D-01
EXPONENTS  0.2503150D-01 0.2503150D-01 0.2503150D-01 0.5394870D+03 0.1621339D+03
EXPONENTS  0.6266180D+02 0.2707727D+02 0.1248300D+02 0.5886462D+01 0.2751913D+01
EXPONENTS  0.5394870D+03 0.1621339D+03 0.6266180D+02 0.2707727D+02 0.1248300D+02
EXPONENTS  0.5886462D+01 0.2751913D+01 0.5394870D+03 0.1621339D+03 0.6266180D+02
EXPONENTS  0.2707727D+02 0.1248300D+02 0.5886462D+01 0.2751913D+01 0.5394870D+03
EXPONENTS  0.1621339D+03 0.6266180D+02 0.2707727D+02 0.1248300D+02 0.5886462D+01
EXPONENTS  0.2751913D+01 0.5394870D+03 0.1621339D+03 0.6266180D+02 0.2707727D+02
EXPONENTS  0.1248300D+02 0.5886462D+01 0.2751913D+01 0.5394870D+03 0.1621339D+03
EXPONENTS  0.6266180D+02 0.2707727D+02 0.1248300D+02 0.5886462D+01 0.2751913D+01
EXPONENTS  0.1250077D+01 0.1250077D+01 0.1250077D+01 0.1250077D+01 0.1250077D+01
EXPONENTS  0.1250077D+01 0.5117284D+00 0.5117284D+00 0.5117284D+00 0.5117284D+00
EXPONENTS  0.5117284D+00 0.5117284D+00 0.2000000D+00 0.2000000D+00 0.2000000D+00
EXPONENTS  0.2000000D+00 0.2000000D+00 0.2000000D+00 0.6582295D-01 0.6582295D-01
EXPONENTS  0.6582295D-01 0.6582295D-01 0.6582295D-01 0.6582295D-01 0.2840000D+00
EXPONENTS  0.2840000D+00 0.2840000D+00 0.2840000D+00 0.2840000D+00 0.2840000D+00
EXPONENTS  0.2840000D+00 0.2840000D+00 0.2840000D+00 0.2840000D+00 0.7097000D+00
EXPONENTS  0.7097000D+00 0.7097000D+00 0.7097000D+00 0.7097000D+00 0.7097000D+00
EXPONENTS  0.7097000D+00 0.7097000D+00 0.7097000D+00 0.7097000D+00 0.5730000D+00
EXPONENTS  0.5730000D+00 0.5730000D+00 0.5730000D+00 0.5730000D+00 0.5730000D+00
EXPONENTS  0.5730000D+00 0.5730000D+00 0.5730000D+00 0.5730000D+00 0.5730000D+00
EXPONENTS  0.5730000D+00 0.5730000D+00 0.5730000D+00 0.5730000D+00
MO    1     MO 0.0        OCC NO =    2.0000000  ORB. ENERGY = -460.754606
 -0.37723521D-07 -0.70694562D-07 -0.12254471D-06 -0.20038434D-06 -0.31201338D-06
 -0.45983176D-06 -0.62714642D-06 -0.74748555D-06 -0.70338969D-06 -0.42158874D-06
  0.36740989D-06  0.12661047D-05  0.19694388D-05 -0.26405261D-05  0.29737442D-05
 -0.33294287D-05  0.28327200D-05 -0.19114892D-05  0.12788089D-05 -0.26254698D-06
  0.12680280D-15  0.17891327D-15  0.22692616D-15  0.24782427D-15  0.22195948D-15
  0.14601650D-15  0.66170282D-16  0.17308106D-16 -0.35285185D-17 -0.49785872D-17
 -0.63146331D-17 -0.68961609D-17 -0.61764263D-17 -0.40631748D-17 -0.18413084D-17
 -0.48162952D-18  0.14832615D-06  0.20928179D-06  0.26544433D-06  0.28988965D-06
  0.25963461D-06  0.17080117D-06  0.77401944D-07  0.20245962D-07 -0.36356100D-16
 -0.69817490D-17  0.11553464D-05  0.20958800D-16  0.24110312D-16 -0.22734993D-05
 -0.48073528D-17 -0.43859130D-17  0.32378911D-06  0.24681240D-17  0.12385686D-17
 -0.43216140D-07 -0.88518550D-06 -0.88518550D-06  0.17703710D-05 -0.14965273D-14
  0.14316260D-14 -0.12711450D-14  0.14223357D-06  0.14223357D-06 -0.28446715D-06
 -0.11294644D-16  0.67352796D-16  0.25973051D-16  0.31705692D-06  0.31705692D-06
 -0.63411384D-06  0.68047668D-19 -0.28052715D-16  0.15004225D-17  0.32516866D-09
  0.32516866D-09 -0.65033731D-09 -0.45011990D-19  0.30540412D-17 -0.16333361D-19
 -0.11430828D-18  0.17969538D-18 -0.76734336D-07 -0.11426475D-18  0.17964414D-18
  0.11510150D-06  0.45718958D-18 -0.71873028D-18  0.11510150D-06  0.23325569D-19
  0.77331409D+00  0.14481466D+01  0.25093943D+01  0.41122336D+01  0.64396179D+01
  0.96682990D+01  0.13784342D+02  0.18197757D+02  0.20958756D+02  0.18816848D+02
  0.10506800D+02  0.27839734D-03  0.11369854D-02  0.25892026D-02  0.29558358D-02
  0.25326052D+01  0.10339084D+00 -0.86485628D-02  0.22696321D-02 -0.75341713D-03
  0.15298251D-03 -0.35375503D-04  0.17623375D-04 -0.33494601D-05  0.27004485D-06
  0.71163302D-15  0.10459326D-14  0.14752941D-14  0.19358563D-14  0.23023315D-14
  0.23653392D-14  0.19295679D-14  0.11081202D-14  0.35352711D-15  0.42772580D-16
 -0.87316802D-16 -0.12833509D-15 -0.18101740D-15 -0.23752802D-15 -0.28249423D-15
 -0.29022523D-15 -0.23675643D-15 -0.13596546D-15 -0.43377493D-16 -0.52481613D-17
 -0.11772162D-03 -0.17302299D-03 -0.24404995D-03 -0.32023828D-03 -0.38086230D-03
 -0.39128533D-03 -0.31919802D-03 -0.18331036D-03 -0.58482085D-04 -0.70756375D-05
  0.11021288D-16  0.25041393D-16  0.26893394D-16 -0.33366167D-16 -0.30866265D-16
 -0.14949142D-16 -0.33965843D-16 -0.36477876D-16  0.45257467D-16  0.41866630D-16
 -0.90653647D-05 -0.20597353D-04 -0.22120684D-04  0.27444748D-04  0.25388498D-04
 -0.26412913D-16  0.32949272D-16 -0.12757412D-04  0.10606798D-16 -0.13948668D-16
  0.93415354D-06 -0.44462112D-17  0.52474589D-17  0.25289301D-05  0.14807227D-16
 -0.13545822D-16 -0.28891128D-05 -0.79011927D-17  0.54785045D-17  0.55716196D-06
 -0.17568538D-17 -0.62060300D-18 -0.10051801D-07 -0.22075140D-04 -0.24376593D-04
 -0.23119533D-04 -0.17479495D-04 -0.10154383D-04 -0.40918389D-05 -0.11130926D-05
 -0.22075140D-04 -0.24376593D-04 -0.23119533D-04 -0.17479495D-04 -0.10154383D-04
 -0.40918389D-05 -0.11130926D-05  0.44150280D-04  0.48753186D-04  0.46239067D-04
  0.34958990D-04  0.20308767D-04  0.81836778D-05  0.22261853D-05 -0.50088799D-15
 -0.55310828D-15 -0.52458542D-15 -0.39661217D-15 -0.23040437D-15 -0.92844393D-16
 -0.25256227D-16  0.91115887D-16  0.10061521D-15  0.95426656D-16  0.72147207D-16
  0.41912561D-16  0.16889204D-16  0.45943276D-17 -0.10570849D-15 -0.11672917D-15
 -0.11070965D-15 -0.83701895D-16 -0.48625040D-16 -0.19594083D-16 -0.53301290D-17
  0.69550370D-06  0.69550370D-06 -0.13910074D-05 -0.83428494D-18 -0.72365566D-17
 -0.60294889D-16 -0.11775243D-07 -0.11775243D-07  0.23550485D-07  0.68315622D-17
  0.38816093D-17  0.70468929D-16 -0.28924141D-06 -0.28924141D-06  0.57848282D-06
  0.14265122D-17 -0.94216681D-17 -0.24921623D-16  0.24866381D-07  0.24866381D-07
 -0.49732761D-07 -0.23178373D-18  0.19269989D-17  0.11335673D-17  0.43765746D-18
 -0.87038313D-19 -0.19649921D-06  0.43759761D-18 -0.87062817D-19  0.29474881D-06
 -0.17505700D-17  0.34817776D-18  0.29474881D-06 -0.34970708D-17 -0.17072853D-17
 -0.45747473D-17  0.21181047D-06 -0.17071302D-17 -0.45749455D-17 -0.31771570D-06
  0.68289861D-17  0.18299188D-16 -0.31771570D-06  0.50967044D-17  0.39520816D-07
  0.39520816D-07  0.10538884D-06 -0.95884378D-20  0.32902112D-17 -0.95900100D-20
  0.21240874D-17 -0.43869587D-17 -0.28325121D-17  0.79041633D-07 -0.31616653D-06
 -0.31616653D-06  0.21252742D-17  0.32902427D-17  0.57535343D-19
MO    2     MO 0.0        OCC NO =    2.0000000  ORB. ENERGY =  -60.556494
  0.21648229D-06  0.40569175D-06  0.70324187D-06  0.11499367D-05  0.17905373D-05
  0.26388161D-05  0.35989773D-05  0.42895622D-05  0.40365112D-05  0.24193526D-05
 -0.19082868D-05 -0.65760095D-05 -0.10229050D-04  0.19580415D-04 -0.26231903D-04
  0.29891866D-04 -0.28100464D-04  0.19399599D-04 -0.13710659D-04  0.12301353D-05
 -0.18841422D-15 -0.26584433D-15 -0.33718590D-15 -0.36823806D-15 -0.32980600D-15
 -0.21696356D-15 -0.98321350D-16 -0.25717834D-16 -0.11094557D-15 -0.15653941D-15
 -0.19854808D-15 -0.21683279D-15 -0.19420251D-15 -0.12775652D-15 -0.57895408D-16
 -0.15143654D-16 -0.26329714D-05 -0.37150089D-05 -0.47119629D-05 -0.51458974D-05
 -0.46088334D-05 -0.30319305D-05 -0.13739796D-05 -0.35939070D-06  0.12254569D-15
  0.24054054D-16 -0.11856946D-04 -0.19072866D-17 -0.35899791D-16  0.23147794D-04
 -0.14577167D-16  0.28398871D-17 -0.37440302D-05 -0.50845803D-17 -0.14406493D-17
  0.22632703D-06  0.78091876D-05  0.78091876D-05 -0.15618375D-04  0.85397367D-15
  0.63476115D-16 -0.10244995D-15 -0.13333592D-05 -0.13333592D-05  0.26667185D-05
 -0.31173630D-17  0.22320246D-16  0.91271945D-18 -0.31532601D-05 -0.31532601D-05
  0.63065202D-05  0.99058504D-18 -0.17008245D-16 -0.32096298D-17  0.13146487D-07
  0.13146487D-07 -0.26292975D-07 -0.55116502D-19 -0.26063122D-17 -0.11266040D-17
  0.10008491D-17  0.93496853D-18  0.74415958D-06  0.10008240D-17  0.93443985D-18
 -0.11162394D-05 -0.40033712D-17 -0.37393454D-17 -0.11162394D-05  0.34959474D-19
  0.24439080D+00  0.45765842D+00  0.79304502D+00  0.12995911D+01  0.20351154D+01
  0.30554769D+01  0.43562719D+01  0.57510454D+01  0.66236052D+01  0.59466969D+01
  0.33204688D+01  0.31728595D+00  0.12958080D+01  0.29508817D+01  0.33687290D+01
  0.45790764D+00 -0.43418711D+01 -0.30679509D+01 -0.45481026D+00 -0.39476732D-02
 -0.25269723D-02  0.34166924D-03 -0.15639132D-03  0.30428307D-04  0.42231836D-06
  0.38567914D-15  0.56685730D-15  0.79955558D-15  0.10491635D-14  0.12477797D-14
  0.12819276D-14  0.10457554D-14  0.60056073D-15  0.19159880D-15  0.23181178D-16
 -0.28888064D-15 -0.42458636D-15 -0.59888158D-15 -0.78584242D-15 -0.93460953D-15
 -0.96018693D-15 -0.78328970D-15 -0.44983084D-15 -0.14351096D-15 -0.17363121D-16
  0.12052595D-01  0.17714470D-01  0.24986365D-01  0.32786691D-01  0.38993510D-01
  0.40060643D-01  0.32680187D-01  0.18767713D-01  0.59875230D-02  0.72441915D-03
 -0.31783455D-16 -0.72214971D-16 -0.77555818D-16  0.96222155D-16  0.89012878D-16
  0.62631089D-17  0.14230367D-16  0.15282811D-16 -0.18961118D-16 -0.17540489D-16
 -0.16962464D-03 -0.38540299D-03 -0.41390648D-03  0.51352657D-03  0.47505149D-03
  0.26299619D-16 -0.31051157D-16 -0.25091839D-03  0.16791762D-16  0.21687639D-16
  0.11474010D-03 -0.36672283D-16 -0.17834896D-16 -0.50706572D-04  0.48765212D-17
  0.18900135D-16  0.32746193D-04  0.13456300D-16  0.23222362D-17 -0.67472014D-05
  0.27170236D-17  0.46131939D-18  0.33464264D-07  0.12801952D-02  0.14136625D-02
  0.13407623D-02  0.10136817D-02  0.58887931D-03  0.23729646D-03  0.64551160D-04
  0.12801952D-02  0.14136625D-02  0.13407623D-02  0.10136817D-02  0.58887931D-03
  0.23729646D-03  0.64551160D-04 -0.25603904D-02 -0.28273250D-02 -0.26815247D-02
 -0.20273634D-02 -0.11777586D-02 -0.47459292D-03 -0.12910232D-03  0.30092498D-15
  0.33229804D-15  0.31516199D-15  0.23827784D-15  0.13842303D-15  0.55779331D-16
  0.15173511D-16 -0.22360592D-14 -0.24691805D-14 -0.23418490D-14 -0.17705521D-14
 -0.10285689D-14 -0.41447502D-15 -0.11274860D-15 -0.14552400D-14 -0.16069566D-14
 -0.15240886D-14 -0.11522853D-14 -0.66939846D-15 -0.26974269D-15 -0.73377425D-16
 -0.23252575D-04 -0.23252575D-04  0.46505150D-04 -0.12596844D-16  0.32755798D-16
 -0.21754078D-16  0.39100575D-05  0.39100575D-05 -0.78201151D-05  0.12013553D-17
 -0.12182981D-16  0.49902037D-16  0.26075906D-05  0.26075906D-05 -0.52151811D-05
  0.20817523D-18  0.17895632D-16 -0.12324437D-16 -0.25545859D-06 -0.25545859D-06
  0.51091717D-06 -0.47012237D-19 -0.81929031D-17 -0.33281154D-19 -0.22420919D-17
 -0.18484958D-17  0.19231038D-05 -0.22414243D-17 -0.18511809D-17 -0.28846557D-05
  0.89677001D-17  0.73966682D-17 -0.28846557D-05 -0.30551968D-18  0.26985097D-17
  0.53566342D-18 -0.21850447D-05  0.26661392D-17  0.56531258D-18  0.32775671D-05
 -0.10761668D-16 -0.21723028D-17  0.32775671D-05  0.17206130D-17 -0.39528875D-06
 -0.39528875D-06 -0.10541033D-05 -0.60102696D-19  0.36728685D-17 -0.61378486D-19
 -0.86095848D-18 -0.48846415D-17  0.11627127D-17 -0.79057750D-06  0.31623100D-05
  0.31623100D-05 -0.90526273D-18  0.36353191D-17  0.36444354D-18
MO    3     MO 0.0        OCC NO =    2.0000000  ORB. ENERGY =  -54.157688
 -0.55083818D-06 -0.10322808D-05 -0.17893957D-05 -0.29260086D-05 -0.45560139D-05
 -0.67144553D-05 -0.91575810D-05 -0.10914771D-04 -0.10270884D-04 -0.61560313D-05
  0.65453637D-05  0.22555505D-04  0.35085320D-04 -0.61957942D-04  0.78914345D-04
 -0.88585126D-04  0.83643154D-04 -0.82335280D-04  0.17924031D-04  0.13641495D-04
  0.16245818D-15  0.22922147D-15  0.29073499D-15  0.31750939D-15  0.28437175D-15
  0.18707454D-15  0.84776548D-16  0.22174931D-16 -0.30213522D-16 -0.42629975D-16
 -0.54070089D-16 -0.59049517D-16 -0.52886671D-16 -0.34791605D-16 -0.15766508D-16
 -0.41240323D-17 -0.48386409D-05 -0.68271133D-05 -0.86592269D-05 -0.94566732D-05
 -0.84697045D-05 -0.55718126D-05 -0.25249777D-05 -0.66045631D-06 -0.13807526D-15
  0.24800781D-15  0.31752549D-04  0.33162860D-16 -0.26985331D-15 -0.96491579D-04
  0.11392853D-16  0.68942244D-16  0.32021339D-05 -0.28817085D-17  0.75420787D-17
  0.15505787D-05 -0.33214397D-05 -0.33214397D-05  0.66428795D-05  0.59210558D-15
 -0.11355242D-14 -0.30042382D-15  0.42941579D-05  0.42941579D-05 -0.85883158D-05
  0.23719944D-16  0.41879923D-17  0.14159940D-15  0.12036739D-04  0.12036739D-04
 -0.24073477D-04 -0.32443873D-17  0.65860182D-19 -0.18768757D-15  0.66199077D-07
  0.66199077D-07 -0.13239815D-06  0.10593009D-18  0.87461220D-18  0.15031071D-16
 -0.22154156D-18  0.97827242D-17 -0.14093668D-05 -0.22070290D-18  0.97825712D-17
  0.21140502D-05  0.88532759D-18 -0.39130744D-16  0.21140502D-05  0.40746302D-19
 -0.11628300D-03 -0.21775735D-03 -0.37733685D-03 -0.61835531D-03 -0.96832336D-03
 -0.14538191D-02 -0.20727473D-02 -0.27363911D-02 -0.31515617D-02 -0.28294836D-02
 -0.15799043D-02 -0.15415673D-03 -0.62958198D-03 -0.14337170D-02 -0.16367325D-02
 -0.25058024D-03  0.24203039D-02  0.13120816D-02  0.26853000D-03 -0.17253622D-03
  0.93805252D-04 -0.60294733D-04 -0.39270351D-05  0.92757751D-04 -0.39303252D-04
  0.29499207D-10  0.43356872D-10  0.61155124D-10  0.80246734D-10  0.95438171D-10
  0.98050021D-10  0.79986062D-10  0.45934725D-10  0.14654701D-10  0.17730448D-11
 -0.56417554D-09 -0.82920488D-09 -0.11695984D-08 -0.15347275D-08 -0.18252654D-08
 -0.18752173D-08 -0.15297421D-08 -0.87850660D-09 -0.28027275D-09 -0.33909673D-10
  0.27607853D+02  0.40577028D+02  0.57234138D+02  0.75101681D+02  0.89319112D+02
  0.91763502D+02  0.74857722D+02  0.42989601D+02  0.13715109D+02  0.16593652D+01
 -0.92754877D-14 -0.21074772D-13 -0.22633412D-13  0.28080881D-13  0.25976970D-13
  0.17811983D-12  0.40470486D-12  0.43463586D-12 -0.53924516D-12 -0.49884315D-12
 -0.89239070D-02 -0.20275948D-01 -0.21775509D-01  0.27016495D-01  0.24992331D-01
  0.18125431D-13 -0.34715028D-12  0.16920290D-01 -0.31397006D-14  0.59975503D-13
 -0.30822954D-02  0.64872030D-15 -0.12089521D-13  0.74475228D-03 -0.98694759D-16
  0.20147726D-14 -0.20874937D-03  0.83175739D-17 -0.27142538D-15  0.18813052D-04
  0.47312059D-18  0.51369930D-17  0.11821928D-05  0.17886360D-02  0.19751110D-02
  0.18732579D-02  0.14162743D-02  0.82275790D-03  0.33154084D-03  0.90188220D-04
  0.17886360D-02  0.19751110D-02  0.18732579D-02  0.14162743D-02  0.82275790D-03
  0.33154084D-03  0.90188220D-04 -0.35772720D-02 -0.39502220D-02 -0.37465157D-02
 -0.28325486D-02 -0.16455158D-02 -0.66308167D-03 -0.18037644D-03  0.22429929D-15
  0.24768371D-15  0.23491108D-15  0.17760423D-15  0.10317584D-15  0.41576025D-16
  0.11309822D-16 -0.64590981D-14 -0.71324941D-14 -0.67646835D-14 -0.51144307D-14
 -0.29711322D-14 -0.11972558D-14 -0.32568648D-15  0.10326435D-12  0.11403021D-12
  0.10814987D-12  0.81766576D-13  0.47500753D-13  0.19141037D-13  0.52068881D-14
 -0.55259517D-04 -0.55259517D-04  0.11051903D-03  0.19054429D-17  0.79069381D-16
 -0.25434195D-14  0.23715170D-04  0.23715170D-04 -0.47430341D-04 -0.68741100D-17
  0.37581101D-16  0.74499990D-15 -0.17407916D-04 -0.17407916D-04  0.34815831D-04
  0.13187346D-17 -0.40677074D-17 -0.26392600D-15  0.74587062D-06  0.74587062D-06
 -0.14917412D-05 -0.10640717D-18 -0.65895635D-18  0.26148851D-16  0.32207579D-18
 -0.29424875D-16 -0.11069344D-04  0.30295900D-18 -0.29428319D-16  0.16604016D-04
 -0.12691864D-17  0.11770295D-15  0.16604016D-04 -0.39389235D-20 -0.29594402D-17
  0.75203860D-16  0.21147626D-04 -0.26614437D-17  0.75248626D-16 -0.31721439D-04
  0.11539764D-16 -0.30086021D-15 -0.31721439D-04  0.54358714D-18  0.18981912D-05
  0.18981912D-05  0.50618432D-05  0.27835962D-19 -0.88506521D-17  0.27239406D-19
  0.66356107D-16  0.11802868D-16 -0.88473454D-16  0.37963824D-05 -0.15185530D-04
 -0.15185530D-04  0.66352041D-16 -0.88566469D-17 -0.16522610D-18
MO    4     MO 0.0        OCC NO =    2.0000000  ORB. ENERGY =  -54.156603
 -0.50579983D-16 -0.94787807D-16 -0.16430888D-15 -0.26867685D-15 -0.41834991D-15
 -0.61654593D-15 -0.84088269D-15 -0.10022343D-14 -0.94311025D-15 -0.56526939D-15
 -0.64175973D-16 -0.22115219D-15 -0.34400450D-15  0.23692180D-15 -0.41998409D-15
  0.62752103D-15 -0.44673824D-15  0.44220983D-15 -0.20043733D-15 -0.76542488D-16
 -0.46531039D-05 -0.65653286D-05 -0.83271900D-05 -0.90940584D-05 -0.81449349D-05
 -0.53581622D-05 -0.24281578D-05 -0.63513121D-06 -0.18354986D-05 -0.25898092D-05
 -0.32848064D-05 -0.35873111D-05 -0.32129127D-05 -0.21136212D-05 -0.95782950D-06
 -0.25053867D-06 -0.62306670D-16 -0.87912020D-16 -0.11150395D-15 -0.12177259D-15
 -0.10906349D-15 -0.71747645D-16 -0.32513872D-16 -0.85046265D-17  0.10809243D-04
  0.42638960D-05 -0.26628787D-15 -0.11784525D-04 -0.46486129D-05  0.50709616D-15
  0.34005215D-05  0.13413955D-05 -0.24722472D-16  0.31082642D-06  0.12261094D-06
 -0.11732744D-16  0.37649928D-14 -0.18077581D-14 -0.19572347D-14  0.41171232D-14
 -0.21529141D-04 -0.84925480D-05 -0.70146447D-16  0.16978355D-16  0.53168092D-16
 -0.27035738D-15  0.70969511D-05  0.27995171D-05 -0.56262084D-16 -0.60354303D-16
  0.11661639D-15 -0.55642063D-17 -0.78440968D-05 -0.30942418D-05 -0.16718171D-18
 -0.28697839D-18  0.45416010D-18  0.62615910D-18  0.68141254D-06  0.26879515D-06
  0.41402800D-06  0.16332062D-06  0.72007592D-17  0.41402800D-06  0.16332062D-06
 -0.93292194D-17 -0.16561120D-05 -0.65328247D-06 -0.12273058D-16 -0.52419965D-17
  0.78754591D-15  0.14747978D-14  0.25555764D-14  0.41879138D-14  0.65581305D-14
  0.98462312D-14  0.14038025D-13  0.18532663D-13  0.21344474D-13  0.19163147D-13
  0.10700164D-13  0.10369735D-14  0.42350396D-14  0.96442532D-14  0.11009888D-13
  0.19992542D-14 -0.16909421D-13 -0.92938648D-14 -0.15118270D-14  0.13404460D-14
 -0.27445618D-15  0.23559417D-16  0.25923666D-15 -0.52851366D-15  0.26504436D-15
 -0.25682757D+02 -0.37747592D+02 -0.53243201D+02 -0.69864841D+02 -0.83090890D+02
 -0.85364833D+02 -0.69637893D+02 -0.39991936D+02 -0.12758754D+02 -0.15436577D+01
 -0.10131015D+02 -0.14890201D+02 -0.21002716D+02 -0.27559414D+02 -0.32776662D+02
 -0.33673659D+02 -0.27469891D+02 -0.15775522D+02 -0.50329149D+01 -0.60892291D+00
 -0.17957548D-09 -0.26393357D-09 -0.37227986D-09 -0.48849943D-09 -0.58097681D-09
 -0.59687636D-09 -0.48691259D-09 -0.27962617D-09 -0.89210025D-10 -0.10793353D-10
  0.81080682D-02  0.18422286D-01  0.19784755D-01 -0.24546601D-01 -0.22707490D-01
  0.31983700D-02  0.72669946D-02  0.78044441D-02 -0.96828382D-02 -0.89573684D-02
  0.57982137D-13  0.13174082D-12  0.14148405D-12 -0.17553681D-12 -0.16238502D-12
 -0.15802049D-01 -0.62333960D-02 -0.11007306D-12  0.27297933D-02  0.10768149D-02
  0.19342414D-13 -0.54999939D-03 -0.21695693D-03 -0.43605301D-14  0.91186612D-04
  0.35970162D-04  0.10882475D-14 -0.12576939D-04 -0.49611947D-05 -0.12820104D-15
  0.27523722D-06  0.10857216D-06 -0.87236140D-17 -0.12751812D-13 -0.14081258D-13
 -0.13355111D-13 -0.10097116D-13 -0.58657292D-14 -0.23636707D-14 -0.64298341D-15
 -0.14967151D-13 -0.16527558D-13 -0.15675260D-13 -0.11851261D-13 -0.68847669D-14
 -0.27743050D-14 -0.75468722D-15  0.27718964D-13  0.30608816D-13  0.29030371D-13
  0.21948377D-13  0.12750496D-13  0.51379758D-14  0.13976706D-14 -0.51236912D-14
 -0.56578638D-14 -0.53660973D-14 -0.40570313D-14 -0.23568560D-14 -0.94972531D-15
 -0.25835139D-15  0.47344860D-02  0.52280818D-02  0.49584785D-02  0.37488516D-02
  0.21778248D-02  0.87758239D-03  0.23872653D-03  0.18676012D-02  0.20623087D-02
  0.19559590D-02  0.14788004D-02  0.85908125D-03  0.34617779D-03  0.94169875D-04
  0.28985834D-15  0.38185562D-15 -0.67171397D-15 -0.97704394D-16 -0.11412805D-03
 -0.45019815D-04 -0.10132814D-15 -0.14088652D-15  0.24221465D-15  0.67414915D-16
  0.31352495D-04  0.12367543D-04  0.86968540D-16  0.90172549D-16 -0.17714109D-15
 -0.23431050D-16 -0.10942735D-04 -0.43165541D-05 -0.56060143D-17 -0.52924564D-17
  0.10898471D-16  0.27613430D-17  0.11702024D-05  0.46160692D-06 -0.12651076D-05
 -0.49904391D-06  0.39347823D-16 -0.12651076D-05 -0.49904391D-06 -0.47692513D-16
  0.50604302D-05  0.19961756D-05 -0.70350955D-16 -0.13315216D-16  0.33333452D-05
  0.13148966D-05 -0.35181622D-16  0.33333452D-05  0.13148966D-05 -0.35512932D-16
 -0.13333381D-04 -0.52595863D-05  0.14105780D-15  0.54225224D-17  0.64694226D-17
  0.43924724D-17  0.16264138D-16  0.28450599D-18  0.30383332D-05  0.28678773D-18
  0.11985239D-05 -0.40511110D-05 -0.15980319D-05  0.16206729D-16 -0.55023265D-16
 -0.42561563D-16  0.11985239D-05  0.30383332D-05 -0.17138812D-17
MO    5     MO 0.0        OCC NO =    2.0000000  ORB. ENERGY =  -54.156603
  0.18576150D-15  0.34812042D-15  0.60344549D-15  0.98675029D-15  0.15364439D-14
  0.22643443D-14  0.30882499D-14  0.36808345D-14  0.34636938D-14  0.20760246D-14
  0.13283039D-15  0.45773722D-15  0.71201495D-15 -0.61880116D-15  0.15478114D-14
 -0.17579418D-14  0.16534163D-14 -0.16353178D-14  0.32252175D-15  0.26232424D-15
 -0.18354986D-05 -0.25898092D-05 -0.32848064D-05 -0.35873111D-05 -0.32129127D-05
 -0.21136212D-05 -0.95782950D-06 -0.25053867D-06  0.46531039D-05  0.65653286D-05
  0.83271900D-05  0.90940584D-05  0.81449349D-05  0.53581622D-05  0.24281578D-05
  0.63513121D-06 -0.63374766D-15 -0.89419058D-15 -0.11341542D-14 -0.12386008D-14
 -0.11093312D-14 -0.72977583D-15 -0.33071243D-15 -0.86504176D-16  0.42638960D-05
 -0.10809243D-04  0.62314684D-15 -0.46486129D-05  0.11784525D-04 -0.18632549D-14
  0.13413955D-05 -0.34005215D-05  0.43099961D-16  0.12261094D-06 -0.31082642D-06
  0.30134111D-16 -0.39381068D-14  0.46115453D-14 -0.67343852D-15 -0.56360438D-14
 -0.84925480D-05  0.21529141D-04  0.22167033D-15 -0.49576373D-17 -0.21671269D-15
 -0.53079785D-16  0.27995171D-05 -0.70969511D-05  0.22252087D-15  0.23979681D-15
 -0.46231768D-15  0.85155476D-17 -0.30942418D-05  0.78440968D-05  0.17369957D-17
  0.12601764D-17 -0.29971721D-17 -0.23689619D-17  0.26879515D-06 -0.68141254D-06
  0.16332062D-06 -0.41402800D-06 -0.27440550D-16  0.16332062D-06 -0.41402800D-06
  0.39502176D-16 -0.65328247D-06  0.16561120D-05  0.42819473D-16  0.20909839D-18
 -0.22501784D-14 -0.42137965D-14 -0.73018002D-14 -0.11965719D-13 -0.18737909D-13
 -0.28132680D-13 -0.40109484D-13 -0.52951577D-13 -0.60985492D-13 -0.54752998D-13
 -0.30572539D-13 -0.29935324D-14 -0.12225701D-13 -0.27841005D-13 -0.31783315D-13
 -0.47406946D-14  0.46934594D-13  0.25772514D-13  0.52511374D-14 -0.36911051D-14
  0.17408281D-14 -0.12862022D-14 -0.14246600D-17  0.18631714D-14 -0.75981500D-15
 -0.10131015D+02 -0.14890201D+02 -0.21002716D+02 -0.27559414D+02 -0.32776662D+02
 -0.33673659D+02 -0.27469891D+02 -0.15775522D+02 -0.50329149D+01 -0.60892291D+00
  0.25682757D+02  0.37747592D+02  0.53243201D+02  0.69864841D+02  0.83090890D+02
  0.85364833D+02  0.69637893D+02  0.39991936D+02  0.12758754D+02  0.15436577D+01
  0.53561838D-09  0.78723260D-09  0.11103962D-08  0.14570434D-08  0.17328750D-08
  0.17802985D-08  0.14523104D-08  0.83403879D-09  0.26608604D-09  0.32193250D-10
  0.31983700D-02  0.72669946D-02  0.78044441D-02 -0.96828382D-02 -0.89573684D-02
 -0.81080682D-02 -0.18422286D-01 -0.19784755D-01  0.24546601D-01  0.22707490D-01
 -0.17307919D-12 -0.39325204D-12 -0.42233602D-12  0.52398496D-12  0.48472630D-12
 -0.62333960D-02  0.15802049D-01  0.32812020D-12  0.10768149D-02 -0.27297933D-02
 -0.60024102D-13 -0.21695693D-03  0.54999939D-03  0.14634520D-13  0.35970162D-04
 -0.91186612D-04 -0.40598704D-14 -0.49611947D-05  0.12576939D-04  0.34515224D-15
  0.10857216D-06 -0.27523722D-06  0.23974201D-16  0.28122944D-13  0.31054914D-13
  0.29453465D-13  0.22268256D-13  0.12936324D-13  0.52128575D-14  0.14180405D-14
  0.31450509D-13  0.34729395D-13  0.32938459D-13  0.24903082D-13  0.14466976D-13
  0.58296535D-14  0.15858260D-14 -0.59573453D-13 -0.65784309D-13 -0.62391923D-13
 -0.47171337D-13 -0.27403300D-13 -0.11042511D-13 -0.30038665D-14  0.16501718D-15
  0.18222112D-15  0.17282429D-15  0.13066359D-15  0.75906553D-16  0.30587518D-16
  0.83206456D-17  0.18676012D-02  0.20623087D-02  0.19559590D-02  0.14788004D-02
  0.85908125D-03  0.34617779D-03  0.94169875D-04 -0.47344860D-02 -0.52280818D-02
 -0.49584785D-02 -0.37488516D-02 -0.21778248D-02 -0.87758239D-03 -0.23872653D-03
 -0.99696907D-15 -0.12350112D-14  0.22319803D-14 -0.21002908D-16 -0.45019815D-04
  0.11412805D-03  0.42397208D-15  0.46590927D-15 -0.88988135D-15  0.31394803D-16
  0.12367543D-04 -0.31352495D-04 -0.33992060D-15 -0.34306369D-15  0.68298429D-15
 -0.11834139D-16 -0.43165541D-05  0.10942735D-04  0.15045432D-16  0.15235338D-16
 -0.30280770D-16  0.11137798D-17  0.46160692D-06 -0.11702024D-05 -0.49904391D-06
  0.12651076D-05 -0.21738335D-15 -0.49904391D-06  0.12651076D-05  0.30751298D-15
  0.19961756D-05 -0.50604302D-05  0.34463707D-15 -0.66180641D-17  0.13148966D-05
 -0.33333452D-05  0.45106118D-15  0.13148966D-05 -0.33333452D-05 -0.46510916D-15
 -0.52595863D-05  0.13333381D-04 -0.88807439D-15  0.91095018D-17  0.43732957D-16
  0.48526295D-16  0.11858456D-15 -0.54443603D-18  0.11985239D-05 -0.55917197D-18
 -0.30383332D-05 -0.15980319D-05  0.40511110D-05  0.78975931D-16 -0.34137367D-15