 Molden2AIM, Version 4.0.0 (06/02/2016)           Time: Wed Jun 27 19:36:14 2018
GAUSSIAN              7 MOL ORBITALS    150 PRIMITIVES        2 NUCLEI
  N    1    (CENTRE  1)   0.00000000  0.00000000  1.02933004  CHARGE =  7.0
  N    2    (CENTRE  2)   0.00000000  0.00000000 -1.02933004  CHARGE =  7.0
CENTRE ASSIGNMENTS    1  1  1  1  1  1  1  1  1  1  1  1  1  1  1  1  1  1  1  1
CENTRE ASSIGNMENTS    1  1  1  1  1  1  1  1  1  1  1  1  1  1  1  1  1  1  1  1
CENTRE ASSIGNMENTS    1  1  1  1  1  1  1  1  1  1  1  1  1  1  1  1  1  1  1  1
CENTRE ASSIGNMENTS    1  1  1  1  1  1  1  1  1  1  1  1  1  1  1  2  2  2  2  2
CENTRE ASSIGNMENTS    2  2  2  2  2  2  2  2  2  2  2  2  2  2  2  2  2  2  2  2
CENTRE ASSIGNMENTS    2  2  2  2  2  2  2  2  2  2  2  2  2  2  2  2  2  2  2  2
CENTRE ASSIGNMENTS    2  2  2  2  2  2  2  2  2  2  2  2  2  2  2  2  2  2  2  2
CENTRE ASSIGNMENTS    2  2  2  2  2  2  2  2  2  2
TYPE ASSIGNMENTS      1  1  1  1  1  1  1  1  1  1  1  1  1  1  1  1  1  1  1  2
TYPE ASSIGNMENTS      2  2  3  3  3  4  4  4  2  3  4  2  3  4  2  3  4  5  6  7
TYPE ASSIGNMENTS      8  9 10  5  6  7  8  9 10  5  6  7  8  9 10 11 12 13 17 14
TYPE ASSIGNMENTS     15 18 19 16 20 11 12 13 17 14 15 18 19 16 20  1  1  1  1  1
TYPE ASSIGNMENTS      1  1  1  1  1  1  1  1  1  1  1  1  1  1  2  2  2  3  3  3
TYPE ASSIGNMENTS      4  4  4  2  3  4  2  3  4  2  3  4  5  6  7  8  9 10  5  6
TYPE ASSIGNMENTS      7  8  9 10  5  6  7  8  9 10 11 12 13 17 14 15 18 19 16 20
TYPE ASSIGNMENTS     11 12 13 17 14 15 18 19 16 20
EXPONENTS  0.1142000D+05 0.1712000D+04 0.3893000D+03 0.1100000D+03 0.3557000D+02
EXPONENTS  0.1254000D+02 0.4644000D+01 0.5118000D+00 0.1142000D+05 0.1712000D+04
EXPONENTS  0.3893000D+03 0.1100000D+03 0.3557000D+02 0.1254000D+02 0.4644000D+01
EXPONENTS  0.5118000D+00 0.1293000D+01 0.1787000D+00 0.5760000D-01 0.2663000D+02
EXPONENTS  0.5948000D+01 0.1742000D+01 0.2663000D+02 0.5948000D+01 0.1742000D+01
EXPONENTS  0.2663000D+02 0.5948000D+01 0.1742000D+01 0.5550000D+00 0.5550000D+00
EXPONENTS  0.5550000D+00 0.1725000D+00 0.1725000D+00 0.1725000D+00 0.4910000D-01
EXPONENTS  0.4910000D-01 0.4910000D-01 0.1654000D+01 0.1654000D+01 0.1654000D+01
EXPONENTS  0.1654000D+01 0.1654000D+01 0.1654000D+01 0.4690000D+00 0.4690000D+00
EXPONENTS  0.4690000D+00 0.4690000D+00 0.4690000D+00 0.4690000D+00 0.1510000D+00
EXPONENTS  0.1510000D+00 0.1510000D+00 0.1510000D+00 0.1510000D+00 0.1510000D+00
EXPONENTS  0.1093000D+01 0.1093000D+01 0.1093000D+01 0.1093000D+01 0.1093000D+01
EXPONENTS  0.1093000D+01 0.1093000D+01 0.1093000D+01 0.1093000D+01 0.1093000D+01
EXPONENTS  0.3640000D+00 0.3640000D+00 0.3640000D+00 0.3640000D+00 0.3640000D+00
EXPONENTS  0.3640000D+00 0.3640000D+00 0.3640000D+00 0.3640000D+00 0.3640000D+00
EXPONENTS  0.1142000D+05 0.1712000D+04 0.3893000D+03 0.1100000D+03 0.3557000D+02
EXPONENTS  0.1254000D+02 0.4644000D+01 0.5118000D+00 0.1142000D+05 0.1712000D+04
EXPONENTS  0.3893000D+03 0.1100000D+03 0.3557000D+02 0.1254000D+02 0.4644000D+01
EXPONENTS  0.5118000D+00 0.1293000D+01 0.1787000D+00 0.5760000D-01 0.2663000D+02
EXPONENTS  0.5948000D+01 0.1742000D+01 0.2663000D+02 0.5948000D+01 0.1742000D+01
EXPONENTS  0.2663000D+02 0.5948000D+01 0.1742000D+01 0.5550000D+00 0.5550000D+00
EXPONENTS  0.5550000D+00 0.1725000D+00 0.1725000D+00 0.1725000D+00 0.4910000D-01
EXPONENTS  0.4910000D-01 0.4910000D-01 0.1654000D+01 0.1654000D+01 0.1654000D+01
EXPONENTS  0.1654000D+01 0.1654000D+01 0.1654000D+01 0.4690000D+00 0.4690000D+00
EXPONENTS  0.4690000D+00 0.4690000D+00 0.4690000D+00 0.4690000D+00 0.1510000D+00
EXPONENTS  0.1510000D+00 0.1510000D+00 0.1510000D+00 0.1510000D+00 0.1510000D+00
EXPONENTS  0.1093000D+01 0.1093000D+01 0.1093000D+01 0.1093000D+01 0.1093000D+01
EXPONENTS  0.1093000D+01 0.1093000D+01 0.1093000D+01 0.1093000D+01 0.1093000D+01
EXPONENTS  0.3640000D+00 0.3640000D+00 0.3640000D+00 0.3640000D+00 0.3640000D+00
EXPONENTS  0.3640000D+00 0.3640000D+00 0.3640000D+00 0.3640000D+00 0.3640000D+00
MO    1     MO 0.0        OCC NO =    2.0000000  ORB. ENERGY =  -15.682563
  0.29105854D+00  0.54234474D+00  0.91724091D+00  0.13813140D+01  0.17101563D+01
  0.14552659D+01  0.55375550D+00 -0.25934733D-02 -0.91523453D-04 -0.17160733D-03
 -0.29195513D-03 -0.45337548D-03 -0.60165564D-03 -0.63406245D-03 -0.39315917D-03
  0.26152963D-03  0.26119484D-01  0.29079753D-03 -0.22817469D-04  0.22097689D-16
  0.21224566D-16  0.14884131D-16  0.40003620D-15  0.38422998D-15  0.26944859D-15
 -0.65027070D-02 -0.62457724D-02 -0.43799667D-02 -0.47334341D-16  0.62760025D-16
  0.22815900D-03  0.71291000D-16 -0.45727948D-18 -0.79662092D-06  0.78643944D-17
  0.16898468D-17 -0.43489895D-05 -0.10686707D-02 -0.10686707D-02  0.21373414D-02
  0.91563246D-16 -0.38732706D-15 -0.25544049D-15  0.14071657D-03  0.14071657D-03
 -0.28143315D-03 -0.42643983D-16  0.26970802D-16 -0.46653021D-16 -0.74622303D-05
 -0.74622303D-05  0.14924461D-04  0.95776379D-18 -0.26673579D-16 -0.26501571D-17
  0.18069680D-16 -0.30801691D-16  0.24825249D-03  0.37300558D-16  0.76370854D-16
 -0.37237873D-03 -0.91509597D-16  0.16034219D-16 -0.37237873D-03  0.55860473D-16
 -0.49519274D-18 -0.42258548D-17  0.41148186D-04 -0.92579524D-18  0.18818349D-17
 -0.61722280D-04  0.24113735D-17  0.10795730D-16 -0.61722280D-04  0.16420775D-17
  0.29105854D+00  0.54234474D+00  0.91724091D+00  0.13813140D+01  0.17101563D+01
  0.14552659D+01  0.55375550D+00 -0.25934733D-02 -0.91523453D-04 -0.17160733D-03
 -0.29195513D-03 -0.45337548D-03 -0.60165564D-03 -0.63406245D-03 -0.39315917D-03
  0.26152963D-03  0.26119484D-01  0.29079752D-03 -0.22817470D-04  0.19601556D-15
  0.18827060D-15  0.13202834D-15 -0.56707176D-18 -0.54466564D-18 -0.38195714D-18
  0.65027070D-02  0.62457724D-02  0.43799667D-02  0.22995477D-18 -0.22060039D-16
 -0.22815900D-03 -0.58185132D-16 -0.76180718D-17  0.79661903D-06 -0.77207673D-17
 -0.11399179D-17  0.43489894D-05 -0.10686707D-02 -0.10686707D-02  0.21373414D-02
 -0.20201688D-16 -0.25133601D-15  0.67367645D-16  0.14071657D-03  0.14071657D-03
 -0.28143315D-03  0.97724122D-17 -0.15523414D-16 -0.66985636D-16 -0.74622302D-05
 -0.74622302D-05  0.14924460D-04  0.34026798D-18 -0.25308580D-16  0.58467067D-17
 -0.39695779D-16 -0.19175555D-17 -0.24825249D-03 -0.12527131D-17  0.49687574D-16
  0.37237873D-03  0.12034005D-15 -0.43934908D-16  0.37237873D-03 -0.32585577D-16
  0.66396831D-17  0.29235966D-17 -0.41148186D-04  0.51405379D-17 -0.43259610D-18
  0.61722280D-04 -0.25059587D-16 -0.83381938D-17  0.61722280D-04  0.72555318D-17
MO    2     MO 0.0        OCC NO =    2.0000000  ORB. ENERGY =  -15.678844
  0.29101641D+00  0.54226623D+00  0.91710814D+00  0.13811140D+01  0.17099088D+01
  0.14550552D+01  0.55367535D+00 -0.25930979D-02  0.82900580D-04  0.15543936D-03
  0.26444860D-03  0.41066076D-03  0.54497072D-03  0.57432433D-03  0.35611772D-03
 -0.23688965D-03  0.25563695D-01  0.43938996D-02  0.36282471D-03 -0.39109965D-15
 -0.37564654D-15 -0.26342928D-15 -0.21912675D-15 -0.21046863D-15 -0.14759513D-15
 -0.39584740D-02 -0.38020670D-02 -0.26662718D-02  0.36303177D-16 -0.56279582D-16
 -0.72454111D-03 -0.71916362D-16  0.96928548D-18 -0.14614134D-02 -0.79430355D-17
 -0.16851379D-17 -0.24952499D-04 -0.14163378D-02 -0.14163378D-02  0.28326756D-02
 -0.96666366D-16  0.39112290D-15  0.26319176D-15 -0.20622005D-03 -0.20622005D-03
  0.41244009D-03  0.43293017D-16 -0.23700150D-16  0.43952766D-16 -0.43488038D-04
 -0.43488038D-04  0.86976076D-04 -0.91895352D-18  0.26851138D-16  0.26615041D-17
 -0.17108970D-16  0.29842523D-16 -0.91726575D-03 -0.36817331D-16 -0.74928897D-16
  0.13758986D-02  0.88144242D-16 -0.14598671D-16  0.13758986D-02 -0.55278100D-16
  0.59081527D-18  0.41616998D-17 -0.27427978D-05  0.10541722D-17 -0.19120398D-17
  0.41141967D-05 -0.28266180D-17 -0.10573060D-16  0.41141967D-05 -0.12921133D-17
 -0.29101641D+00 -0.54226623D+00 -0.91710814D+00 -0.13811140D+01 -0.17099088D+01
 -0.14550552D+01 -0.55367535D+00  0.25930979D-02 -0.82900580D-04 -0.15543936D-03
 -0.26444861D-03 -0.41066076D-03 -0.54497072D-03 -0.57432433D-03 -0.35611772D-03
  0.23688965D-03 -0.25563695D-01 -0.43938996D-02 -0.36282471D-03 -0.20025952D-15
 -0.19234688D-15 -0.13488691D-15  0.19291664D-17  0.18529413D-17  0.12994103D-17
 -0.39584740D-02 -0.38020670D-02 -0.26662718D-02  0.23475590D-17  0.20636117D-16
 -0.72454111D-03  0.59155026D-16  0.70851865D-17 -0.14614134D-02  0.77703079D-17
  0.11365218D-17 -0.24952499D-04  0.14163378D-02  0.14163378D-02 -0.28326756D-02
  0.19261868D-16  0.24772275D-15 -0.65603261D-16  0.20622005D-03  0.20622005D-03
 -0.41244009D-03 -0.10063439D-16  0.19230967D-16  0.64752832D-16  0.43488038D-04
  0.43488038D-04 -0.86976076D-04 -0.30891134D-18  0.25665158D-16 -0.59318980D-17
  0.39834989D-16  0.20568995D-17 -0.91726575D-03  0.13275335D-17 -0.50082045D-16
  0.13758986D-02 -0.12083250D-15  0.43911346D-16  0.13758986D-02  0.31938829D-16
 -0.69105676D-17 -0.27494532D-17 -0.27427978D-05 -0.54199794D-17  0.62961853D-18
  0.41141968D-05  0.26151682D-16  0.76187412D-17  0.41141968D-05 -0.69671757D-17
MO    3     MO 0.0        OCC NO =    2.0000000  ORB. ENERGY =   -1.478568
  0.75575651D-02  0.14082410D-01  0.23816885D-01  0.35866910D-01  0.44405561D-01
  0.37787128D-01  0.14378699D-01 -0.67341583D-04  0.57282485D-01  0.10740519D+00
  0.18272819D+00  0.28375759D+00  0.37656282D+00  0.39684553D+00  0.24606954D+00
 -0.16368555D+00 -0.79383089D-01 -0.20860969D-01  0.57791288D-03  0.98576041D-17
  0.94681109D-17  0.66396929D-17  0.46277743D-15  0.44449219D-15  0.31170861D-15
  0.44023609D+00  0.42284151D+00  0.29652565D+00 -0.32486512D-16  0.11887032D-15
  0.90832108D-01  0.31536314D-16  0.37045939D-16 -0.15548733D-02 -0.22731792D-17
  0.26767427D-19 -0.36838526D-03  0.41092102D-01  0.41092102D-01 -0.82184203D-01
 -0.27398832D-16  0.45456112D-16 -0.17459888D-15  0.32722887D-02  0.32722887D-02
 -0.65445775D-02  0.54033350D-16 -0.78423344D-16 -0.43469419D-16 -0.51432495D-03
 -0.51432495D-03  0.10286499D-02  0.18652369D-17 -0.94558134D-17 -0.13116456D-16
 -0.63465913D-17 -0.89188085D-17  0.13474719D-01 -0.21660948D-17  0.34016022D-16
 -0.20212078D-01  0.21205869D-16 -0.72595962D-17 -0.20212078D-01 -0.12181312D-16
 -0.30761715D-17 -0.15806823D-17 -0.63580437D-03 -0.36031565D-17 -0.12201576D-17
  0.95370655D-03  0.12831671D-16  0.59622044D-17  0.95370655D-03 -0.13072773D-16
  0.75575651D-02  0.14082410D-01  0.23816885D-01  0.35866910D-01  0.44405561D-01
  0.37787128D-01  0.14378699D-01 -0.67341583D-04  0.57282485D-01  0.10740519D+00
  0.18272819D+00  0.28375759D+00  0.37656282D+00  0.39684553D+00  0.24606954D+00
 -0.16368555D+00 -0.79383089D-01 -0.20860969D-01  0.57791288D-03  0.12742162D-15
  0.12238695D-15  0.85826175D-16  0.35662455D-15  0.34253361D-15  0.24020821D-15
 -0.44023609D+00 -0.42284151D+00 -0.29652565D+00 -0.51622216D-16  0.67156065D-16
 -0.90832108D-01 -0.94868811D-17 -0.16759152D-16  0.15548733D-02 -0.27461277D-17
 -0.33084560D-17  0.36838526D-03  0.41092102D-01  0.41092102D-01 -0.82184203D-01
  0.12552478D-16 -0.25404765D-16  0.10127696D-15  0.32722888D-02  0.32722888D-02
 -0.65445775D-02  0.38871896D-16 -0.58619067D-16  0.56541103D-17 -0.51432495D-03
 -0.51432495D-03  0.10286499D-02 -0.60777027D-17 -0.38047342D-17 -0.13408976D-16
  0.50647045D-17 -0.50814540D-17 -0.13474719D-01  0.31292460D-16  0.12791585D-17
  0.20212078D-01 -0.46486574D-16  0.13965203D-16  0.20212078D-01  0.11191344D-16
  0.20876086D-17 -0.10450704D-17  0.63580437D-03  0.12935157D-17  0.64551189D-18
 -0.95370655D-03 -0.75563415D-17  0.24896993D-17 -0.95370655D-03  0.10171532D-17
MO    4     MO 0.0        OCC NO =    2.0000000  ORB. ENERGY =   -0.777033
  0.17854814D-02  0.33269817D-02  0.56267602D-02  0.84735890D-02  0.10490853D-01
  0.89272424D-02  0.33969804D-02 -0.15909508D-04 -0.59371471D-01 -0.11132206D+00
 -0.18939195D+00 -0.29410571D+00 -0.39029538D+00 -0.41131775D+00 -0.25504325D+00
  0.16965487D+00  0.86210100D-01  0.93357494D-01  0.32843574D-02  0.15743870D-15
  0.15121799D-15  0.10604449D-15  0.98057025D-15  0.94182600D-15  0.66047340D-15
  0.40983589D+00  0.39364247D+00  0.27604927D+00 -0.52337509D-17  0.28242957D-15
  0.95393063D-01 -0.20864465D-17  0.52779099D-16 -0.84792619D-03 -0.18715319D-17
  0.17217461D-17 -0.47221487D-04  0.62027873D-02  0.62027873D-02 -0.12405575D-01
 -0.57947087D-17 -0.23426071D-16 -0.18812973D-15  0.30941117D-03  0.30941117D-03
 -0.61882235D-03  0.20806523D-16 -0.49660752D-16 -0.56275298D-16 -0.40571395D-03
 -0.40571395D-03  0.81142789D-03  0.30679256D-17 -0.34119428D-17 -0.15036055D-16
 -0.11658595D-16 -0.59197972D-17 -0.18528780D-02 -0.74331786D-17 -0.94402207D-17
  0.27793169D-02  0.42408964D-16  0.27199612D-16  0.27793169D-02  0.53327629D-17
 -0.27392489D-17  0.72281128D-18  0.44865120D-04 -0.23170102D-17  0.12735457D-17
 -0.67297680D-04  0.10534757D-16 -0.34419796D-17 -0.67297680D-04 -0.71972200D-17
 -0.17854814D-02 -0.33269817D-02 -0.56267602D-02 -0.84735890D-02 -0.10490853D-01
 -0.89272424D-02 -0.33969804D-02  0.15909508D-04  0.59371471D-01  0.11132206D+00
  0.18939195D+00  0.29410571D+00  0.39029538D+00  0.41131775D+00  0.25504325D+00
 -0.16965487D+00 -0.86210100D-01 -0.93357494D-01 -0.32843574D-02  0.27438940D-15
  0.26354774D-15  0.18481786D-15  0.75141824D-15  0.72172824D-15  0.50612566D-15
  0.40983589D+00  0.39364247D+00  0.27604927D+00  0.19925452D-16  0.19240271D-15
  0.95393063D-01  0.88190009D-17 -0.44622847D-17 -0.84792619D-03 -0.54866616D-18
 -0.15964654D-17 -0.47221487D-04 -0.62027873D-02 -0.62027873D-02  0.12405575D-01
 -0.46535925D-17  0.19113044D-17  0.20853573D-15 -0.30941117D-03 -0.30941117D-03
  0.61882235D-03  0.15711834D-16 -0.41227405D-16  0.40889050D-16  0.40571395D-03
  0.40571395D-03 -0.81142789D-03 -0.44296503D-17  0.62718217D-17 -0.80709950D-17
  0.16296567D-17 -0.16155548D-16 -0.18528780D-02  0.22662659D-16 -0.88035204D-17
  0.27793169D-02 -0.27551629D-16  0.57270164D-16  0.27793169D-02  0.12458241D-16
  0.29257041D-18  0.11373428D-17  0.44865120D-04 -0.71627957D-18  0.63224602D-19
 -0.67297680D-04 -0.16143164D-18 -0.34752531D-17 -0.67297680D-04 -0.16905874D-17
MO    5     MO 0.0        OCC NO =    2.0000000  ORB. ENERGY =   -0.635369
 -0.20175642D-02 -0.37594338D-02 -0.63581451D-02 -0.95750142D-02 -0.11854489D-01
 -0.10087635D-01 -0.38385312D-02  0.17977479D-04  0.21835675D-01  0.40942095D-01
  0.69654685D-01  0.10816637D+00  0.14354307D+00  0.15127469D+00  0.93799957D-01
 -0.62395768D-01 -0.30063700D-01 -0.46811831D-01 -0.23505902D-02  0.22097046D-15
  0.21223948D-15  0.14883697D-15 -0.15136096D-15 -0.14538039D-15 -0.10195077D-15
 -0.88405991D+00 -0.84912898D+00 -0.59546785D+00  0.81614902D-16 -0.25842211D-16
 -0.20616353D+00  0.14888492D-16  0.30579734D-16 -0.20832640D-01 -0.38070006D-17
  0.32857533D-18  0.67928850D-04 -0.37346054D-01 -0.37346054D-01  0.74692107D-01
 -0.71024975D-18 -0.40024586D-16 -0.11557343D-18 -0.26281224D-02 -0.26281224D-02
  0.52562447D-02 -0.51282285D-16  0.44306501D-17 -0.28237239D-16  0.10947723D-03
  0.10947723D-03 -0.21895447D-03 -0.16405022D-18 -0.33157307D-17  0.50813712D-18
 -0.11312277D-17 -0.31210603D-17 -0.10024388D-01  0.31931959D-17 -0.32527100D-16
  0.15036582D-01  0.20048720D-18  0.41890281D-16  0.15036582D-01 -0.28250597D-16
 -0.62847014D-18  0.21953469D-17  0.51153980D-03 -0.14609841D-17 -0.21850934D-17
 -0.76730970D-03  0.33463945D-17 -0.44009472D-17 -0.76730970D-03  0.36900210D-18
 -0.20175642D-02 -0.37594338D-02 -0.63581451D-02 -0.95750142D-02 -0.11854489D-01
 -0.10087635D-01 -0.38385312D-02  0.17977479D-04  0.21835675D-01  0.40942095D-01
  0.69654685D-01  0.10816637D+00  0.14354307D+00  0.15127469D+00  0.93799957D-01
 -0.62395768D-01 -0.30063700D-01 -0.46811831D-01 -0.23505902D-02  0.24686623D-15
  0.23711206D-15  0.16627934D-15 -0.60255857D-16 -0.57875030D-16 -0.40585966D-16
  0.88405991D+00  0.84912898D+00  0.59546785D+00  0.81857172D-16 -0.36619836D-16
  0.20616353D+00 -0.11228868D-16 -0.11718227D-16  0.20832640D-01 -0.14067705D-17
  0.26570469D-17 -0.67928850D-04 -0.37346054D-01 -0.37346054D-01  0.74692107D-01
  0.11335707D-16  0.35104940D-16  0.26448977D-16 -0.26281224D-02 -0.26281224D-02
  0.52562447D-02 -0.34937613D-16  0.11142565D-17 -0.41083663D-16  0.10947723D-03
  0.10947723D-03 -0.21895447D-03  0.29691572D-17 -0.23841072D-17 -0.10097898D-17
 -0.28188772D-18 -0.63351468D-17  0.10024388D-01 -0.19371796D-16 -0.74921422D-17
 -0.15036582D-01  0.20217459D-16  0.26497583D-16 -0.15036582D-01  0.23038453D-16
  0.12070074D-18  0.46935268D-17 -0.51153980D-03  0.86468597D-18  0.18342573D-17
  0.76730970D-03 -0.12267882D-17 -0.15914838D-16  0.76730970D-03 -0.11050320D-16
MO    6     MO 0.0        OCC NO =    2.0000000  ORB. ENERGY =   -0.618108
 -0.24205672D-16 -0.45103705D-16 -0.76281673D-16 -0.11487597D-15 -0.14222391D-15
 -0.12102613D-15 -0.46052674D-16  0.21568432D-18 -0.25904380D-16 -0.48570955D-16
 -0.82633647D-16 -0.12832133D-15 -0.17028987D-15 -0.17946214D-15 -0.11127798D-15
  0.74022154D-16  0.24559348D-16  0.14507833D-15 -0.49816635D-16  0.80419708D-01
  0.77242168D-01  0.54167540D-01 -0.79115761D+00 -0.75989742D+00 -0.53289253D+00
  0.49149233D-15  0.47207251D-15  0.33104983D-15  0.21130245D-01 -0.20787633D+00
  0.16400520D-18  0.27352436D-02 -0.26908936D-01 -0.22610748D-17  0.16752568D-04
 -0.16480937D-03  0.27882048D-17 -0.45234137D-16  0.14417936D-16  0.30816201D-16
  0.55702293D-16 -0.14217567D-01  0.13987040D+00 -0.20988519D-16 -0.85591803D-17
  0.29547700D-16  0.17750383D-16 -0.28021749D-02  0.27567397D-01 -0.23985263D-17
 -0.25192426D-17  0.49177689D-17 -0.16762122D-16 -0.78776004D-04  0.77498708D-03
 -0.90723165D-03  0.89252155D-02 -0.38343289D-16 -0.90723165D-03  0.89252155D-02
 -0.30298283D-16  0.36289266D-02 -0.35700862D-01  0.14532815D-15 -0.39955131D-15
 -0.88315173D-05  0.86883207D-04 -0.68239129D-17 -0.88315173D-05  0.86883207D-04
  0.16741527D-18  0.35326069D-04 -0.34753283D-03  0.20304323D-16 -0.17933363D-16
 -0.38293199D-17 -0.71353738D-17 -0.12067706D-16 -0.18173296D-16 -0.22499720D-16
 -0.19146246D-16 -0.72854999D-17  0.34121104D-19  0.78851401D-16  0.14784711D-15
  0.25153193D-15  0.39060253D-15  0.51835228D-15  0.54627215D-15  0.33872358D-15
 -0.22531906D-15 -0.17903033D-15 -0.12767479D-15  0.54764263D-16  0.80419708D-01
  0.77242168D-01  0.54167540D-01 -0.79115761D+00 -0.75989742D+00 -0.53289253D+00
  0.37588854D-15  0.36103645D-15  0.25318368D-15  0.21130245D-01 -0.20787633D+00
 -0.64247992D-16  0.27352436D-02 -0.26908936D-01  0.24462286D-16  0.16752568D-04
 -0.16480937D-03  0.12944699D-17  0.95421791D-16 -0.53076071D-16 -0.42345720D-16
 -0.10059705D-16  0.14217567D-01 -0.13987040D+00 -0.11862329D-16 -0.94265418D-17
  0.21288871D-16 -0.13180905D-17  0.28021749D-02 -0.27567397D-01 -0.10831194D-17
 -0.51823057D-17  0.62654251D-17 -0.77599191D-17  0.78776004D-04 -0.77498708D-03
 -0.90723165D-03  0.89252155D-02  0.12437139D-16 -0.90723165D-03  0.89252155D-02
  0.83996966D-17  0.36289266D-02 -0.35700862D-01 -0.45711114D-16  0.12820564D-15
 -0.88315173D-05  0.86883207D-04  0.11727256D-16 -0.88315173D-05  0.86883207D-04
 -0.69756895D-17  0.35326069D-04 -0.34753283D-03 -0.28206079D-16 -0.15383835D-17
MO    7     MO 0.0        OCC NO =    2.0000000  ORB. ENERGY =   -0.618108
  0.21889921D-17  0.40788644D-17  0.68983823D-17  0.10388582D-16  0.12861738D-16
  0.10944758D-16  0.41646825D-17 -0.19504985D-19 -0.78308452D-17 -0.14682908D-16
 -0.24979995D-16 -0.38791295D-16 -0.51478304D-16 -0.54251066D-16 -0.33639122D-16
  0.22376757D-16  0.33129089D-16 -0.42388281D-15 -0.36689934D-15 -0.79115761D+00
 -0.75989742D+00 -0.53289253D+00 -0.80419708D-01 -0.77242168D-01 -0.54167540D-01
  0.69516520D-16  0.66769787D-16  0.46823583D-16 -0.20787633D+00 -0.21130245D-01
 -0.16997167D-16 -0.26908936D-01 -0.27352436D-02  0.20949522D-15 -0.16480937D-03
 -0.16752568D-04  0.25848919D-16 -0.14239561D-16 -0.42811709D-16  0.57051270D-16
 -0.16684271D-15  0.13987040D+00  0.14217567D-01 -0.34779019D-16  0.34773619D-16
  0.54006221D-20  0.40053437D-16  0.27567397D-01  0.28021749D-02  0.18678556D-16
 -0.51581879D-17 -0.13520368D-16  0.95493624D-17  0.77498708D-03  0.78776004D-04
  0.89252155D-02  0.90723165D-03 -0.12940903D-16  0.89252155D-02  0.90723165D-03
  0.86179383D-16 -0.35700862D-01 -0.36289266D-02 -0.47356674D-16  0.37168260D-15
  0.86883207D-04  0.88315173D-05  0.14610352D-17  0.86883207D-04  0.88315173D-05
 -0.86921101D-17 -0.34753283D-03 -0.35326069D-04  0.43090046D-17 -0.42451024D-16
  0.11690981D-16  0.21784422D-16  0.36842919D-16  0.55483395D-16  0.68692043D-16
  0.58453828D-16  0.22242760D-16 -0.10417233D-18  0.56449809D-17  0.10584392D-16
  0.18007200D-16  0.27963280D-16  0.37108899D-16  0.39107686D-16  0.24249260D-16
 -0.16130617D-16 -0.29576112D-16  0.39008437D-15  0.35984275D-15 -0.79115761D+00
 -0.75989742D+00 -0.53289253D+00 -0.80419708D-01 -0.77242168D-01 -0.54167540D-01
  0.42073836D-15  0.40411417D-15  0.28339275D-15 -0.20787633D+00 -0.21130245D-01
  0.79111333D-16 -0.26908936D-01 -0.27352436D-02  0.20764051D-15 -0.16480937D-03
 -0.16752568D-04  0.32412760D-16 -0.44692301D-16  0.17902570D-16  0.26789731D-16
  0.86583039D-16 -0.13987040D+00 -0.14217567D-01  0.87748608D-17 -0.12231136D-16
  0.34562757D-17 -0.14404938D-16 -0.27567397D-01 -0.28021749D-02 -0.19880408D-16
  0.55453153D-17  0.14335093D-16 -0.18386452D-17 -0.77498708D-03 -0.78776004D-04
  0.89252155D-02  0.90723165D-03 -0.29145170D-17  0.89252155D-02  0.90723165D-03
 -0.41474746D-16 -0.35700862D-01 -0.36289266D-02  0.50218297D-16  0.14186785D-15
  0.86883207D-04  0.88315173D-05 -0.40184170D-17  0.86883207D-04  0.88315173D-05
  0.21031501D-17 -0.34753283D-03 -0.35326069D-04  0.99521009D-17 -0.11407557D-16
END DATA
RHF
