 Molden2AIM, Version 4.0.0 (06/02/2016)           Time: Wed Jun 27 19:36:38 2018
GAUSSIAN             14 MOL ORBITALS    271 PRIMITIVES        2 NUCLEI
  Na   1    (CENTRE  1)   0.00000000  0.00000000 -2.71727499  CHARGE = 11.0
  Cl   2    (CENTRE  2)   0.00000000  0.00000000  1.74907381  CHARGE = 17.0
CENTRE ASSIGNMENTS    1  1  1  1  1  1  1  1  1  1  1  1  1  1  1  1  1  1  1  1
CENTRE ASSIGNMENTS    1  1  1  1  1  1  1  1  1  1  1  1  1  1  1  1  1  1  1  1
CENTRE ASSIGNMENTS    1  1  1  1  1  1  1  1  1  1  1  1  1  1  1  1  1  1  1  1
CENTRE ASSIGNMENTS    1  1  1  1  1  1  1  1  1  1  1  1  1  1  1  1  1  1  1  1
CENTRE ASSIGNMENTS    1  1  1  1  1  1  1  1  1  1  1  1  1  1  1  1  1  1  1  1
CENTRE ASSIGNMENTS    1  1  1  1  1  1  1  1  1  1  1  1  1  1  1  1  1  1  1  1
CENTRE ASSIGNMENTS    1  1  1  1  1  1  1  1  1  1  1  1  1  1  1  1  1  1  1  1
CENTRE ASSIGNMENTS    2  2  2  2  2  2  2  2  2  2  2  2  2  2  2  2  2  2  2  2
CENTRE ASSIGNMENTS    2  2  2  2  2  2  2  2  2  2  2  2  2  2  2  2  2  2  2  2
CENTRE ASSIGNMENTS    2  2  2  2  2  2  2  2  2  2  2  2  2  2  2  2  2  2  2  2
CENTRE ASSIGNMENTS    2  2  2  2  2  2  2  2  2  2  2  2  2  2  2  2  2  2  2  2
CENTRE ASSIGNMENTS    2  2  2  2  2  2  2  2  2  2  2  2  2  2  2  2  2  2  2  2
CENTRE ASSIGNMENTS    2  2  2  2  2  2  2  2  2  2  2  2  2  2  2  2  2  2  2  2
CENTRE ASSIGNMENTS    2  2  2  2  2  2  2  2  2  2  2
TYPE ASSIGNMENTS      1  1  1  1  1  1  1  1  1  1  1  1  1  1  1  1  1  1  1  1
TYPE ASSIGNMENTS      1  1  1  1  1  1  1  1  1  1  1  1  1  1  1  1  1  1  1  1
TYPE ASSIGNMENTS      1  1  1  1  1  2  2  2  2  2  2  2  2  3  3  3  3  3  3  3
TYPE ASSIGNMENTS      3  4  4  4  4  4  4  4  4  2  2  2  2  2  2  2  2  3  3  3
TYPE ASSIGNMENTS      3  3  3  3  3  4  4  4  4  4  4  4  4  2  3  4  2  3  4  2
TYPE ASSIGNMENTS      3  4  5  6  7  8  9 10  5  6  7  8  9 10  5  6  7  8  9 10
TYPE ASSIGNMENTS     11 12 13 17 14 15 18 19 16 20 11 12 13 17 14 15 18 19 16 20
TYPE ASSIGNMENTS      1  1  1  1  1  1  1  1  1  1  1  1  1  1  1  1  1  1  1  1
TYPE ASSIGNMENTS      1  1  1  1  1  1  1  1  1  1  1  1  1  1  1  1  1  1  1  1
TYPE ASSIGNMENTS      1  1  2  2  2  2  2  2  2  3  3  3  3  3  3  3  4  4  4  4
TYPE ASSIGNMENTS      4  4  4  2  2  2  2  2  2  2  3  3  3  3  3  3  3  4  4  4
TYPE ASSIGNMENTS      4  4  4  4  2  3  4  2  3  4  2  3  4  5  6  7  8  9 10  5
TYPE ASSIGNMENTS      6  7  8  9 10  5  6  7  8  9 10 11 12 13 17 14 15 18 19 16
TYPE ASSIGNMENTS     20 11 12 13 17 14 15 18 19 16 20
EXPONENTS  0.4230000D+06 0.6334000D+05 0.1441000D+05 0.4077000D+04 0.1328000D+04
EXPONENTS  0.4786000D+03 0.1862000D+03 0.7692000D+02 0.3332000D+02 0.1500000D+02
EXPONENTS  0.6869000D+01 0.2683000D+01 0.1109000D+01 0.6015000D-01 0.4230000D+06
EXPONENTS  0.6334000D+05 0.1441000D+05 0.4077000D+04 0.1328000D+04 0.4786000D+03
EXPONENTS  0.1862000D+03 0.7692000D+02 0.3332000D+02 0.1500000D+02 0.6869000D+01
EXPONENTS  0.2683000D+01 0.1109000D+01 0.6015000D-01 0.4230000D+06 0.6334000D+05
EXPONENTS  0.1441000D+05 0.4077000D+04 0.1328000D+04 0.4786000D+03 0.1862000D+03
EXPONENTS  0.7692000D+02 0.3332000D+02 0.1500000D+02 0.6869000D+01 0.2683000D+01
EXPONENTS  0.1109000D+01 0.6015000D-01 0.4540000D+00 0.2382000D-01 0.6650000D-02
EXPONENTS  0.2433000D+03 0.5739000D+02 0.1810000D+02 0.6575000D+01 0.2521000D+01
EXPONENTS  0.9607000D+00 0.3512000D+00 0.9827000D-01 0.2433000D+03 0.5739000D+02
EXPONENTS  0.1810000D+02 0.6575000D+01 0.2521000D+01 0.9607000D+00 0.3512000D+00
EXPONENTS  0.9827000D-01 0.2433000D+03 0.5739000D+02 0.1810000D+02 0.6575000D+01
EXPONENTS  0.2521000D+01 0.9607000D+00 0.3512000D+00 0.9827000D-01 0.2433000D+03
EXPONENTS  0.5739000D+02 0.1810000D+02 0.6575000D+01 0.2521000D+01 0.9607000D+00
EXPONENTS  0.3512000D+00 0.9827000D-01 0.2433000D+03 0.5739000D+02 0.1810000D+02
EXPONENTS  0.6575000D+01 0.2521000D+01 0.9607000D+00 0.3512000D+00 0.9827000D-01
EXPONENTS  0.2433000D+03 0.5739000D+02 0.1810000D+02 0.6575000D+01 0.2521000D+01
EXPONENTS  0.9607000D+00 0.3512000D+00 0.9827000D-01 0.3734000D-01 0.3734000D-01
EXPONENTS  0.3734000D-01 0.1500000D-01 0.1500000D-01 0.1500000D-01 0.7000000D-02
EXPONENTS  0.7000000D-02 0.7000000D-02 0.1367000D+00 0.1367000D+00 0.1367000D+00
EXPONENTS  0.1367000D+00 0.1367000D+00 0.1367000D+00 0.6360000D-01 0.6360000D-01
EXPONENTS  0.6360000D-01 0.6360000D-01 0.6360000D-01 0.6360000D-01 0.2230000D-01
EXPONENTS  0.2230000D-01 0.2230000D-01 0.2230000D-01 0.2230000D-01 0.2230000D-01
EXPONENTS  0.1397000D+00 0.1397000D+00 0.1397000D+00 0.1397000D+00 0.1397000D+00
EXPONENTS  0.1397000D+00 0.1397000D+00 0.1397000D+00 0.1397000D+00 0.1397000D+00
EXPONENTS  0.7140000D-01 0.7140000D-01 0.7140000D-01 0.7140000D-01 0.7140000D-01
EXPONENTS  0.7140000D-01 0.7140000D-01 0.7140000D-01 0.7140000D-01 0.7140000D-01
EXPONENTS  0.4561000D+06 0.6833000D+05 0.1555000D+05 0.4405000D+04 0.1439000D+04
EXPONENTS  0.5204000D+03 0.2031000D+03 0.8396000D+02 0.3620000D+02 0.1583000D+02
EXPONENTS  0.6334000D+01 0.2694000D+01 0.4313000D+00 0.4561000D+06 0.6833000D+05
EXPONENTS  0.1555000D+05 0.4405000D+04 0.1439000D+04 0.5204000D+03 0.2031000D+03
EXPONENTS  0.8396000D+02 0.3620000D+02 0.1583000D+02 0.6334000D+01 0.2694000D+01
EXPONENTS  0.4313000D+00 0.4561000D+06 0.6833000D+05 0.1555000D+05 0.4405000D+04
EXPONENTS  0.1439000D+04 0.5204000D+03 0.2031000D+03 0.8396000D+02 0.3620000D+02
EXPONENTS  0.1583000D+02 0.6334000D+01 0.2694000D+01 0.4313000D+00 0.9768000D+00
EXPONENTS  0.1625000D+00 0.5910000D-01 0.6633000D+03 0.1568000D+03 0.4998000D+02
EXPONENTS  0.1842000D+02 0.7240000D+01 0.2922000D+01 0.3818000D+00 0.6633000D+03
EXPONENTS  0.1568000D+03 0.4998000D+02 0.1842000D+02 0.7240000D+01 0.2922000D+01
EXPONENTS  0.3818000D+00 0.6633000D+03 0.1568000D+03 0.4998000D+02 0.1842000D+02
EXPONENTS  0.7240000D+01 0.2922000D+01 0.3818000D+00 0.6633000D+03 0.1568000D+03
EXPONENTS  0.4998000D+02 0.1842000D+02 0.7240000D+01 0.2922000D+01 0.3818000D+00
EXPONENTS  0.6633000D+03 0.1568000D+03 0.4998000D+02 0.1842000D+02 0.7240000D+01
EXPONENTS  0.2922000D+01 0.3818000D+00 0.6633000D+03 0.1568000D+03 0.4998000D+02
EXPONENTS  0.1842000D+02 0.7240000D+01 0.2922000D+01 0.3818000D+00 0.1022000D+01
EXPONENTS  0.1022000D+01 0.1022000D+01 0.1301000D+00 0.1301000D+00 0.1301000D+00
EXPONENTS  0.4190000D-01 0.4190000D-01 0.4190000D-01 0.1046000D+01 0.1046000D+01
EXPONENTS  0.1046000D+01 0.1046000D+01 0.1046000D+01 0.1046000D+01 0.3440000D+00
EXPONENTS  0.3440000D+00 0.3440000D+00 0.3440000D+00 0.3440000D+00 0.3440000D+00
EXPONENTS  0.1350000D+00 0.1350000D+00 0.1350000D+00 0.1350000D+00 0.1350000D+00
EXPONENTS  0.1350000D+00 0.7060000D+00 0.7060000D+00 0.7060000D+00 0.7060000D+00
EXPONENTS  0.7060000D+00 0.7060000D+00 0.7060000D+00 0.7060000D+00 0.7060000D+00
EXPONENTS  0.7060000D+00 0.3120000D+00 0.3120000D+00 0.3120000D+00 0.3120000D+00
EXPONENTS  0.3120000D+00 0.3120000D+00 0.3120000D+00 0.3120000D+00 0.3120000D+00
EXPONENTS  0.3120000D+00
MO    1     MO 0.0        OCC NO =    2.0000000  ORB. ENERGY = -104.703425
  0.11252866D-05  0.21060336D-05  0.36480340D-05  0.59637146D-05  0.92614162D-05
  0.13560928D-04  0.18174239D-04  0.20852203D-04  0.18164046D-04  0.92921950D-05
  0.17950752D-05  0.55655367D-07  0.24274705D-08 -0.24219309D-11 -0.36090264D-05
 -0.67709760D-05 -0.11697243D-04 -0.19245540D-04 -0.29899284D-04 -0.44767119D-04
 -0.61711721D-04 -0.77720674D-04 -0.79742781D-04 -0.61135218D-04 -0.91952781D-05
  0.34979500D-04  0.29954917D-04  0.24394764D-07  0.27020523D-05  0.50597176D-05
  0.87655714D-05  0.14370943D-04  0.22437921D-04  0.33432728D-04  0.46517574D-04
  0.58331082D-04  0.61287713D-04  0.47095479D-04  0.79598373D-05 -0.31656492D-04
 -0.30727225D-04  0.18693694D-04 -0.42866220D-05  0.17349768D-06 -0.80262203D-08
 -0.63027358D-15 -0.80339873D-15 -0.84479904D-15 -0.67431083D-15 -0.35148054D-15
 -0.10979136D-15 -0.12678170D-16 -0.37523687D-19  0.82829387D-16  0.10558117D-15
  0.11102193D-15  0.88616681D-16  0.46190921D-16  0.14428577D-16  0.16661416D-17
  0.49312935D-20  0.27110770D-03  0.34557626D-03  0.36338430D-03  0.29005001D-03
  0.15118686D-03  0.47225974D-04  0.54534248D-05  0.16140548D-07  0.54263104D-15
  0.69899749D-15  0.73509867D-15  0.60200940D-15  0.30999922D-15  0.10871971D-15
  0.13189645D-16 -0.25523949D-16 -0.27119678D-15 -0.34934578D-15 -0.36738847D-15
 -0.30087296D-15 -0.15493177D-15 -0.54336066D-16 -0.65919361D-17  0.12756389D-16
 -0.25285339D-03 -0.32571650D-03 -0.34253881D-03 -0.28052232D-03 -0.14445240D-03
 -0.50660847D-04 -0.61460664D-05  0.11893564D-04  0.14577711D-16  0.10825350D-17
  0.13716599D-05 -0.25866071D-17 -0.11718072D-17 -0.11550815D-06  0.50043565D-20
  0.18493808D-18  0.10970727D-07 -0.13789077D-05 -0.13789077D-05  0.27578154D-05
  0.84634548D-17 -0.68274047D-17 -0.48093999D-17 -0.30008815D-06 -0.30008815D-06
  0.60017630D-06 -0.28674409D-17  0.26102605D-17  0.28825217D-17  0.30232570D-08
  0.30232570D-08 -0.60465140D-08 -0.30372556D-19  0.11119573D-18 -0.28958724D-18
 -0.25339673D-18  0.23629866D-18  0.30501043D-06 -0.25347856D-18  0.23632835D-18
 -0.45751564D-06  0.10136688D-17 -0.94522432D-18 -0.45751564D-06 -0.22636158D-19
  0.11854903D-18 -0.27909106D-18  0.43793437D-07  0.11854865D-18 -0.27910633D-18
 -0.65690155D-07 -0.47419575D-18  0.11163795D-17 -0.65690155D-07 -0.63116387D-19
  0.61664222D+00  0.11537400D+01  0.19934070D+01  0.32315453D+01  0.49073594D+01
  0.68206524D+01  0.81087718D+01  0.72226702D+01  0.35855498D+01  0.57768951D+00
  0.88690728D-02  0.15848946D-02  0.59225039D-04 -0.19695564D-04 -0.36788485D-04
 -0.63848200D-04 -0.10359968D-03 -0.16036000D-03 -0.22954078D-03 -0.29962241D-03
 -0.31929768D-03 -0.23868150D-03 -0.12599572D-04  0.16189825D-03  0.96186160D-04
 -0.36062599D-06  0.82354578D-05  0.15370295D-04  0.26712221D-04  0.43292651D-04
  0.67240266D-04  0.96323621D-04  0.12718637D-03  0.13752619D-03  0.10782232D-03
  0.53652027D-05 -0.92430985D-04 -0.95683205D-04  0.43298004D-04 -0.30061133D-03
 -0.42288153D-04 -0.12651538D-04  0.94374008D-17  0.12431175D-16  0.13714498D-16
  0.11391467D-16  0.60502849D-17  0.15605450D-17 -0.16041872D-20  0.51431386D-16
  0.67746678D-16  0.74740457D-16  0.62080540D-16  0.32972483D-16  0.85045652D-17
 -0.87424039D-20 -0.36523240D-03 -0.48109304D-03 -0.53075833D-03 -0.44085580D-03
 -0.23414922D-03 -0.60393915D-04  0.62082892D-07 -0.74342113D-16 -0.97605745D-16
 -0.11113132D-15 -0.94101439D-16 -0.53904927D-16 -0.12261501D-16  0.57390572D-17
 -0.38451830D-16 -0.50484434D-16 -0.57480242D-16 -0.48671908D-16 -0.27881143D-16
 -0.63419927D-17  0.29684016D-17  0.14297861D-03  0.18772044D-03  0.21373353D-03
  0.18098077D-03  0.10367276D-03  0.23581955D-04 -0.11037653D-04  0.43510064D-17
 -0.60134516D-17  0.23127987D-04 -0.16773352D-17 -0.76917109D-17  0.16056629D-04
 -0.34217086D-17 -0.14599747D-17  0.81303863D-06 -0.18685446D-05 -0.18685446D-05
  0.37370891D-05 -0.90558047D-18  0.18173678D-16 -0.20570687D-16  0.71327209D-06
  0.71327209D-06 -0.14265442D-05 -0.13298187D-17 -0.27833822D-17 -0.75558985D-17
  0.98562648D-06  0.98562648D-06 -0.19712530D-05  0.18998636D-18  0.40016369D-17
 -0.58167892D-18 -0.10327279D-17  0.19219929D-17 -0.17177598D-05 -0.10498515D-17
  0.18859396D-17  0.25766396D-05  0.41480352D-17 -0.76519182D-17  0.25766396D-05
  0.12826407D-18  0.31501315D-18 -0.50527863D-18  0.91751645D-06  0.31565894D-18
 -0.50072612D-18 -0.13762747D-05 -0.12606984D-17  0.20165620D-17 -0.13762747D-05
 -0.84245635D-18
MO    2     MO 0.0        OCC NO =    2.0000000  ORB. ENERGY =  -40.499356
  0.21351380D+00  0.39960240D+00  0.69218417D+00  0.11315654D+01  0.17572769D+01
  0.25730736D+01  0.34484111D+01  0.39565326D+01  0.34464770D+01  0.17631169D+01
  0.34060062D+00  0.10560144D-01  0.46059238D-03 -0.45954130D-06  0.38630192D-05
  0.72474975D-05  0.12520461D-04  0.20599985D-04  0.32003508D-04  0.47917698D-04
  0.66054813D-04  0.83190428D-04  0.85354846D-04  0.65437736D-04  0.98424151D-05
 -0.37441256D-04 -0.32063057D-04 -0.26111596D-07 -0.52891225D-05 -0.99041260D-05
 -0.17158136D-04 -0.28130351D-04 -0.43921028D-04 -0.65442773D-04 -0.91055658D-04
 -0.11417997D-03 -0.11996741D-03 -0.92186875D-04 -0.15580955D-04  0.61965886D-04
  0.60146895D-04 -0.36591904D-04  0.70945666D-04 -0.18974746D-05  0.12830957D-06
  0.49900380D-19  0.63607142D-19  0.66884911D-19  0.53386922D-19  0.27827618D-19
  0.86924643D-20  0.10037633D-20  0.29708468D-23  0.36102768D-20  0.46019568D-20
  0.48391023D-20  0.38625270D-20  0.20133194D-20  0.62889706D-21  0.72621960D-22
  0.21493983D-24 -0.75641751D-03 -0.96419219D-03 -0.10138784D-02 -0.80926844D-03
 -0.42182639D-03 -0.13176517D-03 -0.15215599D-04 -0.45033736D-07  0.31881370D-18
  0.41068417D-18  0.43189481D-18  0.35370046D-18  0.18213481D-18  0.63876432D-19
  0.77493531D-20 -0.14996165D-19 -0.23259343D-19 -0.29961837D-19 -0.31509279D-19
 -0.25804538D-19 -0.13287810D-19 -0.46601631D-20 -0.56536109D-21  0.10940589D-20
  0.38586154D-03  0.49705274D-03  0.52272407D-03  0.42808512D-03  0.22043851D-03
  0.77309908D-04  0.93790738D-05 -0.18149921D-04 -0.12927157D-20 -0.18704899D-21
 -0.34394219D-05  0.18093993D-21  0.93090651D-22  0.27694149D-06  0.30271243D-22
 -0.49130872D-22 -0.19472264D-07  0.21540328D-05  0.21540328D-05 -0.43080656D-05
  0.20923235D-21 -0.26377462D-20 -0.10528170D-20  0.38586115D-06  0.38586115D-06
 -0.77172229D-06 -0.16344008D-21 -0.54632245D-20  0.12718171D-22 -0.13668872D-08
 -0.13668872D-08  0.27337745D-08  0.30098020D-22  0.20206526D-21  0.49941487D-22
  0.29853764D-21  0.24602419D-21 -0.38769254D-06 -0.45690497D-21 -0.80461016D-21
  0.58153881D-06 -0.43870796D-21  0.66537594D-22  0.58153881D-06  0.60357225D-21
  0.34761169D-21  0.33208955D-23 -0.16376762D-07  0.40826826D-21  0.17652028D-21
  0.24565143D-07 -0.14511033D-20 -0.18648297D-21  0.24565143D-07 -0.67453876D-22
 -0.56160098D-05 -0.10507576D-04 -0.18154763D-04 -0.29430989D-04 -0.44693304D-04
 -0.62118437D-04 -0.73849860D-04 -0.65779775D-04 -0.32655050D-04 -0.52612518D-05
 -0.80774229D-07 -0.14434275D-07 -0.53938635D-09  0.96353719D-05  0.17997491D-04
  0.31235519D-04  0.50682553D-04  0.78450573D-04  0.11229487D-03  0.14657988D-03
  0.15620532D-03  0.11676665D-03  0.61639039D-05 -0.79203106D-04 -0.47055744D-04
  0.17642376D-06 -0.50464131D-05 -0.94184030D-05 -0.16368355D-04 -0.26528289D-04
 -0.41202586D-04 -0.59023893D-04 -0.77935551D-04 -0.84271449D-04 -0.66069909D-04
 -0.32876168D-05  0.56638616D-04  0.58631468D-04 -0.26531569D-04  0.15214798D-04
  0.17035975D-04  0.37989611D-04  0.24708960D-14  0.32547245D-14  0.35907236D-14
  0.29825087D-14  0.15840828D-14  0.40858117D-15 -0.42000755D-18  0.26114675D-15
  0.34398888D-15  0.37950032D-15  0.31521864D-15  0.16742028D-15  0.43182573D-16
 -0.44390217D-19  0.42197903D-03  0.55584109D-03  0.61322294D-03  0.50935214D-03
  0.27052929D-03  0.69777396D-04 -0.71728791D-07  0.33118819D-17  0.43482581D-17
  0.49508118D-17  0.41921441D-17  0.24014215D-17  0.54624009D-18 -0.25567042D-18
 -0.25702628D-18 -0.33745667D-18 -0.38421924D-18 -0.32534107D-18 -0.18636789D-18
 -0.42392230D-19  0.19841897D-19 -0.36936315D-03 -0.48494673D-03 -0.55214753D-03
 -0.46753585D-03 -0.26782254D-03 -0.60920335D-04  0.28514070D-04  0.18222701D-16
  0.20058308D-17 -0.30162678D-04  0.81338577D-19  0.18885820D-19 -0.28714563D-04
 -0.32784324D-20 -0.66584006D-21 -0.30458707D-05 -0.13507086D-05 -0.13507086D-05
  0.27014172D-05 -0.72321926D-21 -0.12815633D-18  0.31185699D-20  0.17861050D-05
  0.17861050D-05 -0.35722100D-05 -0.42808483D-21  0.32519518D-19 -0.23781685D-20
 -0.26945573D-05 -0.26945573D-05  0.53891146D-05 -0.18153559D-22 -0.16216773D-19
 -0.95974064D-21  0.22280474D-20  0.15471608D-20  0.11696552D-04 -0.15999245D-20
  0.27817610D-20 -0.17544829D-04 -0.50842176D-20 -0.74232432D-20 -0.17544829D-04
  0.35393044D-20 -0.20518243D-20 -0.88122848D-21 -0.37446044D-05 -0.14690020D-20
 -0.10465142D-20  0.56169066D-05  0.76244750D-20  0.36901996D-20  0.56169066D-05
  0.44092116D-22
MO    3     MO 0.0        OCC NO =    2.0000000  ORB. ENERGY =  -10.428691
 -0.17372566D-04 -0.32513679D-04 -0.56319618D-04 -0.92069901D-04 -0.14298097D-03
 -0.20935833D-03 -0.28058023D-03 -0.32192357D-03 -0.28042286D-03 -0.14345614D-03
 -0.27712995D-04 -0.85922692D-06 -0.37476134D-07  0.37390613D-10  0.57287668D-04
  0.10747869D-03  0.18567550D-03  0.30549294D-03  0.47460452D-03  0.71060822D-03
  0.97957737D-03  0.12336945D-02  0.12657923D-02  0.97042627D-03  0.14596071D-03
 -0.55524504D-03 -0.47548761D-03 -0.38722884D-06 -0.42429265D-04 -0.79450757D-04
 -0.13764232D-03 -0.22566127D-03 -0.35233386D-03 -0.52498099D-03 -0.73044719D-03
 -0.91595005D-03 -0.96237688D-03 -0.73952179D-03 -0.12499020D-03  0.49708945D-03
  0.48249754D-03 -0.29353973D-03  0.54003233D-04  0.62153484D-05 -0.29138590D-06
  0.14882200D-14  0.18970080D-14  0.19947636D-14  0.15922020D-14  0.82992587D-15
  0.25924249D-15  0.29936057D-16  0.88602001D-19 -0.34449059D-15 -0.43911614D-15
 -0.46174443D-15 -0.36856017D-15 -0.19210981D-15 -0.60009005D-16 -0.69295468D-17
 -0.20509438D-19 -0.44838925D-02 -0.57155394D-02 -0.60100695D-02 -0.47971823D-02
 -0.25005029D-02 -0.78107773D-03 -0.90195040D-04 -0.26695102D-06  0.93868506D-16
  0.12091798D-15  0.12716304D-15  0.10414023D-15  0.53626058D-16  0.18807175D-16
  0.22816466D-17 -0.44153298D-17  0.29364968D-15  0.37826879D-15  0.39780527D-15
  0.32578281D-15  0.16775887D-15  0.58834653D-16  0.71376951D-17 -0.13812515D-16
  0.41025077D-02  0.52847007D-02  0.55576401D-02  0.45514319D-02  0.23437181D-02
  0.82196453D-03  0.99718991D-04 -0.19297127D-03  0.15226519D-17  0.44402297D-17
 -0.18765354D-04 -0.36532598D-18 -0.39361316D-17  0.20735497D-05 -0.77445734D-19
  0.83412220D-18 -0.22244353D-06  0.21634825D-04  0.21634825D-04 -0.43269649D-04
  0.86865173D-17 -0.76078785D-17  0.86812265D-17  0.50401351D-05  0.50401351D-05
 -0.10080270D-04  0.39818970D-18  0.10489863D-17 -0.16601358D-17 -0.87490197D-07
 -0.87490197D-07  0.17498039D-06 -0.28054586D-18 -0.10705367D-18 -0.71114489D-18
  0.37378116D-18 -0.35176559D-18 -0.40068247D-05  0.36878878D-18 -0.34809684D-18
  0.60102370D-05 -0.14901323D-17  0.14033936D-17  0.60102370D-05  0.12937989D-17
  0.30198188D-19  0.18337809D-18 -0.91716636D-06  0.30245527D-19  0.18241459D-18
  0.13757495D-05 -0.12084009D-18 -0.73254885D-18  0.13757495D-05 -0.28467058D-18
 -0.22127581D-03 -0.41400790D-03 -0.71531393D-03 -0.11596073D-02 -0.17609562D-02
 -0.24475221D-02 -0.29097506D-02 -0.25917821D-02 -0.12866382D-02 -0.20729803D-03
 -0.31825770D-05 -0.56872338D-06 -0.21252305D-07 -0.17263395D+00 -0.32245544D+00
 -0.55963705D+00 -0.90806350D+00 -0.14055745D+01 -0.20119521D+01 -0.26262260D+01
 -0.27986820D+01 -0.20920716D+01 -0.11043675D+00  0.14190574D+01  0.84308311D+00
 -0.31609296D-02 -0.15730373D-03 -0.29358475D-03 -0.51022445D-03 -0.82692374D-03
 -0.12843420D-02 -0.18398570D-02 -0.24293598D-02 -0.26268585D-02 -0.20594911D-02
 -0.10247960D-03  0.17655046D-02  0.18276246D-02 -0.82702597D-03  0.56068135D-01
  0.11118413D-02  0.14103815D-03  0.17287562D-13  0.22771599D-13  0.25122408D-13
  0.20867047D-13  0.11082996D-13  0.28586279D-14 -0.29385723D-17  0.20468343D-14
  0.26961401D-14  0.29744742D-14  0.24706427D-14  0.13122184D-14  0.33845939D-15
 -0.34792475D-18 -0.97296699D-02 -0.12816159D-01 -0.14139226D-01 -0.11744252D-01
 -0.62376576D-02 -0.16088739D-02  0.16538676D-05 -0.37563672D-16 -0.49318348D-16
 -0.56152567D-16 -0.47547687D-16 -0.27237146D-16 -0.61955058D-17  0.28998377D-17
 -0.34629328D-15 -0.45465769D-15 -0.51766123D-15 -0.43833427D-15 -0.25109475D-15
 -0.57115344D-16  0.26733124D-16 -0.21103722D-02 -0.27707639D-02 -0.31547186D-02
 -0.26712861D-02 -0.15302155D-02 -0.34807095D-03  0.16291636D-03  0.14797303D-15
  0.28186013D-16 -0.54134509D-03  0.49612740D-17 -0.22209554D-17 -0.26307671D-03
 -0.33660547D-18  0.48845245D-17 -0.10069431D-04 -0.22865321D-04 -0.22865321D-04
  0.45730642D-04  0.57299667D-17 -0.34885234D-16 -0.36076073D-16 -0.88891116D-05
 -0.88891116D-05  0.17778223D-04 -0.13954252D-17 -0.83644850D-17 -0.14560962D-17
 -0.16394967D-04 -0.16394967D-04  0.32789935D-04 -0.10797035D-17 -0.43854682D-17
 -0.47475479D-17  0.12603832D-16 -0.14582906D-16  0.19258814D-04  0.11962407D-16
 -0.15893993D-16 -0.28888222D-04 -0.49773903D-16  0.59642710D-16 -0.28888222D-04
  0.94666466D-18 -0.19477751D-17  0.21110368D-17 -0.14889060D-04 -0.18827167D-17
  0.23345713D-17  0.22333590D-04  0.77260421D-17 -0.86676818D-17  0.22333590D-04
 -0.21551246D-17
MO    4     MO 0.0        OCC NO =    2.0000000  ORB. ENERGY =   -7.894901
 -0.35986002D-04 -0.67349710D-04 -0.11666197D-03 -0.19071607D-03 -0.29617462D-03
 -0.43367047D-03 -0.58120144D-03 -0.66684115D-03 -0.58087547D-03 -0.29715891D-03
 -0.57405444D-04 -0.17798258D-05 -0.77629072D-07  0.77451922D-10  0.12813627D-03
  0.24039935D-03  0.41530345D-03  0.68330110D-03  0.10615557D-02  0.15894291D-02
  0.21910368D-02  0.27594249D-02  0.28312186D-02  0.21705684D-02  0.32647271D-03
 -0.12419257D-02 -0.10635310D-02 -0.86612113D-06 -0.98915792D-04 -0.18522439D-03
 -0.32088699D-03 -0.52608649D-03 -0.82139963D-03 -0.12238937D-02 -0.17028992D-02
 -0.21353640D-02 -0.22435993D-02 -0.17240549D-02 -0.29139096D-03  0.11588699D-02
  0.11248516D-02 -0.68433226D-03 -0.22383490D-04 -0.10201548D-03  0.44261579D-05
 -0.89389643D-14 -0.11394342D-13 -0.11981509D-13 -0.95635303D-14 -0.49849336D-14
 -0.15571350D-14 -0.17981034D-15 -0.53218620D-18 -0.79231053D-15 -0.10099444D-14
 -0.10619883D-14 -0.84766932D-15 -0.44184262D-15 -0.13801761D-15 -0.15937599D-16
 -0.47170647D-19 -0.82015592D-02 -0.10454384D-01 -0.10993114D-01 -0.87746027D-02
 -0.45737098D-02 -0.14286817D-02 -0.16497719D-03 -0.48828438D-06  0.92692292D-14
  0.11940283D-13  0.12556963D-13  0.10283531D-13  0.52954100D-14  0.18571513D-14
  0.22530565D-15 -0.43600037D-15  0.66281252D-15  0.85381089D-15  0.89790774D-15
  0.73534196D-15  0.37865760D-15  0.13279887D-15  0.16110877D-16 -0.31176973D-16
  0.73064937D-02  0.94119583D-02  0.98980586D-02  0.81060196D-02  0.41741205D-02
  0.14639043D-02  0.17759776D-03 -0.34367841D-03 -0.12744063D-15 -0.15669604D-16
 -0.97787131D-04  0.30175843D-16  0.46886656D-17  0.38719035D-05 -0.38769876D-17
 -0.70759685D-18 -0.32181119D-06  0.13720608D-04  0.13720608D-04 -0.27441217D-04
 -0.70971210D-17 -0.21263519D-15 -0.22795843D-16  0.14664405D-04  0.14664405D-04
 -0.29328810D-04  0.91787604D-18 -0.21457004D-15 -0.15596977D-16  0.30536802D-06
  0.30536802D-06 -0.61073604D-06 -0.90332504D-19  0.76466040D-17  0.67170711D-18
  0.31080065D-17  0.26859513D-18  0.62369536D-05  0.31076252D-17  0.26928001D-18
 -0.93554305D-05 -0.12431645D-16 -0.10750654D-17 -0.93554305D-05  0.36533581D-18
  0.14577356D-16  0.12352478D-17 -0.25577350D-05  0.14577439D-16  0.12351534D-17
  0.38366025D-05 -0.58309507D-16 -0.49408968D-17  0.38366025D-05 -0.27514485D-18
 -0.93129914D-04 -0.17424643D-03 -0.30105922D-03 -0.48805212D-03 -0.74114607D-03
 -0.10301059D-02 -0.12246473D-02 -0.10908216D-02 -0.54151651D-03 -0.87246986D-04
 -0.13394736D-05 -0.23936262D-06 -0.89446078D-08  0.33801093D-03  0.63135589D-03
  0.10957488D-02  0.17779550D-02  0.27520631D-02  0.39393283D-02  0.51420539D-02
  0.54797165D-02  0.40961993D-02  0.21623109D-03 -0.27784621D-02 -0.16507257D-02
  0.61889839D-05 -0.44223878D-04 -0.82537497D-04 -0.14344291D-03 -0.23247875D-03
 -0.36107590D-03 -0.51725165D-03 -0.68298260D-03 -0.73850678D-03 -0.57899889D-03
 -0.28810793D-04  0.49634844D-03  0.51381265D-03 -0.23250749D-03  0.31655795D-03
  0.49822787D-04  0.97979711D-03  0.97568272D-10  0.12851931D-09  0.14178691D-09
  0.11777033D-09  0.62550681D-10  0.16133645D-10 -0.16584839D-13  0.85363291D-11
  0.11244261D-10  0.12405054D-10  0.10303823D-10  0.54726109D-11  0.14115460D-11
 -0.14510213D-14 -0.11523020D+02 -0.15178403D+02 -0.16745334D+02 -0.13908925D+02
 -0.73873679D+01 -0.19054177D+01  0.19587046D-02  0.90798740D-13  0.11921209D-12
  0.13573173D-12  0.11493206D-12  0.65837507D-13  0.14975749D-13 -0.70094746D-14
  0.81654884D-14  0.10720688D-13  0.12206292D-13  0.10335786D-13  0.59207364D-14
  0.13467621D-14 -0.63035879D-15 -0.16166572D-01 -0.21225524D-01 -0.24166821D-01
 -0.20463472D-01 -0.11722264D-01 -0.26664085D-02  0.12480259D-02  0.72480152D-12
  0.63389651D-13 -0.86362033D-01  0.38874025D-14  0.33994701D-15 -0.81812003D-03
 -0.10842593D-15 -0.12189394D-16 -0.39190199D-04 -0.24802330D-03 -0.24802330D-03
  0.49604659D-03 -0.88351435D-17 -0.53958088D-14 -0.44565903D-15  0.61964293D-04
  0.61964293D-04 -0.12392859D-03 -0.12856305D-17  0.13203865D-14  0.11613081D-15
 -0.47198231D-04 -0.47198231D-04  0.94396462D-04 -0.72449634D-18 -0.73084692D-15
 -0.57809270D-16  0.15532641D-15  0.87822785D-17  0.52249287D-04  0.15554835D-15
  0.85249402D-17 -0.78373930D-04 -0.62152757D-15 -0.34871776D-16 -0.78373930D-04
 -0.21067127D-17 -0.97751245D-16 -0.77362986D-17 -0.32064711D-04 -0.97768719D-16
 -0.77137006D-17  0.48097067D-04  0.39102245D-15  0.30922596D-16  0.48097067D-04
  0.33784693D-18
MO    5     MO 0.0        OCC NO =    2.0000000  ORB. ENERGY =   -7.894594
  0.29190294D-15  0.54631184D-15  0.94631166D-15  0.15470066D-14  0.24024410D-14
  0.35177481D-14  0.47144557D-14  0.54091282D-14  0.47118116D-14  0.24104251D-14
  0.46564823D-15  0.14437180D-16  0.62969359D-18 -0.62825662D-21 -0.10580803D-14
 -0.19850882D-14 -0.34293520D-14 -0.56423321D-14 -0.87657551D-14 -0.13124649D-13
 -0.18092401D-13 -0.22785843D-13 -0.23378677D-13 -0.17923384D-13 -0.26958357D-14
  0.10255153D-13  0.87820654D-14  0.71519613D-17  0.81532662D-15  0.15267367D-14
  0.26449539D-14  0.43363382D-14  0.67704961D-14  0.10088107D-13  0.14036374D-13
  0.17601023D-13  0.18493167D-13  0.14210753D-13  0.24018289D-14 -0.95521396D-14
 -0.92717393D-14  0.56407000D-14  0.22160269D-15  0.82431513D-15 -0.38743749D-16
 -0.11405591D-02 -0.14538508D-02 -0.15287699D-02 -0.12202501D-02 -0.63604814D-03
 -0.19868125D-03 -0.22942740D-04 -0.67903822D-07 -0.10725425D-03 -0.13671512D-03
 -0.14376025D-03 -0.11474811D-03 -0.59811773D-04 -0.18683299D-04 -0.21574561D-05
 -0.63854411D-08  0.67675111D-13  0.86264283D-13  0.90709607D-13  0.72403575D-13
  0.37739936D-13  0.11788758D-13  0.13613082D-14  0.40290753D-17  0.11029891D-02
  0.14208303D-02  0.14942121D-02  0.12236857D-02  0.63012572D-03  0.22099116D-03
  0.26810178D-04 -0.51881733D-04  0.10372129D-03  0.13360998D-03  0.14051055D-03
  0.11507118D-03  0.59254849D-04  0.20781246D-04  0.25211367D-05 -0.48787792D-05
 -0.60571948D-13 -0.78026571D-13 -0.82056416D-13 -0.67200140D-13 -0.34604096D-13
 -0.12135990D-13 -0.14723125D-14  0.28491465D-14 -0.14440226D-04 -0.13579091D-05
  0.79632378D-15  0.35990365D-05  0.33844097D-06 -0.34244769D-16 -0.46536035D-06
 -0.43760882D-07  0.33182475D-17 -0.10438463D-15 -0.12393410D-15  0.22831874D-15
  0.22520638D-16 -0.24624850D-04 -0.23156360D-05 -0.12086951D-15 -0.11904100D-15
  0.23991051D-15 -0.60649298D-17 -0.25289426D-04 -0.23781303D-05 -0.22060406D-17
 -0.24848481D-17  0.46908887D-17  0.48345784D-18  0.95556361D-06  0.89857906D-07
  0.37044505D-06  0.34835374D-07 -0.49467895D-16  0.37044505D-06  0.34835374D-07
  0.74321371D-16 -0.14817802D-05 -0.13934150D-06  0.74082314D-16 -0.88754749D-18
  0.16915292D-05  0.15906557D-06  0.20699254D-16  0.16915292D-05  0.15906557D-06
 -0.30786965D-16 -0.67661167D-05 -0.63626228D-06 -0.31310797D-16  0.24366733D-19
  0.79966457D-15  0.14961755D-14  0.25850598D-14  0.41906834D-14  0.63638870D-14
  0.88450546D-14  0.10515494D-13  0.93663932D-14  0.46497580D-14  0.74915052D-15
  0.11501456D-16  0.20552989D-17  0.76803312D-19 -0.26388754D-14 -0.49290403D-14
 -0.85545885D-14 -0.13880621D-13 -0.21485552D-13 -0.30754616D-13 -0.40144380D-13
 -0.42780536D-13 -0.31979319D-13 -0.16881314D-14  0.21691651D-13  0.12887333D-13
 -0.48317837D-16  0.38261642D-15  0.71409841D-15  0.12410402D-14  0.20113610D-14
  0.31239586D-14  0.44751609D-14  0.59090329D-14  0.63894174D-14  0.50093861D-14
  0.24926539D-15 -0.42943104D-14 -0.44454074D-14  0.20116097D-14 -0.27586470D-14
 -0.55133821D-15 -0.79812020D-14  0.11479770D+02  0.15121434D+02  0.16682484D+02
  0.13856721D+02  0.73596409D+01  0.18982661D+01 -0.19513530D-02  0.10795180D+01
  0.14219675D+01  0.15687632D+01  0.13030382D+01  0.69207524D+00  0.17850639D+00
 -0.18349850D-03  0.97877003D-10  0.12892598D-09  0.14223556D-09  0.11814298D-09
  0.62748607D-10  0.16184696D-10 -0.16637317D-13  0.10691434D-01  0.14037069D-01
  0.15982236D-01  0.13533101D-01  0.77522811D-02  0.17633750D-02 -0.82535654D-03
  0.10053856D-02  0.13199975D-02  0.15029143D-02  0.12726061D-02  0.72899777D-03
  0.16582170D-03 -0.77613682D-04  0.13617346D-12  0.17878578D-12  0.20356076D-12
  0.17236689D-12  0.98738391D-13  0.22459558D-13 -0.10512309D-13  0.85277959D-01
  0.80192451D-02  0.73342877D-12  0.45722944D-03  0.42996279D-04  0.68145959D-14
 -0.13399650D-04 -0.12600569D-05  0.31668953D-15  0.20126852D-14  0.20441774D-14
 -0.40568626D-14 -0.13288418D-16 -0.63126732D-03 -0.59362202D-04 -0.54628777D-15
 -0.55993048D-15  0.11062183D-14  0.20103229D-17  0.15544140D-03  0.14617173D-04
  0.39211715D-15  0.39336017D-15 -0.78547732D-15 -0.14022802D-17 -0.85345883D-04
 -0.80256324D-05  0.17877317D-04  0.16811213D-05 -0.44192158D-15  0.17877317D-04
  0.16811213D-05  0.68736452D-15 -0.71509269D-04 -0.67244850D-05  0.63840022D-15
 -0.26355306D-16 -0.11434078D-04 -0.10752213D-05  0.26726514D-15 -0.11434078D-04
 -0.10752213D-05 -0.40438848D-15  0.45736312D-04  0.43008850D-05 -0.39740694D-15
  0.64695246D-18
MO    6     MO 0.0        OCC NO =    2.0000000  ORB. ENERGY =   -7.894594
  0.27535251D-17  0.51533682D-17  0.89265729D-17  0.14592938D-16  0.22662264D-16
  0.33182973D-16  0.44471535D-16  0.51024392D-16  0.44446593D-16  0.22737578D-16
  0.43924671D-17  0.13618615D-18  0.59399096D-20 -0.59263547D-23  0.46908706D-17
  0.88006482D-17  0.15203616D-16  0.25014596D-16  0.38861913D-16  0.58186540D-16
  0.80210468D-16  0.10101827D-15  0.10364653D-15  0.79461151D-16  0.11951661D-16
 -0.45464979D-16 -0.38934223D-16 -0.31707354D-19 -0.77878320D-18 -0.14583075D-17
 -0.25264055D-17 -0.41419809D-17 -0.64670385D-17 -0.96359523D-17 -0.13407255D-16
 -0.16812134D-16 -0.17664292D-16 -0.13573818D-16 -0.22941775D-17  0.91240070D-17