 Molden2AIM, Version 4.0.0 (06/02/2016)           Time: Wed Jun 27 19:36:37 2018
GAUSSIAN              6 MOL ORBITALS    167 PRIMITIVES        2 NUCLEI
  Na   1    (CENTRE  1)   0.00000000  0.00000000  3.26099455  CHARGE = 11.0
  H    2    (CENTRE  2)   0.00000000  0.00000000 -0.30565186  CHARGE =  1.0
CENTRE ASSIGNMENTS    1  1  1  1  1  1  1  1  1  1  1  1  1  1  1  1  1  1  1  1
CENTRE ASSIGNMENTS    1  1  1  1  1  1  1  1  1  1  1  1  1  1  1  1  1  1  1  1
CENTRE ASSIGNMENTS    1  1  1  1  1  1  1  1  1  1  1  1  1  1  1  1  1  1  1  1
CENTRE ASSIGNMENTS    1  1  1  1  1  1  1  1  1  1  1  1  1  1  1  1  1  1  1  1
CENTRE ASSIGNMENTS    1  1  1  1  1  1  1  1  1  1  1  1  1  1  1  1  1  1  1  1
CENTRE ASSIGNMENTS    1  1  1  1  1  1  1  1  1  1  1  1  1  1  1  1  1  1  1  1
CENTRE ASSIGNMENTS    1  1  1  1  1  1  1  1  1  1  1  1  1  1  1  1  1  1  1  1
CENTRE ASSIGNMENTS    2  2  2  2  2  2  2  2  2  2  2  2  2  2  2  2  2  2  2  2
CENTRE ASSIGNMENTS    2  2  2  2  2  2  2
TYPE ASSIGNMENTS      1  1  1  1  1  1  1  1  1  1  1  1  1  1  1  1  1  1  1  1
TYPE ASSIGNMENTS      1  1  1  1  1  1  1  1  1  1  1  1  1  1  1  1  1  1  1  1
TYPE ASSIGNMENTS      1  1  1  1  1  2  2  2  2  2  2  2  2  3  3  3  3  3  3  3
TYPE ASSIGNMENTS      3  4  4  4  4  4  4  4  4  2  2  2  2  2  2  2  2  3  3  3
TYPE ASSIGNMENTS      3  3  3  3  3  4  4  4  4  4  4  4  4  2  3  4  2  3  4  2
TYPE ASSIGNMENTS      3  4  5  6  7  8  9 10  5  6  7  8  9 10  5  6  7  8  9 10
TYPE ASSIGNMENTS     11 12 13 17 14 15 18 19 16 20 11 12 13 17 14 15 18 19 16 20
TYPE ASSIGNMENTS      1  1  1  1  1  1  2  3  4  2  3  4  2  3  4  5  6  7  8  9
TYPE ASSIGNMENTS     10  5  6  7  8  9 10
EXPONENTS  0.4230000D+06 0.6334000D+05 0.1441000D+05 0.4077000D+04 0.1328000D+04
EXPONENTS  0.4786000D+03 0.1862000D+03 0.7692000D+02 0.3332000D+02 0.1500000D+02
EXPONENTS  0.6869000D+01 0.2683000D+01 0.1109000D+01 0.6015000D-01 0.4230000D+06
EXPONENTS  0.6334000D+05 0.1441000D+05 0.4077000D+04 0.1328000D+04 0.4786000D+03
EXPONENTS  0.1862000D+03 0.7692000D+02 0.3332000D+02 0.1500000D+02 0.6869000D+01
EXPONENTS  0.2683000D+01 0.1109000D+01 0.6015000D-01 0.4230000D+06 0.6334000D+05
EXPONENTS  0.1441000D+05 0.4077000D+04 0.1328000D+04 0.4786000D+03 0.1862000D+03
EXPONENTS  0.7692000D+02 0.3332000D+02 0.1500000D+02 0.6869000D+01 0.2683000D+01
EXPONENTS  0.1109000D+01 0.6015000D-01 0.4540000D+00 0.2382000D-01 0.6650000D-02
EXPONENTS  0.2433000D+03 0.5739000D+02 0.1810000D+02 0.6575000D+01 0.2521000D+01
EXPONENTS  0.9607000D+00 0.3512000D+00 0.9827000D-01 0.2433000D+03 0.5739000D+02
EXPONENTS  0.1810000D+02 0.6575000D+01 0.2521000D+01 0.9607000D+00 0.3512000D+00
EXPONENTS  0.9827000D-01 0.2433000D+03 0.5739000D+02 0.1810000D+02 0.6575000D+01
EXPONENTS  0.2521000D+01 0.9607000D+00 0.3512000D+00 0.9827000D-01 0.2433000D+03
EXPONENTS  0.5739000D+02 0.1810000D+02 0.6575000D+01 0.2521000D+01 0.9607000D+00
EXPONENTS  0.3512000D+00 0.9827000D-01 0.2433000D+03 0.5739000D+02 0.1810000D+02
EXPONENTS  0.6575000D+01 0.2521000D+01 0.9607000D+00 0.3512000D+00 0.9827000D-01
EXPONENTS  0.2433000D+03 0.5739000D+02 0.1810000D+02 0.6575000D+01 0.2521000D+01
EXPONENTS  0.9607000D+00 0.3512000D+00 0.9827000D-01 0.3734000D-01 0.3734000D-01
EXPONENTS  0.3734000D-01 0.1500000D-01 0.1500000D-01 0.1500000D-01 0.7000000D-02
EXPONENTS  0.7000000D-02 0.7000000D-02 0.1367000D+00 0.1367000D+00 0.1367000D+00
EXPONENTS  0.1367000D+00 0.1367000D+00 0.1367000D+00 0.6360000D-01 0.6360000D-01
EXPONENTS  0.6360000D-01 0.6360000D-01 0.6360000D-01 0.6360000D-01 0.2230000D-01
EXPONENTS  0.2230000D-01 0.2230000D-01 0.2230000D-01 0.2230000D-01 0.2230000D-01
EXPONENTS  0.1397000D+00 0.1397000D+00 0.1397000D+00 0.1397000D+00 0.1397000D+00
EXPONENTS  0.1397000D+00 0.1397000D+00 0.1397000D+00 0.1397000D+00 0.1397000D+00
EXPONENTS  0.7140000D-01 0.7140000D-01 0.7140000D-01 0.7140000D-01 0.7140000D-01
EXPONENTS  0.7140000D-01 0.7140000D-01 0.7140000D-01 0.7140000D-01 0.7140000D-01
EXPONENTS  0.3387000D+02 0.5095000D+01 0.1159000D+01 0.3258000D+00 0.1027000D+00
EXPONENTS  0.2526000D-01 0.1407000D+01 0.1407000D+01 0.1407000D+01 0.3880000D+00
EXPONENTS  0.3880000D+00 0.3880000D+00 0.1020000D+00 0.1020000D+00 0.1020000D+00
EXPONENTS  0.1057000D+01 0.1057000D+01 0.1057000D+01 0.1057000D+01 0.1057000D+01
EXPONENTS  0.1057000D+01 0.2470000D+00 0.2470000D+00 0.2470000D+00 0.2470000D+00
EXPONENTS  0.2470000D+00 0.2470000D+00
MO    1     MO 0.0        OCC NO =    2.0000000  ORB. ENERGY =  -40.462916
  0.21351459D+00  0.39960388D+00  0.69218675D+00  0.11315696D+01  0.17572834D+01
  0.25730831D+01  0.34484239D+01  0.39565473D+01  0.34464898D+01  0.17631235D+01
  0.34060188D+00  0.10560183D-01  0.46059409D-03 -0.45954301D-06  0.26805835D-05
  0.50291031D-05  0.86880595D-05  0.14294513D-04  0.22207520D-04  0.33250518D-04
  0.45836023D-04  0.57726580D-04  0.59228488D-04  0.45407828D-04  0.68297395D-05
 -0.25980821D-04 -0.22248841D-04 -0.18119069D-07 -0.44438715D-05 -0.83213544D-05
 -0.14416106D-04 -0.23634859D-04 -0.36902039D-04 -0.54984408D-04 -0.76504115D-04
 -0.95932943D-04 -0.10079550D-03 -0.77454553D-04 -0.13090973D-04  0.52063160D-04
  0.50534861D-04 -0.30744177D-04  0.58079078D-04  0.25135223D-06 -0.33365105D-06
  0.34968811D-19  0.44574132D-19  0.46871102D-19  0.37412083D-19  0.19500827D-19
  0.60914394D-20  0.70340966D-21  0.20818875D-23 -0.43389988D-18 -0.55308460D-18
 -0.58158585D-18 -0.46421649D-18 -0.24197010D-18 -0.75583778D-19 -0.87280454D-20
 -0.25832470D-22  0.74655271D-03  0.95161770D-03  0.10006559D-02  0.79871439D-03
  0.41632516D-03  0.13004676D-03  0.15017165D-04  0.44446430D-07 -0.28306900D-19
 -0.36463915D-19 -0.38347170D-19 -0.31404432D-19 -0.16171425D-19 -0.56714744D-20
 -0.68805123D-21  0.13314828D-20 -0.32596928D-19 -0.41990173D-19 -0.44158843D-19
 -0.36163905D-19 -0.18622271D-19 -0.65310099D-20 -0.79232825D-21  0.15332745D-20
 -0.30877514D-03 -0.39775286D-03 -0.41829564D-03 -0.34256341D-03 -0.17639989D-03
 -0.61865140D-04 -0.75053474D-05  0.14523978D-04 -0.13468893D-21 -0.55227677D-21
  0.20744434D-05  0.49715205D-22  0.56369367D-22 -0.86990311D-07 -0.28542973D-22
  0.85961329D-23  0.27373946D-07  0.12318687D-05  0.12318687D-05 -0.24637375D-05
 -0.48506661D-20  0.67573501D-20 -0.87639717D-21  0.33782816D-06  0.33782816D-06
 -0.67565631D-06  0.10533738D-20 -0.10485342D-20  0.67631417D-23  0.30537080D-08
  0.30537080D-08 -0.61074160D-08 -0.57156474D-22  0.46814603D-22  0.57878352D-22
 -0.39092811D-22  0.28625761D-21 -0.50276156D-07  0.14709490D-21 -0.81419160D-21
  0.75414234D-07 -0.29816465D-22 -0.44581223D-22  0.75414234D-07  0.20174658D-20
  0.13509833D-22 -0.26435271D-22  0.64440072D-07 -0.81638130D-23  0.87579445D-22
 -0.96660108D-07 -0.32365685D-22 -0.82736309D-23 -0.96660108D-07 -0.96059778D-22
  0.21738747D-05  0.39206725D-05  0.57810293D-05 -0.20816818D-04  0.54156421D-04
  0.39001075D-05 -0.14061441D-20  0.26436919D-20 -0.20300908D-04  0.46163848D-20
 -0.37076197D-20  0.66927098D-05  0.16859881D-21  0.10974675D-20  0.14333636D-04
  0.11790433D-04  0.11790433D-04 -0.23580865D-04 -0.10784929D-20  0.22733121D-19
 -0.21036949D-19 -0.38568448D-05 -0.38568448D-05  0.77136896D-05  0.12167597D-20
 -0.54053282D-21  0.28662229D-20
MO    2     MO 0.0        OCC NO =    2.0000000  ORB. ENERGY =   -2.786419
 -0.65387121D-04 -0.12237546D-03 -0.21197660D-03 -0.34653405D-03 -0.53815386D-03
 -0.78798595D-03 -0.10560520D-02 -0.12116607D-02 -0.10554597D-02 -0.53994233D-03
 -0.10430658D-03 -0.32339709D-05 -0.14105322D-06  0.14073134D-09 -0.52032837D-01
 -0.97619979D-01 -0.16864402D+00 -0.27747096D+00 -0.43107042D+00 -0.64542618D+00
 -0.88972357D+00 -0.11205313D+01 -0.11496849D+01 -0.88141188D+00 -0.13257215D+00
  0.50431402D+00  0.43187251D+00  0.35170946D-03  0.26239090D-04  0.49133907D-04
  0.85120713D-04  0.13955336D-03  0.21789017D-03  0.32465854D-03  0.45172287D-03
  0.56644148D-03  0.59515274D-03  0.45733478D-03  0.77296390D-04 -0.30740987D-03
 -0.29838594D-03  0.18153073D-03  0.97545078D-01 -0.12841060D-03  0.93325404D-05
 -0.12338192D-14 -0.15727278D-14 -0.16537728D-14 -0.13200263D-14 -0.68805588D-15
 -0.21492681D-15 -0.24818699D-16 -0.73456112D-19  0.12310373D-14  0.15691817D-14
  0.16500440D-14  0.13170499D-14  0.68650450D-15  0.21444221D-15  0.24762739D-16
  0.73290488D-19  0.56296624D-01  0.71760323D-01  0.75458237D-01  0.60230072D-01
  0.31394569D-01  0.98066667D-02  0.11324260D-02  0.33516507D-05 -0.15610707D-16
 -0.20109143D-16 -0.21147721D-16 -0.17318936D-16 -0.89182273D-17 -0.31277083D-17
 -0.37944692D-18  0.73428694D-18  0.37210434D-16  0.47933122D-16  0.50408728D-16
  0.41282251D-16  0.21257917D-16  0.74553563D-17  0.90446798D-18 -0.17502818D-17
 -0.28473471D-02 -0.36678485D-02 -0.38572822D-02 -0.31589230D-02 -0.16266585D-02
 -0.57048480D-03 -0.69210004D-04  0.13393178D-03 -0.48483645D-18 -0.43331410D-18
 -0.48005870D-04  0.92771093D-19  0.21822034D-18  0.10450813D-04 -0.16292781D-19
 -0.57230177D-19 -0.13991597D-05  0.40805448D-04  0.40805448D-04 -0.81610896D-04
 -0.90561577D-19 -0.77830918D-18  0.41884055D-18 -0.61277611D-05 -0.61277611D-05
  0.12255522D-04  0.19846905D-18  0.41684113D-18 -0.77387104D-19  0.24274635D-06
  0.24274635D-06 -0.48549270D-06 -0.15710644D-19 -0.19210195D-19  0.85390008D-20
 -0.29304130D-19  0.46739398D-19  0.22831619D-04 -0.93085994D-20 -0.73114650D-19
 -0.34247429D-04  0.97220989D-19 -0.67103545D-19 -0.34247429D-04  0.21887343D-18
  0.15506270D-19  0.20206129D-20 -0.25564384D-05  0.13298212D-19  0.13483472D-19
  0.38346576D-05 -0.59817022D-19 -0.19545311D-19  0.38346576D-05 -0.78036370D-20
  0.56557091D-04  0.10200304D-03  0.15040343D-03  0.10184469D-02 -0.43084423D-03
  0.22596253D-04  0.34406268D-17 -0.22683650D-18  0.70205196D-03 -0.97060704D-18
 -0.13817100D-18  0.16559597D-03  0.62318541D-18  0.73428727D-18 -0.12352932D-03
 -0.23931403D-03 -0.23931403D-03  0.47862806D-03 -0.61368824D-19  0.96634713D-17
 -0.19657567D-17  0.11977816D-03  0.11977816D-03 -0.23955631D-03  0.67050629D-19
 -0.73705632D-18  0.29186841D-18
MO    3     MO 0.0        OCC NO =    2.0000000  ORB. ENERGY =   -1.508282
  0.23354938D-15  0.43710004D-15  0.75713693D-15  0.12377485D-14  0.19221752D-14
  0.28145241D-14  0.37720010D-14  0.43278033D-14  0.37698855D-14  0.19285632D-14
  0.37256169D-15  0.11551081D-16  0.50381317D-18 -0.50266346D-21 -0.86408290D-15
 -0.16211254D-14 -0.28005857D-14 -0.46078194D-14 -0.71585676D-14 -0.10718265D-13
 -0.14775188D-13 -0.18608094D-13 -0.19092233D-13 -0.14637160D-13 -0.22015584D-14
  0.83748869D-14  0.71718875D-14  0.58406605D-17 -0.11464939D-15 -0.21468627D-15
 -0.37192743D-15 -0.60976606D-15 -0.95205185D-15 -0.14185668D-14 -0.19737632D-14
 -0.24750160D-14 -0.26004673D-14 -0.19982839D-14 -0.33773975D-15  0.13432003D-14
  0.13037710D-14 -0.79318248D-15 -0.47457186D-15  0.17989466D-15 -0.82722252D-17
 -0.30647634D+01 -0.39066004D+01 -0.41079132D+01 -0.32788986D+01 -0.17091065D+01
 -0.53387062D+00 -0.61648771D-01 -0.18246239D-03  0.25257495D+00  0.32195288D+00
  0.33854358D+00  0.27022238D+00  0.14085182D+00  0.43997636D-01  0.50806321D-02
  0.15037190D-04 -0.21378612D-11 -0.27250944D-11 -0.28655225D-11 -0.22872337D-11
 -0.11922071D-11 -0.37240764D-12 -0.43003815D-13 -0.12727875D-15  0.21477369D-02
  0.27666362D-02  0.29095249D-02  0.23827568D-02  0.12269787D-02  0.43031327D-03
  0.52204692D-04 -0.10102394D-03 -0.17700046D-03 -0.22800553D-03 -0.23978135D-03
 -0.19636905D-03 -0.10111844D-03 -0.35463211D-04 -0.43023214D-05  0.83256400D-05
 -0.45248958D-14 -0.58288056D-14 -0.61298464D-14 -0.50200406D-14 -0.25850239D-14
 -0.90659278D-15 -0.10998591D-15  0.21283930D-15 -0.17706395D-04  0.14592291D-05
  0.35605950D-16  0.49381245D-05 -0.40696340D-06 -0.16061650D-16 -0.80373941D-06
  0.66238209D-07  0.31464701D-17  0.16878454D-15  0.15891337D-15 -0.32769791D-15
  0.44712918D-17 -0.59162999D-03  0.48757732D-04 -0.11604015D-16 -0.72404407D-17
  0.18844456D-16 -0.10801077D-18  0.10786361D-03 -0.88893141D-05  0.60499729D-18
  0.20193673D-18 -0.80693402D-18 -0.22271057D-19 -0.51787411D-05  0.42679323D-06
 -0.54941858D-05  0.45278983D-06  0.27574829D-16 -0.54941858D-05  0.45278983D-06
 -0.43469833D-16  0.21976743D-04 -0.18111593D-05 -0.39254654D-16  0.71054717D-17
  0.52115091D-06 -0.42949372D-07 -0.67194041D-19  0.52115091D-06 -0.42949372D-07
  0.49975057D-19 -0.20846036D-05  0.17179749D-06  0.15160706D-18 -0.19473018D-17
  0.62516966D-15  0.11275192D-14  0.16625264D-14  0.16878805D-14  0.73298800D-15
 -0.79425873D-16 -0.11575521D-03  0.95396811D-05  0.13560652D-14 -0.43213328D-03
  0.35613203D-04 -0.13137034D-16  0.54367744D-05 -0.44805841D-06  0.40397045D-16
 -0.36140614D-15 -0.15199578D-15  0.51340193D-15  0.12394540D-17 -0.44291323D-03
  0.36501606D-04  0.17038672D-15  0.16754052D-15 -0.33792724D-15 -0.65777962D-17
  0.67659903D-04 -0.55760248D-05
MO    4     MO 0.0        OCC NO =    2.0000000  ORB. ENERGY =   -1.508282
 -0.10136676D-15 -0.18971327D-15 -0.32861796D-15 -0.53721641D-15 -0.83427614D-15
 -0.12215798D-14 -0.16371507D-14 -0.18783840D-14 -0.16362325D-14 -0.83704872D-15
 -0.16170188D-15 -0.50134821D-17 -0.21866857D-18  0.21816957D-21  0.37710694D-15
  0.70749884D-15  0.12222442D-14  0.20109652D-14  0.31241742D-14  0.46777133D-14
  0.64482538D-14  0.81210281D-14  0.83323180D-14  0.63880149D-14  0.96081402D-15
 -0.36550057D-14 -0.31299874D-14 -0.25490073D-17  0.41880073D-16  0.78422369D-16
  0.13586072D-15  0.22274037D-15  0.34777335D-15  0.51818578D-15  0.72099248D-15
  0.90409425D-15  0.94992014D-15  0.72994963D-15  0.12337236D-15 -0.49065526D-15
 -0.47625222D-15  0.28974024D-15  0.16378478D-15 -0.78343900D-16  0.34431085D-17
 -0.25257495D+00 -0.32195288D+00 -0.33854358D+00 -0.27022238D+00 -0.14085182D+00
 -0.43997636D-01 -0.50806321D-02 -0.15037190D-04 -0.30647634D+01 -0.39066004D+01
 -0.41079132D+01 -0.32788986D+01 -0.17091065D+01 -0.53387062D+00 -0.61648771D-01
 -0.18246239D-03  0.91809972D-12  0.11702857D-11  0.12305922D-11  0.98224740D-12
  0.51199065D-12  0.15992963D-12  0.18467892D-13  0.54659576D-16  0.17700046D-03
  0.22800553D-03  0.23978135D-03  0.19636905D-03  0.10111844D-03  0.35463211D-04
  0.43023214D-05 -0.83256400D-05  0.21477369D-02  0.27666362D-02  0.29095249D-02
  0.23827568D-02  0.12269787D-02  0.43031327D-03  0.52204692D-04 -0.10102394D-03
  0.14194455D-14  0.18284779D-14  0.19229134D-14  0.15747708D-14  0.81091380D-15
  0.28439528D-15  0.34502232D-16 -0.66767015D-16 -0.14592291D-05 -0.17706395D-04
 -0.16179443D-16  0.40696340D-06  0.49381245D-05  0.89855254D-17 -0.66238209D-07
 -0.80373941D-06 -0.19802525D-17 -0.53268812D-16 -0.78226623D-16  0.13149543D-15
  0.50387529D-17 -0.48757732D-04 -0.59162999D-03  0.20404307D-17  0.53321283D-17
 -0.73725589D-17 -0.21898283D-17  0.88893141D-05  0.10786361D-03  0.60931167D-19
 -0.39976855D-18  0.33883739D-18  0.76060704D-19 -0.42679323D-06 -0.51787411D-05
 -0.45278983D-06 -0.54941858D-05 -0.12053197D-16 -0.45278983D-06 -0.54941858D-05
  0.16068142D-16  0.18111593D-05  0.21976743D-04  0.20091448D-16  0.91014469D-17
  0.42949372D-07  0.52115091D-06  0.16585810D-18  0.42949372D-07  0.52115091D-06
 -0.41533109D-18 -0.17179749D-06 -0.20846036D-05 -0.82243215D-19 -0.24888446D-17
 -0.25317483D-15 -0.45661123D-15 -0.67327300D-15 -0.75358939D-15 -0.22478612D-15
  0.42519777D-16 -0.95396811D-05 -0.11575521D-03 -0.67909517D-15 -0.35613203D-04
 -0.43213328D-03  0.50567350D-16  0.44805841D-06  0.54367744D-05  0.13455587D-16
  0.12391301D-15  0.11137847D-15 -0.23529147D-15  0.14237951D-17 -0.36501606D-04
 -0.44291323D-03 -0.88773678D-16 -0.84358479D-16  0.17313216D-15 -0.81791205D-17
  0.55760248D-05  0.67659903D-04
MO    5     MO 0.0        OCC NO =    2.0000000  ORB. ENERGY =   -1.506845
  0.33673776D-03  0.63022258D-03  0.10916604D-02  0.17846190D-02  0.27714438D-02
  0.40580564D-02  0.54385724D-02  0.62399430D-02  0.54355221D-02  0.27806542D-02
  0.53716945D-03  0.16654658D-04  0.72641136D-06 -0.72475368D-09 -0.12712148D-02
 -0.23849548D-02 -0.41201440D-02 -0.67788962D-02 -0.10531486D-01 -0.15768414D-01
 -0.21736847D-01 -0.27375713D-01 -0.28087964D-01 -0.21533784D-01 -0.32388718D-02
  0.12320901D-01  0.10551082D-01  0.85926178D-05 -0.15175920D-03 -0.28417611D-03
 -0.49231325D-03 -0.80713571D-03 -0.12602129D-02 -0.18777298D-02 -0.26126327D-02
 -0.32761315D-02 -0.34421890D-02 -0.26450903D-02 -0.44705966D-03  0.17779686D-02
  0.17257768D-02 -0.10499205D-02 -0.61848536D-03  0.26586201D-03 -0.88085099D-05
  0.20595420D-11  0.26252622D-11  0.27605458D-11  0.22034423D-11  0.11485313D-11
  0.35876471D-12  0.41428396D-13  0.12261597D-15 -0.10919783D-11 -0.13919256D-11
 -0.14636536D-11 -0.11682749D-11 -0.60895637D-12 -0.19021864D-12 -0.21965519D-13
 -0.65011533D-16 -0.30673121D+01 -0.39098492D+01 -0.41113295D+01 -0.32816254D+01
 -0.17105279D+01 -0.53431460D+00 -0.61700040D-01 -0.18261413D-03 -0.15000796D-14
 -0.19323478D-14 -0.20321479D-14 -0.16642285D-14 -0.85697921D-15 -0.30055087D-15
 -0.36462193D-16  0.70559834D-16  0.72498080D-15  0.93389380D-15  0.98212669D-15
  0.80431311D-15  0.41417366D-15  0.14525469D-15  0.17621991D-16 -0.34101207D-16
 -0.64084178D-02 -0.82550898D-02 -0.86814411D-02 -0.71096702D-02 -0.36610595D-02
 -0.12839688D-02 -0.15576837D-03  0.30143526D-03  0.13859781D-16 -0.82434143D-17
  0.30510947D-04 -0.47973851D-17  0.27521951D-17 -0.16698440D-04  0.10432682D-17
 -0.58151768D-18  0.18429879D-05  0.23435001D-03  0.23435001D-03 -0.46870003D-03
 -0.72030190D-18  0.39163608D-15 -0.22353452D-15 -0.14296956D-04 -0.14296956D-04
  0.28593912D-04 -0.57643154D-18 -0.75070628D-16  0.43606140D-16  0.35328778D-06
  0.35328778D-06 -0.70657556D-06  0.72514011D-20  0.35726238D-17 -0.25103109D-17
  0.35849871D-17 -0.20748963D-17  0.45173528D-04  0.35955080D-17 -0.20766728D-17
 -0.67760292D-04 -0.14350469D-16  0.83013618D-17 -0.67760292D-04 -0.15813808D-18
 -0.45925538D-18  0.19183089D-18 -0.70446814D-06 -0.46045411D-18  0.19164146D-18
  0.10567022D-05  0.18382203D-17 -0.76713413D-18  0.10567022D-05  0.14012710D-19
  0.91555220D-03  0.16512361D-02  0.24347467D-02  0.25766764D-02  0.93001096D-03
 -0.14200939D-03  0.64261857D-16 -0.39707378D-16  0.19110400D-02  0.29606385D-15
 -0.15421040D-15 -0.11587676D-04 -0.11818443D-16 -0.13683850D-17  0.28491084D-04
 -0.39807495D-03 -0.39807495D-03  0.79614989D-03 -0.21944417D-19  0.28931562D-15
 -0.15322848D-15  0.25766082D-03  0.25766082D-03 -0.51532164D-03 -0.58182772D-19
 -0.44766539D-16  0.20497064D-16
MO    6     MO 0.0        OCC NO =    2.0000000  ORB. ENERGY =   -0.273897
 -0.40161510D-03 -0.75164395D-03 -0.13019843D-02 -0.21284513D-02 -0.33054019D-02
 -0.48398989D-02 -0.64863909D-02 -0.74421570D-02 -0.64827530D-02 -0.33163869D-02
 -0.64066281D-03 -0.19863416D-04 -0.86636487D-06  0.86438781D-09  0.15373833D-02
  0.28843196D-02  0.49828249D-02  0.81982699D-02  0.12736582D-01  0.19070025D-01
  0.26288135D-01  0.33107673D-01  0.33969057D-01  0.26042554D-01  0.39170307D-02
 -0.14900667D-01 -0.12760281D-01 -0.10391751D-04  0.39359037D-02  0.73701613D-02
  0.12768237D-01  0.20933217D-01  0.32683859D-01  0.48699279D-01  0.67759122D-01
  0.84967090D-01  0.89273823D-01  0.68600918D-01  0.11594577D-01 -0.46111951D-01
 -0.44758348D-01  0.27229887D-01 -0.36500987D-01 -0.22869820D-03 -0.83719622D-04
 -0.49298023D-15 -0.62839329D-15 -0.66077531D-15 -0.52742478D-15 -0.27491705D-15
 -0.85875359D-16 -0.99164670D-17 -0.29349851D-19  0.62828864D-15  0.80086856D-15
  0.84213848D-15  0.67218720D-15  0.35037361D-15  0.10944559D-15  0.12638242D-16
  0.37405513D-19  0.98568731D-01  0.12564384D+00  0.13211845D+00  0.10545573D+00
  0.54968178D-01  0.17170314D-01  0.19827440D-02  0.58683441D-05 -0.18892454D-16
 -0.24336570D-16 -0.25593483D-16 -0.20959794D-16 -0.10793054D-16 -0.37852280D-17
 -0.45921583D-18  0.88865179D-18 -0.15196344D-15 -0.19575376D-15 -0.20586387D-15
 -0.16859231D-15 -0.86815066D-16 -0.30446880D-16 -0.36937508D-17  0.71479642D-17
  0.17428737D+00  0.22451063D+00  0.23610595D+00  0.19335908D+00  0.99568484D-01
  0.34919627D-01  0.42363749D-02 -0.81980236D-02 -0.71862377D-18 -0.28499031D-17
 -0.13988541D-02 -0.76401590D-18  0.87870948D-18  0.22336247D-03  0.32158886D-18
 -0.12486298D-18 -0.17581528D-04 -0.10386620D-02 -0.10386620D-02  0.20773240D-02
  0.65607839D-17  0.56004305D-19 -0.59282314D-18 -0.12082516D-03 -0.12082516D-03
  0.24165032D-03 -0.34559761D-17 -0.11110319D-17  0.40870514D-18  0.64024792D-06
  0.64024792D-06 -0.12804958D-05  0.17468667D-18  0.62922092D-19  0.10175850D-18
 -0.42936285D-19  0.32743765D-19 -0.22812481D-03 -0.37172522D-19  0.12361461D-19
  0.34218722D-03  0.16598138D-18 -0.11059276D-18  0.34218722D-03 -0.66432827D-19
  0.57573309D-20  0.12372391D-19 -0.74111137D-05  0.48473436D-20  0.13155794D-19
  0.11116670D-04 -0.22119336D-19 -0.50272965D-19  0.11116670D-04  0.48845445D-19
  0.41783742D-01  0.75358699D-01  0.11111636D+00  0.89878254D-01  0.40372623D-01
  0.48280269D-02 -0.83399142D-21  0.39980176D-18  0.22064464D-02  0.41665356D-18
 -0.69306938D-18  0.64180887D-02  0.84775930D-18  0.11832638D-17  0.17679775D-03
 -0.53437353D-03 -0.53437353D-03  0.10687471D-02 -0.42634788D-18 -0.55320234D-17
  0.11546571D-17 -0.65998808D-03 -0.65998808D-03  0.13199762D-02  0.46519521D-18
  0.63335815D-18 -0.37788679D-18
END DATA
RHF
