 Molden2AIM, Version 4.0.0 (06/02/2016)           Time: Sun Jun 24 19:46:11 2018
GAUSSIAN              7 MOL ORBITALS    139 PRIMITIVES        2 NUCLEI
  Na   1    (CENTRE  1)   0.00000000  0.00000000 -3.25489073  CHARGE = 11.0
  Li   2    (CENTRE  2)   0.00000000  0.00000000  2.28668955  CHARGE =  3.0
CENTRE ASSIGNMENTS    1  1  1  1  1  1  1  1  1  1  1  1  1  1  1  1  1  1  1  1
CENTRE ASSIGNMENTS    1  1  1  1  1  1  1  1  1  1  1  1  1  1  1  1  1  1  1  1
CENTRE ASSIGNMENTS    1  1  1  1  1  1  1  1  1  1  1  1  1  1  1  1  1  1  1  1
CENTRE ASSIGNMENTS    1  1  1  1  1  1  1  1  1  1  1  1  1  1  1  1  1  1  1  1
CENTRE ASSIGNMENTS    1  1  1  1  2  2  2  2  2  2  2  2  2  2  2  2  2  2  2  2
CENTRE ASSIGNMENTS    2  2  2  2  2  2  2  2  2  2  2  2  2  2  2  2  2  2  2  2
CENTRE ASSIGNMENTS    2  2  2  2  2  2  2  2  2  2  2  2  2  2  2  2  2  2  2
TYPE ASSIGNMENTS      1  1  1  1  1  1  1  1  1  1  1  1  1  1  1  1  1  1  1  1
TYPE ASSIGNMENTS      2  2  2  2  2  2  2  2  3  3  3  3  3  3  3  3  4  4  4  4
TYPE ASSIGNMENTS      4  4  4  4  2  3  4  2  3  4  2  3  4  2  3  4  5  6  7  8
TYPE ASSIGNMENTS      9 10  5  6  7  8  9 10  5  6  7  8  9 10 11 12 13 17 14 15
TYPE ASSIGNMENTS     18 19 16 20  1  1  1  1  1  1  1  1  1  1  1  1  1  1  1  2
TYPE ASSIGNMENTS      2  2  3  3  3  4  4  4  2  3  4  2  3  4  2  3  4  5  6  7
TYPE ASSIGNMENTS      8  9 10  5  6  7  8  9 10 11 12 13 17 14 15 18 19 16 20
EXPONENTS  0.3798522D+06 0.5688601D+05 0.1294270D+05 0.3664302D+04 0.1194742D+04
EXPONENTS  0.4309819D+03 0.1678317D+03 0.6930667D+02 0.2995117D+02 0.1338079D+02
EXPONENTS  0.1217401D+03 0.3704414D+02 0.1399542D+02 0.5982780D+01 0.2483046D+01
EXPONENTS  0.1045251D+01 0.4387564D+00 0.6559563D-01 0.3056193D-01 0.1550906D-01
EXPONENTS  0.6907763D+03 0.1638281D+03 0.5287646D+02 0.1981227D+02 0.8132038D+01
EXPONENTS  0.3496907D+01 0.1511724D+01 0.6447929D+00 0.6907763D+03 0.1638281D+03
EXPONENTS  0.5287646D+02 0.1981227D+02 0.8132038D+01 0.3496907D+01 0.1511724D+01
EXPONENTS  0.6447929D+00 0.6907763D+03 0.1638281D+03 0.5287646D+02 0.1981227D+02
EXPONENTS  0.8132038D+01 0.3496907D+01 0.1511724D+01 0.6447929D+00 0.2614582D+00
EXPONENTS  0.2614582D+00 0.2614582D+00 0.1170473D+00 0.1170473D+00 0.1170473D+00
EXPONENTS  0.4049475D-01 0.4049475D-01 0.4049475D-01 0.1566671D-01 0.1566671D-01
EXPONENTS  0.1566671D-01 0.2900000D+01 0.2900000D+01 0.2900000D+01 0.2900000D+01
EXPONENTS  0.2900000D+01 0.2900000D+01 0.2300000D+00 0.2300000D+00 0.2300000D+00
EXPONENTS  0.2300000D+00 0.2300000D+00 0.2300000D+00 0.7570000D-01 0.7570000D-01
EXPONENTS  0.7570000D-01 0.7570000D-01 0.7570000D-01 0.7570000D-01 0.1350000D+00
EXPONENTS  0.1350000D+00 0.1350000D+00 0.1350000D+00 0.1350000D+00 0.1350000D+00
EXPONENTS  0.1350000D+00 0.1350000D+00 0.1350000D+00 0.1350000D+00 0.1485398D+05
EXPONENTS  0.2225224D+04 0.5048874D+03 0.1424585D+03 0.4631560D+02 0.1665534D+02
EXPONENTS  0.6433119D+01 0.2602704D+01 0.1089725D+01 0.4423660D+01 0.1235639D+01
EXPONENTS  0.4606747D+00 0.9661717D-01 0.4591545D-01 0.2114005D-01 0.3260511D+01
EXPONENTS  0.6500304D+00 0.1694167D+00 0.3260511D+01 0.6500304D+00 0.1694167D+00
EXPONENTS  0.3260511D+01 0.6500304D+00 0.1694167D+00 0.5573234D-01 0.5573234D-01
EXPONENTS  0.5573234D-01 0.2048996D-01 0.2048996D-01 0.2048996D-01 0.3327000D+01
EXPONENTS  0.3327000D+01 0.3327000D+01 0.2300000D+00 0.2300000D+00 0.2300000D+00
EXPONENTS  0.2300000D+00 0.2300000D+00 0.2300000D+00 0.7570000D-01 0.7570000D-01
EXPONENTS  0.7570000D-01 0.7570000D-01 0.7570000D-01 0.7570000D-01 0.1350000D+00
EXPONENTS  0.1350000D+00 0.1350000D+00 0.1350000D+00 0.1350000D+00 0.1350000D+00
EXPONENTS  0.1350000D+00 0.1350000D+00 0.1350000D+00 0.1350000D+00
MO    1     MO 0.0        OCC NO =    2.0000000  ORB. ENERGY =  -40.464363
  0.22529571D+00  0.42165275D+00  0.73005755D+00  0.11915900D+01  0.18461861D+01
  0.26880675D+01  0.35606468D+01  0.39934247D+01  0.33134842D+01  0.15221960D+01
  0.43858320D-03  0.14328725D-02  0.19007579D-02  0.22697943D+00  0.40337006D-02
  0.10046930D-02 -0.26325965D-04  0.82082979D-05 -0.22144402D-05  0.55482321D-06
 -0.70306956D-18 -0.98655448D-18 -0.12336828D-17 -0.13230781D-17 -0.11551157D-17
 -0.73584411D-18 -0.32292814D-18 -0.86298834D-19 -0.59093314D-18 -0.82920349D-18
 -0.10369160D-17 -0.11120531D-17 -0.97087999D-18 -0.61848029D-18 -0.27142256D-18
 -0.72534559D-19 -0.10860038D-03 -0.15238917D-03 -0.19056211D-03 -0.20437064D-03
 -0.17842617D-03 -0.11366293D-03 -0.49881434D-04 -0.13330240D-04  0.11786030D-18
  0.84561794D-19  0.97422938D-05 -0.22798364D-19 -0.31003534D-19 -0.22354161D-05
  0.20338300D-20  0.31698824D-20  0.10642769D-05 -0.40570644D-22 -0.45112156D-21
 -0.83225570D-07 -0.26559755D-05 -0.26559755D-05  0.53119510D-05 -0.51746600D-17
  0.23588374D-17 -0.46487785D-17  0.73427476D-07  0.73427476D-07 -0.14685495D-06
  0.46988827D-20 -0.76178182D-20  0.95370606D-21 -0.11917372D-06 -0.11917372D-06
  0.23834744D-06 -0.36487038D-22  0.15987970D-20 -0.12616142D-20 -0.83586426D-22
  0.50599180D-21  0.50338213D-07 -0.82055493D-21 -0.18391944D-22 -0.75507320D-07
  0.10713142D-20 -0.14995835D-20 -0.75507320D-07  0.20777050D-21  0.33299651D-07
  0.62394157D-07  0.10811978D-06  0.17556480D-06  0.26644430D-06  0.36627586D-06
  0.42777268D-06  0.38773769D-06  0.22866950D-06 -0.39345075D-06 -0.10873035D-05
  0.11285127D-05 -0.51965566D-06 -0.28477061D-05  0.27388674D-06 -0.24929372D-20
 -0.18279622D-20 -0.15014209D-20  0.51427970D-21  0.37709890D-21  0.30973515D-21
  0.74105718D-06  0.54338495D-06  0.44631639D-06 -0.17714626D-20  0.67657039D-21
  0.10217852D-05 -0.67826034D-22  0.23506595D-21 -0.24414329D-07 -0.78636587D-21
  0.44275120D-19 -0.36256890D-05  0.15324141D-06  0.15324141D-06 -0.30648282D-06
  0.61205392D-21 -0.21918705D-20 -0.44486291D-20  0.55443497D-07  0.55443497D-07
 -0.11088699D-06 -0.15844798D-21  0.12894905D-21 -0.38346504D-21 -0.10678289D-21
 -0.39308266D-21 -0.38629726D-08 -0.36354376D-22 -0.36185604D-21  0.57944589D-08
  0.35670303D-21  0.15411040D-20  0.57944589D-08  0.18586167D-22
MO    2     MO 0.0        OCC NO =    2.0000000  ORB. ENERGY =   -2.783657
 -0.55973275D-01 -0.10475692D+00 -0.18137812D+00 -0.29604290D+00 -0.45867312D+00
 -0.66783315D+00 -0.88461989D+00 -0.99214078D+00 -0.82321392D+00 -0.37817985D+00
 -0.11128034D+00 -0.36355825D+00 -0.48227335D+00 -0.29047368D-01  0.51802119D+00
  0.39959103D+00  0.84869335D-01  0.62727792D-03 -0.11559651D-04 -0.10357105D-04
 -0.69035934D-16 -0.96871937D-16 -0.12113801D-15 -0.12991592D-15 -0.11342334D-15
 -0.72254138D-16 -0.31709018D-16 -0.84738708D-17 -0.14886443D-16 -0.20888811D-16
 -0.26121383D-16 -0.28014194D-16 -0.24457843D-16 -0.15580395D-16 -0.68375190D-17
 -0.18272484D-17 -0.95135922D-02 -0.13349571D-01 -0.16693590D-01 -0.17903243D-01
 -0.15630459D-01 -0.99570813D-02 -0.43697051D-02 -0.11677535D-02  0.22615056D-17
  0.91198868D-18 -0.92726588D-03  0.30641859D-18 -0.61819156D-18  0.30452673D-03
  0.15489248D-18  0.25570558D-18  0.52749977D-04 -0.32769324D-19 -0.19025825D-19
 -0.36483377D-05  0.14239441D-03  0.14239441D-03 -0.28478883D-03 -0.44280694D-17
 -0.62449414D-16 -0.15992467D-16  0.48336241D-05  0.48336241D-05 -0.96672482D-05
  0.39463139D-18 -0.17152489D-17  0.66672345D-18 -0.12503624D-04 -0.12503624D-04
  0.25007248D-04 -0.52064645D-20  0.26938987D-18 -0.47348159D-19 -0.12309034D-19
  0.10630803D-19  0.49826917D-05 -0.94337987D-19 -0.51513605D-19 -0.74740375D-05
  0.13126509D-18  0.19621195D-19 -0.74740375D-05  0.23168376D-19  0.64073204D-05
  0.12005512D-04  0.20803764D-04  0.33781133D-04  0.51267624D-04  0.70476617D-04
  0.82309470D-04  0.74606175D-04  0.43999222D-04  0.11735409D-05  0.32430874D-05
  0.92806974D-05  0.32314566D-04 -0.35562692D-03  0.51415943D-04 -0.81824865D-20
 -0.59998609D-20 -0.49280648D-20 -0.73649704D-19 -0.54004119D-19 -0.44356995D-19
  0.55469371D-04  0.40673273D-04  0.33407529D-04 -0.27182435D-18  0.88566230D-19
  0.12092455D-03 -0.99479782D-20 -0.29863730D-19 -0.45656320D-05  0.13681705D-18
  0.33591412D-17 -0.12351528D-03 -0.21096361D-05 -0.21096361D-05  0.42192723D-05
 -0.95905650D-20 -0.10237509D-18  0.51924169D-20  0.90839151D-05  0.90839151D-05
 -0.18167830D-04 -0.14211727D-19  0.19223257D-18  0.15602801D-19  0.35981863D-19
  0.17724121D-20 -0.64822551D-06  0.42123493D-19  0.45686724D-20  0.97233827D-06
 -0.15006908D-18 -0.98859088D-20  0.97233827D-06  0.31976148D-20
MO    3     MO 0.0        OCC NO =    2.0000000  ORB. ENERGY =   -2.457408
 -0.22005421D-04 -0.41184302D-04 -0.71307280D-04 -0.11638677D-03 -0.18032347D-03
 -0.26255297D-03 -0.34778085D-03 -0.39005179D-03 -0.32363962D-03 -0.14867822D-03
 -0.98554020D-05 -0.32198074D-04 -0.42711925D-04 -0.38932042D-03  0.81285966D-03
 -0.58462897D-03  0.58922027D-03 -0.20597797D-03 -0.22012486D-03  0.47687744D-04
  0.43016862D-15  0.60361706D-15  0.75482095D-15  0.80951687D-15  0.70675019D-15
  0.45022152D-15  0.19758152D-15  0.52801391D-16 -0.88363542D-15 -0.12399264D-14
 -0.15505234D-14 -0.16628776D-14 -0.14517784D-14 -0.92482728D-15 -0.40586416D-15
 -0.10846253D-15 -0.43370642D-03 -0.60858134D-03 -0.76102876D-03 -0.81617452D-03
 -0.71256266D-03 -0.45392424D-03 -0.19920647D-03 -0.53235641D-04  0.50826917D-16
  0.10984827D-15  0.36603731D-03 -0.79438491D-18 -0.35718433D-16 -0.31463684D-03
  0.33183754D-17 -0.54613675D-18 -0.85217686D-04 -0.32321363D-18  0.61086102D-18
  0.57270904D-05 -0.37862169D-04 -0.37862169D-04  0.75724337D-04 -0.34407908D-15
 -0.69441534D-15 -0.16268388D-15  0.21119739D-04  0.21119739D-04 -0.42239479D-04
 -0.36574281D-17 -0.91198079D-17 -0.47782674D-17  0.25172561D-04  0.25172561D-04
 -0.50345121D-04  0.82403367D-18  0.22196093D-17 -0.48728742D-17 -0.21068159D-18
  0.23156334D-18 -0.23885454D-04 -0.20998881D-18  0.23134863D-18  0.35828180D-04
  0.84203358D-18 -0.92603866D-18  0.35828180D-04  0.26360426D-18 -0.40902504D-01
 -0.76639759D-01 -0.13280529D+00 -0.21564910D+00 -0.32727788D+00 -0.44990260D+00
 -0.52544015D+00 -0.47626452D+00 -0.28087847D+00 -0.25561637D-03 -0.70639738D-03
 -0.66879677D-01 -0.51280481D-03  0.55113734D-03 -0.82059193D-04  0.22136396D-17
  0.16231655D-17  0.13332083D-17 -0.84302565D-19 -0.61815398D-19 -0.50772892D-19
 -0.10784774D-02 -0.79080049D-03 -0.64953440D-03 -0.19430723D-17  0.62108654D-17
 -0.35669188D-04 -0.12346687D-18 -0.18168918D-18 -0.55243661D-05  0.12713754D-17
 -0.65932113D-16 -0.56269123D-02 -0.42600872D-04 -0.42600872D-04  0.85201745D-04
 -0.46763883D-18  0.61274155D-18  0.20228291D-17 -0.50965659D-05 -0.50965659D-05
  0.10193132D-04 -0.10668180D-17  0.22575487D-17 -0.57508919D-17  0.14661961D-18
 -0.76205412D-18 -0.27140967D-05  0.14612331D-18 -0.76250354D-18  0.40711451D-05
 -0.58598213D-18  0.30486659D-17  0.40711451D-05  0.13910853D-19
MO    4     MO 0.0        OCC NO =    2.0000000  ORB. ENERGY =   -1.504705
  0.45050455D-03  0.84314292D-03  0.14598336D-02  0.23827205D-02  0.36916604D-02
  0.53750985D-02  0.71199207D-02  0.79853096D-02  0.66256908D-02  0.30438051D-02
  0.99211293D-03  0.32412808D-02  0.42996778D-02 -0.25362385D-03 -0.43969789D-02
 -0.53510714D-02  0.11561200D-02  0.98415040D-03 -0.90229315D-04 -0.32736795D-04
 -0.34012684D-11 -0.47726950D-11 -0.59682379D-11 -0.64007090D-11 -0.55881508D-11
 -0.35598232D-11 -0.15622427D-11 -0.41749140D-12  0.65277448D-11  0.91597989D-11
  0.11454295D-10  0.12284298D-10  0.10724829D-10  0.68320445D-11  0.29982701D-11
  0.80125324D-12 -0.18909991D+01 -0.26534695D+01 -0.33181540D+01 -0.35585944D+01
 -0.31068374D+01 -0.19791506D+01 -0.86855817D+00 -0.23211219D+00 -0.37877560D-13
  0.72859323D-13 -0.21323525D-01  0.26331134D-15 -0.52429323D-15  0.53181973D-03
 -0.85923252D-16  0.17254505D-15  0.16070757D-04  0.53610911D-17 -0.11574491D-16
 -0.52520735D-05 -0.57463949D-02 -0.57463949D-02  0.11492790D-01 -0.38729120D-16
  0.31288555D-13 -0.60369263D-13 -0.20890417D-03 -0.20890417D-03  0.41780835D-03
  0.12383270D-17  0.10810344D-14 -0.20909762D-14 -0.80117020D-06 -0.80117020D-06
  0.16023404D-05  0.85367796D-20 -0.49196803D-16  0.96519382D-16 -0.96636709D-18
  0.17216697D-17  0.35126666D-06 -0.96380670D-18  0.17111751D-17 -0.52689999D-06
  0.38629080D-17 -0.68761843D-17 -0.52689999D-06 -0.82575411D-19  0.51649978D-04
  0.96777495D-04  0.16770099D-03  0.27231270D-03  0.41327287D-03  0.56811826D-03
  0.66350393D-03  0.60140700D-03  0.35468163D-03 -0.84047543D-05 -0.23226590D-04
  0.38457016D-03 -0.71927290D-05 -0.66080941D-03  0.11920411D-03 -0.61511405D-16
 -0.45103633D-16 -0.37046464D-16  0.11945221D-15  0.87589104D-16  0.71942464D-16
  0.25313478D-03  0.18561271D-03  0.15245544D-03 -0.22919343D-16  0.37763177D-16
  0.27949826D-03  0.28630732D-17 -0.38928965D-17 -0.14861921D-04  0.99197537D-16
 -0.20616080D-15 -0.24230341D-03  0.44793991D-04  0.44793991D-04 -0.89587983D-04
 -0.49908260D-18  0.85702593D-16 -0.17492680D-15  0.30943338D-04  0.30943338D-04
 -0.61886676D-04  0.13046986D-18  0.24909780D-16 -0.42168874D-16  0.10526709D-16
 -0.20057260D-16  0.18567213D-04  0.10527641D-16 -0.20055365D-16 -0.27850820D-04
 -0.42107767D-16  0.80227145D-16 -0.27850820D-04 -0.81104929D-19
MO    5     MO 0.0        OCC NO =    2.0000000  ORB. ENERGY =   -1.504571
 -0.83722650D-15 -0.15669134D-14 -0.27129835D-14 -0.44280946D-14 -0.68606543D-14
 -0.99891888D-14 -0.13231801D-13 -0.14840056D-13 -0.12313314D-13 -0.56566673D-14
 -0.18446066D-14 -0.60264189D-14 -0.79942656D-14  0.47446861D-15  0.81801154D-14
  0.99350994D-14 -0.21662926D-14 -0.16946162D-14  0.27153486D-15  0.13238586D-16
 -0.18911488D+01 -0.26536795D+01 -0.33184167D+01 -0.35588762D+01 -0.31070834D+01
 -0.19793073D+01 -0.86862694D+00 -0.23213057D+00  0.36095411D-01  0.50649453D-01
  0.63336958D-01  0.67926488D-01  0.59303345D-01  0.37778047D-01  0.16579048D-01
  0.44305600D-02  0.35239051D-11  0.49447801D-11  0.61834297D-11  0.66314941D-11
  0.57896381D-11  0.36881768D-11  0.16185712D-11  0.43254455D-12 -0.21107744D-01
  0.40287294D-03  0.39640944D-13  0.15216248D-03 -0.29042492D-05 -0.85782158D-15
 -0.49866485D-04  0.95177663D-06  0.10344613D-16  0.33756174D-05 -0.64428720D-07
  0.46277194D-17  0.10426940D-13  0.11168695D-13 -0.21595635D-13 -0.62315282D-15
  0.17432636D-01 -0.33272801D-03  0.34774998D-15  0.42076807D-15 -0.76851805D-15
 -0.28551936D-16  0.60725968D-03 -0.11590462D-04 -0.47612695D-17 -0.48441316D-17
  0.96054011D-17  0.29091171D-17 -0.27802163D-04  0.53064597D-06 -0.51254971D-06
  0.97827798D-08  0.15778598D-18 -0.51254971D-06  0.97827798D-08 -0.32207688D-17
  0.20501988D-05 -0.39131119D-07  0.27474108D-17 -0.52374546D-17 -0.10202154D-15
 -0.19115961D-15 -0.33125113D-15 -0.53788527D-15 -0.81631662D-15 -0.11221748D-14
 -0.13105852D-14 -0.11879283D-14 -0.70058438D-15 -0.72774284D-17 -0.20111218D-16
 -0.70659127D-15  0.12463164D-15  0.90553701D-15 -0.14314411D-15 -0.34239598D-04
 -0.25106406D-04 -0.20621477D-04  0.65351407D-06  0.47919340D-06  0.39359181D-06
 -0.47735437D-15 -0.35002316D-15 -0.28749614D-15 -0.11428775D-04  0.21813532D-06
 -0.42528341D-15  0.13026727D-05 -0.24863461D-07  0.23031481D-16  0.55226793D-04
 -0.10540862D-05  0.33269621D-15 -0.82240395D-16 -0.73797957D-16  0.15603835D-15
  0.10858498D-16  0.50613251D-04 -0.96602980D-06 -0.47596073D-16 -0.51771353D-16
  0.99367426D-16 -0.58753640D-18  0.12180939D-04 -0.23249148D-06  0.58375262D-05
 -0.11141794D-06 -0.30257202D-16  0.58375262D-05 -0.11141794D-06  0.45289777D-16
 -0.23350105D-04  0.44567176D-06  0.45481828D-16 -0.45031569D-17
MO    6     MO 0.0        OCC NO =    2.0000000  ORB. ENERGY =   -1.504571
  0.15389036D-14  0.28801390D-14  0.49867271D-14  0.81392680D-14  0.12610549D-13
  0.18361099D-13  0.24321335D-13  0.27277465D-13  0.22633067D-13  0.10397504D-13
  0.33871919D-14  0.11066119D-13  0.14679613D-13 -0.84838029D-15 -0.15041541D-13
 -0.18264457D-13  0.39745548D-14  0.32439958D-14 -0.51424082D-15 -0.49089891D-16
 -0.36095411D-01 -0.50649453D-01 -0.63336958D-01 -0.67926488D-01 -0.59303345D-01
 -0.37778047D-01 -0.16579048D-01 -0.44305600D-02 -0.18911488D+01 -0.26536795D+01
 -0.33184167D+01 -0.35588762D+01 -0.31070834D+01 -0.19793073D+01 -0.86862694D+00
 -0.23213057D+00 -0.64595637D-11 -0.90641265D-11 -0.11334657D-10 -0.12155991D-10
 -0.10612810D-10 -0.67606850D-11 -0.29669537D-11 -0.79288429D-12 -0.40287294D-03
 -0.21107744D-01 -0.72798848D-13  0.29042492D-05  0.15216248D-03  0.17012547D-14
 -0.95177663D-06 -0.49866485D-04 -0.74116774D-17  0.64428720D-07  0.33756174D-05
 -0.90475615D-17 -0.18944861D-13 -0.19702627D-13  0.38647488D-13 -0.10760418D-15
  0.33272801D-03  0.17432636D-01 -0.69367004D-15 -0.71079765D-15  0.14044677D-14
 -0.86139011D-17  0.11590462D-04  0.60725968D-03  0.83496958D-17  0.15568781D-17
 -0.99065738D-17 -0.18363262D-18 -0.53064597D-06 -0.27802163D-04 -0.97827798D-08
 -0.51254971D-06 -0.15244009D-17 -0.97827798D-08 -0.51254971D-06 -0.31214827D-17
  0.39131119D-07  0.20501988D-05  0.76946854D-17 -0.28417119D-17  0.18540684D-15
  0.34740014D-15  0.60199272D-15  0.97751520D-15  0.14835169D-14  0.20393622D-14
  0.23817661D-14  0.21588581D-14  0.12731932D-14 -0.49378487D-16 -0.13645775D-15
  0.14299170D-14 -0.15116360D-15 -0.18687475D-14  0.33297461D-15 -0.65351407D-06
 -0.47919340D-06 -0.39359181D-06 -0.34239598D-04 -0.25106406D-04 -0.20621477D-04
  0.80495652D-15  0.59023955D-15  0.48480103D-15 -0.21813532D-06 -0.11428775D-04
  0.84513125D-15  0.24863461D-07  0.13026727D-05 -0.53528351D-16  0.10540862D-05
  0.55226793D-04 -0.85764276D-15  0.15457059D-15  0.16635605D-15 -0.32092664D-15
  0.91477642D-17  0.96602980D-06  0.50613251D-04  0.98126298D-16  0.95190312D-16
 -0.19331661D-15 -0.94568171D-18  0.23249148D-06  0.12180939D-04  0.11141794D-06
  0.58375262D-05  0.59287082D-16  0.11141794D-06  0.58375262D-05 -0.87853021D-16
 -0.44567176D-06 -0.23350105D-04 -0.90008226D-16 -0.54811035D-17
MO    7     MO 0.0        OCC NO =    2.0000000  ORB. ENERGY =   -0.172865
  0.61006971D-02  0.11417775D-01  0.19768952D-01  0.32266614D-01  0.49992175D-01
  0.72789162D-01  0.96417406D-01  0.10813643D+00  0.89724584D-01  0.41218970D-01
  0.13099861D-01  0.42797877D-01  0.56772953D-01  0.35256994D-02 -0.67381686D-01
 -0.62456663D-01 -0.39769932D-01  0.23950699D-01  0.12290076D-01  0.21560375D-02
  0.38839645D-16  0.54500192D-16  0.68152293D-16  0.73090752D-16  0.63812016D-16
  0.40650208D-16  0.17839507D-16  0.47674032D-17  0.41561660D-17  0.58319752D-17
  0.72928638D-17  0.78213202D-17  0.68284180D-17  0.43499114D-17  0.19089761D-17
  0.51015192D-18 -0.76688989D-01 -0.10761078D+00 -0.13456689D+00 -0.14431790D+00
 -0.12599700D+00 -0.80263951D-01 -0.35224157D-01 -0.94132512D-02  0.48316989D-17
 -0.32459133D-18 -0.15612452D-02 -0.70035937D-17 -0.58361590D-17  0.33811263D-02
 -0.25668498D-17  0.14343747D-17  0.12492000D-02  0.38566818D-18 -0.33791379D-18
  0.55597715D-04 -0.29902430D-02 -0.29902430D-02  0.59804860D-02  0.44057575D-16
  0.35637236D-16  0.78163743D-16 -0.37739086D-03 -0.37739086D-03  0.75478173D-03
  0.63548614D-18  0.30344249D-17  0.39472742D-17 -0.61769084D-04 -0.61769084D-04
  0.12353817D-03 -0.25168740D-20 -0.23845116D-18 -0.47779265D-18  0.10591800D-18
 -0.81053978D-19  0.53594788D-05  0.12897004D-18 -0.13626229D-18 -0.80392182D-05
 -0.44672405D-18  0.37942422D-18 -0.80392182D-05 -0.48630931D-19 -0.46899214D-02
 -0.87875904D-02 -0.15227586D-01 -0.24726539D-01 -0.37526004D-01 -0.51586276D-01
 -0.60247486D-01 -0.54608960D-01 -0.32205803D-01 -0.81153764D-02 -0.22426892D-01
 -0.31714464D-01  0.19140145D-01  0.20963137D-01  0.68674532D-02 -0.32959079D-18
 -0.24167457D-18 -0.19850259D-18 -0.40948613D-18 -0.30025834D-18 -0.24662114D-18
 -0.11631350D-01 -0.85287621D-02 -0.70052111D-02 -0.28556937D-18  0.87886082D-18
 -0.23120927D-02  0.60143087D-18 -0.20384847D-18 -0.19984980D-03 -0.10490677D-17
  0.50109486D-17 -0.25442322D-02 -0.24724039D-03 -0.24724039D-03  0.49448077D-03
 -0.23501736D-18 -0.17274379D-17  0.23218525D-18 -0.63624184D-04 -0.63624184D-04
  0.12724837D-03 -0.12459822D-19  0.14957019D-18  0.14900184D-18 -0.22364166D-19
  0.60741406D-19 -0.22859525D-04 -0.48924571D-20  0.61987540D-19  0.34289288D-04
  0.71984956D-19 -0.24421176D-18  0.34289288D-04 -0.31379949D-21
END DATA
RHF
