 Molden2AIM, Version 4.0.0 (06/02/2016)           Time: Wed Jun 27 19:36:23 2018
GAUSSIAN             11 MOL ORBITALS    206 PRIMITIVES        2 NUCLEI
  N    1    (CENTRE  1)   0.00000000  0.00000000  0.07309083  CHARGE =  7.0
  S    2    (CENTRE  2)   0.00000000  0.00000000  2.76149836  CHARGE = 16.0
CENTRE ASSIGNMENTS    1  1  1  1  1  1  1  1  1  1  1  1  1  1  1  1  1  1  1  1
CENTRE ASSIGNMENTS    1  1  1  1  1  1  1  1  1  1  1  1  1  1  1  1  1  1  1  1
CENTRE ASSIGNMENTS    1  1  1  1  1  1  1  1  1  1  1  1  1  1  1  1  1  1  1  1
CENTRE ASSIGNMENTS    1  1  1  1  1  1  1  1  1  1  1  1  1  1  1  2  2  2  2  2
CENTRE ASSIGNMENTS    2  2  2  2  2  2  2  2  2  2  2  2  2  2  2  2  2  2  2  2
CENTRE ASSIGNMENTS    2  2  2  2  2  2  2  2  2  2  2  2  2  2  2  2  2  2  2  2
CENTRE ASSIGNMENTS    2  2  2  2  2  2  2  2  2  2  2  2  2  2  2  2  2  2  2  2
CENTRE ASSIGNMENTS    2  2  2  2  2  2  2  2  2  2  2  2  2  2  2  2  2  2  2  2
CENTRE ASSIGNMENTS    2  2  2  2  2  2  2  2  2  2  2  2  2  2  2  2  2  2  2  2
CENTRE ASSIGNMENTS    2  2  2  2  2  2  2  2  2  2  2  2  2  2  2  2  2  2  2  2
CENTRE ASSIGNMENTS    2  2  2  2  2  2
TYPE ASSIGNMENTS      1  1  1  1  1  1  1  1  1  1  1  1  1  1  1  1  1  1  1  2
TYPE ASSIGNMENTS      2  2  3  3  3  4  4  4  2  3  4  2  3  4  2  3  4  5  6  7
TYPE ASSIGNMENTS      8  9 10  5  6  7  8  9 10  5  6  7  8  9 10 11 12 13 17 14
TYPE ASSIGNMENTS     15 18 19 16 20 11 12 13 17 14 15 18 19 16 20  1  1  1  1  1
TYPE ASSIGNMENTS      1  1  1  1  1  1  1  1  1  1  1  1  1  1  1  1  1  1  1  1
TYPE ASSIGNMENTS      1  1  1  1  1  1  1  1  1  1  1  1  1  1  1  1  1  2  2  2
TYPE ASSIGNMENTS      2  2  2  2  3  3  3  3  3  3  3  4  4  4  4  4  4  4  2  2
TYPE ASSIGNMENTS      2  2  2  2  2  3  3  3  3  3  3  3  4  4  4  4  4  4  4  2
TYPE ASSIGNMENTS      3  4  2  3  4  2  3  4  5  6  7  8  9 10  5  6  7  8  9 10
TYPE ASSIGNMENTS      5  6  7  8  9 10 11 12 13 17 14 15 18 19 16 20 11 12 13 17
TYPE ASSIGNMENTS     14 15 18 19 16 20
EXPONENTS  0.1142000D+05 0.1712000D+04 0.3893000D+03 0.1100000D+03 0.3557000D+02
EXPONENTS  0.1254000D+02 0.4644000D+01 0.5118000D+00 0.1142000D+05 0.1712000D+04
EXPONENTS  0.3893000D+03 0.1100000D+03 0.3557000D+02 0.1254000D+02 0.4644000D+01
EXPONENTS  0.5118000D+00 0.1293000D+01 0.1787000D+00 0.5760000D-01 0.2663000D+02
EXPONENTS  0.5948000D+01 0.1742000D+01 0.2663000D+02 0.5948000D+01 0.1742000D+01
EXPONENTS  0.2663000D+02 0.5948000D+01 0.1742000D+01 0.5550000D+00 0.5550000D+00
EXPONENTS  0.5550000D+00 0.1725000D+00 0.1725000D+00 0.1725000D+00 0.4910000D-01
EXPONENTS  0.4910000D-01 0.4910000D-01 0.1654000D+01 0.1654000D+01 0.1654000D+01
EXPONENTS  0.1654000D+01 0.1654000D+01 0.1654000D+01 0.4690000D+00 0.4690000D+00
EXPONENTS  0.4690000D+00 0.4690000D+00 0.4690000D+00 0.4690000D+00 0.1510000D+00
EXPONENTS  0.1510000D+00 0.1510000D+00 0.1510000D+00 0.1510000D+00 0.1510000D+00
EXPONENTS  0.1093000D+01 0.1093000D+01 0.1093000D+01 0.1093000D+01 0.1093000D+01
EXPONENTS  0.1093000D+01 0.1093000D+01 0.1093000D+01 0.1093000D+01 0.1093000D+01
EXPONENTS  0.3640000D+00 0.3640000D+00 0.3640000D+00 0.3640000D+00 0.3640000D+00
EXPONENTS  0.3640000D+00 0.3640000D+00 0.3640000D+00 0.3640000D+00 0.3640000D+00
EXPONENTS  0.3741000D+06 0.5605000D+05 0.1276000D+05 0.3615000D+04 0.1183000D+04
EXPONENTS  0.4288000D+03 0.1678000D+03 0.6947000D+02 0.2984000D+02 0.1272000D+02
EXPONENTS  0.5244000D+01 0.2219000D+01 0.3490000D+00 0.3741000D+06 0.5605000D+05
EXPONENTS  0.1276000D+05 0.3615000D+04 0.1183000D+04 0.4288000D+03 0.1678000D+03
EXPONENTS  0.6947000D+02 0.2984000D+02 0.1272000D+02 0.5244000D+01 0.2219000D+01
EXPONENTS  0.3490000D+00 0.3741000D+06 0.5605000D+05 0.1276000D+05 0.3615000D+04
EXPONENTS  0.1183000D+04 0.4288000D+03 0.1678000D+03 0.6947000D+02 0.2984000D+02
EXPONENTS  0.1272000D+02 0.5244000D+01 0.2219000D+01 0.3490000D+00 0.7767000D+00
EXPONENTS  0.1322000D+00 0.4970000D-01 0.5744000D+03 0.1358000D+03 0.4319000D+02
EXPONENTS  0.1587000D+02 0.6208000D+01 0.2483000D+01 0.3229000D+00 0.5744000D+03
EXPONENTS  0.1358000D+03 0.4319000D+02 0.1587000D+02 0.6208000D+01 0.2483000D+01
EXPONENTS  0.3229000D+00 0.5744000D+03 0.1358000D+03 0.4319000D+02 0.1587000D+02
EXPONENTS  0.6208000D+01 0.2483000D+01 0.3229000D+00 0.5744000D+03 0.1358000D+03
EXPONENTS  0.4319000D+02 0.1587000D+02 0.6208000D+01 0.2483000D+01 0.3229000D+00
EXPONENTS  0.5744000D+03 0.1358000D+03 0.4319000D+02 0.1587000D+02 0.6208000D+01
EXPONENTS  0.2483000D+01 0.3229000D+00 0.5744000D+03 0.1358000D+03 0.4319000D+02
EXPONENTS  0.1587000D+02 0.6208000D+01 0.2483000D+01 0.3229000D+00 0.8688000D+00
EXPONENTS  0.8688000D+00 0.8688000D+00 0.1098000D+00 0.1098000D+00 0.1098000D+00
EXPONENTS  0.3510000D-01 0.3510000D-01 0.3510000D-01 0.2690000D+00 0.2690000D+00
EXPONENTS  0.2690000D+00 0.2690000D+00 0.2690000D+00 0.2690000D+00 0.8190000D+00
EXPONENTS  0.8190000D+00 0.8190000D+00 0.8190000D+00 0.8190000D+00 0.8190000D+00
EXPONENTS  0.1010000D+00 0.1010000D+00 0.1010000D+00 0.1010000D+00 0.1010000D+00
EXPONENTS  0.1010000D+00 0.5570000D+00 0.5570000D+00 0.5570000D+00 0.5570000D+00
EXPONENTS  0.5570000D+00 0.5570000D+00 0.5570000D+00 0.5570000D+00 0.5570000D+00
EXPONENTS  0.5570000D+00 0.2180000D+00 0.2180000D+00 0.2180000D+00 0.2180000D+00
EXPONENTS  0.2180000D+00 0.2180000D+00 0.2180000D+00 0.2180000D+00 0.2180000D+00
EXPONENTS  0.2180000D+00
MO    1     MO 0.0        OCC NO =    2.0000000  ORB. ENERGY =  -92.417657
 -0.39944757D-05 -0.74431172D-05 -0.12588177D-04 -0.18957097D-04 -0.23470116D-04
 -0.19972010D-04 -0.75997181D-05  0.35592722D-07  0.33021117D-05  0.61914903D-05
  0.10533567D-04  0.16357518D-04  0.21707377D-04  0.22876596D-04  0.14184949D-04
 -0.94358334D-05 -0.33039731D-05 -0.28686572D-04 -0.66916477D-05 -0.87831224D-15
 -0.84360841D-15 -0.59159645D-15  0.12007328D-16  0.11532895D-16  0.80876618D-17
 -0.19277111D-04 -0.18515435D-04 -0.12984301D-04  0.18970663D-15 -0.43456723D-17
 -0.20022985D-04 -0.13909852D-18 -0.95552891D-17 -0.16550070D-04 -0.77361441D-17
  0.12176574D-17 -0.73302516D-06  0.21489434D-05  0.21489434D-05 -0.42978867D-05
  0.97949593D-15  0.10316509D-15  0.71652407D-15  0.79868022D-07  0.79868022D-07
 -0.15973604D-06 -0.55739332D-16  0.18162914D-15 -0.18781988D-15  0.97631212D-06
  0.97631212D-06 -0.19526242D-05  0.56329477D-17 -0.27158148D-16  0.41093497D-17
  0.69552802D-16  0.15561887D-15  0.19731191D-04 -0.22808312D-15 -0.57703630D-15
 -0.29596786D-04  0.19424709D-16  0.11017971D-15 -0.29596786D-04 -0.29858037D-16
 -0.83410229D-17  0.12303436D-16  0.87311191D-06  0.34699760D-17  0.69563783D-17
 -0.13096679D-05  0.21553093D-16 -0.43866687D-16 -0.13096679D-05 -0.54470212D-17
  0.58447664D+00  0.10926451D+01  0.18884319D+01  0.30544539D+01  0.46166281D+01
  0.63578545D+01  0.74308579D+01  0.64208218D+01  0.29946942D+01  0.40661477D+00
  0.10888142D-02  0.21358033D-02  0.97508342D-04 -0.98837476D-05 -0.18458320D-04
 -0.32018812D-04 -0.51917396D-04 -0.79932741D-04 -0.11384218D-03 -0.14638626D-03
 -0.15366202D-03 -0.10864993D-03  0.24060983D-05  0.78066382D-04  0.42985469D-04
 -0.18178482D-06  0.51584916D-05  0.96265084D-05  0.16720093D-04  0.27082841D-04
  0.41835063D-04  0.59642168D-04  0.77574978D-04  0.82674016D-04  0.61317598D-04
 -0.19085891D-05 -0.55550550D-04 -0.54420366D-04  0.25417538D-04 -0.39252101D-03
  0.79809048D-05  0.51189091D-05 -0.80851907D-15 -0.10607330D-14 -0.11634624D-14
 -0.95731532D-15 -0.50471557D-15 -0.13130314D-15  0.14530031D-18  0.12946898D-14
  0.16985625D-14  0.18630642D-14  0.15329587D-14  0.80820616D-15  0.21025704D-15
 -0.23267086D-18 -0.10797542D-02 -0.14165787D-02 -0.15537709D-02 -0.12784673D-02
 -0.67403325D-03 -0.17535159D-03  0.19404442D-06  0.68044487D-15  0.89342825D-15
  0.10051670D-14  0.84692922D-15  0.47376033D-15  0.11791798D-15 -0.54082868D-16
 -0.10829983D-14 -0.14219834D-14 -0.15998272D-14 -0.13479754D-14 -0.75403851D-15
 -0.18767865D-15  0.86078472D-16  0.54414119D-03  0.71446070D-03  0.80381646D-03
  0.67727614D-03  0.37885878D-03  0.94297179D-04 -0.43249230D-04  0.83328049D-16
 -0.60369325D-16  0.86616040D-04  0.14472530D-16 -0.11089368D-16 -0.45661143D-05
  0.49654450D-18  0.23317994D-17 -0.61412502D-07 -0.45692266D-05 -0.45692266D-05
  0.91384532D-05 -0.36475355D-17  0.13221377D-16 -0.54225803D-16  0.76493888D-05
  0.76493888D-05 -0.15298778D-04 -0.64962217D-17  0.84130248D-16 -0.11201507D-15
  0.87001716D-07  0.87001716D-07 -0.17400343D-06 -0.26556995D-18 -0.69212544D-17
  0.48429420D-17  0.28538607D-16 -0.61338386D-17 -0.36717806D-05  0.31388829D-16
 -0.99788963D-17  0.55076709D-05 -0.11700465D-15  0.28380412D-16  0.55076709D-05
 -0.28549170D-16  0.83515244D-18 -0.13878960D-18 -0.21633954D-06 -0.45583465D-20
  0.67394831D-18  0.32450931D-06 -0.25008990D-17 -0.25757952D-18  0.32450931D-06
  0.44892103D-17
MO    2     MO 0.0        OCC NO =    2.0000000  ORB. ENERGY =  -16.035416
 -0.41132523D+00 -0.76644401D+00 -0.12962490D+01 -0.19520791D+01 -0.24168006D+01
 -0.20565882D+01 -0.78256975D+00  0.36651080D-02 -0.32545577D-03 -0.61023262D-03
 -0.10381873D-02 -0.16121952D-02 -0.21394768D-02 -0.22547148D-02 -0.13980670D-02
  0.92999473D-03 -0.35887469D-01  0.14923666D-03  0.22047800D-03 -0.59814595D-18
 -0.57451203D-18 -0.40288749D-18 -0.30282470D-17 -0.29085951D-17 -0.20397076D-17
 -0.93700422D-02 -0.89998136D-02 -0.63112905D-02 -0.31973010D-18  0.16177648D-17
  0.20466874D-02  0.14982021D-18 -0.58845582D-18  0.18557933D-03  0.23303842D-19
 -0.64381975D-19  0.15535735D-04  0.99994589D-03  0.99994589D-03 -0.19998918D-02
 -0.73168104D-18 -0.34745533D-17 -0.34894860D-18 -0.23113067D-03 -0.23113067D-03
  0.46226133D-03 -0.73386982D-18  0.32329678D-18 -0.13499497D-18  0.48143190D-06
  0.48143190D-06 -0.96286380D-06  0.23690389D-19  0.91697073D-19 -0.23705270D-18
 -0.52905686D-18  0.39145851D-18  0.16144227D-03  0.12349450D-17 -0.14812208D-17
 -0.24216340D-03  0.35222563D-18  0.30684526D-18 -0.24216340D-03 -0.81279114D-18
 -0.52305360D-19  0.27668995D-19  0.34892613D-04 -0.79770975D-19  0.17079965D-18
 -0.52338920D-04  0.23668705D-18 -0.25380663D-18 -0.52338920D-04  0.29016344D-19
 -0.13387275D-03 -0.25026733D-03 -0.43254008D-03 -0.69961416D-03 -0.10574258D-02
 -0.14562489D-02 -0.17020173D-02 -0.14706714D-02 -0.68592637D-03 -0.93133983D-04
 -0.24938986D-06 -0.48919981D-06 -0.22334015D-07  0.25936404D-03  0.48437339D-03
  0.84022059D-03  0.13623886D-02  0.20975524D-02  0.29873858D-02  0.38413903D-02
  0.40323167D-02  0.28511337D-02 -0.63139549D-04 -0.20485764D-02 -0.11280018D-02
  0.47703003D-05 -0.15837161D-03 -0.29554485D-03 -0.51332603D-03 -0.83147427D-03
 -0.12843844D-02 -0.18310830D-02 -0.23816408D-02 -0.25381871D-02 -0.18825206D-02
  0.58595875D-04  0.17054656D-02  0.16707676D-02 -0.78034757D-03  0.39349804D-03
 -0.44747126D-03 -0.14376196D-03  0.14736697D-14  0.19333744D-14  0.21206170D-14
  0.17448773D-14  0.91993383D-15  0.23932330D-15 -0.26483563D-18 -0.17570964D-14
 -0.23052149D-14 -0.25284693D-14 -0.20804646D-14 -0.10968621D-14 -0.28535168D-15
  0.31577072D-18  0.13738014D-01  0.18023526D-01  0.19769061D-01  0.16266296D-01
  0.85759131D-02  0.22310473D-02 -0.24688812D-05  0.92437313D-17  0.12137075D-16
  0.13655028D-16  0.11505394D-16  0.64359560D-17  0.16018963D-17 -0.73470684D-18
 -0.16102986D-16 -0.21143318D-16 -0.23787658D-16 -0.20042901D-16 -0.11211718D-16
 -0.27905737D-17  0.12798916D-17 -0.13956499D-01 -0.18324968D-01 -0.20616825D-01
 -0.17371234D-01 -0.97172246D-02 -0.24185974D-02  0.11092853D-02  0.11396785D-16
 -0.12911335D-16  0.16896032D-03 -0.86603526D-19  0.29616884D-18  0.15331741D-03
  0.68246476D-21  0.26293726D-19  0.76133041D-05  0.14354693D-03  0.14354693D-03
 -0.28709387D-03 -0.16045123D-19  0.17644526D-18 -0.46358819D-18  0.34997459D-03
  0.34997459D-03 -0.69994918D-03 -0.15603977D-18  0.81453268D-18 -0.44527831D-18
  0.42812232D-05  0.42812232D-05 -0.85624463D-05 -0.36136699D-20  0.24510767D-19
 -0.81606020D-19  0.10257393D-18 -0.22898596D-19  0.11876806D-03  0.11469845D-18
 -0.90860582D-20 -0.17815209D-03 -0.42242026D-18  0.77781847D-19 -0.17815209D-03
  0.26585170D-18  0.10855004D-20 -0.15974165D-19  0.24617904D-04  0.35152732D-20
 -0.44299330D-19 -0.36926856D-04 -0.67717743D-20  0.92221826D-19 -0.36926856D-04
 -0.33196077D-19
MO    3     MO 0.0        OCC NO =    2.0000000  ORB. ENERGY =   -9.416202
  0.55596992D-04  0.10359681D-03  0.17520817D-03  0.26385380D-03  0.32666812D-03
  0.27797983D-03  0.10577645D-03 -0.49539625D-06  0.10391001D-03  0.19483223D-03
  0.33146760D-03  0.51473418D-03  0.68308220D-03  0.71987487D-03  0.44636834D-03
 -0.29692439D-03  0.36355398D-04 -0.15342426D-03 -0.23654031D-04  0.20807873D-15
  0.19985713D-15  0.14015362D-15 -0.19365510D-15 -0.18600341D-15 -0.13043843D-15
 -0.84303425D-03 -0.80972432D-03 -0.56783458D-03 -0.61999763D-16  0.56981382D-17
 -0.67140249D-03  0.26988327D-16  0.74776735D-16 -0.17192401D-03  0.17944052D-17
 -0.32146984D-17 -0.48389941D-06  0.21552128D-03  0.21552128D-03 -0.43104256D-03
 -0.17014529D-15 -0.21006671D-15 -0.57939118D-16  0.11310364D-03  0.11310364D-03
 -0.22620728D-03 -0.17971668D-16  0.36490522D-16  0.79114893D-16  0.12029589D-04
  0.12029589D-04 -0.24059179D-04  0.50780564D-17  0.47426912D-17  0.14962124D-16
  0.19799040D-18 -0.25469300D-16 -0.40428098D-03 -0.42032922D-16  0.67834797D-16
  0.60642147D-03  0.41438951D-16  0.85731020D-17  0.60642147D-03  0.30925289D-17
 -0.38596565D-17 -0.63273157D-18 -0.21426244D-05 -0.20440210D-17 -0.11327402D-16
  0.32139366D-05  0.13622991D-16  0.13225597D-16  0.32139366D-05  0.40003161D-17
  0.13398739D-03  0.25048164D-03  0.43291048D-03  0.70021327D-03  0.10583314D-02
  0.14574959D-02  0.17034748D-02  0.14719308D-02  0.68651376D-03  0.93213738D-04
  0.24960342D-06  0.48961873D-06  0.22353140D-07  0.16128708D+00  0.30121049D+00
  0.52249620D+00  0.84720952D+00  0.13043755D+01  0.18577237D+01  0.23887915D+01
  0.25075203D+01  0.17729945D+01 -0.39263706D-01 -0.12739195D+01 -0.70145464D+00
  0.29664398D-02  0.13394922D-03  0.24996907D-03  0.43416635D-03  0.70325316D-03
  0.10863203D-02  0.15487128D-02  0.20143695D-02  0.21467749D-02  0.15922183D-02
 -0.49559843D-04 -0.14424668D-02 -0.14131196D-02  0.66001068D-03 -0.40873827D-01
 -0.37350838D-03  0.40901269D-04 -0.21005561D-14 -0.27558152D-14 -0.30227093D-14
 -0.24871331D-14 -0.13112657D-14 -0.34112937D-15  0.37749443D-18 -0.94959437D-16
 -0.12458161D-15 -0.13664704D-15 -0.11243535D-15 -0.59278139D-16 -0.15421370D-16
  0.17065318D-19 -0.15442750D-01 -0.20260047D-01 -0.22222183D-01 -0.18284765D-01
 -0.96400896D-02 -0.25078957D-02  0.27752422D-05  0.30335696D-15  0.39830953D-15
  0.44812508D-15  0.37757926D-15  0.21121254D-15  0.52570372D-16 -0.24111306D-16
  0.69819308D-15  0.91673176D-15  0.10313850D-14  0.86901988D-15  0.48611754D-15
  0.12099367D-15 -0.55493525D-16  0.37505513D-02  0.49244966D-02  0.55403908D-02
  0.46681981D-02  0.26113246D-02  0.64995337D-03 -0.29809993D-03  0.31576844D-16
 -0.26134476D-16  0.31876294D-03 -0.74771822D-17 -0.24297199D-16  0.25908390D-04
  0.43484480D-19  0.72254140D-18 -0.81726829D-06  0.44129952D-05  0.44129952D-05
 -0.88259904D-05  0.28013017D-17  0.86979282D-17  0.20422153D-16 -0.10578106D-03
 -0.10578106D-03  0.21156213D-03  0.12971769D-16  0.12786119D-16 -0.60734882D-16
  0.27191307D-05  0.27191307D-05 -0.54382614D-05 -0.12006044D-17 -0.17399846D-17
  0.35974538D-17  0.49031367D-17  0.10411225D-17  0.33401091D-04  0.59622520D-17
  0.17479044D-17 -0.50101636D-04 -0.20671662D-16 -0.48712718D-17 -0.50101636D-04
  0.84693975D-17 -0.23937951D-17  0.12146801D-19  0.37766902D-05 -0.25087966D-17
  0.78538544D-18 -0.56650353D-05  0.96901820D-17 -0.82182585D-18 -0.56650353D-05
 -0.45431103D-17
MO    4     MO 0.0        OCC NO =    2.0000000  ORB. ENERGY =   -7.094826
  0.81132010D-04  0.15117756D-03  0.25567915D-03  0.38503863D-03  0.47670280D-03
  0.40565257D-03  0.15435828D-03 -0.72292570D-06  0.25715983D-03  0.48217709D-03
  0.82032669D-03  0.12738807D-02  0.16905138D-02  0.17815695D-02  0.11046868D-02
 -0.73483805D-03 -0.27135085D-03 -0.27601051D-02 -0.48110435D-03 -0.13198593D-14
 -0.12677091D-14 -0.88900513D-15 -0.51555725D-15 -0.49518657D-15 -0.34725901D-15
 -0.21580687D-02 -0.20727992D-02 -0.14535899D-02 -0.14291974D-14  0.48777315D-15
 -0.18352106D-02 -0.36256343D-14  0.10427454D-14 -0.98148899D-03 -0.15028513D-15
  0.43922414D-16 -0.32062090D-04  0.51259399D-03  0.51259399D-03 -0.10251880D-02
 -0.51768421D-16  0.27292141D-14 -0.71270789D-15  0.17445982D-03  0.17445982D-03
 -0.34891965D-03 -0.33883566D-16 -0.46711430D-14  0.13459305D-14  0.17249090D-04
  0.17249090D-04 -0.34498179D-04  0.59158665D-18 -0.12793846D-14  0.37350769D-15
 -0.19255414D-15  0.63895263D-16 -0.83432238D-03 -0.19305896D-15  0.12800496D-15
  0.12514836D-02  0.77072138D-15 -0.31969075D-15  0.12514836D-02 -0.10885632D-16
  0.39263583D-15 -0.11741005D-15  0.76417317D-04  0.39270338D-15 -0.11297423D-15
 -0.11462598D-03 -0.15706109D-14  0.46520438D-15 -0.11462598D-03  0.35532734D-17
  0.36441537D-04  0.68125336D-04  0.11774185D-03  0.19044216D-03  0.28784217D-03
  0.39640591D-03  0.46330660D-03  0.40033186D-03  0.18671620D-03  0.25352027D-04
  0.67886481D-07  0.13316521D-06  0.60795482D-08  0.12875626D-03  0.24045780D-03
  0.41711125D-03  0.67633148D-03  0.10412893D-02  0.14830299D-02  0.19069839D-02
  0.20017656D-02  0.14153901D-02 -0.31344407D-04 -0.10169761D-02 -0.55997465D-03
  0.23681233D-05 -0.97480935D-04 -0.18191385D-03 -0.31596258D-03 -0.51178927D-03
 -0.79056464D-03 -0.11270687D-02 -0.14659482D-02 -0.15623056D-02 -0.11587296D-02
  0.36066949D-04  0.10497486D-02  0.10283914D-02 -0.48031975D-03 -0.84671746D-03
  0.22081565D-02  0.29743765D-03 -0.52791953D-10 -0.69260168D-10 -0.75967848D-10
 -0.62507549D-10 -0.32955216D-10 -0.85733896D-11  0.94873297D-14  0.14959494D-10
  0.19626042D-10  0.21526777D-10  0.17712573D-10  0.93384188D-11  0.24294152D-11
 -0.26883956D-14  0.96880989D+01  0.12710258D+02  0.13941216D+02  0.11471053D+02
  0.60477662D+01  0.15733429D+01 -0.17410644D-02 -0.75915498D-13 -0.99677510D-13
 -0.11214392D-12 -0.94489732D-13 -0.52856231D-13 -0.13155808D-13  0.60338876D-14
  0.21698369D-13  0.28490091D-13  0.32053273D-13  0.27007306D-13  0.15107508D-13
  0.37602281D-14 -0.17246218D-14  0.21384748D-01  0.28078305D-01  0.31589986D-01
  0.26616952D-01  0.14889149D-01  0.37058790D-02 -0.16996947D-02 -0.40813598D-12
  0.11564859D-12  0.74721552D-01  0.33100450D-15 -0.99355225D-16 -0.55175992D-03
  0.10575876D-15 -0.30023525D-16 -0.17617717D-04 -0.25789698D-03 -0.25789698D-03
  0.51579397D-03  0.13196239D-17 -0.31429633D-14  0.91919079D-15  0.14908366D-03
  0.14908366D-03 -0.29816732D-03  0.79064760D-17 -0.40307975D-14  0.11045441D-14
 -0.26577256D-04 -0.26577256D-04  0.53154511D-04  0.93610226D-18 -0.40796801D-15
  0.11119386D-15 -0.24465240D-15  0.79376559D-16  0.32063061D-04 -0.24455429D-15
  0.78985691D-16 -0.48094591D-04  0.97851148D-15 -0.31711537D-15 -0.48094591D-04
  0.86847446D-17 -0.15781759D-15  0.42765874D-16 -0.47685153D-04 -0.15782262D-15
  0.42405817D-16  0.71527730D-04  0.63127539D-15 -0.17070344D-15  0.71527730D-04
 -0.24830385D-17
MO    5     MO 0.0        OCC NO =    2.0000000  ORB. ENERGY =   -7.093948
 -0.45982689D-15 -0.85681971D-15 -0.14490969D-14 -0.21822597D-14 -0.27017790D-14
 -0.22990920D-14 -0.87484693D-15  0.40972814D-17 -0.13715384D-14 -0.25716473D-14
 -0.43751372D-14 -0.67941260D-14 -0.90162004D-14 -0.95018376D-14 -0.58917455D-14
  0.39191914D-14  0.14133726D-14  0.14949075D-13  0.26501383D-14 -0.68941413D-04
 -0.66217403D-04 -0.46436214D-04  0.48726991D-04  0.46801692D-04  0.32820577D-04
  0.11655889D-13  0.11195342D-13  0.78509468D-14 -0.25205579D-03  0.17815011D-03
  0.99004473D-14 -0.54051891D-03  0.38203249D-03  0.52984133D-14 -0.22300921D-04
  0.15762032D-04  0.16307856D-15 -0.23739040D-14 -0.30740521D-14  0.54479561D-14
  0.68184452D-16  0.36170817D-03 -0.25565114D-03 -0.10979123D-14 -0.80357663D-15
  0.19014889D-14 -0.49371171D-16 -0.71356049D-03  0.50433627D-03 -0.97364099D-16
 -0.74370200D-16  0.17173430D-15 -0.89008619D-17 -0.19302921D-03  0.13643080D-03
 -0.37271316D-04  0.26342934D-04  0.44689786D-14 -0.37271316D-04  0.26342934D-04
 -0.65458703D-14  0.14908526D-03 -0.10537173D-03 -0.68610656D-14  0.60377876D-15
  0.60684704D-04 -0.42891245D-04 -0.40727738D-15  0.60684704D-04 -0.42891245D-04
  0.55919831D-15 -0.24273882D-03  0.17156498D-03  0.66263384D-15 -0.99753955D-17
 -0.19112737D-15 -0.35730150D-15 -0.61752856D-15 -0.99882473D-15 -0.15096651D-14
 -0.20790566D-14 -0.24299351D-14 -0.20996472D-14 -0.97928295D-15 -0.13296547D-15
 -0.35604877D-18 -0.69842049D-18 -0.31885813D-19 -0.72608711D-15 -0.13559986D-14
 -0.23521894D-14 -0.38139938D-14 -0.58720776D-14 -0.83631575D-14 -0.10753935D-13
 -0.11288432D-13 -0.79817211D-14  0.17675856D-15  0.57349698D-14  0.31578300D-14
 -0.13354409D-16  0.51295717D-15  0.95725397D-15  0.16626356D-14  0.26931007D-14
  0.41600524D-14  0.59307798D-14  0.77140072D-14  0.82210523D-14  0.60973835D-14
 -0.18978891D-15 -0.55239119D-14 -0.54115271D-14  0.25275041D-14  0.45173459D-14
 -0.11859240D-13 -0.16753355D-14 -0.79176038D+01 -0.10387465D+02 -0.11393466D+02
 -0.93747243D+01 -0.49425400D+01 -0.12858153D+01  0.14228857D-02  0.55960705D+01
  0.73417398D+01  0.80527695D+01  0.66259464D+01  0.34933300D+01  0.90879935D+00
 -0.10056791D-02 -0.51701512D-10 -0.67829568D-10 -0.74398698D-10 -0.61216428D-10
 -0.32274511D-10 -0.83963024D-11  0.92913646D-14 -0.11510404D-01 -0.15113231D-01
 -0.17003404D-01 -0.14326654D-01 -0.80141291D-02 -0.19947004D-02  0.91486572D-03
  0.81354203D-02  0.10681856D-01  0.12017809D-01  0.10125912D-01  0.56642935D-02
  0.14098311D-02 -0.64661648D-03 -0.11451606D-12 -0.15036029D-12 -0.16916546D-12
 -0.14253469D-12 -0.79731909D-13 -0.19845110D-13  0.91019236D-14 -0.61213019D-01
  0.43264652D-01 -0.39877739D-12  0.47979999D-04 -0.33911707D-04  0.30317394D-14
  0.15624306D-04 -0.11043078D-04  0.10059749D-15  0.14269343D-14  0.13751242D-14
 -0.28020585D-14 -0.50844859D-17 -0.48110826D-03  0.34004173D-03 -0.88281186D-15
 -0.73109561D-15  0.16139075D-14 -0.65277785D-16 -0.62531362D-03  0.44196441D-03
  0.14608837D-15  0.14797925D-15 -0.29406762D-15 -0.19246161D-17 -0.59606168D-04
  0.42128948D-04 -0.42237074D-04  0.29852673D-04 -0.16541370D-15 -0.42237074D-04
  0.29852673D-04  0.28135953D-15  0.16894829D-03 -0.11941069D-03  0.21488157D-15
  0.48599306D-17 -0.23252001D-04  0.16434245D-04  0.25966855D-15 -0.23252001D-04
  0.16434245D-04 -0.39907017D-15  0.93008004D-04 -0.65736978D-04 -0.37993547D-15
 -0.49051917D-17
MO    6     MO 0.0        OCC NO =    2.0000000  ORB. ENERGY =   -7.093948
 -0.19455477D-15 -0.36252416D-15 -0.61311924D-15 -0.92332359D-15 -0.11431345D-14
 -0.97275587D-15 -0.37015156D-15  0.17335776D-17 -0.47256450D-15 -0.88606286D-15
 -0.15074566D-14 -0.23409209D-14 -0.31065382D-14 -0.32738648D-14 -0.20300050D-14
  0.13503601D-14  0.46503607D-15  0.51721449D-14  0.10979478D-14 -0.48726991D-04
 -0.46801692D-04 -0.32820577D-04 -0.68941413D-04 -0.66217403D-04 -0.46436214D-04
  0.43355044D-14  0.41642002D-14  0.29202246D-14 -0.17815011D-03 -0.25205579D-03
  0.35661659D-14 -0.38203249D-03 -0.54051891D-03  0.18988917D-14 -0.15762032D-04
 -0.22300921D-04  0.92050915D-16 -0.10323213D-14 -0.88883920D-15  0.19211605D-14
 -0.26338579D-15  0.25565114D-03  0.36170817D-03 -0.33003645D-15 -0.31656822D-15
  0.64660467D-15  0.44510366D-16 -0.50433627D-03 -0.71356049D-03 -0.32258937D-16
 -0.47496371D-16  0.79755308D-16 -0.96586728D-17 -0.13643080D-03 -0.19302921D-03
 -0.26342934D-04 -0.37271316D-04  0.15615237D-14 -0.26342934D-04 -0.37271316D-04
 -0.26908735D-14  0.10537173D-03  0.14908526D-03 -0.19936975D-14 -0.14434533D-14
  0.42891245D-04  0.60684704D-04 -0.12994598D-15  0.42891245D-04  0.60684704D-04
  0.31996434D-15 -0.17156498D-03 -0.24273882D-03  0.69873587D-16  0.40556610D-16
 -0.68553022D-16 -0.12815589D-15 -0.22149339D-15 -0.35825562D-15 -0.54148239D-15
 -0.74571011D-15 -0.87156223D-15 -0.75309552D-15 -0.35124643D-15 -0.47691677D-16
 -0.12770656D-18 -0.25050748D-18 -0.11436713D-19 -0.24993887D-15 -0.46677148D-15
 -0.80968736D-15 -0.13128801D-14 -0.20213283D-14 -0.28788255D-14 -0.37017960D-14
 -0.38857842D-14 -0.27475248D-14  0.60845087D-16  0.19741321D-14  0.10870107D-14
 -0.45969498D-17  0.17310515D-15  0.32303981D-15  0.56108149D-15  0.90882752D-15
  0.14038725D-14  0.20014312D-14  0.26032083D-14  0.27743183D-14  0.20576542D-14
 -0.64047134D-16 -0.18641275D-14 -0.18262016D-14  0.85294444D-15  0.15552212D-14
 -0.42821312D-14 -0.69233829D-15 -0.55960705D+01 -0.73417398D+01 -0.80527695D+01
 -0.66259464D+01 -0.34933300D+01 -0.90879935D+00  0.10056791D-02 -0.79176038D+01
 -0.10387465D+02 -0.11393466D+02 -0.93747243D+01 -0.49425400D+01 -0.12858153D+01
  0.14228857D-02 -0.18237840D-10 -0.23927053D-10 -0.26244330D-10 -0.21594250D-10
 -0.11384916D-10 -0.29618170D-11  0.32775525D-14 -0.81354203D-02 -0.10681856D-01
 -0.12017809D-01 -0.10125912D-01 -0.56642935D-02 -0.14098311D-02  0.64661648D-03
 -0.11510404D-01 -0.15113231D-01 -0.17003404D-01 -0.14326654D-01 -0.80141291D-02
 -0.19947004D-02  0.91486572D-03 -0.40339248D-13 -0.52965678D-13 -0.59589959D-13
 -0.50209046D-13 -0.28086236D-13 -0.69906070D-14  0.32062292D-14 -0.43264652D-01
 -0.61213019D-01 -0.14070034D-12  0.33911707D-04  0.47979999D-04  0.10789652D-14
  0.11043078D-04  0.15624306D-04  0.33760788D-16  0.42733381D-15  0.55953888D-15
 -0.98687269D-15  0.12323289D-16 -0.34004173D-03 -0.48110826D-03 -0.11888863D-15
 -0.39038869D-15  0.50927732D-15 -0.34869647D-16 -0.44196441D-03 -0.62531362D-03
  0.50379080D-16  0.43214171D-16 -0.93593251D-16 -0.87180680D-19 -0.42128948D-04
 -0.59606168D-04 -0.29852673D-04 -0.42237074D-04 -0.52026505D-16 -0.29852673D-04
 -0.42237074D-04  0.27059068D-16  0.11941069D-03  0.16894829D-03  0.12902045D-15
 -0.75743943D-17 -0.16434245D-04 -0.23252001D-04  0.79603961D-16 -0.16434245D-04
 -0.23252001D-04 -0.93996467D-16  0.65736978D-04  0.93008004D-04 -0.14481542D-15
  0.24314534D-17
MO    7     MO 0.0        OCC NO =    2.0000000  ORB. ENERGY =   -1.615734
  0.37795542D-02  0.70426428D-02  0.11910875D-01  0.17937117D-01  0.22207315D-01
  0.18897422D-01  0.71908178D-02 -0.33677668D-04  0.63498957D-01  0.11906114D+00
  0.20255842D+00  0.31455184D+00  0.41742859D+00  0.43991243D+00  0.27277377D+00
 -0.18144922D+00 -0.89009107D-01 -0.32340249D-01  0.16094562D-03 -0.81414868D-16
 -0.78198008D-16 -0.54837841D-16  0.83125131D-16  0.79840695D-16  0.55989806D-16
 -0.34128998D+00 -0.32780495D+00 -0.22987946D+00 -0.48356348D-16  0.80381075D-17
 -0.88066802D-01 -0.34251023D-16 -0.14090575D-16 -0.39496491D-02  0.16468980D-17
 -0.85427740D-18  0.20941639D-03  0.26429106D-01  0.26429106D-01 -0.52858212D-01
 -0.16708227D-15  0.14691989D-15 -0.27577570D-16  0.54423613D-02  0.54423613D-02
 -0.10884723D-01  0.16836711D-16  0.32447907D-17 -0.73406343D-16 -0.10390996D-03
 -0.10390996D-03  0.20781991D-03  0.24938939D-17 -0.11459977D-16 -0.10937514D-17
  0.98000197D-17  0.27247862D-17 -0.90428706D-02 -0.70685338D-16 -0.16321380D-16
  0.13564306D-01  0.41285279D-16  0.81470213D-17  0.13564306D-01  0.24612660D-16
  0.15699790D-17  0.12369188D-17 -0.46545622D-03  0.65898910D-17  0.59548042D-17
  0.69818434D-03 -0.11299828D-16 -0.96655607D-17  0.69818434D-03  0.16616961D-17
  0.28338533D-03  0.52977241D-03  0.91561213D-03  0.14809615D-02  0.22383866D-02
  0.30826257D-02  0.36028748D-02  0.31131556D-02  0.14519869D-02  0.19714845D-03
  0.52791497D-06  0.10355509D-05  0.47277226D-07 -0.21571988D-02 -0.40286606D-02
 -0.69883352D-02 -0.11331344D-01 -0.17445894D-01 -0.24846872D-01 -0.31949852D-01
 -0.33537837D-01 -0.23713627D-01  0.52514820D-03  0.17038548D-01  0.93818867D-02
 -0.39675840D-04 -0.27162854D-01 -0.50689904D-01 -0.88042296D-01 -0.14260898D+00
 -0.22028915D+00 -0.31405528D+00 -0.40848333D+00 -0.43533312D+00 -0.32287752D+00
  0.10049978D-01  0.29251021D+00  0.28655905D+00 -0.13384007D+00 -0.28148048D-01
 -0.14550289D-01  0.83277143D-03  0.13202083D-14  0.17320414D-14  0.18997854D-14
  0.15631735D-14  0.82413600D-15  0.21440124D-15 -0.23725683D-18  0.19381225D-16
  0.25427111D-16  0.27889665D-16  0.22948059D-16  0.12098670D-16  0.31475022D-17
 -0.34830321D-20 -0.43423988D+00 -0.56969908D+00 -0.62487306D+00 -0.51415546D+00
 -0.27107292D+00 -0.70520363D-01  0.78037971D-04 -0.29172819D-16 -0.38304088D-16
 -0.43094682D-16 -0.36310528D-16 -0.20311600D-16 -0.50555160D-17  0.23187032D-17
 -0.82673701D-16 -0.10855107D-15 -0.12212728D-15 -0.10290146D-15 -0.57561636D-16
 -0.14326974D-16  0.65710406D-17 -0.54428029D+00 -0.71464333D+00 -0.80402193D+00
 -0.67744927D+00 -0.37895562D+00 -0.94321283D-01  0.43260285D-01  0.15159881D-16
 -0.61091527D-16  0.86701737D-01  0.13007711D-16  0.39748597D-17 -0.95488970D-03
  0.58847037D-18 -0.11983896D-18 -0.59881494D-04  0.16753389D-02  0.16753389D-02
 -0.33506778D-02 -0.29622505D-17 -0.26595540D-16 -0.40862519D-17  0.26803619D-01
  0.26803619D-01 -0.53607238D-01 -0.18176149D-16  0.21428368D-16  0.90210892D-17
 -0.14395299D-03 -0.14395299D-03  0.28790599D-03 -0.68372262D-18  0.66721678D-19
  0.18535291D-17 -0.84562196D-18 -0.45139711D-17  0.55476577D-02  0.27852352D-17
 -0.34805424D-17 -0.83214866D-02 -0.24836929D-18  0.17022456D-16 -0.83214866D-02
 -0.11750373D-17 -0.14433678D-17  0.11550548D-17 -0.27518710D-03 -0.15459740D-17
 -0.13714160D-17  0.41278065D-03  0.58760773D-17 -0.20937484D-17  0.41278065D-03
  0.55345364D-18
MO    8     MO 0.0        OCC NO =    2.0000000  ORB. ENERGY =   -1.113868
  0.20053132D-02  0.37366058D-02  0.63195372D-02  0.95168729D-02  0.11782506D-01
  0.10026381D-01  0.38152229D-02 -0.17868316D-04 -0.54469523D-01 -0.10213087D+00
 -0.17375499D+00 -0.26982315D+00 -0.35807102D+00 -0.37735770D+00 -0.23398585D+00
  0.15564748D+00  0.83195285D-01  0.49741144D-01 -0.23292806D-02 -0.29194264D-15
 -0.28040742D-15 -0.19664104D-15 -0.17843301D-15 -0.17138277D-15 -0.12018543D-15
 -0.24550541D+00 -0.23580501D+00 -0.16536275D+00 -0.12296797D-15 -0.64669831D-16
 -0.60135026D-01 -0.45851758D-16 -0.42537034D-16 -0.68768703D-02  0.63567192D-17
 -0.34770436D-17 -0.30025878D-03  0.44184429D-02  0.44184429D-02 -0.88368858D-02