 Molden2AIM, Version 4.0.0 (06/02/2016)           Time: Sun Jun 24 19:46:29 2018
GAUSSIAN             15 MOL ORBITALS    256 PRIMITIVES        2 NUCLEI
  P    1    (CENTRE  1)   0.00000000  0.00000000  1.77727230  CHARGE = 15.0
  P    2    (CENTRE  2)   0.00000000  0.00000000 -1.77727230  CHARGE = 15.0
CENTRE ASSIGNMENTS    1  1  1  1  1  1  1  1  1  1  1  1  1  1  1  1  1  1  1  1
CENTRE ASSIGNMENTS    1  1  1  1  1  1  1  1  1  1  1  1  1  1  1  1  1  1  1  1
CENTRE ASSIGNMENTS    1  1  1  1  1  1  1  1  1  1  1  1  1  1  1  1  1  1  1  1
CENTRE ASSIGNMENTS    1  1  1  1  1  1  1  1  1  1  1  1  1  1  1  1  1  1  1  1
CENTRE ASSIGNMENTS    1  1  1  1  1  1  1  1  1  1  1  1  1  1  1  1  1  1  1  1
CENTRE ASSIGNMENTS    1  1  1  1  1  1  1  1  1  1  1  1  1  1  1  1  1  1  1  1
CENTRE ASSIGNMENTS    1  1  1  1  1  1  1  1  2  2  2  2  2  2  2  2  2  2  2  2
CENTRE ASSIGNMENTS    2  2  2  2  2  2  2  2  2  2  2  2  2  2  2  2  2  2  2  2
CENTRE ASSIGNMENTS    2  2  2  2  2  2  2  2  2  2  2  2  2  2  2  2  2  2  2  2
CENTRE ASSIGNMENTS    2  2  2  2  2  2  2  2  2  2  2  2  2  2  2  2  2  2  2  2
CENTRE ASSIGNMENTS    2  2  2  2  2  2  2  2  2  2  2  2  2  2  2  2  2  2  2  2
CENTRE ASSIGNMENTS    2  2  2  2  2  2  2  2  2  2  2  2  2  2  2  2  2  2  2  2
CENTRE ASSIGNMENTS    2  2  2  2  2  2  2  2  2  2  2  2  2  2  2  2
TYPE ASSIGNMENTS      1  1  1  1  1  1  1  1  1  1  1  1  1  1  1  1  1  1  1  1
TYPE ASSIGNMENTS      1  2  2  2  2  2  2  2  2  3  3  3  3  3  3  3  3  4  4  4
TYPE ASSIGNMENTS      4  4  4  4  4  2  2  3  3  4  4  2  3  4  2  3  4  2  3  4
TYPE ASSIGNMENTS      2  3  4  5  6  7  8  9 10  5  6  7  8  9 10  5  6  7  8  9
TYPE ASSIGNMENTS     10  5  6  7  8  9 10  5  6  7  8  9 10 11 12 13 17 14 15 18
TYPE ASSIGNMENTS     19 16 20 11 12 13 17 14 15 18 19 16 20 21 22 23 24 25 26 27
TYPE ASSIGNMENTS     28 29 30 31 32 33 34 35  1  1  1  1  1  1  1  1  1  1  1  1
TYPE ASSIGNMENTS      1  1  1  1  1  1  1  1  1  2  2  2  2  2  2  2  2  3  3  3
TYPE ASSIGNMENTS      3  3  3  3  3  4  4  4  4  4  4  4  4  2  2  3  3  4  4  2
TYPE ASSIGNMENTS      3  4  2  3  4  2  3  4  2  3  4  5  6  7  8  9 10  5  6  7
TYPE ASSIGNMENTS      8  9 10  5  6  7  8  9 10  5  6  7  8  9 10  5  6  7  8  9
TYPE ASSIGNMENTS     10 11 12 13 17 14 15 18 19 16 20 11 12 13 17 14 15 18 19 16
TYPE ASSIGNMENTS     20 21 22 23 24 25 26 27 28 29 30 31 32 33 34 35
EXPONENTS  0.1090562D+07 0.1633164D+06 0.3716661D+05 0.1052688D+05 0.3433998D+04
EXPONENTS  0.1239536D+04 0.4832746D+03 0.2001691D+03 0.8696039D+02 0.3921128D+02
EXPONENTS  0.3367588D+03 0.1037218D+03 0.3977186D+02 0.1788861D+02 0.6964456D+01
EXPONENTS  0.3219809D+01 0.1466994D+01 0.4776544D+00 0.2163779D+00 0.9023589D-01
EXPONENTS  0.4083637D-01 0.2019671D+04 0.4786013D+03 0.1551494D+03 0.5881636D+02
EXPONENTS  0.2454451D+02 0.1088357D+02 0.4962479D+01 0.2300291D+01 0.2019671D+04
EXPONENTS  0.4786013D+03 0.1551494D+03 0.5881636D+02 0.2454451D+02 0.1088357D+02
EXPONENTS  0.4962479D+01 0.2300291D+01 0.2019671D+04 0.4786013D+03 0.1551494D+03
EXPONENTS  0.5881636D+02 0.2454451D+02 0.1088357D+02 0.4962479D+01 0.2300291D+01
EXPONENTS  0.5937135D+02 0.3069459D+01 0.5937135D+02 0.3069459D+01 0.5937135D+02
EXPONENTS  0.3069459D+01 0.1063440D+01 0.1063440D+01 0.1063440D+01 0.4502215D+00
EXPONENTS  0.4502215D+00 0.4502215D+00 0.1826727D+00 0.1826727D+00 0.1826727D+00
EXPONENTS  0.7161033D-01 0.7161033D-01 0.7161033D-01 0.3343000D+01 0.3343000D+01
EXPONENTS  0.3343000D+01 0.3343000D+01 0.3343000D+01 0.3343000D+01 0.8070000D+00
EXPONENTS  0.8070000D+00 0.8070000D+00 0.8070000D+00 0.8070000D+00 0.8070000D+00
EXPONENTS  0.3650000D+00 0.3650000D+00 0.3650000D+00 0.3650000D+00 0.3650000D+00
EXPONENTS  0.3650000D+00 0.1540000D+00 0.1540000D+00 0.1540000D+00 0.1540000D+00
EXPONENTS  0.1540000D+00 0.1540000D+00 0.5968773D-01 0.5968773D-01 0.5968773D-01
EXPONENTS  0.5968773D-01 0.5968773D-01 0.5968773D-01 0.2800000D+00 0.2800000D+00
EXPONENTS  0.2800000D+00 0.2800000D+00 0.2800000D+00 0.2800000D+00 0.2800000D+00
EXPONENTS  0.2800000D+00 0.2800000D+00 0.2800000D+00 0.7030000D+00 0.7030000D+00
EXPONENTS  0.7030000D+00 0.7030000D+00 0.7030000D+00 0.7030000D+00 0.7030000D+00
EXPONENTS  0.7030000D+00 0.7030000D+00 0.7030000D+00 0.5970000D+00 0.5970000D+00
EXPONENTS  0.5970000D+00 0.5970000D+00 0.5970000D+00 0.5970000D+00 0.5970000D+00
EXPONENTS  0.5970000D+00 0.5970000D+00 0.5970000D+00 0.5970000D+00 0.5970000D+00
EXPONENTS  0.5970000D+00 0.5970000D+00 0.5970000D+00 0.1090562D+07 0.1633164D+06
EXPONENTS  0.3716661D+05 0.1052688D+05 0.3433998D+04 0.1239536D+04 0.4832746D+03
EXPONENTS  0.2001691D+03 0.8696039D+02 0.3921128D+02 0.3367588D+03 0.1037218D+03
EXPONENTS  0.3977186D+02 0.1788861D+02 0.6964456D+01 0.3219809D+01 0.1466994D+01
EXPONENTS  0.4776544D+00 0.2163779D+00 0.9023589D-01 0.4083637D-01 0.2019671D+04
EXPONENTS  0.4786013D+03 0.1551494D+03 0.5881636D+02 0.2454451D+02 0.1088357D+02
EXPONENTS  0.4962479D+01 0.2300291D+01 0.2019671D+04 0.4786013D+03 0.1551494D+03
EXPONENTS  0.5881636D+02 0.2454451D+02 0.1088357D+02 0.4962479D+01 0.2300291D+01
EXPONENTS  0.2019671D+04 0.4786013D+03 0.1551494D+03 0.5881636D+02 0.2454451D+02
EXPONENTS  0.1088357D+02 0.4962479D+01 0.2300291D+01 0.5937135D+02 0.3069459D+01
EXPONENTS  0.5937135D+02 0.3069459D+01 0.5937135D+02 0.3069459D+01 0.1063440D+01
EXPONENTS  0.1063440D+01 0.1063440D+01 0.4502215D+00 0.4502215D+00 0.4502215D+00
EXPONENTS  0.1826727D+00 0.1826727D+00 0.1826727D+00 0.7161033D-01 0.7161033D-01
EXPONENTS  0.7161033D-01 0.3343000D+01 0.3343000D+01 0.3343000D+01 0.3343000D+01
EXPONENTS  0.3343000D+01 0.3343000D+01 0.8070000D+00 0.8070000D+00 0.8070000D+00
EXPONENTS  0.8070000D+00 0.8070000D+00 0.8070000D+00 0.3650000D+00 0.3650000D+00
EXPONENTS  0.3650000D+00 0.3650000D+00 0.3650000D+00 0.3650000D+00 0.1540000D+00
EXPONENTS  0.1540000D+00 0.1540000D+00 0.1540000D+00 0.1540000D+00 0.1540000D+00
EXPONENTS  0.5968773D-01 0.5968773D-01 0.5968773D-01 0.5968773D-01 0.5968773D-01
EXPONENTS  0.5968773D-01 0.2800000D+00 0.2800000D+00 0.2800000D+00 0.2800000D+00
EXPONENTS  0.2800000D+00 0.2800000D+00 0.2800000D+00 0.2800000D+00 0.2800000D+00
EXPONENTS  0.2800000D+00 0.7030000D+00 0.7030000D+00 0.7030000D+00 0.7030000D+00
EXPONENTS  0.7030000D+00 0.7030000D+00 0.7030000D+00 0.7030000D+00 0.7030000D+00
EXPONENTS  0.7030000D+00 0.5970000D+00 0.5970000D+00 0.5970000D+00 0.5970000D+00
EXPONENTS  0.5970000D+00 0.5970000D+00 0.5970000D+00 0.5970000D+00 0.5970000D+00
EXPONENTS  0.5970000D+00 0.5970000D+00 0.5970000D+00 0.5970000D+00 0.5970000D+00
EXPONENTS  0.5970000D+00
MO    1     MO 0.0        OCC NO =    2.0000000  ORB. ENERGY =  -79.972396
 -0.20583520D+00 -0.38521068D+00 -0.66721668D+00 -0.10910573D+01 -0.17010248D+01
 -0.25195318D+01 -0.34809175D+01 -0.42713393D+01 -0.42535149D+01 -0.28483187D+01
 -0.19828656D-02 -0.73331656D-02 -0.13282476D-01 -0.91090548D+00 -0.57510511D-01
  0.34908464D-02 -0.11561009D-02  0.22066930D-03 -0.53858439D-04  0.84304159D-05
 -0.17234080D-05  0.12836665D-14  0.18450895D-14  0.24477323D-14  0.28634614D-14
  0.28459850D-14  0.21893299D-14  0.11974176D-14  0.39942242D-15  0.15946227D-15
  0.22920450D-15  0.30406724D-15  0.35571079D-15  0.35353980D-15  0.27196744D-15
  0.14874807D-15  0.49617873D-16  0.39873942D-03  0.57313164D-03  0.76032780D-03
  0.88946380D-03  0.88403520D-03  0.68006145D-03  0.37194831D-03  0.12407074D-03
  0.51253902D-15 -0.20354243D-15 -0.32350772D-15  0.12847324D-15  0.13329942D-02
 -0.52936629D-03  0.13009644D-15 -0.73304401D-18  0.74745750D-04 -0.41263779D-16
  0.26953437D-16 -0.65678159D-04  0.13183248D-16 -0.15155950D-16  0.15219011D-04
 -0.39592258D-17  0.25200406D-17  0.19633688D-06  0.41460152D-04  0.41460152D-04
 -0.82920305D-04  0.10121489D-15  0.13062803D-14  0.38829940D-15 -0.18248003D-04
 -0.18248003D-04  0.36496005D-04 -0.35701522D-17 -0.70014739D-16 -0.53560360D-16
  0.31132185D-05  0.31132185D-05 -0.62264371D-05 -0.41041505D-17  0.12914134D-16
  0.16815468D-16  0.15865179D-05  0.15865179D-05 -0.31730358D-05  0.11067208D-17
 -0.45138214D-18 -0.15311173D-17 -0.28209215D-07 -0.28209215D-07  0.56418429D-07
 -0.10518878D-18  0.89560626D-18 -0.20743976D-18  0.11243130D-18  0.11226339D-17
  0.40973494D-05  0.11235405D-18  0.11233242D-17 -0.61460241D-05 -0.44964795D-18
 -0.44912258D-17 -0.61460241D-05 -0.54565368D-18  0.61455568D-20 -0.60729403D-17
 -0.48784339D-05 -0.16816072D-19 -0.60687826D-17  0.73176509D-05 -0.16205986D-20
  0.24287603D-16  0.73176509D-05  0.42971942D-17 -0.16778202D-05 -0.16778202D-05
 -0.44741872D-05  0.50348540D-18 -0.15194268D-17  0.50782158D-18 -0.38850023D-17
  0.20270148D-17  0.51799520D-17 -0.33556404D-05  0.13422562D-04  0.13422562D-04
 -0.38848492D-17 -0.15227640D-17 -0.30339209D-17 -0.20583520D+00 -0.38521068D+00
 -0.66721668D+00 -0.10910573D+01 -0.17010247D+01 -0.25195318D+01 -0.34809175D+01
 -0.42713393D+01 -0.42535149D+01 -0.28483187D+01 -0.19828656D-02 -0.73331655D-02
 -0.13282476D-01 -0.91090547D+00 -0.57510510D-01  0.34908463D-02 -0.11561008D-02
  0.22066929D-03 -0.53858437D-04  0.84304157D-05 -0.17234080D-05 -0.35930240D-15
 -0.51644649D-15 -0.68512816D-15 -0.80149206D-15 -0.79660037D-15 -0.61280049D-15
 -0.33516105D-15 -0.11179962D-15 -0.20458482D-15 -0.29406180D-15 -0.39010822D-15
 -0.45636519D-15 -0.45357989D-15 -0.34892524D-15 -0.19083887D-15 -0.63658092D-16
 -0.39873941D-03 -0.57313163D-03 -0.76032779D-03 -0.88946379D-03 -0.88403519D-03
 -0.68006144D-03 -0.37194831D-03 -0.12407074D-03 -0.15667003D-15  0.62217700D-16
 -0.68557284D-15  0.27225861D-15 -0.13329942D-02  0.52936628D-03  0.33690681D-16
 -0.61772527D-16 -0.74745749D-04 -0.12035888D-17  0.48353109D-16  0.65678158D-04
 -0.63267533D-17 -0.75692977D-17 -0.15219011D-04  0.39601577D-17  0.28649239D-18
 -0.19633695D-06  0.41460152D-04  0.41460152D-04 -0.82920304D-04  0.14447779D-15
  0.21635149D-15  0.23634293D-15 -0.18248003D-04 -0.18248003D-04  0.36496005D-04
 -0.23827855D-16 -0.18844446D-16 -0.25734117D-16  0.31132185D-05  0.31132185D-05
 -0.62264370D-05  0.67854025D-17  0.63288609D-17  0.15327183D-17  0.15865179D-05
  0.15865179D-05 -0.31730357D-05 -0.12316025D-17  0.12780177D-18  0.22213899D-17
 -0.28209212D-07 -0.28209212D-07  0.56418424D-07  0.11333141D-18  0.47036768D-18
 -0.41137107D-18  0.31470376D-19 -0.37307280D-18 -0.40973494D-05  0.30414535D-19
 -0.37335533D-18  0.61460240D-05 -0.12482566D-18  0.14925737D-17  0.61460240D-05
  0.56957671D-18 -0.41325112D-17 -0.19243655D-17  0.48784338D-05 -0.41258577D-17
 -0.19317107D-17 -0.73176506D-05  0.16523391D-16  0.77048073D-17 -0.73176506D-05
 -0.41586259D-17 -0.16778202D-05 -0.16778202D-05 -0.44741873D-05  0.51082652D-18
 -0.45408135D-17  0.50869114D-18  0.28435025D-17  0.60538780D-17 -0.37901389D-17
 -0.33556404D-05  0.13422562D-04  0.13422562D-04  0.28399093D-17 -0.45391934D-17
 -0.30585530D-17
MO    2     MO 0.0        OCC NO =    2.0000000  ORB. ENERGY =  -79.972390
 -0.20583489D+00 -0.38521010D+00 -0.66721567D+00 -0.10910557D+01 -0.17010222D+01
 -0.25195280D+01 -0.34809122D+01 -0.42713329D+01 -0.42535085D+01 -0.28483144D+01
 -0.19873044D-02 -0.73495815D-02 -0.13312210D-01 -0.91085242D+00 -0.57588229D-01
  0.35760262D-02 -0.12080400D-02  0.27959153D-03 -0.15665306D-03 -0.21558104D-04
 -0.42374952D-06 -0.12917122D-14 -0.18566539D-14 -0.24630740D-14 -0.28814087D-14
 -0.28638228D-14 -0.22030519D-14 -0.12049227D-14 -0.40192587D-15 -0.29852106D-15
 -0.42908189D-15 -0.56922856D-15 -0.66590777D-15 -0.66184358D-15 -0.50913619D-15
 -0.27846358D-15 -0.92887054D-16  0.39876531D-03  0.57316885D-03  0.76037716D-03
  0.88952154D-03  0.88409259D-03  0.68010560D-03  0.37197246D-03  0.12407880D-03
 -0.54052723D-15  0.21465727D-15  0.30707555D-15 -0.12194760D-15  0.14426378D-02
 -0.57290859D-03 -0.13127055D-15 -0.12258964D-17  0.99484544D-04  0.41407056D-16
 -0.26362031D-16 -0.56585093D-04 -0.13137775D-16  0.14930410D-16  0.81042520D-04
  0.39234041D-17 -0.24816999D-17  0.17447363D-05  0.43785049D-04  0.43785049D-04
 -0.87570097D-04 -0.11306785D-15 -0.13033478D-14 -0.39313830D-15 -0.12806197D-04
 -0.12806197D-04  0.25612394D-04  0.41408961D-17  0.70149109D-16  0.53548026D-16
  0.71172439D-05  0.71172439D-05 -0.14234488D-04  0.39937692D-17 -0.12873129D-16
 -0.16692161D-16  0.48392820D-05  0.48392820D-05 -0.96785640D-05 -0.10960648D-17
  0.42416946D-18  0.15668216D-17 -0.12314061D-06 -0.12314061D-06  0.24628121D-06
  0.10443737D-18 -0.88991071D-18  0.20273964D-18 -0.11694810D-18 -0.11091270D-17
  0.33369000D-05 -0.11742912D-18 -0.11089487D-17 -0.50053499D-05  0.46827342D-18
  0.44363298D-17 -0.50053499D-05  0.54869125D-18  0.58559486D-21  0.60850467D-17
 -0.10316129D-04 -0.20423881D-19  0.60914897D-17  0.15474193D-04  0.18667096D-19
 -0.24346630D-16  0.15474193D-04 -0.42875358D-17  0.88452609D-06  0.88452609D-06
  0.23587362D-05 -0.50301583D-18  0.15461529D-17 -0.49972930D-18  0.37025034D-17
 -0.20604928D-17 -0.49363741D-17  0.17690522D-05 -0.70762087D-05 -0.70762087D-05
  0.37016122D-17  0.15430198D-17  0.30082354D-17  0.20583489D+00  0.38521010D+00
  0.66721568D+00  0.10910557D+01  0.17010222D+01  0.25195280D+01  0.34809123D+01
  0.42713329D+01  0.42535085D+01  0.28483144D+01  0.19873044D-02  0.73495816D-02
  0.13312210D-01  0.91085243D+00  0.57588229D-01 -0.35760262D-02  0.12080400D-02
 -0.27959153D-03  0.15665306D-03  0.21558104D-04  0.42374954D-06  0.35831593D-15
  0.51502858D-15  0.68324713D-15  0.79929155D-15  0.79441329D-15  0.61111804D-15
  0.33424086D-15  0.11149267D-15  0.20448663D-15  0.29392067D-15  0.38992099D-15
  0.45614616D-15  0.45336220D-15  0.34875778D-15  0.19074727D-15  0.63627539D-16
  0.39876531D-03  0.57316885D-03  0.76037717D-03  0.88952155D-03  0.88409260D-03
  0.68010561D-03  0.37197246D-03  0.12407880D-03  0.15458673D-15 -0.61390366D-16
  0.68534740D-15 -0.27216908D-15  0.14426378D-02 -0.57290860D-03 -0.33979703D-16
  0.61235273D-16  0.99484545D-04  0.15616565D-17 -0.48194476D-16 -0.56585094D-04
  0.61716397D-17  0.76533078D-17  0.81042520D-04 -0.39130403D-17 -0.30652177D-18
  0.17447363D-05 -0.43785049D-04 -0.43785049D-04  0.87570098D-04 -0.14231119D-15
 -0.21754648D-15 -0.23652578D-15  0.12806197D-04  0.12806197D-04 -0.25612395D-04
  0.23712109D-16  0.19069771D-16  0.25638302D-16 -0.71172440D-05 -0.71172440D-05
  0.14234488D-04 -0.67713244D-17 -0.63495977D-17 -0.13639994D-17 -0.48392820D-05
 -0.48392820D-05  0.96785641D-05  0.12322093D-17 -0.14109048D-18 -0.21936450D-17
  0.12314061D-06  0.12314061D-06 -0.24628121D-06 -0.11340381D-18 -0.46332216D-18
  0.40906805D-18 -0.37732396D-19  0.36748862D-18  0.33369000D-05 -0.36322295D-19
  0.36708327D-18 -0.50053500D-05  0.14951948D-18 -0.14695491D-17 -0.50053500D-05
 -0.56801287D-18  0.41430393D-17  0.18489929D-17 -0.10316129D-04  0.41371532D-17
  0.18560280D-17  0.15474193D-04 -0.16566271D-16 -0.74030067D-17  0.15474193D-04
  0.41814900D-17 -0.88452606D-06 -0.88452606D-06 -0.23587362D-05 -0.51602655D-18
  0.45433165D-17 -0.51329833D-18 -0.29167474D-17 -0.60573795D-17  0.38880904D-17
 -0.17690521D-05  0.70762085D-05  0.70762085D-05 -0.29140289D-17  0.45421890D-17
  0.30879746D-17
MO    3     MO 0.0        OCC NO =    2.0000000  ORB. ENERGY =   -7.515319
 -0.56566273D-01 -0.10586106D+00 -0.18336009D+00 -0.29983718D+00 -0.46746441D+00
 -0.69240113D+00 -0.95660281D+00 -0.11738213D+01 -0.11689229D+01 -0.78275618D+00
 -0.90014118D-01 -0.33289620D+00 -0.60297095D+00 -0.56487793D+00  0.45378848D+00
  0.68468441D+00  0.24322165D+00  0.80483299D-02 -0.94966999D-03  0.22018924D-03
 -0.30432725D-04  0.12375926D-15  0.17788647D-15  0.23598773D-15  0.27606848D-15
  0.27438357D-15  0.21107495D-15  0.11544394D-15  0.38508617D-16  0.14881488D-14
  0.21390039D-14  0.28376450D-14  0.33195978D-14  0.32993376D-14  0.25380803D-14
  0.13881608D-14  0.46304860D-15  0.12592405D-03  0.18099805D-03  0.24011561D-03
  0.28089745D-03  0.27918307D-03  0.21476706D-03  0.11746328D-03  0.39182207D-04
  0.18474917D-14 -0.73368649D-15 -0.36854516D-14  0.14635876D-14  0.26408093D-02
 -0.10487333D-02  0.16308644D-15 -0.12658931D-15  0.87400311D-04  0.10125510D-15
 -0.86804169D-16 -0.22232414D-03 -0.27148379D-17  0.19917282D-16 -0.39685879D-04
 -0.92514595D-17 -0.30597189D-17  0.46944684D-05  0.27091708D-02  0.27091708D-02
 -0.54183416D-02  0.12101386D-15 -0.31092577D-15  0.35749207D-15  0.13058540D-03
  0.13058540D-03 -0.26117080D-03  0.48959705D-16 -0.56712853D-17  0.30370607D-17
 -0.67440965D-04 -0.67440965D-04  0.13488193D-03 -0.16865223D-16  0.18470411D-16
 -0.11669097D-16  0.25784672D-05  0.25784672D-05 -0.51569344D-05  0.20971995D-17
 -0.65003837D-17 -0.12401769D-16  0.39790088D-08  0.39790088D-08 -0.79580175D-08
 -0.17381572D-18  0.18591165D-17  0.13590301D-17  0.55240646D-18 -0.26129786D-17
  0.65173202D-06  0.56518156D-18 -0.26714424D-17 -0.97759803D-06 -0.22224009D-17
  0.10510378D-16 -0.97759803D-06  0.78817537D-18  0.10306478D-17  0.97220190D-17
 -0.10604580D-03  0.18067073D-17  0.94507898D-17  0.15906871D-03 -0.48986507D-17
 -0.38616847D-16  0.15906871D-03 -0.59390996D-17  0.10447234D-04  0.10447234D-04
  0.27859291D-04 -0.30912872D-18  0.77182912D-17 -0.53825434D-18  0.18871617D-16
 -0.10396450D-16 -0.25179924D-16  0.20894469D-04 -0.83577874D-04 -0.83577874D-04
  0.18924920D-16  0.80344770D-17  0.25421492D-17 -0.56566273D-01 -0.10586106D+00
 -0.18336009D+00 -0.29983718D+00 -0.46746441D+00 -0.69240113D+00 -0.95660281D+00
 -0.11738213D+01 -0.11689229D+01 -0.78275618D+00 -0.90014118D-01 -0.33289620D+00
 -0.60297095D+00 -0.56487793D+00  0.45378848D+00  0.68468441D+00  0.24322165D+00
  0.80483299D-02 -0.94966999D-03  0.22018924D-03 -0.30432725D-04  0.11624696D-14
  0.16708861D-14  0.22166306D-14  0.25931087D-14  0.25772824D-14  0.19826251D-14
  0.10843639D-14  0.36171110D-15 -0.97908533D-17 -0.14072970D-16 -0.18669481D-16
 -0.21840353D-16 -0.21707056D-16 -0.16698580D-16 -0.91330107D-17 -0.30464970D-17
 -0.12592405D-03 -0.18099805D-03 -0.24011561D-03 -0.28089745D-03 -0.27918307D-03
 -0.21476706D-03 -0.11746328D-03 -0.39182207D-04 -0.12000944D-15  0.47658836D-16
 -0.83814299D-15  0.33284814D-15 -0.26408093D-02  0.10487333D-02 -0.47493402D-16
 -0.40932803D-17 -0.87400310D-04  0.11368622D-15  0.24528665D-16  0.22232414D-03
 -0.38986997D-16 -0.35376526D-16  0.39685877D-04  0.13703013D-16  0.62084354D-17
 -0.46944688D-05  0.27091708D-02  0.27091708D-02 -0.54183416D-02  0.16167409D-15
 -0.10175876D-15  0.87482050D-16  0.13058540D-03  0.13058540D-03 -0.26117080D-03
 -0.72883167D-16  0.34937442D-16 -0.24925254D-16 -0.67440965D-04 -0.67440965D-04
  0.13488193D-03  0.20820777D-16 -0.10432039D-16  0.54888330D-17  0.25784673D-05
  0.25784673D-05 -0.51569346D-05 -0.28422218D-17  0.42791617D-17 -0.21034946D-16
  0.39790130D-08  0.39790130D-08 -0.79580260D-08  0.21822958D-18  0.65362571D-18
  0.13059514D-17 -0.12560079D-17  0.10177709D-17 -0.65173209D-06 -0.12106035D-17
  0.10447714D-17  0.97759813D-06  0.49786272D-17 -0.40980841D-17  0.97759813D-06
  0.23357707D-18  0.59474718D-17  0.82459920D-17  0.10604580D-03  0.55013868D-17
  0.86381687D-17 -0.15906871D-03 -0.23343802D-16 -0.33376145D-16 -0.15906871D-03
 -0.81393373D-18  0.10447234D-04  0.10447234D-04  0.27859291D-04 -0.26910199D-18
 -0.40082438D-17 -0.16660831D-18 -0.55020718D-17  0.54133513D-17  0.72447982D-17
  0.20894469D-04 -0.83577874D-04 -0.83577874D-04 -0.52281793D-17 -0.42153226D-17
  0.13071309D-17
MO    4     MO 0.0        OCC NO =    2.0000000  ORB. ENERGY =   -7.514568
 -0.56586648D-01 -0.10589919D+00 -0.18342614D+00 -0.29994518D+00 -0.46763279D+00
 -0.69265052D+00 -0.95694737D+00 -0.11742441D+01 -0.11693440D+01 -0.78303812D+00
 -0.90057994D-01 -0.33305847D+00 -0.60326486D+00 -0.56497096D+00  0.45372672D+00
  0.68536841D+00  0.24309235D+00  0.82028165D-02 -0.11824257D-02  0.71203654D-03
  0.56993299D-04  0.99283661D-15  0.14270625D-14  0.18931694D-14  0.22147101D-14
  0.22011932D-14  0.16933112D-14  0.92612840D-15  0.30892851D-15 -0.18254715D-15
 -0.26238576D-15 -0.34808616D-15 -0.40720599D-15 -0.40472072D-15 -0.31133937D-15
 -0.17028190D-15 -0.56800907D-16  0.37323728D-03  0.53647591D-03  0.71169959D-03
  0.83257645D-03  0.82749504D-03  0.63656683D-03  0.34815965D-03  0.11613556D-03
 -0.73648366D-15  0.29247661D-15  0.28545660D-14 -0.11336216D-14  0.29280438D-02
 -0.11628015D-02 -0.10559444D-15  0.55654299D-16  0.32502505D-03 -0.11648911D-15
  0.11618631D-15 -0.23193835D-03  0.24097729D-17 -0.72622491D-17 -0.83583434D-04
  0.11012992D-16  0.48286768D-17 -0.11962986D-03  0.28261199D-02  0.28261199D-02
 -0.56522398D-02  0.13155187D-15 -0.12480349D-15 -0.11030631D-15  0.13893054D-03
  0.13893054D-03 -0.27786108D-03 -0.32958577D-16  0.28742077D-16  0.36221037D-16
 -0.94858988D-04 -0.94858988D-04  0.18971798D-03  0.11381400D-16 -0.46414292D-16
 -0.20793901D-16 -0.41296891D-05 -0.41296891D-05  0.82593782D-05 -0.15210746D-17
  0.76334186D-17  0.76546874D-17 -0.26210226D-05 -0.26210226D-05  0.52420453D-05
  0.13126134D-18 -0.17928861D-17 -0.10363602D-17 -0.11317271D-17 -0.45511281D-20
 -0.10817594D-04 -0.10712288D-17 -0.64264455D-19  0.16226392D-04  0.44664101D-17
  0.77917839D-19  0.16226392D-04 -0.34139943D-18 -0.42680121D-17 -0.14099076D-16
 -0.12524067D-03 -0.35736819D-17 -0.14476927D-16  0.18786101D-03  0.16377718D-16
  0.56774154D-16  0.18786101D-03  0.24909593D-18  0.84660506D-05  0.84660506D-05
  0.22576135D-04 -0.87607533D-19 -0.29331057D-17 -0.26394117D-18  0.22177684D-17
  0.38376505D-17 -0.29858615D-17  0.16932101D-04 -0.67728405D-04 -0.67728405D-04
  0.23042790D-17 -0.27136345D-17  0.10546461D-17  0.56586648D-01  0.10589919D+00
  0.18342614D+00  0.29994518D+00  0.46763279D+00  0.69265052D+00  0.95694737D+00
  0.11742441D+01  0.11693440D+01  0.78303812D+00  0.90057994D-01  0.33305847D+00
  0.60326486D+00  0.56497096D+00 -0.45372672D+00 -0.68536841D+00 -0.24309235D+00
 -0.82028165D-02  0.11824257D-02 -0.71203654D-03 -0.56993299D-04 -0.77062620D-15
 -0.11076664D-14 -0.14694522D-14 -0.17190277D-14 -0.17085361D-14 -0.13143250D-14
 -0.71884820D-15 -0.23978609D-15 -0.54933839D-15 -0.78959640D-15 -0.10474943D-14
 -0.12254033D-14 -0.12179244D-14 -0.93691229D-15 -0.51242861D-15 -0.17093073D-15
  0.37323728D-03  0.53647591D-03  0.71169959D-03  0.83257645D-03  0.82749504D-03
  0.63656683D-03  0.34815965D-03  0.11613556D-03  0.12161173D-15 -0.48295146D-16
  0.10249099D-14 -0.40701810D-15  0.29280438D-02 -0.11628015D-02  0.77723742D-16
 -0.34346047D-16  0.32502505D-03 -0.11683897D-15 -0.40717056D-17 -0.23193835D-03
  0.35403590D-16  0.16050424D-16 -0.83583434D-04 -0.13270191D-16 -0.55226732D-17
 -0.11962986D-03 -0.28261199D-02 -0.28261199D-02  0.56522398D-02  0.24757535D-16
  0.23055580D-15 -0.76457845D-16 -0.13893054D-03 -0.13893054D-03  0.27786108D-03
  0.26513222D-16 -0.19479613D-16  0.37804885D-16  0.94858988D-04  0.94858988D-04
 -0.18971798D-03 -0.86289688D-17 -0.31132231D-17 -0.36286212D-16  0.41296891D-05
  0.41296891D-05 -0.82593782D-05  0.91492889D-18 -0.68101363D-17  0.16792154D-16
  0.26210226D-05  0.26210226D-05 -0.52420453D-05 -0.43204477D-19 -0.80842114D-18
 -0.19702584D-17  0.27029397D-17  0.13434069D-17 -0.10817594D-04  0.26154960D-17
  0.13466138D-17  0.16226391D-04 -0.10724315D-16 -0.53768346D-17  0.16226391D-04
 -0.41590546D-18 -0.35714595D-17 -0.42371257D-18 -0.12524067D-03 -0.31546537D-17
 -0.80352294D-18  0.18786101D-03  0.13869032D-16  0.20746606D-17  0.18786101D-03
  0.21308984D-17 -0.84660506D-05 -0.84660506D-05 -0.22576135D-04  0.13616888D-18
  0.12004777D-16 -0.77449305D-20  0.19182896D-16 -0.16040809D-16 -0.25511766D-16
 -0.16932101D-04  0.67728405D-04  0.67728405D-04  0.18986610D-16  0.12108097D-16
 -0.38527185D-18
MO    5     MO 0.0        OCC NO =    2.0000000  ORB. ENERGY =   -5.407723
  0.87141097D-04  0.16308037D-03  0.28246866D-03  0.46190317D-03  0.72013516D-03
  0.10666532D-02  0.14736594D-02  0.18082874D-02  0.18007414D-02  0.12058463D-02
  0.16043135D-03  0.59331789D-03  0.10746697D-02  0.87805612D-03 -0.95855395D-03
 -0.13656181D-02 -0.64216498D-03  0.26314962D-03  0.81170247D-05  0.44607435D-04
  0.49543266D-06  0.89048778D-11  0.12799505D-10  0.16980077D-10  0.19864017D-10
  0.19742782D-10  0.15187523D-10  0.83065635D-11  0.27708191D-11 -0.20544945D-11
 -0.29530459D-11 -0.39175693D-11 -0.45829392D-11 -0.45549685D-11 -0.35039990D-11
 -0.19164541D-11 -0.63927129D-12 -0.29188518D+01 -0.41954375D+01 -0.55657506D+01
 -0.65110518D+01 -0.64713133D+01 -0.49781850D+01 -0.27227356D+01 -0.90822249D+00
  0.18631645D-13 -0.73991054D-14 -0.50914804D-14  0.20219579D-14 -0.13225941D-01
  0.52523613D-02  0.36254233D-12 -0.83512026D-13 -0.11634358D+00  0.72263400D-14
 -0.17263975D-14 -0.28883730D-02  0.44835288D-15 -0.87843719D-16 -0.12841559D-03
 -0.30193629D-16 -0.23388871D-16 -0.14256662D-04 -0.44131755D-03 -0.44131755D-03
  0.88263510D-03 -0.11865862D-17 -0.38507463D-14  0.68740106D-15 -0.43122938D-04
 -0.43122938D-04  0.86245876D-04 -0.24101432D-16  0.15884495D-14 -0.39168404D-15
 -0.62324265D-04 -0.62324265D-04  0.12464853D-03  0.24868923D-18 -0.54353630D-16
  0.46590167D-16 -0.10623682D-04 -0.10623682D-04  0.21247364D-04  0.92805116D-18
 -0.94687955D-16  0.18066445D-16 -0.37364568D-06 -0.37364568D-06  0.74729136D-06
 -0.82008208D-19  0.68166952D-17  0.47062455D-17 -0.40464204D-16  0.99786974D-17
 -0.36627305D-04 -0.40497889D-16  0.99535312D-17  0.54940957D-04  0.16189050D-15
 -0.39889623D-16  0.54940957D-04  0.95296030D-19  0.25660049D-15 -0.54050353D-16
 -0.76130450D-04  0.25653269D-15 -0.54005301D-16  0.11419568D-03 -0.10263342D-14
  0.21615636D-15  0.11419568D-03  0.15434645D-17  0.28790079D-04  0.28790079D-04
  0.76773544D-04  0.32911224D-20  0.34550606D-16  0.53071247D-20 -0.92598988D-17
 -0.46047102D-16  0.12360763D-16  0.57580158D-04 -0.23032063D-03 -0.23032063D-03
 -0.93025927D-17  0.34489488D-16 -0.25794741D-19  0.87141097D-04  0.16308037D-03
  0.28246866D-03  0.46190317D-03  0.72013516D-03  0.10666532D-02  0.14736594D-02
  0.18082874D-02  0.18007414D-02  0.12058463D-02  0.16043135D-03  0.59331789D-03
  0.10746697D-02  0.87805611D-03 -0.95855395D-03 -0.13656181D-02 -0.64216497D-03
  0.26314958D-03  0.81170669D-05  0.44607494D-04  0.49543634D-06 -0.70813103D-11
 -0.10178384D-10 -0.13502846D-10 -0.15796204D-10 -0.15699796D-10 -0.12077377D-10
 -0.66055205D-11 -0.22034025D-11  0.16345166D-11  0.23493868D-11  0.31167432D-11
  0.36460988D-11  0.36238458D-11  0.27877146D-11  0.15246942D-11  0.50859201D-12
  0.29188518D+01  0.41954375D+01  0.55657506D+01  0.65110518D+01  0.64713133D+01
  0.49781850D+01  0.27227356D+01  0.90822249D+00 -0.13021194D-13  0.51710509D-14
  0.35688544D-14 -0.14172839D-14  0.13225941D-01 -0.52523613D-02 -0.28850891D-12
  0.66577133D-13  0.11634358D+00 -0.56818396D-14  0.13215157D-14  0.28883730D-02
 -0.37940043D-15  0.44275184D-16  0.12841564D-03  0.25755346D-16  0.30781763D-16
  0.14256672D-04 -0.44131755D-03 -0.44131755D-03  0.88263511D-03 -0.58044171D-16
 -0.27482902D-14  0.53033397D-15 -0.43122933D-04 -0.43122933D-04  0.86245865D-04
  0.10344235D-16  0.11835841D-14 -0.29116491D-15 -0.62324273D-04 -0.62324273D-04
  0.12464855D-03 -0.17937266D-17  0.27298508D-16 -0.15116988D-16 -0.10623686D-04
 -0.10623686D-04  0.21247371D-04 -0.79552052D-19 -0.10463710D-15  0.28792338D-16
 -0.37364576D-06 -0.37364576D-06  0.74729152D-06  0.31819278D-19  0.56892792D-17
  0.25419480D-17  0.33943568D-16 -0.91514969D-17  0.36627308D-04  0.33926907D-16
 -0.91441760D-17 -0.54940962D-04 -0.13575761D-15  0.36598667D-16 -0.54940962D-04
 -0.36424003D-18 -0.23344927D-15  0.57501623D-16  0.76130452D-04 -0.23349238D-15
  0.57530552D-16 -0.11419568D-03  0.93384018D-15 -0.23003542D-15 -0.11419568D-03
  0.29242700D-17  0.28790080D-04  0.28790080D-04  0.76773546D-04 -0.70644585D-19
 -0.35615105D-16 -0.86007948D-19 -0.18906495D-17  0.47498304D-16  0.25106046D-17
  0.57580159D-04 -0.23032064D-03 -0.23032064D-03 -0.18598653D-17 -0.35649596D-16
  0.46995760D-18
MO    6     MO 0.0        OCC NO =    2.0000000  ORB. ENERGY =   -5.406459
 -0.15866412D-16 -0.29693228D-16 -0.51431121D-16 -0.84102064D-16 -0.13112024D-15
 -0.19421329D-15 -0.26831986D-15 -0.32924801D-15 -0.32787405D-15 -0.21955719D-15
 -0.39046148D-16 -0.14440306D-15 -0.26155556D-15 -0.12988620D-16 -0.14368426D-15
  0.65066375D-15 -0.12744548D-15  0.25982746D-15 -0.15701863D-15 -0.10116604D-14
 -0.90202234D-16  0.29130664D+01  0.41871218D+01  0.55547189D+01  0.64981463D+01
  0.64584867D+01  0.49683178D+01  0.27173389D+01  0.90642232D+00 -0.12162384D+00
 -0.17481711D+00 -0.23191584D+00 -0.27130502D+00 -0.26964918D+00 -0.20743293D+00
 -0.11345200D+00 -0.37844165D-01  0.84124080D-12  0.12091649D-11  0.16041022D-11
  0.18765470D-11  0.18650940D-11  0.14347602D-11  0.78471825D-12  0.26175835D-12
  0.52211884D-02 -0.20734682D-02 -0.21799057D-03  0.86569661D-04  0.43790019D-14
 -0.17390143D-14  0.11856532D+00 -0.49502374D-02  0.33537003D-13  0.24791213D-02
 -0.10350614D-03  0.58248506D-15  0.72297256D-04 -0.30184929D-05  0.55734851D-15
 -0.18411502D-05  0.76870122D-07  0.17913018D-15 -0.15247075D-14  0.15693902D-14
 -0.44682701D-16 -0.34259422D-15 -0.12350867D-02  0.51566277D-04  0.66007508D-16
 -0.12438775D-15  0.58380238D-16 -0.14308826D-15  0.45246486D-03 -0.18890924D-04
  0.50538719D-17  0.50266893D-16 -0.55320765D-16  0.91654015D-16 -0.68190448D-04
  0.28470290D-05  0.52131596D-16  0.49249940D-16 -0.10138154D-15 -0.63028047D-17
  0.30728118D-05 -0.12829340D-06 -0.12867005D-17 -0.64548972D-18  0.19321902D-17
 -0.54495546D-17 -0.69337398D-06  0.28949154D-07 -0.10716505D-04  0.44742629D-06
  0.19299754D-16 -0.10716505D-04  0.44742629D-06 -0.32459311D-16  0.42866019D-04
 -0.17897052D-05 -0.25439952D-16  0.20464519D-18  0.32978186D-04 -0.13768769D-05
  0.48807940D-17  0.32978186D-04 -0.13768769D-05 -0.21420997D-16 -0.13191274D-03
  0.55075074D-05  0.67786148D-17 -0.68591326D-16 -0.18866109D-16 -0.13130940D-16
 -0.38755322D-16 -0.20218891D-16  0.99102741D-04  0.11023911D-16 -0.41376524D-05
 -0.13213699D-03  0.55168699D-05 -0.20274817D-16  0.13347147D-15  0.99060460D-16
 -0.41376524D-05  0.99102741D-04  0.27584939D-16 -0.15180675D-16 -0.28409903D-16
 -0.49208295D-16 -0.80467218D-16 -0.12545329D-15 -0.18581949D-15 -0.25672322D-15
 -0.31501809D-15 -0.31370352D-15 -0.21006805D-15 -0.15846997D-16 -0.58606420D-16