 Molden2AIM, Version 4.0.0 (06/02/2016)           Time: Sun Jun 24 19:48:05 2018
GAUSSIAN             16 MOL ORBITALS    262 PRIMITIVES        2 NUCLEI
  S    1    (CENTRE  1)   0.00000000  0.00000000  1.78333643  CHARGE = 16.0
  S    2    (CENTRE  2)   0.00000000  0.00000000 -1.78333643  CHARGE = 16.0
CENTRE ASSIGNMENTS    1  1  1  1  1  1  1  1  1  1  1  1  1  1  1  1  1  1  1  1
CENTRE ASSIGNMENTS    1  1  1  1  1  1  1  1  1  1  1  1  1  1  1  1  1  1  1  1
CENTRE ASSIGNMENTS    1  1  1  1  1  1  1  1  1  1  1  1  1  1  1  1  1  1  1  1
CENTRE ASSIGNMENTS    1  1  1  1  1  1  1  1  1  1  1  1  1  1  1  1  1  1  1  1
CENTRE ASSIGNMENTS    1  1  1  1  1  1  1  1  1  1  1  1  1  1  1  1  1  1  1  1
CENTRE ASSIGNMENTS    1  1  1  1  1  1  1  1  1  1  1  1  1  1  1  1  1  1  1  1
CENTRE ASSIGNMENTS    1  1  1  1  1  1  1  1  1  1  1  2  2  2  2  2  2  2  2  2
CENTRE ASSIGNMENTS    2  2  2  2  2  2  2  2  2  2  2  2  2  2  2  2  2  2  2  2
CENTRE ASSIGNMENTS    2  2  2  2  2  2  2  2  2  2  2  2  2  2  2  2  2  2  2  2
CENTRE ASSIGNMENTS    2  2  2  2  2  2  2  2  2  2  2  2  2  2  2  2  2  2  2  2
CENTRE ASSIGNMENTS    2  2  2  2  2  2  2  2  2  2  2  2  2  2  2  2  2  2  2  2
CENTRE ASSIGNMENTS    2  2  2  2  2  2  2  2  2  2  2  2  2  2  2  2  2  2  2  2
CENTRE ASSIGNMENTS    2  2  2  2  2  2  2  2  2  2  2  2  2  2  2  2  2  2  2  2
CENTRE ASSIGNMENTS    2  2
TYPE ASSIGNMENTS      1  1  1  1  1  1  1  1  1  1  1  1  1  1  1  1  1  1  1  1
TYPE ASSIGNMENTS      1  2  2  2  2  2  2  2  2  3  3  3  3  3  3  3  3  4  4  4
TYPE ASSIGNMENTS      4  4  4  4  4  2  2  3  3  4  4  2  3  4  2  3  4  2  3  4
TYPE ASSIGNMENTS      2  3  4  2  3  4  5  6  7  8  9 10  5  6  7  8  9 10  5  6
TYPE ASSIGNMENTS      7  8  9 10  5  6  7  8  9 10  5  6  7  8  9 10 11 12 13 17
TYPE ASSIGNMENTS     14 15 18 19 16 20 11 12 13 17 14 15 18 19 16 20 21 22 23 24
TYPE ASSIGNMENTS     25 26 27 28 29 30 31 32 33 34 35  1  1  1  1  1  1  1  1  1
TYPE ASSIGNMENTS      1  1  1  1  1  1  1  1  1  1  1  1  2  2  2  2  2  2  2  2
TYPE ASSIGNMENTS      3  3  3  3  3  3  3  3  4  4  4  4  4  4  4  4  2  2  3  3
TYPE ASSIGNMENTS      4  4  2  3  4  2  3  4  2  3  4  2  3  4  2  3  4  5  6  7
TYPE ASSIGNMENTS      8  9 10  5  6  7  8  9 10  5  6  7  8  9 10  5  6  7  8  9
TYPE ASSIGNMENTS     10  5  6  7  8  9 10 11 12 13 17 14 15 18 19 16 20 11 12 13
TYPE ASSIGNMENTS     17 14 15 18 19 16 20 21 22 23 24 25 26 27 28 29 30 31 32 33
TYPE ASSIGNMENTS     34 35
EXPONENTS  0.1273411D+07 0.1906978D+06 0.4339789D+05 0.1229181D+05 0.4009742D+04
EXPONENTS  0.1447353D+04 0.5643010D+03 0.2337451D+03 0.1015640D+03 0.4580591D+02
EXPONENTS  0.3942728D+03 0.1217225D+03 0.4675413D+02 0.2092301D+02 0.8268557D+01
EXPONENTS  0.3862935D+01 0.1779468D+01 0.6106426D+00 0.2741227D+00 0.1132594D+00
EXPONENTS  0.4439262D-01 0.2189893D+04 0.5189460D+03 0.1681956D+03 0.6374528D+02
EXPONENTS  0.2659703D+02 0.1177425D+02 0.5353438D+01 0.2470191D+01 0.2189893D+04
EXPONENTS  0.5189460D+03 0.1681956D+03 0.6374528D+02 0.2659703D+02 0.1177425D+02
EXPONENTS  0.5353438D+01 0.2470191D+01 0.2189893D+04 0.5189460D+03 0.1681956D+03
EXPONENTS  0.6374528D+02 0.2659703D+02 0.1177425D+02 0.5353438D+01 0.2470191D+01
EXPONENTS  0.8212029D+02 0.4952353D+01 0.8212029D+02 0.4952353D+01 0.8212029D+02
EXPONENTS  0.4952353D+01 0.1082826D+01 0.1082826D+01 0.1082826D+01 0.4927128D+00
EXPONENTS  0.4927128D+00 0.4927128D+00 0.2048345D+00 0.2048345D+00 0.2048345D+00
EXPONENTS  0.8074362D-01 0.8074362D-01 0.8074362D-01 0.2566116D-01 0.2566116D-01
EXPONENTS  0.2566116D-01 0.4159000D+01 0.4159000D+01 0.4159000D+01 0.4159000D+01
EXPONENTS  0.4159000D+01 0.4159000D+01 0.1019000D+01 0.1019000D+01 0.1019000D+01
EXPONENTS  0.1019000D+01 0.1019000D+01 0.1019000D+01 0.4640000D+00 0.4640000D+00
EXPONENTS  0.4640000D+00 0.4640000D+00 0.4640000D+00 0.4640000D+00 0.1940000D+00
EXPONENTS  0.1940000D+00 0.1940000D+00 0.1940000D+00 0.1940000D+00 0.1940000D+00
EXPONENTS  0.6788983D-01 0.6788983D-01 0.6788983D-01 0.6788983D-01 0.6788983D-01
EXPONENTS  0.6788983D-01 0.3350000D+00 0.3350000D+00 0.3350000D+00 0.3350000D+00
EXPONENTS  0.3350000D+00 0.3350000D+00 0.3350000D+00 0.3350000D+00 0.3350000D+00
EXPONENTS  0.3350000D+00 0.8690000D+00 0.8690000D+00 0.8690000D+00 0.8690000D+00
EXPONENTS  0.8690000D+00 0.8690000D+00 0.8690000D+00 0.8690000D+00 0.8690000D+00
EXPONENTS  0.8690000D+00 0.6830000D+00 0.6830000D+00 0.6830000D+00 0.6830000D+00
EXPONENTS  0.6830000D+00 0.6830000D+00 0.6830000D+00 0.6830000D+00 0.6830000D+00
EXPONENTS  0.6830000D+00 0.6830000D+00 0.6830000D+00 0.6830000D+00 0.6830000D+00
EXPONENTS  0.6830000D+00 0.1273411D+07 0.1906978D+06 0.4339789D+05 0.1229181D+05
EXPONENTS  0.4009742D+04 0.1447353D+04 0.5643010D+03 0.2337451D+03 0.1015640D+03
EXPONENTS  0.4580591D+02 0.3942728D+03 0.1217225D+03 0.4675413D+02 0.2092301D+02
EXPONENTS  0.8268557D+01 0.3862935D+01 0.1779468D+01 0.6106426D+00 0.2741227D+00
EXPONENTS  0.1132594D+00 0.4439262D-01 0.2189893D+04 0.5189460D+03 0.1681956D+03
EXPONENTS  0.6374528D+02 0.2659703D+02 0.1177425D+02 0.5353438D+01 0.2470191D+01
EXPONENTS  0.2189893D+04 0.5189460D+03 0.1681956D+03 0.6374528D+02 0.2659703D+02
EXPONENTS  0.1177425D+02 0.5353438D+01 0.2470191D+01 0.2189893D+04 0.5189460D+03
EXPONENTS  0.1681956D+03 0.6374528D+02 0.2659703D+02 0.1177425D+02 0.5353438D+01
EXPONENTS  0.2470191D+01 0.8212029D+02 0.4952353D+01 0.8212029D+02 0.4952353D+01
EXPONENTS  0.8212029D+02 0.4952353D+01 0.1082826D+01 0.1082826D+01 0.1082826D+01
EXPONENTS  0.4927128D+00 0.4927128D+00 0.4927128D+00 0.2048345D+00 0.2048345D+00
EXPONENTS  0.2048345D+00 0.8074362D-01 0.8074362D-01 0.8074362D-01 0.2566116D-01
EXPONENTS  0.2566116D-01 0.2566116D-01 0.4159000D+01 0.4159000D+01 0.4159000D+01
EXPONENTS  0.4159000D+01 0.4159000D+01 0.4159000D+01 0.1019000D+01 0.1019000D+01
EXPONENTS  0.1019000D+01 0.1019000D+01 0.1019000D+01 0.1019000D+01 0.4640000D+00
EXPONENTS  0.4640000D+00 0.4640000D+00 0.4640000D+00 0.4640000D+00 0.4640000D+00
EXPONENTS  0.1940000D+00 0.1940000D+00 0.1940000D+00 0.1940000D+00 0.1940000D+00
EXPONENTS  0.1940000D+00 0.6788983D-01 0.6788983D-01 0.6788983D-01 0.6788983D-01
EXPONENTS  0.6788983D-01 0.6788983D-01 0.3350000D+00 0.3350000D+00 0.3350000D+00
EXPONENTS  0.3350000D+00 0.3350000D+00 0.3350000D+00 0.3350000D+00 0.3350000D+00
EXPONENTS  0.3350000D+00 0.3350000D+00 0.8690000D+00 0.8690000D+00 0.8690000D+00
EXPONENTS  0.8690000D+00 0.8690000D+00 0.8690000D+00 0.8690000D+00 0.8690000D+00
EXPONENTS  0.8690000D+00 0.8690000D+00 0.6830000D+00 0.6830000D+00 0.6830000D+00
EXPONENTS  0.6830000D+00 0.6830000D+00 0.6830000D+00 0.6830000D+00 0.6830000D+00
EXPONENTS  0.6830000D+00 0.6830000D+00 0.6830000D+00 0.6830000D+00 0.6830000D+00
EXPONENTS  0.6830000D+00 0.6830000D+00
MO    1     MO 0.0        OCC NO =    2.0000000  ORB. ENERGY =  -92.020203
 -0.22415613D+00 -0.41950202D+00 -0.72662794D+00 -0.11883554D+01 -0.18532962D+01
 -0.27475860D+01 -0.38042978D+01 -0.46907113D+01 -0.47136009D+01 -0.32107634D+01
 -0.18580100D-02 -0.69228439D-02 -0.12774819D-01 -0.10583015D+01 -0.71834196D-01
  0.43439944D-02 -0.14062486D-02  0.25845026D-03 -0.72105958D-04  0.16254452D-04
 -0.22316115D-05  0.20484753D-14  0.29421027D-14  0.38940748D-14  0.45391928D-14
  0.44620981D-14  0.33563693D-14  0.17627918D-14  0.52581237D-15  0.19768932D-15
  0.28392936D-15  0.37579999D-15  0.43805749D-15  0.43061741D-15  0.32390840D-15
  0.17011927D-15  0.50743833D-16  0.87690257D-03  0.12594428D-02  0.16669589D-02
  0.19431183D-02  0.19101159D-02  0.14367802D-02  0.75460840D-03  0.22508751D-03
  0.13662211D-14 -0.66337730D-15  0.17744173D-14 -0.86157954D-15  0.27960144D-02
 -0.13576225D-02 -0.49211400D-16  0.12848243D-15 -0.15879918D-04  0.16569604D-16
 -0.58585047D-16 -0.23681373D-04  0.66312552D-17  0.23415122D-16  0.51314641D-05
 -0.29579570D-17 -0.21511730D-17  0.68035587D-06 -0.38825192D-18  0.48718405D-18
  0.10737033D-06 -0.35096198D-04  0.75709778D-04 -0.40613581D-04  0.72379358D-04
  0.57682617D-16  0.53483612D-15  0.40797427D-05 -0.22513437D-04  0.18433694D-04
 -0.17370882D-04 -0.65327067D-17  0.15876503D-16 -0.11360833D-05  0.13766313D-05
 -0.24054794D-06  0.16413264D-05  0.10424302D-16  0.70327519D-18  0.10314214D-05
  0.71760730D-06 -0.17490287D-05 -0.20498576D-06 -0.31952376D-17 -0.72137483D-17
  0.54014339D-07  0.65940626D-07 -0.11995496D-06  0.77903623D-08  0.10333956D-17
 -0.31731602D-18  0.97913957D-19 -0.24628620D-17  0.27719453D-05  0.99531947D-19
 -0.24621671D-17 -0.41025629D-05 -0.39327382D-18  0.98507530D-17 -0.42132730D-05
 -0.72316582D-07  0.11830816D-17  0.10707909D-16 -0.85320422D-05  0.11977202D-17
  0.10669336D-16  0.14458006D-04 -0.47469650D-17 -0.42793062D-16  0.11138121D-04
 -0.21685714D-05 -0.15105230D-05 -0.15595592D-05 -0.40817767D-05  0.78448959D-08
  0.18203731D-17 -0.71906620D-07  0.58642214D-17 -0.24327133D-17 -0.78132944D-17
 -0.30350837D-05  0.12098221D-04  0.12392439D-04  0.58472191D-17  0.18370204D-17
  0.19218517D-06 -0.22415610D+00 -0.41950197D+00 -0.72662786D+00 -0.11883552D+01
 -0.18532960D+01 -0.27475857D+01 -0.38042973D+01 -0.46907108D+01 -0.47136004D+01
 -0.32107630D+01 -0.18580098D-02 -0.69228431D-02 -0.12774817D-01 -0.10583014D+01
 -0.71834188D-01  0.43439939D-02 -0.14062484D-02  0.25845021D-03 -0.72105938D-04
  0.16254455D-04 -0.22316124D-05  0.43290829D-15  0.62176031D-15  0.82294243D-15
  0.95927648D-15  0.94298390D-15  0.70930807D-15  0.37253424D-15  0.11112095D-15
  0.12478038D-15  0.17921460D-15  0.23720282D-15  0.27649940D-15  0.27180327D-15
  0.20444914D-15  0.10737832D-15  0.32029220D-16 -0.87690248D-03 -0.12594426D-02
 -0.16669587D-02 -0.19431181D-02 -0.19101157D-02 -0.14367801D-02 -0.75460832D-03
 -0.22508749D-03  0.66920443D-15 -0.32493644D-15  0.40616571D-15 -0.19721633D-15
 -0.27960141D-02  0.13576223D-02  0.16072167D-16 -0.87527601D-16  0.15879913D-04
 -0.19732001D-17  0.37418861D-16  0.23681372D-04  0.15386886D-17 -0.12092099D-16
 -0.51314529D-05  0.29769196D-17 -0.17212565D-17 -0.68035620D-06  0.39586528D-18
 -0.83799581D-19 -0.10737036D-06 -0.35096194D-04  0.75709769D-04 -0.40613574D-04
  0.72379350D-04 -0.93588163D-17 -0.83645397D-16  0.40797436D-05 -0.22513433D-04
  0.18433689D-04 -0.17370880D-04 -0.33462113D-17  0.64460526D-17 -0.11360854D-05
  0.13766290D-05 -0.24054360D-06  0.16413263D-05 -0.78975985D-18  0.63474970D-17
  0.10314204D-05  0.71760636D-06 -0.17490267D-05 -0.20498573D-06  0.80345528D-18
 -0.80496897D-17  0.54014363D-07  0.65940648D-07 -0.11995501D-06  0.77903608D-08
  0.76162430D-18 -0.20068693D-18 -0.69519385D-18  0.13963962D-17 -0.27719443D-05
 -0.69472745D-18  0.13962796D-17  0.41025614D-05  0.27803090D-17 -0.55854682D-17
  0.42132715D-05  0.72316589D-07  0.65021135D-17 -0.11730539D-17  0.85320420D-05
  0.64862821D-17 -0.11670593D-17 -0.14458005D-04 -0.25992622D-16  0.46862211D-17
 -0.11138121D-04  0.21685711D-05 -0.15105228D-05 -0.15595590D-05 -0.40817764D-05
  0.78448946D-08 -0.61944370D-17 -0.71906610D-07  0.30530128D-17  0.82554037D-17
 -0.40658237D-17 -0.30350835D-05  0.12098220D-04  0.12392438D-04  0.30384327D-17
 -0.61828999D-17  0.19218515D-06
MO    2     MO 0.0        OCC NO =    2.0000000  ORB. ENERGY =  -92.020199
 -0.22415569D+00 -0.41950119D+00 -0.72662651D+00 -0.11883530D+01 -0.18532925D+01
 -0.27475806D+01 -0.38042903D+01 -0.46907021D+01 -0.47135917D+01 -0.32107571D+01
 -0.18632457D-02 -0.69423516D-02 -0.12810817D-01 -0.10582340D+01 -0.71937939D-01
  0.44672131D-02 -0.15076919D-02  0.39318173D-03 -0.18891724D-03 -0.53214984D-04
  0.28468261D-05 -0.27198139D-14 -0.39063062D-14 -0.51702643D-14 -0.60268043D-14
 -0.59244436D-14 -0.44563387D-14 -0.23405045D-14 -0.69813475D-15 -0.13390903D-17
 -0.19232553D-17 -0.25455604D-17 -0.29672746D-17 -0.29168777D-17 -0.21940617D-17
 -0.11523387D-17 -0.34372404D-18  0.86744016D-03  0.12458525D-02  0.16489712D-02
  0.19221506D-02  0.18895044D-02  0.14212763D-02  0.74646563D-03  0.22265865D-03
 -0.14225034D-14  0.69070554D-15 -0.16786371D-14  0.81507286D-15  0.27647616D-02
 -0.13424475D-02  0.49522389D-16 -0.13083895D-15 -0.44779891D-04 -0.16751083D-16
  0.59508209D-16 -0.16724821D-04 -0.66466175D-17 -0.23602088D-16  0.12308257D-03
  0.29756705D-17  0.21653991D-17  0.20339851D-05  0.39000420D-18 -0.48708869D-18
 -0.10365976D-06 -0.23349186D-04  0.90015381D-04 -0.66666195D-04  0.74050645D-04
 -0.56568849D-16 -0.55032286D-15 -0.11653682D-04 -0.38852697D-04  0.50506379D-04
 -0.17766620D-04  0.64299639D-17 -0.16000444D-16  0.21748791D-04  0.24172761D-04
 -0.45921552D-04  0.15833580D-05 -0.10397427D-16 -0.51010299D-18  0.11189297D-04
  0.10720766D-04 -0.21910063D-04 -0.30604806D-06  0.32405609D-17  0.71461839D-17
 -0.13717943D-06 -0.11633698D-06  0.25351641D-06  0.13614456D-07 -0.10398841D-17
  0.31991079D-18 -0.78199203D-19  0.24522677D-17  0.10917417D-04 -0.73728193D-19
  0.24522483D-17 -0.16426244D-04  0.30832580D-18 -0.98090514D-17 -0.16326008D-04
  0.65474461D-07 -0.12729062D-17 -0.10612931D-16 -0.15093317D-05 -0.13649746D-17
 -0.10689449D-16  0.38661380D-05  0.51836933D-17  0.42528242D-16  0.66185717D-06
 -0.20930591D-05 -0.15150307D-05 -0.15725413D-05 -0.41025400D-05  0.11047629D-07
 -0.19926546D-17 -0.86180698D-07 -0.57799923D-17  0.26577081D-17  0.77086354D-17
 -0.30449039D-05  0.12135088D-04  0.12480152D-04 -0.57859293D-17 -0.19951603D-17
  0.22539921D-06  0.22415571D+00  0.41950124D+00  0.72662660D+00  0.11883532D+01
  0.18532927D+01  0.27475809D+01  0.38042907D+01  0.46907026D+01  0.47135922D+01
  0.32107575D+01  0.18632459D-02  0.69423524D-02  0.12810818D-01  0.10582341D+01
  0.71937947D-01 -0.44672136D-02  0.15076920D-02 -0.39318176D-03  0.18891725D-03
  0.53214982D-04 -0.28468258D-05 -0.43368294D-15 -0.62287288D-15 -0.82441500D-15
 -0.96099301D-15 -0.94467127D-15 -0.71057730D-15 -0.37320085D-15 -0.11131979D-15
 -0.12361286D-15 -0.17753777D-15 -0.23498342D-15 -0.27391231D-15 -0.26926012D-15
 -0.20253620D-15 -0.10637362D-15 -0.31729536D-16  0.86744026D-03  0.12458526D-02
  0.16489714D-02  0.19221508D-02  0.18895046D-02  0.14212765D-02  0.74646571D-03
  0.22265868D-03 -0.67205414D-15  0.32632014D-15 -0.40272999D-15  0.19554809D-15
  0.27647619D-02 -0.13424476D-02 -0.15817841D-16  0.87053178D-16 -0.44779893D-04
  0.17533883D-17 -0.37131926D-16 -0.16724824D-04 -0.14234544D-17  0.11967885D-16
  0.12308257D-03 -0.30070378D-17  0.17333036D-17  0.20339851D-05 -0.39683353D-18
  0.86243243D-19 -0.10365975D-06  0.23349190D-04 -0.90015390D-04  0.66666200D-04
 -0.74050654D-04  0.10758517D-16  0.86041856D-16  0.11653681D-04  0.38852700D-04
 -0.50506381D-04  0.17766621D-04  0.30570207D-17 -0.67905118D-17 -0.21748791D-04
 -0.24172761D-04  0.45921552D-04 -0.15833582D-05  0.95648580D-18 -0.62424833D-17
 -0.11189297D-04 -0.10720766D-04  0.21910064D-04  0.30604808D-06 -0.78443528D-18
  0.80018259D-17  0.13717942D-06  0.11633697D-06 -0.25351640D-06 -0.13614456D-07
 -0.76674361D-18  0.20359779D-18  0.69554352D-18 -0.13912309D-17  0.10917418D-04
  0.69625874D-18 -0.13921714D-17 -0.16426244D-04 -0.27828893D-17  0.55658641D-17
 -0.16326009D-04  0.65474453D-07 -0.66016904D-17  0.12251436D-17 -0.15093327D-05
 -0.65880262D-17  0.12221523D-17  0.38661396D-05  0.26393097D-16 -0.48975830D-17
  0.66185838D-06 -0.20930593D-05  0.15150309D-05  0.15725415D-05  0.41025404D-05
 -0.11047630D-07  0.62391551D-17  0.86180706D-07 -0.30693429D-17 -0.83129994D-17
  0.40884436D-17  0.30449043D-05 -0.12135089D-04 -0.12480153D-04 -0.30573020D-17
  0.62215330D-17 -0.22539923D-06
MO    3     MO 0.0        OCC NO =    2.0000000  ORB. ENERGY =   -9.019026
 -0.62670416D-01 -0.11728596D+00 -0.20315338D+00 -0.33224488D+00 -0.51815154D+00
 -0.76818045D+00 -0.10636199D+01 -0.13114468D+01 -0.13178463D+01 -0.89767735D+00
 -0.98185738D-01 -0.36583469D+00 -0.67507977D+00 -0.67547356D+00  0.48523269D+00
  0.78754981D+00  0.28811032D+00  0.10833074D-01 -0.10974614D-02  0.27378893D-03
 -0.29760774D-04  0.13599062D-14  0.19531519D-14  0.25851306D-14  0.30134004D-14
  0.29622201D-14  0.22281680D-14  0.11702516D-14  0.34906717D-15 -0.80386554D-15
 -0.11545440D-14 -0.15281182D-14 -0.17812764D-14 -0.17510227D-14 -0.13171111D-14
 -0.69175723D-15 -0.20634002D-15 -0.97250939D-02 -0.13967571D-01 -0.18487039D-01
 -0.21549723D-01 -0.21183718D-01 -0.15934293D-01 -0.83688175D-02 -0.24962832D-02
 -0.87162519D-16  0.42322312D-16  0.12461983D-15 -0.60509946D-16  0.74685381D-02
 -0.36263959D-02  0.11566453D-15  0.10892229D-15 -0.13956248D-02 -0.72335337D-16
  0.67191376D-16  0.83743436D-04  0.43395627D-16 -0.34831226D-16 -0.69448546D-04
 -0.52602716D-17  0.42698610D-17  0.12817488D-04 -0.41823856D-20 -0.55580067D-18
  0.15477672D-05 -0.95643675D-02  0.78679403D-02  0.16964272D-02  0.11386926D-01
 -0.21192004D-15 -0.16285956D-16 -0.74771471D-03  0.45555167D-03  0.29216304D-03
  0.78598352D-03  0.24829247D-17  0.17605756D-15  0.12572986D-03 -0.13399831D-03
  0.82684455D-05 -0.16965660D-03 -0.34355726D-16 -0.84863875D-16 -0.14054055D-04
  0.19333840D-05  0.12120671D-04  0.10443112D-04 -0.29064362D-17  0.20257491D-16
  0.15868009D-05  0.84749314D-06 -0.24342940D-05 -0.48292199D-06  0.10051214D-18
 -0.97413731D-18 -0.36643456D-17 -0.15656579D-19 -0.69222910D-05 -0.37948484D-17
  0.57646235D-19  0.21344753D-04  0.14787885D-16 -0.10676499D-19 -0.57787988D-06
 -0.14320004D-04  0.36372711D-17 -0.12429707D-16 -0.82692255D-04  0.49132587D-17
 -0.10037777D-16  0.10638091D-03 -0.15825072D-16  0.47326897D-16  0.14169586D-03
  0.23067812D-04  0.68343137D-05  0.95856504D-06  0.10777532D-04 -0.25151776D-05
 -0.42090300D-17 -0.51609897D-05  0.43726654D-17  0.58291661D-17 -0.58873573D-17
  0.89539598D-05 -0.49959842D-04 -0.14705350D-04  0.45440758D-17 -0.48604084D-17
  0.23028502D-04 -0.62670416D-01 -0.11728596D+00 -0.20315338D+00 -0.33224488D+00
 -0.51815154D+00 -0.76818045D+00 -0.10636199D+01 -0.13114468D+01 -0.13178463D+01
 -0.89767735D+00 -0.98185738D-01 -0.36583469D+00 -0.67507977D+00 -0.67547356D+00
  0.48523269D+00  0.78754981D+00  0.28811032D+00  0.10833074D-01 -0.10974614D-02
  0.27378892D-03 -0.29760775D-04 -0.17954313D-14 -0.25786706D-14 -0.34130475D-14
 -0.39784754D-14 -0.39109041D-14 -0.29417637D-14 -0.15450377D-14 -0.46085982D-15
 -0.55963288D-16 -0.80376726D-16 -0.10638411D-15 -0.12400840D-15 -0.12190222D-15
 -0.91694274D-16 -0.48158563D-16 -0.14364922D-16  0.97250939D-02  0.13967571D-01
  0.18487039D-01  0.21549723D-01  0.21183718D-01  0.15934293D-01  0.83688175D-02
  0.24962832D-02 -0.80972216D-15  0.39316571D-15 -0.86703551D-16  0.42099457D-16
 -0.74685381D-02  0.36263959D-02 -0.58821123D-16  0.91149359D-16  0.13956248D-02
  0.36408535D-16 -0.19992023D-16 -0.83743435D-04 -0.29161536D-16 -0.45416292D-17
  0.69448540D-04  0.37078944D-17  0.50971840D-17 -0.12817490D-04 -0.35990030D-18
 -0.12317539D-17 -0.15477672D-05 -0.95643675D-02  0.78679403D-02  0.16964272D-02
  0.11386926D-01 -0.26799229D-15 -0.16748710D-15 -0.74771471D-03  0.45555167D-03
  0.29216304D-03  0.78598352D-03 -0.15545383D-16 -0.36622559D-16  0.12572986D-03
 -0.13399831D-03  0.82684439D-05 -0.16965660D-03 -0.17839501D-17 -0.40053639D-17
 -0.14054054D-04  0.19333846D-05  0.12120670D-04  0.10443112D-04 -0.89333149D-17
  0.50974570D-17  0.15868009D-05  0.84749316D-06 -0.24342940D-05 -0.48292199D-06
  0.31524536D-18  0.27757628D-18  0.36325260D-17 -0.86354556D-18  0.69222906D-05
  0.36354463D-17 -0.90012011D-18 -0.21344752D-04 -0.14533024D-16  0.34907568D-17
  0.57788062D-06  0.14320004D-04 -0.19873038D-16 -0.15630645D-17  0.82692255D-04
 -0.18693097D-16 -0.14429440D-17 -0.10638091D-03  0.78312210D-16  0.61321376D-17
 -0.14169586D-03 -0.23067812D-04  0.68343136D-05  0.95856495D-06  0.10777532D-04
 -0.25151776D-05 -0.31542918D-17 -0.51609897D-05  0.14860284D-16  0.43645821D-17
 -0.20081228D-16  0.89539596D-05 -0.49959841D-04 -0.14705349D-04  0.15662832D-16
 -0.36308712D-17  0.23028502D-04
MO    4     MO 0.0        OCC NO =    2.0000000  ORB. ENERGY =   -9.018601
 -0.62681330D-01 -0.11730638D+00 -0.20318876D+00 -0.33230274D+00 -0.51824177D+00
 -0.76831424D+00 -0.10638052D+01 -0.13116752D+01 -0.13180758D+01 -0.89783368D+00
 -0.98218645D-01 -0.36595731D+00 -0.67530603D+00 -0.67540225D+00  0.48493886D+00
  0.78830246D+00  0.28770659D+00  0.11544177D-01 -0.17847976D-02  0.21316582D-03
  0.66984629D-04 -0.14937133D-15 -0.21453311D-15 -0.28394929D-15 -0.33099020D-15
 -0.32536858D-15 -0.24474072D-15 -0.12853977D-15 -0.38341341D-16  0.25809708D-14
  0.37068941D-14  0.49063287D-14  0.57191434D-14  0.56220081D-14  0.42288481D-14
  0.22210247D-14  0.66249583D-15 -0.98279955D-02 -0.14115362D-01 -0.18682651D-01
 -0.21777742D-01 -0.21407863D-01 -0.16102894D-01 -0.84573682D-02 -0.25226965D-02
  0.12065687D-14 -0.58585704D-15  0.14021089D-15 -0.68080286D-16  0.74731224D-02
 -0.36286218D-02  0.23002415D-16 -0.82178866D-16 -0.14791818D-02  0.50887137D-16
 -0.12158866D-15  0.22917609D-03 -0.52184300D-16  0.41077480D-16  0.44929631D-03
  0.51136089D-17 -0.27568257D-17 -0.63109403D-04 -0.89228535D-18  0.10916167D-17
 -0.11392775D-05 -0.93755225D-02  0.80439094D-02  0.13316132D-02  0.11378516D-01
  0.22950006D-15  0.14159532D-14 -0.84292449D-03  0.37712818D-03  0.46579631D-03
  0.79694855D-03 -0.24915398D-16 -0.71764755D-16  0.28261525D-03 -0.10844296D-04
 -0.27177095D-03 -0.19169016D-03  0.56779015D-16  0.30358760D-16  0.28547351D-04
  0.46004602D-04 -0.74551953D-04  0.11403219D-04 -0.82635074D-17 -0.56806103D-17
 -0.14215260D-05 -0.28987300D-05  0.43202559D-05 -0.96492195D-06  0.11269581D-17
 -0.40891728D-18  0.21551043D-17  0.63396740D-18  0.43911295D-04  0.19470176D-17
  0.65684926D-18 -0.57693330D-04 -0.84123306D-17 -0.25587515D-17 -0.74040556D-04
 -0.10678120D-04  0.59111680D-17  0.30627524D-17 -0.33518250D-04  0.66043600D-17
  0.52872427D-17  0.13033587D-04 -0.24337864D-16 -0.14475500D-16  0.87521162D-04
  0.48655681D-04 -0.63007616D-05 -0.51405516D-05 -0.14716041D-04  0.26003438D-05
  0.16065108D-16 -0.10846186D-05 -0.19219156D-17 -0.21412689D-16  0.25318646D-17
 -0.98241832D-05  0.47628753D-04  0.40667493D-04 -0.18298468D-17  0.16042743D-16
 -0.45471758D-05  0.62681330D-01  0.11730638D+00  0.20318876D+00  0.33230274D+00
  0.51824177D+00  0.76831424D+00  0.10638052D+01  0.13116752D+01  0.13180758D+01
  0.89783368D+00  0.98218645D-01  0.36595731D+00  0.67530603D+00  0.67540225D+00
 -0.48493886D+00 -0.78830246D+00 -0.28770659D+00 -0.11544177D-01  0.17847976D-02
 -0.21316582D-03 -0.66984629D-04 -0.26965869D-15 -0.38729466D-15 -0.51261105D-15
 -0.59753357D-15 -0.58738492D-15 -0.44182818D-15 -0.23205168D-15 -0.69217271D-16
  0.15610122D-15  0.22419886D-15  0.29674257D-15  0.34590289D-15  0.34002800D-15
  0.25576746D-15  0.13433111D-15  0.40068802D-16 -0.98279955D-02 -0.14115362D-01
 -0.18682651D-01 -0.21777742D-01 -0.21407863D-01 -0.16102894D-01 -0.84573682D-02
 -0.25226965D-02  0.82069007D-15 -0.39849125D-15  0.25842119D-15 -0.12547804D-15
  0.74731224D-02 -0.36286218D-02 -0.26304508D-16  0.52916439D-17 -0.14791818D-02
 -0.75634766D-18 -0.54528681D-16  0.22917609D-03  0.46851756D-17  0.35215521D-16
  0.44929631D-03  0.89761256D-18 -0.11149311D-16 -0.63109403D-04  0.63009535D-18
  0.84430058D-18 -0.11392775D-05  0.93755225D-02 -0.80439094D-02 -0.13316132D-02
 -0.11378516D-01  0.29161395D-15  0.17850316D-15  0.84292449D-03 -0.37712818D-03
 -0.46579631D-03 -0.79694855D-03  0.15003495D-16  0.59869694D-17 -0.28261525D-03
  0.10844296D-04  0.27177095D-03  0.19169016D-03  0.34120951D-17  0.10315800D-16
 -0.28547351D-04 -0.46004602D-04  0.74551953D-04 -0.11403219D-04  0.73090535D-18
 -0.72728782D-19  0.14215260D-05  0.28987300D-05 -0.43202559D-05  0.96492195D-06
  0.80696641D-18 -0.10626427D-17 -0.46876427D-17  0.12082527D-17  0.43911295D-04
 -0.47545116D-17  0.12163649D-17 -0.57693330D-04  0.18817440D-16 -0.48411228D-17
 -0.74040556D-04 -0.10678120D-04  0.34637006D-16 -0.71335889D-17 -0.33518250D-04
  0.33145152D-16 -0.76472044D-17  0.13033587D-04 -0.13705617D-15  0.29047971D-16
  0.87521162D-04  0.48655681D-04  0.63007616D-05  0.51405516D-05  0.14716041D-04
 -0.26003438D-05 -0.64272672D-17  0.10846186D-05 -0.94040961D-17  0.83919597D-17
  0.12650848D-16  0.98241831D-05 -0.47628753D-04 -0.40667493D-04 -0.97402556D-17
 -0.58940774D-17  0.45471758D-05
MO    5     MO 0.0        OCC NO =    2.0000000  ORB. ENERGY =   -6.699290
 -0.29367519D-03 -0.54960502D-03 -0.95198199D-03 -0.15569081D-02 -0.24280715D-02
 -0.35997134D-02 -0.49841504D-02 -0.61454734D-02 -0.61754619D-02 -0.42065392D-02
 -0.49242570D-03 -0.18347513D-02 -0.33856916D-02 -0.33093948D-02  0.29624313D-02
  0.43759217D-02  0.11543575D-02 -0.47897868D-03  0.97081248D-04 -0.12495932D-03
  0.19726384D-04  0.27494556D-10  0.39488788D-10  0.52266120D-10  0.60924869D-10
  0.59890107D-10  0.45049058D-10  0.23660124D-10  0.70574331D-11  0.79927092D-10
  0.11479450D-09  0.15193840D-09  0.17710952D-09  0.17410145D-09  0.13095829D-09
  0.68780338D-10  0.20516065D-10  0.36246180D+01  0.52058222D+01  0.68902629D+01
  0.80317492D+01  0.78953360D+01  0.59388347D+01  0.31191233D+01  0.93038415D+00
  0.24032824D-12 -0.11669290D-12  0.64658238D-12 -0.31395216D-12  0.36320467D-01
 -0.17635632D-01  0.66185794D-12  0.19435199D-11  0.85852766D-01 -0.46474523D-14
 -0.17073854D-13 -0.78131176D-04  0.26369624D-14  0.87643510D-14  0.32032694D-03
 -0.40941811D-15 -0.13514872D-14 -0.39700262D-04  0.38484162D-17  0.16433500D-16
 -0.52377969D-06  0.33795335D-02  0.48140643D-02 -0.81935978D-02  0.93704332D-03
 -0.11359919D-12 -0.31551897D-12  0.27731133D-03  0.31780869D-03 -0.59512001D-03
  0.26452721D-04 -0.35860316D-14 -0.91272323D-14  0.57692952D-04  0.18954419D-05
 -0.59588394D-04 -0.36447308D-04  0.86811308D-15  0.21447064D-14  0.11921672D-04
  0.87164899D-05 -0.20638162D-04 -0.20936366D-05 -0.17384920D-15 -0.68049395D-15
 -0.20903894D-05 -0.20572297D-05  0.41476190D-05  0.21661241D-07  0.46539200D-16
  0.14013770D-15  0.30879220D-15 -0.42339376D-15  0.14134219D-04 -0.10556814D-14
  0.62341147D-15  0.45456326D-05  0.12930484D-15  0.64676981D-15 -0.46948291D-04
 -0.33636300D-04 -0.54383041D-14  0.44671306D-14  0.28475607D-03  0.16293695D-13
 -0.12432237D-13 -0.93507583D-03  0.21217576D-16 -0.96915495D-15  0.80807604D-04
  0.66358343D-03 -0.15769117D-04 -0.14581529D-04 -0.40208699D-04  0.16604236D-05
  0.18435824D-15 -0.10893418D-06  0.85757989D-15 -0.31107217D-15 -0.11144924D-14
 -0.29574158D-04  0.12418886D-03  0.11706333D-03  0.77073741D-15  0.38014178D-15
 -0.46544683D-05 -0.29367519D-03 -0.54960502D-03 -0.95198199D-03 -0.15569081D-02
 -0.24280715D-02 -0.35997134D-02 -0.49841504D-02 -0.61454734D-02 -0.61754619D-02
 -0.42065392D-02 -0.49242570D-03 -0.18347513D-02 -0.33856916D-02 -0.33093948D-02
  0.29624313D-02  0.43759217D-02  0.11543575D-02 -0.47897867D-03  0.97081232D-04
 -0.12495928D-03  0.19726397D-04 -0.25556680D-11 -0.36705532D-11 -0.48582290D-11
 -0.56630752D-11 -0.55668922D-11 -0.41873902D-11 -0.21992507D-11 -0.65600099D-12
  0.10777091D-10  0.15478492D-10  0.20486847D-10  0.23880832D-10  0.23475235D-10
  0.17657961D-10  0.92741018D-11  0.27663149D-11 -0.36246180D+01 -0.52058222D+01
 -0.68902629D+01 -0.80317492D+01 -0.78953360D+01 -0.59388347D+01 -0.31191233D+01
 -0.93038415D+00 -0.45604979D-13  0.22143786D-13  0.94620700D-13 -0.45943679D-13
 -0.36320467D-01  0.17635632D-01 -0.53738051D-13  0.25689310D-12 -0.85852766D-01
 -0.23762724D-15  0.62146535D-15  0.78131170D-04 -0.34278814D-15 -0.41231507D-15
 -0.32032692D-03  0.20935125D-15  0.54839863D-15  0.39700274D-04  0.98317381D-17
  0.29529637D-16  0.52377987D-06  0.33795335D-02  0.48140643D-02 -0.81935978D-02
  0.93704332D-03 -0.16091581D-13  0.48065448D-13  0.27731133D-03  0.31780869D-03
 -0.59512002D-03  0.26452721D-04 -0.15504105D-14 -0.60555071D-15  0.57692951D-04
  0.18954412D-05 -0.59588393D-04 -0.36447308D-04  0.79661523D-15  0.16657499D-14
  0.11921669D-04  0.87164872D-05 -0.20638156D-04 -0.20936366D-05 -0.19988213D-15
 -0.72730103D-15 -0.20903896D-05 -0.20572299D-05  0.41476195D-05  0.21661241D-07
  0.52167534D-16  0.15313088D-15 -0.40147432D-16 -0.23692551D-16 -0.14134218D-04
  0.29474428D-16  0.73047234D-16 -0.45456350D-05  0.90967869D-16 -0.19695813D-17
  0.46948289D-04  0.33636300D-04 -0.23946397D-15  0.17258299D-15 -0.28475608D-03
  0.73271106D-15 -0.29784375D-14  0.93507583D-03 -0.14319139D-16  0.24606885D-14
 -0.80807601D-04 -0.66358343D-03 -0.15769117D-04 -0.14581529D-04 -0.40208699D-04
  0.16604236D-05 -0.52101107D-15 -0.10893418D-06 -0.11652261D-14  0.50311080D-15
  0.16937884D-14 -0.29574158D-04  0.12418886D-03  0.11706333D-03 -0.15856868D-14
  0.53700807D-16 -0.46544683D-05
MO    6     MO 0.0        OCC NO =    2.0000000  ORB. ENERGY =   -6.699177
 -0.37090654D-14 -0.69414138D-14 -0.12023363D-13 -0.19663472D-13 -0.30666111D-13
 -0.45463741D-13 -0.62948934D-13 -0.77616237D-13 -0.77994987D-13 -0.53127843D-13
 -0.62134638D-14 -0.23151027D-13 -0.42720906D-13 -0.41791061D-13  0.37214224D-13
  0.55584512D-13  0.14314929D-13 -0.58759712D-14  0.11548636D-14 -0.11764416D-14
  0.33577691D-15 -0.10331777D+01 -0.14838914D+01 -0.19640321D+01 -0.22894065D+01
 -0.22505227D+01 -0.16928326D+01 -0.88908917D+00 -0.26520095D+00 -0.34709420D+01
 -0.49851066D+01 -0.65981306D+01 -0.76912203D+01 -0.75605908D+01 -0.56870409D+01
 -0.29868792D+01 -0.89093786D+00  0.45367486D-10  0.65158609D-10  0.86241890D-10
  0.10052929D-09  0.98821875D-10  0.74333351D-10  0.39040467D-10  0.11645142D-10
 -0.83942804D-02  0.40758959D-02 -0.28200460D-01  0.13692912D-01  0.45417711D-12
 -0.22052857D-12 -0.25074914D-01 -0.84238716D-01  0.10749659D-11  0.18882039D-03
  0.63433731D-03 -0.90992245D-15 -0.95834783D-04 -0.32195541D-03  0.37457063D-14
  0.92396764D-05  0.31040563D-04 -0.60938442D-15 -0.51612856D-06 -0.17339202D-05
 -0.53723780D-17  0.46733671D-13  0.56985870D-13 -0.10371954D-12  0.10597219D-13
  0.41263251D-02  0.13862304D-01  0.33385930D-14  0.43353172D-14 -0.76739103D-14
  0.69643941D-15  0.94084537D-04  0.31607239D-03  0.71420872D-15 -0.63289736D-17
 -0.70787975D-15 -0.67637212D-15 -0.44066749D-05 -0.14804373D-04  0.99030419D-16
  0.10246624D-15 -0.20149666D-15  0.12996000D-16 -0.65610487D-06 -0.22043718D-05
 -0.26112763D-16 -0.29682632D-16  0.55795396D-16 -0.31262261D-17  0.15066311D-06