 Molden2AIM, Version 4.0.0 (06/02/2016)           Time: Wed Jun 27 19:36:33 2018
GAUSSIAN             16 MOL ORBITALS    262 PRIMITIVES        2 NUCLEI
  S    1    (CENTRE  1)   0.00000000  0.00000000  1.78333643  CHARGE = 16.0
  S    2    (CENTRE  2)   0.00000000  0.00000000 -1.78333643  CHARGE = 16.0
CENTRE ASSIGNMENTS    1  1  1  1  1  1  1  1  1  1  1  1  1  1  1  1  1  1  1  1
CENTRE ASSIGNMENTS    1  1  1  1  1  1  1  1  1  1  1  1  1  1  1  1  1  1  1  1
CENTRE ASSIGNMENTS    1  1  1  1  1  1  1  1  1  1  1  1  1  1  1  1  1  1  1  1
CENTRE ASSIGNMENTS    1  1  1  1  1  1  1  1  1  1  1  1  1  1  1  1  1  1  1  1
CENTRE ASSIGNMENTS    1  1  1  1  1  1  1  1  1  1  1  1  1  1  1  1  1  1  1  1
CENTRE ASSIGNMENTS    1  1  1  1  1  1  1  1  1  1  1  1  1  1  1  1  1  1  1  1
CENTRE ASSIGNMENTS    1  1  1  1  1  1  1  1  1  1  1  2  2  2  2  2  2  2  2  2
CENTRE ASSIGNMENTS    2  2  2  2  2  2  2  2  2  2  2  2  2  2  2  2  2  2  2  2
CENTRE ASSIGNMENTS    2  2  2  2  2  2  2  2  2  2  2  2  2  2  2  2  2  2  2  2
CENTRE ASSIGNMENTS    2  2  2  2  2  2  2  2  2  2  2  2  2  2  2  2  2  2  2  2
CENTRE ASSIGNMENTS    2  2  2  2  2  2  2  2  2  2  2  2  2  2  2  2  2  2  2  2
CENTRE ASSIGNMENTS    2  2  2  2  2  2  2  2  2  2  2  2  2  2  2  2  2  2  2  2
CENTRE ASSIGNMENTS    2  2  2  2  2  2  2  2  2  2  2  2  2  2  2  2  2  2  2  2
CENTRE ASSIGNMENTS    2  2
TYPE ASSIGNMENTS      1  1  1  1  1  1  1  1  1  1  1  1  1  1  1  1  1  1  1  1
TYPE ASSIGNMENTS      1  1  1  1  1  1  1  1  1  1  1  1  1  1  1  1  1  1  1  1
TYPE ASSIGNMENTS      1  1  2  2  2  2  2  2  2  3  3  3  3  3  3  3  4  4  4  4
TYPE ASSIGNMENTS      4  4  4  2  2  2  2  2  2  2  3  3  3  3  3  3  3  4  4  4
TYPE ASSIGNMENTS      4  4  4  4  2  3  4  2  3  4  2  3  4  5  6  7  8  9 10  5
TYPE ASSIGNMENTS      6  7  8  9 10  5  6  7  8  9 10 11 12 13 17 14 15 18 19 16
TYPE ASSIGNMENTS     20 11 12 13 17 14 15 18 19 16 20  1  1  1  1  1  1  1  1  1
TYPE ASSIGNMENTS      1  1  1  1  1  1  1  1  1  1  1  1  1  1  1  1  1  1  1  1
TYPE ASSIGNMENTS      1  1  1  1  1  1  1  1  1  1  1  1  1  2  2  2  2  2  2  2
TYPE ASSIGNMENTS      3  3  3  3  3  3  3  4  4  4  4  4  4  4  2  2  2  2  2  2
TYPE ASSIGNMENTS      2  3  3  3  3  3  3  3  4  4  4  4  4  4  4  2  3  4  2  3
TYPE ASSIGNMENTS      4  2  3  4  5  6  7  8  9 10  5  6  7  8  9 10  5  6  7  8
TYPE ASSIGNMENTS      9 10 11 12 13 17 14 15 18 19 16 20 11 12 13 17 14 15 18 19
TYPE ASSIGNMENTS     16 20
EXPONENTS  0.3741000D+06 0.5605000D+05 0.1276000D+05 0.3615000D+04 0.1183000D+04
EXPONENTS  0.4288000D+03 0.1678000D+03 0.6947000D+02 0.2984000D+02 0.1272000D+02
EXPONENTS  0.5244000D+01 0.2219000D+01 0.3490000D+00 0.3741000D+06 0.5605000D+05
EXPONENTS  0.1276000D+05 0.3615000D+04 0.1183000D+04 0.4288000D+03 0.1678000D+03
EXPONENTS  0.6947000D+02 0.2984000D+02 0.1272000D+02 0.5244000D+01 0.2219000D+01
EXPONENTS  0.3490000D+00 0.3741000D+06 0.5605000D+05 0.1276000D+05 0.3615000D+04
EXPONENTS  0.1183000D+04 0.4288000D+03 0.1678000D+03 0.6947000D+02 0.2984000D+02
EXPONENTS  0.1272000D+02 0.5244000D+01 0.2219000D+01 0.3490000D+00 0.7767000D+00
EXPONENTS  0.1322000D+00 0.4970000D-01 0.5744000D+03 0.1358000D+03 0.4319000D+02
EXPONENTS  0.1587000D+02 0.6208000D+01 0.2483000D+01 0.3229000D+00 0.5744000D+03
EXPONENTS  0.1358000D+03 0.4319000D+02 0.1587000D+02 0.6208000D+01 0.2483000D+01
EXPONENTS  0.3229000D+00 0.5744000D+03 0.1358000D+03 0.4319000D+02 0.1587000D+02
EXPONENTS  0.6208000D+01 0.2483000D+01 0.3229000D+00 0.5744000D+03 0.1358000D+03
EXPONENTS  0.4319000D+02 0.1587000D+02 0.6208000D+01 0.2483000D+01 0.3229000D+00
EXPONENTS  0.5744000D+03 0.1358000D+03 0.4319000D+02 0.1587000D+02 0.6208000D+01
EXPONENTS  0.2483000D+01 0.3229000D+00 0.5744000D+03 0.1358000D+03 0.4319000D+02
EXPONENTS  0.1587000D+02 0.6208000D+01 0.2483000D+01 0.3229000D+00 0.8688000D+00
EXPONENTS  0.8688000D+00 0.8688000D+00 0.1098000D+00 0.1098000D+00 0.1098000D+00
EXPONENTS  0.3510000D-01 0.3510000D-01 0.3510000D-01 0.2690000D+00 0.2690000D+00
EXPONENTS  0.2690000D+00 0.2690000D+00 0.2690000D+00 0.2690000D+00 0.8190000D+00
EXPONENTS  0.8190000D+00 0.8190000D+00 0.8190000D+00 0.8190000D+00 0.8190000D+00
EXPONENTS  0.1010000D+00 0.1010000D+00 0.1010000D+00 0.1010000D+00 0.1010000D+00
EXPONENTS  0.1010000D+00 0.5570000D+00 0.5570000D+00 0.5570000D+00 0.5570000D+00
EXPONENTS  0.5570000D+00 0.5570000D+00 0.5570000D+00 0.5570000D+00 0.5570000D+00
EXPONENTS  0.5570000D+00 0.2180000D+00 0.2180000D+00 0.2180000D+00 0.2180000D+00
EXPONENTS  0.2180000D+00 0.2180000D+00 0.2180000D+00 0.2180000D+00 0.2180000D+00
EXPONENTS  0.2180000D+00 0.3741000D+06 0.5605000D+05 0.1276000D+05 0.3615000D+04
EXPONENTS  0.1183000D+04 0.4288000D+03 0.1678000D+03 0.6947000D+02 0.2984000D+02
EXPONENTS  0.1272000D+02 0.5244000D+01 0.2219000D+01 0.3490000D+00 0.3741000D+06
EXPONENTS  0.5605000D+05 0.1276000D+05 0.3615000D+04 0.1183000D+04 0.4288000D+03
EXPONENTS  0.1678000D+03 0.6947000D+02 0.2984000D+02 0.1272000D+02 0.5244000D+01
EXPONENTS  0.2219000D+01 0.3490000D+00 0.3741000D+06 0.5605000D+05 0.1276000D+05
EXPONENTS  0.3615000D+04 0.1183000D+04 0.4288000D+03 0.1678000D+03 0.6947000D+02
EXPONENTS  0.2984000D+02 0.1272000D+02 0.5244000D+01 0.2219000D+01 0.3490000D+00
EXPONENTS  0.7767000D+00 0.1322000D+00 0.4970000D-01 0.5744000D+03 0.1358000D+03
EXPONENTS  0.4319000D+02 0.1587000D+02 0.6208000D+01 0.2483000D+01 0.3229000D+00
EXPONENTS  0.5744000D+03 0.1358000D+03 0.4319000D+02 0.1587000D+02 0.6208000D+01
EXPONENTS  0.2483000D+01 0.3229000D+00 0.5744000D+03 0.1358000D+03 0.4319000D+02
EXPONENTS  0.1587000D+02 0.6208000D+01 0.2483000D+01 0.3229000D+00 0.5744000D+03
EXPONENTS  0.1358000D+03 0.4319000D+02 0.1587000D+02 0.6208000D+01 0.2483000D+01
EXPONENTS  0.3229000D+00 0.5744000D+03 0.1358000D+03 0.4319000D+02 0.1587000D+02
EXPONENTS  0.6208000D+01 0.2483000D+01 0.3229000D+00 0.5744000D+03 0.1358000D+03
EXPONENTS  0.4319000D+02 0.1587000D+02 0.6208000D+01 0.2483000D+01 0.3229000D+00
EXPONENTS  0.8688000D+00 0.8688000D+00 0.8688000D+00 0.1098000D+00 0.1098000D+00
EXPONENTS  0.1098000D+00 0.3510000D-01 0.3510000D-01 0.3510000D-01 0.2690000D+00
EXPONENTS  0.2690000D+00 0.2690000D+00 0.2690000D+00 0.2690000D+00 0.2690000D+00
EXPONENTS  0.8190000D+00 0.8190000D+00 0.8190000D+00 0.8190000D+00 0.8190000D+00
EXPONENTS  0.8190000D+00 0.1010000D+00 0.1010000D+00 0.1010000D+00 0.1010000D+00
EXPONENTS  0.1010000D+00 0.1010000D+00 0.5570000D+00 0.5570000D+00 0.5570000D+00
EXPONENTS  0.5570000D+00 0.5570000D+00 0.5570000D+00 0.5570000D+00 0.5570000D+00
EXPONENTS  0.5570000D+00 0.5570000D+00 0.2180000D+00 0.2180000D+00 0.2180000D+00
EXPONENTS  0.2180000D+00 0.2180000D+00 0.2180000D+00 0.2180000D+00 0.2180000D+00
EXPONENTS  0.2180000D+00 0.2180000D+00
MO    1     MO 0.0        OCC NO =    2.0000000  ORB. ENERGY =  -92.023121
 -0.41328922D+00 -0.77262018D+00 -0.13353289D+01 -0.21598346D+01 -0.32644635D+01
 -0.44957019D+01 -0.52544332D+01 -0.45402267D+01 -0.21175779D+01 -0.28752133D+00
 -0.76991129D-03 -0.15102477D-02 -0.68949115D-04  0.10669624D-04  0.19925977D-04
  0.34564690D-04  0.56045449D-04  0.86288350D-04  0.12289399D-03  0.15802572D-03
  0.16587998D-03  0.11728890D-03 -0.25974119D-05 -0.84273592D-04 -0.46403327D-04
  0.19623888D-06 -0.52146678D-05 -0.97313416D-05 -0.16902175D-04 -0.27377774D-04
 -0.42290649D-04 -0.60291674D-04 -0.78419774D-04 -0.83574340D-04 -0.61985350D-04
  0.19293738D-05  0.56155498D-04  0.55013006D-04 -0.25694336D-04  0.27368081D-03
  0.10069350D-04  0.32276796D-06 -0.13984588D-14 -0.18347018D-14 -0.20123883D-14
 -0.16558250D-14 -0.87298366D-15 -0.22710909D-15  0.25131936D-18 -0.45560718D-15
 -0.59773181D-15 -0.65562069D-15 -0.53945509D-15 -0.28441139D-15 -0.73990402D-16
  0.81877923D-19  0.74234958D-03  0.97392223D-03  0.10682442D-02  0.87896829D-03
  0.46340946D-03  0.12055724D-03 -0.13340888D-06  0.45304662D-15  0.59485297D-15
  0.66924970D-15  0.56389347D-15  0.31543410D-15  0.78510906D-16 -0.36008884D-16
  0.16537125D-15  0.21713346D-15  0.24428978D-15  0.20583261D-15  0.11513988D-15
  0.28658081D-16 -0.13143977D-16 -0.23295638D-03 -0.30587315D-03 -0.34412791D-03
 -0.28995379D-03 -0.16219608D-03 -0.40370275D-04  0.18515753D-04  0.53738339D-16
  0.87876336D-16 -0.46768130D-04 -0.11181606D-17  0.32451228D-16 -0.57814062D-05
  0.13797919D-18  0.74458527D-18 -0.13656030D-06 -0.72779752D-06 -0.83200566D-06
  0.15598032D-05  0.33213159D-06 -0.39898184D-17 -0.22271415D-16 -0.21574364D-05
  0.21702584D-05 -0.12822056D-07 -0.13793198D-04 -0.10558514D-16 -0.17244497D-15
 -0.63989570D-06 -0.63088929D-06  0.12707850D-05 -0.28705174D-07  0.11871248D-17
 -0.12018644D-16 -0.37144466D-17 -0.31109209D-17  0.18735350D-05 -0.37101059D-17
 -0.31288344D-17 -0.30424977D-05  0.14853446D-16  0.12461597D-16 -0.25781073D-05
 -0.14801016D-05  0.46126118D-18 -0.31726400D-17 -0.11269659D-05  0.46118169D-18
 -0.31718552D-17  0.16919452D-05 -0.18449652D-17  0.12689775D-16  0.16889526D-05
  0.95379326D-08 -0.41328888D+00 -0.77261955D+00 -0.13353278D+01 -0.21598328D+01
 -0.32644608D+01 -0.44956982D+01 -0.52544289D+01 -0.45402230D+01 -0.21175762D+01
 -0.28752110D+00 -0.76991066D-03 -0.15102464D-02 -0.68949058D-04  0.10669612D-04
  0.19925956D-04  0.34564653D-04  0.56045390D-04  0.86288258D-04  0.12289386D-03
  0.15802555D-03  0.16587981D-03  0.11728878D-03 -0.25974091D-05 -0.84273503D-04
 -0.46403278D-04  0.19623868D-06 -0.52146624D-05 -0.97313316D-05 -0.16902158D-04
 -0.27377746D-04 -0.42290605D-04 -0.60291612D-04 -0.78419693D-04 -0.83574254D-04
 -0.61985286D-04  0.19293718D-05  0.56155440D-04  0.55012950D-04 -0.25694310D-04
  0.27368057D-03  0.10069361D-04  0.32277310D-06 -0.13079205D-14 -0.17159205D-14
 -0.18821033D-14 -0.15486244D-14 -0.81646541D-15 -0.21240571D-15  0.23504857D-18
 -0.98041596D-15 -0.12862523D-14 -0.14108228D-14 -0.11608473D-14 -0.61202167D-15
 -0.15921911D-15  0.17619218D-18 -0.74234847D-03 -0.97392076D-03 -0.10682426D-02
 -0.87896697D-03 -0.46340877D-03 -0.12055706D-03  0.13340868D-06  0.74126392D-16
  0.97328404D-16  0.10950102D-15  0.92262886D-16  0.51610565D-16  0.12845764D-16
 -0.58916865D-17  0.48312930D-15  0.63435171D-15  0.71368845D-15  0.60133648D-15
  0.33637919D-15  0.83724096D-16 -0.38399905D-16  0.23295573D-03  0.30587230D-03
  0.34412696D-03  0.28995298D-03  0.16219563D-03  0.40370162D-04 -0.18515702D-04
  0.26716935D-16  0.27583028D-16  0.46768058D-04  0.52880901D-17 -0.26653639D-16
  0.57814125D-05  0.11190319D-18 -0.48456447D-18  0.13656052D-06 -0.72780436D-06
 -0.83201245D-06  0.15598168D-05  0.33213143D-06 -0.83675763D-17 -0.36487039D-16
 -0.21574362D-05  0.21702549D-05 -0.12818750D-07 -0.13793186D-04 -0.50824378D-16
  0.38317265D-16 -0.63989579D-06 -0.63088940D-06  0.12707852D-05 -0.28705130D-07
  0.24024068D-17 -0.10885893D-16 -0.16912400D-17 -0.17308631D-17 -0.18735285D-05
 -0.17037773D-17 -0.17259228D-17  0.30424878D-05  0.67774971D-17  0.69185122D-17
  0.25780977D-05  0.14801008D-05  0.16864974D-18  0.36783783D-17  0.11269668D-05
  0.16950472D-18  0.36787285D-17 -0.16919464D-05 -0.67545395D-18 -0.14713863D-16
 -0.16889538D-05 -0.95379189D-08
MO    2     MO 0.0        OCC NO =    2.0000000  ORB. ENERGY =  -92.023117
  0.41329096D+00  0.77262344D+00  0.13353345D+01  0.21598437D+01  0.32644772D+01
  0.44957208D+01  0.52544553D+01  0.45402458D+01  0.21175868D+01  0.28752254D+00
  0.76991453D-03  0.15102540D-02  0.68949405D-04 -0.13648047D-04 -0.25488309D-04
 -0.44213416D-04 -0.71690526D-04 -0.11037573D-03 -0.15719983D-03 -0.20213857D-03
 -0.21218535D-03 -0.15003008D-03  0.33224789D-05  0.10779855D-03  0.59356807D-04
 -0.25101893D-06  0.64133946D-05  0.11968343D-04  0.20787579D-04  0.33671266D-04
  0.52012252D-04  0.74151281D-04  0.96446595D-04  0.10278607D-03  0.76234292D-04
 -0.23728904D-05 -0.69064297D-04 -0.67659174D-04  0.31600847D-04 -0.30110784D-03
  0.15593269D-04  0.70413836D-05 -0.13954569D-14 -0.18307634D-14 -0.20080684D-14
 -0.16522705D-14 -0.87110969D-15 -0.22662157D-15  0.25077987D-18 -0.46200672D-15
 -0.60612766D-15 -0.66482966D-15 -0.54703238D-15 -0.28840629D-15 -0.75029685D-16
  0.83027996D-19 -0.13715952D-02 -0.17994582D-02 -0.19737314D-02 -0.16240175D-02
 -0.85621413D-03 -0.22274645D-03  0.24649165D-06  0.45228619D-15  0.59385452D-15
  0.66812638D-15  0.56294699D-15  0.31490465D-15  0.78379127D-16 -0.35948444D-16
  0.16691813D-15  0.21916452D-15  0.24657486D-15  0.20775796D-15  0.11621689D-15
  0.28926148D-16 -0.13266925D-16  0.79994334D-03  0.10503305D-02  0.11816926D-02
  0.99566536D-03  0.55696125D-03  0.13862652D-03 -0.63580802D-04  0.53472192D-16
  0.88399067D-16  0.89215426D-04 -0.11251098D-17  0.32449469D-16 -0.85613464D-05
  0.13778390D-18  0.74361472D-18 -0.30558289D-06 -0.85078073D-05 -0.84456143D-05
  0.16953422D-04 -0.19822120D-06 -0.40144204D-17 -0.22206869D-16  0.30813683D-06
 -0.42085051D-05  0.39003682D-05  0.14395409D-04 -0.10408888D-16 -0.17278544D-15
 -0.14581093D-06 -0.16269053D-06  0.30850146D-06  0.53798550D-07  0.11897419D-17
 -0.12017033D-16 -0.37243889D-17 -0.31057979D-17 -0.80786536D-05 -0.37230749D-17
 -0.31262723D-17  0.12280443D-04  0.14896242D-16  0.12443666D-16  0.11955518D-04
  0.10355978D-05  0.46192864D-18 -0.31703803D-17 -0.10481209D-05  0.46134816D-18
 -0.31698340D-17  0.15695642D-05 -0.18471341D-17  0.12680975D-16  0.15747985D-05
 -0.16682755D-07 -0.41329130D+00 -0.77262407D+00 -0.13353356D+01 -0.21598454D+01
 -0.32644799D+01 -0.44957245D+01 -0.52544596D+01 -0.45402495D+01 -0.21175886D+01
 -0.28752278D+00 -0.76991516D-03 -0.15102553D-02 -0.68949462D-04  0.13648056D-04
  0.25488326D-04  0.44213445D-04  0.71690572D-04  0.11037580D-03  0.15719993D-03
  0.20213870D-03  0.21218548D-03  0.15003017D-03 -0.33224810D-05 -0.10779862D-03
 -0.59356845D-04  0.25101909D-06 -0.64133988D-05 -0.11968351D-04 -0.20787593D-04
 -0.33671289D-04 -0.52012287D-04 -0.74151330D-04 -0.96446659D-04 -0.10278614D-03
 -0.76234342D-04  0.23728920D-05  0.69064343D-04  0.67659219D-04 -0.31600868D-04
  0.30110807D-03 -0.15593261D-04 -0.70413834D-05 -0.13079952D-14 -0.17160184D-14
 -0.18822107D-14 -0.15487128D-14 -0.81651199D-15 -0.21241783D-15  0.23506198D-18
 -0.97990822D-15 -0.12855862D-14 -0.14100921D-14 -0.11602462D-14 -0.61170472D-15
 -0.15913666D-15  0.17610093D-18 -0.13715958D-02 -0.17994590D-02 -0.19737323D-02
 -0.16240182D-02 -0.85621451D-03 -0.22274655D-03  0.24649176D-06  0.74250078D-16
  0.97490805D-16  0.10968373D-15  0.92416834D-16  0.51696681D-16  0.12867199D-16
 -0.59015173D-17  0.48277794D-15  0.63389037D-15  0.71316941D-15  0.60089915D-15
  0.33613456D-15  0.83663208D-16 -0.38371978D-16  0.79994353D-03  0.10503307D-02
  0.11816929D-02  0.99566560D-03  0.55696138D-03  0.13862655D-03 -0.63580817D-04
  0.26738665D-16  0.27548707D-16  0.89215464D-04  0.52911099D-17 -0.26641013D-16
 -0.85613417D-05  0.11217742D-18 -0.48473812D-18 -0.30558278D-06  0.85078067D-05
  0.84456136D-05 -0.16953420D-04  0.19822147D-06 -0.83808812D-17 -0.36443880D-16
 -0.30813860D-06  0.42085068D-05 -0.39003682D-05 -0.14395421D-04 -0.50783542D-16
  0.38272706D-16  0.14581041D-06  0.16269001D-06 -0.30850042D-06 -0.53798573D-07
  0.24037559D-17 -0.10882888D-16 -0.16898760D-17 -0.17364502D-17 -0.80786552D-05
 -0.17008188D-17 -0.17229308D-17  0.12280445D-04  0.67704468D-17  0.69322814D-17
  0.11955520D-04  0.10355990D-05  0.16930376D-18  0.36755734D-17 -0.10481200D-05
  0.17024796D-18  0.36757415D-17  0.15695628D-05 -0.67815923D-18 -0.14702462D-16
  0.15747971D-05 -0.16682763D-07
MO    3     MO 0.0        OCC NO =    2.0000000  ORB. ENERGY =   -9.021329
  0.61764658D-04  0.11546544D-03  0.19956033D-03  0.32277988D-03  0.48786288D-03
  0.67186724D-03  0.78525704D-03  0.67852133D-03  0.31646476D-03  0.42969078D-04
  0.11506060D-06  0.22570134D-06  0.10304209D-07  0.11411311D+00  0.21311109D+00
  0.36967416D+00  0.59941388D+00  0.92286590D+00  0.13143683D+01  0.16901071D+01
  0.17741095D+01  0.12544211D+01 -0.27779681D-01 -0.90131779D+00 -0.49629004D+00
  0.20988022D-02  0.38277849D-04  0.71432129D-04  0.12406906D-03  0.20096435D-03
  0.31043110D-03  0.44256618D-03  0.57563403D-03  0.61347071D-03  0.45499847D-03
 -0.14162413D-04 -0.41220491D-03 -0.40381854D-03  0.18860721D-03 -0.28869390D-01
 -0.30028542D-03  0.14037175D-04  0.58618438D-14  0.76904199D-14  0.84352185D-14
  0.69406314D-14  0.36592382D-14  0.95196082D-15 -0.10534417D-17  0.92780724D-14
  0.12172326D-13  0.13351186D-13  0.10985567D-13  0.57918084D-14  0.15067548D-14
 -0.16673778D-17  0.25523500D-01  0.33485443D-01  0.36728427D-01  0.30220732D-01
  0.15932967D-01  0.41450051D-02 -0.45868707D-05 -0.30328666D-15 -0.39821723D-15
 -0.44802124D-15 -0.37749177D-15 -0.21116360D-15 -0.52558191D-16  0.24105719D-16
 -0.87922893D-15 -0.11544329D-14 -0.12988149D-14 -0.10943497D-14 -0.61216391D-15
 -0.15236635D-15  0.69882550D-16  0.14152447D-02  0.18582249D-02  0.20906283D-02
  0.17615124D-02  0.98536535D-03  0.24525543D-03 -0.11248596D-03  0.10864260D-15
  0.93084357D-16  0.12285651D-02 -0.17535861D-16 -0.98219032D-18  0.49096092D-04
  0.16897263D-18  0.52126751D-18  0.10879118D-05  0.17781156D-04 -0.16428531D-04
 -0.13526250D-05  0.10903284D-03  0.11543243D-16  0.48247199D-17  0.82363253D-05
  0.32802146D-03 -0.33625778D-03 -0.10192167D-02 -0.28448550D-16 -0.47860795D-16
  0.48997376D-05  0.68571824D-05 -0.11756920D-04 -0.62387527D-05  0.43871680D-17
 -0.20879448D-18 -0.22962919D-17  0.34607425D-17  0.93249200D-05 -0.16337111D-17
  0.40492337D-17 -0.79158533D-05  0.85225868D-17 -0.14431461D-16 -0.20058907D-04
  0.38702209D-04  0.12194750D-17 -0.60005410D-18  0.82223340D-05  0.12276747D-17
 -0.59555686D-18 -0.11212846D-04 -0.48860998D-17  0.23957192D-17 -0.13454156D-04
  0.71434847D-05  0.61764657D-04  0.11546544D-03  0.19956033D-03  0.32277987D-03
  0.48786288D-03  0.67186724D-03  0.78525703D-03  0.67852132D-03  0.31646476D-03
  0.42969078D-04  0.11506060D-06  0.22570134D-06  0.10304209D-07  0.11411311D+00
  0.21311109D+00  0.36967416D+00  0.59941387D+00  0.92286590D+00  0.13143683D+01
  0.16901071D+01  0.17741095D+01  0.12544211D+01 -0.27779681D-01 -0.90131779D+00
 -0.49629004D+00  0.20988022D-02  0.38277849D-04  0.71432128D-04  0.12406906D-03
  0.20096434D-03  0.31043110D-03  0.44256617D-03  0.57563403D-03  0.61347071D-03
  0.45499846D-03 -0.14162413D-04 -0.41220491D-03 -0.40381854D-03  0.18860721D-03
 -0.28869390D-01 -0.30028541D-03  0.14037176D-04 -0.52636102D-14 -0.69055700D-14
 -0.75743578D-14 -0.62323016D-14 -0.32857927D-14 -0.85480795D-15  0.94593214D-18
 -0.62701198D-14 -0.82260557D-14 -0.90227293D-14 -0.74240447D-14 -0.39141032D-14
 -0.10182646D-14  0.11268136D-17 -0.25523500D-01 -0.33485443D-01 -0.36728427D-01
 -0.30220732D-01 -0.15932967D-01 -0.41450050D-02  0.45868707D-05 -0.27254867D-15
 -0.35785807D-15 -0.40261445D-15 -0.33923312D-15 -0.18976225D-15 -0.47231438D-16
  0.21662613D-16  0.24401609D-15  0.32039462D-15  0.36046555D-15  0.30371948D-15
  0.16989642D-15  0.42286872D-16 -0.19394797D-16 -0.14152447D-02 -0.18582249D-02
 -0.20906283D-02 -0.17615124D-02 -0.98536535D-03 -0.24525543D-03  0.11248596D-03
 -0.89063862D-17 -0.27014822D-16 -0.12285651D-02  0.12137409D-16  0.94797635D-18
 -0.49096091D-04  0.88857705D-18 -0.27547184D-18 -0.10879118D-05  0.17781156D-04
 -0.16428531D-04 -0.13526249D-05  0.10903284D-03  0.14419718D-16 -0.10946220D-16
  0.82363257D-05  0.32802146D-03 -0.33625778D-03 -0.10192167D-02 -0.22936713D-17
  0.40546849D-16  0.48997375D-05  0.68571824D-05 -0.11756920D-04 -0.62387526D-05
  0.45953114D-17  0.27440806D-17  0.15473588D-17 -0.75531654D-18 -0.93249199D-05
  0.15175191D-17 -0.42855864D-18  0.79158531D-05 -0.61595953D-17  0.26945083D-17
  0.20058907D-04 -0.38702209D-04 -0.12082106D-17  0.11586376D-18 -0.82223340D-05
 -0.12408157D-17  0.10732001D-18  0.11212846D-04  0.48654474D-17 -0.45491130D-18
  0.13454156D-04 -0.71434847D-05
MO    4     MO 0.0        OCC NO =    2.0000000  ORB. ENERGY =   -9.020914
  0.98125761D-04  0.18344041D-03  0.31704230D-03  0.51280169D-03  0.77506973D-03
  0.10673982D-02  0.12475410D-02  0.10779696D-02  0.50276885D-03  0.68265148D-04
  0.18279725D-06  0.35857263D-06  0.16370338D-07  0.11405887D+00  0.21300979D+00
  0.36949844D+00  0.59912894D+00  0.92242721D+00  0.13137435D+01  0.16893037D+01
  0.17732662D+01  0.12538248D+01 -0.27766476D-01 -0.90088935D+00 -0.49605412D+00
  0.20978045D-02  0.84633591D-04  0.15793880D-03  0.27432079D-03  0.44433882D-03
  0.68637344D-03  0.97852847D-03  0.12727459D-02  0.13564040D-02  0.10060167D-02
 -0.31313563D-04 -0.91139870D-03 -0.89285616D-03  0.41701678D-03 -0.29119178D-01
 -0.13935120D-03  0.11361849D-03 -0.23824352D-14 -0.31256252D-14 -0.34283344D-14
 -0.28208879D-14 -0.14872279D-14 -0.38690640D-15  0.42815138D-18 -0.11040991D-14
 -0.14485179D-14 -0.15888034D-14 -0.13072926D-14 -0.68923050D-15 -0.17930520D-15
  0.19841948D-18  0.19045683D-01  0.24986898D-01  0.27406819D-01  0.22550765D-01
  0.11889209D-01  0.30930103D-02 -0.34227313D-05  0.69029042D-15  0.90635552D-15
  0.10197111D-14  0.85918367D-15  0.48061530D-15  0.11962417D-15 -0.54865408D-16
 -0.30263754D-16 -0.39736493D-16 -0.44706234D-16 -0.37668382D-16 -0.21071165D-16
 -0.52445700D-17  0.24054125D-17  0.76820898D-02  0.10086631D-01  0.11348140D-01
  0.95616656D-02  0.53486617D-02  0.13312710D-02 -0.61058503D-03 -0.10087806D-15
 -0.43198598D-17  0.13050421D-02  0.12012334D-16  0.10341812D-17 -0.64918767D-04
 -0.46001417D-18 -0.93368798D-18 -0.56132303D-05 -0.60161326D-04 -0.10475572D-03
  0.16491705D-03  0.14213091D-03 -0.33301773D-17 -0.15859181D-18 -0.83755143D-04
  0.23734983D-03 -0.15359468D-03 -0.10234232D-02  0.28303092D-16  0.37328127D-16
 -0.25704156D-05  0.21296244D-06  0.23574532D-05 -0.88711606D-05 -0.29096955D-17
  0.81598878D-18  0.29447808D-17 -0.32556186D-17 -0.10788291D-04  0.31715812D-17
 -0.36734171D-17  0.17545672D-04 -0.12005924D-16  0.13440273D-16  0.14819202D-04
  0.86897598D-05 -0.72969325D-18  0.89714944D-18 -0.13199344D-04 -0.71527068D-18
  0.88661835D-18  0.18687595D-04  0.29043504D-17 -0.35780667D-17  0.20910439D-04
 -0.70846313D-05 -0.98125761D-04 -0.18344041D-03 -0.31704230D-03 -0.51280169D-03
 -0.77506973D-03 -0.10673982D-02 -0.12475410D-02 -0.10779696D-02 -0.50276885D-03
 -0.68265148D-04 -0.18279725D-06 -0.35857263D-06 -0.16370338D-07 -0.11405887D+00
 -0.21300979D+00 -0.36949844D+00 -0.59912894D+00 -0.92242721D+00 -0.13137435D+01
 -0.16893037D+01 -0.17732662D+01 -0.12538248D+01  0.27766476D-01  0.90088935D+00
  0.49605412D+00 -0.20978045D-02 -0.84633591D-04 -0.15793880D-03 -0.27432079D-03
 -0.44433882D-03 -0.68637344D-03 -0.97852847D-03 -0.12727459D-02 -0.13564040D-02
 -0.10060167D-02  0.31313563D-04  0.91139870D-03  0.89285616D-03 -0.41701678D-03
  0.29119178D-01  0.13935120D-03 -0.11361849D-03 -0.45493281D-15 -0.59684708D-15
 -0.65465027D-15 -0.53865662D-15 -0.28399042D-15 -0.73880885D-16  0.81756732D-19
 -0.93756820D-15 -0.12300384D-14 -0.13491647D-14 -0.11101141D-14 -0.58527409D-15
 -0.15226066D-15  0.16849194D-18  0.19045683D-01  0.24986898D-01  0.27406819D-01
  0.22550765D-01  0.11889209D-01  0.30930103D-02 -0.34227313D-05  0.21539759D-15
  0.28281835D-15  0.31818971D-15  0.26809889D-15  0.14997076D-15  0.37327417D-16
 -0.17120152D-16 -0.28301693D-15 -0.37160295D-15 -0.41807837D-15 -0.35226264D-15
 -0.19705078D-15 -0.49045538D-16  0.22494647D-16  0.76820898D-02  0.10086631D-01
  0.11348140D-01  0.95616656D-02  0.53486617D-02  0.13312710D-02 -0.61058503D-03
 -0.44179470D-16 -0.35271400D-16  0.13050421D-02 -0.75511202D-17  0.94977530D-19
 -0.64918767D-04 -0.65326876D-18  0.58511760D-18 -0.56132303D-05  0.60161326D-04
  0.10475572D-03 -0.16491705D-03 -0.14213091D-03 -0.10004257D-16  0.15426241D-16
  0.83755143D-04 -0.23734983D-03  0.15359468D-03  0.10234232D-02 -0.49385315D-17
 -0.41820236D-16  0.25704156D-05 -0.21296245D-06 -0.23574531D-05  0.88711606D-05
 -0.26998608D-17 -0.22010465D-17 -0.46570166D-18  0.21871890D-17 -0.10788291D-04
 -0.90289627D-18  0.12691005D-17  0.17545672D-04  0.23000013D-17 -0.78306676D-17
  0.14819202D-04  0.86897600D-05  0.55331380D-18 -0.57205622D-18 -0.13199344D-04
  0.60311205D-18 -0.55748556D-18  0.18687594D-04 -0.22630535D-17  0.22736542D-17
  0.20910439D-04 -0.70846313D-05
MO    5     MO 0.0        OCC NO =    2.0000000  ORB. ENERGY =   -6.701374
 -0.89614718D-04 -0.16752951D-03 -0.28954330D-03 -0.46832329D-03 -0.70784323D-03
 -0.97481628D-03 -0.11393342D-02 -0.98447072D-03 -0.45916065D-03 -0.62344097D-04
 -0.16694213D-06 -0.32747145D-06 -0.14950440D-07  0.61984510D-03  0.11575871D-02
  0.20080140D-02  0.32559252D-02  0.50128676D-02  0.71394494D-02  0.91804051D-02
  0.96366936D-02  0.68138252D-02 -0.15089501D-03 -0.48958215D-02 -0.26957722D-02
  0.11400375D-04  0.49731042D-04  0.92805482D-04  0.16119201D-03  0.26109530D-03
  0.40331582D-03  0.57498731D-03  0.74787067D-03  0.79702853D-03  0.59113949D-03
 -0.18399977D-04 -0.53554158D-03 -0.52464591D-03  0.24504076D-03  0.52761313D-03
 -0.28866375D-03  0.66557207D-04  0.16395300D-09  0.21509741D-09  0.23592907D-09
  0.19412618D-09  0.10234716D-09  0.26625894D-10 -0.29464266D-13  0.13116156D-09
  0.17207683D-09  0.18874205D-09  0.15529995D-09  0.81877205D-10  0.21300579D-10
 -0.23571262D-13 -0.68598906D+01 -0.89998030D+01 -0.98714121D+01 -0.81223543D+01
 -0.42822658D+01 -0.11140432D+01  0.12328023D-02  0.23032079D-12  0.30241260D-12
  0.34023456D-12  0.28667334D-12  0.16036105D-12  0.39913538D-13 -0.18306272D-13
  0.17186522D-12  0.22566008D-12  0.25388280D-12  0.21391546D-12  0.11966131D-12
  0.29783456D-13 -0.13660128D-13 -0.26933721D-02 -0.35364139D-02 -0.39787041D-02
 -0.33523590D-02 -0.18752626D-02 -0.46674906D-03  0.21407361D-03  0.13024774D-11
  0.10350762D-11 -0.53382786D-01  0.36031435D-14  0.27841088D-14 -0.20897475D-03
 -0.30324490D-15 -0.23506994D-15  0.69676930D-06  0.49027067D-04  0.41834392D-04
 -0.90861459D-04  0.22924447D-04  0.10182936D-13  0.79508841D-14 -0.56154662D-03
 -0.55666693D-03  0.11182136D-02 -0.15552585D-04 -0.24157204D-13 -0.19592723D-13
 -0.16954970D-04 -0.16855816D-04  0.33810786D-04 -0.31602286D-06 -0.18348130D-15
 -0.13111527D-15 -0.44180296D-16 -0.12891337D-14  0.11043934D-04  0.25698353D-14
  0.54600717D-14 -0.54523358D-04 -0.24372944D-14 -0.15926708D-14  0.21391556D-04
 -0.24195541D-03  0.48845706D-15  0.48094570D-15 -0.19163366D-05  0.27120918D-15
 -0.83132217D-16  0.54457539D-05 -0.17365804D-14 -0.13597049D-14  0.30325581D-06
  0.16390126D-04 -0.89614722D-04 -0.16752951D-03 -0.28954331D-03 -0.46832331D-03
 -0.70784326D-03 -0.97481631D-03 -0.11393343D-02 -0.98447076D-03 -0.45916067D-03
 -0.62344099D-04 -0.16694214D-06 -0.32747146D-06 -0.14950440D-07  0.61984510D-03
  0.11575871D-02  0.20080140D-02  0.32559253D-02  0.50128676D-02  0.71394495D-02
  0.91804052D-02  0.96366936D-02  0.68138253D-02 -0.15089501D-03 -0.48958215D-02
 -0.26957722D-02  0.11400375D-04  0.49731039D-04  0.92805476D-04  0.16119200D-03
  0.26109528D-03  0.40331580D-03  0.57498727D-03  0.74787061D-03  0.79702848D-03
  0.59113945D-03 -0.18399976D-04 -0.53554154D-03 -0.52464587D-03  0.24504074D-03
  0.52761312D-03 -0.28866369D-03  0.66557231D-04 -0.78392275D-10 -0.10284640D-09
 -0.11280682D-09 -0.92819240D-10 -0.48936139D-10 -0.12730870D-10  0.14088006D-13
 -0.59352964D-10 -0.77867856D-10 -0.85409170D-10 -0.70276019D-10 -0.37050907D-10
 -0.96388948D-11  0.10666420D-13  0.68598906D+01  0.89998030D+01  0.98714121D+01
  0.81223543D+01  0.42822658D+01  0.11140432D+01 -0.12328023D-02 -0.15394696D-12
 -0.20213330D-12 -0.22741359D-12 -0.19161314D-12 -0.10718571D-12 -0.26678304D-13
  0.12235956D-13 -0.11567815D-12 -0.15188611D-12 -0.17088212D-12 -0.14398110D-12
 -0.80541011D-13 -0.20046494D-13  0.91942879D-14  0.26933718D-02  0.35364136D-02
  0.39787038D-02  0.33523587D-02  0.18752625D-02  0.46674901D-03 -0.21407359D-03
 -0.62634394D-12 -0.47311392D-12  0.53382786D-01 -0.14363378D-14 -0.99618929D-15
  0.20897478D-03  0.16593472D-15  0.12295266D-15 -0.69676807D-06  0.49027062D-04
  0.41834387D-04 -0.90861450D-04  0.22924447D-04  0.96948439D-14  0.74825312D-14
 -0.56154662D-03 -0.55666693D-03  0.11182136D-02 -0.15552585D-04 -0.14786675D-13
 -0.11398466D-13 -0.16954971D-04 -0.16855817D-04  0.33810788D-04 -0.31602286D-06
 -0.11025552D-15 -0.67869748D-16 -0.31781924D-15  0.36349194D-15 -0.11043932D-04
 -0.14874500D-14 -0.28987572D-14  0.54523355D-04  0.24409078D-14  0.18082813D-14
 -0.21391558D-04  0.24195541D-03 -0.56222014D-15 -0.49556038D-15  0.19163374D-05
 -0.44026353D-15 -0.16189581D-15 -0.54457552D-05  0.21269240D-14  0.16485769D-14
 -0.30325712D-06 -0.16390126D-04
MO    6     MO 0.0        OCC NO =    2.0000000  ORB. ENERGY =   -6.701302
  0.74420473D-15  0.13912475D-14  0.24045101D-14  0.38891871D-14  0.58782786D-14
  0.80953542D-14  0.94615922D-14  0.81755295D-14  0.38130961D-14  0.51773607D-15
  0.13863696D-17  0.27194841D-17  0.12415581D-18 -0.49541755D-14 -0.92521338D-14
 -0.16049258D-13 -0.26023316D-13 -0.40065858D-13 -0.57062782D-13 -0.73375330D-13
 -0.77022262D-13 -0.54460197D-13  0.12060439D-14  0.39130355D-13  0.21546236D-13
 -0.91118666D-16 -0.36636705D-15 -0.68369511D-15 -0.11874966D-14 -0.19234810D-14
 -0.29712152D-14 -0.42359137D-14 -0.55095400D-14 -0.58716845D-14 -0.43549063D-14
  0.13555206D-15  0.39453182D-14  0.38650501D-14 -0.18052076D-14 -0.41709476D-14
  0.17153101D-14 -0.62824792D-15  0.55258746D+01  0.72496466D+01  0.79517573D+01
  0.65428319D+01  0.34495104D+01  0.89739956D+00 -0.99306411D-03  0.40577085D+01
  0.53234925D+01  0.58390599D+01  0.48044710D+01  0.25330121D+01  0.65897004D+00
 -0.72921753D-03  0.54028034D-10  0.70881839D-10  0.77746573D-10  0.63971112D-10
  0.33726836D-10  0.87741286D-11 -0.97094678D-14  0.46837216D-02  0.61497549D-02
  0.69188890D-02  0.58296871D-02  0.32610452D-02  0.81166752D-03 -0.37226983D-03
  0.34393043D-02  0.45158275D-02  0.50806104D-02  0.42807984D-02  0.23946186D-02
  0.59601570D-03 -0.27336152D-03  0.17436133D-13  0.22893749D-13  0.25757011D-13
  0.21702229D-13  0.12139923D-13  0.30216020D-14 -0.13858523D-14  0.43505157D-01
  0.31946299D-01  0.42056233D-12  0.13960969D-03  0.10251686D-03  0.18516271D-14
 -0.87404880D-05 -0.64182326D-05 -0.39639133D-17 -0.32213361D-15 -0.30078592D-15