 Molden2AIM, Version 4.0.0 (06/02/2016)           Time: Sun Jun 24 19:48:01 2018
GAUSSIAN             34 MOL ORBITALS    378 PRIMITIVES        2 NUCLEI
  Se   1    (CENTRE  1)   0.00000000  0.00000000  2.04500114  CHARGE = 34.0
  Se   2    (CENTRE  2)   0.00000000  0.00000000 -2.04500114  CHARGE = 34.0
CENTRE ASSIGNMENTS    1  1  1  1  1  1  1  1  1  1  1  1  1  1  1  1  1  1  1  1
CENTRE ASSIGNMENTS    1  1  1  1  1  1  1  1  1  1  1  1  1  1  1  1  1  1  1  1
CENTRE ASSIGNMENTS    1  1  1  1  1  1  1  1  1  1  1  1  1  1  1  1  1  1  1  1
CENTRE ASSIGNMENTS    1  1  1  1  1  1  1  1  1  1  1  1  1  1  1  1  1  1  1  1
CENTRE ASSIGNMENTS    1  1  1  1  1  1  1  1  1  1  1  1  1  1  1  1  1  1  1  1
CENTRE ASSIGNMENTS    1  1  1  1  1  1  1  1  1  1  1  1  1  1  1  1  1  1  1  1
CENTRE ASSIGNMENTS    1  1  1  1  1  1  1  1  1  1  1  1  1  1  1  1  1  1  1  1
CENTRE ASSIGNMENTS    1  1  1  1  1  1  1  1  1  1  1  1  1  1  1  1  1  1  1  1
CENTRE ASSIGNMENTS    1  1  1  1  1  1  1  1  1  1  1  1  1  1  1  1  1  1  1  1
CENTRE ASSIGNMENTS    1  1  1  1  1  1  1  1  1  2  2  2  2  2  2  2  2  2  2  2
CENTRE ASSIGNMENTS    2  2  2  2  2  2  2  2  2  2  2  2  2  2  2  2  2  2  2  2
CENTRE ASSIGNMENTS    2  2  2  2  2  2  2  2  2  2  2  2  2  2  2  2  2  2  2  2
CENTRE ASSIGNMENTS    2  2  2  2  2  2  2  2  2  2  2  2  2  2  2  2  2  2  2  2
CENTRE ASSIGNMENTS    2  2  2  2  2  2  2  2  2  2  2  2  2  2  2  2  2  2  2  2
CENTRE ASSIGNMENTS    2  2  2  2  2  2  2  2  2  2  2  2  2  2  2  2  2  2  2  2
CENTRE ASSIGNMENTS    2  2  2  2  2  2  2  2  2  2  2  2  2  2  2  2  2  2  2  2
CENTRE ASSIGNMENTS    2  2  2  2  2  2  2  2  2  2  2  2  2  2  2  2  2  2  2  2
CENTRE ASSIGNMENTS    2  2  2  2  2  2  2  2  2  2  2  2  2  2  2  2  2  2  2  2
CENTRE ASSIGNMENTS    2  2  2  2  2  2  2  2  2  2  2  2  2  2  2  2  2  2
TYPE ASSIGNMENTS      1  1  1  1  1  1  1  1  1  1  1  1  1  1  1  1  1  1  1  1
TYPE ASSIGNMENTS      1  1  1  1  1  2  2  2  2  2  2  2  2  2  2  3  3  3  3  3
TYPE ASSIGNMENTS      3  3  3  3  3  4  4  4  4  4  4  4  4  4  4  2  2  2  2  2
TYPE ASSIGNMENTS      3  3  3  3  3  4  4  4  4  4  2  3  4  2  3  4  2  3  4  2
TYPE ASSIGNMENTS      3  4  2  3  4  2  3  4  5  5  5  5  5  5  5  6  6  6  6  6
TYPE ASSIGNMENTS      6  6  7  7  7  7  7  7  7  8  8  8  8  8  8  8  9  9  9  9
TYPE ASSIGNMENTS      9  9  9 10 10 10 10 10 10 10  5  6  7  8  9 10  5  6  7  8
TYPE ASSIGNMENTS      9 10  5  6  7  8  9 10  5  6  7  8  9 10 11 12 13 17 14 15
TYPE ASSIGNMENTS     18 19 16 20 11 12 13 17 14 15 18 19 16 20 21 22 23 24 25 26
TYPE ASSIGNMENTS     27 28 29 30 31 32 33 34 35  1  1  1  1  1  1  1  1  1  1  1
TYPE ASSIGNMENTS      1  1  1  1  1  1  1  1  1  1  1  1  1  1  2  2  2  2  2  2
TYPE ASSIGNMENTS      2  2  2  2  3  3  3  3  3  3  3  3  3  3  4  4  4  4  4  4
TYPE ASSIGNMENTS      4  4  4  4  2  2  2  2  2  3  3  3  3  3  4  4  4  4  4  2
TYPE ASSIGNMENTS      3  4  2  3  4  2  3  4  2  3  4  2  3  4  2  3  4  5  5  5
TYPE ASSIGNMENTS      5  5  5  5  6  6  6  6  6  6  6  7  7  7  7  7  7  7  8  8
TYPE ASSIGNMENTS      8  8  8  8  8  9  9  9  9  9  9  9 10 10 10 10 10 10 10  5
TYPE ASSIGNMENTS      6  7  8  9 10  5  6  7  8  9 10  5  6  7  8  9 10  5  6  7
TYPE ASSIGNMENTS      8  9 10 11 12 13 17 14 15 18 19 16 20 11 12 13 17 14 15 18
TYPE ASSIGNMENTS     19 16 20 21 22 23 24 25 26 27 28 29 30 31 32 33 34 35
EXPONENTS  0.9520447D+07 0.1424984D+07 0.3241276D+06 0.9177488D+05 0.2993273D+05
EXPONENTS  0.1080462D+05 0.4214013D+04 0.1747812D+04 0.7621216D+03 0.3464560D+03
EXPONENTS  0.1631157D+03 0.2614515D+04 0.8186855D+03 0.3186340D+03 0.1390484D+03
EXPONENTS  0.7834873D+02 0.3170429D+02 0.1550586D+02 0.7322742D+01 0.3496948D+01
EXPONENTS  0.1612155D+01 0.4958716D+00 0.2409214D+00 0.1023174D+00 0.4031630D-01
EXPONENTS  0.2536022D+05 0.5993790D+04 0.1943074D+04 0.7423532D+03 0.3146211D+03
EXPONENTS  0.1433475D+03 0.6867362D+02 0.3401355D+02 0.1719810D+02 0.8583033D+01
EXPONENTS  0.2536022D+05 0.5993790D+04 0.1943074D+04 0.7423532D+03 0.3146211D+03
EXPONENTS  0.1433475D+03 0.6867362D+02 0.3401355D+02 0.1719810D+02 0.8583033D+01
EXPONENTS  0.2536022D+05 0.5993790D+04 0.1943074D+04 0.7423532D+03 0.3146211D+03
EXPONENTS  0.1433475D+03 0.6867362D+02 0.3401355D+02 0.1719810D+02 0.8583033D+01
EXPONENTS  0.2365821D+03 0.9057618D+02 0.3908669D+02 0.9308434D+01 0.4616992D+01
EXPONENTS  0.2365821D+03 0.9057618D+02 0.3908669D+02 0.9308434D+01 0.4616992D+01
EXPONENTS  0.2365821D+03 0.9057618D+02 0.3908669D+02 0.9308434D+01 0.4616992D+01
EXPONENTS  0.2265348D+01 0.2265348D+01 0.2265348D+01 0.1080000D+01 0.1080000D+01
EXPONENTS  0.1080000D+01 0.4793933D+00 0.4793933D+00 0.4793933D+00 0.1961998D+00
EXPONENTS  0.1961998D+00 0.1961998D+00 0.7625634D-01 0.7625634D-01 0.7625634D-01
EXPONENTS  0.2503150D-01 0.2503150D-01 0.2503150D-01 0.5394870D+03 0.1621339D+03
EXPONENTS  0.6266180D+02 0.2707727D+02 0.1248300D+02 0.5886462D+01 0.2751913D+01
EXPONENTS  0.5394870D+03 0.1621339D+03 0.6266180D+02 0.2707727D+02 0.1248300D+02
EXPONENTS  0.5886462D+01 0.2751913D+01 0.5394870D+03 0.1621339D+03 0.6266180D+02
EXPONENTS  0.2707727D+02 0.1248300D+02 0.5886462D+01 0.2751913D+01 0.5394870D+03
EXPONENTS  0.1621339D+03 0.6266180D+02 0.2707727D+02 0.1248300D+02 0.5886462D+01
EXPONENTS  0.2751913D+01 0.5394870D+03 0.1621339D+03 0.6266180D+02 0.2707727D+02
EXPONENTS  0.1248300D+02 0.5886462D+01 0.2751913D+01 0.5394870D+03 0.1621339D+03
EXPONENTS  0.6266180D+02 0.2707727D+02 0.1248300D+02 0.5886462D+01 0.2751913D+01
EXPONENTS  0.1250077D+01 0.1250077D+01 0.1250077D+01 0.1250077D+01 0.1250077D+01
EXPONENTS  0.1250077D+01 0.5117284D+00 0.5117284D+00 0.5117284D+00 0.5117284D+00
EXPONENTS  0.5117284D+00 0.5117284D+00 0.2000000D+00 0.2000000D+00 0.2000000D+00
EXPONENTS  0.2000000D+00 0.2000000D+00 0.2000000D+00 0.6582295D-01 0.6582295D-01
EXPONENTS  0.6582295D-01 0.6582295D-01 0.6582295D-01 0.6582295D-01 0.2840000D+00
EXPONENTS  0.2840000D+00 0.2840000D+00 0.2840000D+00 0.2840000D+00 0.2840000D+00
EXPONENTS  0.2840000D+00 0.2840000D+00 0.2840000D+00 0.2840000D+00 0.7097000D+00
EXPONENTS  0.7097000D+00 0.7097000D+00 0.7097000D+00 0.7097000D+00 0.7097000D+00
EXPONENTS  0.7097000D+00 0.7097000D+00 0.7097000D+00 0.7097000D+00 0.5730000D+00
EXPONENTS  0.5730000D+00 0.5730000D+00 0.5730000D+00 0.5730000D+00 0.5730000D+00
EXPONENTS  0.5730000D+00 0.5730000D+00 0.5730000D+00 0.5730000D+00 0.5730000D+00
EXPONENTS  0.5730000D+00 0.5730000D+00 0.5730000D+00 0.5730000D+00 0.9520447D+07
EXPONENTS  0.1424984D+07 0.3241276D+06 0.9177488D+05 0.2993273D+05 0.1080462D+05
EXPONENTS  0.4214013D+04 0.1747812D+04 0.7621216D+03 0.3464560D+03 0.1631157D+03
EXPONENTS  0.2614515D+04 0.8186855D+03 0.3186340D+03 0.1390484D+03 0.7834873D+02
EXPONENTS  0.3170429D+02 0.1550586D+02 0.7322742D+01 0.3496948D+01 0.1612155D+01
EXPONENTS  0.4958716D+00 0.2409214D+00 0.1023174D+00 0.4031630D-01 0.2536022D+05
EXPONENTS  0.5993790D+04 0.1943074D+04 0.7423532D+03 0.3146211D+03 0.1433475D+03
EXPONENTS  0.6867362D+02 0.3401355D+02 0.1719810D+02 0.8583033D+01 0.2536022D+05
EXPONENTS  0.5993790D+04 0.1943074D+04 0.7423532D+03 0.3146211D+03 0.1433475D+03
EXPONENTS  0.6867362D+02 0.3401355D+02 0.1719810D+02 0.8583033D+01 0.2536022D+05
EXPONENTS  0.5993790D+04 0.1943074D+04 0.7423532D+03 0.3146211D+03 0.1433475D+03
EXPONENTS  0.6867362D+02 0.3401355D+02 0.1719810D+02 0.8583033D+01 0.2365821D+03
EXPONENTS  0.9057618D+02 0.3908669D+02 0.9308434D+01 0.4616992D+01 0.2365821D+03
EXPONENTS  0.9057618D+02 0.3908669D+02 0.9308434D+01 0.4616992D+01 0.2365821D+03
EXPONENTS  0.9057618D+02 0.3908669D+02 0.9308434D+01 0.4616992D+01 0.2265348D+01
EXPONENTS  0.2265348D+01 0.2265348D+01 0.1080000D+01 0.1080000D+01 0.1080000D+01
EXPONENTS  0.4793933D+00 0.4793933D+00 0.4793933D+00 0.1961998D+00 0.1961998D+00
EXPONENTS  0.1961998D+00 0.7625634D-01 0.7625634D-01 0.7625634D-01 0.2503150D-01
EXPONENTS  0.2503150D-01 0.2503150D-01 0.5394870D+03 0.1621339D+03 0.6266180D+02
EXPONENTS  0.2707727D+02 0.1248300D+02 0.5886462D+01 0.2751913D+01 0.5394870D+03
EXPONENTS  0.1621339D+03 0.6266180D+02 0.2707727D+02 0.1248300D+02 0.5886462D+01
EXPONENTS  0.2751913D+01 0.5394870D+03 0.1621339D+03 0.6266180D+02 0.2707727D+02
EXPONENTS  0.1248300D+02 0.5886462D+01 0.2751913D+01 0.5394870D+03 0.1621339D+03
EXPONENTS  0.6266180D+02 0.2707727D+02 0.1248300D+02 0.5886462D+01 0.2751913D+01
EXPONENTS  0.5394870D+03 0.1621339D+03 0.6266180D+02 0.2707727D+02 0.1248300D+02
EXPONENTS  0.5886462D+01 0.2751913D+01 0.5394870D+03 0.1621339D+03 0.6266180D+02
EXPONENTS  0.2707727D+02 0.1248300D+02 0.5886462D+01 0.2751913D+01 0.1250077D+01
EXPONENTS  0.1250077D+01 0.1250077D+01 0.1250077D+01 0.1250077D+01 0.1250077D+01
EXPONENTS  0.5117284D+00 0.5117284D+00 0.5117284D+00 0.5117284D+00 0.5117284D+00
EXPONENTS  0.5117284D+00 0.2000000D+00 0.2000000D+00 0.2000000D+00 0.2000000D+00
EXPONENTS  0.2000000D+00 0.2000000D+00 0.6582295D-01 0.6582295D-01 0.6582295D-01
EXPONENTS  0.6582295D-01 0.6582295D-01 0.6582295D-01 0.2840000D+00 0.2840000D+00
EXPONENTS  0.2840000D+00 0.2840000D+00 0.2840000D+00 0.2840000D+00 0.2840000D+00
EXPONENTS  0.2840000D+00 0.2840000D+00 0.2840000D+00 0.7097000D+00 0.7097000D+00
EXPONENTS  0.7097000D+00 0.7097000D+00 0.7097000D+00 0.7097000D+00 0.7097000D+00
EXPONENTS  0.7097000D+00 0.7097000D+00 0.7097000D+00 0.5730000D+00 0.5730000D+00
EXPONENTS  0.5730000D+00 0.5730000D+00 0.5730000D+00 0.5730000D+00 0.5730000D+00
EXPONENTS  0.5730000D+00 0.5730000D+00 0.5730000D+00 0.5730000D+00 0.5730000D+00
EXPONENTS  0.5730000D+00 0.5730000D+00 0.5730000D+00
MO    1     MO 0.0        OCC NO =    2.0000000  ORB. ENERGY = -460.882800
  0.54596909D+00  0.10224090D+01  0.17716627D+01  0.29032866D+01  0.45464481D+01
  0.68259359D+01  0.97319121D+01  0.12847836D+02  0.14797135D+02  0.13284922D+02
  0.74179278D+01  0.19751783D-03  0.80667038D-03  0.18369919D-02  0.20971115D-02
  0.17880273D+01  0.72988046D-01 -0.60986813D-02  0.15958546D-02 -0.52621020D-03
  0.10447731D-03 -0.21144354D-04  0.85865716D-05 -0.19020997D-05  0.24417522D-06
  0.67395061D-15  0.99054833D-15  0.13971743D-14  0.18333488D-14  0.21804184D-14
  0.22400898D-14  0.18273934D-14  0.10494430D-14  0.33480713D-15  0.40507685D-16
  0.25380198D-15  0.37302901D-15  0.52615963D-15  0.69041789D-15  0.82112027D-15
  0.84359182D-15  0.68817514D-15  0.39520806D-15  0.12608448D-15  0.15254724D-16
 -0.12082379D-03 -0.17758245D-03 -0.25048110D-03 -0.32867712D-03 -0.39089869D-03
 -0.40159638D-03 -0.32760945D-03 -0.18814090D-03 -0.60023190D-04 -0.72620929D-05
  0.13052235D-15  0.29655894D-15  0.31849173D-15 -0.39514715D-15 -0.36554144D-15
 -0.73331652D-16 -0.16661635D-15 -0.17893889D-15  0.22200637D-15  0.20537293D-15
 -0.98266463D-05 -0.22327056D-04 -0.23978311D-04  0.29749474D-04  0.27520547D-04
  0.64231434D-15 -0.69841382D-15 -0.16130767D-04 -0.38899738D-15  0.38467201D-15
  0.31216890D-05  0.12737764D-15 -0.11330624D-15  0.81313597D-06 -0.28648988D-16
  0.12206321D-16 -0.88202143D-07  0.17081835D-17  0.21057115D-17 -0.70233087D-07
 -0.30084064D-18 -0.16572201D-18 -0.88028060D-08 -0.44957051D-04 -0.49644067D-04
 -0.47084007D-04 -0.35597806D-04 -0.20679875D-04 -0.83332206D-05 -0.22668651D-05
  0.30122417D-04  0.33262843D-04  0.31547534D-04  0.23851475D-04  0.13856065D-04
  0.55834790D-05  0.15188597D-05  0.14834634D-04  0.16381225D-04  0.15536473D-04
  0.11746331D-04  0.68238101D-05  0.27497417D-05  0.74800531D-06 -0.56497042D-04
 -0.62387165D-04 -0.59169964D-04 -0.44735379D-04 -0.25988176D-04 -0.10472269D-04
 -0.28487449D-05  0.60002751D-15  0.66258363D-15  0.62841532D-15  0.47511263D-15
  0.27600774D-15  0.11122085D-15  0.30255129D-16  0.54650187D-16  0.60347765D-16
  0.57235733D-16  0.43273006D-16  0.25138638D-16  0.10129936D-16  0.27556211D-17
  0.94752937D-06 -0.80365513D-06 -0.14387424D-06  0.13177599D-05 -0.11823308D-16
 -0.29260561D-17  0.23435153D-06  0.35111424D-06 -0.58546577D-06 -0.87863370D-07
  0.16236985D-17  0.45978312D-17 -0.51319750D-07 -0.65726147D-07  0.11704590D-06
  0.10840744D-07 -0.71451528D-18 -0.49583802D-17 -0.64192475D-08 -0.59296412D-08
  0.12348889D-07 -0.36842368D-09  0.17275288D-18  0.13273343D-18  0.36278910D-19
 -0.76517461D-18 -0.11943963D-06  0.35939396D-19 -0.76460435D-18  0.18141991D-06
 -0.14477613D-18  0.30601282D-17  0.17689899D-06  0.34019795D-08 -0.14487128D-18
  0.30752892D-18  0.41583823D-06 -0.14208175D-18  0.30547170D-18 -0.61408310D-06
  0.57669558D-18 -0.12280585D-17 -0.63343160D-06  0.14559663D-07  0.74319268D-07
  0.73259090D-07  0.19693949D-06 -0.78413594D-10 -0.20960245D-17  0.16739510D-08
  0.10986495D-17  0.27950584D-17 -0.14650581D-17  0.14808339D-06 -0.59399900D-06
 -0.58763793D-06  0.10992257D-17 -0.20971019D-17 -0.47866122D-08  0.54766174D+00
  0.10255787D+01  0.17771553D+01  0.29122876D+01  0.45605433D+01  0.68470981D+01
  0.97620836D+01  0.12887668D+02  0.14843010D+02  0.13326109D+02  0.74409254D+01
  0.19813180D-03  0.80917786D-03  0.18427021D-02  0.21036302D-02  0.17935706D+01
  0.73214400D-01 -0.61176786D-02  0.16008871D-02 -0.52790991D-03  0.10484569D-03
 -0.21259458D-04  0.86459040D-05 -0.18838758D-05  0.24580257D-06 -0.10197150D-14
 -0.14987404D-14 -0.21139822D-14 -0.27739322D-14 -0.32990627D-14 -0.33893480D-14
 -0.27649213D-14 -0.15878504D-14 -0.50657697D-15 -0.61289795D-16  0.10149169D-15
  0.14916883D-15  0.21040351D-15  0.27608798D-15  0.32835394D-15  0.33733999D-15
  0.27519114D-15  0.15803790D-15  0.50419334D-16  0.61001404D-17  0.12119523D-03
  0.17812838D-03  0.25125114D-03  0.32968755D-03  0.39210040D-03  0.40283099D-03
  0.32861660D-03  0.18871930D-03  0.60207716D-04  0.72844184D-05 -0.23055871D-15
 -0.52385086D-15 -0.56259361D-15  0.69800012D-15  0.64570368D-15  0.17715749D-15
  0.40251832D-15  0.43228761D-15 -0.53633172D-15 -0.49614801D-15  0.98554202D-05
  0.22392433D-04  0.24048524D-04 -0.29836585D-04 -0.27601131D-04 -0.90963003D-15
  0.73941482D-15  0.16173355D-04  0.27839367D-15 -0.28979535D-15 -0.31231900D-05
 -0.30466879D-16  0.58510025D-16 -0.83737921D-06  0.10400354D-16 -0.89761138D-17
  0.12972442D-06  0.12137761D-17 -0.60152852D-18  0.72776943D-07 -0.82819994D-19
  0.22719652D-18  0.88280867D-08 -0.45136327D-04 -0.49842034D-04 -0.47271765D-04
 -0.35739760D-04 -0.20762341D-04 -0.83664512D-05 -0.22759047D-05  0.30176722D-04
  0.33322809D-04  0.31604408D-04  0.23894474D-04  0.13881045D-04  0.55935449D-05
  0.15215980D-05  0.14959605D-04  0.16519225D-04  0.15667357D-04  0.11845286D-04
  0.68812958D-05  0.27729063D-05  0.75430673D-06 -0.56672811D-04 -0.62581258D-04
 -0.59354049D-04 -0.44874556D-04 -0.26069029D-04 -0.10504849D-04 -0.28576077D-05
  0.22416410D-15  0.24753442D-15  0.23476950D-15  0.17749719D-15  0.10311365D-15
  0.41550966D-16  0.11303005D-16 -0.15828106D-15 -0.17478272D-15 -0.16576947D-15
 -0.12532981D-15 -0.72807992D-16 -0.29338913D-16 -0.79809908D-17  0.95791926D-06
 -0.79871053D-06 -0.15920872D-06  0.13218575D-05 -0.18039932D-16 -0.59326225D-18
  0.23160722D-06  0.34872589D-06 -0.58033310D-06 -0.88131233D-07  0.42951012D-17
  0.54065660D-17 -0.56808554D-07 -0.71274639D-07  0.12808319D-06  0.10885659D-07
  0.78757306D-18 -0.59876898D-17 -0.64341919D-08 -0.59421848D-08  0.12376377D-07
 -0.37023032D-09  0.33321579D-19  0.30078316D-18  0.14093243D-18  0.78346974D-18
  0.12295627D-06  0.14115478D-18  0.78306026D-18 -0.18669322D-06 -0.56395209D-18
 -0.31334695D-17 -0.18217559D-06 -0.33995037D-08 -0.67335935D-18 -0.33557787D-18
 -0.41649193D-06 -0.67178337D-18 -0.33328517D-18  0.61503327D-06  0.26918614D-17
  0.13400188D-17  0.63444251D-06 -0.14605364D-07  0.74914965D-07  0.73853804D-07
  0.19852733D-06 -0.80908810D-10 -0.14982598D-17  0.16779267D-08  0.31713073D-17
  0.19979497D-17 -0.42286219D-17  0.14927567D-06 -0.59876546D-06 -0.59239849D-06
  0.31719436D-17 -0.14990698D-17 -0.47910536D-08
MO    2     MO 0.0        OCC NO =    2.0000000  ORB. ENERGY = -460.882800
 -0.54766167D+00 -0.10255786D+01 -0.17771551D+01 -0.29122872D+01 -0.45605426D+01
 -0.68470972D+01 -0.97620823D+01 -0.12887666D+02 -0.14843008D+02 -0.13326107D+02
 -0.74409243D+01 -0.19865119D-03 -0.81129907D-03 -0.18475326D-02 -0.21091448D-02
 -0.17935559D+01 -0.73237405D-01  0.61465850D-02 -0.16282540D-02  0.54991054D-03
 -0.11916597D-03  0.37216505D-04 -0.19180552D-04 -0.58829462D-05 -0.52594611D-06
  0.14123392D-14  0.20758053D-14  0.29279357D-14  0.38419883D-14  0.45693117D-14
  0.46943597D-14  0.38295081D-14  0.21992257D-14  0.70162595D-15  0.84888405D-16
  0.98662419D-14  0.14501047D-13  0.20453812D-13  0.26839152D-13  0.31920047D-13
  0.32793601D-13  0.26751968D-13  0.15363230D-13  0.49013801D-14  0.59300877D-15
  0.12018290D-03  0.17664049D-03  0.24915246D-03  0.32693370D-03  0.38882523D-03
  0.39946618D-03  0.32587170D-03  0.18714294D-03  0.59704807D-04  0.72235723D-05
  0.12892926D-15  0.29293929D-15  0.31460438D-15 -0.39032419D-15 -0.36107983D-15
 -0.75240695D-16 -0.17095387D-15 -0.18359721D-15  0.22778586D-15  0.21071941D-15
  0.93108308D-05  0.21155075D-04  0.22719654D-04 -0.28187880D-04 -0.26075952D-04
  0.63904477D-15 -0.68611421D-15  0.13783674D-04 -0.38722263D-15  0.38124829D-15
 -0.49043116D-06  0.12686246D-15 -0.11248833D-15 -0.78321937D-05 -0.28550760D-16
  0.12094612D-16  0.13412721D-04  0.16971047D-17  0.21097509D-17  0.82165216D-06
 -0.29989232D-18 -0.16512120D-18  0.81788477D-08  0.57984659D-04  0.64029874D-04
  0.60727962D-04  0.45913302D-04  0.26672468D-04  0.10748013D-04  0.29237549D-05
 -0.17590757D-04 -0.19424688D-04 -0.18422990D-04 -0.13928679D-04 -0.80916040D-05
 -0.32606155D-05 -0.88697703D-06 -0.40393903D-04 -0.44605186D-04 -0.42304972D-04
 -0.31984622D-04 -0.18580864D-04 -0.74873973D-05 -0.20367779D-05  0.56870240D-04
  0.62799271D-04  0.59560819D-04  0.45030884D-04  0.26159844D-04  0.10541444D-04
  0.28675626D-05  0.59899297D-15  0.66144123D-15  0.62733183D-15  0.47429346D-15
  0.27553186D-15  0.11102909D-15  0.30202965D-16  0.25764438D-16  0.28450520D-16
  0.26983375D-16  0.20400748D-16  0.11851430D-16  0.47756857D-17  0.12991178D-17
 -0.33578367D-05 -0.15960022D-05  0.49538389D-05 -0.13257740D-05 -0.11787743D-16
 -0.21532551D-17  0.88617440D-06  0.77099746D-06 -0.16571719D-05  0.86670088D-07
  0.16206844D-17  0.44637401D-17  0.17730668D-05  0.17923714D-05 -0.35654381D-05
 -0.14526615D-07 -0.71333474D-18 -0.49238165D-17  0.48324382D-08  0.40560722D-08
 -0.88885105D-08  0.58421115D-09  0.17302961D-18  0.13117415D-18  0.35885205D-19
 -0.76115355D-18  0.11361352D-05  0.35752931D-19 -0.76093841D-18 -0.17036749D-05
 -0.14340855D-18  0.30443991D-17 -0.17047308D-05  0.79454841D-09 -0.14371222D-18
  0.30301945D-18 -0.21177039D-06 -0.14274157D-18  0.30499406D-18  0.30783078D-06
  0.57387824D-18 -0.12140524D-17  0.32748039D-06 -0.14786242D-07 -0.19253899D-06
 -0.19221955D-06 -0.51321248D-06  0.80621034D-09 -0.20877166D-17 -0.12869575D-08
  0.10941062D-17  0.27834952D-17 -0.14588276D-17 -0.38536181D-06  0.15405958D-05
  0.15386791D-05  0.10941641D-17 -0.20873357D-17  0.14422414D-08  0.54596902D+00
  0.10224088D+01  0.17716625D+01  0.29032862D+01  0.45464474D+01  0.68259350D+01
  0.97319108D+01  0.12847835D+02  0.14797133D+02  0.13284920D+02  0.74179268D+01
  0.19803883D-03  0.80879817D-03  0.18418374D-02  0.21026431D-02  0.17880126D+01
  0.73011122D-01 -0.61276773D-02  0.16233063D-02 -0.54827905D-03  0.11884200D-03
 -0.37150876D-04  0.19153881D-04  0.58888057D-05  0.52518778D-06 -0.17623251D-14
 -0.25902019D-14 -0.36534951D-14 -0.47940553D-14 -0.57016136D-14 -0.58576493D-14
 -0.47784824D-14 -0.27442066D-14 -0.87549293D-15 -0.10592424D-15 -0.94964806D-14
 -0.13957585D-13 -0.19687256D-13 -0.25833289D-13 -0.30723766D-13 -0.31564581D-13
 -0.25749373D-13 -0.14787456D-13 -0.47176890D-14 -0.57078433D-15  0.11980832D-03
  0.17608995D-03  0.24837591D-03  0.32591473D-03  0.38761335D-03  0.39822114D-03
  0.32485603D-03  0.18655966D-03  0.59518721D-04  0.72010582D-05 -0.22962146D-15
 -0.52172135D-15 -0.56030661D-15  0.69516268D-15  0.64307882D-15  0.18040203D-15
  0.40989021D-15  0.44020471D-15 -0.54615434D-15 -0.50523468D-15  0.92803683D-05
  0.21085861D-04  0.22645321D-04 -0.28095657D-04 -0.25990639D-04 -0.90774406D-15
  0.73087268D-15  0.13733677D-04  0.27795643D-15 -0.28815796D-15 -0.48076631D-06
 -0.30472365D-16  0.58171033D-16 -0.78296389D-05  0.10401525D-16 -0.89112287D-17
  0.13412383D-04  0.12089552D-17 -0.60621918D-18  0.82143083D-06 -0.82177668D-19
  0.22673075D-18  0.81515627D-08 -0.57845219D-04 -0.63875897D-04 -0.60581925D-04
 -0.45802890D-04 -0.26608327D-04 -0.10722166D-04 -0.29167239D-05  0.17497429D-04
  0.19321631D-04  0.18325247D-04  0.13854781D-04  0.80486741D-05  0.32433163D-05
  0.88227118D-06  0.40347790D-04  0.44554266D-04  0.42256678D-04  0.31948110D-04
  0.18559653D-04  0.74788499D-05  0.20344527D-05 -0.56695083D-04 -0.62605853D-04
 -0.59377375D-04 -0.44892192D-04 -0.26079274D-04 -0.10508977D-04 -0.28587307D-05
  0.22380949D-15  0.24714285D-15  0.23439811D-15  0.17721640D-15  0.10295053D-15
  0.41485236D-16  0.11285125D-16 -0.15989364D-15 -0.17656341D-15 -0.16745834D-15
 -0.12660667D-15 -0.73549762D-16 -0.29637819D-16 -0.80623013D-17  0.33548877D-05
  0.15984823D-05 -0.49533699D-05  0.13216886D-05 -0.17991371D-16 -0.49859275D-18
 -0.88689564D-06 -0.77208069D-06  0.16589763D-05 -0.86397695D-07  0.42813911D-17
  0.53685429D-17 -0.17728994D-05 -0.17921593D-05  0.35650587D-05  0.14492988D-07
  0.78451838D-18 -0.59578773D-17 -0.48125463D-08 -0.40376996D-08  0.88502459D-08
 -0.58306791D-09  0.34057845D-19  0.29911259D-18  0.14078386D-18  0.77931473D-18
  0.11357600D-05  0.14097375D-18  0.77882254D-18 -0.17031051D-05 -0.56332532D-18
 -0.31167667D-17 -0.17041750D-05  0.80507529D-09 -0.67364445D-18 -0.33004502D-18
 -0.21048211D-06 -0.67040142D-18 -0.32560348D-18  0.30592836D-06  0.26913348D-17
  0.13157385D-17  0.32551798D-06 -0.14741103D-07  0.19230801D-06  0.19199185D-06
  0.51260038D-06 -0.80596375D-09 -0.14967984D-17  0.12817696D-08  0.31666544D-17
  0.19960380D-17 -0.42225119D-17  0.38490156D-06 -0.15387496D-05 -0.15368527D-05
  0.31675726D-17 -0.14977189D-17 -0.14274177D-08
MO    3     MO 0.0        OCC NO =    2.0000000  ORB. ENERGY =  -60.683632
  0.17280561D+00  0.32360441D+00  0.56075198D+00  0.91892420D+00  0.14390040D+01
  0.21604886D+01  0.30802641D+01  0.40664906D+01  0.46834664D+01  0.42048333D+01
  0.23478610D+01  0.22435214D+00  0.91626275D+00  0.20865614D+01  0.23820202D+01
  0.32370553D+00 -0.30700982D+01 -0.21693269D+01 -0.32152677D+00 -0.28284639D-02
 -0.17598248D-02  0.20455327D-03 -0.70950146D-04  0.15684672D-04 -0.19289940D-05
  0.15961817D-13  0.23460104D-13  0.33090615D-13  0.43420954D-13  0.51640935D-13
  0.53054189D-13  0.43279906D-13  0.24854963D-13  0.79295577D-14  0.95938228D-15
 -0.99632282D-14 -0.14643594D-13 -0.20654876D-13 -0.27102983D-13 -0.32233825D-13
 -0.33115966D-13 -0.27014942D-13 -0.15514252D-13 -0.49495612D-14 -0.59883811D-15
  0.12455143D-01  0.18306120D-01  0.25820891D-01  0.33881743D-01  0.40295865D-01
  0.41398639D-01  0.33771682D-01  0.19394541D-01  0.61875018D-02  0.74861422D-03
  0.21766777D-15  0.49456144D-15  0.53113802D-15 -0.65897372D-15 -0.60960126D-15
 -0.58099902D-16 -0.13200839D-15 -0.14177141D-15  0.17589333D-15  0.16271483D-15
 -0.16889351D-03 -0.38374179D-03 -0.41212241D-03  0.51131312D-03  0.47300387D-03
  0.72791379D-15  0.28207321D-15 -0.22918091D-03 -0.48274385D-15 -0.43400452D-15
  0.10152337D-03  0.21290760D-15  0.19891501D-15 -0.39237066D-04 -0.52765215D-16
 -0.65214964D-16  0.52655267D-05  0.96264224D-17  0.22344809D-16  0.13681130D-06
  0.53799024D-18  0.23376549D-18  0.89768763D-07  0.27440418D-02  0.30301230D-02
  0.28738647D-02  0.21727819D-02  0.12622367D-02  0.50863447D-03  0.13836255D-03
 -0.21188099D-02 -0.23397073D-02 -0.22190526D-02 -0.16777120D-02 -0.97463518D-03
 -0.39274173D-03 -0.10683655D-03 -0.62523193D-03 -0.69041574D-03 -0.65481217D-03
 -0.49506994D-03 -0.28760156D-03 -0.11589273D-03 -0.31526009D-04  0.36592792D-02
  0.40407788D-02  0.38324027D-02  0.28974834D-02  0.16832384D-02  0.67828249D-03
  0.18451148D-03 -0.39400689D-15 -0.43508425D-15 -0.41264769D-15 -0.31198178D-15
 -0.18123994D-15 -0.73032957D-16 -0.19866972D-16  0.12875963D-14  0.14218351D-14
  0.13485135D-14  0.10195420D-14  0.59228373D-15  0.23866831D-15  0.64924342D-16
 -0.43614705D-04  0.38000910D-04  0.56137946D-05 -0.61415463D-04  0.73583080D-17
 -0.59003608D-16  0.50245870D-05 -0.11435441D-04  0.64108542D-05  0.12386115D-04
  0.38344680D-17  0.25350661D-17  0.20892441D-06  0.13673848D-05 -0.15763092D-05
 -0.87173738D-06 -0.31507243D-17  0.42420517D-17  0.59834715D-07  0.13824933D-07
 -0.73659648D-07  0.34622260D-07 -0.16763042D-17 -0.35928332D-17 -0.10512247D-17
  0.13257480D-17  0.14357496D-05 -0.10508317D-17  0.13177456D-17 -0.21141741D-05
  0.42045057D-17 -0.52949895D-17 -0.21930746D-05  0.59372380D-07  0.76140615D-18
 -0.44626107D-17 -0.55925186D-05  0.73292602D-18 -0.43471723D-17  0.93905989D-05
 -0.30171445D-17  0.17735004D-16  0.73869569D-05  0.15077345D-05 -0.74464870D-06
 -0.83941998D-06 -0.21044384D-05  0.31483044D-07 -0.53814499D-18  0.11114694D-06
 -0.30962480D-17  0.70731367D-18  0.41429433D-17 -0.15611092D-05  0.60290013D-05
  0.65976291D-05 -0.31400861D-17 -0.50750604D-18 -0.42788994D-06  0.17281729D+00
  0.32362628D+00  0.56078989D+00  0.91898632D+00  0.14391013D+01  0.21606347D+01
  0.30804723D+01  0.40667655D+01  0.46837830D+01  0.42051175D+01  0.23480197D+01
  0.22436730D+00  0.91632468D+00  0.20867024D+01  0.23821812D+01  0.32372741D+00
 -0.30703057D+01 -0.21694736D+01 -0.32154851D+00 -0.28286439D-02 -0.17599514D-02
  0.20457648D-03 -0.70961325D-04  0.15680902D-04 -0.19291813D-05  0.46069121D-13
  0.67710734D-13  0.95506391D-13  0.12532189D-12  0.14904647D-12  0.15312541D-12
  0.12491480D-12  0.71736586D-13  0.22886351D-13  0.27689766D-14 -0.34774227D-14
 -0.51109905D-14 -0.72090824D-14 -0.94596377D-14 -0.11250433D-13 -0.11558323D-13
 -0.94289091D-14 -0.54148728D-14 -0.17275241D-14 -0.20900989D-15 -0.12455985D-01
 -0.18307358D-01 -0.25822637D-01 -0.33884034D-01 -0.40298590D-01 -0.41401438D-01
 -0.33773965D-01 -0.19395852D-01 -0.61879203D-02 -0.74866484D-03 -0.15919882D-15
 -0.36171455D-15 -0.38846609D-15  0.48196313D-15  0.44585288D-15 -0.11514918D-15
 -0.26162966D-15 -0.28097916D-15  0.34860596D-15  0.32248727D-15  0.16890514D-03
  0.38376822D-03  0.41215079D-03 -0.51134833D-03 -0.47303645D-03  0.11318748D-15
 -0.87446801D-15  0.22919906D-03  0.33309231D-16  0.65001120D-15 -0.10153233D-03
  0.45427447D-16 -0.22634790D-15  0.39243864D-04 -0.22445005D-16  0.63068999D-16
 -0.52741300D-05  0.18830499D-18 -0.21876234D-16 -0.13726089D-06 -0.12549078D-17
 -0.17887319D-18 -0.89769932D-07  0.27442323D-02  0.30303334D-02  0.28740643D-02
  0.21729328D-02  0.12623244D-02  0.50866978D-03  0.13837216D-03 -0.21189481D-02
 -0.23398599D-02 -0.22191973D-02 -0.16778214D-02 -0.97469875D-03 -0.39276735D-03
 -0.10684351D-03 -0.62528426D-03 -0.69047353D-03 -0.65486698D-03 -0.49511138D-03
 -0.28762563D-03 -0.11590243D-03 -0.31528648D-04  0.36595265D-02  0.40410520D-02
  0.38326618D-02  0.28976793D-02  0.16833522D-02  0.67832834D-03  0.18452395D-03
 -0.32055114D-15 -0.35397033D-15 -0.33571668D-15 -0.25381819D-15 -0.14745090D-15
 -0.59417227D-16 -0.16163119D-16  0.12396622D-14  0.13689037D-14  0.12983117D-14
  0.98158696D-15  0.57023446D-15  0.22978328D-15  0.62507368D-16 -0.43618958D-04
  0.38002274D-04  0.56166843D-05 -0.61419689D-04  0.10801880D-16 -0.64074933D-16
  0.50256317D-05 -0.11435571D-04  0.64099398D-05  0.12386999D-04  0.38829481D-17
  0.41300565D-17  0.20998512D-06  0.13685329D-05 -0.15785180D-05 -0.87180313D-06
 -0.18530555D-17  0.42849642D-17  0.59839474D-07  0.13824246D-07 -0.73663720D-07
  0.34626357D-07 -0.17121520D-17 -0.36310369D-17  0.13771682D-17 -0.90928582D-18
 -0.14364356D-05  0.13738719D-17 -0.89783465D-18  0.21151965D-05 -0.55053764D-17
  0.36256921D-17  0.21941103D-05 -0.59382458D-07 -0.25049890D-17 -0.16493128D-18
  0.55927793D-05 -0.25132545D-17 -0.39216508D-18 -0.93910314D-05  0.10028222D-16
  0.88695891D-18 -0.73873064D-05 -0.15077969D-05 -0.74474908D-06 -0.83952278D-06
 -0.21047087D-05  0.31481665D-07 -0.73808224D-18  0.11115195D-06 -0.41720088D-17
  0.97327829D-18  0.55614635D-17 -0.15613105D-05  0.60298050D-05  0.65984472D-05
 -0.41683640D-17 -0.70558817D-18 -0.42790084D-06
MO    4     MO 0.0        OCC NO =    2.0000000  ORB. ENERGY =  -60.683629
  0.17281758D+00  0.32362683D+00  0.56079083D+00  0.91898787D+00  0.14391037D+01
  0.21606383D+01  0.30804775D+01  0.40667723D+01  0.46837909D+01  0.42051246D+01
  0.23480236D+01  0.22436566D+00  0.91631798D+00  0.20866872D+01  0.23821638D+01
  0.32378866D+00 -0.30704250D+01 -0.21693050D+01 -0.32173354D+00 -0.26634651D-02
 -0.18731525D-02  0.34353433D-03 -0.16542428D-03 -0.55921466D-04 -0.27892308D-05
 -0.17666128D-13 -0.25965038D-13 -0.36623840D-13 -0.48057192D-13 -0.57154855D-13
 -0.58719008D-13 -0.47901083D-13 -0.27508832D-13 -0.87762299D-14 -0.10618196D-14
  0.28941931D-13  0.42537807D-13  0.59999828D-13  0.78730774D-13  0.93635226D-13
  0.96197735D-13  0.78475026D-13  0.45066962D-13  0.14377856D-13  0.17395498D-14
  0.12462057D-01  0.18316282D-01  0.25835224D-01  0.33900550D-01  0.40318233D-01
  0.41421619D-01  0.33790428D-01  0.19405306D-01  0.61909365D-02  0.74902977D-03
 -0.26867628D-15 -0.61045755D-15 -0.65560552D-15  0.81339838D-15  0.75245593D-15
  0.12348703D-15  0.28057404D-15  0.30132462D-15 -0.37384822D-15 -0.34583830D-15
 -0.17208839D-03 -0.39100086D-03 -0.41991835D-03  0.52098540D-03  0.48195148D-03
 -0.10204504D-14 -0.10282476D-15 -0.26866643D-03  0.61104946D-15  0.32389181D-15
  0.13261898D-03 -0.25877192D-15 -0.16980314D-15 -0.10067799D-03  0.57806989D-16
  0.62352443D-16  0.12742738D-03 -0.10601820D-16 -0.22485020D-16  0.66793576D-05
 -0.53197366D-18 -0.25028206D-18  0.17489518D-07  0.28189305D-02  0.31128193D-02
  0.29522965D-02  0.22320801D-02  0.12966849D-02  0.52251580D-03  0.14213866D-03
 -0.20445826D-02 -0.22577414D-02 -0.21413136D-02 -0.16189375D-02 -0.94049126D-03
 -0.37898300D-03 -0.10309379D-03 -0.77434785D-03 -0.85507781D-03 -0.81098290D-03
 -0.61314263D-03 -0.35619367D-03 -0.14353280D-03 -0.39044867D-04  0.36597769D-02