 Molden2AIM, Version 4.0.0 (06/02/2016)           Time: Wed Jun 27 19:36:02 2018
GAUSSIAN             14 MOL ORBITALS    262 PRIMITIVES        2 NUCLEI
  Si   1    (CENTRE  1)   0.00000000  0.00000000  1.93453720  CHARGE = 14.0
  Si   2    (CENTRE  2)   0.00000000  0.00000000 -1.93453720  CHARGE = 14.0
CENTRE ASSIGNMENTS    1  1  1  1  1  1  1  1  1  1  1  1  1  1  1  1  1  1  1  1
CENTRE ASSIGNMENTS    1  1  1  1  1  1  1  1  1  1  1  1  1  1  1  1  1  1  1  1
CENTRE ASSIGNMENTS    1  1  1  1  1  1  1  1  1  1  1  1  1  1  1  1  1  1  1  1
CENTRE ASSIGNMENTS    1  1  1  1  1  1  1  1  1  1  1  1  1  1  1  1  1  1  1  1
CENTRE ASSIGNMENTS    1  1  1  1  1  1  1  1  1  1  1  1  1  1  1  1  1  1  1  1
CENTRE ASSIGNMENTS    1  1  1  1  1  1  1  1  1  1  1  1  1  1  1  1  1  1  1  1
CENTRE ASSIGNMENTS    1  1  1  1  1  1  1  1  1  1  1  2  2  2  2  2  2  2  2  2
CENTRE ASSIGNMENTS    2  2  2  2  2  2  2  2  2  2  2  2  2  2  2  2  2  2  2  2
CENTRE ASSIGNMENTS    2  2  2  2  2  2  2  2  2  2  2  2  2  2  2  2  2  2  2  2
CENTRE ASSIGNMENTS    2  2  2  2  2  2  2  2  2  2  2  2  2  2  2  2  2  2  2  2
CENTRE ASSIGNMENTS    2  2  2  2  2  2  2  2  2  2  2  2  2  2  2  2  2  2  2  2
CENTRE ASSIGNMENTS    2  2  2  2  2  2  2  2  2  2  2  2  2  2  2  2  2  2  2  2
CENTRE ASSIGNMENTS    2  2  2  2  2  2  2  2  2  2  2  2  2  2  2  2  2  2  2  2
CENTRE ASSIGNMENTS    2  2
TYPE ASSIGNMENTS      1  1  1  1  1  1  1  1  1  1  1  1  1  1  1  1  1  1  1  1
TYPE ASSIGNMENTS      1  1  1  1  1  1  1  1  1  1  1  1  1  1  1  1  1  1  1  1
TYPE ASSIGNMENTS      1  1  2  2  2  2  2  2  2  3  3  3  3  3  3  3  4  4  4  4
TYPE ASSIGNMENTS      4  4  4  2  2  2  2  2  2  2  3  3  3  3  3  3  3  4  4  4
TYPE ASSIGNMENTS      4  4  4  4  2  3  4  2  3  4  2  3  4  5  6  7  8  9 10  5
TYPE ASSIGNMENTS      6  7  8  9 10  5  6  7  8  9 10 11 12 13 17 14 15 18 19 16
TYPE ASSIGNMENTS     20 11 12 13 17 14 15 18 19 16 20  1  1  1  1  1  1  1  1  1
TYPE ASSIGNMENTS      1  1  1  1  1  1  1  1  1  1  1  1  1  1  1  1  1  1  1  1
TYPE ASSIGNMENTS      1  1  1  1  1  1  1  1  1  1  1  1  1  2  2  2  2  2  2  2
TYPE ASSIGNMENTS      3  3  3  3  3  3  3  4  4  4  4  4  4  4  2  2  2  2  2  2
TYPE ASSIGNMENTS      2  3  3  3  3  3  3  3  4  4  4  4  4  4  4  2  3  4  2  3
TYPE ASSIGNMENTS      4  2  3  4  5  6  7  8  9 10  5  6  7  8  9 10  5  6  7  8
TYPE ASSIGNMENTS      9 10 11 12 13 17 14 15 18 19 16 20 11 12 13 17 14 15 18 19
TYPE ASSIGNMENTS     16 20
EXPONENTS  0.2549000D+06 0.3819000D+05 0.8690000D+04 0.2462000D+04 0.8048000D+03
EXPONENTS  0.2913000D+03 0.1136000D+03 0.4675000D+02 0.1982000D+02 0.7708000D+01
EXPONENTS  0.3340000D+01 0.1402000D+01 0.2070000D+00 0.2549000D+06 0.3819000D+05
EXPONENTS  0.8690000D+04 0.2462000D+04 0.8048000D+03 0.2913000D+03 0.1136000D+03
EXPONENTS  0.4675000D+02 0.1982000D+02 0.7708000D+01 0.3340000D+01 0.1402000D+01
EXPONENTS  0.2070000D+00 0.2549000D+06 0.3819000D+05 0.8690000D+04 0.2462000D+04
EXPONENTS  0.8048000D+03 0.2913000D+03 0.1136000D+03 0.4675000D+02 0.1982000D+02
EXPONENTS  0.7708000D+01 0.3340000D+01 0.1402000D+01 0.2070000D+00 0.4387000D+00
EXPONENTS  0.7944000D-01 0.3300000D-01 0.4815000D+03 0.1139000D+03 0.3623000D+02
EXPONENTS  0.1334000D+02 0.5252000D+01 0.2120000D+01 0.2528000D+00 0.4815000D+03
EXPONENTS  0.1139000D+03 0.3623000D+02 0.1334000D+02 0.5252000D+01 0.2120000D+01
EXPONENTS  0.2528000D+00 0.4815000D+03 0.1139000D+03 0.3623000D+02 0.1334000D+02
EXPONENTS  0.5252000D+01 0.2120000D+01 0.2528000D+00 0.4815000D+03 0.1139000D+03
EXPONENTS  0.3623000D+02 0.1334000D+02 0.5252000D+01 0.2120000D+01 0.2528000D+00
EXPONENTS  0.4815000D+03 0.1139000D+03 0.3623000D+02 0.1334000D+02 0.5252000D+01
EXPONENTS  0.2120000D+01 0.2528000D+00 0.4815000D+03 0.1139000D+03 0.3623000D+02
EXPONENTS  0.1334000D+02 0.5252000D+01 0.2120000D+01 0.2528000D+00 0.8561000D+00
EXPONENTS  0.8561000D+00 0.8561000D+00 0.7889000D-01 0.7889000D-01 0.7889000D-01
EXPONENTS  0.2370000D-01 0.2370000D-01 0.2370000D-01 0.1590000D+00 0.1590000D+00
EXPONENTS  0.1590000D+00 0.1590000D+00 0.1590000D+00 0.1590000D+00 0.4810000D+00
EXPONENTS  0.4810000D+00 0.4810000D+00 0.4810000D+00 0.4810000D+00 0.4810000D+00
EXPONENTS  0.5560000D-01 0.5560000D-01 0.5560000D-01 0.5560000D-01 0.5560000D-01
EXPONENTS  0.5560000D-01 0.3360000D+00 0.3360000D+00 0.3360000D+00 0.3360000D+00
EXPONENTS  0.3360000D+00 0.3360000D+00 0.3360000D+00 0.3360000D+00 0.3360000D+00
EXPONENTS  0.3360000D+00 0.1250000D+00 0.1250000D+00 0.1250000D+00 0.1250000D+00
EXPONENTS  0.1250000D+00 0.1250000D+00 0.1250000D+00 0.1250000D+00 0.1250000D+00
EXPONENTS  0.1250000D+00 0.2549000D+06 0.3819000D+05 0.8690000D+04 0.2462000D+04
EXPONENTS  0.8048000D+03 0.2913000D+03 0.1136000D+03 0.4675000D+02 0.1982000D+02
EXPONENTS  0.7708000D+01 0.3340000D+01 0.1402000D+01 0.2070000D+00 0.2549000D+06
EXPONENTS  0.3819000D+05 0.8690000D+04 0.2462000D+04 0.8048000D+03 0.2913000D+03
EXPONENTS  0.1136000D+03 0.4675000D+02 0.1982000D+02 0.7708000D+01 0.3340000D+01
EXPONENTS  0.1402000D+01 0.2070000D+00 0.2549000D+06 0.3819000D+05 0.8690000D+04
EXPONENTS  0.2462000D+04 0.8048000D+03 0.2913000D+03 0.1136000D+03 0.4675000D+02
EXPONENTS  0.1982000D+02 0.7708000D+01 0.3340000D+01 0.1402000D+01 0.2070000D+00
EXPONENTS  0.4387000D+00 0.7944000D-01 0.3300000D-01 0.4815000D+03 0.1139000D+03
EXPONENTS  0.3623000D+02 0.1334000D+02 0.5252000D+01 0.2120000D+01 0.2528000D+00
EXPONENTS  0.4815000D+03 0.1139000D+03 0.3623000D+02 0.1334000D+02 0.5252000D+01
EXPONENTS  0.2120000D+01 0.2528000D+00 0.4815000D+03 0.1139000D+03 0.3623000D+02
EXPONENTS  0.1334000D+02 0.5252000D+01 0.2120000D+01 0.2528000D+00 0.4815000D+03
EXPONENTS  0.1139000D+03 0.3623000D+02 0.1334000D+02 0.5252000D+01 0.2120000D+01
EXPONENTS  0.2528000D+00 0.4815000D+03 0.1139000D+03 0.3623000D+02 0.1334000D+02
EXPONENTS  0.5252000D+01 0.2120000D+01 0.2528000D+00 0.4815000D+03 0.1139000D+03
EXPONENTS  0.3623000D+02 0.1334000D+02 0.5252000D+01 0.2120000D+01 0.2528000D+00
EXPONENTS  0.8561000D+00 0.8561000D+00 0.8561000D+00 0.7889000D-01 0.7889000D-01
EXPONENTS  0.7889000D-01 0.2370000D-01 0.2370000D-01 0.2370000D-01 0.1590000D+00
EXPONENTS  0.1590000D+00 0.1590000D+00 0.1590000D+00 0.1590000D+00 0.1590000D+00
EXPONENTS  0.4810000D+00 0.4810000D+00 0.4810000D+00 0.4810000D+00 0.4810000D+00
EXPONENTS  0.4810000D+00 0.5560000D-01 0.5560000D-01 0.5560000D-01 0.5560000D-01
EXPONENTS  0.5560000D-01 0.5560000D-01 0.3360000D+00 0.3360000D+00 0.3360000D+00
EXPONENTS  0.3360000D+00 0.3360000D+00 0.3360000D+00 0.3360000D+00 0.3360000D+00
EXPONENTS  0.3360000D+00 0.3360000D+00 0.1250000D+00 0.1250000D+00 0.1250000D+00
EXPONENTS  0.1250000D+00 0.1250000D+00 0.1250000D+00 0.1250000D+00 0.1250000D+00
EXPONENTS  0.1250000D+00 0.1250000D+00
MO    1     MO 0.0        OCC NO =    2.0000000  ORB. ENERGY =  -68.792731
  0.12439448D+00  0.23268717D+00  0.40184028D+00  0.64907680D+00  0.97749631D+00
  0.13293904D+01  0.15133762D+01  0.12260422D+01  0.49767476D+00  0.45381093D-01
 -0.17440055D-02  0.58318287D-03  0.32726901D-04 -0.34865972D-05 -0.65259499D-05
 -0.11286881D-04 -0.18344786D-04 -0.28067372D-04 -0.39829541D-04 -0.49962851D-04
 -0.50941455D-04 -0.31299443D-04  0.68214575D-05  0.24985989D-04  0.11427712D-04
 -0.60658921D-07  0.96838225D-06  0.18112129D-05  0.31365299D-05  0.50926183D-05
  0.78170661D-05  0.11103794D-04  0.14086923D-04  0.14583772D-04  0.93937212D-05
 -0.23104346D-05 -0.94180426D-05 -0.82141718D-05  0.41863696D-05 -0.10334643D-03
  0.19541202D-05 -0.60701697D-05 -0.96868334D-08 -0.12777432D-07 -0.14192589D-07
 -0.12146855D-07 -0.69406156D-08 -0.22523811D-08 -0.15859665D-11 -0.83274707D-08
 -0.10984363D-07 -0.12200929D-07 -0.10442275D-07 -0.59666323D-08 -0.19363022D-08
 -0.13634063D-11 -0.71246947D-04 -0.93978395D-04 -0.10438691D-03 -0.89340482D-04
 -0.51048434D-04 -0.16566330D-04 -0.11664831D-07  0.13076888D-08  0.17882476D-08
  0.19440052D-08  0.17844951D-08  0.97262231D-09  0.41042794D-09 -0.14155162D-09
  0.11504556D-08  0.15732333D-08  0.17102631D-08  0.15699321D-08  0.85567672D-09
  0.36107914D-09 -0.12453182D-09 -0.21060056D-04 -0.28799356D-04 -0.31307801D-04
 -0.28738924D-04 -0.15663881D-04 -0.66098568D-05  0.22796595D-05  0.15360829D-08
  0.12989712D-08  0.17257324D-04  0.64311402D-10  0.66165607D-10  0.26602219D-05
 -0.24671288D-11 -0.18358702D-11  0.46766299D-06  0.12411312D-05  0.12329574D-05
 -0.24740886D-05  0.61574858D-07 -0.11133842D-09 -0.10619608D-09  0.60061545D-06
  0.43758639D-06 -0.10382018D-05  0.12282147D-05  0.40805864D-10  0.97180355D-10
  0.14299324D-06  0.14243702D-06 -0.28543026D-06  0.41903218D-08 -0.28266586D-11
 -0.36893339D-11 -0.88998506D-11 -0.61668121D-11 -0.17259277D-05 -0.10516529D-10
 -0.90505821D-11  0.25757359D-05  0.37216081D-10  0.27551018D-10  0.26020471D-05
 -0.19821426D-06 -0.55179011D-11 -0.51590174D-11  0.42624260D-06 -0.57025314D-11
 -0.54519261D-11 -0.64050269D-06  0.22256235D-10  0.20928978D-10 -0.63822511D-06
 -0.17157114D-07  0.48987134D+00  0.91633304D+00  0.15824660D+01  0.25560951D+01
  0.38494266D+01  0.52352020D+01  0.59597467D+01  0.48282121D+01  0.19598667D+01
  0.17871288D+00 -0.68679759D-02  0.22966017D-02  0.12888008D-03 -0.30181323D-04
 -0.56491127D-04 -0.97703577D-04 -0.15879950D-03 -0.24296194D-03 -0.34477979D-03
 -0.43249761D-03 -0.44096879D-03 -0.27093999D-03  0.59049154D-04  0.21628831D-03
  0.98922660D-04 -0.52508690D-06  0.13391088D-04  0.25046009D-04  0.43372901D-04
  0.70422292D-04  0.10809679D-03  0.15354667D-03  0.19479831D-03  0.20166888D-03
  0.12989927D-03 -0.31949400D-04 -0.13023559D-03 -0.11358809D-03  0.57890406D-04
 -0.42870089D-03 -0.36859310D-04  0.90491874D-05 -0.31802340D-07 -0.41948926D-07
 -0.46594952D-07 -0.39878711D-07 -0.22786375D-07 -0.73946754D-08 -0.52068044D-11
 -0.27758447D-07 -0.36614822D-07 -0.40670072D-07 -0.34807850D-07 -0.19888926D-07
 -0.64543899D-08 -0.45447222D-11  0.49565083D-03  0.65378899D-03  0.72619897D-03
  0.62152396D-03  0.35513380D-03  0.11524866D-03  0.81149907D-07  0.69060200D-08
  0.94438935D-08  0.10266463D-07  0.94240766D-08  0.51365045D-08  0.21675062D-08
 -0.74754661D-09  0.60035836D-08  0.82098233D-08  0.89249049D-08  0.81925960D-08
  0.44652975D-08  0.18842698D-08 -0.64986179D-09 -0.15123408D-03 -0.20681067D-03
 -0.22482402D-03 -0.20637670D-03 -0.11248368D-03 -0.47465953D-04  0.16370432D-04
  0.49583894D-08  0.43319083D-08 -0.52668850D-04  0.93587193D-11 -0.30192461D-11
 -0.39013774D-05 -0.18535569D-11 -0.19088072D-11  0.18209000D-06  0.10818318D-07
  0.16782705D-07 -0.27601023D-07 -0.44927827D-07 -0.11812918D-09 -0.11506082D-09
  0.15177837D-05  0.92104007D-06 -0.24388238D-05  0.44953191D-05 -0.49069683D-10
  0.15613767D-09  0.17388498D-06  0.17320290D-06 -0.34708787D-06  0.51380181D-08
  0.16359824D-11  0.55524118D-12  0.31585675D-10  0.27334882D-10  0.12353144D-05
  0.27025285D-10  0.22261776D-10 -0.18125982D-05 -0.12178231D-09 -0.10426642D-09
 -0.18933451D-05  0.60829356D-06 -0.31317106D-12  0.14476727D-12 -0.14951731D-06
 -0.36912903D-12  0.65192955D-13  0.22267835D-06  0.13086422D-11 -0.49949476D-12
  0.22587357D-06 -0.24069967D-07
MO    2     MO 0.0        OCC NO =    2.0000000  ORB. ENERGY =  -68.792723
  0.48987250D+00  0.91633521D+00  0.15824697D+01  0.25561011D+01  0.38494357D+01
  0.52352144D+01  0.59597608D+01  0.48282235D+01  0.19598713D+01  0.17871331D+00
 -0.68679921D-02  0.22966071D-02  0.12888038D-03 -0.32443207D-04 -0.60724750D-04
 -0.10502579D-03 -0.17070044D-03 -0.26117028D-03 -0.37061868D-03 -0.46491035D-03
 -0.47401638D-03 -0.29124509D-03  0.63474484D-04  0.23249764D-03  0.10633624D-03
 -0.56443857D-06  0.14708410D-04  0.27509861D-04  0.47639626D-04  0.77349949D-04
  0.11873061D-03  0.16865153D-03  0.21396122D-03  0.22150767D-03  0.14267786D-03
 -0.35092361D-04 -0.14304726D-03 -0.12476210D-03  0.63585263D-04 -0.43168242D-03
 -0.42998613D-04  0.13591321D-04 -0.46898624D-07 -0.61861702D-07 -0.68713155D-07
 -0.58808775D-07 -0.33602862D-07 -0.10904861D-07 -0.76784274D-11 -0.40442950D-07
 -0.53346335D-07 -0.59254674D-07 -0.50713649D-07 -0.28977371D-07 -0.94037887D-08
 -0.66214790D-11 -0.52525782D-03 -0.69284213D-03 -0.76957741D-03 -0.65864979D-03
 -0.37634720D-03 -0.12213287D-03 -0.85997279D-07  0.10842627D-07  0.14827152D-07
  0.16118608D-07  0.14796039D-07  0.80644423D-08  0.34030398D-08 -0.11736671D-08
  0.92873988D-08  0.12700398D-07  0.13806612D-07  0.12673748D-07  0.69077074D-08
  0.29149199D-08 -0.10053205D-08  0.18348639D-03  0.25091527D-03  0.27277018D-03
  0.25038876D-03  0.13647204D-03  0.57588580D-04 -0.19861603D-04  0.71796276D-08
  0.61204338D-08  0.50557374D-04 -0.63568881D-10 -0.47871818D-10  0.29942510D-05
 -0.17784096D-11 -0.13415764D-11 -0.46106808D-06 -0.66150043D-06 -0.65027783D-06
  0.13117783D-05 -0.84547879D-07  0.31670015D-09  0.26477744D-09  0.14016241D-05
  0.81120311D-06 -0.22128272D-05  0.44480739D-05 -0.24404704D-09 -0.21350481D-10
  0.12019938D-06  0.11972538D-06 -0.23992476D-06  0.35712652D-08  0.15019945D-11
  0.10024674D-11  0.55641216D-10  0.48771389D-10 -0.46846374D-06  0.51737766D-10
  0.41511111D-10  0.66389931D-06 -0.21866141D-09 -0.18782528D-09  0.74149191D-06
 -0.58454037D-06  0.50313673D-11  0.41239502D-11 -0.61294172D-07  0.50481023D-11
  0.41423200D-11  0.94377161D-07 -0.20142204D-10 -0.16514171D-10  0.89505353D-07
  0.36701706D-07 -0.12439906D+00 -0.23269573D+00 -0.40185507D+00 -0.64910069D+00
 -0.97753228D+00 -0.13294393D+01 -0.15134318D+01 -0.12260873D+01 -0.49769307D+00
 -0.45382763D-01  0.17440697D-02 -0.58320433D-03 -0.32728105D-04  0.12416143D-04
  0.23239601D-04  0.40193783D-04  0.65327729D-04  0.99950892D-04  0.14183722D-03
  0.17792302D-03  0.18140793D-03  0.11146064D-03 -0.24291934D-04 -0.88977761D-04
 -0.40695295D-04  0.21601286D-06 -0.61671760D-05 -0.11534772D-04 -0.19975100D-04
 -0.32432517D-04 -0.49783257D-04 -0.70714896D-04 -0.89713062D-04 -0.92877259D-04
 -0.59824240D-04  0.14714083D-04  0.59979132D-04  0.52312239D-04 -0.26661040D-04
  0.11513580D-03  0.22231890D-04 -0.11818783D-04  0.11191051D-07  0.14761573D-07
  0.16396482D-07  0.14033077D-07  0.80183877D-08  0.26021416D-08  0.18322430D-11
  0.97213448D-08  0.12822955D-07  0.14243153D-07  0.12190131D-07  0.69653431D-08
  0.22604057D-08  0.15916169D-11 -0.18799320D-03 -0.24797272D-03 -0.27543678D-03
 -0.23573506D-03 -0.13469712D-03 -0.43712151D-04 -0.30778987D-07 -0.37705640D-08
 -0.51561977D-08 -0.56053063D-08 -0.51453781D-08 -0.28044400D-08 -0.11834198D-08
  0.40814714D-09 -0.33245091D-08 -0.45462234D-08 -0.49422028D-08 -0.45366837D-08
 -0.24726769D-08 -0.10434221D-08  0.35986364D-09  0.10605490D-03  0.14502872D-03
  0.15766082D-03  0.14472439D-03  0.78880670D-04  0.33286128D-04 -0.11479982D-04
 -0.16633458D-08 -0.14415992D-08  0.89544227D-05  0.12337220D-09  0.10107021D-09
 -0.90867696D-06 -0.20131157D-11 -0.18990292D-11 -0.63092869D-06  0.14060792D-05
  0.13935408D-05 -0.27996200D-05  0.94456523D-07  0.31221171D-09  0.26550932D-09
 -0.14074813D-06 -0.23135764D-08  0.14306171D-06 -0.10428375D-05 -0.13950593D-09
 -0.15644121D-09  0.68293282D-07  0.68030611D-07 -0.13632389D-06  0.19788779D-08
  0.56787364D-11  0.39786443D-11 -0.39817862D-10 -0.35659109D-10  0.12934494D-05
 -0.38712764D-10 -0.34351110D-10 -0.19471229D-05  0.15816635D-09  0.14132844D-09
 -0.19332254D-05 -0.10469409D-06 -0.99973812D-11 -0.83432410D-11 -0.40377547D-06
 -0.10216974D-10 -0.86619297D-11  0.60782615D-06  0.40209118D-10  0.33691653D-10
  0.60350024D-06  0.32589340D-07
MO    3     MO 0.0        OCC NO =    2.0000000  ORB. ENERGY =   -6.143796
  0.17625447D-03  0.32969432D-03  0.56936727D-03  0.91967656D-03  0.13850140D-02
  0.18836125D-02  0.21443018D-02  0.17371785D-02  0.70515509D-03  0.64300445D-04
 -0.24710804D-05  0.82631149D-06  0.46370728D-07  0.94456318D-01  0.17679622D+00
  0.30577586D+00  0.49698339D+00  0.76038053D+00  0.10790325D+01  0.13535567D+01
  0.13800683D+01  0.84794141D+00 -0.18480189D+00 -0.67690198D+00 -0.30959114D+00
  0.16433267D-02  0.12106138D-03  0.22642704D-03  0.39211027D-03  0.63664878D-03
  0.97724300D-03  0.13881301D-02  0.17610632D-02  0.18231762D-02  0.11743470D-02
 -0.28883676D-03 -0.11773875D-02 -0.10268868D-02  0.52335497D-03 -0.13301986D-01
 -0.31015136D-03  0.19488390D-04  0.13964701D-05  0.18420161D-05  0.20460274D-05
  0.17511110D-05  0.10005708D-05  0.32470703D-06  0.22863559D-09  0.11716724D-05
  0.15454963D-05  0.17166667D-05  0.14692247D-05  0.83950320D-06  0.27243709D-06
  0.19183082D-09  0.11399841D-01  0.15036977D-01  0.16702388D-01  0.14294890D-01
  0.81679852D-02  0.26506893D-02  0.18664268D-05 -0.54297990D-08 -0.74251802D-08
 -0.80719188D-08 -0.74095994D-08 -0.40385326D-08 -0.17041832D-08  0.58775211D-09
  0.43320430D-08  0.59240132D-08  0.64399990D-08  0.59115823D-08  0.32220524D-08
  0.13596442D-08 -0.46892481D-09  0.33756638D-03  0.46161768D-03  0.50182492D-03
  0.46064903D-03  0.25107243D-03  0.10594774D-03 -0.36540092D-04  0.52274674D-07
  0.38709783D-07  0.95702971D-03  0.13907845D-08 -0.27447236D-08  0.69353537D-04
  0.62719504D-10 -0.58100284D-10 -0.19773535D-06  0.40876722D-04  0.35514935D-04
 -0.76391658D-04  0.40395009D-04  0.21607077D-08  0.64799327D-08 -0.11039623D-03
 -0.62987355D-04  0.17338358D-03 -0.35716779D-03 -0.18673135D-07 -0.31413378D-07
  0.13177373D-05  0.15419616D-05 -0.28596989D-05 -0.16892436D-05 -0.37176803D-09
  0.74478946D-10  0.87024692D-09  0.54242707D-09  0.27223624D-04  0.86135008D-09
  0.52009130D-09 -0.41958133D-04 -0.34720908D-08 -0.21473725D-08 -0.39712740D-04
 -0.16915135D-04 -0.16828346D-10  0.12062887D-09  0.48011220D-05 -0.32522674D-10
  0.90410732D-10 -0.71954567D-05  0.83007714D-10 -0.45229735D-09 -0.72079093D-05
  0.93476575D-07  0.17774985D-03  0.33249150D-03  0.57419788D-03  0.92747925D-03
  0.13967647D-02  0.18995934D-02  0.21624944D-02  0.17519170D-02  0.71113774D-03
  0.64845980D-04 -0.24920454D-05  0.83332205D-06  0.46764145D-07  0.95131121D-01
  0.17805927D+00  0.30796035D+00  0.50053388D+00  0.76581275D+00  0.10867412D+01
  0.13632266D+01  0.13899276D+01  0.85399917D+00 -0.18612213D+00 -0.68173783D+00
 -0.31180288D+00  0.16550668D-02  0.12226999D-03  0.22868757D-03  0.39602491D-03
  0.64300476D-03  0.98699930D-03  0.14019885D-02  0.17786448D-02  0.18413779D-02
  0.11860711D-02 -0.29172036D-03 -0.11891420D-02 -0.10371387D-02  0.52857988D-03
 -0.13398783D-01 -0.31563937D-03  0.20091266D-04  0.12705385D-05  0.16759058D-05
  0.18615196D-05  0.15931984D-05  0.91034078D-06  0.29542543D-06  0.20801757D-09
  0.11813970D-05  0.15583235D-05  0.17309146D-05  0.14814190D-05  0.84647089D-06
  0.27469826D-06  0.19342297D-09 -0.11458566D-01 -0.15114439D-01 -0.16788429D-01
 -0.14368529D-01 -0.82100619D-02 -0.26643441D-02 -0.18760416D-05 -0.59650196D-07
 -0.81570875D-07 -0.88675758D-07 -0.81399709D-07 -0.44366147D-07 -0.18721662D-07
  0.64568741D-08 -0.62710508D-07 -0.85755814D-07 -0.93225207D-07 -0.85575865D-07
 -0.46642322D-07 -0.19682164D-07  0.67881396D-08 -0.35683387D-03 -0.48796572D-03
 -0.53046789D-03 -0.48694178D-03 -0.26540305D-03 -0.11199499D-03  0.38625713D-04
 -0.12213019D-07 -0.44030949D-08 -0.96474680D-03 -0.16129726D-08  0.25423803D-08
 -0.70299873D-04 -0.44549787D-10  0.74827826D-10  0.22270724D-06  0.40962672D-04
  0.35551067D-04 -0.76513739D-04  0.40765355D-04 -0.43082191D-08  0.82662645D-09
 -0.11182240D-03 -0.64024830D-04  0.17584723D-03 -0.36006126D-03  0.34113787D-07
  0.14724375D-07  0.13307234D-05  0.15562019D-05 -0.28869253D-05 -0.16985521D-05
  0.23994367D-10  0.41960331D-09  0.31579521D-09  0.49195908D-09 -0.27062222D-04
  0.32237006D-09  0.51429224D-09  0.41704885D-04 -0.12697557D-08 -0.19901695D-08
  0.39481781D-04  0.16747859D-04  0.56262403D-10 -0.79833168D-10 -0.48072932D-05
  0.37023073D-10 -0.10204862D-09  0.72091508D-05 -0.20581028D-09  0.34154812D-09
  0.72127289D-05 -0.27287802D-07
MO    4     MO 0.0        OCC NO =    2.0000000  ORB. ENERGY =   -6.143210
 -0.20643683D-03 -0.38615219D-03 -0.66686748D-03 -0.10771648D-02 -0.16221881D-02
 -0.22061681D-02 -0.25114987D-02 -0.20346584D-02 -0.82590803D-03 -0.75311452D-04
  0.28942358D-05 -0.96781162D-06 -0.54311395D-07 -0.95096623D-01 -0.17799469D+00
 -0.30784867D+00 -0.50035236D+00 -0.76553503D+00 -0.10863471D+01 -0.13627322D+01
 -0.13894236D+01 -0.85368947D+00  0.18605464D+00  0.68149060D+00  0.31168981D+00
 -0.16544666D-02 -0.16696893D-03 -0.31229020D-03 -0.54080200D-03 -0.87807170D-03
 -0.13478223D-02 -0.19145214D-02 -0.24288741D-02 -0.25145410D-02 -0.16196699D-02
  0.39836625D-03  0.16238634D-02  0.14162915D-02 -0.72181586D-03  0.13620407D-01
  0.76883078D-03 -0.83015558D-04 -0.13995781D-05 -0.18461156D-05 -0.20505810D-05
 -0.17550083D-05 -0.10027976D-05 -0.32542969D-06 -0.22914444D-09 -0.11895246D-05
 -0.15690442D-05 -0.17428227D-05 -0.14916106D-05 -0.85229430D-06 -0.27658808D-06
 -0.19475365D-09 -0.83542487D-02 -0.11019685D-01 -0.12240163D-01 -0.10475854D-01
 -0.59858187D-02 -0.19425287D-02 -0.13677905D-05  0.28784579D-08  0.39362541D-08
  0.42791047D-08  0.39279943D-08  0.21409164D-08  0.90342561D-09 -0.31158054D-09
  0.13485222D-07  0.18440868D-07  0.20047081D-07  0.18402172D-07  0.10029931D-07
  0.42324383D-08 -0.14597166D-08 -0.26903647D-02 -0.36790391D-02 -0.39994860D-02
 -0.36713191D-02 -0.20010180D-02 -0.84439115D-03  0.29122027D-03 -0.50880075D-07
 -0.37651932D-07 -0.10802813D-02  0.77598848D-08  0.68751194D-08 -0.13295835D-03
  0.25990754D-09  0.22733915D-09  0.34332217D-05 -0.12398813D-04 -0.55268875D-05
  0.17925701D-04 -0.51770749D-04 -0.77516690D-08 -0.81943005D-08  0.20080594D-03
  0.14701100D-03 -0.34781695D-03  0.40527589D-03  0.33404215D-07  0.41578486D-07
 -0.18222283D-05 -0.19952816D-05  0.38175099D-05  0.13037552D-05 -0.85869552D-09
 -0.66783530D-09  0.13117697D-08  0.95786333D-09  0.22511150D-04  0.14473474D-08
  0.11718822D-08 -0.35318846D-04 -0.53826565D-08 -0.40454722D-08 -0.32214605D-04
 -0.23384940D-04 -0.25319014D-09 -0.22398823D-09 -0.93092379D-06 -0.24634287D-09
 -0.21118593D-09  0.20099443D-05  0.10059133D-08  0.88315061D-09  0.78282710D-06
  0.92443206D-05  0.20520665D-03  0.38385105D-03  0.66289352D-03  0.10707458D-02
  0.16125212D-02  0.21930212D-02  0.24965323D-02  0.20225335D-02  0.82098632D-03
  0.74862660D-04 -0.28769887D-05  0.96204429D-06  0.53987745D-07  0.94421461D-01
  0.17673098D+00  0.30566302D+00  0.49679999D+00  0.76009993D+00  0.10786343D+01
  0.13530572D+01  0.13795590D+01  0.84762850D+00 -0.18473370D+00 -0.67665219D+00
 -0.30947689D+00  0.16427203D-02  0.16612707D-03  0.31071562D-03  0.53807527D-03
  0.87364445D-03  0.13410266D-02  0.19048684D-02  0.24166277D-02  0.25018626D-02
  0.16115035D-02 -0.39635768D-03 -0.16156759D-02 -0.14091505D-02  0.71817645D-03
 -0.13525449D-01 -0.76660922D-03  0.82873890D-04  0.12450260D-05  0.16422535D-05
  0.18241402D-05  0.15612069D-05  0.89206107D-06  0.28949326D-06  0.20384056D-09
  0.11437712D-05  0.15086931D-05  0.16757874D-05  0.14342378D-05  0.81951197D-06
  0.26594950D-06  0.18726272D-09 -0.82723766D-02 -0.10911691D-01 -0.12120208D-01
 -0.10373190D-01 -0.59271574D-02 -0.19234918D-02 -0.13543861D-05 -0.52840927D-07
 -0.72259289D-07 -0.78553125D-07 -0.72107661D-07 -0.39301604D-07 -0.16584522D-07
  0.57198005D-08 -0.36845946D-07 -0.50386357D-07 -0.54775045D-07 -0.50280627D-07
 -0.27404984D-07 -0.11564377D-07  0.39884133D-08 -0.26881012D-02 -0.36759438D-02
 -0.39961212D-02 -0.36682303D-02 -0.19993345D-02 -0.84368074D-03  0.29097526D-03
 -0.11402848D-07 -0.40386368D-08 -0.10734745D-02 -0.81272436D-08 -0.70416542D-08
 -0.13247060D-03 -0.23852970D-09 -0.20973566D-09  0.34311510D-05  0.12109657D-04
  0.52754164D-05 -0.17385073D-04  0.51483444D-04 -0.92456872D-08 -0.66541733D-08
 -0.20001738D-03 -0.14655500D-03  0.34657239D-03 -0.40273757D-03  0.45915520D-07
  0.27906991D-07  0.18132282D-05  0.19847104D-05 -0.37979385D-05 -0.12917729D-05
 -0.80450452D-09 -0.79018548D-09 -0.12037935D-08 -0.12036598D-08  0.22704450D-04
 -0.13887483D-08 -0.14679502D-08 -0.35616612D-04  0.50001288D-08  0.50789295D-08
 -0.32496736D-04 -0.23503893D-04  0.28447923D-09  0.24768928D-09 -0.89746250D-06
  0.27901982D-09  0.24200057D-09  0.19597686D-05 -0.11324575D-08 -0.98506840D-09
  0.73261889D-06  0.92446830D-05
MO    5     MO 0.0        OCC NO =    2.0000000  ORB. ENERGY =   -4.245977
  0.10009704D-04  0.18723737D-04  0.32335053D-04  0.52229539D-04  0.78656611D-04
  0.10697262D-03  0.12177748D-03  0.98656460D-04  0.40046606D-04  0.36516997D-05
 -0.14033563D-06  0.46927224D-07  0.26334494D-08 -0.33430293D-03 -0.62572304D-03
 -0.10822121D-02 -0.17589401D-02 -0.26911640D-02 -0.38189477D-02 -0.47905527D-02
 -0.48843835D-02 -0.30010623D-02  0.65405698D-03  0.23957139D-02  0.10957152D-02
 -0.58161164D-05 -0.12578464D-03 -0.23526120D-03 -0.40740865D-03 -0.66148795D-03
 -0.10153706D-02 -0.14422887D-02 -0.18297719D-02 -0.18943084D-02 -0.12201648D-02
  0.30010587D-03  0.12233239D-02  0.10669513D-02 -0.54377392D-03 -0.48643408D-03
 -0.28195658D-04  0.33044619D-04  0.39998027D-04  0.52759459D-04  0.58602799D-04
  0.50155736D-04  0.28658584D-04  0.93003353D-05  0.65486346D-08  0.35546997D-04
  0.46888321D-04  0.52081407D-04  0.44574343D-04  0.25469422D-04  0.82653825D-05
  0.58198944D-08  0.43688129D+01  0.57626893D+01  0.64009322D+01  0.54782958D+01
  0.31302542D+01  0.10158357D+01  0.71527925D-03  0.79682273D-07  0.10896448D-06
  0.11845537D-06  0.10873584D-06  0.59265446D-07  0.25008880D-07 -0.86252593D-08
  0.95735101D-07  0.13091652D-06  0.14231944D-06  0.13064181D-06  0.71205090D-07
  0.30047180D-07 -0.10362908D-07 -0.43848545D-02 -0.59962321D-02 -0.65185083D-02
 -0.59836497D-02 -0.32613321D-02 -0.13762195D-02  0.47464141D-03  0.83401773D-06
  0.80762582D-06  0.10820851D+00 -0.59880368D-08 -0.40182303D-08 -0.11607676D-03
 -0.16219410D-09 -0.12991237D-09 -0.43676767D-05 -0.36025377D-04 -0.37693219D-04
  0.73718596D-04  0.12564726D-04  0.41170808D-08  0.23459524D-08  0.31359928D-03
  0.31441426D-03 -0.62801354D-03 -0.61378331D-05  0.22293858D-08  0.11421871D-07
 -0.40332993D-05 -0.39751118D-05  0.80084111D-05 -0.43827368D-06  0.79799521D-09
  0.58582474D-09 -0.19124502D-08 -0.21067428D-08  0.17457991D-04 -0.13663598D-08
 -0.13824617D-08 -0.22776032D-04  0.71037103D-08  0.77026901D-08 -0.29597940D-04
  0.51396090D-04  0.32523368D-09  0.29133102D-09 -0.74687723D-05  0.25866151D-09
  0.19637070D-09  0.10882157D-04 -0.12343626D-08 -0.10703638D-08  0.11524160D-04
 -0.48368310D-05  0.10140533D-04  0.18968461D-04  0.32757680D-04  0.52912193D-04
  0.79684674D-04  0.10837078D-03  0.12336915D-03  0.99945927D-04  0.40570026D-04
  0.36994284D-05 -0.14216985D-06  0.47540575D-07  0.26678693D-08 -0.33490155D-03
 -0.62684348D-03 -0.10841499D-02 -0.17620897D-02 -0.26959829D-02 -0.38257860D-02
 -0.47991309D-02 -0.48931297D-02 -0.30064362D-02  0.65522816D-03  0.24000038D-02
  0.10976772D-02 -0.58265310D-05 -0.12573871D-03 -0.23517528D-03 -0.40725986D-03
 -0.66124636D-03 -0.10149998D-02 -0.14417619D-02 -0.18291037D-02 -0.18936165D-02
 -0.12197191D-02  0.29999627D-03  0.12228771D-02  0.10665616D-02 -0.54357533D-03
 -0.48712758D-03 -0.27297452D-04  0.33274709D-04  0.33717082D-04  0.44474569D-04
  0.49400321D-04  0.42279712D-04  0.24158287D-04  0.78398909D-05  0.55202935D-08
  0.29381670D-04  0.38755937D-04  0.43048326D-04  0.36843299D-04  0.21051965D-04
  0.68318216D-05  0.48104828D-08 -0.43758785D+01 -0.57720092D+01 -0.64112843D+01
 -0.54871557D+01 -0.31353167D+01 -0.10174786D+01 -0.71643606D-03  0.79162464D-07
  0.10825365D-06  0.11768262D-06  0.10802649D-06  0.58878826D-07  0.24845734D-07
 -0.85689922D-08  0.43569663D-07  0.59580954D-07  0.64770499D-07  0.59455931D-07
  0.32405897D-07  0.13674666D-07 -0.47162265D-08  0.43821718D-02  0.59925636D-02
  0.65145203D-02  0.59799889D-02  0.32593368D-02  0.13753775D-02 -0.47435103D-03
  0.73683496D-06  0.57717469D-06 -0.10838332D+00  0.30392722D-08  0.14443141D-08
  0.11643674D-03  0.71098569D-10  0.50244257D-10  0.43770449D-05 -0.36081287D-04
 -0.37751634D-04  0.73832921D-04  0.12583208D-04  0.64519331D-08  0.44690307D-08
  0.31374226D-03  0.31456981D-03 -0.62831207D-03 -0.62358366D-05 -0.50852629D-07
 -0.35936355D-07 -0.40370627D-05 -0.39792672D-05  0.80163299D-05 -0.43547299D-06
  0.89773637D-10 -0.39531206D-10 -0.18888905D-08 -0.13782412D-08 -0.17432444D-04
 -0.14700558D-08 -0.66152543D-09  0.22725051D-04  0.71367274D-08  0.47962492D-08
  0.29572280D-04 -0.51579129D-04  0.47090398D-10  0.54149192D-10  0.74710859D-05
 -0.13020358D-10 -0.40656819D-10 -0.10884416D-04 -0.12825083D-09 -0.12179076D-09
 -0.11528842D-04  0.48543631D-05
MO    6     MO 0.0        OCC NO =    2.0000000  ORB. ENERGY =   -4.245054
  0.11869235D-08  0.22202099D-08  0.38342026D-08  0.61932367D-08  0.93268871D-08
  0.12684522D-07  0.14440043D-07  0.11698415D-07  0.47486177D-08  0.43300862D-09
 -0.16640617D-10  0.55645026D-11  0.31226728D-12  0.32821915D-07  0.61433588D-07
  0.10625175D-06  0.17269302D-06  0.26421891D-06  0.37494490D-06  0.47033723D-06
  0.47954956D-06  0.29464478D-06 -0.64215420D-07 -0.23521158D-06 -0.10757750D-06
  0.57102724D-09  0.24558338D-08  0.45932665D-08  0.79542931D-08  0.12914966D-07
  0.19824212D-07  0.28159409D-07  0.35724677D-07  0.36984693D-07  0.23822636D-07
 -0.58593013D-08 -0.23884316D-07 -0.20831279D-07  0.10616704D-07  0.28531996D-08
  0.78971711D-08 -0.14884003D-08 -0.32529832D+01 -0.42908525D+01 -0.47660831D+01
 -0.40790953D+01 -0.23307623D+01 -0.75638317D+00 -0.53259123D-03 -0.28497098D+01
 -0.37589140D+01 -0.41752301D+01 -0.35734085D+01 -0.20418169D+01 -0.66261409D+00
 -0.46656571D-03  0.44253270D-04  0.58372344D-04  0.64837335D-04  0.55491620D-04
  0.31707466D-04  0.10289764D-04  0.72453197D-08 -0.41704258D-03 -0.57030037D-03
 -0.61997394D-03 -0.56910366D-03 -0.31018460D-03 -0.13089195D-03  0.45143045D-04
 -0.36534196D-03 -0.49960043D-03 -0.54311599D-03 -0.49855208D-03 -0.27173113D-03
 -0.11466532D-03  0.39546677D-04  0.68410149D-07  0.93549999D-07  0.10169827D-06
  0.93353696D-07  0.50881555D-07  0.21471039D-07 -0.74051010D-08 -0.84455373D-01
 -0.73985428D-01  0.12722296D-05 -0.76622956D-05 -0.67124016D-05  0.41120068D-08
  0.48677544D-06  0.42642286D-06  0.81398312D-10  0.28877867D-08  0.29886531D-08