 Molden2AIM, Version 4.0.0 (06/02/2016)           Time: Sun Jun 24 19:47:13 2018
GAUSSIAN             10 MOL ORBITALS    227 PRIMITIVES        2 NUCLEI
  Si   1    (CENTRE  1)   0.00000000  0.00000000  1.54557865  CHARGE = 14.0
  C    2    (CENTRE  2)   0.00000000  0.00000000 -1.54557865  CHARGE =  6.0
CENTRE ASSIGNMENTS    1  1  1  1  1  1  1  1  1  1  1  1  1  1  1  1  1  1  1  1
CENTRE ASSIGNMENTS    1  1  1  1  1  1  1  1  1  1  1  1  1  1  1  1  1  1  1  1
CENTRE ASSIGNMENTS    1  1  1  1  1  1  1  1  1  1  1  1  1  1  1  1  1  1  1  1
CENTRE ASSIGNMENTS    1  1  1  1  1  1  1  1  1  1  1  1  1  1  1  1  1  1  1  1
CENTRE ASSIGNMENTS    1  1  1  1  1  1  1  1  1  1  1  1  1  1  1  1  1  1  1  1
CENTRE ASSIGNMENTS    1  1  1  1  1  1  1  1  1  1  1  1  1  1  1  1  1  1  1  1
CENTRE ASSIGNMENTS    1  1  1  1  1  1  1  1  2  2  2  2  2  2  2  2  2  2  2  2
CENTRE ASSIGNMENTS    2  2  2  2  2  2  2  2  2  2  2  2  2  2  2  2  2  2  2  2
CENTRE ASSIGNMENTS    2  2  2  2  2  2  2  2  2  2  2  2  2  2  2  2  2  2  2  2
CENTRE ASSIGNMENTS    2  2  2  2  2  2  2  2  2  2  2  2  2  2  2  2  2  2  2  2
CENTRE ASSIGNMENTS    2  2  2  2  2  2  2  2  2  2  2  2  2  2  2  2  2  2  2  2
CENTRE ASSIGNMENTS    2  2  2  2  2  2  2
TYPE ASSIGNMENTS      1  1  1  1  1  1  1  1  1  1  1  1  1  1  1  1  1  1  1  1
TYPE ASSIGNMENTS      1  2  2  2  2  2  2  2  2  3  3  3  3  3  3  3  3  4  4  4
TYPE ASSIGNMENTS      4  4  4  4  4  2  2  3  3  4  4  2  3  4  2  3  4  2  3  4
TYPE ASSIGNMENTS      2  3  4  5  6  7  8  9 10  5  6  7  8  9 10  5  6  7  8  9
TYPE ASSIGNMENTS     10  5  6  7  8  9 10  5  6  7  8  9 10 11 12 13 17 14 15 18
TYPE ASSIGNMENTS     19 16 20 11 12 13 17 14 15 18 19 16 20 21 22 23 24 25 26 27
TYPE ASSIGNMENTS     28 29 30 31 32 33 34 35  1  1  1  1  1  1  1  1  1  1  1  1
TYPE ASSIGNMENTS      1  1  1  1  2  2  2  2  2  3  3  3  3  3  4  4  4  4  4  2
TYPE ASSIGNMENTS      3  4  2  3  4  2  3  4  5  6  7  8  9 10  5  6  7  8  9 10
TYPE ASSIGNMENTS      5  6  7  8  9 10  5  6  7  8  9 10 11 12 13 17 14 15 18 19
TYPE ASSIGNMENTS     16 20 11 12 13 17 14 15 18 19 16 20 21 22 23 24 25 26 27 28
TYPE ASSIGNMENTS     29 30 31 32 33 34 35
EXPONENTS  0.9180707D+06 0.1374853D+06 0.3128777D+05 0.8861611D+04 0.2890694D+04
EXPONENTS  0.1043406D+04 0.4068016D+03 0.1684836D+03 0.7318563D+02 0.3299849D+02
EXPONENTS  0.2787875D+03 0.8591023D+02 0.3299260D+02 0.1503369D+02 0.5725751D+01
EXPONENTS  0.2614652D+01 0.1175783D+01 0.3543233D+00 0.1624834D+00 0.6833246D-01
EXPONENTS  0.3052108D-01 0.1775885D+04 0.4208379D+03 0.1364229D+03 0.5170099D+02
EXPONENTS  0.2155946D+02 0.9555920D+01 0.4352982D+01 0.2009696D+01 0.1775885D+04
EXPONENTS  0.4208379D+03 0.1364229D+03 0.5170099D+02 0.2155946D+02 0.9555920D+01
EXPONENTS  0.4352982D+01 0.2009696D+01 0.1775885D+04 0.4208379D+03 0.1364229D+03
EXPONENTS  0.5170099D+02 0.2155946D+02 0.9555920D+01 0.4352982D+01 0.2009696D+01
EXPONENTS  0.4641815D+02 0.1907642D+01 0.4641815D+02 0.1907642D+01 0.4641815D+02
EXPONENTS  0.1907642D+01 0.9233722D+00 0.9233722D+00 0.9233722D+00 0.3451572D+00
EXPONENTS  0.3451572D+00 0.3451572D+00 0.1365683D+00 0.1365683D+00 0.1365683D+00
EXPONENTS  0.5298706D-01 0.5298706D-01 0.5298706D-01 0.2645000D+01 0.2645000D+01
EXPONENTS  0.2645000D+01 0.2645000D+01 0.2645000D+01 0.2645000D+01 0.6080000D+00
EXPONENTS  0.6080000D+00 0.6080000D+00 0.6080000D+00 0.6080000D+00 0.6080000D+00
EXPONENTS  0.2720000D+00 0.2720000D+00 0.2720000D+00 0.2720000D+00 0.2720000D+00
EXPONENTS  0.2720000D+00 0.1130000D+00 0.1130000D+00 0.1130000D+00 0.1130000D+00
EXPONENTS  0.1130000D+00 0.1130000D+00 0.4401890D-01 0.4401890D-01 0.4401890D-01
EXPONENTS  0.4401890D-01 0.4401890D-01 0.4401890D-01 0.2120000D+00 0.2120000D+00
EXPONENTS  0.2120000D+00 0.2120000D+00 0.2120000D+00 0.2120000D+00 0.2120000D+00
EXPONENTS  0.2120000D+00 0.2120000D+00 0.2120000D+00 0.5410000D+00 0.5410000D+00
EXPONENTS  0.5410000D+00 0.5410000D+00 0.5410000D+00 0.5410000D+00 0.5410000D+00
EXPONENTS  0.5410000D+00 0.5410000D+00 0.5410000D+00 0.4610000D+00 0.4610000D+00
EXPONENTS  0.4610000D+00 0.4610000D+00 0.4610000D+00 0.4610000D+00 0.4610000D+00
EXPONENTS  0.4610000D+00 0.4610000D+00 0.4610000D+00 0.4610000D+00 0.4610000D+00
EXPONENTS  0.4610000D+00 0.4610000D+00 0.4610000D+00 0.6702507D+05 0.1003999D+05
EXPONENTS  0.2284932D+04 0.6471412D+03 0.2110947D+03 0.7617764D+02 0.2963384D+02
EXPONENTS  0.1218779D+02 0.5302601D+02 0.1525850D+02 0.5240396D+01 0.2290502D+01
EXPONENTS  0.6967328D+00 0.2759934D+00 0.1073988D+00 0.4498140D-01 0.1051256D+03
EXPONENTS  0.2488446D+02 0.7863723D+01 0.2840700D+01 0.1122714D+01 0.1051256D+03
EXPONENTS  0.2488446D+02 0.7863723D+01 0.2840700D+01 0.1122714D+01 0.1051256D+03
EXPONENTS  0.2488446D+02 0.7863723D+01 0.2840700D+01 0.1122714D+01 0.4605073D+00
EXPONENTS  0.4605073D+00 0.4605073D+00 0.1893753D+00 0.1893753D+00 0.1893753D+00
EXPONENTS  0.7598379D-01 0.7598379D-01 0.7598379D-01 0.1848000D+01 0.1848000D+01
EXPONENTS  0.1848000D+01 0.1848000D+01 0.1848000D+01 0.1848000D+01 0.6490000D+00
EXPONENTS  0.6490000D+00 0.6490000D+00 0.6490000D+00 0.6490000D+00 0.6490000D+00
EXPONENTS  0.2280000D+00 0.2280000D+00 0.2280000D+00 0.2280000D+00 0.2280000D+00
EXPONENTS  0.2280000D+00 0.7688983D-01 0.7688983D-01 0.7688983D-01 0.7688983D-01
EXPONENTS  0.7688983D-01 0.7688983D-01 0.1419000D+01 0.1419000D+01 0.1419000D+01
EXPONENTS  0.1419000D+01 0.1419000D+01 0.1419000D+01 0.1419000D+01 0.1419000D+01
EXPONENTS  0.1419000D+01 0.1419000D+01 0.4850000D+00 0.4850000D+00 0.4850000D+00
EXPONENTS  0.4850000D+00 0.4850000D+00 0.4850000D+00 0.4850000D+00 0.4850000D+00
EXPONENTS  0.4850000D+00 0.4850000D+00 0.1011000D+01 0.1011000D+01 0.1011000D+01
EXPONENTS  0.1011000D+01 0.1011000D+01 0.1011000D+01 0.1011000D+01 0.1011000D+01
EXPONENTS  0.1011000D+01 0.1011000D+01 0.1011000D+01 0.1011000D+01 0.1011000D+01
EXPONENTS  0.1011000D+01 0.1011000D+01
MO    1     MO 0.0        OCC NO =    2.0000000  ORB. ENERGY =  -68.804917
  0.26657407D+00  0.49887636D+00  0.86407994D+00  0.14127639D+01  0.22016938D+01
  0.32571112D+01  0.44866636D+01  0.54697718D+01  0.53805205D+01  0.35198917D+01
  0.30863004D-02  0.11206031D-01  0.19616934D-01  0.10807350D+01  0.61850922D-01
 -0.38918681D-02  0.13243110D-02 -0.23846333D-03  0.58071560D-04  0.41888859D-05
 -0.28823866D-06  0.62410384D-09  0.89680300D-09  0.11883121D-08  0.13877114D-08
  0.13810697D-08  0.10703813D-08  0.59514603D-09  0.21102813D-09 -0.95608421D-09
 -0.13738406D-08 -0.18204125D-08 -0.21258786D-08 -0.21157039D-08 -0.16397506D-08
 -0.91172283D-09 -0.32328061D-09 -0.25959722D-03 -0.37302698D-03 -0.49428077D-03
 -0.57722131D-03 -0.57445867D-03 -0.44522722D-03 -0.24755216D-03 -0.87777569D-04
  0.20159924D-08 -0.86374582D-09 -0.31723727D-08  0.13591935D-08 -0.94470070D-03
  0.40475414D-03  0.22993489D-09 -0.37295886D-09 -0.21113266D-03 -0.58858728D-10
  0.74345487D-10  0.11849955D-03  0.47727625D-11 -0.76972851D-11 -0.10510232D-04
 -0.67241245D-12 -0.55486492D-12  0.11390101D-05 -0.85676740D-04 -0.60698405D-04
  0.14637514D-03  0.51914496D-04 -0.21032285D-08  0.40336980D-09  0.21819017D-04
  0.17248040D-04 -0.39067056D-04 -0.95002322D-05  0.43430009D-09 -0.11032829D-09
  0.87098254D-05  0.90972324D-05 -0.17807058D-04  0.80517923D-06 -0.17995370D-10
 -0.14765816D-10 -0.48424382D-06 -0.54847994D-06  0.10327238D-05 -0.13350713D-06
  0.47817955D-11 -0.19224830D-14  0.81521420D-07  0.84926256D-07 -0.16644768D-06
  0.70765463D-08 -0.22650380D-12  0.14067616D-12 -0.16922492D-12 -0.35726824D-12
  0.49447573D-06 -0.14590923D-12 -0.42526061D-12 -0.73452456D-06  0.65358399D-12
  0.14970653D-11 -0.74890262D-06 -0.29883097D-07  0.23589660D-10 -0.15691413D-10
  0.21616336D-04  0.22162792D-10 -0.15376133D-10 -0.32969715D-04 -0.92931771D-10
  0.62450372D-10 -0.31879293D-04  0.22663111D-05 -0.12805995D-05 -0.12560082D-05
 -0.33735505D-05  0.34970212D-07 -0.11363582D-10  0.67249958D-07  0.99682269D-11
  0.15321220D-10 -0.12730476D-10 -0.25108285D-05  0.10194425D-04  0.10046878D-04
  0.82867471D-11 -0.11872913D-10 -0.30666051D-06  0.47282602D-06  0.88488277D-06
  0.15289207D-05  0.24846835D-05  0.37920011D-05  0.53207918D-05  0.64610702D-05
  0.61723112D-05 -0.48250623D-05 -0.19270577D-04  0.25764513D-04 -0.20567010D-04
 -0.29879659D-04  0.74288897D-04 -0.15492645D-04 -0.33787455D-05 -0.45835419D-10
 -0.59252294D-10 -0.63803911D-10 -0.59295566D-10 -0.44293941D-10  0.37053073D-10
  0.47899194D-10  0.51578693D-10  0.47934175D-10  0.35806952D-10 -0.30247736D-04
 -0.39101808D-04 -0.42105513D-04 -0.39130364D-04 -0.29230483D-04  0.69709582D-11
 -0.23288391D-12  0.84391803D-04  0.49262035D-11 -0.10087755D-10  0.14468240D-04
  0.45322964D-12  0.31319301D-11 -0.83249025D-05  0.27202045D-04  0.26686780D-04
 -0.53888825D-04 -0.10709176D-05 -0.21225141D-09  0.12344393D-09 -0.30179134D-04
 -0.30387292D-04  0.60566426D-04 -0.43263029D-06  0.47594380D-10 -0.24795940D-10
 -0.37839876D-05 -0.38204409D-05  0.76044285D-05 -0.75763870D-07  0.47569480D-11
 -0.98129435D-11  0.53270749D-06  0.53289676D-06 -0.10656043D-05  0.39336578D-09
  0.11960183D-12  0.93211004D-12  0.15610833D-10 -0.13850300D-10  0.18733710D-04
  0.14732031D-10 -0.11520766D-10 -0.27826223D-04 -0.61564530D-10  0.53071666D-10
 -0.28374906D-04 -0.11403731D-05 -0.95602471D-11  0.64031691D-11  0.96149235D-05
 -0.95676817D-11  0.67011498D-11 -0.14392699D-04  0.38248423D-10 -0.25910657D-10
 -0.14452072D-04 -0.12339916D-06 -0.11084963D-05 -0.11479769D-05 -0.29948689D-05
 -0.10790403D-06 -0.54088730D-10 -0.56207208D-07  0.13497325D-10  0.72264473D-10
 -0.18643680D-10 -0.22151871D-05  0.88661649D-05  0.91030484D-05  0.15439066D-10
 -0.54527228D-10  0.49233372D-06
MO    2     MO 0.0        OCC NO =    2.0000000  ORB. ENERGY =  -11.275222
 -0.43033099D-05 -0.80533697D-05 -0.13948857D-04 -0.22806272D-04 -0.35541981D-04
 -0.52579602D-04 -0.72428287D-04 -0.88298621D-04 -0.86857836D-04 -0.56821673D-04
  0.57828698D-05  0.20996990D-04  0.36756687D-04 -0.21059865D-03  0.35659196D-03
 -0.39137477D-03  0.49747428D-03  0.31132689D-03 -0.14514286D-02 -0.47754141D-03
 -0.15138594D-04  0.49328118D-08  0.70881800D-08  0.93922190D-08  0.10968238D-07
  0.10915743D-07  0.84601138D-08  0.47039341D-08  0.16679309D-08 -0.20244551D-08
 -0.29090310D-08 -0.38546222D-08 -0.45014296D-08 -0.44798853D-08 -0.34720807D-08
 -0.19305224D-08 -0.68452869D-09 -0.32063812D-03 -0.46073939D-03 -0.61050443D-03
 -0.71294735D-03 -0.70953512D-03 -0.54991658D-03 -0.30576082D-03 -0.10841732D-03
  0.31037322D-08 -0.13297847D-08 -0.11262721D-08  0.48254786D-09 -0.11475189D-02
  0.49165099D-03  0.20369919D-08 -0.75966220D-09 -0.90312043D-03 -0.21785846D-08
  0.75318874D-09  0.10128194D-02 -0.41006536D-09  0.84154572D-10  0.72267698D-03
 -0.52318909D-09  0.35595353D-09  0.39196016D-04 -0.17095872D-03 -0.14974133D-03
  0.32070004D-03  0.44097845D-04 -0.43840401D-08  0.15935399D-08  0.66833264D-04
  0.60242981D-04 -0.12707625D-03 -0.13697118D-04  0.11501351D-08 -0.64793326D-09
  0.19923495D-03  0.19629918D-03 -0.39553413D-03 -0.61016422D-05  0.19690475D-08
 -0.71603923D-09  0.27129052D-04  0.26493404D-04 -0.53622455D-04 -0.13211185D-05
  0.15777269D-10  0.52764871D-11 -0.17826440D-06 -0.76282480D-07  0.25454688D-06
  0.21195738D-06  0.91192834D-10 -0.62306735D-10  0.70481658D-10 -0.25143924D-10
  0.34069978D-04  0.70010283D-10 -0.21406659D-10 -0.51783748D-04 -0.28145526D-09
  0.96838430D-10 -0.50426185D-04  0.28215331D-05  0.83473522D-09 -0.39031986D-09
  0.15170352D-03  0.82972104D-09 -0.33629040D-09 -0.22978157D-03 -0.33339267D-08
  0.15072500D-08 -0.22532899D-03  0.92541620D-05 -0.83809235D-05 -0.86121067D-05
 -0.22498345D-04 -0.77918194D-06 -0.10938199D-08 -0.18179239D-06  0.52041004D-09
  0.14552029D-08 -0.67236399D-09 -0.16515944D-04  0.66801485D-04  0.68188584D-04
  0.45586187D-09 -0.10841490D-08  0.28829230D-05 -0.11511427D+00 -0.21543366D+00
 -0.37223120D+00 -0.60492133D+00 -0.92320101D+00 -0.12954006D+01 -0.15730129D+01
 -0.15027116D+01  0.46849331D-03  0.18710922D-02 -0.91667909D+00 -0.23178881D+00
 -0.73305489D-02  0.20391318D-02  0.88550529D-03  0.12577800D-03 -0.72074627D-07
 -0.93172205D-07 -0.10032947D-06 -0.93240249D-07 -0.69650706D-07  0.49229708D-07
  0.63640155D-07  0.68528835D-07  0.63686631D-07  0.47574078D-07 -0.27523624D-02
 -0.35580298D-02 -0.38313489D-02 -0.35606282D-02 -0.26597985D-02  0.29063794D-07
 -0.19265386D-07  0.13044446D-02 -0.59944790D-08  0.43718279D-08  0.73007887D-03
  0.17600858D-08 -0.12026290D-08  0.11444820D-03  0.68141106D-04  0.73175362D-03
 -0.79989473D-03  0.13792401D-02  0.40535862D-07 -0.29955396D-07  0.16034800D-03
 -0.11081627D-03 -0.49531734D-04 -0.56358291D-03 -0.16506716D-07  0.18497684D-07
 -0.10062861D-03 -0.96693119D-04  0.19732173D-03  0.81794536D-05  0.86779958D-09
 -0.42949649D-09 -0.54847012D-06 -0.11970634D-05  0.17455335D-05 -0.13480245D-05
  0.12976714D-09 -0.80431057D-10  0.10624070D-08 -0.11755883D-08 -0.32371955D-03
  0.10471237D-08 -0.28874152D-09  0.49911777D-03 -0.42343448D-08  0.38155065D-08
  0.47204087D-03 -0.56276283D-04 -0.19171443D-09  0.10149849D-10  0.10381066D-03
 -0.13238284D-09 -0.20194252D-09 -0.14233074D-03  0.70752613D-09  0.17149298D-09
 -0.16910125D-03 -0.55639371D-04  0.57894594D-05  0.11691344D-04  0.28922330D-04
  0.17207793D-05 -0.14266140D-08  0.22811925D-04  0.13473513D-10  0.21122967D-08
 -0.52302122D-09  0.34324580D-04 -0.69061337D-04 -0.10447264D-03  0.15286431D-08
 -0.20570482D-08 -0.73598114D-04
MO    3     MO 0.0        OCC NO =    2.0000000  ORB. ENERGY =   -6.158654
  0.71823896D-01  0.13441384D+00  0.23281179D+00  0.38064545D+00  0.59320932D+00
  0.87757376D+00  0.12088560D+01  0.14737379D+01  0.14496907D+01  0.94837556D+00
  0.11854922D+00  0.43043971D+00  0.75351456D+00  0.63868828D+00 -0.60404910D+00
 -0.82476840D+00 -0.27973103D+00 -0.81929641D-02  0.24480888D-02  0.22102609D-03
  0.20902922D-04 -0.25047905D-07 -0.35992466D-07 -0.47691950D-07 -0.55694681D-07
 -0.55428121D-07 -0.42958892D-07 -0.23885707D-07 -0.84694443D-08 -0.13670965D-08
 -0.19644427D-08 -0.26029921D-08 -0.30397753D-08 -0.30252267D-08 -0.23446652D-08
 -0.13036646D-08 -0.46225613D-09  0.11056601D-02  0.15887729D-02  0.21052093D-02
  0.24584644D-02  0.24466980D-02  0.18962836D-02  0.10543585D-02  0.37385666D-03
 -0.26417269D-07  0.11318398D-07  0.15532202D-07 -0.66547246D-08 -0.18118508D-03
  0.77628196D-04  0.33510382D-08 -0.57175811D-08  0.41373680D-03  0.28999002D-09
 -0.45534679D-09 -0.40131787D-03  0.34834020D-09 -0.33479534D-09 -0.54802749D-03
  0.10246517D-09 -0.14821460D-10 -0.16920080D-04 -0.72324403D-02 -0.24927418D-02
  0.97251821D-02  0.98509007D-02 -0.45975843D-06  0.16021453D-06 -0.45430915D-03
 -0.12348581D-03  0.57779496D-03  0.68757711D-03 -0.29670059D-07  0.11321273D-07
 -0.70108144D-05 -0.71679656D-04  0.78690470D-04 -0.13440651D-03  0.50010221D-08
 -0.10288072D-08 -0.22146056D-04 -0.17703205D-04  0.39849261D-04  0.92339407D-05
 -0.43763080D-09  0.17651912D-09  0.89196337D-06  0.55996992D-06 -0.14519333D-05
 -0.69000899D-06  0.15026124D-10 -0.71579645D-11  0.69940591D-10 -0.23920868D-10
 -0.92288325D-05  0.63747706D-10 -0.35970285D-10  0.10497243D-04 -0.27356948D-09
  0.10773289D-09  0.17189254D-04  0.13908546D-04 -0.12088806D-08  0.91706572D-09
 -0.57789757D-04 -0.11882190D-08  0.97160381D-09  0.11398729D-03  0.48148608D-08
 -0.37228010D-08  0.59381981D-04 -0.11349063D-03  0.16132296D-05  0.13013262D-05
  0.41651364D-05 -0.11724003D-05  0.62279050D-09 -0.12410834D-06 -0.47013016D-09
 -0.82719555D-09  0.63796536D-09  0.37517414D-05 -0.13431119D-04 -0.11559699D-04
 -0.50350560D-09  0.61321516D-09  0.38895259D-05  0.57781491D-04  0.10813670D-03
  0.18684107D-03  0.30363964D-03  0.46339979D-03  0.65022498D-03  0.78957219D-03
  0.75428453D-03  0.42485060D-04  0.16967897D-03  0.56873075D-03  0.28824041D-03
  0.22863775D-03 -0.80737673D-03 -0.92811085D-03 -0.10009130D-03 -0.13931216D-08
 -0.18009141D-08 -0.19392559D-08 -0.18022293D-08 -0.13462699D-08  0.18721431D-08
  0.24201540D-08  0.26060643D-08  0.24219214D-08  0.18091816D-08 -0.26095324D-03
 -0.33733908D-03 -0.36325265D-03 -0.33758544D-03 -0.25217720D-03 -0.28049191D-08
  0.23833061D-08 -0.70084155D-03  0.75626734D-10  0.36675417D-09 -0.64471044D-03
 -0.26779463D-09  0.65542979D-10 -0.15306403D-03 -0.62591475D-04 -0.79817473D-04
  0.14240895D-03 -0.35802236D-04  0.48995120D-08 -0.17234651D-08  0.35197506D-03
  0.32369461D-03 -0.67566967D-03 -0.58777578D-04 -0.81778444D-08  0.56570996D-08
  0.71124788D-04  0.68744341D-04 -0.13986913D-03 -0.49474816D-05 -0.21776124D-09
  0.46797122D-09  0.66434971D-05  0.66841388D-05 -0.13327636D-04  0.84468923D-07
 -0.78176674D-10  0.21577753D-10  0.10753430D-08 -0.71684877D-09 -0.51873195D-03
  0.97611436D-09 -0.51483495D-09  0.78795776D-03 -0.42021433D-08  0.26653813D-08
  0.76823809D-03 -0.40984950D-04  0.85559738D-09 -0.56339691D-09 -0.14744024D-03
  0.85648721D-09 -0.52153132D-09  0.23103859D-03 -0.34232793D-08  0.22117220D-08
  0.21128215D-03 -0.41061427D-04 -0.87837283D-04 -0.75007377D-04 -0.21581275D-03
  0.24198423D-04  0.52912985D-08  0.29132436D-04 -0.26592769D-08 -0.70304993D-08
  0.34488830D-08 -0.15890427D-03  0.68592796D-03  0.60894853D-03 -0.23688184D-08
  0.52176024D-08 -0.15999258D-03
MO    4     MO 0.0        OCC NO =    2.0000000  ORB. ENERGY =   -4.260312
  0.95562903D-04  0.17883987D-03  0.30976001D-03  0.50645517D-03  0.78927498D-03
  0.11676267D-02  0.16084032D-02  0.19608331D-02  0.19288378D-02  0.12618296D-02
  0.20374982D-03  0.73979409D-03  0.12950609D-02  0.48766652D-03 -0.29083745D-03
 -0.22094732D-02 -0.23345658D-03  0.10217111D-02 -0.19278534D-02 -0.70881218D-03
  0.15525206D-04 -0.32172908D-03 -0.46230704D-03 -0.61258165D-03 -0.71537313D-03
 -0.71194929D-03 -0.55178765D-03 -0.30680116D-03 -0.10878620D-03  0.20675536D-03
  0.29709612D-03  0.39366830D-03  0.45972602D-03  0.45752573D-03  0.35459976D-03
  0.19716211D-03  0.69910158D-04 -0.33234732D+01 -0.47756488D+01 -0.63279910D+01
 -0.73898308D+01 -0.73544624D+01 -0.56999868D+01 -0.31692673D+01 -0.11237655D+01
  0.73229516D-06 -0.31374964D-06 -0.39350556D-06  0.16859626D-06 -0.13014222D-01
  0.55759039D-02 -0.17184219D-04  0.11017325D-04 -0.17132407D+00 -0.39015782D-06
  0.24864208D-06 -0.29127455D-02  0.13426489D-07 -0.85449392D-08  0.98951919D-03
 -0.87569774D-09  0.67513303D-09  0.23496824D-04  0.12938528D-02  0.43552622D-03
 -0.17293790D-02 -0.17839286D-02  0.63933882D-06 -0.43854296D-06 -0.45542125D-05
 -0.45973243D-04  0.50527456D-04 -0.86084381D-04  0.40311013D-07 -0.32671902D-07
  0.22429527D-03  0.24327271D-03 -0.46756799D-03  0.39442339D-04 -0.29875001D-07
  0.21153437D-07  0.26467885D-04  0.26725300D-04 -0.53193185D-04  0.53500930D-06
 -0.49416568D-09  0.12488077D-09 -0.59662411D-06 -0.38757220D-06  0.98419631D-06
  0.43448953D-06 -0.19884581D-10  0.97108441D-11 -0.26335454D-09  0.11143760D-08
  0.18438782D-04  0.25798492D-09 -0.31609573D-08 -0.18816276D-04  0.53207871D-09
 -0.18217080D-09 -0.36500069D-04 -0.36753670D-04 -0.10473467D-07 -0.87426942D-08
  0.35301411D-03 -0.19376296D-07  0.64482820D-07 -0.67086960D-03  0.50796696D-07
 -0.38254737D-07 -0.38817273D-03  0.58755200D-03 -0.12156274D-04 -0.66471091D-05
 -0.25502224D-04  0.12259755D-04  0.38193966D-08  0.10640533D-04 -0.16440690D-08
 -0.53161992D-08  0.39206334D-08 -0.20096524D-04  0.93034166D-04  0.59979178D-04
 -0.68296932D-08  0.44904078D-08 -0.68700866D-04 -0.17034630D-03 -0.31879909D-03
 -0.55082836D-03 -0.89516361D-03 -0.13661544D-02 -0.19169359D-02 -0.23277471D-02
 -0.22237151D-02 -0.14557090D-03 -0.58138842D-03 -0.17954267D-02 -0.11137348D-02
  0.29618749D-03  0.18440227D-02  0.14145503D-02  0.14435752D-03  0.25579527D-08
  0.33067128D-08  0.35607264D-08  0.33091277D-08  0.24719269D-08 -0.40837474D-08
 -0.52791359D-08 -0.56846662D-08 -0.52829912D-08 -0.39464081D-08  0.14881588D-02
  0.19237704D-02  0.20715498D-02  0.19251754D-02  0.14381110D-02 -0.21183700D-07
  0.13724077D-07  0.21882450D-02 -0.94202582D-08  0.67572307D-08  0.98066098D-03
 -0.41995699D-09  0.46987807D-10  0.21404650D-03 -0.33142375D-03 -0.30555766D-03
  0.63698141D-03  0.53759626D-04  0.32082640D-07 -0.27839029D-07 -0.82113633D-03
 -0.76340316D-03  0.15845395D-02  0.11999157D-03 -0.69774214D-07  0.47334741D-07
 -0.11595230D-03 -0.10785114D-03  0.22380344D-03  0.16837306D-04 -0.10014693D-07
  0.71911675D-08 -0.64948964D-05 -0.73485516D-05  0.13843448D-04 -0.17742214D-05
 -0.27173655D-09  0.11683517D-09  0.15536125D-07 -0.96257163D-08  0.10631053D-02
  0.15736906D-07 -0.10430188D-07 -0.15798993D-02 -0.62345279D-07  0.39307337D-07
 -0.16094166D-02 -0.61348072D-04  0.79861778D-08 -0.51511970D-08  0.23201511D-03
  0.82407805D-08 -0.73296192D-08 -0.37689665D-03 -0.32199314D-07  0.22783210D-07
 -0.31914868D-03  0.12002231D-03  0.11925397D-03  0.97625452D-04  0.28690603D-03
 -0.40695210D-04  0.46936824D-07 -0.49209395D-04 -0.28930658D-07 -0.63223229D-07
  0.43592829D-07  0.21007983D-03 -0.92560365D-03 -0.79583255D-03 -0.43986512D-07
  0.48859214D-07  0.26971382D-03
MO    5     MO 0.0        OCC NO =    2.0000000  ORB. ENERGY =   -4.260004
 -0.10694116D-07 -0.20013356D-07 -0.34664179D-07 -0.56675660D-07 -0.88325054D-07
 -0.13066509D-06 -0.17999088D-06 -0.21943010D-06 -0.21584962D-06 -0.14120702D-06
 -0.22638306D-07 -0.82197298D-07 -0.14389207D-06 -0.55294282D-07  0.33167362D-07
  0.23559455D-06  0.37975176D-07 -0.10014552D-06  0.19160779D-06  0.73007565D-07
 -0.13653225D-08 -0.27998635D+01 -0.40232504D+01 -0.53310227D+01 -0.62255708D+01
 -0.61957746D+01 -0.48019599D+01 -0.26699526D+01 -0.94671742D+00  0.17599548D+01
  0.25289585D+01  0.33510058D+01  0.39133061D+01  0.38945766D+01  0.30184443D+01
  0.16782946D+01  0.59509323D+00  0.38471282D-03  0.55281123D-03  0.73250456D-03
  0.85541916D-03  0.85132504D-03  0.65980914D-03  0.36686252D-03  0.13008289D-03
  0.47550473D-02 -0.20372856D-02 -0.29889540D-02  0.12806083D-02  0.16204238D-05
 -0.69426564D-06 -0.14896426D+00  0.93636833D-01  0.19728823D-04 -0.33198338D-02
  0.20868008D-02  0.34775013D-06  0.12747442D-03 -0.80128554D-04 -0.99869171D-07
 -0.10151353D-04  0.63810096D-05 -0.26053518D-08 -0.14776273D-06 -0.75969284D-07
  0.22373201D-06  0.11232739D-06  0.39807978D-02 -0.25022718D-02 -0.21594886D-08
  0.17372750D-08  0.42221362D-09  0.38232267D-09  0.24829320D-03 -0.15607340D-03
 -0.20911650D-07 -0.23150219D-07  0.44061869D-07 -0.38754530D-08 -0.30369592D-03
  0.19089894D-03 -0.26860074D-08 -0.27115481D-08  0.53975555D-08 -0.15628564D-09
 -0.45645683D-05  0.28692253D-05  0.54940231D-10  0.39479995D-10 -0.94420226D-10
 -0.31621496D-10  0.10920548D-06 -0.68645067D-07 -0.15232689D-05  0.95377278D-05
 -0.15690948D-08  0.26596656D-05 -0.27412494D-04  0.18080309D-08  0.19101412D-05
 -0.12006892D-05  0.28992534D-08  0.31446455D-08 -0.15343418D-03 -0.50161946D-04
 -0.32530464D-07 -0.22490717D-03  0.58119898D-03  0.57515599D-07  0.68520972D-03
 -0.43071314D-03  0.40075792D-07 -0.46457918D-07  0.87958390D-09  0.38921228D-09
  0.17497374D-08 -0.10577330D-08  0.62471546D-04 -0.85437416D-09 -0.28590468D-04
 -0.85030645D-04  0.53449056D-04  0.14428237D-08 -0.67203271D-08 -0.37780974D-08
 -0.74575764D-04  0.67677299D-04  0.57363214D-08  0.19752950D-07  0.36967181D-07
  0.63872739D-07  0.10380103D-06  0.15841600D-06  0.22228331D-06  0.26991999D-06
  0.25785669D-06  0.16310280D-07  0.65140820D-07  0.21143566D-06  0.12423112D-06
 -0.37387103D-07 -0.18878434D-06 -0.14591750D-06 -0.15369544D-07 -0.45961607D-06
 -0.59415421D-06 -0.63979568D-06 -0.59458812D-06 -0.44415886D-06  0.28862824D-06
  0.37311506D-06  0.40177685D-06  0.37338755D-06  0.27892146D-06 -0.17773384D-06
 -0.22975982D-06 -0.24740941D-06 -0.22992762D-06 -0.17175652D-06 -0.26397251D-03
  0.16592925D-03 -0.23473604D-06 -0.11501842D-03  0.72298889D-04 -0.10253550D-06
  0.12306191D-05 -0.77355618D-06 -0.22059979D-07  0.40207072D-07  0.35576700D-07
 -0.75783772D-07 -0.79287964D-08  0.42619676D-03 -0.26790126D-03  0.89222512D-07
  0.84063281D-07 -0.17328579D-06 -0.11168115D-07 -0.81823724D-03  0.51433235D-03
  0.12481056D-07  0.11608123D-07 -0.24089179D-07 -0.17077253D-08 -0.12305169D-03
  0.77348536D-04  0.66652983D-09  0.72423881D-09 -0.13907686D-08  0.14895559D-09
 -0.12535918D-05  0.78799019D-06  0.14500992D-03 -0.92249356D-04 -0.11685280D-06
  0.14447457D-03 -0.87520201D-04  0.17427772D-06 -0.57950431D-03  0.36426827D-03
  0.17628069D-06  0.57696214D-08  0.94516687D-04 -0.55082043D-04 -0.26610907D-07
  0.96627513D-04 -0.73728120D-04  0.42182377D-07 -0.38017757D-03  0.23897425D-03
  0.37650343D-07 -0.10481118D-07 -0.13362001D-07 -0.12226589D-07 -0.33899966D-07
  0.29212092D-08  0.48453602D-03  0.37229721D-08 -0.27562185D-03 -0.65075260D-03
  0.40905391D-03 -0.24934129D-07  0.10510613D-06  0.98293663D-07 -0.40029617D-03
  0.49864973D-03 -0.19932544D-07
MO    6     MO 0.0        OCC NO =    2.0000000  ORB. ENERGY =   -4.258513
  0.35822098D-09  0.67038768D-09  0.11611465D-08  0.18984654D-08  0.29586257D-08
  0.43768905D-08  0.60291572D-08  0.73502534D-08  0.72303180D-08  0.47300138D-08
  0.50161185D-09  0.18212997D-08  0.31883114D-08  0.43121594D-08 -0.45163805D-08
 -0.24619252D-08 -0.27551029D-08 -0.30736766D-08  0.94101027D-08  0.29665949D-08
 -0.72841706D-10  0.17653389D+01  0.25366952D+01  0.33612574D+01  0.39252779D+01
  0.39064911D+01  0.30276785D+01  0.16834289D+01  0.59691378D+00  0.28084291D+01
  0.40355586D+01  0.53473317D+01  0.62446164D+01  0.62147291D+01  0.48166503D+01
  0.26781207D+01  0.94961368D+00  0.37341164D-05  0.53657206D-05  0.71098678D-05
  0.83029069D-05  0.82631684D-05  0.64042683D-05  0.35608571D-05  0.12626162D-05
  0.85364048D-03 -0.36573967D-03  0.13580358D-02 -0.58184632D-03 -0.25384478D-07
  0.10875902D-07  0.91788769D-01  0.14602422D+00  0.21716501D-06  0.19972803D-02
  0.31774181D-02 -0.12487703D-08 -0.62563874D-04 -0.99531132D-04 -0.47090554D-08
  0.33941247D-05  0.53996169D-05 -0.11376116D-09 -0.46639293D-07  0.47604690D-07
 -0.96539678D-09 -0.29525804D-07  0.48142431D-03  0.76588675D-03 -0.42659602D-08
  0.50706824D-08 -0.80472223D-09 -0.98500500D-09  0.20258703D-03  0.32229032D-03
 -0.10791921D-08 -0.17465282D-08  0.28257203D-08 -0.16268452D-10  0.84330244D-04
  0.13415857D-03 -0.16597354D-09 -0.67997762D-10  0.23397131D-09 -0.12144652D-11
  0.57189345D-05  0.90980964D-05  0.10250545D-10 -0.75395069D-11 -0.27110384D-11
  0.78530681D-11 -0.54236539D-07 -0.86283330D-07 -0.97007693D-05 -0.20954106D-05
 -0.10666997D-09  0.26402818D-04  0.19916830D-05 -0.43484494D-09  0.26994898D-05
  0.42945488D-05  0.75485487D-09 -0.93381718D-09  0.22632719D-03  0.13184880D-03
 -0.23074545D-08 -0.39142699D-03  0.61916153D-04  0.14228634D-07 -0.28755459D-03
 -0.45746255D-03 -0.73062703D-08  0.14228695D-07  0.26400293D-09 -0.95116970D-10
  0.22848428D-09  0.13323312D-09 -0.31603156D-04  0.11432933D-09 -0.33282425D-04
  0.26803332D-04  0.42640661D-04  0.17879496D-09 -0.17628125D-08  0.39190686D-09
 -0.28074709D-04  0.14399472D-04 -0.74268736D-09  0.19859018D-09  0.37165685D-09
  0.64215720D-09  0.10435842D-08  0.15926666D-08  0.22347692D-08  0.27136940D-08
  0.25924132D-08  0.29304633D-09  0.11703832D-08  0.12903300D-08  0.23212402D-08
  0.12258242D-08 -0.83311325D-08 -0.62447202D-08 -0.58604789D-09  0.57285439D-04
  0.74053948D-04  0.79742591D-04  0.74108029D-04  0.55358889D-04  0.91133861D-04
  0.11781043D-03  0.12686034D-03  0.11789647D-03  0.88068964D-04 -0.10956763D-08
 -0.14164010D-08 -0.15252055D-08 -0.14174354D-08 -0.10588279D-08  0.16096016D-03
  0.25606707D-03 -0.76870208D-08  0.47942385D-04  0.76270189D-04 -0.43475069D-08
  0.43318007D-05  0.68913474D-05 -0.86535707D-09 -0.12017915D-08  0.66297679D-09
  0.53881466D-09 -0.17371358D-08 -0.17161379D-03 -0.27301554D-03  0.37121988D-08
  0.12374931D-08 -0.49496919D-08  0.12488830D-08  0.44763674D-03  0.71213289D-03
  0.51703636D-09  0.36870347D-09 -0.88573982D-09 -0.50404070D-11  0.51849864D-04
  0.82486494D-04 -0.95207988D-12  0.59553158D-10 -0.58601078D-10 -0.39549016D-10
  0.18850716D-05  0.29989096D-05 -0.89408548D-04 -0.14505935D-03 -0.28381272D-08
 -0.97046948D-04 -0.14592404D-03  0.38029821D-08  0.36527259D-03  0.58110208D-03
  0.47113994D-08 -0.94123659D-09 -0.53061877D-04 -0.78454341D-04 -0.55347903D-09
 -0.36927463D-04 -0.76627849D-04  0.26150413D-08  0.19611309D-03  0.31199087D-03
 -0.95460421D-09  0.20424886D-08 -0.11475200D-08  0.84401179D-09 -0.44656890D-09
 -0.14066954D-08 -0.32437060D-03 -0.13072245D-08 -0.47327433D-03  0.39391270D-03
  0.62666484D-03 -0.42918205D-09  0.73143021D-08 -0.46348887D-08 -0.46017154D-03
 -0.20862629D-03  0.81417597D-08
MO    7     MO 0.0        OCC NO =    2.0000000  ORB. ENERGY =   -0.874377
 -0.10608258D-01 -0.19852677D-01 -0.34385875D-01 -0.56220635D-01 -0.87615930D-01
 -0.12961604D+00 -0.17854581D+00 -0.21766839D+00 -0.21411666D+00 -0.14007333D+00
 -0.19249757D-01 -0.69893834D-01 -0.12235400D+00 -0.10330467D+00  0.10839544D+00
  0.17928895D+00  0.12194607D+00 -0.54022439D-01 -0.50744180D-01 -0.43353537D-02
  0.28711977D-03  0.89171648D-06  0.12813477D-05  0.16978545D-05  0.19827552D-05
  0.19732656D-05  0.15293555D-05  0.85034170D-06  0.30151595D-06 -0.30349110D-06
 -0.43610007D-06 -0.57785601D-06 -0.67482051D-06 -0.67159076D-06 -0.52050826D-06
 -0.28940941D-06 -0.10261940D-06 -0.35567793D+00 -0.51108969D+00 -0.67722127D+00
 -0.79085931D+00 -0.78707418D+00 -0.61001229D+00 -0.33917482D+00 -0.12026532D+00
 -0.11178891D-06  0.47895619D-07  0.24018330D-07 -0.10290581D-07  0.47902144D-01
 -0.20523528D-01 -0.41736450D-07  0.79903356D-08  0.47207996D-02 -0.16591944D-06
  0.43575255D-07  0.49760248D-01 -0.65456331D-07  0.15581476D-07  0.92443939D-02
 -0.18579715D-08  0.25996973D-09 -0.19238514D-03  0.35240829D-01  0.33907275D-01
 -0.69148104D-01 -0.27716286D-02  0.31065578D-06 -0.21320156D-06  0.12619087D-01
  0.12127072D-01 -0.24746160D-01 -0.10225935D-02  0.79555441D-07 -0.53115922D-07
  0.35556283D-02  0.32513800D-02 -0.68070083D-02 -0.63234289D-03  0.60563828D-07
 -0.29982012D-07  0.30705748D-03  0.17587928D-03 -0.48293676D-03 -0.27263814D-03
  0.12842716D-07 -0.44178040D-08 -0.12576327D-04 -0.10412871D-04  0.22989198D-04
  0.44964808D-05  0.64618867D-10 -0.23277962D-10  0.16458096D-08 -0.15570210D-08