 Molden2AIM, Version 4.0.0 (06/02/2016)           Time: Sun Jun 24 19:46:15 2018
GAUSSIAN             11 MOL ORBITALS    230 PRIMITIVES        2 NUCLEI
  Si   1    (CENTRE  1)   0.00000000  0.00000000  1.02835683  CHARGE = 14.0
  O    2    (CENTRE  2)   0.00000000  0.00000000 -1.82323989  CHARGE =  8.0
CENTRE ASSIGNMENTS    1  1  1  1  1  1  1  1  1  1  1  1  1  1  1  1  1  1  1  1
CENTRE ASSIGNMENTS    1  1  1  1  1  1  1  1  1  1  1  1  1  1  1  1  1  1  1  1
CENTRE ASSIGNMENTS    1  1  1  1  1  1  1  1  1  1  1  1  1  1  1  1  1  1  1  1
CENTRE ASSIGNMENTS    1  1  1  1  1  1  1  1  1  1  1  1  1  1  1  1  1  1  1  1
CENTRE ASSIGNMENTS    1  1  1  1  1  1  1  1  1  1  1  1  1  1  1  1  1  1  1  1
CENTRE ASSIGNMENTS    1  1  1  1  1  1  1  1  1  1  1  1  1  1  1  1  1  1  1  1
CENTRE ASSIGNMENTS    1  1  1  1  1  1  1  1  2  2  2  2  2  2  2  2  2  2  2  2
CENTRE ASSIGNMENTS    2  2  2  2  2  2  2  2  2  2  2  2  2  2  2  2  2  2  2  2
CENTRE ASSIGNMENTS    2  2  2  2  2  2  2  2  2  2  2  2  2  2  2  2  2  2  2  2
CENTRE ASSIGNMENTS    2  2  2  2  2  2  2  2  2  2  2  2  2  2  2  2  2  2  2  2
CENTRE ASSIGNMENTS    2  2  2  2  2  2  2  2  2  2  2  2  2  2  2  2  2  2  2  2
CENTRE ASSIGNMENTS    2  2  2  2  2  2  2  2  2  2
TYPE ASSIGNMENTS      1  1  1  1  1  1  1  1  1  1  1  1  1  1  1  1  1  1  1  1
TYPE ASSIGNMENTS      1  2  2  2  2  2  2  2  2  3  3  3  3  3  3  3  3  4  4  4
TYPE ASSIGNMENTS      4  4  4  4  4  2  2  3  3  4  4  2  3  4  2  3  4  2  3  4
TYPE ASSIGNMENTS      2  3  4  5  6  7  8  9 10  5  6  7  8  9 10  5  6  7  8  9
TYPE ASSIGNMENTS     10  5  6  7  8  9 10  5  6  7  8  9 10 11 12 13 17 14 15 18
TYPE ASSIGNMENTS     19 16 20 11 12 13 17 14 15 18 19 16 20 21 22 23 24 25 26 27
TYPE ASSIGNMENTS     28 29 30 31 32 33 34 35  1  1  1  1  1  1  1  1  1  1  1  1
TYPE ASSIGNMENTS      1  1  1  1  2  2  2  2  2  3  3  3  3  3  4  4  4  4  4  2
TYPE ASSIGNMENTS      3  4  2  3  4  2  3  4  2  3  4  5  6  7  8  9 10  5  6  7
TYPE ASSIGNMENTS      8  9 10  5  6  7  8  9 10  5  6  7  8  9 10 11 12 13 17 14
TYPE ASSIGNMENTS     15 18 19 16 20 11 12 13 17 14 15 18 19 16 20 21 22 23 24 25
TYPE ASSIGNMENTS     26 27 28 29 30 31 32 33 34 35
EXPONENTS  0.9180707D+06 0.1374853D+06 0.3128777D+05 0.8861611D+04 0.2890694D+04
EXPONENTS  0.1043406D+04 0.4068016D+03 0.1684836D+03 0.7318563D+02 0.3299849D+02
EXPONENTS  0.2787875D+03 0.8591023D+02 0.3299260D+02 0.1503369D+02 0.5725751D+01
EXPONENTS  0.2614652D+01 0.1175783D+01 0.3543233D+00 0.1624834D+00 0.6833246D-01
EXPONENTS  0.3052108D-01 0.1775885D+04 0.4208379D+03 0.1364229D+03 0.5170099D+02
EXPONENTS  0.2155946D+02 0.9555920D+01 0.4352982D+01 0.2009696D+01 0.1775885D+04
EXPONENTS  0.4208379D+03 0.1364229D+03 0.5170099D+02 0.2155946D+02 0.9555920D+01
EXPONENTS  0.4352982D+01 0.2009696D+01 0.1775885D+04 0.4208379D+03 0.1364229D+03
EXPONENTS  0.5170099D+02 0.2155946D+02 0.9555920D+01 0.4352982D+01 0.2009696D+01
EXPONENTS  0.4641815D+02 0.1907642D+01 0.4641815D+02 0.1907642D+01 0.4641815D+02
EXPONENTS  0.1907642D+01 0.9233722D+00 0.9233722D+00 0.9233722D+00 0.3451572D+00
EXPONENTS  0.3451572D+00 0.3451572D+00 0.1365683D+00 0.1365683D+00 0.1365683D+00
EXPONENTS  0.5298706D-01 0.5298706D-01 0.5298706D-01 0.2645000D+01 0.2645000D+01
EXPONENTS  0.2645000D+01 0.2645000D+01 0.2645000D+01 0.2645000D+01 0.6080000D+00
EXPONENTS  0.6080000D+00 0.6080000D+00 0.6080000D+00 0.6080000D+00 0.6080000D+00
EXPONENTS  0.2720000D+00 0.2720000D+00 0.2720000D+00 0.2720000D+00 0.2720000D+00
EXPONENTS  0.2720000D+00 0.1130000D+00 0.1130000D+00 0.1130000D+00 0.1130000D+00
EXPONENTS  0.1130000D+00 0.1130000D+00 0.4401890D-01 0.4401890D-01 0.4401890D-01
EXPONENTS  0.4401890D-01 0.4401890D-01 0.4401890D-01 0.2120000D+00 0.2120000D+00
EXPONENTS  0.2120000D+00 0.2120000D+00 0.2120000D+00 0.2120000D+00 0.2120000D+00
EXPONENTS  0.2120000D+00 0.2120000D+00 0.2120000D+00 0.5410000D+00 0.5410000D+00
EXPONENTS  0.5410000D+00 0.5410000D+00 0.5410000D+00 0.5410000D+00 0.5410000D+00
EXPONENTS  0.5410000D+00 0.5410000D+00 0.5410000D+00 0.4610000D+00 0.4610000D+00
EXPONENTS  0.4610000D+00 0.4610000D+00 0.4610000D+00 0.4610000D+00 0.4610000D+00
EXPONENTS  0.4610000D+00 0.4610000D+00 0.4610000D+00 0.4610000D+00 0.4610000D+00
EXPONENTS  0.4610000D+00 0.4610000D+00 0.4610000D+00 0.1165065D+06 0.1750435D+05
EXPONENTS  0.3993451D+04 0.1133006D+04 0.3699957D+03 0.1336207D+03 0.5203564D+02
EXPONENTS  0.2146194D+02 0.8983505D+02 0.2642801D+02 0.9282282D+01 0.4094773D+01
EXPONENTS  0.1325535D+01 0.5187723D+00 0.1977268D+00 0.6963854D-01 0.1911526D+03
EXPONENTS  0.4523336D+02 0.1435347D+02 0.5242237D+01 0.2079242D+01 0.1911526D+03
EXPONENTS  0.4523336D+02 0.1435347D+02 0.5242237D+01 0.2079242D+01 0.1911526D+03
EXPONENTS  0.4523336D+02 0.1435347D+02 0.5242237D+01 0.2079242D+01 0.8428237D+00
EXPONENTS  0.8428237D+00 0.8428237D+00 0.3361769D+00 0.3361769D+00 0.3361769D+00
EXPONENTS  0.1286400D+00 0.1286400D+00 0.1286400D+00 0.4359816D-01 0.4359816D-01
EXPONENTS  0.4359816D-01 0.3775000D+01 0.3775000D+01 0.3775000D+01 0.3775000D+01
EXPONENTS  0.3775000D+01 0.3775000D+01 0.1300000D+01 0.1300000D+01 0.1300000D+01
EXPONENTS  0.1300000D+01 0.1300000D+01 0.1300000D+01 0.4440000D+00 0.4440000D+00
EXPONENTS  0.4440000D+00 0.4440000D+00 0.4440000D+00 0.4440000D+00 0.1254638D+00
EXPONENTS  0.1254638D+00 0.1254638D+00 0.1254638D+00 0.1254638D+00 0.1254638D+00
EXPONENTS  0.2666000D+01 0.2666000D+01 0.2666000D+01 0.2666000D+01 0.2666000D+01
EXPONENTS  0.2666000D+01 0.2666000D+01 0.2666000D+01 0.2666000D+01 0.2666000D+01
EXPONENTS  0.8590000D+00 0.8590000D+00 0.8590000D+00 0.8590000D+00 0.8590000D+00
EXPONENTS  0.8590000D+00 0.8590000D+00 0.8590000D+00 0.8590000D+00 0.8590000D+00
EXPONENTS  0.1846000D+01 0.1846000D+01 0.1846000D+01 0.1846000D+01 0.1846000D+01
EXPONENTS  0.1846000D+01 0.1846000D+01 0.1846000D+01 0.1846000D+01 0.1846000D+01
EXPONENTS  0.1846000D+01 0.1846000D+01 0.1846000D+01 0.1846000D+01 0.1846000D+01
MO    1     MO 0.0        OCC NO =    2.0000000  ORB. ENERGY =  -68.819378
  0.26657654D+00  0.49888096D+00  0.86408791D+00  0.14127769D+01  0.22017141D+01
  0.32571412D+01  0.44867050D+01  0.54698223D+01  0.53805702D+01  0.35199242D+01
  0.30947163D-02  0.11236588D-01  0.19670427D-01  0.10806861D+01  0.61818604D-01
 -0.39004151D-02  0.13406160D-02 -0.20781773D-03 -0.31697591D-04 -0.23385019D-04
  0.30163363D-05 -0.96419910D-18 -0.13855012D-17 -0.18358635D-17 -0.21439223D-17
 -0.21336612D-17 -0.16536682D-17 -0.91946120D-18 -0.32602449D-18 -0.22964892D-17
 -0.32999290D-17 -0.43725831D-17 -0.51063045D-17 -0.50818653D-17 -0.39386380D-17
 -0.21899343D-17 -0.77651152D-18 -0.28633086D-03 -0.41144174D-03 -0.54518239D-03
 -0.63666425D-03 -0.63361711D-03 -0.49107725D-03 -0.27304538D-03 -0.96817008D-04
 -0.49320402D-17  0.21131176D-17 -0.59681066D-17  0.25570171D-17 -0.11438519D-02
  0.49007988D-03 -0.58310876D-18 -0.67455006D-18 -0.27279459D-03  0.17461861D-18
 -0.91010775D-19  0.18295534D-03 -0.43992025D-19  0.93807817D-19  0.35839057D-04
  0.14254142D-19  0.60381534D-21  0.88294914D-07 -0.71587992D-04 -0.71587992D-04
  0.14317598D-03  0.16475416D-16 -0.32131548D-17  0.42188620D-17  0.22748241D-04
  0.22748241D-04 -0.45496481D-04 -0.54241170D-18  0.36439274D-18 -0.12929782D-18
  0.24230408D-04  0.24230408D-04 -0.48460815D-04  0.12603541D-18 -0.12903709D-18
  0.33015267D-19  0.10571957D-05  0.10571957D-05 -0.21143914D-05 -0.14025287D-19
 -0.15468567D-21 -0.33439344D-19  0.44812993D-08  0.44812993D-08 -0.89625987D-08
  0.97428762D-21  0.40644291D-21  0.13960944D-20 -0.27245306D-20 -0.46341657D-20
  0.32875210D-05 -0.20536433D-20 -0.30554648D-20 -0.49312815D-05  0.10227235D-19
  0.16957962D-19 -0.49312815D-05 -0.97621695D-20 -0.40422301D-20  0.78667896D-20
  0.31961953D-04 -0.15240662D-19 -0.25586253D-19 -0.47942930D-04  0.27367353D-19
  0.19858840D-20 -0.47942930D-04  0.76480356D-19 -0.18321956D-05 -0.18321956D-05
 -0.48858549D-05  0.53380546D-20  0.14585045D-19 -0.23618222D-20 -0.89510365D-20
 -0.15979331D-19  0.94522604D-20 -0.36643912D-05  0.14657565D-04  0.14657565D-04
 -0.15036719D-20  0.41828581D-20 -0.89286972D-20 -0.94286697D-06 -0.17610067D-05
 -0.30393632D-05 -0.49370595D-05 -0.75350180D-05 -0.10582793D-04 -0.12864513D-04
 -0.12204760D-04  0.15573359D-04  0.60691848D-04 -0.82240792D-04  0.10097445D-03
 -0.12220056D-03  0.10632932D-03  0.14587247D-03  0.17816202D-06 -0.20277288D-19
 -0.26702029D-19 -0.29706628D-19 -0.27587601D-19 -0.19231701D-19 -0.46374195D-19
 -0.61067590D-19 -0.67939113D-19 -0.63092894D-19 -0.43982935D-19 -0.26363089D-04
 -0.34716081D-04 -0.38622447D-04 -0.35867438D-04 -0.25003691D-04  0.43701864D-19
  0.35974347D-19  0.18057372D-04 -0.69436038D-19 -0.25265899D-19  0.16895491D-03
 -0.20846398D-19 -0.65778686D-19  0.26251116D-05  0.33510425D-20  0.85180205D-20
  0.12664321D-06  0.16833923D-04  0.16833923D-04 -0.33667845D-04 -0.38025783D-19
  0.10064660D-18 -0.50876714D-18 -0.12663981D-04 -0.12663981D-04  0.25327962D-04
  0.25574020D-19  0.13874795D-18  0.21142198D-18 -0.31220848D-04 -0.31220848D-04
  0.62441696D-04 -0.63736888D-20 -0.95102636D-19 -0.41702068D-19  0.27816391D-06
  0.27816391D-06 -0.55632783D-06 -0.13109666D-20 -0.64861976D-20 -0.12104748D-19
 -0.16418839D-18 -0.43427228D-19 -0.67633799D-05 -0.19350348D-18 -0.16097736D-19
  0.10145070D-04  0.68606866D-18  0.14637942D-18  0.10145070D-04 -0.58405279D-19
  0.13583088D-19  0.47080583D-19  0.23271082D-04  0.66465901D-20  0.54133229D-19
 -0.34906623D-04 -0.47395855D-19 -0.19537498D-18 -0.34906623D-04  0.25908288D-19
 -0.12607714D-04 -0.12607714D-04 -0.33620570D-04 -0.76501510D-19  0.80526358D-20
 -0.74646567D-19  0.26748875D-20  0.20058179D-19 -0.45811599D-19 -0.25215427D-04
  0.10086171D-03  0.10086171D-03  0.12941014D-18 -0.84332443D-19  0.45344423D-18
MO    2     MO 0.0        OCC NO =    2.0000000  ORB. ENERGY =  -20.529917
 -0.39935012D-05 -0.74735824D-05 -0.12944636D-04 -0.21164377D-04 -0.32983202D-04
 -0.48794232D-04 -0.67213949D-04 -0.81941727D-04 -0.80604669D-04 -0.52730903D-04
  0.12917548D-04  0.46902253D-04  0.82105647D-04 -0.26277516D-03  0.43478799D-03
 -0.53733362D-03  0.57628917D-03 -0.13920887D-03 -0.26040059D-03 -0.79196806D-04
 -0.11224899D-04  0.10003020D-14  0.14373791D-14  0.19046045D-14  0.22241980D-14
  0.22135528D-14  0.17155872D-14  0.95388897D-15  0.33823196D-15  0.21472399D-14
  0.30854660D-14  0.40884081D-14  0.47744449D-14  0.47515939D-14  0.36826652D-14
  0.20476101D-14  0.72604590D-15 -0.15264888D-03 -0.21934808D-03 -0.29064798D-03
 -0.33941884D-03 -0.33779435D-03 -0.26180341D-03 -0.14556612D-03 -0.51615143D-04
  0.33677917D-16 -0.14429201D-16  0.10034448D-15 -0.42992287D-16 -0.20241936D-03
  0.86725959D-04 -0.10085518D-17  0.73229749D-17 -0.42953057D-03  0.45985083D-16
 -0.22323754D-16  0.53477806D-03 -0.18172361D-16  0.14370984D-16  0.10457244D-03
 -0.15708312D-17 -0.14223026D-17  0.16104198D-04 -0.23016079D-03 -0.23016079D-03
  0.46032157D-03  0.76168168D-16  0.48593999D-15  0.25131892D-15  0.10401578D-03
  0.10401578D-03 -0.20803156D-03 -0.19664474D-16 -0.24333294D-16 -0.38169838D-16
  0.74928958D-04  0.74928958D-04 -0.14985792D-03  0.22350485D-17  0.18420891D-16
  0.10887059D-16  0.26351127D-05  0.26351127D-05 -0.52702253D-05  0.18448512D-19
  0.27288711D-17 -0.53840425D-17  0.39857299D-06  0.39857299D-06 -0.79714598D-06
 -0.26442288D-19  0.31929558D-18  0.53534850D-18  0.67109711D-18  0.33383113D-18
  0.11252594D-04  0.67133920D-18  0.33675356D-18 -0.16878891D-04 -0.26846305D-17
 -0.13382469D-17 -0.16878891D-04  0.81686351D-18 -0.17975260D-18 -0.11507480D-17
  0.13891437D-03 -0.18619513D-18 -0.11526259D-17 -0.20837155D-03  0.72545293D-18
  0.46048699D-17 -0.20837155D-03 -0.15480307D-17 -0.91669452D-05 -0.91669452D-05
 -0.24445187D-04 -0.68509745D-19 -0.94737881D-18 -0.72262813D-19  0.10852880D-17
  0.12603140D-17 -0.14421887D-17 -0.18333890D-04  0.73335562D-04  0.73335562D-04
  0.10707020D-17 -0.93880569D-18  0.42231767D-18 -0.18135877D+00 -0.33872648D+00
 -0.58461605D+00 -0.94963452D+00 -0.14493472D+01 -0.20355813D+01 -0.24744660D+01
 -0.23475637D+01 -0.49763228D-05 -0.19393519D-04 -0.13878696D+01 -0.33359342D+00
 -0.10472550D-01  0.10331402D-02  0.10495326D-03  0.12064662D-03 -0.41615738D-17
 -0.54801444D-17 -0.60967881D-17 -0.56618932D-17 -0.39469846D-17  0.33264161D-16
  0.43803717D-16  0.48732654D-16  0.45256466D-16  0.31548913D-16 -0.33298454D-02
 -0.43848876D-02 -0.48782894D-02 -0.45303122D-02 -0.31581437D-02 -0.21321110D-16
  0.97488170D-17  0.11220135D-02  0.17131539D-16 -0.12922947D-17  0.23032636D-03
  0.10749717D-16 -0.54098253D-17  0.43840824D-04  0.92979659D-18  0.63901515D-18
  0.10033047D-06  0.67582397D-03  0.67582397D-03 -0.13516479D-02  0.64332739D-17
 -0.66928390D-17 -0.33957093D-16  0.44073717D-04  0.44073717D-04 -0.88147433D-04
  0.59414063D-18 -0.25558343D-16 -0.24306051D-16 -0.88365546D-04 -0.88365546D-04
  0.17673109D-03  0.81658831D-19  0.20940312D-16 -0.10657089D-16  0.13945516D-05
  0.13945516D-05 -0.27891033D-05  0.27185229D-18  0.36642636D-17 -0.19821210D-17
  0.53105695D-16 -0.25288425D-17 -0.59544993D-03  0.51688689D-16 -0.24126976D-17
  0.89317490D-03 -0.21100577D-15  0.99992251D-17  0.89317490D-03 -0.39078293D-17
 -0.10023356D-17 -0.18302042D-17  0.14994155D-03 -0.10587856D-17 -0.17344267D-17
 -0.22491233D-03  0.40657924D-17  0.72250392D-17 -0.22491233D-03  0.23067828D-17
  0.38594637D-04  0.38594637D-04  0.10291903D-03  0.31205498D-17 -0.69903115D-16
  0.30485902D-17  0.84617363D-17  0.93146837D-16 -0.11488951D-16  0.77189273D-04
 -0.30875709D-03 -0.30875709D-03  0.90816449D-17 -0.69731167D-16 -0.18507420D-16
MO    3     MO 0.0        OCC NO =    2.0000000  ORB. ENERGY =   -6.166712
  0.71839619D-01  0.13444326D+00  0.23286275D+00  0.38072877D+00  0.59333918D+00
  0.87776587D+00  0.12091206D+01  0.14740605D+01  0.14500080D+01  0.94858317D+00
  0.11859075D+00  0.43059051D+00  0.75377854D+00  0.63886154D+00 -0.60471341D+00
 -0.82475802D+00 -0.27990889D+00 -0.78449037D-02  0.22960291D-02 -0.85703844D-04
  0.35650290D-04 -0.40497034D-15 -0.58192017D-15 -0.77107547D-15 -0.90046228D-15
 -0.89615259D-15 -0.69455218D-15 -0.38618011D-15 -0.13693256D-15 -0.12897430D-15
 -0.18532900D-15 -0.24557087D-15 -0.28677777D-15 -0.28540523D-15 -0.22119986D-15
 -0.12299002D-15 -0.43610060D-16 -0.86295158D-02 -0.12400141D-01 -0.16430853D-01
 -0.19187957D-01 -0.19096122D-01 -0.14800217D-01 -0.82291147D-02 -0.29178969D-02
  0.39830512D-15 -0.17065262D-15 -0.15793192D-15  0.67665450D-16  0.10270819D-02
 -0.44005010D-03  0.11155352D-15 -0.92882569D-16 -0.72068012D-03 -0.29942441D-16
  0.41082761D-16 -0.69429763D-03  0.13735140D-16 -0.12235288D-16 -0.39118883D-03
 -0.26949610D-17 -0.81468882D-18 -0.42643583D-05 -0.51327269D-02 -0.51327269D-02
  0.10265454D-01  0.34180137D-15 -0.48236168D-16 -0.19956900D-16 -0.40971774D-03
 -0.40971774D-03  0.81943548D-03 -0.11794550D-16 -0.55333732D-17 -0.41017591D-17
 -0.40153777D-04 -0.40153777D-04  0.80307555D-04 -0.22446454D-17  0.66050014D-17
 -0.73862291D-17 -0.17155316D-04 -0.17155316D-04  0.34310631D-04  0.63940108D-18
 -0.93313674D-18  0.32886171D-17  0.66426039D-06  0.66426039D-06 -0.13285208D-05
 -0.80551262D-19 -0.63960189D-20  0.33507122D-19 -0.30512488D-18  0.20496983D-18
 -0.11559501D-04 -0.34551947D-18  0.13635359D-18  0.17339252D-04  0.12608941D-17
 -0.75126309D-18  0.17339252D-04  0.17956829D-17  0.37514804D-17 -0.49185331D-17
 -0.70607528D-04  0.42416902D-17 -0.29426870D-17  0.10591129D-03 -0.15496131D-16
  0.17698286D-16  0.10591129D-03 -0.89792290D-17 -0.30820609D-06 -0.30820609D-06
 -0.82188290D-06 -0.36306212D-18 -0.32836642D-17  0.98997617D-19  0.47890250D-17
  0.41532157D-17 -0.62117179D-17 -0.61641218D-06  0.24656487D-05  0.24656487D-05
  0.42680788D-17 -0.26086545D-17  0.79219351D-18  0.10356277D-03  0.19342572D-03
  0.33383804D-03  0.54227749D-03  0.82763246D-03  0.11623945D-02  0.14130144D-02
  0.13405483D-02  0.85689358D-04  0.33394501D-03  0.12728985D-02  0.37974697D-03
 -0.14007799D-03 -0.41379480D-03 -0.12886856D-02 -0.18458369D-03  0.41436723D-17
  0.54565708D-17  0.60705619D-17  0.56375378D-17  0.39300061D-17  0.16011305D-17
  0.21084394D-17  0.23456879D-17  0.21783658D-17  0.15185691D-17 -0.13748140D-02
 -0.18104158D-02 -0.20141297D-02 -0.18704582D-02 -0.13039224D-02 -0.31478580D-17
  0.50631829D-18 -0.10508435D-02  0.11568497D-16 -0.76699140D-17 -0.99090895D-03
 -0.52843667D-17  0.49958876D-17 -0.24171885D-03  0.43094384D-18  0.19526027D-18
 -0.37686308D-05 -0.93629826D-04 -0.93629826D-04  0.18725965D-03  0.29388360D-17
 -0.10640457D-16  0.37413008D-16  0.63111737D-03  0.63111737D-03 -0.12622347D-02
 -0.57603377D-18 -0.10033595D-16 -0.46253115D-17  0.23456739D-03  0.23456739D-03
 -0.46913478D-03  0.74319741D-18  0.16169413D-16 -0.13894760D-16  0.80896641D-05
  0.80896641D-05 -0.16179328D-04  0.35847718D-18 -0.19723935D-17  0.76761477D-18
  0.11447351D-16 -0.23326415D-16 -0.52076209D-03  0.12125924D-16 -0.24182798D-16
  0.78114313D-03 -0.46467978D-16  0.94162043D-16  0.78114313D-03 -0.22739573D-17
 -0.21809232D-17 -0.27180258D-17 -0.52574203D-03 -0.18158700D-17 -0.30414162D-17
  0.78861304D-03  0.83586395D-17  0.11195494D-16  0.78861304D-03  0.20436951D-17
 -0.21051361D-03 -0.21051361D-03 -0.56136963D-03  0.38340021D-17 -0.97595042D-17
  0.37476903D-17  0.22890460D-16  0.11886153D-16 -0.29093352D-16 -0.42102722D-03
  0.16841089D-02  0.16841089D-02  0.18608676D-16 -0.63799462D-17 -0.22745077D-16
MO    4     MO 0.0        OCC NO =    2.0000000  ORB. ENERGY =   -4.268348
 -0.22744493D-16 -0.42564865D-16 -0.73724572D-16 -0.12053910D-15 -0.18785175D-15
 -0.27790152D-15 -0.38280874D-15 -0.46668898D-15 -0.45907394D-15 -0.30032234D-15
 -0.33933370D-16 -0.12320848D-15 -0.21568500D-15 -0.33269072D-15  0.42699222D-15
  0.25653193D-15  0.27254111D-15 -0.12738642D-15  0.11664477D-15 -0.12464308D-15
 -0.49008231D-16  0.32644407D+01  0.46908222D+01  0.62155913D+01  0.72585704D+01
  0.72238301D+01  0.55987418D+01  0.31129738D+01  0.11038048D+01  0.56861744D+00
  0.81707209D+00  0.10826644D+01  0.12643360D+01  0.12582847D+01  0.97521830D+00
  0.54223415D+00  0.19226653D+00 -0.14008794D-13 -0.20129869D-13 -0.26673157D-13
 -0.31148926D-13 -0.30999844D-13 -0.24026053D-13 -0.13358800D-13 -0.47367915D-14
 -0.18528062D-03  0.79382918D-04 -0.32273152D-04  0.13827334D-04 -0.37999770D-17
  0.16280886D-17  0.17149333D+00  0.29871609D-01 -0.50547476D-15  0.36039210D-02
  0.62774992D-03 -0.55948052D-15 -0.63298948D-04 -0.11025744D-04 -0.19405532D-15
  0.27648128D-04  0.48158964D-05  0.54309099D-16  0.21406268D-15  0.98583203D-16
 -0.31264588D-15  0.94165375D-15  0.68157200D-02  0.11871979D-02 -0.46235189D-16
 -0.41724175D-16  0.87959364D-16 -0.14515196D-15  0.12874445D-02  0.22425385D-03
 -0.96509115D-16 -0.71235347D-16  0.16774446D-15 -0.80148352D-18  0.20578131D-03
  0.35844070D-04 -0.62315186D-18 -0.21139112D-17  0.27370631D-17  0.10568873D-16
 -0.98886912D-05 -0.17224642D-05  0.96039196D-18  0.19375864D-17 -0.28979783D-17
 -0.21553157D-17 -0.23944007D-05 -0.41706931D-06 -0.27305937D-05 -0.47562917D-06
 -0.16157046D-16 -0.27305937D-05 -0.47562917D-06  0.33485226D-16  0.10922375D-04
  0.19025167D-05  0.14985913D-16  0.15410454D-16  0.24338356D-03  0.42393828D-04
 -0.63817828D-16  0.24338356D-03  0.42393828D-04  0.11612143D-15 -0.97353424D-03
 -0.16957531D-03  0.75332056D-16  0.35558806D-16  0.62826777D-17 -0.86536633D-17
  0.93089623D-17 -0.19119910D-17 -0.95524975D-04 -0.17903468D-17 -0.16639042D-04
  0.12736663D-03  0.22185390D-04  0.35039844D-16 -0.72735910D-16  0.16882136D-16
 -0.16639042D-04 -0.95524975D-04  0.11107013D-16 -0.32445394D-16 -0.60598747D-16
 -0.10458881D-15 -0.16989124D-15 -0.25929069D-15 -0.36416898D-15 -0.44268621D-15
 -0.41998317D-15  0.18598538D-16  0.72481449D-16 -0.49373177D-15 -0.36409113D-15
  0.61065938D-15  0.12853098D-15 -0.59081959D-15  0.32174490D-15  0.80006781D-03
  0.10535647D-02  0.11721152D-02  0.10885061D-02  0.75881276D-03  0.13936002D-03
  0.18351543D-03  0.20416519D-03  0.18960171D-03  0.13217400D-03 -0.54872295D-15
 -0.72258263D-15 -0.80388998D-15 -0.74654706D-15 -0.52042836D-15  0.51424187D-03
  0.89573352D-04 -0.31044852D-15  0.45606028D-03  0.79438977D-04 -0.65996845D-15
 -0.50085333D-04 -0.87241267D-05  0.30271796D-16 -0.12090767D-04 -0.21060333D-05
 -0.57724698D-17  0.59744250D-15 -0.29111616D-15 -0.30632634D-15  0.71078220D-16
  0.78236589D-04  0.13627661D-04  0.71785133D-16 -0.85961052D-16  0.14175919D-16
 -0.29282815D-16  0.13695092D-02  0.23854831D-03  0.13381073D-15  0.10514902D-15
 -0.23895975D-15 -0.59127193D-17  0.74830049D-03  0.13034291D-03  0.43344569D-17
 -0.45669940D-17  0.23253719D-18 -0.51079825D-17 -0.23095424D-04 -0.40228823D-05
  0.11413348D-03  0.19880370D-04 -0.14427606D-15  0.11413348D-03  0.19880370D-04
 -0.61829869D-15 -0.45653393D-03 -0.79521481D-04  0.10511269D-14 -0.10638947D-16
 -0.37806794D-03 -0.65853862D-04 -0.10951136D-15 -0.37806794D-03 -0.65853862D-04
  0.57842106D-15  0.15122718D-02  0.26341545D-03 -0.24988699D-15 -0.90673601D-19
  0.55676604D-15  0.41100225D-15  0.12125703D-15  0.44840541D-17 -0.17930851D-02
  0.55751869D-17 -0.31232899D-03  0.23907801D-02  0.41643865D-03 -0.25395338D-14
 -0.80106247D-15  0.73520278D-16 -0.31232899D-03 -0.17930851D-02 -0.30177723D-16
MO    5     MO 0.0        OCC NO =    2.0000000  ORB. ENERGY =   -4.268348
 -0.47229758D-16 -0.88387477D-16 -0.15309173D-15 -0.25030378D-15 -0.39008094D-15
 -0.57707252D-15 -0.79491615D-15 -0.96909649D-15 -0.95328357D-15 -0.62363017D-15
 -0.79745326D-16 -0.28954686D-15 -0.50687186D-15 -0.53545309D-15  0.62596298D-15
  0.59516351D-15  0.77756453D-15 -0.29138883D-15 -0.85969539D-15 -0.22187657D-15
 -0.15879416D-16  0.56861744D+00  0.81707209D+00  0.10826644D+01  0.12643360D+01
  0.12582847D+01  0.97521830D+00  0.54223415D+00  0.19226653D+00 -0.32644407D+01
 -0.46908222D+01 -0.62155913D+01 -0.72585704D+01 -0.72238301D+01 -0.55987418D+01
 -0.31129738D+01 -0.11038048D+01 -0.78951710D-13 -0.11344928D-12 -0.15032638D-12
 -0.17555122D-12 -0.17471101D-12 -0.13540765D-12 -0.75288427D-13 -0.26695929D-13
 -0.32273152D-04  0.13827334D-04  0.18528062D-03 -0.79382918D-04 -0.37820563D-15
  0.16204105D-15  0.29871609D-01 -0.17149333D+00 -0.46509024D-14  0.62774992D-03
 -0.36039210D-02  0.50042847D-15 -0.11025744D-04  0.63298948D-04  0.11962246D-15
  0.48158964D-05 -0.27648128D-04  0.29752888D-16 -0.27712862D-17 -0.78179292D-15
  0.78456420D-15  0.90796304D-15  0.11871979D-02 -0.68157200D-02  0.20951907D-15
  0.57943214D-17 -0.21531339D-15 -0.88667440D-16  0.22425385D-03 -0.12874445D-02
  0.74207481D-16  0.92278284D-16 -0.16648577D-15  0.62482915D-16  0.35844070D-04
 -0.20578131D-03  0.52576952D-17  0.20145395D-18 -0.54591492D-17 -0.56283725D-17
 -0.17224642D-05  0.98886912D-05  0.13239017D-18  0.61476617D-18 -0.74715634D-18
  0.32444906D-18 -0.41706931D-06  0.23944007D-05 -0.47562917D-06  0.27305937D-05
 -0.87584274D-17 -0.47562917D-06  0.27305937D-05  0.15899863D-16  0.19025167D-05
 -0.10922375D-04  0.10375419D-16  0.30029818D-16  0.42393828D-04 -0.24338356D-03
  0.15338786D-15  0.42393828D-04 -0.24338356D-03 -0.25598574D-15 -0.16957531D-03
  0.97353424D-03 -0.20417784D-15  0.35083677D-16 -0.15803316D-16 -0.59920807D-17
 -0.24033344D-16  0.21082248D-17 -0.16639042D-04  0.20529796D-17  0.95524975D-04
  0.22185390D-04 -0.12736663D-03 -0.67138429D-17  0.10153374D-15  0.42666327D-16
  0.95524975D-04 -0.16639042D-04 -0.12483613D-16 -0.88728774D-16 -0.16572005D-15
 -0.28602017D-15 -0.46460344D-15 -0.70908509D-15 -0.99589690D-15 -0.12106188D-14
 -0.11485326D-14 -0.11665732D-15 -0.45463206D-15 -0.81284803D-15 -0.99831051D-15
  0.48349328D-15  0.68219800D-15  0.72636041D-15  0.29973170D-15  0.13936002D-03
  0.18351543D-03  0.20416519D-03  0.18960171D-03  0.13217400D-03 -0.80006781D-03
 -0.10535647D-02 -0.11721152D-02 -0.10885061D-02 -0.75881276D-03 -0.11246032D-14
 -0.14809272D-14 -0.16475660D-14 -0.15300421D-14 -0.10666137D-14  0.89573352D-04
 -0.51424187D-03 -0.27140731D-15  0.79438977D-04 -0.45606028D-03  0.48932424D-15
 -0.87241267D-05  0.50085333D-04  0.14858363D-15 -0.21060333D-05  0.12090767D-04
  0.33856711D-17  0.10227717D-14 -0.11153615D-14  0.92589860D-16 -0.21807764D-16
  0.13627661D-04 -0.78236589D-04 -0.43852147D-15  0.39296392D-16  0.39922508D-15
 -0.19940650D-16  0.23854831D-03 -0.13695092D-02 -0.10784872D-15 -0.12943449D-15
  0.23728321D-15  0.11026901D-16  0.13034291D-03 -0.74830049D-03 -0.96098241D-17
 -0.94495337D-17  0.19059358D-16 -0.96494510D-17 -0.40228823D-05  0.23095424D-04
  0.19880370D-04 -0.11413348D-03  0.79081245D-16  0.19880370D-04 -0.11413348D-03
 -0.67489086D-15 -0.79521481D-04  0.45653393D-03  0.43764713D-15  0.58434361D-17
 -0.65853862D-04  0.37806794D-03  0.11232106D-15 -0.65853862D-04  0.37806794D-03
 -0.37671747D-15  0.26341545D-03 -0.15122718D-02  0.39754285D-16 -0.22119026D-17
  0.68678128D-15  0.49202195D-15 -0.18748448D-15  0.65831581D-17 -0.31232899D-03
  0.68132518D-17  0.17930851D-02  0.41643865D-03 -0.23907801D-02 -0.40988631D-14
 -0.21824564D-16  0.11467314D-14  0.17930851D-02 -0.31232899D-03 -0.40189229D-16
MO    6     MO 0.0        OCC NO =    2.0000000  ORB. ENERGY =   -4.267632
  0.17117839D-03  0.32034943D-03  0.55486196D-03  0.90719494D-03  0.14137999D-02
  0.20915277D-02  0.28810748D-02  0.35123699D-02  0.34550579D-02  0.22602701D-02
  0.23203274D-03  0.84248637D-03  0.14748308D-02  0.21272833D-02 -0.24329199D-02
 -0.84388404D-03 -0.11343445D-02 -0.30991162D-03  0.17971547D-02  0.42226842D-03
  0.72920883D-05  0.26835839D-13  0.38561629D-13  0.51096228D-13  0.59670198D-13
  0.59384611D-13  0.46025322D-13  0.25590682D-13  0.90739979D-14 -0.75518211D-13
 -0.10851553D-12 -0.14378890D-12 -0.16791674D-12 -0.16711308D-12 -0.12951896D-12
 -0.72014240D-13 -0.25534961D-13  0.33237332D+01  0.47760224D+01  0.63284860D+01
  0.73904089D+01  0.73550377D+01  0.57004326D+01  0.31695152D+01  0.11238534D+01
 -0.17929369D-14  0.76817838D-15  0.13489560D-14 -0.57795608D-15  0.14434808D-01
 -0.61845497D-02  0.13987830D-14 -0.36359346D-14  0.17157671D+00  0.74110624D-16
 -0.19589701D-15  0.21199853D-02 -0.33638196D-16  0.22381990D-16 -0.84315051D-03
  0.75221285D-17  0.12487935D-16 -0.16702141D-04 -0.32458102D-02 -0.32458102D-02
  0.64916205D-02  0.24269004D-15  0.51524114D-15 -0.32629883D-15 -0.43040843D-03
 -0.43040843D-03  0.86081686D-03 -0.57248818D-16  0.19232488D-16 -0.13925961D-15
 -0.27337707D-03 -0.27337707D-03  0.54675413D-03  0.21815530D-16  0.25119876D-16
  0.58598053D-16 -0.25690565D-04 -0.25690565D-04  0.51381131D-04 -0.26191984D-17
  0.25715082D-17 -0.17605727D-16  0.31151600D-06  0.31151600D-06 -0.62303200D-06
  0.13418334D-18 -0.38288144D-18 -0.10573952D-17  0.19463681D-17 -0.67544373D-18
 -0.25761736D-04  0.19166283D-17 -0.65403490D-18  0.38642603D-04 -0.77557325D-17
  0.26803661D-17  0.38642603D-04 -0.24738350D-18  0.75745635D-17  0.75759370D-17
 -0.50660115D-03  0.74302769D-17  0.77434463D-17  0.75990173D-03 -0.30153967D-16
 -0.30471257D-16  0.75990173D-03  0.57711467D-18  0.13244434D-04  0.13244434D-04
  0.35318490D-04  0.55178092D-19 -0.10318974D-16  0.39766393D-19 -0.12787471D-16
  0.13751949D-16  0.17107791D-16  0.26488867D-04 -0.10595547D-03 -0.10595547D-03
 -0.12960960D-16 -0.10298925D-16 -0.28483345D-18  0.37189489D-03  0.69459363D-03
  0.11988156D-02  0.19473237D-02  0.29720361D-02  0.41741698D-02  0.50741482D-02
  0.48139220D-02  0.29615703D-03  0.11541709D-02  0.49855198D-02  0.11850151D-02
 -0.10151592D-02 -0.24034047D-02 -0.23420995D-02 -0.44232831D-03 -0.21552816D-16
 -0.28381701D-16 -0.31575303D-16 -0.29322979D-16 -0.20441457D-16 -0.19356896D-16
 -0.25490017D-16 -0.28358236D-16 -0.26335392D-16 -0.18358769D-16 -0.55541964D-02
 -0.73140113D-02 -0.81370076D-02 -0.75565802D-02 -0.52677973D-02 -0.21947470D-16
 -0.44794803D-16 -0.40393055D-02  0.34452573D-16  0.54881009D-16 -0.22253563D-02
  0.88151203D-17 -0.36023395D-16 -0.35427776D-03 -0.24369343D-17 -0.63763002D-17
 -0.16203301D-04  0.35246944D-03  0.35246944D-03 -0.70493888D-03  0.51406703D-17
  0.12214496D-15 -0.13676158D-15  0.17101031D-02  0.17101031D-02 -0.34202061D-02
  0.10113167D-17 -0.16890577D-16 -0.48935298D-16  0.47747780D-03  0.47747780D-03
 -0.95495561D-03  0.10964773D-17  0.44916115D-16  0.53243200D-16  0.67092986D-05
  0.67092986D-05 -0.13418597D-04  0.10628157D-18  0.31431071D-17 -0.11035182D-16
  0.34060916D-16 -0.87890370D-17 -0.16516742D-02  0.34115273D-16 -0.91082494D-17
  0.24775112D-02 -0.13629802D-15  0.35475361D-16  0.24775112D-02  0.43959309D-18
 -0.83741150D-17  0.71710852D-17 -0.85191278D-03 -0.83563249D-17  0.71645015D-17
  0.12778692D-02  0.33478670D-16 -0.28677757D-16  0.12778692D-02 -0.13865335D-17
 -0.45242364D-03 -0.45242364D-03 -0.12064630D-02  0.58831129D-17 -0.10377803D-15
  0.58576730D-17  0.10777124D-15  0.13814475D-15 -0.14342738D-15 -0.90484728D-03
  0.36193891D-02  0.36193891D-02  0.10696842D-15 -0.10310015D-15 -0.35222358D-16
MO    7     MO 0.0        OCC NO =    2.0000000  ORB. ENERGY =   -1.262742
 -0.59452287D-02 -0.11126116D-01 -0.19271015D-01 -0.31507957D-01 -0.49102949D-01
 -0.72641238D-01 -0.10006315D+00 -0.12198877D+00 -0.11999826D+00 -0.78501862D-01
 -0.10694565D-01 -0.38830838D-01 -0.67976074D-01 -0.57847686D-01  0.60683089D-01
  0.96237845D-01  0.64782858D-01 -0.30092389D-01 -0.18576319D-01 -0.47309395D-03
 -0.11176230D-03  0.20386249D-14  0.29293921D-14  0.38816018D-14  0.45329364D-14
  0.45112413D-14  0.34963828D-14  0.19440346D-14  0.68931991D-15 -0.33368085D-14
 -0.47948108D-14 -0.63533817D-14 -0.74194821D-14 -0.73839717D-14 -0.57228577D-14
 -0.31819838D-14 -0.11282745D-14 -0.30284391D+00 -0.43517010D+00 -0.57662374D+00
 -0.67338147D+00 -0.67015860D+00 -0.51939829D+00 -0.28879225D+00 -0.10240057D+00
 -0.42482904D-16  0.18201671D-16  0.68604092D-16 -0.29393215D-16  0.38114521D-01
 -0.16330051D-01  0.10225143D-15 -0.12040323D-15  0.34364740D-02  0.92446080D-16
  0.18244997D-16  0.34891322D-01  0.98654312D-17 -0.14712550D-17  0.39802493D-02
  0.27729038D-18 -0.27426061D-17  0.20324922D-04  0.32552666D-01  0.32552666D-01
 -0.65105331D-01  0.24390500D-16 -0.41506236D-16 -0.18236669D-16  0.11186647D-01