 Molden2AIM, Version 4.0.0 (06/02/2016)           Time: Sun Jun 24 19:47:46 2018
GAUSSIAN             15 MOL ORBITALS    259 PRIMITIVES        2 NUCLEI
  Si   1    (CENTRE  1)   0.00000000  0.00000000  1.42615930  CHARGE = 14.0
  S    2    (CENTRE  2)   0.00000000  0.00000000 -2.22104236  CHARGE = 16.0
CENTRE ASSIGNMENTS    1  1  1  1  1  1  1  1  1  1  1  1  1  1  1  1  1  1  1  1
CENTRE ASSIGNMENTS    1  1  1  1  1  1  1  1  1  1  1  1  1  1  1  1  1  1  1  1
CENTRE ASSIGNMENTS    1  1  1  1  1  1  1  1  1  1  1  1  1  1  1  1  1  1  1  1
CENTRE ASSIGNMENTS    1  1  1  1  1  1  1  1  1  1  1  1  1  1  1  1  1  1  1  1
CENTRE ASSIGNMENTS    1  1  1  1  1  1  1  1  1  1  1  1  1  1  1  1  1  1  1  1
CENTRE ASSIGNMENTS    1  1  1  1  1  1  1  1  1  1  1  1  1  1  1  1  1  1  1  1
CENTRE ASSIGNMENTS    1  1  1  1  1  1  1  1  2  2  2  2  2  2  2  2  2  2  2  2
CENTRE ASSIGNMENTS    2  2  2  2  2  2  2  2  2  2  2  2  2  2  2  2  2  2  2  2
CENTRE ASSIGNMENTS    2  2  2  2  2  2  2  2  2  2  2  2  2  2  2  2  2  2  2  2
CENTRE ASSIGNMENTS    2  2  2  2  2  2  2  2  2  2  2  2  2  2  2  2  2  2  2  2
CENTRE ASSIGNMENTS    2  2  2  2  2  2  2  2  2  2  2  2  2  2  2  2  2  2  2  2
CENTRE ASSIGNMENTS    2  2  2  2  2  2  2  2  2  2  2  2  2  2  2  2  2  2  2  2
CENTRE ASSIGNMENTS    2  2  2  2  2  2  2  2  2  2  2  2  2  2  2  2  2  2  2
TYPE ASSIGNMENTS      1  1  1  1  1  1  1  1  1  1  1  1  1  1  1  1  1  1  1  1
TYPE ASSIGNMENTS      1  2  2  2  2  2  2  2  2  3  3  3  3  3  3  3  3  4  4  4
TYPE ASSIGNMENTS      4  4  4  4  4  2  2  3  3  4  4  2  3  4  2  3  4  2  3  4
TYPE ASSIGNMENTS      2  3  4  5  6  7  8  9 10  5  6  7  8  9 10  5  6  7  8  9
TYPE ASSIGNMENTS     10  5  6  7  8  9 10  5  6  7  8  9 10 11 12 13 17 14 15 18
TYPE ASSIGNMENTS     19 16 20 11 12 13 17 14 15 18 19 16 20 21 22 23 24 25 26 27
TYPE ASSIGNMENTS     28 29 30 31 32 33 34 35  1  1  1  1  1  1  1  1  1  1  1  1
TYPE ASSIGNMENTS      1  1  1  1  1  1  1  1  1  2  2  2  2  2  2  2  2  3  3  3
TYPE ASSIGNMENTS      3  3  3  3  3  4  4  4  4  4  4  4  4  2  2  3  3  4  4  2
TYPE ASSIGNMENTS      3  4  2  3  4  2  3  4  2  3  4  2  3  4  5  6  7  8  9 10
TYPE ASSIGNMENTS      5  6  7  8  9 10  5  6  7  8  9 10  5  6  7  8  9 10  5  6
TYPE ASSIGNMENTS      7  8  9 10 11 12 13 17 14 15 18 19 16 20 11 12 13 17 14 15
TYPE ASSIGNMENTS     18 19 16 20 21 22 23 24 25 26 27 28 29 30 31 32 33 34 35
EXPONENTS  0.9180707D+06 0.1374853D+06 0.3128777D+05 0.8861611D+04 0.2890694D+04
EXPONENTS  0.1043406D+04 0.4068016D+03 0.1684836D+03 0.7318563D+02 0.3299849D+02
EXPONENTS  0.2787875D+03 0.8591023D+02 0.3299260D+02 0.1503369D+02 0.5725751D+01
EXPONENTS  0.2614652D+01 0.1175783D+01 0.3543233D+00 0.1624834D+00 0.6833246D-01
EXPONENTS  0.3052108D-01 0.1775885D+04 0.4208379D+03 0.1364229D+03 0.5170099D+02
EXPONENTS  0.2155946D+02 0.9555920D+01 0.4352982D+01 0.2009696D+01 0.1775885D+04
EXPONENTS  0.4208379D+03 0.1364229D+03 0.5170099D+02 0.2155946D+02 0.9555920D+01
EXPONENTS  0.4352982D+01 0.2009696D+01 0.1775885D+04 0.4208379D+03 0.1364229D+03
EXPONENTS  0.5170099D+02 0.2155946D+02 0.9555920D+01 0.4352982D+01 0.2009696D+01
EXPONENTS  0.4641815D+02 0.1907642D+01 0.4641815D+02 0.1907642D+01 0.4641815D+02
EXPONENTS  0.1907642D+01 0.9233722D+00 0.9233722D+00 0.9233722D+00 0.3451572D+00
EXPONENTS  0.3451572D+00 0.3451572D+00 0.1365683D+00 0.1365683D+00 0.1365683D+00
EXPONENTS  0.5298706D-01 0.5298706D-01 0.5298706D-01 0.2645000D+01 0.2645000D+01
EXPONENTS  0.2645000D+01 0.2645000D+01 0.2645000D+01 0.2645000D+01 0.6080000D+00
EXPONENTS  0.6080000D+00 0.6080000D+00 0.6080000D+00 0.6080000D+00 0.6080000D+00
EXPONENTS  0.2720000D+00 0.2720000D+00 0.2720000D+00 0.2720000D+00 0.2720000D+00
EXPONENTS  0.2720000D+00 0.1130000D+00 0.1130000D+00 0.1130000D+00 0.1130000D+00
EXPONENTS  0.1130000D+00 0.1130000D+00 0.4401890D-01 0.4401890D-01 0.4401890D-01
EXPONENTS  0.4401890D-01 0.4401890D-01 0.4401890D-01 0.2120000D+00 0.2120000D+00
EXPONENTS  0.2120000D+00 0.2120000D+00 0.2120000D+00 0.2120000D+00 0.2120000D+00
EXPONENTS  0.2120000D+00 0.2120000D+00 0.2120000D+00 0.5410000D+00 0.5410000D+00
EXPONENTS  0.5410000D+00 0.5410000D+00 0.5410000D+00 0.5410000D+00 0.5410000D+00
EXPONENTS  0.5410000D+00 0.5410000D+00 0.5410000D+00 0.4610000D+00 0.4610000D+00
EXPONENTS  0.4610000D+00 0.4610000D+00 0.4610000D+00 0.4610000D+00 0.4610000D+00
EXPONENTS  0.4610000D+00 0.4610000D+00 0.4610000D+00 0.4610000D+00 0.4610000D+00
EXPONENTS  0.4610000D+00 0.4610000D+00 0.4610000D+00 0.1273411D+07 0.1906978D+06
EXPONENTS  0.4339789D+05 0.1229181D+05 0.4009742D+04 0.1447353D+04 0.5643010D+03
EXPONENTS  0.2337451D+03 0.1015640D+03 0.4580591D+02 0.3942728D+03 0.1217225D+03
EXPONENTS  0.4675413D+02 0.2092301D+02 0.8268557D+01 0.3862935D+01 0.1779468D+01
EXPONENTS  0.6106426D+00 0.2741227D+00 0.1132594D+00 0.4439262D-01 0.2189893D+04
EXPONENTS  0.5189460D+03 0.1681956D+03 0.6374528D+02 0.2659703D+02 0.1177425D+02
EXPONENTS  0.5353438D+01 0.2470191D+01 0.2189893D+04 0.5189460D+03 0.1681956D+03
EXPONENTS  0.6374528D+02 0.2659703D+02 0.1177425D+02 0.5353438D+01 0.2470191D+01
EXPONENTS  0.2189893D+04 0.5189460D+03 0.1681956D+03 0.6374528D+02 0.2659703D+02
EXPONENTS  0.1177425D+02 0.5353438D+01 0.2470191D+01 0.8212029D+02 0.4952353D+01
EXPONENTS  0.8212029D+02 0.4952353D+01 0.8212029D+02 0.4952353D+01 0.1082826D+01
EXPONENTS  0.1082826D+01 0.1082826D+01 0.4927128D+00 0.4927128D+00 0.4927128D+00
EXPONENTS  0.2048345D+00 0.2048345D+00 0.2048345D+00 0.8074362D-01 0.8074362D-01
EXPONENTS  0.8074362D-01 0.2566116D-01 0.2566116D-01 0.2566116D-01 0.4159000D+01
EXPONENTS  0.4159000D+01 0.4159000D+01 0.4159000D+01 0.4159000D+01 0.4159000D+01
EXPONENTS  0.1019000D+01 0.1019000D+01 0.1019000D+01 0.1019000D+01 0.1019000D+01
EXPONENTS  0.1019000D+01 0.4640000D+00 0.4640000D+00 0.4640000D+00 0.4640000D+00
EXPONENTS  0.4640000D+00 0.4640000D+00 0.1940000D+00 0.1940000D+00 0.1940000D+00
EXPONENTS  0.1940000D+00 0.1940000D+00 0.1940000D+00 0.6788983D-01 0.6788983D-01
EXPONENTS  0.6788983D-01 0.6788983D-01 0.6788983D-01 0.6788983D-01 0.3350000D+00
EXPONENTS  0.3350000D+00 0.3350000D+00 0.3350000D+00 0.3350000D+00 0.3350000D+00
EXPONENTS  0.3350000D+00 0.3350000D+00 0.3350000D+00 0.3350000D+00 0.8690000D+00
EXPONENTS  0.8690000D+00 0.8690000D+00 0.8690000D+00 0.8690000D+00 0.8690000D+00
EXPONENTS  0.8690000D+00 0.8690000D+00 0.8690000D+00 0.8690000D+00 0.6830000D+00
EXPONENTS  0.6830000D+00 0.6830000D+00 0.6830000D+00 0.6830000D+00 0.6830000D+00
EXPONENTS  0.6830000D+00 0.6830000D+00 0.6830000D+00 0.6830000D+00 0.6830000D+00
EXPONENTS  0.6830000D+00 0.6830000D+00 0.6830000D+00 0.6830000D+00
MO    1     MO 0.0        OCC NO =    2.0000000  ORB. ENERGY =  -91.939028
 -0.37684369D-07 -0.70523891D-07 -0.12215107D-06 -0.19971603D-06 -0.31124347D-06
 -0.46044305D-06 -0.63425930D-06 -0.77323686D-06 -0.76061981D-06 -0.49759114D-06
  0.26316796D-06  0.95553506D-06  0.16727304D-05 -0.45042643D-05  0.80960729D-05
 -0.11933378D-04  0.12038923D-04  0.57259058D-04 -0.12067229D-03 -0.29104056D-04
 -0.28541987D-06 -0.39529546D-15 -0.56801790D-15 -0.75265421D-15 -0.87894993D-15
 -0.87474319D-15 -0.67795909D-15 -0.37695414D-15 -0.13366119D-15  0.20837544D-14
  0.29942408D-14  0.39675297D-14  0.46332830D-14  0.46111077D-14  0.35737830D-14
  0.19870702D-14  0.70457954D-15 -0.12293411D-04 -0.17664957D-04 -0.23407017D-04
 -0.27334725D-04 -0.27203899D-04 -0.21084051D-04 -0.11723009D-04 -0.41567691D-05
 -0.46618066D-15  0.19973369D-15  0.15170483D-15 -0.64997472D-16 -0.15676287D-03
  0.67164575D-04 -0.14441733D-15  0.19793749D-15 -0.86119292D-04  0.45507620D-17
 -0.22340959D-16  0.66026308D-04  0.38617830D-17  0.14610355D-17  0.63160226D-04
 -0.14646290D-17 -0.12372946D-17  0.11218150D-05 -0.45381751D-05 -0.45381751D-05
  0.90763501D-05 -0.32754693D-15 -0.95411239D-16  0.45703067D-16 -0.85962331D-06
 -0.85962331D-06  0.17192466D-05  0.34337351D-17 -0.12464579D-16  0.36650374D-17
  0.17068962D-04  0.17068962D-04 -0.34137923D-04 -0.19915125D-17  0.13246377D-16
  0.74406303D-17  0.25400026D-05  0.25400026D-05 -0.50800053D-05  0.32622741D-18
  0.15042255D-17  0.21887207D-17 -0.67062098D-07 -0.67062098D-07  0.13412420D-06
 -0.14325944D-19 -0.94987565D-19  0.26261659D-19  0.12510335D-17  0.13047539D-17
  0.31462257D-05  0.12505413D-17  0.13046800D-17 -0.47193385D-05 -0.50036418D-17
 -0.52189417D-17 -0.47193385D-05 -0.43444417D-18 -0.53192048D-18  0.12028165D-17
  0.83520261D-05 -0.53146472D-18  0.12060637D-17 -0.12528039D-04  0.21272262D-17
 -0.48145131D-17 -0.12528039D-04 -0.82839317D-19 -0.22119791D-06 -0.22119791D-06
 -0.58986108D-06 -0.82587166D-19 -0.13124891D-17 -0.81963541D-19 -0.37763124D-17
  0.17493105D-17  0.50352753D-17 -0.44239581D-06  0.17695833D-05  0.17695833D-05
 -0.37768889D-17 -0.13104643D-17  0.49365212D-18  0.31700197D+00  0.59326045D+00
  0.10275984D+01  0.16805741D+01  0.26209345D+01  0.38856407D+01  0.53800442D+01
  0.66336117D+01  0.66659823D+01  0.45406669D+01  0.26190482D-02  0.97584305D-02
  0.18007365D-01  0.14966587D+01  0.10173110D+00 -0.62527836D-02  0.20766794D-02
 -0.47540629D-03  0.19411836D-03  0.65602326D-04  0.72531960D-05 -0.45315879D-18
 -0.65084488D-18 -0.86143786D-18 -0.10041493D-17 -0.98709461D-18 -0.74248793D-18
 -0.38996057D-18 -0.11631895D-18  0.93282985D-17  0.13397678D-16  0.17732746D-16
  0.20670469D-16  0.20319397D-16  0.15284155D-16  0.80273598D-17  0.23944319D-17
  0.81070344D-03  0.11643649D-02  0.15411168D-02  0.17964284D-02  0.17659174D-02
  0.13283148D-02  0.69764150D-03  0.20809521D-03  0.24540807D-16 -0.11915944D-16
  0.14011405D-15 -0.68033265D-16  0.26896725D-02 -0.13059875D-02  0.22730276D-17
 -0.19402752D-17 -0.18654242D-04 -0.49116588D-17  0.41356950D-17 -0.43737393D-04
  0.11630533D-16  0.10372887D-16  0.11214803D-03  0.78956862D-18  0.22661430D-17
  0.89994233D-05 -0.30776474D-18 -0.16090608D-18  0.20946495D-06 -0.57839328D-04
 -0.57839328D-04  0.11567866D-03 -0.37797243D-16 -0.37572577D-16 -0.11187958D-15
  0.29538390D-04  0.29538390D-04 -0.59076780D-04 -0.31234355D-19  0.34996132D-16
 -0.36135665D-16 -0.17299797D-04 -0.17299797D-04  0.34599594D-04 -0.37103700D-18
 -0.15562904D-16  0.14203000D-16 -0.94890694D-05 -0.94890694D-05  0.18978139D-04
 -0.18322440D-18  0.12046850D-16  0.77032286D-17 -0.67158698D-07 -0.67158698D-07
  0.13431740D-06 -0.22046951D-20 -0.79733297D-18 -0.47535682D-19 -0.15868787D-17
 -0.18095691D-17  0.97265230D-05 -0.15859599D-17 -0.18094516D-17 -0.14589785D-04
  0.63465959D-17  0.72381589D-17 -0.14589785D-04 -0.29112258D-18  0.27497615D-20
 -0.43127710D-19 -0.48125791D-05  0.24019871D-19 -0.25027459D-19  0.72188687D-05
 -0.32269155D-19  0.15441059D-18  0.72188687D-05  0.83849918D-18  0.22395102D-05
  0.22395102D-05  0.59720272D-05  0.14726881D-18 -0.51679074D-17  0.15175959D-18
 -0.15393668D-16  0.68905633D-17  0.20524948D-16  0.44790204D-05 -0.17916082D-04
 -0.17916082D-04 -0.15393841D-16 -0.51679676D-17 -0.89708520D-18
MO    2     MO 0.0        OCC NO =    2.0000000  ORB. ENERGY =  -68.837791
  0.26657756D+00  0.49888288D+00  0.86409123D+00  0.14127824D+01  0.22017226D+01
  0.32571537D+01  0.44867222D+01  0.54698433D+01  0.53805909D+01  0.35199377D+01
  0.30989155D-02  0.11251835D-01  0.19697118D-01  0.10806785D+01  0.61773200D-01
 -0.38603323D-02  0.12977818D-02 -0.20730200D-03  0.24005255D-04 -0.10894508D-04
  0.37550528D-06  0.54110658D-18  0.77754049D-18  0.10302829D-17  0.12031648D-17
  0.11974064D-17  0.92803527D-18  0.51599977D-18  0.18296429D-18 -0.15153296D-17
 -0.21774456D-17 -0.28852323D-17 -0.33693756D-17 -0.33532494D-17 -0.25988952D-17
 -0.14450198D-17 -0.51237817D-18 -0.45605340D-03 -0.65532373D-03 -0.86833912D-03
 -0.10140468D-02 -0.10091935D-02 -0.78216316D-03 -0.43489296D-03 -0.15420526D-03
  0.28313585D-17 -0.12130870D-17 -0.54757398D-17  0.23460641D-17 -0.14827230D-02
  0.63526818D-03  0.21338987D-19 -0.65717458D-18 -0.27847605D-03  0.32267427D-19
  0.25881504D-18  0.12310605D-03 -0.16107197D-20 -0.35720927D-19  0.10424938D-05
 -0.43320310D-20  0.21500873D-19  0.15770042D-05 -0.57159752D-04 -0.57159752D-04
  0.11431950D-03 -0.11448488D-17  0.20824002D-17 -0.17950234D-17  0.13350285D-04
  0.13350285D-04 -0.26700571D-04  0.55492991D-19 -0.77637613D-19  0.79305952D-19
  0.10140764D-04  0.10140764D-04 -0.20281529D-04 -0.16245156D-21 -0.20228147D-19
 -0.12506469D-20 -0.44540164D-06 -0.44540164D-06  0.89080327D-06  0.19500704D-21
 -0.74223421D-20 -0.34449413D-20  0.79318530D-07  0.79318530D-07 -0.15863706D-06
 -0.12225885D-21 -0.48158485D-21 -0.35255430D-20 -0.28054100D-20 -0.23633318D-20
  0.16006711D-06 -0.34620444D-20 -0.17869474D-20 -0.24010067D-06  0.11878274D-19
  0.88769427D-20 -0.24010067D-06  0.37283470D-20  0.29199741D-20  0.23236508D-20
  0.17769282D-04  0.80177532D-20  0.12099994D-19 -0.26653923D-04 -0.16777676D-19
 -0.19070946D-19 -0.26653923D-04  0.16812092D-19 -0.79191174D-06 -0.79191174D-06
 -0.21117646D-05 -0.15827565D-21  0.26052191D-19 -0.89925752D-21  0.35550426D-20
 -0.36281648D-19 -0.58725171D-20 -0.15838235D-05  0.63352939D-05  0.63352939D-05
  0.69524236D-20  0.30688372D-19  0.31725995D-20 -0.24045976D-06 -0.45001381D-06
 -0.77947804D-06 -0.12747885D-05 -0.19880926D-05 -0.29474272D-05 -0.40809972D-05
 -0.50318825D-05 -0.50564370D-05 -0.34442930D-05  0.14741875D-05  0.54927419D-05
  0.10135832D-04 -0.23389558D-04  0.38496842D-04 -0.51150923D-04  0.56803501D-04
 -0.80007907D-04  0.47252155D-04  0.23350115D-04  0.15553454D-06  0.16645216D-15
  0.23906529D-15  0.31641931D-15  0.36883941D-15  0.36257496D-15  0.27272718D-15
  0.14323849D-15  0.42725730D-16  0.13905054D-15  0.19970998D-15  0.26432986D-15
  0.30812048D-15  0.30288729D-15  0.22783040D-15  0.11965834D-15  0.35692152D-16
  0.22670797D-05  0.32560711D-05  0.43096335D-05  0.50235957D-05  0.49382738D-05
  0.37145464D-05  0.19509093D-05  0.58192477D-06  0.17307232D-17 -0.84036361D-18
  0.96694254D-18 -0.46950507D-18 -0.13529781D-03  0.65694708D-04  0.39478815D-17
  0.32765842D-17 -0.55343230D-04 -0.22646904D-19 -0.53583321D-19  0.86687738D-05
  0.95288222D-22  0.90870631D-20  0.49738231D-04 -0.12032005D-19 -0.20415070D-19
 -0.94091501D-06  0.16558693D-20 -0.28941033D-20 -0.55955965D-07 -0.38987321D-04
 -0.38987321D-04  0.77974641D-04  0.16983127D-19  0.10766057D-18  0.40635657D-18
  0.30228192D-04  0.30228192D-04 -0.60456384D-04  0.12594900D-19 -0.97695123D-19
  0.43052857D-19 -0.21979722D-04 -0.21979722D-04  0.43959445D-04  0.79094149D-21
 -0.12649193D-20 -0.21725898D-19 -0.51829024D-05 -0.51829024D-05  0.10365805D-04
  0.24412893D-20 -0.29966148D-19  0.32647659D-21  0.17883130D-06  0.17883130D-06
 -0.35766260D-06 -0.24915723D-21  0.84380270D-21 -0.66528404D-20  0.66500597D-20
 -0.14127722D-20  0.10290696D-04  0.65889655D-20 -0.11636933D-20 -0.15436044D-04
 -0.26539145D-19  0.54020101D-20 -0.15436044D-04 -0.25699308D-20 -0.40234386D-19
 -0.57468765D-20  0.67081027D-05 -0.40641561D-19 -0.14282217D-20 -0.10062154D-04
  0.16134472D-18  0.18668851D-19 -0.10062154D-04  0.56273249D-20  0.34521451D-05
  0.34521451D-05  0.92057202D-05  0.23367523D-22 -0.57763026D-19  0.36411337D-21
  0.60988362D-20  0.76596937D-19 -0.86838736D-20  0.69042901D-05 -0.27617161D-04
 -0.27617161D-04  0.77551122D-20 -0.56501733D-19 -0.11624427D-20
MO    3     MO 0.0        OCC NO =    2.0000000  ORB. ENERGY =   -8.942684
 -0.16861199D-06 -0.31554658D-06 -0.54654317D-06 -0.89359379D-06 -0.13926035D-05
 -0.20601703D-05 -0.28378802D-05 -0.34597105D-05 -0.34032578D-05 -0.22263829D-05
  0.28613141D-05  0.10389129D-04  0.18186891D-04 -0.28839276D-04  0.55429876D-04
 -0.10086695D-03  0.15710495D-04 -0.15522759D-03  0.31004151D-03 -0.83179213D-04
 -0.16290458D-04  0.13504207D-15  0.19404806D-15  0.25712409D-15  0.30026963D-15
  0.29883251D-15  0.23160651D-15  0.12877625D-15  0.45661756D-16 -0.38481904D-15
 -0.55296385D-15 -0.73270679D-15 -0.85565532D-15 -0.85156008D-15 -0.65999130D-15
 -0.36696381D-15 -0.13011880D-15  0.17470964D-03  0.25104817D-03  0.33265230D-03
  0.38847151D-03  0.38661225D-03  0.29963913D-03  0.16660328D-03  0.59074542D-04
 -0.24069167D-15  0.10312362D-15  0.30985645D-14 -0.13275705D-14  0.26350309D-03
 -0.11289710D-03 -0.15997695D-15  0.64489636D-15  0.13795666D-03 -0.66473961D-16
 -0.19005145D-16 -0.18863706D-03  0.21699974D-16  0.48744732D-17 -0.11646033D-03
 -0.28622390D-17 -0.85403964D-17  0.27837815D-04 -0.57131906D-04 -0.57131906D-04
  0.11426381D-03 -0.46754389D-15  0.13402051D-15 -0.11531271D-15  0.23533606D-05
  0.23533606D-05 -0.47067212D-05 -0.17328325D-16 -0.35658728D-17  0.78140628D-17
 -0.39717013D-04 -0.39717013D-04  0.79434026D-04  0.85755515D-17 -0.10910029D-16
  0.48471889D-17 -0.45072214D-05 -0.45072214D-05  0.90144427D-05 -0.12905773D-17
  0.67736479D-17  0.73694204D-17  0.89883198D-06  0.89883198D-06 -0.17976640D-05
  0.84429424D-19 -0.35113260D-18  0.19757339D-18  0.25136425D-17  0.26391710D-17
 -0.79559524D-05  0.24913050D-17  0.26218712D-17  0.11933929D-04 -0.10032232D-16
 -0.10539384D-16  0.11933929D-04  0.46930456D-18 -0.13058779D-17  0.98498643D-19
  0.12961832D-05 -0.12919421D-17  0.28009660D-18 -0.19442748D-05  0.52095758D-17
 -0.57559253D-18 -0.19442748D-05 -0.27719671D-18 -0.15966306D-05 -0.15966306D-05
 -0.42576817D-05 -0.10441213D-18 -0.31899567D-17 -0.66016179D-19 -0.12531242D-16
  0.42240647D-17  0.16725875D-16 -0.31932612D-05  0.12773045D-04  0.12773045D-04
 -0.12583901D-16 -0.31023240D-17  0.51128493D-18 -0.88616885D-01 -0.16584406D+00
 -0.28726185D+00 -0.46979911D+00 -0.73267385D+00 -0.10862184D+01 -0.15039741D+01
 -0.18544049D+01 -0.18634540D+01 -0.12693289D+01 -0.13881978D+00 -0.51723491D+00
 -0.95446065D+00 -0.95499979D+00  0.68534557D+00  0.11138588D+01  0.40742378D+00
  0.15714080D-01 -0.18103886D-02  0.28948741D-03  0.35467429D-04  0.13956147D-15
  0.20044379D-15  0.26530111D-15  0.30925264D-15  0.30400022D-15  0.22866754D-15
  0.12009801D-15  0.35823299D-16  0.27792189D-15  0.39916259D-15  0.52831908D-15
  0.61584389D-15  0.60538426D-15  0.45536720D-15  0.23916248D-15  0.71338308D-16
  0.18651309D-02  0.26787761D-02  0.35455439D-02  0.41329221D-02  0.40627275D-02
  0.30559646D-02  0.16050169D-02  0.47875065D-03 -0.28622193D-16  0.13897687D-16
 -0.10543671D-15  0.51195460D-16 -0.50150972D-02  0.24351122D-02 -0.17540215D-17
 -0.50985075D-17  0.28607340D-03 -0.11820599D-16 -0.16306532D-16  0.30272557D-03
  0.10842398D-16  0.34067472D-16 -0.25050823D-03 -0.89235165D-19  0.33420844D-17
  0.33507891D-04 -0.96751179D-20  0.16906914D-17 -0.42816659D-06  0.13828426D-02
  0.13828426D-02 -0.27656852D-02 -0.77499771D-16 -0.32829170D-15 -0.55237155D-16
 -0.53533593D-04 -0.53533593D-04  0.10706719D-03 -0.23566756D-17 -0.15571022D-15
 -0.12134186D-15 -0.17399425D-04 -0.17399425D-04  0.34798849D-04 -0.56552545D-18
  0.46056779D-16  0.51369204D-16  0.19547133D-04  0.19547133D-04 -0.39094265D-04
  0.68355569D-18  0.35270935D-17 -0.84027999D-18 -0.83680378D-06 -0.83680378D-06
  0.16736076D-05 -0.50210185D-19 -0.11139721D-17  0.32828415D-17  0.20236250D-18
 -0.65303066D-17 -0.17633628D-04  0.25401113D-18 -0.65807994D-17  0.26450442D-04
 -0.86109863D-18  0.26171719D-16  0.26450442D-04  0.34522521D-18 -0.83718020D-18
  0.82849779D-17  0.14187791D-03  0.33261417D-18  0.86834725D-17 -0.21281687D-03
  0.21789264D-17 -0.33538406D-16 -0.21281687D-03  0.97905656D-18  0.37266954D-05
  0.37266954D-05  0.99378544D-05 -0.12683177D-18 -0.15038405D-16  0.92019920D-19
 -0.19014741D-16  0.20029449D-16  0.25378058D-16  0.74533908D-05 -0.29813563D-04
 -0.29813563D-04 -0.19089952D-16 -0.14973131D-16  0.10443554D-18
MO    4     MO 0.0        OCC NO =    2.0000000  ORB. ENERGY =   -6.623119
  0.60798683D-04  0.11378085D-03  0.19707439D-03  0.32221507D-03  0.50214966D-03
  0.74286319D-03  0.10232924D-02  0.12475141D-02  0.12271582D-02  0.80279667D-03
  0.10126508D-03  0.36768281D-03  0.64365425D-03  0.50396201D-03 -0.43182661D-03
 -0.79145147D-03 -0.32913140D-04 -0.17454074D-03  0.27429387D-03  0.51418663D-04
 -0.17823451D-04  0.24445702D-15  0.35127133D-15  0.46545337D-15  0.54355666D-15
  0.54095515D-15  0.41926072D-15  0.23311445D-15  0.82658214D-16 -0.47845523D-15
 -0.68751393D-15 -0.91099286D-15 -0.10638579D-14 -0.10587662D-14 -0.82058386D-15
 -0.45625537D-15 -0.16177999D-15  0.25545654D-03  0.36707703D-03  0.48639678D-03
  0.56801438D-03  0.56529581D-03  0.43812565D-03  0.24360360D-03  0.86377479D-04
 -0.14818965D-15  0.63491406D-16  0.15364710D-15 -0.65829635D-16  0.38310033D-03
 -0.16413817D-03 -0.37244852D-16  0.26870440D-15  0.63047383D-04 -0.38942664D-16
 -0.95608761D-16  0.28387788D-04  0.11325053D-15  0.10114793D-15 -0.16339417D-03
 -0.44278107D-16 -0.28458039D-16  0.88528634D-06 -0.39551041D-04 -0.39551041D-04
  0.79102082D-04 -0.96212901D-15  0.68132687D-16 -0.21263263D-15  0.54223898D-04
  0.54223898D-04 -0.10844780D-03  0.18210035D-16  0.18927600D-15  0.16682225D-15
 -0.82395094D-05 -0.82395094D-05  0.16479019D-04 -0.16324299D-17 -0.14192492D-15
 -0.10714179D-15 -0.75274955D-05 -0.75274955D-05  0.15054991D-04  0.32149378D-18
 -0.24471913D-16 -0.18439968D-16  0.63651389D-08  0.63651389D-08 -0.12730278D-07
 -0.25024537D-19  0.80554403D-17  0.48908162D-17 -0.12054062D-16 -0.92707179D-17
  0.21594278D-06 -0.12057757D-16 -0.92528552D-17 -0.32391417D-06  0.48219942D-16
  0.37065009D-16 -0.32391417D-06  0.48502613D-18  0.29013574D-16  0.18282573D-16
  0.57609157D-04  0.29026005D-16  0.18150442D-16 -0.86413735D-04 -0.11606673D-15
 -0.72998160D-16 -0.86413735D-04  0.65525112D-19 -0.47933257D-05 -0.47933257D-05
 -0.12782202D-04  0.25671603D-18 -0.15057498D-16  0.25088814D-18 -0.26945958D-17
  0.20079601D-16  0.35937406D-17 -0.95866514D-05  0.38346605D-04  0.38346605D-04
 -0.26974344D-17 -0.15066309D-16 -0.15228125D-17 -0.10503560D-03 -0.19657124D-03
 -0.34048503D-03 -0.55684234D-03 -0.86842187D-03 -0.12874703D-02 -0.17826268D-02
 -0.21979845D-02 -0.22087102D-02 -0.15045070D-02 -0.19173095D-03 -0.71437904D-03
 -0.13182534D-02 -0.11348059D-02  0.11309981D-02  0.17979284D-02  0.51957167D-03
 -0.37849935D-03  0.99834763D-04 -0.41384142D-03  0.51992493D-04 -0.12048156D-10
 -0.17304046D-10 -0.22903092D-10 -0.26697369D-10 -0.26243935D-10 -0.19740565D-10
 -0.10367902D-10 -0.30925778D-11 -0.86803999D-11 -0.12467140D-10 -0.16501115D-10
 -0.19234798D-10 -0.18908109D-10 -0.14222591D-10 -0.74698181D-11 -0.22281262D-11
 -0.51297135D+01 -0.73675008D+01 -0.97513928D+01 -0.11366873D+02 -0.11173815D+02
 -0.84048913D+01 -0.44143158D+01 -0.13167192D+01 -0.11719742D-12  0.56905949D-13
 -0.81720498D-13  0.39679904D-13 -0.54147046D-01  0.26291441D-01 -0.28497666D-12
 -0.20532218D-12 -0.12061950D+00  0.12861952D-14  0.90949658D-15  0.39847371D-03
 -0.12150208D-14 -0.88277512D-15 -0.68213769D-03  0.14191648D-15  0.94386186D-16
  0.96607309D-05  0.11721255D-17  0.11563931D-18  0.15365338D-05  0.14993225D-02
  0.14993225D-02 -0.29986449D-02 -0.95334572D-17 -0.11178429D-13 -0.80314611D-14
  0.42842129D-04  0.42842129D-04 -0.85684258D-04 -0.31959096D-17  0.11863756D-14
  0.84742708D-15  0.80569358D-05  0.80569358D-05 -0.16113872D-04  0.68189829D-18
 -0.15927071D-15 -0.11973840D-15  0.37353414D-04  0.37353414D-04 -0.74706828D-04
 -0.17719112D-18 -0.12879491D-15 -0.90420653D-16 -0.93391085D-06 -0.93391085D-06
  0.18678217D-05  0.99563385D-19  0.14069075D-16  0.72239306D-17  0.36994627D-16
  0.27617761D-16 -0.32972210D-04  0.36998252D-16  0.27610599D-16  0.49458315D-04
 -0.14798213D-15 -0.11046388D-15  0.49458315D-04 -0.51764847D-17 -0.90512704D-17
  0.99114019D-17 -0.10151307D-03 -0.91222948D-17  0.10086428D-16  0.15226961D-03
  0.36276106D-16 -0.39820634D-16  0.15226961D-03 -0.67286167D-17 -0.16827326D-04
 -0.16827326D-04 -0.44872869D-04 -0.38465605D-18  0.12648741D-15 -0.39108429D-18
  0.12128932D-15 -0.16858836D-15 -0.16171704D-15 -0.33654652D-04  0.13461861D-03
  0.13461861D-03  0.12128319D-15  0.12630286D-15  0.23272210D-17
MO    5     MO 0.0        OCC NO =    2.0000000  ORB. ENERGY =   -6.622502
 -0.20869413D-15 -0.39055774D-15 -0.67646642D-15 -0.11060173D-14 -0.17236506D-14
 -0.25499103D-14 -0.35124959D-14 -0.42821466D-14 -0.42122740D-14 -0.27556346D-14
 -0.34886989D-15 -0.12667098D-14 -0.22174633D-14 -0.17975856D-14  0.16243670D-14
  0.25782901D-14  0.41023146D-15  0.39415223D-15 -0.52836977D-15 -0.34855985D-15
 -0.45078986D-16 -0.52777123D-04 -0.75837832D-04 -0.10048920D-03 -0.11735133D-03
 -0.11678968D-03 -0.90516422D-04 -0.50328316D-04 -0.17845520D-04  0.10614858D-04
  0.15252969D-04  0.20211003D-04  0.23602419D-04  0.23489455D-04  0.18205217D-04
  0.10122339D-04  0.35892004D-05 -0.52157776D-15 -0.74947864D-15 -0.99309944D-15
 -0.11597420D-14 -0.11541913D-14 -0.89454199D-15 -0.49737706D-15 -0.17636101D-15
 -0.15961576D-05  0.68386887D-06  0.32102899D-06 -0.13754390D-06 -0.93859638D-15
  0.40213877D-15  0.11586205D-04 -0.23302885D-05 -0.25287843D-15 -0.13733973D-04
  0.27622607D-05 -0.46699104D-16  0.39846945D-04 -0.80142618D-05  0.43436841D-15
 -0.18752515D-04  0.37716207D-05  0.59189830D-16 -0.38970225D-15  0.58724438D-15
 -0.19754213D-15 -0.19443573D-15 -0.13488133D-03  0.27128159D-04  0.64019355D-16
 -0.29098070D-15  0.22696134D-15 -0.28484826D-15  0.68771982D-04 -0.13831842D-04
 -0.42393944D-16  0.10397113D-15 -0.61577183D-16  0.11044079D-15 -0.49138837D-04
  0.98831040D-05  0.24998295D-16  0.27729402D-16 -0.52727696D-16 -0.19177093D-16
 -0.10085660D-04  0.20284897D-05  0.23177175D-18  0.10691657D-18 -0.33868832D-18
 -0.33374057D-17  0.33265415D-05 -0.66905441D-06 -0.44080905D-05  0.88658217D-06
  0.13190350D-16 -0.44080905D-05  0.88658218D-06 -0.24384975D-16  0.17632362D-04
 -0.35463287D-05 -0.15186076D-16  0.64924768D-16  0.11234669D-04 -0.22595854D-05
 -0.17562243D-15  0.11234669D-04 -0.22595854D-05  0.22689458D-15 -0.44938675D-04
  0.90383417D-05  0.29997271D-15 -0.84361906D-16  0.14179512D-16  0.13094574D-16
  0.18374118D-16  0.76530344D-18 -0.89984165D-05  0.81738471D-18  0.18098167D-05
  0.11997889D-04 -0.24130889D-05 -0.26699904D-16 -0.58377167D-16 -0.51867542D-16
  0.18098167D-05 -0.89984165D-05 -0.47480645D-17  0.21520239D-15  0.40274535D-15
  0.69760339D-15  0.11408875D-14  0.17792678D-14  0.26378359D-14  0.36523382D-14
  0.45033447D-14  0.45253200D-14  0.30825121D-14  0.39077977D-15  0.14560241D-14
  0.26868212D-14  0.23615341D-14 -0.23624357D-14 -0.36347052D-14 -0.12534966D-14
  0.94386621D-15 -0.15011939D-15  0.10057790D-14  0.11282936D-15 -0.50277992D+01
 -0.72211275D+01 -0.95576578D+01 -0.11141042D+02 -0.10951820D+02 -0.82379077D+01
 -0.43266147D+01 -0.12905594D+01  0.10112218D+01  0.14523574D+01  0.19222947D+01
  0.22407547D+01  0.22026972D+01  0.16568585D+01  0.87019525D+00  0.25956521D+00
  0.10103149D-10  0.14510548D-10  0.19205706D-10  0.22387450D-10  0.22007216D-10
  0.16553725D-10  0.86941481D-11  0.25933241D-11 -0.49173932D-01  0.23876714D-01
  0.98901625D-02 -0.48022310D-02  0.10660726D-12 -0.51763828D-13 -0.11890868D+00
  0.23915643D-01  0.23754294D-12  0.55192446D-03 -0.11100643D-03 -0.74080456D-15
 -0.49458812D-03  0.99474594D-04  0.14386514D-14  0.60008138D-04 -0.12069204D-04
  0.37690702D-16  0.67777276D-06 -0.13631781D-06  0.41865204D-17 -0.31957672D-14
 -0.26537530D-14  0.58495202D-14  0.79857724D-15 -0.48022516D-02  0.96585827D-03
 -0.17986442D-15  0.83165724D-16  0.96698697D-16 -0.94253887D-17  0.35854287D-03
 -0.72112338D-04  0.37057956D-16 -0.95319944D-16  0.58261988D-16  0.25371853D-17
 -0.16845051D-04  0.33879799D-05 -0.80450721D-16 -0.82042460D-16  0.16249318D-15
  0.24455373D-16 -0.55019880D-04  0.11065935D-04  0.90033148D-18  0.19998013D-17
 -0.29001328D-17  0.77980305D-18  0.59539677D-05 -0.11974985D-05  0.13417267D-04
 -0.26985630D-05  0.69972490D-16  0.13417267D-04 -0.26985630D-05 -0.11027672D-15
 -0.53669070D-04  0.10794252D-04 -0.99640753D-16 -0.16121264D-16  0.96364164D-05
 -0.19381351D-05  0.22219103D-15  0.96364164D-05 -0.19381351D-05 -0.24010009D-15
 -0.38545665D-04  0.77525404D-05 -0.42647300D-15 -0.45425295D-17  0.41641242D-16
  0.43906312D-16  0.92648523D-16 -0.37405634D-17  0.68599052D-04 -0.38733501D-17
 -0.13797062D-04 -0.91465403D-04  0.18396082D-04  0.21302908D-16 -0.27115036D-15
 -0.28474078D-15 -0.13797062D-04  0.68599052D-04  0.22841740D-16
MO    6     MO 0.0        OCC NO =    2.0000000  ORB. ENERGY =   -6.622502
  0.20645351D-15  0.38636457D-15  0.66920363D-15  0.10941427D-14  0.17051449D-14
  0.25225335D-14  0.34747845D-14  0.42361719D-14  0.41670495D-14  0.27260491D-14
  0.35409561D-15  0.12856838D-14  0.22506786D-14  0.17931439D-14 -0.16304769D-14
 -0.26582340D-14 -0.41130490D-15 -0.33888234D-15  0.53458106D-15  0.25015575D-15
  0.10219620D-17  0.10614858D-04  0.15252969D-04  0.20211003D-04  0.23602419D-04
  0.23489456D-04  0.18205217D-04  0.10122339D-04  0.35892004D-05  0.52777123D-04
  0.75837832D-04  0.10048920D-03  0.11735133D-03  0.11678968D-03  0.90516422D-04
  0.50328316D-04  0.17845520D-04  0.52404700D-16  0.75302681D-16  0.99780095D-16
  0.11652324D-15  0.11596555D-15  0.89877691D-16  0.49973173D-16  0.17719593D-16
  0.32102899D-06 -0.13754390D-06  0.15961576D-05 -0.68386887D-06  0.64227937D-15
 -0.27518264D-15 -0.23302885D-05 -0.11586205D-04 -0.18008447D-16  0.27622607D-05
  0.13733973D-04  0.10401214D-15 -0.80142618D-05 -0.39846945D-04 -0.33514078D-15
  0.37716207D-05  0.18752515D-04 -0.13513210D-16 -0.31691477D-15  0.17808739D-15
  0.13882739D-15  0.17485157D-15  0.27128159D-04  0.13488133D-03  0.28250278D-15
 -0.67173890D-16 -0.21532889D-15 -0.18314248D-15 -0.13831842D-04 -0.68771982D-04
  0.65434529D-17 -0.10461903D-16  0.39184504D-17  0.61369949D-16  0.98831040D-05
  0.49138837D-04 -0.35365080D-16  0.46956751D-17  0.30669405D-16 -0.11192394D-16
  0.20284897D-05  0.10085660D-04  0.18470192D-17 -0.34378443D-18 -0.15032348D-17
 -0.21425920D-18 -0.66905441D-06 -0.33265415D-05  0.88658217D-06  0.44080905D-05
  0.10738736D-16  0.88658218D-06  0.44080905D-05 -0.17997759D-16 -0.35463287D-05
 -0.17632362D-04 -0.14218448D-16  0.19578995D-16 -0.22595854D-05 -0.11234669D-04
  0.63479378D-16 -0.22595854D-05 -0.11234669D-04 -0.59401439D-16  0.90383417D-05
  0.44938675D-04 -0.13103670D-15  0.24299591D-16 -0.20127933D-16 -0.19791157D-16
 -0.31958508D-16  0.18532939D-17  0.18098167D-05  0.18497309D-17  0.89984165D-05