 Molden2AIM, Version 4.0.0 (06/02/2016)           Time: Sun Jul  1 19:50:08 2018
GAUSSIAN             28 MOL ORBITALS    808 PRIMITIVES        2 NUCLEI
  Sc   1    (CENTRE  1)   0.00000000  0.00000000  1.42092665  CHARGE = 21.0
  Br   2    (CENTRE  2)   0.00000000  0.00000000 -3.06941033  CHARGE = 35.0
CENTRE ASSIGNMENTS    1  1  1  1  1  1  1  1  1  1  1  1  1  1  1  1  1  1  1  1
CENTRE ASSIGNMENTS    1  1  1  1  1  1  1  1  1  1  1  1  1  1  1  1  1  1  1  1
CENTRE ASSIGNMENTS    1  1  1  1  1  1  1  1  1  1  1  1  1  1  1  1  1  1  1  1
CENTRE ASSIGNMENTS    1  1  1  1  1  1  1  1  1  1  1  1  1  1  1  1  1  1  1  1
CENTRE ASSIGNMENTS    1  1  1  1  1  1  1  1  1  1  1  1  1  1  1  1  1  1  1  1
CENTRE ASSIGNMENTS    1  1  1  1  1  1  1  1  1  1  1  1  1  1  1  1  1  1  1  1
CENTRE ASSIGNMENTS    1  1  1  1  1  1  1  1  1  1  1  1  1  1  1  1  1  1  1  1
CENTRE ASSIGNMENTS    1  1  1  1  1  1  1  1  1  1  1  1  1  1  1  1  1  1  1  1
CENTRE ASSIGNMENTS    1  1  1  1  1  1  1  1  1  1  1  1  1  1  1  1  1  1  1  1
CENTRE ASSIGNMENTS    1  1  1  1  1  1  1  1  1  1  1  1  1  1  1  1  1  1  1  1
CENTRE ASSIGNMENTS    1  1  1  1  1  1  1  1  1  1  1  1  1  1  1  1  1  1  1  1
CENTRE ASSIGNMENTS    1  1  1  1  1  1  1  1  1  1  1  1  1  1  1  1  1  1  1  1
CENTRE ASSIGNMENTS    1  1  1  1  1  1  1  1  1  1  1  1  1  1  1  1  1  1  1  1
CENTRE ASSIGNMENTS    1  1  1  1  1  1  1  1  1  1  1  1  1  1  1  1  1  1  1  1
CENTRE ASSIGNMENTS    1  1  1  1  1  1  1  1  1  1  1  1  1  1  1  1  1  1  1  1
CENTRE ASSIGNMENTS    1  1  1  1  1  1  1  1  1  1  1  1  1  1  1  1  1  1  1  1
CENTRE ASSIGNMENTS    1  1  1  1  1  1  1  1  1  1  1  1  1  1  1  1  1  1  1  1
CENTRE ASSIGNMENTS    1  1  1  1  1  1  1  1  1  1  1  1  1  1  1  1  1  1  1  1
CENTRE ASSIGNMENTS    1  1  1  1  1  1  1  1  1  1  1  1  1  1  1  1  1  1  1  1
CENTRE ASSIGNMENTS    1  1  1  1  1  1  1  1  1  1  1  1  1  1  1  1  1  1  1  1
CENTRE ASSIGNMENTS    1  1  1  1  1  1  1  1  1  1  1  1  1  1  1  1  1  1  1  1
CENTRE ASSIGNMENTS    1  1  1  1  1  1  1  1  1  1  1  1  1  1  1  1  1  1  1  1
CENTRE ASSIGNMENTS    1  1  1  1  1  1  1  1  1  1  1  1  1  1  1  1  1  1  1  1
CENTRE ASSIGNMENTS    1  1  1  1  1  1  1  1  1  1  1  1  1  1  1  1  1  1  1  1
CENTRE ASSIGNMENTS    1  1  1  1  1  1  1  1  1  1  1  1  1  1  1  1  1  1  1  1
CENTRE ASSIGNMENTS    1  1  1  1  1  1  1  1  1  1  1  1  1  1  1  1  1  1  1  1
CENTRE ASSIGNMENTS    1  1  1  1  1  1  1  1  1  1  1  1  1  1  1  1  1  1  1  1
CENTRE ASSIGNMENTS    1  1  1  1  1  2  2  2  2  2  2  2  2  2  2  2  2  2  2  2
CENTRE ASSIGNMENTS    2  2  2  2  2  2  2  2  2  2  2  2  2  2  2  2  2  2  2  2
CENTRE ASSIGNMENTS    2  2  2  2  2  2  2  2  2  2  2  2  2  2  2  2  2  2  2  2
CENTRE ASSIGNMENTS    2  2  2  2  2  2  2  2  2  2  2  2  2  2  2  2  2  2  2  2
CENTRE ASSIGNMENTS    2  2  2  2  2  2  2  2  2  2  2  2  2  2  2  2  2  2  2  2
CENTRE ASSIGNMENTS    2  2  2  2  2  2  2  2  2  2  2  2  2  2  2  2  2  2  2  2
CENTRE ASSIGNMENTS    2  2  2  2  2  2  2  2  2  2  2  2  2  2  2  2  2  2  2  2
CENTRE ASSIGNMENTS    2  2  2  2  2  2  2  2  2  2  2  2  2  2  2  2  2  2  2  2
CENTRE ASSIGNMENTS    2  2  2  2  2  2  2  2  2  2  2  2  2  2  2  2  2  2  2  2
CENTRE ASSIGNMENTS    2  2  2  2  2  2  2  2  2  2  2  2  2  2  2  2  2  2  2  2
CENTRE ASSIGNMENTS    2  2  2  2  2  2  2  2  2  2  2  2  2  2  2  2  2  2  2  2
CENTRE ASSIGNMENTS    2  2  2  2  2  2  2  2  2  2  2  2  2  2  2  2  2  2  2  2
CENTRE ASSIGNMENTS    2  2  2  2  2  2  2  2  2  2  2  2  2  2  2  2  2  2  2  2
CENTRE ASSIGNMENTS    2  2  2  2  2  2  2  2
TYPE ASSIGNMENTS      1  1  1  1  1  1  1  1  1  1  1  1  1  1  1  1  1  1  1  1
TYPE ASSIGNMENTS      1  1  1  1  1  1  1  1  1  1  1  1  1  1  1  1  1  1  1  1
TYPE ASSIGNMENTS      1  1  1  1  1  1  1  1  1  1  1  1  1  1  1  1  1  1  1  1
TYPE ASSIGNMENTS      1  1  1  1  1  1  1  1  1  1  1  1  1  1  1  1  1  1  1  1
TYPE ASSIGNMENTS      1  1  1  1  1  1  1  1  1  1  1  1  1  1  1  1  1  1  1  1
TYPE ASSIGNMENTS      1  1  1  1  1  1  1  1  1  1  1  1  1  1  1  1  2  2  2  2
TYPE ASSIGNMENTS      2  2  2  2  2  2  2  2  2  2  2  3  3  3  3  3  3  3  3  3
TYPE ASSIGNMENTS      3  3  3  3  3  3  4  4  4  4  4  4  4  4  4  4  4  4  4  4
TYPE ASSIGNMENTS      4  2  2  2  2  2  2  2  2  2  2  2  2  2  2  2  3  3  3  3
TYPE ASSIGNMENTS      3  3  3  3  3  3  3  3  3  3  3  4  4  4  4  4  4  4  4  4
TYPE ASSIGNMENTS      4  4  4  4  4  4  2  2  2  2  2  2  2  2  2  2  2  2  2  2
TYPE ASSIGNMENTS      2  3  3  3  3  3  3  3  3  3  3  3  3  3  3  3  4  4  4  4
TYPE ASSIGNMENTS      4  4  4  4  4  4  4  4  4  4  4  2  2  2  2  2  2  2  2  2
TYPE ASSIGNMENTS      2  2  2  2  2  2  3  3  3  3  3  3  3  3  3  3  3  3  3  3
TYPE ASSIGNMENTS      3  4  4  4  4  4  4  4  4  4  4  4  4  4  4  4  2  2  2  2
TYPE ASSIGNMENTS      2  2  2  2  2  2  2  2  2  2  2  3  3  3  3  3  3  3  3  3
TYPE ASSIGNMENTS      3  3  3  3  3  3  4  4  4  4  4  4  4  4  4  4  4  4  4  4
TYPE ASSIGNMENTS      4  2  3  4  2  3  4  5  5  5  5  5  5  5  6  6  6  6  6  6
TYPE ASSIGNMENTS      6  7  7  7  7  7  7  7  8  8  8  8  8  8  8  9  9  9  9  9
TYPE ASSIGNMENTS      9  9 10 10 10 10 10 10 10  5  5  5  5  5  5  5  6  6  6  6
TYPE ASSIGNMENTS      6  6  6  7  7  7  7  7  7  7  8  8  8  8  8  8  8  9  9  9
TYPE ASSIGNMENTS      9  9  9  9 10 10 10 10 10 10 10  5  5  5  5  5  5  5  6  6
TYPE ASSIGNMENTS      6  6  6  6  6  7  7  7  7  7  7  7  8  8  8  8  8  8  8  9
TYPE ASSIGNMENTS      9  9  9  9  9  9 10 10 10 10 10 10 10  5  6  7  8  9 10  5
TYPE ASSIGNMENTS      6  7  8  9 10 11 12 13 17 14 15 18 19 16 20 11 12 13 17 14
TYPE ASSIGNMENTS     15 18 19 16 20 11 12 13 17 14 15 18 19 16 20 21 22 23 24 25
TYPE ASSIGNMENTS     26 27 28 29 30 31 32 33 34 35 21 22 23 24 25 26 27 28 29 30
TYPE ASSIGNMENTS     31 32 33 34 35  1  1  1  1  1  1  1  1  1  1  1  1  1  1  1
TYPE ASSIGNMENTS      1  1  1  1  1  1  1  1  1  1  1  1  1  1  1  1  1  1  1  1
TYPE ASSIGNMENTS      1  1  1  1  1  1  1  1  1  1  1  1  1  1  1  1  1  1  1  1
TYPE ASSIGNMENTS      1  1  1  1  1  1  1  1  1  1  1  1  1  1  1  1  1  1  1  1
TYPE ASSIGNMENTS      2  2  2  2  2  2  2  2  2  2  2  3  3  3  3  3  3  3  3  3
TYPE ASSIGNMENTS      3  3  4  4  4  4  4  4  4  4  4  4  4  2  2  2  2  2  2  2
TYPE ASSIGNMENTS      2  2  2  2  3  3  3  3  3  3  3  3  3  3  3  4  4  4  4  4
TYPE ASSIGNMENTS      4  4  4  4  4  4  2  2  2  2  2  2  2  2  2  2  2  3  3  3
TYPE ASSIGNMENTS      3  3  3  3  3  3  3  3  4  4  4  4  4  4  4  4  4  4  4  2
TYPE ASSIGNMENTS      3  4  2  3  4  2  3  4  5  5  5  5  5  5  5  6  6  6  6  6
TYPE ASSIGNMENTS      6  6  7  7  7  7  7  7  7  8  8  8  8  8  8  8  9  9  9  9
TYPE ASSIGNMENTS      9  9  9 10 10 10 10 10 10 10  5  6  7  8  9 10  5  6  7  8
TYPE ASSIGNMENTS      9 10  5  6  7  8  9 10 11 12 13 17 14 15 18 19 16 20 11 12
TYPE ASSIGNMENTS     13 17 14 15 18 19 16 20
EXPONENTS  0.2715278D+07 0.4065984D+06 0.9253004D+05 0.2620792D+05 0.8549429D+04
EXPONENTS  0.3085975D+04 0.1203172D+04 0.4984869D+03 0.2167360D+03 0.9787476D+02
EXPONENTS  0.4520433D+02 0.2021187D+02 0.9574751D+01 0.4540346D+01 0.1995687D+01
EXPONENTS  0.9422150D+00 0.4178450D+00 0.9576100D-01 0.5135100D-01 0.2715278D+07
EXPONENTS  0.4065984D+06 0.9253004D+05 0.2620792D+05 0.8549429D+04 0.3085975D+04
EXPONENTS  0.1203172D+04 0.4984869D+03 0.2167360D+03 0.9787476D+02 0.4520433D+02
EXPONENTS  0.2021187D+02 0.9574751D+01 0.4540346D+01 0.1995687D+01 0.9422150D+00
EXPONENTS  0.4178450D+00 0.9576100D-01 0.5135100D-01 0.2715278D+07 0.4065984D+06
EXPONENTS  0.9253004D+05 0.2620792D+05 0.8549429D+04 0.3085975D+04 0.1203172D+04
EXPONENTS  0.4984869D+03 0.2167360D+03 0.9787476D+02 0.4520433D+02 0.2021187D+02
EXPONENTS  0.9574751D+01 0.4540346D+01 0.1995687D+01 0.9422150D+00 0.4178450D+00
EXPONENTS  0.9576100D-01 0.5135100D-01 0.2715278D+07 0.4065984D+06 0.9253004D+05
EXPONENTS  0.2620792D+05 0.8549429D+04 0.3085975D+04 0.1203172D+04 0.4984869D+03
EXPONENTS  0.2167360D+03 0.9787476D+02 0.4520433D+02 0.2021187D+02 0.9574751D+01
EXPONENTS  0.4540346D+01 0.1995687D+01 0.9422150D+00 0.4178450D+00 0.9576100D-01
EXPONENTS  0.5135100D-01 0.2715278D+07 0.4065984D+06 0.9253004D+05 0.2620792D+05
EXPONENTS  0.8549429D+04 0.3085975D+04 0.1203172D+04 0.4984869D+03 0.2167360D+03
EXPONENTS  0.9787476D+02 0.4520433D+02 0.2021187D+02 0.9574751D+01 0.4540346D+01
EXPONENTS  0.1995687D+01 0.9422150D+00 0.4178450D+00 0.9576100D-01 0.5135100D-01
EXPONENTS  0.2715278D+07 0.4065984D+06 0.9253004D+05 0.2620792D+05 0.8549429D+04
EXPONENTS  0.3085975D+04 0.1203172D+04 0.4984869D+03 0.2167360D+03 0.9787476D+02
EXPONENTS  0.4520433D+02 0.2021187D+02 0.9574751D+01 0.4540346D+01 0.1995687D+01
EXPONENTS  0.9422150D+00 0.4178450D+00 0.9576100D-01 0.5135100D-01 0.2387800D-01
EXPONENTS  0.1110000D-01 0.1059219D+05 0.2507533D+04 0.8144571D+03 0.3115195D+03
EXPONENTS  0.1319617D+03 0.5998718D+02 0.2866250D+02 0.1410851D+02 0.7103706D+01
EXPONENTS  0.3609200D+01 0.1776070D+01 0.8547600D+00 0.4022390D+00 0.1546650D+00
EXPONENTS  0.6494500D-01 0.1059219D+05 0.2507533D+04 0.8144571D+03 0.3115195D+03
EXPONENTS  0.1319617D+03 0.5998718D+02 0.2866250D+02 0.1410851D+02 0.7103706D+01
EXPONENTS  0.3609200D+01 0.1776070D+01 0.8547600D+00 0.4022390D+00 0.1546650D+00
EXPONENTS  0.6494500D-01 0.1059219D+05 0.2507533D+04 0.8144571D+03 0.3115195D+03
EXPONENTS  0.1319617D+03 0.5998718D+02 0.2866250D+02 0.1410851D+02 0.7103706D+01
EXPONENTS  0.3609200D+01 0.1776070D+01 0.8547600D+00 0.4022390D+00 0.1546650D+00
EXPONENTS  0.6494500D-01 0.1059219D+05 0.2507533D+04 0.8144571D+03 0.3115195D+03
EXPONENTS  0.1319617D+03 0.5998718D+02 0.2866250D+02 0.1410851D+02 0.7103706D+01
EXPONENTS  0.3609200D+01 0.1776070D+01 0.8547600D+00 0.4022390D+00 0.1546650D+00
EXPONENTS  0.6494500D-01 0.1059219D+05 0.2507533D+04 0.8144571D+03 0.3115195D+03
EXPONENTS  0.1319617D+03 0.5998718D+02 0.2866250D+02 0.1410851D+02 0.7103706D+01
EXPONENTS  0.3609200D+01 0.1776070D+01 0.8547600D+00 0.4022390D+00 0.1546650D+00
EXPONENTS  0.6494500D-01 0.1059219D+05 0.2507533D+04 0.8144571D+03 0.3115195D+03
EXPONENTS  0.1319617D+03 0.5998718D+02 0.2866250D+02 0.1410851D+02 0.7103706D+01
EXPONENTS  0.3609200D+01 0.1776070D+01 0.8547600D+00 0.4022390D+00 0.1546650D+00
EXPONENTS  0.6494500D-01 0.1059219D+05 0.2507533D+04 0.8144571D+03 0.3115195D+03
EXPONENTS  0.1319617D+03 0.5998718D+02 0.2866250D+02 0.1410851D+02 0.7103706D+01
EXPONENTS  0.3609200D+01 0.1776070D+01 0.8547600D+00 0.4022390D+00 0.1546650D+00
EXPONENTS  0.6494500D-01 0.1059219D+05 0.2507533D+04 0.8144571D+03 0.3115195D+03
EXPONENTS  0.1319617D+03 0.5998718D+02 0.2866250D+02 0.1410851D+02 0.7103706D+01
EXPONENTS  0.3609200D+01 0.1776070D+01 0.8547600D+00 0.4022390D+00 0.1546650D+00
EXPONENTS  0.6494500D-01 0.1059219D+05 0.2507533D+04 0.8144571D+03 0.3115195D+03
EXPONENTS  0.1319617D+03 0.5998718D+02 0.2866250D+02 0.1410851D+02 0.7103706D+01
EXPONENTS  0.3609200D+01 0.1776070D+01 0.8547600D+00 0.4022390D+00 0.1546650D+00
EXPONENTS  0.6494500D-01 0.1059219D+05 0.2507533D+04 0.8144571D+03 0.3115195D+03
EXPONENTS  0.1319617D+03 0.5998718D+02 0.2866250D+02 0.1410851D+02 0.7103706D+01
EXPONENTS  0.3609200D+01 0.1776070D+01 0.8547600D+00 0.4022390D+00 0.1546650D+00
EXPONENTS  0.6494500D-01 0.1059219D+05 0.2507533D+04 0.8144571D+03 0.3115195D+03
EXPONENTS  0.1319617D+03 0.5998718D+02 0.2866250D+02 0.1410851D+02 0.7103706D+01
EXPONENTS  0.3609200D+01 0.1776070D+01 0.8547600D+00 0.4022390D+00 0.1546650D+00
EXPONENTS  0.6494500D-01 0.1059219D+05 0.2507533D+04 0.8144571D+03 0.3115195D+03
EXPONENTS  0.1319617D+03 0.5998718D+02 0.2866250D+02 0.1410851D+02 0.7103706D+01
EXPONENTS  0.3609200D+01 0.1776070D+01 0.8547600D+00 0.4022390D+00 0.1546650D+00
EXPONENTS  0.6494500D-01 0.1059219D+05 0.2507533D+04 0.8144571D+03 0.3115195D+03
EXPONENTS  0.1319617D+03 0.5998718D+02 0.2866250D+02 0.1410851D+02 0.7103706D+01
EXPONENTS  0.3609200D+01 0.1776070D+01 0.8547600D+00 0.4022390D+00 0.1546650D+00
EXPONENTS  0.6494500D-01 0.1059219D+05 0.2507533D+04 0.8144571D+03 0.3115195D+03
EXPONENTS  0.1319617D+03 0.5998718D+02 0.2866250D+02 0.1410851D+02 0.7103706D+01
EXPONENTS  0.3609200D+01 0.1776070D+01 0.8547600D+00 0.4022390D+00 0.1546650D+00
EXPONENTS  0.6494500D-01 0.1059219D+05 0.2507533D+04 0.8144571D+03 0.3115195D+03
EXPONENTS  0.1319617D+03 0.5998718D+02 0.2866250D+02 0.1410851D+02 0.7103706D+01
EXPONENTS  0.3609200D+01 0.1776070D+01 0.8547600D+00 0.4022390D+00 0.1546650D+00
EXPONENTS  0.6494500D-01 0.2635900D-01 0.2635900D-01 0.2635900D-01 0.1066000D-01
EXPONENTS  0.1066000D-01 0.1066000D-01 0.5051380D+02 0.1474050D+02 0.5195000D+01
EXPONENTS  0.2028460D+01 0.8040860D+00 0.3076890D+00 0.1113920D+00 0.5051380D+02
EXPONENTS  0.1474050D+02 0.5195000D+01 0.2028460D+01 0.8040860D+00 0.3076890D+00
EXPONENTS  0.1113920D+00 0.5051380D+02 0.1474050D+02 0.5195000D+01 0.2028460D+01
EXPONENTS  0.8040860D+00 0.3076890D+00 0.1113920D+00 0.5051380D+02 0.1474050D+02
EXPONENTS  0.5195000D+01 0.2028460D+01 0.8040860D+00 0.3076890D+00 0.1113920D+00
EXPONENTS  0.5051380D+02 0.1474050D+02 0.5195000D+01 0.2028460D+01 0.8040860D+00
EXPONENTS  0.3076890D+00 0.1113920D+00 0.5051380D+02 0.1474050D+02 0.5195000D+01
EXPONENTS  0.2028460D+01 0.8040860D+00 0.3076890D+00 0.1113920D+00 0.5051380D+02
EXPONENTS  0.1474050D+02 0.5195000D+01 0.2028460D+01 0.8040860D+00 0.3076890D+00
EXPONENTS  0.1113920D+00 0.5051380D+02 0.1474050D+02 0.5195000D+01 0.2028460D+01
EXPONENTS  0.8040860D+00 0.3076890D+00 0.1113920D+00 0.5051380D+02 0.1474050D+02
EXPONENTS  0.5195000D+01 0.2028460D+01 0.8040860D+00 0.3076890D+00 0.1113920D+00
EXPONENTS  0.5051380D+02 0.1474050D+02 0.5195000D+01 0.2028460D+01 0.8040860D+00
EXPONENTS  0.3076890D+00 0.1113920D+00 0.5051380D+02 0.1474050D+02 0.5195000D+01
EXPONENTS  0.2028460D+01 0.8040860D+00 0.3076890D+00 0.1113920D+00 0.5051380D+02
EXPONENTS  0.1474050D+02 0.5195000D+01 0.2028460D+01 0.8040860D+00 0.3076890D+00
EXPONENTS  0.1113920D+00 0.5051380D+02 0.1474050D+02 0.5195000D+01 0.2028460D+01
EXPONENTS  0.8040860D+00 0.3076890D+00 0.1113920D+00 0.5051380D+02 0.1474050D+02
EXPONENTS  0.5195000D+01 0.2028460D+01 0.8040860D+00 0.3076890D+00 0.1113920D+00
EXPONENTS  0.5051380D+02 0.1474050D+02 0.5195000D+01 0.2028460D+01 0.8040860D+00
EXPONENTS  0.3076890D+00 0.1113920D+00 0.5051380D+02 0.1474050D+02 0.5195000D+01
EXPONENTS  0.2028460D+01 0.8040860D+00 0.3076890D+00 0.1113920D+00 0.5051380D+02
EXPONENTS  0.1474050D+02 0.5195000D+01 0.2028460D+01 0.8040860D+00 0.3076890D+00
EXPONENTS  0.1113920D+00 0.5051380D+02 0.1474050D+02 0.5195000D+01 0.2028460D+01
EXPONENTS  0.8040860D+00 0.3076890D+00 0.1113920D+00 0.3735200D-01 0.3735200D-01
EXPONENTS  0.3735200D-01 0.3735200D-01 0.3735200D-01 0.3735200D-01 0.1244000D-01
EXPONENTS  0.1244000D-01 0.1244000D-01 0.1244000D-01 0.1244000D-01 0.1244000D-01
EXPONENTS  0.7267000D+00 0.7267000D+00 0.7267000D+00 0.7267000D+00 0.7267000D+00
EXPONENTS  0.7267000D+00 0.7267000D+00 0.7267000D+00 0.7267000D+00 0.7267000D+00
EXPONENTS  0.1665000D+00 0.1665000D+00 0.1665000D+00 0.1665000D+00 0.1665000D+00
EXPONENTS  0.1665000D+00 0.1665000D+00 0.1665000D+00 0.1665000D+00 0.1665000D+00
EXPONENTS  0.4063000D-01 0.4063000D-01 0.4063000D-01 0.4063000D-01 0.4063000D-01
EXPONENTS  0.4063000D-01 0.4063000D-01 0.4063000D-01 0.4063000D-01 0.4063000D-01
EXPONENTS  0.4187000D+00 0.4187000D+00 0.4187000D+00 0.4187000D+00 0.4187000D+00
EXPONENTS  0.4187000D+00 0.4187000D+00 0.4187000D+00 0.4187000D+00 0.4187000D+00
EXPONENTS  0.4187000D+00 0.4187000D+00 0.4187000D+00 0.4187000D+00 0.4187000D+00
EXPONENTS  0.9473000D-01 0.9473000D-01 0.9473000D-01 0.9473000D-01 0.9473000D-01
EXPONENTS  0.9473000D-01 0.9473000D-01 0.9473000D-01 0.9473000D-01 0.9473000D-01
EXPONENTS  0.9473000D-01 0.9473000D-01 0.9473000D-01 0.9473000D-01 0.9473000D-01
EXPONENTS  0.1063900D+08 0.1593400D+07 0.3626100D+06 0.1027000D+06 0.3350100D+05
EXPONENTS  0.1209300D+05 0.4715900D+04 0.1955600D+04 0.8526100D+03 0.3876700D+03
EXPONENTS  0.1826800D+03 0.8824500D+02 0.3926300D+02 0.1923400D+02 0.9405700D+01
EXPONENTS  0.4160100D+01 0.1899500D+01 0.3011400D+00 0.1063900D+08 0.1593400D+07
EXPONENTS  0.3626100D+06 0.1027000D+06 0.3350100D+05 0.1209300D+05 0.4715900D+04
EXPONENTS  0.1955600D+04 0.8526100D+03 0.3876700D+03 0.1826800D+03 0.8824500D+02
EXPONENTS  0.3926300D+02 0.1923400D+02 0.9405700D+01 0.4160100D+01 0.1899500D+01
EXPONENTS  0.3011400D+00 0.1063900D+08 0.1593400D+07 0.3626100D+06 0.1027000D+06
EXPONENTS  0.3350100D+05 0.1209300D+05 0.4715900D+04 0.1955600D+04 0.8526100D+03
EXPONENTS  0.3876700D+03 0.1826800D+03 0.8824500D+02 0.3926300D+02 0.1923400D+02
EXPONENTS  0.9405700D+01 0.4160100D+01 0.1899500D+01 0.3011400D+00 0.1063900D+08
EXPONENTS  0.1593400D+07 0.3626100D+06 0.1027000D+06 0.3350100D+05 0.1209300D+05
EXPONENTS  0.4715900D+04 0.1955600D+04 0.8526100D+03 0.3876700D+03 0.1826800D+03
EXPONENTS  0.8824500D+02 0.3926300D+02 0.1923400D+02 0.9405700D+01 0.4160100D+01
EXPONENTS  0.1899500D+01 0.3011400D+00 0.6047200D+00 0.1251500D+00 0.4559300D-01
EXPONENTS  0.8676500D+04 0.2055900D+04 0.6662300D+03 0.2531000D+03 0.1061200D+03
EXPONENTS  0.4724200D+02 0.2182500D+02 0.9968400D+01 0.4517100D+01 0.1998200D+01
EXPONENTS  0.2814500D+00 0.8676500D+04 0.2055900D+04 0.6662300D+03 0.2531000D+03
EXPONENTS  0.1061200D+03 0.4724200D+02 0.2182500D+02 0.9968400D+01 0.4517100D+01
EXPONENTS  0.1998200D+01 0.2814500D+00 0.8676500D+04 0.2055900D+04 0.6662300D+03
EXPONENTS  0.2531000D+03 0.1061200D+03 0.4724200D+02 0.2182500D+02 0.9968400D+01
EXPONENTS  0.4517100D+01 0.1998200D+01 0.2814500D+00 0.8676500D+04 0.2055900D+04
EXPONENTS  0.6662300D+03 0.2531000D+03 0.1061200D+03 0.4724200D+02 0.2182500D+02
EXPONENTS  0.9968400D+01 0.4517100D+01 0.1998200D+01 0.2814500D+00 0.8676500D+04
EXPONENTS  0.2055900D+04 0.6662300D+03 0.2531000D+03 0.1061200D+03 0.4724200D+02
EXPONENTS  0.2182500D+02 0.9968400D+01 0.4517100D+01 0.1998200D+01 0.2814500D+00
EXPONENTS  0.8676500D+04 0.2055900D+04 0.6662300D+03 0.2531000D+03 0.1061200D+03
EXPONENTS  0.4724200D+02 0.2182500D+02 0.9968400D+01 0.4517100D+01 0.1998200D+01
EXPONENTS  0.2814500D+00 0.8676500D+04 0.2055900D+04 0.6662300D+03 0.2531000D+03
EXPONENTS  0.1061200D+03 0.4724200D+02 0.2182500D+02 0.9968400D+01 0.4517100D+01
EXPONENTS  0.1998200D+01 0.2814500D+00 0.8676500D+04 0.2055900D+04 0.6662300D+03
EXPONENTS  0.2531000D+03 0.1061200D+03 0.4724200D+02 0.2182500D+02 0.9968400D+01
EXPONENTS  0.4517100D+01 0.1998200D+01 0.2814500D+00 0.8676500D+04 0.2055900D+04
EXPONENTS  0.6662300D+03 0.2531000D+03 0.1061200D+03 0.4724200D+02 0.2182500D+02
EXPONENTS  0.9968400D+01 0.4517100D+01 0.1998200D+01 0.2814500D+00 0.7098800D+00
EXPONENTS  0.7098800D+00 0.7098800D+00 0.1020400D+00 0.1020400D+00 0.1020400D+00
EXPONENTS  0.3514200D-01 0.3514200D-01 0.3514200D-01 0.4038300D+03 0.1211700D+03
EXPONENTS  0.4634500D+02 0.1972100D+02 0.8862400D+01 0.3996200D+01 0.1763600D+01
EXPONENTS  0.4038300D+03 0.1211700D+03 0.4634500D+02 0.1972100D+02 0.8862400D+01
EXPONENTS  0.3996200D+01 0.1763600D+01 0.4038300D+03 0.1211700D+03 0.4634500D+02
EXPONENTS  0.1972100D+02 0.8862400D+01 0.3996200D+01 0.1763600D+01 0.4038300D+03
EXPONENTS  0.1211700D+03 0.4634500D+02 0.1972100D+02 0.8862400D+01 0.3996200D+01
EXPONENTS  0.1763600D+01 0.4038300D+03 0.1211700D+03 0.4634500D+02 0.1972100D+02
EXPONENTS  0.8862400D+01 0.3996200D+01 0.1763600D+01 0.4038300D+03 0.1211700D+03
EXPONENTS  0.4634500D+02 0.1972100D+02 0.8862400D+01 0.3996200D+01 0.1763600D+01
EXPONENTS  0.7061900D+00 0.7061900D+00 0.7061900D+00 0.7061900D+00 0.7061900D+00
EXPONENTS  0.7061900D+00 0.2639000D+00 0.2639000D+00 0.2639000D+00 0.2639000D+00
EXPONENTS  0.2639000D+00 0.2639000D+00 0.1047000D+00 0.1047000D+00 0.1047000D+00
EXPONENTS  0.1047000D+00 0.1047000D+00 0.1047000D+00 0.5515000D+00 0.5515000D+00
EXPONENTS  0.5515000D+00 0.5515000D+00 0.5515000D+00 0.5515000D+00 0.5515000D+00
EXPONENTS  0.5515000D+00 0.5515000D+00 0.5515000D+00 0.2580000D+00 0.2580000D+00
EXPONENTS  0.2580000D+00 0.2580000D+00 0.2580000D+00 0.2580000D+00 0.2580000D+00
EXPONENTS  0.2580000D+00 0.2580000D+00 0.2580000D+00
MO    1     MO 0.0        OCC NO =    2.0000000  ORB. ENERGY = -489.997261
  0.10098426D-06  0.18901217D-06  0.32740840D-06  0.53591015D-06  0.83723512D-06
  0.12482327D-05  0.17506577D-05  0.22231532D-05  0.23631193D-05  0.17913721D-05
  0.70809316D-06  0.12746107D-06  0.11972663D-06  0.70347607D-07  0.66483768D-08
 -0.94937446D-10  0.23457506D-10 -0.28060192D-11  0.15747973D-11 -0.14739305D-06
 -0.27589064D-06 -0.47802246D-06 -0.78306079D-06 -0.12262186D-05 -0.18393447D-05
 -0.26185585D-05 -0.34418560D-05 -0.39518724D-05 -0.35708274D-05 -0.19534867D-05
  0.15871151D-06  0.12483934D-05  0.71285404D-06  0.71461903D-07 -0.23905178D-08
  0.21372601D-09 -0.61094429D-10  0.31914582D-10  0.13560696D-06  0.25388239D-06
  0.43989149D-06  0.72133798D-06  0.11315381D-05  0.17074982D-05  0.24619521D-05
  0.33354364D-05  0.40672010D-05  0.41436568D-05  0.26743988D-05 -0.44678769D-06
 -0.32197403D-05 -0.30132713D-05  0.24201642D-06  0.14869119D-05  0.52053841D-06
  0.11500403D-07 -0.31810687D-08 -0.68493203D-07 -0.12814737D-06 -0.22225019D-06
 -0.36398775D-06 -0.57190697D-06 -0.86136948D-06 -0.12451601D-05 -0.16826578D-05
 -0.20614039D-05 -0.20941481D-05 -0.13706378D-05  0.23920220D-06  0.16885724D-05
  0.17044031D-05 -0.21379774D-06 -0.10051449D-05 -0.74281255D-06  0.20365587D-06
  0.30005953D-06 -0.48735438D-08 -0.93107311D-08 -0.15664240D-07 -0.26700591D-07
 -0.39881192D-07 -0.63908412D-07 -0.85646395D-07 -0.12696957D-06 -0.13822621D-06
 -0.16530397D-06 -0.78989475D-07 -0.10600479D-07  0.16212849D-06  0.87283208D-07
  0.30475206D-07 -0.16111437D-06  0.21311031D-08  0.75959729D-07 -0.24908926D-07
 -0.62993124D-08 -0.12264865D-07 -0.20067949D-07 -0.35470628D-07 -0.50579473D-07
 -0.85744976D-07 -0.10719803D-06 -0.17287066D-06 -0.16880833D-06 -0.23370299D-06
 -0.80721250D-07 -0.46522198D-07  0.26431288D-06  0.88577014D-07  0.62536045D-07
 -0.36076988D-06  0.19120150D-06  0.26965666D-07 -0.59753270D-07 -0.14404111D-06
  0.11678577D-07 -0.19491084D-18 -0.28680979D-18 -0.40372149D-18 -0.52948267D-18
 -0.63015595D-18 -0.65885061D-18 -0.56319290D-18 -0.36381369D-18 -0.15474297D-18
 -0.31673940D-19 -0.18263710D-20  0.53170599D-22  0.17121430D-22  0.10946855D-23
 -0.44931648D-25 -0.29816274D-18 -0.43874416D-18 -0.61758856D-18 -0.80997037D-18
 -0.96397422D-18 -0.10078696D-17 -0.86153823D-18 -0.55654004D-18 -0.23671637D-18
 -0.48452866D-19 -0.27938712D-20  0.81337147D-22  0.26191321D-22  0.16745833D-23
 -0.68733701D-25 -0.73184253D-06 -0.10769006D-05 -0.15158754D-05 -0.19880779D-05
 -0.23660814D-05 -0.24738229D-05 -0.21146516D-05 -0.13660314D-05 -0.58102199D-06
 -0.11892790D-06 -0.68575763D-08  0.19964259D-09  0.64286780D-10  0.41102763D-11
 -0.16870735D-12 -0.60786752D-19 -0.87662751D-19 -0.12421288D-18 -0.16376399D-18
 -0.19744852D-18 -0.21156777D-18 -0.18727858D-18 -0.12636975D-18 -0.56977858D-19
  0.27383125D-20  0.23907138D-19  0.14350592D-19  0.36840821D-20  0.18610394D-21
 -0.55552556D-23  0.37742525D-19  0.54429847D-19  0.77123839D-19  0.10168114D-18
  0.12259588D-18  0.13136254D-18  0.11628136D-18  0.78463045D-19  0.35377581D-19
 -0.17002197D-20 -0.14843954D-19 -0.89102902D-20 -0.22874485D-20 -0.11555203D-21
  0.34492610D-23  0.33762849D-05  0.48690613D-05  0.68991688D-05  0.90959603D-05
  0.10966904D-04  0.11751131D-04  0.10402033D-04  0.70189685D-05  0.31647271D-05
 -0.15209438D-06 -0.13278767D-05 -0.79707645D-06 -0.20462536D-06 -0.10336791D-07
  0.30855614D-09  0.14002038D-19  0.18497258D-19  0.26221411D-19  0.34448235D-19
  0.41815841D-19  0.44633049D-19  0.39909756D-19  0.26812137D-19  0.12445674D-19
 -0.12896346D-20 -0.58772246D-20 -0.40796576D-20 -0.10139966D-20  0.81183442D-21
  0.62780082D-21  0.34597141D-19  0.45704221D-19  0.64789557D-19  0.85116924D-19
  0.10332128D-18  0.11028222D-18  0.98611606D-19  0.66249160D-19  0.30751577D-19
 -0.31865126D-20 -0.14521826D-19 -0.10080282D-19 -0.25054483D-20  0.20059329D-20
  0.15512108D-20 -0.18088464D-06 -0.23895592D-06 -0.33874000D-06 -0.44501782D-06
 -0.54019588D-06 -0.57658983D-06 -0.51557222D-06 -0.34637126D-06 -0.16077883D-06
  0.16660081D-07  0.75924635D-07  0.52702856D-07  0.13099265D-07 -0.10487643D-07
 -0.81102139D-08 -0.10706361D-19 -0.17237434D-19 -0.23951197D-19 -0.32077560D-19
 -0.38134359D-19 -0.41554554D-19 -0.36203750D-19 -0.25205582D-19 -0.10917640D-19
  0.54261064D-21  0.56261910D-20  0.32962994D-20  0.14560454D-20 -0.93886862D-21
 -0.56438144D-21 -0.30544434D-19 -0.49177089D-19 -0.68330945D-19 -0.91514842D-19
 -0.10879443D-18 -0.11855199D-18 -0.10328655D-18 -0.71909611D-19 -0.31147197D-19
  0.15480270D-20  0.16051096D-19  0.94040917D-20  0.41539871D-20 -0.26785209D-20
 -0.16101374D-20 -0.20202460D-05 -0.32526324D-05 -0.45194918D-05 -0.60529029D-05
 -0.71957959D-05 -0.78411724D-05 -0.68314979D-05 -0.47561891D-05 -0.20601135D-05
  0.10238838D-06  0.10616390D-05  0.62199806D-06  0.27474975D-06 -0.17716063D-06
 -0.10649644D-06 -0.20316660D-20 -0.27584661D-20 -0.43782282D-20 -0.51385840D-20
 -0.69755017D-20 -0.65804099D-20 -0.67873576D-20 -0.37590001D-20 -0.26299557D-20
  0.61358618D-21  0.73355496D-21  0.13035166D-20 -0.41730777D-21 -0.23789889D-21
  0.69531151D-22 -0.50507332D-22 -0.68575622D-22 -0.10884300D-21 -0.12774548D-21
 -0.17341136D-21 -0.16358936D-21 -0.16873409D-21 -0.93448953D-22 -0.65380846D-22
  0.15253787D-22  0.18236217D-22  0.32405496D-22 -0.10374294D-22 -0.59141797D-23
  0.17285483D-23 -0.10503598D-06 -0.14261113D-06 -0.22635191D-06 -0.26566187D-06
 -0.36062947D-06 -0.34020345D-06 -0.35090253D-06 -0.19433817D-06 -0.13596721D-06
  0.31722057D-07  0.37924374D-07  0.67391068D-07 -0.21574574D-07 -0.12299237D-07
  0.35947210D-08  0.54966768D-23  0.18278462D-22  0.34243511D-07 -0.24334809D-23
 -0.91883644D-24 -0.14760378D-08 -0.28393468D-05 -0.21366411D-05 -0.12431086D-05
 -0.55523167D-06 -0.16429597D-06 -0.33004263D-07 -0.39473167D-08 -0.28393468D-05
 -0.21366411D-05 -0.12431086D-05 -0.55523167D-06 -0.16429597D-06 -0.33004263D-07
 -0.39473167D-08  0.56786936D-05  0.42732822D-05  0.24862173D-05  0.11104633D-05
  0.32859194D-06  0.66008526D-07  0.78946333D-08 -0.72766724D-20 -0.54757796D-20
 -0.31858363D-20 -0.14229466D-20 -0.42105739D-21 -0.84583261D-22 -0.10116175D-22
 -0.10023547D-20 -0.75428339D-21 -0.43884590D-21 -0.19600954D-21 -0.58000253D-22
 -0.11651263D-22 -0.13934935D-23  0.11567538D-18  0.87047054D-19  0.50644417D-19
  0.22620215D-19  0.66934406D-20  0.13445983D-20  0.16081423D-21  0.44477285D-05
  0.33300723D-05  0.19899191D-05  0.85732278D-06  0.23466323D-06  0.86524229D-08
 -0.13684061D-07  0.44477285D-05  0.33300723D-05  0.19899191D-05  0.85732278D-06
  0.23466323D-06  0.86524229D-08 -0.13684061D-07 -0.88954570D-05 -0.66601446D-05
 -0.39798382D-05 -0.17146456D-05 -0.46932647D-06 -0.17304846D-07  0.27368122D-07
  0.11543904D-19  0.86430710D-20  0.51647563D-20  0.22251474D-20  0.60905915D-21
  0.22457022D-22 -0.35516439D-22 -0.37251461D-19 -0.27890655D-19 -0.16666349D-19
 -0.71804128D-20 -0.19653961D-20 -0.72467417D-22  0.11460935D-21 -0.10753690D-18
 -0.80514277D-19 -0.48112138D-19 -0.20728296D-19 -0.56736728D-20 -0.20919773D-21
  0.33085236D-21 -0.23439220D-05 -0.17299160D-05 -0.10604316D-05 -0.44226707D-06
 -0.87952583D-07  0.40417659D-07  0.18383302D-08 -0.23439220D-05 -0.17299160D-05
 -0.10604316D-05 -0.44226707D-06 -0.87952583D-07  0.40417659D-07  0.18383302D-08
  0.46878440D-05  0.34598320D-05  0.21208631D-05  0.88453414D-06  0.17590517D-06
 -0.80835319D-07 -0.36766605D-08 -0.80482757D-20 -0.59399761D-20 -0.36411816D-20
 -0.15186031D-20 -0.30200093D-21  0.13878127D-21  0.63122358D-23  0.22452717D-19
  0.16571078D-19  0.10158004D-19  0.42365306D-20  0.84250860D-21 -0.38716573D-21
 -0.17609591D-22  0.36410262D-19  0.26872350D-19  0.16472643D-19  0.68701346D-20
  0.13662471D-20 -0.62784408D-21 -0.28556447D-22  0.13990011D-08  0.13990011D-08
 -0.27980022D-08 -0.67002098D-22 -0.31220085D-22 -0.18973515D-22  0.55653111D-10
  0.55653111D-10 -0.11130622D-09  0.16824439D-23  0.15493505D-23  0.52079209D-24
 -0.23625115D-21  0.18764671D-21  0.58869956D-07 -0.18084514D-21  0.17644761D-21
 -0.88304933D-07  0.88959859D-21 -0.73938775D-21 -0.88304933D-07  0.23117583D-21
  0.36336742D-22  0.10884012D-21  0.11336991D-07  0.34143399D-22  0.10849309D-21
 -0.17005487D-07 -0.14315363D-21 -0.43501344D-21 -0.17005487D-07 -0.17001786D-21
 -0.12539728D-23 -0.94453389D-27  0.17135173D-09 -0.12270151D-23 -0.58801272D-26
 -0.25702759D-09  0.49889334D-23  0.87137288D-26 -0.25702759D-09  0.35384453D-22
 -0.61628387D-08 -0.61628387D-08 -0.16434236D-07 -0.25886128D-21 -0.23815604D-21
 -0.26049314D-21 -0.48155911D-21  0.31802045D-21  0.64088565D-21 -0.12325677D-07
  0.49302709D-07  0.49302709D-07 -0.47797964D-21 -0.23959323D-21  0.15580633D-20
 -0.26681118D-09 -0.26681118D-09 -0.71149647D-09  0.22745717D-23 -0.53455520D-23
  0.22321904D-23 -0.11392577D-22  0.71128700D-23  0.15172270D-22 -0.53362236D-09
  0.21344894D-08  0.21344894D-08 -0.11339079D-22 -0.53019539D-23 -0.13520286D-22
  0.78331750D+00  0.14735156D+01  0.25507282D+01  0.41811316D+01  0.65498236D+01
  0.98449426D+01  0.14070896D+02  0.18679464D+02  0.21754773D+02  0.19981549D+02
  0.11683997D+02  0.30659394D+01  0.16761371D+00 -0.59992214D-02  0.16765931D-02
 -0.49783706D-03  0.84872599D-04  0.69244367D-05 -0.68407106D-06 -0.12568505D-05
 -0.21733842D-05 -0.35592203D-05 -0.56038325D-05 -0.84623361D-05 -0.12352426D-04
 -0.17010041D-04 -0.21734279D-04 -0.23692911D-04 -0.19502914D-04 -0.53475665D-05
  0.10786389D-04  0.10511807D-04  0.23002794D-05  0.77494297D-07  0.26252592D-08
 -0.66783207D-11  0.53077827D-06  0.10405380D-05  0.18224765D-05  0.29773336D-05
  0.46959723D-05  0.70860125D-05  0.10389502D-04  0.14344426D-04  0.18597620D-04
  0.20681648D-04  0.17963284D-04  0.52180128D-05 -0.13154547D-04 -0.19167102D-04
 -0.32996851D-05  0.80498189D-05  0.38315108D-05 -0.18503536D-07 -0.27887473D-06
 -0.60425420D-06 -0.10286470D-05 -0.16790288D-05 -0.26468242D-05 -0.39948222D-05
 -0.58570604D-05 -0.80969702D-05 -0.10509055D-04 -0.11740452D-04 -0.10255551D-04