 Molden2AIM, Version 4.0.0 (06/02/2016)           Time: Sun Jul  1 19:49:57 2018
GAUSSIAN             36 MOL ORBITALS    938 PRIMITIVES        4 NUCLEI
  Sc   1    (CENTRE  1)   0.13743978 -0.00092030  0.00000000  CHARGE = 21.0
  Cl   2    (CENTRE  2)   0.17463715 -2.14623755  3.71879393  CHARGE = 17.0
  Cl   3    (CENTRE  3)   0.17484124  4.29229746  0.00000000  CHARGE = 17.0
  Cl   4    (CENTRE  4)   0.17463715 -2.14623755 -3.71879393  CHARGE = 17.0
CENTRE ASSIGNMENTS    1  1  1  1  1  1  1  1  1  1  1  1  1  1  1  1  1  1  1  1
CENTRE ASSIGNMENTS    1  1  1  1  1  1  1  1  1  1  1  1  1  1  1  1  1  1  1  1
CENTRE ASSIGNMENTS    1  1  1  1  1  1  1  1  1  1  1  1  1  1  1  1  1  1  1  1
CENTRE ASSIGNMENTS    1  1  1  1  1  1  1  1  1  1  1  1  1  1  1  1  1  1  1  1
CENTRE ASSIGNMENTS    1  1  1  1  1  1  1  1  1  1  1  1  1  1  1  1  1  1  1  1
CENTRE ASSIGNMENTS    1  1  1  1  1  1  1  1  1  1  1  1  1  1  1  1  1  1  1  1
CENTRE ASSIGNMENTS    1  1  1  1  1  1  1  1  1  1  1  1  1  1  1  1  1  1  1  1
CENTRE ASSIGNMENTS    1  1  1  1  1  1  1  1  1  1  1  1  1  1  1  1  1  1  1  1
CENTRE ASSIGNMENTS    1  1  1  1  1  1  1  1  1  1  1  1  1  1  1  1  1  1  1  1
CENTRE ASSIGNMENTS    1  1  1  1  1  1  1  1  1  1  1  1  1  1  1  1  1  1  1  1
CENTRE ASSIGNMENTS    1  1  1  1  1  1  1  1  1  1  1  1  1  1  1  1  1  1  1  1
CENTRE ASSIGNMENTS    1  1  1  1  1  1  1  1  1  1  1  1  1  1  1  1  1  1  1  1
CENTRE ASSIGNMENTS    1  1  1  1  1  1  1  1  1  1  1  1  1  1  1  1  1  1  1  1
CENTRE ASSIGNMENTS    1  1  1  1  1  1  1  1  1  1  1  1  1  1  1  1  1  1  1  1
CENTRE ASSIGNMENTS    1  1  1  1  1  1  1  1  1  1  1  1  1  1  1  1  1  1  1  1
CENTRE ASSIGNMENTS    1  1  1  1  1  1  1  1  1  1  1  1  1  1  1  1  1  1  1  1
CENTRE ASSIGNMENTS    1  1  1  1  1  1  1  1  1  1  1  1  1  1  1  1  1  1  1  1
CENTRE ASSIGNMENTS    1  1  1  1  1  1  1  1  1  1  1  1  1  1  1  1  1  1  1  1
CENTRE ASSIGNMENTS    1  1  1  1  1  1  1  1  1  1  1  1  1  1  1  1  1  1  1  1
CENTRE ASSIGNMENTS    1  1  1  1  1  1  1  1  1  1  1  1  1  1  1  1  1  1  1  1
CENTRE ASSIGNMENTS    1  1  1  1  1  1  1  1  1  1  1  1  1  1  1  1  1  1  1  1
CENTRE ASSIGNMENTS    1  1  1  1  1  1  1  1  1  1  1  1  1  1  1  1  1  1  1  1
CENTRE ASSIGNMENTS    1  1  1  1  1  1  1  1  1  1  1  1  1  1  1  1  1  1  1  1
CENTRE ASSIGNMENTS    1  1  1  1  1  1  1  1  1  1  1  1  1  1  1  1  1  1  1  1
CENTRE ASSIGNMENTS    1  1  1  1  1  1  1  1  1  1  1  1  1  1  1  1  1  1  1  1
CENTRE ASSIGNMENTS    1  1  1  1  1  1  1  1  1  1  1  1  1  1  1  1  1  1  1  1
CENTRE ASSIGNMENTS    1  1  1  1  1  1  1  1  1  1  1  1  1  1  1  1  1  1  1  1
CENTRE ASSIGNMENTS    1  1  1  1  1  2  2  2  2  2  2  2  2  2  2  2  2  2  2  2
CENTRE ASSIGNMENTS    2  2  2  2  2  2  2  2  2  2  2  2  2  2  2  2  2  2  2  2
CENTRE ASSIGNMENTS    2  2  2  2  2  2  2  2  2  2  2  2  2  2  2  2  2  2  2  2
CENTRE ASSIGNMENTS    2  2  2  2  2  2  2  2  2  2  2  2  2  2  2  2  2  2  2  2
CENTRE ASSIGNMENTS    2  2  2  2  2  2  2  2  2  2  2  2  2  2  2  2  2  2  2  2
CENTRE ASSIGNMENTS    2  2  2  2  2  2  2  2  2  2  2  2  2  2  2  2  2  2  2  2
CENTRE ASSIGNMENTS    2  2  2  2  2  2  2  2  2  2  2  2  2  2  2  2  3  3  3  3
CENTRE ASSIGNMENTS    3  3  3  3  3  3  3  3  3  3  3  3  3  3  3  3  3  3  3  3
CENTRE ASSIGNMENTS    3  3  3  3  3  3  3  3  3  3  3  3  3  3  3  3  3  3  3  3
CENTRE ASSIGNMENTS    3  3  3  3  3  3  3  3  3  3  3  3  3  3  3  3  3  3  3  3
CENTRE ASSIGNMENTS    3  3  3  3  3  3  3  3  3  3  3  3  3  3  3  3  3  3  3  3
CENTRE ASSIGNMENTS    3  3  3  3  3  3  3  3  3  3  3  3  3  3  3  3  3  3  3  3
CENTRE ASSIGNMENTS    3  3  3  3  3  3  3  3  3  3  3  3  3  3  3  3  3  3  3  3
CENTRE ASSIGNMENTS    3  3  3  3  3  3  3  4  4  4  4  4  4  4  4  4  4  4  4  4
CENTRE ASSIGNMENTS    4  4  4  4  4  4  4  4  4  4  4  4  4  4  4  4  4  4  4  4
CENTRE ASSIGNMENTS    4  4  4  4  4  4  4  4  4  4  4  4  4  4  4  4  4  4  4  4
CENTRE ASSIGNMENTS    4  4  4  4  4  4  4  4  4  4  4  4  4  4  4  4  4  4  4  4
CENTRE ASSIGNMENTS    4  4  4  4  4  4  4  4  4  4  4  4  4  4  4  4  4  4  4  4
CENTRE ASSIGNMENTS    4  4  4  4  4  4  4  4  4  4  4  4  4  4  4  4  4  4  4  4
CENTRE ASSIGNMENTS    4  4  4  4  4  4  4  4  4  4  4  4  4  4  4  4  4  4
TYPE ASSIGNMENTS      1  1  1  1  1  1  1  1  1  1  1  1  1  1  1  1  1  1  1  1
TYPE ASSIGNMENTS      1  1  1  1  1  1  1  1  1  1  1  1  1  1  1  1  1  1  1  1
TYPE ASSIGNMENTS      1  1  1  1  1  1  1  1  1  1  1  1  1  1  1  1  1  1  1  1
TYPE ASSIGNMENTS      1  1  1  1  1  1  1  1  1  1  1  1  1  1  1  1  1  1  1  1
TYPE ASSIGNMENTS      1  1  1  1  1  1  1  1  1  1  1  1  1  1  1  1  1  1  1  1
TYPE ASSIGNMENTS      1  1  1  1  1  1  1  1  1  1  1  1  1  1  1  1  2  2  2  2
TYPE ASSIGNMENTS      2  2  2  2  2  2  2  2  2  2  2  3  3  3  3  3  3  3  3  3
TYPE ASSIGNMENTS      3  3  3  3  3  3  4  4  4  4  4  4  4  4  4  4  4  4  4  4
TYPE ASSIGNMENTS      4  2  2  2  2  2  2  2  2  2  2  2  2  2  2  2  3  3  3  3
TYPE ASSIGNMENTS      3  3  3  3  3  3  3  3  3  3  3  4  4  4  4  4  4  4  4  4
TYPE ASSIGNMENTS      4  4  4  4  4  4  2  2  2  2  2  2  2  2  2  2  2  2  2  2
TYPE ASSIGNMENTS      2  3  3  3  3  3  3  3  3  3  3  3  3  3  3  3  4  4  4  4
TYPE ASSIGNMENTS      4  4  4  4  4  4  4  4  4  4  4  2  2  2  2  2  2  2  2  2
TYPE ASSIGNMENTS      2  2  2  2  2  2  3  3  3  3  3  3  3  3  3  3  3  3  3  3
TYPE ASSIGNMENTS      3  4  4  4  4  4  4  4  4  4  4  4  4  4  4  4  2  2  2  2
TYPE ASSIGNMENTS      2  2  2  2  2  2  2  2  2  2  2  3  3  3  3  3  3  3  3  3
TYPE ASSIGNMENTS      3  3  3  3  3  3  4  4  4  4  4  4  4  4  4  4  4  4  4  4
TYPE ASSIGNMENTS      4  2  3  4  2  3  4  5  5  5  5  5  5  5  6  6  6  6  6  6
TYPE ASSIGNMENTS      6  7  7  7  7  7  7  7  8  8  8  8  8  8  8  9  9  9  9  9
TYPE ASSIGNMENTS      9  9 10 10 10 10 10 10 10  5  5  5  5  5  5  5  6  6  6  6
TYPE ASSIGNMENTS      6  6  6  7  7  7  7  7  7  7  8  8  8  8  8  8  8  9  9  9
TYPE ASSIGNMENTS      9  9  9  9 10 10 10 10 10 10 10  5  5  5  5  5  5  5  6  6
TYPE ASSIGNMENTS      6  6  6  6  6  7  7  7  7  7  7  7  8  8  8  8  8  8  8  9
TYPE ASSIGNMENTS      9  9  9  9  9  9 10 10 10 10 10 10 10  5  6  7  8  9 10  5
TYPE ASSIGNMENTS      6  7  8  9 10 11 12 13 17 14 15 18 19 16 20 11 12 13 17 14
TYPE ASSIGNMENTS     15 18 19 16 20 11 12 13 17 14 15 18 19 16 20 21 22 23 24 25
TYPE ASSIGNMENTS     26 27 28 29 30 31 32 33 34 35 21 22 23 24 25 26 27 28 29 30
TYPE ASSIGNMENTS     31 32 33 34 35  1  1  1  1  1  1  1  1  1  1  1  1  1  1  1
TYPE ASSIGNMENTS      1  1  1  1  1  1  1  1  1  1  1  1  1  1  1  1  1  1  1  1
TYPE ASSIGNMENTS      1  1  1  1  1  1  1  2  2  2  2  2  2  2  3  3  3  3  3  3
TYPE ASSIGNMENTS      3  4  4  4  4  4  4  4  2  2  2  2  2  2  2  3  3  3  3  3
TYPE ASSIGNMENTS      3  3  4  4  4  4  4  4  4  2  3  4  2  3  4  2  3  4  5  6
TYPE ASSIGNMENTS      7  8  9 10  5  6  7  8  9 10  5  6  7  8  9 10 11 12 13 17
TYPE ASSIGNMENTS     14 15 18 19 16 20 11 12 13 17 14 15 18 19 16 20  1  1  1  1
TYPE ASSIGNMENTS      1  1  1  1  1  1  1  1  1  1  1  1  1  1  1  1  1  1  1  1
TYPE ASSIGNMENTS      1  1  1  1  1  1  1  1  1  1  1  1  1  1  1  1  1  1  2  2
TYPE ASSIGNMENTS      2  2  2  2  2  3  3  3  3  3  3  3  4  4  4  4  4  4  4  2
TYPE ASSIGNMENTS      2  2  2  2  2  2  3  3  3  3  3  3  3  4  4  4  4  4  4  4
TYPE ASSIGNMENTS      2  3  4  2  3  4  2  3  4  5  6  7  8  9 10  5  6  7  8  9
TYPE ASSIGNMENTS     10  5  6  7  8  9 10 11 12 13 17 14 15 18 19 16 20 11 12 13
TYPE ASSIGNMENTS     17 14 15 18 19 16 20  1  1  1  1  1  1  1  1  1  1  1  1  1
TYPE ASSIGNMENTS      1  1  1  1  1  1  1  1  1  1  1  1  1  1  1  1  1  1  1  1
TYPE ASSIGNMENTS      1  1  1  1  1  1  1  1  1  2  2  2  2  2  2  2  3  3  3  3
TYPE ASSIGNMENTS      3  3  3  4  4  4  4  4  4  4  2  2  2  2  2  2  2  3  3  3
TYPE ASSIGNMENTS      3  3  3  3  4  4  4  4  4  4  4  2  3  4  2  3  4  2  3  4
TYPE ASSIGNMENTS      5  6  7  8  9 10  5  6  7  8  9 10  5  6  7  8  9 10 11 12
TYPE ASSIGNMENTS     13 17 14 15 18 19 16 20 11 12 13 17 14 15 18 19 16 20
EXPONENTS  0.2715278D+07 0.4065984D+06 0.9253004D+05 0.2620792D+05 0.8549429D+04
EXPONENTS  0.3085975D+04 0.1203172D+04 0.4984869D+03 0.2167360D+03 0.9787476D+02
EXPONENTS  0.4520433D+02 0.2021187D+02 0.9574751D+01 0.4540346D+01 0.1995687D+01
EXPONENTS  0.9422150D+00 0.4178450D+00 0.9576100D-01 0.5135100D-01 0.2715278D+07
EXPONENTS  0.4065984D+06 0.9253004D+05 0.2620792D+05 0.8549429D+04 0.3085975D+04
EXPONENTS  0.1203172D+04 0.4984869D+03 0.2167360D+03 0.9787476D+02 0.4520433D+02
EXPONENTS  0.2021187D+02 0.9574751D+01 0.4540346D+01 0.1995687D+01 0.9422150D+00
EXPONENTS  0.4178450D+00 0.9576100D-01 0.5135100D-01 0.2715278D+07 0.4065984D+06
EXPONENTS  0.9253004D+05 0.2620792D+05 0.8549429D+04 0.3085975D+04 0.1203172D+04
EXPONENTS  0.4984869D+03 0.2167360D+03 0.9787476D+02 0.4520433D+02 0.2021187D+02
EXPONENTS  0.9574751D+01 0.4540346D+01 0.1995687D+01 0.9422150D+00 0.4178450D+00
EXPONENTS  0.9576100D-01 0.5135100D-01 0.2715278D+07 0.4065984D+06 0.9253004D+05
EXPONENTS  0.2620792D+05 0.8549429D+04 0.3085975D+04 0.1203172D+04 0.4984869D+03
EXPONENTS  0.2167360D+03 0.9787476D+02 0.4520433D+02 0.2021187D+02 0.9574751D+01
EXPONENTS  0.4540346D+01 0.1995687D+01 0.9422150D+00 0.4178450D+00 0.9576100D-01
EXPONENTS  0.5135100D-01 0.2715278D+07 0.4065984D+06 0.9253004D+05 0.2620792D+05
EXPONENTS  0.8549429D+04 0.3085975D+04 0.1203172D+04 0.4984869D+03 0.2167360D+03
EXPONENTS  0.9787476D+02 0.4520433D+02 0.2021187D+02 0.9574751D+01 0.4540346D+01
EXPONENTS  0.1995687D+01 0.9422150D+00 0.4178450D+00 0.9576100D-01 0.5135100D-01
EXPONENTS  0.2715278D+07 0.4065984D+06 0.9253004D+05 0.2620792D+05 0.8549429D+04
EXPONENTS  0.3085975D+04 0.1203172D+04 0.4984869D+03 0.2167360D+03 0.9787476D+02
EXPONENTS  0.4520433D+02 0.2021187D+02 0.9574751D+01 0.4540346D+01 0.1995687D+01
EXPONENTS  0.9422150D+00 0.4178450D+00 0.9576100D-01 0.5135100D-01 0.2387800D-01
EXPONENTS  0.1110000D-01 0.1059219D+05 0.2507533D+04 0.8144571D+03 0.3115195D+03
EXPONENTS  0.1319617D+03 0.5998718D+02 0.2866250D+02 0.1410851D+02 0.7103706D+01
EXPONENTS  0.3609200D+01 0.1776070D+01 0.8547600D+00 0.4022390D+00 0.1546650D+00
EXPONENTS  0.6494500D-01 0.1059219D+05 0.2507533D+04 0.8144571D+03 0.3115195D+03
EXPONENTS  0.1319617D+03 0.5998718D+02 0.2866250D+02 0.1410851D+02 0.7103706D+01
EXPONENTS  0.3609200D+01 0.1776070D+01 0.8547600D+00 0.4022390D+00 0.1546650D+00
EXPONENTS  0.6494500D-01 0.1059219D+05 0.2507533D+04 0.8144571D+03 0.3115195D+03
EXPONENTS  0.1319617D+03 0.5998718D+02 0.2866250D+02 0.1410851D+02 0.7103706D+01
EXPONENTS  0.3609200D+01 0.1776070D+01 0.8547600D+00 0.4022390D+00 0.1546650D+00
EXPONENTS  0.6494500D-01 0.1059219D+05 0.2507533D+04 0.8144571D+03 0.3115195D+03
EXPONENTS  0.1319617D+03 0.5998718D+02 0.2866250D+02 0.1410851D+02 0.7103706D+01
EXPONENTS  0.3609200D+01 0.1776070D+01 0.8547600D+00 0.4022390D+00 0.1546650D+00
EXPONENTS  0.6494500D-01 0.1059219D+05 0.2507533D+04 0.8144571D+03 0.3115195D+03
EXPONENTS  0.1319617D+03 0.5998718D+02 0.2866250D+02 0.1410851D+02 0.7103706D+01
EXPONENTS  0.3609200D+01 0.1776070D+01 0.8547600D+00 0.4022390D+00 0.1546650D+00
EXPONENTS  0.6494500D-01 0.1059219D+05 0.2507533D+04 0.8144571D+03 0.3115195D+03
EXPONENTS  0.1319617D+03 0.5998718D+02 0.2866250D+02 0.1410851D+02 0.7103706D+01
EXPONENTS  0.3609200D+01 0.1776070D+01 0.8547600D+00 0.4022390D+00 0.1546650D+00
EXPONENTS  0.6494500D-01 0.1059219D+05 0.2507533D+04 0.8144571D+03 0.3115195D+03
EXPONENTS  0.1319617D+03 0.5998718D+02 0.2866250D+02 0.1410851D+02 0.7103706D+01
EXPONENTS  0.3609200D+01 0.1776070D+01 0.8547600D+00 0.4022390D+00 0.1546650D+00
EXPONENTS  0.6494500D-01 0.1059219D+05 0.2507533D+04 0.8144571D+03 0.3115195D+03
EXPONENTS  0.1319617D+03 0.5998718D+02 0.2866250D+02 0.1410851D+02 0.7103706D+01
EXPONENTS  0.3609200D+01 0.1776070D+01 0.8547600D+00 0.4022390D+00 0.1546650D+00
EXPONENTS  0.6494500D-01 0.1059219D+05 0.2507533D+04 0.8144571D+03 0.3115195D+03
EXPONENTS  0.1319617D+03 0.5998718D+02 0.2866250D+02 0.1410851D+02 0.7103706D+01
EXPONENTS  0.3609200D+01 0.1776070D+01 0.8547600D+00 0.4022390D+00 0.1546650D+00
EXPONENTS  0.6494500D-01 0.1059219D+05 0.2507533D+04 0.8144571D+03 0.3115195D+03
EXPONENTS  0.1319617D+03 0.5998718D+02 0.2866250D+02 0.1410851D+02 0.7103706D+01
EXPONENTS  0.3609200D+01 0.1776070D+01 0.8547600D+00 0.4022390D+00 0.1546650D+00
EXPONENTS  0.6494500D-01 0.1059219D+05 0.2507533D+04 0.8144571D+03 0.3115195D+03
EXPONENTS  0.1319617D+03 0.5998718D+02 0.2866250D+02 0.1410851D+02 0.7103706D+01
EXPONENTS  0.3609200D+01 0.1776070D+01 0.8547600D+00 0.4022390D+00 0.1546650D+00
EXPONENTS  0.6494500D-01 0.1059219D+05 0.2507533D+04 0.8144571D+03 0.3115195D+03
EXPONENTS  0.1319617D+03 0.5998718D+02 0.2866250D+02 0.1410851D+02 0.7103706D+01
EXPONENTS  0.3609200D+01 0.1776070D+01 0.8547600D+00 0.4022390D+00 0.1546650D+00
EXPONENTS  0.6494500D-01 0.1059219D+05 0.2507533D+04 0.8144571D+03 0.3115195D+03
EXPONENTS  0.1319617D+03 0.5998718D+02 0.2866250D+02 0.1410851D+02 0.7103706D+01
EXPONENTS  0.3609200D+01 0.1776070D+01 0.8547600D+00 0.4022390D+00 0.1546650D+00
EXPONENTS  0.6494500D-01 0.1059219D+05 0.2507533D+04 0.8144571D+03 0.3115195D+03
EXPONENTS  0.1319617D+03 0.5998718D+02 0.2866250D+02 0.1410851D+02 0.7103706D+01
EXPONENTS  0.3609200D+01 0.1776070D+01 0.8547600D+00 0.4022390D+00 0.1546650D+00
EXPONENTS  0.6494500D-01 0.1059219D+05 0.2507533D+04 0.8144571D+03 0.3115195D+03
EXPONENTS  0.1319617D+03 0.5998718D+02 0.2866250D+02 0.1410851D+02 0.7103706D+01
EXPONENTS  0.3609200D+01 0.1776070D+01 0.8547600D+00 0.4022390D+00 0.1546650D+00
EXPONENTS  0.6494500D-01 0.2635900D-01 0.2635900D-01 0.2635900D-01 0.1066000D-01
EXPONENTS  0.1066000D-01 0.1066000D-01 0.5051380D+02 0.1474050D+02 0.5195000D+01
EXPONENTS  0.2028460D+01 0.8040860D+00 0.3076890D+00 0.1113920D+00 0.5051380D+02
EXPONENTS  0.1474050D+02 0.5195000D+01 0.2028460D+01 0.8040860D+00 0.3076890D+00
EXPONENTS  0.1113920D+00 0.5051380D+02 0.1474050D+02 0.5195000D+01 0.2028460D+01
EXPONENTS  0.8040860D+00 0.3076890D+00 0.1113920D+00 0.5051380D+02 0.1474050D+02
EXPONENTS  0.5195000D+01 0.2028460D+01 0.8040860D+00 0.3076890D+00 0.1113920D+00
EXPONENTS  0.5051380D+02 0.1474050D+02 0.5195000D+01 0.2028460D+01 0.8040860D+00
EXPONENTS  0.3076890D+00 0.1113920D+00 0.5051380D+02 0.1474050D+02 0.5195000D+01
EXPONENTS  0.2028460D+01 0.8040860D+00 0.3076890D+00 0.1113920D+00 0.5051380D+02
EXPONENTS  0.1474050D+02 0.5195000D+01 0.2028460D+01 0.8040860D+00 0.3076890D+00
EXPONENTS  0.1113920D+00 0.5051380D+02 0.1474050D+02 0.5195000D+01 0.2028460D+01
EXPONENTS  0.8040860D+00 0.3076890D+00 0.1113920D+00 0.5051380D+02 0.1474050D+02
EXPONENTS  0.5195000D+01 0.2028460D+01 0.8040860D+00 0.3076890D+00 0.1113920D+00
EXPONENTS  0.5051380D+02 0.1474050D+02 0.5195000D+01 0.2028460D+01 0.8040860D+00
EXPONENTS  0.3076890D+00 0.1113920D+00 0.5051380D+02 0.1474050D+02 0.5195000D+01
EXPONENTS  0.2028460D+01 0.8040860D+00 0.3076890D+00 0.1113920D+00 0.5051380D+02
EXPONENTS  0.1474050D+02 0.5195000D+01 0.2028460D+01 0.8040860D+00 0.3076890D+00
EXPONENTS  0.1113920D+00 0.5051380D+02 0.1474050D+02 0.5195000D+01 0.2028460D+01
EXPONENTS  0.8040860D+00 0.3076890D+00 0.1113920D+00 0.5051380D+02 0.1474050D+02
EXPONENTS  0.5195000D+01 0.2028460D+01 0.8040860D+00 0.3076890D+00 0.1113920D+00
EXPONENTS  0.5051380D+02 0.1474050D+02 0.5195000D+01 0.2028460D+01 0.8040860D+00
EXPONENTS  0.3076890D+00 0.1113920D+00 0.5051380D+02 0.1474050D+02 0.5195000D+01
EXPONENTS  0.2028460D+01 0.8040860D+00 0.3076890D+00 0.1113920D+00 0.5051380D+02
EXPONENTS  0.1474050D+02 0.5195000D+01 0.2028460D+01 0.8040860D+00 0.3076890D+00
EXPONENTS  0.1113920D+00 0.5051380D+02 0.1474050D+02 0.5195000D+01 0.2028460D+01
EXPONENTS  0.8040860D+00 0.3076890D+00 0.1113920D+00 0.3735200D-01 0.3735200D-01
EXPONENTS  0.3735200D-01 0.3735200D-01 0.3735200D-01 0.3735200D-01 0.1244000D-01
EXPONENTS  0.1244000D-01 0.1244000D-01 0.1244000D-01 0.1244000D-01 0.1244000D-01
EXPONENTS  0.7267000D+00 0.7267000D+00 0.7267000D+00 0.7267000D+00 0.7267000D+00
EXPONENTS  0.7267000D+00 0.7267000D+00 0.7267000D+00 0.7267000D+00 0.7267000D+00
EXPONENTS  0.1665000D+00 0.1665000D+00 0.1665000D+00 0.1665000D+00 0.1665000D+00
EXPONENTS  0.1665000D+00 0.1665000D+00 0.1665000D+00 0.1665000D+00 0.1665000D+00
EXPONENTS  0.4063000D-01 0.4063000D-01 0.4063000D-01 0.4063000D-01 0.4063000D-01
EXPONENTS  0.4063000D-01 0.4063000D-01 0.4063000D-01 0.4063000D-01 0.4063000D-01
EXPONENTS  0.4187000D+00 0.4187000D+00 0.4187000D+00 0.4187000D+00 0.4187000D+00
EXPONENTS  0.4187000D+00 0.4187000D+00 0.4187000D+00 0.4187000D+00 0.4187000D+00
EXPONENTS  0.4187000D+00 0.4187000D+00 0.4187000D+00 0.4187000D+00 0.4187000D+00
EXPONENTS  0.9473000D-01 0.9473000D-01 0.9473000D-01 0.9473000D-01 0.9473000D-01
EXPONENTS  0.9473000D-01 0.9473000D-01 0.9473000D-01 0.9473000D-01 0.9473000D-01
EXPONENTS  0.9473000D-01 0.9473000D-01 0.9473000D-01 0.9473000D-01 0.9473000D-01
EXPONENTS  0.4561000D+06 0.6833000D+05 0.1555000D+05 0.4405000D+04 0.1439000D+04
EXPONENTS  0.5204000D+03 0.2031000D+03 0.8396000D+02 0.3620000D+02 0.1583000D+02
EXPONENTS  0.6334000D+01 0.2694000D+01 0.4313000D+00 0.4561000D+06 0.6833000D+05
EXPONENTS  0.1555000D+05 0.4405000D+04 0.1439000D+04 0.5204000D+03 0.2031000D+03
EXPONENTS  0.8396000D+02 0.3620000D+02 0.1583000D+02 0.6334000D+01 0.2694000D+01
EXPONENTS  0.4313000D+00 0.4561000D+06 0.6833000D+05 0.1555000D+05 0.4405000D+04
EXPONENTS  0.1439000D+04 0.5204000D+03 0.2031000D+03 0.8396000D+02 0.3620000D+02
EXPONENTS  0.1583000D+02 0.6334000D+01 0.2694000D+01 0.4313000D+00 0.9768000D+00
EXPONENTS  0.1625000D+00 0.5910000D-01 0.6633000D+03 0.1568000D+03 0.4998000D+02
EXPONENTS  0.1842000D+02 0.7240000D+01 0.2922000D+01 0.3818000D+00 0.6633000D+03
EXPONENTS  0.1568000D+03 0.4998000D+02 0.1842000D+02 0.7240000D+01 0.2922000D+01
EXPONENTS  0.3818000D+00 0.6633000D+03 0.1568000D+03 0.4998000D+02 0.1842000D+02
EXPONENTS  0.7240000D+01 0.2922000D+01 0.3818000D+00 0.6633000D+03 0.1568000D+03
EXPONENTS  0.4998000D+02 0.1842000D+02 0.7240000D+01 0.2922000D+01 0.3818000D+00
EXPONENTS  0.6633000D+03 0.1568000D+03 0.4998000D+02 0.1842000D+02 0.7240000D+01
EXPONENTS  0.2922000D+01 0.3818000D+00 0.6633000D+03 0.1568000D+03 0.4998000D+02
EXPONENTS  0.1842000D+02 0.7240000D+01 0.2922000D+01 0.3818000D+00 0.1022000D+01
EXPONENTS  0.1022000D+01 0.1022000D+01 0.1301000D+00 0.1301000D+00 0.1301000D+00
EXPONENTS  0.4190000D-01 0.4190000D-01 0.4190000D-01 0.1046000D+01 0.1046000D+01
EXPONENTS  0.1046000D+01 0.1046000D+01 0.1046000D+01 0.1046000D+01 0.3440000D+00
EXPONENTS  0.3440000D+00 0.3440000D+00 0.3440000D+00 0.3440000D+00 0.3440000D+00
EXPONENTS  0.1350000D+00 0.1350000D+00 0.1350000D+00 0.1350000D+00 0.1350000D+00
EXPONENTS  0.1350000D+00 0.7060000D+00 0.7060000D+00 0.7060000D+00 0.7060000D+00
EXPONENTS  0.7060000D+00 0.7060000D+00 0.7060000D+00 0.7060000D+00 0.7060000D+00
EXPONENTS  0.7060000D+00 0.3120000D+00 0.3120000D+00 0.3120000D+00 0.3120000D+00
EXPONENTS  0.3120000D+00 0.3120000D+00 0.3120000D+00 0.3120000D+00 0.3120000D+00
EXPONENTS  0.3120000D+00 0.4561000D+06 0.6833000D+05 0.1555000D+05 0.4405000D+04
EXPONENTS  0.1439000D+04 0.5204000D+03 0.2031000D+03 0.8396000D+02 0.3620000D+02
EXPONENTS  0.1583000D+02 0.6334000D+01 0.2694000D+01 0.4313000D+00 0.4561000D+06
EXPONENTS  0.6833000D+05 0.1555000D+05 0.4405000D+04 0.1439000D+04 0.5204000D+03
EXPONENTS  0.2031000D+03 0.8396000D+02 0.3620000D+02 0.1583000D+02 0.6334000D+01
EXPONENTS  0.2694000D+01 0.4313000D+00 0.4561000D+06 0.6833000D+05 0.1555000D+05
EXPONENTS  0.4405000D+04 0.1439000D+04 0.5204000D+03 0.2031000D+03 0.8396000D+02
EXPONENTS  0.3620000D+02 0.1583000D+02 0.6334000D+01 0.2694000D+01 0.4313000D+00
EXPONENTS  0.9768000D+00 0.1625000D+00 0.5910000D-01 0.6633000D+03 0.1568000D+03
EXPONENTS  0.4998000D+02 0.1842000D+02 0.7240000D+01 0.2922000D+01 0.3818000D+00
EXPONENTS  0.6633000D+03 0.1568000D+03 0.4998000D+02 0.1842000D+02 0.7240000D+01
EXPONENTS  0.2922000D+01 0.3818000D+00 0.6633000D+03 0.1568000D+03 0.4998000D+02
EXPONENTS  0.1842000D+02 0.7240000D+01 0.2922000D+01 0.3818000D+00 0.6633000D+03
EXPONENTS  0.1568000D+03 0.4998000D+02 0.1842000D+02 0.7240000D+01 0.2922000D+01
EXPONENTS  0.3818000D+00 0.6633000D+03 0.1568000D+03 0.4998000D+02 0.1842000D+02
EXPONENTS  0.7240000D+01 0.2922000D+01 0.3818000D+00 0.6633000D+03 0.1568000D+03
EXPONENTS  0.4998000D+02 0.1842000D+02 0.7240000D+01 0.2922000D+01 0.3818000D+00
EXPONENTS  0.1022000D+01 0.1022000D+01 0.1022000D+01 0.1301000D+00 0.1301000D+00
EXPONENTS  0.1301000D+00 0.4190000D-01 0.4190000D-01 0.4190000D-01 0.1046000D+01
EXPONENTS  0.1046000D+01 0.1046000D+01 0.1046000D+01 0.1046000D+01 0.1046000D+01
EXPONENTS  0.3440000D+00 0.3440000D+00 0.3440000D+00 0.3440000D+00 0.3440000D+00
EXPONENTS  0.3440000D+00 0.1350000D+00 0.1350000D+00 0.1350000D+00 0.1350000D+00
EXPONENTS  0.1350000D+00 0.1350000D+00 0.7060000D+00 0.7060000D+00 0.7060000D+00
EXPONENTS  0.7060000D+00 0.7060000D+00 0.7060000D+00 0.7060000D+00 0.7060000D+00
EXPONENTS  0.7060000D+00 0.7060000D+00 0.3120000D+00 0.3120000D+00 0.3120000D+00
EXPONENTS  0.3120000D+00 0.3120000D+00 0.3120000D+00 0.3120000D+00 0.3120000D+00
EXPONENTS  0.3120000D+00 0.3120000D+00 0.4561000D+06 0.6833000D+05 0.1555000D+05
EXPONENTS  0.4405000D+04 0.1439000D+04 0.5204000D+03 0.2031000D+03 0.8396000D+02
EXPONENTS  0.3620000D+02 0.1583000D+02 0.6334000D+01 0.2694000D+01 0.4313000D+00
EXPONENTS  0.4561000D+06 0.6833000D+05 0.1555000D+05 0.4405000D+04 0.1439000D+04
EXPONENTS  0.5204000D+03 0.2031000D+03 0.8396000D+02 0.3620000D+02 0.1583000D+02
EXPONENTS  0.6334000D+01 0.2694000D+01 0.4313000D+00 0.4561000D+06 0.6833000D+05
EXPONENTS  0.1555000D+05 0.4405000D+04 0.1439000D+04 0.5204000D+03 0.2031000D+03
EXPONENTS  0.8396000D+02 0.3620000D+02 0.1583000D+02 0.6334000D+01 0.2694000D+01
EXPONENTS  0.4313000D+00 0.9768000D+00 0.1625000D+00 0.5910000D-01 0.6633000D+03
EXPONENTS  0.1568000D+03 0.4998000D+02 0.1842000D+02 0.7240000D+01 0.2922000D+01
EXPONENTS  0.3818000D+00 0.6633000D+03 0.1568000D+03 0.4998000D+02 0.1842000D+02
EXPONENTS  0.7240000D+01 0.2922000D+01 0.3818000D+00 0.6633000D+03 0.1568000D+03
EXPONENTS  0.4998000D+02 0.1842000D+02 0.7240000D+01 0.2922000D+01 0.3818000D+00
EXPONENTS  0.6633000D+03 0.1568000D+03 0.4998000D+02 0.1842000D+02 0.7240000D+01
EXPONENTS  0.2922000D+01 0.3818000D+00 0.6633000D+03 0.1568000D+03 0.4998000D+02
EXPONENTS  0.1842000D+02 0.7240000D+01 0.2922000D+01 0.3818000D+00 0.6633000D+03
EXPONENTS  0.1568000D+03 0.4998000D+02 0.1842000D+02 0.7240000D+01 0.2922000D+01
EXPONENTS  0.3818000D+00 0.1022000D+01 0.1022000D+01 0.1022000D+01 0.1301000D+00
EXPONENTS  0.1301000D+00 0.1301000D+00 0.4190000D-01 0.4190000D-01 0.4190000D-01
EXPONENTS  0.1046000D+01 0.1046000D+01 0.1046000D+01 0.1046000D+01 0.1046000D+01
EXPONENTS  0.1046000D+01 0.3440000D+00 0.3440000D+00 0.3440000D+00 0.3440000D+00
EXPONENTS  0.3440000D+00 0.3440000D+00 0.1350000D+00 0.1350000D+00 0.1350000D+00
EXPONENTS  0.1350000D+00 0.1350000D+00 0.1350000D+00 0.7060000D+00 0.7060000D+00
EXPONENTS  0.7060000D+00 0.7060000D+00 0.7060000D+00 0.7060000D+00 0.7060000D+00
EXPONENTS  0.7060000D+00 0.7060000D+00 0.7060000D+00 0.3120000D+00 0.3120000D+00
EXPONENTS  0.3120000D+00 0.3120000D+00 0.3120000D+00 0.3120000D+00 0.3120000D+00
EXPONENTS  0.3120000D+00 0.3120000D+00 0.3120000D+00
MO    1     MO 0.0        OCC NO =    2.0000000  ORB. ENERGY = -166.040858
  0.37728410D+00  0.70616244D+00  0.12232202D+01  0.20021970D+01  0.31279678D+01
  0.46634828D+01  0.65405773D+01  0.83058527D+01  0.88287759D+01  0.66926888D+01
  0.26454846D+01  0.47620329D+00  0.44730689D+00  0.26282348D+00  0.24838791D-01
 -0.35469281D-03  0.87638851D-04 -0.10483480D-04  0.58835506D-05  0.53478340D-01
  0.10010088D+00  0.17343998D+00  0.28411646D+00  0.44490655D+00  0.66736593D+00
  0.95008658D+00  0.12488020D+01  0.14338503D+01  0.12955965D+01  0.70877986D+00
 -0.57584993D-01 -0.45295218D+00 -0.25864347D+00 -0.25928386D-01  0.86734701D-03
 -0.77545800D-04  0.22166775D-04 -0.11579507D-04 -0.13643066D-04 -0.25542452D-04
 -0.44256349D-04 -0.72571954D-04 -0.11384113D-03 -0.17178699D-03 -0.24769066D-03
 -0.33556966D-03 -0.40919060D-03 -0.41688263D-03 -0.26906437D-03  0.44950157D-04
  0.32392976D-03  0.30315746D-03 -0.24348648D-04 -0.14959438D-03 -0.52370027D-04
 -0.11570259D-05  0.32003912D-06 -0.52137624D-05 -0.97546896D-05 -0.16917879D-04
 -0.27707065D-04 -0.43534058D-04 -0.65568197D-04 -0.94782675D-04 -0.12808538D-03
 -0.15691586D-03 -0.15940838D-03 -0.10433415D-03  0.18208280D-04  0.12853561D-03
  0.12974066D-03 -0.16274471D-04 -0.76512508D-04 -0.56543540D-04  0.15502462D-04
  0.22840793D-04  0.12917744D-05  0.24678887D-05  0.41519405D-05  0.70772194D-05
  0.10570850D-04  0.16939470D-04  0.22701308D-04  0.33654368D-04  0.36638036D-04
  0.43815227D-04  0.20936834D-04  0.28097474D-05 -0.42973540D-04 -0.23135159D-04
 -0.80777133D-05  0.42704737D-04 -0.56486706D-06 -0.20133774D-04  0.66023234D-05
 -0.12675889D-05 -0.24680165D-05 -0.40382041D-05 -0.71376319D-05 -0.10177933D-04
 -0.17254165D-04 -0.21571089D-04 -0.34786166D-04 -0.33968717D-04 -0.47027246D-04
 -0.16243258D-04 -0.93615013D-05  0.53186768D-04  0.17824046D-04  0.12583912D-04
 -0.72596476D-04  0.38474817D-04  0.54262078D-05 -0.12023944D-04  0.21728289D-05
 -0.25403549D-06 -0.70826220D-06 -0.10422023D-05 -0.14670332D-05 -0.19240211D-05
 -0.22898451D-05 -0.23941151D-05 -0.20465165D-05 -0.13220172D-05 -0.56230117D-06
 -0.11509598D-06 -0.66366218D-08  0.19321001D-09  0.62215428D-10  0.39778412D-11
 -0.16327151D-12 -0.23757935D-07 -0.34959617D-07 -0.49210135D-07 -0.64539329D-07
 -0.76810525D-07 -0.80308154D-07 -0.68648313D-07 -0.44345721D-07 -0.18861821D-07
 -0.38607776D-08 -0.22261873D-09  0.64810332D-11  0.20869532D-11  0.13343263D-12
 -0.54767768D-14 -0.27232698D-14 -0.40072704D-14 -0.56407460D-14 -0.73978655D-14
 -0.88044599D-14 -0.92053781D-14 -0.78688606D-14 -0.50831592D-14 -0.21620493D-14
 -0.44254432D-15 -0.25517826D-16  0.74289294D-18  0.23921847D-18  0.15294809D-19
 -0.62777935D-21 -0.11663280D-05 -0.16820034D-05 -0.23832982D-05 -0.31421736D-05
 -0.37884856D-05 -0.40593947D-05 -0.35933528D-05 -0.24246827D-05 -0.10932460D-05
  0.52540571D-07  0.45871121D-06  0.27534779D-06  0.70687248D-07  0.35708149D-08
 -0.10658984D-09 -0.54328536D-08 -0.78349127D-08 -0.11101603D-07 -0.14636508D-07
 -0.17647083D-07 -0.18909001D-07 -0.16738139D-07 -0.11294375D-07 -0.50924313D-08
  0.24473838D-09  0.21367153D-08  0.12825931D-08  0.32926712D-09  0.16633155D-10
 -0.49650441D-12  0.17480841D-13  0.25209746D-13  0.35720703D-13  0.47094673D-13
  0.56781551D-13  0.60841917D-13  0.53856915D-13  0.36340970D-13  0.16385492D-13
 -0.78747431D-15 -0.68751308D-14 -0.41268930D-14 -0.10594554D-14 -0.53519117D-16
  0.15975609D-17 -0.22714933D-05 -0.30007344D-05 -0.42537921D-05 -0.55883960D-05
 -0.67836126D-05 -0.72406366D-05 -0.64743963D-05 -0.43496231D-05 -0.20190108D-05
  0.20921214D-06  0.95343806D-06  0.66182614D-06  0.16449651D-06 -0.13170057D-06
 -0.10184555D-06  0.13848809D-06  0.18294837D-06  0.25934461D-06  0.34071256D-06
  0.41358236D-06  0.44144614D-06  0.39473011D-06  0.26518722D-06  0.12309477D-06
 -0.12755217D-07 -0.58129081D-07 -0.40350126D-07 -0.10029001D-07  0.80295024D-08
  0.62093058D-08 -0.23275111D-14 -0.30747362D-14 -0.43586958D-14 -0.57262126D-14
 -0.69509047D-14 -0.74191995D-14 -0.66340628D-14 -0.44568901D-14 -0.20688020D-14
  0.21437157D-15  0.97695100D-15  0.67814758D-15  0.16855319D-15 -0.13494847D-15
 -0.10435719D-15  0.26478534D-05  0.42630917D-05  0.59235121D-05  0.79332910D-05
  0.94312340D-05  0.10277102D-04  0.89537635D-05  0.62337416D-05  0.27001061D-05
 -0.13419625D-06 -0.13914466D-05 -0.81522729D-06 -0.36010321D-06  0.23219715D-06
  0.13958051D-06 -0.10248711D-06 -0.16500610D-06 -0.22927389D-06 -0.30706386D-06
 -0.36504284D-06 -0.39778280D-06 -0.34656200D-06 -0.24128155D-06 -0.10450959D-06
  0.51941644D-08  0.53856962D-07  0.31553971D-07  0.13938059D-07 -0.89873614D-08
 -0.54025663D-08 -0.11727734D-13 -0.18881863D-13 -0.26236110D-13 -0.35137718D-13
 -0.41772328D-13 -0.45518805D-13 -0.39657541D-13 -0.27610162D-13 -0.11959169D-13
  0.59437501D-15  0.61629224D-14  0.36107621D-14  0.15949503D-14 -0.10284355D-14
 -0.61822271D-15 -0.15681021D-06 -0.21290686D-06 -0.33792506D-06 -0.39661165D-06
 -0.53839059D-06 -0.50789619D-06 -0.52386905D-06 -0.29013114D-06 -0.20298804D-06
  0.47358460D-07  0.56618018D-07  0.10060940D-06 -0.32209091D-07 -0.18361765D-07
  0.53666272D-08 -0.15116952D-07 -0.20524829D-07 -0.32576940D-07 -0.38234495D-07
 -0.51902389D-07 -0.48962642D-07 -0.50502472D-07 -0.27969470D-07 -0.19568626D-07
  0.45654908D-08  0.54581386D-08  0.96990338D-08 -0.31050484D-08 -0.17701265D-08
  0.51735818D-09  0.75065041D-15  0.10191851D-14  0.16176471D-14  0.18985798D-14
  0.25772756D-14  0.24312989D-14  0.25077610D-14  0.13888577D-14  0.97170366D-15
 -0.22670493D-15 -0.27103043D-15 -0.48161718D-15  0.15418491D-15  0.87897762D-16
 -0.25690043D-16  0.42599653D-08  0.61704557D-10 -0.86083394D-16 -0.37830721D-09
 -0.38165455D-11  0.51425234D-17 -0.25743056D-03 -0.19371946D-03 -0.11270696D-03
 -0.50340311D-04 -0.14895963D-04 -0.29923453D-05 -0.35788511D-06  0.12818466D-03
  0.96460431D-04  0.56121168D-04  0.25066393D-04  0.74172776D-05  0.14900048D-05
  0.17820488D-06  0.12924590D-03  0.97259026D-04  0.56585795D-04  0.25273918D-04
  0.74786853D-05  0.15023405D-05  0.17968024D-06  0.32880433D-07  0.24742904D-07
  0.14395547D-07  0.64297386D-08  0.19025935D-08  0.38219863D-09  0.45711035D-10
 -0.12807222D-14 -0.96375816D-15 -0.56071939D-15 -0.25044405D-15 -0.74107712D-16
 -0.14886978D-16 -0.17804856D-17  0.11709613D-12  0.88116180D-13  0.51266441D-13
  0.22898040D-13  0.67756506D-14  0.13611128D-14  0.16278937D-15  0.39412400D-03
  0.29508578D-03  0.17633155D-03  0.75969450D-04  0.20794078D-04  0.76671216D-06
 -0.12125778D-05 -0.19624356D-03 -0.14693011D-03 -0.87799602D-04 -0.37826965D-04
 -0.10353858D-04 -0.38176391D-06  0.60377084D-06 -0.19788045D-03 -0.14815567D-03
 -0.88531950D-04 -0.38142485D-04 -0.10440220D-04 -0.38494825D-06  0.60880697D-06