 Molden2AIM, Version 4.0.0 (06/02/2016)           Time: Sun Jul  1 19:42:05 2018
GAUSSIAN             11 MOL ORBITALS    572 PRIMITIVES        2 NUCLEI
  Sc   1    (CENTRE  1)   0.00000000  0.00000000  0.82607488  CHARGE = 21.0
  H    2    (CENTRE  2)   0.00000000  0.00000000 -2.47455857  CHARGE =  1.0
CENTRE ASSIGNMENTS    1  1  1  1  1  1  1  1  1  1  1  1  1  1  1  1  1  1  1  1
CENTRE ASSIGNMENTS    1  1  1  1  1  1  1  1  1  1  1  1  1  1  1  1  1  1  1  1
CENTRE ASSIGNMENTS    1  1  1  1  1  1  1  1  1  1  1  1  1  1  1  1  1  1  1  1
CENTRE ASSIGNMENTS    1  1  1  1  1  1  1  1  1  1  1  1  1  1  1  1  1  1  1  1
CENTRE ASSIGNMENTS    1  1  1  1  1  1  1  1  1  1  1  1  1  1  1  1  1  1  1  1
CENTRE ASSIGNMENTS    1  1  1  1  1  1  1  1  1  1  1  1  1  1  1  1  1  1  1  1
CENTRE ASSIGNMENTS    1  1  1  1  1  1  1  1  1  1  1  1  1  1  1  1  1  1  1  1
CENTRE ASSIGNMENTS    1  1  1  1  1  1  1  1  1  1  1  1  1  1  1  1  1  1  1  1
CENTRE ASSIGNMENTS    1  1  1  1  1  1  1  1  1  1  1  1  1  1  1  1  1  1  1  1
CENTRE ASSIGNMENTS    1  1  1  1  1  1  1  1  1  1  1  1  1  1  1  1  1  1  1  1
CENTRE ASSIGNMENTS    1  1  1  1  1  1  1  1  1  1  1  1  1  1  1  1  1  1  1  1
CENTRE ASSIGNMENTS    1  1  1  1  1  1  1  1  1  1  1  1  1  1  1  1  1  1  1  1
CENTRE ASSIGNMENTS    1  1  1  1  1  1  1  1  1  1  1  1  1  1  1  1  1  1  1  1
CENTRE ASSIGNMENTS    1  1  1  1  1  1  1  1  1  1  1  1  1  1  1  1  1  1  1  1
CENTRE ASSIGNMENTS    1  1  1  1  1  1  1  1  1  1  1  1  1  1  1  1  1  1  1  1
CENTRE ASSIGNMENTS    1  1  1  1  1  1  1  1  1  1  1  1  1  1  1  1  1  1  1  1
CENTRE ASSIGNMENTS    1  1  1  1  1  1  1  1  1  1  1  1  1  1  1  1  1  1  1  1
CENTRE ASSIGNMENTS    1  1  1  1  1  1  1  1  1  1  1  1  1  1  1  1  1  1  1  1
CENTRE ASSIGNMENTS    1  1  1  1  1  1  1  1  1  1  1  1  1  1  1  1  1  1  1  1
CENTRE ASSIGNMENTS    1  1  1  1  1  1  1  1  1  1  1  1  1  1  1  1  1  1  1  1
CENTRE ASSIGNMENTS    1  1  1  1  1  1  1  1  1  1  1  1  1  1  1  1  1  1  1  1
CENTRE ASSIGNMENTS    1  1  1  1  1  1  1  1  1  1  1  1  1  1  1  1  1  1  1  1
CENTRE ASSIGNMENTS    1  1  1  1  1  1  1  1  1  1  1  1  1  1  1  1  1  1  1  1
CENTRE ASSIGNMENTS    1  1  1  1  1  1  1  1  1  1  1  1  1  1  1  1  1  1  1  1
CENTRE ASSIGNMENTS    1  1  1  1  1  1  1  1  1  1  1  1  1  1  1  1  1  1  1  1
CENTRE ASSIGNMENTS    1  1  1  1  1  1  1  1  1  1  1  1  1  1  1  1  1  1  1  1
CENTRE ASSIGNMENTS    1  1  1  1  1  1  1  1  1  1  1  1  1  1  1  1  1  1  1  1
CENTRE ASSIGNMENTS    1  1  1  1  1  2  2  2  2  2  2  2  2  2  2  2  2  2  2  2
CENTRE ASSIGNMENTS    2  2  2  2  2  2  2  2  2  2  2  2
TYPE ASSIGNMENTS      1  1  1  1  1  1  1  1  1  1  1  1  1  1  1  1  1  1  1  1
TYPE ASSIGNMENTS      1  1  1  1  1  1  1  1  1  1  1  1  1  1  1  1  1  1  1  1
TYPE ASSIGNMENTS      1  1  1  1  1  1  1  1  1  1  1  1  1  1  1  1  1  1  1  1
TYPE ASSIGNMENTS      1  1  1  1  1  1  1  1  1  1  1  1  1  1  1  1  1  1  1  1
TYPE ASSIGNMENTS      1  1  1  1  1  1  1  1  1  1  1  1  1  1  1  1  1  1  1  1
TYPE ASSIGNMENTS      1  1  1  1  1  1  1  1  1  1  1  1  1  1  1  1  2  2  2  2
TYPE ASSIGNMENTS      2  2  2  2  2  2  2  2  2  2  2  3  3  3  3  3  3  3  3  3
TYPE ASSIGNMENTS      3  3  3  3  3  3  4  4  4  4  4  4  4  4  4  4  4  4  4  4
TYPE ASSIGNMENTS      4  2  2  2  2  2  2  2  2  2  2  2  2  2  2  2  3  3  3  3
TYPE ASSIGNMENTS      3  3  3  3  3  3  3  3  3  3  3  4  4  4  4  4  4  4  4  4
TYPE ASSIGNMENTS      4  4  4  4  4  4  2  2  2  2  2  2  2  2  2  2  2  2  2  2
TYPE ASSIGNMENTS      2  3  3  3  3  3  3  3  3  3  3  3  3  3  3  3  4  4  4  4
TYPE ASSIGNMENTS      4  4  4  4  4  4  4  4  4  4  4  2  2  2  2  2  2  2  2  2
TYPE ASSIGNMENTS      2  2  2  2  2  2  3  3  3  3  3  3  3  3  3  3  3  3  3  3
TYPE ASSIGNMENTS      3  4  4  4  4  4  4  4  4  4  4  4  4  4  4  4  2  2  2  2
TYPE ASSIGNMENTS      2  2  2  2  2  2  2  2  2  2  2  3  3  3  3  3  3  3  3  3
TYPE ASSIGNMENTS      3  3  3  3  3  3  4  4  4  4  4  4  4  4  4  4  4  4  4  4
TYPE ASSIGNMENTS      4  2  3  4  2  3  4  5  5  5  5  5  5  5  6  6  6  6  6  6
TYPE ASSIGNMENTS      6  7  7  7  7  7  7  7  8  8  8  8  8  8  8  9  9  9  9  9
TYPE ASSIGNMENTS      9  9 10 10 10 10 10 10 10  5  5  5  5  5  5  5  6  6  6  6
TYPE ASSIGNMENTS      6  6  6  7  7  7  7  7  7  7  8  8  8  8  8  8  8  9  9  9
TYPE ASSIGNMENTS      9  9  9  9 10 10 10 10 10 10 10  5  5  5  5  5  5  5  6  6
TYPE ASSIGNMENTS      6  6  6  6  6  7  7  7  7  7  7  7  8  8  8  8  8  8  8  9
TYPE ASSIGNMENTS      9  9  9  9  9  9 10 10 10 10 10 10 10  5  6  7  8  9 10  5
TYPE ASSIGNMENTS      6  7  8  9 10 11 12 13 17 14 15 18 19 16 20 11 12 13 17 14
TYPE ASSIGNMENTS     15 18 19 16 20 11 12 13 17 14 15 18 19 16 20 21 22 23 24 25
TYPE ASSIGNMENTS     26 27 28 29 30 31 32 33 34 35 21 22 23 24 25 26 27 28 29 30
TYPE ASSIGNMENTS     31 32 33 34 35  1  1  1  1  1  1  2  3  4  2  3  4  2  3  4
TYPE ASSIGNMENTS      5  6  7  8  9 10  5  6  7  8  9 10
EXPONENTS  0.2715278D+07 0.4065984D+06 0.9253004D+05 0.2620792D+05 0.8549429D+04
EXPONENTS  0.3085975D+04 0.1203172D+04 0.4984869D+03 0.2167360D+03 0.9787476D+02
EXPONENTS  0.4520433D+02 0.2021187D+02 0.9574751D+01 0.4540346D+01 0.1995687D+01
EXPONENTS  0.9422150D+00 0.4178450D+00 0.9576100D-01 0.5135100D-01 0.2715278D+07
EXPONENTS  0.4065984D+06 0.9253004D+05 0.2620792D+05 0.8549429D+04 0.3085975D+04
EXPONENTS  0.1203172D+04 0.4984869D+03 0.2167360D+03 0.9787476D+02 0.4520433D+02
EXPONENTS  0.2021187D+02 0.9574751D+01 0.4540346D+01 0.1995687D+01 0.9422150D+00
EXPONENTS  0.4178450D+00 0.9576100D-01 0.5135100D-01 0.2715278D+07 0.4065984D+06
EXPONENTS  0.9253004D+05 0.2620792D+05 0.8549429D+04 0.3085975D+04 0.1203172D+04
EXPONENTS  0.4984869D+03 0.2167360D+03 0.9787476D+02 0.4520433D+02 0.2021187D+02
EXPONENTS  0.9574751D+01 0.4540346D+01 0.1995687D+01 0.9422150D+00 0.4178450D+00
EXPONENTS  0.9576100D-01 0.5135100D-01 0.2715278D+07 0.4065984D+06 0.9253004D+05
EXPONENTS  0.2620792D+05 0.8549429D+04 0.3085975D+04 0.1203172D+04 0.4984869D+03
EXPONENTS  0.2167360D+03 0.9787476D+02 0.4520433D+02 0.2021187D+02 0.9574751D+01
EXPONENTS  0.4540346D+01 0.1995687D+01 0.9422150D+00 0.4178450D+00 0.9576100D-01
EXPONENTS  0.5135100D-01 0.2715278D+07 0.4065984D+06 0.9253004D+05 0.2620792D+05
EXPONENTS  0.8549429D+04 0.3085975D+04 0.1203172D+04 0.4984869D+03 0.2167360D+03
EXPONENTS  0.9787476D+02 0.4520433D+02 0.2021187D+02 0.9574751D+01 0.4540346D+01
EXPONENTS  0.1995687D+01 0.9422150D+00 0.4178450D+00 0.9576100D-01 0.5135100D-01
EXPONENTS  0.2715278D+07 0.4065984D+06 0.9253004D+05 0.2620792D+05 0.8549429D+04
EXPONENTS  0.3085975D+04 0.1203172D+04 0.4984869D+03 0.2167360D+03 0.9787476D+02
EXPONENTS  0.4520433D+02 0.2021187D+02 0.9574751D+01 0.4540346D+01 0.1995687D+01
EXPONENTS  0.9422150D+00 0.4178450D+00 0.9576100D-01 0.5135100D-01 0.2387800D-01
EXPONENTS  0.1110000D-01 0.1059219D+05 0.2507533D+04 0.8144571D+03 0.3115195D+03
EXPONENTS  0.1319617D+03 0.5998718D+02 0.2866250D+02 0.1410851D+02 0.7103706D+01
EXPONENTS  0.3609200D+01 0.1776070D+01 0.8547600D+00 0.4022390D+00 0.1546650D+00
EXPONENTS  0.6494500D-01 0.1059219D+05 0.2507533D+04 0.8144571D+03 0.3115195D+03
EXPONENTS  0.1319617D+03 0.5998718D+02 0.2866250D+02 0.1410851D+02 0.7103706D+01
EXPONENTS  0.3609200D+01 0.1776070D+01 0.8547600D+00 0.4022390D+00 0.1546650D+00
EXPONENTS  0.6494500D-01 0.1059219D+05 0.2507533D+04 0.8144571D+03 0.3115195D+03
EXPONENTS  0.1319617D+03 0.5998718D+02 0.2866250D+02 0.1410851D+02 0.7103706D+01
EXPONENTS  0.3609200D+01 0.1776070D+01 0.8547600D+00 0.4022390D+00 0.1546650D+00
EXPONENTS  0.6494500D-01 0.1059219D+05 0.2507533D+04 0.8144571D+03 0.3115195D+03
EXPONENTS  0.1319617D+03 0.5998718D+02 0.2866250D+02 0.1410851D+02 0.7103706D+01
EXPONENTS  0.3609200D+01 0.1776070D+01 0.8547600D+00 0.4022390D+00 0.1546650D+00
EXPONENTS  0.6494500D-01 0.1059219D+05 0.2507533D+04 0.8144571D+03 0.3115195D+03
EXPONENTS  0.1319617D+03 0.5998718D+02 0.2866250D+02 0.1410851D+02 0.7103706D+01
EXPONENTS  0.3609200D+01 0.1776070D+01 0.8547600D+00 0.4022390D+00 0.1546650D+00
EXPONENTS  0.6494500D-01 0.1059219D+05 0.2507533D+04 0.8144571D+03 0.3115195D+03
EXPONENTS  0.1319617D+03 0.5998718D+02 0.2866250D+02 0.1410851D+02 0.7103706D+01
EXPONENTS  0.3609200D+01 0.1776070D+01 0.8547600D+00 0.4022390D+00 0.1546650D+00
EXPONENTS  0.6494500D-01 0.1059219D+05 0.2507533D+04 0.8144571D+03 0.3115195D+03
EXPONENTS  0.1319617D+03 0.5998718D+02 0.2866250D+02 0.1410851D+02 0.7103706D+01
EXPONENTS  0.3609200D+01 0.1776070D+01 0.8547600D+00 0.4022390D+00 0.1546650D+00
EXPONENTS  0.6494500D-01 0.1059219D+05 0.2507533D+04 0.8144571D+03 0.3115195D+03
EXPONENTS  0.1319617D+03 0.5998718D+02 0.2866250D+02 0.1410851D+02 0.7103706D+01
EXPONENTS  0.3609200D+01 0.1776070D+01 0.8547600D+00 0.4022390D+00 0.1546650D+00
EXPONENTS  0.6494500D-01 0.1059219D+05 0.2507533D+04 0.8144571D+03 0.3115195D+03
EXPONENTS  0.1319617D+03 0.5998718D+02 0.2866250D+02 0.1410851D+02 0.7103706D+01
EXPONENTS  0.3609200D+01 0.1776070D+01 0.8547600D+00 0.4022390D+00 0.1546650D+00
EXPONENTS  0.6494500D-01 0.1059219D+05 0.2507533D+04 0.8144571D+03 0.3115195D+03
EXPONENTS  0.1319617D+03 0.5998718D+02 0.2866250D+02 0.1410851D+02 0.7103706D+01
EXPONENTS  0.3609200D+01 0.1776070D+01 0.8547600D+00 0.4022390D+00 0.1546650D+00
EXPONENTS  0.6494500D-01 0.1059219D+05 0.2507533D+04 0.8144571D+03 0.3115195D+03
EXPONENTS  0.1319617D+03 0.5998718D+02 0.2866250D+02 0.1410851D+02 0.7103706D+01
EXPONENTS  0.3609200D+01 0.1776070D+01 0.8547600D+00 0.4022390D+00 0.1546650D+00
EXPONENTS  0.6494500D-01 0.1059219D+05 0.2507533D+04 0.8144571D+03 0.3115195D+03
EXPONENTS  0.1319617D+03 0.5998718D+02 0.2866250D+02 0.1410851D+02 0.7103706D+01
EXPONENTS  0.3609200D+01 0.1776070D+01 0.8547600D+00 0.4022390D+00 0.1546650D+00
EXPONENTS  0.6494500D-01 0.1059219D+05 0.2507533D+04 0.8144571D+03 0.3115195D+03
EXPONENTS  0.1319617D+03 0.5998718D+02 0.2866250D+02 0.1410851D+02 0.7103706D+01
EXPONENTS  0.3609200D+01 0.1776070D+01 0.8547600D+00 0.4022390D+00 0.1546650D+00
EXPONENTS  0.6494500D-01 0.1059219D+05 0.2507533D+04 0.8144571D+03 0.3115195D+03
EXPONENTS  0.1319617D+03 0.5998718D+02 0.2866250D+02 0.1410851D+02 0.7103706D+01
EXPONENTS  0.3609200D+01 0.1776070D+01 0.8547600D+00 0.4022390D+00 0.1546650D+00
EXPONENTS  0.6494500D-01 0.1059219D+05 0.2507533D+04 0.8144571D+03 0.3115195D+03
EXPONENTS  0.1319617D+03 0.5998718D+02 0.2866250D+02 0.1410851D+02 0.7103706D+01
EXPONENTS  0.3609200D+01 0.1776070D+01 0.8547600D+00 0.4022390D+00 0.1546650D+00
EXPONENTS  0.6494500D-01 0.2635900D-01 0.2635900D-01 0.2635900D-01 0.1066000D-01
EXPONENTS  0.1066000D-01 0.1066000D-01 0.5051380D+02 0.1474050D+02 0.5195000D+01
EXPONENTS  0.2028460D+01 0.8040860D+00 0.3076890D+00 0.1113920D+00 0.5051380D+02
EXPONENTS  0.1474050D+02 0.5195000D+01 0.2028460D+01 0.8040860D+00 0.3076890D+00
EXPONENTS  0.1113920D+00 0.5051380D+02 0.1474050D+02 0.5195000D+01 0.2028460D+01
EXPONENTS  0.8040860D+00 0.3076890D+00 0.1113920D+00 0.5051380D+02 0.1474050D+02
EXPONENTS  0.5195000D+01 0.2028460D+01 0.8040860D+00 0.3076890D+00 0.1113920D+00
EXPONENTS  0.5051380D+02 0.1474050D+02 0.5195000D+01 0.2028460D+01 0.8040860D+00
EXPONENTS  0.3076890D+00 0.1113920D+00 0.5051380D+02 0.1474050D+02 0.5195000D+01
EXPONENTS  0.2028460D+01 0.8040860D+00 0.3076890D+00 0.1113920D+00 0.5051380D+02
EXPONENTS  0.1474050D+02 0.5195000D+01 0.2028460D+01 0.8040860D+00 0.3076890D+00
EXPONENTS  0.1113920D+00 0.5051380D+02 0.1474050D+02 0.5195000D+01 0.2028460D+01
EXPONENTS  0.8040860D+00 0.3076890D+00 0.1113920D+00 0.5051380D+02 0.1474050D+02
EXPONENTS  0.5195000D+01 0.2028460D+01 0.8040860D+00 0.3076890D+00 0.1113920D+00
EXPONENTS  0.5051380D+02 0.1474050D+02 0.5195000D+01 0.2028460D+01 0.8040860D+00
EXPONENTS  0.3076890D+00 0.1113920D+00 0.5051380D+02 0.1474050D+02 0.5195000D+01
EXPONENTS  0.2028460D+01 0.8040860D+00 0.3076890D+00 0.1113920D+00 0.5051380D+02
EXPONENTS  0.1474050D+02 0.5195000D+01 0.2028460D+01 0.8040860D+00 0.3076890D+00
EXPONENTS  0.1113920D+00 0.5051380D+02 0.1474050D+02 0.5195000D+01 0.2028460D+01
EXPONENTS  0.8040860D+00 0.3076890D+00 0.1113920D+00 0.5051380D+02 0.1474050D+02
EXPONENTS  0.5195000D+01 0.2028460D+01 0.8040860D+00 0.3076890D+00 0.1113920D+00
EXPONENTS  0.5051380D+02 0.1474050D+02 0.5195000D+01 0.2028460D+01 0.8040860D+00
EXPONENTS  0.3076890D+00 0.1113920D+00 0.5051380D+02 0.1474050D+02 0.5195000D+01
EXPONENTS  0.2028460D+01 0.8040860D+00 0.3076890D+00 0.1113920D+00 0.5051380D+02
EXPONENTS  0.1474050D+02 0.5195000D+01 0.2028460D+01 0.8040860D+00 0.3076890D+00
EXPONENTS  0.1113920D+00 0.5051380D+02 0.1474050D+02 0.5195000D+01 0.2028460D+01
EXPONENTS  0.8040860D+00 0.3076890D+00 0.1113920D+00 0.3735200D-01 0.3735200D-01
EXPONENTS  0.3735200D-01 0.3735200D-01 0.3735200D-01 0.3735200D-01 0.1244000D-01
EXPONENTS  0.1244000D-01 0.1244000D-01 0.1244000D-01 0.1244000D-01 0.1244000D-01
EXPONENTS  0.7267000D+00 0.7267000D+00 0.7267000D+00 0.7267000D+00 0.7267000D+00
EXPONENTS  0.7267000D+00 0.7267000D+00 0.7267000D+00 0.7267000D+00 0.7267000D+00
EXPONENTS  0.1665000D+00 0.1665000D+00 0.1665000D+00 0.1665000D+00 0.1665000D+00
EXPONENTS  0.1665000D+00 0.1665000D+00 0.1665000D+00 0.1665000D+00 0.1665000D+00
EXPONENTS  0.4063000D-01 0.4063000D-01 0.4063000D-01 0.4063000D-01 0.4063000D-01
EXPONENTS  0.4063000D-01 0.4063000D-01 0.4063000D-01 0.4063000D-01 0.4063000D-01
EXPONENTS  0.4187000D+00 0.4187000D+00 0.4187000D+00 0.4187000D+00 0.4187000D+00
EXPONENTS  0.4187000D+00 0.4187000D+00 0.4187000D+00 0.4187000D+00 0.4187000D+00
EXPONENTS  0.4187000D+00 0.4187000D+00 0.4187000D+00 0.4187000D+00 0.4187000D+00
EXPONENTS  0.9473000D-01 0.9473000D-01 0.9473000D-01 0.9473000D-01 0.9473000D-01
EXPONENTS  0.9473000D-01 0.9473000D-01 0.9473000D-01 0.9473000D-01 0.9473000D-01
EXPONENTS  0.9473000D-01 0.9473000D-01 0.9473000D-01 0.9473000D-01 0.9473000D-01
EXPONENTS  0.3387000D+02 0.5095000D+01 0.1159000D+01 0.3258000D+00 0.1027000D+00
EXPONENTS  0.2526000D-01 0.1407000D+01 0.1407000D+01 0.1407000D+01 0.3880000D+00
EXPONENTS  0.3880000D+00 0.3880000D+00 0.1020000D+00 0.1020000D+00 0.1020000D+00
EXPONENTS  0.1057000D+01 0.1057000D+01 0.1057000D+01 0.1057000D+01 0.1057000D+01
EXPONENTS  0.1057000D+01 0.2470000D+00 0.2470000D+00 0.2470000D+00 0.2470000D+00
EXPONENTS  0.2470000D+00 0.2470000D+00
MO    1     MO 0.0        OCC NO =    2.0000000  ORB. ENERGY = -165.986777
  0.37727927D+00  0.70615340D+00  0.12232046D+01  0.20021714D+01  0.31279278D+01
  0.46634231D+01  0.65404936D+01  0.83057464D+01  0.88286629D+01  0.66926031D+01
  0.26454507D+01  0.47619720D+00  0.44730117D+00  0.26282012D+00  0.24838474D-01
 -0.35468827D-03  0.87637730D-04 -0.10483346D-04  0.58834754D-05  0.53486435D-01
  0.10011603D+00  0.17346623D+00  0.28415946D+00  0.44497389D+00  0.66746695D+00
  0.95023038D+00  0.12489911D+01  0.14340674D+01  0.12957926D+01  0.70888714D+00
 -0.57593710D-01 -0.45302074D+00 -0.25868262D+00 -0.25932311D-01  0.86747829D-03
 -0.77557538D-04  0.22170130D-04 -0.11581260D-04 -0.18847847D-04 -0.35286807D-04
 -0.61139987D-04 -0.10025790D-03 -0.15727111D-03 -0.23732311D-03 -0.34218375D-03
 -0.46358828D-03 -0.56529536D-03 -0.57592186D-03 -0.37171146D-03  0.62098481D-04
  0.44750781D-03  0.41881094D-03 -0.33637570D-04 -0.20666410D-03 -0.72349005D-04
 -0.15984271D-05  0.44213290D-06 -0.15067149D-05 -0.28189886D-05 -0.48890645D-05
 -0.80070103D-05 -0.12580822D-04 -0.18948424D-04 -0.27391059D-04 -0.37015142D-04
 -0.45346806D-04 -0.46067114D-04 -0.30151320D-04  0.52619751D-05  0.37145252D-04
  0.37493497D-04 -0.47031273D-05 -0.22111199D-04 -0.16340406D-04  0.44800261D-05
  0.66007159D-05  0.61449152D-06  0.11739641D-05  0.19750603D-05  0.33666029D-05
  0.50285081D-05  0.80580331D-05  0.10798915D-04  0.16009238D-04  0.17428556D-04
  0.20842716D-04  0.99595623D-05  0.13365848D-05 -0.20442329D-04 -0.11005296D-04
 -0.38425336D-05  0.20314460D-04 -0.26870484D-06 -0.95775500D-05  0.31406969D-05
 -0.66381111D-06 -0.12924512D-05 -0.21147273D-05 -0.37378360D-05 -0.53299811D-05
 -0.90356636D-05 -0.11296351D-04 -0.18216824D-04 -0.17788742D-04 -0.24627234D-04
 -0.85062717D-05 -0.49024322D-05  0.27852853D-04  0.93340990D-05  0.65899449D-05
 -0.38017332D-04  0.20148497D-04  0.28415972D-05 -0.62967006D-05  0.92837322D-06
 -0.69066828D-07  0.77973724D-18  0.11473773D-17  0.16150804D-17  0.21181857D-17
  0.25209273D-17  0.26357198D-17  0.22530429D-17  0.14554300D-17  0.61904640D-18
  0.12671101D-18  0.73063636D-20 -0.21270800D-21 -0.68493964D-22 -0.43792692D-23
  0.17974823D-24  0.15389663D-17  0.22645770D-17  0.31876820D-17  0.41806602D-17
  0.49755508D-17  0.52021165D-17  0.44468277D-17  0.28725802D-17  0.12218110D-17
  0.25008936D-18  0.14420560D-19 -0.41982150D-21 -0.13518645D-21 -0.86433578D-23
  0.35476884D-24 -0.54231780D-04 -0.79801643D-04 -0.11233103D-03 -0.14732268D-03
 -0.17533390D-03 -0.18331787D-03 -0.15670218D-03 -0.10122712D-03 -0.43055514D-04
 -0.88129225D-05 -0.50816747D-06  0.14794129D-07  0.47638479D-08  0.30458410D-09
 -0.12501733D-10  0.37449326D-19  0.54007013D-19  0.76524709D-19  0.10089124D-18
  0.12164351D-18  0.13034206D-18  0.11537804D-18  0.77853512D-19  0.35102753D-19
 -0.16870116D-20 -0.14728640D-19 -0.88410713D-20 -0.22696786D-20 -0.11465437D-21
  0.34224657D-23  0.21073301D-18  0.30390561D-18  0.43061608D-18  0.56773024D-18
  0.68450637D-18  0.73345442D-18  0.64924964D-18  0.43809345D-18  0.19752849D-18
 -0.94930690D-20 -0.82880280D-19 -0.49750042D-19 -0.12771824D-19 -0.64517746D-21
  0.19258731D-22  0.14593940D-04  0.21046443D-04  0.29821552D-04  0.39317149D-04
  0.47404273D-04  0.50794083D-04  0.44962631D-04  0.30339384D-04  0.13679485D-04
 -0.65742563D-06 -0.57397265D-05 -0.34453508D-05 -0.88448998D-06 -0.44680619D-07
  0.13337292D-08  0.78825176D-18  0.10413124D-17  0.14761475D-17  0.19392806D-17
  0.23540437D-17  0.25126399D-17  0.22467398D-17  0.15094027D-17  0.70063548D-18
 -0.72600628D-19 -0.33086131D-18 -0.22966637D-18 -0.57083446D-19  0.45702626D-19
  0.35342362D-19  0.25817348D-17  0.34105761D-17  0.48347769D-17  0.63516615D-17
  0.77101214D-17  0.82295660D-17  0.73586722D-17  0.49436965D-17  0.22947681D-17
 -0.23778643D-18 -0.10836591D-17 -0.75221865D-18 -0.18696351D-18  0.14968829D-18
  0.11575567D-18  0.20720003D-04  0.27371961D-04  0.38802045D-04  0.50975973D-04
  0.61878445D-04  0.66047306D-04  0.59057850D-04  0.39676191D-04  0.18416919D-04
 -0.19083817D-05 -0.86970274D-05 -0.60370152D-05 -0.15004967D-05  0.12013402D-05
  0.92901009D-06 -0.62662671D-18 -0.10088803D-17 -0.14018265D-17 -0.18774499D-17
 -0.22319450D-17 -0.24321237D-17 -0.21189494D-17 -0.14752437D-17 -0.63899255D-18
  0.31758161D-19  0.32929225D-18  0.19292730D-18  0.85220085D-19 -0.54950527D-19
 -0.33032372D-19 -0.20609721D-17 -0.33182022D-17 -0.46106002D-17 -0.61749233D-17
 -0.73408559D-17 -0.79992426D-17 -0.69692140D-17 -0.48520691D-17 -0.21016433D-17
  0.10445243D-18  0.10830406D-17  0.63453692D-18  0.28028843D-18 -0.18073201D-18
 -0.10864331D-18 -0.34326781D-04 -0.55266735D-04 -0.76792432D-04 -0.10284721D-03
 -0.12226655D-03 -0.13323239D-03 -0.11607662D-03 -0.80814248D-04 -0.35004184D-04
  0.17397206D-05  0.18038718D-04  0.10568609D-04  0.46683793D-05 -0.30102047D-05
 -0.18095222D-05  0.21789288D-19  0.29584101D-19  0.46955786D-19  0.55110479D-19
  0.74811123D-19  0.70573827D-19  0.72793308D-19  0.40314666D-19  0.28205848D-19
 -0.65806121D-20 -0.78672578D-20 -0.13980004D-19  0.44755580D-20  0.25514269D-20
 -0.74571031D-21  0.81261405D-19  0.11033153D-18  0.17511784D-18  0.20553011D-18
  0.27900209D-18  0.26319944D-18  0.27147681D-18  0.15035032D-18  0.10519145D-18
 -0.24541866D-19 -0.29340308D-19 -0.52137305D-19  0.16691235D-19  0.95153424D-20
 -0.27810668D-20  0.77531748D-05  0.10526764D-04  0.16708045D-04  0.19609689D-04
  0.26619672D-04  0.25111936D-04  0.25901683D-04  0.14344968D-04  0.10036347D-04
 -0.23415467D-05 -0.27993675D-05 -0.49744357D-05  0.15925157D-05  0.90786164D-06
 -0.26534241D-06 -0.28582335D-21 -0.81343198D-21  0.16276887D-07  0.31109398D-22
  0.86022365D-22 -0.92396550D-08 -0.38585346D-04 -0.29035916D-04 -0.16893243D-04
 -0.75453291D-05 -0.22327026D-05 -0.44851193D-06 -0.53642119D-07 -0.38585346D-04
 -0.29035916D-04 -0.16893243D-04 -0.75453291D-05 -0.22327026D-05 -0.44851193D-06
 -0.53642119D-07  0.77170692D-04  0.58071832D-04  0.33786486D-04  0.15090658D-04
  0.44654051D-05  0.89702385D-06  0.10728424D-06  0.15162359D-17  0.11409850D-17
  0.66383084D-18  0.29649855D-18  0.87735481D-19  0.17624564D-19  0.21079015D-20
  0.35297251D-18  0.26561587D-18  0.15453666D-18  0.69023450D-19  0.20424402D-19
  0.41029146D-20  0.49070943D-21  0.27998691D-18  0.21069337D-18  0.12258247D-18
  0.54751184D-19  0.16201163D-19  0.32545379D-20  0.38924340D-21  0.76643459D-04
  0.57383956D-04  0.34290376D-04  0.14773425D-04  0.40437275D-05  0.14909894D-06
 -0.23580436D-06  0.76643459D-04  0.57383956D-04  0.34290376D-04  0.14773425D-04
  0.40437275D-05  0.14909894D-06 -0.23580436D-06 -0.15328692D-03 -0.11476791D-03
 -0.68580751D-04 -0.29546850D-04 -0.80874550D-05 -0.29819789D-06  0.47160872D-06
 -0.10851789D-17 -0.81248760D-18 -0.48551036D-18 -0.20917388D-18 -0.57254303D-19
 -0.21110612D-20  0.33387053D-20 -0.20808001D-18 -0.15579221D-18 -0.93095246D-19
 -0.40108503D-19 -0.10978352D-19 -0.40479005D-21  0.64018735D-21 -0.44997601D-18
 -0.33690290D-18 -0.20131980D-18 -0.86735213D-19 -0.23740843D-19 -0.87536428D-21
  0.13844143D-20 -0.34521410D-04 -0.25478296D-04 -0.15618093D-04 -0.65137333D-05
 -0.12953704D-05  0.59527347D-06  0.27075027D-07 -0.34521410D-04 -0.25478296D-04
 -0.15618093D-04 -0.65137333D-05 -0.12953704D-05  0.59527347D-06  0.27075027D-07
  0.69042820D-04  0.50956592D-04  0.31236187D-04  0.13027467D-04  0.25907408D-05
 -0.11905469D-05 -0.54150054D-07  0.26316413D-17  0.19422653D-17  0.11906009D-17
  0.49655589D-18  0.98748871D-19 -0.45378977D-19 -0.20639875D-20  0.39804348D-18
  0.29377333D-18  0.18008187D-18  0.75105537D-19  0.14936057D-19 -0.68637035D-20
 -0.31218417D-21  0.43099880D-18  0.31809578D-18  0.19499144D-18  0.81323770D-19
  0.16172662D-19 -0.74319720D-20 -0.33803092D-21 -0.66495860D-08 -0.66495860D-08
  0.13299172D-07 -0.22729624D-21 -0.33826029D-22 -0.10600044D-22 -0.71177479D-10
 -0.71177479D-10  0.14235496D-09  0.11418562D-22  0.15898812D-23  0.10429726D-23
 -0.58546734D-20  0.18602604D-20  0.82848502D-07  0.15274805D-19 -0.21786078D-19
 -0.12427275D-06  0.22892153D-20  0.16205297D-19 -0.12427275D-06 -0.18489365D-19
  0.37941304D-22  0.13883124D-21 -0.13427733D-06 -0.59558350D-22  0.25393354D-21
  0.20141600D-06 -0.54265563D-22 -0.67042724D-21  0.20141600D-06  0.55149935D-21
  0.12482387D-24  0.23693785D-23 -0.20600711D-08  0.19602253D-23  0.67969269D-24
  0.30901066D-08 -0.23346969D-23 -0.77878281D-23  0.30901066D-08 -0.58830256D-23
  0.17434715D-07  0.17434715D-07  0.46492574D-07  0.21343237D-20  0.33535791D-20
  0.16929297D-20  0.56944265D-22 -0.18169439D-20  0.46792570D-21  0.34869430D-07
 -0.13947772D-06 -0.13947772D-06 -0.15746099D-20 -0.46099056D-20 -0.11481760D-19
  0.74635170D-09  0.74635170D-09  0.19902712D-08  0.72174118D-24  0.15872171D-24
  0.24487083D-24 -0.12887763D-22  0.48066976D-23  0.18010810D-22  0.14927034D-08
 -0.59708136D-08 -0.59708136D-08 -0.15369142D-22 -0.14896258D-22 -0.28998360D-23
 -0.17352206D-06 -0.31295419D-06 -0.46145077D-06 -0.11401426D-05 -0.43283386D-05
 -0.40338060D-06  0.11026414D-20 -0.16706701D-20 -0.46601096D-06 -0.72032086D-21
  0.30428800D-20  0.10909583D-05  0.22688014D-21  0.16047939D-20 -0.33936446D-06
 -0.84671270D-06 -0.84671270D-06  0.16934254D-05  0.62165157D-21 -0.60527098D-20
 -0.10944112D-19 -0.38946486D-06 -0.38946486D-06  0.77892973D-06  0.36757852D-21
 -0.45026679D-21  0.16064628D-20
MO    2     MO 0.0        OCC NO =    2.0000000  ORB. ENERGY =  -19.186544
  0.92299898D-01  0.17275767D+00  0.29925221D+00  0.48982341D+00  0.76523529D+00
  0.11408882D+01  0.16001062D+01  0.20319684D+01  0.21598978D+01  0.16373192D+01
  0.64719917D+00  0.11649978D+00  0.10943048D+00  0.64297913D-01  0.60766354D-02
 -0.86773097D-04  0.21440228D-04 -0.25647095D-05  0.14393692D-05 -0.21868985D+00
 -0.40934415D+00 -0.70925093D+00 -0.11618421D+01 -0.18193636D+01 -0.27290704D+01
 -0.38852045D+01 -0.51067466D+01 -0.58634676D+01 -0.52981039D+01 -0.28984250D+01
  0.23548325D+00  0.18522648D+01  0.10576750D+01  0.10602937D+00 -0.35468563D-02
  0.31710931D-03 -0.90646956D-04  0.47352267D-04  0.16530856D-03  0.30948953D-03
  0.53623968D-03  0.87933060D-03  0.13793757D-02  0.20814867D-02  0.30011865D-02
  0.40659876D-02  0.49580285D-02  0.50512303D-02  0.32601648D-02 -0.54464633D-03
 -0.39249508D-02 -0.36732596D-02  0.29502459D-03  0.18125860D-02  0.63455046D-03
  0.14019304D-04 -0.38778092D-05 -0.32863635D-05 -0.61486224D-05 -0.10663758D-04
 -0.17464449D-04 -0.27440594D-04 -0.41329258D-04 -0.59743867D-04 -0.80735386D-04
 -0.98907952D-04 -0.10047905D-03 -0.65764397D-04  0.11477130D-04  0.81019175D-04
  0.81778747D-04 -0.10258202D-04 -0.48227728D-04 -0.35640793D-04  0.97715859D-05
  0.14397117D-04 -0.12348012D-04 -0.23590434D-04 -0.39688208D-04 -0.67650814D-04
 -0.10104627D-03 -0.16192361D-03 -0.21700075D-03 -0.32170055D-03 -0.35022129D-03
 -0.41882774D-03 -0.20013423D-03 -0.26858246D-04  0.41078209D-03  0.22114792D-03
  0.77214489D-04 -0.40821262D-03  0.53995382D-05  0.19245782D-03 -0.63111305D-04
  0.44448835D-05  0.86542616D-05  0.14160228D-04  0.25028575D-04  0.35689588D-04
  0.60502862D-04  0.75640437D-04  0.12197997D-03  0.11911353D-03  0.16490412D-03
  0.56958050D-04  0.32826718D-04 -0.18650289D-03 -0.62501188D-04 -0.44126314D-04
  0.25456430D-03 -0.13491447D-03 -0.19027354D-04  0.42162748D-04  0.12630565D-04
  0.22313799D-05  0.80895137D-17  0.11903657D-16  0.16755920D-16  0.21975470D-16
  0.26153779D-16  0.27344713D-16  0.23374568D-16  0.15099600D-16  0.64223998D-17
  0.13145845D-17  0.75801084D-19 -0.22067746D-20 -0.71060203D-21 -0.45433457D-22
  0.18648279D-23  0.39735845D-16  0.58470987D-16  0.82305398D-16  0.10794392D-15
  0.12846786D-15  0.13431775D-15  0.11481632D-15  0.74169523D-16  0.31546950D-16
  0.64572640D-17  0.37233636D-18 -0.10839719D-19 -0.34904906D-20 -0.22317000D-21
  0.91600702D-23 -0.18154616D-01 -0.26714377D-01 -0.37603905D-01 -0.49317702D-01
 -0.58694731D-01 -0.61367443D-01 -0.52457580D-01 -0.33886765D-01 -0.14413253D-01
 -0.29502116D-02 -0.17011401D-03  0.49524789D-05  0.15947445D-05  0.10196249D-06
 -0.41850767D-08 -0.88354281D-18 -0.12741887D-17 -0.18054492D-17 -0.23803294D-17
 -0.28699381D-17 -0.30751632D-17 -0.27221168D-17 -0.18367997D-17 -0.82818007D-18
  0.39801705D-19  0.34749315D-18  0.20858760D-18  0.53548580D-19  0.27050433D-20
 -0.80746314D-22  0.16476571D-17  0.23761453D-17  0.33668558D-17  0.44389096D-17
  0.53519465D-17  0.57346564D-17  0.50762849D-17  0.34253191D-17  0.15444150D-17
 -0.74223411D-19 -0.64801563D-18 -0.38898040D-18 -0.99858996D-19 -0.50444458D-20
  0.15057814D-21  0.12240880D-02  0.17653011D-02  0.25013261D-02  0.32977832D-02
  0.39761025D-02  0.42604277D-02  0.37713062D-02  0.25447600D-02  0.11473867D-02
 -0.55142533D-04 -0.48142793D-03 -0.28898382D-03 -0.74187886D-04 -0.37476520D-05
  0.11186848D-06 -0.20403501D-16 -0.26953849D-16 -0.38209336D-16 -0.50197305D-16
 -0.60933240D-16 -0.65038421D-16 -0.58155730D-16 -0.39070130D-16 -0.18135597D-16
  0.18792308D-17  0.85641786D-17  0.59447987D-17  0.14775763D-17 -0.11829895D-17
 -0.91481928D-18  0.13696112D-16  0.18093118D-16  0.25648508D-16  0.33695586D-16
  0.40902221D-16  0.43657876D-16  0.39037781D-16  0.26226327D-16  0.12173753D-16
 -0.12614578D-17 -0.57488150D-17 -0.39905226D-17 -0.99184209D-18  0.79409692D-18
  0.61408421D-18  0.50644623D-02  0.66903593D-02  0.94841440D-02  0.12459742D-01
  0.15124566D-01  0.16143535D-01  0.14435145D-01  0.96978063D-02  0.45015338D-02
 -0.46645394D-03 -0.21257607D-02 -0.14755903D-02 -0.36675713D-03  0.29363616D-03
  0.22707220D-03  0.16417643D-16  0.26432700D-16  0.36727904D-16  0.49189255D-16
  0.58477040D-16  0.63721729D-16  0.55516551D-16  0.38651438D-16  0.16741628D-16
 -0.83206496D-18 -0.86274688D-17 -0.50547022D-17 -0.22327693D-17  0.14397058D-17
  0.86544933D-18 -0.10995842D-16 -0.17703503D-16 -0.24598794D-16 -0.32944880D-16
 -0.39165444D-16 -0.42678115D-16 -0.37182635D-16 -0.25887096D-16 -0.11212833D-16
  0.55728187D-18  0.57783132D-17  0.33854254D-17  0.14954143D-17 -0.96425395D-18
 -0.57964131D-18 -0.47190896D-02 -0.75978192D-02 -0.10557074D-01 -0.14138967D-01
 -0.16808649D-01 -0.18316183D-01 -0.15957686D-01 -0.11109975D-01 -0.48122160D-02
  0.23916887D-03  0.24798809D-02  0.14529243D-02  0.64178754D-03 -0.41382924D-03
 -0.24876488D-03 -0.61661583D-18 -0.83720150D-18 -0.13288034D-17 -0.15595734D-17
 -0.21170826D-17 -0.19971712D-17 -0.20599804D-17 -0.11408661D-17 -0.79819827D-18
  0.18622497D-18  0.22263580D-18  0.39562062D-18 -0.12665397D-18 -0.72202920D-19
  0.21102882D-19  0.72894236D-18  0.98971128D-18  0.15708664D-17  0.18436748D-17
  0.25027434D-17  0.23609882D-17  0.24352390D-17  0.13486933D-17  0.94360298D-18
 -0.22014886D-18 -0.26319251D-18 -0.46768930D-18  0.14972604D-18  0.85355848D-19
 -0.24947113D-19 -0.31501685D-03 -0.42770971D-03 -0.67885942D-03 -0.79675521D-03
 -0.10815757D-02 -0.10203153D-02 -0.10524033D-02 -0.58284597D-03 -0.40778373D-03
  0.95138658D-04  0.11374023D-03  0.20211476D-03 -0.64705012D-04 -0.36887045D-04
  0.10781045D-04  0.46242292D-20 -0.22264316D-20 -0.39354689D-05 -0.47741302D-21
  0.21819837D-21 -0.88021206D-07 -0.46167730D-03 -0.34741747D-03 -0.20212925D-03
 -0.90280574D-04 -0.26714497D-04 -0.53664875D-05 -0.64183301D-06 -0.46167730D-03
 -0.34741747D-03 -0.20212925D-03 -0.90280574D-04 -0.26714497D-04 -0.53664875D-05
 -0.64183301D-06  0.92335460D-03  0.69483494D-03  0.40425850D-03  0.18056115D-03
  0.53428993D-04  0.10732975D-04  0.12836660D-05  0.21663908D-16  0.16302339D-16
  0.94847837D-17  0.42363573D-17  0.12535604D-17  0.25181894D-18  0.30117597D-19
  0.95230512D-17  0.71662054D-17  0.41693346D-17  0.18622239D-17  0.55104186D-18
  0.11069493D-18  0.13239136D-19 -0.22306860D-17 -0.16786169D-17 -0.97662781D-18
 -0.43620861D-18 -0.12907642D-18 -0.25929255D-19 -0.31011443D-20  0.41769326D-03