 Molden2AIM, Version 4.0.0 (06/02/2016)           Time: Sun Jul  1 19:49:34 2018
GAUSSIAN             20 MOL ORBITALS    695 PRIMITIVES        3 NUCLEI
  Ti   1    (CENTRE  1)   0.00000000  0.00000000 -0.51441936  CHARGE = 22.0
  F    2    (CENTRE  2)   0.00000000  3.39417489 -0.51861833  CHARGE =  9.0
  F    3    (CENTRE  3)   0.00000000 -3.39417489 -0.51861833  CHARGE =  9.0
CENTRE ASSIGNMENTS    1  1  1  1  1  1  1  1  1  1  1  1  1  1  1  1  1  1  1  1
CENTRE ASSIGNMENTS    1  1  1  1  1  1  1  1  1  1  1  1  1  1  1  1  1  1  1  1
CENTRE ASSIGNMENTS    1  1  1  1  1  1  1  1  1  1  1  1  1  1  1  1  1  1  1  1
CENTRE ASSIGNMENTS    1  1  1  1  1  1  1  1  1  1  1  1  1  1  1  1  1  1  1  1
CENTRE ASSIGNMENTS    1  1  1  1  1  1  1  1  1  1  1  1  1  1  1  1  1  1  1  1
CENTRE ASSIGNMENTS    1  1  1  1  1  1  1  1  1  1  1  1  1  1  1  1  1  1  1  1
CENTRE ASSIGNMENTS    1  1  1  1  1  1  1  1  1  1  1  1  1  1  1  1  1  1  1  1
CENTRE ASSIGNMENTS    1  1  1  1  1  1  1  1  1  1  1  1  1  1  1  1  1  1  1  1
CENTRE ASSIGNMENTS    1  1  1  1  1  1  1  1  1  1  1  1  1  1  1  1  1  1  1  1
CENTRE ASSIGNMENTS    1  1  1  1  1  1  1  1  1  1  1  1  1  1  1  1  1  1  1  1
CENTRE ASSIGNMENTS    1  1  1  1  1  1  1  1  1  1  1  1  1  1  1  1  1  1  1  1
CENTRE ASSIGNMENTS    1  1  1  1  1  1  1  1  1  1  1  1  1  1  1  1  1  1  1  1
CENTRE ASSIGNMENTS    1  1  1  1  1  1  1  1  1  1  1  1  1  1  1  1  1  1  1  1
CENTRE ASSIGNMENTS    1  1  1  1  1  1  1  1  1  1  1  1  1  1  1  1  1  1  1  1
CENTRE ASSIGNMENTS    1  1  1  1  1  1  1  1  1  1  1  1  1  1  1  1  1  1  1  1
CENTRE ASSIGNMENTS    1  1  1  1  1  1  1  1  1  1  1  1  1  1  1  1  1  1  1  1
CENTRE ASSIGNMENTS    1  1  1  1  1  1  1  1  1  1  1  1  1  1  1  1  1  1  1  1
CENTRE ASSIGNMENTS    1  1  1  1  1  1  1  1  1  1  1  1  1  1  1  1  1  1  1  1
CENTRE ASSIGNMENTS    1  1  1  1  1  1  1  1  1  1  1  1  1  1  1  1  1  1  1  1
CENTRE ASSIGNMENTS    1  1  1  1  1  1  1  1  1  1  1  1  1  1  1  1  1  1  1  1
CENTRE ASSIGNMENTS    1  1  1  1  1  1  1  1  1  1  1  1  1  1  1  1  1  1  1  1
CENTRE ASSIGNMENTS    1  1  1  1  1  1  1  1  1  1  1  1  1  1  1  1  1  1  1  1
CENTRE ASSIGNMENTS    1  1  1  1  1  1  1  1  1  1  1  1  1  1  1  1  1  1  1  1
CENTRE ASSIGNMENTS    1  1  1  1  1  1  1  1  1  1  1  1  1  1  1  1  1  1  1  1
CENTRE ASSIGNMENTS    1  1  1  1  1  1  1  1  1  1  1  1  1  1  1  1  1  1  1  1
CENTRE ASSIGNMENTS    1  1  1  1  1  1  1  1  1  1  1  1  1  1  1  1  1  1  1  1
CENTRE ASSIGNMENTS    1  1  1  1  1  1  1  1  1  1  1  1  1  1  1  1  1  1  1  1
CENTRE ASSIGNMENTS    1  1  1  1  1  2  2  2  2  2  2  2  2  2  2  2  2  2  2  2
CENTRE ASSIGNMENTS    2  2  2  2  2  2  2  2  2  2  2  2  2  2  2  2  2  2  2  2
CENTRE ASSIGNMENTS    2  2  2  2  2  2  2  2  2  2  2  2  2  2  2  2  2  2  2  2
CENTRE ASSIGNMENTS    2  2  2  2  2  2  2  2  2  2  2  2  2  2  2  2  2  2  2  2
CENTRE ASSIGNMENTS    3  3  3  3  3  3  3  3  3  3  3  3  3  3  3  3  3  3  3  3
CENTRE ASSIGNMENTS    3  3  3  3  3  3  3  3  3  3  3  3  3  3  3  3  3  3  3  3
CENTRE ASSIGNMENTS    3  3  3  3  3  3  3  3  3  3  3  3  3  3  3  3  3  3  3  3
CENTRE ASSIGNMENTS    3  3  3  3  3  3  3  3  3  3  3  3  3  3  3
TYPE ASSIGNMENTS      1  1  1  1  1  1  1  1  1  1  1  1  1  1  1  1  1  1  1  1
TYPE ASSIGNMENTS      1  1  1  1  1  1  1  1  1  1  1  1  1  1  1  1  1  1  1  1
TYPE ASSIGNMENTS      1  1  1  1  1  1  1  1  1  1  1  1  1  1  1  1  1  1  1  1
TYPE ASSIGNMENTS      1  1  1  1  1  1  1  1  1  1  1  1  1  1  1  1  1  1  1  1
TYPE ASSIGNMENTS      1  1  1  1  1  1  1  1  1  1  1  1  1  1  1  1  1  1  1  1
TYPE ASSIGNMENTS      1  1  1  1  1  1  1  1  1  1  1  1  1  1  1  1  2  2  2  2
TYPE ASSIGNMENTS      2  2  2  2  2  2  2  2  2  2  2  3  3  3  3  3  3  3  3  3
TYPE ASSIGNMENTS      3  3  3  3  3  3  4  4  4  4  4  4  4  4  4  4  4  4  4  4
TYPE ASSIGNMENTS      4  2  2  2  2  2  2  2  2  2  2  2  2  2  2  2  3  3  3  3
TYPE ASSIGNMENTS      3  3  3  3  3  3  3  3  3  3  3  4  4  4  4  4  4  4  4  4
TYPE ASSIGNMENTS      4  4  4  4  4  4  2  2  2  2  2  2  2  2  2  2  2  2  2  2
TYPE ASSIGNMENTS      2  3  3  3  3  3  3  3  3  3  3  3  3  3  3  3  4  4  4  4
TYPE ASSIGNMENTS      4  4  4  4  4  4  4  4  4  4  4  2  2  2  2  2  2  2  2  2
TYPE ASSIGNMENTS      2  2  2  2  2  2  3  3  3  3  3  3  3  3  3  3  3  3  3  3
TYPE ASSIGNMENTS      3  4  4  4  4  4  4  4  4  4  4  4  4  4  4  4  2  2  2  2
TYPE ASSIGNMENTS      2  2  2  2  2  2  2  2  2  2  2  3  3  3  3  3  3  3  3  3
TYPE ASSIGNMENTS      3  3  3  3  3  3  4  4  4  4  4  4  4  4  4  4  4  4  4  4
TYPE ASSIGNMENTS      4  2  3  4  2  3  4  5  5  5  5  5  5  5  6  6  6  6  6  6
TYPE ASSIGNMENTS      6  7  7  7  7  7  7  7  8  8  8  8  8  8  8  9  9  9  9  9
TYPE ASSIGNMENTS      9  9 10 10 10 10 10 10 10  5  5  5  5  5  5  5  6  6  6  6
TYPE ASSIGNMENTS      6  6  6  7  7  7  7  7  7  7  8  8  8  8  8  8  8  9  9  9
TYPE ASSIGNMENTS      9  9  9  9 10 10 10 10 10 10 10  5  5  5  5  5  5  5  6  6
TYPE ASSIGNMENTS      6  6  6  6  6  7  7  7  7  7  7  7  8  8  8  8  8  8  8  9
TYPE ASSIGNMENTS      9  9  9  9  9  9 10 10 10 10 10 10 10  5  6  7  8  9 10  5
TYPE ASSIGNMENTS      6  7  8  9 10 11 12 13 17 14 15 18 19 16 20 11 12 13 17 14
TYPE ASSIGNMENTS     15 18 19 16 20 11 12 13 17 14 15 18 19 16 20 21 22 23 24 25
TYPE ASSIGNMENTS     26 27 28 29 30 31 32 33 34 35 21 22 23 24 25 26 27 28 29 30
TYPE ASSIGNMENTS     31 32 33 34 35  1  1  1  1  1  1  1  1  1  1  1  1  1  1  1
TYPE ASSIGNMENTS      1  1  1  1  2  2  2  3  3  3  4  4  4  2  3  4  2  3  4  2
TYPE ASSIGNMENTS      3  4  5  6  7  8  9 10  5  6  7  8  9 10  5  6  7  8  9 10
TYPE ASSIGNMENTS     11 12 13 17 14 15 18 19 16 20 11 12 13 17 14 15 18 19 16 20
TYPE ASSIGNMENTS      1  1  1  1  1  1  1  1  1  1  1  1  1  1  1  1  1  1  1  2
TYPE ASSIGNMENTS      2  2  3  3  3  4  4  4  2  3  4  2  3  4  2  3  4  5  6  7
TYPE ASSIGNMENTS      8  9 10  5  6  7  8  9 10  5  6  7  8  9 10 11 12 13 17 14
TYPE ASSIGNMENTS     15 18 19 16 20 11 12 13 17 14 15 18 19 16 20
EXPONENTS  0.3014643D+07 0.4514329D+06 0.1027338D+06 0.2909817D+05 0.9492330D+04
EXPONENTS  0.3426346D+04 0.1335896D+04 0.5535026D+03 0.2406925D+03 0.1087293D+03
EXPONENTS  0.5026457D+02 0.2258004D+02 0.1071432D+02 0.5093546D+01 0.2244183D+01
EXPONENTS  0.1059570D+01 0.4688490D+00 0.1061430D+00 0.5526200D-01 0.3014643D+07
EXPONENTS  0.4514329D+06 0.1027338D+06 0.2909817D+05 0.9492330D+04 0.3426346D+04
EXPONENTS  0.1335896D+04 0.5535026D+03 0.2406925D+03 0.1087293D+03 0.5026457D+02
EXPONENTS  0.2258004D+02 0.1071432D+02 0.5093546D+01 0.2244183D+01 0.1059570D+01
EXPONENTS  0.4688490D+00 0.1061430D+00 0.5526200D-01 0.3014643D+07 0.4514329D+06
EXPONENTS  0.1027338D+06 0.2909817D+05 0.9492330D+04 0.3426346D+04 0.1335896D+04
EXPONENTS  0.5535026D+03 0.2406925D+03 0.1087293D+03 0.5026457D+02 0.2258004D+02
EXPONENTS  0.1071432D+02 0.5093546D+01 0.2244183D+01 0.1059570D+01 0.4688490D+00
EXPONENTS  0.1061430D+00 0.5526200D-01 0.3014643D+07 0.4514329D+06 0.1027338D+06
EXPONENTS  0.2909817D+05 0.9492330D+04 0.3426346D+04 0.1335896D+04 0.5535026D+03
EXPONENTS  0.2406925D+03 0.1087293D+03 0.5026457D+02 0.2258004D+02 0.1071432D+02
EXPONENTS  0.5093546D+01 0.2244183D+01 0.1059570D+01 0.4688490D+00 0.1061430D+00
EXPONENTS  0.5526200D-01 0.3014643D+07 0.4514329D+06 0.1027338D+06 0.2909817D+05
EXPONENTS  0.9492330D+04 0.3426346D+04 0.1335896D+04 0.5535026D+03 0.2406925D+03
EXPONENTS  0.1087293D+03 0.5026457D+02 0.2258004D+02 0.1071432D+02 0.5093546D+01
EXPONENTS  0.2244183D+01 0.1059570D+01 0.4688490D+00 0.1061430D+00 0.5526200D-01
EXPONENTS  0.3014643D+07 0.4514329D+06 0.1027338D+06 0.2909817D+05 0.9492330D+04
EXPONENTS  0.3426346D+04 0.1335896D+04 0.5535026D+03 0.2406925D+03 0.1087293D+03
EXPONENTS  0.5026457D+02 0.2258004D+02 0.1071432D+02 0.5093546D+01 0.2244183D+01
EXPONENTS  0.1059570D+01 0.4688490D+00 0.1061430D+00 0.5526200D-01 0.2546500D-01
EXPONENTS  0.1173000D-01 0.1191203D+05 0.2819947D+04 0.9159479D+03 0.3503842D+03
EXPONENTS  0.1484825D+03 0.6753944D+02 0.3230332D+02 0.1592786D+02 0.8038035D+01
EXPONENTS  0.4093916D+01 0.2022390D+01 0.9761020D+00 0.4595950D+00 0.1771520D+00
EXPONENTS  0.7351700D-01 0.1191203D+05 0.2819947D+04 0.9159479D+03 0.3503842D+03
EXPONENTS  0.1484825D+03 0.6753944D+02 0.3230332D+02 0.1592786D+02 0.8038035D+01
EXPONENTS  0.4093916D+01 0.2022390D+01 0.9761020D+00 0.4595950D+00 0.1771520D+00
EXPONENTS  0.7351700D-01 0.1191203D+05 0.2819947D+04 0.9159479D+03 0.3503842D+03
EXPONENTS  0.1484825D+03 0.6753944D+02 0.3230332D+02 0.1592786D+02 0.8038035D+01
EXPONENTS  0.4093916D+01 0.2022390D+01 0.9761020D+00 0.4595950D+00 0.1771520D+00
EXPONENTS  0.7351700D-01 0.1191203D+05 0.2819947D+04 0.9159479D+03 0.3503842D+03
EXPONENTS  0.1484825D+03 0.6753944D+02 0.3230332D+02 0.1592786D+02 0.8038035D+01
EXPONENTS  0.4093916D+01 0.2022390D+01 0.9761020D+00 0.4595950D+00 0.1771520D+00
EXPONENTS  0.7351700D-01 0.1191203D+05 0.2819947D+04 0.9159479D+03 0.3503842D+03
EXPONENTS  0.1484825D+03 0.6753944D+02 0.3230332D+02 0.1592786D+02 0.8038035D+01
EXPONENTS  0.4093916D+01 0.2022390D+01 0.9761020D+00 0.4595950D+00 0.1771520D+00
EXPONENTS  0.7351700D-01 0.1191203D+05 0.2819947D+04 0.9159479D+03 0.3503842D+03
EXPONENTS  0.1484825D+03 0.6753944D+02 0.3230332D+02 0.1592786D+02 0.8038035D+01
EXPONENTS  0.4093916D+01 0.2022390D+01 0.9761020D+00 0.4595950D+00 0.1771520D+00
EXPONENTS  0.7351700D-01 0.1191203D+05 0.2819947D+04 0.9159479D+03 0.3503842D+03
EXPONENTS  0.1484825D+03 0.6753944D+02 0.3230332D+02 0.1592786D+02 0.8038035D+01
EXPONENTS  0.4093916D+01 0.2022390D+01 0.9761020D+00 0.4595950D+00 0.1771520D+00
EXPONENTS  0.7351700D-01 0.1191203D+05 0.2819947D+04 0.9159479D+03 0.3503842D+03
EXPONENTS  0.1484825D+03 0.6753944D+02 0.3230332D+02 0.1592786D+02 0.8038035D+01
EXPONENTS  0.4093916D+01 0.2022390D+01 0.9761020D+00 0.4595950D+00 0.1771520D+00
EXPONENTS  0.7351700D-01 0.1191203D+05 0.2819947D+04 0.9159479D+03 0.3503842D+03
EXPONENTS  0.1484825D+03 0.6753944D+02 0.3230332D+02 0.1592786D+02 0.8038035D+01
EXPONENTS  0.4093916D+01 0.2022390D+01 0.9761020D+00 0.4595950D+00 0.1771520D+00
EXPONENTS  0.7351700D-01 0.1191203D+05 0.2819947D+04 0.9159479D+03 0.3503842D+03
EXPONENTS  0.1484825D+03 0.6753944D+02 0.3230332D+02 0.1592786D+02 0.8038035D+01
EXPONENTS  0.4093916D+01 0.2022390D+01 0.9761020D+00 0.4595950D+00 0.1771520D+00
EXPONENTS  0.7351700D-01 0.1191203D+05 0.2819947D+04 0.9159479D+03 0.3503842D+03
EXPONENTS  0.1484825D+03 0.6753944D+02 0.3230332D+02 0.1592786D+02 0.8038035D+01
EXPONENTS  0.4093916D+01 0.2022390D+01 0.9761020D+00 0.4595950D+00 0.1771520D+00
EXPONENTS  0.7351700D-01 0.1191203D+05 0.2819947D+04 0.9159479D+03 0.3503842D+03
EXPONENTS  0.1484825D+03 0.6753944D+02 0.3230332D+02 0.1592786D+02 0.8038035D+01
EXPONENTS  0.4093916D+01 0.2022390D+01 0.9761020D+00 0.4595950D+00 0.1771520D+00
EXPONENTS  0.7351700D-01 0.1191203D+05 0.2819947D+04 0.9159479D+03 0.3503842D+03
EXPONENTS  0.1484825D+03 0.6753944D+02 0.3230332D+02 0.1592786D+02 0.8038035D+01
EXPONENTS  0.4093916D+01 0.2022390D+01 0.9761020D+00 0.4595950D+00 0.1771520D+00
EXPONENTS  0.7351700D-01 0.1191203D+05 0.2819947D+04 0.9159479D+03 0.3503842D+03
EXPONENTS  0.1484825D+03 0.6753944D+02 0.3230332D+02 0.1592786D+02 0.8038035D+01
EXPONENTS  0.4093916D+01 0.2022390D+01 0.9761020D+00 0.4595950D+00 0.1771520D+00
EXPONENTS  0.7351700D-01 0.1191203D+05 0.2819947D+04 0.9159479D+03 0.3503842D+03
EXPONENTS  0.1484825D+03 0.6753944D+02 0.3230332D+02 0.1592786D+02 0.8038035D+01
EXPONENTS  0.4093916D+01 0.2022390D+01 0.9761020D+00 0.4595950D+00 0.1771520D+00
EXPONENTS  0.7351700D-01 0.2940100D-01 0.2940100D-01 0.2940100D-01 0.1176000D-01
EXPONENTS  0.1176000D-01 0.1176000D-01 0.6401300D+02 0.1881790D+02 0.6728700D+01
EXPONENTS  0.2664130D+01 0.1078680D+01 0.4232090D+00 0.1559990D+00 0.6401300D+02
EXPONENTS  0.1881790D+02 0.6728700D+01 0.2664130D+01 0.1078680D+01 0.4232090D+00
EXPONENTS  0.1559990D+00 0.6401300D+02 0.1881790D+02 0.6728700D+01 0.2664130D+01
EXPONENTS  0.1078680D+01 0.4232090D+00 0.1559990D+00 0.6401300D+02 0.1881790D+02
EXPONENTS  0.6728700D+01 0.2664130D+01 0.1078680D+01 0.4232090D+00 0.1559990D+00
EXPONENTS  0.6401300D+02 0.1881790D+02 0.6728700D+01 0.2664130D+01 0.1078680D+01
EXPONENTS  0.4232090D+00 0.1559990D+00 0.6401300D+02 0.1881790D+02 0.6728700D+01
EXPONENTS  0.2664130D+01 0.1078680D+01 0.4232090D+00 0.1559990D+00 0.6401300D+02
EXPONENTS  0.1881790D+02 0.6728700D+01 0.2664130D+01 0.1078680D+01 0.4232090D+00
EXPONENTS  0.1559990D+00 0.6401300D+02 0.1881790D+02 0.6728700D+01 0.2664130D+01
EXPONENTS  0.1078680D+01 0.4232090D+00 0.1559990D+00 0.6401300D+02 0.1881790D+02
EXPONENTS  0.6728700D+01 0.2664130D+01 0.1078680D+01 0.4232090D+00 0.1559990D+00
EXPONENTS  0.6401300D+02 0.1881790D+02 0.6728700D+01 0.2664130D+01 0.1078680D+01
EXPONENTS  0.4232090D+00 0.1559990D+00 0.6401300D+02 0.1881790D+02 0.6728700D+01
EXPONENTS  0.2664130D+01 0.1078680D+01 0.4232090D+00 0.1559990D+00 0.6401300D+02
EXPONENTS  0.1881790D+02 0.6728700D+01 0.2664130D+01 0.1078680D+01 0.4232090D+00
EXPONENTS  0.1559990D+00 0.6401300D+02 0.1881790D+02 0.6728700D+01 0.2664130D+01
EXPONENTS  0.1078680D+01 0.4232090D+00 0.1559990D+00 0.6401300D+02 0.1881790D+02
EXPONENTS  0.6728700D+01 0.2664130D+01 0.1078680D+01 0.4232090D+00 0.1559990D+00
EXPONENTS  0.6401300D+02 0.1881790D+02 0.6728700D+01 0.2664130D+01 0.1078680D+01
EXPONENTS  0.4232090D+00 0.1559990D+00 0.6401300D+02 0.1881790D+02 0.6728700D+01
EXPONENTS  0.2664130D+01 0.1078680D+01 0.4232090D+00 0.1559990D+00 0.6401300D+02
EXPONENTS  0.1881790D+02 0.6728700D+01 0.2664130D+01 0.1078680D+01 0.4232090D+00
EXPONENTS  0.1559990D+00 0.6401300D+02 0.1881790D+02 0.6728700D+01 0.2664130D+01
EXPONENTS  0.1078680D+01 0.4232090D+00 0.1559990D+00 0.5188400D-01 0.5188400D-01
EXPONENTS  0.5188400D-01 0.5188400D-01 0.5188400D-01 0.5188400D-01 0.1726000D-01
EXPONENTS  0.1726000D-01 0.1726000D-01 0.1726000D-01 0.1726000D-01 0.1726000D-01
EXPONENTS  0.1248300D+01 0.1248300D+01 0.1248300D+01 0.1248300D+01 0.1248300D+01
EXPONENTS  0.1248300D+01 0.1248300D+01 0.1248300D+01 0.1248300D+01 0.1248300D+01
EXPONENTS  0.2836000D+00 0.2836000D+00 0.2836000D+00 0.2836000D+00 0.2836000D+00
EXPONENTS  0.2836000D+00 0.2836000D+00 0.2836000D+00 0.2836000D+00 0.2836000D+00
EXPONENTS  0.8266000D-01 0.8266000D-01 0.8266000D-01 0.8266000D-01 0.8266000D-01
EXPONENTS  0.8266000D-01 0.8266000D-01 0.8266000D-01 0.8266000D-01 0.8266000D-01
EXPONENTS  0.7251000D+00 0.7251000D+00 0.7251000D+00 0.7251000D+00 0.7251000D+00
EXPONENTS  0.7251000D+00 0.7251000D+00 0.7251000D+00 0.7251000D+00 0.7251000D+00
EXPONENTS  0.7251000D+00 0.7251000D+00 0.7251000D+00 0.7251000D+00 0.7251000D+00
EXPONENTS  0.2114800D+00 0.2114800D+00 0.2114800D+00 0.2114800D+00 0.2114800D+00
EXPONENTS  0.2114800D+00 0.2114800D+00 0.2114800D+00 0.2114800D+00 0.2114800D+00
EXPONENTS  0.2114800D+00 0.2114800D+00 0.2114800D+00 0.2114800D+00 0.2114800D+00
EXPONENTS  0.1950000D+05 0.2923000D+04 0.6645000D+03 0.1875000D+03 0.6062000D+02
EXPONENTS  0.2142000D+02 0.7950000D+01 0.8815000D+00 0.1950000D+05 0.2923000D+04
EXPONENTS  0.6645000D+03 0.1875000D+03 0.6062000D+02 0.2142000D+02 0.7950000D+01
EXPONENTS  0.8815000D+00 0.2257000D+01 0.3041000D+00 0.9158000D-01 0.4388000D+02
EXPONENTS  0.9926000D+01 0.2930000D+01 0.4388000D+02 0.9926000D+01 0.2930000D+01
EXPONENTS  0.4388000D+02 0.9926000D+01 0.2930000D+01 0.9132000D+00 0.9132000D+00
EXPONENTS  0.9132000D+00 0.2672000D+00 0.2672000D+00 0.2672000D+00 0.7361000D-01
EXPONENTS  0.7361000D-01 0.7361000D-01 0.3107000D+01 0.3107000D+01 0.3107000D+01
EXPONENTS  0.3107000D+01 0.3107000D+01 0.3107000D+01 0.8550000D+00 0.8550000D+00
EXPONENTS  0.8550000D+00 0.8550000D+00 0.8550000D+00 0.8550000D+00 0.2920000D+00
EXPONENTS  0.2920000D+00 0.2920000D+00 0.2920000D+00 0.2920000D+00 0.2920000D+00
EXPONENTS  0.1917000D+01 0.1917000D+01 0.1917000D+01 0.1917000D+01 0.1917000D+01
EXPONENTS  0.1917000D+01 0.1917000D+01 0.1917000D+01 0.1917000D+01 0.1917000D+01
EXPONENTS  0.7240000D+00 0.7240000D+00 0.7240000D+00 0.7240000D+00 0.7240000D+00
EXPONENTS  0.7240000D+00 0.7240000D+00 0.7240000D+00 0.7240000D+00 0.7240000D+00
EXPONENTS  0.1950000D+05 0.2923000D+04 0.6645000D+03 0.1875000D+03 0.6062000D+02
EXPONENTS  0.2142000D+02 0.7950000D+01 0.8815000D+00 0.1950000D+05 0.2923000D+04
EXPONENTS  0.6645000D+03 0.1875000D+03 0.6062000D+02 0.2142000D+02 0.7950000D+01
EXPONENTS  0.8815000D+00 0.2257000D+01 0.3041000D+00 0.9158000D-01 0.4388000D+02
EXPONENTS  0.9926000D+01 0.2930000D+01 0.4388000D+02 0.9926000D+01 0.2930000D+01
EXPONENTS  0.4388000D+02 0.9926000D+01 0.2930000D+01 0.9132000D+00 0.9132000D+00
EXPONENTS  0.9132000D+00 0.2672000D+00 0.2672000D+00 0.2672000D+00 0.7361000D-01
EXPONENTS  0.7361000D-01 0.7361000D-01 0.3107000D+01 0.3107000D+01 0.3107000D+01
EXPONENTS  0.3107000D+01 0.3107000D+01 0.3107000D+01 0.8550000D+00 0.8550000D+00
EXPONENTS  0.8550000D+00 0.8550000D+00 0.8550000D+00 0.8550000D+00 0.2920000D+00
EXPONENTS  0.2920000D+00 0.2920000D+00 0.2920000D+00 0.2920000D+00 0.2920000D+00
EXPONENTS  0.1917000D+01 0.1917000D+01 0.1917000D+01 0.1917000D+01 0.1917000D+01
EXPONENTS  0.1917000D+01 0.1917000D+01 0.1917000D+01 0.1917000D+01 0.1917000D+01
EXPONENTS  0.7240000D+00 0.7240000D+00 0.7240000D+00 0.7240000D+00 0.7240000D+00
EXPONENTS  0.7240000D+00 0.7240000D+00 0.7240000D+00 0.7240000D+00 0.7240000D+00
MO    1     MO 0.0        OCC NO =    2.0000000  ORB. ENERGY = -183.427774
  0.40433813D+00  0.75679995D+00  0.13109370D+01  0.21458807D+01  0.33527873D+01
  0.50003788D+01  0.70186304D+01  0.89294642D+01  0.95251344D+01  0.72710776D+01
  0.29121660D+01  0.52377886D+00  0.47657108D+00  0.28086107D+00  0.26669352D-01
 -0.36868200D-03  0.87126302D-04 -0.98463665D-05  0.61003102D-05  0.55293945D-01
  0.10349656D+00  0.17933129D+00  0.29376758D+00  0.46010471D+00  0.69036771D+00
  0.98380547D+00  0.12956379D+01  0.14937809D+01  0.13589636D+01  0.75399915D+00
 -0.54432970D-01 -0.48214872D+00 -0.27643045D+00 -0.27831174D-01  0.91651026D-03
 -0.75615769D-04  0.21234986D-04 -0.11450185D-04 -0.20148433D-04 -0.37721908D-04
 -0.65358752D-04 -0.10718126D-03 -0.16814373D-03 -0.25380554D-03 -0.36618913D-03
 -0.49691468D-03 -0.60774899D-03 -0.62228217D-03 -0.40632433D-03  0.61665179D-04
  0.48989897D-03  0.45428674D-03 -0.43017088D-04 -0.22271908D-03 -0.75454095D-04
 -0.15708224D-05  0.41636589D-06 -0.21302335D-05 -0.39861917D-05 -0.69117935D-05
 -0.11323638D-04 -0.17786680D-04 -0.26809592D-04 -0.38759124D-04 -0.52500050D-04
 -0.64457506D-04 -0.65899361D-04 -0.43546011D-04  0.68511290D-05  0.54007815D-04
  0.53723013D-04 -0.73913050D-05 -0.32122595D-04 -0.22404865D-04  0.66933582D-05
  0.91004663D-05  0.10632015D-05  0.20352519D-05  0.34141299D-05  0.58420295D-05
  0.86843898D-05  0.14003072D-04  0.18643287D-04  0.27927186D-04  0.30159474D-04
  0.36794014D-04  0.17286899D-04  0.32223004D-05 -0.37084076D-04 -0.18811439D-04
 -0.66346122D-05  0.37271312D-04 -0.31204517D-05 -0.15063787D-04  0.52389275D-05
 -0.12649761D-05 -0.24566549D-05 -0.40347623D-05 -0.70971376D-05 -0.10184790D-04
 -0.17140935D-04 -0.21649748D-04 -0.34577660D-04 -0.34406561D-04 -0.46934071D-04
 -0.17367816D-04 -0.89028183D-05  0.53307477D-04  0.20276594D-04  0.76281197D-05
 -0.70135726D-04  0.39782219D-04  0.17662219D-05 -0.86440651D-05 -0.46023059D-07
  0.97957936D-08 -0.95486240D-17 -0.14011474D-16 -0.19753346D-16 -0.25967532D-16
 -0.31036660D-16 -0.32638220D-16 -0.28123980D-16 -0.18321679D-16 -0.78342534D-17
 -0.16094442D-17 -0.93828895D-19  0.26495167D-20  0.87370133D-21  0.54313496D-22
 -0.21361935D-23 -0.45763094D-15 -0.67151918D-15 -0.94670627D-15 -0.12445297D-14
 -0.14874746D-14 -0.15642316D-14 -0.13478804D-14 -0.87809170D-15 -0.37546737D-15
 -0.77134830D-16 -0.44968789D-17  0.12698173D-18  0.41873338D-19  0.26030490D-20
 -0.10238001D-21 -0.41820115D-07 -0.61366064D-07 -0.86513742D-07 -0.11373002D-06
 -0.13593128D-06 -0.14294563D-06 -0.12317461D-06 -0.80243473D-07 -0.34311685D-07
 -0.70488841D-08 -0.41094248D-09  0.11604090D-10  0.38265503D-11  0.23787686D-12
 -0.93558882D-14 -0.56993565D-18 -0.82191105D-18 -0.11615496D-17 -0.15361734D-17
 -0.18594491D-17 -0.20053058D-17 -0.17908575D-17 -0.12212127D-17 -0.54999816D-18
  0.30947458D-19  0.23207131D-18  0.13680074D-18  0.34644492D-19  0.17545062D-20
 -0.49439882D-22  0.25497327D-14  0.36770001D-14  0.51964480D-14  0.68724100D-14
  0.83186552D-14  0.89711772D-14  0.80117956D-14  0.54633641D-14  0.24605379D-14
 -0.13845027D-15 -0.10382221D-14 -0.61200823D-15 -0.15498977D-15 -0.78491702D-17
  0.22118020D-18  0.44508032D-08  0.64185568D-08  0.90708988D-08  0.11996451D-07
  0.14521011D-07  0.15660051D-07  0.13985358D-07  0.95368265D-08  0.42951052D-08
 -0.24167824D-09 -0.18123164D-08 -0.10683191D-08 -0.27054952D-09 -0.13701480D-10
  0.38609128D-12 -0.12892573D-16 -0.16499100D-16 -0.23752385D-16 -0.31213692D-16
 -0.38031025D-16 -0.40889792D-16 -0.36844294D-16 -0.25053462D-16 -0.11584220D-16
  0.12444505D-17  0.55314207D-17  0.37595235D-17  0.92351054D-18 -0.74668448D-18
 -0.58164230D-18 -0.95708205D-14 -0.12248131D-13 -0.17632618D-13 -0.23171531D-13
 -0.28232388D-13 -0.30354598D-13 -0.27351417D-13 -0.18598475D-13 -0.85995626D-14
  0.92381967D-15  0.41062584D-14  0.27908879D-14  0.68556943D-15 -0.55430234D-15
 -0.43178303D-15 -0.21366040D-06 -0.27342908D-06 -0.39363316D-06 -0.51728465D-06
 -0.63026397D-06 -0.67764049D-06 -0.61059703D-06 -0.41519507D-06 -0.19197790D-06
  0.20623486D-07  0.91668714D-07  0.62304190D-07  0.15304752D-07 -0.12374327D-07
 -0.96391876D-08  0.10226844D-16  0.16465131D-16  0.23085683D-16  0.30895250D-16
  0.37014617D-16  0.40462487D-16  0.35719498D-16  0.24997199D-16  0.10938002D-16
 -0.73051621D-18 -0.55970979D-17 -0.33509834D-17 -0.12900266D-17  0.92417906D-18
  0.53624912D-18  0.49760946D-14  0.80114698D-14  0.11232844D-13  0.15032760D-13
  0.18010272D-13  0.19687908D-13  0.17380103D-13  0.12162934D-13  0.53221243D-14
 -0.35544865D-15 -0.27233905D-14 -0.16304943D-14 -0.62769067D-15  0.44967955D-15
  0.26092375D-15  0.15763171D-06  0.25378571D-06  0.35583176D-06  0.47620472D-06
  0.57052573D-06  0.62366956D-06  0.55056339D-06  0.38529497D-06  0.16859317D-06
 -0.11259830D-07 -0.86271011D-07 -0.51650468D-07 -0.19883858D-07  0.14244857D-07
  0.82654895D-08 -0.65754191D-18 -0.88068937D-18 -0.13844683D-17 -0.16517995D-17
 -0.22192131D-17 -0.21433599D-17 -0.21885067D-17 -0.12586750D-17 -0.83065891D-18
  0.18379413D-18  0.27149570D-18  0.39571045D-18 -0.12444615D-18 -0.79708516D-19
  0.22322952D-19  0.95231321D-15  0.12754960D-14  0.20051155D-14  0.23922892D-14
  0.32140703D-14  0.31042126D-14  0.31695985D-14  0.18229299D-14  0.12030373D-14
 -0.26618771D-15 -0.39320526D-15 -0.57310458D-15  0.18023446D-15  0.11544127D-15
 -0.32330170D-16  0.22224975D-07  0.29767379D-07  0.46795153D-07  0.55830970D-07
  0.75009601D-07  0.72445755D-07  0.73971722D-07  0.42543328D-07  0.28076345D-07
 -0.62122579D-08 -0.91765788D-08 -0.13375048D-07  0.42062910D-08  0.26941549D-08
 -0.75451776D-09  0.24841631D-20 -0.12243716D-17 -0.23350228D-10 -0.27394846D-21
  0.17048188D-18  0.22773636D-11  0.75084160D-05  0.59848252D-05  0.36550862D-05
  0.17248803D-05  0.53763587D-06  0.11020355D-06  0.12788057D-07 -0.15016678D-04
 -0.11969527D-04 -0.73100972D-05 -0.34497251D-05 -0.10752607D-05 -0.22040483D-06
 -0.25575851D-07  0.75082617D-05  0.59847022D-05  0.36550111D-05  0.17248448D-05
  0.53762482D-06  0.11020128D-06  0.12787794D-07 -0.20416775D-17 -0.16273849D-17
 -0.99388571D-18 -0.46902693D-18 -0.14619316D-18 -0.29966388D-19 -0.34773098D-20
 -0.74358166D-18 -0.59269575D-18 -0.36197449D-18 -0.17082023D-18 -0.53243743D-19
 -0.10913798D-19 -0.12664408D-20  0.12081603D-15  0.96300314D-16  0.58813071D-16
  0.27754614D-16  0.86509633D-17  0.17732575D-17  0.20576940D-18  0.18346712D-04
  0.14575186D-04  0.91716496D-05  0.42130900D-05  0.11367731D-05  0.30019949D-07
 -0.72715107D-07 -0.36693441D-04 -0.29150385D-04 -0.18343308D-04 -0.84261838D-05
 -0.22735471D-05 -0.60039925D-07  0.14543028D-06  0.18346729D-04  0.14575199D-04
  0.91716580D-05  0.42130938D-05  0.11367741D-05  0.30019976D-07 -0.72715174D-07
  0.28504350D-17  0.22644722D-17  0.14249524D-17  0.65456628D-18  0.17661462D-18
  0.46640462D-20 -0.11297375D-19  0.51074012D-18  0.40574747D-18  0.25532255D-18
  0.11728500D-18  0.31645758D-19  0.83570244D-21 -0.20242604D-20 -0.19542962D-15
 -0.15525523D-15 -0.97696630D-16 -0.44877935D-16 -0.12108934D-16 -0.31977321D-18
  0.77456306D-18 -0.71249558D-05 -0.57078954D-05 -0.37122821D-05 -0.15979041D-05
 -0.19681375D-06  0.13475919D-06  0.30987981D-08  0.14249108D-04  0.11415147D-04
  0.74241453D-05  0.31956279D-05  0.39360530D-06 -0.26950318D-06 -0.61972465D-08
 -0.71241519D-05 -0.57072514D-05 -0.37118632D-05 -0.15977238D-05 -0.19679155D-06
  0.13474398D-06  0.30984484D-08 -0.33336851D-17 -0.26706588D-17 -0.17369342D-17
 -0.74764099D-18 -0.92086898D-19  0.63052279D-19  0.14498921D-20 -0.16395020D-17
 -0.13134266D-17 -0.85422201D-18 -0.36768888D-18 -0.45288218D-19  0.31009030D-19
  0.71305506D-21  0.86356149D-16  0.69181042D-16  0.44993737D-16  0.19366975D-16
  0.23854292D-17 -0.16333132D-17 -0.37558165D-19 -0.28682654D-07  0.57364990D-07
 -0.28682336D-07  0.22819161D-21  0.16337782D-21  0.73280968D-21  0.11380641D-08
 -0.22761238D-08  0.11380597D-08 -0.14516655D-22 -0.80671900D-23 -0.40836022D-21
 -0.96183695D-19  0.59272032D-16  0.86573020D-08  0.38430556D-19 -0.84856908D-16
  0.86574378D-08  0.25012053D-18 -0.92959187D-16 -0.34629344D-07 -0.46494105D-19
 -0.10902115D-20 -0.14932702D-16 -0.10299915D-08  0.64925689D-20  0.21694712D-16
 -0.10300005D-08 -0.32219345D-20  0.23103394D-16  0.41199749D-08  0.12226075D-21
  0.12257005D-21 -0.39290317D-17  0.50513065D-10 -0.54109637D-21  0.58293561D-17
  0.50513204D-10  0.17338621D-21  0.59577389D-17 -0.20205240D-09 -0.42572544D-23
 -0.16980551D-06 -0.45280672D-06 -0.16979952D-06 -0.96949823D-20 -0.82632836D-20
  0.13046043D-19  0.20238981D-18  0.53969894D-20 -0.14215812D-18  0.13584381D-05
 -0.33960504D-06  0.13584022D-05 -0.18069508D-18  0.85988826D-20 -0.10053182D-19
  0.32613022D-08  0.86972069D-08  0.32616030D-08  0.18475257D-20  0.15562115D-21
 -0.24698362D-20  0.18662132D-18 -0.36531572D-22 -0.14070556D-18 -0.26090718D-07
  0.65229052D-08 -0.26092523D-07 -0.13774726D-18 -0.35726873D-21  0.18669316D-20
 -0.66659944D-06 -0.12425702D-05 -0.21064620D-05 -0.31898043D-05 -0.39888615D-05
 -0.34340382D-05 -0.13201696D-05  0.57205112D-08  0.43126899D-06  0.80984679D-06
  0.13790294D-05  0.21602414D-05  0.28949776D-05  0.31139388D-05  0.18696048D-05
 -0.12295307D-05 -0.86010308D-07  0.11873094D-05 -0.15756783D-05  0.10969395D-19
  0.10727828D-19  0.70883299D-20  0.20913539D-05  0.20452985D-05  0.13514152D-05
 -0.25460573D-08 -0.24899884D-08 -0.16452406D-08 -0.94230530D-20 -0.14778808D-05
  0.26196601D-08  0.11992190D-19 -0.60125160D-06 -0.18186903D-08  0.35498038D-20
  0.17442572D-06  0.29720006D-09  0.11831839D-05 -0.23663813D-05  0.11831974D-05
  0.81396109D-20  0.51042189D-19  0.98852615D-08 -0.85924279D-06  0.17184889D-05
 -0.85924608D-06 -0.53146543D-20 -0.57820184D-20 -0.71968163D-08 -0.16666501D-06
  0.33332976D-06 -0.16666475D-06 -0.84322749D-22  0.12357129D-20  0.19727905D-08
 -0.10510433D-19 -0.36594988D-05 -0.10912873D-07  0.52601725D-19  0.54892845D-05
 -0.10912832D-07 -0.21070426D-19  0.54892118D-05  0.43651450D-07  0.27151055D-20
 -0.13490629D-21 -0.18233840D-06  0.95359455D-09 -0.61489848D-21  0.27350303D-06
  0.95358211D-09  0.10196173D-20  0.27351217D-06 -0.38143658D-08  0.10999211D-20
 -0.66659944D-06 -0.12425702D-05 -0.21064620D-05 -0.31898043D-05 -0.39888615D-05
 -0.34340382D-05 -0.13201696D-05  0.57205112D-08  0.43126899D-06  0.80984679D-06
  0.13790294D-05  0.21602414D-05  0.28949776D-05  0.31139388D-05  0.18696048D-05
 -0.12295307D-05 -0.86010308D-07  0.11873094D-05 -0.15756783D-05 -0.13808423D-19
 -0.13504336D-19 -0.89228857D-20 -0.20913539D-05 -0.20452985D-05 -0.13514152D-05
 -0.25460573D-08 -0.24899884D-08 -0.16452406D-08  0.90621524D-20  0.14778808D-05
  0.26196601D-08 -0.23194875D-19  0.60125160D-06 -0.18186903D-08  0.29998711D-20
 -0.17442572D-06  0.29720006D-09  0.11831839D-05 -0.23663813D-05  0.11831974D-05
 -0.64987656D-19 -0.35199997D-19 -0.98852614D-08 -0.85924279D-06  0.17184889D-05
 -0.85924608D-06  0.21430134D-19  0.97681751D-21  0.71968163D-08 -0.16666501D-06
  0.33332976D-06 -0.16666475D-06 -0.15340550D-19  0.84841836D-21 -0.19727905D-08
  0.16343031D-19  0.36594988D-05 -0.10912873D-07 -0.60071676D-19 -0.54892845D-05
 -0.10912832D-07  0.11042582D-19 -0.54892118D-05  0.43651450D-07  0.19196534D-19
 -0.83439000D-20  0.18233840D-06  0.95359455D-09  0.32783906D-19 -0.27350303D-06
  0.95358211D-09 -0.77522061D-20 -0.27351217D-06 -0.38143658D-08 -0.12053275D-20
MO    2     MO 0.0        OCC NO =    2.0000000  ORB. ENERGY =  -26.257127
 -0.46959441D-14 -0.87894019D-14 -0.15225096D-13 -0.24922052D-13 -0.38938949D-13
 -0.58073918D-13 -0.81513699D-13 -0.10370594D-12 -0.11062400D-12 -0.84445597D-13
 -0.33821615D-13 -0.60831174D-14 -0.55348507D-14 -0.32618934D-14 -0.30973529D-15
  0.42818373D-17 -0.10118765D-17  0.11435475D-18 -0.70848416D-19  0.69624019D-14
  0.13031890D-13  0.22580709D-13  0.36990089D-13  0.57934624D-13  0.86928460D-13
  0.12387702D-12  0.16314177D-12  0.18809118D-12  0.17111550D-12  0.94940687D-13
 -0.68539912D-14 -0.60710321D-13 -0.34807064D-13 -0.35043949D-14  0.11540346D-15
 -0.95212482D-17  0.26738281D-17 -0.14417635D-17 -0.72041929D-14 -0.13487694D-13
 -0.23369413D-13 -0.38323301D-13 -0.60120795D-13 -0.90749688D-13 -0.13093311D-12
 -0.17767481D-12 -0.21730428D-12 -0.22250071D-12 -0.14528369D-12  0.22048754D-13
  0.17516631D-12  0.16243294D-12 -0.15381017D-13 -0.79634540D-13 -0.26979063D-13
 -0.56165694D-15  0.14887411D-15  0.32411637D-14  0.60650159D-14  0.10516337D-13
  0.17228987D-13  0.27062546D-13  0.40790964D-13  0.58972252D-13  0.79879158D-13
  0.98072502D-13  0.10026629D-12  0.66255530D-13 -0.10424036D-13 -0.82173231D-13
 -0.81739903D-13  0.11245917D-13  0.48874732D-13  0.34089143D-13 -0.10183987D-13
 -0.13846417D-13  0.15528017D-14  0.29724775D-14  0.49863235D-14  0.85322614D-14