 Molden2AIM, Version 4.0.0 (06/02/2016)           Time: Sun Jul  1 19:52:32 2018
GAUSSIAN             32 MOL ORBITALS    807 PRIMITIVES        3 NUCLEI
  Zn   1    (CENTRE  1)   0.00000000  0.00000000  1.11413150  CHARGE = 30.0
  Cl   2    (CENTRE  2)   0.00000000  1.90203958 -5.86823645  CHARGE = 17.0
  Cl   3    (CENTRE  3)   0.00000000 -1.90203958 -5.86823645  CHARGE = 17.0
CENTRE ASSIGNMENTS    1  1  1  1  1  1  1  1  1  1  1  1  1  1  1  1  1  1  1  1
CENTRE ASSIGNMENTS    1  1  1  1  1  1  1  1  1  1  1  1  1  1  1  1  1  1  1  1
CENTRE ASSIGNMENTS    1  1  1  1  1  1  1  1  1  1  1  1  1  1  1  1  1  1  1  1
CENTRE ASSIGNMENTS    1  1  1  1  1  1  1  1  1  1  1  1  1  1  1  1  1  1  1  1
CENTRE ASSIGNMENTS    1  1  1  1  1  1  1  1  1  1  1  1  1  1  1  1  1  1  1  1
CENTRE ASSIGNMENTS    1  1  1  1  1  1  1  1  1  1  1  1  1  1  1  1  1  1  1  1
CENTRE ASSIGNMENTS    1  1  1  1  1  1  1  1  1  1  1  1  1  1  1  1  1  1  1  1
CENTRE ASSIGNMENTS    1  1  1  1  1  1  1  1  1  1  1  1  1  1  1  1  1  1  1  1
CENTRE ASSIGNMENTS    1  1  1  1  1  1  1  1  1  1  1  1  1  1  1  1  1  1  1  1
CENTRE ASSIGNMENTS    1  1  1  1  1  1  1  1  1  1  1  1  1  1  1  1  1  1  1  1
CENTRE ASSIGNMENTS    1  1  1  1  1  1  1  1  1  1  1  1  1  1  1  1  1  1  1  1
CENTRE ASSIGNMENTS    1  1  1  1  1  1  1  1  1  1  1  1  1  1  1  1  1  1  1  1
CENTRE ASSIGNMENTS    1  1  1  1  1  1  1  1  1  1  1  1  1  1  1  1  1  1  1  1
CENTRE ASSIGNMENTS    1  1  1  1  1  1  1  1  1  1  1  1  1  1  1  1  1  1  1  1
CENTRE ASSIGNMENTS    1  1  1  1  1  1  1  1  1  1  1  1  1  1  1  1  1  1  1  1
CENTRE ASSIGNMENTS    1  1  1  1  1  1  1  1  1  1  1  1  1  1  1  1  1  1  1  1
CENTRE ASSIGNMENTS    1  1  1  1  1  1  1  1  1  1  1  1  1  1  1  1  1  1  1  1
CENTRE ASSIGNMENTS    1  1  1  1  1  1  1  1  1  1  1  1  1  1  1  1  1  1  1  1
CENTRE ASSIGNMENTS    1  1  1  1  1  1  1  1  1  1  1  1  1  1  1  1  1  1  1  1
CENTRE ASSIGNMENTS    1  1  1  1  1  1  1  1  1  1  1  1  1  1  1  1  1  1  1  1
CENTRE ASSIGNMENTS    1  1  1  1  1  1  1  1  1  1  1  1  1  1  1  1  1  1  1  1
CENTRE ASSIGNMENTS    1  1  1  1  1  1  1  1  1  1  1  1  1  1  1  1  1  1  1  1
CENTRE ASSIGNMENTS    1  1  1  1  1  1  1  1  1  1  1  1  1  1  1  1  1  1  1  1
CENTRE ASSIGNMENTS    1  1  1  1  1  1  1  1  1  1  1  1  1  1  1  1  1  1  1  1
CENTRE ASSIGNMENTS    1  1  1  1  1  1  1  1  1  1  1  1  1  1  1  1  1  1  1  1
CENTRE ASSIGNMENTS    1  1  1  1  1  1  1  1  1  1  1  1  1  1  1  1  1  1  1  1
CENTRE ASSIGNMENTS    1  1  1  1  1  1  1  1  1  1  1  1  1  1  1  1  1  1  1  1
CENTRE ASSIGNMENTS    1  1  1  1  1  2  2  2  2  2  2  2  2  2  2  2  2  2  2  2
CENTRE ASSIGNMENTS    2  2  2  2  2  2  2  2  2  2  2  2  2  2  2  2  2  2  2  2
CENTRE ASSIGNMENTS    2  2  2  2  2  2  2  2  2  2  2  2  2  2  2  2  2  2  2  2
CENTRE ASSIGNMENTS    2  2  2  2  2  2  2  2  2  2  2  2  2  2  2  2  2  2  2  2
CENTRE ASSIGNMENTS    2  2  2  2  2  2  2  2  2  2  2  2  2  2  2  2  2  2  2  2
CENTRE ASSIGNMENTS    2  2  2  2  2  2  2  2  2  2  2  2  2  2  2  2  2  2  2  2
CENTRE ASSIGNMENTS    2  2  2  2  2  2  2  2  2  2  2  2  2  2  2  2  3  3  3  3
CENTRE ASSIGNMENTS    3  3  3  3  3  3  3  3  3  3  3  3  3  3  3  3  3  3  3  3
CENTRE ASSIGNMENTS    3  3  3  3  3  3  3  3  3  3  3  3  3  3  3  3  3  3  3  3
CENTRE ASSIGNMENTS    3  3  3  3  3  3  3  3  3  3  3  3  3  3  3  3  3  3  3  3
CENTRE ASSIGNMENTS    3  3  3  3  3  3  3  3  3  3  3  3  3  3  3  3  3  3  3  3
CENTRE ASSIGNMENTS    3  3  3  3  3  3  3  3  3  3  3  3  3  3  3  3  3  3  3  3
CENTRE ASSIGNMENTS    3  3  3  3  3  3  3  3  3  3  3  3  3  3  3  3  3  3  3  3
CENTRE ASSIGNMENTS    3  3  3  3  3  3  3
TYPE ASSIGNMENTS      1  1  1  1  1  1  1  1  1  1  1  1  1  1  1  1  1  1  1  1
TYPE ASSIGNMENTS      1  1  1  1  1  1  1  1  1  1  1  1  1  1  1  1  1  1  1  1
TYPE ASSIGNMENTS      1  1  1  1  1  1  1  1  1  1  1  1  1  1  1  1  1  1  1  1
TYPE ASSIGNMENTS      1  1  1  1  1  1  1  1  1  1  1  1  1  1  1  1  1  1  1  1
TYPE ASSIGNMENTS      1  1  1  1  1  1  1  1  1  1  1  1  1  1  1  1  1  1  1  1
TYPE ASSIGNMENTS      1  1  1  1  1  1  1  1  1  1  1  1  1  1  1  1  2  2  2  2
TYPE ASSIGNMENTS      2  2  2  2  2  2  2  2  2  2  2  3  3  3  3  3  3  3  3  3
TYPE ASSIGNMENTS      3  3  3  3  3  3  4  4  4  4  4  4  4  4  4  4  4  4  4  4
TYPE ASSIGNMENTS      4  2  2  2  2  2  2  2  2  2  2  2  2  2  2  2  3  3  3  3
TYPE ASSIGNMENTS      3  3  3  3  3  3  3  3  3  3  3  4  4  4  4  4  4  4  4  4
TYPE ASSIGNMENTS      4  4  4  4  4  4  2  2  2  2  2  2  2  2  2  2  2  2  2  2
TYPE ASSIGNMENTS      2  3  3  3  3  3  3  3  3  3  3  3  3  3  3  3  4  4  4  4
TYPE ASSIGNMENTS      4  4  4  4  4  4  4  4  4  4  4  2  2  2  2  2  2  2  2  2
TYPE ASSIGNMENTS      2  2  2  2  2  2  3  3  3  3  3  3  3  3  3  3  3  3  3  3
TYPE ASSIGNMENTS      3  4  4  4  4  4  4  4  4  4  4  4  4  4  4  4  2  2  2  2
TYPE ASSIGNMENTS      2  2  2  2  2  2  2  2  2  2  2  3  3  3  3  3  3  3  3  3
TYPE ASSIGNMENTS      3  3  3  3  3  3  4  4  4  4  4  4  4  4  4  4  4  4  4  4
TYPE ASSIGNMENTS      4  2  3  4  2  3  4  5  5  5  5  5  5  5  6  6  6  6  6  6
TYPE ASSIGNMENTS      6  7  7  7  7  7  7  7  8  8  8  8  8  8  8  9  9  9  9  9
TYPE ASSIGNMENTS      9  9 10 10 10 10 10 10 10  5  5  5  5  5  5  5  6  6  6  6
TYPE ASSIGNMENTS      6  6  6  7  7  7  7  7  7  7  8  8  8  8  8  8  8  9  9  9
TYPE ASSIGNMENTS      9  9  9  9 10 10 10 10 10 10 10  5  5  5  5  5  5  5  6  6
TYPE ASSIGNMENTS      6  6  6  6  6  7  7  7  7  7  7  7  8  8  8  8  8  8  8  9
TYPE ASSIGNMENTS      9  9  9  9  9  9 10 10 10 10 10 10 10  5  6  7  8  9 10  5
TYPE ASSIGNMENTS      6  7  8  9 10 11 12 13 17 14 15 18 19 16 20 11 12 13 17 14
TYPE ASSIGNMENTS     15 18 19 16 20 11 12 13 17 14 15 18 19 16 20 21 22 23 24 25
TYPE ASSIGNMENTS     26 27 28 29 30 31 32 33 34 35 21 22 23 24 25 26 27 28 29 30
TYPE ASSIGNMENTS     31 32 33 34 35  1  1  1  1  1  1  1  1  1  1  1  1  1  1  1
TYPE ASSIGNMENTS      1  1  1  1  1  1  1  1  1  1  1  1  1  1  1  1  1  1  1  1
TYPE ASSIGNMENTS      1  1  1  1  1  1  1  2  2  2  2  2  2  2  3  3  3  3  3  3
TYPE ASSIGNMENTS      3  4  4  4  4  4  4  4  2  2  2  2  2  2  2  3  3  3  3  3
TYPE ASSIGNMENTS      3  3  4  4  4  4  4  4  4  2  3  4  2  3  4  2  3  4  5  6
TYPE ASSIGNMENTS      7  8  9 10  5  6  7  8  9 10  5  6  7  8  9 10 11 12 13 17
TYPE ASSIGNMENTS     14 15 18 19 16 20 11 12 13 17 14 15 18 19 16 20  1  1  1  1
TYPE ASSIGNMENTS      1  1  1  1  1  1  1  1  1  1  1  1  1  1  1  1  1  1  1  1
TYPE ASSIGNMENTS      1  1  1  1  1  1  1  1  1  1  1  1  1  1  1  1  1  1  2  2
TYPE ASSIGNMENTS      2  2  2  2  2  3  3  3  3  3  3  3  4  4  4  4  4  4  4  2
TYPE ASSIGNMENTS      2  2  2  2  2  2  3  3  3  3  3  3  3  4  4  4  4  4  4  4
TYPE ASSIGNMENTS      2  3  4  2  3  4  2  3  4  5  6  7  8  9 10  5  6  7  8  9
TYPE ASSIGNMENTS     10  5  6  7  8  9 10 11 12 13 17 14 15 18 19 16 20 11 12 13
TYPE ASSIGNMENTS     17 14 15 18 19 16 20
EXPONENTS  0.5820021D+07 0.8715234D+06 0.1983350D+06 0.5617631D+05 0.1832582D+05
EXPONENTS  0.6614955D+04 0.2579199D+04 0.1068849D+04 0.4651045D+03 0.2104130D+03
EXPONENTS  0.9761629D+02 0.4438020D+02 0.2142308D+02 0.1030891D+02 0.4553645D+01
EXPONENTS  0.2132821D+01 0.9296970D+00 0.1921470D+00 0.8759500D-01 0.5820021D+07
EXPONENTS  0.8715234D+06 0.1983350D+06 0.5617631D+05 0.1832582D+05 0.6614955D+04
EXPONENTS  0.2579199D+04 0.1068849D+04 0.4651045D+03 0.2104130D+03 0.9761629D+02
EXPONENTS  0.4438020D+02 0.2142308D+02 0.1030891D+02 0.4553645D+01 0.2132821D+01
EXPONENTS  0.9296970D+00 0.1921470D+00 0.8759500D-01 0.5820021D+07 0.8715234D+06
EXPONENTS  0.1983350D+06 0.5617631D+05 0.1832582D+05 0.6614955D+04 0.2579199D+04
EXPONENTS  0.1068849D+04 0.4651045D+03 0.2104130D+03 0.9761629D+02 0.4438020D+02
EXPONENTS  0.2142308D+02 0.1030891D+02 0.4553645D+01 0.2132821D+01 0.9296970D+00
EXPONENTS  0.1921470D+00 0.8759500D-01 0.5820021D+07 0.8715234D+06 0.1983350D+06
EXPONENTS  0.5617631D+05 0.1832582D+05 0.6614955D+04 0.2579199D+04 0.1068849D+04
EXPONENTS  0.4651045D+03 0.2104130D+03 0.9761629D+02 0.4438020D+02 0.2142308D+02
EXPONENTS  0.1030891D+02 0.4553645D+01 0.2132821D+01 0.9296970D+00 0.1921470D+00
EXPONENTS  0.8759500D-01 0.5820021D+07 0.8715234D+06 0.1983350D+06 0.5617631D+05
EXPONENTS  0.1832582D+05 0.6614955D+04 0.2579199D+04 0.1068849D+04 0.4651045D+03
EXPONENTS  0.2104130D+03 0.9761629D+02 0.4438020D+02 0.2142308D+02 0.1030891D+02
EXPONENTS  0.4553645D+01 0.2132821D+01 0.9296970D+00 0.1921470D+00 0.8759500D-01
EXPONENTS  0.5820021D+07 0.8715234D+06 0.1983350D+06 0.5617631D+05 0.1832582D+05
EXPONENTS  0.6614955D+04 0.2579199D+04 0.1068849D+04 0.4651045D+03 0.2104130D+03
EXPONENTS  0.9761629D+02 0.4438020D+02 0.2142308D+02 0.1030891D+02 0.4553645D+01
EXPONENTS  0.2132821D+01 0.9296970D+00 0.1921470D+00 0.8759500D-01 0.3770200D-01
EXPONENTS  0.1623000D-01 0.2441198D+05 0.5778518D+04 0.1876862D+04 0.7182361D+03
EXPONENTS  0.3048327D+03 0.1390453D+03 0.6680417D+02 0.3320699D+02 0.1692816D+02
EXPONENTS  0.8696229D+01 0.4350510D+01 0.2116523D+01 0.9953870D+00 0.3781120D+00
EXPONENTS  0.1345790D+00 0.2441198D+05 0.5778518D+04 0.1876862D+04 0.7182361D+03
EXPONENTS  0.3048327D+03 0.1390453D+03 0.6680417D+02 0.3320699D+02 0.1692816D+02
EXPONENTS  0.8696229D+01 0.4350510D+01 0.2116523D+01 0.9953870D+00 0.3781120D+00
EXPONENTS  0.1345790D+00 0.2441198D+05 0.5778518D+04 0.1876862D+04 0.7182361D+03
EXPONENTS  0.3048327D+03 0.1390453D+03 0.6680417D+02 0.3320699D+02 0.1692816D+02
EXPONENTS  0.8696229D+01 0.4350510D+01 0.2116523D+01 0.9953870D+00 0.3781120D+00
EXPONENTS  0.1345790D+00 0.2441198D+05 0.5778518D+04 0.1876862D+04 0.7182361D+03
EXPONENTS  0.3048327D+03 0.1390453D+03 0.6680417D+02 0.3320699D+02 0.1692816D+02
EXPONENTS  0.8696229D+01 0.4350510D+01 0.2116523D+01 0.9953870D+00 0.3781120D+00
EXPONENTS  0.1345790D+00 0.2441198D+05 0.5778518D+04 0.1876862D+04 0.7182361D+03
EXPONENTS  0.3048327D+03 0.1390453D+03 0.6680417D+02 0.3320699D+02 0.1692816D+02
EXPONENTS  0.8696229D+01 0.4350510D+01 0.2116523D+01 0.9953870D+00 0.3781120D+00
EXPONENTS  0.1345790D+00 0.2441198D+05 0.5778518D+04 0.1876862D+04 0.7182361D+03
EXPONENTS  0.3048327D+03 0.1390453D+03 0.6680417D+02 0.3320699D+02 0.1692816D+02
EXPONENTS  0.8696229D+01 0.4350510D+01 0.2116523D+01 0.9953870D+00 0.3781120D+00
EXPONENTS  0.1345790D+00 0.2441198D+05 0.5778518D+04 0.1876862D+04 0.7182361D+03
EXPONENTS  0.3048327D+03 0.1390453D+03 0.6680417D+02 0.3320699D+02 0.1692816D+02
EXPONENTS  0.8696229D+01 0.4350510D+01 0.2116523D+01 0.9953870D+00 0.3781120D+00
EXPONENTS  0.1345790D+00 0.2441198D+05 0.5778518D+04 0.1876862D+04 0.7182361D+03
EXPONENTS  0.3048327D+03 0.1390453D+03 0.6680417D+02 0.3320699D+02 0.1692816D+02
EXPONENTS  0.8696229D+01 0.4350510D+01 0.2116523D+01 0.9953870D+00 0.3781120D+00
EXPONENTS  0.1345790D+00 0.2441198D+05 0.5778518D+04 0.1876862D+04 0.7182361D+03
EXPONENTS  0.3048327D+03 0.1390453D+03 0.6680417D+02 0.3320699D+02 0.1692816D+02
EXPONENTS  0.8696229D+01 0.4350510D+01 0.2116523D+01 0.9953870D+00 0.3781120D+00
EXPONENTS  0.1345790D+00 0.2441198D+05 0.5778518D+04 0.1876862D+04 0.7182361D+03
EXPONENTS  0.3048327D+03 0.1390453D+03 0.6680417D+02 0.3320699D+02 0.1692816D+02
EXPONENTS  0.8696229D+01 0.4350510D+01 0.2116523D+01 0.9953870D+00 0.3781120D+00
EXPONENTS  0.1345790D+00 0.2441198D+05 0.5778518D+04 0.1876862D+04 0.7182361D+03
EXPONENTS  0.3048327D+03 0.1390453D+03 0.6680417D+02 0.3320699D+02 0.1692816D+02
EXPONENTS  0.8696229D+01 0.4350510D+01 0.2116523D+01 0.9953870D+00 0.3781120D+00
EXPONENTS  0.1345790D+00 0.2441198D+05 0.5778518D+04 0.1876862D+04 0.7182361D+03
EXPONENTS  0.3048327D+03 0.1390453D+03 0.6680417D+02 0.3320699D+02 0.1692816D+02
EXPONENTS  0.8696229D+01 0.4350510D+01 0.2116523D+01 0.9953870D+00 0.3781120D+00
EXPONENTS  0.1345790D+00 0.2441198D+05 0.5778518D+04 0.1876862D+04 0.7182361D+03
EXPONENTS  0.3048327D+03 0.1390453D+03 0.6680417D+02 0.3320699D+02 0.1692816D+02
EXPONENTS  0.8696229D+01 0.4350510D+01 0.2116523D+01 0.9953870D+00 0.3781120D+00
EXPONENTS  0.1345790D+00 0.2441198D+05 0.5778518D+04 0.1876862D+04 0.7182361D+03
EXPONENTS  0.3048327D+03 0.1390453D+03 0.6680417D+02 0.3320699D+02 0.1692816D+02
EXPONENTS  0.8696229D+01 0.4350510D+01 0.2116523D+01 0.9953870D+00 0.3781120D+00
EXPONENTS  0.1345790D+00 0.2441198D+05 0.5778518D+04 0.1876862D+04 0.7182361D+03
EXPONENTS  0.3048327D+03 0.1390453D+03 0.6680417D+02 0.3320699D+02 0.1692816D+02
EXPONENTS  0.8696229D+01 0.4350510D+01 0.2116523D+01 0.9953870D+00 0.3781120D+00
EXPONENTS  0.1345790D+00 0.4628200D-01 0.4628200D-01 0.4628200D-01 0.1592000D-01
EXPONENTS  0.1592000D-01 0.1592000D-01 0.2056177D+03 0.6144981D+02 0.2305689D+02
EXPONENTS  0.9577739D+01 0.4133734D+01 0.1747518D+01 0.6995600D+00 0.2056177D+03
EXPONENTS  0.6144981D+02 0.2305689D+02 0.9577739D+01 0.4133734D+01 0.1747518D+01
EXPONENTS  0.6995600D+00 0.2056177D+03 0.6144981D+02 0.2305689D+02 0.9577739D+01
EXPONENTS  0.4133734D+01 0.1747518D+01 0.6995600D+00 0.2056177D+03 0.6144981D+02
EXPONENTS  0.2305689D+02 0.9577739D+01 0.4133734D+01 0.1747518D+01 0.6995600D+00
EXPONENTS  0.2056177D+03 0.6144981D+02 0.2305689D+02 0.9577739D+01 0.4133734D+01
EXPONENTS  0.1747518D+01 0.6995600D+00 0.2056177D+03 0.6144981D+02 0.2305689D+02
EXPONENTS  0.9577739D+01 0.4133734D+01 0.1747518D+01 0.6995600D+00 0.2056177D+03
EXPONENTS  0.6144981D+02 0.2305689D+02 0.9577739D+01 0.4133734D+01 0.1747518D+01
EXPONENTS  0.6995600D+00 0.2056177D+03 0.6144981D+02 0.2305689D+02 0.9577739D+01
EXPONENTS  0.4133734D+01 0.1747518D+01 0.6995600D+00 0.2056177D+03 0.6144981D+02
EXPONENTS  0.2305689D+02 0.9577739D+01 0.4133734D+01 0.1747518D+01 0.6995600D+00
EXPONENTS  0.2056177D+03 0.6144981D+02 0.2305689D+02 0.9577739D+01 0.4133734D+01
EXPONENTS  0.1747518D+01 0.6995600D+00 0.2056177D+03 0.6144981D+02 0.2305689D+02
EXPONENTS  0.9577739D+01 0.4133734D+01 0.1747518D+01 0.6995600D+00 0.2056177D+03
EXPONENTS  0.6144981D+02 0.2305689D+02 0.9577739D+01 0.4133734D+01 0.1747518D+01
EXPONENTS  0.6995600D+00 0.2056177D+03 0.6144981D+02 0.2305689D+02 0.9577739D+01
EXPONENTS  0.4133734D+01 0.1747518D+01 0.6995600D+00 0.2056177D+03 0.6144981D+02
EXPONENTS  0.2305689D+02 0.9577739D+01 0.4133734D+01 0.1747518D+01 0.6995600D+00
EXPONENTS  0.2056177D+03 0.6144981D+02 0.2305689D+02 0.9577739D+01 0.4133734D+01
EXPONENTS  0.1747518D+01 0.6995600D+00 0.2056177D+03 0.6144981D+02 0.2305689D+02
EXPONENTS  0.9577739D+01 0.4133734D+01 0.1747518D+01 0.6995600D+00 0.2056177D+03
EXPONENTS  0.6144981D+02 0.2305689D+02 0.9577739D+01 0.4133734D+01 0.1747518D+01
EXPONENTS  0.6995600D+00 0.2056177D+03 0.6144981D+02 0.2305689D+02 0.9577739D+01
EXPONENTS  0.4133734D+01 0.1747518D+01 0.6995600D+00 0.2516080D+00 0.2516080D+00
EXPONENTS  0.2516080D+00 0.2516080D+00 0.2516080D+00 0.2516080D+00 0.9049000D-01
EXPONENTS  0.9049000D-01 0.9049000D-01 0.9049000D-01 0.9049000D-01 0.9049000D-01
EXPONENTS  0.5792200D+01 0.5792200D+01 0.5792200D+01 0.5792200D+01 0.5792200D+01
EXPONENTS  0.5792200D+01 0.5792200D+01 0.5792200D+01 0.5792200D+01 0.5792200D+01
EXPONENTS  0.1485100D+01 0.1485100D+01 0.1485100D+01 0.1485100D+01 0.1485100D+01
EXPONENTS  0.1485100D+01 0.1485100D+01 0.1485100D+01 0.1485100D+01 0.1485100D+01
EXPONENTS  0.5486100D+00 0.5486100D+00 0.5486100D+00 0.5486100D+00 0.5486100D+00
EXPONENTS  0.5486100D+00 0.5486100D+00 0.5486100D+00 0.5486100D+00 0.5486100D+00
EXPONENTS  0.4114400D+01 0.4114400D+01 0.4114400D+01 0.4114400D+01 0.4114400D+01
EXPONENTS  0.4114400D+01 0.4114400D+01 0.4114400D+01 0.4114400D+01 0.4114400D+01
EXPONENTS  0.4114400D+01 0.4114400D+01 0.4114400D+01 0.4114400D+01 0.4114400D+01
EXPONENTS  0.1829330D+01 0.1829330D+01 0.1829330D+01 0.1829330D+01 0.1829330D+01
EXPONENTS  0.1829330D+01 0.1829330D+01 0.1829330D+01 0.1829330D+01 0.1829330D+01
EXPONENTS  0.1829330D+01 0.1829330D+01 0.1829330D+01 0.1829330D+01 0.1829330D+01
EXPONENTS  0.4561000D+06 0.6833000D+05 0.1555000D+05 0.4405000D+04 0.1439000D+04
EXPONENTS  0.5204000D+03 0.2031000D+03 0.8396000D+02 0.3620000D+02 0.1583000D+02
EXPONENTS  0.6334000D+01 0.2694000D+01 0.4313000D+00 0.4561000D+06 0.6833000D+05
EXPONENTS  0.1555000D+05 0.4405000D+04 0.1439000D+04 0.5204000D+03 0.2031000D+03
EXPONENTS  0.8396000D+02 0.3620000D+02 0.1583000D+02 0.6334000D+01 0.2694000D+01
EXPONENTS  0.4313000D+00 0.4561000D+06 0.6833000D+05 0.1555000D+05 0.4405000D+04
EXPONENTS  0.1439000D+04 0.5204000D+03 0.2031000D+03 0.8396000D+02 0.3620000D+02
EXPONENTS  0.1583000D+02 0.6334000D+01 0.2694000D+01 0.4313000D+00 0.9768000D+00
EXPONENTS  0.1625000D+00 0.5910000D-01 0.6633000D+03 0.1568000D+03 0.4998000D+02
EXPONENTS  0.1842000D+02 0.7240000D+01 0.2922000D+01 0.3818000D+00 0.6633000D+03
EXPONENTS  0.1568000D+03 0.4998000D+02 0.1842000D+02 0.7240000D+01 0.2922000D+01
EXPONENTS  0.3818000D+00 0.6633000D+03 0.1568000D+03 0.4998000D+02 0.1842000D+02
EXPONENTS  0.7240000D+01 0.2922000D+01 0.3818000D+00 0.6633000D+03 0.1568000D+03
EXPONENTS  0.4998000D+02 0.1842000D+02 0.7240000D+01 0.2922000D+01 0.3818000D+00
EXPONENTS  0.6633000D+03 0.1568000D+03 0.4998000D+02 0.1842000D+02 0.7240000D+01
EXPONENTS  0.2922000D+01 0.3818000D+00 0.6633000D+03 0.1568000D+03 0.4998000D+02
EXPONENTS  0.1842000D+02 0.7240000D+01 0.2922000D+01 0.3818000D+00 0.1022000D+01
EXPONENTS  0.1022000D+01 0.1022000D+01 0.1301000D+00 0.1301000D+00 0.1301000D+00
EXPONENTS  0.4190000D-01 0.4190000D-01 0.4190000D-01 0.1046000D+01 0.1046000D+01
EXPONENTS  0.1046000D+01 0.1046000D+01 0.1046000D+01 0.1046000D+01 0.3440000D+00
EXPONENTS  0.3440000D+00 0.3440000D+00 0.3440000D+00 0.3440000D+00 0.3440000D+00
EXPONENTS  0.1350000D+00 0.1350000D+00 0.1350000D+00 0.1350000D+00 0.1350000D+00
EXPONENTS  0.1350000D+00 0.7060000D+00 0.7060000D+00 0.7060000D+00 0.7060000D+00
EXPONENTS  0.7060000D+00 0.7060000D+00 0.7060000D+00 0.7060000D+00 0.7060000D+00
EXPONENTS  0.7060000D+00 0.3120000D+00 0.3120000D+00 0.3120000D+00 0.3120000D+00
EXPONENTS  0.3120000D+00 0.3120000D+00 0.3120000D+00 0.3120000D+00 0.3120000D+00
EXPONENTS  0.3120000D+00 0.4561000D+06 0.6833000D+05 0.1555000D+05 0.4405000D+04
EXPONENTS  0.1439000D+04 0.5204000D+03 0.2031000D+03 0.8396000D+02 0.3620000D+02
EXPONENTS  0.1583000D+02 0.6334000D+01 0.2694000D+01 0.4313000D+00 0.4561000D+06
EXPONENTS  0.6833000D+05 0.1555000D+05 0.4405000D+04 0.1439000D+04 0.5204000D+03
EXPONENTS  0.2031000D+03 0.8396000D+02 0.3620000D+02 0.1583000D+02 0.6334000D+01
EXPONENTS  0.2694000D+01 0.4313000D+00 0.4561000D+06 0.6833000D+05 0.1555000D+05
EXPONENTS  0.4405000D+04 0.1439000D+04 0.5204000D+03 0.2031000D+03 0.8396000D+02
EXPONENTS  0.3620000D+02 0.1583000D+02 0.6334000D+01 0.2694000D+01 0.4313000D+00
EXPONENTS  0.9768000D+00 0.1625000D+00 0.5910000D-01 0.6633000D+03 0.1568000D+03
EXPONENTS  0.4998000D+02 0.1842000D+02 0.7240000D+01 0.2922000D+01 0.3818000D+00
EXPONENTS  0.6633000D+03 0.1568000D+03 0.4998000D+02 0.1842000D+02 0.7240000D+01
EXPONENTS  0.2922000D+01 0.3818000D+00 0.6633000D+03 0.1568000D+03 0.4998000D+02
EXPONENTS  0.1842000D+02 0.7240000D+01 0.2922000D+01 0.3818000D+00 0.6633000D+03
EXPONENTS  0.1568000D+03 0.4998000D+02 0.1842000D+02 0.7240000D+01 0.2922000D+01
EXPONENTS  0.3818000D+00 0.6633000D+03 0.1568000D+03 0.4998000D+02 0.1842000D+02
EXPONENTS  0.7240000D+01 0.2922000D+01 0.3818000D+00 0.6633000D+03 0.1568000D+03
EXPONENTS  0.4998000D+02 0.1842000D+02 0.7240000D+01 0.2922000D+01 0.3818000D+00
EXPONENTS  0.1022000D+01 0.1022000D+01 0.1022000D+01 0.1301000D+00 0.1301000D+00
EXPONENTS  0.1301000D+00 0.4190000D-01 0.4190000D-01 0.4190000D-01 0.1046000D+01
EXPONENTS  0.1046000D+01 0.1046000D+01 0.1046000D+01 0.1046000D+01 0.1046000D+01
EXPONENTS  0.3440000D+00 0.3440000D+00 0.3440000D+00 0.3440000D+00 0.3440000D+00
EXPONENTS  0.3440000D+00 0.1350000D+00 0.1350000D+00 0.1350000D+00 0.1350000D+00
EXPONENTS  0.1350000D+00 0.1350000D+00 0.7060000D+00 0.7060000D+00 0.7060000D+00
EXPONENTS  0.7060000D+00 0.7060000D+00 0.7060000D+00 0.7060000D+00 0.7060000D+00
EXPONENTS  0.7060000D+00 0.7060000D+00 0.3120000D+00 0.3120000D+00 0.3120000D+00
EXPONENTS  0.3120000D+00 0.3120000D+00 0.3120000D+00 0.3120000D+00 0.3120000D+00
EXPONENTS  0.3120000D+00 0.3120000D+00
MO    1     MO 0.0        OCC NO =    2.0000000  ORB. ENERGY = -353.298910
  0.72198976D+00  0.13513624D+01  0.23410034D+01  0.38328599D+01  0.59925690D+01
  0.89534118D+01  0.12623948D+02  0.16226359D+02  0.17677747D+02  0.14105625D+02
  0.61933625D+01  0.84036363D+00 -0.93047490D-02  0.78480504D-02 -0.19460091D-02
  0.47044474D-03 -0.94564458D-04  0.98396686D-05 -0.41801731D-05  0.12745569D-06
  0.23855556D-06  0.41349200D-06  0.67771132D-06  0.10638226D-05  0.16043459D-05
  0.23169101D-05  0.31398187D-05  0.38383061D-05  0.38714334D-05  0.24781120D-05
 -0.31755524D-06 -0.21277042D-05 -0.11734464D-05 -0.11361243D-06  0.15432955D-08
 -0.81474885D-09  0.48881454D-10 -0.21056273D-10 -0.24986147D-06 -0.46793027D-06
 -0.81044332D-06 -0.13299627D-05 -0.20857637D-05 -0.31545579D-05 -0.45593876D-05
 -0.62352911D-05 -0.77076025D-05 -0.80557918D-05 -0.54125926D-05  0.73167578D-06
  0.68520281D-05  0.56024493D-05 -0.10786215D-05 -0.27246085D-05 -0.75510208D-06
 -0.87998690D-08  0.22724850D-08  0.22847268D-06  0.42795009D-06  0.74101434D-06
  0.12164603D-05  0.19070579D-05  0.28862134D-05  0.41703948D-05  0.57124921D-05
  0.70670824D-05  0.74257203D-05  0.50123262D-05 -0.67037603D-06 -0.67041414D-05
 -0.57254679D-05  0.13465947D-05  0.36658919D-05  0.20307706D-05 -0.87331709D-06
 -0.88563206D-06 -0.18782490D-06 -0.36072445D-06 -0.60225459D-06 -0.10371482D-05
 -0.15301706D-05 -0.24943231D-05 -0.32919966D-05 -0.50364371D-05 -0.54188180D-05
 -0.68969379D-05 -0.32339300D-05 -0.82145942D-06  0.76792609D-05  0.35005296D-05
 -0.16128872D-06 -0.69675681D-05  0.22591870D-05  0.14344705D-05 -0.65199107D-06
  0.15660169D-06  0.29456163D-06  0.50696138D-06  0.83896296D-06  0.13021339D-05
  0.19957556D-05  0.28426642D-05  0.39711383D-05  0.48163317D-05  0.52592454D-05
  0.33896791D-05 -0.20882374D-06 -0.54501503D-05 -0.55960149D-05  0.46170671D-05
  0.46005507D-05 -0.43386472D-05  0.98831388D-06 -0.15910525D-06  0.16011329D-05
 -0.25093858D-06  0.10119220D-16  0.14710832D-16  0.20863173D-16  0.27731381D-16
  0.33763898D-16  0.36371307D-16  0.32306090D-16  0.21571584D-16  0.91750360D-17
  0.18401662D-17  0.11680469D-18  0.33182114D-20  0.37635288D-21  0.15828106D-22
 -0.13185939D-24 -0.23882784D-17 -0.34719633D-17 -0.49240025D-17 -0.65449962D-17
 -0.79687551D-17 -0.85841403D-17 -0.76246918D-17 -0.50911973D-17 -0.21654376D-17
 -0.43430513D-18 -0.27567550D-19 -0.78314460D-21 -0.88824577D-22 -0.37356558D-23
  0.31120671D-25 -0.53316930D-05 -0.77509567D-05 -0.10992550D-04 -0.14611324D-04
 -0.17789783D-04 -0.19163595D-04 -0.17021682D-04 -0.11365803D-04 -0.48342138D-05
 -0.96956100D-06 -0.61542955D-07 -0.17483249D-08 -0.19829571D-09 -0.83396348D-11
  0.69475093D-13  0.96948752D-18  0.14406270D-17  0.20461826D-17  0.27391185D-17
  0.33777576D-17  0.37435366D-17  0.34611257D-17  0.24434679D-17  0.10432436D-17
 -0.13789471D-18 -0.46431044D-18 -0.24541587D-18 -0.56563134D-19 -0.24409842D-20
  0.43024602D-22 -0.57761253D-18 -0.85831351D-18 -0.12190984D-17 -0.16319438D-17
 -0.20124396D-17 -0.22303677D-17 -0.20621097D-17 -0.14557977D-17 -0.62155579D-18
  0.82156510D-19  0.27663227D-18  0.14621672D-18  0.33699841D-19  0.14543179D-20
 -0.25633697D-22 -0.22406842D-05 -0.33295841D-05 -0.47291469D-05 -0.63306637D-05
 -0.78066893D-05 -0.86520796D-05 -0.79993701D-05 -0.56473547D-05 -0.24111496D-05
  0.31870290D-06  0.10731165D-05  0.56720632D-06  0.13072898D-06  0.56416144D-08
 -0.99438665D-10  0.65773732D-17  0.90497810D-17  0.12781458D-16  0.17231426D-16
  0.21149707D-16  0.23664430D-16  0.21794009D-16  0.15664686D-16  0.65677109D-17
 -0.11650405D-17 -0.36049058D-17 -0.19466241D-17 -0.49207294D-18  0.39280647D-18
  0.32901943D-18  0.21355589D-17  0.29383067D-17  0.41499174D-17  0.55947449D-17
  0.68669427D-17  0.76834296D-17  0.70761363D-17  0.50860515D-17  0.21324217D-17
 -0.37826842D-18 -0.11704503D-17 -0.63203505D-18 -0.15976754D-18  0.12753744D-18
  0.10682690D-18  0.20007746D-04  0.27528576D-04  0.38879983D-04  0.52416365D-04
  0.64335405D-04  0.71984954D-04  0.66295310D-04  0.47650490D-04  0.19978354D-04
 -0.35439427D-05 -0.10965782D-04 -0.59214461D-05 -0.14968392D-05  0.11948801D-05
  0.10008459D-05 -0.75269620D-17 -0.10439167D-16 -0.14504854D-16 -0.19957627D-16
 -0.24010430D-16 -0.27427963D-16 -0.24654963D-16 -0.18385035D-16 -0.73364559D-17
  0.98935772D-18  0.47703619D-17  0.21084528D-17  0.41689751D-18 -0.65942889D-18
 -0.25771331D-18 -0.25816215D-17 -0.35804589D-17 -0.49749211D-17 -0.68451307D-17
 -0.82351742D-17 -0.94073304D-17 -0.84562382D-17 -0.63057582D-17 -0.25162811D-17
  0.33933308D-18  0.16361540D-17  0.72316389D-18  0.14298884D-18 -0.22617303D-18
 -0.88391336D-19 -0.22260557D-04 -0.30873235D-04 -0.42897269D-04 -0.59023532D-04
 -0.71009465D-04 -0.81116621D-04 -0.72915635D-04 -0.54372684D-04 -0.21697146D-04
  0.29259685D-05  0.14108071D-04  0.62356278D-05  0.12329504D-05 -0.19502230D-05
 -0.76217228D-06  0.31027929D-17  0.40983552D-17  0.62179131D-17  0.78262444D-17
  0.10293344D-16  0.10713090D-16  0.10740336D-16  0.69207083D-17  0.40350898D-17
 -0.10141001D-17 -0.26411014D-17 -0.10026645D-17  0.73677171D-18  0.15823010D-18
 -0.56063145D-19  0.32804051D-18  0.43329562D-18  0.65738433D-18  0.82742398D-18
  0.10882563D-17  0.11326336D-17  0.11355142D-17  0.73168683D-18  0.42660692D-18
 -0.10721499D-18 -0.27922852D-18 -0.10600597D-18  0.77894652D-19  0.16728762D-19
 -0.59272351D-20  0.42529575D-05  0.56175618D-05  0.85228121D-05  0.10727331D-04
  0.14108952D-04  0.14684292D-04  0.14721639D-04  0.94861242D-05  0.55308447D-05
 -0.13900137D-05 -0.36201231D-05 -0.13743391D-05  0.10098833D-05  0.21688393D-06
 -0.76845018D-07 -0.17988752D-20 -0.10227512D-18  0.81689910D-08  0.15908682D-21
  0.32858289D-19  0.53291450D-10 -0.87199024D-06 -0.83682151D-06 -0.62378623D-06
 -0.35130666D-06 -0.13166280D-06 -0.31973126D-07 -0.48476746D-08 -0.17536358D-05
 -0.16829089D-05 -0.12544795D-05 -0.70650324D-06 -0.26478346D-06 -0.64300282D-07
 -0.97490264D-08  0.26256261D-05  0.25197305D-05  0.18782657D-05  0.10578099D-05
  0.39644626D-06  0.96273408D-07  0.14596701D-07 -0.27940346D-16 -0.26813468D-16
 -0.19987383D-16 -0.11256582D-16 -0.42187445D-17 -0.10244842D-17 -0.15532938D-18
 -0.58101115D-17 -0.55757806D-17 -0.41563166D-17 -0.23407726D-17 -0.87727532D-18
 -0.21303842D-18 -0.32300281D-19 -0.59581212D-17 -0.57178208D-17 -0.42621967D-17
 -0.24004026D-17 -0.89962348D-18 -0.21846547D-18 -0.33123115D-19  0.22809925D-05
  0.21995853D-05  0.16833885D-05  0.98955428D-06  0.28843607D-06 -0.96603166D-08
 -0.17966319D-07  0.40241416D-05  0.38805225D-05  0.29698448D-05  0.17457780D-05
  0.50886077D-06 -0.17042793D-07 -0.31696295D-07 -0.63051341D-05 -0.60801077D-05
 -0.46532334D-05 -0.27353323D-05 -0.79729684D-06  0.26703109D-07  0.49662614D-07
  0.24689454D-16  0.23808303D-16  0.18220991D-16  0.10710932D-16  0.31220310D-17
 -0.10456323D-18 -0.19446737D-18  0.58571805D-17  0.56481414D-17  0.43226405D-17
  0.25409983D-17  0.74065222D-18 -0.24805964D-19 -0.46134292D-19  0.17202446D-16
  0.16588501D-16  0.12695526D-16  0.74628716D-17  0.21752838D-17 -0.72854723D-19
 -0.13549568D-18 -0.20333160D-05 -0.20900505D-05 -0.15620877D-05 -0.10779944D-05
 -0.70241713D-07  0.98638589D-07  0.29398065D-08 -0.31846443D-05 -0.32735036D-05
 -0.24465914D-05 -0.16883891D-05 -0.11001481D-06  0.15449090D-06  0.46044186D-08
  0.52179603D-05  0.53635541D-05  0.40086791D-05  0.27663835D-05  0.18025652D-06
 -0.25312949D-06 -0.75442251D-08 -0.58458326D-16 -0.60089455D-16 -0.44910396D-16
 -0.30992599D-16 -0.20194662D-17  0.28358832D-17  0.84520146D-19 -0.11920080D-16
 -0.12252679D-16 -0.91575584D-17 -0.63196176D-17 -0.41178393D-18  0.57825733D-18
  0.17234276D-19 -0.75397560D-17 -0.77501336D-17 -0.57923902D-17 -0.39973200D-17
 -0.26046388D-18  0.36576257D-18  0.10901121D-19 -0.14281259D-07 -0.29655795D-08
  0.17246838D-07  0.22660225D-19  0.52439786D-20  0.63701303D-19  0.15449632D-07
  0.95716399D-08 -0.25021272D-07 -0.14046777D-20 -0.34252434D-21  0.55021057D-19
 -0.17504840D-17  0.37627873D-17  0.15538891D-05  0.45024037D-17 -0.49468785D-17
 -0.31543593D-05  0.74904823D-18 -0.63414832D-17 -0.15073082D-05  0.46150309D-17
  0.28619462D-19 -0.35622040D-18 -0.28986113D-06 -0.49019213D-19  0.12106027D-18
  0.56213085D-06 -0.36839173D-19  0.94760092D-18  0.30745253D-06 -0.38178105D-19
 -0.14907169D-20  0.70407161D-19  0.55448044D-07  0.26966427D-20 -0.14693983D-19
 -0.10736428D-06  0.17755081D-20 -0.19652750D-18 -0.58979848D-07  0.36592315D-20
  0.73173243D-07  0.12918222D-07  0.11385919D-06  0.86518270D-18 -0.31176934D-17
 -0.99446064D-18  0.24865366D-17  0.29632129D-17 -0.33422367D-17  0.83303187D-07
 -0.52234265D-06 -0.16081252D-06  0.25671003D-17  0.46344142D-18  0.38783383D-18
 -0.13781787D-07 -0.29367742D-08 -0.22056575D-07 -0.56378320D-19  0.16348758D-18
  0.68616473D-19 -0.17717407D-18 -0.20434525D-18  0.20239225D-18 -0.16014040D-07
  0.98704764D-07  0.33634685D-07 -0.75654548D-19  0.12257300D-18 -0.36714458D-19
  0.34362436D-08  0.64292250D-08  0.11108277D-07  0.18007812D-07  0.27346299D-07
  0.38008140D-07  0.45186195D-07  0.40248387D-07  0.19980504D-07  0.32191794D-08
  0.49422978D-10  0.88318377D-11  0.33003199D-12 -0.85522774D-08 -0.15974426D-07
 -0.27724391D-07 -0.44985420D-07 -0.69632088D-07 -0.99672007D-07 -0.13010310D-06
 -0.13864657D-06 -0.10364112D-06 -0.54710308D-08  0.70300030D-07  0.41766294D-07
 -0.15659229D-09  0.68256460D-08  0.12739085D-07  0.22139408D-07  0.35881468D-07
  0.55729537D-07  0.79834170D-07  0.10541358D-06  0.11398335D-06  0.89364425D-07
  0.44467442D-08 -0.76607907D-07 -0.79303385D-07  0.35885904D-07  0.37119396D-07
 -0.32105968D-07  0.53014953D-07  0.44302206D-21  0.58355947D-21  0.64380281D-21
  0.53475224D-21  0.28401990D-21  0.73257018D-22 -0.75305724D-25 -0.66608958D-06
 -0.87738947D-06 -0.96796613D-06 -0.80400713D-06 -0.42702772D-06 -0.11014291D-06
  0.11322316D-09 -0.55228516D-05 -0.72748351D-05 -0.80258473D-05 -0.66663887D-05
 -0.35406810D-05 -0.91324491D-06  0.93878472D-09 -0.12861971D-21 -0.16886824D-21