 Molden2AIM, Version 4.0.0 (06/02/2016)           Time: Sun Jul  1 16:40:43 2018
GAUSSIAN             15 MOL ORBITALS    462 PRIMITIVES       10 NUCLEI
  H    1    (CENTRE  1)   2.03302028 -4.84295421  0.00000000  CHARGE =  1.0
  H    2    (CENTRE  2)  -2.03302028  4.84295421  0.00000000  CHARGE =  1.0
  H    3    (CENTRE  3)   3.98315528 -1.91439839  0.00000000  CHARGE =  1.0
  H    4    (CENTRE  4)  -3.98315528  1.91439839  0.00000000  CHARGE =  1.0
  H    5    (CENTRE  5)  -1.84097497 -2.30590618  0.00000000  CHARGE =  1.0
  H    6    (CENTRE  6)   1.84097497  2.30590618  0.00000000  CHARGE =  1.0
  C    7    (CENTRE  7)  -0.00596587  1.37458300  0.00000000  CHARGE =  6.0
  C    8    (CENTRE  8)   0.00596587 -1.37458300  0.00000000  CHARGE =  6.0
  C    9    (CENTRE  9)   2.11204106 -2.78476089  0.00000000  CHARGE =  6.0
  C   10    (CENTRE 10)  -2.11204106  2.78476089  0.00000000  CHARGE =  6.0
CENTRE ASSIGNMENTS    1  1  1  1  1  1  1  1  1  1  1  1  1  1  1  1  1  1  1  1
CENTRE ASSIGNMENTS    1  1  1  1  1  1  1  2  2  2  2  2  2  2  2  2  2  2  2  2
CENTRE ASSIGNMENTS    2  2  2  2  2  2  2  2  2  2  2  2  2  2  3  3  3  3  3  3
CENTRE ASSIGNMENTS    3  3  3  3  3  3  3  3  3  3  3  3  3  3  3  3  3  3  3  3
CENTRE ASSIGNMENTS    3  4  4  4  4  4  4  4  4  4  4  4  4  4  4  4  4  4  4  4
CENTRE ASSIGNMENTS    4  4  4  4  4  4  4  4  5  5  5  5  5  5  5  5  5  5  5  5
CENTRE ASSIGNMENTS    5  5  5  5  5  5  5  5  5  5  5  5  5  5  5  6  6  6  6  6
CENTRE ASSIGNMENTS    6  6  6  6  6  6  6  6  6  6  6  6  6  6  6  6  6  6  6  6
CENTRE ASSIGNMENTS    6  6  7  7  7  7  7  7  7  7  7  7  7  7  7  7  7  7  7  7
CENTRE ASSIGNMENTS    7  7  7  7  7  7  7  7  7  7  7  7  7  7  7  7  7  7  7  7
CENTRE ASSIGNMENTS    7  7  7  7  7  7  7  7  7  7  7  7  7  7  7  7  7  7  7  7
CENTRE ASSIGNMENTS    7  7  7  7  7  7  7  7  7  7  7  7  7  7  7  7  7  8  8  8
CENTRE ASSIGNMENTS    8  8  8  8  8  8  8  8  8  8  8  8  8  8  8  8  8  8  8  8
CENTRE ASSIGNMENTS    8  8  8  8  8  8  8  8  8  8  8  8  8  8  8  8  8  8  8  8
CENTRE ASSIGNMENTS    8  8  8  8  8  8  8  8  8  8  8  8  8  8  8  8  8  8  8  8
CENTRE ASSIGNMENTS    8  8  8  8  8  8  8  8  8  8  8  8  9  9  9  9  9  9  9  9
CENTRE ASSIGNMENTS    9  9  9  9  9  9  9  9  9  9  9  9  9  9  9  9  9  9  9  9
CENTRE ASSIGNMENTS    9  9  9  9  9  9  9  9  9  9  9  9  9  9  9  9  9  9  9  9
CENTRE ASSIGNMENTS    9  9  9  9  9  9  9  9  9  9  9  9  9  9  9  9  9  9  9  9
CENTRE ASSIGNMENTS    9  9  9  9  9  9  9 10 10 10 10 10 10 10 10 10 10 10 10 10
CENTRE ASSIGNMENTS   10 10 10 10 10 10 10 10 10 10 10 10 10 10 10 10 10 10 10 10
CENTRE ASSIGNMENTS   10 10 10 10 10 10 10 10 10 10 10 10 10 10 10 10 10 10 10 10
CENTRE ASSIGNMENTS   10 10 10 10 10 10 10 10 10 10 10 10 10 10 10 10 10 10 10 10
CENTRE ASSIGNMENTS   10 10
TYPE ASSIGNMENTS      1  1  1  1  1  1  2  3  4  2  3  4  2  3  4  5  6  7  8  9
TYPE ASSIGNMENTS     10  5  6  7  8  9 10  1  1  1  1  1  1  2  3  4  2  3  4  2
TYPE ASSIGNMENTS      3  4  5  6  7  8  9 10  5  6  7  8  9 10  1  1  1  1  1  1
TYPE ASSIGNMENTS      2  3  4  2  3  4  2  3  4  5  6  7  8  9 10  5  6  7  8  9
TYPE ASSIGNMENTS     10  1  1  1  1  1  1  2  3  4  2  3  4  2  3  4  5  6  7  8
TYPE ASSIGNMENTS      9 10  5  6  7  8  9 10  1  1  1  1  1  1  2  3  4  2  3  4
TYPE ASSIGNMENTS      2  3  4  5  6  7  8  9 10  5  6  7  8  9 10  1  1  1  1  1
TYPE ASSIGNMENTS      1  2  3  4  2  3  4  2  3  4  5  6  7  8  9 10  5  6  7  8
TYPE ASSIGNMENTS      9 10  1  1  1  1  1  1  1  1  1  1  1  1  1  1  1  1  1  1
TYPE ASSIGNMENTS      1  2  2  2  3  3  3  4  4  4  2  3  4  2  3  4  2  3  4  5
TYPE ASSIGNMENTS      6  7  8  9 10  5  6  7  8  9 10  5  6  7  8  9 10 11 12 13
TYPE ASSIGNMENTS     17 14 15 18 19 16 20 11 12 13 17 14 15 18 19 16 20  1  1  1
TYPE ASSIGNMENTS      1  1  1  1  1  1  1  1  1  1  1  1  1  1  1  1  2  2  2  3
TYPE ASSIGNMENTS      3  3  4  4  4  2  3  4  2  3  4  2  3  4  5  6  7  8  9 10
TYPE ASSIGNMENTS      5  6  7  8  9 10  5  6  7  8  9 10 11 12 13 17 14 15 18 19
TYPE ASSIGNMENTS     16 20 11 12 13 17 14 15 18 19 16 20  1  1  1  1  1  1  1  1
TYPE ASSIGNMENTS      1  1  1  1  1  1  1  1  1  1  1  2  2  2  3  3  3  4  4  4
TYPE ASSIGNMENTS      2  3  4  2  3  4  2  3  4  5  6  7  8  9 10  5  6  7  8  9
TYPE ASSIGNMENTS     10  5  6  7  8  9 10 11 12 13 17 14 15 18 19 16 20 11 12 13
TYPE ASSIGNMENTS     17 14 15 18 19 16 20  1  1  1  1  1  1  1  1  1  1  1  1  1
TYPE ASSIGNMENTS      1  1  1  1  1  1  2  2  2  3  3  3  4  4  4  2  3  4  2  3
TYPE ASSIGNMENTS      4  2  3  4  5  6  7  8  9 10  5  6  7  8  9 10  5  6  7  8
TYPE ASSIGNMENTS      9 10 11 12 13 17 14 15 18 19 16 20 11 12 13 17 14 15 18 19
TYPE ASSIGNMENTS     16 20
EXPONENTS  0.3387000D+02 0.5095000D+01 0.1159000D+01 0.3258000D+00 0.1027000D+00
EXPONENTS  0.2526000D-01 0.1407000D+01 0.1407000D+01 0.1407000D+01 0.3880000D+00
EXPONENTS  0.3880000D+00 0.3880000D+00 0.1020000D+00 0.1020000D+00 0.1020000D+00
EXPONENTS  0.1057000D+01 0.1057000D+01 0.1057000D+01 0.1057000D+01 0.1057000D+01
EXPONENTS  0.1057000D+01 0.2470000D+00 0.2470000D+00 0.2470000D+00 0.2470000D+00
EXPONENTS  0.2470000D+00 0.2470000D+00 0.3387000D+02 0.5095000D+01 0.1159000D+01
EXPONENTS  0.3258000D+00 0.1027000D+00 0.2526000D-01 0.1407000D+01 0.1407000D+01
EXPONENTS  0.1407000D+01 0.3880000D+00 0.3880000D+00 0.3880000D+00 0.1020000D+00
EXPONENTS  0.1020000D+00 0.1020000D+00 0.1057000D+01 0.1057000D+01 0.1057000D+01
EXPONENTS  0.1057000D+01 0.1057000D+01 0.1057000D+01 0.2470000D+00 0.2470000D+00
EXPONENTS  0.2470000D+00 0.2470000D+00 0.2470000D+00 0.2470000D+00 0.3387000D+02
EXPONENTS  0.5095000D+01 0.1159000D+01 0.3258000D+00 0.1027000D+00 0.2526000D-01
EXPONENTS  0.1407000D+01 0.1407000D+01 0.1407000D+01 0.3880000D+00 0.3880000D+00
EXPONENTS  0.3880000D+00 0.1020000D+00 0.1020000D+00 0.1020000D+00 0.1057000D+01
EXPONENTS  0.1057000D+01 0.1057000D+01 0.1057000D+01 0.1057000D+01 0.1057000D+01
EXPONENTS  0.2470000D+00 0.2470000D+00 0.2470000D+00 0.2470000D+00 0.2470000D+00
EXPONENTS  0.2470000D+00 0.3387000D+02 0.5095000D+01 0.1159000D+01 0.3258000D+00
EXPONENTS  0.1027000D+00 0.2526000D-01 0.1407000D+01 0.1407000D+01 0.1407000D+01
EXPONENTS  0.3880000D+00 0.3880000D+00 0.3880000D+00 0.1020000D+00 0.1020000D+00
EXPONENTS  0.1020000D+00 0.1057000D+01 0.1057000D+01 0.1057000D+01 0.1057000D+01
EXPONENTS  0.1057000D+01 0.1057000D+01 0.2470000D+00 0.2470000D+00 0.2470000D+00
EXPONENTS  0.2470000D+00 0.2470000D+00 0.2470000D+00 0.3387000D+02 0.5095000D+01
EXPONENTS  0.1159000D+01 0.3258000D+00 0.1027000D+00 0.2526000D-01 0.1407000D+01
EXPONENTS  0.1407000D+01 0.1407000D+01 0.3880000D+00 0.3880000D+00 0.3880000D+00
EXPONENTS  0.1020000D+00 0.1020000D+00 0.1020000D+00 0.1057000D+01 0.1057000D+01
EXPONENTS  0.1057000D+01 0.1057000D+01 0.1057000D+01 0.1057000D+01 0.2470000D+00
EXPONENTS  0.2470000D+00 0.2470000D+00 0.2470000D+00 0.2470000D+00 0.2470000D+00
EXPONENTS  0.3387000D+02 0.5095000D+01 0.1159000D+01 0.3258000D+00 0.1027000D+00
EXPONENTS  0.2526000D-01 0.1407000D+01 0.1407000D+01 0.1407000D+01 0.3880000D+00
EXPONENTS  0.3880000D+00 0.3880000D+00 0.1020000D+00 0.1020000D+00 0.1020000D+00
EXPONENTS  0.1057000D+01 0.1057000D+01 0.1057000D+01 0.1057000D+01 0.1057000D+01
EXPONENTS  0.1057000D+01 0.2470000D+00 0.2470000D+00 0.2470000D+00 0.2470000D+00
EXPONENTS  0.2470000D+00 0.2470000D+00 0.8236000D+04 0.1235000D+04 0.2808000D+03
EXPONENTS  0.7927000D+02 0.2559000D+02 0.8997000D+01 0.3319000D+01 0.3643000D+00
EXPONENTS  0.8236000D+04 0.1235000D+04 0.2808000D+03 0.7927000D+02 0.2559000D+02
EXPONENTS  0.8997000D+01 0.3319000D+01 0.3643000D+00 0.9059000D+00 0.1285000D+00
EXPONENTS  0.4402000D-01 0.1871000D+02 0.4133000D+01 0.1200000D+01 0.1871000D+02
EXPONENTS  0.4133000D+01 0.1200000D+01 0.1871000D+02 0.4133000D+01 0.1200000D+01
EXPONENTS  0.3827000D+00 0.3827000D+00 0.3827000D+00 0.1209000D+00 0.1209000D+00
EXPONENTS  0.1209000D+00 0.3569000D-01 0.3569000D-01 0.3569000D-01 0.1097000D+01
EXPONENTS  0.1097000D+01 0.1097000D+01 0.1097000D+01 0.1097000D+01 0.1097000D+01
EXPONENTS  0.3180000D+00 0.3180000D+00 0.3180000D+00 0.3180000D+00 0.3180000D+00
EXPONENTS  0.3180000D+00 0.1000000D+00 0.1000000D+00 0.1000000D+00 0.1000000D+00
EXPONENTS  0.1000000D+00 0.1000000D+00 0.7610000D+00 0.7610000D+00 0.7610000D+00
EXPONENTS  0.7610000D+00 0.7610000D+00 0.7610000D+00 0.7610000D+00 0.7610000D+00
EXPONENTS  0.7610000D+00 0.7610000D+00 0.2680000D+00 0.2680000D+00 0.2680000D+00
EXPONENTS  0.2680000D+00 0.2680000D+00 0.2680000D+00 0.2680000D+00 0.2680000D+00
EXPONENTS  0.2680000D+00 0.2680000D+00 0.8236000D+04 0.1235000D+04 0.2808000D+03
EXPONENTS  0.7927000D+02 0.2559000D+02 0.8997000D+01 0.3319000D+01 0.3643000D+00
EXPONENTS  0.8236000D+04 0.1235000D+04 0.2808000D+03 0.7927000D+02 0.2559000D+02
EXPONENTS  0.8997000D+01 0.3319000D+01 0.3643000D+00 0.9059000D+00 0.1285000D+00
EXPONENTS  0.4402000D-01 0.1871000D+02 0.4133000D+01 0.1200000D+01 0.1871000D+02
EXPONENTS  0.4133000D+01 0.1200000D+01 0.1871000D+02 0.4133000D+01 0.1200000D+01
EXPONENTS  0.3827000D+00 0.3827000D+00 0.3827000D+00 0.1209000D+00 0.1209000D+00
EXPONENTS  0.1209000D+00 0.3569000D-01 0.3569000D-01 0.3569000D-01 0.1097000D+01
EXPONENTS  0.1097000D+01 0.1097000D+01 0.1097000D+01 0.1097000D+01 0.1097000D+01
EXPONENTS  0.3180000D+00 0.3180000D+00 0.3180000D+00 0.3180000D+00 0.3180000D+00
EXPONENTS  0.3180000D+00 0.1000000D+00 0.1000000D+00 0.1000000D+00 0.1000000D+00
EXPONENTS  0.1000000D+00 0.1000000D+00 0.7610000D+00 0.7610000D+00 0.7610000D+00
EXPONENTS  0.7610000D+00 0.7610000D+00 0.7610000D+00 0.7610000D+00 0.7610000D+00
EXPONENTS  0.7610000D+00 0.7610000D+00 0.2680000D+00 0.2680000D+00 0.2680000D+00
EXPONENTS  0.2680000D+00 0.2680000D+00 0.2680000D+00 0.2680000D+00 0.2680000D+00
EXPONENTS  0.2680000D+00 0.2680000D+00 0.8236000D+04 0.1235000D+04 0.2808000D+03
EXPONENTS  0.7927000D+02 0.2559000D+02 0.8997000D+01 0.3319000D+01 0.3643000D+00
EXPONENTS  0.8236000D+04 0.1235000D+04 0.2808000D+03 0.7927000D+02 0.2559000D+02
EXPONENTS  0.8997000D+01 0.3319000D+01 0.3643000D+00 0.9059000D+00 0.1285000D+00
EXPONENTS  0.4402000D-01 0.1871000D+02 0.4133000D+01 0.1200000D+01 0.1871000D+02
EXPONENTS  0.4133000D+01 0.1200000D+01 0.1871000D+02 0.4133000D+01 0.1200000D+01
EXPONENTS  0.3827000D+00 0.3827000D+00 0.3827000D+00 0.1209000D+00 0.1209000D+00
EXPONENTS  0.1209000D+00 0.3569000D-01 0.3569000D-01 0.3569000D-01 0.1097000D+01
EXPONENTS  0.1097000D+01 0.1097000D+01 0.1097000D+01 0.1097000D+01 0.1097000D+01
EXPONENTS  0.3180000D+00 0.3180000D+00 0.3180000D+00 0.3180000D+00 0.3180000D+00
EXPONENTS  0.3180000D+00 0.1000000D+00 0.1000000D+00 0.1000000D+00 0.1000000D+00
EXPONENTS  0.1000000D+00 0.1000000D+00 0.7610000D+00 0.7610000D+00 0.7610000D+00
EXPONENTS  0.7610000D+00 0.7610000D+00 0.7610000D+00 0.7610000D+00 0.7610000D+00
EXPONENTS  0.7610000D+00 0.7610000D+00 0.2680000D+00 0.2680000D+00 0.2680000D+00
EXPONENTS  0.2680000D+00 0.2680000D+00 0.2680000D+00 0.2680000D+00 0.2680000D+00
EXPONENTS  0.2680000D+00 0.2680000D+00 0.8236000D+04 0.1235000D+04 0.2808000D+03
EXPONENTS  0.7927000D+02 0.2559000D+02 0.8997000D+01 0.3319000D+01 0.3643000D+00
EXPONENTS  0.8236000D+04 0.1235000D+04 0.2808000D+03 0.7927000D+02 0.2559000D+02
EXPONENTS  0.8997000D+01 0.3319000D+01 0.3643000D+00 0.9059000D+00 0.1285000D+00
EXPONENTS  0.4402000D-01 0.1871000D+02 0.4133000D+01 0.1200000D+01 0.1871000D+02
EXPONENTS  0.4133000D+01 0.1200000D+01 0.1871000D+02 0.4133000D+01 0.1200000D+01
EXPONENTS  0.3827000D+00 0.3827000D+00 0.3827000D+00 0.1209000D+00 0.1209000D+00
EXPONENTS  0.1209000D+00 0.3569000D-01 0.3569000D-01 0.3569000D-01 0.1097000D+01
EXPONENTS  0.1097000D+01 0.1097000D+01 0.1097000D+01 0.1097000D+01 0.1097000D+01
EXPONENTS  0.3180000D+00 0.3180000D+00 0.3180000D+00 0.3180000D+00 0.3180000D+00
EXPONENTS  0.3180000D+00 0.1000000D+00 0.1000000D+00 0.1000000D+00 0.1000000D+00
EXPONENTS  0.1000000D+00 0.1000000D+00 0.7610000D+00 0.7610000D+00 0.7610000D+00
EXPONENTS  0.7610000D+00 0.7610000D+00 0.7610000D+00 0.7610000D+00 0.7610000D+00
EXPONENTS  0.7610000D+00 0.7610000D+00 0.2680000D+00 0.2680000D+00 0.2680000D+00
EXPONENTS  0.2680000D+00 0.2680000D+00 0.2680000D+00 0.2680000D+00 0.2680000D+00
EXPONENTS  0.2680000D+00 0.2680000D+00
MO    1     MO 0.0        OCC NO =    2.0000000  ORB. ENERGY =  -11.242550
  0.19980125D-05  0.36034977D-05  0.53133553D-05  0.80007222D-03 -0.10022630D-02
 -0.81559626D-05 -0.74769359D-05  0.63862671D-04  0.36543011D-16 -0.38948871D-04
  0.57756291D-03 -0.38646359D-16  0.45953588D-04 -0.97456414D-04 -0.15708778D-17
 -0.51566722D-04  0.11975981D-03 -0.68193087D-04 -0.11205047D-04  0.55019193D-16
  0.87246200D-16 -0.31430178D-04  0.39257073D-04 -0.78268955D-05  0.54057888D-04
 -0.25634359D-17  0.52196097D-17  0.19980124D-05  0.36034977D-05  0.53133553D-05
  0.80007222D-03 -0.10022630D-02 -0.81559623D-05  0.74769360D-05 -0.63862671D-04
  0.50581076D-19  0.38948871D-04 -0.57756291D-03 -0.30041349D-18 -0.45953587D-04
  0.97456414D-04  0.96163692D-19 -0.51566722D-04  0.11975981D-03 -0.68193087D-04
 -0.11205047D-04 -0.13092678D-18  0.45018279D-18 -0.31430178D-04  0.39257073D-04
 -0.78268956D-05  0.54057888D-04 -0.21876225D-18 -0.46178732D-19 -0.15531902D-05
 -0.28012426D-05 -0.41304305D-05  0.20834299D-03 -0.44029963D-03 -0.10435094D-04
 -0.56619014D-04  0.16001496D-04 -0.70316730D-18 -0.23058589D-03 -0.94791184D-04
  0.96283167D-18  0.62481425D-04 -0.58219437D-04 -0.78643368D-18  0.53830835D-04
  0.17114175D-04 -0.70945010D-04  0.30375576D-04 -0.22665589D-17 -0.49632380D-18
 -0.71329779D-05  0.82052025D-05 -0.10722246D-05  0.72343671D-04  0.27485315D-19
  0.87865855D-18 -0.15531902D-05 -0.28012426D-05 -0.41304305D-05  0.20834299D-03
 -0.44029962D-03 -0.10435094D-04  0.56619014D-04 -0.16001496D-04  0.87488657D-19
  0.23058589D-03  0.94791184D-04 -0.81747932D-18 -0.62481424D-04  0.58219438D-04
  0.17939409D-18  0.53830835D-04  0.17114175D-04 -0.70945010D-04  0.30375575D-04
 -0.49504426D-18 -0.44027069D-18 -0.71329778D-05  0.82052024D-05 -0.10722246D-05
  0.72343671D-04 -0.63746337D-19 -0.43168173D-19  0.70763412D-04  0.12762473D-03
  0.18818259D-03  0.13296255D-02  0.27329844D-02  0.16541426D-04 -0.22061492D-03
 -0.98791416D-04  0.11886921D-17  0.23042223D-04 -0.58763321D-05 -0.25127499D-17
  0.31056298D-03  0.53877641D-04 -0.12805869D-18 -0.23541862D-03  0.53773782D-06
  0.23488088D-03 -0.47741654D-03  0.48956595D-18 -0.16104543D-17 -0.88378184D-05
 -0.70842988D-04  0.79680806D-04 -0.46484957D-05 -0.52413215D-18 -0.18380892D-18
  0.70763412D-04  0.12762473D-03  0.18818259D-03  0.13296255D-02  0.27329844D-02
  0.16541426D-04  0.22061492D-03  0.98791416D-04 -0.11186007D-18 -0.23042224D-04
  0.58763317D-05  0.44334925D-18 -0.31056298D-03 -0.53877643D-04  0.67734330D-18
 -0.23541862D-03  0.53773771D-06  0.23488088D-03 -0.47741654D-03 -0.64283239D-19
 -0.47789850D-18 -0.88378185D-05 -0.70842988D-04  0.79680806D-04 -0.46484958D-05
 -0.27924124D-18  0.14879795D-18  0.23071194D+00  0.43009951D+00  0.72694394D+00
  0.10928349D+01  0.13426739D+01  0.11341027D+01  0.42774183D+00 -0.21169182D-02
 -0.40700428D-03 -0.76204043D-03 -0.12974390D-02 -0.20069409D-02 -0.26430706D-02
 -0.27463196D-02 -0.17451628D-02  0.11695675D-02  0.20176435D-01  0.10461063D-02
 -0.15878822D-03  0.54819036D-03  0.51396331D-03  0.36597249D-03 -0.76184631D-03
 -0.71427934D-03 -0.50860944D-03 -0.71180524D-17 -0.66736266D-17 -0.47520197D-17
 -0.52312731D-03 -0.60000317D-03  0.29646547D-17 -0.15635009D-02  0.48794436D-03
  0.10800567D-17  0.16200789D-04 -0.22136607D-04 -0.10076788D-18  0.63778272D-03
  0.53632611D-03 -0.11741088D-02 -0.54217475D-03 -0.79985885D-18  0.31011658D-18
 -0.78693634D-04 -0.22240936D-03  0.30110300D-03  0.19157581D-03 -0.15571993D-17
 -0.14021140D-17 -0.11976184D-04  0.11480495D-04  0.49568871D-06 -0.40627141D-03
 -0.58574792D-18 -0.38858078D-18  0.90583876D-04 -0.18664905D-03 -0.13414306D-18
 -0.24835667D-03  0.85521692D-03 -0.46332027D-18 -0.23394954D-04 -0.29526977D-03
  0.86574946D-18 -0.68681840D-18 -0.44092877D-04  0.20333989D-03 -0.53759967D-20
  0.43110607D-04 -0.53980086D-03  0.12638722D-18  0.89168022D-04 -0.70218804D-04
 -0.11025923D-18  0.81824894D-19  0.23071194D+00  0.43009951D+00  0.72694394D+00
  0.10928349D+01  0.13426739D+01  0.11341027D+01  0.42774183D+00 -0.21169182D-02
 -0.40700428D-03 -0.76204043D-03 -0.12974390D-02 -0.20069409D-02 -0.26430706D-02
 -0.27463196D-02 -0.17451628D-02  0.11695675D-02  0.20176435D-01  0.10461063D-02
 -0.15878821D-03 -0.54819036D-03 -0.51396331D-03 -0.36597249D-03  0.76184631D-03
  0.71427934D-03  0.50860944D-03 -0.95627433D-17 -0.89656797D-17 -0.63840980D-17
  0.52312731D-03  0.60000317D-03  0.50767814D-17  0.15635009D-02 -0.48794437D-03
  0.29555490D-17 -0.16200788D-04  0.22136607D-04  0.19140054D-18  0.63778272D-03
  0.53632611D-03 -0.11741088D-02 -0.54217475D-03 -0.16114355D-17  0.21567905D-17
 -0.78693633D-04 -0.22240936D-03  0.30110300D-03  0.19157581D-03  0.41553557D-17
 -0.35140429D-17 -0.11976183D-04  0.11480494D-04  0.49568851D-06 -0.40627141D-03
  0.95990726D-18 -0.11763686D-17 -0.90583876D-04  0.18664905D-03 -0.63520867D-18
  0.24835667D-03 -0.85521692D-03  0.19478303D-17  0.23394954D-04  0.29526977D-03
 -0.42204309D-19 -0.31753850D-17  0.44092876D-04 -0.20333989D-03 -0.23945700D-18
 -0.43110607D-04  0.53980086D-03  0.16500103D-17 -0.89168022D-04  0.70218804D-04
 -0.93163930D-18  0.30791353D-18  0.19925086D-01  0.37144890D-01  0.62781408D-01
  0.94381021D-01  0.11595799D+00  0.97945059D-01  0.36941273D-01 -0.18282442D-03
 -0.11558801D-03 -0.21641722D-03 -0.36846883D-03 -0.56996525D-03 -0.75062419D-03
 -0.77994661D-03 -0.49562106D-03  0.33215371D-03  0.22462048D-02 -0.35112274D-02
  0.15452558D-03 -0.35030068D-03 -0.32842916D-03 -0.23386112D-03  0.21272008D-03
  0.19943859D-03  0.14201216D-03 -0.12202008D-17 -0.11440158D-17 -0.81460740D-18
 -0.44849479D-03  0.58813860D-03 -0.42391860D-17  0.11391594D-02 -0.70984291D-03
 -0.57033881D-17  0.91166409D-06 -0.88876765D-05 -0.11153417D-18 -0.89623041D-04
  0.76262980D-04  0.13360061D-04  0.99010130D-04 -0.48921022D-17  0.27481049D-17
  0.68929592D-05 -0.36921985D-03  0.36232689D-03  0.51885612D-04  0.40623493D-17
 -0.43873899D-17 -0.43227801D-04  0.50674230D-04 -0.74464289D-05  0.10320261D-03
  0.10755441D-17  0.24866509D-18 -0.51612565D-05  0.11178289D-03  0.89507990D-18
  0.22547818D-03 -0.46839762D-03 -0.40152200D-18 -0.20999441D-03  0.13304895D-03
 -0.22837177D-17  0.27824135D-17  0.76508651D-05 -0.34903452D-04  0.41263263D-18
  0.53724039D-04  0.64580903D-04 -0.16547750D-18 -0.76676634D-04  0.40129451D-04
 -0.10724204D-17  0.52256453D-18  0.19925086D-01  0.37144890D-01  0.62781408D-01
  0.94381021D-01  0.11595799D+00  0.97945059D-01  0.36941273D-01 -0.18282442D-03
 -0.11558801D-03 -0.21641722D-03 -0.36846883D-03 -0.56996525D-03 -0.75062419D-03
 -0.77994661D-03 -0.49562106D-03  0.33215371D-03  0.22462048D-02 -0.35112274D-02
  0.15452559D-03  0.35030068D-03  0.32842916D-03  0.23386112D-03 -0.21272008D-03
 -0.19943859D-03 -0.14201216D-03  0.51737566D-18  0.48507257D-18  0.34540057D-18
  0.44849479D-03 -0.58813860D-03 -0.61875375D-18 -0.11391594D-02  0.70984291D-03
 -0.45340080D-18 -0.91166401D-06  0.88876762D-05  0.34153310D-19 -0.89623041D-04
  0.76262980D-04  0.13360061D-04  0.99010130D-04  0.35872563D-18 -0.79957814D-18
  0.68929594D-05 -0.36921985D-03  0.36232689D-03  0.51885612D-04 -0.10019469D-17
  0.94965167D-18 -0.43227801D-04  0.50674230D-04 -0.74464289D-05  0.10320261D-03
  0.15837524D-18  0.24086688D-19  0.51612565D-05 -0.11178289D-03  0.33501737D-19
 -0.22547818D-03  0.46839762D-03 -0.44229503D-19  0.20999441D-03 -0.13304895D-03
 -0.56275708D-19  0.10206390D-17 -0.76508652D-05  0.34903452D-04 -0.56350566D-19
 -0.53724038D-04 -0.64580903D-04  0.22981435D-18  0.76676634D-04 -0.40129451D-04
 -0.60762652D-19  0.59049356D-18
MO    2     MO 0.0        OCC NO =    2.0000000  ORB. ENERGY =  -11.241708
 -0.28726991D-04 -0.51810311D-04 -0.76394273D-04 -0.11416433D-02 -0.11489915D-02
  0.35783683D-04  0.48400186D-04 -0.93108243D-04 -0.72870862D-17 -0.32933151D-03
 -0.28618707D-05  0.12409299D-16 -0.60202850D-04 -0.79344532D-04  0.24527899D-17
  0.35014283D-04  0.84563817D-04 -0.11957810D-03 -0.25380659D-03  0.52745570D-16
  0.45133129D-16 -0.27893255D-05  0.46989543D-04 -0.44200217D-04 -0.81916590D-04
 -0.67137057D-18  0.15576233D-18  0.28726991D-04  0.51810311D-04  0.76394273D-04
  0.11416433D-02  0.11489915D-02 -0.35783683D-04  0.48400186D-04 -0.93108243D-04
  0.17661686D-18 -0.32933151D-03 -0.28618707D-05 -0.39652694D-19 -0.60202850D-04
 -0.79344533D-04  0.18551293D-18 -0.35014283D-04 -0.84563817D-04  0.11957810D-03
  0.25380659D-03 -0.42425275D-18  0.28897875D-18  0.27893256D-05 -0.46989543D-04
  0.44200217D-04  0.81916590D-04  0.56859505D-19 -0.13415757D-18 -0.33201885D-04
 -0.59880966D-04 -0.88294450D-04 -0.34920009D-03 -0.79096156D-03  0.28144820D-04
  0.14054108D-03 -0.24065354D-04  0.48290322D-17 -0.41074986D-03  0.20117186D-03
 -0.86401337D-17  0.45492996D-04  0.32622972D-04  0.34456773D-18  0.15496201D-03
 -0.23249787D-04 -0.13171222D-03 -0.16429140D-03  0.67905361D-17  0.52581402D-18
  0.68014022D-04 -0.16018595D-04 -0.51995427D-04 -0.31277271D-04  0.11323972D-17
  0.13159396D-17  0.33201885D-04  0.59880966D-04  0.88294450D-04  0.34920009D-03
  0.79096155D-03 -0.28144820D-04  0.14054108D-03 -0.24065354D-04  0.26122125D-18
 -0.41074986D-03  0.20117186D-03 -0.27176603D-18  0.45492996D-04  0.32622972D-04
 -0.88229969D-20 -0.15496201D-03  0.23249787D-04  0.13171222D-03  0.16429140D-03
  0.12628987D-18 -0.25346014D-18 -0.68014022D-04  0.16018595D-04  0.51995427D-04
  0.31277271D-04 -0.66159622D-19  0.15293100D-18 -0.36918874D-04 -0.66584710D-04
 -0.98179116D-04  0.62960004D-04 -0.58130446D-04 -0.24671412D-04  0.45101121D-03
  0.17142922D-03 -0.14313476D-17  0.22295661D-03 -0.41892080D-04  0.33833463D-18
  0.67047385D-04 -0.11765605D-03 -0.57062333D-19  0.37681486D-03 -0.21418085D-03
 -0.16263400D-03  0.40985203D-03  0.99077723D-18 -0.12055101D-17  0.39955993D-04
 -0.13910261D-04 -0.26045732D-04 -0.37996136D-04 -0.32050936D-20 -0.59610621D-18
  0.36918874D-04  0.66584710D-04  0.98179116D-04 -0.62960006D-04  0.58130444D-04
  0.24671412D-04  0.45101121D-03  0.17142922D-03 -0.28471482D-18  0.22295661D-03
 -0.41892080D-04  0.67188768D-18  0.67047385D-04 -0.11765605D-03 -0.67564869D-18
 -0.37681486D-03  0.21418085D-03  0.16263400D-03 -0.40985203D-03 -0.54537350D-19
 -0.12050855D-18 -0.39955993D-04  0.13910261D-04  0.26045732D-04  0.37996135D-04
  0.10809175D-18  0.70534451D-19  0.23040794D+00  0.42953278D+00  0.72598607D+00
  0.10913949D+01  0.13409047D+01  0.11326084D+01  0.42717821D+00 -0.21141288D-02
 -0.28052680D-03 -0.52523468D-03 -0.89425698D-03 -0.13832796D-02 -0.18217305D-02
 -0.18928947D-02 -0.12028496D-02  0.80612184D-03  0.19650270D-01  0.33342667D-02
  0.72201380D-03  0.67533978D-03  0.63317397D-03  0.45085759D-03 -0.29269353D-03
 -0.27441878D-03 -0.19540252D-03 -0.78899728D-17 -0.73973511D-17 -0.52673546D-17
 -0.17353852D-02  0.17452570D-02  0.37069932D-17  0.51794755D-03 -0.20337728D-02
 -0.14145180D-18 -0.79742220D-04  0.67277036D-04  0.71480464D-19  0.75830278D-03
  0.41101963D-03 -0.11693224D-02 -0.60551984D-03 -0.16097505D-17  0.48834241D-18
  0.34401472D-03 -0.41474791D-03  0.70733189D-04 -0.58351326D-04  0.55929856D-19
 -0.19798924D-17 -0.12276509D-03  0.12951626D-03 -0.67511694D-05  0.16501498D-03
  0.53598236D-18 -0.36387526D-19  0.40054185D-04 -0.48417328D-03 -0.78827884D-19
 -0.21390607D-03  0.16250018D-02 -0.24572242D-18  0.93743517D-04 -0.17248196D-03
  0.48220608D-18  0.11049656D-17 -0.70479157D-04  0.49089433D-05 -0.33247122D-19
  0.32708585D-03 -0.14785298D-03 -0.39295336D-18 -0.11564838D-03  0.13312615D-03
  0.49269473D-18 -0.65346885D-18 -0.23040794D+00 -0.42953278D+00 -0.72598607D+00
 -0.10913949D+01 -0.13409047D+01 -0.11326084D+01 -0.42717821D+00  0.21141288D-02
  0.28052680D-03  0.52523468D-03  0.89425698D-03  0.13832796D-02  0.18217305D-02
  0.18928947D-02  0.12028496D-02 -0.80612184D-03 -0.19650270D-01 -0.33342667D-02
 -0.72201380D-03  0.67533978D-03  0.63317397D-03  0.45085759D-03 -0.29269353D-03
 -0.27441878D-03 -0.19540252D-03  0.76979314D-17  0.72173000D-17  0.51391476D-17
 -0.17353852D-02  0.17452570D-02 -0.12568158D-17  0.51794755D-03 -0.20337728D-02
 -0.31256546D-17 -0.79742220D-04  0.67277036D-04 -0.11727463D-18 -0.75830278D-03
 -0.41101963D-03  0.11693224D-02  0.60551984D-03 -0.81172332D-19 -0.10925711D-17
 -0.34401472D-03  0.41474791D-03 -0.70733190D-04  0.58351327D-04 -0.21701095D-19
 -0.80635655D-19  0.12276509D-03 -0.12951626D-03  0.67511694D-05 -0.16501498D-03
 -0.71203280D-18  0.10838769D-17  0.40054185D-04 -0.48417328D-03  0.50019501D-18
 -0.21390607D-03  0.16250018D-02 -0.94127763D-18  0.93743517D-04 -0.17248196D-03
 -0.55930741D-18  0.21816644D-17 -0.70479157D-04  0.49089434D-05  0.14347407D-18
  0.32708585D-03 -0.14785298D-03  0.11161415D-17 -0.11564838D-03  0.13312615D-03
 -0.15465637D-17 -0.27988428D-18 -0.22191881D-01 -0.41370712D-01 -0.69923792D-01
 -0.10511836D+00 -0.12915005D+00 -0.10908787D+00 -0.41143930D-01  0.20362361D-03
  0.97999502D-04  0.18348599D-03  0.31240059D-03  0.48323622D-03  0.63640510D-03
  0.66126566D-03  0.42020464D-03 -0.28161138D-03 -0.25421998D-02  0.37303517D-03
  0.12381416D-02  0.41794841D-03  0.39185320D-03  0.27902282D-03 -0.34803220D-03
 -0.32630231D-03 -0.23234668D-03  0.52845801D-17  0.49546298D-17  0.35279916D-17
 -0.53882314D-03  0.71515807D-03  0.15953133D-17  0.54709100D-03 -0.41568874D-03
  0.42105995D-17 -0.47917983D-04  0.42388119D-04  0.68440438D-19  0.12607164D-03
 -0.46842833D-04 -0.79228807D-04 -0.50838509D-03 -0.18796620D-17 -0.28681860D-17
  0.85773697D-04  0.23959308D-03 -0.32536678D-03 -0.11843331D-02  0.24196215D-17
  0.27536930D-17 -0.11926623D-04  0.68770556D-04 -0.56843933D-04  0.28670721D-04
 -0.92091224D-18 -0.30550140D-18 -0.21233503D-04 -0.79832715D-04 -0.24291641D-18
 -0.23610587D-03  0.44131270D-03  0.19647935D-17  0.29980638D-03 -0.20181456D-03
 -0.12360442D-17  0.29609998D-17  0.42289529D-04 -0.15760118D-03 -0.36590546D-18
 -0.10817166D-03  0.40430484D-03  0.21745276D-17 -0.18696931D-04  0.68498687D-04
 -0.10768113D-17  0.18236054D-17  0.22191881D-01  0.41370712D-01  0.69923792D-01
  0.10511836D+00  0.12915005D+00  0.10908787D+00  0.41143930D-01 -0.20362361D-03
 -0.97999502D-04 -0.18348599D-03 -0.31240059D-03 -0.48323622D-03 -0.63640510D-03
 -0.66126566D-03 -0.42020464D-03  0.28161138D-03  0.25421998D-02 -0.37303517D-03
 -0.12381416D-02  0.41794841D-03  0.39185320D-03  0.27902282D-03 -0.34803220D-03
 -0.32630231D-03 -0.23234668D-03 -0.86635827D-20 -0.81226595D-20 -0.57838174D-20
 -0.53882314D-03  0.71515807D-03  0.26815324D-18  0.54709100D-03 -0.41568874D-03
  0.83595466D-19 -0.47917983D-04  0.42388119D-04 -0.28404798D-19 -0.12607164D-03
  0.46842833D-04  0.79228807D-04  0.50838509D-03  0.72630494D-18  0.23845412D-18
 -0.85773697D-04 -0.23959308D-03  0.32536678D-03  0.11843331D-02 -0.32029858D-18
 -0.40805923D-18  0.11926623D-04 -0.68770556D-04  0.56843933D-04 -0.28670720D-04
 -0.34579581D-19 -0.62635240D-20 -0.21233503D-04 -0.79832715D-04  0.17353806D-18
 -0.23610587D-03  0.44131270D-03 -0.36204600D-18  0.29980638D-03 -0.20181456D-03
 -0.15856817D-18 -0.79227413D-18  0.42289529D-04 -0.15760118D-03  0.14527043D-19
 -0.10817166D-03  0.40430484D-03 -0.82209583D-19 -0.18696931D-04  0.68498687D-04
  0.38628454D-19  0.24462286D-18
MO    3     MO 0.0        OCC NO =    2.0000000  ORB. ENERGY =  -11.233009
  0.47259704D-04  0.85234823D-04  0.12567870D-03  0.82972666D-03  0.21098110D-03
  0.12668672D-04 -0.57015115D-06 -0.40161731D-03 -0.52289419D-16 -0.81290745D-04
  0.15420829D-03  0.12056277D-16 -0.10190695D-03 -0.91643086D-05  0.62228479D-18
  0.19253911D-03 -0.36335126D-03  0.17081214D-03  0.30544132D-04  0.51186564D-16
  0.33150816D-16 -0.45921117D-04  0.44298233D-05  0.41491293D-04 -0.44435335D-04
 -0.11850128D-16 -0.14502885D-17  0.47259704D-04  0.85234822D-04  0.12567870D-03
  0.82972665D-03  0.21098109D-03  0.12668672D-04  0.57015135D-06  0.40161731D-03
  0.20604124D-18  0.81290745D-04 -0.15420829D-03 -0.45802328D-18  0.10190695D-03
  0.91643100D-05 -0.78791872D-19  0.19253911D-03 -0.36335125D-03  0.17081214D-03
  0.30544132D-04  0.13317248D-18  0.25999285D-18 -0.45921117D-04  0.44298235D-05
  0.41491293D-04 -0.44435335D-04 -0.36982607D-20  0.15103235D-18  0.39986086D-04
  0.72116554D-04  0.10633582D-03  0.13094428D-02  0.11108557D-02  0.10315945D-04
  0.37907863D-03  0.15048748D-03  0.88273496D-18 -0.36997022D-03 -0.56989670D-04
 -0.11712213D-17 -0.15309133D-03  0.46520118D-04 -0.17121370D-18 -0.26161200D-03
  0.12361686D-03  0.13799515D-03 -0.38970541D-03  0.38900926D-18 -0.76803723D-19
  0.15318172D-04 -0.49726110D-04  0.34407937D-04  0.36021072D-05  0.52569023D-18
  0.10830752D-18  0.39986086D-04  0.72116553D-04  0.10633582D-03  0.13094428D-02
  0.11108557D-02  0.10315945D-04 -0.37907863D-03 -0.15048748D-03 -0.67476168D-19
  0.36997022D-03  0.56989672D-04  0.22786795D-18  0.15309133D-03 -0.46520117D-04
 -0.89157479D-19 -0.26161200D-03  0.12361685D-03  0.13799515D-03 -0.38970541D-03
 -0.34432004D-19  0.11126478D-18  0.15318172D-04 -0.49726109D-04  0.34407937D-04
  0.36021076D-05 -0.39557991D-20  0.69181055D-19 -0.32521138D-05 -0.58653212D-05
 -0.86484126D-05 -0.55967126D-03 -0.55764128D-03 -0.13417088D-04  0.36509627D-04
  0.12359374D-03 -0.27517152D-18 -0.27642217D-03 -0.20665512D-03  0.15343259D-17
 -0.10841959D-03  0.80001577D-04  0.49191156D-18 -0.65016825D-04  0.84546274D-04
 -0.19529449D-04  0.86223430D-04 -0.56111511D-19  0.91594833D-18 -0.33971370D-04
  0.11747479D-04  0.22223891D-04  0.44507735D-04  0.41621456D-18  0.19841492D-18
 -0.32521141D-05 -0.58653216D-05 -0.86484133D-05 -0.55967126D-03 -0.55764128D-03
 -0.13417088D-04 -0.36509626D-04 -0.12359374D-03  0.97258080D-19  0.27642216D-03
  0.20665512D-03 -0.49739395D-18  0.10841959D-03 -0.80001575D-04 -0.42400399D-18
 -0.65016824D-04  0.84546275D-04 -0.19529451D-04  0.86223429D-04  0.27342610D-18
  0.19483933D-18 -0.33971369D-04  0.11747479D-04  0.22223891D-04  0.44507735D-04