 Molden2AIM, Version 4.0.0 (06/02/2016)           Time: Sun Jul  1 16:51:32 2018
GAUSSIAN             18 MOL ORBITALS    483 PRIMITIVES        9 NUCLEI
  H    1    (CENTRE  1)   0.00000000  4.00801840  1.34448534  CHARGE =  1.0
  H    2    (CENTRE  2)   0.00000000  2.27538899 -3.60087124  CHARGE =  1.0
  H    3    (CENTRE  3)   0.00000000 -3.97701556  1.25378793  CHARGE =  1.0
  H    4    (CENTRE  4)   0.00000000 -0.02663947  3.98897185  CHARGE =  1.0
  C    5    (CENTRE  5)   0.00000000  2.10992646  0.57551609  CHARGE =  6.0
  C    6    (CENTRE  6)   0.00000000  1.19873265 -1.85468115  CHARGE =  6.0
  C    7    (CENTRE  7)   0.00000000 -2.05581415  0.53571090  CHARGE =  6.0
  N    8    (CENTRE  8)   0.00000000 -1.39582730 -1.85844927  CHARGE =  7.0
  N    9    (CENTRE  9)   0.00000000 -0.00257192  2.08433012  CHARGE =  7.0
CENTRE ASSIGNMENTS    1  1  1  1  1  1  1  1  1  1  1  1  1  1  1  1  1  1  1  1
CENTRE ASSIGNMENTS    1  1  1  1  1  1  1  2  2  2  2  2  2  2  2  2  2  2  2  2
CENTRE ASSIGNMENTS    2  2  2  2  2  2  2  2  2  2  2  2  2  2  3  3  3  3  3  3
CENTRE ASSIGNMENTS    3  3  3  3  3  3  3  3  3  3  3  3  3  3  3  3  3  3  3  3
CENTRE ASSIGNMENTS    3  4  4  4  4  4  4  4  4  4  4  4  4  4  4  4  4  4  4  4
CENTRE ASSIGNMENTS    4  4  4  4  4  4  4  4  5  5  5  5  5  5  5  5  5  5  5  5
CENTRE ASSIGNMENTS    5  5  5  5  5  5  5  5  5  5  5  5  5  5  5  5  5  5  5  5
CENTRE ASSIGNMENTS    5  5  5  5  5  5  5  5  5  5  5  5  5  5  5  5  5  5  5  5
CENTRE ASSIGNMENTS    5  5  5  5  5  5  5  5  5  5  5  5  5  5  5  5  5  5  5  5
CENTRE ASSIGNMENTS    5  5  5  6  6  6  6  6  6  6  6  6  6  6  6  6  6  6  6  6
CENTRE ASSIGNMENTS    6  6  6  6  6  6  6  6  6  6  6  6  6  6  6  6  6  6  6  6
CENTRE ASSIGNMENTS    6  6  6  6  6  6  6  6  6  6  6  6  6  6  6  6  6  6  6  6
CENTRE ASSIGNMENTS    6  6  6  6  6  6  6  6  6  6  6  6  6  6  6  6  6  6  7  7
CENTRE ASSIGNMENTS    7  7  7  7  7  7  7  7  7  7  7  7  7  7  7  7  7  7  7  7
CENTRE ASSIGNMENTS    7  7  7  7  7  7  7  7  7  7  7  7  7  7  7  7  7  7  7  7
CENTRE ASSIGNMENTS    7  7  7  7  7  7  7  7  7  7  7  7  7  7  7  7  7  7  7  7
CENTRE ASSIGNMENTS    7  7  7  7  7  7  7  7  7  7  7  7  7  8  8  8  8  8  8  8
CENTRE ASSIGNMENTS    8  8  8  8  8  8  8  8  8  8  8  8  8  8  8  8  8  8  8  8
CENTRE ASSIGNMENTS    8  8  8  8  8  8  8  8  8  8  8  8  8  8  8  8  8  8  8  8
CENTRE ASSIGNMENTS    8  8  8  8  8  8  8  8  8  8  8  8  8  8  8  8  8  8  8  8
CENTRE ASSIGNMENTS    8  8  8  8  8  8  8  8  9  9  9  9  9  9  9  9  9  9  9  9
CENTRE ASSIGNMENTS    9  9  9  9  9  9  9  9  9  9  9  9  9  9  9  9  9  9  9  9
CENTRE ASSIGNMENTS    9  9  9  9  9  9  9  9  9  9  9  9  9  9  9  9  9  9  9  9
CENTRE ASSIGNMENTS    9  9  9  9  9  9  9  9  9  9  9  9  9  9  9  9  9  9  9  9
CENTRE ASSIGNMENTS    9  9  9
TYPE ASSIGNMENTS      1  1  1  1  1  1  2  3  4  2  3  4  2  3  4  5  6  7  8  9
TYPE ASSIGNMENTS     10  5  6  7  8  9 10  1  1  1  1  1  1  2  3  4  2  3  4  2
TYPE ASSIGNMENTS      3  4  5  6  7  8  9 10  5  6  7  8  9 10  1  1  1  1  1  1
TYPE ASSIGNMENTS      2  3  4  2  3  4  2  3  4  5  6  7  8  9 10  5  6  7  8  9
TYPE ASSIGNMENTS     10  1  1  1  1  1  1  2  3  4  2  3  4  2  3  4  5  6  7  8
TYPE ASSIGNMENTS      9 10  5  6  7  8  9 10  1  1  1  1  1  1  1  1  1  1  1  1
TYPE ASSIGNMENTS      1  1  1  1  1  1  1  2  2  2  3  3  3  4  4  4  2  3  4  2
TYPE ASSIGNMENTS      3  4  2  3  4  5  6  7  8  9 10  5  6  7  8  9 10  5  6  7
TYPE ASSIGNMENTS      8  9 10 11 12 13 17 14 15 18 19 16 20 11 12 13 17 14 15 18
TYPE ASSIGNMENTS     19 16 20  1  1  1  1  1  1  1  1  1  1  1  1  1  1  1  1  1
TYPE ASSIGNMENTS      1  1  2  2  2  3  3  3  4  4  4  2  3  4  2  3  4  2  3  4
TYPE ASSIGNMENTS      5  6  7  8  9 10  5  6  7  8  9 10  5  6  7  8  9 10 11 12
TYPE ASSIGNMENTS     13 17 14 15 18 19 16 20 11 12 13 17 14 15 18 19 16 20  1  1
TYPE ASSIGNMENTS      1  1  1  1  1  1  1  1  1  1  1  1  1  1  1  1  1  2  2  2
TYPE ASSIGNMENTS      3  3  3  4  4  4  2  3  4  2  3  4  2  3  4  5  6  7  8  9
TYPE ASSIGNMENTS     10  5  6  7  8  9 10  5  6  7  8  9 10 11 12 13 17 14 15 18
TYPE ASSIGNMENTS     19 16 20 11 12 13 17 14 15 18 19 16 20  1  1  1  1  1  1  1
TYPE ASSIGNMENTS      1  1  1  1  1  1  1  1  1  1  1  1  2  2  2  3  3  3  4  4
TYPE ASSIGNMENTS      4  2  3  4  2  3  4  2  3  4  5  6  7  8  9 10  5  6  7  8
TYPE ASSIGNMENTS      9 10  5  6  7  8  9 10 11 12 13 17 14 15 18 19 16 20 11 12
TYPE ASSIGNMENTS     13 17 14 15 18 19 16 20  1  1  1  1  1  1  1  1  1  1  1  1
TYPE ASSIGNMENTS      1  1  1  1  1  1  1  2  2  2  3  3  3  4  4  4  2  3  4  2
TYPE ASSIGNMENTS      3  4  2  3  4  5  6  7  8  9 10  5  6  7  8  9 10  5  6  7
TYPE ASSIGNMENTS      8  9 10 11 12 13 17 14 15 18 19 16 20 11 12 13 17 14 15 18
TYPE ASSIGNMENTS     19 16 20
EXPONENTS  0.3387000D+02 0.5095000D+01 0.1159000D+01 0.3258000D+00 0.1027000D+00
EXPONENTS  0.2526000D-01 0.1407000D+01 0.1407000D+01 0.1407000D+01 0.3880000D+00
EXPONENTS  0.3880000D+00 0.3880000D+00 0.1020000D+00 0.1020000D+00 0.1020000D+00
EXPONENTS  0.1057000D+01 0.1057000D+01 0.1057000D+01 0.1057000D+01 0.1057000D+01
EXPONENTS  0.1057000D+01 0.2470000D+00 0.2470000D+00 0.2470000D+00 0.2470000D+00
EXPONENTS  0.2470000D+00 0.2470000D+00 0.3387000D+02 0.5095000D+01 0.1159000D+01
EXPONENTS  0.3258000D+00 0.1027000D+00 0.2526000D-01 0.1407000D+01 0.1407000D+01
EXPONENTS  0.1407000D+01 0.3880000D+00 0.3880000D+00 0.3880000D+00 0.1020000D+00
EXPONENTS  0.1020000D+00 0.1020000D+00 0.1057000D+01 0.1057000D+01 0.1057000D+01
EXPONENTS  0.1057000D+01 0.1057000D+01 0.1057000D+01 0.2470000D+00 0.2470000D+00
EXPONENTS  0.2470000D+00 0.2470000D+00 0.2470000D+00 0.2470000D+00 0.3387000D+02
EXPONENTS  0.5095000D+01 0.1159000D+01 0.3258000D+00 0.1027000D+00 0.2526000D-01
EXPONENTS  0.1407000D+01 0.1407000D+01 0.1407000D+01 0.3880000D+00 0.3880000D+00
EXPONENTS  0.3880000D+00 0.1020000D+00 0.1020000D+00 0.1020000D+00 0.1057000D+01
EXPONENTS  0.1057000D+01 0.1057000D+01 0.1057000D+01 0.1057000D+01 0.1057000D+01
EXPONENTS  0.2470000D+00 0.2470000D+00 0.2470000D+00 0.2470000D+00 0.2470000D+00
EXPONENTS  0.2470000D+00 0.3387000D+02 0.5095000D+01 0.1159000D+01 0.3258000D+00
EXPONENTS  0.1027000D+00 0.2526000D-01 0.1407000D+01 0.1407000D+01 0.1407000D+01
EXPONENTS  0.3880000D+00 0.3880000D+00 0.3880000D+00 0.1020000D+00 0.1020000D+00
EXPONENTS  0.1020000D+00 0.1057000D+01 0.1057000D+01 0.1057000D+01 0.1057000D+01
EXPONENTS  0.1057000D+01 0.1057000D+01 0.2470000D+00 0.2470000D+00 0.2470000D+00
EXPONENTS  0.2470000D+00 0.2470000D+00 0.2470000D+00 0.8236000D+04 0.1235000D+04
EXPONENTS  0.2808000D+03 0.7927000D+02 0.2559000D+02 0.8997000D+01 0.3319000D+01
EXPONENTS  0.3643000D+00 0.8236000D+04 0.1235000D+04 0.2808000D+03 0.7927000D+02
EXPONENTS  0.2559000D+02 0.8997000D+01 0.3319000D+01 0.3643000D+00 0.9059000D+00
EXPONENTS  0.1285000D+00 0.4402000D-01 0.1871000D+02 0.4133000D+01 0.1200000D+01
EXPONENTS  0.1871000D+02 0.4133000D+01 0.1200000D+01 0.1871000D+02 0.4133000D+01
EXPONENTS  0.1200000D+01 0.3827000D+00 0.3827000D+00 0.3827000D+00 0.1209000D+00
EXPONENTS  0.1209000D+00 0.1209000D+00 0.3569000D-01 0.3569000D-01 0.3569000D-01
EXPONENTS  0.1097000D+01 0.1097000D+01 0.1097000D+01 0.1097000D+01 0.1097000D+01
EXPONENTS  0.1097000D+01 0.3180000D+00 0.3180000D+00 0.3180000D+00 0.3180000D+00
EXPONENTS  0.3180000D+00 0.3180000D+00 0.1000000D+00 0.1000000D+00 0.1000000D+00
EXPONENTS  0.1000000D+00 0.1000000D+00 0.1000000D+00 0.7610000D+00 0.7610000D+00
EXPONENTS  0.7610000D+00 0.7610000D+00 0.7610000D+00 0.7610000D+00 0.7610000D+00
EXPONENTS  0.7610000D+00 0.7610000D+00 0.7610000D+00 0.2680000D+00 0.2680000D+00
EXPONENTS  0.2680000D+00 0.2680000D+00 0.2680000D+00 0.2680000D+00 0.2680000D+00
EXPONENTS  0.2680000D+00 0.2680000D+00 0.2680000D+00 0.8236000D+04 0.1235000D+04
EXPONENTS  0.2808000D+03 0.7927000D+02 0.2559000D+02 0.8997000D+01 0.3319000D+01
EXPONENTS  0.3643000D+00 0.8236000D+04 0.1235000D+04 0.2808000D+03 0.7927000D+02
EXPONENTS  0.2559000D+02 0.8997000D+01 0.3319000D+01 0.3643000D+00 0.9059000D+00
EXPONENTS  0.1285000D+00 0.4402000D-01 0.1871000D+02 0.4133000D+01 0.1200000D+01
EXPONENTS  0.1871000D+02 0.4133000D+01 0.1200000D+01 0.1871000D+02 0.4133000D+01
EXPONENTS  0.1200000D+01 0.3827000D+00 0.3827000D+00 0.3827000D+00 0.1209000D+00
EXPONENTS  0.1209000D+00 0.1209000D+00 0.3569000D-01 0.3569000D-01 0.3569000D-01
EXPONENTS  0.1097000D+01 0.1097000D+01 0.1097000D+01 0.1097000D+01 0.1097000D+01
EXPONENTS  0.1097000D+01 0.3180000D+00 0.3180000D+00 0.3180000D+00 0.3180000D+00
EXPONENTS  0.3180000D+00 0.3180000D+00 0.1000000D+00 0.1000000D+00 0.1000000D+00
EXPONENTS  0.1000000D+00 0.1000000D+00 0.1000000D+00 0.7610000D+00 0.7610000D+00
EXPONENTS  0.7610000D+00 0.7610000D+00 0.7610000D+00 0.7610000D+00 0.7610000D+00
EXPONENTS  0.7610000D+00 0.7610000D+00 0.7610000D+00 0.2680000D+00 0.2680000D+00
EXPONENTS  0.2680000D+00 0.2680000D+00 0.2680000D+00 0.2680000D+00 0.2680000D+00
EXPONENTS  0.2680000D+00 0.2680000D+00 0.2680000D+00 0.8236000D+04 0.1235000D+04
EXPONENTS  0.2808000D+03 0.7927000D+02 0.2559000D+02 0.8997000D+01 0.3319000D+01
EXPONENTS  0.3643000D+00 0.8236000D+04 0.1235000D+04 0.2808000D+03 0.7927000D+02
EXPONENTS  0.2559000D+02 0.8997000D+01 0.3319000D+01 0.3643000D+00 0.9059000D+00
EXPONENTS  0.1285000D+00 0.4402000D-01 0.1871000D+02 0.4133000D+01 0.1200000D+01
EXPONENTS  0.1871000D+02 0.4133000D+01 0.1200000D+01 0.1871000D+02 0.4133000D+01
EXPONENTS  0.1200000D+01 0.3827000D+00 0.3827000D+00 0.3827000D+00 0.1209000D+00
EXPONENTS  0.1209000D+00 0.1209000D+00 0.3569000D-01 0.3569000D-01 0.3569000D-01
EXPONENTS  0.1097000D+01 0.1097000D+01 0.1097000D+01 0.1097000D+01 0.1097000D+01
EXPONENTS  0.1097000D+01 0.3180000D+00 0.3180000D+00 0.3180000D+00 0.3180000D+00
EXPONENTS  0.3180000D+00 0.3180000D+00 0.1000000D+00 0.1000000D+00 0.1000000D+00
EXPONENTS  0.1000000D+00 0.1000000D+00 0.1000000D+00 0.7610000D+00 0.7610000D+00
EXPONENTS  0.7610000D+00 0.7610000D+00 0.7610000D+00 0.7610000D+00 0.7610000D+00
EXPONENTS  0.7610000D+00 0.7610000D+00 0.7610000D+00 0.2680000D+00 0.2680000D+00
EXPONENTS  0.2680000D+00 0.2680000D+00 0.2680000D+00 0.2680000D+00 0.2680000D+00
EXPONENTS  0.2680000D+00 0.2680000D+00 0.2680000D+00 0.1142000D+05 0.1712000D+04
EXPONENTS  0.3893000D+03 0.1100000D+03 0.3557000D+02 0.1254000D+02 0.4644000D+01
EXPONENTS  0.5118000D+00 0.1142000D+05 0.1712000D+04 0.3893000D+03 0.1100000D+03
EXPONENTS  0.3557000D+02 0.1254000D+02 0.4644000D+01 0.5118000D+00 0.1293000D+01
EXPONENTS  0.1787000D+00 0.5760000D-01 0.2663000D+02 0.5948000D+01 0.1742000D+01
EXPONENTS  0.2663000D+02 0.5948000D+01 0.1742000D+01 0.2663000D+02 0.5948000D+01
EXPONENTS  0.1742000D+01 0.5550000D+00 0.5550000D+00 0.5550000D+00 0.1725000D+00
EXPONENTS  0.1725000D+00 0.1725000D+00 0.4910000D-01 0.4910000D-01 0.4910000D-01
EXPONENTS  0.1654000D+01 0.1654000D+01 0.1654000D+01 0.1654000D+01 0.1654000D+01
EXPONENTS  0.1654000D+01 0.4690000D+00 0.4690000D+00 0.4690000D+00 0.4690000D+00
EXPONENTS  0.4690000D+00 0.4690000D+00 0.1510000D+00 0.1510000D+00 0.1510000D+00
EXPONENTS  0.1510000D+00 0.1510000D+00 0.1510000D+00 0.1093000D+01 0.1093000D+01
EXPONENTS  0.1093000D+01 0.1093000D+01 0.1093000D+01 0.1093000D+01 0.1093000D+01
EXPONENTS  0.1093000D+01 0.1093000D+01 0.1093000D+01 0.3640000D+00 0.3640000D+00
EXPONENTS  0.3640000D+00 0.3640000D+00 0.3640000D+00 0.3640000D+00 0.3640000D+00
EXPONENTS  0.3640000D+00 0.3640000D+00 0.3640000D+00 0.1142000D+05 0.1712000D+04
EXPONENTS  0.3893000D+03 0.1100000D+03 0.3557000D+02 0.1254000D+02 0.4644000D+01
EXPONENTS  0.5118000D+00 0.1142000D+05 0.1712000D+04 0.3893000D+03 0.1100000D+03
EXPONENTS  0.3557000D+02 0.1254000D+02 0.4644000D+01 0.5118000D+00 0.1293000D+01
EXPONENTS  0.1787000D+00 0.5760000D-01 0.2663000D+02 0.5948000D+01 0.1742000D+01
EXPONENTS  0.2663000D+02 0.5948000D+01 0.1742000D+01 0.2663000D+02 0.5948000D+01
EXPONENTS  0.1742000D+01 0.5550000D+00 0.5550000D+00 0.5550000D+00 0.1725000D+00
EXPONENTS  0.1725000D+00 0.1725000D+00 0.4910000D-01 0.4910000D-01 0.4910000D-01
EXPONENTS  0.1654000D+01 0.1654000D+01 0.1654000D+01 0.1654000D+01 0.1654000D+01
EXPONENTS  0.1654000D+01 0.4690000D+00 0.4690000D+00 0.4690000D+00 0.4690000D+00
EXPONENTS  0.4690000D+00 0.4690000D+00 0.1510000D+00 0.1510000D+00 0.1510000D+00
EXPONENTS  0.1510000D+00 0.1510000D+00 0.1510000D+00 0.1093000D+01 0.1093000D+01
EXPONENTS  0.1093000D+01 0.1093000D+01 0.1093000D+01 0.1093000D+01 0.1093000D+01
EXPONENTS  0.1093000D+01 0.1093000D+01 0.1093000D+01 0.3640000D+00 0.3640000D+00
EXPONENTS  0.3640000D+00 0.3640000D+00 0.3640000D+00 0.3640000D+00 0.3640000D+00
EXPONENTS  0.3640000D+00 0.3640000D+00 0.3640000D+00
MO    1     MO 0.0        OCC NO =    2.0000000  ORB. ENERGY =  -15.624628
  0.11811637D-04  0.21302774D-04  0.31410928D-04  0.36721276D-03  0.29805629D-03
 -0.18304125D-05 -0.13444104D-15 -0.15645558D-03 -0.52136086D-04  0.69763267D-16
 -0.23482521D-03  0.81358370D-04 -0.90031007D-17 -0.61210301D-05 -0.66299579D-04
  0.29559770D-05  0.79011846D-04 -0.81967823D-04  0.81878220D-16  0.84119143D-16
  0.20831538D-04  0.43752037D-05  0.10661517D-05 -0.54413554D-05  0.19251813D-18
  0.24041285D-18 -0.44530229D-05 -0.10219034D-04 -0.18430448D-04 -0.27175685D-04
  0.10967117D-03 -0.33210516D-05  0.50776296D-05  0.89287104D-18  0.51915073D-04
 -0.50115907D-04 -0.15749150D-17  0.60615745D-04  0.11977986D-03 -0.50839625D-18
  0.69623173D-05  0.25607245D-04  0.12465929D-04 -0.62658407D-04  0.50192478D-04
 -0.39638787D-18  0.13661045D-17  0.11991044D-03 -0.47130951D-05 -0.14516733D-05
  0.61647684D-05  0.26771317D-18 -0.38471038D-18  0.89953464D-05  0.13905340D-04
  0.25078853D-04  0.36978753D-04  0.50925030D-03  0.31699657D-03  0.35762274D-05
 -0.58505823D-18  0.15277194D-03 -0.49947064D-04  0.10228630D-17  0.24679206D-03
  0.69183115D-04  0.30707441D-18  0.17252047D-04 -0.75729672D-04  0.27719760D-04
  0.57703002D-04 -0.85422763D-04 -0.70075990D-18  0.97457410D-19 -0.29004107D-04
  0.77818265D-05 -0.35296758D-05 -0.42521507D-05  0.54478604D-18 -0.21409161D-18
  0.65755503D-05  0.14957752D-03  0.26976921D-03  0.39777454D-03  0.83887995D-03
  0.32941897D-04  0.44412549D-05  0.67721855D-18 -0.39026624D-06  0.67236857D-03
 -0.28548851D-18  0.32174234D-04  0.35121655D-03 -0.67511046D-18  0.73854984D-05
  0.51801869D-04  0.66031325D-03  0.49244928D-03 -0.11527625D-02  0.15288685D-18
 -0.10606527D-17  0.15963020D-04  0.57178944D-04  0.47870707D-06 -0.57657651D-04
  0.30896549D-19  0.69736565D-18  0.20639175D-05  0.15004325D-03  0.27971473D-03
  0.47276717D-03  0.71072392D-03  0.87320645D-03  0.73756244D-03  0.27818142D-03
 -0.13767354D-05 -0.11463690D-03 -0.21463645D-03 -0.36543691D-03 -0.56527534D-03
 -0.74444774D-03 -0.77352888D-03 -0.49154288D-03  0.32942061D-03  0.31151343D-03
 -0.11672808D-02 -0.33418453D-04  0.89562900D-18  0.83970912D-18  0.59792292D-18
 -0.32306989D-03 -0.30289855D-03 -0.21568181D-03  0.25038543D-03  0.23475225D-03
  0.16715759D-03 -0.78309365D-18 -0.75228889D-03  0.72055755D-03  0.10117066D-17
  0.17434813D-03 -0.31058407D-04 -0.24924371D-19 -0.35975990D-06  0.10279072D-04
 -0.11109948D-03  0.51936352D-04  0.59163131D-04  0.48571341D-17  0.83266694D-18
 -0.57304542D-03  0.92818228D-04  0.32955780D-04 -0.12577401D-03 -0.19933578D-17
 -0.18627516D-17 -0.32003076D-03  0.36236048D-05 -0.50719096D-04  0.47095491D-04
 -0.24163997D-18  0.31625387D-18  0.75040909D-05  0.29736142D-18  0.37280107D-04
  0.10951149D-03 -0.16896570D-17 -0.83116708D-04  0.12135958D-03  0.79757275D-18
 -0.28723614D-04 -0.44989405D-03  0.90002807D-18 -0.44646434D-19  0.19211551D-04
  0.97216828D-06 -0.45130892D-19 -0.79875836D-05  0.10506606D-04  0.17907019D-18
 -0.49647070D-04 -0.13423111D-04 -0.51421211D-18  0.84155412D-05  0.15688482D-04
  0.26516299D-04  0.39862682D-04  0.48975911D-04  0.41367986D-04  0.15602482D-04
 -0.77217556D-07 -0.61807848D-05 -0.11572379D-04 -0.19702966D-04 -0.30477492D-04
 -0.40137785D-04 -0.41705730D-04 -0.26502119D-04  0.17761104D-04 -0.12923864D-04
  0.14533562D-03  0.75533799D-04  0.11635792D-17  0.10909295D-17  0.77680679D-18
 -0.56218482D-04 -0.52708400D-04 -0.37531521D-04  0.37317945D-04  0.34987946D-04
  0.24913502D-04 -0.78662135D-18  0.21110434D-03  0.21794394D-03  0.27180930D-18
 -0.43994354D-04  0.25084976D-03  0.78867968D-20  0.72343631D-06  0.18509053D-05
 -0.68572053D-05 -0.64306509D-04  0.71163714D-04  0.22952200D-19  0.62134526D-18
 -0.45057038D-04 -0.22343874D-04  0.66070163D-04 -0.43726288D-04 -0.12624231D-18
 -0.13506367D-17  0.29172709D-03 -0.99964510D-05 -0.16515986D-04  0.26512437D-04
  0.32673573D-18 -0.10452666D-18 -0.19185203D-04  0.20600304D-18 -0.75994507D-04
 -0.10996872D-03  0.15883234D-17 -0.35904456D-04  0.73128333D-04 -0.22063325D-17
  0.26388798D-03  0.25677782D-03  0.20357199D-17  0.50936664D-19 -0.24356905D-04
 -0.18110333D-04 -0.45031602D-18  0.31406065D-05 -0.50541555D-05  0.29750603D-18
  0.69930109D-04  0.59385155D-04 -0.12668424D-17  0.14807360D-03  0.27604286D-03
  0.46656106D-03  0.70139411D-03  0.86174370D-03  0.72788031D-03  0.27452967D-03
 -0.13586627D-05 -0.11296631D-03 -0.21150857D-03 -0.36011144D-03 -0.55703763D-03
 -0.73359897D-03 -0.76225632D-03 -0.48437967D-03  0.32461999D-03  0.36075530D-03
 -0.55292498D-03 -0.12344952D-03  0.47652100D-18  0.44676872D-18  0.31812595D-18
  0.38059408D-03  0.35683114D-03  0.25408503D-03  0.28357043D-03  0.26586530D-03
  0.18931193D-03 -0.87219798D-18  0.56781429D-03  0.73419947D-03 -0.12398321D-17
  0.10958248D-03 -0.61072985D-04 -0.43765160D-19 -0.67467955D-06  0.45610717D-05
 -0.62324753D-04  0.34465941D-04  0.27858812D-04 -0.84927440D-19  0.24000368D-19
  0.48931785D-03  0.10831012D-03 -0.10107359D-03 -0.72365272D-05  0.19086967D-18
 -0.22831724D-18  0.43216863D-03  0.13268205D-05 -0.33814512D-04  0.32487691D-04
 -0.12210356D-18  0.47065008D-19 -0.42361457D-04 -0.11199975D-18 -0.29751248D-04
  0.11766872D-03  0.37998391D-21  0.13891657D-03  0.11657053D-03  0.33561928D-18
 -0.49662827D-04 -0.46957668D-03 -0.15629031D-17  0.18627570D-18 -0.18624281D-04
  0.44688396D-05 -0.26138183D-18  0.52498041D-05  0.18853508D-04 -0.29744526D-18
  0.50623039D-04 -0.32260027D-04  0.11559585D-18 -0.79530990D-04 -0.14819429D-03
 -0.25063369D-03 -0.37744045D-03 -0.46729577D-03 -0.39764761D-03 -0.15131225D-03
  0.70865982D-06 -0.82282995D-05 -0.15428138D-04 -0.26247854D-04 -0.40760146D-04
 -0.54091084D-04 -0.57004578D-04 -0.35346475D-04  0.23512489D-04 -0.38960286D-04
  0.10062831D-04  0.63540480D-04  0.10985398D-17  0.10551344D-17  0.73993306D-18
  0.98638640D-04  0.94741235D-04  0.66439093D-04 -0.45203041D-04 -0.43416981D-04
 -0.30446984D-04 -0.64401134D-18 -0.21927052D-03  0.24591755D-03  0.15674259D-17
 -0.32169280D-04  0.10599933D-06  0.10310244D-18 -0.96569178D-05  0.58016810D-05
 -0.16247392D-04 -0.12352764D-03  0.13977503D-03 -0.21040781D-18 -0.23907788D-17
  0.12459514D-03 -0.36234150D-04  0.90098339D-05  0.27224316D-04  0.14987989D-18
  0.70466654D-18 -0.24382105D-03 -0.15092802D-04  0.83183135D-05  0.67744884D-05
  0.23518214D-18 -0.60668267D-19 -0.57404083D-04  0.36182484D-18  0.43427838D-04
 -0.33017258D-04 -0.66966865D-18  0.82739329D-04  0.66816174D-04 -0.41580587D-18
 -0.21302284D-03  0.32235599D-04  0.14096917D-17 -0.10248338D-18  0.27318995D-04
  0.58402312D-05  0.31009234D-18 -0.25702268D-04  0.17565683D-04 -0.26421876D-20
 -0.56254716D-04 -0.35086377D-04 -0.19791588D-18  0.41150226D+00  0.76677388D+00
  0.12968069D+01  0.19529193D+01  0.24178407D+01  0.20574734D+01  0.78290657D+00
 -0.36666855D-02 -0.46350263D-04 -0.86907176D-04 -0.14785496D-03 -0.22960315D-03
 -0.30469673D-03 -0.32110853D-03 -0.19910777D-03  0.13244657D-03  0.37118857D-01
  0.44762722D-03  0.15670792D-04 -0.14710350D-16 -0.14129116D-16 -0.99083112D-17
  0.92850929D-04  0.89182207D-04  0.62540719D-04 -0.52090563D-04 -0.50032363D-04
 -0.35086147D-04  0.17706278D-17 -0.96976097D-04  0.92564327D-03 -0.51029964D-19
  0.15166729D-03 -0.64408352D-03  0.10371308D-18 -0.15289249D-04 -0.34680096D-04
 -0.16642099D-02  0.18751266D-03  0.14766973D-02  0.14482731D-17 -0.22389060D-18
  0.13074548D-04  0.39613015D-03 -0.39237432D-03 -0.37558341D-05 -0.19429337D-18
  0.38500560D-19  0.47399048D-04  0.46046996D-04 -0.44986287D-05 -0.41548368D-04
 -0.46969307D-18  0.32330103D-18 -0.47259262D-04 -0.27937199D-18  0.25391596D-04
  0.96013189D-03  0.87094299D-19  0.38257150D-04 -0.83350819D-03  0.75102168D-18
 -0.11443194D-03 -0.20468875D-02  0.17754791D-17 -0.29856853D-19  0.10296334D-04
 -0.30023826D-03  0.40948071D-18 -0.88210421D-05  0.17413625D-03 -0.31991015D-18
 -0.22067958D-04  0.72657853D-03 -0.10630413D-18
MO    2     MO 0.0        OCC NO =    2.0000000  ORB. ENERGY =  -15.546053
 -0.89099598D-05 -0.16069479D-04 -0.23694438D-04  0.21264236D-03 -0.28403036D-03
  0.10068087D-05  0.33492849D-16  0.13484590D-03  0.15063500D-04 -0.20904221D-17
 -0.25539795D-03 -0.53748448D-04 -0.44401961D-17  0.44658444D-04  0.14324795D-04
 -0.20413302D-05 -0.47213723D-04  0.49255053D-04 -0.11159531D-16 -0.18289368D-15
  0.41052453D-04 -0.10619895D-04  0.38935093D-05  0.67263855D-05  0.12086125D-17
  0.15676327D-17  0.25236553D-04  0.24161224D-04  0.43575763D-04  0.64252437D-04
  0.54165982D-03  0.64160468D-03  0.75089464D-05  0.68420893D-18 -0.10902479D-03
  0.22089231D-03 -0.13890438D-17  0.21690371D-04  0.26771824D-05 -0.49181053D-19
  0.75606909D-05  0.11771911D-03  0.32130793D-04 -0.11773149D-03  0.85600698D-04
 -0.51968758D-18  0.11047032D-17 -0.31565230D-04  0.10599858D-04 -0.59908885D-05
 -0.46089690D-05  0.51681153D-18 -0.69853728D-19  0.29152453D-04  0.27427439D-04
  0.49466516D-04  0.72938349D-04  0.83193143D-03  0.60934317D-03  0.68407290D-05
 -0.16108167D-17  0.33189881D-03 -0.71770825D-04  0.25738749D-17  0.18255933D-03
 -0.27547065D-03  0.22871594D-18  0.12399596D-03  0.44985233D-04 -0.11807271D-04
  0.11088450D-03 -0.99077225D-04  0.32614638D-18 -0.20972330D-18 -0.20474096D-03
 -0.48279962D-06  0.92930503D-05 -0.88102507D-05  0.81923755D-18 -0.21560712D-18
  0.43709041D-05 -0.89269928D-05 -0.16100199D-04 -0.23739734D-04  0.18336283D-03
  0.15411756D-03 -0.72794784D-05 -0.62407189D-19 -0.20894735D-04 -0.42682234D-04
  0.64475680D-18 -0.40463451D-03 -0.16031441D-03 -0.65748922D-18 -0.52714956D-04
 -0.37937206D-04 -0.54958132D-04  0.23779553D-04  0.31178579D-04 -0.23365546D-18
 -0.10392446D-17  0.25251584D-03 -0.40077614D-05 -0.59093676D-05  0.99171290D-05
  0.29330663D-18  0.15882122D-18  0.82627087D-04 -0.64407197D-05 -0.12006966D-04
 -0.20293888D-04 -0.30508361D-04 -0.37483046D-04 -0.31660424D-04 -0.11941147D-04
  0.59097404D-07  0.47717370D-05  0.89341973D-05  0.15211235D-04  0.23529468D-04
  0.30987482D-04  0.32197978D-04  0.20460370D-04 -0.13712064D-04  0.79974934D-05
 -0.11733240D-02  0.24260815D-03 -0.25571118D-17 -0.23974548D-17 -0.17071307D-17
 -0.11711667D-03 -0.10980433D-03 -0.78187222D-04  0.33973647D-04  0.31852453D-04
  0.22680844D-04 -0.72077812D-18  0.27763695D-03 -0.66303618D-03  0.45285220D-17
  0.48996038D-03  0.36156743D-03  0.63311343D-19 -0.12013221D-04 -0.17924286D-05
 -0.22773115D-04  0.33664584D-04 -0.10891469D-04  0.10684926D-17  0.16993384D-17
  0.27614650D-03  0.74463996D-04 -0.47525185D-03  0.40078785D-03 -0.10851164D-17
 -0.21495528D-17 -0.27797093D-04 -0.47695479D-05 -0.11922440D-04  0.16691988D-04
 -0.21944907D-19  0.23703374D-18 -0.59499507D-04  0.13229896D-17  0.25512561D-04
 -0.69810187D-04 -0.51385580D-17 -0.13633810D-03 -0.35774027D-05  0.11695892D-17
  0.59800421D-04  0.21300796D-03 -0.28154747D-17 -0.17964824D-18  0.74407537D-04
 -0.47783328D-05  0.19141429D-18 -0.12537389D-04 -0.29625842D-04  0.34753042D-18
 -0.21068522D-03  0.43960841D-04 -0.90741981D-18  0.12821148D-03  0.23901536D-03
  0.40397806D-03  0.60731135D-03  0.74615216D-03  0.63024478D-03  0.23770514D-03
 -0.11764160D-05 -0.97605279D-04 -0.18274788D-03 -0.31114390D-03 -0.48129230D-03
 -0.63384503D-03 -0.65860559D-03 -0.41851429D-03  0.28047854D-03  0.48508752D-04
  0.30543261D-03 -0.24956629D-03  0.26961464D-18  0.25278086D-18  0.17999503D-18
 -0.14369132D-03 -0.13471975D-03 -0.95928485D-04 -0.58511104D-04 -0.54857879D-04
 -0.39062078D-04 -0.97293119D-18 -0.13825776D-02 -0.29691498D-03 -0.17453161D-17
 -0.12617100D-03  0.78331223D-03 -0.36494678D-19  0.54044747D-05  0.32207028D-06
 -0.24565113D-03  0.59456025D-03 -0.34890911D-03  0.58378121D-19  0.46300428D-18
  0.45874377D-04 -0.26598670D-04  0.22370616D-03 -0.19710749D-03  0.51453987D-20
 -0.14053787D-17 -0.43026451D-03  0.90744744D-05 -0.60177954D-04  0.51103480D-04
  0.53764616D-20 -0.11988754D-18  0.42595524D-05  0.35556597D-18  0.34738962D-04
 -0.15503135D-04  0.17575311D-17  0.16184660D-03 -0.56844376D-04 -0.28242290D-17
 -0.26606348D-03  0.10335378D-03  0.31981816D-17  0.13499590D-18  0.50396928D-04
 -0.12569434D-04 -0.10111319D-17  0.30052324D-04 -0.81873271D-04  0.60614420D-18
 -0.18124311D-03  0.11958157D-03 -0.18582003D-17  0.19173806D-03  0.35744333D-03
  0.60414220D-03  0.90822362D-03  0.11158577D-02  0.94252018D-03  0.35548393D-03
 -0.17593098D-05 -0.14389099D-03 -0.26940933D-03 -0.45869244D-03 -0.70952745D-03
 -0.93442270D-03 -0.97092503D-03 -0.61697927D-03  0.41348516D-03  0.35017770D-03
 -0.96625979D-03 -0.33934499D-05  0.11653474D-18  0.10925872D-18  0.77798720D-19
 -0.28180625D-04 -0.26421128D-04 -0.18813417D-04 -0.43596169D-03 -0.40874179D-03
 -0.29104851D-03 -0.10814209D-17  0.67894000D-03 -0.10644757D-02 -0.15494602D-17
  0.37543117D-03  0.34488904D-04 -0.34558520D-19  0.10428465D-05 -0.43554713D-05
 -0.14563229D-03 -0.25532705D-03  0.40095934D-03 -0.44464758D-18 -0.57017291D-19
 -0.30217222D-03  0.90400553D-04  0.94529628D-04 -0.18493018D-03  0.13380223D-17
  0.45232040D-18 -0.97287700D-04  0.15228597D-04  0.34614421D-04 -0.49843018D-04
 -0.24946391D-18  0.15645776D-19  0.70552170D-04 -0.28923033D-18  0.18606648D-03
  0.16426034D-03  0.29532356D-18 -0.10524486D-03 -0.74429732D-04  0.57236742D-18
 -0.45295456D-03 -0.41835130D-03 -0.68881352D-18  0.31080266D-18  0.95662015D-04
  0.25697880D-04 -0.41437897D-18 -0.83734231D-04 -0.39308571D-05 -0.51802903D-18
 -0.20325181D-03 -0.73162783D-04  0.61031621D-18  0.41137934D+00  0.76654483D+00
  0.12964195D+01  0.19523359D+01  0.24171185D+01  0.20568587D+01  0.78267270D+00
 -0.36655901D-02  0.11227803D-03  0.21052236D-03  0.35816117D-03  0.55618648D-03
  0.73809181D-03  0.77784745D-03  0.48231504D-03 -0.32083615D-03  0.36927850D-01
  0.76933364D-03  0.10860368D-03 -0.52562460D-17 -0.50485615D-17 -0.35403998D-17
  0.49553690D-02  0.47595726D-02  0.33377409D-02  0.66224063D-02  0.63607421D-02
  0.44605914D-02  0.55599648D-18 -0.11618901D-02 -0.10002187D-02  0.27183944D-17
 -0.22352631D-03 -0.38188396D-03  0.72808858D-19  0.14527624D-04 -0.16052090D-04
 -0.15242597D-02  0.59548103D-03  0.92877871D-03 -0.31084714D-17 -0.50153994D-17
  0.53968513D-04  0.50124909D-03 -0.38131700D-03 -0.11993209D-03  0.12246872D-17
  0.16790952D-17 -0.15140147D-03  0.47780550D-04 -0.21923914D-04 -0.25856636D-04
  0.57580702D-18 -0.13182383D-18 -0.46985281D-04  0.75631200D-18  0.83572950D-04
  0.76216961D-04 -0.16410590D-17  0.13507692D-03  0.38962396D-04 -0.62787695D-18
 -0.38579578D-03 -0.26761328D-03  0.28364276D-17 -0.22815681D-18 -0.73800659D-04
 -0.35197003D-04  0.53581052D-18  0.85457329D-04  0.12600481D-03  0.14865991D-18
  0.13594465D-03 -0.20413799D-04 -0.53577824D-18  0.10575998D-03  0.19706816D-03
  0.33329166D-03  0.50191877D-03  0.62140800D-03  0.52879016D-03  0.20121441D-03
 -0.94237293D-06 -0.66176959D-05 -0.12408242D-04 -0.21110111D-04 -0.32781774D-04
 -0.43503320D-04 -0.45846528D-04 -0.28427772D-04  0.18910165D-04 -0.19289341D-04
  0.55666754D-04 -0.28893675D-03  0.89870510D-19  0.86319550D-19  0.60533227D-19
  0.19209308D-04  0.18450310D-04  0.12938631D-04  0.37835874D-04  0.36340904D-04
  0.25484751D-04 -0.28870816D-18 -0.18663770D-03 -0.23696389D-03 -0.15001752D-17
 -0.68420633D-04 -0.32858028D-03  0.91049530D-19 -0.44322198D-05  0.24313441D-04
 -0.57138195D-04 -0.12060552D-03  0.17774372D-03  0.32050108D-18 -0.10545265D-17
  0.45768227D-03 -0.47615773D-05  0.21377600D-03 -0.20901442D-03 -0.33362676D-18
  0.61971454D-18 -0.27849483D-03 -0.28039210D-04  0.16085974D-04  0.11953236D-04
 -0.82439770D-18  0.70297720D-18 -0.11087797D-04 -0.56709527D-19 -0.88462024D-04
  0.79236617D-04 -0.22868576D-18  0.27700288D-04 -0.94781157D-04  0.39881434D-18
  0.23768579D-03 -0.14292869D-03  0.37903111D-17  0.16642502D-18 -0.10743900D-03
  0.55683990D-04  0.24919424D-18 -0.94415777D-04  0.91328302D-05 -0.74846930D-18
  0.41673277D-03 -0.17618480D-03 -0.39663945D-18
MO    3     MO 0.0        OCC NO =    2.0000000  ORB. ENERGY =  -11.297822
  0.64827541D-05  0.11691914D-04  0.17239720D-04  0.39862223D-03  0.36618752D-03
 -0.15043829D-04  0.11060979D-15  0.38130066D-04  0.65613408D-04 -0.72995282D-18
 -0.79551638D-05 -0.50793493D-04  0.38116697D-17  0.22545974D-04 -0.82326825D-04
  0.50305762D-04 -0.71919959D-04  0.21614198D-04 -0.39534082D-16  0.41737769D-15
 -0.16464076D-03  0.23031189D-05 -0.30702417D-04  0.28399298D-04  0.62219720D-17
 -0.88443671D-16 -0.12577538D-04  0.25131372D-05  0.45325465D-05  0.66832371D-05
 -0.89585901D-04 -0.92967978D-05 -0.25279792D-05 -0.15462131D-17 -0.35901338D-04
  0.46853118D-04  0.19593913D-18  0.73653818D-04 -0.11237426D-03 -0.21686237D-17
  0.15499933D-03  0.80770186D-04  0.60395045D-05 -0.89927864D-05  0.29532819D-05
 -0.12160293D-17  0.21526222D-17  0.70420767D-04 -0.60896303D-05  0.32142174D-05
  0.28754129D-05 -0.12670902D-17 -0.26986061D-17  0.57001031D-04  0.50390527D-04
  0.90881390D-04  0.13400456D-03  0.15244615D-02  0.53629336D-03  0.16759658D-04
 -0.17700910D-18 -0.64331239D-03  0.30850685D-03  0.28017781D-18  0.18272728D-03
 -0.48389996D-04  0.82806270D-18  0.34430963D-04 -0.33526298D-04  0.24390655D-03
 -0.42974292D-03  0.18583637D-03  0.38827658D-18  0.95824842D-18  0.76153136D-03
  0.56648419D-04 -0.24165851D-04 -0.32482568D-04  0.38043209D-18 -0.50100602D-18
  0.18196349D-04  0.43643132D-04  0.78712186D-04  0.11606107D-03  0.65022470D-03
 -0.26276793D-04  0.68798619D-05  0.22089295D-17 -0.23436403D-04 -0.79783124D-04