 Molden2AIM, Version 4.0.0 (06/02/2016)           Time: Sun Jul  1 17:01:46 2018
GAUSSIAN             25 MOL ORBITALS    687 PRIMITIVES       13 NUCLEI
  C    1    (CENTRE  1)  -0.00183870  1.77731766  0.00000000  CHARGE =  6.0
  C    2    (CENTRE  2)  -2.27733352  0.43975628  0.00000000  CHARGE =  6.0
  C    3    (CENTRE  3)  -2.24331467 -2.19494146  0.00000000  CHARGE =  6.0
  C    4    (CENTRE  4)   0.04121871 -3.50464261  0.00000000  CHARGE =  6.0
  C    5    (CENTRE  5)   2.30390685 -2.14814806  0.00000000  CHARGE =  6.0
  C    6    (CENTRE  6)   2.29712651  0.48166473  0.00000000  CHARGE =  6.0
  O    7    (CENTRE  7)   0.09330901  4.35159896  0.00000000  CHARGE =  8.0
  H    8    (CENTRE  8)  -1.59891428  5.01626477  0.00000000  CHARGE =  1.0
  H    9    (CENTRE  9)  -4.07365804  1.45747206  0.00000000  CHARGE =  1.0
  H   10    (CENTRE 10)  -4.02756384 -3.22719113  0.00000000  CHARGE =  1.0
  H   11    (CENTRE 11)   0.06030872 -5.56390929  0.00000000  CHARGE =  1.0
  H   12    (CENTRE 12)   4.10500860 -3.15092934  0.00000000  CHARGE =  1.0
  H   13    (CENTRE 13)   4.05027646  1.56183785  0.00000000  CHARGE =  1.0
CENTRE ASSIGNMENTS    1  1  1  1  1  1  1  1  1  1  1  1  1  1  1  1  1  1  1  1
CENTRE ASSIGNMENTS    1  1  1  1  1  1  1  1  1  1  1  1  1  1  1  1  1  1  1  1
CENTRE ASSIGNMENTS    1  1  1  1  1  1  1  1  1  1  1  1  1  1  1  1  1  1  1  1
CENTRE ASSIGNMENTS    1  1  1  1  1  1  1  1  1  1  1  1  1  1  1  2  2  2  2  2
CENTRE ASSIGNMENTS    2  2  2  2  2  2  2  2  2  2  2  2  2  2  2  2  2  2  2  2
CENTRE ASSIGNMENTS    2  2  2  2  2  2  2  2  2  2  2  2  2  2  2  2  2  2  2  2
CENTRE ASSIGNMENTS    2  2  2  2  2  2  2  2  2  2  2  2  2  2  2  2  2  2  2  2
CENTRE ASSIGNMENTS    2  2  2  2  2  2  2  2  2  2  3  3  3  3  3  3  3  3  3  3
CENTRE ASSIGNMENTS    3  3  3  3  3  3  3  3  3  3  3  3  3  3  3  3  3  3  3  3
CENTRE ASSIGNMENTS    3  3  3  3  3  3  3  3  3  3  3  3  3  3  3  3  3  3  3  3
CENTRE ASSIGNMENTS    3  3  3  3  3  3  3  3  3  3  3  3  3  3  3  3  3  3  3  3
CENTRE ASSIGNMENTS    3  3  3  3  3  4  4  4  4  4  4  4  4  4  4  4  4  4  4  4
CENTRE ASSIGNMENTS    4  4  4  4  4  4  4  4  4  4  4  4  4  4  4  4  4  4  4  4
CENTRE ASSIGNMENTS    4  4  4  4  4  4  4  4  4  4  4  4  4  4  4  4  4  4  4  4
CENTRE ASSIGNMENTS    4  4  4  4  4  4  4  4  4  4  4  4  4  4  4  4  4  4  4  4
CENTRE ASSIGNMENTS    5  5  5  5  5  5  5  5  5  5  5  5  5  5  5  5  5  5  5  5
CENTRE ASSIGNMENTS    5  5  5  5  5  5  5  5  5  5  5  5  5  5  5  5  5  5  5  5
CENTRE ASSIGNMENTS    5  5  5  5  5  5  5  5  5  5  5  5  5  5  5  5  5  5  5  5
CENTRE ASSIGNMENTS    5  5  5  5  5  5  5  5  5  5  5  5  5  5  5  6  6  6  6  6
CENTRE ASSIGNMENTS    6  6  6  6  6  6  6  6  6  6  6  6  6  6  6  6  6  6  6  6
CENTRE ASSIGNMENTS    6  6  6  6  6  6  6  6  6  6  6  6  6  6  6  6  6  6  6  6
CENTRE ASSIGNMENTS    6  6  6  6  6  6  6  6  6  6  6  6  6  6  6  6  6  6  6  6
CENTRE ASSIGNMENTS    6  6  6  6  6  6  6  6  6  6  7  7  7  7  7  7  7  7  7  7
CENTRE ASSIGNMENTS    7  7  7  7  7  7  7  7  7  7  7  7  7  7  7  7  7  7  7  7
CENTRE ASSIGNMENTS    7  7  7  7  7  7  7  7  7  7  7  7  7  7  7  7  7  7  7  7
CENTRE ASSIGNMENTS    7  7  7  7  7  7  7  7  7  7  7  7  7  7  7  7  7  7  7  7
CENTRE ASSIGNMENTS    7  7  7  7  7  8  8  8  8  8  8  8  8  8  8  8  8  8  8  8
CENTRE ASSIGNMENTS    8  8  8  8  8  8  8  8  8  8  8  8  9  9  9  9  9  9  9  9
CENTRE ASSIGNMENTS    9  9  9  9  9  9  9  9  9  9  9  9  9  9  9  9  9  9  9 10
CENTRE ASSIGNMENTS   10 10 10 10 10 10 10 10 10 10 10 10 10 10 10 10 10 10 10 10
CENTRE ASSIGNMENTS   10 10 10 10 10 10 11 11 11 11 11 11 11 11 11 11 11 11 11 11
CENTRE ASSIGNMENTS   11 11 11 11 11 11 11 11 11 11 11 11 11 12 12 12 12 12 12 12
CENTRE ASSIGNMENTS   12 12 12 12 12 12 12 12 12 12 12 12 12 12 12 12 12 12 12 12
CENTRE ASSIGNMENTS   13 13 13 13 13 13 13 13 13 13 13 13 13 13 13 13 13 13 13 13
CENTRE ASSIGNMENTS   13 13 13 13 13 13 13
TYPE ASSIGNMENTS      1  1  1  1  1  1  1  1  1  1  1  1  1  1  1  1  1  1  1  2
TYPE ASSIGNMENTS      2  2  3  3  3  4  4  4  2  3  4  2  3  4  2  3  4  5  6  7
TYPE ASSIGNMENTS      8  9 10  5  6  7  8  9 10  5  6  7  8  9 10 11 12 13 17 14
TYPE ASSIGNMENTS     15 18 19 16 20 11 12 13 17 14 15 18 19 16 20  1  1  1  1  1
TYPE ASSIGNMENTS      1  1  1  1  1  1  1  1  1  1  1  1  1  1  2  2  2  3  3  3
TYPE ASSIGNMENTS      4  4  4  2  3  4  2  3  4  2  3  4  5  6  7  8  9 10  5  6
TYPE ASSIGNMENTS      7  8  9 10  5  6  7  8  9 10 11 12 13 17 14 15 18 19 16 20
TYPE ASSIGNMENTS     11 12 13 17 14 15 18 19 16 20  1  1  1  1  1  1  1  1  1  1
TYPE ASSIGNMENTS      1  1  1  1  1  1  1  1  1  2  2  2  3  3  3  4  4  4  2  3
TYPE ASSIGNMENTS      4  2  3  4  2  3  4  5  6  7  8  9 10  5  6  7  8  9 10  5
TYPE ASSIGNMENTS      6  7  8  9 10 11 12 13 17 14 15 18 19 16 20 11 12 13 17 14
TYPE ASSIGNMENTS     15 18 19 16 20  1  1  1  1  1  1  1  1  1  1  1  1  1  1  1
TYPE ASSIGNMENTS      1  1  1  1  2  2  2  3  3  3  4  4  4  2  3  4  2  3  4  2
TYPE ASSIGNMENTS      3  4  5  6  7  8  9 10  5  6  7  8  9 10  5  6  7  8  9 10
TYPE ASSIGNMENTS     11 12 13 17 14 15 18 19 16 20 11 12 13 17 14 15 18 19 16 20
TYPE ASSIGNMENTS      1  1  1  1  1  1  1  1  1  1  1  1  1  1  1  1  1  1  1  2
TYPE ASSIGNMENTS      2  2  3  3  3  4  4  4  2  3  4  2  3  4  2  3  4  5  6  7
TYPE ASSIGNMENTS      8  9 10  5  6  7  8  9 10  5  6  7  8  9 10 11 12 13 17 14
TYPE ASSIGNMENTS     15 18 19 16 20 11 12 13 17 14 15 18 19 16 20  1  1  1  1  1
TYPE ASSIGNMENTS      1  1  1  1  1  1  1  1  1  1  1  1  1  1  2  2  2  3  3  3
TYPE ASSIGNMENTS      4  4  4  2  3  4  2  3  4  2  3  4  5  6  7  8  9 10  5  6
TYPE ASSIGNMENTS      7  8  9 10  5  6  7  8  9 10 11 12 13 17 14 15 18 19 16 20
TYPE ASSIGNMENTS     11 12 13 17 14 15 18 19 16 20  1  1  1  1  1  1  1  1  1  1
TYPE ASSIGNMENTS      1  1  1  1  1  1  1  1  1  2  2  2  3  3  3  4  4  4  2  3
TYPE ASSIGNMENTS      4  2  3  4  2  3  4  5  6  7  8  9 10  5  6  7  8  9 10  5
TYPE ASSIGNMENTS      6  7  8  9 10 11 12 13 17 14 15 18 19 16 20 11 12 13 17 14
TYPE ASSIGNMENTS     15 18 19 16 20  1  1  1  1  1  1  2  3  4  2  3  4  2  3  4
TYPE ASSIGNMENTS      5  6  7  8  9 10  5  6  7  8  9 10  1  1  1  1  1  1  2  3
TYPE ASSIGNMENTS      4  2  3  4  2  3  4  5  6  7  8  9 10  5  6  7  8  9 10  1
TYPE ASSIGNMENTS      1  1  1  1  1  2  3  4  2  3  4  2  3  4  5  6  7  8  9 10
TYPE ASSIGNMENTS      5  6  7  8  9 10  1  1  1  1  1  1  2  3  4  2  3  4  2  3
TYPE ASSIGNMENTS      4  5  6  7  8  9 10  5  6  7  8  9 10  1  1  1  1  1  1  2
TYPE ASSIGNMENTS      3  4  2  3  4  2  3  4  5  6  7  8  9 10  5  6  7  8  9 10
TYPE ASSIGNMENTS      1  1  1  1  1  1  2  3  4  2  3  4  2  3  4  5  6  7  8  9
TYPE ASSIGNMENTS     10  5  6  7  8  9 10
EXPONENTS  0.8236000D+04 0.1235000D+04 0.2808000D+03 0.7927000D+02 0.2559000D+02
EXPONENTS  0.8997000D+01 0.3319000D+01 0.3643000D+00 0.8236000D+04 0.1235000D+04
EXPONENTS  0.2808000D+03 0.7927000D+02 0.2559000D+02 0.8997000D+01 0.3319000D+01
EXPONENTS  0.3643000D+00 0.9059000D+00 0.1285000D+00 0.4402000D-01 0.1871000D+02
EXPONENTS  0.4133000D+01 0.1200000D+01 0.1871000D+02 0.4133000D+01 0.1200000D+01
EXPONENTS  0.1871000D+02 0.4133000D+01 0.1200000D+01 0.3827000D+00 0.3827000D+00
EXPONENTS  0.3827000D+00 0.1209000D+00 0.1209000D+00 0.1209000D+00 0.3569000D-01
EXPONENTS  0.3569000D-01 0.3569000D-01 0.1097000D+01 0.1097000D+01 0.1097000D+01
EXPONENTS  0.1097000D+01 0.1097000D+01 0.1097000D+01 0.3180000D+00 0.3180000D+00
EXPONENTS  0.3180000D+00 0.3180000D+00 0.3180000D+00 0.3180000D+00 0.1000000D+00
EXPONENTS  0.1000000D+00 0.1000000D+00 0.1000000D+00 0.1000000D+00 0.1000000D+00
EXPONENTS  0.7610000D+00 0.7610000D+00 0.7610000D+00 0.7610000D+00 0.7610000D+00
EXPONENTS  0.7610000D+00 0.7610000D+00 0.7610000D+00 0.7610000D+00 0.7610000D+00
EXPONENTS  0.2680000D+00 0.2680000D+00 0.2680000D+00 0.2680000D+00 0.2680000D+00
EXPONENTS  0.2680000D+00 0.2680000D+00 0.2680000D+00 0.2680000D+00 0.2680000D+00
EXPONENTS  0.8236000D+04 0.1235000D+04 0.2808000D+03 0.7927000D+02 0.2559000D+02
EXPONENTS  0.8997000D+01 0.3319000D+01 0.3643000D+00 0.8236000D+04 0.1235000D+04
EXPONENTS  0.2808000D+03 0.7927000D+02 0.2559000D+02 0.8997000D+01 0.3319000D+01
EXPONENTS  0.3643000D+00 0.9059000D+00 0.1285000D+00 0.4402000D-01 0.1871000D+02
EXPONENTS  0.4133000D+01 0.1200000D+01 0.1871000D+02 0.4133000D+01 0.1200000D+01
EXPONENTS  0.1871000D+02 0.4133000D+01 0.1200000D+01 0.3827000D+00 0.3827000D+00
EXPONENTS  0.3827000D+00 0.1209000D+00 0.1209000D+00 0.1209000D+00 0.3569000D-01
EXPONENTS  0.3569000D-01 0.3569000D-01 0.1097000D+01 0.1097000D+01 0.1097000D+01
EXPONENTS  0.1097000D+01 0.1097000D+01 0.1097000D+01 0.3180000D+00 0.3180000D+00
EXPONENTS  0.3180000D+00 0.3180000D+00 0.3180000D+00 0.3180000D+00 0.1000000D+00
EXPONENTS  0.1000000D+00 0.1000000D+00 0.1000000D+00 0.1000000D+00 0.1000000D+00
EXPONENTS  0.7610000D+00 0.7610000D+00 0.7610000D+00 0.7610000D+00 0.7610000D+00
EXPONENTS  0.7610000D+00 0.7610000D+00 0.7610000D+00 0.7610000D+00 0.7610000D+00
EXPONENTS  0.2680000D+00 0.2680000D+00 0.2680000D+00 0.2680000D+00 0.2680000D+00
EXPONENTS  0.2680000D+00 0.2680000D+00 0.2680000D+00 0.2680000D+00 0.2680000D+00
EXPONENTS  0.8236000D+04 0.1235000D+04 0.2808000D+03 0.7927000D+02 0.2559000D+02
EXPONENTS  0.8997000D+01 0.3319000D+01 0.3643000D+00 0.8236000D+04 0.1235000D+04
EXPONENTS  0.2808000D+03 0.7927000D+02 0.2559000D+02 0.8997000D+01 0.3319000D+01
EXPONENTS  0.3643000D+00 0.9059000D+00 0.1285000D+00 0.4402000D-01 0.1871000D+02
EXPONENTS  0.4133000D+01 0.1200000D+01 0.1871000D+02 0.4133000D+01 0.1200000D+01
EXPONENTS  0.1871000D+02 0.4133000D+01 0.1200000D+01 0.3827000D+00 0.3827000D+00
EXPONENTS  0.3827000D+00 0.1209000D+00 0.1209000D+00 0.1209000D+00 0.3569000D-01
EXPONENTS  0.3569000D-01 0.3569000D-01 0.1097000D+01 0.1097000D+01 0.1097000D+01
EXPONENTS  0.1097000D+01 0.1097000D+01 0.1097000D+01 0.3180000D+00 0.3180000D+00
EXPONENTS  0.3180000D+00 0.3180000D+00 0.3180000D+00 0.3180000D+00 0.1000000D+00
EXPONENTS  0.1000000D+00 0.1000000D+00 0.1000000D+00 0.1000000D+00 0.1000000D+00
EXPONENTS  0.7610000D+00 0.7610000D+00 0.7610000D+00 0.7610000D+00 0.7610000D+00
EXPONENTS  0.7610000D+00 0.7610000D+00 0.7610000D+00 0.7610000D+00 0.7610000D+00
EXPONENTS  0.2680000D+00 0.2680000D+00 0.2680000D+00 0.2680000D+00 0.2680000D+00
EXPONENTS  0.2680000D+00 0.2680000D+00 0.2680000D+00 0.2680000D+00 0.2680000D+00
EXPONENTS  0.8236000D+04 0.1235000D+04 0.2808000D+03 0.7927000D+02 0.2559000D+02
EXPONENTS  0.8997000D+01 0.3319000D+01 0.3643000D+00 0.8236000D+04 0.1235000D+04
EXPONENTS  0.2808000D+03 0.7927000D+02 0.2559000D+02 0.8997000D+01 0.3319000D+01
EXPONENTS  0.3643000D+00 0.9059000D+00 0.1285000D+00 0.4402000D-01 0.1871000D+02
EXPONENTS  0.4133000D+01 0.1200000D+01 0.1871000D+02 0.4133000D+01 0.1200000D+01
EXPONENTS  0.1871000D+02 0.4133000D+01 0.1200000D+01 0.3827000D+00 0.3827000D+00
EXPONENTS  0.3827000D+00 0.1209000D+00 0.1209000D+00 0.1209000D+00 0.3569000D-01
EXPONENTS  0.3569000D-01 0.3569000D-01 0.1097000D+01 0.1097000D+01 0.1097000D+01
EXPONENTS  0.1097000D+01 0.1097000D+01 0.1097000D+01 0.3180000D+00 0.3180000D+00
EXPONENTS  0.3180000D+00 0.3180000D+00 0.3180000D+00 0.3180000D+00 0.1000000D+00
EXPONENTS  0.1000000D+00 0.1000000D+00 0.1000000D+00 0.1000000D+00 0.1000000D+00
EXPONENTS  0.7610000D+00 0.7610000D+00 0.7610000D+00 0.7610000D+00 0.7610000D+00
EXPONENTS  0.7610000D+00 0.7610000D+00 0.7610000D+00 0.7610000D+00 0.7610000D+00
EXPONENTS  0.2680000D+00 0.2680000D+00 0.2680000D+00 0.2680000D+00 0.2680000D+00
EXPONENTS  0.2680000D+00 0.2680000D+00 0.2680000D+00 0.2680000D+00 0.2680000D+00
EXPONENTS  0.8236000D+04 0.1235000D+04 0.2808000D+03 0.7927000D+02 0.2559000D+02
EXPONENTS  0.8997000D+01 0.3319000D+01 0.3643000D+00 0.8236000D+04 0.1235000D+04
EXPONENTS  0.2808000D+03 0.7927000D+02 0.2559000D+02 0.8997000D+01 0.3319000D+01
EXPONENTS  0.3643000D+00 0.9059000D+00 0.1285000D+00 0.4402000D-01 0.1871000D+02
EXPONENTS  0.4133000D+01 0.1200000D+01 0.1871000D+02 0.4133000D+01 0.1200000D+01
EXPONENTS  0.1871000D+02 0.4133000D+01 0.1200000D+01 0.3827000D+00 0.3827000D+00
EXPONENTS  0.3827000D+00 0.1209000D+00 0.1209000D+00 0.1209000D+00 0.3569000D-01
EXPONENTS  0.3569000D-01 0.3569000D-01 0.1097000D+01 0.1097000D+01 0.1097000D+01
EXPONENTS  0.1097000D+01 0.1097000D+01 0.1097000D+01 0.3180000D+00 0.3180000D+00
EXPONENTS  0.3180000D+00 0.3180000D+00 0.3180000D+00 0.3180000D+00 0.1000000D+00
EXPONENTS  0.1000000D+00 0.1000000D+00 0.1000000D+00 0.1000000D+00 0.1000000D+00
EXPONENTS  0.7610000D+00 0.7610000D+00 0.7610000D+00 0.7610000D+00 0.7610000D+00
EXPONENTS  0.7610000D+00 0.7610000D+00 0.7610000D+00 0.7610000D+00 0.7610000D+00
EXPONENTS  0.2680000D+00 0.2680000D+00 0.2680000D+00 0.2680000D+00 0.2680000D+00
EXPONENTS  0.2680000D+00 0.2680000D+00 0.2680000D+00 0.2680000D+00 0.2680000D+00
EXPONENTS  0.8236000D+04 0.1235000D+04 0.2808000D+03 0.7927000D+02 0.2559000D+02
EXPONENTS  0.8997000D+01 0.3319000D+01 0.3643000D+00 0.8236000D+04 0.1235000D+04
EXPONENTS  0.2808000D+03 0.7927000D+02 0.2559000D+02 0.8997000D+01 0.3319000D+01
EXPONENTS  0.3643000D+00 0.9059000D+00 0.1285000D+00 0.4402000D-01 0.1871000D+02
EXPONENTS  0.4133000D+01 0.1200000D+01 0.1871000D+02 0.4133000D+01 0.1200000D+01
EXPONENTS  0.1871000D+02 0.4133000D+01 0.1200000D+01 0.3827000D+00 0.3827000D+00
EXPONENTS  0.3827000D+00 0.1209000D+00 0.1209000D+00 0.1209000D+00 0.3569000D-01
EXPONENTS  0.3569000D-01 0.3569000D-01 0.1097000D+01 0.1097000D+01 0.1097000D+01
EXPONENTS  0.1097000D+01 0.1097000D+01 0.1097000D+01 0.3180000D+00 0.3180000D+00
EXPONENTS  0.3180000D+00 0.3180000D+00 0.3180000D+00 0.3180000D+00 0.1000000D+00
EXPONENTS  0.1000000D+00 0.1000000D+00 0.1000000D+00 0.1000000D+00 0.1000000D+00
EXPONENTS  0.7610000D+00 0.7610000D+00 0.7610000D+00 0.7610000D+00 0.7610000D+00
EXPONENTS  0.7610000D+00 0.7610000D+00 0.7610000D+00 0.7610000D+00 0.7610000D+00
EXPONENTS  0.2680000D+00 0.2680000D+00 0.2680000D+00 0.2680000D+00 0.2680000D+00
EXPONENTS  0.2680000D+00 0.2680000D+00 0.2680000D+00 0.2680000D+00 0.2680000D+00
EXPONENTS  0.1533000D+05 0.2299000D+04 0.5224000D+03 0.1473000D+03 0.4755000D+02
EXPONENTS  0.1676000D+02 0.6207000D+01 0.6882000D+00 0.1533000D+05 0.2299000D+04
EXPONENTS  0.5224000D+03 0.1473000D+03 0.4755000D+02 0.1676000D+02 0.6207000D+01
EXPONENTS  0.6882000D+00 0.1752000D+01 0.2384000D+00 0.7376000D-01 0.3446000D+02
EXPONENTS  0.7749000D+01 0.2280000D+01 0.3446000D+02 0.7749000D+01 0.2280000D+01
EXPONENTS  0.3446000D+02 0.7749000D+01 0.2280000D+01 0.7156000D+00 0.7156000D+00
EXPONENTS  0.7156000D+00 0.2140000D+00 0.2140000D+00 0.2140000D+00 0.5974000D-01
EXPONENTS  0.5974000D-01 0.5974000D-01 0.2314000D+01 0.2314000D+01 0.2314000D+01
EXPONENTS  0.2314000D+01 0.2314000D+01 0.2314000D+01 0.6450000D+00 0.6450000D+00
EXPONENTS  0.6450000D+00 0.6450000D+00 0.6450000D+00 0.6450000D+00 0.2140000D+00
EXPONENTS  0.2140000D+00 0.2140000D+00 0.2140000D+00 0.2140000D+00 0.2140000D+00
EXPONENTS  0.1428000D+01 0.1428000D+01 0.1428000D+01 0.1428000D+01 0.1428000D+01
EXPONENTS  0.1428000D+01 0.1428000D+01 0.1428000D+01 0.1428000D+01 0.1428000D+01
EXPONENTS  0.5000000D+00 0.5000000D+00 0.5000000D+00 0.5000000D+00 0.5000000D+00
EXPONENTS  0.5000000D+00 0.5000000D+00 0.5000000D+00 0.5000000D+00 0.5000000D+00
EXPONENTS  0.3387000D+02 0.5095000D+01 0.1159000D+01 0.3258000D+00 0.1027000D+00
EXPONENTS  0.2526000D-01 0.1407000D+01 0.1407000D+01 0.1407000D+01 0.3880000D+00
EXPONENTS  0.3880000D+00 0.3880000D+00 0.1020000D+00 0.1020000D+00 0.1020000D+00
EXPONENTS  0.1057000D+01 0.1057000D+01 0.1057000D+01 0.1057000D+01 0.1057000D+01
EXPONENTS  0.1057000D+01 0.2470000D+00 0.2470000D+00 0.2470000D+00 0.2470000D+00
EXPONENTS  0.2470000D+00 0.2470000D+00 0.3387000D+02 0.5095000D+01 0.1159000D+01
EXPONENTS  0.3258000D+00 0.1027000D+00 0.2526000D-01 0.1407000D+01 0.1407000D+01
EXPONENTS  0.1407000D+01 0.3880000D+00 0.3880000D+00 0.3880000D+00 0.1020000D+00
EXPONENTS  0.1020000D+00 0.1020000D+00 0.1057000D+01 0.1057000D+01 0.1057000D+01
EXPONENTS  0.1057000D+01 0.1057000D+01 0.1057000D+01 0.2470000D+00 0.2470000D+00
EXPONENTS  0.2470000D+00 0.2470000D+00 0.2470000D+00 0.2470000D+00 0.3387000D+02
EXPONENTS  0.5095000D+01 0.1159000D+01 0.3258000D+00 0.1027000D+00 0.2526000D-01
EXPONENTS  0.1407000D+01 0.1407000D+01 0.1407000D+01 0.3880000D+00 0.3880000D+00
EXPONENTS  0.3880000D+00 0.1020000D+00 0.1020000D+00 0.1020000D+00 0.1057000D+01
EXPONENTS  0.1057000D+01 0.1057000D+01 0.1057000D+01 0.1057000D+01 0.1057000D+01
EXPONENTS  0.2470000D+00 0.2470000D+00 0.2470000D+00 0.2470000D+00 0.2470000D+00
EXPONENTS  0.2470000D+00 0.3387000D+02 0.5095000D+01 0.1159000D+01 0.3258000D+00
EXPONENTS  0.1027000D+00 0.2526000D-01 0.1407000D+01 0.1407000D+01 0.1407000D+01
EXPONENTS  0.3880000D+00 0.3880000D+00 0.3880000D+00 0.1020000D+00 0.1020000D+00
EXPONENTS  0.1020000D+00 0.1057000D+01 0.1057000D+01 0.1057000D+01 0.1057000D+01
EXPONENTS  0.1057000D+01 0.1057000D+01 0.2470000D+00 0.2470000D+00 0.2470000D+00
EXPONENTS  0.2470000D+00 0.2470000D+00 0.2470000D+00 0.3387000D+02 0.5095000D+01
EXPONENTS  0.1159000D+01 0.3258000D+00 0.1027000D+00 0.2526000D-01 0.1407000D+01
EXPONENTS  0.1407000D+01 0.1407000D+01 0.3880000D+00 0.3880000D+00 0.3880000D+00
EXPONENTS  0.1020000D+00 0.1020000D+00 0.1020000D+00 0.1057000D+01 0.1057000D+01
EXPONENTS  0.1057000D+01 0.1057000D+01 0.1057000D+01 0.1057000D+01 0.2470000D+00
EXPONENTS  0.2470000D+00 0.2470000D+00 0.2470000D+00 0.2470000D+00 0.2470000D+00
EXPONENTS  0.3387000D+02 0.5095000D+01 0.1159000D+01 0.3258000D+00 0.1027000D+00
EXPONENTS  0.2526000D-01 0.1407000D+01 0.1407000D+01 0.1407000D+01 0.3880000D+00
EXPONENTS  0.3880000D+00 0.3880000D+00 0.1020000D+00 0.1020000D+00 0.1020000D+00
EXPONENTS  0.1057000D+01 0.1057000D+01 0.1057000D+01 0.1057000D+01 0.1057000D+01
EXPONENTS  0.1057000D+01 0.2470000D+00 0.2470000D+00 0.2470000D+00 0.2470000D+00
EXPONENTS  0.2470000D+00 0.2470000D+00
MO    1     MO 0.0        OCC NO =    2.0000000  ORB. ENERGY =  -20.593128
  0.62181895D-04  0.11592119D-03  0.19592723D-03  0.29454281D-03  0.36187987D-03
  0.30566540D-03  0.11528574D-03 -0.57055558D-06 -0.50506836D-04 -0.94564734D-04
 -0.16100455D-03 -0.24904956D-03 -0.32798951D-03 -0.34080211D-03 -0.21656444D-03
  0.14513645D-03 -0.31316507D-03  0.26756490D-02  0.11132822D-03 -0.23379157D-04
 -0.21919445D-04 -0.15607951D-04 -0.24312882D-03 -0.22794873D-03 -0.16231307D-03
  0.13980183D-16  0.13107310D-16  0.93331856D-17  0.14690268D-03  0.16854833D-02
  0.61714046D-18  0.73774425D-03  0.42134012D-03  0.28102007D-18 -0.22627391D-04
 -0.17116904D-04  0.23367023D-20 -0.33756802D-03  0.63316870D-03 -0.29560068D-03
  0.77322332D-04 -0.59093349D-19 -0.18009686D-18 -0.57479948D-03  0.78585159D-03
 -0.21105211D-03  0.75979008D-04  0.11866314D-18 -0.14113613D-18  0.18271799D-03
 -0.22404280D-03  0.41324810D-04 -0.36179131D-03  0.62969757D-19 -0.82475604D-20
  0.56535019D-05  0.29928853D-03 -0.36229756D-19  0.11945083D-04 -0.43013035D-03
  0.23554089D-18 -0.28905589D-04 -0.46773524D-03 -0.12685163D-18  0.17875603D-18
  0.53278223D-04 -0.14230465D-04 -0.11650461D-19 -0.16203789D-03  0.44203847D-04
  0.14734420D-18  0.22032193D-05 -0.15124514D-05 -0.11239281D-18 -0.53529598D-19
 -0.28085966D-04 -0.52358626D-04 -0.88495302D-04 -0.13303743D-03 -0.16345185D-03
 -0.13806122D-03 -0.52071611D-04  0.25770531D-06  0.22265461D-04  0.41687968D-04
  0.70977332D-04  0.10979114D-03  0.14459107D-03  0.15023938D-03  0.95470383D-04
 -0.63982031D-04 -0.76049410D-04  0.33682302D-03 -0.32074474D-03 -0.99276745D-04
 -0.93078259D-04 -0.66277265D-04 -0.77200124D-04 -0.72380023D-04 -0.51538888D-04
  0.24390566D-18  0.22867706D-18  0.16283169D-18  0.42036694D-03  0.17725395D-03
 -0.20798986D-18  0.55576854D-03  0.60382507D-03 -0.12365878D-18 -0.25629266D-04
  0.76872960D-08  0.19697920D-20  0.12517860D-04 -0.38689757D-04  0.26171896D-04
 -0.36730622D-04 -0.54108295D-19  0.84201201D-19 -0.23766879D-03  0.27304567D-03
 -0.35376879D-04  0.67635425D-03 -0.24813333D-19 -0.86475089D-19  0.21283189D-03
 -0.19278851D-03 -0.20043381D-04 -0.42321344D-03  0.11536242D-19  0.38081365D-19
 -0.10700152D-04  0.21710902D-04  0.19524408D-19  0.10242419D-03 -0.63502714D-04
 -0.28922392D-19 -0.70323738D-04 -0.16299924D-05 -0.29650833D-19 -0.15723197D-19
 -0.15865113D-04 -0.49404036D-04  0.48579576D-20  0.48212140D-04  0.11049998D-03
  0.24631295D-19 -0.61680171D-06  0.37712131D-04 -0.39205168D-19 -0.16779946D-18
 -0.36678041D-04 -0.68376208D-04 -0.11556784D-03 -0.17373632D-03 -0.21345514D-03
 -0.18029699D-03 -0.68001390D-04  0.33654267D-06  0.26723566D-04  0.50034947D-04
  0.85188779D-04  0.13177409D-03  0.17354184D-03  0.18032109D-03  0.11458596D-03
 -0.76792842D-04 -0.99099718D-04 -0.19340090D-03  0.37926186D-03 -0.23973776D-04
 -0.22476939D-04 -0.16004919D-04  0.41011429D-04  0.38450822D-04  0.27379276D-04
  0.77040609D-19  0.72230468D-19  0.51432396D-19  0.10275094D-03 -0.37396546D-03
  0.74959845D-19 -0.77414012D-03  0.80686373D-03  0.17814094D-18  0.25028451D-04
  0.10116645D-05 -0.22683176D-20  0.35935076D-04 -0.52309177D-05 -0.30704158D-04
 -0.32464774D-04  0.86381747D-19  0.11339702D-19  0.15838662D-03 -0.12545739D-03
 -0.32929230D-04  0.33526485D-03 -0.53590789D-19 -0.27716574D-20 -0.21452366D-03
  0.19418450D-03  0.20339155D-04 -0.36592640D-03  0.27252376D-19  0.45599648D-19
 -0.92607466D-05  0.24647572D-04  0.94577632D-20  0.21007642D-04 -0.71350661D-04
  0.28354365D-19  0.67745976D-05 -0.25920545D-05 -0.56727655D-19  0.48461226D-19
  0.20041098D-04  0.70925340D-05 -0.12688111D-19 -0.87289061D-04 -0.21340213D-04
 -0.28733729D-19  0.27165766D-04  0.62611491D-07  0.66798063D-19 -0.10724867D-18
  0.11567532D-04  0.21564509D-04  0.36447819D-04  0.54793010D-04  0.67319544D-04
  0.56862117D-04  0.21446298D-04 -0.10613893D-06 -0.89463967D-05 -0.16750477D-04
 -0.28519121D-04 -0.44114743D-04 -0.58097565D-04 -0.60367092D-04 -0.38360577D-04
  0.25708367D-04  0.59182688D-04 -0.44130218D-03 -0.42963946D-03  0.10255804D-05
  0.96154678D-06  0.68467859D-06  0.77975334D-05  0.73106832D-05  0.52056419D-05
  0.10953793D-18  0.10269877D-18  0.73127643D-19 -0.94475786D-05 -0.10025765D-04
 -0.83622988D-19 -0.11816053D-02  0.23142064D-03 -0.25840337D-18  0.91830893D-05
 -0.20992661D-04 -0.15012439D-20 -0.20513178D-04  0.76895896D-05  0.12823588D-04
 -0.42723420D-04  0.16974706D-20 -0.46560555D-19  0.29192501D-04 -0.57881687D-04
  0.28689186D-04  0.19743481D-03 -0.47255855D-19  0.25256492D-19 -0.24493936D-03
  0.26555265D-03 -0.20613293D-04 -0.24783009D-03 -0.34552812D-19 -0.64144494D-19
 -0.17660428D-05  0.10449540D-04 -0.20643112D-19  0.40132023D-04 -0.50066450D-04
  0.44676325D-19 -0.34833894D-04  0.18717829D-04  0.17253013D-19 -0.25133643D-19
 -0.41058801D-04  0.17920147D-04  0.10805830D-19  0.10702666D-03 -0.35911079D-04
 -0.80304037D-19  0.16149743D-04 -0.17849362D-04  0.47886548D-19 -0.14482156D-19
 -0.32826013D-04 -0.61195153D-04 -0.10343059D-03 -0.15549005D-03 -0.19103750D-03
 -0.16136171D-03 -0.60859698D-04  0.30119804D-06  0.23997797D-04  0.44931447D-04
  0.76499633D-04  0.11833330D-03  0.15584079D-03  0.16192857D-03  0.10289833D-03
 -0.68960071D-04 -0.81426937D-04 -0.36060801D-03  0.28560856D-03  0.98264753D-05
  0.92129452D-05  0.65601658D-05 -0.17434357D-05 -0.16345818D-05 -0.11639196D-05
 -0.12441701D-18 -0.11664886D-18 -0.83060936D-19 -0.19062339D-04 -0.11056711D-03
  0.94974008D-19 -0.48924595D-03 -0.13279069D-02  0.24684068D-18 -0.15027716D-04
  0.57877064D-05  0.36347729D-20  0.25323895D-04 -0.78331011D-05 -0.17490794D-04
 -0.15582830D-04 -0.56308800D-19  0.72552975D-19 -0.50411643D-04  0.73483340D-04
 -0.23071697D-04 -0.16146369D-03  0.30319661D-19 -0.33882271D-19 -0.54678961D-04
  0.38675270D-04  0.16003691D-04  0.42450644D-03 -0.86778592D-19  0.27177943D-20
  0.15552282D-04  0.19489058D-04  0.31271044D-19 -0.60450281D-04 -0.50709009D-04
 -0.50559277D-19  0.13793434D-04 -0.77581647D-05 -0.43253854D-19 -0.46327149D-20
  0.30165155D-04 -0.36702464D-05 -0.16205769D-19 -0.80981070D-04  0.82033813D-06
 -0.29678993D-20 -0.95143959D-05  0.10190401D-04  0.51585207D-19  0.12438451D-18
  0.10904522D-05  0.20328508D-05  0.34358760D-05  0.51652471D-05  0.63461029D-05
  0.53602984D-05  0.20217073D-05 -0.10005542D-07  0.32094399D-06  0.60090842D-06
  0.10230980D-05  0.15825770D-05  0.20841983D-05  0.21656155D-05  0.13761514D-05
 -0.92226469D-06  0.31591406D-06 -0.63507483D-03 -0.73064012D-05  0.62466119D-04
  0.58565957D-04  0.41702451D-04 -0.22565352D-04 -0.21156452D-04 -0.15064654D-04
 -0.36580886D-19 -0.34296906D-19 -0.24421440D-19 -0.37168122D-03  0.12782763D-03
 -0.15520497D-18  0.44957714D-03 -0.12167338D-02 -0.31241312D-18  0.33946337D-05
  0.14986687D-04 -0.55917901D-20 -0.23769435D-04 -0.57884759D-05  0.29557911D-04
  0.26743440D-04 -0.70523947D-19  0.58861306D-19 -0.52191893D-05  0.15033868D-05
  0.37158025D-05 -0.51586242D-03  0.19806687D-18 -0.10468123D-18 -0.77964170D-04
  0.13269541D-03 -0.54731240D-04  0.34988042D-03  0.90854531D-19 -0.24845634D-19
 -0.16279322D-04  0.27240875D-04 -0.36262488D-19  0.37084173D-05 -0.75730896D-04
  0.11568939D-18  0.45129548D-04 -0.59917279D-05 -0.69019213D-20 -0.17571975D-19
 -0.76778242D-05 -0.44029352D-04  0.21789030D-19  0.38722812D-04  0.90768939D-04
  0.37326531D-20 -0.15689340D-04  0.41319117D-04 -0.69099742D-19  0.24174590D-18
  0.49818752D+00  0.92855743D+00  0.15745257D+01  0.23831180D+01  0.29734355D+01
  0.25537845D+01  0.98044755D+00 -0.43856020D-02  0.28710996D-03  0.53848184D-03
  0.91799349D-03  0.14346451D-02  0.19183939D-02  0.20483974D-02  0.12523500D-02
 -0.82622448D-03  0.47621919D-01 -0.75215964D-03  0.54361905D-03 -0.75973991D-02
 -0.73669215D-02 -0.49696817D-02 -0.57932449D-02 -0.56174988D-02 -0.37895315D-02
 -0.67584847D-17 -0.65534567D-17 -0.44209232D-17  0.12921521D-02  0.15498878D-02
  0.13269571D-17  0.67618209D-03  0.56855606D-03  0.47020603D-19  0.17216716D-04
 -0.37909793D-04  0.69164570D-20  0.25186279D-03  0.38283644D-03 -0.63469923D-03
 -0.53530389D-03  0.20501402D-17  0.13768374D-17  0.40766309D-04 -0.70701022D-03
  0.66624391D-03  0.38629087D-03 -0.21823465D-18 -0.31564902D-18  0.23016999D-04
 -0.13213539D-03  0.10911839D-03 -0.17718948D-04 -0.43159280D-19  0.16104009D-19
 -0.58230415D-04  0.16993905D-04  0.25863480D-18  0.10321575D-04  0.31390711D-03
 -0.34592843D-18  0.16436967D-03 -0.36488883D-03 -0.42997596D-18 -0.52426168D-18
  0.27635609D-04  0.16628039D-03 -0.12745443D-19  0.67802900D-04 -0.44215438D-03
  0.39421069D-20 -0.15070973D-03 -0.56686795D-04  0.34294223D-19  0.11881626D-18
  0.13209206D-03  0.23823346D-03  0.35127510D-03  0.11482551D-02 -0.18178247D-04
  0.16277377D-04  0.46094024D-03 -0.85350360D-04 -0.66991429D-19  0.60082397D-03
 -0.17788141D-03 -0.12190768D-18  0.29608176D-04  0.19180833D-04 -0.19627731D-19
 -0.18784609D-03  0.68168746D-04  0.11967734D-03  0.28646050D-03 -0.32979029D-18
  0.11169040D-18  0.51658378D-04 -0.26441901D-04 -0.25216478D-04 -0.17591974D-04
 -0.25650334D-19  0.25394818D-19 -0.61675685D-05 -0.11123464D-04 -0.16401541D-04
  0.49018653D-03 -0.28107008D-02 -0.29265018D-04 -0.15198544D-04 -0.81182665D-04
  0.36789195D-19  0.37748523D-03 -0.11507134D-03 -0.88936360D-19 -0.19867933D-03
  0.17163880D-03  0.21359694D-19  0.71602422D-04 -0.13949108D-04 -0.57653315D-04
 -0.81697635D-04 -0.22620251D-19  0.42539110D-19  0.27494376D-04 -0.26745028D-05
 -0.24819873D-04 -0.21639004D-05 -0.15184034D-19 -0.28033660D-19 -0.12785078D-05
 -0.23058414D-05 -0.33999618D-05 -0.46516105D-03  0.27164861D-02  0.19082236D-04
 -0.30564691D-04 -0.12298176D-04 -0.14619652D-19 -0.22961227D-03 -0.44701943D-04
  0.37317377D-19  0.19278616D-03  0.19578542D-03  0.42085865D-19 -0.46306990D-04
  0.40575953D-04  0.57310360D-05 -0.40485536D-04  0.22911560D-20  0.20370677D-19
 -0.19127982D-04  0.89452356D-05  0.10182747D-04 -0.88876732D-05  0.58241049D-20
  0.27331794D-19  0.26698450D-05  0.48151754D-05  0.70999733D-05  0.20288911D-03
 -0.23975680D-02 -0.19990853D-04  0.20715408D-04  0.13353795D-04  0.29400840D-19
 -0.66960145D-04  0.50330740D-04 -0.44956472D-19 -0.10917114D-03 -0.21634159D-03
 -0.43211489D-19 -0.16909523D-04  0.38315574D-05  0.13077965D-04 -0.29575091D-05
  0.97782673D-20  0.23761483D-20  0.44944850D-05 -0.83347493D-06 -0.36610101D-05
 -0.14267571D-04  0.31067744D-20 -0.10074911D-19 -0.19850688D-05 -0.35801533D-05
 -0.52789340D-05 -0.11017685D-03  0.19162450D-02  0.10420983D-04  0.16032588D-04
 -0.12634022D-04  0.10771442D-20  0.31177312D-04 -0.41902419D-04  0.41430402D-19
 -0.18130521D-03  0.34342591D-04  0.51437403D-19 -0.13806856D-04  0.14226591D-04
 -0.41973505D-06  0.22510015D-04 -0.37191258D-19  0.30624272D-19  0.29226622D-05
 -0.99746055D-05  0.70519433D-05  0.22530163D-05 -0.61092039D-20  0.14969244D-19
 -0.69214131D-05 -0.12483054D-04 -0.18406255D-04  0.30029254D-03 -0.11683362D-02
 -0.34824403D-05  0.97227200D-05 -0.50743667D-04  0.85894280D-19 -0.29901426D-03
 -0.58852343D-04 -0.20651220D-18  0.13912989D-03 -0.10119471D-03 -0.50193730D-19
  0.72480483D-04 -0.47076676D-05 -0.67772815D-04  0.34045974D-04  0.55571076D-19
  0.39884786D-19  0.16604036D-04  0.12353250D-05 -0.17839361D-04  0.96908061D-05
  0.33013701D-19  0.45301937D-19
MO    2     MO 0.0        OCC NO =    2.0000000  ORB. ENERGY =  -11.305538
  0.32750783D+00  0.61054906D+00  0.10319355D+01  0.15513370D+01  0.19059968D+01
  0.16099190D+01  0.60720220D+00 -0.30050776D-02 -0.52507340D-03 -0.98310307D-03
 -0.16738171D-02 -0.25891405D-02 -0.34098070D-02 -0.35430079D-02 -0.22514225D-02
  0.15088510D-02  0.27937540D-01  0.49907263D-02 -0.64242011D-03 -0.13827889D-03
 -0.12964525D-03 -0.92315138D-04  0.34663422D-02  0.32499162D-02  0.23141339D-02
 -0.36606372D-17 -0.34320801D-17 -0.24438455D-17  0.28328683D-03 -0.22992301D-02
  0.41447518D-17 -0.38283585D-03 -0.33980471D-02  0.11083596D-17  0.63708177D-04
  0.17011972D-04  0.23149980D-19  0.91969476D-03  0.74048065D-03 -0.16601754D-02
 -0.11251492D-04 -0.10766302D-17 -0.35216774D-17  0.32190153D-03 -0.46328045D-03
  0.14137891D-03 -0.98659694D-04  0.55883126D-18 -0.65775298D-18 -0.28157125D-03