 Molden2AIM, Version 4.0.0 (06/02/2016)           Time: Sun Jul  1 16:40:20 2018
GAUSSIAN             22 MOL ORBITALS    539 PRIMITIVES        9 NUCLEI
  C    1    (CENTRE  1)   1.34605759  0.00000000 -2.48580244  CHARGE =  6.0
  C    2    (CENTRE  2)  -1.34605759  0.00000000 -2.48580244  CHARGE =  6.0
  S    3    (CENTRE  3)   0.00000000  0.00000000  2.17192649  CHARGE = 16.0
  C    4    (CENTRE  4)  -2.34014991  0.00000000 -0.09647430  CHARGE =  6.0
  C    5    (CENTRE  5)   2.34014991  0.00000000 -0.09647430  CHARGE =  6.0
  H    6    (CENTRE  6)   2.50182542  0.00000000 -4.18840410  CHARGE =  1.0
  H    7    (CENTRE  7)  -2.50182542  0.00000000 -4.18840410  CHARGE =  1.0
  H    8    (CENTRE  8)  -4.31560723  0.00000000  0.46511262  CHARGE =  1.0
  H    9    (CENTRE  9)   4.31560723  0.00000000  0.46511262  CHARGE =  1.0
CENTRE ASSIGNMENTS    1  1  1  1  1  1  1  1  1  1  1  1  1  1  1  1  1  1  1  1
CENTRE ASSIGNMENTS    1  1  1  1  1  1  1  1  1  1  1  1  1  1  1  1  1  1  1  1
CENTRE ASSIGNMENTS    1  1  1  1  1  1  1  1  1  1  1  1  1  1  1  1  1  1  1  1
CENTRE ASSIGNMENTS    1  1  1  1  1  1  1  1  1  1  1  1  1  1  1  2  2  2  2  2
CENTRE ASSIGNMENTS    2  2  2  2  2  2  2  2  2  2  2  2  2  2  2  2  2  2  2  2
CENTRE ASSIGNMENTS    2  2  2  2  2  2  2  2  2  2  2  2  2  2  2  2  2  2  2  2
CENTRE ASSIGNMENTS    2  2  2  2  2  2  2  2  2  2  2  2  2  2  2  2  2  2  2  2
CENTRE ASSIGNMENTS    2  2  2  2  2  2  2  2  2  2  3  3  3  3  3  3  3  3  3  3
CENTRE ASSIGNMENTS    3  3  3  3  3  3  3  3  3  3  3  3  3  3  3  3  3  3  3  3
CENTRE ASSIGNMENTS    3  3  3  3  3  3  3  3  3  3  3  3  3  3  3  3  3  3  3  3
CENTRE ASSIGNMENTS    3  3  3  3  3  3  3  3  3  3  3  3  3  3  3  3  3  3  3  3
CENTRE ASSIGNMENTS    3  3  3  3  3  3  3  3  3  3  3  3  3  3  3  3  3  3  3  3
CENTRE ASSIGNMENTS    3  3  3  3  3  3  3  3  3  3  3  3  3  3  3  3  3  3  3  3
CENTRE ASSIGNMENTS    3  3  3  3  3  3  3  3  3  3  3  3  3  3  3  3  3  3  3  3
CENTRE ASSIGNMENTS    3  4  4  4  4  4  4  4  4  4  4  4  4  4  4  4  4  4  4  4
CENTRE ASSIGNMENTS    4  4  4  4  4  4  4  4  4  4  4  4  4  4  4  4  4  4  4  4
CENTRE ASSIGNMENTS    4  4  4  4  4  4  4  4  4  4  4  4  4  4  4  4  4  4  4  4
CENTRE ASSIGNMENTS    4  4  4  4  4  4  4  4  4  4  4  4  4  4  4  4  5  5  5  5
CENTRE ASSIGNMENTS    5  5  5  5  5  5  5  5  5  5  5  5  5  5  5  5  5  5  5  5
CENTRE ASSIGNMENTS    5  5  5  5  5  5  5  5  5  5  5  5  5  5  5  5  5  5  5  5
CENTRE ASSIGNMENTS    5  5  5  5  5  5  5  5  5  5  5  5  5  5  5  5  5  5  5  5
CENTRE ASSIGNMENTS    5  5  5  5  5  5  5  5  5  5  5  6  6  6  6  6  6  6  6  6
CENTRE ASSIGNMENTS    6  6  6  6  6  6  6  6  6  6  6  6  6  6  6  6  6  6  7  7
CENTRE ASSIGNMENTS    7  7  7  7  7  7  7  7  7  7  7  7  7  7  7  7  7  7  7  7
CENTRE ASSIGNMENTS    7  7  7  7  7  8  8  8  8  8  8  8  8  8  8  8  8  8  8  8
CENTRE ASSIGNMENTS    8  8  8  8  8  8  8  8  8  8  8  8  9  9  9  9  9  9  9  9
CENTRE ASSIGNMENTS    9  9  9  9  9  9  9  9  9  9  9  9  9  9  9  9  9  9  9
TYPE ASSIGNMENTS      1  1  1  1  1  1  1  1  1  1  1  1  1  1  1  1  1  1  1  2
TYPE ASSIGNMENTS      2  2  3  3  3  4  4  4  2  3  4  2  3  4  2  3  4  5  6  7
TYPE ASSIGNMENTS      8  9 10  5  6  7  8  9 10  5  6  7  8  9 10 11 12 13 17 14
TYPE ASSIGNMENTS     15 18 19 16 20 11 12 13 17 14 15 18 19 16 20  1  1  1  1  1
TYPE ASSIGNMENTS      1  1  1  1  1  1  1  1  1  1  1  1  1  1  2  2  2  3  3  3
TYPE ASSIGNMENTS      4  4  4  2  3  4  2  3  4  2  3  4  5  6  7  8  9 10  5  6
TYPE ASSIGNMENTS      7  8  9 10  5  6  7  8  9 10 11 12 13 17 14 15 18 19 16 20
TYPE ASSIGNMENTS     11 12 13 17 14 15 18 19 16 20  1  1  1  1  1  1  1  1  1  1
TYPE ASSIGNMENTS      1  1  1  1  1  1  1  1  1  1  1  1  1  1  1  1  1  1  1  1
TYPE ASSIGNMENTS      1  1  1  1  1  1  1  1  1  1  1  1  2  2  2  2  2  2  2  3
TYPE ASSIGNMENTS      3  3  3  3  3  3  4  4  4  4  4  4  4  2  2  2  2  2  2  2
TYPE ASSIGNMENTS      3  3  3  3  3  3  3  4  4  4  4  4  4  4  2  3  4  2  3  4
TYPE ASSIGNMENTS      2  3  4  5  6  7  8  9 10  5  6  7  8  9 10  5  6  7  8  9
TYPE ASSIGNMENTS     10 11 12 13 17 14 15 18 19 16 20 11 12 13 17 14 15 18 19 16
TYPE ASSIGNMENTS     20  1  1  1  1  1  1  1  1  1  1  1  1  1  1  1  1  1  1  1
TYPE ASSIGNMENTS      2  2  2  3  3  3  4  4  4  2  3  4  2  3  4  2  3  4  5  6
TYPE ASSIGNMENTS      7  8  9 10  5  6  7  8  9 10  5  6  7  8  9 10 11 12 13 17
TYPE ASSIGNMENTS     14 15 18 19 16 20 11 12 13 17 14 15 18 19 16 20  1  1  1  1
TYPE ASSIGNMENTS      1  1  1  1  1  1  1  1  1  1  1  1  1  1  1  2  2  2  3  3
TYPE ASSIGNMENTS      3  4  4  4  2  3  4  2  3  4  2  3  4  5  6  7  8  9 10  5
TYPE ASSIGNMENTS      6  7  8  9 10  5  6  7  8  9 10 11 12 13 17 14 15 18 19 16
TYPE ASSIGNMENTS     20 11 12 13 17 14 15 18 19 16 20  1  1  1  1  1  1  2  3  4
TYPE ASSIGNMENTS      2  3  4  2  3  4  5  6  7  8  9 10  5  6  7  8  9 10  1  1
TYPE ASSIGNMENTS      1  1  1  1  2  3  4  2  3  4  2  3  4  5  6  7  8  9 10  5
TYPE ASSIGNMENTS      6  7  8  9 10  1  1  1  1  1  1  2  3  4  2  3  4  2  3  4
TYPE ASSIGNMENTS      5  6  7  8  9 10  5  6  7  8  9 10  1  1  1  1  1  1  2  3
TYPE ASSIGNMENTS      4  2  3  4  2  3  4  5  6  7  8  9 10  5  6  7  8  9 10
EXPONENTS  0.8236000D+04 0.1235000D+04 0.2808000D+03 0.7927000D+02 0.2559000D+02
EXPONENTS  0.8997000D+01 0.3319000D+01 0.3643000D+00 0.8236000D+04 0.1235000D+04
EXPONENTS  0.2808000D+03 0.7927000D+02 0.2559000D+02 0.8997000D+01 0.3319000D+01
EXPONENTS  0.3643000D+00 0.9059000D+00 0.1285000D+00 0.4402000D-01 0.1871000D+02
EXPONENTS  0.4133000D+01 0.1200000D+01 0.1871000D+02 0.4133000D+01 0.1200000D+01
EXPONENTS  0.1871000D+02 0.4133000D+01 0.1200000D+01 0.3827000D+00 0.3827000D+00
EXPONENTS  0.3827000D+00 0.1209000D+00 0.1209000D+00 0.1209000D+00 0.3569000D-01
EXPONENTS  0.3569000D-01 0.3569000D-01 0.1097000D+01 0.1097000D+01 0.1097000D+01
EXPONENTS  0.1097000D+01 0.1097000D+01 0.1097000D+01 0.3180000D+00 0.3180000D+00
EXPONENTS  0.3180000D+00 0.3180000D+00 0.3180000D+00 0.3180000D+00 0.1000000D+00
EXPONENTS  0.1000000D+00 0.1000000D+00 0.1000000D+00 0.1000000D+00 0.1000000D+00
EXPONENTS  0.7610000D+00 0.7610000D+00 0.7610000D+00 0.7610000D+00 0.7610000D+00
EXPONENTS  0.7610000D+00 0.7610000D+00 0.7610000D+00 0.7610000D+00 0.7610000D+00
EXPONENTS  0.2680000D+00 0.2680000D+00 0.2680000D+00 0.2680000D+00 0.2680000D+00
EXPONENTS  0.2680000D+00 0.2680000D+00 0.2680000D+00 0.2680000D+00 0.2680000D+00
EXPONENTS  0.8236000D+04 0.1235000D+04 0.2808000D+03 0.7927000D+02 0.2559000D+02
EXPONENTS  0.8997000D+01 0.3319000D+01 0.3643000D+00 0.8236000D+04 0.1235000D+04
EXPONENTS  0.2808000D+03 0.7927000D+02 0.2559000D+02 0.8997000D+01 0.3319000D+01
EXPONENTS  0.3643000D+00 0.9059000D+00 0.1285000D+00 0.4402000D-01 0.1871000D+02
EXPONENTS  0.4133000D+01 0.1200000D+01 0.1871000D+02 0.4133000D+01 0.1200000D+01
EXPONENTS  0.1871000D+02 0.4133000D+01 0.1200000D+01 0.3827000D+00 0.3827000D+00
EXPONENTS  0.3827000D+00 0.1209000D+00 0.1209000D+00 0.1209000D+00 0.3569000D-01
EXPONENTS  0.3569000D-01 0.3569000D-01 0.1097000D+01 0.1097000D+01 0.1097000D+01
EXPONENTS  0.1097000D+01 0.1097000D+01 0.1097000D+01 0.3180000D+00 0.3180000D+00
EXPONENTS  0.3180000D+00 0.3180000D+00 0.3180000D+00 0.3180000D+00 0.1000000D+00
EXPONENTS  0.1000000D+00 0.1000000D+00 0.1000000D+00 0.1000000D+00 0.1000000D+00
EXPONENTS  0.7610000D+00 0.7610000D+00 0.7610000D+00 0.7610000D+00 0.7610000D+00
EXPONENTS  0.7610000D+00 0.7610000D+00 0.7610000D+00 0.7610000D+00 0.7610000D+00
EXPONENTS  0.2680000D+00 0.2680000D+00 0.2680000D+00 0.2680000D+00 0.2680000D+00
EXPONENTS  0.2680000D+00 0.2680000D+00 0.2680000D+00 0.2680000D+00 0.2680000D+00
EXPONENTS  0.3741000D+06 0.5605000D+05 0.1276000D+05 0.3615000D+04 0.1183000D+04
EXPONENTS  0.4288000D+03 0.1678000D+03 0.6947000D+02 0.2984000D+02 0.1272000D+02
EXPONENTS  0.5244000D+01 0.2219000D+01 0.3490000D+00 0.3741000D+06 0.5605000D+05
EXPONENTS  0.1276000D+05 0.3615000D+04 0.1183000D+04 0.4288000D+03 0.1678000D+03
EXPONENTS  0.6947000D+02 0.2984000D+02 0.1272000D+02 0.5244000D+01 0.2219000D+01
EXPONENTS  0.3490000D+00 0.3741000D+06 0.5605000D+05 0.1276000D+05 0.3615000D+04
EXPONENTS  0.1183000D+04 0.4288000D+03 0.1678000D+03 0.6947000D+02 0.2984000D+02
EXPONENTS  0.1272000D+02 0.5244000D+01 0.2219000D+01 0.3490000D+00 0.7767000D+00
EXPONENTS  0.1322000D+00 0.4970000D-01 0.5744000D+03 0.1358000D+03 0.4319000D+02
EXPONENTS  0.1587000D+02 0.6208000D+01 0.2483000D+01 0.3229000D+00 0.5744000D+03
EXPONENTS  0.1358000D+03 0.4319000D+02 0.1587000D+02 0.6208000D+01 0.2483000D+01
EXPONENTS  0.3229000D+00 0.5744000D+03 0.1358000D+03 0.4319000D+02 0.1587000D+02
EXPONENTS  0.6208000D+01 0.2483000D+01 0.3229000D+00 0.5744000D+03 0.1358000D+03
EXPONENTS  0.4319000D+02 0.1587000D+02 0.6208000D+01 0.2483000D+01 0.3229000D+00
EXPONENTS  0.5744000D+03 0.1358000D+03 0.4319000D+02 0.1587000D+02 0.6208000D+01
EXPONENTS  0.2483000D+01 0.3229000D+00 0.5744000D+03 0.1358000D+03 0.4319000D+02
EXPONENTS  0.1587000D+02 0.6208000D+01 0.2483000D+01 0.3229000D+00 0.8688000D+00
EXPONENTS  0.8688000D+00 0.8688000D+00 0.1098000D+00 0.1098000D+00 0.1098000D+00
EXPONENTS  0.3510000D-01 0.3510000D-01 0.3510000D-01 0.2690000D+00 0.2690000D+00
EXPONENTS  0.2690000D+00 0.2690000D+00 0.2690000D+00 0.2690000D+00 0.8190000D+00
EXPONENTS  0.8190000D+00 0.8190000D+00 0.8190000D+00 0.8190000D+00 0.8190000D+00
EXPONENTS  0.1010000D+00 0.1010000D+00 0.1010000D+00 0.1010000D+00 0.1010000D+00
EXPONENTS  0.1010000D+00 0.5570000D+00 0.5570000D+00 0.5570000D+00 0.5570000D+00
EXPONENTS  0.5570000D+00 0.5570000D+00 0.5570000D+00 0.5570000D+00 0.5570000D+00
EXPONENTS  0.5570000D+00 0.2180000D+00 0.2180000D+00 0.2180000D+00 0.2180000D+00
EXPONENTS  0.2180000D+00 0.2180000D+00 0.2180000D+00 0.2180000D+00 0.2180000D+00
EXPONENTS  0.2180000D+00 0.8236000D+04 0.1235000D+04 0.2808000D+03 0.7927000D+02
EXPONENTS  0.2559000D+02 0.8997000D+01 0.3319000D+01 0.3643000D+00 0.8236000D+04
EXPONENTS  0.1235000D+04 0.2808000D+03 0.7927000D+02 0.2559000D+02 0.8997000D+01
EXPONENTS  0.3319000D+01 0.3643000D+00 0.9059000D+00 0.1285000D+00 0.4402000D-01
EXPONENTS  0.1871000D+02 0.4133000D+01 0.1200000D+01 0.1871000D+02 0.4133000D+01
EXPONENTS  0.1200000D+01 0.1871000D+02 0.4133000D+01 0.1200000D+01 0.3827000D+00
EXPONENTS  0.3827000D+00 0.3827000D+00 0.1209000D+00 0.1209000D+00 0.1209000D+00
EXPONENTS  0.3569000D-01 0.3569000D-01 0.3569000D-01 0.1097000D+01 0.1097000D+01
EXPONENTS  0.1097000D+01 0.1097000D+01 0.1097000D+01 0.1097000D+01 0.3180000D+00
EXPONENTS  0.3180000D+00 0.3180000D+00 0.3180000D+00 0.3180000D+00 0.3180000D+00
EXPONENTS  0.1000000D+00 0.1000000D+00 0.1000000D+00 0.1000000D+00 0.1000000D+00
EXPONENTS  0.1000000D+00 0.7610000D+00 0.7610000D+00 0.7610000D+00 0.7610000D+00
EXPONENTS  0.7610000D+00 0.7610000D+00 0.7610000D+00 0.7610000D+00 0.7610000D+00
EXPONENTS  0.7610000D+00 0.2680000D+00 0.2680000D+00 0.2680000D+00 0.2680000D+00
EXPONENTS  0.2680000D+00 0.2680000D+00 0.2680000D+00 0.2680000D+00 0.2680000D+00
EXPONENTS  0.2680000D+00 0.8236000D+04 0.1235000D+04 0.2808000D+03 0.7927000D+02
EXPONENTS  0.2559000D+02 0.8997000D+01 0.3319000D+01 0.3643000D+00 0.8236000D+04
EXPONENTS  0.1235000D+04 0.2808000D+03 0.7927000D+02 0.2559000D+02 0.8997000D+01
EXPONENTS  0.3319000D+01 0.3643000D+00 0.9059000D+00 0.1285000D+00 0.4402000D-01
EXPONENTS  0.1871000D+02 0.4133000D+01 0.1200000D+01 0.1871000D+02 0.4133000D+01
EXPONENTS  0.1200000D+01 0.1871000D+02 0.4133000D+01 0.1200000D+01 0.3827000D+00
EXPONENTS  0.3827000D+00 0.3827000D+00 0.1209000D+00 0.1209000D+00 0.1209000D+00
EXPONENTS  0.3569000D-01 0.3569000D-01 0.3569000D-01 0.1097000D+01 0.1097000D+01
EXPONENTS  0.1097000D+01 0.1097000D+01 0.1097000D+01 0.1097000D+01 0.3180000D+00
EXPONENTS  0.3180000D+00 0.3180000D+00 0.3180000D+00 0.3180000D+00 0.3180000D+00
EXPONENTS  0.1000000D+00 0.1000000D+00 0.1000000D+00 0.1000000D+00 0.1000000D+00
EXPONENTS  0.1000000D+00 0.7610000D+00 0.7610000D+00 0.7610000D+00 0.7610000D+00
EXPONENTS  0.7610000D+00 0.7610000D+00 0.7610000D+00 0.7610000D+00 0.7610000D+00
EXPONENTS  0.7610000D+00 0.2680000D+00 0.2680000D+00 0.2680000D+00 0.2680000D+00
EXPONENTS  0.2680000D+00 0.2680000D+00 0.2680000D+00 0.2680000D+00 0.2680000D+00
EXPONENTS  0.2680000D+00 0.3387000D+02 0.5095000D+01 0.1159000D+01 0.3258000D+00
EXPONENTS  0.1027000D+00 0.2526000D-01 0.1407000D+01 0.1407000D+01 0.1407000D+01
EXPONENTS  0.3880000D+00 0.3880000D+00 0.3880000D+00 0.1020000D+00 0.1020000D+00
EXPONENTS  0.1020000D+00 0.1057000D+01 0.1057000D+01 0.1057000D+01 0.1057000D+01
EXPONENTS  0.1057000D+01 0.1057000D+01 0.2470000D+00 0.2470000D+00 0.2470000D+00
EXPONENTS  0.2470000D+00 0.2470000D+00 0.2470000D+00 0.3387000D+02 0.5095000D+01
EXPONENTS  0.1159000D+01 0.3258000D+00 0.1027000D+00 0.2526000D-01 0.1407000D+01
EXPONENTS  0.1407000D+01 0.1407000D+01 0.3880000D+00 0.3880000D+00 0.3880000D+00
EXPONENTS  0.1020000D+00 0.1020000D+00 0.1020000D+00 0.1057000D+01 0.1057000D+01
EXPONENTS  0.1057000D+01 0.1057000D+01 0.1057000D+01 0.1057000D+01 0.2470000D+00
EXPONENTS  0.2470000D+00 0.2470000D+00 0.2470000D+00 0.2470000D+00 0.2470000D+00
EXPONENTS  0.3387000D+02 0.5095000D+01 0.1159000D+01 0.3258000D+00 0.1027000D+00
EXPONENTS  0.2526000D-01 0.1407000D+01 0.1407000D+01 0.1407000D+01 0.3880000D+00
EXPONENTS  0.3880000D+00 0.3880000D+00 0.1020000D+00 0.1020000D+00 0.1020000D+00
EXPONENTS  0.1057000D+01 0.1057000D+01 0.1057000D+01 0.1057000D+01 0.1057000D+01
EXPONENTS  0.1057000D+01 0.2470000D+00 0.2470000D+00 0.2470000D+00 0.2470000D+00
EXPONENTS  0.2470000D+00 0.2470000D+00 0.3387000D+02 0.5095000D+01 0.1159000D+01
EXPONENTS  0.3258000D+00 0.1027000D+00 0.2526000D-01 0.1407000D+01 0.1407000D+01
EXPONENTS  0.1407000D+01 0.3880000D+00 0.3880000D+00 0.3880000D+00 0.1020000D+00
EXPONENTS  0.1020000D+00 0.1020000D+00 0.1057000D+01 0.1057000D+01 0.1057000D+01
EXPONENTS  0.1057000D+01 0.1057000D+01 0.1057000D+01 0.2470000D+00 0.2470000D+00
EXPONENTS  0.2470000D+00 0.2470000D+00 0.2470000D+00 0.2470000D+00
MO    1     MO 0.0        OCC NO =    2.0000000  ORB. ENERGY =  -91.985418
 -0.56396083D-05 -0.10513512D-04 -0.17769688D-04 -0.26713661D-04 -0.32820819D-04
 -0.27722429D-04 -0.10455880D-04  0.51746734D-07  0.39607263D-05  0.74157293D-05
  0.12625914D-04  0.19530369D-04  0.25720809D-04  0.26725568D-04  0.16982898D-04
 -0.11381544D-04 -0.45461724D-05  0.10912569D-03 -0.73614356D-06 -0.64333220D-06
 -0.60316483D-06 -0.42948929D-06 -0.61779076D-16 -0.57921811D-16 -0.41243780D-16
  0.13465316D-05  0.12624590D-05  0.89894602D-06  0.55394279D-05  0.58013678D-18
 -0.25500471D-04  0.41545075D-06  0.16763753D-18  0.23682565D-04 -0.66634702D-06
  0.91334341D-20  0.36854251D-06 -0.30445556D-05  0.22991690D-05  0.74538660D-06
 -0.17282302D-19 -0.21757648D-05 -0.28101127D-19  0.41951176D-05 -0.43571363D-05
  0.16201875D-06 -0.37117203D-19 -0.27132236D-05  0.73088563D-19 -0.67165104D-05
  0.10012619D-05  0.57152485D-05 -0.17407096D-19 -0.18625824D-05  0.18764949D-21
  0.63077662D-07 -0.62878374D-19  0.31222205D-05  0.27500156D-05  0.11177556D-18
 -0.52998498D-05 -0.29392486D-05  0.76859559D-19 -0.40668115D-05 -0.19295632D-19
  0.86584653D-06 -0.14928183D-19 -0.19239297D-05 -0.99503997D-06  0.44853049D-19
  0.70994315D-05 -0.16024996D-05 -0.68499170D-22 -0.13276423D-05  0.57979643D-19
 -0.56396083D-05 -0.10513512D-04 -0.17769688D-04 -0.26713661D-04 -0.32820819D-04
 -0.27722429D-04 -0.10455880D-04  0.51746734D-07  0.39607263D-05  0.74157293D-05
  0.12625914D-04  0.19530369D-04  0.25720809D-04  0.26725568D-04  0.16982898D-04
 -0.11381544D-04 -0.45461723D-05  0.10912569D-03 -0.73614344D-06  0.64333221D-06
  0.60316484D-06  0.42948930D-06  0.16153068D-18  0.15144528D-18  0.10783806D-18
  0.13465316D-05  0.12624590D-05  0.89894602D-06 -0.55394279D-05 -0.12485911D-18
 -0.25500471D-04 -0.41545081D-06 -0.13389797D-18  0.23682565D-04  0.66634703D-06
 -0.49275606D-20  0.36854251D-06 -0.30445556D-05  0.22991690D-05  0.74538660D-06
  0.14278879D-18  0.21757648D-05 -0.10238392D-19  0.41951176D-05 -0.43571363D-05
  0.16201876D-06 -0.15811981D-18  0.27132236D-05  0.34454590D-19 -0.67165104D-05
  0.10012619D-05  0.57152485D-05 -0.15796687D-19  0.18625824D-05  0.10937978D-19
 -0.63077665D-07  0.15103476D-19  0.31222205D-05 -0.27500156D-05 -0.11297101D-18
 -0.52998498D-05  0.29392486D-05  0.67660580D-19 -0.40668115D-05 -0.38225809D-19
 -0.86584653D-06  0.17397829D-19 -0.19239297D-05  0.99503997D-06 -0.31259153D-19
  0.70994315D-05  0.16024996D-05 -0.20934333D-19 -0.13276423D-05  0.28495446D-19
  0.58449014D+00  0.10926704D+01  0.18884755D+01  0.30545244D+01  0.46167348D+01
  0.63580014D+01  0.74310296D+01  0.64209702D+01  0.29947634D+01  0.40662417D+00
  0.10888393D-02  0.21358527D-02  0.97510596D-04 -0.35177972D-04 -0.65696361D-04
 -0.11396050D-03 -0.18478302D-03 -0.28449449D-03 -0.40518406D-03 -0.52101410D-03
 -0.54690976D-03 -0.38670396D-03  0.85637211D-05  0.27785179D-03  0.15299274D-03
 -0.64700369D-06  0.15863878D-04  0.29604344D-04  0.51419202D-04  0.83287699D-04
  0.12865512D-03  0.18341720D-03  0.23856587D-03  0.25424691D-03  0.18856965D-03
 -0.58694728D-05 -0.17083428D-03 -0.16735863D-03  0.78166404D-04 -0.44495877D-03
 -0.16812795D-04 -0.46274158D-06 -0.15706096D-12 -0.20605542D-12 -0.22601139D-12
 -0.18596576D-12 -0.98044824D-13 -0.25506629D-13  0.28225686D-16 -0.80237996D-17
 -0.10526788D-16 -0.11546282D-16 -0.95004639D-17 -0.50088324D-17 -0.13030615D-17
  0.14419704D-20 -0.19476189D-02 -0.25551699D-02 -0.28026319D-02 -0.23060499D-02
 -0.12157951D-02 -0.31629243D-03  0.35000982D-06  0.14030377D-12  0.18421971D-12
  0.20725959D-12  0.17463188D-12  0.97686623D-13  0.24314002D-13 -0.11151573D-13
  0.18980653D-17  0.24921713D-17  0.28038608D-17  0.23624647D-17  0.13215296D-17
  0.32892604D-18 -0.15086133D-18  0.10756280D-02  0.14123061D-02  0.15889396D-02
  0.13388018D-02  0.74890693D-03  0.18640141D-03 -0.85492668D-04  0.60298671D-14
  0.46771277D-18  0.11965344D-03 -0.23267150D-13  0.51959627D-19 -0.11437281D-04
 -0.14892214D-14  0.31544933D-20  0.18282921D-06 -0.51494554D-05 -0.11131480D-04
  0.16280935D-04  0.93743779D-20  0.81212959D-14  0.40103344D-19  0.10060278D-04
 -0.66588408D-05 -0.34014368D-05  0.47725329D-19 -0.13073465D-14 -0.49508520D-19
 -0.16331335D-05  0.69969844D-07  0.15631637D-05  0.34885641D-20  0.33985062D-14
 -0.10071200D-19  0.32351586D-16  0.15901806D-19 -0.24397367D-05  0.14954174D-14
 -0.90838488D-20 -0.87773084D-05 -0.15924722D-14 -0.38621569D-19  0.16096518D-04
  0.44402382D-19 -0.69156142D-16 -0.22091781D-20 -0.73117697D-06  0.36016021D-15
  0.10367062D-19  0.12308155D-05 -0.15269179D-15 -0.37395276D-20  0.96271537D-06
 -0.69667155D-20 -0.10106250D-05 -0.18840347D-05 -0.31843505D-05 -0.47871219D-05
 -0.58815324D-05 -0.49678944D-05 -0.18737070D-05  0.92730804D-08  0.65536924D-06
  0.12270580D-05  0.20891712D-05  0.32316302D-05  0.42559433D-05  0.44221977D-05
  0.28101081D-05 -0.18832691D-05  0.12610631D-04 -0.10633555D-03 -0.16418762D-05
  0.10694300D-04  0.10026586D-04  0.71395267D-05 -0.91900873D-19 -0.86162910D-19
 -0.61353125D-19  0.10015001D-04  0.93897001D-05  0.66860258D-05 -0.29923346D-05
  0.61925971D-19 -0.23020793D-04 -0.29883842D-04 -0.22947116D-19  0.12509704D-04
 -0.81276685D-06 -0.14197200D-20 -0.16692431D-07  0.32316724D-05  0.15871934D-06
 -0.33903917D-05 -0.54338096D-19 -0.67970960D-05  0.64468967D-19 -0.13248332D-04
  0.10333156D-04  0.29151759D-05  0.34441344D-19 -0.25100656D-04 -0.23469354D-19
 -0.26048436D-05  0.57720440D-07  0.25471232D-05  0.43921226D-20  0.75852106D-05
 -0.65967007D-20  0.11347583D-06 -0.77553500D-20  0.10806733D-05  0.22499146D-05
  0.93949878D-20 -0.79342724D-05 -0.25903421D-05  0.13871062D-19  0.46922524D-05
  0.25837873D-19 -0.27765193D-05  0.43215656D-21  0.89509714D-06  0.32511769D-05
  0.75624155D-20 -0.28819082D-05  0.50783811D-05 -0.88588852D-20  0.19661675D-06
  0.22038039D-19 -0.10106250D-05 -0.18840347D-05 -0.31843505D-05 -0.47871219D-05
 -0.58815324D-05 -0.49678944D-05 -0.18737070D-05  0.92730804D-08  0.65536924D-06
  0.12270580D-05  0.20891712D-05  0.32316302D-05  0.42559433D-05  0.44221977D-05
  0.28101081D-05 -0.18832691D-05  0.12610631D-04 -0.10633555D-03 -0.16418762D-05
 -0.10694300D-04 -0.10026586D-04 -0.71395267D-05  0.12880402D-18  0.12076195D-18
  0.85989706D-19  0.10015001D-04  0.93897001D-05  0.66860258D-05  0.29923346D-05
 -0.78771865D-19 -0.23020793D-04  0.29883842D-04 -0.89717774D-19  0.12509704D-04
  0.81276684D-06 -0.76246083D-20 -0.16692429D-07  0.32316724D-05  0.15871934D-06
 -0.33903917D-05 -0.19155276D-19  0.67970960D-05 -0.15116702D-18 -0.13248332D-04
  0.10333156D-04  0.29151759D-05 -0.70694026D-20  0.25100656D-04  0.15781930D-18
 -0.26048436D-05  0.57720441D-07  0.25471232D-05  0.15860409D-19 -0.75852106D-05
 -0.65215955D-22 -0.11347583D-06 -0.21897813D-19  0.10806733D-05 -0.22499146D-05
  0.15404624D-19 -0.79342724D-05  0.25903421D-05  0.50288815D-19  0.46922524D-05
 -0.28374550D-19  0.27765193D-05  0.10726357D-19  0.89509714D-06 -0.32511769D-05
  0.22733995D-19 -0.28819082D-05 -0.50783811D-05 -0.54913068D-19  0.19661675D-06
 -0.19716865D-19  0.58133074D-06  0.10484539D-05  0.15459447D-05 -0.10025135D-04
 -0.14322330D-04  0.73123532D-06 -0.28070615D-05  0.26125274D-19 -0.14610425D-07
  0.10929446D-04 -0.41831477D-19 -0.65557614D-05  0.68347519D-05 -0.23499193D-19
  0.21261483D-05 -0.19722180D-06  0.29087336D-05 -0.27115118D-05  0.23282236D-19
  0.61569563D-06  0.12857865D-19  0.30463198D-06  0.17222322D-06 -0.47685520D-06
  0.15779308D-19  0.20972890D-05 -0.41085479D-19  0.58133074D-06  0.10484539D-05
  0.15459447D-05 -0.10025135D-04 -0.14322330D-04  0.73123533D-06  0.28070615D-05
 -0.30034793D-19 -0.14610426D-07 -0.10929446D-04  0.48797473D-19 -0.65557614D-05
 -0.68347519D-05  0.22361374D-19  0.21261483D-05 -0.19722179D-06  0.29087336D-05
 -0.27115118D-05 -0.44365590D-19 -0.61569563D-06  0.11571954D-19  0.30463198D-06
  0.17222322D-06 -0.47685520D-06  0.34974700D-19 -0.20972890D-05  0.41945007D-20
 -0.81587986D-06 -0.14714729D-05 -0.21696860D-05  0.10301508D-04  0.20206441D-04
 -0.64330125D-06 -0.34993366D-05  0.10618204D-19 -0.46810123D-06  0.13707302D-04
  0.27457093D-20 -0.17841142D-05  0.19580817D-05  0.15201063D-19  0.10204332D-05
  0.37638194D-05 -0.36938516D-05 -0.69967815D-07 -0.40877031D-20  0.11973032D-05
  0.58695366D-19  0.92062216D-07 -0.38275574D-07 -0.53786642D-07  0.90300640D-20
 -0.20356463D-05  0.95005518D-20 -0.81587986D-06 -0.14714729D-05 -0.21696860D-05
  0.10301508D-04  0.20206441D-04 -0.64330124D-06  0.34993366D-05  0.13016989D-19
 -0.46810123D-06 -0.13707302D-04 -0.82352786D-20 -0.17841142D-05 -0.19580817D-05
  0.49319198D-20  0.10204332D-05  0.37638194D-05 -0.36938516D-05 -0.69967815D-07
 -0.17159355D-19 -0.11973032D-05  0.24801597D-19  0.92062217D-07 -0.38275575D-07
 -0.53786642D-07 -0.10111520D-19  0.20356463D-05  0.12320048D-19
MO    2     MO 0.0        OCC NO =    2.0000000  ORB. ENERGY =  -11.264791
  0.68413333D-02  0.12753801D-01  0.21556170D-01  0.32405984D-01  0.39814496D-01
  0.33629707D-01  0.12683888D-01 -0.62773270D-04 -0.59014483D-04 -0.11049373D-03
 -0.18812503D-03 -0.29100082D-03 -0.38323785D-03 -0.39820867D-03 -0.25304373D-03
  0.16958403D-03  0.10162692D-02 -0.26762422D-02 -0.78742182D-03  0.23082163D-03
  0.21640995D-03  0.15409677D-03  0.10995561D-15  0.10309037D-15  0.73406487D-16
  0.52497804D-03  0.49220028D-03  0.35047592D-03  0.52964858D-03  0.10107578D-16
 -0.61186372D-03 -0.93979504D-03 -0.38365252D-17 -0.90507205D-03  0.47530446D-04
  0.10450763D-17 -0.80318797D-05  0.16725024D-04  0.27028368D-04 -0.43753392D-04
 -0.67719289D-16 -0.71491669D-05  0.38327230D-16  0.76614557D-04  0.24027824D-03
 -0.31689279D-03 -0.28274338D-17 -0.16346147D-02  0.13270845D-16  0.13111387D-03
  0.39608768D-04 -0.17072264D-03 -0.10208140D-17  0.25392842D-03  0.12611352D-17
  0.77622254D-04  0.46056394D-19 -0.17149774D-03  0.11032295D-03 -0.18062266D-17
  0.23260500D-03 -0.34318972D-03  0.16680574D-17  0.28188822D-03  0.41348260D-17
  0.11923156D-03 -0.61845974D-19 -0.12011661D-03  0.10125322D-03  0.10958319D-17
  0.29414991D-03 -0.45894789D-03 -0.91029400D-18  0.66199924D-04  0.61323527D-18
 -0.68413333D-02 -0.12753801D-01 -0.21556170D-01 -0.32405984D-01 -0.39814496D-01
 -0.33629707D-01 -0.12683888D-01  0.62773270D-04  0.59014483D-04  0.11049373D-03
  0.18812503D-03  0.29100082D-03  0.38323785D-03  0.39820867D-03  0.25304373D-03
 -0.16958403D-03 -0.10162692D-02  0.26762422D-02  0.78742182D-03  0.23082163D-03
  0.21640995D-03  0.15409677D-03 -0.23498511D-17 -0.22031347D-17 -0.15687632D-17
 -0.52497804D-03 -0.49220028D-03 -0.35047592D-03  0.52964858D-03 -0.19498844D-17
  0.61186372D-03 -0.93979504D-03 -0.46617654D-17  0.90507205D-03  0.47530446D-04
 -0.13743607D-18  0.80318797D-05 -0.16725024D-04 -0.27028368D-04  0.43753392D-04
 -0.73846772D-19 -0.71491664D-05  0.18859818D-17 -0.76614557D-04 -0.24027824D-03
  0.31689279D-03 -0.37627297D-18 -0.16346147D-02 -0.37715966D-17 -0.13111387D-03
 -0.39608768D-04  0.17072264D-03 -0.81088007D-18  0.25392842D-03 -0.94032189D-18
  0.77622254D-04  0.27812827D-18  0.17149774D-03  0.11032295D-03 -0.15960283D-17
 -0.23260500D-03 -0.34318971D-03  0.76164345D-18 -0.28188822D-03  0.23267680D-17
  0.11923156D-03  0.25451028D-19  0.12011661D-03  0.10125322D-03  0.61180238D-18
 -0.29414991D-03 -0.45894789D-03 -0.68815547D-18 -0.66199924D-04  0.15137108D-17
  0.86138695D-13  0.16103129D-12  0.27831234D-12  0.45015772D-12  0.68038703D-12
  0.93700459D-12  0.10951411D-11  0.94628455D-12  0.44135049D-12  0.59925861D-13
  0.16046669D-15  0.31476931D-15  0.14370534D-16 -0.17272957D-12 -0.32257984D-12
 -0.55956464D-12 -0.90731472D-12 -0.13969143D-11 -0.19895197D-11 -0.25582641D-11
 -0.26854161D-11 -0.18987795D-11  0.42049266D-13  0.13642976D-11  0.75121927D-12
 -0.31768936D-14  0.10106111D-12  0.18859498D-12  0.32756691D-12  0.53058571D-12
  0.81959964D-12  0.11684624D-11  0.15197880D-11  0.16196843D-11  0.12012862D-11
 -0.37391577D-13 -0.10883027D-11 -0.10661610D-11  0.49796042D-12 -0.30134180D-12
  0.27117353D-11  0.90661629D-14  0.15564360D-01  0.20419593D-01  0.22397181D-01
  0.18428755D-01  0.97160042D-02  0.25276451D-02 -0.27970970D-05  0.18537150D-17
  0.24319732D-17  0.26675039D-17  0.21948645D-17  0.11571760D-17  0.30104249D-18
 -0.33313421D-21 -0.15138789D-10 -0.19861267D-10 -0.21784783D-10 -0.17924865D-10
 -0.94503432D-11 -0.24585326D-11  0.27206170D-14 -0.14961089D-01 -0.19644001D-01
 -0.22100825D-01 -0.18621616D-01 -0.10416671D-01 -0.25926882D-02  0.11891318D-02
 -0.17439148D-16 -0.22897707D-16 -0.25761465D-16 -0.21705982D-16 -0.12142022D-16
 -0.30221245D-17  0.13860919D-17  0.14394221D-10  0.18899700D-10  0.21263437D-10
  0.17916053D-10  0.10021989D-10  0.24944527D-11 -0.11440762D-11 -0.30383483D-03
 -0.29803176D-17  0.28177581D-12  0.59311303D-03  0.49396478D-18 -0.98189042D-12
  0.73707859D-05  0.12984503D-18 -0.15165511D-13 -0.12075437D-12 -0.12547538D-12
  0.24622975D-12 -0.12974397D-17 -0.10165494D-02 -0.39037464D-18  0.14690076D-12
 -0.21630642D-12  0.69405660D-13  0.30919538D-18 -0.51995843D-03  0.36309933D-19
 -0.13644653D-12  0.25615376D-13  0.11083115D-12 -0.16998911D-18 -0.12056038D-03
 -0.28849805D-18 -0.63920322D-04  0.60808138D-19 -0.55275335D-15 -0.11895684D-03
  0.63751843D-18 -0.11819312D-12  0.31071781D-03 -0.81994284D-18  0.11985138D-12
  0.18386049D-17 -0.49412449D-04 -0.38132479D-19 -0.17484503D-13 -0.19628929D-04
 -0.17730995D-18  0.46016061D-13  0.16786628D-03  0.29170739D-18  0.64374473D-14
  0.40844478D-18 -0.23145443D+00 -0.43148369D+00 -0.72928344D+00 -0.10963519D+01
 -0.13469950D+01 -0.11377526D+01 -0.42911842D+00  0.21237310D-02  0.35330756D-03
  0.66150323D-03  0.11262658D-02  0.17421620D-02  0.22943661D-02  0.23839933D-02
  0.15149207D-02 -0.10152646D-02 -0.20012124D-01 -0.12382523D-02 -0.16630573D-03
 -0.52570955D-03 -0.49288612D-03 -0.35096428D-03 -0.38997576D-17 -0.36562707D-17
 -0.26034825D-17 -0.15493546D-02 -0.14526184D-02 -0.10343508D-02 -0.59734860D-04
  0.20069385D-17  0.22285840D-02 -0.80197066D-03  0.12930871D-17  0.82280317D-03
 -0.34391913D-04 -0.35240609D-19  0.55639869D-05 -0.46014042D-03  0.10301105D-02
 -0.56997005D-03  0.54830603D-18  0.79031574D-03  0.37468435D-17  0.45009802D-03
 -0.23488607D-03 -0.21521195D-03  0.34106293D-18  0.68037874D-03 -0.39817817D-17
  0.51161879D-05  0.14325536D-04 -0.19441724D-04  0.28476563D-18  0.21338848D-03
 -0.44521840D-18  0.27625126D-03  0.25383637D-19  0.26828131D-03 -0.19878321D-03
  0.23815413D-18 -0.57891202D-03 -0.62997057D-03 -0.31430504D-18 -0.22593190D-03
  0.13218839D-17 -0.70565594D-04  0.58222070D-19 -0.10967985D-03  0.52129573D-04
 -0.49288435D-18  0.31089219D-03  0.15956721D-03  0.31821814D-18  0.18147366D-04
 -0.20996068D-17  0.23145443D+00  0.43148369D+00  0.72928344D+00  0.10963519D+01
  0.13469950D+01  0.11377526D+01  0.42911842D+00 -0.21237310D-02 -0.35330756D-03
 -0.66150323D-03 -0.11262658D-02 -0.17421620D-02 -0.22943661D-02 -0.23839933D-02
 -0.15149207D-02  0.10152646D-02  0.20012124D-01  0.12382523D-02  0.16630572D-03
 -0.52570955D-03 -0.49288612D-03 -0.35096428D-03 -0.11219316D-16 -0.10518822D-16
 -0.74900280D-17  0.15493546D-02  0.14526184D-02  0.10343508D-02 -0.59734860D-04
  0.21810393D-17 -0.22285840D-02 -0.80197066D-03 -0.22412503D-17 -0.82280317D-03
 -0.34391913D-04 -0.13778920D-18 -0.55639869D-05  0.46014042D-03 -0.10301105D-02
  0.56997005D-03  0.26229412D-17  0.79031574D-03 -0.33648094D-17 -0.45009802D-03
  0.23488607D-03  0.21521195D-03 -0.20239510D-17  0.68037874D-03  0.27834282D-18
 -0.51161885D-05 -0.14325536D-04  0.19441724D-04  0.78595828D-18  0.21338848D-03
  0.38586860D-18  0.27625126D-03  0.40063572D-18 -0.26828131D-03 -0.19878321D-03
  0.66031432D-18  0.57891202D-03 -0.62997057D-03 -0.18622215D-17  0.22593191D-03
 -0.50971040D-18 -0.70565594D-04 -0.18861219D-19  0.10967985D-03  0.52129573D-04
 -0.46304698D-18 -0.31089219D-03  0.15956721D-03  0.51963064D-18 -0.18147366D-04
  0.10768741D-17  0.22951423D-04  0.41393837D-04  0.61035189D-04 -0.28891887D-04
  0.18644919D-02 -0.25107255D-04 -0.78409753D-04  0.98774807D-18  0.16454336D-04