 Molden2AIM, Version 4.0.0 (06/02/2016)           Time: Thu Jun 28 19:26:59 2018
GAUSSIAN             20 MOL ORBITALS    356 PRIMITIVES        4 NUCLEI
  Al   1    (CENTRE  1)   0.00000000 -0.00101100  0.00000000  CHARGE = 13.0
  F    2    (CENTRE  2)   0.00000000  3.12136646  0.00000000  CHARGE =  9.0
  F    3    (CENTRE  3)   2.70510326 -1.56017868  0.00000000  CHARGE =  9.0
  F    4    (CENTRE  4)  -2.70510326 -1.56017868  0.00000000  CHARGE =  9.0
CENTRE ASSIGNMENTS    1  1  1  1  1  1  1  1  1  1  1  1  1  1  1  1  1  1  1  1
CENTRE ASSIGNMENTS    1  1  1  1  1  1  1  1  1  1  1  1  1  1  1  1  1  1  1  1
CENTRE ASSIGNMENTS    1  1  1  1  1  1  1  1  1  1  1  1  1  1  1  1  1  1  1  1
CENTRE ASSIGNMENTS    1  1  1  1  1  1  1  1  1  1  1  1  1  1  1  1  1  1  1  1
CENTRE ASSIGNMENTS    1  1  1  1  1  1  1  1  1  1  1  1  1  1  1  1  1  1  1  1
CENTRE ASSIGNMENTS    1  1  1  1  1  1  1  1  1  1  1  1  1  1  1  1  1  1  1  1
CENTRE ASSIGNMENTS    1  1  1  1  1  1  1  1  1  1  1  2  2  2  2  2  2  2  2  2
CENTRE ASSIGNMENTS    2  2  2  2  2  2  2  2  2  2  2  2  2  2  2  2  2  2  2  2
CENTRE ASSIGNMENTS    2  2  2  2  2  2  2  2  2  2  2  2  2  2  2  2  2  2  2  2
CENTRE ASSIGNMENTS    2  2  2  2  2  2  2  2  2  2  2  2  2  2  2  2  2  2  2  2
CENTRE ASSIGNMENTS    2  2  2  2  2  2  3  3  3  3  3  3  3  3  3  3  3  3  3  3
CENTRE ASSIGNMENTS    3  3  3  3  3  3  3  3  3  3  3  3  3  3  3  3  3  3  3  3
CENTRE ASSIGNMENTS    3  3  3  3  3  3  3  3  3  3  3  3  3  3  3  3  3  3  3  3
CENTRE ASSIGNMENTS    3  3  3  3  3  3  3  3  3  3  3  3  3  3  3  3  3  3  3  3
CENTRE ASSIGNMENTS    3  4  4  4  4  4  4  4  4  4  4  4  4  4  4  4  4  4  4  4
CENTRE ASSIGNMENTS    4  4  4  4  4  4  4  4  4  4  4  4  4  4  4  4  4  4  4  4
CENTRE ASSIGNMENTS    4  4  4  4  4  4  4  4  4  4  4  4  4  4  4  4  4  4  4  4
CENTRE ASSIGNMENTS    4  4  4  4  4  4  4  4  4  4  4  4  4  4  4  4
TYPE ASSIGNMENTS      1  1  1  1  1  1  1  1  1  1  1  1  1  1  1  1  1  1  1  1
TYPE ASSIGNMENTS      1  1  1  1  1  1  1  1  1  1  1  1  1  1  1  1  1  1  1  1
TYPE ASSIGNMENTS      1  1  2  2  2  2  2  2  2  3  3  3  3  3  3  3  4  4  4  4
TYPE ASSIGNMENTS      4  4  4  2  2  2  2  2  2  2  3  3  3  3  3  3  3  4  4  4
TYPE ASSIGNMENTS      4  4  4  4  2  3  4  2  3  4  2  3  4  5  6  7  8  9 10  5
TYPE ASSIGNMENTS      6  7  8  9 10  5  6  7  8  9 10 11 12 13 17 14 15 18 19 16
TYPE ASSIGNMENTS     20 11 12 13 17 14 15 18 19 16 20  1  1  1  1  1  1  1  1  1
TYPE ASSIGNMENTS      1  1  1  1  1  1  1  1  1  1  2  2  2  3  3  3  4  4  4  2
TYPE ASSIGNMENTS      3  4  2  3  4  2  3  4  5  6  7  8  9 10  5  6  7  8  9 10
TYPE ASSIGNMENTS      5  6  7  8  9 10 11 12 13 17 14 15 18 19 16 20 11 12 13 17
TYPE ASSIGNMENTS     14 15 18 19 16 20  1  1  1  1  1  1  1  1  1  1  1  1  1  1
TYPE ASSIGNMENTS      1  1  1  1  1  2  2  2  3  3  3  4  4  4  2  3  4  2  3  4
TYPE ASSIGNMENTS      2  3  4  5  6  7  8  9 10  5  6  7  8  9 10  5  6  7  8  9
TYPE ASSIGNMENTS     10 11 12 13 17 14 15 18 19 16 20 11 12 13 17 14 15 18 19 16
TYPE ASSIGNMENTS     20  1  1  1  1  1  1  1  1  1  1  1  1  1  1  1  1  1  1  1
TYPE ASSIGNMENTS      2  2  2  3  3  3  4  4  4  2  3  4  2  3  4  2  3  4  5  6
TYPE ASSIGNMENTS      7  8  9 10  5  6  7  8  9 10  5  6  7  8  9 10 11 12 13 17
TYPE ASSIGNMENTS     14 15 18 19 16 20 11 12 13 17 14 15 18 19 16 20
EXPONENTS  0.2055000D+06 0.3078000D+05 0.7006000D+04 0.1985000D+04 0.6491000D+03
EXPONENTS  0.2350000D+03 0.9162000D+02 0.3767000D+02 0.1591000D+02 0.5850000D+01
EXPONENTS  0.2542000D+01 0.1057000D+01 0.1455000D+00 0.2055000D+06 0.3078000D+05
EXPONENTS  0.7006000D+04 0.1985000D+04 0.6491000D+03 0.2350000D+03 0.9162000D+02
EXPONENTS  0.3767000D+02 0.1591000D+02 0.5850000D+01 0.2542000D+01 0.1057000D+01
EXPONENTS  0.1455000D+00 0.2055000D+06 0.3078000D+05 0.7006000D+04 0.1985000D+04
EXPONENTS  0.6491000D+03 0.2350000D+03 0.9162000D+02 0.3767000D+02 0.1591000D+02
EXPONENTS  0.5850000D+01 0.2542000D+01 0.1057000D+01 0.1455000D+00 0.2931000D+00
EXPONENTS  0.5650000D-01 0.2210000D-01 0.4444000D+03 0.1051000D+03 0.3347000D+02
EXPONENTS  0.1233000D+02 0.4869000D+01 0.1961000D+01 0.1888000D+00 0.4444000D+03
EXPONENTS  0.1051000D+03 0.3347000D+02 0.1233000D+02 0.4869000D+01 0.1961000D+01
EXPONENTS  0.1888000D+00 0.4444000D+03 0.1051000D+03 0.3347000D+02 0.1233000D+02
EXPONENTS  0.4869000D+01 0.1961000D+01 0.1888000D+00 0.4444000D+03 0.1051000D+03
EXPONENTS  0.3347000D+02 0.1233000D+02 0.4869000D+01 0.1961000D+01 0.1888000D+00
EXPONENTS  0.4444000D+03 0.1051000D+03 0.3347000D+02 0.1233000D+02 0.4869000D+01
EXPONENTS  0.1961000D+01 0.1888000D+00 0.4444000D+03 0.1051000D+03 0.3347000D+02
EXPONENTS  0.1233000D+02 0.4869000D+01 0.1961000D+01 0.1888000D+00 0.7834000D+00
EXPONENTS  0.7834000D+00 0.7834000D+00 0.5557000D-01 0.5557000D-01 0.5557000D-01
EXPONENTS  0.1460000D-01 0.1460000D-01 0.1460000D-01 0.1090000D+00 0.1090000D+00
EXPONENTS  0.1090000D+00 0.1090000D+00 0.1090000D+00 0.1090000D+00 0.3330000D+00
EXPONENTS  0.3330000D+00 0.3330000D+00 0.3330000D+00 0.3330000D+00 0.3330000D+00
EXPONENTS  0.3560000D-01 0.3560000D-01 0.3560000D-01 0.3560000D-01 0.3560000D-01
EXPONENTS  0.3560000D-01 0.2440000D+00 0.2440000D+00 0.2440000D+00 0.2440000D+00
EXPONENTS  0.2440000D+00 0.2440000D+00 0.2440000D+00 0.2440000D+00 0.2440000D+00
EXPONENTS  0.2440000D+00 0.8580000D-01 0.8580000D-01 0.8580000D-01 0.8580000D-01
EXPONENTS  0.8580000D-01 0.8580000D-01 0.8580000D-01 0.8580000D-01 0.8580000D-01
EXPONENTS  0.8580000D-01 0.1950000D+05 0.2923000D+04 0.6645000D+03 0.1875000D+03
EXPONENTS  0.6062000D+02 0.2142000D+02 0.7950000D+01 0.8815000D+00 0.1950000D+05
EXPONENTS  0.2923000D+04 0.6645000D+03 0.1875000D+03 0.6062000D+02 0.2142000D+02
EXPONENTS  0.7950000D+01 0.8815000D+00 0.2257000D+01 0.3041000D+00 0.9158000D-01
EXPONENTS  0.4388000D+02 0.9926000D+01 0.2930000D+01 0.4388000D+02 0.9926000D+01
EXPONENTS  0.2930000D+01 0.4388000D+02 0.9926000D+01 0.2930000D+01 0.9132000D+00
EXPONENTS  0.9132000D+00 0.9132000D+00 0.2672000D+00 0.2672000D+00 0.2672000D+00
EXPONENTS  0.7361000D-01 0.7361000D-01 0.7361000D-01 0.3107000D+01 0.3107000D+01
EXPONENTS  0.3107000D+01 0.3107000D+01 0.3107000D+01 0.3107000D+01 0.8550000D+00
EXPONENTS  0.8550000D+00 0.8550000D+00 0.8550000D+00 0.8550000D+00 0.8550000D+00
EXPONENTS  0.2920000D+00 0.2920000D+00 0.2920000D+00 0.2920000D+00 0.2920000D+00
EXPONENTS  0.2920000D+00 0.1917000D+01 0.1917000D+01 0.1917000D+01 0.1917000D+01
EXPONENTS  0.1917000D+01 0.1917000D+01 0.1917000D+01 0.1917000D+01 0.1917000D+01
EXPONENTS  0.1917000D+01 0.7240000D+00 0.7240000D+00 0.7240000D+00 0.7240000D+00
EXPONENTS  0.7240000D+00 0.7240000D+00 0.7240000D+00 0.7240000D+00 0.7240000D+00
EXPONENTS  0.7240000D+00 0.1950000D+05 0.2923000D+04 0.6645000D+03 0.1875000D+03
EXPONENTS  0.6062000D+02 0.2142000D+02 0.7950000D+01 0.8815000D+00 0.1950000D+05
EXPONENTS  0.2923000D+04 0.6645000D+03 0.1875000D+03 0.6062000D+02 0.2142000D+02
EXPONENTS  0.7950000D+01 0.8815000D+00 0.2257000D+01 0.3041000D+00 0.9158000D-01
EXPONENTS  0.4388000D+02 0.9926000D+01 0.2930000D+01 0.4388000D+02 0.9926000D+01
EXPONENTS  0.2930000D+01 0.4388000D+02 0.9926000D+01 0.2930000D+01 0.9132000D+00
EXPONENTS  0.9132000D+00 0.9132000D+00 0.2672000D+00 0.2672000D+00 0.2672000D+00
EXPONENTS  0.7361000D-01 0.7361000D-01 0.7361000D-01 0.3107000D+01 0.3107000D+01
EXPONENTS  0.3107000D+01 0.3107000D+01 0.3107000D+01 0.3107000D+01 0.8550000D+00
EXPONENTS  0.8550000D+00 0.8550000D+00 0.8550000D+00 0.8550000D+00 0.8550000D+00
EXPONENTS  0.2920000D+00 0.2920000D+00 0.2920000D+00 0.2920000D+00 0.2920000D+00
EXPONENTS  0.2920000D+00 0.1917000D+01 0.1917000D+01 0.1917000D+01 0.1917000D+01
EXPONENTS  0.1917000D+01 0.1917000D+01 0.1917000D+01 0.1917000D+01 0.1917000D+01
EXPONENTS  0.1917000D+01 0.7240000D+00 0.7240000D+00 0.7240000D+00 0.7240000D+00
EXPONENTS  0.7240000D+00 0.7240000D+00 0.7240000D+00 0.7240000D+00 0.7240000D+00
EXPONENTS  0.7240000D+00 0.1950000D+05 0.2923000D+04 0.6645000D+03 0.1875000D+03
EXPONENTS  0.6062000D+02 0.2142000D+02 0.7950000D+01 0.8815000D+00 0.1950000D+05
EXPONENTS  0.2923000D+04 0.6645000D+03 0.1875000D+03 0.6062000D+02 0.2142000D+02
EXPONENTS  0.7950000D+01 0.8815000D+00 0.2257000D+01 0.3041000D+00 0.9158000D-01
EXPONENTS  0.4388000D+02 0.9926000D+01 0.2930000D+01 0.4388000D+02 0.9926000D+01
EXPONENTS  0.2930000D+01 0.4388000D+02 0.9926000D+01 0.2930000D+01 0.9132000D+00
EXPONENTS  0.9132000D+00 0.9132000D+00 0.2672000D+00 0.2672000D+00 0.2672000D+00
EXPONENTS  0.7361000D-01 0.7361000D-01 0.7361000D-01 0.3107000D+01 0.3107000D+01
EXPONENTS  0.3107000D+01 0.3107000D+01 0.3107000D+01 0.3107000D+01 0.8550000D+00
EXPONENTS  0.8550000D+00 0.8550000D+00 0.8550000D+00 0.8550000D+00 0.8550000D+00
EXPONENTS  0.2920000D+00 0.2920000D+00 0.2920000D+00 0.2920000D+00 0.2920000D+00
EXPONENTS  0.2920000D+00 0.1917000D+01 0.1917000D+01 0.1917000D+01 0.1917000D+01
EXPONENTS  0.1917000D+01 0.1917000D+01 0.1917000D+01 0.1917000D+01 0.1917000D+01
EXPONENTS  0.1917000D+01 0.7240000D+00 0.7240000D+00 0.7240000D+00 0.7240000D+00
EXPONENTS  0.7240000D+00 0.7240000D+00 0.7240000D+00 0.7240000D+00 0.7240000D+00
EXPONENTS  0.7240000D+00
MO    1     MO 0.0        OCC NO =    2.0000000  ORB. ENERGY =  -55.843649
  0.46777635D+00  0.87457966D+00  0.15100646D+01  0.24358713D+01  0.36558334D+01
  0.49296297D+01  0.55158148D+01  0.43030813D+01  0.16186296D+01  0.11939449D+00
 -0.70404215D-02  0.19443841D-02  0.12144786D-03 -0.16684166D-02 -0.31245927D-02
 -0.53954888D-02 -0.87771022D-02 -0.13361358D-01 -0.18902799D-01 -0.23310216D-01
 -0.23365756D-01 -0.13145784D-01  0.46774626D-02  0.11078487D-01  0.44607366D-02
 -0.26451195D-04  0.85578256D-03  0.16013634D-02  0.27690973D-02  0.44990865D-02
  0.68727227D-02  0.97285232D-02  0.12135531D-01  0.12338551D-01  0.72745246D-02
 -0.29017108D-02 -0.76748752D-02 -0.62677085D-02  0.33477848D-02 -0.20505599D-02
  0.14925444D-02 -0.67794608D-04 -0.33784747D-14 -0.44732363D-14 -0.50141698D-14
 -0.44151691D-14 -0.26517539D-14 -0.96410915D-15 -0.12361382D-17 -0.17557581D-05
 -0.23246943D-05 -0.26058118D-05 -0.22945174D-05 -0.13780889D-05 -0.50103748D-06
 -0.64240814D-09 -0.64775296D-17 -0.85765095D-17 -0.96136381D-17 -0.84651775D-17
 -0.50841921D-17 -0.18484808D-17 -0.23700404D-20  0.32205064D-14  0.44946328D-14
  0.48217469D-14  0.46397484D-14  0.25558240D-14  0.12436355D-14 -0.34536647D-15
  0.77623951D-06  0.10833425D-05  0.11621869D-05  0.11183198D-05  0.61603094D-06
  0.29975378D-06 -0.83243772D-07  0.62669058D-17  0.87462768D-17  0.93828207D-17
  0.90286627D-17  0.49734751D-17  0.24200375D-17 -0.67206175D-18 -0.12421745D-15
  0.22494144D-06  0.55660411D-18 -0.12810647D-16  0.12944940D-07  0.18553127D-20
  0.33922123D-18 -0.81324837D-09 -0.94122219D-21  0.67654888D-04  0.67423361D-04
 -0.13507825D-03  0.60184342D-17 -0.48071623D-21 -0.53385456D-21  0.22207024D-03
  0.22131830D-03 -0.44338854D-03  0.25700500D-15  0.76332619D-21 -0.29299610D-22
 -0.21973310D-07 -0.14139142D-07  0.36112452D-07 -0.11735814D-17 -0.46226641D-22
 -0.46857293D-22  0.34475711D-16  0.13349612D-03  0.93429095D-19 -0.13531445D-15
 -0.40055992D-03 -0.14087568D-18  0.31887318D-16  0.71572389D-07 -0.13941160D-18
 -0.69271504D-21  0.10914465D-17  0.38277890D-05 -0.56461018D-21 -0.23244299D-17
 -0.11483898D-04  0.91991280D-21 -0.94990946D-18  0.53069898D-09  0.77391773D-21
  0.10608730D-21  0.27835234D-03  0.51886082D-03  0.87959665D-03  0.13319686D-02
  0.16656314D-02  0.14339535D-02  0.55126406D-03 -0.23887174D-05 -0.18506668D-03
 -0.34752245D-03 -0.59177080D-03 -0.92700545D-03 -0.12422964D-02 -0.13362572D-02
 -0.80228709D-03  0.52761775D-03 -0.12081314D-03 -0.12163924D-02 -0.11224519D-02
  0.99933292D-16  0.97732577D-16  0.64576046D-16  0.87875800D-04  0.85940613D-04
  0.56784597D-04  0.55615442D-18  0.54390687D-18  0.35938227D-18 -0.89915141D-16
 -0.10210897D-03 -0.43548859D-18  0.17751775D-15  0.88811884D-03  0.39776790D-18
  0.13609294D-16  0.11583720D-03  0.12491301D-19 -0.11487494D-03  0.24278566D-03
 -0.12791072D-03 -0.76736912D-16  0.17597552D-20 -0.13631414D-17  0.50689114D-04
 -0.12753553D-03  0.76846414D-04  0.47007342D-16 -0.14541618D-21  0.62082817D-18
  0.99313945D-04 -0.12175236D-03  0.22438419D-04 -0.12888943D-15  0.37587561D-21
 -0.44861122D-18  0.87416235D-16  0.32072647D-04  0.77585739D-18 -0.27262255D-15
  0.66936073D-03 -0.11622835D-18  0.10373841D-16 -0.76557867D-03 -0.22113438D-17
  0.22816860D-20 -0.27803617D-16  0.21623933D-04 -0.21967976D-18  0.92066903D-16
 -0.24760953D-03  0.20772934D-19 -0.86560512D-17  0.18273773D-03  0.63826636D-18
 -0.11164661D-20  0.27859106D-03  0.51930580D-03  0.88035101D-03  0.13331109D-02
  0.16670598D-02  0.14351832D-02  0.55173683D-03 -0.23907660D-05 -0.18522580D-03
 -0.34782125D-03 -0.59227960D-03 -0.92780249D-03 -0.12433645D-02 -0.13374062D-02
 -0.80297690D-03  0.52807139D-03 -0.12090763D-03 -0.12173473D-02 -0.11231770D-02
  0.75890443D-04  0.74219195D-04  0.49039760D-04 -0.43651682D-04 -0.42690392D-04
 -0.28207347D-04  0.57573545D-18  0.56305669D-18  0.37203536D-18 -0.88383640D-04
  0.50759347D-04 -0.43726134D-18  0.77027227D-03 -0.44304769D-03  0.39815350D-18
  0.10052745D-03 -0.57818317D-04  0.11811503D-19  0.15397267D-03 -0.26001212D-04
 -0.12797145D-03 -0.31017032D-03 -0.11784623D-17  0.70978246D-18 -0.83248007D-04
  0.63566629D-05  0.76891344D-04  0.15457751D-03  0.53452727D-18 -0.31395580D-18
 -0.66942177D-04  0.44445475D-04  0.22496703D-04  0.19103349D-03 -0.38667799D-18
  0.22501424D-18  0.16484980D-03 -0.25486988D-03  0.79643715D-18  0.16824581D-03
  0.38241077D-03 -0.16905516D-17 -0.66279520D-03  0.38219887D-03 -0.69875985D-18
  0.17732112D-17 -0.39197069D-04  0.90142439D-04 -0.22150678D-18 -0.40527788D-04
 -0.17920128D-03  0.48268603D-18  0.15811900D-03 -0.91226037D-04  0.18183431D-18
 -0.53436191D-18  0.27859106D-03  0.51930580D-03  0.88035101D-03  0.13331109D-02
  0.16670598D-02  0.14351832D-02  0.55173683D-03 -0.23907660D-05 -0.18522580D-03
 -0.34782125D-03 -0.59227960D-03 -0.92780249D-03 -0.12433645D-02 -0.13374062D-02
 -0.80297690D-03  0.52807139D-03 -0.12090763D-03 -0.12173473D-02 -0.11231770D-02
 -0.75890443D-04 -0.74219195D-04 -0.49039760D-04 -0.43651682D-04 -0.42690392D-04
 -0.28207347D-04  0.57423903D-18  0.56159322D-18  0.37106839D-18  0.88383640D-04
  0.50759347D-04 -0.43517821D-18 -0.77027227D-03 -0.44304769D-03  0.39823253D-18
 -0.10052745D-03 -0.57818317D-04  0.10562355D-19  0.15397267D-03 -0.26001212D-04
 -0.12797145D-03  0.31017032D-03  0.11880775D-17  0.67891090D-18 -0.83248007D-04
  0.63566629D-05  0.76891344D-04 -0.15457751D-03 -0.53939429D-18 -0.31273275D-18
 -0.66942177D-04  0.44445475D-04  0.22496703D-04 -0.19103349D-03  0.38873065D-18
  0.22498482D-18 -0.16484980D-03 -0.25486988D-03  0.81377565D-18 -0.16824581D-03
  0.38241077D-03 -0.17514080D-17  0.66279520D-03  0.38219887D-03 -0.68991895D-18
 -0.17971758D-17  0.39197069D-04  0.90142439D-04 -0.22334164D-18  0.40527788D-04
 -0.17920128D-03  0.49107001D-18 -0.15811900D-03 -0.91226037D-04  0.17895491D-18
  0.53792203D-18
MO    2     MO 0.0        OCC NO =    2.0000000  ORB. ENERGY =  -24.496293
 -0.15591474D-14 -0.29150653D-14 -0.50332028D-14 -0.81190131D-14 -0.12185274D-13
 -0.16430970D-13 -0.18384787D-13 -0.14342619D-13 -0.53950614D-14 -0.39795429D-15
  0.23466460D-16 -0.64808350D-17 -0.40479839D-18  0.34465546D-14  0.64546706D-14
  0.11145806D-13  0.18131420D-13  0.27601410D-13  0.39048718D-13  0.48153401D-13
  0.48268132D-13  0.27156085D-13 -0.96625329D-14 -0.22885538D-13 -0.92148282D-14
  0.54641921D-16 -0.21863708D-14 -0.40911958D-14 -0.70745464D-14 -0.11494358D-13
 -0.17558572D-13 -0.24854630D-13 -0.31004102D-13 -0.31522782D-13 -0.18585104D-13
  0.74133501D-14  0.19607928D-13  0.16012870D-13 -0.85529890D-14 -0.79170625D-14
  0.21526902D-14  0.96928071D-15  0.63186317D-02  0.83661223D-02  0.93778094D-02
  0.82575214D-02  0.49594736D-02  0.18031364D-02  0.23119018D-05 -0.15834229D-11
 -0.20965156D-11 -0.23500402D-11 -0.20693006D-11 -0.12428235D-11 -0.45185850D-12
 -0.57935301D-15 -0.40755882D-15 -0.53962426D-15 -0.60487922D-15 -0.53261938D-15
 -0.31989160D-15 -0.11630432D-15 -0.14912026D-18 -0.58558852D-02 -0.81726443D-02
 -0.87674399D-02 -0.84365098D-02 -0.46472853D-02 -0.22613172D-02  0.62798397D-03
  0.14677404D-11  0.20484214D-11  0.21975031D-11  0.21145576D-11  0.11648125D-11
  0.56678479D-12 -0.15740019D-12 -0.10269285D-15 -0.14332115D-15 -0.15375189D-15
 -0.14794847D-15 -0.81498011D-16 -0.39656023D-16  0.11012761D-16  0.45280758D-04
 -0.91609319D-14  0.21557278D-16  0.41642497D-04 -0.93982392D-14 -0.23464976D-17
 -0.75315879D-06  0.15457741D-15  0.10794032D-17  0.71332577D-14 -0.62739370D-14
 -0.85932068D-15 -0.42539022D-04 -0.33217304D-17  0.28169211D-18  0.66916856D-13
 -0.68562796D-13  0.16459404D-14 -0.52323188D-03 -0.28044634D-18 -0.71240470D-17
  0.17505855D-15 -0.98927698D-16 -0.76130848D-16 -0.12915766D-06  0.17524559D-20
  0.19473558D-20  0.18427215D-04 -0.42191335D-14  0.65163329D-19  0.16964321D-04
 -0.58061400D-14 -0.11457005D-18 -0.72245967D-04  0.18463540D-13 -0.80919937D-19
  0.15522970D-18 -0.11127224D-06  0.17359506D-15  0.17410631D-20 -0.12566743D-06
 -0.43450343D-15 -0.87777026D-20  0.45948414D-06 -0.86281751D-16  0.35545134D-20
  0.54831179D-20 -0.12752134D-09 -0.23770529D-09 -0.40296891D-09 -0.61021369D-09
 -0.76307437D-09 -0.65693595D-09 -0.25255016D-09  0.10943412D-11  0.65278555D-13
  0.12258157D-12  0.20873526D-12  0.32698256D-12  0.43819509D-12  0.47133791D-12
  0.28299066D-12 -0.18610656D-12 -0.12860629D-10  0.80908294D-13  0.78296960D-13
 -0.54121761D-04 -0.52929900D-04 -0.34973023D-04  0.90880421D-12  0.88879067D-12
  0.58726157D-12 -0.36491305D-18 -0.35687699D-18 -0.23580372D-18  0.26514680D-04
 -0.61933410D-13  0.22194942D-18 -0.50942623D-05 -0.12849227D-12  0.46948989D-19
  0.57937202D-06 -0.77909619D-14 -0.34008175D-19  0.16716541D-13 -0.78543150D-13
  0.61826609D-13  0.36770426D-03 -0.45361064D-18 -0.27240030D-17 -0.16830319D-13
  0.37991037D-13 -0.21160718D-13 -0.14468161D-03  0.98151630D-19  0.37356499D-18
 -0.12520111D-13  0.27778993D-13 -0.15258882D-13  0.19081058D-04 -0.50047670D-19
 -0.14938602D-18  0.13834085D-03  0.51366848D-13  0.12393343D-18 -0.27287586D-03
 -0.65659179D-13  0.11368561D-17 -0.14214668D-03 -0.88441365D-13 -0.15086564D-17
 -0.34739377D-18 -0.47742419D-04 -0.23639816D-13 -0.10272845D-18  0.11419945D-03
  0.31094605D-13  0.34717521D-19  0.29027802D-04  0.39824842D-13  0.27346784D-18
  0.32038512D-19  0.42132223D+00  0.78536289D+00  0.13313832D+01  0.20161065D+01
  0.25211483D+01  0.21704738D+01  0.83440938D+00 -0.36156324D-02 -0.21660895D-03
 -0.40675324D-03 -0.69263061D-03 -0.10850018D-02 -0.14540300D-02 -0.15640053D-02
 -0.93902674D-03  0.61754349D-03  0.42490587D-01 -0.27865405D-03 -0.27460748D-03
 -0.26179983D-02 -0.25603452D-02 -0.16917283D-02  0.14763446D-02  0.14438328D-02
  0.95400138D-03  0.42824166D-16  0.41881099D-16  0.27672613D-16  0.18714657D-03
 -0.92058355D-04 -0.44984022D-17  0.37028844D-03 -0.21823638D-03  0.10083379D-17
  0.23098639D-04 -0.13028152D-04  0.38559030D-19  0.25773316D-03 -0.53592274D-04
 -0.20414089D-03 -0.17533177D-03 -0.10916008D-16 -0.13589281D-16 -0.11083712D-03
  0.40432852D-04  0.70404265D-04  0.11808704D-03  0.79096952D-18  0.84413092D-18
 -0.54824968D-04  0.42477076D-05  0.50577260D-04  0.12303854D-03 -0.47911670D-18
  0.15581760D-18 -0.10566351D-03 -0.44928641D-04  0.40719049D-18  0.98167717D-04
  0.34192393D-03 -0.19686886D-17  0.21882280D-03 -0.20713801D-03  0.74711713D-18
 -0.36245695D-17  0.46563035D-04  0.25818780D-04 -0.12758260D-18 -0.33563947D-04
 -0.15523045D-03  0.44502413D-18 -0.10612516D-03  0.77774108D-04 -0.62276342D-19
 -0.89573037D-19 -0.42132223D+00 -0.78536289D+00 -0.13313832D+01 -0.20161065D+01
 -0.25211483D+01 -0.21704738D+01 -0.83440938D+00  0.36156324D-02  0.21660895D-03
  0.40675324D-03  0.69263061D-03  0.10850018D-02  0.14540300D-02  0.15640053D-02
  0.93902674D-03 -0.61754349D-03 -0.42490587D-01  0.27865405D-03  0.27460748D-03
 -0.26179983D-02 -0.25603452D-02 -0.16917283D-02 -0.14763446D-02 -0.14438328D-02
 -0.95400138D-03 -0.24932195D-17 -0.24383142D-17 -0.16110973D-17  0.18714657D-03
  0.92058355D-04  0.19856910D-18  0.37028844D-03  0.21823638D-03  0.66279001D-19
  0.23098639D-04  0.13028152D-04  0.60609961D-19 -0.25773316D-03  0.53592274D-04
  0.20414089D-03 -0.17533177D-03 -0.91316835D-17  0.20916774D-16  0.11083712D-03
 -0.40432852D-04 -0.70404265D-04  0.11808704D-03  0.40702970D-18 -0.56515723D-18
  0.54824968D-04 -0.42477076D-05 -0.50577260D-04  0.12303854D-03  0.11077535D-18
  0.80560101D-19 -0.10566351D-03  0.44928641D-04 -0.68034555D-18  0.98167717D-04
 -0.34192393D-03  0.17565357D-18  0.21882280D-03  0.20713801D-03  0.18653831D-17
  0.34234608D-17  0.46563035D-04 -0.25818780D-04  0.23344245D-19 -0.33563947D-04
  0.15523045D-03 -0.31472274D-19 -0.10612516D-03 -0.77774108D-04 -0.38560462D-19
 -0.34816218D-18
MO    3     MO 0.0        OCC NO =    2.0000000  ORB. ENERGY =  -24.496293
  0.11881877D-03  0.22214992D-03  0.38356795D-03  0.61872993D-03  0.92860966D-03
  0.12521636D-02  0.14010592D-02  0.10930156D-02  0.41114430D-03  0.30327113D-04
 -0.17883209D-05  0.49388842D-06  0.30848686D-07 -0.24999828D-03 -0.46819412D-03
 -0.80846892D-03 -0.13151754D-02 -0.20020879D-02 -0.28324265D-02 -0.34928411D-02
 -0.35011632D-02 -0.19697859D-02  0.70087868D-03  0.16600187D-02  0.66840411D-03
 -0.39634906D-05  0.15424157D-03  0.28862097D-03  0.49908696D-03  0.81089075D-03
  0.12387019D-02  0.17534158D-02  0.21872417D-02  0.22238329D-02  0.13111205D-02
 -0.52298849D-03 -0.13832775D-02 -0.11296575D-02  0.60338643D-03 -0.10006458D-03
  0.25288800D-03 -0.84635680D-05 -0.85278240D-12 -0.11291182D-11 -0.12656587D-11
 -0.11144611D-11 -0.66934616D-12 -0.24335695D-12 -0.31202154D-15 -0.36536118D-02
 -0.48375289D-02 -0.54225151D-02 -0.47747328D-02 -0.28677081D-02 -0.10426245D-02
 -0.13368071D-05  0.57702462D-17  0.76400379D-17  0.85639222D-17  0.75408623D-17
  0.45290476D-17  0.16466446D-17  0.21112550D-20  0.79095390D-12  0.11038784D-11
  0.11842174D-11  0.11395186D-11  0.62770842D-12  0.30543592D-12 -0.84821741D-13
  0.33860635D-02  0.47256891D-02  0.50696193D-02  0.48782647D-02  0.26872117D-02
  0.13075672D-02 -0.36312079D-03 -0.18475151D-15 -0.25784460D-15 -0.27661023D-15
 -0.26616948D-15 -0.14662053D-15 -0.71343912D-16  0.19812715D-16 -0.30883785D-14
 -0.26202651D-04  0.71060323D-18 -0.77152184D-14 -0.24090324D-04 -0.65308674D-21
  0.60309645D-16  0.43578724D-06 -0.13927812D-21  0.25097135D-04  0.37731414D-06
 -0.25474449D-04  0.65810433D-14 -0.53582869D-19  0.54041695D-19  0.23003103D-03
 -0.73891030D-04 -0.15614000D-03  0.71813141D-13 -0.51066087D-19  0.10148610D-18
  0.15436681D-06  0.79736162D-07 -0.23410297D-06  0.10723955D-15  0.52683248D-21
 -0.65491801D-21 -0.34849067D-14  0.32722519D-04  0.59799969D-20  0.33188328D-15
 -0.13992995D-03 -0.41540270D-19  0.10122837D-13  0.41762398D-04  0.23600279D-19
  0.29153840D-19 -0.22998384D-15  0.11890906D-05  0.12646032D-20  0.55618558D-15
 -0.33018058D-05 -0.43930191D-20  0.13376595D-15 -0.26546590D-06  0.59920944D-21
  0.78312410D-20 -0.10499542D-02 -0.19571602D-02 -0.33178677D-02 -0.50242295D-02
 -0.62828166D-02 -0.54089199D-02 -0.20793863D-02  0.90103211D-05  0.29362450D-04
  0.55137481D-04  0.93889621D-04  0.14707754D-03  0.19710120D-03  0.21200892D-03
  0.12728988D-03 -0.83711177D-04 -0.74612764D-04 -0.12030671D-04 -0.10051805D-04
  0.18891789D-14  0.18475757D-14  0.12207714D-14 -0.79410401D-04 -0.77661638D-04
 -0.51314328D-04  0.25435441D-17  0.24875306D-17  0.16436166D-17  0.10747552D-14
  0.95532474D-04  0.43752279D-18 -0.55054315D-14 -0.80062293D-04 -0.16339542D-18
 -0.12881927D-14 -0.47905461D-05 -0.16195990D-19  0.48322707D-04 -0.50094453D-04
  0.17717460D-05 -0.57336449D-13 -0.21131546D-19  0.37594014D-17 -0.19616289D-04
  0.10343351D-04  0.92729384D-05  0.22338626D-13 -0.25322869D-20 -0.16394025D-18
  0.10647985D-04  0.22041306D-04 -0.32689291D-04 -0.72568464D-15  0.24154164D-20
  0.68127912D-19 -0.23182640D-13 -0.74910755D-06  0.33293057D-19  0.41989965D-13
  0.22661758D-03 -0.45050352D-18  0.27557955D-13 -0.22437026D-03  0.35062434D-18
  0.14488384D-18  0.78786715D-14 -0.34570843D-05 -0.33211103D-19 -0.17759126D-13
 -0.70979822D-04 -0.42648991D-19 -0.58768884D-14  0.81351075D-04  0.14228230D-18
 -0.39697048D-19  0.42127818D+00  0.78528078D+00  0.13312440D+01  0.20158957D+01
  0.25208847D+01  0.21702469D+01  0.83432214D+00 -0.36152544D-02 -0.18777487D-03
 -0.35260794D-03 -0.60043051D-03 -0.94057085D-03 -0.12604756D-02 -0.13558114D-02
 -0.81402741D-03  0.53533867D-03  0.42517571D-01 -0.29167524D-03 -0.28549808D-03
 -0.26666931D-02 -0.26079676D-02 -0.17231944D-02  0.15670655D-02  0.15325559D-02
  0.10126245D-02  0.43844530D-16  0.42878993D-16  0.28331964D-16  0.25743191D-03
 -0.16361665D-03 -0.46956507D-17  0.30562515D-03 -0.17242623D-03  0.78360955D-18
  0.18766765D-04 -0.11117048D-04 -0.53046182D-21  0.74982771D-04  0.12845697D-03
 -0.20343974D-03 -0.27531250D-03 -0.10970039D-16 -0.13092051D-16 -0.46231357D-04
 -0.33934968D-04  0.80166325D-04  0.16519121D-03  0.16155594D-17  0.50714394D-18
 -0.44639572D-04  0.26696412D-04  0.17943160D-04  0.10332403D-03 -0.27069659D-18
  0.82080533D-19  0.27587428D-04 -0.16163210D-03  0.28146439D-18 -0.17700077D-03
  0.45768351D-03 -0.34885610D-18  0.94238484D-04  0.27212789D-04 -0.49553707D-18
 -0.90059195D-18 -0.75966896D-05  0.59562108D-04 -0.12613850D-18  0.72853921D-04
 -0.19093988D-03  0.24189611D-18 -0.50063852D-04  0.12253554D-04  0.13651938D-18
 -0.90420262D-19  0.42127818D+00  0.78528078D+00  0.13312440D+01  0.20158957D+01
  0.25208847D+01  0.21702469D+01  0.83432214D+00 -0.36152544D-02 -0.18777487D-03
 -0.35260794D-03 -0.60043051D-03 -0.94057085D-03 -0.12604756D-02 -0.13558114D-02
 -0.81402741D-03  0.53533867D-03  0.42517571D-01 -0.29167524D-03 -0.28549808D-03
  0.26666931D-02  0.26079676D-02  0.17231944D-02  0.15670655D-02  0.15325559D-02
  0.10126245D-02 -0.30753631D-18 -0.30076379D-18 -0.19872735D-18 -0.25743191D-03
 -0.16361665D-03 -0.64666449D-19 -0.30562515D-03 -0.17242623D-03  0.74810680D-19
 -0.18766765D-04 -0.11117048D-04 -0.14061426D-19  0.74982771D-04  0.12845697D-03
 -0.20343974D-03  0.27531250D-03  0.12471959D-16 -0.14242846D-16 -0.46231357D-04
 -0.33934968D-04  0.80166325D-04 -0.16519121D-03 -0.25702006D-18  0.11004647D-17
 -0.44639572D-04  0.26696412D-04  0.17943160D-04 -0.10332403D-03  0.54703791D-19
 -0.54527112D-19 -0.27587428D-04 -0.16163210D-03  0.77930051D-18  0.17700077D-03
  0.45768351D-03  0.33461518D-18 -0.94238484D-04  0.27212789D-04 -0.26725167D-17
 -0.10992314D-17  0.75966896D-05  0.59562108D-04 -0.68939899D-19 -0.72853921D-04
 -0.19093988D-03  0.30123597D-19  0.50063852D-04  0.12253554D-04  0.17669610D-18
  0.14731079D-18
MO    4     MO 0.0        OCC NO =    2.0000000  ORB. ENERGY =  -24.496187
  0.84222781D-04  0.15746741D-03  0.27188599D-03  0.43857680D-03  0.65823007D-03
  0.88757613D-03  0.99311833D-03  0.77476656D-03  0.29143305D-03  0.21496888D-04
 -0.12676226D-05  0.35008489D-06  0.21866596D-07 -0.17720094D-03 -0.33186004D-03
 -0.57304976D-03 -0.93220772D-03 -0.14190972D-02 -0.20076484D-02 -0.24757560D-02
 -0.24816548D-02 -0.13962013D-02  0.49678887D-03  0.11766356D-02  0.47377061D-03
 -0.28093564D-05  0.10932436D-03  0.20457069D-03  0.35374616D-03  0.57474852D-03
  0.87797537D-03  0.12427977D-02  0.15502877D-02  0.15762230D-02  0.92930469D-03
 -0.37068725D-03 -0.98044862D-03 -0.80068613D-03  0.42767223D-03 -0.71002549D-04
  0.17917287D-03 -0.59966717D-05  0.13502732D-11  0.17878160D-11  0.20040106D-11
  0.17646083D-11  0.10598251D-11  0.38532500D-12  0.49404670D-15  0.51430835D-02
  0.68096492D-02  0.76331173D-02  0.67212529D-02  0.40367896D-02  0.14676723D-02
  0.18817846D-05  0.35363867D-16  0.46823181D-16  0.52485351D-16  0.46215367D-16
  0.27756985D-16  0.10091722D-16  0.12939160D-19 -0.12511482D-11 -0.17461390D-11
 -0.18732209D-11 -0.18025156D-11 -0.99292293D-12 -0.48314522D-12  0.13417289D-12
 -0.47668788D-02 -0.66527953D-02 -0.71369780D-02 -0.68675902D-02 -0.37830396D-02
 -0.18407849D-02  0.51119914D-03  0.18669341D-15  0.26055478D-15  0.27951765D-15
  0.26896716D-15  0.14816164D-15  0.72093801D-16 -0.20020965D-16  0.95302052D-14
  0.37035201D-04 -0.11719300D-17  0.89132618D-14  0.33916160D-04  0.35272105D-21
 -0.16103844D-15 -0.61426667D-06  0.85462444D-21 -0.83658023D-05  0.26419750D-04
 -0.18053948D-04 -0.90853021D-14 -0.94720227D-21 -0.16274176D-19 -0.15819660D-03
  0.26886251D-03 -0.11066591D-03 -0.11177232D-12 -0.88115340D-19 -0.13318550D-19
  0.29761897D-07  0.13572965D-06 -0.16549154D-06 -0.26962661D-16  0.11137863D-21
 -0.33207394D-21  0.39455292D-14  0.45263890D-04  0.25621490D-19  0.35984951D-14
 -0.77029328D-04 -0.27956788D-19 -0.15435083D-13 -0.58762342D-04 -0.48907681D-19
  0.46553676D-19 -0.21330770D-16  0.70082366D-06 -0.69354130D-21 -0.33481169D-16
 -0.24781911D-05  0.25853536D-20  0.97473480D-16  0.37572013D-06 -0.50472966D-21
 -0.17478465D-20  0.59580784D+00  0.11106116D+01  0.18827598D+01  0.28510532D+01
  0.35652520D+01  0.30693498D+01  0.11799701D+01 -0.51130038D-02 -0.28576745D-03
 -0.53662067D-03 -0.91377245D-03 -0.14314191D-02 -0.19182700D-02 -0.20633581D-02
 -0.12388375D-02  0.81471165D-03  0.60109566D-01 -0.40232766D-03 -0.39573392D-03
 -0.11510583D-13 -0.11257098D-13 -0.74380408D-14 -0.43120000D-02 -0.42170418D-02
 -0.27863778D-02 -0.50595206D-17 -0.49481006D-17 -0.32694193D-17  0.56157342D-14
  0.36279859D-03 -0.17275473D-18 -0.10292077D-14  0.55115497D-03  0.18282818D-18
  0.13494395D-15  0.34144832D-04  0.12880680D-19 -0.38711307D-04  0.32586239D-03
 -0.28715109D-03  0.78603524D-13  0.14723408D-16 -0.99175042D-17  0.62250316D-04
 -0.16864747D-03  0.10639716D-03 -0.30934168D-13 -0.90550878D-18  0.56386074D-18
  0.68121131D-04 -0.11641406D-03  0.48292930D-04  0.40644283D-14  0.54818880D-19
 -0.14287660D-18  0.29573200D-13 -0.24085654D-03  0.28237587D-18 -0.58295745D-13
  0.47015043D-03  0.10413916D-17 -0.30423855D-13  0.25241920D-03 -0.18885192D-17
  0.57031404D-17 -0.10205934D-13  0.10804154D-03 -0.18571447D-19  0.24403230D-13