 Molden2AIM, Version 4.0.0 (06/02/2016)           Time: Thu Jun 28 16:39:48 2018
GAUSSIAN             30 MOL ORBITALS    488 PRIMITIVES        4 NUCLEI
  As   1    (CENTRE  1)   0.00000000 -0.00099967  0.73053599  CHARGE = 33.0
  F    2    (CENTRE  2)   0.00000000 -2.82157842 -0.96421575  CHARGE =  9.0
  F    3    (CENTRE  3)   2.44097057  1.41138542 -0.96483936  CHARGE =  9.0
  F    4    (CENTRE  4)  -2.44097057  1.41138542 -0.96483936  CHARGE =  9.0
CENTRE ASSIGNMENTS    1  1  1  1  1  1  1  1  1  1  1  1  1  1  1  1  1  1  1  1
CENTRE ASSIGNMENTS    1  1  1  1  1  1  1  1  1  1  1  1  1  1  1  1  1  1  1  1
CENTRE ASSIGNMENTS    1  1  1  1  1  1  1  1  1  1  1  1  1  1  1  1  1  1  1  1
CENTRE ASSIGNMENTS    1  1  1  1  1  1  1  1  1  1  1  1  1  1  1  1  1  1  1  1
CENTRE ASSIGNMENTS    1  1  1  1  1  1  1  1  1  1  1  1  1  1  1  1  1  1  1  1
CENTRE ASSIGNMENTS    1  1  1  1  1  1  1  1  1  1  1  1  1  1  1  1  1  1  1  1
CENTRE ASSIGNMENTS    1  1  1  1  1  1  1  1  1  1  1  1  1  1  1  1  1  1  1  1
CENTRE ASSIGNMENTS    1  1  1  1  1  1  1  1  1  1  1  1  1  1  1  1  1  1  1  1
CENTRE ASSIGNMENTS    1  1  1  1  1  1  1  1  1  1  1  1  1  1  1  1  1  1  1  1
CENTRE ASSIGNMENTS    1  1  1  1  1  1  1  1  1  1  1  1  1  1  1  1  1  1  1  1
CENTRE ASSIGNMENTS    1  1  1  1  1  1  1  1  1  1  1  1  1  1  1  1  1  1  1  1
CENTRE ASSIGNMENTS    1  1  1  1  1  1  1  1  1  1  1  1  1  1  1  1  1  1  1  1
CENTRE ASSIGNMENTS    1  1  1  1  1  1  1  1  1  1  1  1  1  1  1  1  1  1  1  1
CENTRE ASSIGNMENTS    1  1  1  2  2  2  2  2  2  2  2  2  2  2  2  2  2  2  2  2
CENTRE ASSIGNMENTS    2  2  2  2  2  2  2  2  2  2  2  2  2  2  2  2  2  2  2  2
CENTRE ASSIGNMENTS    2  2  2  2  2  2  2  2  2  2  2  2  2  2  2  2  2  2  2  2
CENTRE ASSIGNMENTS    2  2  2  2  2  2  2  2  2  2  2  2  2  2  2  2  2  2  3  3
CENTRE ASSIGNMENTS    3  3  3  3  3  3  3  3  3  3  3  3  3  3  3  3  3  3  3  3
CENTRE ASSIGNMENTS    3  3  3  3  3  3  3  3  3  3  3  3  3  3  3  3  3  3  3  3
CENTRE ASSIGNMENTS    3  3  3  3  3  3  3  3  3  3  3  3  3  3  3  3  3  3  3  3
CENTRE ASSIGNMENTS    3  3  3  3  3  3  3  3  3  3  3  3  3  4  4  4  4  4  4  4
CENTRE ASSIGNMENTS    4  4  4  4  4  4  4  4  4  4  4  4  4  4  4  4  4  4  4  4
CENTRE ASSIGNMENTS    4  4  4  4  4  4  4  4  4  4  4  4  4  4  4  4  4  4  4  4
CENTRE ASSIGNMENTS    4  4  4  4  4  4  4  4  4  4  4  4  4  4  4  4  4  4  4  4
CENTRE ASSIGNMENTS    4  4  4  4  4  4  4  4
TYPE ASSIGNMENTS      1  1  1  1  1  1  1  1  1  1  1  1  1  1  1  1  1  1  1  1
TYPE ASSIGNMENTS      1  1  1  1  1  1  1  1  1  1  1  1  1  1  1  1  1  1  1  1
TYPE ASSIGNMENTS      1  1  1  1  1  1  1  1  1  1  1  1  1  1  1  1  1  1  1  1
TYPE ASSIGNMENTS      1  1  1  1  1  1  1  1  1  1  1  1  1  1  1  2  2  2  2  2
TYPE ASSIGNMENTS      2  2  2  2  2  2  3  3  3  3  3  3  3  3  3  3  3  4  4  4
TYPE ASSIGNMENTS      4  4  4  4  4  4  4  4  2  2  2  2  2  2  2  2  2  2  2  3
TYPE ASSIGNMENTS      3  3  3  3  3  3  3  3  3  3  4  4  4  4  4  4  4  4  4  4
TYPE ASSIGNMENTS      4  2  2  2  2  2  2  2  2  2  2  2  3  3  3  3  3  3  3  3
TYPE ASSIGNMENTS      3  3  3  4  4  4  4  4  4  4  4  4  4  4  2  3  4  2  3  4
TYPE ASSIGNMENTS      2  3  4  5  5  5  5  5  5  5  6  6  6  6  6  6  6  7  7  7
TYPE ASSIGNMENTS      7  7  7  7  8  8  8  8  8  8  8  9  9  9  9  9  9  9 10 10
TYPE ASSIGNMENTS     10 10 10 10 10  5  6  7  8  9 10  5  6  7  8  9 10  5  6  7
TYPE ASSIGNMENTS      8  9 10 11 12 13 17 14 15 18 19 16 20 11 12 13 17 14 15 18
TYPE ASSIGNMENTS     19 16 20  1  1  1  1  1  1  1  1  1  1  1  1  1  1  1  1  1
TYPE ASSIGNMENTS      1  1  2  2  2  3  3  3  4  4  4  2  3  4  2  3  4  2  3  4
TYPE ASSIGNMENTS      5  6  7  8  9 10  5  6  7  8  9 10  5  6  7  8  9 10 11 12
TYPE ASSIGNMENTS     13 17 14 15 18 19 16 20 11 12 13 17 14 15 18 19 16 20  1  1
TYPE ASSIGNMENTS      1  1  1  1  1  1  1  1  1  1  1  1  1  1  1  1  1  2  2  2
TYPE ASSIGNMENTS      3  3  3  4  4  4  2  3  4  2  3  4  2  3  4  5  6  7  8  9
TYPE ASSIGNMENTS     10  5  6  7  8  9 10  5  6  7  8  9 10 11 12 13 17 14 15 18
TYPE ASSIGNMENTS     19 16 20 11 12 13 17 14 15 18 19 16 20  1  1  1  1  1  1  1
TYPE ASSIGNMENTS      1  1  1  1  1  1  1  1  1  1  1  1  2  2  2  3  3  3  4  4
TYPE ASSIGNMENTS      4  2  3  4  2  3  4  2  3  4  5  6  7  8  9 10  5  6  7  8
TYPE ASSIGNMENTS      9 10  5  6  7  8  9 10 11 12 13 17 14 15 18 19 16 20 11 12
TYPE ASSIGNMENTS     13 17 14 15 18 19 16 20
EXPONENTS  0.8482340D+07 0.1270151D+07 0.2890570D+06 0.8187985D+05 0.2671656D+05
EXPONENTS  0.9647584D+04 0.3764119D+04 0.1561566D+04 0.6808147D+03 0.3092412D+03
EXPONENTS  0.1452574D+03 0.6973905D+02 0.3177032D+02 0.1539176D+02 0.7341526D+01
EXPONENTS  0.3323716D+01 0.1485867D+01 0.2115000D+00 0.8482340D+07 0.1270151D+07
EXPONENTS  0.2890570D+06 0.8187985D+05 0.2671656D+05 0.9647584D+04 0.3764119D+04
EXPONENTS  0.1561566D+04 0.6808147D+03 0.3092412D+03 0.1452574D+03 0.6973905D+02
EXPONENTS  0.3177032D+02 0.1539176D+02 0.7341526D+01 0.3323716D+01 0.1485867D+01
EXPONENTS  0.2115000D+00 0.8482340D+07 0.1270151D+07 0.2890570D+06 0.8187985D+05
EXPONENTS  0.2671656D+05 0.9647584D+04 0.3764119D+04 0.1561566D+04 0.6808147D+03
EXPONENTS  0.3092412D+03 0.1452574D+03 0.6973905D+02 0.3177032D+02 0.1539176D+02
EXPONENTS  0.7341526D+01 0.3323716D+01 0.1485867D+01 0.2115000D+00 0.8482340D+07
EXPONENTS  0.1270151D+07 0.2890570D+06 0.8187985D+05 0.2671656D+05 0.9647584D+04
EXPONENTS  0.3764119D+04 0.1561566D+04 0.6808147D+03 0.3092412D+03 0.1452574D+03
EXPONENTS  0.6973905D+02 0.3177032D+02 0.1539176D+02 0.7341526D+01 0.3323716D+01
EXPONENTS  0.1485867D+01 0.2115000D+00 0.4210860D+00 0.8897400D-01 0.3340700D-01
EXPONENTS  0.7423861D+04 0.1759517D+04 0.5702292D+03 0.2165800D+03 0.9073425D+02
EXPONENTS  0.4030879D+02 0.1855550D+02 0.8396543D+01 0.3767367D+01 0.1629701D+01
EXPONENTS  0.2225030D+00 0.7423861D+04 0.1759517D+04 0.5702292D+03 0.2165800D+03
EXPONENTS  0.9073425D+02 0.4030879D+02 0.1855550D+02 0.8396543D+01 0.3767367D+01
EXPONENTS  0.1629701D+01 0.2225030D+00 0.7423861D+04 0.1759517D+04 0.5702292D+03
EXPONENTS  0.2165800D+03 0.9073425D+02 0.4030879D+02 0.1855550D+02 0.8396543D+01
EXPONENTS  0.3767367D+01 0.1629701D+01 0.2225030D+00 0.7423861D+04 0.1759517D+04
EXPONENTS  0.5702292D+03 0.2165800D+03 0.9073425D+02 0.4030879D+02 0.1855550D+02
EXPONENTS  0.8396543D+01 0.3767367D+01 0.1629701D+01 0.2225030D+00 0.7423861D+04
EXPONENTS  0.1759517D+04 0.5702292D+03 0.2165800D+03 0.9073425D+02 0.4030879D+02
EXPONENTS  0.1855550D+02 0.8396543D+01 0.3767367D+01 0.1629701D+01 0.2225030D+00
EXPONENTS  0.7423861D+04 0.1759517D+04 0.5702292D+03 0.2165800D+03 0.9073425D+02
EXPONENTS  0.4030879D+02 0.1855550D+02 0.8396543D+01 0.3767367D+01 0.1629701D+01
EXPONENTS  0.2225030D+00 0.7423861D+04 0.1759517D+04 0.5702292D+03 0.2165800D+03
EXPONENTS  0.9073425D+02 0.4030879D+02 0.1855550D+02 0.8396543D+01 0.3767367D+01
EXPONENTS  0.1629701D+01 0.2225030D+00 0.7423861D+04 0.1759517D+04 0.5702292D+03
EXPONENTS  0.2165800D+03 0.9073425D+02 0.4030879D+02 0.1855550D+02 0.8396543D+01
EXPONENTS  0.3767367D+01 0.1629701D+01 0.2225030D+00 0.7423861D+04 0.1759517D+04
EXPONENTS  0.5702292D+03 0.2165800D+03 0.9073425D+02 0.4030879D+02 0.1855550D+02
EXPONENTS  0.8396543D+01 0.3767367D+01 0.1629701D+01 0.2225030D+00 0.5682630D+00
EXPONENTS  0.5682630D+00 0.5682630D+00 0.8040500D-01 0.8040500D-01 0.8040500D-01
EXPONENTS  0.2679900D-01 0.2679900D-01 0.2679900D-01 0.3210196D+03 0.9624931D+02
EXPONENTS  0.3664496D+02 0.1549396D+02 0.6891138D+01 0.3054831D+01 0.1314241D+01
EXPONENTS  0.3210196D+03 0.9624931D+02 0.3664496D+02 0.1549396D+02 0.6891138D+01
EXPONENTS  0.3054831D+01 0.1314241D+01 0.3210196D+03 0.9624931D+02 0.3664496D+02
EXPONENTS  0.1549396D+02 0.6891138D+01 0.3054831D+01 0.1314241D+01 0.3210196D+03
EXPONENTS  0.9624931D+02 0.3664496D+02 0.1549396D+02 0.6891138D+01 0.3054831D+01
EXPONENTS  0.1314241D+01 0.3210196D+03 0.9624931D+02 0.3664496D+02 0.1549396D+02
EXPONENTS  0.6891138D+01 0.3054831D+01 0.1314241D+01 0.3210196D+03 0.9624931D+02
EXPONENTS  0.3664496D+02 0.1549396D+02 0.6891138D+01 0.3054831D+01 0.1314241D+01
EXPONENTS  0.5134300D+00 0.5134300D+00 0.5134300D+00 0.5134300D+00 0.5134300D+00
EXPONENTS  0.5134300D+00 0.1877000D+00 0.1877000D+00 0.1877000D+00 0.1877000D+00
EXPONENTS  0.1877000D+00 0.1877000D+00 0.7000000D-01 0.7000000D-01 0.7000000D-01
EXPONENTS  0.7000000D-01 0.7000000D-01 0.7000000D-01 0.4158000D+00 0.4158000D+00
EXPONENTS  0.4158000D+00 0.4158000D+00 0.4158000D+00 0.4158000D+00 0.4158000D+00
EXPONENTS  0.4158000D+00 0.4158000D+00 0.4158000D+00 0.1690000D+00 0.1690000D+00
EXPONENTS  0.1690000D+00 0.1690000D+00 0.1690000D+00 0.1690000D+00 0.1690000D+00
EXPONENTS  0.1690000D+00 0.1690000D+00 0.1690000D+00 0.1950000D+05 0.2923000D+04
EXPONENTS  0.6645000D+03 0.1875000D+03 0.6062000D+02 0.2142000D+02 0.7950000D+01
EXPONENTS  0.8815000D+00 0.1950000D+05 0.2923000D+04 0.6645000D+03 0.1875000D+03
EXPONENTS  0.6062000D+02 0.2142000D+02 0.7950000D+01 0.8815000D+00 0.2257000D+01
EXPONENTS  0.3041000D+00 0.9158000D-01 0.4388000D+02 0.9926000D+01 0.2930000D+01
EXPONENTS  0.4388000D+02 0.9926000D+01 0.2930000D+01 0.4388000D+02 0.9926000D+01
EXPONENTS  0.2930000D+01 0.9132000D+00 0.9132000D+00 0.9132000D+00 0.2672000D+00
EXPONENTS  0.2672000D+00 0.2672000D+00 0.7361000D-01 0.7361000D-01 0.7361000D-01
EXPONENTS  0.3107000D+01 0.3107000D+01 0.3107000D+01 0.3107000D+01 0.3107000D+01
EXPONENTS  0.3107000D+01 0.8550000D+00 0.8550000D+00 0.8550000D+00 0.8550000D+00
EXPONENTS  0.8550000D+00 0.8550000D+00 0.2920000D+00 0.2920000D+00 0.2920000D+00
EXPONENTS  0.2920000D+00 0.2920000D+00 0.2920000D+00 0.1917000D+01 0.1917000D+01
EXPONENTS  0.1917000D+01 0.1917000D+01 0.1917000D+01 0.1917000D+01 0.1917000D+01
EXPONENTS  0.1917000D+01 0.1917000D+01 0.1917000D+01 0.7240000D+00 0.7240000D+00
EXPONENTS  0.7240000D+00 0.7240000D+00 0.7240000D+00 0.7240000D+00 0.7240000D+00
EXPONENTS  0.7240000D+00 0.7240000D+00 0.7240000D+00 0.1950000D+05 0.2923000D+04
EXPONENTS  0.6645000D+03 0.1875000D+03 0.6062000D+02 0.2142000D+02 0.7950000D+01
EXPONENTS  0.8815000D+00 0.1950000D+05 0.2923000D+04 0.6645000D+03 0.1875000D+03
EXPONENTS  0.6062000D+02 0.2142000D+02 0.7950000D+01 0.8815000D+00 0.2257000D+01
EXPONENTS  0.3041000D+00 0.9158000D-01 0.4388000D+02 0.9926000D+01 0.2930000D+01
EXPONENTS  0.4388000D+02 0.9926000D+01 0.2930000D+01 0.4388000D+02 0.9926000D+01
EXPONENTS  0.2930000D+01 0.9132000D+00 0.9132000D+00 0.9132000D+00 0.2672000D+00
EXPONENTS  0.2672000D+00 0.2672000D+00 0.7361000D-01 0.7361000D-01 0.7361000D-01
EXPONENTS  0.3107000D+01 0.3107000D+01 0.3107000D+01 0.3107000D+01 0.3107000D+01
EXPONENTS  0.3107000D+01 0.8550000D+00 0.8550000D+00 0.8550000D+00 0.8550000D+00
EXPONENTS  0.8550000D+00 0.8550000D+00 0.2920000D+00 0.2920000D+00 0.2920000D+00
EXPONENTS  0.2920000D+00 0.2920000D+00 0.2920000D+00 0.1917000D+01 0.1917000D+01
EXPONENTS  0.1917000D+01 0.1917000D+01 0.1917000D+01 0.1917000D+01 0.1917000D+01
EXPONENTS  0.1917000D+01 0.1917000D+01 0.1917000D+01 0.7240000D+00 0.7240000D+00
EXPONENTS  0.7240000D+00 0.7240000D+00 0.7240000D+00 0.7240000D+00 0.7240000D+00
EXPONENTS  0.7240000D+00 0.7240000D+00 0.7240000D+00 0.1950000D+05 0.2923000D+04
EXPONENTS  0.6645000D+03 0.1875000D+03 0.6062000D+02 0.2142000D+02 0.7950000D+01
EXPONENTS  0.8815000D+00 0.1950000D+05 0.2923000D+04 0.6645000D+03 0.1875000D+03
EXPONENTS  0.6062000D+02 0.2142000D+02 0.7950000D+01 0.8815000D+00 0.2257000D+01
EXPONENTS  0.3041000D+00 0.9158000D-01 0.4388000D+02 0.9926000D+01 0.2930000D+01
EXPONENTS  0.4388000D+02 0.9926000D+01 0.2930000D+01 0.4388000D+02 0.9926000D+01
EXPONENTS  0.2930000D+01 0.9132000D+00 0.9132000D+00 0.9132000D+00 0.2672000D+00
EXPONENTS  0.2672000D+00 0.2672000D+00 0.7361000D-01 0.7361000D-01 0.7361000D-01
EXPONENTS  0.3107000D+01 0.3107000D+01 0.3107000D+01 0.3107000D+01 0.3107000D+01
EXPONENTS  0.3107000D+01 0.8550000D+00 0.8550000D+00 0.8550000D+00 0.8550000D+00
EXPONENTS  0.8550000D+00 0.8550000D+00 0.2920000D+00 0.2920000D+00 0.2920000D+00
EXPONENTS  0.2920000D+00 0.2920000D+00 0.2920000D+00 0.1917000D+01 0.1917000D+01
EXPONENTS  0.1917000D+01 0.1917000D+01 0.1917000D+01 0.1917000D+01 0.1917000D+01
EXPONENTS  0.1917000D+01 0.1917000D+01 0.1917000D+01 0.7240000D+00 0.7240000D+00
EXPONENTS  0.7240000D+00 0.7240000D+00 0.7240000D+00 0.7240000D+00 0.7240000D+00
EXPONENTS  0.7240000D+00 0.7240000D+00 0.7240000D+00
MO    1     MO 0.0        OCC NO =    2.0000000  ORB. ENERGY = -425.296427
  0.76168963D+00  0.14236650D+01  0.24644863D+01  0.40366887D+01  0.63175508D+01
  0.94734962D+01  0.13472965D+02  0.17690698D+02  0.20151546D+02  0.17678446D+02
  0.94081139D+01  0.20316740D+01  0.76366168D-01  0.18236449D-02 -0.48408547D-03
  0.43330856D-04 -0.35103339D-04 -0.20892625D-05  0.69817649D-04  0.13204885D-03
  0.22835717D-03  0.37401725D-03  0.58828810D-03  0.88731913D-03  0.12906786D-02
  0.17663444D-02  0.22256993D-02  0.23623238D-02  0.18072636D-02  0.28451649D-03
 -0.11853356D-02 -0.94657376D-03 -0.16008120D-03 -0.31585942D-05 -0.50116435D-06
 -0.15278493D-07 -0.15288454D-03 -0.29441389D-03 -0.51080402D-03 -0.83748011D-03
 -0.13181725D-02 -0.19886655D-02 -0.29026170D-02 -0.39903329D-02 -0.50976532D-02
 -0.55451285D-02 -0.44746479D-02 -0.75570452D-03  0.39951745D-02  0.48097174D-02
  0.30137365D-03 -0.21201706D-02 -0.85597039D-03  0.42158063D-05  0.60843664D-04
  0.13181433D-03  0.22439809D-03  0.36725479D-03  0.57798465D-03  0.87216718D-03
  0.12730763D-02  0.17520527D-02  0.22413522D-02  0.24486547D-02  0.19882844D-02
  0.34342726D-03 -0.18650902D-02 -0.23707785D-02 -0.12264589D-03  0.13586391D-02
  0.10120766D-02 -0.39208759D-03  0.28338756D-03  0.11591444D-03 -0.23165055D-05
 -0.97308981D-16 -0.13934067D-15 -0.18364140D-15 -0.21036687D-15 -0.19250914D-15
 -0.12226889D-15 -0.41886186D-16 -0.46020854D-17 -0.54251947D-19 -0.10456623D-19
 -0.10777872D-21 -0.95791291D-06 -0.13716742D-05 -0.18077721D-05 -0.20708586D-05
 -0.18950665D-05 -0.12036191D-05 -0.41232904D-06 -0.45303085D-07 -0.53405800D-09
 -0.10293535D-09 -0.10609774D-11  0.44111700D-03  0.63165327D-03  0.83247549D-03
  0.95362628D-03  0.87267439D-03  0.55426421D-03  0.18987671D-03  0.20861981D-04
  0.24593265D-06  0.47401525D-07  0.48857799D-09  0.57187731D-15  0.82451646D-15
  0.10956421D-14  0.12926403D-14  0.12348209D-14  0.84270333D-15  0.26128829D-15
 -0.12998876D-15 -0.13043184D-15 -0.32856274D-16  0.38177278D-19  0.46942927D-05
  0.67680980D-05  0.89936505D-05  0.10610724D-04  0.10136109D-04  0.69173861D-05
  0.21448023D-05 -0.10670213D-05 -0.10706584D-05 -0.26970290D-06  0.31338071D-09
 -0.40823364D-02 -0.58857968D-02 -0.78212223D-02 -0.92274910D-02 -0.88147481D-02
 -0.60156234D-02 -0.18652020D-02  0.92792255D-03  0.93108551D-03  0.23454395D-03
 -0.27252785D-06 -0.41864583D-15 -0.60520812D-15 -0.80413006D-15 -0.95290271D-15
 -0.91380432D-15 -0.63065370D-15 -0.19071876D-15  0.11944050D-15  0.12082682D-15
  0.35017710D-16 -0.13624012D-16 -0.35683981D-05 -0.51585931D-05 -0.68541377D-05
 -0.81222263D-05 -0.77889646D-05 -0.53754828D-05 -0.16256234D-05  0.10180712D-05
  0.10298877D-05  0.29847933D-06 -0.11612656D-06  0.30986093D-02  0.44794510D-02
  0.59517728D-02  0.70529143D-02  0.67635274D-02  0.46677866D-02  0.14116059D-02
 -0.88403951D-03 -0.89430035D-03 -0.25918376D-03  0.10083820D-03  0.10421898D-16
  0.31407005D-07 -0.28051053D-04 -0.25497177D-16  0.53557198D-07 -0.20356960D-04
 -0.88910479D-20  0.50153378D-09  0.50744828D-06  0.11734705D-03  0.11985771D-03
  0.98143964D-04  0.61818845D-04  0.26924021D-04  0.76238358D-05  0.12698438D-05
  0.11960992D-03  0.12216899D-03  0.10003652D-03  0.63010930D-04  0.27443210D-04
  0.77708502D-05  0.12943309D-05 -0.23695697D-03 -0.24202671D-03 -0.19818049D-03
 -0.12482978D-03 -0.54367231D-04 -0.15394686D-04 -0.25641747D-05 -0.62573817D-16
 -0.63912594D-16 -0.52334014D-16 -0.32964109D-16 -0.14356890D-16 -0.40653130D-17
 -0.67712800D-18  0.73183080D-16  0.74748844D-16  0.61207140D-16  0.38553107D-16
  0.16791071D-16  0.47545785D-17  0.79193367D-18 -0.18966332D-05 -0.19372119D-05
 -0.15862613D-05 -0.99915309D-06 -0.43516210D-06 -0.12322099D-06 -0.20523974D-07
 -0.64332780D-05 -0.65492028D-05  0.12982481D-04  0.58469509D-17 -0.70091952D-17
  0.10957027D-06  0.10011997D-05  0.98357091D-06 -0.19847706D-05 -0.13191105D-16
  0.15789173D-16  0.64080700D-08 -0.86492924D-07 -0.83601438D-07  0.17009436D-06
 -0.19567856D-17  0.30313808D-17 -0.10556745D-07  0.13738155D-18  0.11795965D-04
 -0.13269629D-04  0.42078034D-18 -0.35357990D-04  0.19859034D-04 -0.83292500D-18
 -0.29905324D-07  0.19949852D-04  0.40690243D-17  0.37765614D-18 -0.90597617D-06
  0.10535891D-05  0.25168225D-18  0.27115767D-05 -0.15778818D-05 -0.13846507D-17
  0.63518492D-08 -0.15828856D-05  0.46423724D-17 -0.33759322D-04 -0.62928839D-04
 -0.10667985D-03 -0.16154474D-03 -0.20201226D-03 -0.17391374D-03 -0.66858790D-04
  0.28971008D-06  0.22064116D-04  0.41432503D-04  0.70552407D-04  0.11051993D-03
  0.14810971D-03  0.15931196D-03  0.95650691D-04 -0.62903918D-04  0.20295288D-04
  0.59029339D-04 -0.17034033D-04  0.34884447D-17  0.34116227D-17  0.22542034D-17
 -0.30237943D-05 -0.29572047D-05 -0.19539502D-05 -0.39732336D-06 -0.38857357D-06
 -0.25674698D-06 -0.23747255D-17 -0.10879038D-04 -0.67655403D-05  0.12707758D-18
  0.54676487D-04  0.28232863D-04  0.10015677D-17 -0.31101856D-05 -0.80693039D-06
  0.84884814D-05 -0.43338158D-05 -0.41546656D-05  0.31151032D-18 -0.58244749D-17
 -0.28059203D-04 -0.34559622D-05  0.18474575D-05  0.16085046D-05 -0.73422396D-18
  0.28887153D-17  0.12127653D-04 -0.11585414D-04  0.15804773D-04 -0.42193585D-05
  0.66557997D-18 -0.27947874D-17  0.27548886D-04  0.79181905D-19 -0.13949574D-04
  0.11875919D-04 -0.14393856D-16  0.46830667D-04  0.85802150D-05  0.14156310D-16
 -0.49819454D-05 -0.44207971D-04  0.25309181D-16 -0.92602318D-19  0.51333710D-05
 -0.60392288D-05  0.42674779D-17 -0.21131083D-04 -0.83342414D-05 -0.39896710D-17
  0.57309698D-05  0.26451928D-04 -0.71888933D-17 -0.33756696D-04 -0.62923944D-04
 -0.10667155D-03 -0.16153217D-03 -0.20199655D-03 -0.17390021D-03 -0.66853590D-04
  0.28968755D-06  0.22062480D-04  0.41429430D-04  0.70547174D-04  0.11051173D-03
  0.14809872D-03  0.15930014D-03  0.95643596D-04 -0.62899253D-04  0.20292628D-04
  0.59031191D-04 -0.17124111D-04  0.26268594D-05  0.25690112D-05  0.16974543D-05
  0.14937305D-05  0.14608358D-05  0.96523601D-06 -0.37411753D-06 -0.36587877D-06
 -0.24175158D-06  0.94071431D-05  0.54641319D-05 -0.67881030D-05 -0.47319328D-04
 -0.27388236D-04  0.28269146D-04  0.26974623D-05  0.15526358D-05 -0.80842266D-06
 -0.10987185D-05  0.52517058D-05 -0.41529873D-05 -0.11024950D-04  0.24218757D-04
  0.13996536D-04  0.51079621D-06 -0.21185648D-05  0.16077686D-05  0.45551127D-05
 -0.10461547D-04 -0.60517416D-05  0.89288560D-05 -0.47190816D-05 -0.42097745D-05
  0.23759769D-04 -0.23877498D-04 -0.13807545D-04 -0.11575415D-05 -0.15824096D-04
  0.11890536D-04 -0.92268627D-06  0.44978327D-04 -0.31022051D-04  0.43953107D-05
  0.24939621D-05 -0.46495567D-05 -0.45813444D-04  0.12681276D-05  0.72845430D-05
 -0.60415698D-05  0.11795699D-05 -0.18979538D-04  0.17736471D-04 -0.49839527D-05
 -0.28740915D-05  0.38823845D-06  0.30162344D-04 -0.33756696D-04 -0.62923944D-04
 -0.10667155D-03 -0.16153217D-03 -0.20199655D-03 -0.17390021D-03 -0.66853590D-04
  0.28968755D-06  0.22062480D-04  0.41429430D-04  0.70547174D-04  0.11051173D-03
  0.14809872D-03  0.15930014D-03  0.95643596D-04 -0.62899253D-04  0.20292628D-04
  0.59031191D-04 -0.17124111D-04 -0.26268594D-05 -0.25690112D-05 -0.16974543D-05
  0.14937305D-05  0.14608358D-05  0.96523601D-06 -0.37411753D-06 -0.36587877D-06
 -0.24175158D-06 -0.94071431D-05  0.54641319D-05 -0.67881030D-05  0.47319328D-04
 -0.27388236D-04  0.28269146D-04 -0.26974623D-05  0.15526358D-05 -0.80842266D-06
 -0.10987185D-05  0.52517058D-05 -0.41529873D-05  0.11024950D-04 -0.24218757D-04
  0.13996536D-04  0.51079621D-06 -0.21185648D-05  0.16077686D-05 -0.45551127D-05
  0.10461547D-04 -0.60517416D-05  0.89288560D-05 -0.47190816D-05 -0.42097745D-05
 -0.23759769D-04  0.23877498D-04 -0.13807545D-04  0.11575415D-05 -0.15824096D-04
  0.11890536D-04  0.92268627D-06  0.44978327D-04 -0.31022051D-04 -0.43953107D-05
  0.24939621D-05 -0.46495567D-05  0.45813444D-04 -0.12681276D-05  0.72845430D-05
 -0.60415698D-05 -0.11795699D-05 -0.18979538D-04  0.17736471D-04  0.49839527D-05
 -0.28740915D-05  0.38823845D-06 -0.30162344D-04
MO    2     MO 0.0        OCC NO =    2.0000000  ORB. ENERGY =  -53.847694
  0.41754883D-03  0.78043552D-03  0.13510009D-02  0.22128628D-02  0.34632032D-02
  0.51932534D-02  0.73857129D-02  0.96978218D-02  0.11046828D-01  0.96911051D-02
  0.51574116D-02  0.11137385D-02  0.41862989D-04  0.99969955D-06 -0.26536966D-06
  0.23753439D-07 -0.19243216D-07 -0.11453079D-08 -0.23631269D+00 -0.44694742D+00
 -0.77292342D+00 -0.12659409D+01 -0.19911862D+01 -0.30033204D+01 -0.43685764D+01
 -0.59785685D+01 -0.75333529D+01 -0.79957874D+01 -0.61170683D+01 -0.96300660D+00
  0.40120207D+01  0.32038803D+01  0.54182890D+00  0.10690934D-01  0.16962974D-02
  0.51713310D-04  0.15358743D-02  0.29576747D-02  0.51315246D-02  0.84133047D-02
  0.13242329D-01  0.19978085D-01  0.29159620D-01  0.40086787D-01  0.51210899D-01
  0.55706225D-01  0.44952204D-01  0.75917891D-02 -0.40135426D-01 -0.48318304D-01
 -0.30275923D-02  0.21299182D-01  0.85990576D-02 -0.42351887D-04 -0.64180757D-03
 -0.13904395D-02 -0.23670565D-02 -0.38739761D-02 -0.60968538D-02 -0.92000293D-02
 -0.13429008D-01 -0.18481476D-01 -0.23642837D-01 -0.25829560D-01 -0.20973358D-01
 -0.36226321D-02  0.19673848D-01  0.25008086D-01  0.12937265D-02 -0.14331563D-01
 -0.10675860D-01  0.41359242D-02 -0.31501163D-02 -0.13163134D-02  0.24132795D-04
  0.54128672D-13  0.77509035D-13  0.10215157D-12  0.11701776D-12  0.10708430D-12
  0.68012763D-13  0.23299429D-13  0.25599361D-14  0.30177953D-16  0.58165558D-17
  0.59952525D-19  0.59422982D-05  0.85090172D-05  0.11214298D-04  0.12846324D-04
  0.11755819D-04  0.74665072D-05  0.25578339D-05  0.28103227D-06  0.33129650D-08
  0.63854714D-09  0.65816464D-11 -0.11231387D+00 -0.16082677D+00 -0.21195860D+00
 -0.24280510D+00 -0.22219374D+00 -0.14112256D+00 -0.48344969D-01 -0.53117196D-02
 -0.62617510D-04 -0.12069017D-04 -0.12439803D-06 -0.20062689D-12 -0.28925816D-12
 -0.38437487D-12 -0.45348610D-12 -0.43320181D-12 -0.29563850D-12 -0.91665569D-13
  0.45602860D-13  0.45758304D-13  0.11526689D-13 -0.13393412D-16 -0.47521419D-04
 -0.68515032D-04 -0.91044818D-04 -0.10741483D-03 -0.10261019D-03 -0.70026310D-04
 -0.21712333D-04  0.10801705D-04  0.10838525D-04  0.27302652D-05 -0.31724259D-08
  0.42298163D-01  0.60984291D-01  0.81037744D-01  0.95608465D-01  0.91331927D-01
  0.62329459D-01  0.19325850D-01 -0.96144500D-02 -0.96472222D-02 -0.24301717D-02
  0.28237328D-05  0.15184831D-12  0.21951688D-12  0.29166847D-12  0.34563025D-12
  0.33144875D-12  0.22874633D-12  0.69176183D-13 -0.43322630D-13 -0.43825465D-13
 -0.12701380D-13  0.49416071D-14  0.36494013D-04  0.52756940D-04  0.70097277D-04
  0.83066021D-04  0.79657754D-04  0.54975071D-04  0.16625253D-04 -0.10411816D-04
 -0.10532663D-04 -0.30525486D-05  0.11876265D-05 -0.31484563D-01 -0.45515115D-01
 -0.60475183D-01 -0.71663738D-01 -0.68723315D-01 -0.47428768D-01 -0.14343142D-01
  0.89826096D-02  0.90868687D-02  0.26335322D-02 -0.10246037D-02 -0.22691593D-14
 -0.29660324D-06  0.30531854D-03  0.30818259D-14 -0.58145436D-06  0.22748400D-03
 -0.61108389D-17 -0.52779027D-08 -0.55625711D-05 -0.36400000D-03 -0.37178784D-03
 -0.30443374D-03 -0.19175649D-03 -0.83515889D-04 -0.23648453D-04 -0.39389413D-05
 -0.38914315D-03 -0.39746893D-03 -0.32546238D-03 -0.20500199D-03 -0.89284714D-04
 -0.25281959D-04 -0.42110220D-05  0.75314315D-03  0.76925677D-03  0.62989612D-03
  0.39675849D-03  0.17280060D-03  0.48930412D-04  0.81499633D-05 -0.16621270D-13
 -0.16976885D-13 -0.13901306D-13 -0.87561441D-14 -0.38135718D-14 -0.10798552D-14
 -0.17986320D-15  0.19515454D-13  0.19932991D-13  0.16321876D-13  0.10280811D-13
  0.44776113D-14  0.12678854D-14  0.21118195D-15  0.25934364D-04  0.26489234D-04
  0.21690372D-04  0.13662315D-04  0.59503612D-05  0.16849109D-05  0.28064269D-06
  0.62555159D-04  0.63732311D-04 -0.12628747D-03  0.84351913D-15 -0.86744784D-15
 -0.11671641D-05 -0.11701647D-04 -0.11576928D-04  0.23278575D-04  0.22150780D-14
 -0.30075426D-14 -0.32374922D-07  0.89605114D-06  0.86374673D-06 -0.17597979D-05
  0.20505048D-15 -0.31561554D-15  0.11376978D-06 -0.76276539D-16 -0.11807240D-03
  0.13323495D-03 -0.15099829D-15  0.35391447D-03 -0.19940823D-03  0.37982791D-15
  0.30271734D-06 -0.20029663D-03 -0.18483551D-14 -0.57150891D-16  0.10087753D-04
 -0.11750336D-04 -0.64819480D-16 -0.30189880D-04  0.17592455D-04  0.23627215D-15
 -0.73378715D-07  0.17658552D-04 -0.61605561D-15  0.30989712D-03  0.57766166D-03
  0.97927853D-03  0.14829163D-02  0.18543920D-02  0.15964588D-02  0.61373705D-03
 -0.26594231D-05 -0.20507527D-03 -0.38509503D-03 -0.65575043D-03 -0.10272292D-02
 -0.13766079D-02 -0.14807274D-02 -0.88902681D-03  0.58466143D-03 -0.15866282D-03
 -0.56426194D-03  0.20478307D-03 -0.42256102D-15 -0.41325545D-15 -0.27305535D-15
  0.17257186D-04  0.16877151D-04  0.11151447D-04 -0.37884799D-05 -0.37050506D-05
 -0.24480836D-05  0.33463230D-15  0.10789768D-03  0.66898402D-04 -0.14616196D-15
 -0.54450665D-03 -0.27757263D-03 -0.87710158D-16  0.35680993D-04  0.10041027D-04
 -0.50216372D-04  0.40956054D-05  0.46120767D-04  0.19774247D-15  0.72146702D-15
  0.18656807D-03  0.23581066D-04 -0.48094351D-05 -0.18771631D-04  0.68985109D-16
 -0.39425274D-15 -0.93201728D-04  0.11891781D-03 -0.16324857D-03  0.44330766D-04
 -0.24836254D-15  0.40720657D-15 -0.28065759D-03 -0.24404572D-15  0.14528964D-03
 -0.12121179D-03  0.33675908D-14 -0.47995699D-03 -0.94309136D-04 -0.26354536D-14
  0.44088081D-04  0.45794449D-03 -0.35651126D-14  0.69934520D-16 -0.53031952D-04
  0.59469296D-04 -0.98957755D-15  0.21099893D-03  0.80465021D-04  0.77977399D-15
 -0.51903077D-04 -0.25887291D-03  0.10951537D-14  0.30987815D-03  0.57762630D-03
  0.97921859D-03  0.14828255D-02  0.18542785D-02  0.15963611D-02  0.61369949D-03
 -0.26592603D-05 -0.20506357D-03 -0.38507306D-03 -0.65571301D-03 -0.10271705D-02
 -0.13765294D-02 -0.14806429D-02 -0.88897608D-03  0.58462807D-03 -0.15864041D-03
 -0.56431052D-03  0.20574215D-03 -0.15061239D-04 -0.14729563D-04 -0.97324447D-05
 -0.84310282D-05 -0.82453615D-05 -0.54480589D-05 -0.40356446D-05 -0.39467723D-05
 -0.26077993D-05 -0.93275466D-04 -0.54211564D-04  0.67147703D-04  0.47121808D-03
  0.27278799D-03 -0.27799162D-03 -0.30942309D-04 -0.17815306D-04  0.10056555D-04
 -0.96970667D-05 -0.36382000D-04  0.46079066D-04  0.46270555D-04 -0.16088181D-03
 -0.92924944D-04  0.23698520D-05  0.16381779D-04 -0.18751631D-04 -0.24197063D-04
  0.80327162D-04  0.46459672D-04 -0.92399915D-04  0.48181063D-04  0.44218853D-04
 -0.24478520D-03  0.24327295D-03  0.14068253D-03  0.10366942D-04  0.16190743D-03
 -0.12133274D-03  0.79513340D-05 -0.46366440D-03  0.31993378D-03 -0.39052160D-04
 -0.22057905D-04  0.44064433D-04  0.47941854D-03 -0.11525235D-04 -0.72524804D-04
  0.59490416D-04 -0.10612149D-04  0.19154733D-03 -0.17385859D-03  0.45187855D-04
  0.26027085D-04 -0.46126573D-05 -0.29429579D-03  0.30987815D-03  0.57762630D-03
  0.97921859D-03  0.14828255D-02  0.18542785D-02  0.15963611D-02  0.61369949D-03
 -0.26592603D-05 -0.20506357D-03 -0.38507306D-03 -0.65571301D-03 -0.10271705D-02
 -0.13765294D-02 -0.14806429D-02 -0.88897608D-03  0.58462807D-03 -0.15864041D-03
 -0.56431052D-03  0.20574215D-03  0.15061239D-04  0.14729563D-04  0.97324448D-05
 -0.84310282D-05 -0.82453615D-05 -0.54480589D-05 -0.40356446D-05 -0.39467723D-05
 -0.26077993D-05  0.93275466D-04 -0.54211564D-04  0.67147703D-04 -0.47121808D-03
  0.27278799D-03 -0.27799162D-03  0.30942309D-04 -0.17815306D-04  0.10056555D-04
 -0.96970667D-05 -0.36382000D-04  0.46079066D-04 -0.46270555D-04  0.16088181D-03
 -0.92924944D-04  0.23698520D-05  0.16381779D-04 -0.18751631D-04  0.24197063D-04
 -0.80327162D-04  0.46459672D-04 -0.92399915D-04  0.48181063D-04  0.44218853D-04
  0.24478520D-03 -0.24327295D-03  0.14068253D-03 -0.10366942D-04  0.16190743D-03
 -0.12133274D-03 -0.79513340D-05 -0.46366440D-03  0.31993378D-03  0.39052160D-04
 -0.22057905D-04  0.44064433D-04 -0.47941854D-03  0.11525235D-04 -0.72524804D-04
  0.59490416D-04  0.10612149D-04  0.19154733D-03 -0.17385859D-03 -0.45187855D-04
  0.26027085D-04 -0.46126573D-05  0.29429579D-03
MO    3     MO 0.0        OCC NO =    2.0000000  ORB. ENERGY =  -48.030941
  0.47961245D-16  0.89643789D-16  0.15518110D-15  0.25417783D-15  0.39779667D-15
  0.59651682D-15  0.84835104D-15  0.11139287D-14  0.12688806D-14  0.11131572D-14
  0.59239990D-15  0.12792824D-15  0.48085419D-17  0.11482929D-18 -0.30481368D-19
  0.27284103D-20 -0.22103489D-20 -0.13155441D-21 -0.24154841D-15 -0.45684996D-15
 -0.79004826D-15 -0.12939891D-14 -0.20353028D-14 -0.30698617D-14 -0.44653663D-14
 -0.61110293D-14 -0.77002613D-14 -0.81729415D-14 -0.62525976D-14 -0.98434291D-15
  0.41009107D-14  0.32748652D-14  0.55383362D-15  0.10927802D-16  0.17338804D-17
  0.52859066D-19  0.12283545D-15  0.23654756D-15  0.41040673D-15  0.67287544D-15
  0.10590889D-14  0.15977982D-14  0.23321147D-14  0.32060427D-14  0.40957219D-14
  0.44552470D-14  0.35951668D-14  0.60717264D-15 -0.32099327D-14 -0.38643792D-14
 -0.24213939D-15  0.17034562D-14  0.68773150D-15 -0.33871999D-17 -0.63546323D-16
 -0.13766948D-15 -0.23436579D-15 -0.38356815D-15 -0.60365857D-15 -0.91090861D-15
 -0.13296260D-14 -0.18298784D-14 -0.23409125D-14 -0.25574232D-14 -0.20766034D-14
 -0.35868220D-15  0.19479370D-14  0.24760878D-14  0.12809378D-15 -0.14189894D-14
 -0.10570328D-14  0.40950401D-15 -0.46204116D-15  0.13997096D-14  0.28915479D-16
  0.45183110D+02  0.64699522D+02  0.85269513D+02  0.97678849D+02  0.89387039D+02
  0.56772649D+02  0.19448854D+02  0.21368689D+01  0.25190600D-01  0.48552840D-02
  0.50044485D-04  0.18543124D-07  0.26552650D-07  0.34994563D-07  0.40087348D-07
  0.36684394D-07  0.23299465D-07  0.79817993D-08  0.87696984D-09  0.10338209D-10