 Molden2AIM, Version 4.0.0 (06/02/2016)           Time: Thu Jun 28 17:59:59 2018
GAUSSIAN              8 MOL ORBITALS    204 PRIMITIVES        4 NUCLEI
  B    1    (CENTRE  1)   0.09410647  0.05519134  0.00000000  CHARGE =  5.0
  H    2    (CENTRE  2)  -0.01098309  2.32926508  0.00000000  CHARGE =  1.0
  H    3    (CENTRE  3)   2.01001286 -1.17379771  0.00000000  CHARGE =  1.0
  F    4    (CENTRE  4)  -2.09313813 -1.21065871  0.00000000  CHARGE =  9.0
CENTRE ASSIGNMENTS    1  1  1  1  1  1  1  1  1  1  1  1  1  1  1  1  1  1  1  1
CENTRE ASSIGNMENTS    1  1  1  1  1  1  1  1  1  1  1  1  1  1  1  1  1  1  1  1
CENTRE ASSIGNMENTS    1  1  1  1  1  1  1  1  1  1  1  1  1  1  1  1  1  1  1  1
CENTRE ASSIGNMENTS    1  1  1  1  1  1  1  1  1  1  1  1  1  1  1  2  2  2  2  2
CENTRE ASSIGNMENTS    2  2  2  2  2  2  2  2  2  2  2  2  2  2  2  2  2  2  2  2
CENTRE ASSIGNMENTS    2  2  3  3  3  3  3  3  3  3  3  3  3  3  3  3  3  3  3  3
CENTRE ASSIGNMENTS    3  3  3  3  3  3  3  3  3  4  4  4  4  4  4  4  4  4  4  4
CENTRE ASSIGNMENTS    4  4  4  4  4  4  4  4  4  4  4  4  4  4  4  4  4  4  4  4
CENTRE ASSIGNMENTS    4  4  4  4  4  4  4  4  4  4  4  4  4  4  4  4  4  4  4  4
CENTRE ASSIGNMENTS    4  4  4  4  4  4  4  4  4  4  4  4  4  4  4  4  4  4  4  4
CENTRE ASSIGNMENTS    4  4  4  4
TYPE ASSIGNMENTS      1  1  1  1  1  1  1  1  1  1  1  1  1  1  1  1  1  1  1  2
TYPE ASSIGNMENTS      2  2  3  3  3  4  4  4  2  3  4  2  3  4  2  3  4  5  6  7
TYPE ASSIGNMENTS      8  9 10  5  6  7  8  9 10  5  6  7  8  9 10 11 12 13 17 14
TYPE ASSIGNMENTS     15 18 19 16 20 11 12 13 17 14 15 18 19 16 20  1  1  1  1  1
TYPE ASSIGNMENTS      1  2  3  4  2  3  4  2  3  4  5  6  7  8  9 10  5  6  7  8
TYPE ASSIGNMENTS      9 10  1  1  1  1  1  1  2  3  4  2  3  4  2  3  4  5  6  7
TYPE ASSIGNMENTS      8  9 10  5  6  7  8  9 10  1  1  1  1  1  1  1  1  1  1  1
TYPE ASSIGNMENTS      1  1  1  1  1  1  1  1  2  2  2  3  3  3  4  4  4  2  3  4
TYPE ASSIGNMENTS      2  3  4  2  3  4  5  6  7  8  9 10  5  6  7  8  9 10  5  6
TYPE ASSIGNMENTS      7  8  9 10 11 12 13 17 14 15 18 19 16 20 11 12 13 17 14 15
TYPE ASSIGNMENTS     18 19 16 20
EXPONENTS  0.5473000D+04 0.8209000D+03 0.1868000D+03 0.5283000D+02 0.1708000D+02
EXPONENTS  0.5999000D+01 0.2208000D+01 0.2415000D+00 0.5473000D+04 0.8209000D+03
EXPONENTS  0.1868000D+03 0.5283000D+02 0.1708000D+02 0.5999000D+01 0.2208000D+01
EXPONENTS  0.2415000D+00 0.5879000D+00 0.8610000D-01 0.2914000D-01 0.1205000D+02
EXPONENTS  0.2613000D+01 0.7475000D+00 0.1205000D+02 0.2613000D+01 0.7475000D+00
EXPONENTS  0.1205000D+02 0.2613000D+01 0.7475000D+00 0.2385000D+00 0.2385000D+00
EXPONENTS  0.2385000D+00 0.7698000D-01 0.7698000D-01 0.7698000D-01 0.2096000D-01
EXPONENTS  0.2096000D-01 0.2096000D-01 0.6610000D+00 0.6610000D+00 0.6610000D+00
EXPONENTS  0.6610000D+00 0.6610000D+00 0.6610000D+00 0.1990000D+00 0.1990000D+00
EXPONENTS  0.1990000D+00 0.1990000D+00 0.1990000D+00 0.1990000D+00 0.6040000D-01
EXPONENTS  0.6040000D-01 0.6040000D-01 0.6040000D-01 0.6040000D-01 0.6040000D-01
EXPONENTS  0.4900000D+00 0.4900000D+00 0.4900000D+00 0.4900000D+00 0.4900000D+00
EXPONENTS  0.4900000D+00 0.4900000D+00 0.4900000D+00 0.4900000D+00 0.4900000D+00
EXPONENTS  0.1630000D+00 0.1630000D+00 0.1630000D+00 0.1630000D+00 0.1630000D+00
EXPONENTS  0.1630000D+00 0.1630000D+00 0.1630000D+00 0.1630000D+00 0.1630000D+00
EXPONENTS  0.3387000D+02 0.5095000D+01 0.1159000D+01 0.3258000D+00 0.1027000D+00
EXPONENTS  0.2526000D-01 0.1407000D+01 0.1407000D+01 0.1407000D+01 0.3880000D+00
EXPONENTS  0.3880000D+00 0.3880000D+00 0.1020000D+00 0.1020000D+00 0.1020000D+00
EXPONENTS  0.1057000D+01 0.1057000D+01 0.1057000D+01 0.1057000D+01 0.1057000D+01
EXPONENTS  0.1057000D+01 0.2470000D+00 0.2470000D+00 0.2470000D+00 0.2470000D+00
EXPONENTS  0.2470000D+00 0.2470000D+00 0.3387000D+02 0.5095000D+01 0.1159000D+01
EXPONENTS  0.3258000D+00 0.1027000D+00 0.2526000D-01 0.1407000D+01 0.1407000D+01
EXPONENTS  0.1407000D+01 0.3880000D+00 0.3880000D+00 0.3880000D+00 0.1020000D+00
EXPONENTS  0.1020000D+00 0.1020000D+00 0.1057000D+01 0.1057000D+01 0.1057000D+01
EXPONENTS  0.1057000D+01 0.1057000D+01 0.1057000D+01 0.2470000D+00 0.2470000D+00
EXPONENTS  0.2470000D+00 0.2470000D+00 0.2470000D+00 0.2470000D+00 0.1950000D+05
EXPONENTS  0.2923000D+04 0.6645000D+03 0.1875000D+03 0.6062000D+02 0.2142000D+02
EXPONENTS  0.7950000D+01 0.8815000D+00 0.1950000D+05 0.2923000D+04 0.6645000D+03
EXPONENTS  0.1875000D+03 0.6062000D+02 0.2142000D+02 0.7950000D+01 0.8815000D+00
EXPONENTS  0.2257000D+01 0.3041000D+00 0.9158000D-01 0.4388000D+02 0.9926000D+01
EXPONENTS  0.2930000D+01 0.4388000D+02 0.9926000D+01 0.2930000D+01 0.4388000D+02
EXPONENTS  0.9926000D+01 0.2930000D+01 0.9132000D+00 0.9132000D+00 0.9132000D+00
EXPONENTS  0.2672000D+00 0.2672000D+00 0.2672000D+00 0.7361000D-01 0.7361000D-01
EXPONENTS  0.7361000D-01 0.3107000D+01 0.3107000D+01 0.3107000D+01 0.3107000D+01
EXPONENTS  0.3107000D+01 0.3107000D+01 0.8550000D+00 0.8550000D+00 0.8550000D+00
EXPONENTS  0.8550000D+00 0.8550000D+00 0.8550000D+00 0.2920000D+00 0.2920000D+00
EXPONENTS  0.2920000D+00 0.2920000D+00 0.2920000D+00 0.2920000D+00 0.1917000D+01
EXPONENTS  0.1917000D+01 0.1917000D+01 0.1917000D+01 0.1917000D+01 0.1917000D+01
EXPONENTS  0.1917000D+01 0.1917000D+01 0.1917000D+01 0.1917000D+01 0.7240000D+00
EXPONENTS  0.7240000D+00 0.7240000D+00 0.7240000D+00 0.7240000D+00 0.7240000D+00
EXPONENTS  0.7240000D+00 0.7240000D+00 0.7240000D+00 0.7240000D+00
MO    1     MO 0.0        OCC NO =    2.0000000  ORB. ENERGY =  -24.526001
  0.28589641D-03  0.53274925D-03  0.89782983D-03  0.13395547D-02  0.16225747D-02
  0.13501031D-02  0.50143529D-03 -0.26620145D-05 -0.21078219D-03 -0.39371704D-03
 -0.67010839D-03 -0.10248568D-02 -0.13328871D-02 -0.13491839D-02 -0.88836918D-03
  0.60724935D-03  0.16047396D-03  0.57454040D-03  0.64957601D-04 -0.23780871D-03
 -0.21432637D-03 -0.15561485D-03 -0.13744468D-03 -0.12387275D-03 -0.89939652D-04
 -0.24291721D-19 -0.21893044D-19 -0.15895770D-19 -0.13593751D-02 -0.78912579D-03
  0.93502116D-19 -0.20064602D-03 -0.11632504D-03  0.79318932D-20  0.24148685D-05
  0.14040559D-05 -0.32053200D-22  0.36022861D-03 -0.17315999D-03 -0.18706862D-03
  0.92713908D-03  0.49154909D-20 -0.14101998D-19  0.11371426D-03 -0.64619742D-04
 -0.49094514D-04  0.31116723D-03  0.62886968D-20 -0.58127990D-19  0.26742314D-05
  0.95305556D-07 -0.27695370D-05  0.45495952D-05 -0.17006367D-21 -0.18505818D-20
 -0.48267020D-04 -0.36786857D-04 -0.19898539D-19 -0.48234428D-04 -0.19546740D-05
  0.44162837D-19  0.19303549D-03  0.11231524D-03  0.15532781D-19 -0.38552154D-19
 -0.47709678D-05  0.38511545D-06 -0.74756462D-21 -0.49659060D-05 -0.12386754D-04
  0.36646946D-20  0.19278809D-04  0.11231407D-04 -0.14220007D-20  0.14067224D-19
 -0.32497470D-05 -0.58610526D-05 -0.86421187D-05  0.46121795D-03  0.12594402D-03
 -0.19283645D-04 -0.60548780D-04 -0.86996758D-04 -0.42190405D-19  0.89901602D-04
 -0.23098477D-03  0.33597895D-19  0.33523303D-04 -0.10994561D-04  0.13466536D-19
 -0.65399930D-04  0.72218740D-04 -0.68188101D-05 -0.42791728D-04  0.50333058D-19
  0.35144140D-19  0.14989267D-05 -0.43746200D-05  0.28756932D-05 -0.59353779D-04
 -0.20804632D-19 -0.11489392D-19 -0.31200155D-05 -0.56270765D-05 -0.82971210D-05
  0.45863402D-03  0.12505408D-03 -0.19166505D-04 -0.10624349D-03 -0.90294029D-05
  0.50156179D-19 -0.15216017D-03  0.19364327D-03 -0.81094051D-19  0.74990007D-05
  0.34652206D-04 -0.18329633D-19  0.17580616D-04 -0.11299804D-04 -0.62808124D-05
 -0.14182335D-03  0.54816375D-19 -0.23087121D-19 -0.29014180D-04  0.25918824D-04
  0.30953556D-05 -0.24928891D-04  0.36069832D-19 -0.26728988D-19  0.59595674D+00
  0.11108892D+01  0.18832303D+01  0.28517657D+01  0.35661430D+01  0.30701169D+01
  0.11802650D+01 -0.51142815D-02 -0.39979547D-03 -0.75074509D-03 -0.12783894D-02
 -0.20025894D-02 -0.26837054D-02 -0.28866870D-02 -0.17331631D-02  0.11398010D-02
  0.60220882D-01 -0.15838309D-02 -0.94130478D-03  0.51492904D-02  0.50358936D-02
  0.33274278D-02  0.29837178D-02  0.29180109D-02  0.19280531D-02 -0.47163547D-17
 -0.46124918D-17 -0.30476684D-17 -0.71509787D-03 -0.41482973D-03  0.23335532D-18
 -0.98563862D-03 -0.56906155D-03 -0.11338380D-18 -0.60263678D-04 -0.34773799D-04
 -0.49084967D-20  0.63171886D-03  0.30140231D-03 -0.93312118D-03  0.56990572D-03
 -0.72710117D-17  0.16701166D-17 -0.35727021D-03  0.21040917D-04  0.33622930D-03
 -0.65793597D-03  0.40095742D-18 -0.10649178D-18 -0.11318477D-03  0.25963666D-04
  0.87221106D-04 -0.24105786D-03 -0.85926492D-19 -0.62674767D-21  0.91183493D-04
 -0.25659312D-04  0.48003611D-18  0.89731988D-04  0.28674250D-03  0.55448737D-19
 -0.36328247D-03 -0.20976456D-03 -0.14955571D-17  0.13241061D-17 -0.75992035D-04
  0.70158179D-04 -0.21421537D-19 -0.76669012D-04 -0.38654721D-03 -0.41365964D-19
  0.30464512D-03  0.17607267D-03  0.10563058D-18 -0.14904758D-18
MO    2     MO 0.0        OCC NO =    2.0000000  ORB. ENERGY =   -6.716269
  0.25447064D+00  0.47418937D+00  0.79914025D+00  0.11923107D+01  0.14442211D+01
  0.12016995D+01  0.44631745D+00 -0.23694055D-02 -0.29191137D-02 -0.54525709D-02
 -0.92803031D-02 -0.14193200D-01 -0.18459098D-01 -0.18684792D-01 -0.12302988D-01
  0.84097710D-02  0.23072742D-01  0.45324602D-02 -0.13244599D-03 -0.18360667D-02
 -0.16547650D-02 -0.12014667D-02 -0.10573015D-02 -0.95289865D-03 -0.69186622D-03
 -0.52267829D-18 -0.47106661D-18 -0.34202491D-18  0.82784626D-03  0.48577961D-03
 -0.33555682D-17 -0.11300536D-03 -0.65095844D-04 -0.41955788D-18  0.29490683D-06
  0.22039055D-06  0.63588380D-22  0.18956342D-02  0.24451544D-02 -0.43407886D-02
 -0.93259558D-03  0.31713284D-17  0.13259443D-16  0.13756112D-03  0.26806426D-03
 -0.40562538D-03 -0.23436455D-03  0.76545355D-18  0.48349063D-19  0.17129751D-05
 -0.21338735D-06 -0.14995877D-05  0.30918183D-05  0.22286363D-19 -0.23457146D-19
  0.79826829D-04  0.11564337D-02  0.89342983D-18  0.78973165D-04 -0.32827726D-02
 -0.25598133D-17 -0.31845365D-03 -0.18652839D-03 -0.12047619D-18 -0.21642892D-17
  0.62167848D-05  0.16198648D-04  0.41292679D-19  0.71108594D-05 -0.33408720D-04
 -0.51066317D-19 -0.25761214D-04 -0.15187224D-04 -0.72811719D-19 -0.13550335D-18
 -0.17170702D-03 -0.30968068D-03 -0.45662398D-03 -0.42050814D-02 -0.15885510D-02
  0.25796637D-04 -0.74201616D-04  0.28569367D-02 -0.37964389D-17 -0.42574319D-03
  0.31428009D-02  0.41758563D-18 -0.34606933D-04  0.34621365D-03  0.50893809D-18
  0.10323556D-02 -0.15391518D-02  0.50679621D-03  0.57340345D-03 -0.29550340D-18
  0.77822103D-17  0.16507494D-03 -0.26113404D-03  0.96059106D-04  0.16698519D-03
  0.88607781D-19 -0.55462706D-18 -0.17219158D-03 -0.31055461D-03 -0.45791259D-03
 -0.41996408D-02 -0.15882801D-02  0.26240816D-04  0.24324674D-02 -0.14922311D-02
 -0.13053699D-17  0.24977074D-02 -0.19421007D-02  0.15355504D-17  0.28138769D-03
 -0.20365721D-03  0.49902475D-19 -0.63856503D-03  0.13617427D-03  0.50239075D-03
  0.25076980D-02 -0.24560257D-17  0.12466842D-17 -0.80088183D-04 -0.14724349D-04
  0.94812532D-04  0.45389531D-03 -0.52779223D-18  0.35035547D-18  0.18069600D-03
  0.33682517D-03  0.57100147D-03  0.86466451D-03  0.10812660D-02  0.93086931D-03
  0.35786015D-03 -0.15506666D-05 -0.24865484D-03 -0.46692975D-03 -0.79510084D-03
 -0.12455208D-02 -0.16691444D-02 -0.17953898D-02 -0.10779497D-02  0.70890506D-03
  0.33712965D-03 -0.24017068D-02 -0.20738062D-02  0.20400896D-02  0.19951631D-02
  0.13182886D-02  0.11790428D-02  0.11530781D-02  0.76188743D-03 -0.36013704D-19
 -0.35220616D-19 -0.23271750D-19 -0.10424802D-02 -0.60136082D-03 -0.71046829D-18
 -0.21267837D-02 -0.12410295D-02  0.32072209D-17 -0.22476701D-03 -0.13070646D-03
  0.16122322D-18  0.89358350D-03 -0.41697095D-03 -0.47661255D-03  0.22924855D-02
 -0.44178802D-17 -0.22225235D-17 -0.66744347D-03  0.27824481D-03  0.38919866D-03
 -0.16549314D-02  0.22840236D-17  0.13601716D-17 -0.42346522D-03  0.11741228D-03
  0.30605293D-03 -0.95032460D-03  0.23278223D-17  0.12508893D-17  0.55251715D-03
 -0.13484960D-02  0.28591388D-17  0.58369687D-03  0.53436839D-02 -0.94156691D-17
 -0.22412483D-02 -0.12981960D-02  0.83825255D-18 -0.11034910D-16 -0.11336777D-03
  0.50387728D-03 -0.16220460D-17 -0.12689988D-03 -0.17829544D-02  0.49055598D-17
  0.46700320D-03  0.27132260D-03 -0.39421716D-19  0.63332458D-17
MO    3     MO 0.0        OCC NO =    2.0000000  ORB. ENERGY =   -1.201779
 -0.42895545D-02 -0.79933039D-02 -0.13470928D-01 -0.20098514D-01 -0.24344911D-01
 -0.20256780D-01 -0.75234732D-02  0.39940538D-04 -0.88475625D-02 -0.16526236D-01
 -0.28127737D-01 -0.43018270D-01 -0.55947812D-01 -0.56631868D-01 -0.37289213D-01
  0.25489235D-01  0.94865137D-02  0.73213146D-02  0.96069864D-03 -0.69572390D-01
 -0.62702490D-01 -0.45526074D-01 -0.40269509D-01 -0.36293111D-01 -0.26351152D-01
 -0.84675390D-17 -0.76314150D-17 -0.55409021D-17 -0.78146280D-02 -0.45059402D-02
 -0.30462752D-17 -0.61474037D-03 -0.35292866D-03  0.42058524D-17  0.28133575D-04
  0.16306709D-04  0.13256072D-18  0.10399125D-01 -0.84177578D-03 -0.95573492D-02
  0.19578399D-01  0.43756406D-17  0.13662755D-16  0.95539720D-03  0.23865848D-03
 -0.11940557D-02  0.12495320D-02 -0.10740913D-17  0.18661590D-17  0.67688434D-05
  0.18784298D-04 -0.25553142D-04 -0.20915872D-04  0.52869662D-19  0.25777196D-18
 -0.41661340D-03  0.20465185D-02  0.12827014D-17 -0.43994722D-03 -0.71133471D-02
 -0.50312681D-18  0.16897874D-02  0.97379167D-03 -0.33449774D-17 -0.13097468D-17
  0.28042235D-05  0.14744065D-03 -0.24642636D-18  0.21188909D-05 -0.43567595D-03
  0.20092857D-18 -0.10531561D-04 -0.66460077D-05  0.53835050D-18  0.18977882D-17
  0.50851629D-03  0.91713007D-03  0.13523078D-02 -0.42592314D-02 -0.17549228D-02
 -0.34163955D-03 -0.16928637D-02 -0.14301741D-03  0.88757581D-17 -0.13604521D-02
  0.22623200D-02 -0.17716206D-17  0.69339694D-04  0.17371366D-03 -0.21896980D-17
  0.19622564D-03  0.38294624D-03 -0.57917188D-03  0.47662206D-02  0.18526964D-17
 -0.90975271D-17  0.26504582D-03 -0.27218188D-03  0.71360611D-05  0.71893372D-05
 -0.25420979D-17  0.59727473D-18  0.51315870D-03  0.92550285D-03  0.13646534D-02
 -0.42290916D-02 -0.17476327D-02 -0.34078504D-03 -0.99445242D-03 -0.13940802D-02
  0.27834628D-17  0.12581865D-02 -0.23152946D-02  0.71471492D-17  0.18333061D-03
 -0.28956743D-04  0.35601392D-18  0.24161687D-02 -0.18352074D-02 -0.58096129D-03
  0.22125110D-02 -0.75969238D-17  0.28739617D-18 -0.13317193D-03  0.12615140D-03
  0.70205221D-05  0.46933600D-03 -0.20015212D-17 -0.50236359D-18 -0.21024300D-02
 -0.39190206D-02 -0.66437033D-02 -0.10060525D-01 -0.12580722D-01 -0.10830829D-01
 -0.41637663D-02  0.18042281D-04 -0.13034005D+00 -0.24475552D+00 -0.41677644D+00
 -0.65287783D+00 -0.87493311D+00 -0.94110852D+00 -0.56504032D+00  0.37159429D+00
  0.21203440D+00  0.88087856D-01 -0.48580407D-02  0.25504603D+00  0.24942945D+00
  0.16480858D+00  0.14765922D+00  0.14440749D+00  0.95416136D-01 -0.18536957D-15
 -0.18128739D-15 -0.11978424D-15  0.70444897D-01  0.40787994D-01 -0.39029827D-16
  0.21662188D-02  0.12493782D-02 -0.73231741D-17 -0.57456457D-03 -0.33318751D-03
  0.66896136D-18  0.76807517D-02 -0.44256477D-02 -0.32551040D-02  0.21087097D-01
 -0.21457103D-16  0.25224826D-16  0.90314250D-02 -0.26174634D-02 -0.64139616D-02
  0.20288569D-01 -0.14306428D-16 -0.26910000D-17 -0.19454685D-03  0.15253681D-03
  0.42010036D-04 -0.60734838D-03  0.23993058D-17  0.13265853D-17  0.85272872D-03
 -0.19984572D-02  0.14376630D-17  0.87067115D-03  0.79852440D-02 -0.49459451D-17
 -0.34288573D-02 -0.19898723D-02  0.63295600D-18 -0.31335207D-16  0.79935267D-03
 -0.10818557D-02 -0.28785304D-17  0.82317020D-03  0.51100684D-02  0.22557519D-17
 -0.32212282D-02 -0.18645014D-02  0.63798393D-17 -0.53889510D-17
MO    4     MO 0.0        OCC NO =    2.0000000  ORB. ENERGY =   -0.527124
 -0.66234306D-02 -0.12342329D-01 -0.20800238D-01 -0.31033785D-01 -0.37590576D-01
 -0.31278160D-01 -0.11616871D-01  0.61671527D-04 -0.29091877D-01 -0.54340302D-01
 -0.92487467D-01 -0.14144938D+00 -0.18396330D+00 -0.18621257D+00 -0.12261153D+00
  0.83811747D-01  0.32896067D-01 -0.65708550D-02 -0.21188047D-02 -0.76808639D-01
 -0.69224198D-01 -0.50261257D-01 -0.44556130D-01 -0.40156451D-01 -0.29156188D-01
  0.14178082D-15  0.12778072D-15  0.92777091D-16  0.45334994D-02  0.26094253D-02
  0.94190996D-16  0.24413403D-02  0.14163969D-02 -0.44896469D-16 -0.45811811D-04
 -0.26803735D-04  0.46470852D-18  0.87190874D-02  0.55610469D-02 -0.14280134D-01
  0.55640663D-02 -0.35285027D-17  0.34352492D-16 -0.32840760D-03  0.14643216D-02
 -0.11359140D-02 -0.31100035D-02  0.37541681D-17 -0.78436135D-17 -0.69625131D-04
  0.17518201D-04  0.52106930D-04 -0.15230693D-03 -0.33372640D-17 -0.12977735D-17
  0.24876118D-04  0.29074969D-02  0.54077259D-17  0.10182242D-04 -0.86739012D-02
 -0.32359133D-17 -0.84810597D-04 -0.48589503D-04 -0.12987264D-16 -0.14248634D-16
  0.32718081D-04  0.39023467D-03  0.65415104D-18  0.30599674D-04 -0.10962220D-02
 -0.37462650D-18 -0.12875392D-03 -0.74481985D-04 -0.15878266D-17  0.87804799D-18
  0.13782015D-01  0.24856432D-01  0.36650794D-01  0.69836649D-02  0.49229137D-02
  0.72517259D-03 -0.20863785D-02 -0.82763320D-02 -0.21631857D-16 -0.18386785D-02
  0.56183075D-02  0.23946822D-16 -0.71855180D-04 -0.10924775D-02  0.83589069D-17
  0.58916958D-03 -0.99139695D-03  0.40222737D-03  0.49655427D-02  0.79064785D-18
  0.15476162D-16  0.72736133D-03 -0.80803209D-03  0.80670763D-04  0.14076108D-03
  0.85141919D-18 -0.13070181D-16  0.13801911D-01  0.24892314D-01  0.36703703D-01
  0.70168610D-02  0.49348066D-02  0.72098253D-03 -0.82350540D-02  0.23352615D-02
 -0.24078779D-17  0.39228056D-02 -0.44178802D-02  0.41123512D-17 -0.98491401D-03
  0.48089159D-03  0.93281076D-17  0.15738654D-02 -0.19762097D-02  0.40234428D-03
  0.38541508D-02 -0.51666329D-17 -0.52631055D-17 -0.36186715D-03  0.28053150D-03
  0.81335645D-04  0.13955543D-02 -0.49874232D-17  0.50853715D-17 -0.16621376D-02
 -0.30982965D-02 -0.52523743D-02 -0.79536427D-02 -0.99460581D-02 -0.85626295D-02
 -0.32917874D-02  0.14263854D-04  0.35749694D-01  0.67131594D-01  0.11431353D+00
  0.17907146D+00  0.23997683D+00  0.25812743D+00  0.15497937D+00 -0.10192096D+00
 -0.66460407D-01 -0.43504828D-01  0.11452456D-01  0.16982701D+01  0.16608711D+01
  0.10974078D+01  0.98243052D+00  0.96079559D+00  0.63483827D+00  0.81305928D-15
  0.79515422D-15  0.52539201D-15  0.38500209D+00  0.22271697D+00  0.15086692D-15
  0.58367610D-01  0.33765069D-01  0.49094223D-16  0.14843624D-02  0.85828814D-03
 -0.14756445D-16  0.30371571D-01 -0.40588181D-02 -0.26312753D-01  0.59862384D-01
  0.19406114D-16 -0.30082914D-17  0.13578234D-01 -0.26458521D-02 -0.10932381D-01
  0.28220411D-01  0.14334635D-16  0.12180073D-16  0.18884104D-02 -0.70891603D-04
 -0.18175188D-02  0.34134098D-02  0.42324840D-17  0.13250021D-17  0.24631602D-02
 -0.47888779D-02 -0.39571743D-17  0.25252809D-02  0.20101790D-01 -0.21859465D-16
 -0.99147614D-02 -0.57351558D-02  0.33730988D-16  0.45894151D-16  0.11228485D-02
 -0.16732069D-02 -0.63722741D-18  0.11562356D-02  0.76405929D-02  0.41226182D-17
 -0.45247812D-02 -0.26209722D-02 -0.22109360D-17  0.18116853D-17
MO    5     MO 0.0        OCC NO =    2.0000000  ORB. ENERGY =   -0.434466
 -0.39814123D-05 -0.74191011D-05 -0.12503237D-04 -0.18654727D-04 -0.22596082D-04
 -0.18801624D-04 -0.69830209D-05  0.37071390D-07  0.15674135D-05  0.29277493D-05
  0.49830440D-05  0.76210160D-05  0.99115834D-05  0.10032769D-04  0.66060698D-05
 -0.45156132D-05 -0.53500396D-05  0.26386858D-04 -0.11407409D-04 -0.98276153D-01
 -0.88571910D-01 -0.64308950D-01  0.16969100D+00  0.15293492D+00  0.11104067D+00
  0.70047310D-16  0.63130514D-16  0.45836847D-16 -0.17817089D-01  0.30763723D-01
  0.71413863D-16 -0.34502150D-03  0.58467335D-03 -0.15637630D-16  0.10158132D-03
 -0.17641367D-03  0.22056783D-17  0.63809145D-02 -0.63826741D-02  0.17596124D-05
 -0.72614939D-02 -0.17780062D-16 -0.19443774D-15 -0.31804365D-02  0.31815060D-02
 -0.10695287D-05  0.36778736D-02  0.12652843D-16 -0.77275584D-17  0.20714451D-03
 -0.20747821D-03  0.33370133D-06 -0.23869475D-03 -0.47024705D-17 -0.72217847D-17
 -0.11770687D-02  0.12292150D-03  0.33249852D-17  0.32534522D-02  0.10865594D-03
 -0.20202556D-16  0.27775392D-03 -0.47742044D-03  0.10227600D-16  0.76996761D-16
  0.55469350D-03 -0.62221857D-04 -0.23322606D-17 -0.15248716D-02 -0.56754859D-04
  0.91368482D-17 -0.13920885D-03  0.24342043D-03 -0.21400663D-17  0.15536160D-16
  0.17284003D-01  0.31172412D-01  0.45963703D-01  0.21265236D-01  0.78709936D-02
  0.16470402D-02 -0.52689048D-02 -0.12354729D-01 -0.37499750D-16 -0.32143620D-02
  0.34230690D-03 -0.11487792D-16  0.11895147D-02 -0.25365550D-03  0.28121617D-16
  0.18634360D-04 -0.66979347D-03  0.65115911D-03  0.72515443D-02 -0.14549368D-16
  0.26528833D-16  0.44754151D-03  0.49116308D-04 -0.49665782D-03  0.75307024D-03
  0.73709951D-17 -0.13394454D-16 -0.17326294D-01 -0.31248684D-01 -0.46076166D-01
 -0.21288105D-01 -0.78848188D-02 -0.16400907D-02  0.13346386D-01 -0.16376439D-02
  0.38903203D-17  0.13066781D-02  0.29648341D-02  0.11807001D-16 -0.36802941D-03
 -0.11625037D-02 -0.45290473D-17 -0.26197236D-02  0.32858819D-02 -0.66615825D-03
 -0.42293802D-02 -0.31482201D-16  0.26666850D-16 -0.47207248D-03 -0.25227659D-04
  0.49730014D-03 -0.72253758D-03 -0.65905913D-17  0.48340260D-17  0.18200854D-05
  0.33927179D-05  0.57514910D-05  0.87094524D-05  0.10891201D-04  0.93763094D-05
  0.36045957D-05 -0.15619303D-07  0.63916791D-05  0.12002441D-04  0.20438088D-04
  0.32016144D-04  0.42905399D-04  0.46150542D-04  0.27708725D-04 -0.18222423D-04
 -0.14809023D-04 -0.39239817D-04 -0.56775663D-05 -0.10654082D+01 -0.10419460D+01
 -0.68845776D+00  0.18433375D+01  0.18027438D+01  0.11911491D+01  0.12966760D-13
  0.12681208D-13  0.83790101D-14 -0.23970368D+00  0.41473003D+00  0.29211897D-14
 -0.43236976D-01  0.74791980D-01  0.50331858D-15 -0.33342667D-03  0.57470367D-03
  0.11890681D-16 -0.33470571D-01  0.33483940D-01 -0.13369019D-04  0.38459365D-01
  0.85594813D-16  0.15764872D-15 -0.15037557D-01  0.15042233D-01 -0.46759309D-05
  0.17307202D-01  0.16196191D-15  0.94293630D-16 -0.34191572D-02  0.34223890D-02
 -0.32318361D-05  0.39299663D-02  0.34226626D-16  0.17216232D-16 -0.10800731D-01
  0.13817583D-02  0.34149895D-17  0.29271371D-01  0.12635717D-02  0.63411719D-16
  0.31308236D-02 -0.54088465D-02 -0.73656688D-16  0.19139164D-15 -0.28556538D-02
  0.13071631D-03 -0.11971227D-16  0.82949591D-02  0.92237642D-04  0.38844942D-16
  0.27200216D-03 -0.48438657D-03 -0.29312612D-17  0.47534049D-16
MO    6     MO 0.0        OCC NO =    2.0000000  ORB. ENERGY =   -0.421043
 -0.25940651D-16 -0.48338705D-16 -0.81464087D-16 -0.12154375D-15 -0.14722341D-15
 -0.12250084D-15 -0.45497450D-16  0.24153640D-18 -0.15565291D-15 -0.29074186D-15
 -0.49484411D-15 -0.75680946D-15 -0.98427559D-15 -0.99631002D-15 -0.65601963D-15
  0.44842561D-15  0.46500999D-16 -0.19351137D-14 -0.22010707D-16  0.19755906D-14
  0.17805117D-14  0.12927669D-14 -0.97026978D-17 -0.87446084D-17 -0.63491528D-17
  0.11396859D+00  0.10271481D+00  0.74577610D-01  0.77951834D-15  0.30226240D-15
  0.20031655D-01  0.13758368D-15  0.25772582D-15  0.51387416D-03 -0.49622793D-16
  0.89804850D-16  0.15487974D-04  0.56632492D-16  0.20485645D-15 -0.26148895D-15
 -0.50024333D-15 -0.24296620D-01 -0.14059761D-01 -0.19609472D-15  0.13622852D-15
  0.59866195D-16 -0.61213476D-16  0.83323182D-03  0.48223509D-03 -0.63875815D-16
  0.62474795D-16  0.14010203D-17  0.50340381D-16  0.98648381D-05  0.54646609D-05
 -0.54619752D-16 -0.18360991D-16 -0.90058780D-03  0.23482370D-15 -0.74653674D-16
  0.27127333D-02 -0.70964448D-16  0.12973665D-15 -0.10969947D-04  0.47380324D-02
  0.55201783D-18  0.55704901D-17  0.14517733D-03  0.17114762D-17 -0.15636878D-16
 -0.41461806D-03 -0.33675297D-17 -0.10745921D-17 -0.20913913D-04 -0.68668191D-03
  0.12316676D-15  0.22213633D-15  0.32753988D-15  0.84478881D-16 -0.10695324D-14
 -0.87032095D-15  0.12335642D-15 -0.11203670D-15  0.49778839D-02 -0.31912718D-17
  0.19241864D-15  0.22666621D-02 -0.43934677D-15  0.14353137D-15 -0.25196623D-04
  0.23824350D-16 -0.21562908D-15  0.19180473D-15 -0.16530561D-15 -0.10818033D-02
 -0.88053851D-02  0.61743978D-16 -0.81688666D-16  0.19944688D-16  0.43729215D-15
  0.16997111D-04  0.18041095D-03  0.36885223D-15  0.66524018D-15  0.98089626D-15
  0.15883052D-15  0.21745960D-14  0.88161699D-15  0.22464548D-16  0.58806382D-16
  0.49886986D-02  0.13049628D-15  0.22156819D-16  0.22680259D-02 -0.18124832D-15
  0.62299503D-15 -0.27401100D-04 -0.37872871D-15  0.15473173D-15  0.22399698D-15
  0.32201968D-15 -0.81606487D-02  0.34732614D-02 -0.12579899D-15  0.24132427D-15
 -0.11552527D-15 -0.28384073D-15  0.16382656D-03 -0.77487187D-04  0.12334283D-16
  0.22991638D-16  0.38976479D-16  0.59021876D-16  0.73807063D-16  0.63541007D-16
  0.24427483D-16 -0.10584828D-18 -0.15850960D-16 -0.29765295D-16 -0.50685164D-16
 -0.79398010D-16 -0.10640267D-15 -0.11445042D-15 -0.68715883D-16  0.45190456D-16
  0.37982260D-16  0.28295116D-15  0.14954643D-14 -0.35855328D-14 -0.35065728D-14
 -0.23169409D-14 -0.13681236D-13 -0.13379950D-13 -0.88406989D-14  0.24610419D+01
  0.24068452D+01  0.15903044D+01 -0.11147914D-14 -0.36822716D-14  0.55855377D+00
  0.28064145D-15 -0.63281260D-16  0.93918886D-01  0.63927951D-17  0.22815409D-15
  0.17333040D-02  0.49653970D-15  0.10306696D-14 -0.15272093D-14  0.21851646D-14
  0.61839038D-01  0.35811848D-01  0.88548116D-17 -0.15753188D-15  0.14867707D-15
 -0.73324752D-15  0.30575895D-01  0.17697810D-01  0.58731797D-16 -0.37837377D-16
 -0.20894420D-16  0.16288305D-15  0.68882197D-02  0.39880469D-02  0.24234383D-15
  0.35028764D-16 -0.47745191D-02 -0.17761907D-14 -0.59021418D-15  0.14449689D-01
  0.10491592D-14  0.48512788D-15 -0.12613129D-03  0.25368082D-01  0.18479073D-16
 -0.12332501D-15 -0.25535528D-02 -0.12658761D-15  0.59857777D-16  0.79152418D-02
  0.71150387D-16  0.31011726D-15 -0.25458326D-03  0.14230568D-01
MO    7     MO 0.0        OCC NO =    2.0000000  ORB. ENERGY =   -0.416409
 -0.18481552D-02 -0.34439161D-02 -0.58039512D-02 -0.86594475D-02 -0.10489008D-01
 -0.87276363D-02 -0.32414895D-02  0.17208386D-04 -0.22264525D-01 -0.41587589D-01
 -0.70782286D-01 -0.10825370D+00 -0.14079035D+00 -0.14251175D+00 -0.93836763D-01
  0.64142605D-01  0.22828878D-01  0.55074778D-02 -0.62323693D-03  0.20668347D+00
  0.18627459D+00  0.13524743D+00  0.11978755D+00  0.10795917D+00  0.78385360D-01
 -0.50670563D-15 -0.45667116D-15 -0.33157288D-15  0.33741080D-01  0.19560321D-01
 -0.26229594D-15 -0.30986089D-02 -0.17986541D-02  0.33213900D-16  0.33150083D-04
  0.19637151D-04 -0.32707839D-17 -0.81127252D-02  0.94101690D-02 -0.12974438D-02
 -0.30364511D-01  0.19683302D-15  0.12284857D-15 -0.58245789D-03  0.14558128D-02
 -0.87335488D-03 -0.35311435D-02 -0.99978603D-17 -0.37282482D-16  0.25940137D-04
  0.33811095D-04 -0.59751232D-04 -0.11099135D-04  0.31978604D-17 -0.13955805D-17
  0.39885281D-03 -0.60755081D-03  0.79465614D-17  0.41546005D-03  0.27520773D-02
 -0.17292809D-16 -0.16120185D-02 -0.92942490D-03 -0.65468748D-17 -0.37053916D-16
  0.12790606D-04  0.24349075D-03 -0.15183086D-17  0.13670217D-04 -0.70028795D-03
  0.72179021D-17 -0.52042034D-04 -0.30184301D-04 -0.26629763D-17  0.17325566D-17
  0.30250146D-01  0.54557384D-01  0.80444831D-01  0.44662097D-01  0.20454894D-01
  0.51137332D-03  0.88775063D-02 -0.18042173D-01 -0.65780882D-16  0.39141813D-02
 -0.93205679D-03  0.88484437D-17  0.13717473D-02 -0.31220907D-02  0.19990692D-16
  0.70072626D-03 -0.20454738D-02  0.13447475D-02 -0.13040347D-01  0.15265647D-16
  0.73731120D-16 -0.69988989D-05  0.13612600D-03 -0.12912710D-03 -0.55909836D-04
  0.55026734D-17 -0.16819841D-16  0.30159591D-01  0.54394065D-01  0.80204017D-01
  0.44499093D-01  0.20398266D-01  0.51665474D-03 -0.11097518D-01  0.16689461D-01
 -0.28229277D-16  0.11502971D-02  0.38597916D-02 -0.45666068D-16 -0.20095491D-02
  0.27520420D-02 -0.18405128D-16 -0.70128515D-02  0.56695610D-02  0.13432905D-02
 -0.41294695D-02  0.49780568D-16 -0.21176897D-16  0.77948767D-04  0.54014191D-04
 -0.13196296D-03 -0.15115898D-03  0.11043159D-16 -0.29240538D-17 -0.18610453D-02
 -0.34690691D-02 -0.58809250D-02 -0.89054537D-02 -0.11136301D-01 -0.95873179D-02
 -0.36857150D-02  0.15970807D-04 -0.15396528D-02 -0.28911953D-02 -0.49232070D-02
 -0.77121747D-02 -0.10335221D-01 -0.11116924D-01 -0.66745866D-02  0.43894890D-02
  0.54574159D-02  0.10549460D-01 -0.10542522D-01 -0.10948183D+01 -0.10707084D+01
 -0.70746231D+00 -0.63343481D+00 -0.61948540D+00 -0.40932020D+00 -0.20161319D-13
 -0.19717329D-13 -0.13028073D-13 -0.25028394D+00 -0.14480882D+00 -0.45496170D-14
 -0.36608450D-01 -0.21182956D-01 -0.80390720D-15 -0.16240443D-02 -0.93581385D-03
 -0.36101932D-17 -0.15505594D-01  0.34862699D-02  0.12019325D-01 -0.33068543D-01
 -0.51772426D-15 -0.30261435D-15 -0.60648720D-02  0.16962443D-02  0.43686277D-02
 -0.13486073D-01 -0.22002244D-15 -0.12307393D-15 -0.10995438D-02  0.14865685D-03
  0.95088692D-03 -0.21700352D-02 -0.63426400D-16 -0.40983858D-16  0.39102340D-04
  0.42991507D-02  0.47683061D-16 -0.65532480D-05 -0.12837585D-01 -0.11700361D-15
 -0.11075377D-03 -0.59867582D-04 -0.26045575D-16 -0.22317073D-15 -0.82961016D-03
  0.26859035D-03  0.13975694D-16 -0.83080265D-03 -0.27239919D-02 -0.48475282D-16
  0.33196332D-02  0.19182208D-02  0.65481985D-17 -0.92640091D-16
MO    8     MO 0.0        OCC NO =    2.0000000  ORB. ENERGY =   -0.299602
 -0.62787019D-06 -0.11699950D-05 -0.19717651D-05 -0.29418574D-05 -0.35634105D-05
 -0.29650231D-05 -0.11012250D-05  0.58461719D-08  0.15032220D-04  0.28078469D-04
  0.47789696D-04  0.73089067D-04  0.95056668D-04  0.96218896D-04  0.63355264D-04
 -0.43306818D-04 -0.15158080D-04  0.13956926D-04  0.33307847D-05 -0.11709884D+00
 -0.10553596D+00 -0.76625951D-01  0.20222339D+00  0.18225492D+00  0.13232889D+00
  0.10371803D-16  0.93476434D-17  0.67869953D-17 -0.38837472D-01  0.67203725D-01
 -0.52221506D-16 -0.91678389D-03  0.16001541D-02 -0.31452595D-16  0.41548329D-04
 -0.72143620D-04  0.89895639D-17 -0.22171970D-01  0.22175716D-01 -0.37464995D-05
  0.25632533D-01  0.66669524D-16 -0.28703115D-15 -0.42095775D-02  0.42089899D-02
  0.58757669D-06  0.48551413D-02  0.30483866D-16  0.11711895D-16 -0.64983188D-04