 Molden2AIM, Version 4.0.0 (06/02/2016)           Time: Thu Jun 28 17:33:16 2018
GAUSSIAN             15 MOL ORBITALS    300 PRIMITIVES        4 NUCLEI
  B    1    (CENTRE  1)  -5.55600457  5.33205312 -0.75182754  CHARGE =  5.0
  N    2    (CENTRE  2)  -6.01111298  7.45803848  0.21245813  CHARGE =  7.0
  F    3    (CENTRE  3)  -7.11241702  8.61074118  2.15533658  CHARGE =  9.0
  F    4    (CENTRE  4)  -4.83799368  3.42771186 -2.13728592  CHARGE =  9.0
CENTRE ASSIGNMENTS    1  1  1  1  1  1  1  1  1  1  1  1  1  1  1  1  1  1  1  1
CENTRE ASSIGNMENTS    1  1  1  1  1  1  1  1  1  1  1  1  1  1  1  1  1  1  1  1
CENTRE ASSIGNMENTS    1  1  1  1  1  1  1  1  1  1  1  1  1  1  1  1  1  1  1  1
CENTRE ASSIGNMENTS    1  1  1  1  1  1  1  1  1  1  1  1  1  1  1  2  2  2  2  2
CENTRE ASSIGNMENTS    2  2  2  2  2  2  2  2  2  2  2  2  2  2  2  2  2  2  2  2
CENTRE ASSIGNMENTS    2  2  2  2  2  2  2  2  2  2  2  2  2  2  2  2  2  2  2  2
CENTRE ASSIGNMENTS    2  2  2  2  2  2  2  2  2  2  2  2  2  2  2  2  2  2  2  2
CENTRE ASSIGNMENTS    2  2  2  2  2  2  2  2  2  2  3  3  3  3  3  3  3  3  3  3
CENTRE ASSIGNMENTS    3  3  3  3  3  3  3  3  3  3  3  3  3  3  3  3  3  3  3  3
CENTRE ASSIGNMENTS    3  3  3  3  3  3  3  3  3  3  3  3  3  3  3  3  3  3  3  3
CENTRE ASSIGNMENTS    3  3  3  3  3  3  3  3  3  3  3  3  3  3  3  3  3  3  3  3
CENTRE ASSIGNMENTS    3  3  3  3  3  4  4  4  4  4  4  4  4  4  4  4  4  4  4  4
CENTRE ASSIGNMENTS    4  4  4  4  4  4  4  4  4  4  4  4  4  4  4  4  4  4  4  4
CENTRE ASSIGNMENTS    4  4  4  4  4  4  4  4  4  4  4  4  4  4  4  4  4  4  4  4
CENTRE ASSIGNMENTS    4  4  4  4  4  4  4  4  4  4  4  4  4  4  4  4  4  4  4  4
TYPE ASSIGNMENTS      1  1  1  1  1  1  1  1  1  1  1  1  1  1  1  1  1  1  1  2
TYPE ASSIGNMENTS      2  2  3  3  3  4  4  4  2  3  4  2  3  4  2  3  4  5  6  7
TYPE ASSIGNMENTS      8  9 10  5  6  7  8  9 10  5  6  7  8  9 10 11 12 13 17 14
TYPE ASSIGNMENTS     15 18 19 16 20 11 12 13 17 14 15 18 19 16 20  1  1  1  1  1
TYPE ASSIGNMENTS      1  1  1  1  1  1  1  1  1  1  1  1  1  1  2  2  2  3  3  3
TYPE ASSIGNMENTS      4  4  4  2  3  4  2  3  4  2  3  4  5  6  7  8  9 10  5  6
TYPE ASSIGNMENTS      7  8  9 10  5  6  7  8  9 10 11 12 13 17 14 15 18 19 16 20
TYPE ASSIGNMENTS     11 12 13 17 14 15 18 19 16 20  1  1  1  1  1  1  1  1  1  1
TYPE ASSIGNMENTS      1  1  1  1  1  1  1  1  1  2  2  2  3  3  3  4  4  4  2  3
TYPE ASSIGNMENTS      4  2  3  4  2  3  4  5  6  7  8  9 10  5  6  7  8  9 10  5
TYPE ASSIGNMENTS      6  7  8  9 10 11 12 13 17 14 15 18 19 16 20 11 12 13 17 14
TYPE ASSIGNMENTS     15 18 19 16 20  1  1  1  1  1  1  1  1  1  1  1  1  1  1  1
TYPE ASSIGNMENTS      1  1  1  1  2  2  2  3  3  3  4  4  4  2  3  4  2  3  4  2
TYPE ASSIGNMENTS      3  4  5  6  7  8  9 10  5  6  7  8  9 10  5  6  7  8  9 10
TYPE ASSIGNMENTS     11 12 13 17 14 15 18 19 16 20 11 12 13 17 14 15 18 19 16 20
EXPONENTS  0.5473000D+04 0.8209000D+03 0.1868000D+03 0.5283000D+02 0.1708000D+02
EXPONENTS  0.5999000D+01 0.2208000D+01 0.2415000D+00 0.5473000D+04 0.8209000D+03
EXPONENTS  0.1868000D+03 0.5283000D+02 0.1708000D+02 0.5999000D+01 0.2208000D+01
EXPONENTS  0.2415000D+00 0.5879000D+00 0.8610000D-01 0.2914000D-01 0.1205000D+02
EXPONENTS  0.2613000D+01 0.7475000D+00 0.1205000D+02 0.2613000D+01 0.7475000D+00
EXPONENTS  0.1205000D+02 0.2613000D+01 0.7475000D+00 0.2385000D+00 0.2385000D+00
EXPONENTS  0.2385000D+00 0.7698000D-01 0.7698000D-01 0.7698000D-01 0.2096000D-01
EXPONENTS  0.2096000D-01 0.2096000D-01 0.6610000D+00 0.6610000D+00 0.6610000D+00
EXPONENTS  0.6610000D+00 0.6610000D+00 0.6610000D+00 0.1990000D+00 0.1990000D+00
EXPONENTS  0.1990000D+00 0.1990000D+00 0.1990000D+00 0.1990000D+00 0.6040000D-01
EXPONENTS  0.6040000D-01 0.6040000D-01 0.6040000D-01 0.6040000D-01 0.6040000D-01
EXPONENTS  0.4900000D+00 0.4900000D+00 0.4900000D+00 0.4900000D+00 0.4900000D+00
EXPONENTS  0.4900000D+00 0.4900000D+00 0.4900000D+00 0.4900000D+00 0.4900000D+00
EXPONENTS  0.1630000D+00 0.1630000D+00 0.1630000D+00 0.1630000D+00 0.1630000D+00
EXPONENTS  0.1630000D+00 0.1630000D+00 0.1630000D+00 0.1630000D+00 0.1630000D+00
EXPONENTS  0.1142000D+05 0.1712000D+04 0.3893000D+03 0.1100000D+03 0.3557000D+02
EXPONENTS  0.1254000D+02 0.4644000D+01 0.5118000D+00 0.1142000D+05 0.1712000D+04
EXPONENTS  0.3893000D+03 0.1100000D+03 0.3557000D+02 0.1254000D+02 0.4644000D+01
EXPONENTS  0.5118000D+00 0.1293000D+01 0.1787000D+00 0.5760000D-01 0.2663000D+02
EXPONENTS  0.5948000D+01 0.1742000D+01 0.2663000D+02 0.5948000D+01 0.1742000D+01
EXPONENTS  0.2663000D+02 0.5948000D+01 0.1742000D+01 0.5550000D+00 0.5550000D+00
EXPONENTS  0.5550000D+00 0.1725000D+00 0.1725000D+00 0.1725000D+00 0.4910000D-01
EXPONENTS  0.4910000D-01 0.4910000D-01 0.1654000D+01 0.1654000D+01 0.1654000D+01
EXPONENTS  0.1654000D+01 0.1654000D+01 0.1654000D+01 0.4690000D+00 0.4690000D+00
EXPONENTS  0.4690000D+00 0.4690000D+00 0.4690000D+00 0.4690000D+00 0.1510000D+00
EXPONENTS  0.1510000D+00 0.1510000D+00 0.1510000D+00 0.1510000D+00 0.1510000D+00
EXPONENTS  0.1093000D+01 0.1093000D+01 0.1093000D+01 0.1093000D+01 0.1093000D+01
EXPONENTS  0.1093000D+01 0.1093000D+01 0.1093000D+01 0.1093000D+01 0.1093000D+01
EXPONENTS  0.3640000D+00 0.3640000D+00 0.3640000D+00 0.3640000D+00 0.3640000D+00
EXPONENTS  0.3640000D+00 0.3640000D+00 0.3640000D+00 0.3640000D+00 0.3640000D+00
EXPONENTS  0.1950000D+05 0.2923000D+04 0.6645000D+03 0.1875000D+03 0.6062000D+02
EXPONENTS  0.2142000D+02 0.7950000D+01 0.8815000D+00 0.1950000D+05 0.2923000D+04
EXPONENTS  0.6645000D+03 0.1875000D+03 0.6062000D+02 0.2142000D+02 0.7950000D+01
EXPONENTS  0.8815000D+00 0.2257000D+01 0.3041000D+00 0.9158000D-01 0.4388000D+02
EXPONENTS  0.9926000D+01 0.2930000D+01 0.4388000D+02 0.9926000D+01 0.2930000D+01
EXPONENTS  0.4388000D+02 0.9926000D+01 0.2930000D+01 0.9132000D+00 0.9132000D+00
EXPONENTS  0.9132000D+00 0.2672000D+00 0.2672000D+00 0.2672000D+00 0.7361000D-01
EXPONENTS  0.7361000D-01 0.7361000D-01 0.3107000D+01 0.3107000D+01 0.3107000D+01
EXPONENTS  0.3107000D+01 0.3107000D+01 0.3107000D+01 0.8550000D+00 0.8550000D+00
EXPONENTS  0.8550000D+00 0.8550000D+00 0.8550000D+00 0.8550000D+00 0.2920000D+00
EXPONENTS  0.2920000D+00 0.2920000D+00 0.2920000D+00 0.2920000D+00 0.2920000D+00
EXPONENTS  0.1917000D+01 0.1917000D+01 0.1917000D+01 0.1917000D+01 0.1917000D+01
EXPONENTS  0.1917000D+01 0.1917000D+01 0.1917000D+01 0.1917000D+01 0.1917000D+01
EXPONENTS  0.7240000D+00 0.7240000D+00 0.7240000D+00 0.7240000D+00 0.7240000D+00
EXPONENTS  0.7240000D+00 0.7240000D+00 0.7240000D+00 0.7240000D+00 0.7240000D+00
EXPONENTS  0.1950000D+05 0.2923000D+04 0.6645000D+03 0.1875000D+03 0.6062000D+02
EXPONENTS  0.2142000D+02 0.7950000D+01 0.8815000D+00 0.1950000D+05 0.2923000D+04
EXPONENTS  0.6645000D+03 0.1875000D+03 0.6062000D+02 0.2142000D+02 0.7950000D+01
EXPONENTS  0.8815000D+00 0.2257000D+01 0.3041000D+00 0.9158000D-01 0.4388000D+02
EXPONENTS  0.9926000D+01 0.2930000D+01 0.4388000D+02 0.9926000D+01 0.2930000D+01
EXPONENTS  0.4388000D+02 0.9926000D+01 0.2930000D+01 0.9132000D+00 0.9132000D+00
EXPONENTS  0.9132000D+00 0.2672000D+00 0.2672000D+00 0.2672000D+00 0.7361000D-01
EXPONENTS  0.7361000D-01 0.7361000D-01 0.3107000D+01 0.3107000D+01 0.3107000D+01
EXPONENTS  0.3107000D+01 0.3107000D+01 0.3107000D+01 0.8550000D+00 0.8550000D+00
EXPONENTS  0.8550000D+00 0.8550000D+00 0.8550000D+00 0.8550000D+00 0.2920000D+00
EXPONENTS  0.2920000D+00 0.2920000D+00 0.2920000D+00 0.2920000D+00 0.2920000D+00
EXPONENTS  0.1917000D+01 0.1917000D+01 0.1917000D+01 0.1917000D+01 0.1917000D+01
EXPONENTS  0.1917000D+01 0.1917000D+01 0.1917000D+01 0.1917000D+01 0.1917000D+01
EXPONENTS  0.7240000D+00 0.7240000D+00 0.7240000D+00 0.7240000D+00 0.7240000D+00
EXPONENTS  0.7240000D+00 0.7240000D+00 0.7240000D+00 0.7240000D+00 0.7240000D+00
MO    1     MO 0.0        OCC NO =    2.0000000  ORB. ENERGY =  -24.576899
  0.41682189D-03  0.77672029D-03  0.13089885D-02  0.19530001D-02  0.23656283D-02
  0.19683790D-02  0.73106620D-03 -0.38810767D-05 -0.31517844D-03 -0.58871732D-03
 -0.10019998D-02 -0.15324482D-02 -0.19930398D-02 -0.20174081D-02 -0.13283609D-02
  0.90800797D-03  0.32991352D-03  0.83439681D-03 -0.11868095D-04  0.66089414D-04
  0.59563439D-04  0.43246919D-04 -0.32949544D-04 -0.29695953D-04 -0.21561188D-04
 -0.11432839D-03 -0.10303908D-03 -0.74813053D-04  0.58305202D-03 -0.19784909D-02
 -0.11657027D-02  0.92519131D-04 -0.31444422D-03 -0.18510297D-03 -0.10893015D-05
  0.24378467D-05  0.20587747D-05 -0.33093732D-03  0.34945155D-03 -0.18514235D-04
 -0.65571158D-03 -0.43321908D-03  0.12496512D-02 -0.89750937D-04  0.63181160D-04
  0.26569777D-04 -0.21251504D-03 -0.16974644D-03  0.39385346D-03 -0.52131815D-05
  0.55621391D-05 -0.34895757D-06 -0.94973907D-05 -0.69190891D-05  0.18303551D-04
 -0.58482832D-04 -0.35367759D-04  0.67501263D-04  0.13638008D-03  0.15702024D-03
  0.80501689D-04  0.39068411D-04 -0.50916966D-04 -0.28300548D-03  0.29058317D-03
 -0.77184243D-05 -0.17031489D-05  0.87505221D-05  0.18727059D-04  0.15990695D-04
  0.10488114D-04  0.44282139D-05 -0.10881248D-04 -0.36739680D-04  0.37169067D-04
  0.33561717D-04  0.62537319D-04  0.10576628D-03  0.15927816D-03  0.19719670D-03
  0.16780549D-03  0.63853085D-04 -0.29905124D-06 -0.26501101D-04 -0.49689812D-04
 -0.84537155D-04 -0.13127728D-03 -0.17421258D-03 -0.18359615D-03 -0.11384132D-03
  0.75727292D-04  0.14899933D-03  0.73313200D-03  0.34680473D-03  0.14440934D-04
  0.13870345D-04  0.97268432D-05 -0.15056172D-03 -0.14461273D-03 -0.10141243D-03
 -0.38292786D-04 -0.36779763D-04 -0.25792509D-04 -0.39224597D-04  0.24194861D-04
  0.67491863D-04  0.15887514D-03 -0.32613661D-03 -0.29630921D-03  0.14119177D-04
 -0.43974278D-04 -0.27810001D-04  0.72077452D-04 -0.11274685D-03  0.40669394D-04
  0.10969145D-03  0.32101722D-04 -0.22071428D-03  0.33290862D-04 -0.78387479D-04
  0.45096617D-04  0.84958810D-05 -0.25185463D-04 -0.33647473D-04 -0.24713386D-04
  0.37834334D-04 -0.13120949D-04 -0.41751775D-04 -0.11586169D-04  0.82341600D-04
  0.49018720D-04  0.11027975D-03 -0.69570746D-04 -0.12064173D-03 -0.23158539D-03
 -0.75387622D-04 -0.26414430D-04 -0.99253864D-04  0.28409986D-03 -0.15702422D-03
 -0.25634834D-05  0.33054225D-04 -0.14279770D-04 -0.25450248D-04 -0.39334352D-04
 -0.13573552D-04  0.33140698D-04 -0.59828324D-04  0.56412863D-04  0.49232045D-04
  0.47886131D-04  0.89261824D-04  0.15132074D-03  0.22914419D-03  0.28654561D-03
  0.24668908D-03  0.94836290D-04 -0.41094117D-06 -0.23929204D-04 -0.44934807D-04
 -0.76516227D-04 -0.11986222D-03 -0.16062947D-03 -0.17277865D-03 -0.10373608D-03
  0.68221209D-04 -0.80024049D-05  0.77893483D-04 -0.18383413D-04 -0.22692510D-04
 -0.22192779D-04 -0.14663707D-04 -0.48696211D-04 -0.47623831D-04 -0.31467079D-04
  0.32676389D-04  0.31956795D-04  0.21115205D-04  0.39063207D-04  0.16271545D-04
 -0.63085759D-04 -0.35367265D-04 -0.68419146D-04  0.51758960D-04 -0.19159516D-05
  0.37187220D-05  0.35152882D-05  0.21370277D-04 -0.72338337D-04  0.50968060D-04
  0.29800919D-05 -0.57585974D-04 -0.21007869D-04 -0.13791898D-04  0.34301609D-04
 -0.20509711D-04 -0.52184802D-05  0.14448302D-04  0.17675924D-04  0.20386344D-04
 -0.82698762D-05 -0.12116467D-04  0.98445188D-05  0.58589213D-04 -0.25429496D-04
 -0.10505099D-03 -0.45179323D-04  0.49926836D-04  0.89951465D-04  0.11718498D-03
  0.37711057D-04  0.22520149D-03  0.18352989D-04 -0.18749156D-03  0.77943806D-04
  0.39727282D-04  0.14405891D-04 -0.12027033D-04 -0.17797476D-04 -0.40504753D-04
 -0.68596623D-05 -0.10138437D-03 -0.27129218D-05  0.42940760D-04 -0.36399498D-04
  0.59607302D+00  0.11111059D+01  0.18835977D+01  0.28523221D+01  0.35668388D+01
  0.30707159D+01  0.11804953D+01 -0.51152794D-02 -0.47910324D-03 -0.89967104D-03
 -0.15319846D-02 -0.23998448D-02 -0.32160744D-02 -0.34593217D-02 -0.20769722D-02
  0.13659043D-02  0.60241981D-01 -0.27156152D-02 -0.15909742D-02 -0.21271992D-02
 -0.20803544D-02 -0.13745781D-02  0.56728538D-02  0.55479271D-02  0.36657500D-02
  0.41092118D-02  0.40187194D-02  0.26553378D-02  0.40335335D-03 -0.10292138D-02
 -0.77465299D-03  0.50247593D-03 -0.13201203D-02 -0.96868604D-03  0.33052266D-04
 -0.79996423D-04 -0.63107096D-04 -0.36199938D-03  0.33945905D-03  0.22540335D-04
 -0.79888558D-03 -0.53735949D-03  0.14994045D-02  0.30805969D-03 -0.29845760D-03
 -0.96020872D-05  0.58421666D-03  0.45845602D-03 -0.11183603D-02  0.96453064D-04
 -0.98362080D-04  0.19090161D-05  0.17864249D-03  0.13500512D-03 -0.34367496D-03
  0.63263142D-04 -0.48184320D-04 -0.34261586D-04 -0.80453976D-04 -0.39271635D-04
 -0.46529067D-04 -0.10933545D-03  0.18382459D-03  0.14931383D-03 -0.34064641D-03
 -0.10731210D-03  0.21690500D-04  0.96305381D-04  0.21258496D-03  0.15851914D-03
  0.11998985D-03  0.10935133D-03 -0.22359064D-03 -0.40890599D-03  0.55468327D-03
MO    2     MO 0.0        OCC NO =    2.0000000  ORB. ENERGY =  -24.562180
 -0.16721201D-04 -0.31158863D-04 -0.52511303D-04 -0.78346432D-04 -0.94899399D-04
 -0.78963371D-04 -0.29327406D-04  0.15569303D-06  0.10449611D-04  0.19518679D-04
  0.33220890D-04  0.50807686D-04  0.66078410D-04  0.66886330D-04  0.44041256D-04
 -0.30104629D-04 -0.24628610D-03 -0.24517654D-03 -0.22767613D-04  0.13581739D-04
  0.12240615D-04  0.88874801D-05 -0.19830905D-03 -0.17872710D-03 -0.12976746D-03
 -0.42070022D-04 -0.37915833D-04 -0.27529354D-04 -0.22031787D-03  0.21108321D-03
  0.38703867D-03 -0.24837799D-04 -0.27468519D-05  0.41143194D-04  0.61136399D-06
 -0.20115633D-05 -0.12144614D-05 -0.56990127D-04 -0.11093863D-04  0.68083991D-04
 -0.21390949D-03 -0.18931302D-03  0.37447468D-03  0.12985185D-04 -0.51648829D-04
  0.38663644D-04 -0.72538739D-04 -0.34236471D-04  0.10953253D-03 -0.21577867D-05
  0.15505601D-06  0.20027307D-05 -0.73274426D-05 -0.62630972D-05  0.12934323D-04
  0.38747113D-04  0.15389115D-04 -0.67047646D-04 -0.14911689D-03 -0.93083991D-04
 -0.77968910D-04  0.32875552D-04  0.46916646D-04  0.27911185D-03 -0.17777395D-03
  0.16133660D-05  0.61208012D-06 -0.47540092D-05 -0.11330253D-04 -0.21577278D-05
 -0.50346091D-05  0.64901555D-05  0.32148744D-06  0.19296637D-04  0.55854450D-06
  0.11002384D-03  0.20501323D-03  0.34672877D-03  0.52215432D-03  0.64646092D-03
  0.55010907D-03  0.20932665D-03 -0.98036600D-06 -0.66915727D-04 -0.12546761D-03
 -0.21345774D-03 -0.33147734D-03 -0.43988970D-03 -0.46358337D-03 -0.28745126D-03
  0.19121269D-03 -0.49271967D-03  0.11489813D-02  0.45058626D-03  0.47956495D-03
  0.46061640D-03  0.32301602D-03 -0.55405282D-03 -0.53216111D-03 -0.37318810D-03
 -0.85097228D-03 -0.81734870D-03 -0.57318133D-03 -0.81988134D-03  0.12196204D-02
  0.14815721D-02 -0.12583145D-03  0.21912374D-03  0.23038764D-03  0.12423422D-05
 -0.12526697D-04 -0.32679858D-05 -0.41863100D-04 -0.23982882D-03  0.28169192D-03
 -0.22717204D-03 -0.56390710D-03  0.37061248D-03 -0.11866110D-03 -0.25592556D-03
  0.37458666D-03 -0.48506792D-03 -0.82725255D-03  0.82535455D-03 -0.16487690D-04
 -0.34505370D-04  0.50993060D-04 -0.60852100D-04 -0.11427583D-03  0.10398979D-03
  0.30359878D-03 -0.22728418D-03 -0.35090719D-04 -0.73341430D-04 -0.15059799D-03
 -0.68619112D-04 -0.83745492D-03  0.83245052D-03  0.17389127D-03 -0.16201754D-02
 -0.17576147D-04  0.16967025D-04  0.25256584D-04  0.61488978D-04  0.22709205D-04
  0.33590632D-04 -0.87605356D-05 -0.73610279D-04 -0.10936038D-03  0.14640172D-03
  0.59581801D+00  0.11106306D+01  0.18827919D+01  0.28511018D+01  0.35653128D+01
  0.30694022D+01  0.11799903D+01 -0.51130910D-02 -0.34895344D-03 -0.65527276D-03
 -0.11158165D-02 -0.17479199D-02 -0.23424184D-02 -0.25195868D-02 -0.15127566D-02
  0.99485238D-03  0.60753530D-01 -0.12897014D-02 -0.75441945D-03  0.37877849D-02
  0.37043709D-02  0.24476345D-02 -0.41661505D-02 -0.40744042D-02 -0.26921312D-02
 -0.67010302D-02 -0.65534612D-02 -0.43301489D-02 -0.59866154D-03  0.70382310D-03
  0.10635912D-02 -0.49462617D-03  0.62359779D-03  0.88292444D-03 -0.31074624D-04
  0.49835264D-04  0.56511147D-04 -0.14463545D-03  0.39691629D-04  0.10494382D-03
 -0.25295791D-03 -0.41268751D-03  0.47855649D-03  0.24839211D-03  0.14452806D-03
 -0.39292017D-03  0.67348110D-03  0.10621747D-02 -0.11980992D-02  0.61544392D-04
  0.27172826D-04 -0.88717218D-04  0.18133863D-03  0.24379092D-03 -0.32136347D-03
 -0.57913043D-04  0.69240716D-04  0.25767439D-04  0.68382295D-04  0.20172039D-04
  0.41125750D-04  0.10535683D-03 -0.22789419D-03 -0.11842807D-03  0.40719598D-03
  0.19529128D-03 -0.20126838D-03 -0.14960366D-04 -0.47611156D-04 -0.19219722D-04
 -0.37910457D-04 -0.53826270D-03  0.62302488D-03  0.82791555D-04 -0.10677896D-02
  0.15604786D-04  0.29087997D-04  0.49311306D-04  0.74671850D-04  0.93377411D-04
  0.80389253D-04  0.30904564D-04 -0.13391453D-06 -0.19645982D-04 -0.36891676D-04
 -0.62820161D-04 -0.98407411D-04 -0.13187751D-03 -0.14185204D-03 -0.85167779D-04
  0.56009915D-04 -0.47160427D-05  0.22508293D-03  0.40674877D-04  0.24802250D-04
  0.24256059D-04  0.16027003D-04 -0.66908409D-04 -0.65434963D-04 -0.43235647D-04
 -0.48257454D-04 -0.47194736D-04 -0.31183558D-04 -0.47035947D-04  0.14668621D-03
  0.93230157D-04 -0.77718248D-04 -0.12735417D-04  0.12864718D-03 -0.12232152D-04
  0.14135936D-04  0.21582903D-04 -0.60755816D-04  0.13598852D-03 -0.75232705D-04
 -0.45023646D-04  0.38886954D-04  0.11052323D-03  0.15869717D-04 -0.56181798D-04
  0.40312081D-04 -0.78120528D-05 -0.44512026D-04  0.20563844D-05  0.36377137D-05
 -0.20394573D-04  0.16756859D-04 -0.21737713D-04 -0.20177889D-04  0.32577697D-04
  0.22975045D-04  0.72630630D-05 -0.85020586D-05 -0.14594076D-04 -0.16676709D-04
 -0.45718885D-05 -0.54331058D-04 -0.51124800D-05  0.30078064D-04 -0.10602053D-05
 -0.78535194D-05 -0.25828454D-04  0.12032516D-04  0.19303334D-04  0.39571490D-04
  0.10736208D-04  0.42572236D-05  0.37913872D-04 -0.46833754D-04 -0.11779536D-04
MO    3     MO 0.0        OCC NO =    2.0000000  ORB. ENERGY =  -14.243816
 -0.30928175D-03 -0.57632629D-03 -0.97126920D-03 -0.14491257D-02 -0.17552957D-02
 -0.14605368D-02 -0.54245096D-03  0.28797581D-05  0.23122026D-03  0.43189302D-03
  0.73508410D-03  0.11242300D-02  0.14621278D-02  0.14800048D-02  0.97450811D-03
 -0.66613007D-03  0.12429425D-02 -0.21077239D-03 -0.11690621D-03 -0.40945143D-03
 -0.36902030D-03 -0.26793267D-03  0.17165362D-02  0.15470375D-02  0.11232496D-02
  0.84901974D-03  0.76518359D-03  0.55557291D-03  0.14438172D-02 -0.67468610D-02
 -0.30617883D-02  0.23675052D-03 -0.96669480D-03 -0.48890325D-03 -0.16781039D-05
  0.63343256D-06  0.28731848D-05  0.71732645D-03 -0.10500766D-02  0.33275012D-03
  0.68823354D-03  0.54453998D-03 -0.15187547D-02  0.12162882D-03 -0.25454233D-03
  0.13291352D-03  0.12361667D-04 -0.30495088D-04 -0.92008691D-04  0.55458893D-05
 -0.14732744D-04  0.91868547D-05 -0.11083692D-05 -0.68311309D-05 -0.16070485D-05
 -0.42184646D-03 -0.64968486D-03  0.67737310D-03  0.13215807D-02  0.16815632D-02
  0.77036913D-03 -0.56041354D-04  0.26749134D-03 -0.28024884D-02  0.17775088D-02
 -0.19953486D-04 -0.35325766D-04  0.32854457D-04  0.63210806D-04  0.83748560D-04
  0.36662331D-04 -0.33503466D-05  0.22228738D-04 -0.13522570D-03  0.73536769D-04
  0.41316974D+00  0.76988098D+00  0.13020617D+01  0.19608328D+01  0.24276383D+01
  0.20658106D+01  0.78607904D+00 -0.36815435D-02 -0.17754632D-02 -0.33290100D-02
 -0.56636365D-02 -0.87950296D-02 -0.11671516D-01 -0.12300175D-01 -0.76268935D-02
  0.50734125D-02  0.40316331D-01  0.40708326D-02  0.89544426D-03 -0.40988210D-02
 -0.39368686D-02 -0.27608040D-02  0.94275053D-03  0.90550062D-03  0.63499954D-03
  0.69090926D-02  0.66361009D-02  0.46536920D-02  0.17194718D-02 -0.50299312D-02
 -0.33493129D-02  0.49691164D-03 -0.54868819D-03 -0.87885822D-03  0.24626317D-04
 -0.25956958D-04 -0.43581297D-04 -0.18787731D-02  0.24674884D-02 -0.58871528D-03
 -0.22517933D-02 -0.18751441D-02  0.46909244D-02 -0.31638975D-06  0.39990581D-03
 -0.39958942D-03  0.18972775D-03  0.71531989D-03 -0.27928659D-03  0.36303931D-04
 -0.24363725D-04 -0.11940206D-04  0.31273465D-04  0.82663592D-04 -0.68617950D-04
 -0.32155425D-03 -0.31675884D-03  0.40593348D-03  0.79861942D-03  0.10065820D-02
  0.46840593D-03  0.16604332D-03 -0.56305517D-04 -0.16862064D-02  0.14276427D-02
  0.45018894D-05  0.17782524D-03 -0.14289886D-03 -0.29117594D-03 -0.28292585D-03
 -0.15560913D-03  0.27767027D-03 -0.25054988D-03  0.58430570D-03  0.71349452D-04
  0.97695317D-04  0.18210830D-03  0.30871835D-03  0.46749056D-03  0.58459859D-03
  0.50328493D-03  0.19348110D-03 -0.83838528D-06 -0.68688818D-04 -0.12898544D-03
 -0.21963995D-03 -0.34406468D-03 -0.46108715D-03 -0.49596140D-03 -0.29777458D-03
  0.19582909D-03 -0.25474145D-03  0.12724398D-02  0.30890906D-03 -0.35698178D-03
 -0.34912039D-03 -0.23067860D-03  0.53105444D-03  0.51935964D-03  0.34316288D-03
  0.64557415D-03  0.63135742D-03  0.41716454D-03  0.63592027D-03 -0.87011441D-03
 -0.11422733D-02  0.10837267D-03 -0.57347268D-03 -0.23605701D-03  0.89045131D-05
 -0.30776128D-04 -0.17848232D-04 -0.25864183D-03 -0.53767680D-04  0.31240951D-03
 -0.36246519D-03 -0.99275800D-03  0.69975726D-03 -0.10154933D-03 -0.91626510D-04
  0.19317584D-03 -0.45844548D-03 -0.45786113D-03  0.78769406D-03 -0.20919881D-04
  0.10138272D-03 -0.80462841D-04 -0.10664868D-03  0.13602429D-03  0.19254890D-03
 -0.46016289D-03  0.13137841D-03 -0.87436470D-04 -0.26151028D-03  0.79529481D-04
 -0.15123794D-03  0.16419990D-02 -0.47366470D-03  0.41354736D-03  0.83351079D-03
  0.18612092D-03 -0.43847493D-04  0.12133637D-04  0.53429968D-04 -0.66731285D-04
  0.31587648D-04 -0.61179272D-03  0.19827377D-03 -0.67988559D-04 -0.39317995D-03
 -0.14825526D-04 -0.27635423D-04 -0.46848837D-04 -0.70942946D-04 -0.88714403D-04
 -0.76374837D-04 -0.29361276D-04  0.12722721D-06  0.10120792D-04  0.19005054D-04
  0.32362330D-04  0.50695398D-04  0.67937797D-04  0.73076261D-04  0.43874891D-04
 -0.28853974D-04  0.98970951D-04 -0.46021780D-02 -0.24345190D-02 -0.56929311D-03
 -0.55675622D-03 -0.36787238D-03  0.78331816D-03  0.76606806D-03  0.50617355D-03
  0.10297091D-02  0.10070330D-02  0.66538930D-03  0.80791829D-03 -0.15702891D-02
 -0.15045773D-02  0.98547598D-03 -0.12742781D-02 -0.17781430D-02  0.51446201D-04
 -0.14766083D-03 -0.10044068D-03  0.33562491D-03 -0.11630036D-02  0.82737864D-03
 -0.77630939D-04 -0.90997592D-03 -0.98893470D-04  0.16523317D-04  0.50716963D-03
 -0.52369295D-03  0.51072839D-03  0.89810293D-03 -0.81461914D-03  0.55454990D-04
  0.89255423D-04 -0.14471041D-03  0.20184854D-03  0.32758192D-03 -0.35125017D-03
 -0.17931912D-04 -0.19469881D-03  0.31298264D-03  0.68826546D-03  0.41717446D-03
  0.35300923D-03 -0.63446972D-03  0.16692198D-03 -0.12919571D-02  0.18825811D-03
 -0.38049812D-04  0.23430009D-03 -0.16290944D-03 -0.33004208D-03 -0.29928247D-03
 -0.16747105D-03  0.44419152D-03 -0.40361779D-03  0.65619938D-03  0.30243529D-03
MO    4     MO 0.0        OCC NO =    2.0000000  ORB. ENERGY =   -6.734276
  0.25464399D+00  0.47451241D+00  0.79968465D+00  0.11931229D+01  0.14452049D+01
  0.12025182D+01  0.44662150D+00 -0.23710196D-02 -0.33224347D-02 -0.62059285D-02
 -0.10562522D-01 -0.16154211D-01 -0.21009510D-01 -0.21266387D-01 -0.14002837D-01
  0.95717118D-02  0.29004837D-01  0.17701319D-02 -0.62085037D-04  0.16107817D-02
  0.14517257D-02  0.10540470D-02 -0.16050777D-02 -0.14465849D-02 -0.10503144D-02
 -0.28394065D-02 -0.25590304D-02 -0.18580220D-02  0.24466017D-03  0.21957721D-02
 -0.20695090D-03  0.17794241D-03 -0.38312518D-03 -0.33493652D-03 -0.18510826D-05
  0.30870271D-05  0.33836752D-05 -0.24039170D-02  0.32012536D-02 -0.79733660D-03
 -0.35872875D-02 -0.21531272D-02  0.71815319D-02  0.28652156D-03 -0.32662591D-03
  0.40104352D-04  0.54788854D-03  0.33684603D-03 -0.10504636D-02  0.25154594D-04
 -0.37602717D-04  0.12448123D-04  0.31692833D-04  0.16248441D-04 -0.65683849D-04
 -0.13679838D-04  0.35636744D-03 -0.10816707D-03 -0.15032088D-03 -0.47705235D-03
 -0.10140306D-03  0.19136040D-03 -0.59204995D-03  0.42590428D-03  0.29196641D-03
  0.16454445D-04 -0.98561099D-05 -0.16471703D-04 -0.39249228D-04 -0.15241482D-04
 -0.20470007D-04 -0.10114108D-04  0.44809811D-04  0.69885115D-04 -0.86587911D-04
 -0.33573692D-03 -0.62559631D-03 -0.10580402D-02 -0.15933499D-02 -0.19726705D-02
 -0.16786536D-02 -0.63875866D-03  0.29915793D-05  0.29716164D-04  0.55718085D-04
  0.94793041D-04  0.14720358D-03  0.19534772D-03  0.20586968D-03  0.12765233D-03
 -0.84914382D-04  0.67762132D-03 -0.33344304D-02 -0.68043607D-03  0.31413563D-03
  0.30172352D-03  0.21158936D-03 -0.16123093D-02 -0.15486038D-02 -0.10859879D-02
 -0.67935140D-03 -0.65250890D-03 -0.45758428D-03 -0.37953794D-03  0.22510057D-02
  0.85250500D-03 -0.96156379D-03  0.26330955D-02  0.18604556D-02 -0.29058391D-04
  0.11887322D-03  0.59930463D-04 -0.42923918D-03  0.54962937D-03 -0.12039019D-03
 -0.86595338D-03 -0.38089716D-03  0.16517092D-02  0.97097494D-03 -0.13809433D-02
  0.40996837D-03  0.14602094D-02  0.70555052D-03 -0.29249348D-02  0.24702554D-03
 -0.34809939D-03  0.10107386D-03  0.40866690D-03  0.17641520D-03 -0.80564986D-03
 -0.36979684D-03  0.12015871D-03  0.32046265D-03  0.71967009D-03  0.49067574D-03
  0.40095220D-03  0.38972044D-03 -0.85115186D-03 -0.13623401D-02  0.19889969D-02
  0.14882908D-03  0.67263737D-04 -0.16033731D-03 -0.33069693D-03 -0.33208746D-03
 -0.18515069D-03 -0.11579032D-03  0.13029625D-03  0.66616261D-03 -0.62959237D-03
 -0.40017846D-04 -0.74594998D-04 -0.12645686D-03 -0.19149296D-03 -0.23946261D-03
 -0.20615500D-03 -0.79253510D-04  0.34341843D-06  0.30497644D-04  0.57269175D-04
  0.97519528D-04  0.15276376D-03  0.20472141D-03  0.22020548D-03  0.13221108D-03
 -0.86947571D-04 -0.92779816D-04 -0.10804094D-03  0.65995780D-03  0.13805505D-04
  0.13501482D-04  0.89210003D-05  0.52482048D-03  0.51326297D-03  0.33913454D-03
  0.28878774D-04  0.28242810D-04  0.18661219D-04 -0.61142964D-04 -0.61269564D-03
  0.41040982D-04  0.23958277D-03  0.38190834D-03 -0.35933456D-03  0.46210448D-04
 -0.29014905D-04 -0.79461613D-04 -0.33607517D-03  0.75281934D-03 -0.41674417D-03
  0.76573783D-04  0.15653247D-03  0.81135083D-04  0.14414354D-03 -0.40527412D-03
  0.26113058D-03 -0.16462309D-03 -0.19606967D-03  0.17425783D-03 -0.66642521D-04
 -0.19856310D-04  0.86498832D-04 -0.59360891D-04 -0.27476493D-03  0.12464049D-03
  0.12079501D-03  0.43780478D-04 -0.48650169D-05  0.39584095D-04 -0.21319418D-03
 -0.32442761D-05 -0.40196914D-03  0.81852744D-04  0.17839327D-04 -0.46684740D-03
 -0.75551063D-04  0.60704855D-04 -0.81707578D-04 -0.20255078D-03 -0.17451259D-04
 -0.93049817D-04  0.42920397D-03 -0.16466331D-03  0.33817255D-03  0.30107087D-03
  0.63618544D-03  0.11858772D-02  0.20103534D-02  0.30442676D-02  0.38068673D-02
  0.32773581D-02  0.12599361D-02 -0.54595094D-05 -0.61224076D-03 -0.11496797D-02
 -0.19577063D-02 -0.30667353D-02 -0.41097861D-02 -0.44206291D-02 -0.26541399D-02
  0.17454741D-02  0.52360929D-03 -0.18251881D-03 -0.20498190D-02 -0.71457132D-03
 -0.69883514D-03 -0.46174993D-03  0.21132235D-02  0.20666865D-02  0.13655471D-02
  0.14011846D-02  0.13703279D-02  0.90543361D-03 -0.14309907D-03  0.16346470D-03
  0.25403082D-03  0.84261339D-03 -0.29850463D-02 -0.16931683D-02  0.94834425D-04
 -0.37081372D-03 -0.19369388D-03 -0.15607106D-02  0.18105899D-02 -0.24987928D-03
 -0.28835009D-02 -0.17814876D-02  0.55627858D-02  0.79293241D-03 -0.98506866D-03
  0.19213625D-03  0.14016626D-02  0.79676862D-03 -0.27264350D-02  0.56333659D-03
 -0.73901963D-03  0.17568304D-03  0.86198558D-03  0.52282237D-03 -0.17171497D-02
  0.14282354D-02  0.20386092D-03 -0.16893027D-02 -0.36661725D-02 -0.28555779D-02
 -0.20265676D-02 -0.61853353D-03  0.22439952D-02  0.70944758D-02 -0.70719402D-02
 -0.60664638D-03 -0.11225664D-03  0.74068675D-03  0.16053721D-02  0.12516587D-02
  0.88510575D-03  0.21456699D-03 -0.91488875D-03 -0.31071660D-02  0.29858719D-02
MO    5     MO 0.0        OCC NO =    2.0000000  ORB. ENERGY =   -1.255348
 -0.47336559D-02 -0.88208579D-02 -0.14865585D-01 -0.22179331D-01 -0.26865361D-01
 -0.22353982D-01 -0.83023852D-02  0.44075617D-04 -0.94283933D-02 -0.17611161D-01
 -0.29974285D-01 -0.45842362D-01 -0.59620711D-01 -0.60349675D-01 -0.39737201D-01
  0.27162569D-01  0.10909197D-01  0.61444312D-02 -0.17705742D-03  0.25739940D-01
  0.23198259D-01  0.16843440D-01 -0.69440015D-01 -0.62583186D-01 -0.45439452D-01
 -0.49768050D-01 -0.44853722D-01 -0.32566711D-01  0.14299310D-02 -0.73561061D-03
 -0.24780599D-02  0.65269501D-03 -0.15717840D-02 -0.12440926D-02 -0.69988164D-05
  0.16600019D-04  0.13314766D-04 -0.73340078D-02  0.79205404D-02 -0.58653269D-03
 -0.13191742D-01 -0.95629318D-02  0.25485814D-01 -0.42660174D-03  0.72876866D-03
 -0.30216692D-03 -0.47140656D-03 -0.11460971D-03  0.10144436D-02  0.16799425D-04
 -0.23405057D-04  0.66056325D-05  0.22759219D-04  0.13985962D-04 -0.46134184D-04
 -0.61959587D-03  0.38935581D-03  0.45578339D-03  0.10659909D-02  0.55800556D-03
  0.59668046D-03  0.79279672D-03 -0.17260730D-02 -0.19640306D-02  0.34266673D-02
 -0.49853628D-04 -0.39315000D-05  0.53801636D-04  0.11566189D-03  0.98778886D-04
  0.65970480D-04  0.33898996D-04 -0.86984386D-04 -0.22737539D-03  0.26573024D-03
 -0.32109266D-03 -0.59830889D-03 -0.10118903D-02 -0.15238508D-02 -0.18866261D-02
 -0.16054337D-02 -0.61089713D-03  0.28610919D-05  0.44381847D-03  0.83216377D-03
  0.14157582D-02  0.21985230D-02  0.29175678D-02  0.30747160D-02  0.19065201D-02
 -0.12682179D-02  0.15836318D-03 -0.71785243D-02  0.12450770D-03  0.38365225D-03
  0.36849340D-03  0.25841301D-03  0.31809015D-02  0.30552178D-02  0.21425296D-02
 -0.34574425D-03 -0.33208322D-03 -0.23287967D-03 -0.13355064D-02  0.49652137D-02
  0.27118862D-02 -0.11686997D-02  0.29365081D-02  0.22370483D-02 -0.32960600D-04
  0.20160000D-04  0.56969522D-04  0.15711685D-02 -0.23477645D-02  0.77659597D-03
  0.14441679D-02  0.11226275D-02 -0.32167910D-02  0.72125130D-03 -0.13842681D-02
  0.66301683D-03  0.10007489D-02 -0.13714620D-03 -0.20701975D-02  0.25351487D-03
 -0.42940639D-03  0.17589152D-03  0.41162020D-03  0.48429744D-04 -0.81931395D-03
  0.20327061D-03  0.68983272D-03 -0.39627812D-03 -0.68260643D-03 -0.13169827D-02
 -0.42680130D-03  0.72794608D-04 -0.75251544D-03  0.16156356D-02 -0.58421246D-03
 -0.17525879D-03 -0.42512664D-04  0.25384271D-03  0.55702839D-03  0.41968980D-03
  0.30837874D-03 -0.31252028D-04 -0.29215181D-03 -0.10699069D-02  0.98799098D-03