 Molden2AIM, Version 4.0.0 (06/02/2016)           Time: Thu Jun 28 20:33:21 2018
GAUSSIAN             47 MOL ORBITALS    751 PRIMITIVES        5 NUCLEI
  Br   1    (CENTRE  1)  -9.97508942 -3.35231178  0.67267069  CHARGE = 35.0
  O    2    (CENTRE  2)  -6.56375015 -3.08510451  0.01725887  CHARGE =  8.0
  Br   3    (CENTRE  3)  -5.42450041  0.23079414 -0.33996929  CHARGE = 35.0
  O    4    (CENTRE  4)  -3.72171356  4.49279174 -0.84197125  CHARGE =  8.0
  O    5    (CENTRE  5)  -1.51468163  4.73004307 -1.26265641  CHARGE =  8.0
CENTRE ASSIGNMENTS    1  1  1  1  1  1  1  1  1  1  1  1  1  1  1  1  1  1  1  1
CENTRE ASSIGNMENTS    1  1  1  1  1  1  1  1  1  1  1  1  1  1  1  1  1  1  1  1
CENTRE ASSIGNMENTS    1  1  1  1  1  1  1  1  1  1  1  1  1  1  1  1  1  1  1  1
CENTRE ASSIGNMENTS    1  1  1  1  1  1  1  1  1  1  1  1  1  1  1  1  1  1  1  1
CENTRE ASSIGNMENTS    1  1  1  1  1  1  1  1  1  1  1  1  1  1  1  1  1  1  1  1
CENTRE ASSIGNMENTS    1  1  1  1  1  1  1  1  1  1  1  1  1  1  1  1  1  1  1  1
CENTRE ASSIGNMENTS    1  1  1  1  1  1  1  1  1  1  1  1  1  1  1  1  1  1  1  1
CENTRE ASSIGNMENTS    1  1  1  1  1  1  1  1  1  1  1  1  1  1  1  1  1  1  1  1
CENTRE ASSIGNMENTS    1  1  1  1  1  1  1  1  1  1  1  1  1  1  1  1  1  1  1  1
CENTRE ASSIGNMENTS    1  1  1  1  1  1  1  1  1  1  1  1  1  1  1  1  1  1  1  1
CENTRE ASSIGNMENTS    1  1  1  1  1  1  1  1  1  1  1  1  1  1  1  1  1  1  1  1
CENTRE ASSIGNMENTS    1  1  1  1  1  1  1  1  1  1  1  1  1  1  1  1  1  1  1  1
CENTRE ASSIGNMENTS    1  1  1  1  1  1  1  1  1  1  1  1  1  1  1  1  1  1  1  1
CENTRE ASSIGNMENTS    1  1  1  2  2  2  2  2  2  2  2  2  2  2  2  2  2  2  2  2
CENTRE ASSIGNMENTS    2  2  2  2  2  2  2  2  2  2  2  2  2  2  2  2  2  2  2  2
CENTRE ASSIGNMENTS    2  2  2  2  2  2  2  2  2  2  2  2  2  2  2  2  2  2  2  2
CENTRE ASSIGNMENTS    2  2  2  2  2  2  2  2  2  2  2  2  2  2  2  2  2  2  3  3
CENTRE ASSIGNMENTS    3  3  3  3  3  3  3  3  3  3  3  3  3  3  3  3  3  3  3  3
CENTRE ASSIGNMENTS    3  3  3  3  3  3  3  3  3  3  3  3  3  3  3  3  3  3  3  3
CENTRE ASSIGNMENTS    3  3  3  3  3  3  3  3  3  3  3  3  3  3  3  3  3  3  3  3
CENTRE ASSIGNMENTS    3  3  3  3  3  3  3  3  3  3  3  3  3  3  3  3  3  3  3  3
CENTRE ASSIGNMENTS    3  3  3  3  3  3  3  3  3  3  3  3  3  3  3  3  3  3  3  3
CENTRE ASSIGNMENTS    3  3  3  3  3  3  3  3  3  3  3  3  3  3  3  3  3  3  3  3
CENTRE ASSIGNMENTS    3  3  3  3  3  3  3  3  3  3  3  3  3  3  3  3  3  3  3  3
CENTRE ASSIGNMENTS    3  3  3  3  3  3  3  3  3  3  3  3  3  3  3  3  3  3  3  3
CENTRE ASSIGNMENTS    3  3  3  3  3  3  3  3  3  3  3  3  3  3  3  3  3  3  3  3
CENTRE ASSIGNMENTS    3  3  3  3  3  3  3  3  3  3  3  3  3  3  3  3  3  3  3  3
CENTRE ASSIGNMENTS    3  3  3  3  3  3  3  3  3  3  3  3  3  3  3  3  3  3  3  3
CENTRE ASSIGNMENTS    3  3  3  3  3  3  3  3  3  3  3  3  3  3  3  3  3  3  3  3
CENTRE ASSIGNMENTS    3  3  3  3  3  3  3  3  3  3  3  3  3  3  3  3  3  3  3  3
CENTRE ASSIGNMENTS    3  4  4  4  4  4  4  4  4  4  4  4  4  4  4  4  4  4  4  4
CENTRE ASSIGNMENTS    4  4  4  4  4  4  4  4  4  4  4  4  4  4  4  4  4  4  4  4
CENTRE ASSIGNMENTS    4  4  4  4  4  4  4  4  4  4  4  4  4  4  4  4  4  4  4  4
CENTRE ASSIGNMENTS    4  4  4  4  4  4  4  4  4  4  4  4  4  4  4  4  5  5  5  5
CENTRE ASSIGNMENTS    5  5  5  5  5  5  5  5  5  5  5  5  5  5  5  5  5  5  5  5
CENTRE ASSIGNMENTS    5  5  5  5  5  5  5  5  5  5  5  5  5  5  5  5  5  5  5  5
CENTRE ASSIGNMENTS    5  5  5  5  5  5  5  5  5  5  5  5  5  5  5  5  5  5  5  5
CENTRE ASSIGNMENTS    5  5  5  5  5  5  5  5  5  5  5
TYPE ASSIGNMENTS      1  1  1  1  1  1  1  1  1  1  1  1  1  1  1  1  1  1  1  1
TYPE ASSIGNMENTS      1  1  1  1  1  1  1  1  1  1  1  1  1  1  1  1  1  1  1  1
TYPE ASSIGNMENTS      1  1  1  1  1  1  1  1  1  1  1  1  1  1  1  1  1  1  1  1
TYPE ASSIGNMENTS      1  1  1  1  1  1  1  1  1  1  1  1  1  1  1  2  2  2  2  2
TYPE ASSIGNMENTS      2  2  2  2  2  2  3  3  3  3  3  3  3  3  3  3  3  4  4  4
TYPE ASSIGNMENTS      4  4  4  4  4  4  4  4  2  2  2  2  2  2  2  2  2  2  2  3
TYPE ASSIGNMENTS      3  3  3  3  3  3  3  3  3  3  4  4  4  4  4  4  4  4  4  4
TYPE ASSIGNMENTS      4  2  2  2  2  2  2  2  2  2  2  2  3  3  3  3  3  3  3  3
TYPE ASSIGNMENTS      3  3  3  4  4  4  4  4  4  4  4  4  4  4  2  3  4  2  3  4
TYPE ASSIGNMENTS      2  3  4  5  5  5  5  5  5  5  6  6  6  6  6  6  6  7  7  7
TYPE ASSIGNMENTS      7  7  7  7  8  8  8  8  8  8  8  9  9  9  9  9  9  9 10 10
TYPE ASSIGNMENTS     10 10 10 10 10  5  6  7  8  9 10  5  6  7  8  9 10  5  6  7
TYPE ASSIGNMENTS      8  9 10 11 12 13 17 14 15 18 19 16 20 11 12 13 17 14 15 18
TYPE ASSIGNMENTS     19 16 20  1  1  1  1  1  1  1  1  1  1  1  1  1  1  1  1  1
TYPE ASSIGNMENTS      1  1  2  2  2  3  3  3  4  4  4  2  3  4  2  3  4  2  3  4
TYPE ASSIGNMENTS      5  6  7  8  9 10  5  6  7  8  9 10  5  6  7  8  9 10 11 12
TYPE ASSIGNMENTS     13 17 14 15 18 19 16 20 11 12 13 17 14 15 18 19 16 20  1  1
TYPE ASSIGNMENTS      1  1  1  1  1  1  1  1  1  1  1  1  1  1  1  1  1  1  1  1
TYPE ASSIGNMENTS      1  1  1  1  1  1  1  1  1  1  1  1  1  1  1  1  1  1  1  1
TYPE ASSIGNMENTS      1  1  1  1  1  1  1  1  1  1  1  1  1  1  1  1  1  1  1  1
TYPE ASSIGNMENTS      1  1  1  1  1  1  1  1  1  1  1  1  1  2  2  2  2  2  2  2
TYPE ASSIGNMENTS      2  2  2  2  3  3  3  3  3  3  3  3  3  3  3  4  4  4  4  4
TYPE ASSIGNMENTS      4  4  4  4  4  4  2  2  2  2  2  2  2  2  2  2  2  3  3  3
TYPE ASSIGNMENTS      3  3  3  3  3  3  3  3  4  4  4  4  4  4  4  4  4  4  4  2
TYPE ASSIGNMENTS      2  2  2  2  2  2  2  2  2  2  3  3  3  3  3  3  3  3  3  3
TYPE ASSIGNMENTS      3  4  4  4  4  4  4  4  4  4  4  4  2  3  4  2  3  4  2  3
TYPE ASSIGNMENTS      4  5  5  5  5  5  5  5  6  6  6  6  6  6  6  7  7  7  7  7
TYPE ASSIGNMENTS      7  7  8  8  8  8  8  8  8  9  9  9  9  9  9  9 10 10 10 10
TYPE ASSIGNMENTS     10 10 10  5  6  7  8  9 10  5  6  7  8  9 10  5  6  7  8  9
TYPE ASSIGNMENTS     10 11 12 13 17 14 15 18 19 16 20 11 12 13 17 14 15 18 19 16
TYPE ASSIGNMENTS     20  1  1  1  1  1  1  1  1  1  1  1  1  1  1  1  1  1  1  1
TYPE ASSIGNMENTS      2  2  2  3  3  3  4  4  4  2  3  4  2  3  4  2  3  4  5  6
TYPE ASSIGNMENTS      7  8  9 10  5  6  7  8  9 10  5  6  7  8  9 10 11 12 13 17
TYPE ASSIGNMENTS     14 15 18 19 16 20 11 12 13 17 14 15 18 19 16 20  1  1  1  1
TYPE ASSIGNMENTS      1  1  1  1  1  1  1  1  1  1  1  1  1  1  1  2  2  2  3  3
TYPE ASSIGNMENTS      3  4  4  4  2  3  4  2  3  4  2  3  4  5  6  7  8  9 10  5
TYPE ASSIGNMENTS      6  7  8  9 10  5  6  7  8  9 10 11 12 13 17 14 15 18 19 16
TYPE ASSIGNMENTS     20 11 12 13 17 14 15 18 19 16 20
EXPONENTS  0.1063900D+08 0.1593400D+07 0.3626100D+06 0.1027000D+06 0.3350100D+05
EXPONENTS  0.1209300D+05 0.4715900D+04 0.1955600D+04 0.8526100D+03 0.3876700D+03
EXPONENTS  0.1826800D+03 0.8824500D+02 0.3926300D+02 0.1923400D+02 0.9405700D+01
EXPONENTS  0.4160100D+01 0.1899500D+01 0.3011400D+00 0.1063900D+08 0.1593400D+07
EXPONENTS  0.3626100D+06 0.1027000D+06 0.3350100D+05 0.1209300D+05 0.4715900D+04
EXPONENTS  0.1955600D+04 0.8526100D+03 0.3876700D+03 0.1826800D+03 0.8824500D+02
EXPONENTS  0.3926300D+02 0.1923400D+02 0.9405700D+01 0.4160100D+01 0.1899500D+01
EXPONENTS  0.3011400D+00 0.1063900D+08 0.1593400D+07 0.3626100D+06 0.1027000D+06
EXPONENTS  0.3350100D+05 0.1209300D+05 0.4715900D+04 0.1955600D+04 0.8526100D+03
EXPONENTS  0.3876700D+03 0.1826800D+03 0.8824500D+02 0.3926300D+02 0.1923400D+02
EXPONENTS  0.9405700D+01 0.4160100D+01 0.1899500D+01 0.3011400D+00 0.1063900D+08
EXPONENTS  0.1593400D+07 0.3626100D+06 0.1027000D+06 0.3350100D+05 0.1209300D+05
EXPONENTS  0.4715900D+04 0.1955600D+04 0.8526100D+03 0.3876700D+03 0.1826800D+03
EXPONENTS  0.8824500D+02 0.3926300D+02 0.1923400D+02 0.9405700D+01 0.4160100D+01
EXPONENTS  0.1899500D+01 0.3011400D+00 0.6047200D+00 0.1251500D+00 0.4559300D-01
EXPONENTS  0.8676500D+04 0.2055900D+04 0.6662300D+03 0.2531000D+03 0.1061200D+03
EXPONENTS  0.4724200D+02 0.2182500D+02 0.9968400D+01 0.4517100D+01 0.1998200D+01
EXPONENTS  0.2814500D+00 0.8676500D+04 0.2055900D+04 0.6662300D+03 0.2531000D+03
EXPONENTS  0.1061200D+03 0.4724200D+02 0.2182500D+02 0.9968400D+01 0.4517100D+01
EXPONENTS  0.1998200D+01 0.2814500D+00 0.8676500D+04 0.2055900D+04 0.6662300D+03
EXPONENTS  0.2531000D+03 0.1061200D+03 0.4724200D+02 0.2182500D+02 0.9968400D+01
EXPONENTS  0.4517100D+01 0.1998200D+01 0.2814500D+00 0.8676500D+04 0.2055900D+04
EXPONENTS  0.6662300D+03 0.2531000D+03 0.1061200D+03 0.4724200D+02 0.2182500D+02
EXPONENTS  0.9968400D+01 0.4517100D+01 0.1998200D+01 0.2814500D+00 0.8676500D+04
EXPONENTS  0.2055900D+04 0.6662300D+03 0.2531000D+03 0.1061200D+03 0.4724200D+02
EXPONENTS  0.2182500D+02 0.9968400D+01 0.4517100D+01 0.1998200D+01 0.2814500D+00
EXPONENTS  0.8676500D+04 0.2055900D+04 0.6662300D+03 0.2531000D+03 0.1061200D+03
EXPONENTS  0.4724200D+02 0.2182500D+02 0.9968400D+01 0.4517100D+01 0.1998200D+01
EXPONENTS  0.2814500D+00 0.8676500D+04 0.2055900D+04 0.6662300D+03 0.2531000D+03
EXPONENTS  0.1061200D+03 0.4724200D+02 0.2182500D+02 0.9968400D+01 0.4517100D+01
EXPONENTS  0.1998200D+01 0.2814500D+00 0.8676500D+04 0.2055900D+04 0.6662300D+03
EXPONENTS  0.2531000D+03 0.1061200D+03 0.4724200D+02 0.2182500D+02 0.9968400D+01
EXPONENTS  0.4517100D+01 0.1998200D+01 0.2814500D+00 0.8676500D+04 0.2055900D+04
EXPONENTS  0.6662300D+03 0.2531000D+03 0.1061200D+03 0.4724200D+02 0.2182500D+02
EXPONENTS  0.9968400D+01 0.4517100D+01 0.1998200D+01 0.2814500D+00 0.7098800D+00
EXPONENTS  0.7098800D+00 0.7098800D+00 0.1020400D+00 0.1020400D+00 0.1020400D+00
EXPONENTS  0.3514200D-01 0.3514200D-01 0.3514200D-01 0.4038300D+03 0.1211700D+03
EXPONENTS  0.4634500D+02 0.1972100D+02 0.8862400D+01 0.3996200D+01 0.1763600D+01
EXPONENTS  0.4038300D+03 0.1211700D+03 0.4634500D+02 0.1972100D+02 0.8862400D+01
EXPONENTS  0.3996200D+01 0.1763600D+01 0.4038300D+03 0.1211700D+03 0.4634500D+02
EXPONENTS  0.1972100D+02 0.8862400D+01 0.3996200D+01 0.1763600D+01 0.4038300D+03
EXPONENTS  0.1211700D+03 0.4634500D+02 0.1972100D+02 0.8862400D+01 0.3996200D+01
EXPONENTS  0.1763600D+01 0.4038300D+03 0.1211700D+03 0.4634500D+02 0.1972100D+02
EXPONENTS  0.8862400D+01 0.3996200D+01 0.1763600D+01 0.4038300D+03 0.1211700D+03
EXPONENTS  0.4634500D+02 0.1972100D+02 0.8862400D+01 0.3996200D+01 0.1763600D+01
EXPONENTS  0.7061900D+00 0.7061900D+00 0.7061900D+00 0.7061900D+00 0.7061900D+00
EXPONENTS  0.7061900D+00 0.2639000D+00 0.2639000D+00 0.2639000D+00 0.2639000D+00
EXPONENTS  0.2639000D+00 0.2639000D+00 0.1047000D+00 0.1047000D+00 0.1047000D+00
EXPONENTS  0.1047000D+00 0.1047000D+00 0.1047000D+00 0.5515000D+00 0.5515000D+00
EXPONENTS  0.5515000D+00 0.5515000D+00 0.5515000D+00 0.5515000D+00 0.5515000D+00
EXPONENTS  0.5515000D+00 0.5515000D+00 0.5515000D+00 0.2580000D+00 0.2580000D+00
EXPONENTS  0.2580000D+00 0.2580000D+00 0.2580000D+00 0.2580000D+00 0.2580000D+00
EXPONENTS  0.2580000D+00 0.2580000D+00 0.2580000D+00 0.1533000D+05 0.2299000D+04
EXPONENTS  0.5224000D+03 0.1473000D+03 0.4755000D+02 0.1676000D+02 0.6207000D+01
EXPONENTS  0.6882000D+00 0.1533000D+05 0.2299000D+04 0.5224000D+03 0.1473000D+03
EXPONENTS  0.4755000D+02 0.1676000D+02 0.6207000D+01 0.6882000D+00 0.1752000D+01
EXPONENTS  0.2384000D+00 0.7376000D-01 0.3446000D+02 0.7749000D+01 0.2280000D+01
EXPONENTS  0.3446000D+02 0.7749000D+01 0.2280000D+01 0.3446000D+02 0.7749000D+01
EXPONENTS  0.2280000D+01 0.7156000D+00 0.7156000D+00 0.7156000D+00 0.2140000D+00
EXPONENTS  0.2140000D+00 0.2140000D+00 0.5974000D-01 0.5974000D-01 0.5974000D-01
EXPONENTS  0.2314000D+01 0.2314000D+01 0.2314000D+01 0.2314000D+01 0.2314000D+01
EXPONENTS  0.2314000D+01 0.6450000D+00 0.6450000D+00 0.6450000D+00 0.6450000D+00
EXPONENTS  0.6450000D+00 0.6450000D+00 0.2140000D+00 0.2140000D+00 0.2140000D+00
EXPONENTS  0.2140000D+00 0.2140000D+00 0.2140000D+00 0.1428000D+01 0.1428000D+01
EXPONENTS  0.1428000D+01 0.1428000D+01 0.1428000D+01 0.1428000D+01 0.1428000D+01
EXPONENTS  0.1428000D+01 0.1428000D+01 0.1428000D+01 0.5000000D+00 0.5000000D+00
EXPONENTS  0.5000000D+00 0.5000000D+00 0.5000000D+00 0.5000000D+00 0.5000000D+00
EXPONENTS  0.5000000D+00 0.5000000D+00 0.5000000D+00 0.1063900D+08 0.1593400D+07
EXPONENTS  0.3626100D+06 0.1027000D+06 0.3350100D+05 0.1209300D+05 0.4715900D+04
EXPONENTS  0.1955600D+04 0.8526100D+03 0.3876700D+03 0.1826800D+03 0.8824500D+02
EXPONENTS  0.3926300D+02 0.1923400D+02 0.9405700D+01 0.4160100D+01 0.1899500D+01
EXPONENTS  0.3011400D+00 0.1063900D+08 0.1593400D+07 0.3626100D+06 0.1027000D+06
EXPONENTS  0.3350100D+05 0.1209300D+05 0.4715900D+04 0.1955600D+04 0.8526100D+03
EXPONENTS  0.3876700D+03 0.1826800D+03 0.8824500D+02 0.3926300D+02 0.1923400D+02
EXPONENTS  0.9405700D+01 0.4160100D+01 0.1899500D+01 0.3011400D+00 0.1063900D+08
EXPONENTS  0.1593400D+07 0.3626100D+06 0.1027000D+06 0.3350100D+05 0.1209300D+05
EXPONENTS  0.4715900D+04 0.1955600D+04 0.8526100D+03 0.3876700D+03 0.1826800D+03
EXPONENTS  0.8824500D+02 0.3926300D+02 0.1923400D+02 0.9405700D+01 0.4160100D+01
EXPONENTS  0.1899500D+01 0.3011400D+00 0.1063900D+08 0.1593400D+07 0.3626100D+06
EXPONENTS  0.1027000D+06 0.3350100D+05 0.1209300D+05 0.4715900D+04 0.1955600D+04
EXPONENTS  0.8526100D+03 0.3876700D+03 0.1826800D+03 0.8824500D+02 0.3926300D+02
EXPONENTS  0.1923400D+02 0.9405700D+01 0.4160100D+01 0.1899500D+01 0.3011400D+00
EXPONENTS  0.6047200D+00 0.1251500D+00 0.4559300D-01 0.8676500D+04 0.2055900D+04
EXPONENTS  0.6662300D+03 0.2531000D+03 0.1061200D+03 0.4724200D+02 0.2182500D+02
EXPONENTS  0.9968400D+01 0.4517100D+01 0.1998200D+01 0.2814500D+00 0.8676500D+04
EXPONENTS  0.2055900D+04 0.6662300D+03 0.2531000D+03 0.1061200D+03 0.4724200D+02
EXPONENTS  0.2182500D+02 0.9968400D+01 0.4517100D+01 0.1998200D+01 0.2814500D+00
EXPONENTS  0.8676500D+04 0.2055900D+04 0.6662300D+03 0.2531000D+03 0.1061200D+03
EXPONENTS  0.4724200D+02 0.2182500D+02 0.9968400D+01 0.4517100D+01 0.1998200D+01
EXPONENTS  0.2814500D+00 0.8676500D+04 0.2055900D+04 0.6662300D+03 0.2531000D+03
EXPONENTS  0.1061200D+03 0.4724200D+02 0.2182500D+02 0.9968400D+01 0.4517100D+01
EXPONENTS  0.1998200D+01 0.2814500D+00 0.8676500D+04 0.2055900D+04 0.6662300D+03
EXPONENTS  0.2531000D+03 0.1061200D+03 0.4724200D+02 0.2182500D+02 0.9968400D+01
EXPONENTS  0.4517100D+01 0.1998200D+01 0.2814500D+00 0.8676500D+04 0.2055900D+04
EXPONENTS  0.6662300D+03 0.2531000D+03 0.1061200D+03 0.4724200D+02 0.2182500D+02
EXPONENTS  0.9968400D+01 0.4517100D+01 0.1998200D+01 0.2814500D+00 0.8676500D+04
EXPONENTS  0.2055900D+04 0.6662300D+03 0.2531000D+03 0.1061200D+03 0.4724200D+02
EXPONENTS  0.2182500D+02 0.9968400D+01 0.4517100D+01 0.1998200D+01 0.2814500D+00
EXPONENTS  0.8676500D+04 0.2055900D+04 0.6662300D+03 0.2531000D+03 0.1061200D+03
EXPONENTS  0.4724200D+02 0.2182500D+02 0.9968400D+01 0.4517100D+01 0.1998200D+01
EXPONENTS  0.2814500D+00 0.8676500D+04 0.2055900D+04 0.6662300D+03 0.2531000D+03
EXPONENTS  0.1061200D+03 0.4724200D+02 0.2182500D+02 0.9968400D+01 0.4517100D+01
EXPONENTS  0.1998200D+01 0.2814500D+00 0.7098800D+00 0.7098800D+00 0.7098800D+00
EXPONENTS  0.1020400D+00 0.1020400D+00 0.1020400D+00 0.3514200D-01 0.3514200D-01
EXPONENTS  0.3514200D-01 0.4038300D+03 0.1211700D+03 0.4634500D+02 0.1972100D+02
EXPONENTS  0.8862400D+01 0.3996200D+01 0.1763600D+01 0.4038300D+03 0.1211700D+03
EXPONENTS  0.4634500D+02 0.1972100D+02 0.8862400D+01 0.3996200D+01 0.1763600D+01
EXPONENTS  0.4038300D+03 0.1211700D+03 0.4634500D+02 0.1972100D+02 0.8862400D+01
EXPONENTS  0.3996200D+01 0.1763600D+01 0.4038300D+03 0.1211700D+03 0.4634500D+02
EXPONENTS  0.1972100D+02 0.8862400D+01 0.3996200D+01 0.1763600D+01 0.4038300D+03
EXPONENTS  0.1211700D+03 0.4634500D+02 0.1972100D+02 0.8862400D+01 0.3996200D+01
EXPONENTS  0.1763600D+01 0.4038300D+03 0.1211700D+03 0.4634500D+02 0.1972100D+02
EXPONENTS  0.8862400D+01 0.3996200D+01 0.1763600D+01 0.7061900D+00 0.7061900D+00
EXPONENTS  0.7061900D+00 0.7061900D+00 0.7061900D+00 0.7061900D+00 0.2639000D+00
EXPONENTS  0.2639000D+00 0.2639000D+00 0.2639000D+00 0.2639000D+00 0.2639000D+00
EXPONENTS  0.1047000D+00 0.1047000D+00 0.1047000D+00 0.1047000D+00 0.1047000D+00
EXPONENTS  0.1047000D+00 0.5515000D+00 0.5515000D+00 0.5515000D+00 0.5515000D+00
EXPONENTS  0.5515000D+00 0.5515000D+00 0.5515000D+00 0.5515000D+00 0.5515000D+00
EXPONENTS  0.5515000D+00 0.2580000D+00 0.2580000D+00 0.2580000D+00 0.2580000D+00
EXPONENTS  0.2580000D+00 0.2580000D+00 0.2580000D+00 0.2580000D+00 0.2580000D+00
EXPONENTS  0.2580000D+00 0.1533000D+05 0.2299000D+04 0.5224000D+03 0.1473000D+03
EXPONENTS  0.4755000D+02 0.1676000D+02 0.6207000D+01 0.6882000D+00 0.1533000D+05
EXPONENTS  0.2299000D+04 0.5224000D+03 0.1473000D+03 0.4755000D+02 0.1676000D+02
EXPONENTS  0.6207000D+01 0.6882000D+00 0.1752000D+01 0.2384000D+00 0.7376000D-01
EXPONENTS  0.3446000D+02 0.7749000D+01 0.2280000D+01 0.3446000D+02 0.7749000D+01
EXPONENTS  0.2280000D+01 0.3446000D+02 0.7749000D+01 0.2280000D+01 0.7156000D+00
EXPONENTS  0.7156000D+00 0.7156000D+00 0.2140000D+00 0.2140000D+00 0.2140000D+00
EXPONENTS  0.5974000D-01 0.5974000D-01 0.5974000D-01 0.2314000D+01 0.2314000D+01
EXPONENTS  0.2314000D+01 0.2314000D+01 0.2314000D+01 0.2314000D+01 0.6450000D+00
EXPONENTS  0.6450000D+00 0.6450000D+00 0.6450000D+00 0.6450000D+00 0.6450000D+00
EXPONENTS  0.2140000D+00 0.2140000D+00 0.2140000D+00 0.2140000D+00 0.2140000D+00
EXPONENTS  0.2140000D+00 0.1428000D+01 0.1428000D+01 0.1428000D+01 0.1428000D+01
EXPONENTS  0.1428000D+01 0.1428000D+01 0.1428000D+01 0.1428000D+01 0.1428000D+01
EXPONENTS  0.1428000D+01 0.5000000D+00 0.5000000D+00 0.5000000D+00 0.5000000D+00
EXPONENTS  0.5000000D+00 0.5000000D+00 0.5000000D+00 0.5000000D+00 0.5000000D+00
EXPONENTS  0.5000000D+00 0.1533000D+05 0.2299000D+04 0.5224000D+03 0.1473000D+03
EXPONENTS  0.4755000D+02 0.1676000D+02 0.6207000D+01 0.6882000D+00 0.1533000D+05
EXPONENTS  0.2299000D+04 0.5224000D+03 0.1473000D+03 0.4755000D+02 0.1676000D+02
EXPONENTS  0.6207000D+01 0.6882000D+00 0.1752000D+01 0.2384000D+00 0.7376000D-01
EXPONENTS  0.3446000D+02 0.7749000D+01 0.2280000D+01 0.3446000D+02 0.7749000D+01
EXPONENTS  0.2280000D+01 0.3446000D+02 0.7749000D+01 0.2280000D+01 0.7156000D+00
EXPONENTS  0.7156000D+00 0.7156000D+00 0.2140000D+00 0.2140000D+00 0.2140000D+00
EXPONENTS  0.5974000D-01 0.5974000D-01 0.5974000D-01 0.2314000D+01 0.2314000D+01
EXPONENTS  0.2314000D+01 0.2314000D+01 0.2314000D+01 0.2314000D+01 0.6450000D+00
EXPONENTS  0.6450000D+00 0.6450000D+00 0.6450000D+00 0.6450000D+00 0.6450000D+00
EXPONENTS  0.2140000D+00 0.2140000D+00 0.2140000D+00 0.2140000D+00 0.2140000D+00
EXPONENTS  0.2140000D+00 0.1428000D+01 0.1428000D+01 0.1428000D+01 0.1428000D+01
EXPONENTS  0.1428000D+01 0.1428000D+01 0.1428000D+01 0.1428000D+01 0.1428000D+01
EXPONENTS  0.1428000D+01 0.5000000D+00 0.5000000D+00 0.5000000D+00 0.5000000D+00
EXPONENTS  0.5000000D+00 0.5000000D+00 0.5000000D+00 0.5000000D+00 0.5000000D+00
EXPONENTS  0.5000000D+00
MO    1     MO 0.0        OCC NO =    2.0000000  ORB. ENERGY = -482.189054
 -0.16518330D-04 -0.31072990D-04 -0.53788877D-04 -0.88170261D-04 -0.13812042D-03
 -0.20760676D-03 -0.29672221D-03 -0.39390611D-03 -0.45875716D-03 -0.42136401D-03
 -0.24638811D-03 -0.64653473D-04 -0.35345801D-05  0.12650951D-06 -0.35355417D-07
  0.10498216D-07 -0.17897641D-08 -0.14602013D-09 -0.39667400D-05 -0.72881304D-05
 -0.12602857D-04 -0.20638940D-04 -0.32495084D-04 -0.49070760D-04 -0.71628324D-04
 -0.98636553D-04 -0.12603111D-03 -0.13738868D-03 -0.11309204D-03 -0.31009068D-04
  0.62547301D-04  0.60955077D-04  0.13338688D-04  0.44936812D-06  0.15223156D-07
 -0.38725745D-10  0.51344133D-05  0.10065507D-04  0.17629485D-04  0.28800843D-04
  0.45425866D-04  0.68545603D-04  0.10050147D-03  0.13875891D-03  0.17990161D-03
  0.20006118D-03  0.17376545D-03  0.50475756D-04 -0.12724877D-03 -0.18541042D-03
 -0.31919067D-04  0.77868856D-04  0.37063613D-04 -0.17899150D-06 -0.24371871D-05
 -0.52807959D-05 -0.89897177D-05 -0.14673640D-04 -0.23131554D-04 -0.34912196D-04
 -0.51186969D-04 -0.70762350D-04 -0.91842431D-04 -0.10260406D-03 -0.89626966D-04
 -0.26547595D-04  0.69008496D-04  0.10615839D-03  0.18580960D-04 -0.58612612D-04
 -0.49753244D-04  0.18562490D-04 -0.47799221D-05 -0.34637585D-05 -0.64608841D-05
  0.91421484D-04  0.13117364D-03  0.17368088D-03  0.20055221D-03  0.18592112D-03
  0.12036872D-03  0.42485739D-04  0.49796949D-05  0.72395548D-07  0.10601522D-07
  0.10900011D-09  0.93573099D-05  0.13426083D-04  0.17776848D-04  0.20527222D-04
  0.19029679D-04  0.12320161D-04  0.43485645D-05  0.50968926D-06  0.74099385D-08
  0.10851030D-08  0.11156544D-10 -0.17647438D-04 -0.25320949D-04 -0.33526283D-04
 -0.38713358D-04 -0.35889064D-04 -0.23235234D-04 -0.82011843D-05 -0.96124952D-06
 -0.13974789D-07 -0.20464523D-08 -0.21040708D-10 -0.37953819D-03 -0.54786774D-03
 -0.73193820D-03 -0.86956504D-03 -0.84267518D-03 -0.58576674D-03 -0.19060288D-03
  0.85786421D-04  0.92677956D-04  0.23859656D-04 -0.23272891D-07 -0.49360369D-04
 -0.71252260D-04 -0.95191315D-04 -0.11309020D-03 -0.10959308D-03 -0.76181167D-04
 -0.24788621D-04  0.11156847D-04  0.12053117D-04  0.31030380D-05 -0.30267270D-08
  0.73717033D-04  0.10641138D-03  0.14216307D-03  0.16889408D-03  0.16367131D-03
  0.11377244D-03  0.37020461D-04 -0.16662145D-04 -0.18000676D-04 -0.46342189D-05
  0.45202526D-08  0.28351819D-03  0.41196450D-03  0.54771158D-03  0.65721598D-03
  0.63585937D-03  0.45138612D-03  0.14029194D-03 -0.80546781D-04 -0.92530371D-04
 -0.24572253D-04  0.88657456D-05  0.50112471D-04  0.72815644D-04  0.96809243D-04
  0.11616439D-03  0.11238956D-03  0.79783502D-04  0.24796913D-04 -0.14236823D-04
 -0.16354949D-04 -0.43432006D-05  0.15670403D-05 -0.55637656D-04 -0.80843982D-04
 -0.10748301D-03 -0.12897217D-03 -0.12478115D-03 -0.88580086D-04 -0.27530913D-04
  0.15806514D-04  0.18158175D-04  0.48220631D-05 -0.17398154D-05 -0.12713487D-05
  0.29735354D-05  0.11135246D-06 -0.56222453D-05 -0.43437036D-05  0.12476385D-05
 -0.40121695D-06 -0.22156800D-06  0.85268712D-07 -0.19281743D-05 -0.20176266D-05
 -0.17191259D-05 -0.11321744D-05 -0.52178546D-06 -0.15624950D-06 -0.26584528D-07
 -0.35234430D-04 -0.36869034D-04 -0.31414391D-04 -0.20688751D-04 -0.95348294D-05
 -0.28552201D-05 -0.48579149D-06  0.37162604D-04  0.38886661D-04  0.33133516D-04
  0.21820925D-04  0.10056615D-04  0.30114696D-05  0.51237602D-06 -0.16837838D-03
 -0.17618984D-03 -0.15012317D-03 -0.98867457D-04 -0.45565067D-04 -0.13644533D-04
 -0.23215016D-05  0.23114245D-04  0.24186567D-04  0.20608250D-04  0.13572090D-04
  0.62549724D-05  0.18730616D-05  0.31868555D-06  0.38230360D-04  0.40003953D-04
  0.34085509D-04  0.22447885D-04  0.10345562D-04  0.30979952D-05  0.52709762D-06
  0.89027736D-06  0.18576327D-05 -0.27479101D-05  0.10973552D-04 -0.19335957D-05
 -0.24855638D-05 -0.11845875D-06 -0.10503950D-05  0.11688538D-05 -0.41900846D-05
  0.69939627D-06  0.98845013D-06 -0.61538864D-06 -0.20173920D-06  0.81712784D-06
 -0.17365567D-05  0.64170632D-06  0.42140690D-06 -0.11797265D-05 -0.15117877D-05
  0.87328156D-06  0.77105249D-05  0.48559998D-05 -0.12981874D-05 -0.41713455D-05
 -0.32063657D-06 -0.13216573D-05 -0.31644687D-05  0.96974838D-07  0.69774233D-06
 -0.60874219D-06 -0.30361356D-05 -0.28686095D-05  0.12560282D-05  0.27452111D-05
  0.77538252D-06  0.57019834D-06  0.19970752D-05 -0.12886072D-04 -0.24017981D-04
 -0.40726537D-04 -0.61641511D-04 -0.76910609D-04 -0.66055956D-04 -0.25360166D-04
  0.11343758D-06  0.87635247D-05  0.16436208D-04  0.28020131D-04  0.43790011D-04
  0.58555588D-04  0.62523717D-04  0.38225774D-04 -0.25219044D-04  0.18389997D-05
  0.17628572D-04 -0.12319775D-04  0.37149999D-05  0.36023002D-05  0.24300905D-05
 -0.12524478D-04 -0.12144531D-04 -0.81926289D-05 -0.16138152D-06 -0.15648579D-06
 -0.10556439D-06 -0.85796129D-05 -0.74127858D-05  0.19362661D-05  0.99387822D-05
  0.28977570D-04 -0.31219280D-05 -0.83357835D-07 -0.16543298D-05  0.87250993D-07
  0.77672019D-05 -0.34436890D-04  0.26669688D-04 -0.46835289D-04  0.96099582D-05
  0.14201048D-04 -0.13838929D-05  0.11737371D-04 -0.10353478D-04  0.18102022D-04
 -0.43649744D-05 -0.53633280D-05 -0.64865214D-05  0.11414556D-04 -0.49280350D-05
  0.63833130D-05  0.30509854D-06 -0.26106292D-05  0.23381558D-05 -0.19755186D-04
 -0.45803917D-05 -0.19616796D-04  0.14887106D-04  0.35042255D-05  0.12602328D-04
  0.44378454D-04  0.10236950D-04  0.14828759D-04 -0.35520034D-05  0.95060310D-05
  0.22134797D-05  0.17044731D-04 -0.76730742D-05 -0.31649811D-06 -0.63887206D-05
 -0.20845019D-04 -0.63239409D-05 -0.74436367D-05  0.78328430D+00  0.14734532D+01
  0.25506201D+01  0.41809543D+01  0.65495460D+01  0.98445253D+01  0.14070300D+02
  0.18678673D+02  0.21753851D+02  0.19980702D+02  0.11683502D+02  0.30658094D+01
  0.16760660D+00 -0.59989671D-02  0.16765220D-02 -0.49781595D-03  0.84869001D-04
  0.69241432D-05  0.39340893D-04  0.72281410D-04  0.12499122D-03  0.20469058D-03
  0.32227613D-03  0.48666853D-03  0.71038743D-03  0.97824664D-03  0.12499373D-02
  0.13625781D-02  0.11216116D-02  0.30753829D-03 -0.62032467D-03 -0.60453348D-03
 -0.13228896D-03 -0.44566932D-05 -0.15097852D-06  0.38406989D-09 -0.96947437D-04
 -0.19005581D-03 -0.33287804D-03 -0.54381440D-03 -0.85772629D-03 -0.12942707D-02
 -0.18976580D-02 -0.26200307D-02 -0.33968828D-02 -0.37775336D-02 -0.32810205D-02
 -0.95307777D-03  0.24026975D-02  0.35008996D-02  0.60269238D-03 -0.14703113D-02
 -0.69983113D-03  0.33796982D-05  0.32726732D-04  0.70910925D-04  0.12071461D-03
  0.19703874D-03  0.31061225D-03  0.46880359D-03  0.68734247D-03  0.95020216D-03
  0.12332671D-02  0.13777750D-02  0.12035176D-02  0.35648310D-03 -0.92665128D-03
 -0.14255029D-02 -0.24950653D-03  0.78705457D-03  0.66809030D-03 -0.24925852D-03
  0.27025888D-03  0.53720101D-04  0.16601970D-04  0.19348838D-03  0.27762156D-03
  0.36758571D-03  0.42445734D-03  0.39349148D-03  0.25475356D-03  0.89918651D-04
  0.10539241D-04  0.15322106D-06  0.22437519D-07  0.23069254D-09  0.39074747D-03
  0.56065343D-03  0.74233495D-03  0.85718655D-03  0.79465136D-03  0.51447178D-03
  0.18158964D-03  0.21283872D-04  0.30942811D-06  0.45312302D-07  0.46588083D-09
 -0.53520449D-04 -0.76792369D-04 -0.10167718D-03 -0.11740833D-03 -0.10884293D-03
 -0.70466895D-04 -0.24872226D-04 -0.29152394D-05 -0.42382184D-07 -0.62063991D-08
 -0.63811422D-10 -0.10421699D-02 -0.15043842D-02 -0.20098213D-02 -0.23877294D-02
 -0.23138928D-02 -0.16084506D-02 -0.52337441D-03  0.23556002D-03  0.25448341D-03
  0.65515975D-04 -0.63904784D-07 -0.23072182D-02 -0.33304959D-02 -0.44494629D-02
 -0.52860985D-02 -0.51226346D-02 -0.35608845D-02 -0.11586777D-02  0.52149690D-03
  0.56339064D-03  0.14504319D-03 -0.14147624D-06  0.29578682D-03  0.42697167D-03
  0.57042395D-03  0.67768115D-03  0.65672498D-03  0.45650763D-03  0.14854320D-03
 -0.66856230D-04 -0.72227034D-04 -0.18594629D-04  0.18137343D-07  0.75344978D-03
  0.10947960D-02  0.14555439D-02  0.17465519D-02  0.16897967D-02  0.11995589D-02
  0.37282593D-03 -0.21405313D-03 -0.24589953D-03 -0.65300781D-04  0.23560725D-04
  0.16693837D-02  0.24256886D-02  0.32249811D-02  0.38697541D-02  0.37440042D-02
  0.26578070D-02  0.82605311D-03 -0.47426759D-03 -0.54482817D-03 -0.14468391D-03
  0.52202406D-04 -0.21392340D-03 -0.31084019D-03 -0.41326563D-03 -0.49589015D-03
 -0.47977591D-03 -0.34058504D-03 -0.10585469D-03  0.60775083D-04  0.69817078D-04
  0.18540539D-04 -0.66894842D-05 -0.15720421D-04 -0.34237718D-04  0.44369528D-05
 -0.50925986D-05 -0.59367251D-05  0.12206494D-05 -0.48788612D-06 -0.79321262D-07
  0.95239885D-07 -0.56443497D-04 -0.59062038D-04 -0.50324018D-04 -0.33142170D-04
 -0.15274240D-04 -0.45738957D-05 -0.77820958D-06  0.18673886D-03  0.19540209D-03
  0.16649304D-03  0.10964825D-03  0.50533616D-04  0.15132373D-04  0.25746450D-05
 -0.13029536D-03 -0.13634005D-03 -0.11616902D-03 -0.76506084D-04 -0.35259376D-04
 -0.10558477D-04 -0.17964354D-05  0.22885584D-03  0.23947298D-03  0.20404380D-03
  0.13437827D-03  0.61930942D-04  0.18545321D-04  0.31553291D-05 -0.39680206D-04
 -0.41521060D-04 -0.35378166D-04 -0.23299197D-04 -0.10737906D-04 -0.32154833D-05
 -0.54708723D-06 -0.70873799D-04 -0.74161794D-04 -0.63189818D-04 -0.41615272D-04
 -0.19179240D-04 -0.57432544D-05 -0.97716605D-06  0.16352926D-05 -0.61256705D-05
  0.44903778D-05 -0.64014796D-05  0.14208659D-05  0.21389565D-05  0.39759571D-05
 -0.10579331D-04  0.66033739D-05 -0.15219024D-04  0.17401069D-05  0.43636974D-05
 -0.96102372D-06  0.39524313D-05 -0.29914076D-05  0.63774748D-05 -0.10925054D-05
 -0.18087916D-05 -0.23906503D-05  0.50165572D-05  0.20327640D-05  0.13983263D-04
 -0.82686938D-06 -0.14998675D-05 -0.68113118D-05 -0.14222802D-04 -0.45984244D-05
 -0.72964881D-05 -0.50254766D-06  0.18766921D-06 -0.27428750D-06  0.47654904D-06
 -0.16050613D-05  0.83220815D-06  0.10310939D-05  0.10420537D-05 -0.93456532D-08
  0.11185712D-05  0.13829256D-05  0.25775954D-05  0.43707477D-05  0.66153302D-05
  0.82540006D-05  0.70890857D-05  0.27216379D-05 -0.12174053D-07 -0.82899835D-06
 -0.15548070D-05 -0.26506050D-05 -0.41423797D-05 -0.55391509D-05 -0.59145218D-05
 -0.36160226D-05  0.23856321D-05 -0.30370181D-05  0.15771348D-04 -0.90240771D-05
 -0.45216416D-05 -0.43844713D-05 -0.29577385D-05  0.96127007D-05  0.93210861D-05
  0.62879496D-05  0.42639703D-06  0.41346169D-06  0.27891881D-06  0.53091716D-05
 -0.73314936D-05 -0.66998085D-06  0.14596761D-04  0.80032962D-05 -0.30654070D-05
  0.16511584D-05  0.25431757D-05 -0.41790335D-06 -0.37463688D-05 -0.14164582D-06
  0.38880146D-05 -0.10249985D-04  0.34137644D-05  0.22694835D-05  0.49828284D-05
 -0.20280161D-05 -0.29548123D-05  0.50985752D-05 -0.32939812D-05 -0.10521544D-05
  0.16074166D-05 -0.14776956D-05 -0.12972105D-06 -0.29839385D-05 -0.53213984D-06
  0.67026579D-06 -0.11917466D-05  0.57441762D-05  0.15534921D-05  0.72543437D-05
  0.50241786D-06 -0.96874141D-06 -0.36791040D-05 -0.17734946D-04 -0.36917349D-05
 -0.81671766D-05  0.11139502D-05 -0.17348185D-05 -0.38331877D-07 -0.27953047D-05
  0.15820007D-05 -0.94890185D-06 -0.54654584D-06  0.36224550D-05  0.10638975D-05
  0.99547473D-06  0.10678721D-05  0.19903761D-05  0.33750184D-05  0.51082476D-05
  0.63736015D-05  0.54740737D-05  0.21016033D-05 -0.94006006D-08 -0.68477574D-06