 Molden2AIM, Version 4.0.0 (06/02/2016)           Time: Thu Jun 28 16:59:35 2018
GAUSSIAN             21 MOL ORBITALS    612 PRIMITIVES       12 NUCLEI
  B    1    (CENTRE  1)  -5.75943358  4.93797153 -0.29515254  CHARGE =  5.0
  N    2    (CENTRE  2)  -3.33450678  3.78644990 -0.36814322  CHARGE =  7.0
  N    3    (CENTRE  3)  -5.81160892  7.61543188  0.04622837  CHARGE =  7.0
  H    4    (CENTRE  4)  -7.70338162  3.78652927 -0.49926375  CHARGE =  1.0
  B    5    (CENTRE  5)  -1.02793731  5.18870039 -0.11810977  CHARGE =  5.0
  H    6    (CENTRE  6)  -3.24463519  1.89341865 -0.60731073  CHARGE =  1.0
  C    7    (CENTRE  7)  -3.66752188  9.06230635  0.29613709  CHARGE =  6.0
  H    8    (CENTRE  8)  -7.47538427  8.54312300  0.11467047  CHARGE =  1.0
  C    9    (CENTRE  9)  -1.30836133  8.03644018  0.23686016  CHARGE =  6.0
  H   10    (CENTRE 10)   0.96134903  4.08324273 -0.19836266  CHARGE =  1.0
  H   11    (CENTRE 11)  -3.99661580 11.08670759  0.54561307  CHARGE =  1.0
  H   12    (CENTRE 12)   0.28183186  9.32853097  0.44985686  CHARGE =  1.0
CENTRE ASSIGNMENTS    1  1  1  1  1  1  1  1  1  1  1  1  1  1  1  1  1  1  1  1
CENTRE ASSIGNMENTS    1  1  1  1  1  1  1  1  1  1  1  1  1  1  1  1  1  1  1  1
CENTRE ASSIGNMENTS    1  1  1  1  1  1  1  1  1  1  1  1  1  1  1  1  1  1  1  1
CENTRE ASSIGNMENTS    1  1  1  1  1  1  1  1  1  1  1  1  1  1  1  2  2  2  2  2
CENTRE ASSIGNMENTS    2  2  2  2  2  2  2  2  2  2  2  2  2  2  2  2  2  2  2  2
CENTRE ASSIGNMENTS    2  2  2  2  2  2  2  2  2  2  2  2  2  2  2  2  2  2  2  2
CENTRE ASSIGNMENTS    2  2  2  2  2  2  2  2  2  2  2  2  2  2  2  2  2  2  2  2
CENTRE ASSIGNMENTS    2  2  2  2  2  2  2  2  2  2  3  3  3  3  3  3  3  3  3  3
CENTRE ASSIGNMENTS    3  3  3  3  3  3  3  3  3  3  3  3  3  3  3  3  3  3  3  3
CENTRE ASSIGNMENTS    3  3  3  3  3  3  3  3  3  3  3  3  3  3  3  3  3  3  3  3
CENTRE ASSIGNMENTS    3  3  3  3  3  3  3  3  3  3  3  3  3  3  3  3  3  3  3  3
CENTRE ASSIGNMENTS    3  3  3  3  3  4  4  4  4  4  4  4  4  4  4  4  4  4  4  4
CENTRE ASSIGNMENTS    4  4  4  4  4  4  4  4  4  4  4  4  5  5  5  5  5  5  5  5
CENTRE ASSIGNMENTS    5  5  5  5  5  5  5  5  5  5  5  5  5  5  5  5  5  5  5  5
CENTRE ASSIGNMENTS    5  5  5  5  5  5  5  5  5  5  5  5  5  5  5  5  5  5  5  5
CENTRE ASSIGNMENTS    5  5  5  5  5  5  5  5  5  5  5  5  5  5  5  5  5  5  5  5
CENTRE ASSIGNMENTS    5  5  5  5  5  5  5  6  6  6  6  6  6  6  6  6  6  6  6  6
CENTRE ASSIGNMENTS    6  6  6  6  6  6  6  6  6  6  6  6  6  6  7  7  7  7  7  7
CENTRE ASSIGNMENTS    7  7  7  7  7  7  7  7  7  7  7  7  7  7  7  7  7  7  7  7
CENTRE ASSIGNMENTS    7  7  7  7  7  7  7  7  7  7  7  7  7  7  7  7  7  7  7  7
CENTRE ASSIGNMENTS    7  7  7  7  7  7  7  7  7  7  7  7  7  7  7  7  7  7  7  7
CENTRE ASSIGNMENTS    7  7  7  7  7  7  7  7  7  8  8  8  8  8  8  8  8  8  8  8
CENTRE ASSIGNMENTS    8  8  8  8  8  8  8  8  8  8  8  8  8  8  8  8  9  9  9  9
CENTRE ASSIGNMENTS    9  9  9  9  9  9  9  9  9  9  9  9  9  9  9  9  9  9  9  9
CENTRE ASSIGNMENTS    9  9  9  9  9  9  9  9  9  9  9  9  9  9  9  9  9  9  9  9
CENTRE ASSIGNMENTS    9  9  9  9  9  9  9  9  9  9  9  9  9  9  9  9  9  9  9  9
CENTRE ASSIGNMENTS    9  9  9  9  9  9  9  9  9  9  9 10 10 10 10 10 10 10 10 10
CENTRE ASSIGNMENTS   10 10 10 10 10 10 10 10 10 10 10 10 10 10 10 10 10 10 11 11
CENTRE ASSIGNMENTS   11 11 11 11 11 11 11 11 11 11 11 11 11 11 11 11 11 11 11 11
CENTRE ASSIGNMENTS   11 11 11 11 11 12 12 12 12 12 12 12 12 12 12 12 12 12 12 12
CENTRE ASSIGNMENTS   12 12 12 12 12 12 12 12 12 12 12 12
TYPE ASSIGNMENTS      1  1  1  1  1  1  1  1  1  1  1  1  1  1  1  1  1  1  1  2
TYPE ASSIGNMENTS      2  2  3  3  3  4  4  4  2  3  4  2  3  4  2  3  4  5  6  7
TYPE ASSIGNMENTS      8  9 10  5  6  7  8  9 10  5  6  7  8  9 10 11 12 13 17 14
TYPE ASSIGNMENTS     15 18 19 16 20 11 12 13 17 14 15 18 19 16 20  1  1  1  1  1
TYPE ASSIGNMENTS      1  1  1  1  1  1  1  1  1  1  1  1  1  1  2  2  2  3  3  3
TYPE ASSIGNMENTS      4  4  4  2  3  4  2  3  4  2  3  4  5  6  7  8  9 10  5  6
TYPE ASSIGNMENTS      7  8  9 10  5  6  7  8  9 10 11 12 13 17 14 15 18 19 16 20
TYPE ASSIGNMENTS     11 12 13 17 14 15 18 19 16 20  1  1  1  1  1  1  1  1  1  1
TYPE ASSIGNMENTS      1  1  1  1  1  1  1  1  1  2  2  2  3  3  3  4  4  4  2  3
TYPE ASSIGNMENTS      4  2  3  4  2  3  4  5  6  7  8  9 10  5  6  7  8  9 10  5
TYPE ASSIGNMENTS      6  7  8  9 10 11 12 13 17 14 15 18 19 16 20 11 12 13 17 14
TYPE ASSIGNMENTS     15 18 19 16 20  1  1  1  1  1  1  2  3  4  2  3  4  2  3  4
TYPE ASSIGNMENTS      5  6  7  8  9 10  5  6  7  8  9 10  1  1  1  1  1  1  1  1
TYPE ASSIGNMENTS      1  1  1  1  1  1  1  1  1  1  1  2  2  2  3  3  3  4  4  4
TYPE ASSIGNMENTS      2  3  4  2  3  4  2  3  4  5  6  7  8  9 10  5  6  7  8  9
TYPE ASSIGNMENTS     10  5  6  7  8  9 10 11 12 13 17 14 15 18 19 16 20 11 12 13
TYPE ASSIGNMENTS     17 14 15 18 19 16 20  1  1  1  1  1  1  2  3  4  2  3  4  2
TYPE ASSIGNMENTS      3  4  5  6  7  8  9 10  5  6  7  8  9 10  1  1  1  1  1  1
TYPE ASSIGNMENTS      1  1  1  1  1  1  1  1  1  1  1  1  1  2  2  2  3  3  3  4
TYPE ASSIGNMENTS      4  4  2  3  4  2  3  4  2  3  4  5  6  7  8  9 10  5  6  7
TYPE ASSIGNMENTS      8  9 10  5  6  7  8  9 10 11 12 13 17 14 15 18 19 16 20 11
TYPE ASSIGNMENTS     12 13 17 14 15 18 19 16 20  1  1  1  1  1  1  2  3  4  2  3
TYPE ASSIGNMENTS      4  2  3  4  5  6  7  8  9 10  5  6  7  8  9 10  1  1  1  1
TYPE ASSIGNMENTS      1  1  1  1  1  1  1  1  1  1  1  1  1  1  1  2  2  2  3  3
TYPE ASSIGNMENTS      3  4  4  4  2  3  4  2  3  4  2  3  4  5  6  7  8  9 10  5
TYPE ASSIGNMENTS      6  7  8  9 10  5  6  7  8  9 10 11 12 13 17 14 15 18 19 16
TYPE ASSIGNMENTS     20 11 12 13 17 14 15 18 19 16 20  1  1  1  1  1  1  2  3  4
TYPE ASSIGNMENTS      2  3  4  2  3  4  5  6  7  8  9 10  5  6  7  8  9 10  1  1
TYPE ASSIGNMENTS      1  1  1  1  2  3  4  2  3  4  2  3  4  5  6  7  8  9 10  5
TYPE ASSIGNMENTS      6  7  8  9 10  1  1  1  1  1  1  2  3  4  2  3  4  2  3  4
TYPE ASSIGNMENTS      5  6  7  8  9 10  5  6  7  8  9 10
EXPONENTS  0.5473000D+04 0.8209000D+03 0.1868000D+03 0.5283000D+02 0.1708000D+02
EXPONENTS  0.5999000D+01 0.2208000D+01 0.2415000D+00 0.5473000D+04 0.8209000D+03
EXPONENTS  0.1868000D+03 0.5283000D+02 0.1708000D+02 0.5999000D+01 0.2208000D+01
EXPONENTS  0.2415000D+00 0.5879000D+00 0.8610000D-01 0.2914000D-01 0.1205000D+02
EXPONENTS  0.2613000D+01 0.7475000D+00 0.1205000D+02 0.2613000D+01 0.7475000D+00
EXPONENTS  0.1205000D+02 0.2613000D+01 0.7475000D+00 0.2385000D+00 0.2385000D+00
EXPONENTS  0.2385000D+00 0.7698000D-01 0.7698000D-01 0.7698000D-01 0.2096000D-01
EXPONENTS  0.2096000D-01 0.2096000D-01 0.6610000D+00 0.6610000D+00 0.6610000D+00
EXPONENTS  0.6610000D+00 0.6610000D+00 0.6610000D+00 0.1990000D+00 0.1990000D+00
EXPONENTS  0.1990000D+00 0.1990000D+00 0.1990000D+00 0.1990000D+00 0.6040000D-01
EXPONENTS  0.6040000D-01 0.6040000D-01 0.6040000D-01 0.6040000D-01 0.6040000D-01
EXPONENTS  0.4900000D+00 0.4900000D+00 0.4900000D+00 0.4900000D+00 0.4900000D+00
EXPONENTS  0.4900000D+00 0.4900000D+00 0.4900000D+00 0.4900000D+00 0.4900000D+00
EXPONENTS  0.1630000D+00 0.1630000D+00 0.1630000D+00 0.1630000D+00 0.1630000D+00
EXPONENTS  0.1630000D+00 0.1630000D+00 0.1630000D+00 0.1630000D+00 0.1630000D+00
EXPONENTS  0.1142000D+05 0.1712000D+04 0.3893000D+03 0.1100000D+03 0.3557000D+02
EXPONENTS  0.1254000D+02 0.4644000D+01 0.5118000D+00 0.1142000D+05 0.1712000D+04
EXPONENTS  0.3893000D+03 0.1100000D+03 0.3557000D+02 0.1254000D+02 0.4644000D+01
EXPONENTS  0.5118000D+00 0.1293000D+01 0.1787000D+00 0.5760000D-01 0.2663000D+02
EXPONENTS  0.5948000D+01 0.1742000D+01 0.2663000D+02 0.5948000D+01 0.1742000D+01
EXPONENTS  0.2663000D+02 0.5948000D+01 0.1742000D+01 0.5550000D+00 0.5550000D+00
EXPONENTS  0.5550000D+00 0.1725000D+00 0.1725000D+00 0.1725000D+00 0.4910000D-01
EXPONENTS  0.4910000D-01 0.4910000D-01 0.1654000D+01 0.1654000D+01 0.1654000D+01
EXPONENTS  0.1654000D+01 0.1654000D+01 0.1654000D+01 0.4690000D+00 0.4690000D+00
EXPONENTS  0.4690000D+00 0.4690000D+00 0.4690000D+00 0.4690000D+00 0.1510000D+00
EXPONENTS  0.1510000D+00 0.1510000D+00 0.1510000D+00 0.1510000D+00 0.1510000D+00
EXPONENTS  0.1093000D+01 0.1093000D+01 0.1093000D+01 0.1093000D+01 0.1093000D+01
EXPONENTS  0.1093000D+01 0.1093000D+01 0.1093000D+01 0.1093000D+01 0.1093000D+01
EXPONENTS  0.3640000D+00 0.3640000D+00 0.3640000D+00 0.3640000D+00 0.3640000D+00
EXPONENTS  0.3640000D+00 0.3640000D+00 0.3640000D+00 0.3640000D+00 0.3640000D+00
EXPONENTS  0.1142000D+05 0.1712000D+04 0.3893000D+03 0.1100000D+03 0.3557000D+02
EXPONENTS  0.1254000D+02 0.4644000D+01 0.5118000D+00 0.1142000D+05 0.1712000D+04
EXPONENTS  0.3893000D+03 0.1100000D+03 0.3557000D+02 0.1254000D+02 0.4644000D+01
EXPONENTS  0.5118000D+00 0.1293000D+01 0.1787000D+00 0.5760000D-01 0.2663000D+02
EXPONENTS  0.5948000D+01 0.1742000D+01 0.2663000D+02 0.5948000D+01 0.1742000D+01
EXPONENTS  0.2663000D+02 0.5948000D+01 0.1742000D+01 0.5550000D+00 0.5550000D+00
EXPONENTS  0.5550000D+00 0.1725000D+00 0.1725000D+00 0.1725000D+00 0.4910000D-01
EXPONENTS  0.4910000D-01 0.4910000D-01 0.1654000D+01 0.1654000D+01 0.1654000D+01
EXPONENTS  0.1654000D+01 0.1654000D+01 0.1654000D+01 0.4690000D+00 0.4690000D+00
EXPONENTS  0.4690000D+00 0.4690000D+00 0.4690000D+00 0.4690000D+00 0.1510000D+00
EXPONENTS  0.1510000D+00 0.1510000D+00 0.1510000D+00 0.1510000D+00 0.1510000D+00
EXPONENTS  0.1093000D+01 0.1093000D+01 0.1093000D+01 0.1093000D+01 0.1093000D+01
EXPONENTS  0.1093000D+01 0.1093000D+01 0.1093000D+01 0.1093000D+01 0.1093000D+01
EXPONENTS  0.3640000D+00 0.3640000D+00 0.3640000D+00 0.3640000D+00 0.3640000D+00
EXPONENTS  0.3640000D+00 0.3640000D+00 0.3640000D+00 0.3640000D+00 0.3640000D+00
EXPONENTS  0.3387000D+02 0.5095000D+01 0.1159000D+01 0.3258000D+00 0.1027000D+00
EXPONENTS  0.2526000D-01 0.1407000D+01 0.1407000D+01 0.1407000D+01 0.3880000D+00
EXPONENTS  0.3880000D+00 0.3880000D+00 0.1020000D+00 0.1020000D+00 0.1020000D+00
EXPONENTS  0.1057000D+01 0.1057000D+01 0.1057000D+01 0.1057000D+01 0.1057000D+01
EXPONENTS  0.1057000D+01 0.2470000D+00 0.2470000D+00 0.2470000D+00 0.2470000D+00
EXPONENTS  0.2470000D+00 0.2470000D+00 0.5473000D+04 0.8209000D+03 0.1868000D+03
EXPONENTS  0.5283000D+02 0.1708000D+02 0.5999000D+01 0.2208000D+01 0.2415000D+00
EXPONENTS  0.5473000D+04 0.8209000D+03 0.1868000D+03 0.5283000D+02 0.1708000D+02
EXPONENTS  0.5999000D+01 0.2208000D+01 0.2415000D+00 0.5879000D+00 0.8610000D-01
EXPONENTS  0.2914000D-01 0.1205000D+02 0.2613000D+01 0.7475000D+00 0.1205000D+02
EXPONENTS  0.2613000D+01 0.7475000D+00 0.1205000D+02 0.2613000D+01 0.7475000D+00
EXPONENTS  0.2385000D+00 0.2385000D+00 0.2385000D+00 0.7698000D-01 0.7698000D-01
EXPONENTS  0.7698000D-01 0.2096000D-01 0.2096000D-01 0.2096000D-01 0.6610000D+00
EXPONENTS  0.6610000D+00 0.6610000D+00 0.6610000D+00 0.6610000D+00 0.6610000D+00
EXPONENTS  0.1990000D+00 0.1990000D+00 0.1990000D+00 0.1990000D+00 0.1990000D+00
EXPONENTS  0.1990000D+00 0.6040000D-01 0.6040000D-01 0.6040000D-01 0.6040000D-01
EXPONENTS  0.6040000D-01 0.6040000D-01 0.4900000D+00 0.4900000D+00 0.4900000D+00
EXPONENTS  0.4900000D+00 0.4900000D+00 0.4900000D+00 0.4900000D+00 0.4900000D+00
EXPONENTS  0.4900000D+00 0.4900000D+00 0.1630000D+00 0.1630000D+00 0.1630000D+00
EXPONENTS  0.1630000D+00 0.1630000D+00 0.1630000D+00 0.1630000D+00 0.1630000D+00
EXPONENTS  0.1630000D+00 0.1630000D+00 0.3387000D+02 0.5095000D+01 0.1159000D+01
EXPONENTS  0.3258000D+00 0.1027000D+00 0.2526000D-01 0.1407000D+01 0.1407000D+01
EXPONENTS  0.1407000D+01 0.3880000D+00 0.3880000D+00 0.3880000D+00 0.1020000D+00
EXPONENTS  0.1020000D+00 0.1020000D+00 0.1057000D+01 0.1057000D+01 0.1057000D+01
EXPONENTS  0.1057000D+01 0.1057000D+01 0.1057000D+01 0.2470000D+00 0.2470000D+00
EXPONENTS  0.2470000D+00 0.2470000D+00 0.2470000D+00 0.2470000D+00 0.8236000D+04
EXPONENTS  0.1235000D+04 0.2808000D+03 0.7927000D+02 0.2559000D+02 0.8997000D+01
EXPONENTS  0.3319000D+01 0.3643000D+00 0.8236000D+04 0.1235000D+04 0.2808000D+03
EXPONENTS  0.7927000D+02 0.2559000D+02 0.8997000D+01 0.3319000D+01 0.3643000D+00
EXPONENTS  0.9059000D+00 0.1285000D+00 0.4402000D-01 0.1871000D+02 0.4133000D+01
EXPONENTS  0.1200000D+01 0.1871000D+02 0.4133000D+01 0.1200000D+01 0.1871000D+02
EXPONENTS  0.4133000D+01 0.1200000D+01 0.3827000D+00 0.3827000D+00 0.3827000D+00
EXPONENTS  0.1209000D+00 0.1209000D+00 0.1209000D+00 0.3569000D-01 0.3569000D-01
EXPONENTS  0.3569000D-01 0.1097000D+01 0.1097000D+01 0.1097000D+01 0.1097000D+01
EXPONENTS  0.1097000D+01 0.1097000D+01 0.3180000D+00 0.3180000D+00 0.3180000D+00
EXPONENTS  0.3180000D+00 0.3180000D+00 0.3180000D+00 0.1000000D+00 0.1000000D+00
EXPONENTS  0.1000000D+00 0.1000000D+00 0.1000000D+00 0.1000000D+00 0.7610000D+00
EXPONENTS  0.7610000D+00 0.7610000D+00 0.7610000D+00 0.7610000D+00 0.7610000D+00
EXPONENTS  0.7610000D+00 0.7610000D+00 0.7610000D+00 0.7610000D+00 0.2680000D+00
EXPONENTS  0.2680000D+00 0.2680000D+00 0.2680000D+00 0.2680000D+00 0.2680000D+00
EXPONENTS  0.2680000D+00 0.2680000D+00 0.2680000D+00 0.2680000D+00 0.3387000D+02
EXPONENTS  0.5095000D+01 0.1159000D+01 0.3258000D+00 0.1027000D+00 0.2526000D-01
EXPONENTS  0.1407000D+01 0.1407000D+01 0.1407000D+01 0.3880000D+00 0.3880000D+00
EXPONENTS  0.3880000D+00 0.1020000D+00 0.1020000D+00 0.1020000D+00 0.1057000D+01
EXPONENTS  0.1057000D+01 0.1057000D+01 0.1057000D+01 0.1057000D+01 0.1057000D+01
EXPONENTS  0.2470000D+00 0.2470000D+00 0.2470000D+00 0.2470000D+00 0.2470000D+00
EXPONENTS  0.2470000D+00 0.8236000D+04 0.1235000D+04 0.2808000D+03 0.7927000D+02
EXPONENTS  0.2559000D+02 0.8997000D+01 0.3319000D+01 0.3643000D+00 0.8236000D+04
EXPONENTS  0.1235000D+04 0.2808000D+03 0.7927000D+02 0.2559000D+02 0.8997000D+01
EXPONENTS  0.3319000D+01 0.3643000D+00 0.9059000D+00 0.1285000D+00 0.4402000D-01
EXPONENTS  0.1871000D+02 0.4133000D+01 0.1200000D+01 0.1871000D+02 0.4133000D+01
EXPONENTS  0.1200000D+01 0.1871000D+02 0.4133000D+01 0.1200000D+01 0.3827000D+00
EXPONENTS  0.3827000D+00 0.3827000D+00 0.1209000D+00 0.1209000D+00 0.1209000D+00
EXPONENTS  0.3569000D-01 0.3569000D-01 0.3569000D-01 0.1097000D+01 0.1097000D+01
EXPONENTS  0.1097000D+01 0.1097000D+01 0.1097000D+01 0.1097000D+01 0.3180000D+00
EXPONENTS  0.3180000D+00 0.3180000D+00 0.3180000D+00 0.3180000D+00 0.3180000D+00
EXPONENTS  0.1000000D+00 0.1000000D+00 0.1000000D+00 0.1000000D+00 0.1000000D+00
EXPONENTS  0.1000000D+00 0.7610000D+00 0.7610000D+00 0.7610000D+00 0.7610000D+00
EXPONENTS  0.7610000D+00 0.7610000D+00 0.7610000D+00 0.7610000D+00 0.7610000D+00
EXPONENTS  0.7610000D+00 0.2680000D+00 0.2680000D+00 0.2680000D+00 0.2680000D+00
EXPONENTS  0.2680000D+00 0.2680000D+00 0.2680000D+00 0.2680000D+00 0.2680000D+00
EXPONENTS  0.2680000D+00 0.3387000D+02 0.5095000D+01 0.1159000D+01 0.3258000D+00
EXPONENTS  0.1027000D+00 0.2526000D-01 0.1407000D+01 0.1407000D+01 0.1407000D+01
EXPONENTS  0.3880000D+00 0.3880000D+00 0.3880000D+00 0.1020000D+00 0.1020000D+00
EXPONENTS  0.1020000D+00 0.1057000D+01 0.1057000D+01 0.1057000D+01 0.1057000D+01
EXPONENTS  0.1057000D+01 0.1057000D+01 0.2470000D+00 0.2470000D+00 0.2470000D+00
EXPONENTS  0.2470000D+00 0.2470000D+00 0.2470000D+00 0.3387000D+02 0.5095000D+01
EXPONENTS  0.1159000D+01 0.3258000D+00 0.1027000D+00 0.2526000D-01 0.1407000D+01
EXPONENTS  0.1407000D+01 0.1407000D+01 0.3880000D+00 0.3880000D+00 0.3880000D+00
EXPONENTS  0.1020000D+00 0.1020000D+00 0.1020000D+00 0.1057000D+01 0.1057000D+01
EXPONENTS  0.1057000D+01 0.1057000D+01 0.1057000D+01 0.1057000D+01 0.2470000D+00
EXPONENTS  0.2470000D+00 0.2470000D+00 0.2470000D+00 0.2470000D+00 0.2470000D+00
EXPONENTS  0.3387000D+02 0.5095000D+01 0.1159000D+01 0.3258000D+00 0.1027000D+00
EXPONENTS  0.2526000D-01 0.1407000D+01 0.1407000D+01 0.1407000D+01 0.3880000D+00
EXPONENTS  0.3880000D+00 0.3880000D+00 0.1020000D+00 0.1020000D+00 0.1020000D+00
EXPONENTS  0.1057000D+01 0.1057000D+01 0.1057000D+01 0.1057000D+01 0.1057000D+01
EXPONENTS  0.1057000D+01 0.2470000D+00 0.2470000D+00 0.2470000D+00 0.2470000D+00
EXPONENTS  0.2470000D+00 0.2470000D+00
MO    1     MO 0.0        OCC NO =    2.0000000  ORB. ENERGY =  -14.201529
  0.17594898D-03  0.32786941D-03  0.55255064D-03  0.82440102D-03  0.99857976D-03
  0.83089276D-03  0.30859789D-03 -0.16382813D-05 -0.14142005D-03 -0.26415650D-03
 -0.44959569D-03 -0.68760700D-03 -0.89427370D-03 -0.90520770D-03 -0.59603337D-03
  0.40742170D-03  0.10650105D-02 -0.18053712D-02 -0.77163140D-04 -0.70644668D-04
 -0.63668886D-04 -0.46227740D-04  0.85710094D-03  0.77246682D-03  0.56086100D-03
  0.10765899D-03  0.97028246D-04  0.70448799D-04 -0.47805962D-04  0.19225834D-03
  0.23098198D-04  0.77244934D-04 -0.41611196D-03 -0.50942000D-04  0.75367058D-05
  0.14302181D-05  0.40645208D-06 -0.53505620D-04 -0.69807824D-04  0.12331344D-03
  0.43149727D-04 -0.53860604D-05 -0.48917938D-04 -0.36292361D-03  0.20889670D-03
  0.15402691D-03  0.47771912D-03  0.30246781D-04  0.28979061D-04  0.84246506D-05
 -0.27644492D-05 -0.56602014D-05 -0.44969461D-04 -0.48905574D-05 -0.64491440D-06
  0.32409186D-04 -0.26155862D-03  0.47083324D-04  0.23850399D-04  0.40952636D-03
  0.62574524D-04 -0.12107796D-03  0.37514949D-03 -0.20382450D-03  0.38304958D-04
 -0.59320811D-04 -0.38951482D-04 -0.48827695D-06  0.18135974D-03  0.11936700D-03
  0.10280251D-04 -0.33973024D-05 -0.25125596D-05 -0.88154200D-05  0.55453902D-04
  0.34785408D-04  0.64817485D-04  0.10962262D-03  0.16508559D-03  0.20438667D-03
  0.17392383D-03  0.66181225D-04 -0.30995491D-06 -0.19867948D-04 -0.37252587D-04
 -0.63377735D-04 -0.98418931D-04 -0.13060765D-03 -0.13764253D-03 -0.85347150D-04
  0.56772957D-04 -0.12074290D-05  0.16131385D-02 -0.11235877D-02  0.10814620D-03
  0.10387314D-03  0.72843012D-04 -0.15009719D-03 -0.14416656D-03 -0.10109954D-03
 -0.15860003D-04 -0.15233343D-04 -0.10682672D-04 -0.44197911D-03  0.56661532D-03
  0.58933965D-04  0.40443348D-04  0.73824397D-03  0.94751846D-04  0.11952943D-04
 -0.99511321D-04 -0.12345820D-04  0.17881412D-04  0.69040928D-04 -0.86922340D-04
 -0.24980547D-03 -0.25797300D-04  0.32947229D-04  0.14861229D-03 -0.22948760D-03
  0.80875305D-04 -0.27148726D-04  0.46853152D-06 -0.81678156D-04 -0.16503778D-03
  0.14265661D-03  0.22381175D-04 -0.21141170D-03 -0.38262921D-04  0.24340511D-04
 -0.59723316D-04  0.16318150D-03 -0.73115546D-05  0.77573222D-04 -0.41529136D-03
 -0.64841433D-04  0.10159673D-03 -0.74253146D-04  0.86776097D-04 -0.27338429D-04
  0.23526120D-04 -0.93776233D-04  0.68437848D-06  0.11597526D-03  0.23287077D-03
  0.43804375D-04 -0.18655362D-03  0.48457930D-04 -0.45857511D-04  0.90188631D-04
  0.41330770D+00  0.77013804D+00  0.13024965D+01  0.19614876D+01  0.24284488D+01
  0.20665004D+01  0.78634151D+00 -0.36827728D-02 -0.18558918D-02 -0.34798144D-02
 -0.59201997D-02 -0.91934450D-02 -0.12200236D-01 -0.12857374D-01 -0.79723923D-02
  0.53032384D-02  0.39666185D-01  0.17796197D-02  0.24645443D-02  0.32143181D-03
  0.30873141D-03  0.21650377D-03  0.14825694D-02  0.14239902D-02  0.99860020D-03
  0.19758633D-03  0.18977930D-03  0.13308635D-03 -0.13136376D-02  0.12796950D-02
  0.12431445D-03 -0.21215672D-02 -0.16979010D-03 -0.85851421D-04  0.30454940D-03
 -0.19291722D-03 -0.15518830D-04  0.20934418D-02  0.10607887D-02 -0.31542305D-02
 -0.13792392D-02  0.14489748D-03  0.10548705D-02  0.11512803D-03 -0.41238629D-03
  0.29725826D-03 -0.85264477D-03 -0.12108506D-03 -0.21098609D-03 -0.18452995D-03
 -0.91007025D-04  0.27553697D-03 -0.62634827D-04 -0.35896399D-04 -0.97380523D-04
 -0.42243745D-03 -0.97677073D-03 -0.50296423D-04 -0.61003638D-04  0.36511766D-02
  0.34915576D-03  0.13283160D-02 -0.72086443D-03 -0.19826649D-03 -0.91045748D-04
  0.44846507D-04  0.30474029D-03  0.23003655D-04 -0.17965449D-03 -0.10842308D-02
 -0.13832981D-03  0.45114974D-04  0.17000993D-03  0.69318848D-04 -0.13647189D-03
  0.26926367D-04  0.48562812D-04  0.71605839D-04  0.55676966D-03  0.60651317D-03
  0.82243067D-04  0.25784424D-03  0.18745117D-03  0.31495803D-04 -0.11270424D-03
  0.96834708D-04  0.88350606D-05  0.63591497D-04  0.25911713D-04  0.52381647D-05
 -0.11570785D-03 -0.12975015D-04  0.12868286D-03  0.63818582D-04 -0.65175783D-05
 -0.35613884D-04 -0.71625678D-04  0.34422503D-04  0.37203176D-04  0.47389694D-04
 -0.41750511D-06  0.85515650D-06 -0.17271416D-03 -0.32184153D-03 -0.54239199D-03
 -0.80924440D-03 -0.98022086D-03 -0.81561679D-03 -0.30292432D-03  0.16081615D-05
  0.13287522D-03  0.24819574D-03  0.42243040D-03  0.64606068D-03  0.84024024D-03
  0.85051359D-03  0.56002007D-03 -0.38280462D-03 -0.71360969D-03 -0.15812190D-02
  0.12379859D-03  0.21957078D-03  0.19788935D-03  0.14368050D-03 -0.24152809D-03
 -0.21767849D-03 -0.15804870D-03 -0.24011381D-04 -0.21640386D-04 -0.15712323D-04
  0.12989459D-03  0.14577637D-03  0.22226856D-04 -0.20409245D-03 -0.48624771D-03
 -0.68347415D-04  0.24899965D-05 -0.13332308D-05 -0.93469640D-07  0.73825584D-04
 -0.38470766D-04 -0.35354818D-04 -0.10722916D-03 -0.69154040D-05 -0.42105098D-05
 -0.13510317D-03  0.16820117D-03 -0.33098004D-04  0.17672767D-03  0.16348574D-04
  0.57449336D-04  0.10296643D-04 -0.14848449D-04  0.45518059D-05  0.62195984D-05
  0.11457561D-05 -0.48368254D-05 -0.11306266D-04  0.19166678D-04 -0.14951559D-04
 -0.17090657D-04  0.67500966D-04  0.44317928D-05  0.51009454D-04 -0.12500100D-03
  0.40422883D-04 -0.50761365D-05  0.29531694D-05  0.72843743D-05 -0.11982638D-05
  0.79216483D-05 -0.17094677D-04 -0.78123938D-06 -0.16781156D-04 -0.47584457D-05
  0.43760308D-05  0.56931248D-05 -0.17074740D-04 -0.30794996D-04 -0.45407204D-04
  0.11244451D-03 -0.54230118D-03 -0.41059508D-04 -0.11187877D-04  0.15951775D-03
  0.20054116D-04 -0.21428722D-03  0.35942295D-03  0.39188326D-04  0.19637619D-04
 -0.44332366D-04 -0.50475280D-05 -0.19483800D-04  0.17566137D-03 -0.15617757D-03
 -0.20355926D-03 -0.17257769D-04  0.79529134D-04 -0.27080945D-04  0.54026475D-04
 -0.26945530D-04 -0.45757448D-06  0.11616968D-07  0.21048894D-04  0.35600578D-03
  0.66367572D-03  0.11217289D-02  0.16863259D-02  0.20718463D-02  0.17500054D-02
  0.66003764D-03 -0.32665631D-05 -0.27183218D-03 -0.50895560D-03 -0.86654046D-03
 -0.13404063D-02 -0.17652680D-02 -0.18342265D-02 -0.11655686D-02  0.78113698D-03
  0.99516397D-03  0.10410202D-02 -0.18624919D-02 -0.37852874D-03 -0.35489476D-03
 -0.25270621D-03 -0.33365819D-03 -0.31282576D-03 -0.22275058D-03 -0.54178134D-04
 -0.50795445D-04 -0.36169383D-04 -0.21928670D-02 -0.81062297D-03 -0.16999888D-03
 -0.11055046D-04 -0.15561910D-02 -0.19973939D-03 -0.12855240D-03  0.90094018D-04
  0.76474118D-05  0.18654641D-03 -0.81320329D-04 -0.10522608D-03  0.71906887D-03
  0.10972537D-03  0.29229603D-04 -0.80715634D-03  0.44556941D-03  0.36158693D-03
 -0.59888838D-03 -0.14739210D-03  0.22977164D-05 -0.18592768D-03  0.20586397D-03
 -0.19936296D-04 -0.67412598D-03 -0.96314062D-04  0.37582768D-04 -0.36525740D-04
 -0.19485494D-03 -0.59430869D-04  0.52286847D-03  0.93571487D-03  0.14297573D-03
 -0.41329125D-03 -0.35115005D-03  0.35316875D-04  0.32507380D-03 -0.12370626D-03
 -0.13559326D-03 -0.17319161D-04  0.56004200D-03  0.49187675D-03  0.63909432D-04
 -0.18892321D-03 -0.85096955D-04 -0.11951947D-04  0.23086331D-03  0.16212854D-03
  0.29240549D-03  0.43115173D-03 -0.14449493D-02 -0.10680776D-02  0.36121228D-04
 -0.16564052D-02  0.82710408D-03  0.55667520D-04 -0.19158436D-02  0.11581673D-02
  0.90461364D-04 -0.36063225D-03  0.24754731D-03  0.20884408D-04 -0.17490817D-02
  0.20226986D-03  0.15468118D-02  0.32999194D-02  0.22220715D-03 -0.24771720D-03
 -0.13303302D-03  0.22514447D-04  0.11051857D-03  0.29461328D-03  0.22932167D-04
 -0.13778494D-04  0.16296713D-03  0.30380778D-03  0.51348866D-03  0.77194166D-03
  0.94841952D-03  0.80109190D-03  0.30214239D-03 -0.14953196D-05 -0.12094177D-03
 -0.22644116D-03 -0.38553545D-03 -0.59636472D-03 -0.78539136D-03 -0.81607193D-03
 -0.51857707D-03  0.34753830D-03  0.29205562D-03 -0.38201318D-02  0.14804447D-02
  0.83653397D-04  0.78430377D-04  0.55847101D-04 -0.12259327D-03 -0.11493899D-03
 -0.81843405D-04 -0.13089958D-04 -0.12272668D-04 -0.87388706D-05 -0.15249660D-02
  0.62028770D-03  0.32896124D-04 -0.50935255D-04  0.23394154D-03  0.29461494D-04
 -0.65072659D-04  0.55690508D-04  0.51129464D-05  0.33189597D-03 -0.23975779D-03
 -0.92138187D-04 -0.81758981D-04  0.15302835D-04 -0.40703628D-04 -0.15816168D-03
 -0.33282883D-04  0.19144457D-03 -0.17811149D-02 -0.24907775D-03 -0.11435299D-03
 -0.27827230D-03  0.28954953D-03 -0.11277230D-04 -0.60710348D-03 -0.93715363D-04
  0.58912415D-04  0.11520616D-03  0.47386795D-05 -0.91241237D-05 -0.32978985D-03
  0.53627798D-04  0.17948950D-04 -0.15828621D-04 -0.67843836D-04  0.94234214D-05
 -0.73273244D-04  0.13270001D-03 -0.19136826D-03  0.16445635D-04 -0.38197807D-03
  0.45411408D-03  0.70731333D-04 -0.16121961D-04  0.11999069D-03 -0.12006824D-03
 -0.75246730D-04 -0.53866111D-05 -0.97149750D-05 -0.14324725D-04  0.24511418D-03
  0.16047185D-04 -0.25918710D-04 -0.16284697D-04 -0.18715932D-04 -0.28431547D-05
 -0.11188994D-03  0.63913734D-04  0.47288086D-05  0.48095511D-07 -0.16759635D-04
 -0.22079665D-05  0.54131242D-04 -0.20245994D-05 -0.52106643D-04 -0.24184859D-04
  0.33780320D-05  0.12396986D-04 -0.59819408D-05 -0.13347525D-04  0.19329466D-04
 -0.16717547D-04 -0.37536365D-05 -0.90460008D-05  0.56833789D-04  0.10250208D-03
  0.15113926D-03  0.62714676D-03 -0.10316380D-02 -0.90810232D-04  0.22735553D-03
 -0.27137716D-03 -0.27782120D-04 -0.36180825D-03  0.20180045D-03  0.14461999D-04
  0.27548340D-03  0.31494284D-04  0.12434476D-04 -0.20715376D-03 -0.18070566D-04
  0.22522432D-03 -0.32395255D-03 -0.67573678D-04 -0.73450415D-04 -0.36854967D-04
 -0.39353239D-04  0.76208206D-04  0.55058164D-06 -0.68392560D-05 -0.30068512D-04
 -0.15480238D-04 -0.27919247D-04 -0.41166913D-04  0.17040553D-02  0.39853997D-02
  0.25203426D-04  0.55212940D-04 -0.14127658D-03 -0.16299432D-04 -0.14330838D-02
  0.47205163D-04 -0.37320080D-04 -0.26767208D-03 -0.47694167D-03 -0.68830682D-04
  0.29729657D-03 -0.14321936D-03 -0.15407721D-03  0.10531670D-03  0.40787571D-04
  0.62173008D-05  0.78995132D-04 -0.56988743D-04 -0.22006389D-04  0.81036148D-04
  0.16474236D-04 -0.65747721D-05
MO    2     MO 0.0        OCC NO =    2.0000000  ORB. ENERGY =  -14.167559
  0.19686669D-03  0.36684820D-03  0.61824067D-03  0.92241001D-03  0.11172960D-02
  0.92967352D-03  0.34528558D-03 -0.18330485D-05 -0.15666686D-03 -0.29263580D-03
 -0.49806761D-03 -0.76173945D-03 -0.99068734D-03 -0.10028002D-02 -0.66029305D-03
  0.45134674D-03  0.12437987D-02 -0.15508047D-02 -0.19052585D-04  0.81201660D-03
  0.73183432D-03  0.53135917D-03 -0.34458106D-03 -0.31055553D-03 -0.22548345D-03
 -0.19108643D-04 -0.17221767D-04 -0.12504120D-04  0.97577155D-03 -0.94386767D-03
 -0.91089330D-04 -0.42565142D-03  0.20347817D-03  0.13125697D-04 -0.22038193D-05
  0.41581386D-05  0.47035642D-06 -0.26749839D-04 -0.14506403D-03  0.17181387D-03
  0.34045774D-04 -0.79469822D-05 -0.81347283D-04  0.35256593D-03 -0.52213169D-03
  0.16956576D-03 -0.58227021D-04  0.32702016D-05 -0.18142590D-03 -0.10027481D-04
  0.10681305D-04 -0.65382331D-06  0.16542275D-05 -0.31275638D-06  0.30128913D-05
 -0.25196873D-03 -0.15277640D-03 -0.84193384D-05  0.33837592D-03  0.62386840D-03
  0.31262402D-04  0.41753027D-03 -0.16553921D-03 -0.60043865D-05  0.27982348D-04
  0.39888355D-04 -0.41702765D-04  0.17754572D-05 -0.15956377D-03  0.12348047D-03
  0.16850052D-04  0.39898709D-04  0.16278252D-05 -0.22176423D-04 -0.44730165D-04
  0.41300367D+00  0.76957152D+00  0.13015384D+01  0.19600447D+01  0.24266624D+01
  0.20649802D+01  0.78576307D+00 -0.36800637D-02 -0.16378365D-02 -0.30709588D-02
 -0.52246147D-02 -0.81132749D-02 -0.10766788D-01 -0.11346716D-01 -0.70356880D-02
  0.46801423D-02  0.39490460D-01  0.76692190D-03  0.21768890D-02 -0.24569600D-03
 -0.23598807D-03 -0.16549112D-03 -0.10092994D-02 -0.96942004D-03 -0.67982425D-03
 -0.13715334D-03 -0.13173414D-03 -0.92381074D-04  0.56714692D-04 -0.21415681D-02
 -0.27179145D-03  0.55176174D-03 -0.25661685D-02 -0.31136673D-03 -0.57058435D-04
  0.31506444D-03  0.38500522D-04  0.58045151D-03  0.24706536D-02 -0.30511052D-02
 -0.28580618D-03  0.19107684D-03  0.14269240D-02 -0.62102492D-03  0.40576618D-03
  0.21525874D-03 -0.13202511D-03 -0.67591723D-04  0.44845766D-04  0.89198081D-04
 -0.35308649D-03  0.26388841D-03  0.23618811D-03  0.19142523D-04 -0.15278208D-03
 -0.18634614D-03 -0.15325223D-02  0.18076555D-03  0.58577958D-03  0.32665616D-02
  0.40329452D-03 -0.26741150D-04  0.13310054D-02 -0.94559116D-03  0.27331427D-03
  0.99795051D-04  0.37636327D-03 -0.11076232D-04 -0.28906457D-03 -0.10562847D-02
 -0.12605998D-03 -0.10320587D-04 -0.72805116D-04  0.15928867D-03 -0.13340189D-03
  0.69860869D-05  0.13017544D-04  0.22015931D-04  0.33154772D-04  0.41047759D-04
  0.34929790D-04  0.13291429D-04 -0.62249435D-07 -0.65115249D-05 -0.12209170D-04
 -0.20771431D-04 -0.32255839D-04 -0.42805374D-04 -0.45110989D-04 -0.27971691D-04
  0.18606780D-04 -0.10618121D-03  0.20276296D-02 -0.41682553D-03 -0.33993152D-04
 -0.32650016D-04 -0.22896445D-04  0.25362108D-03  0.24360001D-03  0.17082914D-03
  0.31472716D-04  0.30229168D-04  0.21198779D-04  0.13470144D-03 -0.75212228D-03
 -0.92246386D-04  0.63674181D-03 -0.53411030D-03 -0.49166102D-04 -0.28567854D-04
  0.11951133D-03  0.14437104D-04 -0.39796014D-04  0.63011063D-04 -0.23215050D-04
 -0.31575078D-03 -0.41691694D-04  0.11697902D-04 -0.18786595D-03  0.25515292D-03
 -0.67286966D-04  0.33747054D-03  0.36431611D-04  0.95106081D-04 -0.10465042D-03
  0.18877072D-03 -0.84120305D-04 -0.18771308D-03 -0.24915822D-04  0.65286364D-04
  0.72700840D-04  0.28570300D-04  0.20569840D-04 -0.25395710D-03 -0.22978828D-03
 -0.25741783D-04  0.35854583D-04  0.14407738D-03 -0.35967736D-04 -0.99421437D-04
  0.47808162D-04 -0.36409588D-04 -0.23142752D-04 -0.10448335D-03  0.27507878D-03
  0.42430461D-04 -0.38941134D-04 -0.16585002D-03  0.26997794D-04  0.10925736D-04
  0.30363249D-04  0.54761370D-04  0.80745608D-04  0.29289545D-03  0.11023647D-03
  0.20192737D-05  0.26764879D-03  0.50219366D-04  0.14104547D-04  0.85408731D-04
 -0.20412491D-03 -0.22855973D-04  0.44389363D-04  0.18554930D-05  0.17982772D-05
  0.11044269D-03 -0.24570554D-03  0.13526285D-03 -0.16279079D-03 -0.22596567D-04