 Molden2AIM, Version 4.0.0 (06/02/2016)           Time: Thu Jun 28 18:13:05 2018
GAUSSIAN             12 MOL ORBITALS    333 PRIMITIVES        7 NUCLEI
  O    1    (CENTRE  1)   0.00296498  0.00000000  0.00488872  CHARGE =  8.0
  C    2    (CENTRE  2)  -0.00141729  0.00000000  2.69919031  CHARGE =  6.0
  C    3    (CENTRE  3)   2.37587140  0.00000000  1.28089227  CHARGE =  6.0
  H    4    (CENTRE  4)  -0.66435590 -1.75091440  3.57341352  CHARGE =  1.0
  H    5    (CENTRE  5)  -0.66435590  1.75091440  3.57341352  CHARGE =  1.0
  H    6    (CENTRE  6)   3.46004318 -1.75093141  1.11288995  CHARGE =  1.0
  H    7    (CENTRE  7)   3.46004318  1.75093141  1.11288995  CHARGE =  1.0
CENTRE ASSIGNMENTS    1  1  1  1  1  1  1  1  1  1  1  1  1  1  1  1  1  1  1  1
CENTRE ASSIGNMENTS    1  1  1  1  1  1  1  1  1  1  1  1  1  1  1  1  1  1  1  1
CENTRE ASSIGNMENTS    1  1  1  1  1  1  1  1  1  1  1  1  1  1  1  1  1  1  1  1
CENTRE ASSIGNMENTS    1  1  1  1  1  1  1  1  1  1  1  1  1  1  1  2  2  2  2  2
CENTRE ASSIGNMENTS    2  2  2  2  2  2  2  2  2  2  2  2  2  2  2  2  2  2  2  2
CENTRE ASSIGNMENTS    2  2  2  2  2  2  2  2  2  2  2  2  2  2  2  2  2  2  2  2
CENTRE ASSIGNMENTS    2  2  2  2  2  2  2  2  2  2  2  2  2  2  2  2  2  2  2  2
CENTRE ASSIGNMENTS    2  2  2  2  2  2  2  2  2  2  3  3  3  3  3  3  3  3  3  3
CENTRE ASSIGNMENTS    3  3  3  3  3  3  3  3  3  3  3  3  3  3  3  3  3  3  3  3
CENTRE ASSIGNMENTS    3  3  3  3  3  3  3  3  3  3  3  3  3  3  3  3  3  3  3  3
CENTRE ASSIGNMENTS    3  3  3  3  3  3  3  3  3  3  3  3  3  3  3  3  3  3  3  3
CENTRE ASSIGNMENTS    3  3  3  3  3  4  4  4  4  4  4  4  4  4  4  4  4  4  4  4
CENTRE ASSIGNMENTS    4  4  4  4  4  4  4  4  4  4  4  4  5  5  5  5  5  5  5  5
CENTRE ASSIGNMENTS    5  5  5  5  5  5  5  5  5  5  5  5  5  5  5  5  5  5  5  6
CENTRE ASSIGNMENTS    6  6  6  6  6  6  6  6  6  6  6  6  6  6  6  6  6  6  6  6
CENTRE ASSIGNMENTS    6  6  6  6  6  6  7  7  7  7  7  7  7  7  7  7  7  7  7  7
CENTRE ASSIGNMENTS    7  7  7  7  7  7  7  7  7  7  7  7  7
TYPE ASSIGNMENTS      1  1  1  1  1  1  1  1  1  1  1  1  1  1  1  1  1  1  1  2
TYPE ASSIGNMENTS      2  2  3  3  3  4  4  4  2  3  4  2  3  4  2  3  4  5  6  7
TYPE ASSIGNMENTS      8  9 10  5  6  7  8  9 10  5  6  7  8  9 10 11 12 13 17 14
TYPE ASSIGNMENTS     15 18 19 16 20 11 12 13 17 14 15 18 19 16 20  1  1  1  1  1
TYPE ASSIGNMENTS      1  1  1  1  1  1  1  1  1  1  1  1  1  1  2  2  2  3  3  3
TYPE ASSIGNMENTS      4  4  4  2  3  4  2  3  4  2  3  4  5  6  7  8  9 10  5  6
TYPE ASSIGNMENTS      7  8  9 10  5  6  7  8  9 10 11 12 13 17 14 15 18 19 16 20
TYPE ASSIGNMENTS     11 12 13 17 14 15 18 19 16 20  1  1  1  1  1  1  1  1  1  1
TYPE ASSIGNMENTS      1  1  1  1  1  1  1  1  1  2  2  2  3  3  3  4  4  4  2  3
TYPE ASSIGNMENTS      4  2  3  4  2  3  4  5  6  7  8  9 10  5  6  7  8  9 10  5
TYPE ASSIGNMENTS      6  7  8  9 10 11 12 13 17 14 15 18 19 16 20 11 12 13 17 14
TYPE ASSIGNMENTS     15 18 19 16 20  1  1  1  1  1  1  2  3  4  2  3  4  2  3  4
TYPE ASSIGNMENTS      5  6  7  8  9 10  5  6  7  8  9 10  1  1  1  1  1  1  2  3
TYPE ASSIGNMENTS      4  2  3  4  2  3  4  5  6  7  8  9 10  5  6  7  8  9 10  1
TYPE ASSIGNMENTS      1  1  1  1  1  2  3  4  2  3  4  2  3  4  5  6  7  8  9 10
TYPE ASSIGNMENTS      5  6  7  8  9 10  1  1  1  1  1  1  2  3  4  2  3  4  2  3
TYPE ASSIGNMENTS      4  5  6  7  8  9 10  5  6  7  8  9 10
EXPONENTS  0.1533000D+05 0.2299000D+04 0.5224000D+03 0.1473000D+03 0.4755000D+02
EXPONENTS  0.1676000D+02 0.6207000D+01 0.6882000D+00 0.1533000D+05 0.2299000D+04
EXPONENTS  0.5224000D+03 0.1473000D+03 0.4755000D+02 0.1676000D+02 0.6207000D+01
EXPONENTS  0.6882000D+00 0.1752000D+01 0.2384000D+00 0.7376000D-01 0.3446000D+02
EXPONENTS  0.7749000D+01 0.2280000D+01 0.3446000D+02 0.7749000D+01 0.2280000D+01
EXPONENTS  0.3446000D+02 0.7749000D+01 0.2280000D+01 0.7156000D+00 0.7156000D+00
EXPONENTS  0.7156000D+00 0.2140000D+00 0.2140000D+00 0.2140000D+00 0.5974000D-01
EXPONENTS  0.5974000D-01 0.5974000D-01 0.2314000D+01 0.2314000D+01 0.2314000D+01
EXPONENTS  0.2314000D+01 0.2314000D+01 0.2314000D+01 0.6450000D+00 0.6450000D+00
EXPONENTS  0.6450000D+00 0.6450000D+00 0.6450000D+00 0.6450000D+00 0.2140000D+00
EXPONENTS  0.2140000D+00 0.2140000D+00 0.2140000D+00 0.2140000D+00 0.2140000D+00
EXPONENTS  0.1428000D+01 0.1428000D+01 0.1428000D+01 0.1428000D+01 0.1428000D+01
EXPONENTS  0.1428000D+01 0.1428000D+01 0.1428000D+01 0.1428000D+01 0.1428000D+01
EXPONENTS  0.5000000D+00 0.5000000D+00 0.5000000D+00 0.5000000D+00 0.5000000D+00
EXPONENTS  0.5000000D+00 0.5000000D+00 0.5000000D+00 0.5000000D+00 0.5000000D+00
EXPONENTS  0.8236000D+04 0.1235000D+04 0.2808000D+03 0.7927000D+02 0.2559000D+02
EXPONENTS  0.8997000D+01 0.3319000D+01 0.3643000D+00 0.8236000D+04 0.1235000D+04
EXPONENTS  0.2808000D+03 0.7927000D+02 0.2559000D+02 0.8997000D+01 0.3319000D+01
EXPONENTS  0.3643000D+00 0.9059000D+00 0.1285000D+00 0.4402000D-01 0.1871000D+02
EXPONENTS  0.4133000D+01 0.1200000D+01 0.1871000D+02 0.4133000D+01 0.1200000D+01
EXPONENTS  0.1871000D+02 0.4133000D+01 0.1200000D+01 0.3827000D+00 0.3827000D+00
EXPONENTS  0.3827000D+00 0.1209000D+00 0.1209000D+00 0.1209000D+00 0.3569000D-01
EXPONENTS  0.3569000D-01 0.3569000D-01 0.1097000D+01 0.1097000D+01 0.1097000D+01
EXPONENTS  0.1097000D+01 0.1097000D+01 0.1097000D+01 0.3180000D+00 0.3180000D+00
EXPONENTS  0.3180000D+00 0.3180000D+00 0.3180000D+00 0.3180000D+00 0.1000000D+00
EXPONENTS  0.1000000D+00 0.1000000D+00 0.1000000D+00 0.1000000D+00 0.1000000D+00
EXPONENTS  0.7610000D+00 0.7610000D+00 0.7610000D+00 0.7610000D+00 0.7610000D+00
EXPONENTS  0.7610000D+00 0.7610000D+00 0.7610000D+00 0.7610000D+00 0.7610000D+00
EXPONENTS  0.2680000D+00 0.2680000D+00 0.2680000D+00 0.2680000D+00 0.2680000D+00
EXPONENTS  0.2680000D+00 0.2680000D+00 0.2680000D+00 0.2680000D+00 0.2680000D+00
EXPONENTS  0.8236000D+04 0.1235000D+04 0.2808000D+03 0.7927000D+02 0.2559000D+02
EXPONENTS  0.8997000D+01 0.3319000D+01 0.3643000D+00 0.8236000D+04 0.1235000D+04
EXPONENTS  0.2808000D+03 0.7927000D+02 0.2559000D+02 0.8997000D+01 0.3319000D+01
EXPONENTS  0.3643000D+00 0.9059000D+00 0.1285000D+00 0.4402000D-01 0.1871000D+02
EXPONENTS  0.4133000D+01 0.1200000D+01 0.1871000D+02 0.4133000D+01 0.1200000D+01
EXPONENTS  0.1871000D+02 0.4133000D+01 0.1200000D+01 0.3827000D+00 0.3827000D+00
EXPONENTS  0.3827000D+00 0.1209000D+00 0.1209000D+00 0.1209000D+00 0.3569000D-01
EXPONENTS  0.3569000D-01 0.3569000D-01 0.1097000D+01 0.1097000D+01 0.1097000D+01
EXPONENTS  0.1097000D+01 0.1097000D+01 0.1097000D+01 0.3180000D+00 0.3180000D+00
EXPONENTS  0.3180000D+00 0.3180000D+00 0.3180000D+00 0.3180000D+00 0.1000000D+00
EXPONENTS  0.1000000D+00 0.1000000D+00 0.1000000D+00 0.1000000D+00 0.1000000D+00
EXPONENTS  0.7610000D+00 0.7610000D+00 0.7610000D+00 0.7610000D+00 0.7610000D+00
EXPONENTS  0.7610000D+00 0.7610000D+00 0.7610000D+00 0.7610000D+00 0.7610000D+00
EXPONENTS  0.2680000D+00 0.2680000D+00 0.2680000D+00 0.2680000D+00 0.2680000D+00
EXPONENTS  0.2680000D+00 0.2680000D+00 0.2680000D+00 0.2680000D+00 0.2680000D+00
EXPONENTS  0.3387000D+02 0.5095000D+01 0.1159000D+01 0.3258000D+00 0.1027000D+00
EXPONENTS  0.2526000D-01 0.1407000D+01 0.1407000D+01 0.1407000D+01 0.3880000D+00
EXPONENTS  0.3880000D+00 0.3880000D+00 0.1020000D+00 0.1020000D+00 0.1020000D+00
EXPONENTS  0.1057000D+01 0.1057000D+01 0.1057000D+01 0.1057000D+01 0.1057000D+01
EXPONENTS  0.1057000D+01 0.2470000D+00 0.2470000D+00 0.2470000D+00 0.2470000D+00
EXPONENTS  0.2470000D+00 0.2470000D+00 0.3387000D+02 0.5095000D+01 0.1159000D+01
EXPONENTS  0.3258000D+00 0.1027000D+00 0.2526000D-01 0.1407000D+01 0.1407000D+01
EXPONENTS  0.1407000D+01 0.3880000D+00 0.3880000D+00 0.3880000D+00 0.1020000D+00
EXPONENTS  0.1020000D+00 0.1020000D+00 0.1057000D+01 0.1057000D+01 0.1057000D+01
EXPONENTS  0.1057000D+01 0.1057000D+01 0.1057000D+01 0.2470000D+00 0.2470000D+00
EXPONENTS  0.2470000D+00 0.2470000D+00 0.2470000D+00 0.2470000D+00 0.3387000D+02
EXPONENTS  0.5095000D+01 0.1159000D+01 0.3258000D+00 0.1027000D+00 0.2526000D-01
EXPONENTS  0.1407000D+01 0.1407000D+01 0.1407000D+01 0.3880000D+00 0.3880000D+00
EXPONENTS  0.3880000D+00 0.1020000D+00 0.1020000D+00 0.1020000D+00 0.1057000D+01
EXPONENTS  0.1057000D+01 0.1057000D+01 0.1057000D+01 0.1057000D+01 0.1057000D+01
EXPONENTS  0.2470000D+00 0.2470000D+00 0.2470000D+00 0.2470000D+00 0.2470000D+00
EXPONENTS  0.2470000D+00 0.3387000D+02 0.5095000D+01 0.1159000D+01 0.3258000D+00
EXPONENTS  0.1027000D+00 0.2526000D-01 0.1407000D+01 0.1407000D+01 0.1407000D+01
EXPONENTS  0.3880000D+00 0.3880000D+00 0.3880000D+00 0.1020000D+00 0.1020000D+00
EXPONENTS  0.1020000D+00 0.1057000D+01 0.1057000D+01 0.1057000D+01 0.1057000D+01
EXPONENTS  0.1057000D+01 0.1057000D+01 0.2470000D+00 0.2470000D+00 0.2470000D+00
EXPONENTS  0.2470000D+00 0.2470000D+00 0.2470000D+00
MO    1     MO 0.0        OCC NO =    2.0000000  ORB. ENERGY =  -18.991955
  0.49890443D+00  0.92989367D+00  0.15767916D+01  0.23865475D+01  0.29777144D+01
  0.25574596D+01  0.98185846D+00 -0.43919132D-02 -0.73654668D-03 -0.13814116D-02
 -0.23550039D-02 -0.36804126D-02 -0.49214130D-02 -0.52549217D-02 -0.32127561D-02
  0.21195813D-02  0.50034520D-01 -0.24329577D-02 -0.81905057D-03  0.48252053D-02
  0.46788260D-02  0.31563084D-02 -0.43612199D-16 -0.42289162D-16 -0.28528019D-16
  0.80883818D-02  0.78430096D-02  0.52908479D-02 -0.76040677D-03  0.16164737D-15
 -0.12748544D-02 -0.75988389D-03 -0.79729150D-15 -0.12738776D-02 -0.33951515D-04
 -0.15275623D-15 -0.56901850D-04 -0.19930236D-03 -0.55683294D-03  0.75613530D-03
 -0.10938668D-15  0.17696455D-02  0.94809631D-15 -0.13672917D-03  0.70343330D-03
 -0.56670413D-03  0.21280893D-15 -0.79633957D-03 -0.64779525D-15 -0.18786487D-04
  0.14358810D-03 -0.12480161D-03  0.59377145D-15 -0.19638916D-03 -0.59885194D-15
 -0.40259121D-05 -0.18210730D-16 -0.85558241D-04  0.20948839D-03 -0.79541599D-15
 -0.93788668D-04 -0.19741065D-03  0.85004818D-15  0.35046339D-03 -0.69719981D-15
 -0.79852506D-04  0.46315369D-16 -0.93780292D-04  0.22123792D-03  0.51892761D-15
 -0.89587975D-04  0.18319597D-04 -0.65787371D-15  0.37092885D-03  0.49840702D-15
  0.25522376D-03  0.47579512D-03  0.80417758D-03  0.12089423D-02  0.14853253D-02
  0.12545947D-02  0.47318695D-03 -0.23418286D-05 -0.18396203D-03 -0.34443496D-03
 -0.58643000D-03 -0.90711804D-03 -0.11946425D-02 -0.12413101D-02 -0.78879686D-03
  0.52863331D-03 -0.11288689D-04 -0.28650468D-03  0.95698126D-04  0.32163661D-04
  0.30155477D-04  0.21472496D-04 -0.60367190D-16 -0.56598078D-16 -0.40301203D-16
  0.44517931D-03  0.41738390D-03  0.29720220D-03  0.20759403D-03  0.76333481D-16
 -0.19228105D-02  0.10299488D-03  0.25249803D-15 -0.31741493D-03  0.25405117D-05
  0.50537714D-16 -0.59185839D-05 -0.40203186D-03 -0.50805320D-03  0.91008506D-03
 -0.12768852D-15 -0.17273757D-03  0.11525041D-14 -0.48670039D-04 -0.21795294D-03
  0.26662298D-03  0.73105905D-15  0.24104206D-03 -0.22691320D-14  0.59068824D-05
 -0.26920463D-04  0.21013580D-04  0.13357882D-14 -0.22967858D-04 -0.19830441D-14
 -0.69688332D-04 -0.11861457D-15 -0.14304436D-03  0.11957383D-04  0.38634111D-15
  0.38425454D-03  0.19710761D-03 -0.30497405D-16  0.44878525D-04 -0.22716715D-16
  0.14807987D-04 -0.19484501D-15  0.43598737D-04  0.38429854D-04 -0.15409481D-16
  0.20774909D-04 -0.82853816D-04  0.59994450D-15 -0.15157112D-03 -0.14997747D-15
  0.25527740D-03  0.47589511D-03  0.80434657D-03  0.12091964D-02  0.14856374D-02
  0.12548583D-02  0.47328639D-03 -0.23423208D-05 -0.18400440D-03 -0.34451429D-03
 -0.58656506D-03 -0.90732696D-03 -0.11949177D-02 -0.12415960D-02 -0.78897853D-03
  0.52875506D-03 -0.11122052D-04 -0.28740996D-03  0.95835776D-04  0.37629106D-03
  0.35279679D-03  0.25121233D-03  0.41793399D-15  0.39183968D-15  0.27901319D-15
  0.23962330D-03  0.22466207D-03  0.15997278D-03 -0.17906540D-02 -0.16221451D-14
 -0.73067656D-03 -0.32805240D-03 -0.53052535D-15 -0.60185942D-04 -0.64260805D-05
  0.15090187D-15 -0.57254113D-06  0.68630262D-03 -0.50812874D-03 -0.17817388D-03
 -0.10454890D-14  0.10023335D-02 -0.24073791D-15  0.94525617D-04 -0.21788276D-03
  0.12335714D-03  0.81298797D-15  0.39555878D-03  0.33012463D-15  0.27177080D-04
 -0.26896495D-04 -0.28058492D-06  0.19867203D-14  0.25224131D-07 -0.27124688D-15
 -0.86136448D-04  0.68503347D-16  0.11765821D-03  0.33647313D-04 -0.26035013D-15
 -0.38468052D-03  0.22476203D-03  0.54840088D-16  0.31705890D-04  0.52086029D-15
  0.62753900D-04  0.18279276D-15  0.59568285D-05 -0.15174337D-03 -0.53350047D-15
  0.20372682D-04 -0.36518333D-04 -0.14877805D-16 -0.38243167D-04 -0.11695755D-15
  0.10158376D-04  0.18321049D-04  0.27014376D-04  0.69764935D-03  0.30282055D-03
 -0.40576584D-05  0.57808532D-04  0.67283543D-04 -0.29426918D-04  0.14747639D-03
  0.33958486D-03 -0.47120713D-04  0.28863632D-04  0.29027370D-04 -0.53213871D-04
  0.36122999D-04  0.18098460D-03 -0.21710760D-03  0.18738563D-03 -0.50599617D-05
  0.72599345D-04  0.15177282D-04  0.18362244D-04 -0.33539526D-04  0.17732120D-04
  0.21099671D-04 -0.70814388D-04  0.10158376D-04  0.18321049D-04  0.27014376D-04
  0.69764935D-03  0.30282055D-03 -0.40576584D-05  0.57808532D-04 -0.67283543D-04
 -0.29426918D-04  0.14747639D-03 -0.33958486D-03 -0.47120713D-04  0.28863632D-04
 -0.29027370D-04 -0.53213871D-04  0.36122999D-04  0.18098460D-03 -0.21710760D-03
 -0.18738563D-03 -0.50599617D-05 -0.72599345D-04  0.15177282D-04  0.18362244D-04
 -0.33539526D-04 -0.17732120D-04  0.21099671D-04  0.70814388D-04  0.10165560D-04
  0.18334005D-04  0.27033480D-04  0.69790166D-03  0.30278571D-03 -0.40506939D-05
 -0.53393423D-04  0.67320292D-04  0.36864179D-04 -0.11143777D-03  0.33967505D-03
  0.10751310D-03 -0.60509315D-04  0.29054811D-04  0.12796960D-06 -0.15791055D-03
  0.18103946D-03 -0.23128906D-04 -0.25104620D-04 -0.21455144D-03  0.19944152D-03
 -0.31385675D-04  0.18371743D-04  0.13013931D-04 -0.70727370D-04 -0.29167005D-04
 -0.18020774D-04  0.10165560D-04  0.18334005D-04  0.27033480D-04  0.69790166D-03
  0.30278571D-03 -0.40506939D-05 -0.53393423D-04 -0.67320292D-04  0.36864179D-04
 -0.11143777D-03 -0.33967505D-03  0.10751310D-03 -0.60509315D-04 -0.29054811D-04
  0.12796960D-06 -0.15791055D-03  0.18103946D-03 -0.23128906D-04  0.25104620D-04
 -0.21455144D-03 -0.19944152D-03 -0.31385675D-04  0.18371743D-04  0.13013931D-04
  0.70727370D-04 -0.29167005D-04  0.18020774D-04
MO    2     MO 0.0        OCC NO =    2.0000000  ORB. ENERGY =  -10.105290
  0.51121761D-03  0.95284385D-03  0.16157074D-02  0.24454485D-02  0.30512057D-02
  0.26205788D-02  0.10060911D-02 -0.45003074D-05 -0.38651711D-03 -0.72492243D-03
 -0.12358338D-02 -0.19313677D-02 -0.25826066D-02 -0.27576218D-02 -0.16859559D-02
  0.11122913D-02  0.40893433D-03  0.66488780D-03  0.29526800D-03  0.28993240D-03
  0.28113690D-03  0.18965329D-03  0.12808199D-14  0.12419644D-14  0.83782187D-15
  0.50004054D-03  0.48487112D-03  0.32709119D-03  0.45770930D-03  0.15355733D-14
  0.78309346D-03 -0.48334485D-03  0.42697961D-14 -0.78452700D-03 -0.29326407D-05
  0.54378303D-15 -0.25603055D-05  0.41648400D-03 -0.10371001D-02  0.62061607D-03
  0.60572935D-14  0.29834628D-03 -0.80352428D-14 -0.33395130D-03  0.58007067D-03
 -0.24611937D-03 -0.44263559D-14  0.20981192D-03  0.63944985D-14  0.97204713D-04
  0.89830925D-04 -0.18703564D-03  0.86297804D-15 -0.52847474D-03  0.18229485D-14
 -0.62552220D-03  0.78001540D-15 -0.28707928D-03  0.59202516D-03 -0.86982483D-15
 -0.17294828D-03  0.12845414D-02 -0.14702214D-14  0.10341861D-02 -0.35004832D-14
 -0.53672495D-04 -0.43649379D-15 -0.11162459D-03  0.25373047D-03 -0.11321986D-14
 -0.93486086D-04 -0.92712981D-04  0.24416800D-14  0.42835984D-03  0.37829501D-15
  0.23706217D+00  0.44193778D+00  0.74695271D+00  0.11229146D+01  0.13796303D+01
  0.11653184D+01  0.43951521D+00 -0.21751853D-02 -0.20276958D-02 -0.37964863D-02
 -0.64638427D-02 -0.99985818D-02 -0.13167780D-01 -0.13682167D-01 -0.86944032D-02
  0.58267868D-02  0.23481225D-01 -0.12655852D-02 -0.23229014D-04  0.76710042D-03
  0.71920540D-03  0.51211709D-03 -0.14488508D-13 -0.13583898D-13 -0.96725444D-14
 -0.21313788D-02 -0.19983031D-02 -0.14229109D-02  0.49917137D-03  0.61682620D-13
 -0.30375549D-03  0.12289840D-03 -0.27832313D-14  0.29856438D-03  0.61324478D-05
 -0.11559596D-14  0.47783942D-05 -0.95723489D-03  0.71202626D-03  0.24520863D-03
 -0.35289716D-14 -0.32306007D-02  0.96332846D-14 -0.35262973D-03  0.40473717D-03
 -0.52107435D-04 -0.38394264D-13  0.11855240D-02  0.42163012D-13  0.25579849D-06
  0.36832178D-04 -0.37087977D-04  0.87766391D-14  0.30748182D-04 -0.72201197D-14
  0.23766697D-03  0.47575941D-14 -0.63994476D-03 -0.70735701D-03 -0.10245840D-13
  0.19816759D-03 -0.56438909D-05 -0.40269429D-14  0.17216667D-02 -0.11648547D-13
 -0.14784240D-03  0.26155825D-14  0.76680916D-04  0.57909706D-03 -0.46676457D-14
  0.32445325D-03 -0.13556985D-03 -0.31791019D-14 -0.55449599D-03  0.26657011D-14
  0.22928955D+00  0.42744785D+00  0.72246216D+00  0.10860973D+01  0.13343960D+01
  0.11271107D+01  0.42510470D+00 -0.21038669D-02 -0.19672158D-02 -0.36832486D-02
 -0.62710459D-02 -0.97003544D-02 -0.12775026D-01 -0.13274070D-01 -0.84350755D-02
  0.56529914D-02  0.22759785D-01 -0.12241005D-02  0.33091612D-05 -0.21839481D-02
 -0.20475902D-02 -0.14580062D-02  0.18961112D-14  0.17777248D-14  0.12658460D-14
 -0.30294893D-03 -0.28403388D-03 -0.20224904D-03 -0.56064997D-03 -0.74164397D-14
  0.30432701D-03  0.21422767D-03  0.15694863D-13  0.24564870D-03 -0.22699508D-06
  0.77629407D-15  0.81968737D-05  0.12930375D-02  0.68585449D-03 -0.19788920D-02
  0.65937661D-14 -0.75495762D-03 -0.47511766D-14 -0.61038568D-03  0.38623666D-03
  0.22414902D-03 -0.30011026D-13  0.92963554D-03  0.11482237D-13 -0.42429978D-04
  0.38112176D-04  0.43178017D-05  0.13055477D-13 -0.13261703D-04 -0.52167073D-14
 -0.39583694D-03 -0.16245620D-14  0.15933820D-03  0.17173339D-02  0.82013830D-15
 -0.70524483D-03 -0.52982308D-03  0.40535478D-14  0.22723023D-03 -0.29605572D-14
  0.17736728D-03 -0.16025992D-14  0.22548997D-05 -0.73547692D-03  0.31419326D-14
 -0.25341326D-03  0.20337509D-03  0.16658650D-14  0.24664856D-03 -0.41040575D-14
  0.19693972D-04  0.35518890D-04  0.52372583D-04  0.46085843D-03 -0.16338746D-03
 -0.48982547D-05 -0.15762140D-03 -0.90492073D-03  0.49228850D-03 -0.88437868D-03
 -0.71389347D-03  0.49288920D-03 -0.99075361D-04 -0.23589054D-04  0.51915795D-04
  0.16779725D-03 -0.46416642D-03  0.29636917D-03 -0.12439153D-02  0.81717692D-03
  0.13505260D-02 -0.83557133D-06 -0.51498572D-04  0.52334144D-04 -0.13532441D-03
  0.29371663D-03  0.13062865D-03  0.19693972D-04  0.35518890D-04  0.52372583D-04
  0.46085843D-03 -0.16338746D-03 -0.48982547D-05 -0.15762140D-03  0.90492074D-03
  0.49228850D-03 -0.88437868D-03  0.71389347D-03  0.49288920D-03 -0.99075361D-04
  0.23589054D-04  0.51915795D-04  0.16779725D-03 -0.46416642D-03  0.29636917D-03
  0.12439153D-02  0.81717692D-03 -0.13505260D-02 -0.83557132D-06 -0.51498572D-04
  0.52334144D-04  0.13532441D-03  0.29371663D-03 -0.13062865D-03  0.21716357D-04
  0.39166343D-04  0.57750750D-04  0.47694872D-03 -0.17460459D-03 -0.40289577D-05
  0.47971532D-03 -0.85556234D-03  0.10178185D-03  0.81402901D-03 -0.66320271D-03
 -0.54818248D-03  0.91470643D-04 -0.20777964D-04 -0.63436794D-04 -0.77489444D-04
 -0.43356500D-03  0.51105444D-03  0.17093147D-02  0.55745054D-03 -0.44707414D-03
 -0.80959224D-04 -0.46677044D-04  0.12763627D-03  0.17081340D-03  0.20657020D-03
 -0.56569415D-04  0.21716357D-04  0.39166343D-04  0.57750750D-04  0.47694872D-03
 -0.17460459D-03 -0.40289577D-05  0.47971532D-03  0.85556234D-03  0.10178185D-03
  0.81402901D-03  0.66320271D-03 -0.54818248D-03  0.91470643D-04  0.20777964D-04
 -0.63436794D-04 -0.77489444D-04 -0.43356500D-03  0.51105444D-03 -0.17093147D-02
  0.55745054D-03  0.44707414D-03 -0.80959224D-04 -0.46677044D-04  0.12763627D-03
 -0.17081340D-03  0.20657020D-03  0.56569415D-04
MO    3     MO 0.0        OCC NO =    2.0000000  ORB. ENERGY =  -10.105057
  0.85809076D-05  0.15993708D-04  0.27120029D-04  0.41047427D-04  0.51215205D-04
  0.43987030D-04  0.16887476D-04 -0.75538718D-07 -0.64879474D-05 -0.12168306D-04
 -0.20744294D-04 -0.32419294D-04 -0.43350773D-04 -0.46288519D-04 -0.28299893D-04
  0.18670551D-04  0.68892704D-05  0.11136496D-04  0.49161861D-05  0.38419759D-03
  0.37254242D-03  0.25131492D-03  0.22892345D-14  0.22197874D-14  0.14974555D-14
 -0.21781962D-03 -0.21121176D-03 -0.14248221D-03  0.41691559D-03 -0.16118504D-14
 -0.23121043D-03  0.66035540D-03 -0.39034335D-14 -0.41188038D-03  0.61893354D-04
 -0.57257159D-15 -0.36996144D-04  0.10080041D-02 -0.17248871D-04 -0.99075526D-03
  0.39592560D-15  0.10856262D-02  0.61216682D-14 -0.60449283D-03  0.97311833D-05
  0.59476164D-03  0.25633777D-15 -0.64313728D-03 -0.49760839D-14  0.24222922D-04
  0.14956933D-05 -0.25718616D-04 -0.80255789D-16  0.15603097D-04 -0.18326382D-14
 -0.30876312D-03 -0.15002452D-14  0.64709799D-03  0.11197613D-02  0.18572710D-14
 -0.12967171D-02 -0.19347190D-03  0.26434645D-14 -0.64457688D-03 -0.10004522D-14
 -0.33916646D-04  0.78176403D-15  0.30779260D-03  0.85148004D-04 -0.48717272D-15
 -0.88223439D-03  0.16601935D-04 -0.18581194D-14 -0.41143414D-04  0.51957665D-15
 -0.22907720D+00 -0.42705198D+00 -0.72179307D+00 -0.10850914D+01 -0.13331602D+01
 -0.11260669D+01 -0.42471100D+00  0.21019184D-02  0.17808485D-02  0.33343102D-02
  0.56769484D-02  0.87813760D-02  0.11564763D-01  0.12016530D-01  0.76359652D-02
 -0.51174463D-02 -0.21240116D-01  0.12084520D-02  0.79295944D-03  0.11614297D-03
  0.10889141D-03  0.77537172D-04  0.13247096D-13  0.12419994D-13  0.88437757D-14
  0.19335351D-02  0.18128121D-02  0.12908302D-02  0.10573657D-02 -0.56973052D-13
 -0.13539913D-02 -0.24689082D-03  0.14980838D-13  0.20391291D-03  0.35873121D-04
  0.90745544D-15 -0.32382093D-04  0.95507810D-03 -0.76856541D-03 -0.18651270D-03
  0.76008279D-14  0.23672958D-02 -0.11748114D-13 -0.59862957D-05 -0.55046810D-03
  0.55645440D-03  0.26657779D-13  0.68374449D-03 -0.33549197D-13 -0.27675996D-04
  0.38404526D-04 -0.10728530D-04 -0.13837161D-13  0.32453540D-04  0.10853845D-13
 -0.94701963D-03 -0.39122272D-14  0.67119081D-03  0.27220459D-02  0.92528837D-14
  0.10362959D-02  0.11901297D-03  0.24837978D-14 -0.30498683D-02  0.11608022D-13
  0.15457143D-03 -0.14231388D-14 -0.25072978D-03 -0.37044208D-03  0.14116088D-14
  0.28226360D-04 -0.93272221D-04  0.28578074D-14  0.72396299D-03 -0.12015451D-14
  0.23685691D+00  0.44155513D+00  0.74630596D+00  0.11219423D+01  0.13784358D+01
  0.11643094D+01  0.43913466D+00 -0.21733019D-02 -0.18475620D-02 -0.34592189D-02
 -0.58896162D-02 -0.91103407D-02 -0.11997998D-01 -0.12466689D-01 -0.79220210D-02
  0.53091543D-02  0.22011685D-01 -0.12496858D-02 -0.79325811D-03 -0.17202683D-02
 -0.16128609D-02 -0.11484530D-02  0.24033818D-14  0.22533232D-14  0.16045004D-14
 -0.10312263D-02 -0.96684025D-03 -0.68844785D-03  0.16759551D-02 -0.20001968D-14
 -0.27722485D-03 -0.28961552D-03 -0.34332983D-13  0.12860327D-03  0.45554081D-04
 -0.52789189D-15 -0.15922710D-04  0.96220189D-03  0.79177531D-03 -0.17539772D-02
 -0.10916489D-14 -0.36936724D-03  0.33310566D-14 -0.16420592D-03  0.56370324D-03
 -0.39949732D-03  0.32335940D-14 -0.81484295D-03 -0.55139307D-14  0.26705925D-04
 -0.37134486D-04  0.10428562D-04 -0.18819049D-13 -0.32421586D-04  0.70608151D-14
 -0.73441420D-03  0.77452582D-15  0.17392810D-03  0.40363536D-02 -0.90427296D-15
  0.41755342D-03 -0.18331110D-02 -0.14193045D-14 -0.93933772D-03  0.20318329D-14
  0.15352615D-03  0.14709756D-14 -0.70269078D-04 -0.83807989D-03 -0.56343081D-14
  0.22054568D-03  0.37750144D-03  0.12213814D-14 -0.97384434D-05  0.38199547D-14
  0.59847233D-04  0.10793695D-03  0.15915297D-03  0.49969813D-03 -0.33179773D-03
  0.26227486D-04  0.57555179D-03  0.14662750D-02 -0.64384294D-03  0.44825989D-03
  0.15097302D-02 -0.11027593D-02 -0.73916524D-05  0.84260733D-04 -0.46462055D-04
 -0.67398167D-03  0.91038611D-03 -0.23640444D-03  0.11355736D-02 -0.56208746D-03
 -0.17391566D-02 -0.14862462D-03  0.14363634D-03  0.49882778D-05  0.12974271D-03
 -0.17456570D-03 -0.21322192D-03  0.59847233D-04  0.10793695D-03  0.15915297D-03
  0.49969813D-03 -0.33179773D-03  0.26227486D-04  0.57555179D-03 -0.14662750D-02
 -0.64384294D-03  0.44825989D-03 -0.15097302D-02 -0.11027593D-02 -0.73916524D-05
 -0.84260733D-04 -0.46462055D-04 -0.67398167D-03  0.91038611D-03 -0.23640444D-03
 -0.11355736D-02 -0.56208746D-03  0.17391566D-02 -0.14862462D-03  0.14363634D-03
  0.49882778D-05 -0.12974271D-03 -0.17456570D-03  0.21322192D-03 -0.59112065D-04
 -0.10661104D-03 -0.15719792D-03 -0.48419583D-03  0.32601418D-03 -0.26378887D-04
  0.85636642D-03 -0.14956744D-02 -0.19727482D-03  0.12111843D-02 -0.15328075D-02
  0.11127366D-03  0.40468591D-04 -0.84995319D-04  0.26468315D-04  0.97755174D-04
 -0.92549205D-03  0.82773688D-03  0.21279665D-02 -0.39032487D-04 -0.18789250D-03
 -0.46026511D-04 -0.14528344D-03  0.19130995D-03  0.25508384D-03 -0.25809574D-04
 -0.14757676D-04 -0.59112065D-04 -0.10661104D-03 -0.15719792D-03 -0.48419583D-03
  0.32601418D-03 -0.26378887D-04  0.85636642D-03  0.14956744D-02 -0.19727482D-03
  0.12111843D-02  0.15328075D-02  0.11127366D-03  0.40468591D-04  0.84995319D-04
  0.26468315D-04  0.97755174D-04 -0.92549205D-03  0.82773688D-03 -0.21279665D-02
 -0.39032487D-04  0.18789250D-03 -0.46026511D-04 -0.14528344D-03  0.19130995D-03
 -0.25508384D-03 -0.25809574D-04  0.14757676D-04
MO    4     MO 0.0        OCC NO =    2.0000000  ORB. ENERGY =   -1.050215
 -0.46892302D-02 -0.87401218D-02 -0.14820351D-01 -0.22431291D-01 -0.27987702D-01
 -0.24037703D-01 -0.92285417D-02  0.41279833D-04 -0.83719978D-01 -0.15701889D+00
 -0.26768279D+00 -0.41833610D+00 -0.55939507D+00 -0.59730352D+00 -0.36517966D+00
  0.24092336D+00  0.12285756D+00  0.52504249D-01 -0.16620234D-02  0.18558814D+00
  0.17995807D+00  0.12139865D+00  0.39716257D-14  0.38511409D-14  0.25979569D-14
  0.31106949D+00  0.30163276D+00  0.20347968D+00  0.50185749D-01 -0.84046416D-14
  0.84114929D-01  0.24226780D-02  0.38198511D-14  0.40597632D-02 -0.17271931D-03
 -0.31338705D-14 -0.28964168D-03  0.39228926D-02 -0.19790723D-01  0.15867830D-01
 -0.42391380D-13  0.22130767D-01  0.40217013D-13  0.13665101D-02 -0.11659195D-01
  0.10292685D-01  0.44255630D-13  0.16539474D-01 -0.42154594D-13 -0.14140596D-03
  0.21468641D-03 -0.73280454D-04  0.96235565D-14  0.12662893D-03  0.17213044D-15
  0.23753783D-02  0.32941898D-15  0.29469404D-02 -0.69601377D-02  0.13296777D-13
  0.28400567D-02 -0.16599718D-03 -0.14285034D-13 -0.11680878D-01 -0.33498584D-14
 -0.17936632D-03  0.11035187D-14  0.95098418D-03 -0.23492007D-02  0.12590479D-13
  0.10829867D-02  0.28872997D-02 -0.15901035D-13 -0.39359393D-02  0.22263614D-13
 -0.45439509D-02 -0.84709576D-02 -0.14317411D-01 -0.21523758D-01 -0.26444424D-01
 -0.22336543D-01 -0.84245223D-02  0.41693431D-04 -0.21055471D-01 -0.39422485D-01
 -0.67120153D-01 -0.10382467D+00 -0.13673344D+00 -0.14207480D+00 -0.90282159D-01
  0.60505003D-01  0.23549218D-01  0.15411289D-01  0.88700498D-03  0.40219295D-01
  0.37708146D-01  0.26850446D-01  0.65193261D-13  0.61122826D-13  0.43523093D-13
 -0.14183063D+00 -0.13297523D+00 -0.94686287D-01  0.41398756D-02 -0.30002255D-12
 -0.24415955D-01 -0.73805062D-03 -0.71239582D-12  0.36402530D-03 -0.20508453D-04
  0.12517587D-13  0.31526536D-04 -0.76953710D-02 -0.82870063D-02  0.15982377D-01
 -0.81315553D-15 -0.14234973D-01  0.27685875D-13 -0.20205392D-02 -0.12808750D-02
  0.33014142D-02  0.30369952D-12 -0.37336875D-02 -0.38061069D-12 -0.44904032D-04
  0.83792636D-04 -0.38888604D-04  0.32421805D-12 -0.11535895D-04 -0.29191817D-12
  0.11175498D-02 -0.16841425D-13 -0.31242219D-02 -0.51104500D-02  0.27577740D-13
 -0.11879051D-02  0.17578005D-02  0.22946536D-13  0.10560571D-01  0.40389100D-13
  0.86475280D-04 -0.23354475D-13 -0.38632376D-03 -0.36923315D-03  0.61564679D-13
  0.22684970D-03  0.10980731D-03  0.84987443D-14  0.93212157D-03  0.27431047D-13
 -0.45442701D-02 -0.84715528D-02 -0.14318417D-01 -0.21525270D-01 -0.26446281D-01
 -0.22338112D-01 -0.84251141D-02  0.41696360D-04 -0.21056867D-01 -0.39425099D-01
 -0.67124605D-01 -0.10383156D+00 -0.13674251D+00 -0.14208422D+00 -0.90288146D-01
  0.60509016D-01  0.23551532D-01  0.15411870D-01  0.88642488D-03 -0.14392137D+00
 -0.13493543D+00 -0.96082068D-01 -0.17489811D-13 -0.16397810D-13 -0.11676217D-13
 -0.31987217D-01 -0.29990049D-01 -0.21354702D-01 -0.23449096D-01  0.91206749D-13
 -0.79553169D-02  0.67035516D-03  0.46582529D-12 -0.47626813D-03  0.37512629D-04
 -0.15840015D-13 -0.30754478D-05  0.16590198D-01 -0.82868722D-02 -0.83033253D-02
 -0.45214511D-13  0.11985656D-01 -0.93497589D-14  0.36596785D-02 -0.12796092D-02
 -0.23800693D-02  0.29430716D-12  0.23994397D-02 -0.65749596D-13 -0.35425535D-04
  0.83807745D-04 -0.48382211D-04  0.37905914D-12 -0.13160283D-05 -0.14000840D-12
 -0.31309364D-02  0.90064965D-14  0.33849654D-03  0.11720615D-01 -0.17472470D-13
 -0.15349780D-02 -0.23278054D-02 -0.95470193D-14  0.51948837D-03 -0.33514405D-14
 -0.26750328D-03  0.27007144D-13  0.12290800D-03  0.99452303D-03 -0.34395648D-13
 -0.48600709D-03 -0.19201321D-03 -0.46625783D-13  0.11728309D-03  0.48053858D-13
  0.26123954D-02  0.47115626D-02  0.69471963D-02 -0.26407576D-02 -0.34745908D-02
 -0.92241670D-04  0.38429553D-03 -0.46744834D-03 -0.22911020D-02 -0.65039567D-03
 -0.36821381D-02 -0.15739812D-03 -0.26194230D-03 -0.61388163D-03  0.29696075D-03
  0.28630210D-03 -0.21073782D-02  0.18210761D-02 -0.11344779D-02 -0.17136307D-02
 -0.73090411D-03  0.15971270D-03 -0.29454543D-03  0.13483273D-03 -0.29017573D-03
  0.15874541D-03  0.31667469D-03  0.26123954D-02  0.47115626D-02  0.69471963D-02
 -0.26407576D-02 -0.34745908D-02 -0.92241670D-04  0.38429553D-03  0.46744834D-03
 -0.22911020D-02 -0.65039567D-03  0.36821381D-02 -0.15739812D-03 -0.26194230D-03
  0.61388163D-03  0.29696075D-03  0.28630210D-03 -0.21073782D-02  0.18210761D-02
  0.11344779D-02 -0.17136307D-02  0.73090411D-03  0.15971270D-03 -0.29454543D-03
  0.13483273D-03  0.29017573D-03  0.15874541D-03 -0.31667469D-03  0.26131048D-02
  0.47128421D-02  0.69490829D-02 -0.26417190D-02 -0.34746165D-02 -0.92261840D-04
 -0.21990656D-02 -0.46694539D-03 -0.75017812D-03  0.17227083D-03 -0.36835844D-02