 Molden2AIM, Version 4.0.0 (06/02/2016)           Time: Thu Jun 28 22:33:47 2018
GAUSSIAN             15 MOL ORBITALS    300 PRIMITIVES        4 NUCLEI
  C    1    (CENTRE  1)   0.00000000  0.00000000 -1.12839704  CHARGE =  6.0
  C    2    (CENTRE  2)   0.00000000  0.00000000  1.12839704  CHARGE =  6.0
  F    3    (CENTRE  3)   0.00000000  0.00000000 -3.55679905  CHARGE =  9.0
  F    4    (CENTRE  4)   0.00000000  0.00000000  3.55679905  CHARGE =  9.0
CENTRE ASSIGNMENTS    1  1  1  1  1  1  1  1  1  1  1  1  1  1  1  1  1  1  1  1
CENTRE ASSIGNMENTS    1  1  1  1  1  1  1  1  1  1  1  1  1  1  1  1  1  1  1  1
CENTRE ASSIGNMENTS    1  1  1  1  1  1  1  1  1  1  1  1  1  1  1  1  1  1  1  1
CENTRE ASSIGNMENTS    1  1  1  1  1  1  1  1  1  1  1  1  1  1  1  2  2  2  2  2
CENTRE ASSIGNMENTS    2  2  2  2  2  2  2  2  2  2  2  2  2  2  2  2  2  2  2  2
CENTRE ASSIGNMENTS    2  2  2  2  2  2  2  2  2  2  2  2  2  2  2  2  2  2  2  2
CENTRE ASSIGNMENTS    2  2  2  2  2  2  2  2  2  2  2  2  2  2  2  2  2  2  2  2
CENTRE ASSIGNMENTS    2  2  2  2  2  2  2  2  2  2  3  3  3  3  3  3  3  3  3  3
CENTRE ASSIGNMENTS    3  3  3  3  3  3  3  3  3  3  3  3  3  3  3  3  3  3  3  3
CENTRE ASSIGNMENTS    3  3  3  3  3  3  3  3  3  3  3  3  3  3  3  3  3  3  3  3
CENTRE ASSIGNMENTS    3  3  3  3  3  3  3  3  3  3  3  3  3  3  3  3  3  3  3  3
CENTRE ASSIGNMENTS    3  3  3  3  3  4  4  4  4  4  4  4  4  4  4  4  4  4  4  4
CENTRE ASSIGNMENTS    4  4  4  4  4  4  4  4  4  4  4  4  4  4  4  4  4  4  4  4
CENTRE ASSIGNMENTS    4  4  4  4  4  4  4  4  4  4  4  4  4  4  4  4  4  4  4  4
CENTRE ASSIGNMENTS    4  4  4  4  4  4  4  4  4  4  4  4  4  4  4  4  4  4  4  4
TYPE ASSIGNMENTS      1  1  1  1  1  1  1  1  1  1  1  1  1  1  1  1  1  1  1  2
TYPE ASSIGNMENTS      2  2  3  3  3  4  4  4  2  3  4  2  3  4  2  3  4  5  6  7
TYPE ASSIGNMENTS      8  9 10  5  6  7  8  9 10  5  6  7  8  9 10 11 12 13 17 14
TYPE ASSIGNMENTS     15 18 19 16 20 11 12 13 17 14 15 18 19 16 20  1  1  1  1  1
TYPE ASSIGNMENTS      1  1  1  1  1  1  1  1  1  1  1  1  1  1  2  2  2  3  3  3
TYPE ASSIGNMENTS      4  4  4  2  3  4  2  3  4  2  3  4  5  6  7  8  9 10  5  6
TYPE ASSIGNMENTS      7  8  9 10  5  6  7  8  9 10 11 12 13 17 14 15 18 19 16 20
TYPE ASSIGNMENTS     11 12 13 17 14 15 18 19 16 20  1  1  1  1  1  1  1  1  1  1
TYPE ASSIGNMENTS      1  1  1  1  1  1  1  1  1  2  2  2  3  3  3  4  4  4  2  3
TYPE ASSIGNMENTS      4  2  3  4  2  3  4  5  6  7  8  9 10  5  6  7  8  9 10  5
TYPE ASSIGNMENTS      6  7  8  9 10 11 12 13 17 14 15 18 19 16 20 11 12 13 17 14
TYPE ASSIGNMENTS     15 18 19 16 20  1  1  1  1  1  1  1  1  1  1  1  1  1  1  1
TYPE ASSIGNMENTS      1  1  1  1  2  2  2  3  3  3  4  4  4  2  3  4  2  3  4  2
TYPE ASSIGNMENTS      3  4  5  6  7  8  9 10  5  6  7  8  9 10  5  6  7  8  9 10
TYPE ASSIGNMENTS     11 12 13 17 14 15 18 19 16 20 11 12 13 17 14 15 18 19 16 20
EXPONENTS  0.8236000D+04 0.1235000D+04 0.2808000D+03 0.7927000D+02 0.2559000D+02
EXPONENTS  0.8997000D+01 0.3319000D+01 0.3643000D+00 0.8236000D+04 0.1235000D+04
EXPONENTS  0.2808000D+03 0.7927000D+02 0.2559000D+02 0.8997000D+01 0.3319000D+01
EXPONENTS  0.3643000D+00 0.9059000D+00 0.1285000D+00 0.4402000D-01 0.1871000D+02
EXPONENTS  0.4133000D+01 0.1200000D+01 0.1871000D+02 0.4133000D+01 0.1200000D+01
EXPONENTS  0.1871000D+02 0.4133000D+01 0.1200000D+01 0.3827000D+00 0.3827000D+00
EXPONENTS  0.3827000D+00 0.1209000D+00 0.1209000D+00 0.1209000D+00 0.3569000D-01
EXPONENTS  0.3569000D-01 0.3569000D-01 0.1097000D+01 0.1097000D+01 0.1097000D+01
EXPONENTS  0.1097000D+01 0.1097000D+01 0.1097000D+01 0.3180000D+00 0.3180000D+00
EXPONENTS  0.3180000D+00 0.3180000D+00 0.3180000D+00 0.3180000D+00 0.1000000D+00
EXPONENTS  0.1000000D+00 0.1000000D+00 0.1000000D+00 0.1000000D+00 0.1000000D+00
EXPONENTS  0.7610000D+00 0.7610000D+00 0.7610000D+00 0.7610000D+00 0.7610000D+00
EXPONENTS  0.7610000D+00 0.7610000D+00 0.7610000D+00 0.7610000D+00 0.7610000D+00
EXPONENTS  0.2680000D+00 0.2680000D+00 0.2680000D+00 0.2680000D+00 0.2680000D+00
EXPONENTS  0.2680000D+00 0.2680000D+00 0.2680000D+00 0.2680000D+00 0.2680000D+00
EXPONENTS  0.8236000D+04 0.1235000D+04 0.2808000D+03 0.7927000D+02 0.2559000D+02
EXPONENTS  0.8997000D+01 0.3319000D+01 0.3643000D+00 0.8236000D+04 0.1235000D+04
EXPONENTS  0.2808000D+03 0.7927000D+02 0.2559000D+02 0.8997000D+01 0.3319000D+01
EXPONENTS  0.3643000D+00 0.9059000D+00 0.1285000D+00 0.4402000D-01 0.1871000D+02
EXPONENTS  0.4133000D+01 0.1200000D+01 0.1871000D+02 0.4133000D+01 0.1200000D+01
EXPONENTS  0.1871000D+02 0.4133000D+01 0.1200000D+01 0.3827000D+00 0.3827000D+00
EXPONENTS  0.3827000D+00 0.1209000D+00 0.1209000D+00 0.1209000D+00 0.3569000D-01
EXPONENTS  0.3569000D-01 0.3569000D-01 0.1097000D+01 0.1097000D+01 0.1097000D+01
EXPONENTS  0.1097000D+01 0.1097000D+01 0.1097000D+01 0.3180000D+00 0.3180000D+00
EXPONENTS  0.3180000D+00 0.3180000D+00 0.3180000D+00 0.3180000D+00 0.1000000D+00
EXPONENTS  0.1000000D+00 0.1000000D+00 0.1000000D+00 0.1000000D+00 0.1000000D+00
EXPONENTS  0.7610000D+00 0.7610000D+00 0.7610000D+00 0.7610000D+00 0.7610000D+00
EXPONENTS  0.7610000D+00 0.7610000D+00 0.7610000D+00 0.7610000D+00 0.7610000D+00
EXPONENTS  0.2680000D+00 0.2680000D+00 0.2680000D+00 0.2680000D+00 0.2680000D+00
EXPONENTS  0.2680000D+00 0.2680000D+00 0.2680000D+00 0.2680000D+00 0.2680000D+00
EXPONENTS  0.1950000D+05 0.2923000D+04 0.6645000D+03 0.1875000D+03 0.6062000D+02
EXPONENTS  0.2142000D+02 0.7950000D+01 0.8815000D+00 0.1950000D+05 0.2923000D+04
EXPONENTS  0.6645000D+03 0.1875000D+03 0.6062000D+02 0.2142000D+02 0.7950000D+01
EXPONENTS  0.8815000D+00 0.2257000D+01 0.3041000D+00 0.9158000D-01 0.4388000D+02
EXPONENTS  0.9926000D+01 0.2930000D+01 0.4388000D+02 0.9926000D+01 0.2930000D+01
EXPONENTS  0.4388000D+02 0.9926000D+01 0.2930000D+01 0.9132000D+00 0.9132000D+00
EXPONENTS  0.9132000D+00 0.2672000D+00 0.2672000D+00 0.2672000D+00 0.7361000D-01
EXPONENTS  0.7361000D-01 0.7361000D-01 0.3107000D+01 0.3107000D+01 0.3107000D+01
EXPONENTS  0.3107000D+01 0.3107000D+01 0.3107000D+01 0.8550000D+00 0.8550000D+00
EXPONENTS  0.8550000D+00 0.8550000D+00 0.8550000D+00 0.8550000D+00 0.2920000D+00
EXPONENTS  0.2920000D+00 0.2920000D+00 0.2920000D+00 0.2920000D+00 0.2920000D+00
EXPONENTS  0.1917000D+01 0.1917000D+01 0.1917000D+01 0.1917000D+01 0.1917000D+01
EXPONENTS  0.1917000D+01 0.1917000D+01 0.1917000D+01 0.1917000D+01 0.1917000D+01
EXPONENTS  0.7240000D+00 0.7240000D+00 0.7240000D+00 0.7240000D+00 0.7240000D+00
EXPONENTS  0.7240000D+00 0.7240000D+00 0.7240000D+00 0.7240000D+00 0.7240000D+00
EXPONENTS  0.1950000D+05 0.2923000D+04 0.6645000D+03 0.1875000D+03 0.6062000D+02
EXPONENTS  0.2142000D+02 0.7950000D+01 0.8815000D+00 0.1950000D+05 0.2923000D+04
EXPONENTS  0.6645000D+03 0.1875000D+03 0.6062000D+02 0.2142000D+02 0.7950000D+01
EXPONENTS  0.8815000D+00 0.2257000D+01 0.3041000D+00 0.9158000D-01 0.4388000D+02
EXPONENTS  0.9926000D+01 0.2930000D+01 0.4388000D+02 0.9926000D+01 0.2930000D+01
EXPONENTS  0.4388000D+02 0.9926000D+01 0.2930000D+01 0.9132000D+00 0.9132000D+00
EXPONENTS  0.9132000D+00 0.2672000D+00 0.2672000D+00 0.2672000D+00 0.7361000D-01
EXPONENTS  0.7361000D-01 0.7361000D-01 0.3107000D+01 0.3107000D+01 0.3107000D+01
EXPONENTS  0.3107000D+01 0.3107000D+01 0.3107000D+01 0.8550000D+00 0.8550000D+00
EXPONENTS  0.8550000D+00 0.8550000D+00 0.8550000D+00 0.8550000D+00 0.2920000D+00
EXPONENTS  0.2920000D+00 0.2920000D+00 0.2920000D+00 0.2920000D+00 0.2920000D+00
EXPONENTS  0.1917000D+01 0.1917000D+01 0.1917000D+01 0.1917000D+01 0.1917000D+01
EXPONENTS  0.1917000D+01 0.1917000D+01 0.1917000D+01 0.1917000D+01 0.1917000D+01
EXPONENTS  0.7240000D+00 0.7240000D+00 0.7240000D+00 0.7240000D+00 0.7240000D+00
EXPONENTS  0.7240000D+00 0.7240000D+00 0.7240000D+00 0.7240000D+00 0.7240000D+00
MO    1     MO 0.0        OCC NO =    2.0000000  ORB. ENERGY =  -24.586405
  0.14129714D-03  0.26340999D-03  0.44520929D-03  0.66929539D-03  0.82230672D-03
  0.69456948D-03  0.26196605D-03 -0.12964846D-05 -0.10216209D-03 -0.19127966D-03
 -0.32566999D-03 -0.50376196D-03 -0.66343678D-03 -0.68935331D-03 -0.43805308D-03
  0.29357299D-03 -0.80974018D-04  0.26239747D-03  0.80995520D-03  0.17392445D-15
  0.16306523D-15  0.11611216D-15  0.45204042D-16  0.42381663D-16  0.30178269D-16
  0.34259531D-03  0.32120488D-03  0.22871701D-03 -0.35044708D-16 -0.20523646D-16
 -0.43296815D-02  0.16309904D-16  0.78117972D-17 -0.11888527D-03 -0.35837047D-17
 -0.17210628D-17  0.38674421D-04 -0.16716712D-03 -0.16716712D-03  0.33433425D-03
 -0.51816649D-20  0.34669063D-17  0.84757863D-18  0.29815407D-04  0.29815407D-04
 -0.59630815D-04  0.61285717D-20 -0.55981518D-17 -0.13870228D-17  0.45744664D-05
  0.45744664D-05 -0.91489328D-05 -0.28452869D-21 -0.10295889D-18 -0.57772500D-19
  0.35832481D-18 -0.53822363D-18 -0.60523819D-03  0.35957414D-18 -0.54055269D-18
  0.90785729D-03 -0.14345486D-17  0.21552236D-17  0.90785729D-03 -0.27987909D-19
 -0.55815661D-18 -0.23184597D-18  0.45210139D-04 -0.55711460D-18 -0.22927616D-18
 -0.67815209D-04  0.22315844D-17  0.92481406D-18 -0.67815209D-04  0.84181407D-21
 -0.14129694D-03 -0.26340962D-03 -0.44520865D-03 -0.66929444D-03 -0.82230555D-03
 -0.69456849D-03 -0.26196568D-03  0.12964828D-05  0.10216195D-03  0.19127940D-03
  0.32566954D-03  0.50376126D-03  0.66343586D-03  0.68935236D-03  0.43805248D-03
 -0.29357258D-03  0.80973854D-04 -0.26239697D-03 -0.80995515D-03 -0.20501850D-17
 -0.19221787D-17 -0.13687058D-17 -0.27075948D-18 -0.25385422D-18 -0.18075933D-18
  0.34259509D-03  0.32120468D-03  0.22871687D-03  0.53257683D-18 -0.14115686D-17
 -0.43296804D-02  0.67367366D-18  0.29536912D-19 -0.11888525D-03  0.43347391D-19
 -0.26213549D-19  0.38674420D-04  0.16716687D-03  0.16716687D-03 -0.33433373D-03
  0.85401304D-20  0.29560493D-17  0.26410204D-17 -0.29815563D-04 -0.29815563D-04
  0.59631125D-04  0.19964581D-21 -0.19041072D-17  0.31656821D-18 -0.45744763D-05
 -0.45744763D-05  0.91489527D-05  0.13121335D-20  0.15687178D-18  0.18050567D-18
  0.11662352D-18  0.47366964D-18 -0.60523799D-03  0.11776486D-18  0.47370679D-18
  0.90785698D-03 -0.46763542D-18 -0.18947157D-17  0.90785698D-03 -0.20428411D-19
 -0.35119823D-18 -0.97864648D-19  0.45210130D-04 -0.35208745D-18 -0.10091034D-18
 -0.67815195D-04  0.14056822D-17  0.39450428D-18 -0.67815195D-04  0.70727810D-20
  0.42145861D+00  0.78561710D+00  0.13318141D+01  0.20167591D+01  0.25219643D+01
  0.21711764D+01  0.83467946D+00 -0.36168027D-02 -0.33309926D-03 -0.62550142D-03
 -0.10651210D-02 -0.16685058D-02 -0.22359941D-02 -0.24051131D-02 -0.14440267D-02
  0.94965274D-03  0.42837799D-01 -0.12723670D-02 -0.68906456D-03 -0.14282407D-16
 -0.13967882D-16 -0.92291702D-17  0.11494442D-16  0.11241313D-16  0.74276106D-17
  0.66350512D-02  0.64889351D-02  0.42875138D-02  0.20427549D-17 -0.35130834D-18
 -0.14581249D-02 -0.60546614D-17 -0.25397356D-17 -0.15650442D-02  0.85650196D-19
 -0.10115428D-18 -0.86146226D-04 -0.41295694D-03 -0.41295694D-03  0.82591388D-03
  0.63070701D-17  0.54089783D-17  0.11363824D-17  0.53946079D-03  0.53946079D-03
 -0.10789216D-02 -0.23039026D-18 -0.31971197D-17 -0.11024010D-17  0.21133745D-03
  0.21133745D-03 -0.42267490D-03  0.15166940D-19 -0.28383262D-17 -0.17508946D-17
  0.60592884D-18 -0.18696147D-17  0.25125584D-03  0.12213264D-18 -0.79349849D-18
 -0.37688377D-03 -0.19399192D-17  0.64023427D-17 -0.37688377D-03  0.34432871D-18
 -0.96795392D-19  0.65924537D-18 -0.42003206D-03 -0.13371795D-18  0.58499076D-18
  0.63004808D-03  0.42410413D-18 -0.25627269D-17  0.63004808D-03 -0.75796236D-19
 -0.42145828D+00 -0.78561648D+00 -0.13318131D+01 -0.20167575D+01 -0.25219623D+01
 -0.21711747D+01 -0.83467881D+00  0.36167999D-02  0.33309908D-03  0.62550108D-03
  0.10651205D-02  0.16685049D-02  0.22359929D-02  0.24051118D-02  0.14440260D-02
 -0.94965224D-03 -0.42837766D-01  0.12723661D-02  0.68906424D-03 -0.32454598D-17
 -0.31739888D-17 -0.20971886D-17  0.59796624D-17  0.58479792D-17  0.38640071D-17
  0.66350461D-02  0.64889302D-02  0.42875105D-02 -0.12075636D-17 -0.62001085D-18
 -0.14581239D-02 -0.14201393D-17 -0.54223287D-18 -0.15650435D-02 -0.16767342D-18
 -0.10158082D-18 -0.86146199D-04  0.41295678D-03  0.41295678D-03 -0.82591356D-03
 -0.15659115D-17 -0.95632350D-17  0.21354860D-17 -0.53946052D-03 -0.53946052D-03
  0.10789210D-02  0.24765414D-18  0.15072925D-17 -0.91773143D-18 -0.21133737D-03
 -0.21133737D-03  0.42267475D-03 -0.19510026D-19  0.87530364D-18  0.38831854D-18
 -0.74651115D-19  0.93942818D-18  0.25125578D-03 -0.96748179D-18 -0.84206160D-18
 -0.37688367D-03  0.11914351D-17 -0.19762229D-17 -0.37688367D-03 -0.79555010D-18
 -0.85676016D-19 -0.25258970D-18 -0.42003186D-03 -0.59762231D-19 -0.11672712D-18
  0.63004780D-03  0.31679028D-18  0.87449624D-18  0.63004780D-03  0.66207644D-19
MO    2     MO 0.0        OCC NO =    2.0000000  ORB. ENERGY =  -24.586403
  0.25546135D-03  0.47623805D-03  0.80492619D-03  0.12100677D-02  0.14867080D-02
  0.12557626D-02  0.47362745D-03 -0.23440087D-05 -0.17998859D-03 -0.33699543D-03
 -0.57376355D-03 -0.88752497D-03 -0.11688392D-02 -0.12144988D-02 -0.77175944D-03
  0.51721523D-03 -0.20859519D-03  0.63170322D-03  0.64454645D-04 -0.19444767D-17
 -0.18230705D-17 -0.12981348D-17 -0.46574444D-16 -0.43666501D-16 -0.31093150D-16
  0.27654640D-03  0.25927983D-03  0.18462268D-03 -0.13031066D-17  0.33265722D-16
 -0.13314220D-02 -0.36392320D-17 -0.12712365D-16 -0.25093390D-04 -0.17149246D-19
  0.34551739D-17  0.18404509D-05 -0.32647774D-03 -0.32647774D-03  0.65295548D-03
  0.14675826D-17 -0.30346882D-17 -0.25219376D-18 -0.19767077D-03 -0.19767077D-03
  0.39534154D-03 -0.69397123D-20  0.25064379D-17  0.12784475D-17 -0.12662641D-04
 -0.12662641D-04  0.25325283D-04 -0.23356363D-20 -0.39712685D-18  0.27650416D-18
 -0.19771076D-18  0.48365394D-18 -0.26078759D-03 -0.19972861D-18  0.48664345D-18
  0.39118138D-03  0.79286088D-18 -0.19376053D-17  0.39118138D-03 -0.27175538D-19
  0.54281759D-18  0.48640917D-19  0.11390669D-04  0.54401426D-18  0.48514206D-19
 -0.17086004D-04 -0.21724670D-17 -0.19443696D-18 -0.17086004D-04 -0.78578881D-20
  0.25546146D-03  0.47623825D-03  0.80492654D-03  0.12100683D-02  0.14867087D-02
  0.12557631D-02  0.47362765D-03 -0.23440097D-05 -0.17998867D-03 -0.33699558D-03
 -0.57376381D-03 -0.88752537D-03 -0.11688397D-02 -0.12144993D-02 -0.77175979D-03
  0.51721546D-03 -0.20859525D-03  0.63170343D-03  0.64455282D-04  0.76320065D-18
  0.71554912D-18  0.50951360D-18  0.87679506D-18  0.82205110D-18  0.58534936D-18
 -0.27654667D-03 -0.25928008D-03 -0.18462286D-03  0.17048144D-17 -0.18947248D-18
  0.13314254D-02  0.25084094D-17 -0.11336811D-17  0.25093483D-04  0.62222037D-19
  0.28031081D-19 -0.18404813D-05 -0.32647787D-03 -0.32647787D-03  0.65295574D-03
 -0.92610778D-21 -0.17179789D-17 -0.24415733D-17 -0.19767074D-03 -0.19767074D-03
  0.39534149D-03  0.51171366D-20 -0.95925971D-18  0.42834994D-19 -0.12662638D-04
 -0.12662638D-04  0.25325275D-04  0.57523251D-21 -0.48553608D-18  0.52789461D-19
  0.70437087D-19 -0.25774667D-18  0.26078806D-03  0.68331782D-19 -0.25550559D-18
 -0.39118209D-03 -0.27964304D-18  0.10287456D-17 -0.39118209D-03 -0.50743135D-20
 -0.37324425D-19  0.10901593D-18 -0.11390705D-04 -0.37066412D-19  0.11041342D-18
  0.17086057D-04  0.14903969D-18 -0.43746120D-18  0.17086057D-04 -0.12382678D-19
  0.42130225D+00  0.78532565D+00  0.13313200D+01  0.20160109D+01  0.25210287D+01
  0.21703709D+01  0.83436981D+00 -0.36154610D-02 -0.22466119D-03 -0.42187392D-03
 -0.71837853D-03 -0.11253357D-02 -0.15080822D-02 -0.16221458D-02 -0.97393420D-03
  0.64050011D-03  0.42787870D-01 -0.10922536D-02 -0.41614280D-03 -0.15370699D-16
 -0.15032208D-16 -0.99324153D-17  0.10515549D-16  0.10283977D-16  0.67950583D-17
  0.64226480D-02  0.62812095D-02  0.41502607D-02  0.42449561D-18 -0.12301960D-17
 -0.12953894D-02  0.49603352D-17  0.13552404D-17 -0.87966427D-03 -0.50731900D-19
  0.14009632D-18 -0.34313069D-04 -0.20307597D-03 -0.20307597D-03  0.40615193D-03
  0.63505332D-17 -0.10513652D-16 -0.43519444D-17  0.34270202D-03  0.34270202D-03
 -0.68540403D-03 -0.22849817D-18  0.39422363D-17  0.14605245D-17  0.97459952D-04
  0.97459952D-04 -0.19491990D-03  0.12614624D-19  0.26374239D-17  0.90683772D-18
  0.47908225D-18  0.10442030D-17  0.80445033D-04 -0.18834945D-19  0.21239957D-17
 -0.12066755D-03 -0.14184118D-17 -0.52566048D-17 -0.12066755D-03  0.26554095D-18
  0.13715040D-18 -0.48378341D-18 -0.24237655D-03  0.10095521D-18 -0.55677607D-18
  0.36356483D-03 -0.51240641D-18  0.20081263D-17  0.36356483D-03 -0.73070782D-19
  0.42130258D+00  0.78532627D+00  0.13313211D+01  0.20160125D+01  0.25210307D+01
  0.21703726D+01  0.83437046D+00 -0.36154638D-02 -0.22466145D-03 -0.42187441D-03
 -0.71837937D-03 -0.11253370D-02 -0.15080840D-02 -0.16221477D-02 -0.97393534D-03
  0.64050085D-03  0.42787903D-01 -0.10922546D-02 -0.41614334D-03  0.30251756D-17
  0.29585557D-17  0.19548428D-17 -0.60917206D-17 -0.59575697D-17 -0.39364182D-17
 -0.64226532D-02 -0.62812146D-02 -0.41502640D-02  0.15064259D-17  0.62752908D-18
  0.12953906D-02  0.15511827D-18  0.73841591D-18  0.87966550D-03 -0.45016488D-20
  0.30423869D-19  0.34313137D-04 -0.20307629D-03 -0.20307629D-03  0.40615258D-03
  0.15325435D-17  0.88811470D-17 -0.16420266D-17  0.34270244D-03  0.34270244D-03
 -0.68540488D-03 -0.23537072D-18 -0.14516947D-17  0.53912687D-18  0.97460118D-04
  0.97460118D-04 -0.19492024D-03  0.18619354D-19  0.67224028D-21 -0.63004515D-18
 -0.27487654D-19 -0.48774192D-18 -0.80445230D-04  0.85987655D-18  0.12748505D-17
  0.12066785D-03 -0.77741359D-18  0.18837527D-18  0.12066785D-03  0.83726816D-18
  0.66951078D-19  0.33146770D-19  0.24237688D-03  0.42201261D-19 -0.99479671D-19
 -0.36356532D-03 -0.24305450D-18  0.39362204D-22 -0.36356532D-03 -0.81042264D-19
MO    3     MO 0.0        OCC NO =    2.0000000  ORB. ENERGY =  -10.144912
  0.23222104D+00  0.43291282D+00  0.73169893D+00  0.10999832D+01  0.13514564D+01
  0.11415210D+01  0.43053972D+00 -0.21307651D-02 -0.14284447D-02 -0.26744992D-02
 -0.45535637D-02 -0.70436707D-02 -0.92762665D-02 -0.96386351D-02 -0.61249199D-02
  0.41047789D-02  0.24738749D-01 -0.28317120D-03 -0.21764697D-03 -0.37791385D-15
 -0.35431826D-15 -0.25229571D-15  0.10823772D-15  0.10147974D-15  0.72259621D-16
 -0.30292859D-02 -0.28401481D-02 -0.20223546D-02  0.12545717D-15 -0.22132755D-16
  0.22386715D-03 -0.15483982D-17 -0.60232347D-17 -0.98457927D-03 -0.48471883D-19
  0.10247003D-18 -0.39378339D-05 -0.18637582D-02 -0.18637582D-02  0.37275164D-02
  0.24635254D-17  0.44194252D-17 -0.83165457D-17  0.91148007D-03  0.91148007D-03
 -0.18229601D-02  0.52331072D-20  0.69291542D-17 -0.27907664D-17  0.91716229D-04
  0.91716229D-04 -0.18343246D-03  0.78453053D-21  0.22687068D-18 -0.12090679D-17
 -0.23699856D-17  0.16803170D-17 -0.16121436D-03 -0.26699318D-17  0.16144818D-17
  0.24182154D-03  0.97798885D-17 -0.66554328D-17  0.24182154D-03 -0.11494788D-18
  0.43184880D-18  0.24359816D-18 -0.10127824D-03  0.44202556D-18  0.25839577D-18
  0.15191736D-03 -0.17375720D-17 -0.98919023D-18  0.15191736D-03  0.88948827D-19
  0.23222104D+00  0.43291282D+00  0.73169893D+00  0.10999832D+01  0.13514564D+01
  0.11415210D+01  0.43053972D+00 -0.21307651D-02 -0.14284447D-02 -0.26744992D-02
 -0.45535637D-02 -0.70436707D-02 -0.92762665D-02 -0.96386351D-02 -0.61249199D-02
  0.41047789D-02  0.24738749D-01 -0.28317122D-03 -0.21764696D-03  0.38313802D-16
  0.35921625D-16  0.25578337D-16 -0.31880762D-16 -0.29890241D-16 -0.21283632D-16
  0.30292859D-02  0.28401481D-02  0.20223546D-02 -0.89967727D-17  0.90123245D-17
 -0.22386714D-03 -0.93944265D-18  0.55878011D-17  0.98457928D-03  0.38939187D-19
 -0.11346655D-18  0.39378337D-05 -0.18637582D-02 -0.18637582D-02  0.37275164D-02
  0.18816478D-17 -0.36741088D-19 -0.56156780D-17  0.91148007D-03  0.91148007D-03
 -0.18229601D-02 -0.26325059D-18  0.43312793D-17 -0.29845330D-17  0.91716229D-04
  0.91716229D-04 -0.18343246D-03  0.74812991D-20 -0.67921249D-18 -0.13244228D-17
  0.18392663D-17 -0.21514323D-17  0.16121436D-03  0.27056010D-17 -0.92401587D-18
 -0.24182154D-03 -0.82233998D-17  0.73783128D-17 -0.24182154D-03  0.73525313D-18
  0.68752627D-18 -0.49687171D-18  0.10127824D-03  0.65994748D-18 -0.54882783D-18
 -0.15191736D-03 -0.27225263D-17  0.20394430D-17 -0.15191736D-03  0.24689968D-19
  0.34197531D-03  0.63745680D-03  0.10806460D-02  0.16364165D-02  0.20463446D-02
  0.17617121D-02  0.67726644D-03 -0.29347063D-05 -0.26660026D-03 -0.50062807D-03
 -0.85248327D-03 -0.13354100D-02 -0.17896065D-02 -0.19249631D-02 -0.11557453D-02
  0.76006674D-03  0.17830946D-03  0.89665048D-03  0.11289785D-03  0.27275466D-16
  0.26674810D-16  0.17625175D-16  0.54001129D-17  0.52811925D-17  0.34895072D-17
  0.38800175D-03  0.37945724D-03  0.25072344D-03 -0.65217787D-18 -0.16327880D-18
  0.11119638D-02  0.44280271D-17  0.16653904D-17 -0.38435305D-03  0.48442270D-18
 -0.42727160D-18 -0.94989329D-04 -0.11822081D-02 -0.11822081D-02  0.23644162D-02
  0.14237420D-19  0.77473216D-17 -0.95637838D-17  0.54729430D-03  0.54729430D-03
 -0.10945886D-02 -0.34509867D-19 -0.11963348D-16  0.52379713D-17  0.18942830D-03
  0.18942830D-03 -0.37885661D-03  0.50863799D-19  0.39509357D-17  0.13285786D-17
 -0.41968996D-17  0.32000755D-17  0.14271298D-02 -0.42739044D-17  0.31063233D-17
 -0.21406947D-02  0.16864603D-16 -0.12706550D-16 -0.21406947D-02 -0.23205673D-18
  0.10131514D-17 -0.92529373D-18 -0.12023455D-02  0.10217773D-17 -0.89705823D-18
  0.18035182D-02 -0.40612315D-17  0.36729394D-17  0.18035182D-02  0.89089759D-19
  0.34197531D-03  0.63745680D-03  0.10806460D-02  0.16364165D-02  0.20463446D-02
  0.17617121D-02  0.67726644D-03 -0.29347063D-05 -0.26660026D-03 -0.50062807D-03
 -0.85248327D-03 -0.13354100D-02 -0.17896065D-02 -0.19249631D-02 -0.11557453D-02
  0.76006674D-03  0.17830946D-03  0.89665048D-03  0.11289785D-03  0.19039273D-18
  0.18619993D-18  0.12303016D-18  0.43955970D-17  0.42987979D-17  0.28403975D-17
 -0.38800175D-03 -0.37945724D-03 -0.25072344D-03 -0.14807673D-18 -0.20586463D-17
 -0.11119638D-02  0.39516629D-17 -0.23117566D-17  0.38435305D-03  0.46679534D-18
  0.67231310D-18  0.94989329D-04 -0.11822081D-02 -0.11822081D-02  0.23644162D-02
  0.12548607D-18  0.28754216D-17 -0.83018811D-17  0.54729430D-03  0.54729430D-03
 -0.10945886D-02 -0.61633541D-19 -0.25742638D-17  0.47486471D-17  0.18942830D-03
  0.18942830D-03 -0.37885661D-03  0.99095652D-20 -0.21453527D-17  0.98641107D-18
  0.35648042D-18 -0.88488050D-19 -0.14271298D-02  0.44584699D-18 -0.11100079D-18
  0.21406947D-02 -0.15152882D-17  0.37646494D-18  0.21406947D-02  0.55790761D-19
 -0.77046159D-18  0.59867064D-18  0.12023455D-02 -0.80280748D-18  0.58096805D-18
 -0.18035182D-02  0.31141922D-17 -0.23769800D-17 -0.18035182D-02  0.71886986D-19
MO    4     MO 0.0        OCC NO =    2.0000000  ORB. ENERGY =  -10.142674
 -0.23398672D+00 -0.43620444D+00 -0.73726235D+00 -0.11083468D+01 -0.13617321D+01
 -0.11502005D+01 -0.43381330D+00  0.21469662D-02  0.26001111D-02  0.48682284D-02
  0.82885754D-02  0.12821166D-01  0.16885024D-01  0.17544622D-01  0.11148820D-01
 -0.74716796D-02 -0.24540957D-01 -0.10232353D-01  0.21075156D-02 -0.16006180D-15
 -0.15006811D-15 -0.10685744D-15  0.45203252D-16  0.42380922D-16  0.30177741D-16
  0.47525180D-02  0.44557877D-02  0.31727863D-02  0.46372463D-16 -0.16716428D-16
 -0.96452913D-02 -0.91888950D-17 -0.19504695D-17 -0.60592378D-02  0.63704978D-20
  0.50815372D-19  0.10104952D-03  0.28075603D-02  0.28075603D-02 -0.56151205D-02
 -0.32226083D-17 -0.48293701D-17  0.44779633D-17  0.45211554D-03  0.45211554D-03
 -0.90423107D-03  0.47410358D-18  0.18516710D-17  0.25795181D-18 -0.20746870D-04
 -0.20746870D-04  0.41493739D-04  0.89630907D-20 -0.70534581D-18 -0.26710375D-18
 -0.18068567D-18  0.62934220D-18 -0.13422903D-02  0.32469497D-18  0.52970648D-18
  0.20134354D-02  0.21736204D-18 -0.24177331D-17  0.20134354D-02 -0.92707772D-18
  0.16005005D-17  0.26092207D-19 -0.55635097D-03  0.15800275D-17  0.34949829D-19
  0.83452645D-03 -0.63815291D-17 -0.11322645D-18  0.83452645D-03  0.40102182D-18
  0.23398672D+00  0.43620444D+00  0.73726235D+00  0.11083468D+01  0.13617321D+01
  0.11502005D+01  0.43381330D+00 -0.21469662D-02 -0.26001111D-02 -0.48682284D-02
 -0.82885754D-02 -0.12821166D-01 -0.16885024D-01 -0.17544622D-01 -0.11148820D-01
  0.74716796D-02  0.24540957D-01  0.10232353D-01 -0.21075156D-02  0.32581463D-16
  0.30547192D-16  0.21751421D-16 -0.29234813D-16 -0.27409495D-16 -0.19517194D-16
  0.47525180D-02  0.44557877D-02  0.31727863D-02  0.55971460D-17  0.34565872D-17
 -0.96452913D-02  0.47550717D-17  0.11496362D-17 -0.60592378D-02 -0.14630441D-19
 -0.62520651D-19  0.10104952D-03 -0.28075603D-02 -0.28075603D-02  0.56151205D-02
  0.25936620D-17 -0.62058038D-17 -0.25327770D-17 -0.45211554D-03 -0.45211554D-03
  0.90423107D-03 -0.57276655D-18 -0.77743315D-17 -0.99263798D-19  0.20746870D-04
  0.20746870D-04 -0.41493740D-04 -0.59974371D-20 -0.19318059D-17 -0.49543694D-18
  0.75076633D-19 -0.66273511D-18 -0.13422903D-02  0.38545685D-18  0.42473894D-18
  0.20134354D-02 -0.61068675D-18  0.15634664D-17  0.20134354D-02 -0.44234774D-18
  0.42034455D-18 -0.18393929D-18 -0.55635097D-03  0.42032383D-18 -0.23098069D-18
  0.83452645D-03 -0.16813575D-17  0.78279855D-18  0.83452645D-03  0.35846219D-18
 -0.41518256D-03 -0.77391828D-03 -0.13119817D-02 -0.19867270D-02 -0.24844091D-02
 -0.21388448D-02 -0.82225004D-03  0.35629440D-05  0.31062439D-03  0.58329758D-03
  0.99325519D-03  0.15559284D-02  0.20851271D-02  0.22428353D-02  0.13465954D-02
 -0.88557777D-03  0.14671285D-03 -0.44239817D-02 -0.35212239D-02  0.25442637D-16
  0.24882344D-16  0.16440816D-16  0.61650191D-17  0.60292541D-17  0.39837831D-17
  0.91179561D-03  0.89171620D-03  0.58919459D-03  0.32333959D-18 -0.89046307D-18
 -0.28999693D-02  0.12504597D-16  0.98736893D-18 -0.56796414D-03  0.30844160D-18
 -0.48175212D-19 -0.36805147D-03  0.60927230D-03  0.60927230D-03 -0.12185446D-02
  0.29221462D-18  0.29829170D-18 -0.78598295D-17  0.17400675D-03  0.17400675D-03
 -0.34801350D-03 -0.10012366D-18 -0.62144876D-17  0.38879978D-17 -0.14640496D-03
 -0.14640496D-03  0.29280993D-03  0.14250538D-18  0.86843238D-17  0.99196980D-18
 -0.29393926D-17  0.34846806D-17 -0.59866682D-03 -0.29158036D-17  0.32677676D-17
  0.89800023D-03  0.11733981D-16 -0.13721809D-16  0.89800023D-03 -0.24047979D-18
 -0.42939663D-18 -0.85850802D-18  0.59652236D-03 -0.43962798D-18 -0.84483047D-18
 -0.89478354D-03  0.17278179D-17  0.34203545D-17 -0.89478354D-03  0.12123444D-18
  0.41518256D-03  0.77391828D-03  0.13119817D-02  0.19867270D-02  0.24844091D-02
  0.21388448D-02  0.82225004D-03 -0.35629440D-05 -0.31062439D-03 -0.58329758D-03
 -0.99325519D-03 -0.15559284D-02 -0.20851271D-02 -0.22428353D-02 -0.13465954D-02
  0.88557777D-03 -0.14671285D-03  0.44239817D-02  0.35212239D-02  0.21344563D-17
  0.20874516D-17  0.13792675D-17  0.33842447D-17  0.33097174D-17  0.21868702D-17
  0.91179561D-03  0.89171620D-03  0.58919459D-03 -0.16941732D-17 -0.13947100D-17
 -0.28999693D-02  0.55879150D-17 -0.58041250D-18 -0.56796414D-03  0.90116082D-18
  0.38601320D-18 -0.36805147D-03 -0.60927230D-03 -0.60927230D-03  0.12185446D-02
 -0.29221377D-18  0.38789123D-18 -0.42733326D-17 -0.17400675D-03 -0.17400675D-03
  0.34801350D-03  0.77196915D-19 -0.50838466D-18  0.22092360D-17  0.14640496D-03
  0.14640496D-03 -0.29280993D-03 -0.11102987D-18 -0.36014003D-17  0.35040178D-19
  0.20308395D-17 -0.81126752D-20 -0.59866682D-03  0.18897496D-17 -0.15151512D-18
  0.89800023D-03 -0.79822681D-17  0.17585315D-18  0.89800023D-03  0.36181398D-19
 -0.92510185D-18  0.11019049D-18  0.59652236D-03 -0.91418006D-18  0.95257235D-19
 -0.89478354D-03  0.36894856D-17 -0.42582870D-18 -0.89478354D-03  0.11226449D-18
MO    5     MO 0.0        OCC NO =    2.0000000  ORB. ENERGY =   -1.275117
 -0.34292121D-02 -0.63928311D-02 -0.10805011D-01 -0.16243470D-01 -0.19956980D-01
 -0.16856860D-01 -0.63577875D-02  0.31465045D-04 -0.11063709D-01 -0.20714753D-01
 -0.35268640D-01 -0.54555223D-01 -0.71847310D-01 -0.74653957D-01 -0.47439238D-01
  0.31792674D-01  0.17753249D-01  0.25293973D-03 -0.48209558D-03  0.18049416D-15
  0.16922475D-15  0.12049810D-15  0.23997722D-15  0.22499390D-15  0.16020906D-15
 -0.99915295D-01 -0.93676940D-01 -0.66703562D-01 -0.13645607D-15  0.34387812D-16
 -0.17433987D-01  0.37733205D-16 -0.91568366D-17 -0.96098960D-03 -0.14041027D-16
 -0.86987759D-17 -0.62464129D-04 -0.10092623D-01 -0.10092623D-01  0.20185245D-01
 -0.12640336D-15 -0.21701652D-15 -0.61007181D-16 -0.26718668D-03 -0.26718668D-03
  0.53437336D-03 -0.33496994D-17 -0.41943552D-16  0.13979993D-16  0.18757404D-03
  0.18757404D-03 -0.37514808D-03  0.37552608D-18 -0.65367930D-17 -0.16992075D-17
  0.90754729D-17  0.17396007D-16 -0.30345743D-02  0.22591921D-17  0.29626404D-16
  0.45518614D-02 -0.29485611D-16 -0.81814424D-16  0.45518614D-02 -0.53029081D-17
 -0.13015913D-16  0.22716522D-17 -0.37401644D-03 -0.11821087D-16  0.24454853D-17
  0.56102466D-03  0.50868826D-16 -0.92604419D-17  0.56102466D-03 -0.64494692D-17
 -0.34292121D-02 -0.63928311D-02 -0.10805011D-01 -0.16243470D-01 -0.19956980D-01
 -0.16856860D-01 -0.63577875D-02  0.31465045D-04 -0.11063709D-01 -0.20714753D-01
 -0.35268640D-01 -0.54555223D-01 -0.71847309D-01 -0.74653957D-01 -0.47439238D-01
  0.31792674D-01  0.17753249D-01  0.25293967D-03 -0.48209558D-03  0.13558453D-16
  0.12711911D-16  0.90516382D-17 -0.72642309D-16 -0.68106782D-16 -0.48496086D-16
  0.99915295D-01  0.93676940D-01  0.66703562D-01 -0.52838454D-16  0.54006088D-16
  0.17433987D-01  0.46710458D-16  0.10870191D-16  0.96098961D-03  0.39506942D-17
  0.15650525D-17  0.62464129D-04 -0.10092623D-01 -0.10092623D-01  0.20185245D-01
 -0.86869193D-17  0.67588328D-16 -0.80358371D-16 -0.26718667D-03 -0.26718667D-03
  0.53437335D-03  0.65681990D-17  0.63733352D-16  0.65918010D-17  0.18757404D-03
  0.18757404D-03 -0.37514808D-03 -0.93577911D-18 -0.83466367D-17  0.17968691D-17
 -0.86391605D-17 -0.19290542D-16  0.30345743D-02 -0.65362811D-17 -0.17427143D-16
 -0.45518614D-02  0.32453763D-16  0.75298768D-16 -0.45518614D-02  0.15506740D-16
 -0.80779996D-17 -0.16424118D-17  0.37401644D-03 -0.81625548D-17 -0.16969176D-17
 -0.56102466D-03  0.32396554D-16  0.66241532D-17 -0.56102466D-03 -0.14865605D-16