 Molden2AIM, Version 4.0.0 (06/02/2016)           Time: Thu Jun 28 20:13:35 2018
GAUSSIAN             32 MOL ORBITALS    562 PRIMITIVES        6 NUCLEI
  C    1    (CENTRE  1)  -5.59760311  2.37469410 -0.02475541  CHARGE =  6.0
  C    2    (CENTRE  2)  -3.07641177  2.40343683  0.02486691  CHARGE =  6.0
  Cl   3    (CENTRE  3)  -7.46135306  3.71070590  2.23948042  CHARGE = 17.0
  F    4    (CENTRE  4)  -6.84945596  1.26896999 -1.89823745  CHARGE =  9.0
  F    5    (CENTRE  5)  -1.82457026  3.50903055  1.89842831  CHARGE =  9.0
  Cl   6    (CENTRE  6)  -1.21264292  1.06815257 -2.23978277  CHARGE = 17.0
CENTRE ASSIGNMENTS    1  1  1  1  1  1  1  1  1  1  1  1  1  1  1  1  1  1  1  1
CENTRE ASSIGNMENTS    1  1  1  1  1  1  1  1  1  1  1  1  1  1  1  1  1  1  1  1
CENTRE ASSIGNMENTS    1  1  1  1  1  1  1  1  1  1  1  1  1  1  1  1  1  1  1  1
CENTRE ASSIGNMENTS    1  1  1  1  1  1  1  1  1  1  1  1  1  1  1  2  2  2  2  2
CENTRE ASSIGNMENTS    2  2  2  2  2  2  2  2  2  2  2  2  2  2  2  2  2  2  2  2
CENTRE ASSIGNMENTS    2  2  2  2  2  2  2  2  2  2  2  2  2  2  2  2  2  2  2  2
CENTRE ASSIGNMENTS    2  2  2  2  2  2  2  2  2  2  2  2  2  2  2  2  2  2  2  2
CENTRE ASSIGNMENTS    2  2  2  2  2  2  2  2  2  2  3  3  3  3  3  3  3  3  3  3
CENTRE ASSIGNMENTS    3  3  3  3  3  3  3  3  3  3  3  3  3  3  3  3  3  3  3  3
CENTRE ASSIGNMENTS    3  3  3  3  3  3  3  3  3  3  3  3  3  3  3  3  3  3  3  3
CENTRE ASSIGNMENTS    3  3  3  3  3  3  3  3  3  3  3  3  3  3  3  3  3  3  3  3
CENTRE ASSIGNMENTS    3  3  3  3  3  3  3  3  3  3  3  3  3  3  3  3  3  3  3  3
CENTRE ASSIGNMENTS    3  3  3  3  3  3  3  3  3  3  3  3  3  3  3  3  3  3  3  3
CENTRE ASSIGNMENTS    3  3  3  3  3  3  3  3  3  3  3  3  3  3  3  3  3  3  3  3
CENTRE ASSIGNMENTS    3  4  4  4  4  4  4  4  4  4  4  4  4  4  4  4  4  4  4  4
CENTRE ASSIGNMENTS    4  4  4  4  4  4  4  4  4  4  4  4  4  4  4  4  4  4  4  4
CENTRE ASSIGNMENTS    4  4  4  4  4  4  4  4  4  4  4  4  4  4  4  4  4  4  4  4
CENTRE ASSIGNMENTS    4  4  4  4  4  4  4  4  4  4  4  4  4  4  4  4  5  5  5  5
CENTRE ASSIGNMENTS    5  5  5  5  5  5  5  5  5  5  5  5  5  5  5  5  5  5  5  5
CENTRE ASSIGNMENTS    5  5  5  5  5  5  5  5  5  5  5  5  5  5  5  5  5  5  5  5
CENTRE ASSIGNMENTS    5  5  5  5  5  5  5  5  5  5  5  5  5  5  5  5  5  5  5  5
CENTRE ASSIGNMENTS    5  5  5  5  5  5  5  5  5  5  5  6  6  6  6  6  6  6  6  6
CENTRE ASSIGNMENTS    6  6  6  6  6  6  6  6  6  6  6  6  6  6  6  6  6  6  6  6
CENTRE ASSIGNMENTS    6  6  6  6  6  6  6  6  6  6  6  6  6  6  6  6  6  6  6  6
CENTRE ASSIGNMENTS    6  6  6  6  6  6  6  6  6  6  6  6  6  6  6  6  6  6  6  6
CENTRE ASSIGNMENTS    6  6  6  6  6  6  6  6  6  6  6  6  6  6  6  6  6  6  6  6
CENTRE ASSIGNMENTS    6  6  6  6  6  6  6  6  6  6  6  6  6  6  6  6  6  6  6  6
CENTRE ASSIGNMENTS    6  6  6  6  6  6  6  6  6  6  6  6  6  6  6  6  6  6  6  6
CENTRE ASSIGNMENTS    6  6
TYPE ASSIGNMENTS      1  1  1  1  1  1  1  1  1  1  1  1  1  1  1  1  1  1  1  2
TYPE ASSIGNMENTS      2  2  3  3  3  4  4  4  2  3  4  2  3  4  2  3  4  5  6  7
TYPE ASSIGNMENTS      8  9 10  5  6  7  8  9 10  5  6  7  8  9 10 11 12 13 17 14
TYPE ASSIGNMENTS     15 18 19 16 20 11 12 13 17 14 15 18 19 16 20  1  1  1  1  1
TYPE ASSIGNMENTS      1  1  1  1  1  1  1  1  1  1  1  1  1  1  2  2  2  3  3  3
TYPE ASSIGNMENTS      4  4  4  2  3  4  2  3  4  2  3  4  5  6  7  8  9 10  5  6
TYPE ASSIGNMENTS      7  8  9 10  5  6  7  8  9 10 11 12 13 17 14 15 18 19 16 20
TYPE ASSIGNMENTS     11 12 13 17 14 15 18 19 16 20  1  1  1  1  1  1  1  1  1  1
TYPE ASSIGNMENTS      1  1  1  1  1  1  1  1  1  1  1  1  1  1  1  1  1  1  1  1
TYPE ASSIGNMENTS      1  1  1  1  1  1  1  1  1  1  1  1  2  2  2  2  2  2  2  3
TYPE ASSIGNMENTS      3  3  3  3  3  3  4  4  4  4  4  4  4  2  2  2  2  2  2  2
TYPE ASSIGNMENTS      3  3  3  3  3  3  3  4  4  4  4  4  4  4  2  3  4  2  3  4
TYPE ASSIGNMENTS      2  3  4  5  6  7  8  9 10  5  6  7  8  9 10  5  6  7  8  9
TYPE ASSIGNMENTS     10 11 12 13 17 14 15 18 19 16 20 11 12 13 17 14 15 18 19 16
TYPE ASSIGNMENTS     20  1  1  1  1  1  1  1  1  1  1  1  1  1  1  1  1  1  1  1
TYPE ASSIGNMENTS      2  2  2  3  3  3  4  4  4  2  3  4  2  3  4  2  3  4  5  6
TYPE ASSIGNMENTS      7  8  9 10  5  6  7  8  9 10  5  6  7  8  9 10 11 12 13 17
TYPE ASSIGNMENTS     14 15 18 19 16 20 11 12 13 17 14 15 18 19 16 20  1  1  1  1
TYPE ASSIGNMENTS      1  1  1  1  1  1  1  1  1  1  1  1  1  1  1  2  2  2  3  3
TYPE ASSIGNMENTS      3  4  4  4  2  3  4  2  3  4  2  3  4  5  6  7  8  9 10  5
TYPE ASSIGNMENTS      6  7  8  9 10  5  6  7  8  9 10 11 12 13 17 14 15 18 19 16
TYPE ASSIGNMENTS     20 11 12 13 17 14 15 18 19 16 20  1  1  1  1  1  1  1  1  1
TYPE ASSIGNMENTS      1  1  1  1  1  1  1  1  1  1  1  1  1  1  1  1  1  1  1  1
TYPE ASSIGNMENTS      1  1  1  1  1  1  1  1  1  1  1  1  1  2  2  2  2  2  2  2
TYPE ASSIGNMENTS      3  3  3  3  3  3  3  4  4  4  4  4  4  4  2  2  2  2  2  2
TYPE ASSIGNMENTS      2  3  3  3  3  3  3  3  4  4  4  4  4  4  4  2  3  4  2  3
TYPE ASSIGNMENTS      4  2  3  4  5  6  7  8  9 10  5  6  7  8  9 10  5  6  7  8
TYPE ASSIGNMENTS      9 10 11 12 13 17 14 15 18 19 16 20 11 12 13 17 14 15 18 19
TYPE ASSIGNMENTS     16 20
EXPONENTS  0.8236000D+04 0.1235000D+04 0.2808000D+03 0.7927000D+02 0.2559000D+02
EXPONENTS  0.8997000D+01 0.3319000D+01 0.3643000D+00 0.8236000D+04 0.1235000D+04
EXPONENTS  0.2808000D+03 0.7927000D+02 0.2559000D+02 0.8997000D+01 0.3319000D+01
EXPONENTS  0.3643000D+00 0.9059000D+00 0.1285000D+00 0.4402000D-01 0.1871000D+02
EXPONENTS  0.4133000D+01 0.1200000D+01 0.1871000D+02 0.4133000D+01 0.1200000D+01
EXPONENTS  0.1871000D+02 0.4133000D+01 0.1200000D+01 0.3827000D+00 0.3827000D+00
EXPONENTS  0.3827000D+00 0.1209000D+00 0.1209000D+00 0.1209000D+00 0.3569000D-01
EXPONENTS  0.3569000D-01 0.3569000D-01 0.1097000D+01 0.1097000D+01 0.1097000D+01
EXPONENTS  0.1097000D+01 0.1097000D+01 0.1097000D+01 0.3180000D+00 0.3180000D+00
EXPONENTS  0.3180000D+00 0.3180000D+00 0.3180000D+00 0.3180000D+00 0.1000000D+00
EXPONENTS  0.1000000D+00 0.1000000D+00 0.1000000D+00 0.1000000D+00 0.1000000D+00
EXPONENTS  0.7610000D+00 0.7610000D+00 0.7610000D+00 0.7610000D+00 0.7610000D+00
EXPONENTS  0.7610000D+00 0.7610000D+00 0.7610000D+00 0.7610000D+00 0.7610000D+00
EXPONENTS  0.2680000D+00 0.2680000D+00 0.2680000D+00 0.2680000D+00 0.2680000D+00
EXPONENTS  0.2680000D+00 0.2680000D+00 0.2680000D+00 0.2680000D+00 0.2680000D+00
EXPONENTS  0.8236000D+04 0.1235000D+04 0.2808000D+03 0.7927000D+02 0.2559000D+02
EXPONENTS  0.8997000D+01 0.3319000D+01 0.3643000D+00 0.8236000D+04 0.1235000D+04
EXPONENTS  0.2808000D+03 0.7927000D+02 0.2559000D+02 0.8997000D+01 0.3319000D+01
EXPONENTS  0.3643000D+00 0.9059000D+00 0.1285000D+00 0.4402000D-01 0.1871000D+02
EXPONENTS  0.4133000D+01 0.1200000D+01 0.1871000D+02 0.4133000D+01 0.1200000D+01
EXPONENTS  0.1871000D+02 0.4133000D+01 0.1200000D+01 0.3827000D+00 0.3827000D+00
EXPONENTS  0.3827000D+00 0.1209000D+00 0.1209000D+00 0.1209000D+00 0.3569000D-01
EXPONENTS  0.3569000D-01 0.3569000D-01 0.1097000D+01 0.1097000D+01 0.1097000D+01
EXPONENTS  0.1097000D+01 0.1097000D+01 0.1097000D+01 0.3180000D+00 0.3180000D+00
EXPONENTS  0.3180000D+00 0.3180000D+00 0.3180000D+00 0.3180000D+00 0.1000000D+00
EXPONENTS  0.1000000D+00 0.1000000D+00 0.1000000D+00 0.1000000D+00 0.1000000D+00
EXPONENTS  0.7610000D+00 0.7610000D+00 0.7610000D+00 0.7610000D+00 0.7610000D+00
EXPONENTS  0.7610000D+00 0.7610000D+00 0.7610000D+00 0.7610000D+00 0.7610000D+00
EXPONENTS  0.2680000D+00 0.2680000D+00 0.2680000D+00 0.2680000D+00 0.2680000D+00
EXPONENTS  0.2680000D+00 0.2680000D+00 0.2680000D+00 0.2680000D+00 0.2680000D+00
EXPONENTS  0.4561000D+06 0.6833000D+05 0.1555000D+05 0.4405000D+04 0.1439000D+04
EXPONENTS  0.5204000D+03 0.2031000D+03 0.8396000D+02 0.3620000D+02 0.1583000D+02
EXPONENTS  0.6334000D+01 0.2694000D+01 0.4313000D+00 0.4561000D+06 0.6833000D+05
EXPONENTS  0.1555000D+05 0.4405000D+04 0.1439000D+04 0.5204000D+03 0.2031000D+03
EXPONENTS  0.8396000D+02 0.3620000D+02 0.1583000D+02 0.6334000D+01 0.2694000D+01
EXPONENTS  0.4313000D+00 0.4561000D+06 0.6833000D+05 0.1555000D+05 0.4405000D+04
EXPONENTS  0.1439000D+04 0.5204000D+03 0.2031000D+03 0.8396000D+02 0.3620000D+02
EXPONENTS  0.1583000D+02 0.6334000D+01 0.2694000D+01 0.4313000D+00 0.9768000D+00
EXPONENTS  0.1625000D+00 0.5910000D-01 0.6633000D+03 0.1568000D+03 0.4998000D+02
EXPONENTS  0.1842000D+02 0.7240000D+01 0.2922000D+01 0.3818000D+00 0.6633000D+03
EXPONENTS  0.1568000D+03 0.4998000D+02 0.1842000D+02 0.7240000D+01 0.2922000D+01
EXPONENTS  0.3818000D+00 0.6633000D+03 0.1568000D+03 0.4998000D+02 0.1842000D+02
EXPONENTS  0.7240000D+01 0.2922000D+01 0.3818000D+00 0.6633000D+03 0.1568000D+03
EXPONENTS  0.4998000D+02 0.1842000D+02 0.7240000D+01 0.2922000D+01 0.3818000D+00
EXPONENTS  0.6633000D+03 0.1568000D+03 0.4998000D+02 0.1842000D+02 0.7240000D+01
EXPONENTS  0.2922000D+01 0.3818000D+00 0.6633000D+03 0.1568000D+03 0.4998000D+02
EXPONENTS  0.1842000D+02 0.7240000D+01 0.2922000D+01 0.3818000D+00 0.1022000D+01
EXPONENTS  0.1022000D+01 0.1022000D+01 0.1301000D+00 0.1301000D+00 0.1301000D+00
EXPONENTS  0.4190000D-01 0.4190000D-01 0.4190000D-01 0.1046000D+01 0.1046000D+01
EXPONENTS  0.1046000D+01 0.1046000D+01 0.1046000D+01 0.1046000D+01 0.3440000D+00
EXPONENTS  0.3440000D+00 0.3440000D+00 0.3440000D+00 0.3440000D+00 0.3440000D+00
EXPONENTS  0.1350000D+00 0.1350000D+00 0.1350000D+00 0.1350000D+00 0.1350000D+00
EXPONENTS  0.1350000D+00 0.7060000D+00 0.7060000D+00 0.7060000D+00 0.7060000D+00
EXPONENTS  0.7060000D+00 0.7060000D+00 0.7060000D+00 0.7060000D+00 0.7060000D+00
EXPONENTS  0.7060000D+00 0.3120000D+00 0.3120000D+00 0.3120000D+00 0.3120000D+00
EXPONENTS  0.3120000D+00 0.3120000D+00 0.3120000D+00 0.3120000D+00 0.3120000D+00
EXPONENTS  0.3120000D+00 0.1950000D+05 0.2923000D+04 0.6645000D+03 0.1875000D+03
EXPONENTS  0.6062000D+02 0.2142000D+02 0.7950000D+01 0.8815000D+00 0.1950000D+05
EXPONENTS  0.2923000D+04 0.6645000D+03 0.1875000D+03 0.6062000D+02 0.2142000D+02
EXPONENTS  0.7950000D+01 0.8815000D+00 0.2257000D+01 0.3041000D+00 0.9158000D-01
EXPONENTS  0.4388000D+02 0.9926000D+01 0.2930000D+01 0.4388000D+02 0.9926000D+01
EXPONENTS  0.2930000D+01 0.4388000D+02 0.9926000D+01 0.2930000D+01 0.9132000D+00
EXPONENTS  0.9132000D+00 0.9132000D+00 0.2672000D+00 0.2672000D+00 0.2672000D+00
EXPONENTS  0.7361000D-01 0.7361000D-01 0.7361000D-01 0.3107000D+01 0.3107000D+01
EXPONENTS  0.3107000D+01 0.3107000D+01 0.3107000D+01 0.3107000D+01 0.8550000D+00
EXPONENTS  0.8550000D+00 0.8550000D+00 0.8550000D+00 0.8550000D+00 0.8550000D+00
EXPONENTS  0.2920000D+00 0.2920000D+00 0.2920000D+00 0.2920000D+00 0.2920000D+00
EXPONENTS  0.2920000D+00 0.1917000D+01 0.1917000D+01 0.1917000D+01 0.1917000D+01
EXPONENTS  0.1917000D+01 0.1917000D+01 0.1917000D+01 0.1917000D+01 0.1917000D+01
EXPONENTS  0.1917000D+01 0.7240000D+00 0.7240000D+00 0.7240000D+00 0.7240000D+00
EXPONENTS  0.7240000D+00 0.7240000D+00 0.7240000D+00 0.7240000D+00 0.7240000D+00
EXPONENTS  0.7240000D+00 0.1950000D+05 0.2923000D+04 0.6645000D+03 0.1875000D+03
EXPONENTS  0.6062000D+02 0.2142000D+02 0.7950000D+01 0.8815000D+00 0.1950000D+05
EXPONENTS  0.2923000D+04 0.6645000D+03 0.1875000D+03 0.6062000D+02 0.2142000D+02
EXPONENTS  0.7950000D+01 0.8815000D+00 0.2257000D+01 0.3041000D+00 0.9158000D-01
EXPONENTS  0.4388000D+02 0.9926000D+01 0.2930000D+01 0.4388000D+02 0.9926000D+01
EXPONENTS  0.2930000D+01 0.4388000D+02 0.9926000D+01 0.2930000D+01 0.9132000D+00
EXPONENTS  0.9132000D+00 0.9132000D+00 0.2672000D+00 0.2672000D+00 0.2672000D+00
EXPONENTS  0.7361000D-01 0.7361000D-01 0.7361000D-01 0.3107000D+01 0.3107000D+01
EXPONENTS  0.3107000D+01 0.3107000D+01 0.3107000D+01 0.3107000D+01 0.8550000D+00
EXPONENTS  0.8550000D+00 0.8550000D+00 0.8550000D+00 0.8550000D+00 0.8550000D+00
EXPONENTS  0.2920000D+00 0.2920000D+00 0.2920000D+00 0.2920000D+00 0.2920000D+00
EXPONENTS  0.2920000D+00 0.1917000D+01 0.1917000D+01 0.1917000D+01 0.1917000D+01
EXPONENTS  0.1917000D+01 0.1917000D+01 0.1917000D+01 0.1917000D+01 0.1917000D+01
EXPONENTS  0.1917000D+01 0.7240000D+00 0.7240000D+00 0.7240000D+00 0.7240000D+00
EXPONENTS  0.7240000D+00 0.7240000D+00 0.7240000D+00 0.7240000D+00 0.7240000D+00
EXPONENTS  0.7240000D+00 0.4561000D+06 0.6833000D+05 0.1555000D+05 0.4405000D+04
EXPONENTS  0.1439000D+04 0.5204000D+03 0.2031000D+03 0.8396000D+02 0.3620000D+02
EXPONENTS  0.1583000D+02 0.6334000D+01 0.2694000D+01 0.4313000D+00 0.4561000D+06
EXPONENTS  0.6833000D+05 0.1555000D+05 0.4405000D+04 0.1439000D+04 0.5204000D+03
EXPONENTS  0.2031000D+03 0.8396000D+02 0.3620000D+02 0.1583000D+02 0.6334000D+01
EXPONENTS  0.2694000D+01 0.4313000D+00 0.4561000D+06 0.6833000D+05 0.1555000D+05
EXPONENTS  0.4405000D+04 0.1439000D+04 0.5204000D+03 0.2031000D+03 0.8396000D+02
EXPONENTS  0.3620000D+02 0.1583000D+02 0.6334000D+01 0.2694000D+01 0.4313000D+00
EXPONENTS  0.9768000D+00 0.1625000D+00 0.5910000D-01 0.6633000D+03 0.1568000D+03
EXPONENTS  0.4998000D+02 0.1842000D+02 0.7240000D+01 0.2922000D+01 0.3818000D+00
EXPONENTS  0.6633000D+03 0.1568000D+03 0.4998000D+02 0.1842000D+02 0.7240000D+01
EXPONENTS  0.2922000D+01 0.3818000D+00 0.6633000D+03 0.1568000D+03 0.4998000D+02
EXPONENTS  0.1842000D+02 0.7240000D+01 0.2922000D+01 0.3818000D+00 0.6633000D+03
EXPONENTS  0.1568000D+03 0.4998000D+02 0.1842000D+02 0.7240000D+01 0.2922000D+01
EXPONENTS  0.3818000D+00 0.6633000D+03 0.1568000D+03 0.4998000D+02 0.1842000D+02
EXPONENTS  0.7240000D+01 0.2922000D+01 0.3818000D+00 0.6633000D+03 0.1568000D+03
EXPONENTS  0.4998000D+02 0.1842000D+02 0.7240000D+01 0.2922000D+01 0.3818000D+00
EXPONENTS  0.1022000D+01 0.1022000D+01 0.1022000D+01 0.1301000D+00 0.1301000D+00
EXPONENTS  0.1301000D+00 0.4190000D-01 0.4190000D-01 0.4190000D-01 0.1046000D+01
EXPONENTS  0.1046000D+01 0.1046000D+01 0.1046000D+01 0.1046000D+01 0.1046000D+01
EXPONENTS  0.3440000D+00 0.3440000D+00 0.3440000D+00 0.3440000D+00 0.3440000D+00
EXPONENTS  0.3440000D+00 0.1350000D+00 0.1350000D+00 0.1350000D+00 0.1350000D+00
EXPONENTS  0.1350000D+00 0.1350000D+00 0.7060000D+00 0.7060000D+00 0.7060000D+00
EXPONENTS  0.7060000D+00 0.7060000D+00 0.7060000D+00 0.7060000D+00 0.7060000D+00
EXPONENTS  0.7060000D+00 0.7060000D+00 0.3120000D+00 0.3120000D+00 0.3120000D+00
EXPONENTS  0.3120000D+00 0.3120000D+00 0.3120000D+00 0.3120000D+00 0.3120000D+00
EXPONENTS  0.3120000D+00 0.3120000D+00
MO    1     MO 0.0        OCC NO =    2.0000000  ORB. ENERGY = -101.232219
  0.10532690D-03  0.19635329D-03  0.33187166D-03  0.49891181D-03  0.61297080D-03
  0.51775183D-03  0.19527694D-03 -0.96643648D-06 -0.77039633D-04 -0.14424250D-03
 -0.24558520D-03 -0.37988296D-03 -0.50029250D-03 -0.51983595D-03 -0.33033241D-03
  0.22138110D-03  0.16439220D-03  0.56567114D-03  0.31824780D-04  0.17117358D-04
  0.16048611D-04  0.11427567D-04  0.12830634D-05  0.12029535D-05  0.85657457D-06
  0.20675422D-05  0.19384523D-05  0.13802935D-05  0.10063927D-03  0.17300647D-03
  0.29361804D-03  0.11663041D-03 -0.12170140D-03 -0.20643752D-03 -0.11272841D-05
 -0.51603611D-05 -0.87398555D-05  0.13561575D-04 -0.14442643D-04  0.88106786D-06
 -0.15668305D-03 -0.26567410D-03  0.27699557D-04  0.89972899D-06  0.26282803D-04
 -0.27182532D-04  0.33949490D-03  0.57608426D-03 -0.97001451D-04  0.15253329D-04
 -0.60424543D-05 -0.92108748D-05 -0.72205860D-04 -0.12234491D-03 -0.56727533D-05
 -0.68750572D-05 -0.12986507D-04 -0.91653093D-05  0.10203560D-04  0.20983709D-04
  0.35829058D-04  0.10421611D-04  0.17975812D-04 -0.83331299D-05  0.36068697D-06
 -0.16273887D-04  0.21811527D-04 -0.33779962D-04  0.77762533D-05  0.82440189D-04
  0.13976764D-03  0.41045407D-04 -0.14787477D-03 -0.38427755D-04  0.60463302D-04
  0.81178547D-04  0.15133527D-03  0.25578326D-03  0.38452603D-03  0.47243466D-03
  0.39904659D-03  0.15050569D-03 -0.74486107D-06 -0.61280262D-04 -0.11473599D-03
 -0.19534783D-03 -0.30217339D-03 -0.39795173D-03 -0.41349734D-03 -0.26275899D-03
  0.17609497D-03  0.16339410D-03 -0.34254525D-04  0.15535465D-03 -0.26957768D-04
 -0.25274621D-04 -0.17997036D-04 -0.89178494D-05 -0.83610507D-05 -0.59535662D-05
 -0.15068151D-04 -0.14127350D-04 -0.10059515D-04  0.18196432D-03 -0.20478823D-03
 -0.34736664D-03  0.32053774D-03  0.14607471D-04  0.24704809D-04 -0.44010656D-06
  0.29459643D-05  0.49782304D-05  0.25297013D-04 -0.39013235D-04  0.13716223D-04
 -0.15138067D-03 -0.25669003D-03  0.95506388D-04 -0.51235309D-04  0.52230354D-04
 -0.99504484D-06  0.36330296D-03  0.61620492D-03 -0.96627423D-04  0.10750373D-05
 -0.35390701D-05  0.24640328D-05 -0.95916989D-04 -0.16261248D-03  0.10852880D-04
  0.28167752D-05 -0.68418397D-05  0.85797794D-05 -0.14053713D-05 -0.20936166D-04
 -0.35628515D-04 -0.70449544D-05  0.41461685D-04  0.98891767D-05 -0.99516801D-05
  0.57241889D-04 -0.24390582D-04  0.18029039D-04 -0.31702389D-04 -0.44765194D-04
 -0.76014126D-04 -0.14002328D-03  0.11793694D-03  0.21927008D-04 -0.19558850D-03
  0.30394505D+00  0.56868236D+00  0.98255713D+00  0.15928397D+01  0.24188542D+01
  0.33619228D+01  0.39968413D+01  0.35600788D+01  0.17673297D+01  0.28474513D+00
  0.43715963D-02  0.78119995D-03  0.29192223D-04 -0.63932017D-03 -0.11941583D-02
 -0.20725196D-02 -0.33628571D-02 -0.52053034D-02 -0.74509189D-02 -0.97257765D-02
 -0.10364438D-01 -0.77476277D-02 -0.40898350D-03  0.52552350D-02  0.31222134D-02
 -0.11705959D-04  0.26052203D-03  0.48622682D-03  0.84501942D-03  0.13695279D-02
  0.21270912D-02  0.30471196D-02  0.40234375D-02  0.43505294D-02  0.34108715D-02
  0.16972384D-03 -0.29239792D-02 -0.30268605D-02  0.13696972D-02 -0.16615836D-02
 -0.53305240D-03 -0.18561128D-03  0.62090977D-02  0.81787751D-02  0.90231049D-02
  0.74947258D-02  0.39806309D-02  0.10267208D-02 -0.10554341D-05 -0.22907926D-02
 -0.30174879D-02 -0.33289961D-02 -0.27651139D-02 -0.14686192D-02 -0.37879972D-03
  0.38939324D-06 -0.38804995D-02 -0.51114887D-02 -0.56391695D-02 -0.46839785D-02
 -0.24877747D-02 -0.64166968D-03  0.65961461D-06 -0.54250347D-02 -0.71226728D-02
 -0.81096870D-02 -0.68669499D-02 -0.39336533D-02 -0.89476965D-03  0.41880144D-03
  0.19803159D-02  0.26000096D-02  0.29603022D-02  0.25066623D-02  0.14359127D-02
  0.32662032D-03 -0.15287628D-03  0.33545820D-02  0.44043202D-02  0.50146426D-02
  0.42461934D-02  0.24323831D-02  0.55328276D-03 -0.25896678D-03 -0.26224431D-03
  0.76430161D-04  0.12939802D-03 -0.76386049D-04  0.10550868D-03  0.17890103D-03
 -0.68442433D-05  0.59590040D-05  0.10097132D-04 -0.35674194D-05 -0.35997358D-04
  0.39564777D-04 -0.90462781D-04 -0.15348421D-03  0.13677860D-03  0.61658213D-04
 -0.29325569D-04 -0.32332644D-04 -0.59583543D-04 -0.10081014D-03 -0.53840252D-05
  0.62165627D-05  0.42547042D-05 -0.10471267D-04  0.17308988D-04  0.29331144D-04
 -0.26631472D-04 -0.11528381D-04  0.16576081D-04  0.15281215D-04 -0.23831290D-04
 -0.35616002D-04 -0.60241387D-04  0.58416432D-04 -0.14112242D-04  0.14397741D-04
  0.14892022D-03  0.51565255D-05 -0.22456212D-05  0.21932018D-05  0.21562839D-05
 -0.54174867D-05 -0.91799213D-05 -0.17625860D-04  0.12154350D-04  0.26003159D-05
 -0.35753253D-04  0.15608144D-04  0.29094257D-04  0.49321919D-04  0.74687922D-04
  0.93397508D-04  0.80406555D-04  0.30911215D-04 -0.13394335D-06 -0.10047390D-04
 -0.18867220D-04 -0.32127621D-04 -0.50327729D-04 -0.67445077D-04 -0.72546274D-04
 -0.43556688D-04  0.28644710D-04 -0.11851533D-04 -0.24780710D-03  0.33955140D-03
 -0.34249007D-04 -0.33494781D-04 -0.22131418D-04  0.56901870D-04  0.55648786D-04
  0.36769506D-04  0.96297259D-04  0.94176616D-04  0.62226472D-04  0.11580073D-04
 -0.60076942D-04 -0.10174758D-03 -0.22882605D-03  0.14052120D-04  0.24425315D-04
  0.11123182D-04  0.18825391D-04  0.31889841D-04  0.53994255D-05  0.16688619D-04
 -0.22088044D-04 -0.97681253D-04 -0.16569856D-03 -0.69647845D-04  0.11532859D-04
 -0.10738802D-04 -0.79405725D-06  0.35451193D-04  0.60141762D-04  0.17768270D-04
 -0.47786110D-04  0.23172906D-04  0.24613204D-04 -0.13795386D-04 -0.23111299D-04
  0.23119838D-05  0.10098254D-03 -0.84951298D-07  0.13878172D-04 -0.14845758D-03
 -0.33347421D-04 -0.56826863D-04 -0.15449002D-03  0.33602275D-04  0.15192348D-04
 -0.98899034D-05 -0.37935043D-04 -0.71306301D-05 -0.94909455D-05  0.43187173D-04
  0.22308821D-04  0.37909550D-04  0.70617955D-04 -0.91693072D-06 -0.94367130D-05
  0.49294593D-04  0.58161596D-04  0.10841574D-03  0.18379133D-03  0.27831423D-03
  0.34803293D-03  0.29962393D-03  0.11518638D-03 -0.49912143D-06 -0.38419825D-04
 -0.72145626D-04 -0.12285156D-03 -0.19244624D-03 -0.25790060D-03 -0.27740687D-03
 -0.16655472D-03  0.10953339D-03 -0.27778029D-04 -0.11643537D-03  0.33917324D-03
  0.23915656D-04  0.23388989D-04  0.15454094D-04 -0.37101278D-04 -0.36284240D-04
 -0.23974531D-04 -0.62842228D-04 -0.61458327D-04 -0.40608115D-04 -0.13161052D-04
  0.28296151D-04  0.47943927D-04  0.12767117D-03  0.34054999D-04  0.57653276D-04
  0.19002209D-05 -0.21361371D-04 -0.36199151D-04  0.20265815D-04 -0.11141661D-04
 -0.91241542D-05 -0.75446668D-04 -0.12791233D-03  0.38926943D-05  0.46566564D-05
  0.17347723D-05 -0.63914287D-05  0.24306575D-04  0.41186039D-04 -0.14817724D-04
 -0.23159341D-04  0.28345472D-04 -0.51861304D-05  0.25356230D-05  0.45507354D-05
 -0.60638687D-04 -0.15720595D-03  0.34402127D-05 -0.38121698D-04  0.25278118D-03
  0.90820050D-04  0.15535485D-03  0.21883667D-03 -0.10114069D-03 -0.40989753D-04
 -0.62374815D-04  0.54981312D-04 -0.20393569D-05  0.17204784D-04 -0.77885109D-04
 -0.41127973D-04 -0.70168853D-04 -0.87058827D-04  0.47246043D-04  0.18554501D-04
 -0.16249245D-04  0.53739329D+00  0.10054649D+01  0.17372206D+01  0.28162372D+01
  0.42766809D+01  0.59440835D+01  0.70666578D+01  0.62944352D+01  0.31247461D+01
  0.50344667D+00  0.77292473D-02  0.13812089D-02  0.51613622D-04 -0.11445162D-02
 -0.21377919D-02 -0.37102415D-02 -0.60202142D-02 -0.93185766D-02 -0.13338696D-01
 -0.17411165D-01 -0.18554501D-01 -0.13869866D-01 -0.73216560D-03  0.94079645D-02
  0.55894118D-02 -0.20956104D-04  0.47009915D-03  0.87737233D-03  0.15247959D-02
  0.24712456D-02  0.38382313D-02  0.54983771D-02  0.72600945D-02  0.78503158D-02
  0.61547494D-02  0.30625829D-03 -0.52761763D-02 -0.54618206D-02  0.24715511D-02
 -0.28693617D-02 -0.12188670D-02 -0.37277066D-03 -0.72785048D-02 -0.95874243D-02
 -0.10577175D-01 -0.87855596D-02 -0.46662241D-02 -0.12035553D-02  0.12372140D-05
  0.38116632D-02  0.50208159D-02  0.55391361D-02  0.46008892D-02  0.24436440D-02
  0.63028708D-03 -0.64791369D-06  0.64649987D-02  0.85158542D-02  0.93949822D-02
  0.78036126D-02  0.41446882D-02  0.10690360D-02 -0.10989327D-05  0.63311687D-02
  0.83123604D-02  0.94642338D-02  0.80139245D-02  0.45906845D-02  0.10442215D-02
 -0.48875311D-03 -0.32951358D-02 -0.43262718D-02 -0.49257787D-02 -0.41709471D-02
 -0.23892791D-02 -0.54347810D-03  0.25437766D-03 -0.55888213D-02 -0.73377127D-02
 -0.83545257D-02 -0.70742692D-02 -0.40524138D-02 -0.92178355D-03  0.43144543D-03
  0.25138217D-03 -0.11134280D-03 -0.18889917D-03  0.21434548D-03 -0.22543266D-03
 -0.38237805D-03  0.12308912D-04 -0.89799931D-05 -0.15222221D-04  0.12934516D-04
 -0.76905150D-04  0.63970634D-04 -0.14549421D-03 -0.24674116D-03  0.25469783D-03
  0.29723698D-04 -0.81842736D-05 -0.21539425D-04 -0.59521735D-04 -0.10094734D-03
 -0.24155646D-04  0.11431950D-04  0.10142010D-04 -0.21573960D-04  0.40099600D-04
  0.68004646D-04 -0.57313505D-04  0.30396235D-04 -0.26526352D-04 -0.15830664D-04
  0.19698473D-04  0.36248361D-04  0.61428214D-04 -0.11088718D-03  0.43330696D-04
 -0.13936221D-04 -0.23598267D-03 -0.43264429D-05  0.11921156D-04  0.65604041D-06
 -0.13570863D-04 -0.80258844D-06 -0.13372691D-05  0.26550192D-04 -0.34960880D-04
 -0.63085216D-06  0.72505972D-04
MO    2     MO 0.0        OCC NO =    2.0000000  ORB. ENERGY = -101.232218
 -0.17638086D-04 -0.32881402D-04 -0.55575362D-04 -0.83547974D-04 -0.10264834D-03
 -0.86702932D-04 -0.32701156D-04  0.16183985D-06  0.92068730D-05  0.17238171D-04
  0.29349462D-04  0.45399154D-04  0.59789089D-04  0.62124693D-04  0.39477454D-04
 -0.26456871D-04  0.43678121D-04 -0.10073379D-02  0.24856148D-03  0.23846536D-04
  0.22357644D-04  0.15919974D-04  0.15223139D-04  0.14272660D-04  0.10162984D-04
  0.25780177D-04  0.24170555D-04  0.17210875D-04 -0.52052739D-03  0.10970325D-03
  0.18574523D-03 -0.81606167D-03  0.17429145D-03  0.29529417D-03  0.27289047D-05
  0.28699880D-05  0.48727153D-05  0.26534623D-04 -0.51665648D-04  0.25131025D-04
 -0.33226919D-04 -0.56259461D-04  0.13931941D-03 -0.10093048D-03  0.57621337D-04
  0.43309139D-04  0.14044692D-03  0.23767364D-03 -0.26226001D-04 -0.23284573D-04
  0.32121580D-05  0.20072415D-04 -0.66109418D-04 -0.11206358D-03  0.30531328D-04
  0.59673001D-05  0.34884857D-04 -0.13689909D-05 -0.14158159D-04  0.57004272D-05
  0.95670512D-05 -0.37437416D-05 -0.11035500D-03 -0.54600785D-05  0.18808885D-04
 -0.84023847D-04  0.11037888D-04  0.21217780D-04  0.48769372D-04 -0.50161352D-04
 -0.84966734D-04  0.20330217D-03  0.17047688D-04  0.21313395D-04  0.27921040D-03
  0.69387887D-04  0.12935480D-03  0.21863240D-03  0.32867611D-03  0.40381657D-03
  0.34108765D-03  0.12864571D-03 -0.63667481D-06 -0.47586570D-04 -0.89097074D-04
 -0.15169539D-03 -0.23464970D-03 -0.30902541D-03 -0.32109719D-03 -0.20404285D-03
  0.13674477D-03  0.47272996D-04  0.11547785D-02 -0.19662658D-03  0.11615765D-04
  0.10890518D-04  0.77546976D-05  0.12427553D-04  0.11651620D-04  0.82966479D-05
  0.21008329D-04  0.19696644D-04  0.14025184D-04 -0.49796254D-03  0.47377871D-05
  0.79601440D-05 -0.75949044D-03  0.21212435D-03  0.35943204D-03  0.29191488D-05
  0.51203353D-05  0.86788121D-05 -0.15752613D-04  0.36880814D-04 -0.21128201D-04
 -0.52353819D-04 -0.88622110D-04 -0.10508303D-03  0.86963954D-04 -0.35863505D-04
 -0.51100449D-04  0.54799294D-04  0.93023003D-04 -0.27530542D-04  0.27815419D-04
 -0.58666584D-05 -0.21948761D-04  0.19439078D-04  0.33009876D-04 -0.29089791D-04
  0.86568199D-05  0.36604324D-04  0.35528757D-05 -0.17364216D-04 -0.59882335D-05
 -0.10230416D-04 -0.86062438D-05 -0.10382474D-03 -0.42821066D-06  0.15966134D-04
 -0.63624866D-04 -0.17742137D-05  0.35556351D-04  0.37772347D-04 -0.85486721D-04
 -0.14482801D-03  0.15310225D-03  0.90809362D-04  0.38158956D-04  0.20811472D-03
  0.53739947D+00  0.10054765D+01  0.17372406D+01  0.28162696D+01  0.42767301D+01
  0.59441519D+01  0.70667391D+01  0.62945076D+01  0.31247821D+01  0.50345245D+00
  0.77293362D-02  0.13812248D-02  0.51614215D-04 -0.11578489D-02 -0.21626955D-02
 -0.37534630D-02 -0.60903451D-02 -0.94271308D-02 -0.13494081D-01 -0.17613991D-01
 -0.18770647D-01 -0.14031440D-01 -0.74069477D-03  0.95175601D-02  0.56545242D-02
 -0.21200226D-04  0.47902276D-03  0.89402696D-03  0.15537402D-02  0.25181557D-02
  0.39110901D-02  0.56027494D-02  0.73979085D-02  0.79993336D-02  0.62715812D-02
  0.31207181D-03 -0.53763308D-02 -0.55654990D-02  0.25184670D-02 -0.28050304D-02
 -0.14789013D-02 -0.41473002D-03  0.37982636D-02  0.50031655D-02  0.55196636D-02
  0.45847151D-02  0.24350536D-02  0.62807135D-03 -0.64563599D-06 -0.35931805D-02
 -0.47330252D-02 -0.52216355D-02 -0.43371685D-02 -0.23035756D-02 -0.59415933D-03
  0.61077560D-06 -0.60890275D-02 -0.80206158D-02 -0.88486182D-02 -0.73497945D-02
 -0.39036544D-02 -0.10068663D-02  0.10350244D-05 -0.32638448D-02 -0.42851889D-02
 -0.48790028D-02 -0.41313392D-02 -0.23665902D-02 -0.53831716D-03  0.25196205D-03
  0.31062583D-02  0.40782894D-02  0.46434326D-02  0.39318680D-02  0.22523254D-02
  0.51232588D-03 -0.23979671D-03  0.52638569D-02  0.69110582D-02  0.78687483D-02
  0.66629328D-02  0.38167845D-02  0.86818605D-03 -0.40635885D-03 -0.51685649D-04
  0.89232688D-04  0.15122040D-03 -0.28893059D-03  0.26221484D-03  0.44442846D-03
 -0.12504390D-04  0.75224654D-05  0.12744694D-04  0.31032942D-04 -0.89263486D-04
  0.58230543D-04 -0.13194713D-03 -0.22354198D-03  0.26693622D-03 -0.44866172D-04
  0.32923509D-04  0.11942663D-04 -0.16579733D-04 -0.28144225D-04 -0.37894779D-04
  0.11848017D-04  0.12574214D-04 -0.24422231D-04  0.49066786D-04  0.83172377D-04
 -0.66972574D-04 -0.39816401D-04  0.23926036D-04  0.53416268D-05  0.15704893D-05
 -0.11173045D-04 -0.18976721D-04  0.11787871D-03 -0.60605063D-04  0.29518405D-05
  0.21046754D-03 -0.18056272D-06 -0.19398050D-04 -0.49399409D-05  0.22725771D-04
  0.10556446D-04  0.17867232D-04 -0.22184083D-04  0.47637703D-04 -0.30474088D-05
 -0.81275720D-04  0.86915686D-04  0.16201460D-03  0.27465458D-03  0.41590799D-03
  0.52009440D-03  0.44775283D-03  0.17213253D-03 -0.74587845D-06 -0.57851167D-04
 -0.10863425D-03 -0.18498539D-03 -0.28977851D-03 -0.38833730D-03 -0.41770913D-03
 -0.25079201D-03  0.16493138D-03 -0.34197636D-04  0.18621020D-03  0.93484479D-04
  0.10552596D-04  0.10320209D-04  0.68189981D-05 -0.22596602D-04 -0.22098983D-04
 -0.14601733D-04 -0.38237663D-04 -0.37395600D-04 -0.24708854D-04  0.62805379D-05
  0.44989237D-04  0.76203735D-04  0.13280109D-03 -0.89660148D-04 -0.15238494D-03
 -0.22188297D-04  0.10160186D-04  0.17202940D-04  0.30346079D-04 -0.49321113D-04
  0.18975034D-04  0.16125987D-04  0.27337615D-04  0.12345538D-03 -0.10144384D-04
  0.21202280D-04 -0.11057896D-04 -0.11838742D-04 -0.20086474D-04 -0.58334744D-04
  0.34528329D-04  0.16387283D-04 -0.50915612D-04  0.27891455D-04  0.47249222D-04
 -0.12161767D-03  0.13713598D-03 -0.63792620D-05  0.50683881D-04 -0.24362850D-03
 -0.12140698D-03 -0.20660744D-03 -0.16777945D-03  0.14054477D-03  0.54555792D-04
  0.13753549D-03 -0.43607554D-04  0.15767546D-04 -0.17521278D-04  0.79322179D-04
  0.42910629D-04  0.73001740D-04  0.51500483D-04 -0.90213266D-04 -0.20437906D-04
 -0.50457433D-04 -0.66446364D-04 -0.12385890D-03 -0.20997129D-03 -0.31795841D-03
 -0.39760811D-03 -0.34230355D-03 -0.13159398D-03  0.57021826D-06  0.44402696D-04
  0.83380400D-04  0.14198244D-03  0.22241465D-03  0.29806180D-03  0.32060565D-03
  0.19249121D-03 -0.12659032D-03  0.23201045D-04 -0.28728237D-03  0.94837610D-04
  0.26690939D-04  0.26103155D-04  0.17247458D-04 -0.48678958D-04 -0.47606958D-04
 -0.31455930D-04 -0.82391912D-04 -0.80577491D-04 -0.53240955D-04 -0.58435067D-06
  0.69512568D-04  0.11773576D-03  0.23172222D-03 -0.84191850D-04 -0.14311570D-03
 -0.24747350D-04 -0.99155615D-06 -0.16884758D-05 -0.23224134D-04  0.50857063D-04