 Molden2AIM, Version 4.0.0 (06/02/2016)           Time: Thu Jun 28 16:39:58 2018
GAUSSIAN              7 MOL ORBITALS    177 PRIMITIVES        3 NUCLEI
  H    1    (CENTRE  1)   0.00000000  0.00000000 -3.08736084  CHARGE =  1.0
  C    2    (CENTRE  2)   0.00000000  0.00000000 -1.04820840  CHARGE =  6.0
  C    3    (CENTRE  3)   0.00000000  0.00000000  1.32055195  CHARGE =  6.0
CENTRE ASSIGNMENTS    1  1  1  1  1  1  1  1  1  1  1  1  1  1  1  1  1  1  1  1
CENTRE ASSIGNMENTS    1  1  1  1  1  1  1  2  2  2  2  2  2  2  2  2  2  2  2  2
CENTRE ASSIGNMENTS    2  2  2  2  2  2  2  2  2  2  2  2  2  2  2  2  2  2  2  2
CENTRE ASSIGNMENTS    2  2  2  2  2  2  2  2  2  2  2  2  2  2  2  2  2  2  2  2
CENTRE ASSIGNMENTS    2  2  2  2  2  2  2  2  2  2  2  2  2  2  2  2  2  2  2  2
CENTRE ASSIGNMENTS    2  2  3  3  3  3  3  3  3  3  3  3  3  3  3  3  3  3  3  3
CENTRE ASSIGNMENTS    3  3  3  3  3  3  3  3  3  3  3  3  3  3  3  3  3  3  3  3
CENTRE ASSIGNMENTS    3  3  3  3  3  3  3  3  3  3  3  3  3  3  3  3  3  3  3  3
CENTRE ASSIGNMENTS    3  3  3  3  3  3  3  3  3  3  3  3  3  3  3  3  3
TYPE ASSIGNMENTS      1  1  1  1  1  1  2  3  4  2  3  4  2  3  4  5  6  7  8  9
TYPE ASSIGNMENTS     10  5  6  7  8  9 10  1  1  1  1  1  1  1  1  1  1  1  1  1
TYPE ASSIGNMENTS      1  1  1  1  1  1  2  2  2  3  3  3  4  4  4  2  3  4  2  3
TYPE ASSIGNMENTS      4  2  3  4  5  6  7  8  9 10  5  6  7  8  9 10  5  6  7  8
TYPE ASSIGNMENTS      9 10 11 12 13 17 14 15 18 19 16 20 11 12 13 17 14 15 18 19
TYPE ASSIGNMENTS     16 20  1  1  1  1  1  1  1  1  1  1  1  1  1  1  1  1  1  1
TYPE ASSIGNMENTS      1  2  2  2  3  3  3  4  4  4  2  3  4  2  3  4  2  3  4  5
TYPE ASSIGNMENTS      6  7  8  9 10  5  6  7  8  9 10  5  6  7  8  9 10 11 12 13
TYPE ASSIGNMENTS     17 14 15 18 19 16 20 11 12 13 17 14 15 18 19 16 20
EXPONENTS  0.3387000D+02 0.5095000D+01 0.1159000D+01 0.3258000D+00 0.1027000D+00
EXPONENTS  0.2526000D-01 0.1407000D+01 0.1407000D+01 0.1407000D+01 0.3880000D+00
EXPONENTS  0.3880000D+00 0.3880000D+00 0.1020000D+00 0.1020000D+00 0.1020000D+00
EXPONENTS  0.1057000D+01 0.1057000D+01 0.1057000D+01 0.1057000D+01 0.1057000D+01
EXPONENTS  0.1057000D+01 0.2470000D+00 0.2470000D+00 0.2470000D+00 0.2470000D+00
EXPONENTS  0.2470000D+00 0.2470000D+00 0.8236000D+04 0.1235000D+04 0.2808000D+03
EXPONENTS  0.7927000D+02 0.2559000D+02 0.8997000D+01 0.3319000D+01 0.3643000D+00
EXPONENTS  0.8236000D+04 0.1235000D+04 0.2808000D+03 0.7927000D+02 0.2559000D+02
EXPONENTS  0.8997000D+01 0.3319000D+01 0.3643000D+00 0.9059000D+00 0.1285000D+00
EXPONENTS  0.4402000D-01 0.1871000D+02 0.4133000D+01 0.1200000D+01 0.1871000D+02
EXPONENTS  0.4133000D+01 0.1200000D+01 0.1871000D+02 0.4133000D+01 0.1200000D+01
EXPONENTS  0.3827000D+00 0.3827000D+00 0.3827000D+00 0.1209000D+00 0.1209000D+00
EXPONENTS  0.1209000D+00 0.3569000D-01 0.3569000D-01 0.3569000D-01 0.1097000D+01
EXPONENTS  0.1097000D+01 0.1097000D+01 0.1097000D+01 0.1097000D+01 0.1097000D+01
EXPONENTS  0.3180000D+00 0.3180000D+00 0.3180000D+00 0.3180000D+00 0.3180000D+00
EXPONENTS  0.3180000D+00 0.1000000D+00 0.1000000D+00 0.1000000D+00 0.1000000D+00
EXPONENTS  0.1000000D+00 0.1000000D+00 0.7610000D+00 0.7610000D+00 0.7610000D+00
EXPONENTS  0.7610000D+00 0.7610000D+00 0.7610000D+00 0.7610000D+00 0.7610000D+00
EXPONENTS  0.7610000D+00 0.7610000D+00 0.2680000D+00 0.2680000D+00 0.2680000D+00
EXPONENTS  0.2680000D+00 0.2680000D+00 0.2680000D+00 0.2680000D+00 0.2680000D+00
EXPONENTS  0.2680000D+00 0.2680000D+00 0.8236000D+04 0.1235000D+04 0.2808000D+03
EXPONENTS  0.7927000D+02 0.2559000D+02 0.8997000D+01 0.3319000D+01 0.3643000D+00
EXPONENTS  0.8236000D+04 0.1235000D+04 0.2808000D+03 0.7927000D+02 0.2559000D+02
EXPONENTS  0.8997000D+01 0.3319000D+01 0.3643000D+00 0.9059000D+00 0.1285000D+00
EXPONENTS  0.4402000D-01 0.1871000D+02 0.4133000D+01 0.1200000D+01 0.1871000D+02
EXPONENTS  0.4133000D+01 0.1200000D+01 0.1871000D+02 0.4133000D+01 0.1200000D+01
EXPONENTS  0.3827000D+00 0.3827000D+00 0.3827000D+00 0.1209000D+00 0.1209000D+00
EXPONENTS  0.1209000D+00 0.3569000D-01 0.3569000D-01 0.3569000D-01 0.1097000D+01
EXPONENTS  0.1097000D+01 0.1097000D+01 0.1097000D+01 0.1097000D+01 0.1097000D+01
EXPONENTS  0.3180000D+00 0.3180000D+00 0.3180000D+00 0.3180000D+00 0.3180000D+00
EXPONENTS  0.3180000D+00 0.1000000D+00 0.1000000D+00 0.1000000D+00 0.1000000D+00
EXPONENTS  0.1000000D+00 0.1000000D+00 0.7610000D+00 0.7610000D+00 0.7610000D+00
EXPONENTS  0.7610000D+00 0.7610000D+00 0.7610000D+00 0.7610000D+00 0.7610000D+00
EXPONENTS  0.7610000D+00 0.7610000D+00 0.2680000D+00 0.2680000D+00 0.2680000D+00
EXPONENTS  0.2680000D+00 0.2680000D+00 0.2680000D+00 0.2680000D+00 0.2680000D+00
EXPONENTS  0.2680000D+00 0.2680000D+00
MO    1     MO 0.0        OCC NO =    2.0000000  ORB. ENERGY =   -9.783842
  0.91865307D-04  0.16568287D-03  0.24429929D-03 -0.15100831D-02 -0.12827720D-02
  0.54304753D-04 -0.60628979D-16  0.36589919D-16 -0.13160467D-02  0.20587292D-16
 -0.89453138D-17 -0.21711816D-02 -0.70263817D-17  0.52752511D-19 -0.52289986D-03
  0.13098115D-02  0.13098115D-02 -0.26196230D-02 -0.40618970D-18  0.27873022D-17
  0.58207851D-17  0.14867512D-03  0.14867512D-03 -0.29735025D-03 -0.38830028D-19
 -0.41721643D-17  0.47891022D-18  0.29924000D+00  0.55785140D+00  0.94286714D+00
  0.14174382D+01  0.17414866D+01  0.14709638D+01  0.55479342D+00 -0.27457036D-02
 -0.17241018D-02 -0.32280626D-02 -0.54960528D-02 -0.85015580D-02 -0.11196253D-01
 -0.11633624D-01 -0.73926457D-02  0.49543792D-02  0.29786662D-01  0.28590225D-02
  0.37301654D-03  0.20073162D-17  0.18819866D-17  0.13400866D-17  0.18729952D-16
  0.17560520D-16  0.12504136D-16 -0.15418867D-02 -0.14456168D-02 -0.10293652D-02
 -0.17851460D-17 -0.45086212D-17 -0.44618664D-03  0.23805535D-17 -0.91355733D-18
 -0.72875475D-03  0.59970170D-19 -0.50158895D-19  0.41306792D-04 -0.22113207D-02
 -0.22113207D-02  0.44226414D-02  0.22618356D-17  0.29386985D-17  0.36968638D-17
  0.19226791D-03  0.19226791D-03 -0.38453581D-03 -0.41172700D-18 -0.13844590D-16
 -0.95465639D-18  0.65265630D-04  0.65265630D-04 -0.13053126D-03  0.72101586D-20
  0.11698804D-18 -0.23015595D-18  0.38137422D-17  0.12077465D-17 -0.46296868D-03
  0.42604428D-17  0.74230971D-18  0.69445303D-03 -0.15701669D-16 -0.43655492D-17
  0.69445303D-03  0.11481122D-17 -0.34415716D-18  0.29999980D-18 -0.38945904D-04
 -0.36514063D-18  0.31979289D-18  0.58418856D-04  0.13976121D-17 -0.12197923D-17
  0.58418856D-04 -0.19003233D-18  0.13458045D+00  0.25088855D+00  0.42404584D+00
  0.63747980D+00  0.78321760D+00  0.66155247D+00  0.24951325D+00 -0.12348550D-02
 -0.29637115D-03 -0.55490030D-03 -0.94476525D-03 -0.14614082D-02 -0.19246232D-02
 -0.19998067D-02 -0.12707874D-02  0.85165217D-03  0.13703784D-01 -0.45443690D-03
 -0.74289844D-03 -0.28079358D-17 -0.26326183D-17 -0.18745811D-17  0.23561595D-17
  0.22090493D-17  0.15729747D-17 -0.27484466D-02 -0.25768434D-02 -0.18348660D-02
  0.58841807D-17  0.28390155D-17  0.10836435D-02 -0.35357051D-18  0.10008919D-17
  0.11388458D-02 -0.66312205D-19  0.12407313D-19  0.51750650D-04 -0.27252684D-03
 -0.27252684D-03  0.54505368D-03 -0.65193555D-18 -0.79232334D-17 -0.44366564D-17
  0.53766223D-03  0.53766223D-03 -0.10753245D-02  0.27163704D-18 -0.75127989D-17
 -0.19727561D-17  0.51661478D-04  0.51661478D-04 -0.10332296D-03  0.20999139D-20
  0.27877576D-18 -0.28370567D-19 -0.24252727D-17 -0.98902413D-18  0.24885299D-03
 -0.30880956D-17 -0.37828934D-18 -0.37327949D-03  0.10363914D-16  0.33453617D-17
 -0.37327949D-03  0.25967384D-18 -0.35229245D-18  0.60855798D-19  0.16509325D-03
 -0.33183525D-18  0.38117953D-19 -0.24763987D-03  0.13887126D-17 -0.22068535D-18
 -0.24763987D-03 -0.14816082D-18
MO    2     MO 0.0        OCC NO =    2.0000000  ORB. ENERGY =   -9.782062
 -0.21444432D-03 -0.38675917D-03 -0.57027617D-03 -0.22899451D-02 -0.30423144D-02
 -0.53451031D-04 -0.20556111D-16 -0.71315048D-17 -0.16043094D-02  0.21910952D-16
  0.30227001D-18 -0.10518657D-02 -0.24531923D-17  0.55108462D-17 -0.68413001D-03
  0.10083782D-03  0.10083782D-03 -0.20167565D-03 -0.10367815D-18  0.11254518D-16
  0.84793623D-17  0.73187020D-04  0.73187020D-04 -0.14637404D-03 -0.35029735D-19
 -0.40473495D-17 -0.18399131D-18 -0.13597248D+00 -0.25348362D+00 -0.42843198D+00
 -0.64407360D+00 -0.79131884D+00 -0.66839526D+00 -0.25209410D+00  0.12476278D-02
  0.12415502D-02  0.23245736D-02  0.39577855D-02  0.61220924D-02  0.80625803D-02
  0.83775374D-02  0.53235489D-02 -0.35677187D-02 -0.12422222D-01 -0.93032406D-02
 -0.12269467D-02  0.37957423D-17  0.35587497D-17  0.25340418D-17 -0.13755266D-17
 -0.12896436D-17 -0.91830310D-18  0.37182075D-02  0.34860558D-02  0.24822794D-02
 -0.28354245D-17 -0.21855785D-17 -0.10257692D-01  0.60404493D-18 -0.37914459D-18
 -0.52794739D-02  0.23241130D-18 -0.48163625D-19 -0.86103670D-04  0.17799413D-02
  0.17799413D-02 -0.35598825D-02 -0.74707679D-18 -0.75004685D-18 -0.16101345D-17
  0.91828543D-03  0.91828543D-03 -0.18365709D-02  0.63091827D-19 -0.12945746D-16
 -0.10449593D-17  0.97118661D-04  0.97118661D-04 -0.19423732D-03 -0.26378560D-20
 -0.95730349D-18 -0.44310791D-18  0.59800035D-17  0.11678374D-17 -0.19118195D-02
  0.58681761D-17  0.13059478D-17  0.28677292D-02 -0.23808187D-16 -0.48094600D-17
  0.28677292D-02 -0.10631282D-18 -0.12165516D-18  0.27757114D-18 -0.27338836D-03
 -0.12376758D-18  0.27966888D-18  0.41008255D-03  0.48873307D-18 -0.11123823D-17
  0.41008255D-03 -0.68805663D-19  0.30000954D+00  0.55928599D+00  0.94529185D+00
  0.14210833D+01  0.17459650D+01  0.14747466D+01  0.55622015D+00 -0.27527646D-02
 -0.21595034D-02 -0.40432717D-02 -0.68840160D-02 -0.10648526D-01 -0.14023734D-01
 -0.14571558D-01 -0.92595709D-02  0.62055491D-02  0.28768936D-01  0.13414929D-01
  0.13821084D-02 -0.21442162D-17 -0.20103390D-17 -0.14314811D-17  0.65412944D-17
  0.61328793D-17  0.43669754D-17 -0.27779811D-02 -0.26045338D-02 -0.18545833D-02
  0.71422564D-17  0.22919870D-17 -0.82946893D-02  0.27132904D-17  0.11409322D-17
 -0.32414354D-02 -0.19389003D-18 -0.44278427D-20 -0.61437244D-04 -0.26708221D-02
 -0.26708221D-02  0.53416441D-02 -0.90886798D-18 -0.12489731D-16 -0.57295804D-17
 -0.78613789D-03 -0.78613789D-03  0.15722758D-02  0.14719444D-18 -0.83855550D-17
 -0.17241411D-17 -0.49194740D-04 -0.49194740D-04  0.98389479D-04 -0.31024474D-20
 -0.14147928D-19  0.45202823D-19 -0.38105197D-17 -0.16335745D-17 -0.12627360D-02
 -0.51759521D-17 -0.54893363D-18  0.18941041D-02  0.16607511D-16  0.54496570D-17
  0.18941041D-02  0.27720482D-18 -0.21774574D-18  0.11001600D-18 -0.59817326D-04
 -0.18012050D-18  0.73242284D-19  0.89725989D-04  0.83335773D-18 -0.40329027D-18
  0.89725989D-04 -0.32400750D-19
MO    3     MO 0.0        OCC NO =    2.0000000  ORB. ENERGY =   -0.430384
  0.17090111D-01  0.30822719D-01  0.45448082D-01 -0.23314161D-01  0.77311701D-02
  0.59531523D-03 -0.22339214D-15  0.50916705D-15  0.94670878D-02 -0.82983402D-17
 -0.60321179D-16 -0.34622909D-01 -0.11974030D-15 -0.98816283D-17 -0.73790758D-03
  0.39670618D-02  0.39670618D-02 -0.79341235D-02 -0.77822641D-16  0.60830430D-16
 -0.13033930D-15  0.16606003D-02  0.16606003D-02 -0.33212007D-02 -0.21749583D-17
 -0.56333561D-16 -0.21851478D-16 -0.78405907D-02 -0.14616644D-01 -0.24704703D-01
 -0.37139261D-01 -0.45629873D-01 -0.38541722D-01 -0.14536520D-01  0.71942046D-04
 -0.49708129D-01 -0.93069302D-01 -0.15845845D+00 -0.24511113D+00 -0.32280273D+00
 -0.33541272D+00 -0.21313972D+00  0.14284129D+00  0.56829225D-01  0.69724499D-01
 -0.31402031D-03  0.18117741D-16  0.16986533D-16  0.12095424D-16  0.43894902D-15
  0.41154261D-15  0.29304285D-15  0.14936318D+00  0.14003747D+00  0.99715022D-01
  0.97908781D-17  0.76371488D-16 -0.29660257D-01  0.29213805D-16 -0.44088949D-16
  0.15244390D-01 -0.69400139D-17 -0.44996731D-18  0.32854178D-03 -0.13211517D-01
 -0.13211517D-01  0.26423035D-01  0.72296236D-17  0.57857891D-16  0.29706188D-16
 -0.71984679D-02 -0.71984679D-02  0.14396936D-01 -0.59691521D-17 -0.13484041D-15
 -0.58062628D-16 -0.11031930D-03 -0.11031930D-03  0.22063860D-03 -0.66302043D-19
 -0.42188368D-16 -0.29052047D-16  0.23097396D-16 -0.72657278D-17 -0.39732406D-02
  0.30312443D-16 -0.79169899D-17  0.59598609D-02 -0.99604632D-16  0.29714173D-16
  0.59598609D-02  0.42699894D-16 -0.17268593D-17  0.29611035D-17 -0.30185053D-03
 -0.13792242D-17  0.27751447D-17  0.45277579D-03  0.65598020D-17 -0.11658455D-16
  0.45277579D-03 -0.69241500D-17 -0.75861475D-02 -0.14142304D-01 -0.23902985D-01
 -0.35934016D-01 -0.44149090D-01 -0.37290965D-01 -0.14064780D-01  0.69607380D-04
 -0.37970269D-01 -0.71092325D-01 -0.12104077D+00 -0.18723166D+00 -0.24657751D+00
 -0.25620983D+00 -0.16280984D+00  0.10911137D+00  0.44677735D-01 -0.20674102D-01
 -0.22402981D-02 -0.11777573D-16 -0.11042224D-16 -0.78627210D-17  0.21536217D-15
  0.20191572D-15  0.14377602D-15 -0.22596310D+00 -0.21185477D+00 -0.15085322D+00
  0.48831559D-16  0.10807767D-15 -0.51007694D-01  0.76153600D-16  0.85123054D-16
  0.79518273D-02  0.48289403D-17  0.38545376D-17  0.77400022D-04 -0.13669196D-01
 -0.13669196D-01  0.27338393D-01 -0.97168268D-17 -0.15526128D-18 -0.43471947D-16
 -0.38463288D-02 -0.38463288D-02  0.76926576D-02  0.98995381D-17 -0.65388072D-16
 -0.86334637D-16  0.21362629D-03  0.21362629D-03 -0.42725258D-03 -0.41450684D-18
 -0.46993282D-17 -0.14517017D-16 -0.10113985D-16 -0.13393565D-16 -0.45531339D-02
 -0.40937494D-16  0.44789946D-17  0.68297009D-02  0.71279450D-16  0.35701700D-16
  0.68297009D-02  0.18326416D-16 -0.13302394D-17 -0.24554450D-17 -0.91322083D-03
 -0.76401529D-20 -0.27668429D-17  0.13698312D-02  0.39983584D-17  0.10133178D-16
  0.13698312D-02 -0.67449098D-17
MO    4     MO 0.0        OCC NO =    2.0000000  ORB. ENERGY =   -0.253618
 -0.46582465D-01 -0.84013393D-01 -0.12387770D+00 -0.14717087D-01  0.56726218D-01
  0.10254069D-02 -0.23728248D-15 -0.18638003D-15 -0.32247028D-01 -0.11823763D-15
 -0.92310947D-16  0.23438632D-01 -0.60149912D-16 -0.28099185D-17  0.11024406D-01
  0.12906205D-02  0.12906205D-02 -0.25812411D-02 -0.11323566D-15  0.21492032D-17
 -0.11881093D-15 -0.67991850D-04 -0.67991850D-04  0.13598370D-03  0.82311331D-17
 -0.11336910D-16 -0.29404188D-16  0.21014535D-03  0.39175870D-03  0.66214122D-03
  0.99541515D-03  0.12229825D-02  0.10330042D-02  0.38961120D-03 -0.19282075D-05
  0.19373307D-01  0.36272943D-01  0.61757788D-01  0.95529908D-01  0.12580953D+00
  0.13072416D+00  0.83069334D-01 -0.55671136D-01 -0.21425588D-01 -0.66420704D-01
 -0.31225734D-02 -0.38900956D-15 -0.36472119D-15 -0.25970321D-15 -0.16566384D-15
 -0.15532038D-15 -0.11059736D-15  0.47278947D+00  0.44327018D+00  0.31563478D+00
 -0.80015675D-16 -0.36784756D-16  0.12076247D+00  0.79270345D-18 -0.15166781D-16
  0.51261691D-01 -0.61637651D-17 -0.63011598D-18  0.47160797D-03  0.29054369D-02
  0.29054369D-02 -0.58108738D-02  0.35229487D-16  0.30689880D-16  0.14966746D-15
  0.81305138D-02  0.81305138D-02 -0.16261028D-01 -0.98495672D-17 -0.17764793D-16
 -0.18165491D-19  0.21372815D-03  0.21372815D-03 -0.42745630D-03  0.29498771D-17
 -0.79875440D-17 -0.11482937D-16  0.84249671D-17  0.14346874D-17  0.32333256D-02
  0.25078076D-17 -0.28462983D-17 -0.48499885D-02 -0.27782709D-16 -0.14577640D-17
 -0.48499885D-02 -0.35518111D-17 -0.40770492D-17  0.10402521D-18  0.22022961D-02
 -0.27385315D-17  0.65038866D-18 -0.33034441D-02  0.14969679D-16 -0.96246428D-18
 -0.33034441D-02  0.59438559D-17 -0.31114775D-02 -0.58005015D-02 -0.98038693D-02
 -0.14738427D-01 -0.18107860D-01 -0.15294983D-01 -0.57687048D-02  0.28549642D-04
 -0.32092841D-01 -0.60087924D-01 -0.10230483D+00 -0.15825002D+00 -0.20840971D+00
 -0.21655103D+00 -0.13760846D+00  0.92221991D-01  0.42328914D-01 -0.22824547D-01
 -0.30485934D-02 -0.96559066D-16 -0.90530262D-16 -0.64462940D-16  0.12039750D-15
  0.11288031D-15  0.80377503D-16 -0.12050141D+00 -0.11297773D+00 -0.80446878D-01
 -0.29358799D-16  0.41970567D-16 -0.24607527D-01  0.11118399D-16  0.30186183D-16
  0.95452615D-02  0.45062943D-17  0.25525522D-17  0.21884905D-03 -0.78823356D-02
 -0.78823356D-02  0.15764671D-01 -0.17360927D-17  0.30581747D-16 -0.26501830D-16
  0.13407315D-03  0.13407315D-03 -0.26814630D-03  0.21999492D-17 -0.40590634D-17
 -0.26223141D-16  0.11473965D-03  0.11473965D-03 -0.22947929D-03 -0.23571821D-17
 -0.16495499D-17 -0.43954537D-17  0.52081710D-17 -0.61405948D-17 -0.15070926D-02
 -0.17929471D-16  0.94032489D-17  0.22606388D-02  0.23049584D-17  0.90185356D-17
  0.22606388D-02  0.19634151D-17 -0.13757979D-17  0.63209470D-19  0.30741391D-03
 -0.74741200D-18 -0.17059284D-18 -0.46112087D-03  0.48748056D-17 -0.19035571D-19
 -0.46112087D-03  0.81823481D-18
MO    5     MO 0.0        OCC NO =    2.0000000  ORB. ENERGY =    0.002318
  0.39864301D-15  0.71896908D-15  0.10601195D-14 -0.49119489D-15  0.37342832D-15
  0.80627441D-16  0.15877754D-01 -0.95659237D-02  0.18445547D-15 -0.11312188D-02
  0.68152915D-03 -0.72138527D-15  0.50433224D-04 -0.30384673D-04 -0.24514991D-15
 -0.10656484D-15  0.10415065D-15  0.24141886D-17  0.32437920D-15  0.28487137D-02
 -0.17162741D-02  0.37947090D-17  0.12109719D-15 -0.12489189D-15 -0.30180675D-17
 -0.29525961D-02  0.17788605D-02  0.82693683D-16  0.15415983D-15  0.26055726D-15
  0.39170292D-15  0.48125229D-15  0.40649449D-15  0.15331477D-15 -0.75876334D-18
  0.67720253D-15  0.12679368D-14  0.21587709D-14  0.33392904D-14  0.43977279D-14
  0.45695210D-14  0.29037255D-14 -0.19460093D-14 -0.13544135D-14  0.61579314D-14
  0.14038028D-14  0.44278676D+00  0.41514074D+00  0.29560494D+00 -0.26676723D+00
 -0.25011123D+00 -0.17809410D+00 -0.83728364D-14 -0.78500663D-14 -0.55897149D-14
  0.11307868D+00 -0.68126891D-01 -0.20321207D-14  0.28645035D-01 -0.17257870D-01
  0.18223433D-14  0.14875393D-02 -0.89620279D-03  0.15182784D-15  0.62171403D-15
 -0.41371793D-16 -0.58034223D-15  0.31589927D-15  0.34083253D-01 -0.20534252D-01
 -0.42978064D-15 -0.17306559D-15  0.60284623D-15 -0.48148005D-16  0.11764924D-02
 -0.70880535D-03 -0.44178931D-16 -0.61818528D-16  0.10599746D-15 -0.57698692D-18
  0.14474280D-02 -0.87203677D-03 -0.53562727D-02  0.32270116D-02 -0.20271572D-15
 -0.53569464D-02  0.32274174D-02  0.50538345D-15  0.21425765D-01 -0.12908452D-01
  0.10276371D-15  0.47220333D-15 -0.61268519D-03  0.36912650D-03 -0.16921416D-16
 -0.61264092D-03  0.36909983D-03 -0.18696178D-15  0.24506965D-02 -0.14764793D-02
  0.23772603D-15 -0.68661243D-16  0.76278109D-16  0.14219974D-15  0.24034261D-15
  0.36131367D-15  0.44391559D-15  0.37495768D-15  0.14142024D-15 -0.69989666D-18
 -0.12087009D-14 -0.22630694D-14 -0.38530693D-14 -0.59601123D-14 -0.78492582D-14
 -0.81558821D-14 -0.51826969D-14  0.34733230D-14  0.14747741D-14 -0.40968236D-14
 -0.13619046D-14  0.38101260D+00  0.35722354D+00  0.25436444D+00 -0.22954994D+00
 -0.21521766D+00 -0.15324780D+00  0.17730390D-13  0.16623367D-13  0.11836828D-13
  0.86309992D-01 -0.51999470D-01  0.44681898D-14  0.69922427D-02 -0.42126399D-02
  0.24485842D-14 -0.20570320D-04  0.12393070D-04  0.11854870D-15  0.31531556D-15
  0.46083736D-15 -0.77615292D-15 -0.13575750D-15 -0.49289421D-01  0.29695563D-01
  0.31007220D-15 -0.13931712D-15 -0.17075508D-15  0.70321396D-16 -0.33722114D-02
  0.20316675D-02  0.49148727D-16  0.29032076D-16 -0.78180803D-16  0.47905357D-17
  0.16584355D-02 -0.99916320D-03 -0.32451411D-02  0.19551110D-02 -0.10278187D-15
 -0.32443331D-02  0.19546243D-02  0.33449607D-15  0.12979756D-01 -0.78199574D-02
 -0.26150457D-16  0.33649524D-15  0.13294010D-03 -0.80092869D-04 -0.20046695D-16
  0.13290143D-03 -0.80069568D-04 -0.90274400D-16 -0.53172173D-03  0.32034817D-03
  0.15041449D-15 -0.42911115D-16
MO    6     MO 0.0        OCC NO =    2.0000000  ORB. ENERGY =    0.002318
  0.58488624D-17  0.10548664D-16  0.15553999D-16 -0.13900361D-14 -0.24864068D-14
 -0.44001896D-15  0.95659237D-02  0.15877754D-01  0.15405665D-16 -0.68152915D-03
 -0.11312188D-02 -0.46431848D-15  0.30384673D-04  0.50433224D-04 -0.28626272D-15
 -0.57603951D-16 -0.46924830D-18  0.58073199D-16 -0.57522630D-15  0.17162741D-02
  0.28487137D-02 -0.31814824D-19 -0.83484192D-16  0.83516007D-16  0.21246473D-15
 -0.17788605D-02 -0.29525961D-02 -0.14083888D-15 -0.26255569D-15 -0.44376536D-15
 -0.66712470D-15 -0.81963977D-15 -0.69231682D-15 -0.26111643D-15  0.12922798D-17
  0.25743433D-15  0.48199829D-15  0.82064334D-15  0.12694105D-14  0.16717689D-14
  0.17370750D-14  0.11038332D-14 -0.73976332D-15 -0.31171862D-15  0.12274464D-14
 -0.38758004D-15  0.26676723D+00  0.25011123D+00  0.17809410D+00  0.44278676D+00
  0.41514074D+00  0.29560494D+00 -0.49591541D-15 -0.46495222D-15 -0.33107368D-15
  0.68126891D-01  0.11307868D+00 -0.54882409D-15  0.17257870D-01  0.28645035D-01
 -0.15692203D-14  0.89620279D-03  0.14875393D-02 -0.26003551D-15 -0.21146369D-15
 -0.52974134D-16  0.26443782D-15 -0.43411302D-15  0.20534252D-01  0.34083253D-01
 -0.85917702D-16 -0.15206593D-15  0.23798363D-15  0.38668784D-15  0.70880535D-03
  0.11764924D-02 -0.83147152D-17 -0.49909207D-18  0.88138073D-17 -0.15374856D-16
  0.87203677D-03  0.14474280D-02 -0.32270116D-02 -0.53562727D-02  0.48715985D-16
 -0.32274174D-02 -0.53569464D-02 -0.72654607D-17  0.12908452D-01  0.21425765D-01
 -0.13888249D-15 -0.12692191D-15 -0.36912650D-03 -0.61268519D-03 -0.69495127D-16
 -0.36909983D-03 -0.61264092D-03  0.15663213D-15  0.14764793D-02  0.24506965D-02
  0.51853254D-16  0.40150111D-16  0.14955572D-15  0.27880586D-15  0.47123102D-15
  0.70841458D-15  0.87036916D-15  0.73516589D-15  0.27727753D-15 -0.13722620D-17
 -0.22532757D-15 -0.42188431D-15 -0.71829414D-15 -0.11110918D-14 -0.14632688D-14
 -0.15204300D-14 -0.96616503D-15  0.64750134D-15  0.91945719D-16  0.14245720D-14
  0.15702204D-14  0.22954994D+00  0.21521766D+00  0.15324780D+00  0.38101260D+00
  0.35722354D+00  0.25436444D+00  0.31238770D-14  0.29288333D-14  0.20855038D-14
  0.51999470D-01  0.86309992D-01  0.74146522D-15  0.42126399D-02  0.69922427D-02
 -0.21112772D-15 -0.12393070D-04 -0.20570320D-04 -0.40775313D-16  0.11215557D-15
  0.18656152D-15 -0.29871710D-15 -0.40699173D-15 -0.29695563D-01 -0.49289421D-01
 -0.10666039D-15  0.76226087D-16  0.30434307D-16  0.35171065D-16 -0.20316675D-02
 -0.33722114D-02  0.79364733D-17  0.16454005D-17 -0.95818738D-17 -0.76001390D-17
  0.99916320D-03  0.16584355D-02 -0.19551110D-02 -0.32451411D-02  0.16728985D-15
 -0.19546243D-02 -0.32443331D-02 -0.12463746D-15  0.78199574D-02  0.12979756D-01
 -0.37723210D-15  0.10236136D-15  0.80092869D-04  0.13294010D-03 -0.33411158D-16
  0.80069568D-04  0.13290143D-03  0.58970464D-16 -0.32034817D-03 -0.53172173D-03
  0.41263011D-16  0.16413638D-15
MO    7     MO 0.0        OCC NO =    2.0000000  ORB. ENERGY =    0.007262
  0.12995973D-01  0.23438773D-01  0.34560457D-01  0.15106373D-01  0.37639630D-01
  0.37363395D-02 -0.55391101D-15  0.15274191D-15  0.93201147D-02  0.69560269D-16
 -0.73632734D-16 -0.92682819D-02  0.13703800D-15 -0.10109027D-15  0.64232480D-02
 -0.16352526D-02 -0.16352526D-02  0.32705053D-02  0.34634600D-17 -0.75651724D-16
  0.11391243D-15  0.13461145D-03  0.13461145D-03 -0.26922291D-03 -0.17226036D-16
  0.19583001D-15 -0.59717427D-16  0.10895866D-02  0.20312372D-02  0.34331487D-02
  0.51611471D-02  0.63410655D-02  0.53560435D-02  0.20201025D-02 -0.99976002D-05
  0.21327303D-01  0.39931440D-01  0.67986693D-01  0.10516508D+00  0.13849871D+00
  0.14390903D+00  0.91447727D-01 -0.61286140D-01 -0.33083492D-01  0.93162314D-01
  0.17479368D-01 -0.16072925D-13 -0.15069389D-13 -0.10730303D-13  0.61935804D-14
  0.58068753D-14  0.41348412D-14 -0.26534516D+00 -0.24877795D+00 -0.17714472D+00
 -0.41187792D-14  0.16540983D-14 -0.40540706D-01 -0.10154104D-14  0.49587765D-15
  0.45390306D-01 -0.37668006D-16  0.18714204D-16  0.14327536D-02  0.33151141D-02
  0.33151141D-02 -0.66302282D-02  0.27751528D-17 -0.12436398D-14  0.48231294D-15
 -0.58723638D-02 -0.58723638D-02  0.11744728D-01 -0.10444560D-16  0.63832755D-16
  0.48535712D-16 -0.12414511D-02 -0.12414511D-02  0.24829023D-02  0.16903300D-17
  0.26245724D-17 -0.22201648D-16  0.18230280D-15 -0.95087717D-16  0.86757024D-03
  0.18851727D-15 -0.92394301D-16 -0.13013554D-02 -0.73542568D-15  0.37765745D-15
 -0.13013554D-02 -0.12439177D-16  0.23425781D-16 -0.14951195D-16 -0.19088355D-03
  0.19058928D-16 -0.15999012D-16  0.28632533D-03 -0.89336271D-16  0.60852598D-16
  0.28632533D-03 -0.18651165D-17 -0.10052032D-02 -0.18739274D-02 -0.31672674D-02
 -0.47614404D-02 -0.58499797D-02 -0.49412430D-02 -0.18636551D-02  0.92233330D-05
 -0.33566108D-01 -0.62846345D-01 -0.10700128D+00 -0.16551471D+00 -0.21797705D+00
 -0.22649212D+00 -0.14392557D+00  0.96455572D-01  0.44740461D-01 -0.79235459D-01
 -0.14723858D-01 -0.13875860D-13 -0.13009501D-13 -0.92635397D-14  0.59405289D-14
  0.55696235D-14  0.39659037D-14  0.53964266D+00  0.50594930D+00  0.36026604D+00
 -0.31444378D-14  0.12787101D-14  0.13698146D+00 -0.37862552D-15  0.15262225D-15
  0.60076179D-01 -0.16675046D-16  0.70751286D-17  0.25989152D-02  0.16492357D-01
  0.16492357D-01 -0.32984714D-01 -0.75784542D-17  0.17588738D-14 -0.63629664D-15
  0.32138426D-02  0.32138426D-02 -0.64276853D-02  0.14994437D-16  0.18989116D-15
  0.13095533D-16  0.97441083D-03  0.97441083D-03 -0.19488217D-02 -0.14453974D-17
 -0.26492147D-16  0.29532441D-16  0.12110380D-15 -0.39549664D-16  0.14057004D-02
  0.96351266D-16 -0.20962844D-16 -0.21085506D-02 -0.45966266D-15  0.13961184D-15
 -0.21085506D-02  0.68635402D-17 -0.96452727D-18  0.46103213D-17 -0.42946534D-03
  0.14612590D-17  0.57256385D-17  0.64419801D-03  0.14323228D-17 -0.19556602D-16
  0.64419801D-03 -0.38573377D-17
END DATA
RHF
