 Molden2AIM, Version 4.0.0 (06/02/2016)           Time: Thu Jun 28 20:43:22 2018
GAUSSIAN             24 MOL ORBITALS    466 PRIMITIVES        6 NUCLEI
  C    1    (CENTRE  1)   0.00000000  0.00000000  1.50335083  CHARGE =  6.0
  C    2    (CENTRE  2)   0.00000000  0.00000000 -1.00864132  CHARGE =  6.0
  H    3    (CENTRE  3)   0.00000000  1.77710034  2.53626379  CHARGE =  1.0
  H    4    (CENTRE  4)   0.00000000 -1.77710034  2.53626379  CHARGE =  1.0
  Cl   5    (CENTRE  5)   0.00000000  2.74616323 -2.78361949  CHARGE = 17.0
  Cl   6    (CENTRE  6)   0.00000000 -2.74616323 -2.78361949  CHARGE = 17.0
CENTRE ASSIGNMENTS    1  1  1  1  1  1  1  1  1  1  1  1  1  1  1  1  1  1  1  1
CENTRE ASSIGNMENTS    1  1  1  1  1  1  1  1  1  1  1  1  1  1  1  1  1  1  1  1
CENTRE ASSIGNMENTS    1  1  1  1  1  1  1  1  1  1  1  1  1  1  1  1  1  1  1  1
CENTRE ASSIGNMENTS    1  1  1  1  1  1  1  1  1  1  1  1  1  1  1  2  2  2  2  2
CENTRE ASSIGNMENTS    2  2  2  2  2  2  2  2  2  2  2  2  2  2  2  2  2  2  2  2
CENTRE ASSIGNMENTS    2  2  2  2  2  2  2  2  2  2  2  2  2  2  2  2  2  2  2  2
CENTRE ASSIGNMENTS    2  2  2  2  2  2  2  2  2  2  2  2  2  2  2  2  2  2  2  2
CENTRE ASSIGNMENTS    2  2  2  2  2  2  2  2  2  2  3  3  3  3  3  3  3  3  3  3
CENTRE ASSIGNMENTS    3  3  3  3  3  3  3  3  3  3  3  3  3  3  3  3  3  4  4  4
CENTRE ASSIGNMENTS    4  4  4  4  4  4  4  4  4  4  4  4  4  4  4  4  4  4  4  4
CENTRE ASSIGNMENTS    4  4  4  4  5  5  5  5  5  5  5  5  5  5  5  5  5  5  5  5
CENTRE ASSIGNMENTS    5  5  5  5  5  5  5  5  5  5  5  5  5  5  5  5  5  5  5  5
CENTRE ASSIGNMENTS    5  5  5  5  5  5  5  5  5  5  5  5  5  5  5  5  5  5  5  5
CENTRE ASSIGNMENTS    5  5  5  5  5  5  5  5  5  5  5  5  5  5  5  5  5  5  5  5
CENTRE ASSIGNMENTS    5  5  5  5  5  5  5  5  5  5  5  5  5  5  5  5  5  5  5  5
CENTRE ASSIGNMENTS    5  5  5  5  5  5  5  5  5  5  5  5  5  5  5  5  5  5  5  5
CENTRE ASSIGNMENTS    5  5  5  5  5  5  5  5  5  5  5  5  5  5  5  6  6  6  6  6
CENTRE ASSIGNMENTS    6  6  6  6  6  6  6  6  6  6  6  6  6  6  6  6  6  6  6  6
CENTRE ASSIGNMENTS    6  6  6  6  6  6  6  6  6  6  6  6  6  6  6  6  6  6  6  6
CENTRE ASSIGNMENTS    6  6  6  6  6  6  6  6  6  6  6  6  6  6  6  6  6  6  6  6
CENTRE ASSIGNMENTS    6  6  6  6  6  6  6  6  6  6  6  6  6  6  6  6  6  6  6  6
CENTRE ASSIGNMENTS    6  6  6  6  6  6  6  6  6  6  6  6  6  6  6  6  6  6  6  6
CENTRE ASSIGNMENTS    6  6  6  6  6  6  6  6  6  6  6  6  6  6  6  6  6  6  6  6
CENTRE ASSIGNMENTS    6  6  6  6  6  6
TYPE ASSIGNMENTS      1  1  1  1  1  1  1  1  1  1  1  1  1  1  1  1  1  1  1  2
TYPE ASSIGNMENTS      2  2  3  3  3  4  4  4  2  3  4  2  3  4  2  3  4  5  6  7
TYPE ASSIGNMENTS      8  9 10  5  6  7  8  9 10  5  6  7  8  9 10 11 12 13 17 14
TYPE ASSIGNMENTS     15 18 19 16 20 11 12 13 17 14 15 18 19 16 20  1  1  1  1  1
TYPE ASSIGNMENTS      1  1  1  1  1  1  1  1  1  1  1  1  1  1  2  2  2  3  3  3
TYPE ASSIGNMENTS      4  4  4  2  3  4  2  3  4  2  3  4  5  6  7  8  9 10  5  6
TYPE ASSIGNMENTS      7  8  9 10  5  6  7  8  9 10 11 12 13 17 14 15 18 19 16 20
TYPE ASSIGNMENTS     11 12 13 17 14 15 18 19 16 20  1  1  1  1  1  1  2  3  4  2
TYPE ASSIGNMENTS      3  4  2  3  4  5  6  7  8  9 10  5  6  7  8  9 10  1  1  1
TYPE ASSIGNMENTS      1  1  1  2  3  4  2  3  4  2  3  4  5  6  7  8  9 10  5  6
TYPE ASSIGNMENTS      7  8  9 10  1  1  1  1  1  1  1  1  1  1  1  1  1  1  1  1
TYPE ASSIGNMENTS      1  1  1  1  1  1  1  1  1  1  1  1  1  1  1  1  1  1  1  1
TYPE ASSIGNMENTS      1  1  1  1  1  1  2  2  2  2  2  2  2  3  3  3  3  3  3  3
TYPE ASSIGNMENTS      4  4  4  4  4  4  4  2  2  2  2  2  2  2  3  3  3  3  3  3
TYPE ASSIGNMENTS      3  4  4  4  4  4  4  4  2  3  4  2  3  4  2  3  4  5  6  7
TYPE ASSIGNMENTS      8  9 10  5  6  7  8  9 10  5  6  7  8  9 10 11 12 13 17 14
TYPE ASSIGNMENTS     15 18 19 16 20 11 12 13 17 14 15 18 19 16 20  1  1  1  1  1
TYPE ASSIGNMENTS      1  1  1  1  1  1  1  1  1  1  1  1  1  1  1  1  1  1  1  1
TYPE ASSIGNMENTS      1  1  1  1  1  1  1  1  1  1  1  1  1  1  1  1  1  2  2  2
TYPE ASSIGNMENTS      2  2  2  2  3  3  3  3  3  3  3  4  4  4  4  4  4  4  2  2
TYPE ASSIGNMENTS      2  2  2  2  2  3  3  3  3  3  3  3  4  4  4  4  4  4  4  2
TYPE ASSIGNMENTS      3  4  2  3  4  2  3  4  5  6  7  8  9 10  5  6  7  8  9 10
TYPE ASSIGNMENTS      5  6  7  8  9 10 11 12 13 17 14 15 18 19 16 20 11 12 13 17
TYPE ASSIGNMENTS     14 15 18 19 16 20
EXPONENTS  0.8236000D+04 0.1235000D+04 0.2808000D+03 0.7927000D+02 0.2559000D+02
EXPONENTS  0.8997000D+01 0.3319000D+01 0.3643000D+00 0.8236000D+04 0.1235000D+04
EXPONENTS  0.2808000D+03 0.7927000D+02 0.2559000D+02 0.8997000D+01 0.3319000D+01
EXPONENTS  0.3643000D+00 0.9059000D+00 0.1285000D+00 0.4402000D-01 0.1871000D+02
EXPONENTS  0.4133000D+01 0.1200000D+01 0.1871000D+02 0.4133000D+01 0.1200000D+01
EXPONENTS  0.1871000D+02 0.4133000D+01 0.1200000D+01 0.3827000D+00 0.3827000D+00
EXPONENTS  0.3827000D+00 0.1209000D+00 0.1209000D+00 0.1209000D+00 0.3569000D-01
EXPONENTS  0.3569000D-01 0.3569000D-01 0.1097000D+01 0.1097000D+01 0.1097000D+01
EXPONENTS  0.1097000D+01 0.1097000D+01 0.1097000D+01 0.3180000D+00 0.3180000D+00
EXPONENTS  0.3180000D+00 0.3180000D+00 0.3180000D+00 0.3180000D+00 0.1000000D+00
EXPONENTS  0.1000000D+00 0.1000000D+00 0.1000000D+00 0.1000000D+00 0.1000000D+00
EXPONENTS  0.7610000D+00 0.7610000D+00 0.7610000D+00 0.7610000D+00 0.7610000D+00
EXPONENTS  0.7610000D+00 0.7610000D+00 0.7610000D+00 0.7610000D+00 0.7610000D+00
EXPONENTS  0.2680000D+00 0.2680000D+00 0.2680000D+00 0.2680000D+00 0.2680000D+00
EXPONENTS  0.2680000D+00 0.2680000D+00 0.2680000D+00 0.2680000D+00 0.2680000D+00
EXPONENTS  0.8236000D+04 0.1235000D+04 0.2808000D+03 0.7927000D+02 0.2559000D+02
EXPONENTS  0.8997000D+01 0.3319000D+01 0.3643000D+00 0.8236000D+04 0.1235000D+04
EXPONENTS  0.2808000D+03 0.7927000D+02 0.2559000D+02 0.8997000D+01 0.3319000D+01
EXPONENTS  0.3643000D+00 0.9059000D+00 0.1285000D+00 0.4402000D-01 0.1871000D+02
EXPONENTS  0.4133000D+01 0.1200000D+01 0.1871000D+02 0.4133000D+01 0.1200000D+01
EXPONENTS  0.1871000D+02 0.4133000D+01 0.1200000D+01 0.3827000D+00 0.3827000D+00
EXPONENTS  0.3827000D+00 0.1209000D+00 0.1209000D+00 0.1209000D+00 0.3569000D-01
EXPONENTS  0.3569000D-01 0.3569000D-01 0.1097000D+01 0.1097000D+01 0.1097000D+01
EXPONENTS  0.1097000D+01 0.1097000D+01 0.1097000D+01 0.3180000D+00 0.3180000D+00
EXPONENTS  0.3180000D+00 0.3180000D+00 0.3180000D+00 0.3180000D+00 0.1000000D+00
EXPONENTS  0.1000000D+00 0.1000000D+00 0.1000000D+00 0.1000000D+00 0.1000000D+00
EXPONENTS  0.7610000D+00 0.7610000D+00 0.7610000D+00 0.7610000D+00 0.7610000D+00
EXPONENTS  0.7610000D+00 0.7610000D+00 0.7610000D+00 0.7610000D+00 0.7610000D+00
EXPONENTS  0.2680000D+00 0.2680000D+00 0.2680000D+00 0.2680000D+00 0.2680000D+00
EXPONENTS  0.2680000D+00 0.2680000D+00 0.2680000D+00 0.2680000D+00 0.2680000D+00
EXPONENTS  0.3387000D+02 0.5095000D+01 0.1159000D+01 0.3258000D+00 0.1027000D+00
EXPONENTS  0.2526000D-01 0.1407000D+01 0.1407000D+01 0.1407000D+01 0.3880000D+00
EXPONENTS  0.3880000D+00 0.3880000D+00 0.1020000D+00 0.1020000D+00 0.1020000D+00
EXPONENTS  0.1057000D+01 0.1057000D+01 0.1057000D+01 0.1057000D+01 0.1057000D+01
EXPONENTS  0.1057000D+01 0.2470000D+00 0.2470000D+00 0.2470000D+00 0.2470000D+00
EXPONENTS  0.2470000D+00 0.2470000D+00 0.3387000D+02 0.5095000D+01 0.1159000D+01
EXPONENTS  0.3258000D+00 0.1027000D+00 0.2526000D-01 0.1407000D+01 0.1407000D+01
EXPONENTS  0.1407000D+01 0.3880000D+00 0.3880000D+00 0.3880000D+00 0.1020000D+00
EXPONENTS  0.1020000D+00 0.1020000D+00 0.1057000D+01 0.1057000D+01 0.1057000D+01
EXPONENTS  0.1057000D+01 0.1057000D+01 0.1057000D+01 0.2470000D+00 0.2470000D+00
EXPONENTS  0.2470000D+00 0.2470000D+00 0.2470000D+00 0.2470000D+00 0.4561000D+06
EXPONENTS  0.6833000D+05 0.1555000D+05 0.4405000D+04 0.1439000D+04 0.5204000D+03
EXPONENTS  0.2031000D+03 0.8396000D+02 0.3620000D+02 0.1583000D+02 0.6334000D+01
EXPONENTS  0.2694000D+01 0.4313000D+00 0.4561000D+06 0.6833000D+05 0.1555000D+05
EXPONENTS  0.4405000D+04 0.1439000D+04 0.5204000D+03 0.2031000D+03 0.8396000D+02
EXPONENTS  0.3620000D+02 0.1583000D+02 0.6334000D+01 0.2694000D+01 0.4313000D+00
EXPONENTS  0.4561000D+06 0.6833000D+05 0.1555000D+05 0.4405000D+04 0.1439000D+04
EXPONENTS  0.5204000D+03 0.2031000D+03 0.8396000D+02 0.3620000D+02 0.1583000D+02
EXPONENTS  0.6334000D+01 0.2694000D+01 0.4313000D+00 0.9768000D+00 0.1625000D+00
EXPONENTS  0.5910000D-01 0.6633000D+03 0.1568000D+03 0.4998000D+02 0.1842000D+02
EXPONENTS  0.7240000D+01 0.2922000D+01 0.3818000D+00 0.6633000D+03 0.1568000D+03
EXPONENTS  0.4998000D+02 0.1842000D+02 0.7240000D+01 0.2922000D+01 0.3818000D+00
EXPONENTS  0.6633000D+03 0.1568000D+03 0.4998000D+02 0.1842000D+02 0.7240000D+01
EXPONENTS  0.2922000D+01 0.3818000D+00 0.6633000D+03 0.1568000D+03 0.4998000D+02
EXPONENTS  0.1842000D+02 0.7240000D+01 0.2922000D+01 0.3818000D+00 0.6633000D+03
EXPONENTS  0.1568000D+03 0.4998000D+02 0.1842000D+02 0.7240000D+01 0.2922000D+01
EXPONENTS  0.3818000D+00 0.6633000D+03 0.1568000D+03 0.4998000D+02 0.1842000D+02
EXPONENTS  0.7240000D+01 0.2922000D+01 0.3818000D+00 0.1022000D+01 0.1022000D+01
EXPONENTS  0.1022000D+01 0.1301000D+00 0.1301000D+00 0.1301000D+00 0.4190000D-01
EXPONENTS  0.4190000D-01 0.4190000D-01 0.1046000D+01 0.1046000D+01 0.1046000D+01
EXPONENTS  0.1046000D+01 0.1046000D+01 0.1046000D+01 0.3440000D+00 0.3440000D+00
EXPONENTS  0.3440000D+00 0.3440000D+00 0.3440000D+00 0.3440000D+00 0.1350000D+00
EXPONENTS  0.1350000D+00 0.1350000D+00 0.1350000D+00 0.1350000D+00 0.1350000D+00
EXPONENTS  0.7060000D+00 0.7060000D+00 0.7060000D+00 0.7060000D+00 0.7060000D+00
EXPONENTS  0.7060000D+00 0.7060000D+00 0.7060000D+00 0.7060000D+00 0.7060000D+00
EXPONENTS  0.3120000D+00 0.3120000D+00 0.3120000D+00 0.3120000D+00 0.3120000D+00
EXPONENTS  0.3120000D+00 0.3120000D+00 0.3120000D+00 0.3120000D+00 0.3120000D+00
EXPONENTS  0.4561000D+06 0.6833000D+05 0.1555000D+05 0.4405000D+04 0.1439000D+04
EXPONENTS  0.5204000D+03 0.2031000D+03 0.8396000D+02 0.3620000D+02 0.1583000D+02
EXPONENTS  0.6334000D+01 0.2694000D+01 0.4313000D+00 0.4561000D+06 0.6833000D+05
EXPONENTS  0.1555000D+05 0.4405000D+04 0.1439000D+04 0.5204000D+03 0.2031000D+03
EXPONENTS  0.8396000D+02 0.3620000D+02 0.1583000D+02 0.6334000D+01 0.2694000D+01
EXPONENTS  0.4313000D+00 0.4561000D+06 0.6833000D+05 0.1555000D+05 0.4405000D+04
EXPONENTS  0.1439000D+04 0.5204000D+03 0.2031000D+03 0.8396000D+02 0.3620000D+02
EXPONENTS  0.1583000D+02 0.6334000D+01 0.2694000D+01 0.4313000D+00 0.9768000D+00
EXPONENTS  0.1625000D+00 0.5910000D-01 0.6633000D+03 0.1568000D+03 0.4998000D+02
EXPONENTS  0.1842000D+02 0.7240000D+01 0.2922000D+01 0.3818000D+00 0.6633000D+03
EXPONENTS  0.1568000D+03 0.4998000D+02 0.1842000D+02 0.7240000D+01 0.2922000D+01
EXPONENTS  0.3818000D+00 0.6633000D+03 0.1568000D+03 0.4998000D+02 0.1842000D+02
EXPONENTS  0.7240000D+01 0.2922000D+01 0.3818000D+00 0.6633000D+03 0.1568000D+03
EXPONENTS  0.4998000D+02 0.1842000D+02 0.7240000D+01 0.2922000D+01 0.3818000D+00
EXPONENTS  0.6633000D+03 0.1568000D+03 0.4998000D+02 0.1842000D+02 0.7240000D+01
EXPONENTS  0.2922000D+01 0.3818000D+00 0.6633000D+03 0.1568000D+03 0.4998000D+02
EXPONENTS  0.1842000D+02 0.7240000D+01 0.2922000D+01 0.3818000D+00 0.1022000D+01
EXPONENTS  0.1022000D+01 0.1022000D+01 0.1301000D+00 0.1301000D+00 0.1301000D+00
EXPONENTS  0.4190000D-01 0.4190000D-01 0.4190000D-01 0.1046000D+01 0.1046000D+01
EXPONENTS  0.1046000D+01 0.1046000D+01 0.1046000D+01 0.1046000D+01 0.3440000D+00
EXPONENTS  0.3440000D+00 0.3440000D+00 0.3440000D+00 0.3440000D+00 0.3440000D+00
EXPONENTS  0.1350000D+00 0.1350000D+00 0.1350000D+00 0.1350000D+00 0.1350000D+00
EXPONENTS  0.1350000D+00 0.7060000D+00 0.7060000D+00 0.7060000D+00 0.7060000D+00
EXPONENTS  0.7060000D+00 0.7060000D+00 0.7060000D+00 0.7060000D+00 0.7060000D+00
EXPONENTS  0.7060000D+00 0.3120000D+00 0.3120000D+00 0.3120000D+00 0.3120000D+00
EXPONENTS  0.3120000D+00 0.3120000D+00 0.3120000D+00 0.3120000D+00 0.3120000D+00
EXPONENTS  0.3120000D+00
MO    1     MO 0.0        OCC NO =    2.0000000  ORB. ENERGY = -101.214008
  0.36316654D-10  0.67702499D-10  0.11442915D-09  0.17202450D-09  0.21135197D-09
  0.17852053D-09  0.67331374D-10 -0.33322673D-12 -0.26069081D-10 -0.48809545D-10
 -0.83102426D-10 -0.12854682D-09 -0.16929164D-09 -0.17590485D-09 -0.11177964D-09
  0.74912114D-10  0.47389209D-10  0.25862953D-09 -0.83836293D-10 -0.40133741D-15
 -0.37627933D-15 -0.26793330D-15  0.42380832D-04  0.39734724D-04  0.28293491D-04
  0.14938932D-11  0.14006199D-11  0.99732478D-12  0.84277491D-18 -0.65270836D-04
 -0.14620782D-09 -0.95389601D-18 -0.22717805D-03 -0.15927831D-09  0.17183602D-18
 -0.84952893D-05  0.22917082D-11 -0.18163663D-11  0.40285027D-11 -0.22121365D-11
 -0.92013108D-16  0.70286253D-19  0.15802836D-03  0.17745962D-10 -0.67982466D-10
  0.50236505D-10 -0.22989575D-18  0.48128078D-18 -0.88023127D-03  0.18758727D-11
 -0.14371548D-10  0.12495675D-10  0.55117508D-21 -0.13501258D-19  0.33290876D-04
  0.12259602D-18 -0.64154269D-04 -0.42267700D-11  0.55487645D-19 -0.31193130D-04
  0.27737896D-11 -0.42327569D-18  0.22365594D-03  0.99065205D-11 -0.16909805D-18
  0.27732273D-19 -0.61813687D-04 -0.50588133D-11 -0.89895945D-20  0.85191729D-04
 -0.51069352D-11 -0.74207225D-19  0.10024933D-03  0.20283375D-10  0.31610066D-18
  0.50060699D-11  0.93324525D-11  0.15773489D-10  0.23712720D-10  0.29133817D-10
  0.24608166D-10  0.92812947D-11 -0.45933645D-13 -0.52186745D-11 -0.97710052D-11
 -0.16635972D-10 -0.25733320D-10 -0.33889877D-10 -0.35213753D-10 -0.22376759D-10
  0.14996384D-10  0.42491406D-10 -0.17015671D-09  0.11698425D-09 -0.36526961D-18
 -0.34246348D-18 -0.24385440D-18 -0.10933221D-04 -0.10250590D-04 -0.72990308D-05
  0.10044975D-10  0.94178028D-11  0.67060366D-11  0.50029852D-18 -0.44108616D-03
 -0.14690214D-09  0.85219562D-19 -0.51588971D-03 -0.22387297D-09 -0.10534462D-19
 -0.21049059D-04  0.48408913D-11 -0.33594895D-10  0.25899303D-10  0.76955927D-11
 -0.39920532D-18 -0.54272542D-18  0.31128676D-03  0.32991413D-10  0.16109123D-10
 -0.49100536D-10  0.33731805D-18  0.83427431D-18 -0.66749602D-03 -0.23748228D-11
  0.13552753D-10 -0.11177930D-10 -0.22292469D-19 -0.44915520D-19  0.22649292D-03
 -0.24791092D-19  0.45533478D-04  0.17458931D-12  0.85685415D-19 -0.78781260D-04
  0.42313318D-12 -0.11312140D-19 -0.57819175D-04 -0.94690112D-12 -0.25185413D-18
 -0.13279776D-19  0.66481869D-04 -0.25599819D-10 -0.18895577D-18 -0.53661963D-04
 -0.12918618D-10  0.22879510D-18 -0.14578364D-03  0.89718075D-10  0.13446892D-18
  0.44874561D-05  0.80933120D-05  0.11933584D-04  0.70357604D-03 -0.21308563D-03
  0.23813679D-04 -0.52052958D-18 -0.50393393D-04 -0.47180575D-05  0.98203242D-19
 -0.17229321D-03 -0.20998259D-03  0.75956573D-19  0.15687665D-04  0.36057123D-04
 -0.67891008D-05 -0.26106509D-04  0.32895610D-04  0.45112187D-18 -0.27915369D-18
  0.24792525D-04 -0.77801866D-05  0.15161891D-04 -0.73817049D-05 -0.10095390D-18
 -0.17409288D-18 -0.44503838D-05 -0.44874566D-05 -0.80933128D-05 -0.11933585D-04
 -0.70357594D-03  0.21308589D-03 -0.23813677D-04 -0.10156801D-17 -0.50393407D-04
  0.47180239D-05  0.64752098D-18 -0.17229315D-03  0.20998253D-03  0.19635732D-19
  0.15687670D-04 -0.36057158D-04  0.67890905D-05  0.26106512D-04 -0.32895602D-04
  0.30152825D-18 -0.61854862D-19  0.24792480D-04  0.77801837D-05 -0.15161894D-04
  0.73817100D-05  0.13023615D-18 -0.11164633D-19 -0.44503890D-05 -0.43654031D+00
 -0.81676860D+00 -0.14111952D+01 -0.22877120D+01 -0.34740732D+01 -0.48285532D+01
 -0.57404532D+01 -0.51131541D+01 -0.25383228D+01 -0.40896447D+00 -0.62786941D-02
 -0.11219965D-02 -0.41927257D-04  0.88714004D-03  0.16570502D-02  0.28758910D-02
  0.46664024D-02  0.72230367D-02  0.10339121D-01  0.13495782D-01  0.14382008D-01
  0.10750843D-01  0.56751790D-03 -0.72923233D-02 -0.43324778D-02  0.16243544D-04
 -0.35816517D-03 -0.66846368D-03 -0.11617310D-02 -0.18828243D-02 -0.29243209D-02
 -0.41891740D-02 -0.55314139D-02 -0.59810993D-02 -0.46892594D-02 -0.23333599D-03
  0.40198809D-02  0.41613219D-02 -0.18830570D-02  0.23017728D-02  0.12832359D-02
  0.37510244D-03 -0.10488650D-16 -0.13815906D-16 -0.15242181D-16 -0.12660383D-16
 -0.67242370D-17 -0.17343769D-17  0.17828805D-20  0.47275438D-02  0.62272362D-02
  0.68701004D-02  0.57064081D-02  0.30308119D-02  0.78173481D-03 -0.80359681D-06
 -0.37299372D-02 -0.49131643D-02 -0.54203712D-02 -0.45022414D-02 -0.23912498D-02
 -0.61677307D-03  0.63402175D-06 -0.11236351D-17 -0.14752505D-17 -0.16796812D-17
 -0.14222851D-17 -0.81473966D-18 -0.18532501D-18  0.86742302D-19 -0.39560669D-02
 -0.51940258D-02 -0.59137805D-02 -0.50075465D-02 -0.28685154D-02 -0.65248774D-03
  0.30540017D-03  0.31823733D-02  0.41782229D-02  0.47572142D-02  0.40282136D-02
  0.23075158D-02  0.52487979D-03 -0.24567263D-03  0.46585936D-18 -0.20184974D-03
  0.14078416D-03 -0.48892363D-20 -0.43765971D-03  0.18573457D-03  0.45423386D-20
 -0.13218934D-04  0.89657262D-05  0.84793305D-04 -0.93377705D-04  0.85843998D-05
 -0.66411230D-19 -0.18508311D-18  0.18631150D-03  0.55584894D-05  0.19814529D-04
 -0.25373018D-04 -0.79863745D-19  0.15132921D-18  0.46189616D-04 -0.19253105D-04
  0.34287985D-04 -0.15034880D-04  0.17557692D-19  0.16426344D-19 -0.65608046D-04
 -0.18774933D-19  0.12406986D-04  0.25290347D-04  0.11176315D-18 -0.64106918D-04
  0.38543187D-04 -0.55438350D-19  0.26885960D-04 -0.11441423D-03  0.31800079D-19
 -0.32010323D-20 -0.86229502D-05 -0.94851617D-05 -0.41078614D-19  0.23721517D-04
 -0.10389256D-04  0.50681711D-19  0.21473337D-05  0.38844741D-04 -0.98766672D-19
  0.43654056D+00  0.81676906D+00  0.14111960D+01  0.22877133D+01  0.34740751D+01
  0.48285559D+01  0.57404564D+01  0.51131570D+01  0.25383242D+01  0.40896470D+00
  0.62786976D-02  0.11219971D-02  0.41927281D-04 -0.88714055D-03 -0.16570512D-02
 -0.28758927D-02 -0.46664051D-02 -0.72230408D-02 -0.10339127D-01 -0.13495790D-01
 -0.14382016D-01 -0.10750849D-01 -0.56751822D-03  0.72923275D-02  0.43324803D-02
 -0.16243553D-04  0.35816538D-03  0.66846407D-03  0.11617317D-02  0.18828254D-02
  0.29243226D-02  0.41891765D-02  0.55314172D-02  0.59811028D-02  0.46892621D-02
  0.23333613D-03 -0.40198832D-02 -0.41613243D-02  0.18830581D-02 -0.23017740D-02
 -0.12832364D-02 -0.37510258D-03  0.33196607D-16  0.43727382D-16  0.48241546D-16
  0.40070149D-16  0.21282230D-16  0.54893079D-17 -0.56428219D-20  0.47275465D-02
  0.62272398D-02  0.68701043D-02  0.57064113D-02  0.30308137D-02  0.78173525D-03
 -0.80359726D-06  0.37299397D-02  0.49131676D-02  0.54203749D-02  0.45022444D-02
  0.23912514D-02  0.61677348D-03 -0.63402217D-06 -0.91062999D-17 -0.11955904D-16
 -0.13612677D-16 -0.11526655D-16 -0.66029120D-17 -0.15019334D-17  0.70298749D-18
 -0.39560692D-02 -0.51940289D-02 -0.59137840D-02 -0.50075494D-02 -0.28685171D-02
 -0.65248812D-03  0.30540035D-03 -0.31823755D-02 -0.41782258D-02 -0.47572174D-02
 -0.40282163D-02 -0.23075174D-02 -0.52488015D-03  0.24567280D-03 -0.21446888D-17
 -0.20184977D-03 -0.14078423D-03 -0.13774130D-18 -0.43765990D-03 -0.18573471D-03
  0.46510054D-20 -0.13218938D-04 -0.89657329D-05 -0.84793390D-04  0.93377781D-04
 -0.85843907D-05 -0.26778597D-18 -0.22757377D-18  0.18631161D-03 -0.55584645D-05
 -0.19814546D-04  0.25373010D-04  0.15463172D-18  0.18840393D-18  0.46189641D-04
  0.19253121D-04 -0.34288002D-04  0.15034881D-04 -0.37135720D-19  0.61731177D-20
 -0.65608091D-04  0.29638861D-19  0.12406996D-04 -0.25290360D-04  0.11824812D-18
 -0.64106959D-04 -0.38543236D-04 -0.20716470D-18  0.26885972D-04  0.11441431D-03
 -0.12972722D-18 -0.25642078D-19 -0.86229587D-05  0.94851599D-05 -0.26876935D-19
  0.23721549D-04  0.10389286D-04  0.10380317D-18  0.21473273D-05 -0.38844766D-04
  0.16649636D-18
MO    2     MO 0.0        OCC NO =    2.0000000  ORB. ENERGY = -101.214007
  0.12904488D-03  0.24056900D-03  0.40660400D-03  0.61125899D-03  0.75100230D-03
  0.63434150D-03  0.23925027D-03 -0.11840630D-05 -0.92632428D-04 -0.17343713D-03
 -0.29529156D-03 -0.45677114D-03 -0.60155152D-03 -0.62505056D-03 -0.39719157D-03
  0.26618856D-03  0.16840634D-03  0.91876596D-03 -0.29830066D-03  0.24035229D-15
  0.22534555D-15  0.16045945D-15 -0.11925907D-10 -0.11181296D-10 -0.79617485D-11
  0.52864503D-05  0.49563832D-05  0.35292401D-05  0.20955398D-17  0.18380149D-10
 -0.51945350D-03  0.34614716D-18  0.63878477D-10 -0.56593641D-03  0.60348658D-21
  0.23862835D-11  0.81755380D-05 -0.64727502D-05  0.14339427D-04 -0.78666772D-05
 -0.16665331D-18  0.81234912D-18 -0.44475582D-10  0.63082545D-04 -0.24159313D-03
  0.17851058D-03 -0.77306240D-19 -0.14847634D-17  0.24775587D-09  0.66749197D-05
 -0.51099566D-04  0.44424646D-04  0.85402103D-20 -0.13783553D-18 -0.93190873D-11
 -0.33990057D-18  0.18055976D-10 -0.15016205D-04 -0.21801514D-18  0.87738194D-11
  0.98535752D-05  0.12377168D-17 -0.62941748D-10  0.35195039D-04  0.51904200D-19
 -0.33933933D-19  0.17397868D-10 -0.17968787D-04  0.71270145D-19 -0.23974249D-10
 -0.18148304D-04  0.30531654D-19 -0.28219354D-10  0.72054665D-04 -0.44635111D-18
  0.17773970D-04  0.33134722D-04  0.56003517D-04  0.84191630D-04  0.10343915D-03
  0.87370894D-04  0.32953087D-04 -0.16308666D-06 -0.18534731D-04 -0.34702865D-04
 -0.59084597D-04 -0.91394888D-04 -0.12036385D-03 -0.12506575D-03 -0.79473671D-04
  0.53261406D-04  0.15100317D-03 -0.60458644D-03  0.41636032D-03  0.11485216D-17
  0.10768120D-17  0.76675428D-18  0.30624730D-11  0.28712631D-11  0.20445104D-11
  0.35657249D-04  0.33430938D-04  0.23804819D-04 -0.10320677D-17  0.12415128D-09
 -0.52192944D-03 -0.74055117D-18  0.14533915D-09 -0.79538923D-03 -0.54317838D-20
  0.59255218D-11  0.17217503D-04 -0.11938240D-03  0.92019724D-04  0.27362671D-04
  0.70725201D-19  0.85432164D-18 -0.87595091D-10  0.11722826D-03  0.57237387D-04
 -0.17446564D-03 -0.10517790D-18 -0.13928845D-17  0.18784445D-09 -0.84576538D-05
  0.48189293D-04 -0.39731639D-04 -0.36470564D-19 -0.92428639D-19 -0.63700429D-10
  0.41422633D-20 -0.12811200D-10  0.60990620D-06 -0.56586083D-21  0.22170336D-10
  0.15258508D-05 -0.11860929D-19  0.16263263D-10 -0.33555694D-05  0.12444317D-18
  0.10455789D-18 -0.18714353D-10 -0.90956326D-04  0.75762250D-19  0.15095047D-10
 -0.45921684D-04 -0.38943591D-18  0.41048011D-10  0.31879066D-03 -0.39651080D-18
 -0.80498740D-06 -0.14518279D-05 -0.21407194D-05  0.17258518D-03  0.45000818D-03
  0.42878466D-05 -0.20025209D-18  0.24265034D-04 -0.59715572D-04  0.37912010D-18
 -0.11430586D-03 -0.11723171D-03  0.13781055D-18 -0.80380879D-05 -0.62248861D-04
 -0.18448146D-04  0.43893731D-05  0.14058773D-04  0.19288916D-18 -0.21521411D-18
  0.79965708D-04 -0.50701867D-05 -0.39999605D-05  0.90701472D-05 -0.29284083D-18
  0.19210904D-18  0.91161766D-05 -0.80498487D-06 -0.14518234D-05 -0.21407127D-05
  0.17258557D-03  0.45000806D-03  0.42878600D-05  0.16119155D-18 -0.24265005D-04
 -0.59715575D-04 -0.50078920D-18  0.11430596D-03 -0.11723183D-03  0.26989617D-19
  0.80380791D-05 -0.62248841D-04 -0.18448150D-04  0.43893584D-05  0.14058791D-04
 -0.32514952D-18 -0.24467378D-18 -0.79965722D-04 -0.50701911D-05 -0.39999520D-05
  0.90701431D-05 -0.80153867D-19  0.14759917D-18 -0.91161741D-05  0.43655028D+00
  0.81678725D+00  0.14112274D+01  0.22877643D+01  0.34741525D+01  0.48286635D+01
  0.57405843D+01  0.51132709D+01  0.25383808D+01  0.40897382D+00  0.62788375D-02
  0.11220221D-02  0.41928215D-04 -0.90780952D-03 -0.16956578D-02 -0.29428964D-02
 -0.47751249D-02 -0.73913262D-02 -0.10580012D-01 -0.13810220D-01 -0.14717094D-01
 -0.11001327D-01 -0.58074049D-03  0.74622271D-02  0.44334202D-02 -0.16622002D-04
  0.37204201D-03  0.69436281D-03  0.12067414D-02  0.19557729D-02  0.30376215D-02
  0.43514805D-02  0.57457245D-02  0.62128325D-02  0.48709412D-02  0.24237642D-03
 -0.41756282D-02 -0.43225492D-02  0.19560147D-02 -0.22348634D-02 -0.92123111D-03
 -0.24551284D-03  0.88525180D-17  0.11660753D-16  0.12864542D-16  0.10685481D-16
  0.56753186D-17  0.14638302D-17 -0.15047677D-20 -0.47471238D-02 -0.62530275D-02
 -0.68985541D-02 -0.57300422D-02 -0.30433646D-02 -0.78497251D-03  0.80692505D-06
  0.44596083D-02  0.58743050D-02  0.64807345D-02  0.53829950D-02  0.28590394D-02
  0.73742966D-03 -0.75805262D-06  0.27277176D-17  0.35812932D-17  0.40775658D-17
  0.34527153D-17  0.19778482D-17  0.44989186D-18 -0.21057415D-18  0.41469575D-02
  0.54446512D-02  0.61991359D-02  0.52491737D-02  0.30069288D-02  0.68397198D-03
 -0.32013653D-03 -0.38606511D-02 -0.50687518D-02 -0.57711469D-02 -0.48867701D-02
 -0.27993301D-02 -0.63675047D-03  0.29803426D-03 -0.36024610D-18  0.55034889D-04
 -0.13371908D-03  0.10050266D-18  0.32694941D-03 -0.23887291D-03 -0.75483334D-21
  0.77730135D-05 -0.11928904D-04 -0.15224952D-03  0.13601779D-03  0.16231728D-04
 -0.15658248D-19  0.24533955D-18 -0.19128611D-03  0.44290880D-04 -0.30226307D-04
 -0.14064573D-04  0.99509689D-19 -0.12737961D-18 -0.45750819D-04  0.28519715D-04
 -0.30783909D-04  0.22641937D-05 -0.31514052D-19  0.39528785D-19  0.80719406D-04
  0.25422429D-19 -0.17200997D-04 -0.23011567D-04 -0.67793315D-19  0.73305259D-04
 -0.86943193D-04 -0.84739729D-20 -0.21702267D-04  0.15597789D-03  0.23302638D-18
 -0.16097935D-20  0.15164209D-04 -0.32242461D-05 -0.13369015D-19 -0.56744782D-04
  0.54336887D-04  0.18198396D-19  0.11252154D-04 -0.44664149D-04 -0.32948885D-21
  0.43655004D+00  0.81678679D+00  0.14112266D+01  0.22877630D+01  0.34741506D+01
  0.48286608D+01  0.57405810D+01  0.51132680D+01  0.25383794D+01  0.40897359D+00
  0.62788339D-02  0.11220215D-02  0.41928191D-04 -0.90780902D-03 -0.16956569D-02
 -0.29428948D-02 -0.47751222D-02 -0.73913221D-02 -0.10580006D-01 -0.13810213D-01
 -0.14717086D-01 -0.11001321D-01 -0.58074018D-03  0.74622230D-02  0.44334178D-02
 -0.16621993D-04  0.37204181D-03  0.69436243D-03  0.12067408D-02  0.19557718D-02
  0.30376198D-02  0.43514781D-02  0.57457214D-02  0.62128291D-02  0.48709386D-02
  0.24237629D-03 -0.41756259D-02 -0.43225469D-02  0.19560136D-02 -0.22348621D-02
 -0.92123039D-03 -0.24551262D-03  0.31806328D-16  0.41896072D-16  0.46221182D-16
  0.38392004D-16  0.20390926D-16  0.52594147D-17 -0.54064995D-20  0.47471212D-02
  0.62530239D-02  0.68985503D-02  0.57300390D-02  0.30433629D-02  0.78497207D-03
 -0.80692460D-06  0.44596062D-02  0.58743022D-02  0.64807315D-02  0.53829924D-02
  0.28590380D-02  0.73742931D-03 -0.75805226D-06 -0.79119273D-17 -0.10387781D-16
 -0.11827252D-16 -0.10014832D-16 -0.57368811D-17 -0.13049414D-17  0.61078440D-18
 -0.41469553D-02 -0.54446483D-02 -0.61991326D-02 -0.52491709D-02 -0.30069272D-02
 -0.68397161D-03  0.32013636D-03 -0.38606493D-02 -0.50687495D-02 -0.57711442D-02
 -0.48867679D-02 -0.27993288D-02 -0.63675018D-03  0.29803413D-03 -0.19913062D-17
 -0.55034776D-04 -0.13371900D-03 -0.10222840D-19 -0.32694916D-03 -0.23887281D-03
  0.75638802D-20 -0.77730061D-05 -0.11928899D-04 -0.15224947D-03  0.13601774D-03
  0.16231733D-04 -0.33984329D-18 -0.97264604D-19  0.19128601D-03  0.44290883D-04
 -0.30226296D-04 -0.14064588D-04  0.25437544D-18  0.24368909D-19  0.45750793D-04
  0.28519705D-04 -0.30783890D-04  0.22641853D-05  0.23350461D-19  0.14050161D-19
 -0.80719369D-04 -0.39319350D-19  0.17200990D-04 -0.23011553D-04 -0.96069070D-19
 -0.73305223D-04 -0.86943171D-04  0.21402712D-18  0.21702252D-04  0.15597783D-03
 -0.23425770D-18 -0.12901986D-19 -0.15164204D-04 -0.32242514D-05  0.11592360D-18
  0.56744769D-04  0.54336881D-04 -0.77217643D-19 -0.11252156D-04 -0.44664127D-04
  0.68213037D-19
MO    3     MO 0.0        OCC NO =    2.0000000  ORB. ENERGY =  -10.178313
  0.11768262D-02  0.21938717D-02  0.37080296D-02  0.55743831D-02  0.68487737D-02
  0.57848842D-02  0.21818455D-02 -0.10798075D-04 -0.65099007D-04 -0.12188588D-03
 -0.20752114D-03 -0.32100365D-03 -0.42275052D-03 -0.43926486D-03 -0.27913310D-03
  0.18706851D-03  0.19087143D-02 -0.78710944D-02 -0.84899871D-03 -0.85076553D-16
 -0.79764676D-16 -0.56797201D-16  0.70235207D-14  0.65849971D-14  0.46889102D-14
 -0.20624289D-02 -0.19336582D-02 -0.13768798D-02  0.13712258D-15 -0.27433889D-13
  0.66468526D-02  0.75821102D-17 -0.61477159D-13  0.91020048D-03 -0.10307256D-18
 -0.18066020D-14  0.60588330D-05 -0.19987430D-04  0.11702622D-02 -0.11502748D-02
  0.46122500D-17  0.11845060D-16  0.31891865D-14  0.11842036D-02  0.21149808D-02
 -0.32991844D-02 -0.56686263D-17 -0.28257664D-16 -0.77308789D-13  0.13201164D-03
 -0.31978123D-04 -0.10003352D-03  0.48501424D-19 -0.10183911D-17 -0.10847150D-13
 -0.18776041D-17 -0.48246516D-14  0.66133034D-03 -0.37572030D-17  0.49516466D-14
 -0.14566485D-02  0.93900152D-17  0.95223081D-14 -0.52734247D-03 -0.49768187D-17
 -0.10821812D-17 -0.42122545D-14  0.51229216D-03 -0.26055134D-17  0.57318979D-14
 -0.97978438D-05  0.58520571D-17  0.69048656D-14 -0.15270786D-02 -0.12759817D-18
  0.32920968D+00  0.61372169D+00  0.10372978D+01  0.15593983D+01  0.19159010D+01
  0.16182847D+01  0.61035744D+00 -0.30206930D-02 -0.23491266D-02 -0.43983062D-02
 -0.74884926D-02 -0.11583559D-01 -0.15255140D-01 -0.15851068D-01 -0.10072642D-01
  0.67504504D-02  0.32385546D-01  0.23060866D-02 -0.93329615D-04  0.12958969D-15
  0.12149858D-15  0.86514224D-16 -0.26847307D-14 -0.25171057D-14 -0.17923292D-14
 -0.47422799D-02 -0.44461888D-02 -0.31659513D-02 -0.37251355D-16 -0.81420815D-14
  0.92109811D-02 -0.86371898D-17  0.34159841D-13  0.12097930D-02  0.77233015D-19
  0.29945189D-14  0.28256858D-04 -0.22750993D-02 -0.22254319D-03  0.24976425D-02
  0.33127040D-17  0.18691475D-16  0.14229834D-13  0.46382935D-03 -0.21785527D-02
  0.17147234D-02  0.68014676D-19 -0.23516751D-16 -0.54248205D-13  0.13514589D-04
 -0.26619620D-04  0.13105031D-04  0.50111572D-18 -0.11912423D-17 -0.80385659D-14
 -0.18042246D-19  0.74702883D-15  0.72081678D-03  0.47914858D-17  0.13342660D-14
 -0.15215713D-02 -0.47373590D-17 -0.35753525D-14 -0.64087903D-03 -0.45424170D-18
  0.14174022D-17  0.53706439D-14 -0.47809297D-04  0.50300667D-18 -0.34809171D-14
  0.21783314D-03 -0.47552133D-17 -0.12631015D-13 -0.74405246D-04  0.43285321D-18
  0.74052060D-04  0.13355594D-03  0.19692816D-03  0.11372721D-02  0.88283011D-03
  0.36712571D-04 -0.42484284D-17  0.13184402D-03 -0.43827062D-03  0.93466946D-17
  0.47875864D-03  0.20220838D-02 -0.90413074D-20 -0.31244010D-04  0.15586874D-03