 Molden2AIM, Version 4.0.0 (06/02/2016)           Time: Thu Jun 28 19:24:03 2018
GAUSSIAN             12 MOL ORBITALS    306 PRIMITIVES        6 NUCLEI
  C    1    (CENTRE  1)  -0.00000189  0.03286045  1.33543166  CHARGE =  6.0
  C    2    (CENTRE  2)  -0.00000756  0.10903153 -1.16721769  CHARGE =  6.0
  H    3    (CENTRE  3)   0.00000378  1.80200126  2.38227568  CHARGE =  1.0
  H    4    (CENTRE  4)   0.00000000 -1.74889806  2.36391699  CHARGE =  1.0
  H    5    (CENTRE  5)   0.00000189  1.81116643 -2.32975641  CHARGE =  1.0
  F    6    (CENTRE  6)   0.00000378 -2.00616160 -2.58465023  CHARGE =  9.0
CENTRE ASSIGNMENTS    1  1  1  1  1  1  1  1  1  1  1  1  1  1  1  1  1  1  1  1
CENTRE ASSIGNMENTS    1  1  1  1  1  1  1  1  1  1  1  1  1  1  1  1  1  1  1  1
CENTRE ASSIGNMENTS    1  1  1  1  1  1  1  1  1  1  1  1  1  1  1  1  1  1  1  1
CENTRE ASSIGNMENTS    1  1  1  1  1  1  1  1  1  1  1  1  1  1  1  2  2  2  2  2
CENTRE ASSIGNMENTS    2  2  2  2  2  2  2  2  2  2  2  2  2  2  2  2  2  2  2  2
CENTRE ASSIGNMENTS    2  2  2  2  2  2  2  2  2  2  2  2  2  2  2  2  2  2  2  2
CENTRE ASSIGNMENTS    2  2  2  2  2  2  2  2  2  2  2  2  2  2  2  2  2  2  2  2
CENTRE ASSIGNMENTS    2  2  2  2  2  2  2  2  2  2  3  3  3  3  3  3  3  3  3  3
CENTRE ASSIGNMENTS    3  3  3  3  3  3  3  3  3  3  3  3  3  3  3  3  3  4  4  4
CENTRE ASSIGNMENTS    4  4  4  4  4  4  4  4  4  4  4  4  4  4  4  4  4  4  4  4
CENTRE ASSIGNMENTS    4  4  4  4  5  5  5  5  5  5  5  5  5  5  5  5  5  5  5  5
CENTRE ASSIGNMENTS    5  5  5  5  5  5  5  5  5  5  5  6  6  6  6  6  6  6  6  6
CENTRE ASSIGNMENTS    6  6  6  6  6  6  6  6  6  6  6  6  6  6  6  6  6  6  6  6
CENTRE ASSIGNMENTS    6  6  6  6  6  6  6  6  6  6  6  6  6  6  6  6  6  6  6  6
CENTRE ASSIGNMENTS    6  6  6  6  6  6  6  6  6  6  6  6  6  6  6  6  6  6  6  6
CENTRE ASSIGNMENTS    6  6  6  6  6  6
TYPE ASSIGNMENTS      1  1  1  1  1  1  1  1  1  1  1  1  1  1  1  1  1  1  1  2
TYPE ASSIGNMENTS      2  2  3  3  3  4  4  4  2  3  4  2  3  4  2  3  4  5  6  7
TYPE ASSIGNMENTS      8  9 10  5  6  7  8  9 10  5  6  7  8  9 10 11 12 13 17 14
TYPE ASSIGNMENTS     15 18 19 16 20 11 12 13 17 14 15 18 19 16 20  1  1  1  1  1
TYPE ASSIGNMENTS      1  1  1  1  1  1  1  1  1  1  1  1  1  1  2  2  2  3  3  3
TYPE ASSIGNMENTS      4  4  4  2  3  4  2  3  4  2  3  4  5  6  7  8  9 10  5  6
TYPE ASSIGNMENTS      7  8  9 10  5  6  7  8  9 10 11 12 13 17 14 15 18 19 16 20
TYPE ASSIGNMENTS     11 12 13 17 14 15 18 19 16 20  1  1  1  1  1  1  2  3  4  2
TYPE ASSIGNMENTS      3  4  2  3  4  5  6  7  8  9 10  5  6  7  8  9 10  1  1  1
TYPE ASSIGNMENTS      1  1  1  2  3  4  2  3  4  2  3  4  5  6  7  8  9 10  5  6
TYPE ASSIGNMENTS      7  8  9 10  1  1  1  1  1  1  2  3  4  2  3  4  2  3  4  5
TYPE ASSIGNMENTS      6  7  8  9 10  5  6  7  8  9 10  1  1  1  1  1  1  1  1  1
TYPE ASSIGNMENTS      1  1  1  1  1  1  1  1  1  1  2  2  2  3  3  3  4  4  4  2
TYPE ASSIGNMENTS      3  4  2  3  4  2  3  4  5  6  7  8  9 10  5  6  7  8  9 10
TYPE ASSIGNMENTS      5  6  7  8  9 10 11 12 13 17 14 15 18 19 16 20 11 12 13 17
TYPE ASSIGNMENTS     14 15 18 19 16 20
EXPONENTS  0.8236000D+04 0.1235000D+04 0.2808000D+03 0.7927000D+02 0.2559000D+02
EXPONENTS  0.8997000D+01 0.3319000D+01 0.3643000D+00 0.8236000D+04 0.1235000D+04
EXPONENTS  0.2808000D+03 0.7927000D+02 0.2559000D+02 0.8997000D+01 0.3319000D+01
EXPONENTS  0.3643000D+00 0.9059000D+00 0.1285000D+00 0.4402000D-01 0.1871000D+02
EXPONENTS  0.4133000D+01 0.1200000D+01 0.1871000D+02 0.4133000D+01 0.1200000D+01
EXPONENTS  0.1871000D+02 0.4133000D+01 0.1200000D+01 0.3827000D+00 0.3827000D+00
EXPONENTS  0.3827000D+00 0.1209000D+00 0.1209000D+00 0.1209000D+00 0.3569000D-01
EXPONENTS  0.3569000D-01 0.3569000D-01 0.1097000D+01 0.1097000D+01 0.1097000D+01
EXPONENTS  0.1097000D+01 0.1097000D+01 0.1097000D+01 0.3180000D+00 0.3180000D+00
EXPONENTS  0.3180000D+00 0.3180000D+00 0.3180000D+00 0.3180000D+00 0.1000000D+00
EXPONENTS  0.1000000D+00 0.1000000D+00 0.1000000D+00 0.1000000D+00 0.1000000D+00
EXPONENTS  0.7610000D+00 0.7610000D+00 0.7610000D+00 0.7610000D+00 0.7610000D+00
EXPONENTS  0.7610000D+00 0.7610000D+00 0.7610000D+00 0.7610000D+00 0.7610000D+00
EXPONENTS  0.2680000D+00 0.2680000D+00 0.2680000D+00 0.2680000D+00 0.2680000D+00
EXPONENTS  0.2680000D+00 0.2680000D+00 0.2680000D+00 0.2680000D+00 0.2680000D+00
EXPONENTS  0.8236000D+04 0.1235000D+04 0.2808000D+03 0.7927000D+02 0.2559000D+02
EXPONENTS  0.8997000D+01 0.3319000D+01 0.3643000D+00 0.8236000D+04 0.1235000D+04
EXPONENTS  0.2808000D+03 0.7927000D+02 0.2559000D+02 0.8997000D+01 0.3319000D+01
EXPONENTS  0.3643000D+00 0.9059000D+00 0.1285000D+00 0.4402000D-01 0.1871000D+02
EXPONENTS  0.4133000D+01 0.1200000D+01 0.1871000D+02 0.4133000D+01 0.1200000D+01
EXPONENTS  0.1871000D+02 0.4133000D+01 0.1200000D+01 0.3827000D+00 0.3827000D+00
EXPONENTS  0.3827000D+00 0.1209000D+00 0.1209000D+00 0.1209000D+00 0.3569000D-01
EXPONENTS  0.3569000D-01 0.3569000D-01 0.1097000D+01 0.1097000D+01 0.1097000D+01
EXPONENTS  0.1097000D+01 0.1097000D+01 0.1097000D+01 0.3180000D+00 0.3180000D+00
EXPONENTS  0.3180000D+00 0.3180000D+00 0.3180000D+00 0.3180000D+00 0.1000000D+00
EXPONENTS  0.1000000D+00 0.1000000D+00 0.1000000D+00 0.1000000D+00 0.1000000D+00
EXPONENTS  0.7610000D+00 0.7610000D+00 0.7610000D+00 0.7610000D+00 0.7610000D+00
EXPONENTS  0.7610000D+00 0.7610000D+00 0.7610000D+00 0.7610000D+00 0.7610000D+00
EXPONENTS  0.2680000D+00 0.2680000D+00 0.2680000D+00 0.2680000D+00 0.2680000D+00
EXPONENTS  0.2680000D+00 0.2680000D+00 0.2680000D+00 0.2680000D+00 0.2680000D+00
EXPONENTS  0.3387000D+02 0.5095000D+01 0.1159000D+01 0.3258000D+00 0.1027000D+00
EXPONENTS  0.2526000D-01 0.1407000D+01 0.1407000D+01 0.1407000D+01 0.3880000D+00
EXPONENTS  0.3880000D+00 0.3880000D+00 0.1020000D+00 0.1020000D+00 0.1020000D+00
EXPONENTS  0.1057000D+01 0.1057000D+01 0.1057000D+01 0.1057000D+01 0.1057000D+01
EXPONENTS  0.1057000D+01 0.2470000D+00 0.2470000D+00 0.2470000D+00 0.2470000D+00
EXPONENTS  0.2470000D+00 0.2470000D+00 0.3387000D+02 0.5095000D+01 0.1159000D+01
EXPONENTS  0.3258000D+00 0.1027000D+00 0.2526000D-01 0.1407000D+01 0.1407000D+01
EXPONENTS  0.1407000D+01 0.3880000D+00 0.3880000D+00 0.3880000D+00 0.1020000D+00
EXPONENTS  0.1020000D+00 0.1020000D+00 0.1057000D+01 0.1057000D+01 0.1057000D+01
EXPONENTS  0.1057000D+01 0.1057000D+01 0.1057000D+01 0.2470000D+00 0.2470000D+00
EXPONENTS  0.2470000D+00 0.2470000D+00 0.2470000D+00 0.2470000D+00 0.3387000D+02
EXPONENTS  0.5095000D+01 0.1159000D+01 0.3258000D+00 0.1027000D+00 0.2526000D-01
EXPONENTS  0.1407000D+01 0.1407000D+01 0.1407000D+01 0.3880000D+00 0.3880000D+00
EXPONENTS  0.3880000D+00 0.1020000D+00 0.1020000D+00 0.1020000D+00 0.1057000D+01
EXPONENTS  0.1057000D+01 0.1057000D+01 0.1057000D+01 0.1057000D+01 0.1057000D+01
EXPONENTS  0.2470000D+00 0.2470000D+00 0.2470000D+00 0.2470000D+00 0.2470000D+00
EXPONENTS  0.2470000D+00 0.1950000D+05 0.2923000D+04 0.6645000D+03 0.1875000D+03
EXPONENTS  0.6062000D+02 0.2142000D+02 0.7950000D+01 0.8815000D+00 0.1950000D+05
EXPONENTS  0.2923000D+04 0.6645000D+03 0.1875000D+03 0.6062000D+02 0.2142000D+02
EXPONENTS  0.7950000D+01 0.8815000D+00 0.2257000D+01 0.3041000D+00 0.9158000D-01
EXPONENTS  0.4388000D+02 0.9926000D+01 0.2930000D+01 0.4388000D+02 0.9926000D+01
EXPONENTS  0.2930000D+01 0.4388000D+02 0.9926000D+01 0.2930000D+01 0.9132000D+00
EXPONENTS  0.9132000D+00 0.9132000D+00 0.2672000D+00 0.2672000D+00 0.2672000D+00
EXPONENTS  0.7361000D-01 0.7361000D-01 0.7361000D-01 0.3107000D+01 0.3107000D+01
EXPONENTS  0.3107000D+01 0.3107000D+01 0.3107000D+01 0.3107000D+01 0.8550000D+00
EXPONENTS  0.8550000D+00 0.8550000D+00 0.8550000D+00 0.8550000D+00 0.8550000D+00
EXPONENTS  0.2920000D+00 0.2920000D+00 0.2920000D+00 0.2920000D+00 0.2920000D+00
EXPONENTS  0.2920000D+00 0.1917000D+01 0.1917000D+01 0.1917000D+01 0.1917000D+01
EXPONENTS  0.1917000D+01 0.1917000D+01 0.1917000D+01 0.1917000D+01 0.1917000D+01
EXPONENTS  0.1917000D+01 0.7240000D+00 0.7240000D+00 0.7240000D+00 0.7240000D+00
EXPONENTS  0.7240000D+00 0.7240000D+00 0.7240000D+00 0.7240000D+00 0.7240000D+00
EXPONENTS  0.7240000D+00
MO    1     MO 0.0        OCC NO =    2.0000000  ORB. ENERGY =  -24.519900
  0.14268751D-04  0.26600196D-04  0.44959017D-04  0.67588129D-04  0.83039826D-04
  0.70140408D-04  0.26454381D-04 -0.13092421D-06 -0.78336328D-05 -0.14667032D-04
 -0.24971878D-04 -0.38627697D-04 -0.50871319D-04 -0.52858559D-04 -0.33589241D-04
  0.22510728D-04 -0.18952390D-04 -0.10380207D-02 -0.22182778D-03 -0.30997556D-09
 -0.29062179D-09 -0.20694003D-09 -0.45812831D-04 -0.42952441D-04 -0.30584697D-04
  0.15556564D-03  0.14585268D-03  0.10385579D-03 -0.82721851D-09  0.26141811D-03
 -0.90353014D-03  0.26239679D-08 -0.11790748D-03  0.73966012D-03  0.40698349D-10
 -0.81169980D-05  0.31141802D-04  0.38066078D-04 -0.69559108D-04  0.31493030D-04
 -0.24180822D-08  0.24294489D-08  0.38806681D-04  0.32019752D-04 -0.38457461D-03
  0.35255486D-03  0.39489435D-08 -0.22516189D-10  0.74322388D-03 -0.99968810D-05
  0.43999333D-04 -0.34002452D-04 -0.59865304D-09 -0.28481013D-09 -0.75008093D-04
  0.11333977D-08  0.22453373D-04  0.39427345D-04 -0.14484983D-08 -0.15531859D-03
  0.91063751D-04 -0.19516948D-08  0.87958476D-04 -0.20934579D-03  0.40030539D-09
 -0.23245138D-09  0.24431028D-04 -0.86339254D-04  0.63619010D-09 -0.10357777D-04
 -0.52970322D-04  0.61164044D-10 -0.62935308D-04  0.31198808D-03 -0.42733839D-09
  0.16218802D-03  0.30235535D-03  0.51103381D-03  0.76825121D-03  0.94388537D-03
  0.79726209D-03  0.30069793D-03 -0.14881708D-05 -0.11432285D-03 -0.21404845D-03
 -0.36443580D-03 -0.56372676D-03 -0.74240831D-03 -0.77140979D-03 -0.49019629D-03
  0.32851816D-03 -0.37151130D-03  0.22624833D-02  0.42463568D-03 -0.35251265D-08
 -0.33050302D-08 -0.23533784D-08  0.44843512D-03  0.42043643D-03  0.29937579D-03
  0.37273882D-03  0.34946634D-03  0.24884085D-03  0.84458937D-08 -0.15045597D-02
 -0.18067706D-02  0.20294795D-08 -0.39963242D-03  0.66663277D-03  0.92425508D-10
 -0.94998835D-05  0.23491720D-04 -0.35689322D-03  0.45124008D-03 -0.94346856D-04
 -0.88019611D-08 -0.93993626D-08  0.10662805D-02 -0.26414834D-03  0.49776694D-03
 -0.23361860D-03 -0.61032104D-08 -0.51781950D-08  0.11866274D-02 -0.10289979D-04
 -0.33536694D-04  0.43826674D-04  0.18961094D-09  0.51768404D-10 -0.73285295D-04
 -0.26733857D-08 -0.72519924D-04  0.10777784D-03  0.55537950D-08  0.42935478D-03
  0.39428574D-03  0.24663619D-08 -0.21179501D-03 -0.71761926D-03  0.96970855D-08
 -0.31168384D-09 -0.90085214D-04 -0.45070940D-04  0.16779351D-08  0.32592395D-04
 -0.84067063D-04 -0.74288361D-09  0.23766325D-03  0.21927988D-03  0.61322540D-09
 -0.89963584D-05 -0.16225303D-04 -0.23924199D-04 -0.60161135D-03  0.10419065D-03
 -0.64127378D-05 -0.17400144D-09  0.64622465D-05 -0.97219023D-05  0.34843698D-09
  0.12398671D-03 -0.16845068D-03  0.32139574D-09 -0.35451989D-04  0.80770694D-05
 -0.63462638D-04 -0.31769225D-04  0.95231863D-04 -0.77331379D-09  0.16464212D-08
  0.79319950D-04 -0.19989303D-04 -0.66214484D-05  0.26610751D-04  0.68515016D-10
  0.37208000D-09  0.11140931D-05 -0.12638783D-04 -0.22794565D-04 -0.33610573D-04
  0.53641659D-03 -0.90273546D-03 -0.44023621D-04  0.40513664D-09  0.85488714D-04
  0.52379528D-04 -0.39517908D-09  0.52019587D-03 -0.58095599D-03 -0.30721558D-09
 -0.64814964D-04  0.33168625D-04 -0.16644966D-03  0.11538541D-03  0.51064248D-04
  0.75307790D-09 -0.48682650D-10 -0.31664578D-03 -0.46276948D-04  0.33757615D-04
  0.12519332D-04  0.58152461D-10 -0.11975391D-09 -0.60291976D-04  0.18020672D-04
  0.32501024D-04  0.47922741D-04  0.48060585D-03  0.12580277D-03  0.19502587D-04
  0.15154241D-08 -0.18289745D-04 -0.30852264D-04 -0.47244974D-08  0.61228598D-04
  0.12701502D-03 -0.64994314D-09 -0.83790131D-05  0.60732139D-04  0.10909546D-03
 -0.11470621D-03  0.56107508D-05  0.15561402D-08 -0.13092748D-08 -0.63439655D-04
  0.71146000D-05  0.81858331D-05 -0.15300433D-04 -0.48822401D-09 -0.10756088D-08
 -0.10569151D-04  0.59599081D+00  0.11109527D+01  0.18833379D+01  0.28519287D+01
  0.35663468D+01  0.30702924D+01  0.11803325D+01 -0.51145739D-02 -0.43710325D-03
 -0.82080249D-03 -0.13976851D-02 -0.21894654D-02 -0.29341412D-02 -0.31560645D-02
 -0.18948970D-02  0.12461640D-02  0.60414658D-01 -0.14863406D-02 -0.40616980D-03
 -0.39653610D-07 -0.38780364D-07 -0.25623826D-07  0.60954054D-02  0.59611733D-02
  0.39387992D-02  0.41649119D-02  0.40731928D-02  0.26913307D-02  0.66481143D-08
 -0.10828049D-02 -0.74644654D-03  0.41337376D-08 -0.11223950D-02 -0.12153503D-02
  0.71460664D-10 -0.36215893D-04 -0.26502276D-04 -0.54648058D-03  0.34402352D-03
  0.20245706D-03 -0.40503880D-08 -0.95690486D-09  0.86483349D-03  0.47849305D-03
 -0.44769221D-03 -0.30800837D-04  0.97832299D-08  0.66806209D-08 -0.13127391D-02
  0.22449183D-03 -0.13398776D-03 -0.90504077D-04  0.26211297D-08  0.36620024D-08
 -0.59042192D-03  0.40680967D-08  0.80751227D-04 -0.88884165D-04 -0.36071781D-08
 -0.65709222D-03 -0.32585762D-03 -0.85971120D-08  0.41483854D-03  0.59251011D-03
 -0.11295388D-07 -0.32871488D-08 -0.72043354D-04  0.13824351D-03  0.57439050D-08
  0.56721929D-03  0.36002156D-03  0.41175414D-08 -0.35108923D-03 -0.77475208D-03
  0.13232812D-07
MO    2     MO 0.0        OCC NO =    2.0000000  ORB. ENERGY =  -10.136890
  0.15285487D-02  0.28495624D-02  0.48162624D-02  0.72404199D-02  0.88956925D-02
  0.75138344D-02  0.28339419D-02 -0.14025336D-04 -0.16445382D-04 -0.30790944D-04
 -0.52424217D-04 -0.81092293D-04 -0.10679570D-03 -0.11096757D-03 -0.70514909D-04
  0.47257452D-04  0.16858772D-02 -0.10112972D-01 -0.68078444D-03 -0.16309164D-08
 -0.15290878D-08 -0.10888016D-08  0.64217077D-04  0.60207592D-04  0.42871392D-04
 -0.14045151D-02 -0.13168222D-02 -0.93765586D-03  0.64665285D-08 -0.33996829D-03
  0.42913212D-02  0.12302555D-07  0.97020168D-04  0.23880118D-02  0.24886270D-09
  0.41027876D-04  0.37174255D-04  0.15947926D-03  0.10336004D-02 -0.11930797D-02
  0.79682750D-09 -0.15152465D-08  0.24524225D-03  0.11298675D-02  0.11814958D-02
 -0.23113633D-02  0.13677688D-09 -0.71456982D-08 -0.57433268D-03  0.72893092D-04
  0.52558801D-04 -0.12545189D-03  0.43352448D-11 -0.11870347D-08  0.10496300D-03
 -0.11684634D-08  0.10536641D-03  0.78674843D-03 -0.18265393D-08  0.12279964D-03
 -0.10413553D-02  0.53319295D-08 -0.43889886D-03 -0.13188900D-02 -0.54223031D-08
 -0.10427769D-08 -0.84119451D-05  0.29693874D-03  0.27641255D-08  0.44301147D-04
 -0.11066263D-03  0.36420509D-09 -0.19065312D-04 -0.78015358D-03 -0.26588687D-08
  0.32949131D+00  0.61424673D+00  0.10381852D+01  0.15607324D+01  0.19175401D+01
  0.16196691D+01  0.61087960D+00 -0.30232772D-02 -0.26081568D-02 -0.48832924D-02
 -0.83142231D-02 -0.12860839D-01 -0.16937272D-01 -0.17598911D-01 -0.11183318D-01
  0.74947996D-02  0.31976966D-01  0.68342280D-02  0.35397885D-03 -0.10116214D-08
 -0.94845938D-09 -0.67535958D-09 -0.36054168D-02 -0.33803074D-02 -0.24069802D-02
 -0.31411291D-02 -0.29450082D-02 -0.20970212D-02  0.34387913D-07  0.20680960D-02
  0.39452450D-02 -0.18301038D-08  0.10356200D-03  0.29432654D-02 -0.10089435D-09
 -0.30718135D-04  0.28965703D-04 -0.33339607D-02  0.10502746D-02  0.22836861D-02
  0.54392100D-08 -0.14150339D-07 -0.61018676D-03 -0.18358389D-03 -0.78708143D-03
  0.97066532D-03  0.73460526D-08  0.13398207D-07 -0.19447754D-02 -0.81874512D-05
 -0.16561732D-03  0.17380477D-03  0.36572731D-10 -0.75672737D-10 -0.36896049D-04
 -0.10866357D-07  0.16295205D-04  0.11958777D-02  0.15494800D-07 -0.47001580D-03
 -0.76091197D-04  0.17104272D-07  0.42113018D-03 -0.35115420D-02 -0.14912946D-07
  0.11847195D-08  0.45017568D-04 -0.11143909D-03 -0.44183175D-08 -0.10062763D-03
 -0.53418070D-04  0.86415904D-09 -0.34425079D-04  0.38773536D-03 -0.67406638D-08
  0.72954602D-04  0.13157663D-03  0.19400966D-03  0.14281028D-02 -0.50130062D-03
 -0.56115632D-04  0.19933164D-08 -0.98950276D-04 -0.38208285D-03 -0.68881971D-08
 -0.31475942D-03  0.10678440D-02 -0.57247165D-09  0.48943291D-04  0.74218902D-04
  0.18516099D-03  0.15205034D-03 -0.33721133D-03  0.44067299D-09  0.61912941D-09
 -0.51973568D-03  0.11761087D-03  0.89948380D-04 -0.20755924D-03  0.45048589D-10
 -0.56030264D-09 -0.16712441D-03  0.72214442D-04  0.13024172D-03  0.19204134D-03
  0.45846556D-03  0.34508773D-03  0.46818533D-04  0.34767821D-08  0.66547015D-04
 -0.51484898D-03 -0.76110056D-08 -0.40550688D-03  0.12454086D-02 -0.11853303D-08
 -0.59404915D-06  0.15751094D-03  0.29194748D-03 -0.11823929D-03 -0.17370819D-03
 -0.20514162D-08  0.11750704D-08  0.48353610D-03  0.17062400D-03  0.29401427D-04
 -0.20002542D-03 -0.25824470D-09  0.15546342D-09  0.26647010D-03 -0.38748589D-04
 -0.69884677D-04 -0.10304492D-03 -0.20988904D-02  0.85040193D-03  0.49413240D-04
  0.87985107D-08  0.15324593D-02 -0.10528562D-02  0.93313587D-08  0.21224365D-02
 -0.11292747D-02 -0.74114311D-09  0.16642379D-03  0.18791668D-03  0.82784349D-03
 -0.87883719D-03  0.50993694D-04 -0.19070988D-07  0.14419070D-07  0.29533799D-02
  0.16564659D-03 -0.20212871D-03  0.36482119D-04 -0.20732985D-08  0.23803972D-08
  0.22968028D-03  0.18042438D-03  0.33631886D-03  0.57014315D-03  0.86336477D-03
  0.10796407D-02  0.92947005D-03  0.35732222D-03 -0.15483357D-05 -0.15014058D-03
 -0.28193742D-03 -0.48009081D-03 -0.75205941D-03 -0.10078481D-02 -0.10840765D-02
 -0.65087811D-03  0.42804483D-03  0.16865036D-03  0.16812717D-02  0.95389884D-03
 -0.37705627D-08 -0.36875280D-08 -0.24365057D-08  0.50316665D-03  0.49208599D-03
  0.32514202D-03  0.11058615D-03  0.10815084D-03  0.71459831D-04 -0.16724849D-08
  0.52675257D-03  0.62694550D-03 -0.38263737D-09  0.22867219D-03  0.13465739D-03
 -0.56543036D-09  0.37300891D-04  0.10815340D-03 -0.87647051D-03  0.94032865D-03
 -0.63858142D-04 -0.13847545D-07 -0.10724446D-07  0.24594456D-02  0.41090784D-03
 -0.45868363D-03  0.47775791D-04  0.63103232D-08  0.49835683D-08 -0.11333047D-02
  0.13036105D-03 -0.58783714D-04 -0.71577340D-04  0.28266678D-08  0.12828793D-08
 -0.18841953D-03  0.29767236D-08  0.77089618D-05  0.10735492D-03 -0.65282905D-08
 -0.67174544D-03 -0.81229548D-03 -0.24018804D-08  0.64861855D-03  0.49023072D-03
  0.26333148D-09 -0.48192995D-08 -0.44186848D-04  0.22727371D-03  0.10969544D-07
  0.98419117D-03  0.84027986D-03  0.34883546D-08 -0.85163062D-03 -0.15221010D-02
  0.19673911D-07
MO    3     MO 0.0        OCC NO =    2.0000000  ORB. ENERGY =  -10.054849
  0.32948626D+00  0.61423730D+00  0.10381693D+01  0.15607084D+01  0.19175107D+01
  0.16196443D+01  0.61087023D+00 -0.30232309D-02 -0.26211244D-02 -0.49075718D-02
 -0.83555609D-02 -0.12924782D-01 -0.17021484D-01 -0.17686412D-01 -0.11238921D-01
  0.75320633D-02  0.31849108D-01  0.59238888D-02  0.23144779D-03 -0.17171008D-07
 -0.16098912D-07 -0.11463384D-07  0.46483037D-04  0.43580802D-04  0.31032127D-04
  0.35569212D-03  0.33348397D-03  0.23746045D-03  0.51797850D-08 -0.34797883D-04
 -0.22847257D-02 -0.67494415D-08  0.22978343D-03 -0.25256100D-02 -0.11438960D-09
 -0.34277704D-05 -0.30176567D-04 -0.35588084D-02  0.14586840D-02  0.21001245D-02
  0.75953282D-08  0.30652438D-07 -0.95970516D-04 -0.24871009D-03 -0.35627020D-03
  0.60498029D-03  0.37919688D-08  0.21809342D-08  0.12101428D-03  0.99233518D-05
 -0.23638576D-03  0.22646240D-03  0.59684135D-09  0.94725834D-09 -0.87960509D-05
 -0.11608072D-08 -0.20919458D-04 -0.13253574D-02  0.13065602D-07 -0.95979070D-05
 -0.19327727D-03 -0.95831804D-08  0.72356281D-04  0.41693493D-02  0.72219780D-08
 -0.29294302D-10  0.12025915D-04  0.19351757D-03 -0.16870501D-08 -0.21865915D-04
  0.43475714D-04  0.17749330D-08 -0.14211830D-04 -0.62402842D-03 -0.40406253D-08
 -0.16094718D-02 -0.30004214D-02 -0.50712407D-02 -0.76237359D-02 -0.93666404D-02
 -0.79116252D-02 -0.29839739D-02  0.14767854D-04 -0.12251233D-04 -0.22938173D-04
 -0.39054203D-04 -0.60410913D-04 -0.79559047D-04 -0.82666946D-04 -0.52531133D-04
  0.35205144D-04  0.15079542D-02 -0.99329358D-02 -0.54596150D-03  0.35278858D-08
  0.33076172D-08  0.23552205D-08 -0.29691220D-04 -0.27837406D-04 -0.19821892D-04
  0.11634844D-02  0.10908406D-02  0.77674350D-03 -0.51829251D-08  0.20940191D-03
 -0.29473988D-02 -0.61139788D-08 -0.84159404D-04 -0.20285154D-02  0.60019153D-11
  0.43673737D-05 -0.21287000D-04  0.27301002D-03  0.86860973D-03 -0.11416197D-02
  0.42634697D-08 -0.11357417D-07  0.32922199D-04  0.12085318D-02  0.65647888D-03
 -0.18650107D-02 -0.21279303D-08 -0.11971146D-07  0.12135461D-03  0.57695858D-04
  0.10061341D-03 -0.15830927D-03 -0.96365394D-09  0.12481839D-09  0.48154097D-04
  0.18413901D-08 -0.14347944D-03 -0.96048305D-03  0.52998589D-08 -0.22701274D-04
  0.10350388D-02 -0.10824029D-07  0.45313958D-03  0.18464103D-02  0.75069582D-09
  0.21335651D-09 -0.85476250D-04 -0.20910686D-03  0.48032455D-08  0.15766102D-04
  0.11389683D-03 -0.54433150D-08  0.24066265D-03  0.51342376D-03 -0.28372348D-08
  0.59209457D-05  0.10678669D-04  0.15745692D-04 -0.57560977D-03  0.83507375D-03
  0.20658975D-04  0.53273013D-08  0.15720167D-02  0.79877929D-03  0.41329582D-08
  0.15395238D-02  0.94587850D-03 -0.12556117D-08  0.21448570D-03 -0.18420761D-03
  0.93888895D-03 -0.11684471D-02  0.22955816D-03 -0.13754646D-07 -0.61296365D-08
 -0.26560315D-02  0.19259519D-03 -0.16263676D-03 -0.29958424D-04 -0.13948385D-08
 -0.95603067D-09 -0.13500010D-03  0.13736483D-05  0.24774313D-05  0.36529710D-05
 -0.25784888D-03  0.12990064D-02  0.14902220D-04  0.16645211D-08 -0.15695866D-02
  0.77571909D-03 -0.23003255D-09 -0.14885108D-02  0.86599364D-03  0.14820449D-09
 -0.15582328D-03 -0.25189986D-03  0.93404287D-03 -0.11991198D-02  0.26507697D-03
  0.34845058D-08 -0.23360489D-08  0.26389859D-02  0.19420309D-03 -0.16725286D-03
 -0.26950229D-04 -0.29225022D-09 -0.16020614D-08  0.13522330D-03  0.67684921D-04
  0.12207254D-03  0.17999589D-03  0.13773056D-02  0.34733339D-03 -0.20953355D-05
  0.21052032D-08 -0.23703272D-03  0.49374859D-03 -0.14654875D-07  0.84312913D-06
 -0.19961000D-03  0.23918700D-09 -0.10753630D-03 -0.12822408D-03  0.15537198D-03
 -0.15121922D-03 -0.41527597D-05  0.17612262D-08 -0.11666551D-07 -0.97776066D-05
  0.10283171D-03  0.37383344D-04 -0.14021506D-03 -0.35235419D-09 -0.25459324D-08
  0.17669533D-03  0.11153929D-03  0.20791406D-03  0.35246545D-03  0.53373656D-03
  0.66743945D-03  0.57460319D-03  0.22089844D-03 -0.95718912D-06 -0.74594325D-04
 -0.14007493D-03 -0.23852345D-03 -0.37364557D-03 -0.50072903D-03 -0.53860158D-03
 -0.32337568D-03  0.21266545D-03 -0.11774566D-03  0.11849821D-02 -0.12663837D-03
  0.53395897D-08  0.52220021D-08  0.34503976D-08 -0.35311684D-03 -0.34534056D-03
 -0.22818111D-03 -0.25478796D-03 -0.24917706D-03 -0.16464182D-03 -0.46030368D-08
  0.44549308D-03  0.40354728D-03 -0.85303038D-08  0.70927207D-03 -0.37557150D-03
 -0.15254753D-09  0.33581401D-05 -0.53433202D-04 -0.15652469D-03 -0.22611985D-03
  0.38264454D-03  0.10220802D-07  0.44994459D-08  0.23498159D-03 -0.55270742D-04
  0.21959631D-03 -0.16432557D-03 -0.82333497D-08 -0.38899375D-08  0.16186274D-03
  0.74368262D-04  0.22336558D-03 -0.29773384D-03 -0.32380642D-08 -0.32499441D-08
 -0.13546197D-03  0.42800974D-08 -0.16789157D-03  0.27914688D-03 -0.80929337D-08
 -0.71872146D-03 -0.47761512D-03 -0.47473584D-08  0.12223962D-02 -0.35982553D-03
  0.21056703D-07 -0.43398366D-09  0.10116424D-03 -0.17407652D-03  0.35261459D-09
  0.17923186D-03  0.17250440D-03  0.94933638D-09 -0.48272457D-03  0.34972518D-03
 -0.12753435D-07
MO    4     MO 0.0        OCC NO =    2.0000000  ORB. ENERGY =   -1.204917
 -0.77403903D-03 -0.14429847D-02 -0.24388984D-02 -0.36664632D-02 -0.45046737D-02
 -0.38049171D-02 -0.14350747D-02  0.71022649D-05 -0.16327228D-02 -0.30569723D-02
 -0.52047568D-02 -0.80509674D-02 -0.10602841D-01 -0.11017031D-01 -0.70008285D-02
  0.46917925D-02  0.15181432D-02 -0.10299684D-01 -0.13750730D-02  0.32970975D-08
  0.30912384D-08  0.22011459D-08 -0.55883444D-02 -0.52394281D-02 -0.37307849D-02
 -0.14012475D-01 -0.13137586D-01 -0.93547439D-02  0.36984081D-07 -0.25183752D-02
  0.26734717D-02  0.17835595D-07 -0.57990374D-03  0.27307831D-02  0.53683906D-09
  0.12619122D-03  0.15383679D-03 -0.12753671D-02  0.64364302D-03  0.63172409D-03
  0.32710091D-08 -0.68604321D-08  0.35715193D-02 -0.63509469D-05  0.13427516D-02
 -0.13364007D-02 -0.10598999D-07 -0.43047877D-07 -0.29315252D-02 -0.26282238D-04
  0.15727070D-03 -0.13098846D-03 -0.17802466D-07 -0.36178604D-08 -0.14836386D-02
 -0.36013773D-08  0.54043206D-03  0.73374639D-04 -0.50522659D-08  0.49837437D-03
  0.91191367D-04  0.15856398D-07 -0.21196706D-02 -0.31131528D-03 -0.32302347D-08
  0.26769441D-08 -0.18646118D-03  0.15989162D-03 -0.97096709D-08 -0.68997853D-04
 -0.91631913D-04  0.16788384D-08  0.62838139D-03 -0.38804294D-03  0.13741634D-07
 -0.33440445D-02 -0.62340592D-02 -0.10536658D-01 -0.15840049D-01 -0.19461330D-01
 -0.16438204D-01 -0.61998859D-02  0.30683581D-04 -0.15133043D-01 -0.28333831D-01
 -0.48240771D-01 -0.74621137D-01 -0.98273413D-01 -0.10211237D+00 -0.64887828D-01
  0.43486313D-01  0.18754459D-01  0.20731291D-01  0.16258263D-02  0.59042910D-06
  0.55356481D-06  0.39417113D-06 -0.10651378D+00 -0.99863441D-01 -0.71108719D-01
 -0.69485275D-01 -0.65146862D-01 -0.46388447D-01  0.14231722D-06 -0.19925165D-01
 -0.12665820D-01  0.11009910D-07  0.32525871D-03  0.20041300D-02  0.25294569D-09
 -0.13843698D-03  0.11007158D-03 -0.13929593D-01  0.12806984D-01  0.11226093D-02
 -0.24222247D-06 -0.16097237D-06  0.30315315D-01 -0.31564539D-02  0.18774894D-02
  0.12789645D-02 -0.17638771D-07 -0.44371570D-07  0.72337500D-03  0.76198039D-06
 -0.50438654D-03  0.50362456D-03  0.13708190D-07 -0.56717661D-08 -0.20999318D-02
 -0.29110512D-07 -0.15179280D-03  0.23378708D-02  0.55735145D-07  0.34543806D-02
  0.23175255D-02  0.31596390D-07 -0.29990022D-02 -0.93311379D-02  0.49780497D-07
 -0.61551273D-09  0.26712185D-03  0.47132203D-03  0.12112195D-07  0.15950071D-04
  0.73122657D-04 -0.10265657D-07 -0.81731562D-03 -0.14870888D-02  0.17682334D-07
  0.18400797D-03  0.33186596D-03  0.48933616D-03  0.12015929D-02  0.81748370D-02
 -0.20619223D-03 -0.39762575D-08 -0.12545288D-03  0.20457102D-03  0.13368679D-07
 -0.15076058D-03  0.32025115D-03  0.83282653D-08 -0.97779109D-03 -0.36458927D-03
  0.27583286D-03  0.32888902D-03 -0.60472188D-03 -0.37324855D-08 -0.18999136D-07
 -0.88257399D-03  0.18577396D-03 -0.26574095D-04 -0.15919987D-03 -0.13181488D-08
 -0.23952694D-08 -0.22256412D-03  0.38192455D-03  0.68881666D-03  0.10156598D-02
 -0.28704294D-02 -0.92031733D-02 -0.13425662D-04 -0.44977805D-08  0.72043978D-04
 -0.10798631D-02  0.25628121D-07 -0.23562738D-02  0.18073751D-02 -0.10706333D-07
 -0.11746914D-02  0.40319734D-03 -0.20594515D-05 -0.99519864D-03  0.99725809D-03
  0.11907488D-07 -0.41667092D-08  0.39317856D-03  0.12824687D-03 -0.10787967D-03
 -0.20367197D-04  0.39521674D-08 -0.33821115D-09  0.55912577D-03  0.15953668D-02
  0.28773097D-02  0.42425914D-02 -0.51510597D-02 -0.10750053D-01  0.16034991D-03
  0.10481571D-07 -0.23066923D-02 -0.12591015D-02  0.31921728D-07  0.17140728D-02
 -0.34430308D-02 -0.59476849D-08  0.20804352D-02  0.21754700D-03 -0.24957909D-03
  0.17995662D-02 -0.15499871D-02 -0.57046725D-08  0.30190224D-07  0.21658499D-02
  0.38419106D-04 -0.22008081D-03  0.18166171D-03 -0.64321619D-08 -0.82747543D-08
  0.62322433D-03 -0.25043257D-02 -0.46681716D-02 -0.79136986D-02 -0.11983672D-01
 -0.14985624D-01 -0.12901226D-01 -0.49597023D-02  0.21491202D-04 -0.12691601D+00
 -0.23832580D+00 -0.40582773D+00 -0.63572673D+00 -0.85194861D+00 -0.91638560D+00
 -0.55019671D+00  0.36183251D+00  0.20614684D+00  0.90877085D-01  0.58898383D-02
 -0.15123021D-05 -0.14789984D-05 -0.97723679D-06  0.27031354D+00  0.26436074D+00
  0.17467432D+00  0.18165073D+00  0.17765045D+00  0.11738116D+00 -0.42377833D-06
  0.76992077D-01  0.51984279D-01 -0.30865007D-07  0.28195459D-02  0.24994502D-02
 -0.15541668D-08  0.25127326D-03  0.21737066D-03 -0.92749505D-02  0.11732748D-01
 -0.24577974D-02 -0.25192533D-06 -0.17508472D-06  0.32032001D-01 -0.10202306D-01
  0.10663797D-01 -0.46149078D-03 -0.23257132D-06 -0.17132996D-06  0.28678812D-01
  0.38764585D-03 -0.58918617D-03  0.20154033D-03  0.65858396D-08  0.53387409D-10
 -0.14523174D-02  0.38498640D-07  0.11069661D-02 -0.31182670D-02 -0.11398635D-06
 -0.84353600D-02 -0.56525156D-02 -0.15095725D-08  0.51144618D-02  0.15007317D-01
 -0.17637399D-06  0.25629899D-07  0.61803889D-03 -0.11035421D-02 -0.51107462D-07
 -0.41536728D-02 -0.29901770D-02 -0.25782236D-07  0.22995561D-02  0.63008033D-02
 -0.12138047D-06
MO    5     MO 0.0        OCC NO =    2.0000000  ORB. ENERGY =   -0.737282
 -0.69086246D-02 -0.12879247D-01 -0.21768196D-01 -0.32724730D-01 -0.40206111D-01
 -0.33960488D-01 -0.12808647D-01  0.63390708D-04 -0.43790732D-01 -0.81990067D-01
 -0.13959510D+00 -0.21593240D+00 -0.28437538D+00 -0.29548423D+00 -0.18776696D+00
  0.12583705D+00  0.47398354D-01  0.69728783D-01  0.16814942D-02 -0.24949798D-06
 -0.23392022D-06 -0.16656513D-06  0.11961774D-01  0.11214924D-01  0.79856939D-02
 -0.14052255D+00 -0.13174882D+00 -0.93813010D-01  0.14551890D-07  0.28080097D-02
 -0.74781250D-02  0.10934196D-07 -0.14363255D-02 -0.30564393D-02  0.17709079D-08
  0.31264948D-03 -0.38098275D-04 -0.16177687D-01  0.10565420D-02  0.15121145D-01
  0.34651038D-07  0.15792881D-06 -0.20236428D-02 -0.94234092D-02  0.68788825D-02
  0.25445267D-02  0.47849669D-08  0.50293007D-07 -0.65195784D-02 -0.22001823D-03
  0.12483731D-03  0.95180915D-04 -0.22153153D-07 -0.53507543D-08 -0.35092923D-02
  0.53519186D-09 -0.65738539D-03 -0.52430770D-02  0.48083247D-07  0.27648245D-03
  0.25923786D-02 -0.49688822D-07  0.16956737D-02  0.13136852D-01  0.38388541D-07
  0.21482619D-08 -0.67360127D-03 -0.11226754D-02  0.27253985D-08  0.22262969D-03
  0.10819563D-03 -0.91701842D-08  0.17981741D-02  0.32598307D-02  0.22093324D-07
 -0.63123132D-02 -0.11767587D-01 -0.19889295D-01 -0.29900126D-01 -0.36735759D-01
 -0.31029221D-01 -0.11703081D-01  0.57919199D-04 -0.40466232D-01 -0.75765554D-01
 -0.12899734D+00 -0.19953927D+00 -0.26278620D+00 -0.27305169D+00 -0.17351209D+00
  0.11628377D+00  0.47784479D-01  0.40626445D-01  0.18039206D-03  0.63042498D-06
  0.59106349D-06  0.42087242D-06  0.26756639D-01  0.25086050D-01  0.17862762D-01
  0.17801962D+00  0.16690471D+00  0.11884610D+00  0.21223245D-06  0.12527705D-01