 Molden2AIM, Version 4.0.0 (06/02/2016)           Time: Thu Jun 28 20:53:50 2018
GAUSSIAN             20 MOL ORBITALS    456 PRIMITIVES        8 NUCLEI
  C    1    (CENTRE  1) -13.37232567 -3.81909303  2.73449417  CHARGE =  6.0
  C    2    (CENTRE  2) -10.86816076 -2.71464071  3.38772714  CHARGE =  6.0
  H    3    (CENTRE  3) -14.66291601 -2.32732055  2.09524329  CHARGE =  1.0
  H    4    (CENTRE  4) -14.22488884 -4.70061059  4.40582276  CHARGE =  1.0
  H    5    (CENTRE  5) -13.07707864 -5.21509986  1.24142534  CHARGE =  1.0
  O    6    (CENTRE  6)  -8.84218727 -3.17877634  2.49114469  CHARGE =  8.0
  O    7    (CENTRE  7) -10.78185319 -0.90341192  5.26926508  CHARGE =  8.0
  F    8    (CENTRE  8) -13.24235408 -0.45117589  6.24217924  CHARGE =  9.0
CENTRE ASSIGNMENTS    1  1  1  1  1  1  1  1  1  1  1  1  1  1  1  1  1  1  1  1
CENTRE ASSIGNMENTS    1  1  1  1  1  1  1  1  1  1  1  1  1  1  1  1  1  1  1  1
CENTRE ASSIGNMENTS    1  1  1  1  1  1  1  1  1  1  1  1  1  1  1  1  1  1  1  1
CENTRE ASSIGNMENTS    1  1  1  1  1  1  1  1  1  1  1  1  1  1  1  2  2  2  2  2
CENTRE ASSIGNMENTS    2  2  2  2  2  2  2  2  2  2  2  2  2  2  2  2  2  2  2  2
CENTRE ASSIGNMENTS    2  2  2  2  2  2  2  2  2  2  2  2  2  2  2  2  2  2  2  2
CENTRE ASSIGNMENTS    2  2  2  2  2  2  2  2  2  2  2  2  2  2  2  2  2  2  2  2
CENTRE ASSIGNMENTS    2  2  2  2  2  2  2  2  2  2  3  3  3  3  3  3  3  3  3  3
CENTRE ASSIGNMENTS    3  3  3  3  3  3  3  3  3  3  3  3  3  3  3  3  3  4  4  4
CENTRE ASSIGNMENTS    4  4  4  4  4  4  4  4  4  4  4  4  4  4  4  4  4  4  4  4
CENTRE ASSIGNMENTS    4  4  4  4  5  5  5  5  5  5  5  5  5  5  5  5  5  5  5  5
CENTRE ASSIGNMENTS    5  5  5  5  5  5  5  5  5  5  5  6  6  6  6  6  6  6  6  6
CENTRE ASSIGNMENTS    6  6  6  6  6  6  6  6  6  6  6  6  6  6  6  6  6  6  6  6
CENTRE ASSIGNMENTS    6  6  6  6  6  6  6  6  6  6  6  6  6  6  6  6  6  6  6  6
CENTRE ASSIGNMENTS    6  6  6  6  6  6  6  6  6  6  6  6  6  6  6  6  6  6  6  6
CENTRE ASSIGNMENTS    6  6  6  6  6  6  7  7  7  7  7  7  7  7  7  7  7  7  7  7
CENTRE ASSIGNMENTS    7  7  7  7  7  7  7  7  7  7  7  7  7  7  7  7  7  7  7  7
CENTRE ASSIGNMENTS    7  7  7  7  7  7  7  7  7  7  7  7  7  7  7  7  7  7  7  7
CENTRE ASSIGNMENTS    7  7  7  7  7  7  7  7  7  7  7  7  7  7  7  7  7  7  7  7
CENTRE ASSIGNMENTS    7  8  8  8  8  8  8  8  8  8  8  8  8  8  8  8  8  8  8  8
CENTRE ASSIGNMENTS    8  8  8  8  8  8  8  8  8  8  8  8  8  8  8  8  8  8  8  8
CENTRE ASSIGNMENTS    8  8  8  8  8  8  8  8  8  8  8  8  8  8  8  8  8  8  8  8
CENTRE ASSIGNMENTS    8  8  8  8  8  8  8  8  8  8  8  8  8  8  8  8
TYPE ASSIGNMENTS      1  1  1  1  1  1  1  1  1  1  1  1  1  1  1  1  1  1  1  2
TYPE ASSIGNMENTS      2  2  3  3  3  4  4  4  2  3  4  2  3  4  2  3  4  5  6  7
TYPE ASSIGNMENTS      8  9 10  5  6  7  8  9 10  5  6  7  8  9 10 11 12 13 17 14
TYPE ASSIGNMENTS     15 18 19 16 20 11 12 13 17 14 15 18 19 16 20  1  1  1  1  1
TYPE ASSIGNMENTS      1  1  1  1  1  1  1  1  1  1  1  1  1  1  2  2  2  3  3  3
TYPE ASSIGNMENTS      4  4  4  2  3  4  2  3  4  2  3  4  5  6  7  8  9 10  5  6
TYPE ASSIGNMENTS      7  8  9 10  5  6  7  8  9 10 11 12 13 17 14 15 18 19 16 20
TYPE ASSIGNMENTS     11 12 13 17 14 15 18 19 16 20  1  1  1  1  1  1  2  3  4  2
TYPE ASSIGNMENTS      3  4  2  3  4  5  6  7  8  9 10  5  6  7  8  9 10  1  1  1
TYPE ASSIGNMENTS      1  1  1  2  3  4  2  3  4  2  3  4  5  6  7  8  9 10  5  6
TYPE ASSIGNMENTS      7  8  9 10  1  1  1  1  1  1  2  3  4  2  3  4  2  3  4  5
TYPE ASSIGNMENTS      6  7  8  9 10  5  6  7  8  9 10  1  1  1  1  1  1  1  1  1
TYPE ASSIGNMENTS      1  1  1  1  1  1  1  1  1  1  2  2  2  3  3  3  4  4  4  2
TYPE ASSIGNMENTS      3  4  2  3  4  2  3  4  5  6  7  8  9 10  5  6  7  8  9 10
TYPE ASSIGNMENTS      5  6  7  8  9 10 11 12 13 17 14 15 18 19 16 20 11 12 13 17
TYPE ASSIGNMENTS     14 15 18 19 16 20  1  1  1  1  1  1  1  1  1  1  1  1  1  1
TYPE ASSIGNMENTS      1  1  1  1  1  2  2  2  3  3  3  4  4  4  2  3  4  2  3  4
TYPE ASSIGNMENTS      2  3  4  5  6  7  8  9 10  5  6  7  8  9 10  5  6  7  8  9
TYPE ASSIGNMENTS     10 11 12 13 17 14 15 18 19 16 20 11 12 13 17 14 15 18 19 16
TYPE ASSIGNMENTS     20  1  1  1  1  1  1  1  1  1  1  1  1  1  1  1  1  1  1  1
TYPE ASSIGNMENTS      2  2  2  3  3  3  4  4  4  2  3  4  2  3  4  2  3  4  5  6
TYPE ASSIGNMENTS      7  8  9 10  5  6  7  8  9 10  5  6  7  8  9 10 11 12 13 17
TYPE ASSIGNMENTS     14 15 18 19 16 20 11 12 13 17 14 15 18 19 16 20
EXPONENTS  0.8236000D+04 0.1235000D+04 0.2808000D+03 0.7927000D+02 0.2559000D+02
EXPONENTS  0.8997000D+01 0.3319000D+01 0.3643000D+00 0.8236000D+04 0.1235000D+04
EXPONENTS  0.2808000D+03 0.7927000D+02 0.2559000D+02 0.8997000D+01 0.3319000D+01
EXPONENTS  0.3643000D+00 0.9059000D+00 0.1285000D+00 0.4402000D-01 0.1871000D+02
EXPONENTS  0.4133000D+01 0.1200000D+01 0.1871000D+02 0.4133000D+01 0.1200000D+01
EXPONENTS  0.1871000D+02 0.4133000D+01 0.1200000D+01 0.3827000D+00 0.3827000D+00
EXPONENTS  0.3827000D+00 0.1209000D+00 0.1209000D+00 0.1209000D+00 0.3569000D-01
EXPONENTS  0.3569000D-01 0.3569000D-01 0.1097000D+01 0.1097000D+01 0.1097000D+01
EXPONENTS  0.1097000D+01 0.1097000D+01 0.1097000D+01 0.3180000D+00 0.3180000D+00
EXPONENTS  0.3180000D+00 0.3180000D+00 0.3180000D+00 0.3180000D+00 0.1000000D+00
EXPONENTS  0.1000000D+00 0.1000000D+00 0.1000000D+00 0.1000000D+00 0.1000000D+00
EXPONENTS  0.7610000D+00 0.7610000D+00 0.7610000D+00 0.7610000D+00 0.7610000D+00
EXPONENTS  0.7610000D+00 0.7610000D+00 0.7610000D+00 0.7610000D+00 0.7610000D+00
EXPONENTS  0.2680000D+00 0.2680000D+00 0.2680000D+00 0.2680000D+00 0.2680000D+00
EXPONENTS  0.2680000D+00 0.2680000D+00 0.2680000D+00 0.2680000D+00 0.2680000D+00
EXPONENTS  0.8236000D+04 0.1235000D+04 0.2808000D+03 0.7927000D+02 0.2559000D+02
EXPONENTS  0.8997000D+01 0.3319000D+01 0.3643000D+00 0.8236000D+04 0.1235000D+04
EXPONENTS  0.2808000D+03 0.7927000D+02 0.2559000D+02 0.8997000D+01 0.3319000D+01
EXPONENTS  0.3643000D+00 0.9059000D+00 0.1285000D+00 0.4402000D-01 0.1871000D+02
EXPONENTS  0.4133000D+01 0.1200000D+01 0.1871000D+02 0.4133000D+01 0.1200000D+01
EXPONENTS  0.1871000D+02 0.4133000D+01 0.1200000D+01 0.3827000D+00 0.3827000D+00
EXPONENTS  0.3827000D+00 0.1209000D+00 0.1209000D+00 0.1209000D+00 0.3569000D-01
EXPONENTS  0.3569000D-01 0.3569000D-01 0.1097000D+01 0.1097000D+01 0.1097000D+01
EXPONENTS  0.1097000D+01 0.1097000D+01 0.1097000D+01 0.3180000D+00 0.3180000D+00
EXPONENTS  0.3180000D+00 0.3180000D+00 0.3180000D+00 0.3180000D+00 0.1000000D+00
EXPONENTS  0.1000000D+00 0.1000000D+00 0.1000000D+00 0.1000000D+00 0.1000000D+00
EXPONENTS  0.7610000D+00 0.7610000D+00 0.7610000D+00 0.7610000D+00 0.7610000D+00
EXPONENTS  0.7610000D+00 0.7610000D+00 0.7610000D+00 0.7610000D+00 0.7610000D+00
EXPONENTS  0.2680000D+00 0.2680000D+00 0.2680000D+00 0.2680000D+00 0.2680000D+00
EXPONENTS  0.2680000D+00 0.2680000D+00 0.2680000D+00 0.2680000D+00 0.2680000D+00
EXPONENTS  0.3387000D+02 0.5095000D+01 0.1159000D+01 0.3258000D+00 0.1027000D+00
EXPONENTS  0.2526000D-01 0.1407000D+01 0.1407000D+01 0.1407000D+01 0.3880000D+00
EXPONENTS  0.3880000D+00 0.3880000D+00 0.1020000D+00 0.1020000D+00 0.1020000D+00
EXPONENTS  0.1057000D+01 0.1057000D+01 0.1057000D+01 0.1057000D+01 0.1057000D+01
EXPONENTS  0.1057000D+01 0.2470000D+00 0.2470000D+00 0.2470000D+00 0.2470000D+00
EXPONENTS  0.2470000D+00 0.2470000D+00 0.3387000D+02 0.5095000D+01 0.1159000D+01
EXPONENTS  0.3258000D+00 0.1027000D+00 0.2526000D-01 0.1407000D+01 0.1407000D+01
EXPONENTS  0.1407000D+01 0.3880000D+00 0.3880000D+00 0.3880000D+00 0.1020000D+00
EXPONENTS  0.1020000D+00 0.1020000D+00 0.1057000D+01 0.1057000D+01 0.1057000D+01
EXPONENTS  0.1057000D+01 0.1057000D+01 0.1057000D+01 0.2470000D+00 0.2470000D+00
EXPONENTS  0.2470000D+00 0.2470000D+00 0.2470000D+00 0.2470000D+00 0.3387000D+02
EXPONENTS  0.5095000D+01 0.1159000D+01 0.3258000D+00 0.1027000D+00 0.2526000D-01
EXPONENTS  0.1407000D+01 0.1407000D+01 0.1407000D+01 0.3880000D+00 0.3880000D+00
EXPONENTS  0.3880000D+00 0.1020000D+00 0.1020000D+00 0.1020000D+00 0.1057000D+01
EXPONENTS  0.1057000D+01 0.1057000D+01 0.1057000D+01 0.1057000D+01 0.1057000D+01
EXPONENTS  0.2470000D+00 0.2470000D+00 0.2470000D+00 0.2470000D+00 0.2470000D+00
EXPONENTS  0.2470000D+00 0.1533000D+05 0.2299000D+04 0.5224000D+03 0.1473000D+03
EXPONENTS  0.4755000D+02 0.1676000D+02 0.6207000D+01 0.6882000D+00 0.1533000D+05
EXPONENTS  0.2299000D+04 0.5224000D+03 0.1473000D+03 0.4755000D+02 0.1676000D+02
EXPONENTS  0.6207000D+01 0.6882000D+00 0.1752000D+01 0.2384000D+00 0.7376000D-01
EXPONENTS  0.3446000D+02 0.7749000D+01 0.2280000D+01 0.3446000D+02 0.7749000D+01
EXPONENTS  0.2280000D+01 0.3446000D+02 0.7749000D+01 0.2280000D+01 0.7156000D+00
EXPONENTS  0.7156000D+00 0.7156000D+00 0.2140000D+00 0.2140000D+00 0.2140000D+00
EXPONENTS  0.5974000D-01 0.5974000D-01 0.5974000D-01 0.2314000D+01 0.2314000D+01
EXPONENTS  0.2314000D+01 0.2314000D+01 0.2314000D+01 0.2314000D+01 0.6450000D+00
EXPONENTS  0.6450000D+00 0.6450000D+00 0.6450000D+00 0.6450000D+00 0.6450000D+00
EXPONENTS  0.2140000D+00 0.2140000D+00 0.2140000D+00 0.2140000D+00 0.2140000D+00
EXPONENTS  0.2140000D+00 0.1428000D+01 0.1428000D+01 0.1428000D+01 0.1428000D+01
EXPONENTS  0.1428000D+01 0.1428000D+01 0.1428000D+01 0.1428000D+01 0.1428000D+01
EXPONENTS  0.1428000D+01 0.5000000D+00 0.5000000D+00 0.5000000D+00 0.5000000D+00
EXPONENTS  0.5000000D+00 0.5000000D+00 0.5000000D+00 0.5000000D+00 0.5000000D+00
EXPONENTS  0.5000000D+00 0.1533000D+05 0.2299000D+04 0.5224000D+03 0.1473000D+03
EXPONENTS  0.4755000D+02 0.1676000D+02 0.6207000D+01 0.6882000D+00 0.1533000D+05
EXPONENTS  0.2299000D+04 0.5224000D+03 0.1473000D+03 0.4755000D+02 0.1676000D+02
EXPONENTS  0.6207000D+01 0.6882000D+00 0.1752000D+01 0.2384000D+00 0.7376000D-01
EXPONENTS  0.3446000D+02 0.7749000D+01 0.2280000D+01 0.3446000D+02 0.7749000D+01
EXPONENTS  0.2280000D+01 0.3446000D+02 0.7749000D+01 0.2280000D+01 0.7156000D+00
EXPONENTS  0.7156000D+00 0.7156000D+00 0.2140000D+00 0.2140000D+00 0.2140000D+00
EXPONENTS  0.5974000D-01 0.5974000D-01 0.5974000D-01 0.2314000D+01 0.2314000D+01
EXPONENTS  0.2314000D+01 0.2314000D+01 0.2314000D+01 0.2314000D+01 0.6450000D+00
EXPONENTS  0.6450000D+00 0.6450000D+00 0.6450000D+00 0.6450000D+00 0.6450000D+00
EXPONENTS  0.2140000D+00 0.2140000D+00 0.2140000D+00 0.2140000D+00 0.2140000D+00
EXPONENTS  0.2140000D+00 0.1428000D+01 0.1428000D+01 0.1428000D+01 0.1428000D+01
EXPONENTS  0.1428000D+01 0.1428000D+01 0.1428000D+01 0.1428000D+01 0.1428000D+01
EXPONENTS  0.1428000D+01 0.5000000D+00 0.5000000D+00 0.5000000D+00 0.5000000D+00
EXPONENTS  0.5000000D+00 0.5000000D+00 0.5000000D+00 0.5000000D+00 0.5000000D+00
EXPONENTS  0.5000000D+00 0.1950000D+05 0.2923000D+04 0.6645000D+03 0.1875000D+03
EXPONENTS  0.6062000D+02 0.2142000D+02 0.7950000D+01 0.8815000D+00 0.1950000D+05
EXPONENTS  0.2923000D+04 0.6645000D+03 0.1875000D+03 0.6062000D+02 0.2142000D+02
EXPONENTS  0.7950000D+01 0.8815000D+00 0.2257000D+01 0.3041000D+00 0.9158000D-01
EXPONENTS  0.4388000D+02 0.9926000D+01 0.2930000D+01 0.4388000D+02 0.9926000D+01
EXPONENTS  0.2930000D+01 0.4388000D+02 0.9926000D+01 0.2930000D+01 0.9132000D+00
EXPONENTS  0.9132000D+00 0.9132000D+00 0.2672000D+00 0.2672000D+00 0.2672000D+00
EXPONENTS  0.7361000D-01 0.7361000D-01 0.7361000D-01 0.3107000D+01 0.3107000D+01
EXPONENTS  0.3107000D+01 0.3107000D+01 0.3107000D+01 0.3107000D+01 0.8550000D+00
EXPONENTS  0.8550000D+00 0.8550000D+00 0.8550000D+00 0.8550000D+00 0.8550000D+00
EXPONENTS  0.2920000D+00 0.2920000D+00 0.2920000D+00 0.2920000D+00 0.2920000D+00
EXPONENTS  0.2920000D+00 0.1917000D+01 0.1917000D+01 0.1917000D+01 0.1917000D+01
EXPONENTS  0.1917000D+01 0.1917000D+01 0.1917000D+01 0.1917000D+01 0.1917000D+01
EXPONENTS  0.1917000D+01 0.7240000D+00 0.7240000D+00 0.7240000D+00 0.7240000D+00
EXPONENTS  0.7240000D+00 0.7240000D+00 0.7240000D+00 0.7240000D+00 0.7240000D+00
EXPONENTS  0.7240000D+00
MO    1     MO 0.0        OCC NO =    2.0000000  ORB. ENERGY =  -24.564109
  0.27395868D-04  0.51072127D-04  0.86320892D-04  0.12976858D-03  0.15943569D-03
  0.13466893D-03  0.50792164D-04 -0.25137326D-06 -0.19610568D-04 -0.36717171D-04
 -0.62514125D-04 -0.96699845D-04 -0.12735029D-03 -0.13232511D-03 -0.84086669D-04
  0.56352930D-04  0.56765559D-04 -0.11530611D-03  0.45574577D-04  0.16579633D-04
  0.15544460D-04  0.11068581D-04 -0.46769679D-04 -0.43849547D-04 -0.31223490D-04
 -0.53730488D-04 -0.50375748D-04 -0.35870533D-04 -0.29420938D-04  0.22347663D-03
  0.24365327D-03 -0.33800933D-04 -0.18267108D-03 -0.17526075D-03  0.71950599D-06
 -0.70942867D-05 -0.71936852D-05 -0.98969632D-05  0.49153088D-05  0.49816544D-05
  0.15999524D-04  0.23192015D-04 -0.70339975D-05  0.56319247D-05  0.45492102D-06
 -0.60868457D-05  0.44664237D-04  0.41233698D-04 -0.29949004D-04 -0.15482226D-04
  0.83870112D-05  0.70952149D-05  0.66761064D-05  0.11876739D-04  0.20593050D-04
 -0.23667142D-04 -0.30996899D-05 -0.80897193D-05  0.35404926D-04 -0.66910271D-04
 -0.38908628D-04  0.35596500D-04  0.76209341D-04  0.63177786D-04 -0.93706558D-05
  0.12507081D-04 -0.35428915D-05 -0.14741880D-05 -0.10813699D-04  0.35777971D-04
  0.49497148D-04 -0.26707545D-04 -0.25149297D-04 -0.45074584D-04 -0.12832196D-03
  0.24981568D-04  0.46571323D-04  0.78713740D-04  0.11833253D-03  0.14538519D-03
  0.12280104D-03  0.46316032D-04 -0.22922063D-06 -0.19393408D-04 -0.36310580D-04
 -0.61821869D-04 -0.95629030D-04 -0.12594007D-03 -0.13085980D-03 -0.83155527D-04
  0.55728901D-04  0.43997093D-04  0.82775586D-04 -0.59251163D-04 -0.11622948D-04
 -0.10897253D-04 -0.77594931D-05  0.74389548D-04  0.69744930D-04  0.49662545D-04
  0.81524432D-04  0.76434337D-04  0.54425802D-04  0.97463228D-04 -0.11037107D-03
 -0.13668997D-03  0.11454892D-03  0.34887358D-04  0.14833402D-04  0.14547759D-04
  0.17439130D-05 -0.11423159D-05  0.55016584D-04 -0.46299297D-04 -0.87172870D-05
 -0.14157459D-03 -0.19862915D-03  0.73154164D-04  0.76760095D-04 -0.24551111D-04
 -0.52208984D-04  0.93654487D-04  0.92706809D-04 -0.19091739D-03 -0.42136193D-04
  0.24355791D-04  0.17780402D-04  0.33914458D-04  0.52649025D-04  0.42801481D-04
  0.32830807D-04  0.28407260D-04  0.37864549D-04 -0.77222489D-04 -0.66016386D-04
 -0.10444670D-03 -0.21269933D-04 -0.19205394D-04 -0.91469464D-05 -0.37823504D-04
  0.12150107D-06 -0.38315630D-05 -0.61433756D-05  0.98782920D-05  0.63051768D-04
  0.73572993D-04 -0.10242795D-04 -0.51557079D-04 -0.55142867D-04 -0.34100504D-04
 -0.64508190D-05 -0.11634318D-04 -0.17154795D-04  0.18169852D-03  0.23188875D-03
  0.29624683D-05  0.17606553D-04 -0.25537701D-04  0.27323515D-04  0.24978596D-04
  0.43425975D-05 -0.11697469D-04  0.17215088D-04 -0.13802281D-05  0.18899190D-04
 -0.99620245D-05  0.85194455D-06  0.91100799D-05  0.16190682D-04  0.57825235D-04
  0.98432946D-04  0.40207416D-05  0.94015688D-05 -0.13422310D-04  0.24241950D-04
 -0.20378183D-04  0.63701038D-05 -0.59275488D-05 -0.10690578D-04 -0.15763252D-04
  0.16707822D-03  0.22242656D-03  0.20412419D-05  0.74283383D-05  0.35056841D-04
 -0.21097443D-04  0.25775473D-04 -0.15697474D-04  0.37181647D-05  0.12767840D-04
  0.20685931D-04 -0.26295237D-05 -0.18405204D-04  0.16367718D-04  0.20374866D-05
  0.59655987D-04  0.78038216D-05  0.93993055D-04  0.12167457D-04 -0.17389346D-04
  0.52218894D-05 -0.11837629D-04  0.20960698D-04  0.10471841D-04 -0.46320260D-05
 -0.83540496D-05 -0.12318041D-04  0.14052334D-03 -0.56484848D-03 -0.14457988D-04
 -0.58539821D-04  0.54583069D-05  0.16497583D-04  0.16799702D-03  0.17192416D-03
  0.14547434D-03  0.15638597D-04 -0.42285423D-04 -0.46870756D-04 -0.31836505D-04
  0.16519390D-04  0.15317116D-04  0.30665194D-04  0.24581988D-04  0.13101256D-03
 -0.27466549D-04  0.13341465D-04  0.14125084D-04 -0.83892179D-06  0.70053300D-05
  0.39808713D-04  0.16563653D-04  0.30872518D-04  0.52349561D-04  0.79233499D-04
  0.98860272D-04  0.84907790D-04  0.32597751D-04 -0.14581174D-06 -0.11629707D-04
 -0.21811803D-04 -0.37184342D-04 -0.58111889D-04 -0.77706668D-04 -0.82972605D-04
 -0.50727824D-04  0.33467137D-04  0.22916019D-04  0.57149914D-04  0.19142445D-03
 -0.75465857D-05 -0.73176496D-05 -0.49364432D-05  0.35759746D-04  0.34674924D-04
  0.23391499D-04  0.38579379D-04  0.37409020D-04  0.25235904D-04  0.31206258D-04
 -0.65985979D-04 -0.74913945D-04  0.11551531D-04 -0.57289158D-04 -0.63110678D-04
 -0.83375168D-05  0.13292261D-04  0.15617346D-04  0.11364831D-06  0.13518158D-05
 -0.14654641D-05 -0.27953169D-05  0.95081644D-05 -0.63029518D-04 -0.29112833D-04
  0.22256357D-04  0.68564755D-05  0.57900492D-04  0.83364149D-04 -0.21963692D-04
  0.17066136D-04 -0.78347074D-05 -0.92314290D-05  0.18600161D-05 -0.29237125D-05
 -0.25267150D-04  0.51244885D-04  0.30753226D-04  0.45755088D-04 -0.11113104D-03
 -0.46826642D-04 -0.13629865D-03 -0.42603617D-04 -0.45433035D-04 -0.96661326D-06
  0.10608132D-03 -0.37985255D-05 -0.75722060D-05 -0.77859399D-05  0.10321288D-04
 -0.51685525D-05  0.24094288D-05  0.10742881D-05  0.27885171D-04  0.20948391D-04
 -0.15267969D-04 -0.12898171D-03 -0.24040531D-03 -0.40764775D-03 -0.61699386D-03
 -0.76982819D-03 -0.66117975D-03 -0.25383976D-03  0.11354408D-05  0.10109107D-03
  0.18959880D-03  0.32322439D-03  0.50513681D-03  0.67546416D-03  0.72123825D-03
  0.44095092D-03 -0.29091264D-03 -0.34958653D-03  0.18347432D-02  0.32785502D-03
  0.10567494D-02  0.10246914D-02  0.69125077D-03 -0.97169922D-04 -0.94222139D-04
 -0.63561698D-04 -0.31656110D-03 -0.30695778D-03 -0.20707191D-03 -0.66920619D-03
  0.24187934D-05  0.13864643D-03 -0.14619452D-02  0.14897640D-03  0.45073426D-03
 -0.88017743D-04  0.21904080D-04  0.40837094D-04 -0.58577974D-03  0.38308492D-03
  0.20269482D-03  0.58688879D-03  0.10536172D-02 -0.34442373D-03  0.61317417D-03
 -0.39029344D-03 -0.22288073D-03 -0.52628446D-03 -0.99992690D-03  0.31509012D-03
  0.20858777D-03 -0.11077887D-03 -0.97808897D-04  0.17128846D-04 -0.12022125D-03
  0.41545720D-04 -0.34587843D-03 -0.16955643D-03 -0.28479344D-03  0.74641271D-03
  0.64578341D-03  0.11140273D-02  0.29122259D-03 -0.13711412D-03 -0.25964702D-03
  0.54227545D-04 -0.73377850D-04 -0.28969395D-04 -0.54646384D-04  0.16056161D-03
  0.94811780D-04  0.25893072D-03  0.59571941D-04 -0.79035958D-05 -0.94991566D-04
 -0.30297114D-03  0.59583537D+00  0.11106629D+01  0.18828468D+01  0.28511849D+01
  0.35654167D+01  0.30694917D+01  0.11800247D+01 -0.51132400D-02 -0.37015563D-03
 -0.69508672D-03 -0.11836128D-02 -0.18541224D-02 -0.24847422D-02 -0.26726753D-02
 -0.16046707D-02  0.10552990D-02  0.60770407D-01 -0.16378838D-02 -0.72792612D-03
  0.57073477D-02  0.55816614D-02  0.36880397D-02 -0.14692716D-02 -0.14369156D-02
 -0.94943086D-03 -0.26978017D-02 -0.26383911D-02 -0.17432966D-02 -0.71730519D-03
  0.26768103D-03  0.42648250D-03 -0.14471269D-02  0.23588808D-03  0.54075908D-03
 -0.71573703D-04  0.32706057D-05  0.17901489D-04 -0.20957866D-04  0.18409738D-04
  0.25481274D-05  0.15133033D-03  0.12202639D-03  0.23946873D-03 -0.53885403D-03
  0.32571281D-03  0.21314122D-03  0.29187136D-03  0.70018568D-03 -0.28178237D-03
 -0.26461938D-03  0.16039181D-03  0.10422757D-03  0.19388165D-03  0.36839798D-03
 -0.10081287D-05  0.11720823D-03  0.53027762D-05  0.56833156D-04 -0.24284179D-03
 -0.26718874D-03 -0.50950406D-03 -0.10878291D-03  0.25128042D-03  0.33900459D-03
  0.35528009D-03 -0.20773338D-03 -0.72921131D-04 -0.14539126D-03  0.43716418D-03
  0.30609184D-03  0.66927406D-03  0.18603596D-03 -0.87328447D-04 -0.23310027D-03
 -0.36764608D-03
MO    2     MO 0.0        OCC NO =    2.0000000  ORB. ENERGY =  -19.112223
  0.12647630D-03  0.23578058D-03  0.39851072D-03  0.59909214D-03  0.73605392D-03
  0.62171520D-03  0.23448810D-03 -0.11604947D-05 -0.92398164D-04 -0.17299852D-03
 -0.29454478D-03 -0.45561598D-03 -0.60003022D-03 -0.62346983D-03 -0.39618709D-03
  0.26551538D-03  0.23781944D-03 -0.32139114D-02 -0.40505328D-03 -0.21933121D-03
 -0.20563695D-03 -0.14642576D-03 -0.10116671D-03 -0.94850220D-04 -0.67539007D-04
 -0.61325729D-04 -0.57496769D-04 -0.40941124D-04  0.82953720D-03  0.34701850D-03
  0.19586282D-03 -0.39899899D-03 -0.42963046D-04  0.39855537D-04 -0.28884988D-04
  0.63219355D-07  0.55806737D-05  0.54874612D-04 -0.33104395D-04 -0.21770217D-04
  0.39040327D-04 -0.41253068D-04  0.25693236D-03  0.31864674D-03 -0.10545108D-03
 -0.21319566D-03  0.62092970D-03  0.45005329D-03 -0.15568615D-05  0.18993364D-04
 -0.10438134D-04 -0.85552307D-05 -0.10096553D-04 -0.13573767D-04 -0.48744873D-04
  0.61767149D-04 -0.50395452D-04 -0.31411467D-04 -0.60071170D-04  0.64442551D-04
  0.46258263D-04 -0.12523028D-03  0.86743806D-04  0.47976139D-04 -0.26483643D-03
 -0.12356377D-04 -0.59790093D-04 -0.64197754D-04  0.73340522D-04  0.76435256D-04
  0.15939922D-03 -0.36271393D-04  0.10293502D-03  0.33194038D-04 -0.28272156D-03
  0.27665616D-03  0.51574998D-03  0.87170832D-03  0.13104631D-02  0.16100554D-02
  0.13599492D-02  0.51292279D-03 -0.25384835D-05 -0.20039568D-03 -0.37520393D-03
 -0.63881680D-03 -0.98815245D-03 -0.13013620D-02 -0.13521985D-02 -0.85926144D-03
  0.57585704D-03 -0.12039863D-04  0.19367146D-02  0.61040553D-03 -0.17012989D-03
 -0.15950758D-03 -0.11357890D-03 -0.16301058D-03 -0.15283278D-03 -0.10882605D-03
 -0.13747202D-03 -0.12888875D-03 -0.91776471D-04  0.51545066D-03  0.15766949D-02
  0.15481930D-02 -0.61171621D-03 -0.89463414D-04  0.29253661D-04 -0.30969976D-04
 -0.44158643D-05  0.15883482D-05 -0.56382257D-03  0.28425746D-03  0.27956510D-03
  0.23935061D-03  0.36017055D-03  0.11680408D-02 -0.18989824D-03  0.72098022D-04
  0.11780022D-03 -0.14782092D-03 -0.11981517D-03  0.39032482D-03  0.74338145D-04
 -0.34682341D-04 -0.39655804D-04  0.32636550D-04 -0.29568524D-05 -0.40523547D-04
  0.54690006D-04 -0.94666184D-04 -0.71868377D-04 -0.22626272D-04  0.17613128D-03
  0.86975700D-04 -0.14144375D-03  0.10786727D-03  0.12862943D-03  0.13780672D-03
  0.55237833D-04 -0.19129010D-04 -0.10865527D-04 -0.48427022D-04  0.20908959D-03
  0.19219767D-03 -0.11728648D-03 -0.15170256D-03 -0.15960109D-03 -0.18588154D-03
 -0.87667597D-05 -0.15811212D-04 -0.23313623D-04  0.10827570D-02 -0.18296607D-04
 -0.19805477D-04 -0.37880674D-04 -0.10035069D-03  0.69529924D-04  0.46675205D-03
 -0.13799712D-03  0.87520994D-04  0.37793933D-04 -0.57377865D-05 -0.32908054D-06
  0.61110103D-04 -0.48029641D-05 -0.56307139D-04 -0.80564964D-04  0.20752625D-03
  0.31223339D-05  0.19822299D-04 -0.85149692D-05 -0.11307330D-04 -0.19378913D-04
  0.63504912D-04  0.15462207D-04 -0.87966482D-05 -0.15865117D-04 -0.23393106D-04
  0.10703808D-02 -0.40064200D-04 -0.19390789D-04 -0.70916880D-04  0.65679071D-04
 -0.87611223D-04  0.42757934D-03  0.16751690D-03 -0.21274057D-03  0.35405725D-04
  0.48073205D-05 -0.10606063D-04  0.92156534D-05 -0.16273753D-04  0.70580997D-05
  0.23548982D-03 -0.84911493D-04 -0.55072461D-04  0.26792213D-05  0.20402199D-05
 -0.47194412D-05  0.72135353D-04 -0.27772831D-04 -0.45860933D-06  0.15417037D-04
  0.27805261D-04  0.40998842D-04  0.97575119D-03  0.89013452D-03  0.30235832D-04
  0.55546971D-04  0.10806832D-03  0.10056691D-03  0.27015868D-03  0.28028819D-03
  0.23450085D-03  0.39504406D-05  0.75944435D-04  0.78187049D-04 -0.65763386D-04
  0.46587566D-04  0.19175820D-04  0.13880328D-03  0.15776771D-03  0.92443607D-04
  0.11112755D-04 -0.50347183D-05 -0.60780366D-05  0.45646151D-05 -0.25629475D-05
 -0.79088307D-05  0.12675502D-03  0.23625505D-03  0.40061028D-03  0.60634232D-03
  0.75653819D-03  0.64976541D-03  0.24945757D-03 -0.11158390D-05 -0.82791988D-04
 -0.15527843D-03 -0.26471567D-03 -0.41369907D-03 -0.55319449D-03 -0.59068274D-03
 -0.36113184D-03  0.23825286D-03  0.61621847D-05  0.18397022D-03 -0.13778009D-03
  0.11246707D-03  0.10905522D-03  0.73568008D-04  0.21936706D-03  0.21271225D-03
  0.14349443D-03  0.20945751D-03  0.20310333D-03  0.13701231D-03 -0.22991110D-03
 -0.18536337D-03 -0.15044319D-03 -0.11478194D-03 -0.10479120D-03 -0.88306149D-04
 -0.72946304D-05 -0.15182937D-04 -0.14401323D-04 -0.20156419D-03  0.78367220D-04
  0.12319697D-03 -0.56575522D-04 -0.67067196D-04  0.64501496D-03  0.22454021D-03
 -0.96160477D-04 -0.12837974D-03  0.82706135D-04  0.33850374D-04 -0.41445174D-03
  0.55740044D-05 -0.27843695D-05 -0.27896348D-05 -0.12233918D-04 -0.96461156D-05
 -0.35052778D-04 -0.12538306D-03  0.10584212D-03  0.61784615D-04  0.12401481D-03
 -0.14634655D-03 -0.42382632D-04  0.25213437D-03 -0.17117979D-03 -0.14297121D-03
  0.19747209D-03 -0.26058521D-04 -0.22915662D-04 -0.32174598D-04  0.61468945D-04
  0.10058577D-03  0.10466299D-03  0.16706618D-04 -0.31838784D-04 -0.81391971D-05
  0.17150318D-03  0.49877487D+00  0.92965217D+00  0.15763821D+01  0.23859277D+01
  0.29769411D+01  0.25567954D+01  0.98160347D+00 -0.43907726D-02 -0.70961252D-03
 -0.13308959D-02 -0.22688857D-02 -0.35458267D-02 -0.47414459D-02 -0.50627588D-02
 -0.30952715D-02  0.20420721D-02  0.50628733D-01 -0.25067323D-02 -0.10485911D-02
 -0.72840921D-02 -0.70631191D-02 -0.47647384D-02 -0.33494142D-02 -0.32478051D-02
 -0.21909501D-02 -0.20367962D-02 -0.19750072D-02 -0.13323282D-02  0.12266067D-02
  0.36560095D-03  0.13491152D-03  0.13758930D-02  0.73950864D-03  0.49831304D-03
  0.81264833D-04  0.32233856D-04  0.17385228D-04 -0.14687102D-03 -0.18160719D-04
  0.16503174D-03 -0.16131426D-03 -0.56200636D-03  0.23345810D-02 -0.26521409D-03
  0.21218322D-03  0.53030875D-04  0.20170208D-03  0.68420900D-03 -0.14835681D-02
 -0.92078983D-04  0.62260719D-04  0.29818264D-04 -0.20123666D-04  0.12749918D-03
 -0.44138986D-03  0.12948909D-03  0.29306406D-04  0.62544142D-04 -0.22603842D-03
  0.84201711D-04 -0.99342627D-04 -0.16242885D-03 -0.17212093D-03 -0.88289801D-04
  0.99122490D-04  0.12777275D-03 -0.29340152D-04  0.32946020D-04 -0.24712526D-03
 -0.36385158D-03 -0.59547479D-03 -0.13619299D-03  0.45187203D-03  0.49663673D-03
  0.22908756D-03 -0.29940466D-03 -0.55810326D-03 -0.94612223D-03 -0.14327079D-02
 -0.17916062D-02 -0.15424061D-02 -0.59295721D-03  0.25693807D-05  0.21211150D-03
  0.39830783D-03  0.67824954D-03  0.10624739D-02  0.14238400D-02  0.15315319D-02
  0.91952975D-03 -0.60472145D-03 -0.17608354D-03  0.17778957D-02  0.81556933D-03
 -0.11191830D-02 -0.10945366D-02 -0.72320659D-03  0.15461197D-03  0.15120713D-03
  0.99908942D-04  0.38652741D-03  0.37801537D-03  0.24977074D-03  0.79677122D-03
 -0.98137215D-04 -0.26256845D-03  0.11989742D-02 -0.29035114D-03 -0.54858296D-03
  0.70442329D-04 -0.25399233D-04 -0.40899713D-04 -0.64781015D-03  0.39366960D-03
  0.25414054D-03  0.52501751D-03  0.94466527D-03  0.52542417D-04  0.69539636D-03
 -0.41689757D-03 -0.27849880D-03 -0.45726928D-03 -0.92421498D-03  0.54745487D-04
  0.15725859D-03 -0.10101249D-03 -0.56246104D-04 -0.13315274D-03 -0.25856532D-03
  0.10154488D-03  0.53452235D-03  0.13370105D-03  0.31073713D-03 -0.10450718D-02
 -0.47032066D-03 -0.13141218D-02 -0.55849530D-03  0.69217505D-04  0.38191039D-03
  0.61645916D-03  0.21626695D-04  0.39717879D-04  0.47882346D-04 -0.77200738D-04
 -0.14026210D-03 -0.18915004D-03  0.12320653D-04  0.21108459D-04  0.45503002D-04
  0.61477102D-04
MO    3     MO 0.0        OCC NO =    2.0000000  ORB. ENERGY =  -18.993836
  0.18130703D-03  0.33799753D-03  0.57127538D-03  0.85881402D-03  0.10551522D-02
  0.89124475D-03  0.33614473D-03 -0.16635990D-05 -0.13180808D-03 -0.24678632D-03
 -0.42017482D-03 -0.64994656D-03 -0.85595675D-03 -0.88939390D-03 -0.56516989D-03
  0.37876372D-03  0.25792970D-03 -0.14170969D-02 -0.24978606D-04 -0.15011430D-03
 -0.14074170D-03 -0.10021648D-03 -0.64377228D-04 -0.60357744D-04 -0.42978309D-04
 -0.35242721D-04 -0.33042291D-04 -0.23528080D-04  0.11462547D-02  0.51376217D-03
  0.30437708D-03 -0.13417809D-03 -0.97078292D-04 -0.68300410D-04  0.33693663D-05
 -0.23917927D-05 -0.32743554D-05  0.35584906D-03 -0.16925251D-03 -0.18659655D-03
  0.26447789D-03  0.28754240D-04  0.15753984D-03  0.28584238D-03 -0.86696791D-04
 -0.19914559D-03  0.53389930D-03  0.44810187D-03 -0.37328363D-03 -0.39233414D-04
  0.24661468D-04  0.14571946D-04  0.48184993D-04  0.65994435D-04  0.34091496D-04
  0.10046973D-03 -0.70252833D-04 -0.41272972D-04 -0.99526393D-04  0.88778935D-04
  0.89228133D-04 -0.20188280D-03  0.12197956D-03  0.34590783D-04 -0.56839833D-03
  0.33300930D-05 -0.27009485D-04 -0.32053741D-04  0.34205936D-04  0.12223327D-03
  0.20095117D-03 -0.44196215D-04 -0.41204814D-04 -0.10478994D-03 -0.36324463D-03
  0.43606131D-03  0.81291743D-03  0.13739737D-02  0.20655325D-02  0.25377453D-02
  0.21435316D-02  0.80846125D-03 -0.40011199D-05 -0.33409605D-03 -0.62553322D-03
 -0.10650238D-02 -0.16474299D-02 -0.21696073D-02 -0.22543609D-02 -0.14325452D-02
  0.96005846D-03  0.13121752D-02 -0.75639719D-03 -0.42081349D-04  0.76302179D-03
  0.71538143D-03  0.50939419D-03 -0.24721733D-03 -0.23178196D-03 -0.16504256D-03
 -0.41488982D-03 -0.38898557D-03 -0.27698090D-03  0.14055465D-02 -0.20514737D-03
 -0.49931984D-03 -0.39725542D-03 -0.11364891D-03 -0.34374083D-04 -0.11773517D-04
  0.67128288D-05  0.93584139D-05  0.32570172D-03 -0.19631289D-03 -0.12938883D-03
 -0.24777403D-03 -0.45067319D-03 -0.57390312D-04 -0.47586889D-03  0.29436336D-03
  0.18150553D-03  0.30216218D-03  0.67501655D-03 -0.30481616D-03 -0.10292061D-03
  0.66726174D-04  0.36194431D-04  0.13510316D-03  0.19516069D-03  0.47687969D-04
 -0.23125469D-03 -0.15752979D-03 -0.24667662D-03  0.56843307D-03  0.82923571D-03
  0.11630365D-02  0.12533101D-03 -0.35664633D-03 -0.42300664D-03  0.28919751D-04
 -0.15523137D-03 -0.69047143D-04 -0.12817774D-03  0.34319034D-03  0.47832287D-03
  0.64740446D-03  0.12250377D-03 -0.27118144D-03 -0.26287124D-03  0.25637985D-03
  0.78294722D-06  0.14120776D-05  0.20821075D-05  0.63020364D-03  0.49060308D-03
  0.36312586D-05  0.20311581D-04 -0.95977980D-04  0.61442417D-04  0.19034715D-03
 -0.19085840D-03  0.27207408D-04  0.31618337D-04 -0.43104581D-04  0.80045823D-04
 -0.63775457D-04  0.79980655D-04 -0.16205198D-04 -0.15052988D-03  0.14112483D-03
 -0.59124213D-05 -0.11760503D-04  0.17977371D-04 -0.62168683D-05 -0.72888207D-05
  0.44120288D-04  0.29456197D-04  0.10931982D-05  0.19716280D-05  0.29071644D-05
  0.61925423D-03  0.48646738D-03  0.39237706D-05 -0.47924870D-05  0.63426779D-04
 -0.93846959D-04  0.14766687D-03  0.70631394D-04 -0.21150558D-03  0.81241232D-05