 Molden2AIM, Version 4.0.0 (06/02/2016)           Time: Thu Jun 28 21:09:00 2018
GAUSSIAN             25 MOL ORBITALS    521 PRIMITIVES        7 NUCLEI
  C    1    (CENTRE  1)  -0.01093018 -0.00000378 -0.17302710  CHARGE =  6.0
  Se   2    (CENTRE  2)   0.17952776  0.00000000  3.14565700  CHARGE = 34.0
  H    3    (CENTRE  3)   1.76078066  0.00000378 -1.25305283  CHARGE =  1.0
  C    4    (CENTRE  4)  -2.35885630  0.00000000 -1.70638679  CHARGE =  6.0
  H    5    (CENTRE  5)  -4.06019185  0.00000189 -0.52807452  CHARGE =  1.0
  H    6    (CENTRE  6)  -2.37338263  1.66296844 -2.96310757  CHARGE =  1.0
  H    7    (CENTRE  7)  -2.37338641 -1.66297033 -2.96310568  CHARGE =  1.0
CENTRE ASSIGNMENTS    1  1  1  1  1  1  1  1  1  1  1  1  1  1  1  1  1  1  1  1
CENTRE ASSIGNMENTS    1  1  1  1  1  1  1  1  1  1  1  1  1  1  1  1  1  1  1  1
CENTRE ASSIGNMENTS    1  1  1  1  1  1  1  1  1  1  1  1  1  1  1  1  1  1  1  1
CENTRE ASSIGNMENTS    1  1  1  1  1  1  1  1  1  1  1  1  1  1  1  2  2  2  2  2
CENTRE ASSIGNMENTS    2  2  2  2  2  2  2  2  2  2  2  2  2  2  2  2  2  2  2  2
CENTRE ASSIGNMENTS    2  2  2  2  2  2  2  2  2  2  2  2  2  2  2  2  2  2  2  2
CENTRE ASSIGNMENTS    2  2  2  2  2  2  2  2  2  2  2  2  2  2  2  2  2  2  2  2
CENTRE ASSIGNMENTS    2  2  2  2  2  2  2  2  2  2  2  2  2  2  2  2  2  2  2  2
CENTRE ASSIGNMENTS    2  2  2  2  2  2  2  2  2  2  2  2  2  2  2  2  2  2  2  2
CENTRE ASSIGNMENTS    2  2  2  2  2  2  2  2  2  2  2  2  2  2  2  2  2  2  2  2
CENTRE ASSIGNMENTS    2  2  2  2  2  2  2  2  2  2  2  2  2  2  2  2  2  2  2  2
CENTRE ASSIGNMENTS    2  2  2  2  2  2  2  2  2  2  2  2  2  2  2  2  2  2  2  2
CENTRE ASSIGNMENTS    2  2  2  2  2  2  2  2  2  2  2  2  2  2  2  2  2  2  2  2
CENTRE ASSIGNMENTS    2  2  2  2  2  2  2  2  2  2  2  2  2  2  2  2  2  2  2  2
CENTRE ASSIGNMENTS    2  2  2  2  2  2  2  2  2  2  2  2  2  2  2  2  2  2  2  2
CENTRE ASSIGNMENTS    2  2  2  2  2  2  2  2  2  2  2  2  2  2  2  2  2  2  2  2
CENTRE ASSIGNMENTS    2  2  2  2  2  2  2  2  2  2  2  2  2  2  2  2  2  2  3  3
CENTRE ASSIGNMENTS    3  3  3  3  3  3  3  3  3  3  3  3  3  3  3  3  3  3  3  3
CENTRE ASSIGNMENTS    3  3  3  3  3  4  4  4  4  4  4  4  4  4  4  4  4  4  4  4
CENTRE ASSIGNMENTS    4  4  4  4  4  4  4  4  4  4  4  4  4  4  4  4  4  4  4  4
CENTRE ASSIGNMENTS    4  4  4  4  4  4  4  4  4  4  4  4  4  4  4  4  4  4  4  4
CENTRE ASSIGNMENTS    4  4  4  4  4  4  4  4  4  4  4  4  4  4  4  4  4  4  4  4
CENTRE ASSIGNMENTS    5  5  5  5  5  5  5  5  5  5  5  5  5  5  5  5  5  5  5  5
CENTRE ASSIGNMENTS    5  5  5  5  5  5  5  6  6  6  6  6  6  6  6  6  6  6  6  6
CENTRE ASSIGNMENTS    6  6  6  6  6  6  6  6  6  6  6  6  6  6  7  7  7  7  7  7
CENTRE ASSIGNMENTS    7  7  7  7  7  7  7  7  7  7  7  7  7  7  7  7  7  7  7  7
CENTRE ASSIGNMENTS    7
TYPE ASSIGNMENTS      1  1  1  1  1  1  1  1  1  1  1  1  1  1  1  1  1  1  1  2
TYPE ASSIGNMENTS      2  2  3  3  3  4  4  4  2  3  4  2  3  4  2  3  4  5  6  7
TYPE ASSIGNMENTS      8  9 10  5  6  7  8  9 10  5  6  7  8  9 10 11 12 13 17 14
TYPE ASSIGNMENTS     15 18 19 16 20 11 12 13 17 14 15 18 19 16 20  1  1  1  1  1
TYPE ASSIGNMENTS      1  1  1  1  1  1  1  1  1  1  1  1  1  1  1  1  1  1  1  1
TYPE ASSIGNMENTS      1  1  1  1  1  1  1  1  1  1  1  1  1  1  1  1  1  1  1  1
TYPE ASSIGNMENTS      1  1  1  1  1  1  1  1  1  1  1  1  1  1  1  1  1  1  1  1
TYPE ASSIGNMENTS      1  1  1  1  1  1  1  1  1  1  2  2  2  2  2  2  2  2  2  2
TYPE ASSIGNMENTS      2  3  3  3  3  3  3  3  3  3  3  3  4  4  4  4  4  4  4  4
TYPE ASSIGNMENTS      4  4  4  2  2  2  2  2  2  2  2  2  2  2  3  3  3  3  3  3
TYPE ASSIGNMENTS      3  3  3  3  3  4  4  4  4  4  4  4  4  4  4  4  2  2  2  2
TYPE ASSIGNMENTS      2  2  2  2  2  2  2  3  3  3  3  3  3  3  3  3  3  3  4  4
TYPE ASSIGNMENTS      4  4  4  4  4  4  4  4  4  2  3  4  2  3  4  2  3  4  5  5
TYPE ASSIGNMENTS      5  5  5  5  5  6  6  6  6  6  6  6  7  7  7  7  7  7  7  8
TYPE ASSIGNMENTS      8  8  8  8  8  8  9  9  9  9  9  9  9 10 10 10 10 10 10 10
TYPE ASSIGNMENTS      5  6  7  8  9 10  5  6  7  8  9 10  5  6  7  8  9 10 11 12
TYPE ASSIGNMENTS     13 17 14 15 18 19 16 20 11 12 13 17 14 15 18 19 16 20  1  1
TYPE ASSIGNMENTS      1  1  1  1  2  3  4  2  3  4  2  3  4  5  6  7  8  9 10  5
TYPE ASSIGNMENTS      6  7  8  9 10  1  1  1  1  1  1  1  1  1  1  1  1  1  1  1
TYPE ASSIGNMENTS      1  1  1  1  2  2  2  3  3  3  4  4  4  2  3  4  2  3  4  2
TYPE ASSIGNMENTS      3  4  5  6  7  8  9 10  5  6  7  8  9 10  5  6  7  8  9 10
TYPE ASSIGNMENTS     11 12 13 17 14 15 18 19 16 20 11 12 13 17 14 15 18 19 16 20
TYPE ASSIGNMENTS      1  1  1  1  1  1  2  3  4  2  3  4  2  3  4  5  6  7  8  9
TYPE ASSIGNMENTS     10  5  6  7  8  9 10  1  1  1  1  1  1  2  3  4  2  3  4  2
TYPE ASSIGNMENTS      3  4  5  6  7  8  9 10  5  6  7  8  9 10  1  1  1  1  1  1
TYPE ASSIGNMENTS      2  3  4  2  3  4  2  3  4  5  6  7  8  9 10  5  6  7  8  9
TYPE ASSIGNMENTS     10
EXPONENTS  0.8236000D+04 0.1235000D+04 0.2808000D+03 0.7927000D+02 0.2559000D+02
EXPONENTS  0.8997000D+01 0.3319000D+01 0.3643000D+00 0.8236000D+04 0.1235000D+04
EXPONENTS  0.2808000D+03 0.7927000D+02 0.2559000D+02 0.8997000D+01 0.3319000D+01
EXPONENTS  0.3643000D+00 0.9059000D+00 0.1285000D+00 0.4402000D-01 0.1871000D+02
EXPONENTS  0.4133000D+01 0.1200000D+01 0.1871000D+02 0.4133000D+01 0.1200000D+01
EXPONENTS  0.1871000D+02 0.4133000D+01 0.1200000D+01 0.3827000D+00 0.3827000D+00
EXPONENTS  0.3827000D+00 0.1209000D+00 0.1209000D+00 0.1209000D+00 0.3569000D-01
EXPONENTS  0.3569000D-01 0.3569000D-01 0.1097000D+01 0.1097000D+01 0.1097000D+01
EXPONENTS  0.1097000D+01 0.1097000D+01 0.1097000D+01 0.3180000D+00 0.3180000D+00
EXPONENTS  0.3180000D+00 0.3180000D+00 0.3180000D+00 0.3180000D+00 0.1000000D+00
EXPONENTS  0.1000000D+00 0.1000000D+00 0.1000000D+00 0.1000000D+00 0.1000000D+00
EXPONENTS  0.7610000D+00 0.7610000D+00 0.7610000D+00 0.7610000D+00 0.7610000D+00
EXPONENTS  0.7610000D+00 0.7610000D+00 0.7610000D+00 0.7610000D+00 0.7610000D+00
EXPONENTS  0.2680000D+00 0.2680000D+00 0.2680000D+00 0.2680000D+00 0.2680000D+00
EXPONENTS  0.2680000D+00 0.2680000D+00 0.2680000D+00 0.2680000D+00 0.2680000D+00
EXPONENTS  0.9563600D+07 0.1432100D+07 0.3259100D+06 0.9231200D+05 0.3011600D+05
EXPONENTS  0.1087200D+05 0.4240100D+04 0.1758400D+04 0.7665900D+03 0.3484300D+03
EXPONENTS  0.1640300D+03 0.7914200D+02 0.3552400D+02 0.1730500D+02 0.8378400D+01
EXPONENTS  0.3740500D+01 0.1689000D+01 0.2552000D+00 0.9563600D+07 0.1432100D+07
EXPONENTS  0.3259100D+06 0.9231200D+05 0.3011600D+05 0.1087200D+05 0.4240100D+04
EXPONENTS  0.1758400D+04 0.7665900D+03 0.3484300D+03 0.1640300D+03 0.7914200D+02
EXPONENTS  0.3552400D+02 0.1730500D+02 0.8378400D+01 0.3740500D+01 0.1689000D+01
EXPONENTS  0.2552000D+00 0.9563600D+07 0.1432100D+07 0.3259100D+06 0.9231200D+05
EXPONENTS  0.3011600D+05 0.1087200D+05 0.4240100D+04 0.1758400D+04 0.7665900D+03
EXPONENTS  0.3484300D+03 0.1640300D+03 0.7914200D+02 0.3552400D+02 0.1730500D+02
EXPONENTS  0.8378400D+01 0.3740500D+01 0.1689000D+01 0.2552000D+00 0.9563600D+07
EXPONENTS  0.1432100D+07 0.3259100D+06 0.9231200D+05 0.3011600D+05 0.1087200D+05
EXPONENTS  0.4240100D+04 0.1758400D+04 0.7665900D+03 0.3484300D+03 0.1640300D+03
EXPONENTS  0.7914200D+02 0.3552400D+02 0.1730500D+02 0.8378400D+01 0.3740500D+01
EXPONENTS  0.1689000D+01 0.2552000D+00 0.5092700D+00 0.1065100D+00 0.3920100D-01
EXPONENTS  0.8004300D+04 0.1896900D+04 0.6147100D+03 0.2335000D+03 0.9785600D+02
EXPONENTS  0.4351400D+02 0.2006300D+02 0.9112700D+01 0.4106300D+01 0.1794900D+01
EXPONENTS  0.2461500D+00 0.8004300D+04 0.1896900D+04 0.6147100D+03 0.2335000D+03
EXPONENTS  0.9785600D+02 0.4351400D+02 0.2006300D+02 0.9112700D+01 0.4106300D+01
EXPONENTS  0.1794900D+01 0.2461500D+00 0.8004300D+04 0.1896900D+04 0.6147100D+03
EXPONENTS  0.2335000D+03 0.9785600D+02 0.4351400D+02 0.2006300D+02 0.9112700D+01
EXPONENTS  0.4106300D+01 0.1794900D+01 0.2461500D+00 0.8004300D+04 0.1896900D+04
EXPONENTS  0.6147100D+03 0.2335000D+03 0.9785600D+02 0.4351400D+02 0.2006300D+02
EXPONENTS  0.9112700D+01 0.4106300D+01 0.1794900D+01 0.2461500D+00 0.8004300D+04
EXPONENTS  0.1896900D+04 0.6147100D+03 0.2335000D+03 0.9785600D+02 0.4351400D+02
EXPONENTS  0.2006300D+02 0.9112700D+01 0.4106300D+01 0.1794900D+01 0.2461500D+00
EXPONENTS  0.8004300D+04 0.1896900D+04 0.6147100D+03 0.2335000D+03 0.9785600D+02
EXPONENTS  0.4351400D+02 0.2006300D+02 0.9112700D+01 0.4106300D+01 0.1794900D+01
EXPONENTS  0.2461500D+00 0.8004300D+04 0.1896900D+04 0.6147100D+03 0.2335000D+03
EXPONENTS  0.9785600D+02 0.4351400D+02 0.2006300D+02 0.9112700D+01 0.4106300D+01
EXPONENTS  0.1794900D+01 0.2461500D+00 0.8004300D+04 0.1896900D+04 0.6147100D+03
EXPONENTS  0.2335000D+03 0.9785600D+02 0.4351400D+02 0.2006300D+02 0.9112700D+01
EXPONENTS  0.4106300D+01 0.1794900D+01 0.2461500D+00 0.8004300D+04 0.1896900D+04
EXPONENTS  0.6147100D+03 0.2335000D+03 0.9785600D+02 0.4351400D+02 0.2006300D+02
EXPONENTS  0.9112700D+01 0.4106300D+01 0.1794900D+01 0.2461500D+00 0.6243200D+00
EXPONENTS  0.6243200D+00 0.6243200D+00 0.8891700D-01 0.8891700D-01 0.8891700D-01
EXPONENTS  0.3025100D-01 0.3025100D-01 0.3025100D-01 0.3618500D+03 0.1085500D+03
EXPONENTS  0.4143300D+02 0.1757900D+02 0.7862700D+01 0.3518000D+01 0.1534800D+01
EXPONENTS  0.3618500D+03 0.1085500D+03 0.4143300D+02 0.1757900D+02 0.7862700D+01
EXPONENTS  0.3518000D+01 0.1534800D+01 0.3618500D+03 0.1085500D+03 0.4143300D+02
EXPONENTS  0.1757900D+02 0.7862700D+01 0.3518000D+01 0.1534800D+01 0.3618500D+03
EXPONENTS  0.1085500D+03 0.4143300D+02 0.1757900D+02 0.7862700D+01 0.3518000D+01
EXPONENTS  0.1534800D+01 0.3618500D+03 0.1085500D+03 0.4143300D+02 0.1757900D+02
EXPONENTS  0.7862700D+01 0.3518000D+01 0.1534800D+01 0.3618500D+03 0.1085500D+03
EXPONENTS  0.4143300D+02 0.1757900D+02 0.7862700D+01 0.3518000D+01 0.1534800D+01
EXPONENTS  0.6081300D+00 0.6081300D+00 0.6081300D+00 0.6081300D+00 0.6081300D+00
EXPONENTS  0.6081300D+00 0.2220000D+00 0.2220000D+00 0.2220000D+00 0.2220000D+00
EXPONENTS  0.2220000D+00 0.2220000D+00 0.8370000D-01 0.8370000D-01 0.8370000D-01
EXPONENTS  0.8370000D-01 0.8370000D-01 0.8370000D-01 0.4620000D+00 0.4620000D+00
EXPONENTS  0.4620000D+00 0.4620000D+00 0.4620000D+00 0.4620000D+00 0.4620000D+00
EXPONENTS  0.4620000D+00 0.4620000D+00 0.4620000D+00 0.1880000D+00 0.1880000D+00
EXPONENTS  0.1880000D+00 0.1880000D+00 0.1880000D+00 0.1880000D+00 0.1880000D+00
EXPONENTS  0.1880000D+00 0.1880000D+00 0.1880000D+00 0.3387000D+02 0.5095000D+01
EXPONENTS  0.1159000D+01 0.3258000D+00 0.1027000D+00 0.2526000D-01 0.1407000D+01
EXPONENTS  0.1407000D+01 0.1407000D+01 0.3880000D+00 0.3880000D+00 0.3880000D+00
EXPONENTS  0.1020000D+00 0.1020000D+00 0.1020000D+00 0.1057000D+01 0.1057000D+01
EXPONENTS  0.1057000D+01 0.1057000D+01 0.1057000D+01 0.1057000D+01 0.2470000D+00
EXPONENTS  0.2470000D+00 0.2470000D+00 0.2470000D+00 0.2470000D+00 0.2470000D+00
EXPONENTS  0.8236000D+04 0.1235000D+04 0.2808000D+03 0.7927000D+02 0.2559000D+02
EXPONENTS  0.8997000D+01 0.3319000D+01 0.3643000D+00 0.8236000D+04 0.1235000D+04
EXPONENTS  0.2808000D+03 0.7927000D+02 0.2559000D+02 0.8997000D+01 0.3319000D+01
EXPONENTS  0.3643000D+00 0.9059000D+00 0.1285000D+00 0.4402000D-01 0.1871000D+02
EXPONENTS  0.4133000D+01 0.1200000D+01 0.1871000D+02 0.4133000D+01 0.1200000D+01
EXPONENTS  0.1871000D+02 0.4133000D+01 0.1200000D+01 0.3827000D+00 0.3827000D+00
EXPONENTS  0.3827000D+00 0.1209000D+00 0.1209000D+00 0.1209000D+00 0.3569000D-01
EXPONENTS  0.3569000D-01 0.3569000D-01 0.1097000D+01 0.1097000D+01 0.1097000D+01
EXPONENTS  0.1097000D+01 0.1097000D+01 0.1097000D+01 0.3180000D+00 0.3180000D+00
EXPONENTS  0.3180000D+00 0.3180000D+00 0.3180000D+00 0.3180000D+00 0.1000000D+00
EXPONENTS  0.1000000D+00 0.1000000D+00 0.1000000D+00 0.1000000D+00 0.1000000D+00
EXPONENTS  0.7610000D+00 0.7610000D+00 0.7610000D+00 0.7610000D+00 0.7610000D+00
EXPONENTS  0.7610000D+00 0.7610000D+00 0.7610000D+00 0.7610000D+00 0.7610000D+00
EXPONENTS  0.2680000D+00 0.2680000D+00 0.2680000D+00 0.2680000D+00 0.2680000D+00
EXPONENTS  0.2680000D+00 0.2680000D+00 0.2680000D+00 0.2680000D+00 0.2680000D+00
EXPONENTS  0.3387000D+02 0.5095000D+01 0.1159000D+01 0.3258000D+00 0.1027000D+00
EXPONENTS  0.2526000D-01 0.1407000D+01 0.1407000D+01 0.1407000D+01 0.3880000D+00
EXPONENTS  0.3880000D+00 0.3880000D+00 0.1020000D+00 0.1020000D+00 0.1020000D+00
EXPONENTS  0.1057000D+01 0.1057000D+01 0.1057000D+01 0.1057000D+01 0.1057000D+01
EXPONENTS  0.1057000D+01 0.2470000D+00 0.2470000D+00 0.2470000D+00 0.2470000D+00
EXPONENTS  0.2470000D+00 0.2470000D+00 0.3387000D+02 0.5095000D+01 0.1159000D+01
EXPONENTS  0.3258000D+00 0.1027000D+00 0.2526000D-01 0.1407000D+01 0.1407000D+01
EXPONENTS  0.1407000D+01 0.3880000D+00 0.3880000D+00 0.3880000D+00 0.1020000D+00
EXPONENTS  0.1020000D+00 0.1020000D+00 0.1057000D+01 0.1057000D+01 0.1057000D+01
EXPONENTS  0.1057000D+01 0.1057000D+01 0.1057000D+01 0.2470000D+00 0.2470000D+00
EXPONENTS  0.2470000D+00 0.2470000D+00 0.2470000D+00 0.2470000D+00 0.3387000D+02
EXPONENTS  0.5095000D+01 0.1159000D+01 0.3258000D+00 0.1027000D+00 0.2526000D-01
EXPONENTS  0.1407000D+01 0.1407000D+01 0.1407000D+01 0.3880000D+00 0.3880000D+00
EXPONENTS  0.3880000D+00 0.1020000D+00 0.1020000D+00 0.1020000D+00 0.1057000D+01
EXPONENTS  0.1057000D+01 0.1057000D+01 0.1057000D+01 0.1057000D+01 0.1057000D+01
EXPONENTS  0.2470000D+00 0.2470000D+00 0.2470000D+00 0.2470000D+00 0.2470000D+00
EXPONENTS  0.2470000D+00
MO    1     MO 0.0        OCC NO =    2.0000000  ORB. ENERGY = -453.170974
 -0.73532428D-05 -0.13708116D-04 -0.23169132D-04 -0.34830794D-04 -0.42793655D-04
 -0.36146083D-04 -0.13632972D-04  0.67470342D-07  0.59135840D-05  0.11072095D-04
  0.18851189D-04  0.29159923D-04  0.38402593D-04  0.39902754D-04  0.25356409D-04
 -0.16993276D-04 -0.34184240D-04  0.14155620D-03  0.46786180D-04  0.17685141D-06
  0.16580943D-06  0.11806620D-06 -0.43296306D-10 -0.40593039D-10 -0.28904662D-10
 -0.26333098D-04 -0.24688953D-04 -0.17580006D-04 -0.16307288D-05  0.42826073D-10
  0.24765849D-05  0.57329104D-04  0.39562674D-09  0.62512953D-04 -0.19581776D-05
 -0.31903548D-11  0.34653298D-05  0.86266536D-05  0.15102868D-04 -0.23729521D-04
 -0.14817809D-09 -0.94251394D-05 -0.56232845D-10 -0.16489607D-04 -0.27126653D-04
  0.43616260D-04  0.23702074D-09  0.15400127D-04  0.82108492D-10 -0.46625944D-05
 -0.52995166D-05  0.99621110D-05 -0.92651007D-10 -0.25738582D-04 -0.74680227D-11
  0.25594556D-05  0.33444492D-10  0.53676322D-05 -0.12906166D-05 -0.13612254D-09
 -0.15068415D-04 -0.63877502D-05  0.35789068D-10 -0.10344821D-05 -0.14145628D-10
  0.69165057D-06 -0.37208192D-10  0.97686675D-05 -0.47095071D-05  0.54455234D-10
 -0.18928324D-04  0.26345554D-05  0.57169343D-10 -0.10377678D-04 -0.12452646D-09
  0.77213754D+00  0.14427030D+01  0.25021876D+01  0.40992226D+01  0.64190570D+01
  0.96397119D+01  0.13748989D+02  0.18165200D+02  0.20948941D+02  0.18854719D+02
  0.10577966D+02  0.25572799D+01  0.12140697D+00 -0.20776382D-02  0.58435010D-03
 -0.22772030D-03  0.21539741D-04  0.21238638D-05  0.50939372D-04  0.93805646D-04
  0.16282304D-03  0.26667363D-03  0.41973203D-03  0.63352992D-03  0.92350208D-03
  0.12681624D-02  0.16105501D-02  0.17344602D-02  0.13837198D-02  0.30994220D-03
 -0.82877846D-03 -0.73701148D-03 -0.14394133D-03 -0.39874710D-05 -0.28875909D-06
 -0.58972507D-08 -0.12797577D-03 -0.23104840D-03 -0.40221127D-03 -0.65863792D-03
 -0.10383802D-02 -0.15668871D-02 -0.22932559D-02 -0.31598053D-02 -0.40706759D-02
 -0.44805341D-02 -0.37718832D-02 -0.89822036D-03  0.30255515D-02  0.40427711D-02
  0.49666269D-03 -0.17354069D-02 -0.76606926D-03  0.38018640D-05  0.43989474D-04
  0.95302707D-04  0.16224037D-03  0.26483361D-03  0.41752155D-03  0.63006348D-03
  0.92215136D-03  0.12720500D-02  0.16408115D-02  0.18139434D-02  0.15362756D-02
  0.37317154D-03 -0.12946854D-02 -0.18273000D-02 -0.21802205D-03  0.10246535D-02
  0.81906222D-03 -0.31029951D-03  0.25158626D-03 -0.22983643D-04 -0.12671633D-04
  0.10056858D-03  0.14413810D-03  0.19033989D-03  0.21878611D-03  0.20126954D-03
  0.12875764D-03  0.44568013D-04  0.50105104D-05  0.63745905D-07  0.11046064D-07
  0.11287875D-09  0.42814581D-09  0.61363224D-09  0.81032492D-09  0.93142764D-09
  0.85685521D-09  0.54815375D-09  0.18973727D-09  0.21331007D-10  0.27138240D-12
  0.47025880D-13  0.48055332D-15  0.10155718D-02  0.14555500D-02  0.19221096D-02
  0.22093681D-02  0.20324805D-02  0.13002335D-02  0.45006124D-03  0.50597645D-04
  0.64372537D-06  0.11154648D-06  0.11398837D-08 -0.48504095D-03 -0.69963336D-03
 -0.93182111D-03 -0.11027760D-02 -0.10597263D-02 -0.72840706D-03 -0.22933514D-03
  0.11083560D-03  0.11374416D-03  0.28645000D-04 -0.31231130D-07 -0.38008375D-08
 -0.54824087D-08 -0.73018590D-08 -0.86414816D-08 -0.83041393D-08 -0.57078828D-08
 -0.17970970D-08  0.86852074D-09  0.89131251D-09  0.22446557D-09 -0.24473078D-12
 -0.51765041D-02 -0.74666993D-02 -0.99446774D-02 -0.11769160D-01 -0.11309721D-01
 -0.77737809D-02 -0.24475342D-02  0.11828712D-02  0.12139121D-02  0.30570813D-03
 -0.33330809D-06  0.36146449D-03  0.52401037D-03  0.69549271D-03  0.83000401D-03
  0.79743682D-03  0.55816326D-03  0.16853244D-03 -0.10316699D-03 -0.11095426D-03
 -0.29839230D-04  0.11123092D-04  0.29865945D-08  0.43296272D-08  0.57464973D-08
  0.68578948D-08  0.65888088D-08  0.46118149D-08  0.13924965D-08 -0.85241562D-09
 -0.91675778D-09 -0.24654615D-09  0.91904364D-10  0.39152021D-02  0.56758175D-02
  0.75332282D-02  0.89901871D-02  0.86374356D-02  0.60457445D-02  0.18254588D-02
 -0.11174531D-02 -0.12018009D-02 -0.32320357D-03  0.12047975D-03 -0.33646200D-05
  0.19616434D-10 -0.23755945D-04  0.12039973D-04  0.33781059D-10 -0.91174451D-05
  0.11725914D-06  0.29679536D-11  0.97435605D-07 -0.29248317D-03 -0.30274803D-03
 -0.25329936D-03 -0.16345001D-03 -0.73423980D-04 -0.21438614D-04 -0.36168256D-05
 -0.36774825D-03 -0.38065457D-03 -0.31848121D-03 -0.20551082D-03 -0.92318270D-04
 -0.26955441D-04 -0.45475480D-05  0.66023141D-03  0.68340260D-03  0.57178057D-03
  0.36896083D-03  0.16574225D-03  0.48394054D-04  0.81643736D-05  0.35540397D-09
  0.36787707D-09  0.30779069D-09  0.19861240D-09  0.89219405D-10  0.26050622D-10
  0.43948996D-11  0.12717025D-03  0.13163336D-03  0.11013332D-03  0.71067264D-04
  0.31924386D-04  0.93214041D-05  0.15725780D-05  0.24438130D-08  0.25295800D-08
  0.21164167D-08  0.13656898D-08  0.61348651D-09  0.17912813D-09  0.30220014D-10
  0.17991667D-04  0.23242375D-04 -0.41234041D-04 -0.28488363D-10 -0.80838937D-05
 -0.15570534D-09  0.65516831D-05  0.33143108D-05 -0.98659940D-05  0.29994293D-10
 -0.65059034D-06 -0.22483804D-10 -0.10864311D-05 -0.18521409D-05  0.29385720D-05
 -0.32848559D-11 -0.15620520D-05 -0.12822722D-11 -0.22929351D-06 -0.13832236D-10
  0.11633572D-04 -0.23666482D-05 -0.37754253D-10 -0.15550963D-04  0.30545287D-05
  0.79250962D-10 -0.19349754D-04 -0.24844788D-10  0.38535686D-07  0.22871917D-11
 -0.14598293D-05  0.13392308D-05  0.29164082D-11  0.50499379D-06 -0.14548378D-05
 -0.97779834D-11  0.38744941D-05 -0.13168934D-10  0.13383868D-05  0.24138357D-05
  0.35591993D-05 -0.59989051D-04 -0.15085487D-03  0.13540561D-05  0.92842249D-05
  0.63391032D-10  0.29934237D-05  0.86215027D-05 -0.65295834D-10 -0.54043457D-05
  0.20879096D-04  0.21587301D-09  0.52161918D-05 -0.38593996D-05 -0.23665400D-06
  0.40960536D-05  0.57985556D-10  0.69954541D-05  0.76204557D-10  0.13779648D-05
 -0.12161330D-05 -0.16183178D-06  0.20835406D-10 -0.47043635D-05 -0.34912351D-10
  0.24688878D-05  0.46025682D-05  0.77791511D-05  0.11694612D-04  0.14368182D-04
  0.12136227D-04  0.45773383D-05 -0.22653503D-07 -0.17950354D-05 -0.33608727D-05
 -0.57221733D-05 -0.88513320D-05 -0.11656893D-04 -0.12112258D-04 -0.76967965D-05
  0.51582140D-05  0.17862642D-05  0.84026808D-04 -0.19492237D-04 -0.27620913D-05
 -0.25896362D-05 -0.18439752D-05  0.33310628D-10  0.31230831D-10  0.22238212D-10
  0.65706355D-05  0.61603885D-05  0.43865636D-05 -0.10718274D-04 -0.50610562D-10
 -0.25880664D-04  0.22370269D-04 -0.40231879D-09  0.47560297D-06  0.61179464D-06
  0.62533964D-11 -0.22802486D-05  0.17549517D-05  0.19541195D-05 -0.37090711D-05
  0.49109629D-10 -0.11391030D-04 -0.78418028D-10 -0.20777229D-04  0.13568344D-04
  0.72088847D-05  0.12860097D-09  0.99583546D-05  0.27368517D-09  0.43386589D-05
  0.57045038D-05 -0.10043163D-04 -0.97647607D-10  0.16452873D-05 -0.63485649D-10
 -0.18106546D-06 -0.19959824D-10  0.12475068D-05  0.25133992D-05  0.34099959D-10
  0.33949896D-05 -0.19702028D-05  0.25779511D-10 -0.71375099D-05  0.14150683D-09
 -0.53876218D-07  0.41720564D-10  0.61312903D-05 -0.83838255D-05  0.34376695D-10
 -0.14728428D-04  0.85454541D-05 -0.15953839D-09 -0.36654433D-05  0.75203716D-10
  0.46512924D-06  0.83887973D-06  0.12369277D-05  0.68893567D-04 -0.15664874D-04
  0.24441819D-05  0.74619737D-05 -0.50784022D-10 -0.79077042D-05  0.89853590D-06
  0.79855703D-10 -0.33152228D-05 -0.35009647D-05 -0.15652444D-10  0.95978330D-05
 -0.44718232D-05  0.32860908D-06  0.41432141D-05  0.66144762D-10  0.58943933D-05
 -0.15119294D-10 -0.26722245D-05  0.35443960D-05 -0.87217146D-06  0.38392854D-10
 -0.38447359D-05  0.62083551D-10  0.30817215D-06  0.55580116D-06  0.81952849D-06
 -0.24816107D-04  0.18439237D-04 -0.10718184D-05 -0.28123416D-05  0.63601432D-05
  0.15996620D-05  0.83575247D-05  0.39019574D-05 -0.17334848D-04  0.17386360D-06
 -0.85971204D-05 -0.57550495D-05  0.60136726D-05 -0.88614561D-06 -0.51275270D-05
 -0.41174290D-05  0.37348623D-05  0.47146679D-05 -0.31479301D-05  0.13833265D-05
  0.17646036D-05  0.26867768D-05  0.55908366D-05  0.59111503D-05  0.30816312D-06
  0.55578487D-06  0.81950447D-06 -0.24816891D-04  0.18439101D-04 -0.10717985D-05
 -0.28123858D-05 -0.63601224D-05  0.15995392D-05  0.83574950D-05 -0.39024139D-05
 -0.17334603D-04  0.17370758D-06  0.85970568D-05 -0.57550707D-05  0.60136645D-05
 -0.88625708D-06 -0.51274075D-05  0.41173897D-05  0.37348256D-05 -0.47146714D-05
 -0.31479415D-05  0.13833031D-05  0.17646384D-05 -0.26867869D-05  0.55908220D-05
 -0.59111438D-05
MO    2     MO 0.0        OCC NO =    2.0000000  ORB. ENERGY =  -57.948600
  0.75623409D-04  0.14097923D-03  0.23827973D-03  0.35821249D-03  0.44010543D-03
  0.37173939D-03  0.14020642D-03 -0.69388940D-06 -0.60762777D-04 -0.11376709D-03
 -0.19369821D-03 -0.29962167D-03 -0.39459120D-03 -0.41000553D-03 -0.26054011D-03
  0.17460792D-03  0.35211562D-03 -0.14551376D-02 -0.47730069D-03 -0.31929884D-05
 -0.29936296D-05 -0.21316426D-05  0.40374770D-09  0.37853913D-09  0.26954241D-09
  0.24373294D-03  0.22851513D-03  0.16271638D-03  0.27609215D-04 -0.42058078D-09
  0.22326747D-04 -0.64849113D-03 -0.42670864D-08 -0.65542789D-03  0.19481709D-04
  0.36813737D-10 -0.36993120D-04 -0.92113786D-04 -0.16036870D-03  0.25248248D-03
  0.16144715D-08  0.94877129D-04  0.60770759D-09  0.15475422D-03  0.28436693D-03
 -0.43912115D-03 -0.25466965D-08 -0.15526380D-03 -0.80014087D-09  0.51400668D-04
  0.56043267D-04 -0.10744394D-03  0.99475602D-09  0.28188999D-03  0.11755827D-09
 -0.27473759D-04 -0.35941336D-09 -0.44387269D-04  0.10387803D-04  0.13734220D-08
  0.14103171D-03  0.72033475D-04 -0.29518189D-09 -0.78698995D-05  0.14100312D-09
 -0.61310591D-05  0.39341713D-09 -0.10782458D-03  0.53246673D-04 -0.57917649D-09
  0.21152916D-03 -0.34853496D-04 -0.60107491D-09  0.11194459D-03  0.13251496D-08
  0.32428472D-03  0.60591089D-03  0.10508765D-02  0.17216042D-02  0.26958955D-02
  0.40485161D-02  0.57743432D-02  0.76290772D-02  0.87982013D-02  0.79186634D-02
  0.44425671D-02  0.10740144D-02  0.50988877D-04 -0.87257295D-06  0.24541717D-06
 -0.95638680D-07  0.90463272D-08  0.89198692D-09 -0.24602509D+00 -0.45305902D+00
 -0.78639664D+00 -0.12879704D+01 -0.20272061D+01 -0.30597992D+01 -0.44602960D+01
 -0.61249234D+01 -0.77785747D+01 -0.83770315D+01 -0.66830383D+01 -0.14969473D+01
  0.40028034D+01  0.35595906D+01  0.69520249D+00  0.19258539D-01  0.13946379D-02
  0.28482322D-04  0.12821556D-02  0.23148133D-02  0.40296491D-02  0.65987205D-02
  0.10403259D-01  0.15698231D-01  0.22975529D-01  0.31657260D-01  0.40783033D-01
  0.44889295D-01  0.37789507D-01  0.89990340D-02 -0.30312207D-01 -0.40503463D-01
 -0.49759332D-02  0.17386586D-01  0.76750469D-02 -0.38089877D-04 -0.47419464D-03
 -0.10273374D-02 -0.17489074D-02 -0.28548347D-02 -0.45007695D-02 -0.67919140D-02
 -0.99405424D-02 -0.13712355D-01 -0.17687505D-01 -0.19553820D-01 -0.16560635D-01
 -0.40226884D-02  0.13956359D-01  0.19697800D-01  0.23502188D-02 -0.11045488D-01
 -0.88292693D-02  0.33449449D-02 -0.28929822D-02  0.17972348D-03  0.12706952D-03
 -0.26584443D-02 -0.38101673D-02 -0.50314721D-02 -0.57834235D-02 -0.53203881D-02
 -0.34035980D-02 -0.11781173D-02 -0.13244855D-03 -0.16850684D-05 -0.29199324D-06
 -0.29838532D-08 -0.83951847D-07 -0.12032247D-06 -0.15889043D-06 -0.18263654D-06
 -0.16801420D-06 -0.10748329D-06 -0.37204135D-07 -0.41826344D-08 -0.53213305D-10
 -0.92209461D-11 -0.94228035D-13 -0.33492591D-01 -0.48002650D-01 -0.63389342D-01
 -0.72862852D-01 -0.67029269D-01 -0.42880460D-01 -0.14842590D-01 -0.16686621D-02
 -0.21229449D-04 -0.36786966D-05 -0.37592276D-07  0.48408154D-02  0.69824948D-02
  0.92997796D-02  0.11005947D-01  0.10576302D-01  0.72696626D-02  0.22888152D-02
 -0.11061637D-02 -0.11351917D-02 -0.28588340D-03  0.31169355D-06  0.39917259D-07
  0.57577501D-07  0.76685781D-07  0.90754801D-07  0.87211956D-07  0.59945480D-07
  0.18873520D-07 -0.91214019D-08 -0.93607663D-08 -0.23573883D-08  0.25702182D-11
  0.53393400D-01  0.77015772D-01  0.10257504D+00  0.12139379D+00  0.11665487D+00
  0.80183186D-01  0.25245256D-01 -0.12200804D-01 -0.12520978D-01 -0.31532470D-02
  0.34379287D-05 -0.36149773D-02 -0.52405856D-02 -0.69555667D-02 -0.83008034D-02
 -0.79751015D-02 -0.55821459D-02 -0.16854794D-02  0.10317648D-02  0.11096446D-02
  0.29841974D-03 -0.11124114D-03 -0.31289950D-07 -0.45360633D-07 -0.60204896D-07
 -0.71848783D-07 -0.69029624D-07 -0.48317057D-07 -0.14588906D-07  0.89305870D-08
  0.96046868D-08  0.25830144D-08 -0.96286353D-09 -0.40518416D-01 -0.58739021D-01
 -0.77961360D-01 -0.93039424D-01 -0.89388800D-01 -0.62567395D-01 -0.18891669D-01
  0.11564520D-01  0.12437434D-01  0.33448329D-02 -0.12468446D-02  0.31526253D-04
 -0.22610237D-09  0.21947779D-03 -0.12988854D-03 -0.37948364D-09  0.11596023D-03
 -0.11629135D-05 -0.32175383D-10 -0.61006415D-06 -0.64525167D-03 -0.66789714D-03
 -0.55880766D-03 -0.36058962D-03 -0.16198179D-03 -0.47296060D-04 -0.79791352D-05
  0.63083256D-02  0.65297198D-02  0.54632027D-02  0.35253171D-02  0.15836206D-02
  0.46239159D-03  0.78008296D-04 -0.56630740D-02 -0.58618227D-02 -0.49043950D-02
 -0.31647275D-02 -0.14216388D-02 -0.41509553D-03 -0.70029161D-04 -0.12907525D-07
 -0.13360521D-07 -0.11178311D-07 -0.72131846D-08 -0.32402611D-08 -0.94610381D-09
 -0.15961351D-09 -0.85887088D-03 -0.88901343D-03 -0.74380842D-03 -0.47996764D-03
 -0.21560803D-03 -0.62954054D-04 -0.10620735D-04 -0.99820365D-08 -0.10332362D-07
 -0.86447485D-08 -0.55783176D-08 -0.25058565D-08 -0.73166955D-09 -0.12343714D-09
 -0.17306064D-03 -0.25369597D-03  0.42675661D-03  0.33924320D-09  0.81695270D-04
  0.15719628D-08 -0.66531020D-04 -0.27274784D-04  0.93805804D-04 -0.33284612D-09
  0.11410047D-05  0.22710541D-09  0.12325644D-04  0.20613712D-04 -0.32939356D-04
  0.36590836D-10  0.16886418D-04  0.17217383D-10  0.15351998D-05  0.13865649D-09
 -0.11759645D-03  0.24021139D-04  0.39077805D-09  0.15674364D-03 -0.28626738D-04
 -0.80674752D-09  0.19604570D-03  0.27775375D-09 -0.59020414D-06 -0.25754975D-10
  0.16308255D-04 -0.14548891D-04 -0.29595103D-10 -0.58514967D-05  0.16319503D-04
  0.10686003D-09 -0.43073268D-04  0.14390571D-09 -0.13232070D-04 -0.23864583D-04
 -0.35188313D-04  0.67528346D-03  0.16654047D-02 -0.12597962D-04 -0.97654824D-04
 -0.61406970D-09 -0.30314039D-04 -0.97780047D-04  0.53058274D-09  0.65365657D-04
 -0.23198464D-03 -0.23459376D-08 -0.54085902D-04  0.40425693D-04  0.59201979D-05
 -0.46345891D-04 -0.56027099D-09 -0.78454677D-04 -0.84813239D-09 -0.15707244D-04
  0.13804991D-04  0.19022539D-05 -0.22105815D-09  0.47133087D-04  0.36040762D-09
 -0.20080092D-04 -0.37433856D-04 -0.63269811D-04 -0.95115251D-04 -0.11686008D-03
 -0.98707015D-04 -0.37228654D-04  0.18424669D-06  0.14852520D-04  0.27808603D-04
  0.47346527D-04  0.73237877D-04  0.96451708D-04  0.10021950D-03  0.63684995D-04
 -0.42680203D-04 -0.15732859D-04 -0.99113394D-03  0.19438065D-03  0.22266496D-04
  0.20876255D-04  0.14865137D-04 -0.35275147D-09 -0.33072693D-09 -0.23549728D-09
 -0.70570992D-04 -0.66164790D-04 -0.47113272D-04  0.13350487D-03  0.56762550D-09
  0.27278518D-03 -0.24794850D-03  0.44574687D-08 -0.19974909D-04 -0.75619246D-05
 -0.61735754D-10  0.23727927D-04 -0.19244716D-04 -0.20842141D-04  0.40086856D-04
 -0.54218575D-09  0.11390710D-03  0.83671403D-09  0.21206559D-03 -0.13937264D-03
 -0.72692945D-04 -0.13210273D-08 -0.68958025D-04 -0.30479518D-08 -0.47263786D-04
 -0.61159873D-04  0.10842366D-03  0.10766087D-08 -0.17729487D-04  0.67329998D-09
  0.23773353D-05  0.22871444D-09 -0.11786225D-04 -0.33547186D-04 -0.42509069D-09
 -0.40785754D-04  0.26415180D-04 -0.26105263D-09  0.76144429D-04 -0.14517048D-08
 -0.13172842D-05 -0.44635913D-09 -0.67440014D-04  0.87539918D-04 -0.35604698D-09
  0.15978521D-03 -0.83588065D-04  0.16951244D-08  0.42534837D-04 -0.83124329D-09
 -0.43219849D-05 -0.77948777D-05 -0.11493543D-04 -0.68962022D-03  0.18581824D-03
 -0.26536685D-04 -0.75573376D-04  0.55703367D-09  0.78490657D-04  0.16229661D-04
 -0.90528298D-09  0.31716878D-04  0.40433387D-04  0.18048114D-09 -0.10456953D-03
  0.52362339D-04 -0.61564915D-05 -0.46205847D-04 -0.68767172D-09 -0.65113244D-04
  0.15199445D-09  0.29261684D-04 -0.38475537D-04  0.92138532D-05 -0.41052545D-09
  0.40714852D-04 -0.66341074D-09 -0.32560359D-05 -0.58723949D-05 -0.86588429D-05
  0.26858746D-03 -0.20174385D-03  0.10904730D-04  0.30991274D-04 -0.68418626D-04
 -0.17367777D-04 -0.84972360D-04 -0.37119435D-04  0.18566341D-03 -0.16949721D-05
  0.93153431D-04  0.61894536D-04 -0.59934754D-04  0.74066412D-05  0.52528112D-04
  0.38082855D-04 -0.36643464D-04 -0.49650270D-04  0.34904027D-04 -0.15265686D-04