 Molden2AIM, Version 4.0.0 (06/02/2016)           Time: Thu Jun 28 17:53:41 2018
GAUSSIAN              8 MOL ORBITALS    258 PRIMITIVES        6 NUCLEI
  C    1    (CENTRE  1)   0.00000000  0.00000000  1.25931727  CHARGE =  6.0
  C    2    (CENTRE  2)   0.00000000  0.00000000 -1.25931727  CHARGE =  6.0
  H    3    (CENTRE  3)   0.00000000  1.75719774  2.33996282  CHARGE =  1.0
  H    4    (CENTRE  4)   0.00000000 -1.75719774  2.33996282  CHARGE =  1.0
  H    5    (CENTRE  5)   0.00000000  1.75719774 -2.33996282  CHARGE =  1.0
  H    6    (CENTRE  6)   0.00000000 -1.75719774 -2.33996282  CHARGE =  1.0
CENTRE ASSIGNMENTS    1  1  1  1  1  1  1  1  1  1  1  1  1  1  1  1  1  1  1  1
CENTRE ASSIGNMENTS    1  1  1  1  1  1  1  1  1  1  1  1  1  1  1  1  1  1  1  1
CENTRE ASSIGNMENTS    1  1  1  1  1  1  1  1  1  1  1  1  1  1  1  1  1  1  1  1
CENTRE ASSIGNMENTS    1  1  1  1  1  1  1  1  1  1  1  1  1  1  1  2  2  2  2  2
CENTRE ASSIGNMENTS    2  2  2  2  2  2  2  2  2  2  2  2  2  2  2  2  2  2  2  2
CENTRE ASSIGNMENTS    2  2  2  2  2  2  2  2  2  2  2  2  2  2  2  2  2  2  2  2
CENTRE ASSIGNMENTS    2  2  2  2  2  2  2  2  2  2  2  2  2  2  2  2  2  2  2  2
CENTRE ASSIGNMENTS    2  2  2  2  2  2  2  2  2  2  3  3  3  3  3  3  3  3  3  3
CENTRE ASSIGNMENTS    3  3  3  3  3  3  3  3  3  3  3  3  3  3  3  3  3  4  4  4
CENTRE ASSIGNMENTS    4  4  4  4  4  4  4  4  4  4  4  4  4  4  4  4  4  4  4  4
CENTRE ASSIGNMENTS    4  4  4  4  5  5  5  5  5  5  5  5  5  5  5  5  5  5  5  5
CENTRE ASSIGNMENTS    5  5  5  5  5  5  5  5  5  5  5  6  6  6  6  6  6  6  6  6
CENTRE ASSIGNMENTS    6  6  6  6  6  6  6  6  6  6  6  6  6  6  6  6  6  6
TYPE ASSIGNMENTS      1  1  1  1  1  1  1  1  1  1  1  1  1  1  1  1  1  1  1  2
TYPE ASSIGNMENTS      2  2  3  3  3  4  4  4  2  3  4  2  3  4  2  3  4  5  6  7
TYPE ASSIGNMENTS      8  9 10  5  6  7  8  9 10  5  6  7  8  9 10 11 12 13 17 14
TYPE ASSIGNMENTS     15 18 19 16 20 11 12 13 17 14 15 18 19 16 20  1  1  1  1  1
TYPE ASSIGNMENTS      1  1  1  1  1  1  1  1  1  1  1  1  1  1  2  2  2  3  3  3
TYPE ASSIGNMENTS      4  4  4  2  3  4  2  3  4  2  3  4  5  6  7  8  9 10  5  6
TYPE ASSIGNMENTS      7  8  9 10  5  6  7  8  9 10 11 12 13 17 14 15 18 19 16 20
TYPE ASSIGNMENTS     11 12 13 17 14 15 18 19 16 20  1  1  1  1  1  1  2  3  4  2
TYPE ASSIGNMENTS      3  4  2  3  4  5  6  7  8  9 10  5  6  7  8  9 10  1  1  1
TYPE ASSIGNMENTS      1  1  1  2  3  4  2  3  4  2  3  4  5  6  7  8  9 10  5  6
TYPE ASSIGNMENTS      7  8  9 10  1  1  1  1  1  1  2  3  4  2  3  4  2  3  4  5
TYPE ASSIGNMENTS      6  7  8  9 10  5  6  7  8  9 10  1  1  1  1  1  1  2  3  4
TYPE ASSIGNMENTS      2  3  4  2  3  4  5  6  7  8  9 10  5  6  7  8  9 10
EXPONENTS  0.8236000D+04 0.1235000D+04 0.2808000D+03 0.7927000D+02 0.2559000D+02
EXPONENTS  0.8997000D+01 0.3319000D+01 0.3643000D+00 0.8236000D+04 0.1235000D+04
EXPONENTS  0.2808000D+03 0.7927000D+02 0.2559000D+02 0.8997000D+01 0.3319000D+01
EXPONENTS  0.3643000D+00 0.9059000D+00 0.1285000D+00 0.4402000D-01 0.1871000D+02
EXPONENTS  0.4133000D+01 0.1200000D+01 0.1871000D+02 0.4133000D+01 0.1200000D+01
EXPONENTS  0.1871000D+02 0.4133000D+01 0.1200000D+01 0.3827000D+00 0.3827000D+00
EXPONENTS  0.3827000D+00 0.1209000D+00 0.1209000D+00 0.1209000D+00 0.3569000D-01
EXPONENTS  0.3569000D-01 0.3569000D-01 0.1097000D+01 0.1097000D+01 0.1097000D+01
EXPONENTS  0.1097000D+01 0.1097000D+01 0.1097000D+01 0.3180000D+00 0.3180000D+00
EXPONENTS  0.3180000D+00 0.3180000D+00 0.3180000D+00 0.3180000D+00 0.1000000D+00
EXPONENTS  0.1000000D+00 0.1000000D+00 0.1000000D+00 0.1000000D+00 0.1000000D+00
EXPONENTS  0.7610000D+00 0.7610000D+00 0.7610000D+00 0.7610000D+00 0.7610000D+00
EXPONENTS  0.7610000D+00 0.7610000D+00 0.7610000D+00 0.7610000D+00 0.7610000D+00
EXPONENTS  0.2680000D+00 0.2680000D+00 0.2680000D+00 0.2680000D+00 0.2680000D+00
EXPONENTS  0.2680000D+00 0.2680000D+00 0.2680000D+00 0.2680000D+00 0.2680000D+00
EXPONENTS  0.8236000D+04 0.1235000D+04 0.2808000D+03 0.7927000D+02 0.2559000D+02
EXPONENTS  0.8997000D+01 0.3319000D+01 0.3643000D+00 0.8236000D+04 0.1235000D+04
EXPONENTS  0.2808000D+03 0.7927000D+02 0.2559000D+02 0.8997000D+01 0.3319000D+01
EXPONENTS  0.3643000D+00 0.9059000D+00 0.1285000D+00 0.4402000D-01 0.1871000D+02
EXPONENTS  0.4133000D+01 0.1200000D+01 0.1871000D+02 0.4133000D+01 0.1200000D+01
EXPONENTS  0.1871000D+02 0.4133000D+01 0.1200000D+01 0.3827000D+00 0.3827000D+00
EXPONENTS  0.3827000D+00 0.1209000D+00 0.1209000D+00 0.1209000D+00 0.3569000D-01
EXPONENTS  0.3569000D-01 0.3569000D-01 0.1097000D+01 0.1097000D+01 0.1097000D+01
EXPONENTS  0.1097000D+01 0.1097000D+01 0.1097000D+01 0.3180000D+00 0.3180000D+00
EXPONENTS  0.3180000D+00 0.3180000D+00 0.3180000D+00 0.3180000D+00 0.1000000D+00
EXPONENTS  0.1000000D+00 0.1000000D+00 0.1000000D+00 0.1000000D+00 0.1000000D+00
EXPONENTS  0.7610000D+00 0.7610000D+00 0.7610000D+00 0.7610000D+00 0.7610000D+00
EXPONENTS  0.7610000D+00 0.7610000D+00 0.7610000D+00 0.7610000D+00 0.7610000D+00
EXPONENTS  0.2680000D+00 0.2680000D+00 0.2680000D+00 0.2680000D+00 0.2680000D+00
EXPONENTS  0.2680000D+00 0.2680000D+00 0.2680000D+00 0.2680000D+00 0.2680000D+00
EXPONENTS  0.3387000D+02 0.5095000D+01 0.1159000D+01 0.3258000D+00 0.1027000D+00
EXPONENTS  0.2526000D-01 0.1407000D+01 0.1407000D+01 0.1407000D+01 0.3880000D+00
EXPONENTS  0.3880000D+00 0.3880000D+00 0.1020000D+00 0.1020000D+00 0.1020000D+00
EXPONENTS  0.1057000D+01 0.1057000D+01 0.1057000D+01 0.1057000D+01 0.1057000D+01
EXPONENTS  0.1057000D+01 0.2470000D+00 0.2470000D+00 0.2470000D+00 0.2470000D+00
EXPONENTS  0.2470000D+00 0.2470000D+00 0.3387000D+02 0.5095000D+01 0.1159000D+01
EXPONENTS  0.3258000D+00 0.1027000D+00 0.2526000D-01 0.1407000D+01 0.1407000D+01
EXPONENTS  0.1407000D+01 0.3880000D+00 0.3880000D+00 0.3880000D+00 0.1020000D+00
EXPONENTS  0.1020000D+00 0.1020000D+00 0.1057000D+01 0.1057000D+01 0.1057000D+01
EXPONENTS  0.1057000D+01 0.1057000D+01 0.1057000D+01 0.2470000D+00 0.2470000D+00
EXPONENTS  0.2470000D+00 0.2470000D+00 0.2470000D+00 0.2470000D+00 0.3387000D+02
EXPONENTS  0.5095000D+01 0.1159000D+01 0.3258000D+00 0.1027000D+00 0.2526000D-01
EXPONENTS  0.1407000D+01 0.1407000D+01 0.1407000D+01 0.3880000D+00 0.3880000D+00
EXPONENTS  0.3880000D+00 0.1020000D+00 0.1020000D+00 0.1020000D+00 0.1057000D+01
EXPONENTS  0.1057000D+01 0.1057000D+01 0.1057000D+01 0.1057000D+01 0.1057000D+01
EXPONENTS  0.2470000D+00 0.2470000D+00 0.2470000D+00 0.2470000D+00 0.2470000D+00
EXPONENTS  0.2470000D+00 0.3387000D+02 0.5095000D+01 0.1159000D+01 0.3258000D+00
EXPONENTS  0.1027000D+00 0.2526000D-01 0.1407000D+01 0.1407000D+01 0.1407000D+01
EXPONENTS  0.3880000D+00 0.3880000D+00 0.3880000D+00 0.1020000D+00 0.1020000D+00
EXPONENTS  0.1020000D+00 0.1057000D+01 0.1057000D+01 0.1057000D+01 0.1057000D+01
EXPONENTS  0.1057000D+01 0.1057000D+01 0.2470000D+00 0.2470000D+00 0.2470000D+00
EXPONENTS  0.2470000D+00 0.2470000D+00 0.2470000D+00
MO    1     MO 0.0        OCC NO =    2.0000000  ORB. ENERGY =  -10.052391
  0.23294407D+00  0.43426071D+00  0.73397710D+00  0.11034080D+01  0.13556642D+01
  0.11450752D+01  0.43188022D+00 -0.21373993D-02 -0.18474604D-02 -0.34590288D-02
 -0.58892925D-02 -0.91098400D-02 -0.11997339D-01 -0.12466004D-01 -0.79215856D-02
  0.53088625D-02  0.23592533D-01 -0.25014998D-02 -0.17570512D-03  0.18956004D-15
  0.17772459D-15  0.12655050D-15 -0.17594267D-14 -0.16495744D-14 -0.11745952D-14
 -0.31604037D-03 -0.29630794D-03 -0.21098890D-03  0.21164525D-16  0.72664058D-14
  0.41176326D-03  0.12806244D-17  0.99601634D-14 -0.29963528D-03  0.83829019D-19
  0.32267692D-15 -0.24133269D-05 -0.22340371D-02  0.15611957D-02  0.67284145D-03
 -0.68946027D-18  0.33925376D-17  0.23165494D-14  0.61220686D-03  0.26826385D-03
 -0.88047071D-03 -0.11858114D-18 -0.36825163D-17  0.25352572D-14  0.39902113D-04
 -0.10797096D-03  0.68068845D-04  0.20905032D-18 -0.25069564D-18 -0.54010385D-14
 -0.35137513D-18  0.70142259D-16 -0.27296055D-03 -0.41538190D-18 -0.83455934D-15
 -0.81690458D-03  0.14695073D-17  0.62413256D-15  0.16357862D-02 -0.65727699D-18
 -0.18499447D-18 -0.12870164D-14  0.28716252D-03  0.37457623D-18 -0.76977280D-15
 -0.73956864D-04  0.18040717D-18  0.46308220D-14 -0.78753069D-03 -0.49354024D-18
  0.23294407D+00  0.43426071D+00  0.73397710D+00  0.11034080D+01  0.13556642D+01
  0.11450751D+01  0.43188021D+00 -0.21373993D-02 -0.18474604D-02 -0.34590288D-02
 -0.58892925D-02 -0.91098400D-02 -0.11997339D-01 -0.12466003D-01 -0.79215856D-02
  0.53088624D-02  0.23592533D-01 -0.25014999D-02 -0.17570512D-03 -0.50473372D-17
 -0.47321995D-17 -0.33696079D-17 -0.36168921D-14 -0.33910663D-14 -0.24146412D-14
  0.31604038D-03  0.29630795D-03  0.21098891D-03 -0.85033833D-18  0.17874871D-13
 -0.41176328D-03 -0.12286163D-17  0.19155259D-13  0.29963526D-03 -0.29447228D-19
  0.13710124D-15  0.24133267D-05 -0.22340371D-02  0.15611957D-02  0.67284144D-03
  0.62173829D-17  0.43848253D-17 -0.36978173D-14  0.61220686D-03  0.26826385D-03
 -0.88047072D-03 -0.11682575D-17 -0.48631898D-17 -0.22212924D-13  0.39902113D-04
 -0.10797096D-03  0.68068844D-04 -0.25147193D-19 -0.21403470D-18 -0.87662894D-14
 -0.37445138D-18  0.96214761D-15  0.27296054D-03 -0.30935387D-18 -0.25929925D-14
  0.81690458D-03  0.14327080D-17 -0.29345029D-15 -0.16357862D-02 -0.88591302D-18
  0.15809264D-18  0.12958685D-15 -0.28716252D-03  0.44633568D-18 -0.17752590D-14
  0.73956864D-04 -0.92061360D-18  0.13864985D-14  0.78753069D-03 -0.19070652D-18
  0.51491571D-04  0.92867169D-04  0.13693259D-03  0.51388511D-03  0.67618717D-03
  0.86750514D-05  0.63537411D-18  0.90728765D-03  0.25057021D-03 -0.40590688D-18
  0.86894032D-03  0.10906379D-02 -0.35911936D-18  0.11030715D-03 -0.82834669D-04
  0.75978622D-03 -0.69517287D-03 -0.64613354D-04 -0.49381690D-19 -0.60559379D-18
 -0.20257906D-02  0.20240485D-03 -0.63141533D-04 -0.13926331D-03 -0.27270988D-18
  0.76927871D-18 -0.22630786D-03  0.51491571D-04  0.92867169D-04  0.13693259D-03
  0.51388511D-03  0.67618717D-03  0.86750514D-05  0.12845483D-17 -0.90728765D-03
  0.25057021D-03 -0.14446369D-17 -0.86894032D-03  0.10906379D-02  0.11401833D-18
 -0.11030715D-03 -0.82834669D-04  0.75978622D-03 -0.69517287D-03 -0.64613354D-04
  0.36164629D-18  0.20101484D-18  0.20257906D-02  0.20240485D-03 -0.63141533D-04
 -0.13926331D-03 -0.23487948D-18  0.55358791D-18  0.22630786D-03  0.51491571D-04
  0.92867169D-04  0.13693259D-03  0.51388512D-03  0.67618717D-03  0.86750514D-05
  0.19726136D-18  0.90728764D-03 -0.25057021D-03 -0.77764781D-18  0.86894031D-03
 -0.10906379D-02 -0.86473126D-19  0.11030715D-03  0.82834668D-04  0.75978622D-03
 -0.69517286D-03 -0.64613357D-04  0.14963240D-17 -0.68009761D-19  0.20257906D-02
  0.20240485D-03 -0.63141532D-04 -0.13926331D-03  0.13237443D-18 -0.22650070D-18
  0.22630786D-03  0.51491571D-04  0.92867169D-04  0.13693259D-03  0.51388512D-03
  0.67618717D-03  0.86750514D-05  0.76044463D-18 -0.90728764D-03 -0.25057021D-03
 -0.14500183D-17 -0.86894031D-03 -0.10906379D-02 -0.43129270D-19 -0.11030715D-03
  0.82834668D-04  0.75978622D-03 -0.69517286D-03 -0.64613357D-04  0.95287199D-19
  0.19189539D-18 -0.20257906D-02  0.20240485D-03 -0.63141532D-04 -0.13926331D-03
 -0.33384183D-18 -0.31458713D-18 -0.22630786D-03
MO    2     MO 0.0        OCC NO =    2.0000000  ORB. ENERGY =  -10.051657
 -0.23295171D+00 -0.43427495D+00 -0.73400117D+00 -0.11034442D+01 -0.13557087D+01
 -0.11451127D+01 -0.43189438D+00  0.21374694D-02  0.17948062D-02  0.33604434D-02
  0.57214425D-02  0.88502015D-02  0.11655404D-01  0.12110711D-01  0.76958134D-02
 -0.51575552D-02 -0.21278372D-01 -0.11919202D-01 -0.82602426D-03  0.27817220D-15
  0.26080412D-15  0.18570807D-15  0.47515287D-15  0.44548602D-15  0.31721258D-15
 -0.13736963D-02 -0.12879276D-02 -0.91708119D-03  0.91920196D-17  0.26232321D-16
  0.37784789D-02  0.53956783D-18 -0.14661362D-12  0.38287616D-02  0.55503600D-19
  0.66068509D-14  0.62560452D-04  0.25926726D-02 -0.33861247D-03 -0.22540601D-02
  0.12654829D-17  0.11440775D-18  0.10105106D-13  0.10672429D-02  0.82876425D-03
 -0.18960071D-02 -0.46947921D-18 -0.27632747D-17 -0.11250857D-12  0.47943401D-04
  0.22230020D-03 -0.27024360D-03  0.18239593D-18 -0.26942787D-18 -0.20151413D-12
  0.45860221D-19 -0.65867321D-14  0.15760724D-02 -0.23957120D-17 -0.12293713D-14
 -0.52799257D-03  0.22581313D-17  0.20989568D-13 -0.42002246D-02  0.74605563D-18
 -0.19906150D-19 -0.15828895D-13  0.34501996D-04  0.31079947D-18  0.10614315D-13
 -0.13175174D-03 -0.25108102D-18  0.36872371D-13  0.28245749D-04 -0.67375886D-18
  0.23295171D+00  0.43427495D+00  0.73400118D+00  0.11034442D+01  0.13557087D+01
  0.11451127D+01  0.43189438D+00 -0.21374694D-02 -0.17948062D-02 -0.33604434D-02
 -0.57214425D-02 -0.88502016D-02 -0.11655404D-01 -0.12110711D-01 -0.76958135D-02
  0.51575552D-02  0.21278372D-01  0.11919202D-01  0.82602426D-03 -0.60536056D-17
 -0.56756401D-17 -0.40413938D-17 -0.79055850D-14 -0.74119884D-14 -0.52777773D-14
 -0.13736963D-02 -0.12879276D-02 -0.91708119D-03  0.43264504D-18  0.33062297D-13
  0.37784789D-02 -0.73901572D-18  0.17624059D-12  0.38287616D-02 -0.14550193D-19
 -0.59355025D-14  0.62560452D-04 -0.25926726D-02  0.33861248D-03  0.22540601D-02
  0.62738552D-17  0.31870619D-17  0.95631337D-15 -0.10672429D-02 -0.82876425D-03
  0.18960071D-02 -0.11858725D-17 -0.30676362D-17 -0.13943255D-12 -0.47943401D-04
 -0.22230020D-03  0.27024360D-03  0.15353591D-19 -0.21772053D-18 -0.20529838D-12
 -0.27552798D-18  0.78954090D-14  0.15760724D-02 -0.15167680D-18 -0.30550869D-14
 -0.52799257D-03  0.97826073D-18 -0.20631140D-13 -0.42002246D-02 -0.60599945D-18
  0.69014205D-19  0.14893859D-13  0.34501994D-04  0.25266493D-18 -0.13198550D-13
 -0.13175174D-03 -0.45970754D-18 -0.31483026D-13  0.28245754D-04 -0.17105985D-18
  0.48138200D-04  0.86819226D-04  0.12801490D-03  0.12265796D-02 -0.97736471D-03
 -0.29337135D-04 -0.25394360D-18 -0.12291086D-02 -0.95436940D-03  0.12869807D-17
 -0.12527236D-02 -0.10827325D-03 -0.90891842D-19 -0.10999076D-03  0.26377620D-03
 -0.55944349D-03  0.84873740D-03 -0.28929391D-03 -0.75866616D-18 -0.15700573D-17
  0.17887882D-02 -0.52041302D-04  0.16868430D-03 -0.11664300D-03 -0.83990414D-18
  0.54103360D-18 -0.23582358D-04  0.48138200D-04  0.86819226D-04  0.12801490D-03
  0.12265796D-02 -0.97736471D-03 -0.29337135D-04  0.11494133D-17  0.12291086D-02
 -0.95436940D-03 -0.36758157D-18  0.12527236D-02 -0.10827325D-03  0.30051408D-18
  0.10999076D-03  0.26377620D-03 -0.55944349D-03  0.84873740D-03 -0.28929391D-03
  0.15867616D-17 -0.82270058D-18 -0.17887882D-02 -0.52041302D-04  0.16868430D-03
 -0.11664300D-03  0.19285399D-18  0.34341389D-18  0.23582358D-04 -0.48138199D-04
 -0.86819225D-04 -0.12801490D-03 -0.12265796D-02  0.97736471D-03  0.29337135D-04
  0.11170427D-18  0.12291086D-02 -0.95436941D-03 -0.47000978D-18  0.12527236D-02
 -0.10827326D-03 -0.22244007D-18  0.10999076D-03  0.26377620D-03  0.55944350D-03
 -0.84873741D-03  0.28929391D-03  0.12291774D-17 -0.27981106D-18  0.17887882D-02
  0.52041303D-04 -0.16868430D-03  0.11664300D-03  0.15439477D-18 -0.75472802D-19
 -0.23582356D-04 -0.48138199D-04 -0.86819225D-04 -0.12801490D-03 -0.12265796D-02
  0.97736471D-03  0.29337135D-04  0.52563074D-18 -0.12291086D-02 -0.95436941D-03
 -0.11200011D-17 -0.12527236D-02 -0.10827326D-03 -0.69631180D-19 -0.10999076D-03
  0.26377620D-03  0.55944350D-03 -0.84873741D-03  0.28929391D-03  0.20139550D-18
 -0.10176714D-18 -0.17887882D-02  0.52041303D-04 -0.16868430D-03  0.11664300D-03
 -0.33624048D-18 -0.85981830D-19  0.23582356D-04
MO    3     MO 0.0        OCC NO =    2.0000000  ORB. ENERGY =   -0.724347
 -0.68099674D-02 -0.12695328D-01 -0.21457340D-01 -0.32257411D-01 -0.39631956D-01
 -0.33475523D-01 -0.12625736D-01  0.62485470D-04 -0.42916463D-01 -0.80353159D-01
 -0.13680813D+00 -0.21162137D+00 -0.27869790D+00 -0.28958497D+00 -0.18401825D+00
  0.12332475D+00  0.46787855D-01  0.62982434D-01  0.16744222D-02 -0.10950415D-14
 -0.10266710D-14 -0.73105091D-15  0.26247381D-13  0.24608588D-13  0.17522781D-13
 -0.13217388D+00 -0.12392141D+00 -0.88239427D-01 -0.27204943D-15 -0.12616565D-12
 -0.70428049D-02 -0.58191197D-16  0.28401265D-12  0.31126369D-02 -0.24921688D-17
  0.24944412D-13  0.38310596D-05 -0.15807163D-01  0.13656159D-02  0.14441547D-01
  0.39217017D-17  0.62671020D-16 -0.10498138D-13 -0.91500678D-02  0.49878659D-02
  0.41622019D-02  0.75276680D-17 -0.85940842D-17 -0.24813374D-12 -0.13340411D-03
  0.31495726D-03 -0.18155314D-03 -0.64913359D-17 -0.40692345D-17 -0.42985093D-13
  0.83142931D-17 -0.13932979D-13 -0.50505686D-02  0.98255379D-17  0.23025231D-13
  0.15169286D-02 -0.34768417D-16  0.18773706D-13  0.13634777D-01 -0.10944211D-16
  0.32631604D-17 -0.20711689D-13 -0.14472257D-02 -0.90842966D-17 -0.26751889D-14
 -0.74770364D-04 -0.70518462D-18  0.64810255D-13  0.44164475D-02 -0.14933100D-17
 -0.68099674D-02 -0.12695328D-01 -0.21457340D-01 -0.32257411D-01 -0.39631956D-01
 -0.33475523D-01 -0.12625736D-01  0.62485470D-04 -0.42916463D-01 -0.80353159D-01
 -0.13680813D+00 -0.21162137D+00 -0.27869790D+00 -0.28958497D+00 -0.18401825D+00
  0.12332475D+00  0.46787855D-01  0.62982434D-01  0.16744222D-02 -0.31490282D-15
 -0.29524141D-15 -0.21022947D-15 -0.28816165D-13 -0.27016986D-13 -0.19237704D-13
  0.13217388D+00  0.12392141D+00  0.88239427D-01 -0.83736721D-16  0.16275683D-12
  0.70428049D-02 -0.19255641D-16  0.14287149D-12 -0.31126369D-02  0.76388373D-18
 -0.12330750D-13 -0.38310597D-05 -0.15807163D-01  0.13656159D-02  0.14441547D-01
 -0.26652715D-16 -0.94994541D-16  0.33082973D-13 -0.91500678D-02  0.49878659D-02
  0.41622019D-02 -0.67144346D-17  0.12520843D-16 -0.40936781D-12 -0.13340411D-03
  0.31495726D-03 -0.18155315D-03  0.32824554D-17 -0.82120281D-18 -0.13064248D-12
  0.12093934D-16  0.12418271D-13  0.50505686D-02 -0.18068643D-16 -0.36440446D-13
 -0.15169286D-02 -0.18213159D-16 -0.81436847D-15 -0.13634777D-01 -0.10565779D-16
  0.10166345D-17  0.14998214D-13  0.14472257D-02 -0.56567937D-17 -0.14916832D-13
  0.74770364D-04  0.26068903D-17 -0.30077809D-13 -0.44164475D-02  0.12852205D-17
  0.12614891D-01  0.22751476D-01  0.33547038D-01 -0.83134278D-02 -0.13441304D-01
 -0.15585547D-03 -0.47919127D-16 -0.67356393D-02 -0.76477900D-02  0.30793789D-16
  0.10672606D-01  0.55586781D-02  0.22891892D-16  0.23031918D-02  0.20733259D-02
 -0.13086446D-03 -0.25564732D-02  0.26873377D-02  0.21193016D-16  0.22343613D-16
 -0.80133915D-03  0.29296576D-03 -0.48929369D-03  0.19632793D-03 -0.11904792D-16
 -0.11021659D-16 -0.20430350D-02  0.12614891D-01  0.22751476D-01  0.33547038D-01
 -0.83134278D-02 -0.13441304D-01 -0.15585547D-03 -0.47753260D-16  0.67356393D-02
 -0.76477900D-02  0.34092935D-16 -0.10672606D-01  0.55586781D-02  0.53917515D-17
 -0.23031918D-02  0.20733259D-02 -0.13086446D-03 -0.25564732D-02  0.26873377D-02
 -0.18423126D-16  0.20189870D-16  0.80133915D-03  0.29296576D-03 -0.48929369D-03
  0.19632793D-03  0.14577237D-16 -0.12148807D-16  0.20430350D-02  0.12614891D-01
  0.22751476D-01  0.33547038D-01 -0.83134278D-02 -0.13441304D-01 -0.15585547D-03
 -0.23516644D-16 -0.67356393D-02  0.76477900D-02  0.26934227D-16  0.10672606D-01
 -0.55586781D-02 -0.23070455D-17  0.23031918D-02 -0.20733259D-02 -0.13086446D-03
 -0.25564732D-02  0.26873377D-02  0.50918702D-18  0.47306028D-17  0.80133915D-03
  0.29296576D-03 -0.48929369D-03  0.19632793D-03 -0.61929314D-17  0.49016844D-17
  0.20430350D-02  0.12614891D-01  0.22751476D-01  0.33547038D-01 -0.83134278D-02
 -0.13441304D-01 -0.15585547D-03 -0.24570506D-16  0.67356393D-02  0.76477900D-02
  0.18854173D-16 -0.10672606D-01 -0.55586781D-02  0.36911530D-17 -0.23031918D-02
 -0.20733259D-02 -0.13086446D-03 -0.25564732D-02  0.26873377D-02 -0.10939131D-16
 -0.35050642D-17 -0.80133915D-03  0.29296576D-03 -0.48929369D-03  0.19632793D-03
  0.82697584D-17  0.73063195D-17 -0.20430350D-02
MO    4     MO 0.0        OCC NO =    2.0000000  ORB. ENERGY =   -0.544385
 -0.27151413D-02 -0.50616407D-02 -0.85550644D-02 -0.12861064D-01 -0.15801303D-01
 -0.13346727D-01 -0.50338942D-02  0.24913023D-04 -0.35586593D-01 -0.66629331D-01
 -0.11344214D+00 -0.17547774D+00 -0.23109800D+00 -0.24012563D+00 -0.15258906D+00
  0.10226164D+00  0.44935616D-01  0.85080837D-01  0.17275634D-01 -0.51089279D-15
 -0.47899446D-15 -0.34107259D-15  0.11528255D-12  0.10808472D-12  0.76962761D-13
  0.19762582D+00  0.18528677D+00  0.13193522D+00 -0.26011237D-15 -0.58596377D-12
  0.48472133D-01 -0.40576530D-16  0.63752830D-12  0.52185664D-02  0.46991874D-17
 -0.40638253D-13 -0.81961416D-03 -0.72639571D-02  0.11279242D-01 -0.40152848D-02
 -0.48940754D-17 -0.18549106D-17 -0.84162703D-13 -0.65719383D-02  0.69797152D-02
 -0.40777691D-03  0.71864335D-17  0.78187224D-16 -0.15929967D-12 -0.91736533D-03
  0.11481506D-02 -0.23078523D-03  0.11887991D-16  0.22734948D-16  0.17232141D-11
  0.11918976D-17 -0.53959621D-14 -0.70332666D-03  0.95165139D-17  0.10751390D-12
 -0.24415589D-02 -0.13092207D-16 -0.91326009D-13  0.45515389D-02 -0.16968646D-16
  0.18971820D-17  0.84025451D-13 -0.86663015D-03  0.12770533D-16 -0.18868202D-13
 -0.62660911D-04 -0.18462079D-16 -0.23320815D-12  0.26625514D-02  0.20068200D-16
  0.27151413D-02  0.50616407D-02  0.85550644D-02  0.12861064D-01  0.15801303D-01
  0.13346727D-01  0.50338942D-02 -0.24913023D-04  0.35586593D-01  0.66629331D-01
  0.11344214D+00  0.17547774D+00  0.23109800D+00  0.24012563D+00  0.15258906D+00
 -0.10226164D+00 -0.44935616D-01 -0.85080837D-01 -0.17275634D-01  0.63599822D-16
  0.59628876D-16  0.42459312D-16  0.28608662D-13  0.26822439D-13  0.19099175D-13
  0.19762582D+00  0.18528677D+00  0.13193522D+00  0.44028459D-16 -0.10608768D-12
  0.48472133D-01  0.81973007D-16 -0.17436033D-11  0.52185664D-02 -0.86589429D-18
  0.10780606D-13 -0.81961416D-03  0.72639571D-02 -0.11279242D-01  0.40152848D-02
  0.66338272D-17 -0.63313901D-16  0.10663283D-13  0.65719383D-02 -0.69797152D-02
  0.40777691D-03  0.53837824D-17  0.55941830D-16  0.56323654D-12  0.91736533D-03
 -0.11481506D-02  0.23078523D-03 -0.96710002D-17  0.14884367D-16  0.19085638D-11
 -0.68236293D-17 -0.20536148D-13 -0.70332666D-03  0.14020760D-16  0.39446598D-14
 -0.24415589D-02  0.64501278D-17  0.57663783D-13  0.45515389D-02  0.15985862D-16
 -0.17015248D-17 -0.58784517D-13 -0.86663015D-03 -0.73983935D-17  0.87403785D-13
 -0.62660911D-04  0.12502968D-16  0.88949765D-13  0.26625514D-02  0.94348596D-17
  0.22893493D-01  0.41289358D-01  0.60881134D-01  0.13445259D-01 -0.17662537D-01
  0.71524138D-04  0.74488634D-17 -0.18182433D-01 -0.65272704D-02 -0.59754703D-16
  0.45382646D-02  0.74433532D-02 -0.21612938D-16  0.16772437D-02  0.19836099D-02
 -0.73405411D-03  0.35411392D-02 -0.28070851D-02  0.28284029D-16  0.17759086D-16
  0.84067119D-03 -0.18775306D-04 -0.10135996D-03  0.12013526D-03  0.15351654D-16
  0.49755486D-17 -0.66768574D-03  0.22893493D-01  0.41289358D-01  0.60881134D-01
  0.13445259D-01 -0.17662537D-01  0.71524138D-04 -0.20134312D-16  0.18182433D-01
 -0.65272704D-02 -0.61619366D-17 -0.45382646D-02  0.74433532D-02  0.40048539D-17
 -0.16772437D-02  0.19836099D-02 -0.73405411D-03  0.35411392D-02 -0.28070851D-02
 -0.10836480D-16  0.28018725D-16 -0.84067119D-03 -0.18775306D-04 -0.10135996D-03
  0.12013526D-03 -0.56117575D-17  0.62237437D-17  0.66768574D-03 -0.22893493D-01
 -0.41289358D-01 -0.60881134D-01 -0.13445259D-01  0.17662537D-01 -0.71524138D-04
  0.17943408D-16  0.18182433D-01 -0.65272704D-02  0.65165365D-17 -0.45382646D-02
  0.74433532D-02  0.18953159D-16 -0.16772437D-02  0.19836099D-02  0.73405411D-03
 -0.35411392D-02  0.28070851D-02 -0.20513371D-16 -0.31154054D-17  0.84067119D-03
  0.18775306D-04  0.10135996D-03 -0.12013526D-03 -0.18980403D-17  0.83751364D-17
 -0.66768574D-03 -0.22893493D-01 -0.41289358D-01 -0.60881134D-01 -0.13445259D-01
  0.17662537D-01 -0.71524138D-04  0.29808194D-16 -0.18182433D-01 -0.65272704D-02
 -0.71766942D-17  0.45382646D-02  0.74433532D-02 -0.28130237D-17  0.16772437D-02
  0.19836099D-02  0.73405411D-03 -0.35411392D-02  0.28070851D-02  0.26855832D-16
  0.54580351D-17 -0.84067120D-03  0.18775306D-04  0.10135996D-03 -0.12013526D-03
 -0.76925735D-17  0.25037616D-17  0.66768574D-03
MO    5     MO 0.0        OCC NO =    2.0000000  ORB. ENERGY =   -0.432003
 -0.19014506D-13 -0.35447362D-13 -0.59912286D-13 -0.90067790D-13 -0.11065869D-12
 -0.93468951D-13 -0.35253050D-13  0.17446931D-15  0.13803888D-13  0.25845233D-13
  0.44003721D-13  0.68067066D-13  0.89641931D-13  0.93143708D-13  0.59188645D-13
 -0.39666854D-13  0.13171391D-13 -0.31378200D-11 -0.21946710D-11  0.57989136D-15
  0.54368501D-15  0.38713612D-15  0.39700218D+00  0.37221478D+00  0.26503910D+00
 -0.14610541D-12 -0.13698311D-12 -0.97540137D-13  0.82602917D-16  0.11170674D+00
  0.65240312D-12  0.32833988D-16  0.27050238D-01  0.12572727D-11 -0.11004391D-16
  0.40170486D-03  0.19905939D-12 -0.85429671D-14  0.43042647D-13 -0.34499679D-13
  0.27312578D-15  0.49215008D-15 -0.79278024D-03  0.11348134D-12  0.12670762D-12
 -0.24018896D-12 -0.22765120D-15 -0.24049352D-16  0.13600337D-01  0.51100757D-13
  0.61696105D-13 -0.11279686D-12  0.79229856D-16  0.57528001D-17  0.26915065D-02
 -0.96534547D-17 -0.22383530D-02  0.52746656D-13  0.33767901D-16 -0.52733550D-02
 -0.89676081D-13 -0.48075366D-17  0.11988414D-01 -0.68563887D-13 -0.87832015D-17
 -0.28727694D-17 -0.30521991D-03  0.75109100D-14 -0.57049346D-16 -0.72548768D-03
  0.15923453D-13  0.65667654D-16  0.16411474D-02 -0.38456183D-13 -0.11740036D-15
  0.31953622D-14  0.59568817D-14  0.10068179D-13  0.15135772D-13  0.18596044D-13
  0.15707332D-13  0.59242278D-14 -0.29319334D-16 -0.20829168D-14 -0.38998774D-14
 -0.66398750D-14 -0.10270877D-13 -0.13526384D-13 -0.14054779D-13 -0.89311811D-14
  0.59854699D-14 -0.20408830D-12  0.52425338D-11  0.23729236D-11  0.58339542D-15
  0.54697029D-15  0.38947543D-15  0.39700218D+00  0.37221478D+00  0.26503910D+00
 -0.26087710D-13 -0.24458886D-13 -0.17416184D-13 -0.12203621D-15  0.11170674D+00
  0.23920142D-12  0.22478346D-16  0.27050238D-01  0.98285930D-12  0.15859359D-16
  0.40170486D-03  0.19608439D-12  0.25045305D-13 -0.17368704D-13 -0.76766003D-14
  0.82069368D-15  0.42673485D-15  0.79278024D-03 -0.32577482D-12  0.79310312D-13
  0.24646451D-12 -0.40731036D-15 -0.14115114D-15 -0.13600337D-01 -0.58804751D-13
 -0.52974803D-14  0.64102231D-13 -0.60250885D-16 -0.47777744D-18 -0.26915065D-02
 -0.72537084D-17 -0.22383530D-02  0.80356455D-13  0.22103612D-16 -0.52733550D-02
 -0.50058432D-13 -0.34248714D-18  0.11988414D-01 -0.19101093D-12 -0.34196055D-16
  0.43636201D-17 -0.30521991D-03  0.51431705D-13  0.58166201D-17 -0.72548768D-03
  0.23921087D-13 -0.18907480D-16  0.16411474D-02 -0.17821620D-12  0.11464938D-15
  0.24884881D-01  0.44880908D-01  0.66176873D-01  0.19663577D-01 -0.27528739D-01
 -0.76942274D-03  0.52579754D-16 -0.11005651D-01 -0.16559686D-01  0.52730582D-16
  0.14949767D-01  0.16729722D-02  0.28808578D-16  0.50166844D-02  0.15069195D-02
 -0.91021764D-03 -0.43885171D-02  0.52987347D-02 -0.60191193D-16 -0.18561192D-16
  0.47157231D-02  0.49478428D-03 -0.96499644D-03  0.47021217D-03 -0.52220163D-16
 -0.11634378D-15 -0.13347425D-02 -0.24884881D-01 -0.44880908D-01 -0.66176873D-01
 -0.19663577D-01  0.27528739D-01  0.76942273D-03 -0.68544378D-17 -0.11005651D-01
  0.16559686D-01  0.34763191D-16  0.14949767D-01 -0.16729722D-02  0.73167236D-17
  0.50166844D-02 -0.15069195D-02  0.91021764D-03  0.43885171D-02 -0.52987347D-02
  0.32077663D-16 -0.91801372D-18  0.47157231D-02 -0.49478428D-03  0.96499644D-03
 -0.47021217D-03 -0.30920859D-16  0.51461019D-16 -0.13347425D-02  0.24884881D-01
  0.44880908D-01  0.66176873D-01  0.19663577D-01 -0.27528739D-01 -0.76942273D-03
  0.14921636D-17 -0.11005651D-01  0.16559686D-01 -0.37380224D-16  0.14949767D-01
 -0.16729722D-02  0.46700351D-16  0.50166844D-02 -0.15069195D-02 -0.91021764D-03
 -0.43885171D-02  0.52987347D-02 -0.46211333D-16  0.86090926D-16 -0.47157231D-02
  0.49478428D-03 -0.96499644D-03  0.47021217D-03 -0.20593093D-16 -0.28338054D-16
  0.13347425D-02 -0.24884881D-01 -0.44880908D-01 -0.66176873D-01 -0.19663577D-01
  0.27528739D-01  0.76942274D-03  0.10978387D-16 -0.11005651D-01 -0.16559686D-01
  0.38833654D-16  0.14949767D-01  0.16729722D-02 -0.83694755D-16  0.50166844D-02
  0.15069195D-02  0.91021764D-03  0.43885171D-02 -0.52987347D-02 -0.63670794D-16
 -0.16972211D-16 -0.47157231D-02 -0.49478428D-03  0.96499644D-03 -0.47021217D-03
 -0.38788633D-16 -0.52545295D-19  0.13347425D-02
MO    6     MO 0.0        OCC NO =    2.0000000  ORB. ENERGY =   -0.383398
  0.83976295D-03  0.15655091D-02  0.26459861D-02  0.39777838D-02  0.48871671D-02
  0.41279939D-02  0.15569274D-02 -0.77053206D-05  0.31952669D-02  0.59825478D-02
  0.10185799D-01  0.15755883D-01  0.20749944D-01  0.21560521D-01  0.13700743D-01
 -0.91819193D-02 -0.27205699D-02  0.51463608D-01  0.37314096D-02  0.64976112D-15
  0.60919235D-15  0.43378125D-15  0.88633905D-13  0.83099920D-13  0.59172093D-13
  0.50899469D+00  0.47721488D+00  0.33980542D+00  0.66250174D-16 -0.18808534D-12
  0.11415690D+00 -0.33756601D-18 -0.19379726D-11  0.19836730D-01  0.13259324D-16
  0.10606878D-12  0.32636616D-03  0.22295448D-02  0.17558152D-01 -0.19787697D-01
 -0.43851825D-15  0.32453823D-15  0.67932482D-13 -0.24274920D-02  0.66162542D-02
 -0.41887622D-02  0.93396188D-16 -0.27033040D-16 -0.14579729D-11 -0.78351603D-04
  0.14070806D-02 -0.13287290D-02  0.99895526D-18 -0.12337103D-16 -0.27912548D-11
 -0.61610014D-17 -0.61395406D-13  0.50915732D-02 -0.15201488D-16  0.20092499D-13
 -0.76859631D-02  0.33684493D-16  0.16409372D-12 -0.75887565D-02 -0.89618519D-18
  0.18944832D-17 -0.17166886D-12 -0.34700710D-03  0.69916792D-17  0.12697921D-12
 -0.54704035D-03 -0.12675129D-16  0.38802738D-12  0.15880616D-02  0.22500033D-16
  0.83976295D-03  0.15655091D-02  0.26459861D-02  0.39777839D-02  0.48871671D-02
  0.41279939D-02  0.15569274D-02 -0.77053206D-05  0.31952669D-02  0.59825478D-02
  0.10185799D-01  0.15755883D-01  0.20749944D-01  0.21560521D-01  0.13700743D-01
 -0.91819193D-02 -0.27205699D-02  0.51463608D-01  0.37314096D-02  0.57361161D-15
  0.53779735D-15  0.38294375D-15 -0.65522094D-13 -0.61431128D-13 -0.43742622D-13
 -0.50899469D+00 -0.47721488D+00 -0.33980542D+00  0.19431182D-15  0.42039702D-12