 Molden2AIM, Version 4.0.0 (06/02/2016)           Time: Thu Jun 28 22:01:55 2018
GAUSSIAN              8 MOL ORBITALS    285 PRIMITIVES        7 NUCLEI
  C    1    (CENTRE  1)  -1.30606342  0.00000000 -0.01097553  CHARGE =  6.0
  C    2    (CENTRE  2)   1.30606342  0.00000000 -0.01097553  CHARGE =  6.0
  H    3    (CENTRE  3)  -2.36068178 -1.77967036 -0.02256144  CHARGE =  1.0
  H    4    (CENTRE  4)   2.36068178 -1.77967036 -0.02256144  CHARGE =  1.0
  H    5    (CENTRE  5)  -2.36068178  1.77967036 -0.02256144  CHARGE =  1.0
  H    6    (CENTRE  6)   2.36068178  1.77967036 -0.02256144  CHARGE =  1.0
  H    7    (CENTRE  7)   0.00000000  0.00000000  2.11558997  CHARGE =  1.0
CENTRE ASSIGNMENTS    1  1  1  1  1  1  1  1  1  1  1  1  1  1  1  1  1  1  1  1
CENTRE ASSIGNMENTS    1  1  1  1  1  1  1  1  1  1  1  1  1  1  1  1  1  1  1  1
CENTRE ASSIGNMENTS    1  1  1  1  1  1  1  1  1  1  1  1  1  1  1  1  1  1  1  1
CENTRE ASSIGNMENTS    1  1  1  1  1  1  1  1  1  1  1  1  1  1  1  2  2  2  2  2
CENTRE ASSIGNMENTS    2  2  2  2  2  2  2  2  2  2  2  2  2  2  2  2  2  2  2  2
CENTRE ASSIGNMENTS    2  2  2  2  2  2  2  2  2  2  2  2  2  2  2  2  2  2  2  2
CENTRE ASSIGNMENTS    2  2  2  2  2  2  2  2  2  2  2  2  2  2  2  2  2  2  2  2
CENTRE ASSIGNMENTS    2  2  2  2  2  2  2  2  2  2  3  3  3  3  3  3  3  3  3  3
CENTRE ASSIGNMENTS    3  3  3  3  3  3  3  3  3  3  3  3  3  3  3  3  3  4  4  4
CENTRE ASSIGNMENTS    4  4  4  4  4  4  4  4  4  4  4  4  4  4  4  4  4  4  4  4
CENTRE ASSIGNMENTS    4  4  4  4  5  5  5  5  5  5  5  5  5  5  5  5  5  5  5  5
CENTRE ASSIGNMENTS    5  5  5  5  5  5  5  5  5  5  5  6  6  6  6  6  6  6  6  6
CENTRE ASSIGNMENTS    6  6  6  6  6  6  6  6  6  6  6  6  6  6  6  6  6  6  7  7
CENTRE ASSIGNMENTS    7  7  7  7  7  7  7  7  7  7  7  7  7  7  7  7  7  7  7  7
CENTRE ASSIGNMENTS    7  7  7  7  7
TYPE ASSIGNMENTS      1  1  1  1  1  1  1  1  1  1  1  1  1  1  1  1  1  1  1  2
TYPE ASSIGNMENTS      2  2  3  3  3  4  4  4  2  3  4  2  3  4  2  3  4  5  6  7
TYPE ASSIGNMENTS      8  9 10  5  6  7  8  9 10  5  6  7  8  9 10 11 12 13 17 14
TYPE ASSIGNMENTS     15 18 19 16 20 11 12 13 17 14 15 18 19 16 20  1  1  1  1  1
TYPE ASSIGNMENTS      1  1  1  1  1  1  1  1  1  1  1  1  1  1  2  2  2  3  3  3
TYPE ASSIGNMENTS      4  4  4  2  3  4  2  3  4  2  3  4  5  6  7  8  9 10  5  6
TYPE ASSIGNMENTS      7  8  9 10  5  6  7  8  9 10 11 12 13 17 14 15 18 19 16 20
TYPE ASSIGNMENTS     11 12 13 17 14 15 18 19 16 20  1  1  1  1  1  1  2  3  4  2
TYPE ASSIGNMENTS      3  4  2  3  4  5  6  7  8  9 10  5  6  7  8  9 10  1  1  1
TYPE ASSIGNMENTS      1  1  1  2  3  4  2  3  4  2  3  4  5  6  7  8  9 10  5  6
TYPE ASSIGNMENTS      7  8  9 10  1  1  1  1  1  1  2  3  4  2  3  4  2  3  4  5
TYPE ASSIGNMENTS      6  7  8  9 10  5  6  7  8  9 10  1  1  1  1  1  1  2  3  4
TYPE ASSIGNMENTS      2  3  4  2  3  4  5  6  7  8  9 10  5  6  7  8  9 10  1  1
TYPE ASSIGNMENTS      1  1  1  1  2  3  4  2  3  4  2  3  4  5  6  7  8  9 10  5
TYPE ASSIGNMENTS      6  7  8  9 10
EXPONENTS  0.8236000D+04 0.1235000D+04 0.2808000D+03 0.7927000D+02 0.2559000D+02
EXPONENTS  0.8997000D+01 0.3319000D+01 0.3643000D+00 0.8236000D+04 0.1235000D+04
EXPONENTS  0.2808000D+03 0.7927000D+02 0.2559000D+02 0.8997000D+01 0.3319000D+01
EXPONENTS  0.3643000D+00 0.9059000D+00 0.1285000D+00 0.4402000D-01 0.1871000D+02
EXPONENTS  0.4133000D+01 0.1200000D+01 0.1871000D+02 0.4133000D+01 0.1200000D+01
EXPONENTS  0.1871000D+02 0.4133000D+01 0.1200000D+01 0.3827000D+00 0.3827000D+00
EXPONENTS  0.3827000D+00 0.1209000D+00 0.1209000D+00 0.1209000D+00 0.3569000D-01
EXPONENTS  0.3569000D-01 0.3569000D-01 0.1097000D+01 0.1097000D+01 0.1097000D+01
EXPONENTS  0.1097000D+01 0.1097000D+01 0.1097000D+01 0.3180000D+00 0.3180000D+00
EXPONENTS  0.3180000D+00 0.3180000D+00 0.3180000D+00 0.3180000D+00 0.1000000D+00
EXPONENTS  0.1000000D+00 0.1000000D+00 0.1000000D+00 0.1000000D+00 0.1000000D+00
EXPONENTS  0.7610000D+00 0.7610000D+00 0.7610000D+00 0.7610000D+00 0.7610000D+00
EXPONENTS  0.7610000D+00 0.7610000D+00 0.7610000D+00 0.7610000D+00 0.7610000D+00
EXPONENTS  0.2680000D+00 0.2680000D+00 0.2680000D+00 0.2680000D+00 0.2680000D+00
EXPONENTS  0.2680000D+00 0.2680000D+00 0.2680000D+00 0.2680000D+00 0.2680000D+00
EXPONENTS  0.8236000D+04 0.1235000D+04 0.2808000D+03 0.7927000D+02 0.2559000D+02
EXPONENTS  0.8997000D+01 0.3319000D+01 0.3643000D+00 0.8236000D+04 0.1235000D+04
EXPONENTS  0.2808000D+03 0.7927000D+02 0.2559000D+02 0.8997000D+01 0.3319000D+01
EXPONENTS  0.3643000D+00 0.9059000D+00 0.1285000D+00 0.4402000D-01 0.1871000D+02
EXPONENTS  0.4133000D+01 0.1200000D+01 0.1871000D+02 0.4133000D+01 0.1200000D+01
EXPONENTS  0.1871000D+02 0.4133000D+01 0.1200000D+01 0.3827000D+00 0.3827000D+00
EXPONENTS  0.3827000D+00 0.1209000D+00 0.1209000D+00 0.1209000D+00 0.3569000D-01
EXPONENTS  0.3569000D-01 0.3569000D-01 0.1097000D+01 0.1097000D+01 0.1097000D+01
EXPONENTS  0.1097000D+01 0.1097000D+01 0.1097000D+01 0.3180000D+00 0.3180000D+00
EXPONENTS  0.3180000D+00 0.3180000D+00 0.3180000D+00 0.3180000D+00 0.1000000D+00
EXPONENTS  0.1000000D+00 0.1000000D+00 0.1000000D+00 0.1000000D+00 0.1000000D+00
EXPONENTS  0.7610000D+00 0.7610000D+00 0.7610000D+00 0.7610000D+00 0.7610000D+00
EXPONENTS  0.7610000D+00 0.7610000D+00 0.7610000D+00 0.7610000D+00 0.7610000D+00
EXPONENTS  0.2680000D+00 0.2680000D+00 0.2680000D+00 0.2680000D+00 0.2680000D+00
EXPONENTS  0.2680000D+00 0.2680000D+00 0.2680000D+00 0.2680000D+00 0.2680000D+00
EXPONENTS  0.3387000D+02 0.5095000D+01 0.1159000D+01 0.3258000D+00 0.1027000D+00
EXPONENTS  0.2526000D-01 0.1407000D+01 0.1407000D+01 0.1407000D+01 0.3880000D+00
EXPONENTS  0.3880000D+00 0.3880000D+00 0.1020000D+00 0.1020000D+00 0.1020000D+00
EXPONENTS  0.1057000D+01 0.1057000D+01 0.1057000D+01 0.1057000D+01 0.1057000D+01
EXPONENTS  0.1057000D+01 0.2470000D+00 0.2470000D+00 0.2470000D+00 0.2470000D+00
EXPONENTS  0.2470000D+00 0.2470000D+00 0.3387000D+02 0.5095000D+01 0.1159000D+01
EXPONENTS  0.3258000D+00 0.1027000D+00 0.2526000D-01 0.1407000D+01 0.1407000D+01
EXPONENTS  0.1407000D+01 0.3880000D+00 0.3880000D+00 0.3880000D+00 0.1020000D+00
EXPONENTS  0.1020000D+00 0.1020000D+00 0.1057000D+01 0.1057000D+01 0.1057000D+01
EXPONENTS  0.1057000D+01 0.1057000D+01 0.1057000D+01 0.2470000D+00 0.2470000D+00
EXPONENTS  0.2470000D+00 0.2470000D+00 0.2470000D+00 0.2470000D+00 0.3387000D+02
EXPONENTS  0.5095000D+01 0.1159000D+01 0.3258000D+00 0.1027000D+00 0.2526000D-01
EXPONENTS  0.1407000D+01 0.1407000D+01 0.1407000D+01 0.3880000D+00 0.3880000D+00
EXPONENTS  0.3880000D+00 0.1020000D+00 0.1020000D+00 0.1020000D+00 0.1057000D+01
EXPONENTS  0.1057000D+01 0.1057000D+01 0.1057000D+01 0.1057000D+01 0.1057000D+01
EXPONENTS  0.2470000D+00 0.2470000D+00 0.2470000D+00 0.2470000D+00 0.2470000D+00
EXPONENTS  0.2470000D+00 0.3387000D+02 0.5095000D+01 0.1159000D+01 0.3258000D+00
EXPONENTS  0.1027000D+00 0.2526000D-01 0.1407000D+01 0.1407000D+01 0.1407000D+01
EXPONENTS  0.3880000D+00 0.3880000D+00 0.3880000D+00 0.1020000D+00 0.1020000D+00
EXPONENTS  0.1020000D+00 0.1057000D+01 0.1057000D+01 0.1057000D+01 0.1057000D+01
EXPONENTS  0.1057000D+01 0.1057000D+01 0.2470000D+00 0.2470000D+00 0.2470000D+00
EXPONENTS  0.2470000D+00 0.2470000D+00 0.2470000D+00 0.3387000D+02 0.5095000D+01
EXPONENTS  0.1159000D+01 0.3258000D+00 0.1027000D+00 0.2526000D-01 0.1407000D+01
EXPONENTS  0.1407000D+01 0.1407000D+01 0.3880000D+00 0.3880000D+00 0.3880000D+00
EXPONENTS  0.1020000D+00 0.1020000D+00 0.1020000D+00 0.1057000D+01 0.1057000D+01
EXPONENTS  0.1057000D+01 0.1057000D+01 0.1057000D+01 0.1057000D+01 0.2470000D+00
EXPONENTS  0.2470000D+00 0.2470000D+00 0.2470000D+00 0.2470000D+00 0.2470000D+00
MO    1     MO 0.0        OCC NO =    2.0000000  ORB. ENERGY =  -10.385418
  0.23330511D+00  0.43493377D+00  0.73511470D+00  0.11051182D+01  0.13577654D+01
  0.11468499D+01  0.43254959D+00 -0.21407121D-02 -0.20923890D-02 -0.39176124D-02
 -0.66700703D-02 -0.10317585D-01 -0.13587896D-01 -0.14118694D-01 -0.89717963D-02
  0.60126893D-02  0.23733776D-01 -0.47880091D-02 -0.20434687D-03  0.14476358D-02
  0.13572506D-02  0.96644326D-03 -0.51038677D-14 -0.47852004D-14 -0.34073478D-14
  0.97393891D-03  0.91312964D-03  0.65020270D-03  0.55147634D-03  0.27374436D-13
  0.26470240D-03 -0.71251666D-04  0.90191939D-13 -0.77873628D-03 -0.98611981D-05
 -0.19176063D-14 -0.21191919D-04  0.70894608D-03  0.11601969D-02 -0.18691430D-02
 -0.19633242D-15  0.99969705D-03 -0.89683967D-15 -0.81725944D-03  0.24464316D-03
  0.57261628D-03 -0.69634039D-13 -0.32707237D-03 -0.17210604D-15  0.89887903D-04
 -0.56074606D-04 -0.33813297D-04 -0.86882083D-13 -0.73831243D-04 -0.42111852D-15
  0.15743363D-03  0.45257565D-14  0.53727625D-04 -0.16897075D-02 -0.80321665D-14
 -0.17615125D-04  0.12174066D-02 -0.55451030D-14 -0.14356775D-03 -0.60594476D-15
 -0.34294727D-03  0.67905240D-14 -0.78904945D-04  0.10427070D-02 -0.14450857D-13
  0.25808979D-04 -0.13865164D-04 -0.59207151D-14  0.21090586D-03 -0.83212625D-15
  0.23330511D+00  0.43493377D+00  0.73511470D+00  0.11051182D+01  0.13577654D+01
  0.11468499D+01  0.43254959D+00 -0.21407121D-02 -0.20923890D-02 -0.39176124D-02
 -0.66700703D-02 -0.10317585D-01 -0.13587896D-01 -0.14118694D-01 -0.89717963D-02
  0.60126893D-02  0.23733776D-01 -0.47880091D-02 -0.20434687D-03 -0.14476358D-02
 -0.13572506D-02 -0.96644326D-03 -0.25785482D-14 -0.24175528D-14 -0.17214416D-14
  0.97393891D-03  0.91312964D-03  0.65020270D-03 -0.55147634D-03  0.10994188D-13
  0.26470240D-03  0.71251667D-04 -0.51383136D-13 -0.77873628D-03  0.98611981D-05
  0.22455017D-14 -0.21191919D-04  0.70894608D-03  0.11601969D-02 -0.18691430D-02
  0.70234020D-14 -0.99969705D-03  0.59322734D-15 -0.81725944D-03  0.24464316D-03
  0.57261628D-03 -0.36357223D-13  0.32707237D-03 -0.13261612D-14  0.89887903D-04
 -0.56074606D-04 -0.33813297D-04 -0.80249291D-13  0.73831243D-04 -0.85720637D-15
 -0.15743363D-03 -0.29850197D-14  0.53727625D-04  0.16897075D-02  0.97011905D-14
 -0.17615125D-04 -0.12174066D-02 -0.74613147D-15 -0.14356775D-03 -0.57057488D-15
  0.34294727D-03 -0.75311334D-14 -0.78904945D-04 -0.10427070D-02  0.20124707D-13
  0.25808979D-04  0.13865164D-04  0.24686929D-14  0.21090586D-03 -0.10172054D-15
 -0.57753440D-05 -0.10416071D-04 -0.15358490D-04  0.15877047D-02  0.30729036D-03
 -0.20189356D-04 -0.38438199D-03 -0.97932092D-03 -0.21280081D-04 -0.81488165D-03
 -0.46824046D-03 -0.21406467D-03  0.48312098D-04 -0.10433898D-03 -0.56436378D-05
 -0.16376840D-03 -0.54052281D-03  0.70429121D-03 -0.16523466D-02 -0.67747671D-04
 -0.14711328D-03 -0.14896302D-03 -0.73709713D-04  0.22267274D-03 -0.14769730D-03
 -0.47942184D-04 -0.24152345D-04 -0.57753440D-05 -0.10416071D-04 -0.15358490D-04
  0.15877047D-02  0.30729036D-03 -0.20189356D-04  0.38438199D-03 -0.97932092D-03
 -0.21280081D-04  0.81488165D-03 -0.46824046D-03 -0.21406467D-03 -0.48312098D-04
 -0.10433898D-03 -0.56436378D-05 -0.16376840D-03 -0.54052281D-03  0.70429121D-03
  0.16523466D-02  0.67747671D-04 -0.14711328D-03 -0.14896302D-03 -0.73709713D-04
  0.22267274D-03  0.14769730D-03  0.47942184D-04 -0.24152345D-04 -0.57753440D-05
 -0.10416071D-04 -0.15358490D-04  0.15877047D-02  0.30729036D-03 -0.20189356D-04
 -0.38438199D-03  0.97932092D-03 -0.21280081D-04 -0.81488165D-03  0.46824046D-03
 -0.21406467D-03  0.48312098D-04  0.10433898D-03 -0.56436378D-05 -0.16376840D-03
 -0.54052281D-03  0.70429121D-03  0.16523466D-02 -0.67747671D-04  0.14711328D-03
 -0.14896302D-03 -0.73709713D-04  0.22267274D-03  0.14769730D-03 -0.47942184D-04
  0.24152345D-04 -0.57753440D-05 -0.10416071D-04 -0.15358490D-04  0.15877047D-02
  0.30729036D-03 -0.20189356D-04  0.38438199D-03  0.97932092D-03 -0.21280081D-04
  0.81488165D-03  0.46824046D-03 -0.21406467D-03 -0.48312098D-04  0.10433898D-03
 -0.56436378D-05 -0.16376840D-03 -0.54052281D-03  0.70429121D-03 -0.16523466D-02
  0.67747671D-04  0.14711328D-03 -0.14896302D-03 -0.73709713D-04  0.22267274D-03
 -0.14769730D-03  0.47942184D-04  0.24152345D-04  0.14972262D-03  0.27003091D-03
  0.39816042D-03  0.14905906D-02  0.36360377D-02  0.12526377D-03  0.27413500D-13
 -0.83198405D-15 -0.64750454D-03 -0.87782014D-13  0.26967686D-14  0.30928260D-03
 -0.11569107D-13  0.26247397D-14 -0.44572926D-03 -0.45732509D-03  0.79594796D-03
 -0.33862287D-03 -0.48224327D-14 -0.15024640D-12 -0.17884945D-14  0.30688950D-03
 -0.34348195D-04 -0.27254131D-03  0.21967678D-14  0.19386877D-13 -0.14149187D-14
MO    2     MO 0.0        OCC NO =    2.0000000  ORB. ENERGY =  -10.384926
 -0.23289715D+00 -0.43417325D+00 -0.73382928D+00 -0.11031858D+01 -0.13553912D+01
 -0.11448445D+01 -0.43179324D+00  0.21369688D-02  0.17480087D-02  0.32728239D-02
  0.55722627D-02  0.86194431D-02  0.11351503D-01  0.11794939D-01  0.74951543D-02
 -0.50230781D-02 -0.21109876D-01 -0.75854193D-02 -0.23057166D-03 -0.36861800D-03
 -0.34560281D-03 -0.24608979D-03  0.98347349D-14  0.92206891D-14  0.65656800D-14
 -0.11502317D-02 -0.10784154D-02 -0.76789599D-03  0.13933921D-04 -0.39827783D-13
  0.42545067D-03 -0.24191768D-02 -0.32836134D-12  0.19200396D-03 -0.21231230D-04
  0.86166836D-14  0.63225526D-05 -0.14093105D-02 -0.95760395D-03  0.23669145D-02
 -0.20419408D-13 -0.41108654D-03  0.28226812D-14 -0.97129722D-03 -0.26657915D-03
  0.12378764D-02  0.24412516D-12  0.33485126D-03 -0.18413838D-14 -0.17992759D-03
  0.13280747D-03  0.47120119D-04  0.34534882D-12  0.12745055D-04 -0.96338212D-15
 -0.15184917D-02 -0.16588127D-13 -0.10564925D-03  0.47775652D-02  0.41628279D-13
  0.13548902D-03 -0.22209018D-03  0.81361017D-14  0.18145872D-03  0.30096931D-14
  0.17521479D-04 -0.32034153D-13  0.45423929D-04 -0.33232647D-03  0.74908710D-13
 -0.26241828D-04  0.27976203D-03  0.21193750D-13 -0.11002996D-03  0.17175974D-14
  0.23289715D+00  0.43417325D+00  0.73382928D+00  0.11031858D+01  0.13553912D+01
  0.11448445D+01  0.43179324D+00 -0.21369688D-02 -0.17480087D-02 -0.32728239D-02
 -0.55722627D-02 -0.86194431D-02 -0.11351503D-01 -0.11794939D-01 -0.74951543D-02
  0.50230781D-02  0.21109876D-01  0.75854193D-02  0.23057166D-03 -0.36861800D-03
 -0.34560281D-03 -0.24608979D-03 -0.14711056D-13 -0.13792550D-13 -0.98211176D-14
  0.11502317D-02  0.10784154D-02  0.76789599D-03  0.13933921D-04  0.59363681D-13
 -0.42545067D-03 -0.24191768D-02  0.34486475D-12 -0.19200396D-03 -0.21231230D-04
 -0.82171927D-14 -0.63225526D-05  0.14093105D-02  0.95760395D-03 -0.23669145D-02
 -0.16881115D-13 -0.41108654D-03 -0.19018180D-14  0.97129722D-03  0.26657915D-03
 -0.12378764D-02  0.26285789D-12  0.33485126D-03  0.32980943D-15  0.17992759D-03
 -0.13280747D-03 -0.47120119D-04  0.34711895D-12  0.12745055D-04  0.82220651D-15
 -0.15184917D-02  0.17313059D-13  0.10564925D-03  0.47775652D-02 -0.41192093D-13
 -0.13548902D-03 -0.22209018D-03 -0.10747083D-13 -0.18145872D-03  0.25802108D-14
  0.17521479D-04  0.31387848D-13 -0.45423929D-04 -0.33232647D-03 -0.70730557D-13
  0.26241828D-04  0.27976203D-03 -0.23432986D-13  0.11002996D-03  0.20396246D-14
  0.73904542D-04  0.13328988D-03  0.19653586D-03  0.20155808D-02 -0.37634302D-03
 -0.56296373D-05  0.10214522D-02  0.16702214D-02 -0.73891304D-04  0.94356997D-03
  0.18287038D-02  0.17014207D-03 -0.98960943D-04  0.13791401D-03  0.18302599D-04
 -0.31550506D-03  0.10653606D-02 -0.74985554D-03  0.21072600D-02 -0.45886088D-04
 -0.45763419D-05 -0.65526828D-04  0.17033267D-03 -0.10480584D-03  0.10906786D-03
  0.24936079D-04  0.21563970D-04 -0.73904542D-04 -0.13328988D-03 -0.19653586D-03
 -0.20155808D-02  0.37634302D-03  0.56296373D-05  0.10214522D-02 -0.16702214D-02
  0.73891304D-04  0.94356997D-03 -0.18287038D-02 -0.17014207D-03 -0.98960943D-04
 -0.13791401D-03 -0.18302599D-04  0.31550506D-03 -0.10653606D-02  0.74985554D-03
  0.21072600D-02 -0.45886088D-04  0.45763419D-05  0.65526828D-04 -0.17033267D-03
  0.10480584D-03  0.10906786D-03  0.24936079D-04 -0.21563970D-04  0.73904542D-04
  0.13328988D-03  0.19653586D-03  0.20155808D-02 -0.37634302D-03 -0.56296373D-05
  0.10214522D-02 -0.16702214D-02 -0.73891304D-04  0.94356997D-03 -0.18287038D-02
  0.17014207D-03 -0.98960943D-04 -0.13791401D-03  0.18302599D-04 -0.31550506D-03
  0.10653606D-02 -0.74985554D-03 -0.21072600D-02 -0.45886088D-04  0.45763419D-05
 -0.65526828D-04  0.17033267D-03 -0.10480584D-03 -0.10906786D-03  0.24936079D-04
 -0.21563970D-04 -0.73904542D-04 -0.13328988D-03 -0.19653586D-03 -0.20155808D-02
  0.37634302D-03  0.56296373D-05  0.10214522D-02  0.16702214D-02  0.73891304D-04
  0.94356997D-03  0.18287038D-02 -0.17014207D-03 -0.98960943D-04  0.13791401D-03
 -0.18302599D-04  0.31550506D-03 -0.10653606D-02  0.74985554D-03 -0.21072600D-02
 -0.45886088D-04 -0.45763419D-05  0.65526828D-04 -0.17033267D-03  0.10480584D-03
 -0.10906786D-03  0.24936079D-04  0.21563970D-04  0.17675917D-13  0.31879245D-13
  0.47005928D-13  0.12343436D-12  0.10780921D-12 -0.30905097D-14 -0.39841053D-03
 -0.47760079D-15 -0.68422025D-13  0.90539955D-03  0.16048795D-14  0.45077332D-13
  0.21883959D-03  0.33820860D-15 -0.58133590D-14 -0.47857347D-13  0.88246891D-13
 -0.40389544D-13  0.27826560D-13  0.12729487D-02 -0.12540879D-14  0.28144895D-13
 -0.57153709D-14 -0.22429524D-13 -0.91994301D-14 -0.21629267D-03 -0.58517561D-15
MO    3     MO 0.0        OCC NO =    2.0000000  ORB. ENERGY =   -1.078561
 -0.60337750D-02 -0.11248328D-01 -0.19011657D-01 -0.28580747D-01 -0.35114750D-01
 -0.29660020D-01 -0.11186668D-01  0.55363446D-04 -0.40711439D-01 -0.76224660D-01
 -0.12977901D+00 -0.20074839D+00 -0.26437857D+00 -0.27470626D+00 -0.17456350D+00
  0.11698840D+00  0.46407787D-01  0.29370523D-01  0.96481923D-03  0.15112043D+00
  0.14168501D+00  0.10088817D+00 -0.27199290D-14 -0.25501063D-14 -0.18158276D-14
  0.48930622D-01  0.45875568D-01  0.32666137D-01  0.31513640D-01  0.29451148D-13
  0.16161376D-01  0.38534951D-02 -0.14721744D-11  0.36034924D-02 -0.52235895D-04
  0.45221519D-13 -0.11668898D-04  0.13347324D-01 -0.28824747D-02 -0.10464849D-01
 -0.94933289D-13  0.10489462D-01  0.21545674D-14  0.46638962D-02 -0.44713028D-02
 -0.19259337D-03  0.86070985D-12  0.88900653D-02 -0.22307335D-14  0.52158619D-03
 -0.61192084D-03  0.90334646D-04  0.19940249D-11  0.50339024D-03 -0.61014062D-14
  0.29691259D-02 -0.42150239D-13  0.14096390D-02 -0.13072680D-01  0.11948527D-12
  0.66557780D-03  0.41653020D-02  0.69654493D-14 -0.48944947D-02  0.51914738D-14
  0.55758837D-04 -0.12565368D-12  0.13815706D-03 -0.12473757D-02  0.29904533D-12
  0.11062219D-02  0.10800992D-02  0.77915716D-13 -0.15206931D-02  0.42211326D-14
 -0.60337750D-02 -0.11248328D-01 -0.19011657D-01 -0.28580747D-01 -0.35114750D-01
 -0.29660020D-01 -0.11186668D-01  0.55363446D-04 -0.40711439D-01 -0.76224660D-01
 -0.12977901D+00 -0.20074839D+00 -0.26437857D+00 -0.27470626D+00 -0.17456350D+00
  0.11698840D+00  0.46407787D-01  0.29370523D-01  0.96481923D-03 -0.15112043D+00
 -0.14168501D+00 -0.10088817D+00 -0.21781927D-13 -0.20421941D-13 -0.14541639D-13
  0.48930622D-01  0.45875568D-01  0.32666137D-01 -0.31513640D-01  0.13028964D-12
  0.16161376D-01 -0.38534951D-02  0.16970121D-11  0.36034924D-02  0.52235895D-04
 -0.43740274D-13 -0.11668898D-04  0.13347324D-01 -0.28824747D-02 -0.10464849D-01
 -0.82086957D-13 -0.10489462D-01 -0.59572183D-14  0.46638962D-02 -0.44713028D-02
 -0.19259337D-03  0.92969771D-12 -0.88900653D-02  0.39805041D-16  0.52158619D-03
 -0.61192084D-03  0.90334646D-04  0.20393982D-11 -0.50339024D-03 -0.95831804D-14
 -0.29691259D-02  0.47131656D-13  0.14096390D-02  0.13072680D-01 -0.11705827D-12
  0.66557780D-03 -0.41653020D-02 -0.24336701D-13 -0.48944947D-02  0.66754801D-14
 -0.55758837D-04  0.13335282D-12  0.13815706D-03  0.12473757D-02 -0.31330248D-12
  0.11062219D-02 -0.10800992D-02 -0.86755989D-13 -0.15206931D-02  0.84433354D-14
  0.91617690D-02  0.16523628D-01  0.24364079D-01  0.10600012D-01 -0.27683569D-03
 -0.95693628D-04  0.65033617D-02  0.45697307D-02  0.17190000D-02  0.32176980D-02
 -0.21528889D-02  0.27592571D-02  0.49864702D-03 -0.11545164D-02  0.37204180D-03
  0.30663784D-02 -0.19532621D-02 -0.11131162D-02  0.36226744D-02  0.21393224D-02
  0.29044317D-02  0.34881089D-03 -0.70140031D-03  0.35258943D-03 -0.39999545D-03
  0.38814488D-03  0.15872134D-03  0.91617690D-02  0.16523628D-01  0.24364079D-01
  0.10600012D-01 -0.27683567D-03 -0.95693628D-04 -0.65033617D-02  0.45697307D-02
  0.17190000D-02 -0.32176980D-02 -0.21528889D-02  0.27592571D-02 -0.49864702D-03
 -0.11545164D-02  0.37204180D-03  0.30663784D-02 -0.19532621D-02 -0.11131162D-02
 -0.36226744D-02 -0.21393224D-02  0.29044317D-02  0.34881089D-03 -0.70140031D-03
  0.35258943D-03  0.39999545D-03 -0.38814488D-03  0.15872134D-03  0.91617690D-02
  0.16523628D-01  0.24364079D-01  0.10600012D-01 -0.27683567D-03 -0.95693628D-04
  0.65033617D-02 -0.45697307D-02  0.17190000D-02  0.32176980D-02  0.21528889D-02
  0.27592571D-02  0.49864702D-03  0.11545164D-02  0.37204180D-03  0.30663784D-02
 -0.19532621D-02 -0.11131162D-02 -0.36226744D-02  0.21393224D-02 -0.29044317D-02
  0.34881089D-03 -0.70140031D-03  0.35258943D-03  0.39999545D-03  0.38814488D-03
 -0.15872134D-03  0.91617690D-02  0.16523628D-01  0.24364079D-01  0.10600012D-01
 -0.27683569D-03 -0.95693628D-04 -0.65033617D-02 -0.45697307D-02  0.17190000D-02
 -0.32176980D-02  0.21528889D-02  0.27592571D-02 -0.49864702D-03  0.11545164D-02
  0.37204180D-03  0.30663784D-02 -0.19532621D-02 -0.11131162D-02  0.36226744D-02
 -0.21393224D-02 -0.29044317D-02  0.34881089D-03 -0.70140031D-03  0.35258943D-03
 -0.39999545D-03 -0.38814488D-03 -0.15872134D-03  0.22758847D-01  0.41046517D-01
  0.60523066D-01  0.11023515D-01 -0.21105997D-01 -0.12465096D-03  0.15104538D-13
 -0.31559153D-14 -0.23042411D-01  0.19201326D-13  0.13987854D-13  0.10616901D-01
 -0.45480284D-13  0.29480797D-13  0.46126043D-02  0.30420538D-03 -0.12245713D-02
  0.92036595D-03  0.81321121D-13  0.56875984D-14 -0.53665291D-14  0.81234614D-03
  0.90542241D-03 -0.17177686D-02 -0.33965614D-13  0.52175292D-13 -0.67068141D-14
MO    4     MO 0.0        OCC NO =    2.0000000  ORB. ENERGY =   -0.836469
 -0.28617775D-02 -0.53350039D-02 -0.90170964D-02 -0.13555650D-01 -0.16654682D-01
 -0.14067541D-01 -0.53057589D-02  0.26258497D-04 -0.37924207D-01 -0.71006081D-01
 -0.12089393D+00 -0.18700453D+00 -0.24627838D+00 -0.25589901D+00 -0.16261234D+00
  0.10897901D+00  0.50598076D-01  0.58311812D-01  0.67904931D-02 -0.19692930D+00
 -0.18463374D+00 -0.13147022D+00 -0.12951360D-12 -0.12142723D-12 -0.86463422D-13
  0.13833405D-01  0.12969697D-01  0.92351966D-02 -0.44227143D-01  0.53707176D-12
  0.78490332D-02  0.54012017D-02  0.70949979D-11  0.33618494D-02  0.42737754D-03
 -0.23201717D-12  0.73543777D-04 -0.63079134D-02  0.12941746D-01 -0.66338326D-02
  0.37097361D-12 -0.12077919D-02 -0.47700983D-14 -0.21429193D-02  0.26534067D-02
 -0.51048737D-03 -0.43117255D-11  0.44699403D-02 -0.55628873D-14  0.56601277D-03
 -0.54234028D-03 -0.23672486D-04 -0.88204055D-11  0.43800914D-03  0.99494780D-14
 -0.10776853D-04  0.21494614D-12  0.76272454D-03 -0.36026031D-02 -0.53230773D-12
 -0.70353447D-03  0.36349336D-02 -0.11253068D-12 -0.15846392D-02 -0.32287387D-13
 -0.15415177D-03  0.59399355D-12  0.10381226D-04  0.74462320D-03 -0.13909402D-11
  0.60921361D-03 -0.28216791D-03 -0.39104049D-12 -0.64035728D-03 -0.21518790D-13
  0.28617775D-02  0.53350039D-02  0.90170964D-02  0.13555650D-01  0.16654682D-01
  0.14067541D-01  0.53057589D-02 -0.26258497D-04  0.37924207D-01  0.71006081D-01
  0.12089393D+00  0.18700453D+00  0.24627838D+00  0.25589901D+00  0.16261234D+00
 -0.10897901D+00 -0.50598076D-01 -0.58311812D-01 -0.67904931D-02 -0.19692930D+00
 -0.18463374D+00 -0.13147022D+00  0.10651122D-12  0.99861037D-13  0.71107008D-13
 -0.13833405D-01 -0.12969697D-01 -0.92351966D-02 -0.44227143D-01 -0.55855844D-12
 -0.78490332D-02  0.54012017D-02 -0.72276035D-11 -0.33618494D-02  0.42737754D-03
  0.23528511D-12 -0.73543777D-04  0.63079134D-02 -0.12941746D-01  0.66338326D-02
  0.36683427D-12 -0.12077919D-02  0.20146562D-13  0.21429193D-02 -0.26534067D-02
  0.51048737D-03 -0.43723442D-11  0.44699403D-02 -0.80733717D-14 -0.56601277D-03
  0.54234028D-03  0.23672486D-04 -0.88266884D-11  0.43800914D-03  0.41383123D-14
 -0.10776853D-04 -0.21462798D-12 -0.76272454D-03 -0.36026031D-02  0.53579403D-12
  0.70353447D-03  0.36349336D-02  0.10808991D-12  0.15846392D-02 -0.38112337D-13
 -0.15415177D-03 -0.58593958D-12 -0.10381226D-04  0.74462320D-03  0.13620950D-11
 -0.60921361D-03 -0.28216791D-03  0.39572375D-12  0.64035728D-03 -0.22419171D-13
  0.21617155D-01  0.38987430D-01  0.57486942D-01  0.32137076D-01 -0.29062531D-02
  0.93711422D-04  0.59582239D-02  0.18039038D-01  0.86750166D-03 -0.29512525D-02
  0.13975794D-02  0.11788951D-02 -0.38916428D-03 -0.13807698D-02  0.51598721D-04
 -0.33838451D-02  0.46080965D-02 -0.12242515D-02  0.26975460D-02  0.87582628D-03
  0.12332687D-02 -0.16164209D-04 -0.42426921D-03  0.44043342D-03 -0.11086772D-02
  0.18101115D-03  0.81811856D-04 -0.21617155D-01 -0.38987430D-01 -0.57486942D-01
 -0.32137076D-01  0.29062531D-02 -0.93711422D-04  0.59582239D-02 -0.18039038D-01
 -0.86750166D-03 -0.29512525D-02 -0.13975794D-02 -0.11788951D-02 -0.38916428D-03
  0.13807698D-02 -0.51598721D-04  0.33838451D-02 -0.46080965D-02  0.12242515D-02
  0.26975460D-02  0.87582628D-03 -0.12332687D-02  0.16164209D-04  0.42426921D-03
 -0.44043342D-03 -0.11086772D-02  0.18101115D-03 -0.81811856D-04  0.21617155D-01
  0.38987430D-01  0.57486942D-01  0.32137076D-01 -0.29062532D-02  0.93711423D-04
  0.59582239D-02 -0.18039038D-01  0.86750166D-03 -0.29512525D-02 -0.13975794D-02
  0.11788951D-02 -0.38916429D-03  0.13807698D-02  0.51598720D-04 -0.33838451D-02
  0.46080965D-02 -0.12242515D-02 -0.26975460D-02  0.87582628D-03 -0.12332687D-02
 -0.16164209D-04 -0.42426921D-03  0.44043342D-03  0.11086772D-02  0.18101115D-03
 -0.81811856D-04 -0.21617155D-01 -0.38987430D-01 -0.57486942D-01 -0.32137076D-01
  0.29062532D-02 -0.93711423D-04  0.59582239D-02  0.18039038D-01 -0.86750166D-03
 -0.29512525D-02  0.13975794D-02 -0.11788951D-02 -0.38916429D-03 -0.13807698D-02
 -0.51598721D-04  0.33838451D-02 -0.46080965D-02  0.12242515D-02 -0.26975460D-02
  0.87582628D-03  0.12332687D-02  0.16164209D-04  0.42426921D-03 -0.44043342D-03
  0.11086772D-02  0.18101115D-03  0.81811856D-04 -0.50658770D-14 -0.91365178D-14
 -0.13471790D-13  0.14157246D-12 -0.15038075D-12 -0.30452511D-13 -0.95675989D-02
 -0.37003784D-15 -0.22262181D-13 -0.34658649D-02  0.56670469D-14 -0.11541322D-12
  0.73708881D-03 -0.29279845D-13  0.12898110D-14  0.77971398D-13 -0.45276418D-13
 -0.32694980D-13 -0.38868405D-12  0.37817422D-03 -0.10614860D-13 -0.42998597D-13
 -0.12490531D-13  0.55489128D-13  0.14444936D-12  0.18545517D-04  0.57605817D-14
MO    5     MO 0.0        OCC NO =    2.0000000  ORB. ENERGY =   -0.724409
 -0.23139798D-13 -0.43137845D-13 -0.72910557D-13 -0.10960845D-12 -0.13466664D-12
 -0.11374751D-12 -0.42901375D-13  0.21232130D-15  0.18627802D-13  0.34877123D-13
  0.59381287D-13  0.91853821D-13  0.12096825D-12  0.12569376D-12  0.79872743D-13
 -0.53528855D-13 -0.55469078D-13 -0.18664848D-11  0.13920042D-11  0.19650386D-12
  0.18423486D-12  0.13118620D-12  0.42280500D+00  0.39640657D+00  0.28226509D+00
  0.43727438D-13  0.40997253D-13  0.29192486D-13 -0.57893080D-12  0.10847361D+00
  0.54312382D-13 -0.15965818D-11  0.15930229D-01 -0.53660506D-14  0.87024088D-13
  0.12689513D-03  0.13363653D-14 -0.96157158D-14 -0.27408220D-14  0.12356538D-13
  0.79388944D-02  0.36568613D-13  0.67339896D-02 -0.26218447D-12  0.27267857D-12
 -0.10494096D-13 -0.39491095D-02 -0.74249550D-13  0.15120274D-02 -0.19658310D-12
  0.23000416D-12 -0.33421064D-13 -0.80085013D-03 -0.13015217D-13 -0.62240697D-04
 -0.31919109D-13 -0.36031151D-02  0.15500671D-13 -0.13554703D-13  0.11630978D-01
 -0.43996435D-13  0.10931203D-12 -0.82163236D-03 -0.25055798D-14  0.63351661D-02
  0.18557451D-13 -0.34506635D-03 -0.94996060D-14 -0.26823697D-13  0.12064742D-02
  0.87326384D-15 -0.28848656D-13 -0.17127518D-03  0.27625554D-13 -0.51747247D-03
 -0.17283232D-13 -0.32219873D-13 -0.54457262D-13 -0.81867102D-13 -0.10058319D-12
 -0.84958587D-13 -0.32043253D-13  0.15858385D-15  0.17899655D-13  0.33513803D-13
  0.57060117D-13  0.88263324D-13  0.11623969D-12  0.12078049D-12  0.76750577D-13
 -0.51436452D-13 -0.24117730D-12  0.48992781D-11 -0.11451854D-11 -0.65297074D-13
 -0.61220157D-13 -0.43592399D-13  0.42280500D+00  0.39640657D+00  0.28226509D+00
  0.48040828D-13  0.45041330D-13  0.32072110D-13 -0.19997553D-13  0.10847361D+00
 -0.34941131D-13 -0.11810249D-11  0.15930229D-01  0.71099818D-13  0.96792048D-13
  0.12689513D-03 -0.10436557D-15 -0.29015599D-13  0.26838840D-13  0.21767597D-14
 -0.79388944D-02  0.27219196D-13  0.67339896D-02  0.23093379D-12  0.34990654D-13
 -0.26592444D-12  0.39491095D-02 -0.99780875D-13  0.15120274D-02  0.12247833D-12
 -0.15075021D-12  0.28271877D-13  0.80085013D-03 -0.17995217D-13 -0.62240697D-04
 -0.75808336D-13 -0.36031151D-02 -0.17405267D-13  0.17477806D-12  0.11630978D-01
  0.60532968D-13  0.52646950D-13 -0.82163236D-03 -0.83171671D-14 -0.63351661D-02
 -0.39546973D-13 -0.34506635D-03  0.14271417D-13  0.17578798D-12  0.12064742D-02
 -0.74113719D-14 -0.57147059D-13 -0.17127518D-03 -0.35402879D-13  0.51747247D-03
 -0.23811428D-01 -0.42944892D-01 -0.63322218D-01 -0.31761694D-01  0.16490069D-01
  0.34681246D-03 -0.17429105D-01 -0.11331050D-01 -0.91993511D-03 -0.27982358D-02
  0.81718518D-02  0.12731628D-03  0.15053861D-02  0.35549900D-02  0.11533444D-03
 -0.58004201D-02  0.38643965D-02  0.19360236D-02 -0.94357450D-02 -0.89011292D-03
 -0.10308924D-02 -0.42272493D-03  0.10349569D-02 -0.61223192D-03  0.15586189D-02
 -0.16985211D-05  0.25557836D-03 -0.23811428D-01 -0.42944892D-01 -0.63322218D-01
 -0.31761694D-01  0.16490069D-01  0.34681246D-03  0.17429105D-01 -0.11331050D-01
 -0.91993511D-03  0.27982358D-02  0.81718518D-02  0.12731628D-03 -0.15053861D-02
  0.35549900D-02  0.11533444D-03 -0.58004201D-02  0.38643965D-02  0.19360236D-02
  0.94357450D-02  0.89011292D-03 -0.10308924D-02 -0.42272493D-03  0.10349569D-02
 -0.61223192D-03 -0.15586190D-02  0.16985211D-05  0.25557836D-03  0.23811428D-01
  0.42944892D-01  0.63322218D-01  0.31761694D-01 -0.16490069D-01 -0.34681246D-03
  0.17429105D-01 -0.11331050D-01  0.91993511D-03  0.27982358D-02  0.81718518D-02