 Molden2AIM, Version 4.0.0 (06/02/2016)           Time: Thu Jun 28 20:15:47 2018
GAUSSIAN             11 MOL ORBITALS    333 PRIMITIVES        7 NUCLEI
  C    1    (CENTRE  1)   0.00000000  0.00002457  0.40152901  CHARGE =  6.0
  C    2    (CENTRE  2)   0.00000000  0.00000000  2.69128748  CHARGE =  6.0
  C    3    (CENTRE  3)   0.00000000  0.00000756 -2.34952295  CHARGE =  6.0
  H    4    (CENTRE  4)   0.00000000 -0.00002079  4.71350608  CHARGE =  1.0
  H    5    (CENTRE  5)   0.00000000  1.94160289 -3.08382328  CHARGE =  1.0
  H    6    (CENTRE  6)   1.68147831 -0.97080711 -3.08378548  CHARGE =  1.0
  H    7    (CENTRE  7)  -1.68147831 -0.97080711 -3.08378548  CHARGE =  1.0
CENTRE ASSIGNMENTS    1  1  1  1  1  1  1  1  1  1  1  1  1  1  1  1  1  1  1  1
CENTRE ASSIGNMENTS    1  1  1  1  1  1  1  1  1  1  1  1  1  1  1  1  1  1  1  1
CENTRE ASSIGNMENTS    1  1  1  1  1  1  1  1  1  1  1  1  1  1  1  1  1  1  1  1
CENTRE ASSIGNMENTS    1  1  1  1  1  1  1  1  1  1  1  1  1  1  1  2  2  2  2  2
CENTRE ASSIGNMENTS    2  2  2  2  2  2  2  2  2  2  2  2  2  2  2  2  2  2  2  2
CENTRE ASSIGNMENTS    2  2  2  2  2  2  2  2  2  2  2  2  2  2  2  2  2  2  2  2
CENTRE ASSIGNMENTS    2  2  2  2  2  2  2  2  2  2  2  2  2  2  2  2  2  2  2  2
CENTRE ASSIGNMENTS    2  2  2  2  2  2  2  2  2  2  3  3  3  3  3  3  3  3  3  3
CENTRE ASSIGNMENTS    3  3  3  3  3  3  3  3  3  3  3  3  3  3  3  3  3  3  3  3
CENTRE ASSIGNMENTS    3  3  3  3  3  3  3  3  3  3  3  3  3  3  3  3  3  3  3  3
CENTRE ASSIGNMENTS    3  3  3  3  3  3  3  3  3  3  3  3  3  3  3  3  3  3  3  3
CENTRE ASSIGNMENTS    3  3  3  3  3  4  4  4  4  4  4  4  4  4  4  4  4  4  4  4
CENTRE ASSIGNMENTS    4  4  4  4  4  4  4  4  4  4  4  4  5  5  5  5  5  5  5  5
CENTRE ASSIGNMENTS    5  5  5  5  5  5  5  5  5  5  5  5  5  5  5  5  5  5  5  6
CENTRE ASSIGNMENTS    6  6  6  6  6  6  6  6  6  6  6  6  6  6  6  6  6  6  6  6
CENTRE ASSIGNMENTS    6  6  6  6  6  6  7  7  7  7  7  7  7  7  7  7  7  7  7  7
CENTRE ASSIGNMENTS    7  7  7  7  7  7  7  7  7  7  7  7  7
TYPE ASSIGNMENTS      1  1  1  1  1  1  1  1  1  1  1  1  1  1  1  1  1  1  1  2
TYPE ASSIGNMENTS      2  2  3  3  3  4  4  4  2  3  4  2  3  4  2  3  4  5  6  7
TYPE ASSIGNMENTS      8  9 10  5  6  7  8  9 10  5  6  7  8  9 10 11 12 13 17 14
TYPE ASSIGNMENTS     15 18 19 16 20 11 12 13 17 14 15 18 19 16 20  1  1  1  1  1
TYPE ASSIGNMENTS      1  1  1  1  1  1  1  1  1  1  1  1  1  1  2  2  2  3  3  3
TYPE ASSIGNMENTS      4  4  4  2  3  4  2  3  4  2  3  4  5  6  7  8  9 10  5  6
TYPE ASSIGNMENTS      7  8  9 10  5  6  7  8  9 10 11 12 13 17 14 15 18 19 16 20
TYPE ASSIGNMENTS     11 12 13 17 14 15 18 19 16 20  1  1  1  1  1  1  1  1  1  1
TYPE ASSIGNMENTS      1  1  1  1  1  1  1  1  1  2  2  2  3  3  3  4  4  4  2  3
TYPE ASSIGNMENTS      4  2  3  4  2  3  4  5  6  7  8  9 10  5  6  7  8  9 10  5
TYPE ASSIGNMENTS      6  7  8  9 10 11 12 13 17 14 15 18 19 16 20 11 12 13 17 14
TYPE ASSIGNMENTS     15 18 19 16 20  1  1  1  1  1  1  2  3  4  2  3  4  2  3  4
TYPE ASSIGNMENTS      5  6  7  8  9 10  5  6  7  8  9 10  1  1  1  1  1  1  2  3
TYPE ASSIGNMENTS      4  2  3  4  2  3  4  5  6  7  8  9 10  5  6  7  8  9 10  1
TYPE ASSIGNMENTS      1  1  1  1  1  2  3  4  2  3  4  2  3  4  5  6  7  8  9 10
TYPE ASSIGNMENTS      5  6  7  8  9 10  1  1  1  1  1  1  2  3  4  2  3  4  2  3
TYPE ASSIGNMENTS      4  5  6  7  8  9 10  5  6  7  8  9 10
EXPONENTS  0.8236000D+04 0.1235000D+04 0.2808000D+03 0.7927000D+02 0.2559000D+02
EXPONENTS  0.8997000D+01 0.3319000D+01 0.3643000D+00 0.8236000D+04 0.1235000D+04
EXPONENTS  0.2808000D+03 0.7927000D+02 0.2559000D+02 0.8997000D+01 0.3319000D+01
EXPONENTS  0.3643000D+00 0.9059000D+00 0.1285000D+00 0.4402000D-01 0.1871000D+02
EXPONENTS  0.4133000D+01 0.1200000D+01 0.1871000D+02 0.4133000D+01 0.1200000D+01
EXPONENTS  0.1871000D+02 0.4133000D+01 0.1200000D+01 0.3827000D+00 0.3827000D+00
EXPONENTS  0.3827000D+00 0.1209000D+00 0.1209000D+00 0.1209000D+00 0.3569000D-01
EXPONENTS  0.3569000D-01 0.3569000D-01 0.1097000D+01 0.1097000D+01 0.1097000D+01
EXPONENTS  0.1097000D+01 0.1097000D+01 0.1097000D+01 0.3180000D+00 0.3180000D+00
EXPONENTS  0.3180000D+00 0.3180000D+00 0.3180000D+00 0.3180000D+00 0.1000000D+00
EXPONENTS  0.1000000D+00 0.1000000D+00 0.1000000D+00 0.1000000D+00 0.1000000D+00
EXPONENTS  0.7610000D+00 0.7610000D+00 0.7610000D+00 0.7610000D+00 0.7610000D+00
EXPONENTS  0.7610000D+00 0.7610000D+00 0.7610000D+00 0.7610000D+00 0.7610000D+00
EXPONENTS  0.2680000D+00 0.2680000D+00 0.2680000D+00 0.2680000D+00 0.2680000D+00
EXPONENTS  0.2680000D+00 0.2680000D+00 0.2680000D+00 0.2680000D+00 0.2680000D+00
EXPONENTS  0.8236000D+04 0.1235000D+04 0.2808000D+03 0.7927000D+02 0.2559000D+02
EXPONENTS  0.8997000D+01 0.3319000D+01 0.3643000D+00 0.8236000D+04 0.1235000D+04
EXPONENTS  0.2808000D+03 0.7927000D+02 0.2559000D+02 0.8997000D+01 0.3319000D+01
EXPONENTS  0.3643000D+00 0.9059000D+00 0.1285000D+00 0.4402000D-01 0.1871000D+02
EXPONENTS  0.4133000D+01 0.1200000D+01 0.1871000D+02 0.4133000D+01 0.1200000D+01
EXPONENTS  0.1871000D+02 0.4133000D+01 0.1200000D+01 0.3827000D+00 0.3827000D+00
EXPONENTS  0.3827000D+00 0.1209000D+00 0.1209000D+00 0.1209000D+00 0.3569000D-01
EXPONENTS  0.3569000D-01 0.3569000D-01 0.1097000D+01 0.1097000D+01 0.1097000D+01
EXPONENTS  0.1097000D+01 0.1097000D+01 0.1097000D+01 0.3180000D+00 0.3180000D+00
EXPONENTS  0.3180000D+00 0.3180000D+00 0.3180000D+00 0.3180000D+00 0.1000000D+00
EXPONENTS  0.1000000D+00 0.1000000D+00 0.1000000D+00 0.1000000D+00 0.1000000D+00
EXPONENTS  0.7610000D+00 0.7610000D+00 0.7610000D+00 0.7610000D+00 0.7610000D+00
EXPONENTS  0.7610000D+00 0.7610000D+00 0.7610000D+00 0.7610000D+00 0.7610000D+00
EXPONENTS  0.2680000D+00 0.2680000D+00 0.2680000D+00 0.2680000D+00 0.2680000D+00
EXPONENTS  0.2680000D+00 0.2680000D+00 0.2680000D+00 0.2680000D+00 0.2680000D+00
EXPONENTS  0.8236000D+04 0.1235000D+04 0.2808000D+03 0.7927000D+02 0.2559000D+02
EXPONENTS  0.8997000D+01 0.3319000D+01 0.3643000D+00 0.8236000D+04 0.1235000D+04
EXPONENTS  0.2808000D+03 0.7927000D+02 0.2559000D+02 0.8997000D+01 0.3319000D+01
EXPONENTS  0.3643000D+00 0.9059000D+00 0.1285000D+00 0.4402000D-01 0.1871000D+02
EXPONENTS  0.4133000D+01 0.1200000D+01 0.1871000D+02 0.4133000D+01 0.1200000D+01
EXPONENTS  0.1871000D+02 0.4133000D+01 0.1200000D+01 0.3827000D+00 0.3827000D+00
EXPONENTS  0.3827000D+00 0.1209000D+00 0.1209000D+00 0.1209000D+00 0.3569000D-01
EXPONENTS  0.3569000D-01 0.3569000D-01 0.1097000D+01 0.1097000D+01 0.1097000D+01
EXPONENTS  0.1097000D+01 0.1097000D+01 0.1097000D+01 0.3180000D+00 0.3180000D+00
EXPONENTS  0.3180000D+00 0.3180000D+00 0.3180000D+00 0.3180000D+00 0.1000000D+00
EXPONENTS  0.1000000D+00 0.1000000D+00 0.1000000D+00 0.1000000D+00 0.1000000D+00
EXPONENTS  0.7610000D+00 0.7610000D+00 0.7610000D+00 0.7610000D+00 0.7610000D+00
EXPONENTS  0.7610000D+00 0.7610000D+00 0.7610000D+00 0.7610000D+00 0.7610000D+00
EXPONENTS  0.2680000D+00 0.2680000D+00 0.2680000D+00 0.2680000D+00 0.2680000D+00
EXPONENTS  0.2680000D+00 0.2680000D+00 0.2680000D+00 0.2680000D+00 0.2680000D+00
EXPONENTS  0.3387000D+02 0.5095000D+01 0.1159000D+01 0.3258000D+00 0.1027000D+00
EXPONENTS  0.2526000D-01 0.1407000D+01 0.1407000D+01 0.1407000D+01 0.3880000D+00
EXPONENTS  0.3880000D+00 0.3880000D+00 0.1020000D+00 0.1020000D+00 0.1020000D+00
EXPONENTS  0.1057000D+01 0.1057000D+01 0.1057000D+01 0.1057000D+01 0.1057000D+01
EXPONENTS  0.1057000D+01 0.2470000D+00 0.2470000D+00 0.2470000D+00 0.2470000D+00
EXPONENTS  0.2470000D+00 0.2470000D+00 0.3387000D+02 0.5095000D+01 0.1159000D+01
EXPONENTS  0.3258000D+00 0.1027000D+00 0.2526000D-01 0.1407000D+01 0.1407000D+01
EXPONENTS  0.1407000D+01 0.3880000D+00 0.3880000D+00 0.3880000D+00 0.1020000D+00
EXPONENTS  0.1020000D+00 0.1020000D+00 0.1057000D+01 0.1057000D+01 0.1057000D+01
EXPONENTS  0.1057000D+01 0.1057000D+01 0.1057000D+01 0.2470000D+00 0.2470000D+00
EXPONENTS  0.2470000D+00 0.2470000D+00 0.2470000D+00 0.2470000D+00 0.3387000D+02
EXPONENTS  0.5095000D+01 0.1159000D+01 0.3258000D+00 0.1027000D+00 0.2526000D-01
EXPONENTS  0.1407000D+01 0.1407000D+01 0.1407000D+01 0.3880000D+00 0.3880000D+00
EXPONENTS  0.3880000D+00 0.1020000D+00 0.1020000D+00 0.1020000D+00 0.1057000D+01
EXPONENTS  0.1057000D+01 0.1057000D+01 0.1057000D+01 0.1057000D+01 0.1057000D+01
EXPONENTS  0.2470000D+00 0.2470000D+00 0.2470000D+00 0.2470000D+00 0.2470000D+00
EXPONENTS  0.2470000D+00 0.3387000D+02 0.5095000D+01 0.1159000D+01 0.3258000D+00
EXPONENTS  0.1027000D+00 0.2526000D-01 0.1407000D+01 0.1407000D+01 0.1407000D+01
EXPONENTS  0.3880000D+00 0.3880000D+00 0.3880000D+00 0.1020000D+00 0.1020000D+00
EXPONENTS  0.1020000D+00 0.1057000D+01 0.1057000D+01 0.1057000D+01 0.1057000D+01
EXPONENTS  0.1057000D+01 0.1057000D+01 0.2470000D+00 0.2470000D+00 0.2470000D+00
EXPONENTS  0.2470000D+00 0.2470000D+00 0.2470000D+00
MO    1     MO 0.0        OCC NO =    2.0000000  ORB. ENERGY =  -10.075728
  0.20661001D-02  0.38516803D-02  0.65100183D-02  0.97866899D-02  0.12024079D-01
  0.10156257D-01  0.38305665D-02 -0.18957687D-04 -0.19176101D-03 -0.35903712D-03
 -0.61129142D-03 -0.94557487D-03 -0.12452888D-02 -0.12939349D-02 -0.82223753D-03
  0.55104447D-03  0.99388219D-03 -0.83517263D-03 -0.84810571D-03  0.42543677D-14
  0.39887402D-14  0.28402206D-14 -0.17210234D-07 -0.16135688D-07 -0.11489571D-07
 -0.94961127D-03 -0.89032093D-03 -0.63396154D-03 -0.81317279D-14  0.22405457D-07
 -0.72990289D-03 -0.16819177D-13  0.87235254D-07  0.34143875D-02  0.80455002D-15
  0.85586296D-10 -0.22038192D-03  0.15270243D-03  0.15271957D-03 -0.30542200D-03
  0.80501992D-15 -0.32724902D-14 -0.17354699D-07  0.31788425D-03  0.31786019D-03
 -0.63574445D-03  0.33193728D-15 -0.51847160D-14  0.11433512D-06  0.38802607D-04
  0.38800390D-04 -0.77602997D-04  0.11852052D-14 -0.78960860D-14  0.61919057D-08
 -0.15577722D-16 -0.43838598D-05  0.59046949D-03 -0.37081717D-16  0.13102411D-04
 -0.88571365D-03  0.83814884D-16  0.49168306D-07 -0.88569481D-03 -0.31028124D-14
 -0.21327981D-15  0.23426311D-04  0.39340072D-03 -0.15908593D-15 -0.70312815D-04
 -0.59010004D-03  0.79892537D-15  0.33881102D-07 -0.59010213D-03  0.18583477D-14
 -0.41664454D-03 -0.77672015D-03 -0.13127939D-02 -0.19735592D-02 -0.24247455D-02
 -0.20480852D-02 -0.77246239D-03  0.38229595D-05  0.32054180D-03  0.60015539D-03
  0.10218159D-02  0.15805938D-02  0.20815865D-02  0.21629017D-02  0.13744269D-02
 -0.92110896D-03 -0.13847569D-02  0.10030049D-02  0.21133337D-02  0.14784536D-14
  0.13861442D-14  0.98701724D-15  0.38093829D-07  0.35715386D-07  0.25431483D-07
  0.52849809D-03  0.49550055D-03  0.35282591D-03 -0.13140566D-14 -0.14380729D-06
  0.16628865D-03  0.20996067D-13 -0.70384359D-07  0.20539565D-02 -0.75278755D-16
  0.16187393D-08 -0.86789656D-04  0.21019926D-03  0.21018910D-03 -0.42038837D-03
  0.20823380D-14  0.52621437D-14  0.71620454D-07 -0.47515604D-03 -0.47514765D-03
  0.95030369D-03 -0.16962715D-14 -0.41520326D-14  0.78542233D-07 -0.90167059D-04
 -0.90165961D-04  0.18033302D-03 -0.39664705D-15 -0.73204433D-14  0.15206109D-07
 -0.43663041D-15  0.14961255D-04  0.26504702D-05 -0.39611404D-15 -0.44821812D-04
 -0.39784125D-05  0.17060053D-14 -0.61952706D-07 -0.39729980D-05 -0.14864149D-14
 -0.89612864D-15 -0.10326985D-04  0.19824891D-03 -0.92148692D-15  0.30985575D-04
 -0.29736881D-03  0.36098728D-14 -0.46204573D-08 -0.29737792D-03  0.12181873D-14
  0.32978498D+00  0.61479419D+00  0.10391105D+01  0.15621234D+01  0.19192491D+01
  0.16211127D+01  0.61142407D+00 -0.30259718D-02 -0.27803653D-02 -0.52057211D-02
 -0.88631856D-02 -0.13710000D-01 -0.18055588D-01 -0.18760913D-01 -0.11921718D-01
  0.79896581D-02  0.31661565D-01  0.92108609D-03 -0.10233669D-02 -0.35209015D-14
 -0.33010689D-14 -0.23505577D-14  0.97741626D-07  0.91638988D-07  0.65252418D-07
  0.95375509D-03  0.89420602D-03  0.63672796D-03  0.23250769D-13 -0.83871883D-07
  0.46025607D-03  0.44018793D-13  0.16536077D-07  0.10210364D-02 -0.21094224D-15
  0.10034727D-08 -0.57503183D-04  0.12505098D-03  0.12496162D-03 -0.25001260D-03
  0.65781900D-15  0.71158776D-16  0.13784967D-08  0.12721200D-04  0.12642134D-04
 -0.25363334D-04 -0.21244851D-13 -0.16755934D-13  0.62135050D-07  0.39305332D-05
  0.39327919D-05 -0.78633252D-05 -0.90738203D-14 -0.43775107D-14 -0.58531288D-08
  0.83675960D-15  0.97456120D-03  0.10541685D-02  0.71088064D-15 -0.29236773D-02
 -0.15812522D-02 -0.32211594D-14 -0.62802258D-08 -0.15812532D-02  0.69618396D-14
  0.47238778D-16 -0.20036408D-03 -0.17874904D-03 -0.30746617D-15  0.60107819D-03
  0.26809353D-03  0.16574983D-15  0.14052860D-07  0.26815358D-03  0.51253956D-14
 -0.18390243D-04 -0.33167561D-04 -0.48905549D-04 -0.32389257D-02 -0.38039012D-02
  0.60739873D-04  0.39920627D-14  0.27422243D-07  0.27520962D-03 -0.75290580D-14
 -0.53940933D-07  0.63880989D-03  0.66586923D-14 -0.24848836D-07  0.34730775D-03
 -0.51164705D-04 -0.51159812D-04  0.10232452D-03 -0.69753593D-15  0.35390249D-14
 -0.11742229D-07 -0.22364343D-04 -0.22362764D-04  0.44727107D-04 -0.18552766D-16
 -0.28849383D-15  0.96550393D-08 -0.73960846D-04 -0.13339143D-03 -0.19668559D-03
  0.48549599D-03  0.63039187D-03 -0.36856293D-04  0.22862439D-14  0.15427629D-02
 -0.71115351D-03  0.17711603D-14  0.11511053D-02 -0.19100198D-03  0.74272570D-14
  0.21414782D-05 -0.23351904D-04  0.71761354D-03 -0.12170208D-02  0.49940725D-03
  0.40727243D-15  0.85856733D-15  0.15540517D-02  0.59647509D-04 -0.16673818D-03
  0.10709067D-03 -0.19569302D-14  0.14338416D-14  0.24677470D-03 -0.74007206D-04
 -0.13347504D-03 -0.19680887D-03  0.48539384D-03  0.63041917D-03 -0.36851739D-04
  0.13361613D-02 -0.77145342D-03 -0.71107680D-03  0.99689300D-03 -0.57560064D-03
 -0.19098863D-03  0.18523530D-05 -0.10711143D-05 -0.23360732D-04 -0.73336983D-03
  0.23390883D-03  0.49946100D-03  0.16754931D-02  0.13456833D-02 -0.77700585D-03
 -0.11014062D-03  0.30418198D-05  0.10709880D-03  0.19606206D-03  0.21371579D-03
 -0.12337538D-03 -0.74007206D-04 -0.13347504D-03 -0.19680887D-03  0.48539384D-03
  0.63041917D-03 -0.36851739D-04 -0.13361613D-02 -0.77145342D-03 -0.71107680D-03
 -0.99689300D-03 -0.57560064D-03 -0.19098863D-03 -0.18523529D-05 -0.10711143D-05
 -0.23360732D-04 -0.73336983D-03  0.23390883D-03  0.49946100D-03 -0.16754931D-02
 -0.13456833D-02 -0.77700585D-03 -0.11014062D-03  0.30418198D-05  0.10709880D-03
 -0.19606206D-03 -0.21371579D-03 -0.12337538D-03
MO    2     MO 0.0        OCC NO =    2.0000000  ORB. ENERGY =  -10.051233
  0.32900841D+00  0.61334648D+00  0.10366636D+01  0.15584450D+01  0.19147297D+01
  0.16172953D+01  0.60998430D+00 -0.30188463D-02 -0.27958803D-02 -0.52347700D-02
 -0.89126439D-02 -0.13786505D-01 -0.18156342D-01 -0.18865602D-01 -0.11988243D-01
  0.80342419D-02  0.34458657D-01  0.74948923D-02 -0.30042339D-02 -0.55923350D-15
 -0.52431695D-15 -0.37334490D-15 -0.83948325D-08 -0.78706890D-08 -0.56043995D-08
 -0.18423520D-02 -0.17273221D-02 -0.12299563D-02  0.46395714D-15 -0.10050961D-06
  0.99397123D-02  0.29663096D-14 -0.68086209D-08  0.45084455D-02 -0.79508154D-16
  0.28513538D-08  0.19958774D-03 -0.30169772D-02 -0.30169771D-02  0.60339543D-02
 -0.44761815D-17  0.21957191D-15 -0.15302077D-06  0.22038441D-03  0.22038465D-03
 -0.44076907D-03 -0.15352335D-16  0.11424467D-14 -0.51742195D-07  0.14695443D-03
  0.14695586D-03 -0.29391029D-03 -0.19233870D-15  0.64789682D-15 -0.22606096D-08
 -0.17195506D-16 -0.38614322D-04  0.15049396D-02  0.32937049D-16  0.11590682D-03
 -0.22574068D-02  0.18649469D-16 -0.63857904D-07 -0.22574119D-02  0.51019935D-15
  0.12519579D-16 -0.10994423D-04  0.20745818D-04  0.10635113D-16  0.32983225D-04
 -0.31127481D-04 -0.48193851D-16  0.43194209D-10 -0.31109974D-04 -0.19512931D-15
  0.18939523D-01  0.35307577D-01  0.59676025D-01  0.89712613D-01  0.11022231D+00
  0.93100362D-01  0.35114031D-01 -0.17378130D-03  0.37144811D-03  0.69546805D-03
  0.11840939D-02  0.18316132D-02  0.24121701D-02  0.25063992D-02  0.15927042D-02
 -0.10673933D-02  0.28237105D-02 -0.58965888D-02  0.10745384D-04  0.69917008D-16
  0.65551639D-16  0.46676672D-16  0.13814812D-07  0.12952265D-07  0.92227841D-08
 -0.19112643D-02 -0.17919318D-02 -0.12759622D-02 -0.15514411D-15 -0.86276400D-07
  0.94126068D-02 -0.22136290D-14 -0.61173260D-07  0.67418509D-02  0.11681049D-16
 -0.12183786D-08 -0.20042476D-04  0.93521299D-03  0.93522428D-03 -0.18704373D-02
 -0.24952450D-15 -0.80747412D-15  0.82982493D-07  0.10625305D-02  0.10625167D-02
 -0.21250473D-02  0.17933270D-15  0.10439130D-14  0.39293703D-07  0.14169059D-03
  0.14168995D-03 -0.28338054D-03  0.62093711D-16  0.89474325D-15  0.10857817D-07
  0.12783545D-16  0.10776221D-05  0.17132319D-02  0.25059611D-16 -0.31132334D-05
 -0.25698492D-02 -0.63410247D-16 -0.11963309D-06 -0.25698465D-02  0.23263793D-15
  0.85958967D-16  0.37885145D-05  0.38813066D-03  0.82355064D-16 -0.11344339D-04
 -0.58220037D-03 -0.34023197D-15 -0.21204839D-07 -0.58219162D-03 -0.12571739D-15
 -0.16819050D-02 -0.31354533D-02 -0.52994683D-02 -0.79668368D-02 -0.97881795D-02
 -0.82676824D-02 -0.31182656D-02  0.15432470D-04 -0.10918905D-03 -0.20443635D-03
 -0.34807037D-03 -0.53841194D-03 -0.70906959D-03 -0.73676872D-03 -0.46818345D-03
  0.31376566D-03 -0.79522513D-03  0.90235778D-02  0.22690650D-02  0.20887966D-14
  0.19583796D-14  0.13944830D-14  0.53674478D-08  0.50323234D-08  0.35833141D-08
 -0.29549147D-04 -0.27704203D-04 -0.19727043D-04 -0.90428428D-14  0.19678375D-07
  0.32844457D-02 -0.83028145D-14 -0.31110752D-07  0.16614279D-02 -0.55060387D-16
  0.74597403D-09  0.15641416D-03 -0.89585749D-03 -0.89584566D-03  0.17917032D-02
  0.13079009D-14  0.12425577D-14  0.33498035D-07  0.11412675D-03  0.11409748D-03
 -0.22822423D-03  0.71056019D-14  0.45305578D-14  0.28783290D-07 -0.35894552D-04
 -0.35904064D-04  0.71798616D-04  0.16490755D-14  0.16759932D-15  0.10901717D-08
 -0.24088435D-15  0.73313690D-04 -0.56931071D-04 -0.26590750D-15 -0.21996857D-03
  0.85390576D-04  0.98856054D-15  0.27502821D-07  0.85402638D-04 -0.31481932D-14
 -0.17540134D-16  0.20359488D-03 -0.81503679D-04 -0.13260823D-15 -0.61078150D-03
  0.12224641D-03  0.18522863D-15 -0.31470244D-08  0.12226463D-03 -0.16012722D-14
 -0.12574491D-03 -0.22678613D-03 -0.33439601D-03 -0.32944131D-02 -0.49244973D-02
 -0.45165542D-04 -0.21241040D-15 -0.17198319D-07  0.18012739D-02  0.31976682D-15
 -0.92456392D-08  0.16348847D-02 -0.84545604D-15 -0.13007375D-07  0.11339116D-02
  0.52298469D-03  0.52298170D-03 -0.10459664D-02  0.93292641D-16 -0.22281821D-16
  0.21037567D-07  0.11662192D-03  0.11662019D-03 -0.23324211D-03 -0.15852329D-16
  0.12338965D-15  0.28372813D-08 -0.84252044D-05 -0.15195203D-04 -0.22405318D-04
 -0.13633341D-02 -0.20976079D-03  0.49635636D-04  0.56182067D-16  0.15960488D-03
 -0.65628746D-04 -0.13263537D-14 -0.26354846D-03 -0.90965438D-03 -0.13896278D-14
  0.22883041D-04  0.24906745D-04  0.10719213D-03  0.50971246D-03 -0.61690459D-03
  0.50549166D-15 -0.41932382D-15  0.64134604D-03  0.66062500D-04  0.80563072D-04
 -0.14662557D-03  0.55162738D-15 -0.13490247D-15 -0.83059321D-04 -0.84311285D-05
 -0.15205887D-04 -0.22421072D-04 -0.13634391D-02 -0.20990014D-03  0.49635712D-04
  0.13824189D-03 -0.79808786D-04 -0.65662596D-04 -0.22821632D-03  0.13172725D-03
 -0.90962813D-03  0.19828835D-04 -0.11457180D-04  0.24898057D-04  0.40907552D-03
  0.20780075D-03 -0.61687627D-03 -0.34858931D-03  0.55544645D-03 -0.32070584D-03
  0.76938222D-04  0.69682434D-04 -0.14662066D-03 -0.12557599D-04 -0.71933789D-04
  0.41529630D-04 -0.84311285D-05 -0.15205887D-04 -0.22421072D-04 -0.13634391D-02
 -0.20990014D-03  0.49635712D-04 -0.13824189D-03 -0.79808786D-04 -0.65662596D-04
  0.22821632D-03  0.13172725D-03 -0.90962813D-03 -0.19828835D-04 -0.11457180D-04
  0.24898057D-04  0.40907552D-03  0.20780075D-03 -0.61687627D-03  0.34858931D-03
 -0.55544645D-03 -0.32070584D-03  0.76938222D-04  0.69682434D-04 -0.14662066D-03
  0.12557599D-04  0.71933789D-04  0.41529630D-04
MO    3     MO 0.0        OCC NO =    2.0000000  ORB. ENERGY =  -10.035126
 -0.20521255D-01 -0.38256285D-01 -0.64659862D-01 -0.97204952D-01 -0.11942751D+00
 -0.10087563D+00 -0.38046575D-01  0.18829463D-03  0.65246549D-03  0.12216213D-02
  0.20799147D-02  0.32173118D-02  0.42370865D-02  0.44026042D-02  0.27976573D-02
 -0.18749249D-02 -0.13014724D-02 -0.13853163D-01 -0.71419379D-03  0.98992170D-16
  0.92811452D-16  0.66087283D-16 -0.30233324D-07 -0.28345663D-07 -0.20183801D-07
  0.21324011D-02  0.19992616D-02  0.14235933D-02 -0.24901898D-15  0.60645393D-07
 -0.88434877D-02  0.30353330D-14  0.14349390D-06 -0.40951490D-02 -0.59792426D-16
  0.95238469D-09  0.19078255D-03  0.90979727D-03  0.90979308D-03 -0.18195903D-02
  0.65348715D-16  0.50346276D-15  0.11422037D-06  0.11287155D-02  0.11287181D-02
 -0.22574336D-02  0.65003735D-16 -0.12512833D-14  0.37922948D-07  0.87647666D-04
  0.87647597D-04 -0.17529526D-03  0.99963084D-16 -0.31866112D-15 -0.99245825D-09
  0.76802880D-16 -0.33290676D-04 -0.11831191D-02  0.95009779D-16  0.99821448D-04
  0.17746764D-02 -0.32541842D-15  0.50581059D-07  0.17746809D-02  0.20661380D-15
 -0.18613238D-15 -0.16606776D-04 -0.60343261D-03 -0.19267422D-15  0.49765583D-04
  0.90514118D-03  0.75107135D-15  0.54744155D-07  0.90515666D-03 -0.48860416D-15
  0.32921654D+00  0.61373447D+00  0.10373194D+01  0.15594308D+01  0.19159409D+01
  0.16183184D+01  0.61037016D+00 -0.30207560D-02 -0.29276971D-02 -0.54815728D-02
 -0.93328467D-02 -0.14436495D-01 -0.19012356D-01 -0.19755055D-01 -0.12553451D-01
  0.84130308D-02  0.34295140D-01  0.62503767D-02 -0.11162252D-02  0.14287435D-15
  0.13395378D-15  0.95383071D-16  0.23376211D-07  0.21916684D-07  0.15605985D-07
  0.11977031D-02  0.11229228D-02  0.79958794D-03 -0.50938291D-15  0.85554229D-07
 -0.87863950D-02  0.26670817D-17  0.37346662D-07 -0.53338176D-02  0.43582521D-16
 -0.11361093D-08  0.25880204D-05 -0.31181067D-02 -0.31180975D-02  0.62362041D-02
 -0.18375846D-15  0.24168818D-15 -0.20378895D-06  0.73998983D-04  0.73985990D-04
 -0.14798497D-03  0.27617455D-15  0.37146266D-15 -0.24680035D-09  0.32986462D-04
  0.32986037D-04 -0.65972500D-04 -0.42081375D-16  0.25003675D-15  0.17612563D-07
 -0.59757993D-16 -0.61638608D-05 -0.59262178D-03 -0.56984948D-16  0.18431372D-04
  0.88892981D-03  0.23625893D-15  0.60210864D-07  0.88893553D-03 -0.22140534D-15
 -0.10744386D-15  0.71443446D-05 -0.35964747D-03 -0.10652689D-15 -0.21459276D-04
  0.53946692D-03  0.42885846D-15  0.26242610D-07  0.53947548D-03 -0.12419716D-15
 -0.23734030D-03 -0.44245627D-03 -0.74782905D-03 -0.11242320D-02 -0.13812489D-02
 -0.11666855D-02 -0.44003086D-03  0.21777373D-05  0.26374126D-03  0.49380685D-03
  0.84074842D-03  0.13005100D-02  0.17127259D-02  0.17796319D-02  0.11308762D-02
 -0.75788691D-03 -0.78360183D-03  0.67130987D-02  0.11771997D-02  0.42881768D-15
  0.40204384D-15  0.28627916D-15  0.28104565D-07  0.26349816D-07  0.18762639D-07
  0.53803251D-03  0.50443968D-03  0.35919110D-03 -0.11690368D-14 -0.46838324D-07
 -0.25290277D-02 -0.30936165D-14 -0.29883342D-07  0.38140223D-03 -0.16096238D-16
  0.11803429D-08  0.79899975D-04  0.20466138D-03  0.20466912D-03 -0.40933050D-03
 -0.85547753D-16  0.75795897D-15 -0.26912397D-07  0.80376002D-03  0.80378857D-03
 -0.16075486D-02  0.10452527D-14 -0.13703413D-14 -0.13686681D-06  0.20584788D-05
  0.20585842D-05 -0.41170630D-05  0.50004408D-15 -0.11157886D-14 -0.15991980D-07
  0.25580243D-16  0.21149961D-03 -0.20598783D-03 -0.26471286D-16 -0.63442940D-03
  0.30900061D-03 -0.50269444D-16 -0.69415147D-07  0.30896289D-03  0.29421552D-15
  0.73011092D-16  0.23321050D-03 -0.14101932D-03  0.79155219D-16 -0.69963125D-03
  0.21152787D-03 -0.29818849D-15 -0.24220286D-09  0.21153008D-03 -0.95721431D-15
  0.13491707D-03  0.24332849D-03  0.35878772D-03  0.46599293D-02  0.55095932D-02
  0.27699703D-05  0.41165222D-15 -0.57924470D-08  0.20999064D-03 -0.10856129D-14
  0.95547907D-09 -0.67708367D-03 -0.34928597D-15 -0.81547158D-08 -0.65949484D-03
  0.78315082D-03  0.78314659D-03 -0.15662974D-02 -0.67929418D-16  0.56592331D-15
  0.64203123D-07  0.56651346D-04  0.56649829D-04 -0.11330118D-03  0.71159567D-16
  0.15195350D-15  0.21222152D-08  0.74875368D-05  0.13504081D-04  0.19911759D-04
 -0.29317919D-02 -0.11397649D-02  0.32604932D-04  0.17010932D-15  0.28511221D-03
  0.45709167D-04 -0.83506033D-15  0.74673376D-03 -0.14177268D-02 -0.68212641D-15
  0.19430269D-03 -0.20453021D-03  0.19930591D-03  0.94178773D-05 -0.20872379D-03
  0.41234285D-15 -0.26866551D-15  0.69220584D-03  0.69777024D-04 -0.83651350D-05
 -0.61411889D-04  0.28219558D-15  0.27469914D-15  0.77679606D-04  0.74834261D-05
  0.13496667D-04  0.19900828D-04 -0.29317245D-02 -0.11397157D-02  0.32606849D-04
  0.24691971D-03 -0.14254907D-03  0.45705436D-04  0.64664586D-03 -0.37337921D-03
 -0.14176768D-02  0.16826472D-03 -0.97153945D-04 -0.20453720D-03  0.56883901D-04
  0.15181303D-03 -0.20869693D-03  0.16445309D-03  0.59944507D-03 -0.34609440D-03
  0.11170795D-04  0.50232240D-04 -0.61403035D-04  0.67671136D-04  0.67283922D-04
 -0.38845487D-04  0.74834261D-05  0.13496667D-04  0.19900828D-04 -0.29317245D-02
 -0.11397157D-02  0.32606849D-04 -0.24691971D-03 -0.14254907D-03  0.45705436D-04
 -0.64664586D-03 -0.37337921D-03 -0.14176768D-02 -0.16826472D-03 -0.97153945D-04
 -0.20453720D-03  0.56883901D-04  0.15181303D-03 -0.20869693D-03 -0.16445309D-03
 -0.59944507D-03 -0.34609440D-03  0.11170795D-04  0.50232240D-04 -0.61403035D-04
 -0.67671136D-04 -0.67283922D-04 -0.38845487D-04
MO    4     MO 0.0        OCC NO =    2.0000000  ORB. ENERGY =   -0.742868
 -0.75598174D-02 -0.14093219D-01 -0.23820022D-01 -0.35809296D-01 -0.43995857D-01
 -0.37161535D-01 -0.14015964D-01  0.69365786D-04 -0.39545132D-01 -0.74040964D-01
 -0.12606108D+00 -0.19499732D+00 -0.25680461D+00 -0.26683644D+00 -0.16956258D+00
  0.11363690D+00  0.47389073D-01  0.25866572D-01 -0.95896511D-02  0.39950983D-14
  0.37456586D-14  0.26671321D-14 -0.18112068D-05 -0.16981215D-05 -0.12091637D-05
 -0.16913356D-01 -0.15857346D-01 -0.11291375D-01 -0.40711223D-13 -0.10702068D-05
 -0.94167452D-02 -0.24126224D-12 -0.75276450D-06  0.98911336D-02  0.15355589D-13
 -0.54725961D-08  0.11948966D-02 -0.15105158D-01 -0.15105380D-01  0.30210538D-01
  0.10863646D-13 -0.41054448D-14 -0.32407229D-06 -0.38584335D-02 -0.38583031D-02
  0.77167366D-02 -0.50849509D-14 -0.11179262D-12  0.41298817D-06  0.11752753D-03
  0.11751195D-03 -0.23503948D-03  0.16216752D-13 -0.86660167D-13  0.26483202D-08
 -0.99619372D-15  0.85544623D-05 -0.19735722D-02  0.56170453D-15 -0.25130798D-04
  0.29603508D-02  0.24268766D-14 -0.53258876D-06  0.29603658D-02 -0.29764455D-13
 -0.26832484D-14 -0.53277059D-04 -0.47545654D-03 -0.28538954D-14  0.16019046D-03
  0.71305128D-03  0.10903641D-13 -0.35928559D-06  0.71331834D-03  0.35693223D-13
 -0.39952708D-02 -0.74480932D-02 -0.12588590D-01 -0.18924774D-01 -0.23251271D-01
 -0.19639415D-01 -0.74072649D-02  0.36658967D-04 -0.23239704D-01 -0.43512059D-01
 -0.74083003D-01 -0.11459514D+00 -0.15091777D+00 -0.15681323D+00 -0.99647768D-01
  0.66781617D-01  0.30150174D-01 -0.17834190D-02 -0.16248968D-02  0.28113137D-14
  0.26357853D-14  0.18768362D-14  0.93680089D-06  0.87831038D-06  0.62540931D-06
 -0.11818110D+00 -0.11080229D+00 -0.78897830D-01 -0.26316394D-14  0.40277149D-06
  0.59624673D-02  0.23892994D-12  0.15873018D-06  0.29479908D-02 -0.40392468D-14
  0.16030178D-08 -0.31941116D-03 -0.82127775D-02 -0.82126638D-02  0.16425441D-01
  0.20655524D-13  0.48816261D-13 -0.85889375D-06 -0.17633999D-02 -0.17636030D-02
  0.35270029D-02 -0.26456071D-13 -0.75194353D-13 -0.20403225D-06  0.13624609D-03
  0.13625537D-03 -0.27250147D-03 -0.52251282D-14 -0.95165387D-13 -0.10693459D-06
 -0.20136470D-14 -0.87418231D-05  0.20026840D-02 -0.17381463D-14  0.26090170D-04
 -0.30040499D-02  0.77790874D-14  0.13529888D-06 -0.30040020D-02 -0.13041535D-13
 -0.89543317D-14  0.18118344D-04 -0.34547422D-03 -0.90431605D-14 -0.54341473D-04
  0.51812723D-03  0.35906156D-13 -0.13559701D-07  0.51829545D-03  0.19157316D-13
 -0.48467553D-02 -0.90354538D-02 -0.15271509D-01 -0.22958080D-01 -0.28206654D-01
 -0.23825028D-01 -0.89859240D-02  0.44471840D-04 -0.41956949D-01 -0.78556647D-01
 -0.13374941D+00 -0.20689001D+00 -0.27246686D+00 -0.28311052D+00 -0.17990403D+00
  0.12056749D+00  0.49244341D-01  0.51971822D-01  0.96320316D-02 -0.86049397D-13
 -0.80676779D-13 -0.57446673D-13  0.35813809D-06  0.33577722D-06  0.23909339D-06
  0.76583377D-01  0.71801784D-01  0.51127148D-01  0.40235126D-12 -0.13309604D-05
  0.54126249D-02  0.56110806D-12 -0.26278061D-06  0.21113497D-02 -0.12407734D-13
  0.15148716D-07  0.46828678D-03 -0.29086438D-02 -0.29087067D-02  0.58173505D-02
 -0.72020797D-14 -0.82923604D-14 -0.96152330D-06  0.88854469D-03  0.88709548D-03
 -0.17756402D-02 -0.39390274D-12 -0.29865872D-12  0.16101015D-05 -0.28500676D-05
 -0.29800446D-05  0.58301123D-05 -0.12580098D-12 -0.39011179D-13  0.40284416D-07
  0.10217283D-13  0.26665851D-02  0.49767966D-02  0.86189718D-14 -0.80002126D-02
 -0.74654953D-02 -0.39270821D-13  0.45741999D-06 -0.74648944D-02  0.13746512D-12
  0.46621523D-14  0.34575644D-03 -0.35299045D-04  0.22190898D-15 -0.10375318D-02
  0.52642675D-04 -0.14208366D-13  0.26247362D-06  0.53254460D-04  0.12422363D-12
  0.48896720D-02  0.88187249D-02  0.13003205D-01 -0.81198291D-02 -0.21180899D-02
  0.51059332D-04  0.21800079D-13 -0.39046511D-07 -0.15680244D-02 -0.50676559D-13
 -0.13341630D-06  0.14171869D-01  0.92940526D-13  0.10821013D-06  0.16977183D-02
  0.23625720D-02  0.23625583D-02 -0.47251304D-02 -0.53277405D-14  0.10858544D-13
  0.32050156D-06  0.90198422D-03  0.90191586D-03 -0.18039001D-02 -0.23208813D-14
 -0.90279642D-14  0.49773013D-07  0.13247110D-01  0.23891708D-01  0.35228310D-01
  0.93746323D-02 -0.50505012D-02  0.10785972D-03 -0.36863740D-14 -0.96499864D-02
  0.63688170D-02  0.90854821D-13  0.41772996D-02 -0.18145740D-02  0.11634799D-12
  0.12155235D-02 -0.42858776D-03 -0.68424283D-03 -0.27334011D-03  0.95758294D-03
 -0.25045248D-13  0.16524420D-13 -0.24864158D-02  0.42161868D-03 -0.56564013D-03
  0.14402145D-03 -0.45564457D-13  0.13613948D-13  0.81942251D-03  0.13246754D-01
  0.23891067D-01  0.35227365D-01  0.93713749D-02 -0.50520793D-02  0.10786839D-03
 -0.83551331D-02  0.48238249D-02  0.63708788D-02  0.36183838D-02 -0.20896305D-02