 Molden2AIM, Version 4.0.0 (06/02/2016)           Time: Thu Jun 28 21:02:45 2018
GAUSSIAN             12 MOL ORBITALS    387 PRIMITIVES        9 NUCLEI
  C    1    (CENTRE  1)   2.44698557  0.25451587  0.00000000  CHARGE =  6.0
  C    2    (CENTRE  2)   0.00531202  0.88812593  0.00000000  CHARGE =  6.0
  H    3    (CENTRE  3)   3.04608733 -1.72167278  0.00000000  CHARGE =  1.0
  H    4    (CENTRE  4)   3.93167725  1.68402377  0.00000000  CHARGE =  1.0
  H    5    (CENTRE  5)  -0.49767638  2.89598639  0.00000000  CHARGE =  1.0
  C    6    (CENTRE  6)  -2.15251900 -0.93480216  0.00000000  CHARGE =  6.0
  H    7    (CENTRE  7)  -1.48708218 -2.90035733  0.00000000  CHARGE =  1.0
  H    8    (CENTRE  8)  -3.36228198 -0.65218795  1.66829747  CHARGE =  1.0
  H    9    (CENTRE  9)  -3.36228198 -0.65218795 -1.66829747  CHARGE =  1.0
CENTRE ASSIGNMENTS    1  1  1  1  1  1  1  1  1  1  1  1  1  1  1  1  1  1  1  1
CENTRE ASSIGNMENTS    1  1  1  1  1  1  1  1  1  1  1  1  1  1  1  1  1  1  1  1
CENTRE ASSIGNMENTS    1  1  1  1  1  1  1  1  1  1  1  1  1  1  1  1  1  1  1  1
CENTRE ASSIGNMENTS    1  1  1  1  1  1  1  1  1  1  1  1  1  1  1  2  2  2  2  2
CENTRE ASSIGNMENTS    2  2  2  2  2  2  2  2  2  2  2  2  2  2  2  2  2  2  2  2
CENTRE ASSIGNMENTS    2  2  2  2  2  2  2  2  2  2  2  2  2  2  2  2  2  2  2  2
CENTRE ASSIGNMENTS    2  2  2  2  2  2  2  2  2  2  2  2  2  2  2  2  2  2  2  2
CENTRE ASSIGNMENTS    2  2  2  2  2  2  2  2  2  2  3  3  3  3  3  3  3  3  3  3
CENTRE ASSIGNMENTS    3  3  3  3  3  3  3  3  3  3  3  3  3  3  3  3  3  4  4  4
CENTRE ASSIGNMENTS    4  4  4  4  4  4  4  4  4  4  4  4  4  4  4  4  4  4  4  4
CENTRE ASSIGNMENTS    4  4  4  4  5  5  5  5  5  5  5  5  5  5  5  5  5  5  5  5
CENTRE ASSIGNMENTS    5  5  5  5  5  5  5  5  5  5  5  6  6  6  6  6  6  6  6  6
CENTRE ASSIGNMENTS    6  6  6  6  6  6  6  6  6  6  6  6  6  6  6  6  6  6  6  6
CENTRE ASSIGNMENTS    6  6  6  6  6  6  6  6  6  6  6  6  6  6  6  6  6  6  6  6
CENTRE ASSIGNMENTS    6  6  6  6  6  6  6  6  6  6  6  6  6  6  6  6  6  6  6  6
CENTRE ASSIGNMENTS    6  6  6  6  6  6  7  7  7  7  7  7  7  7  7  7  7  7  7  7
CENTRE ASSIGNMENTS    7  7  7  7  7  7  7  7  7  7  7  7  7  8  8  8  8  8  8  8
CENTRE ASSIGNMENTS    8  8  8  8  8  8  8  8  8  8  8  8  8  8  8  8  8  8  8  8
CENTRE ASSIGNMENTS    9  9  9  9  9  9  9  9  9  9  9  9  9  9  9  9  9  9  9  9
CENTRE ASSIGNMENTS    9  9  9  9  9  9  9
TYPE ASSIGNMENTS      1  1  1  1  1  1  1  1  1  1  1  1  1  1  1  1  1  1  1  2
TYPE ASSIGNMENTS      2  2  3  3  3  4  4  4  2  3  4  2  3  4  2  3  4  5  6  7
TYPE ASSIGNMENTS      8  9 10  5  6  7  8  9 10  5  6  7  8  9 10 11 12 13 17 14
TYPE ASSIGNMENTS     15 18 19 16 20 11 12 13 17 14 15 18 19 16 20  1  1  1  1  1
TYPE ASSIGNMENTS      1  1  1  1  1  1  1  1  1  1  1  1  1  1  2  2  2  3  3  3
TYPE ASSIGNMENTS      4  4  4  2  3  4  2  3  4  2  3  4  5  6  7  8  9 10  5  6
TYPE ASSIGNMENTS      7  8  9 10  5  6  7  8  9 10 11 12 13 17 14 15 18 19 16 20
TYPE ASSIGNMENTS     11 12 13 17 14 15 18 19 16 20  1  1  1  1  1  1  2  3  4  2
TYPE ASSIGNMENTS      3  4  2  3  4  5  6  7  8  9 10  5  6  7  8  9 10  1  1  1
TYPE ASSIGNMENTS      1  1  1  2  3  4  2  3  4  2  3  4  5  6  7  8  9 10  5  6
TYPE ASSIGNMENTS      7  8  9 10  1  1  1  1  1  1  2  3  4  2  3  4  2  3  4  5
TYPE ASSIGNMENTS      6  7  8  9 10  5  6  7  8  9 10  1  1  1  1  1  1  1  1  1
TYPE ASSIGNMENTS      1  1  1  1  1  1  1  1  1  1  2  2  2  3  3  3  4  4  4  2
TYPE ASSIGNMENTS      3  4  2  3  4  2  3  4  5  6  7  8  9 10  5  6  7  8  9 10
TYPE ASSIGNMENTS      5  6  7  8  9 10 11 12 13 17 14 15 18 19 16 20 11 12 13 17
TYPE ASSIGNMENTS     14 15 18 19 16 20  1  1  1  1  1  1  2  3  4  2  3  4  2  3
TYPE ASSIGNMENTS      4  5  6  7  8  9 10  5  6  7  8  9 10  1  1  1  1  1  1  2
TYPE ASSIGNMENTS      3  4  2  3  4  2  3  4  5  6  7  8  9 10  5  6  7  8  9 10
TYPE ASSIGNMENTS      1  1  1  1  1  1  2  3  4  2  3  4  2  3  4  5  6  7  8  9
TYPE ASSIGNMENTS     10  5  6  7  8  9 10
EXPONENTS  0.8236000D+04 0.1235000D+04 0.2808000D+03 0.7927000D+02 0.2559000D+02
EXPONENTS  0.8997000D+01 0.3319000D+01 0.3643000D+00 0.8236000D+04 0.1235000D+04
EXPONENTS  0.2808000D+03 0.7927000D+02 0.2559000D+02 0.8997000D+01 0.3319000D+01
EXPONENTS  0.3643000D+00 0.9059000D+00 0.1285000D+00 0.4402000D-01 0.1871000D+02
EXPONENTS  0.4133000D+01 0.1200000D+01 0.1871000D+02 0.4133000D+01 0.1200000D+01
EXPONENTS  0.1871000D+02 0.4133000D+01 0.1200000D+01 0.3827000D+00 0.3827000D+00
EXPONENTS  0.3827000D+00 0.1209000D+00 0.1209000D+00 0.1209000D+00 0.3569000D-01
EXPONENTS  0.3569000D-01 0.3569000D-01 0.1097000D+01 0.1097000D+01 0.1097000D+01
EXPONENTS  0.1097000D+01 0.1097000D+01 0.1097000D+01 0.3180000D+00 0.3180000D+00
EXPONENTS  0.3180000D+00 0.3180000D+00 0.3180000D+00 0.3180000D+00 0.1000000D+00
EXPONENTS  0.1000000D+00 0.1000000D+00 0.1000000D+00 0.1000000D+00 0.1000000D+00
EXPONENTS  0.7610000D+00 0.7610000D+00 0.7610000D+00 0.7610000D+00 0.7610000D+00
EXPONENTS  0.7610000D+00 0.7610000D+00 0.7610000D+00 0.7610000D+00 0.7610000D+00
EXPONENTS  0.2680000D+00 0.2680000D+00 0.2680000D+00 0.2680000D+00 0.2680000D+00
EXPONENTS  0.2680000D+00 0.2680000D+00 0.2680000D+00 0.2680000D+00 0.2680000D+00
EXPONENTS  0.8236000D+04 0.1235000D+04 0.2808000D+03 0.7927000D+02 0.2559000D+02
EXPONENTS  0.8997000D+01 0.3319000D+01 0.3643000D+00 0.8236000D+04 0.1235000D+04
EXPONENTS  0.2808000D+03 0.7927000D+02 0.2559000D+02 0.8997000D+01 0.3319000D+01
EXPONENTS  0.3643000D+00 0.9059000D+00 0.1285000D+00 0.4402000D-01 0.1871000D+02
EXPONENTS  0.4133000D+01 0.1200000D+01 0.1871000D+02 0.4133000D+01 0.1200000D+01
EXPONENTS  0.1871000D+02 0.4133000D+01 0.1200000D+01 0.3827000D+00 0.3827000D+00
EXPONENTS  0.3827000D+00 0.1209000D+00 0.1209000D+00 0.1209000D+00 0.3569000D-01
EXPONENTS  0.3569000D-01 0.3569000D-01 0.1097000D+01 0.1097000D+01 0.1097000D+01
EXPONENTS  0.1097000D+01 0.1097000D+01 0.1097000D+01 0.3180000D+00 0.3180000D+00
EXPONENTS  0.3180000D+00 0.3180000D+00 0.3180000D+00 0.3180000D+00 0.1000000D+00
EXPONENTS  0.1000000D+00 0.1000000D+00 0.1000000D+00 0.1000000D+00 0.1000000D+00
EXPONENTS  0.7610000D+00 0.7610000D+00 0.7610000D+00 0.7610000D+00 0.7610000D+00
EXPONENTS  0.7610000D+00 0.7610000D+00 0.7610000D+00 0.7610000D+00 0.7610000D+00
EXPONENTS  0.2680000D+00 0.2680000D+00 0.2680000D+00 0.2680000D+00 0.2680000D+00
EXPONENTS  0.2680000D+00 0.2680000D+00 0.2680000D+00 0.2680000D+00 0.2680000D+00
EXPONENTS  0.3387000D+02 0.5095000D+01 0.1159000D+01 0.3258000D+00 0.1027000D+00
EXPONENTS  0.2526000D-01 0.1407000D+01 0.1407000D+01 0.1407000D+01 0.3880000D+00
EXPONENTS  0.3880000D+00 0.3880000D+00 0.1020000D+00 0.1020000D+00 0.1020000D+00
EXPONENTS  0.1057000D+01 0.1057000D+01 0.1057000D+01 0.1057000D+01 0.1057000D+01
EXPONENTS  0.1057000D+01 0.2470000D+00 0.2470000D+00 0.2470000D+00 0.2470000D+00
EXPONENTS  0.2470000D+00 0.2470000D+00 0.3387000D+02 0.5095000D+01 0.1159000D+01
EXPONENTS  0.3258000D+00 0.1027000D+00 0.2526000D-01 0.1407000D+01 0.1407000D+01
EXPONENTS  0.1407000D+01 0.3880000D+00 0.3880000D+00 0.3880000D+00 0.1020000D+00
EXPONENTS  0.1020000D+00 0.1020000D+00 0.1057000D+01 0.1057000D+01 0.1057000D+01
EXPONENTS  0.1057000D+01 0.1057000D+01 0.1057000D+01 0.2470000D+00 0.2470000D+00
EXPONENTS  0.2470000D+00 0.2470000D+00 0.2470000D+00 0.2470000D+00 0.3387000D+02
EXPONENTS  0.5095000D+01 0.1159000D+01 0.3258000D+00 0.1027000D+00 0.2526000D-01
EXPONENTS  0.1407000D+01 0.1407000D+01 0.1407000D+01 0.3880000D+00 0.3880000D+00
EXPONENTS  0.3880000D+00 0.1020000D+00 0.1020000D+00 0.1020000D+00 0.1057000D+01
EXPONENTS  0.1057000D+01 0.1057000D+01 0.1057000D+01 0.1057000D+01 0.1057000D+01
EXPONENTS  0.2470000D+00 0.2470000D+00 0.2470000D+00 0.2470000D+00 0.2470000D+00
EXPONENTS  0.2470000D+00 0.8236000D+04 0.1235000D+04 0.2808000D+03 0.7927000D+02
EXPONENTS  0.2559000D+02 0.8997000D+01 0.3319000D+01 0.3643000D+00 0.8236000D+04
EXPONENTS  0.1235000D+04 0.2808000D+03 0.7927000D+02 0.2559000D+02 0.8997000D+01
EXPONENTS  0.3319000D+01 0.3643000D+00 0.9059000D+00 0.1285000D+00 0.4402000D-01
EXPONENTS  0.1871000D+02 0.4133000D+01 0.1200000D+01 0.1871000D+02 0.4133000D+01
EXPONENTS  0.1200000D+01 0.1871000D+02 0.4133000D+01 0.1200000D+01 0.3827000D+00
EXPONENTS  0.3827000D+00 0.3827000D+00 0.1209000D+00 0.1209000D+00 0.1209000D+00
EXPONENTS  0.3569000D-01 0.3569000D-01 0.3569000D-01 0.1097000D+01 0.1097000D+01
EXPONENTS  0.1097000D+01 0.1097000D+01 0.1097000D+01 0.1097000D+01 0.3180000D+00
EXPONENTS  0.3180000D+00 0.3180000D+00 0.3180000D+00 0.3180000D+00 0.3180000D+00
EXPONENTS  0.1000000D+00 0.1000000D+00 0.1000000D+00 0.1000000D+00 0.1000000D+00
EXPONENTS  0.1000000D+00 0.7610000D+00 0.7610000D+00 0.7610000D+00 0.7610000D+00
EXPONENTS  0.7610000D+00 0.7610000D+00 0.7610000D+00 0.7610000D+00 0.7610000D+00
EXPONENTS  0.7610000D+00 0.2680000D+00 0.2680000D+00 0.2680000D+00 0.2680000D+00
EXPONENTS  0.2680000D+00 0.2680000D+00 0.2680000D+00 0.2680000D+00 0.2680000D+00
EXPONENTS  0.2680000D+00 0.3387000D+02 0.5095000D+01 0.1159000D+01 0.3258000D+00
EXPONENTS  0.1027000D+00 0.2526000D-01 0.1407000D+01 0.1407000D+01 0.1407000D+01
EXPONENTS  0.3880000D+00 0.3880000D+00 0.3880000D+00 0.1020000D+00 0.1020000D+00
EXPONENTS  0.1020000D+00 0.1057000D+01 0.1057000D+01 0.1057000D+01 0.1057000D+01
EXPONENTS  0.1057000D+01 0.1057000D+01 0.2470000D+00 0.2470000D+00 0.2470000D+00
EXPONENTS  0.2470000D+00 0.2470000D+00 0.2470000D+00 0.3387000D+02 0.5095000D+01
EXPONENTS  0.1159000D+01 0.3258000D+00 0.1027000D+00 0.2526000D-01 0.1407000D+01
EXPONENTS  0.1407000D+01 0.1407000D+01 0.3880000D+00 0.3880000D+00 0.3880000D+00
EXPONENTS  0.1020000D+00 0.1020000D+00 0.1020000D+00 0.1057000D+01 0.1057000D+01
EXPONENTS  0.1057000D+01 0.1057000D+01 0.1057000D+01 0.1057000D+01 0.2470000D+00
EXPONENTS  0.2470000D+00 0.2470000D+00 0.2470000D+00 0.2470000D+00 0.2470000D+00
EXPONENTS  0.3387000D+02 0.5095000D+01 0.1159000D+01 0.3258000D+00 0.1027000D+00
EXPONENTS  0.2526000D-01 0.1407000D+01 0.1407000D+01 0.1407000D+01 0.3880000D+00
EXPONENTS  0.3880000D+00 0.3880000D+00 0.1020000D+00 0.1020000D+00 0.1020000D+00
EXPONENTS  0.1057000D+01 0.1057000D+01 0.1057000D+01 0.1057000D+01 0.1057000D+01
EXPONENTS  0.1057000D+01 0.2470000D+00 0.2470000D+00 0.2470000D+00 0.2470000D+00
EXPONENTS  0.2470000D+00 0.2470000D+00
MO    1     MO 0.0        OCC NO =    2.0000000  ORB. ENERGY =  -10.055403
  0.75720937D-02  0.14116104D-01  0.23858703D-01  0.35867446D-01  0.44067301D-01
  0.37221881D-01  0.14038724D-01 -0.69478428D-04 -0.24907715D-03 -0.46635101D-03
 -0.79400249D-03 -0.12282011D-02 -0.16174977D-02 -0.16806837D-02 -0.10679990D-02
  0.71574812D-03  0.28156128D-02 -0.10366671D-01 -0.77869043D-03 -0.12482380D-02
 -0.11703025D-02 -0.83332510D-03  0.28364873D-03  0.26593871D-03  0.18936420D-03
 -0.48422299D-15 -0.45398983D-15 -0.32326780D-15  0.21729987D-02 -0.90325968D-03
  0.26982172D-15  0.18468345D-02 -0.43210962D-03 -0.25437526D-15  0.38720529D-04
 -0.30706702D-04 -0.11446577D-16 -0.75526392D-03  0.57895191D-03  0.17631201D-03
  0.86198634D-03  0.15283415D-15  0.26626353D-15 -0.21966445D-02  0.86597543D-03
  0.13306691D-02  0.92495831D-04 -0.49951726D-15 -0.65487220D-16  0.27323835D-04
 -0.83586524D-04  0.56262688D-04  0.63828481D-03  0.16421663D-15  0.57876232D-16
  0.75512832D-03  0.25900791D-03 -0.39109103D-16 -0.12288728D-02 -0.11864956D-02
  0.68346988D-16 -0.10365121D-02  0.40947185D-03  0.48980320D-16 -0.17929638D-15
  0.25302344D-03  0.14056208D-03  0.21379968D-16 -0.65994699D-03 -0.41305313D-03
  0.11678070D-15 -0.99123321D-04 -0.86331199D-05 -0.18092061D-15 -0.46501160D-16
  0.32943055D+00  0.61413344D+00  0.10379937D+01  0.15604445D+01  0.19171864D+01
  0.16193704D+01  0.61076694D+00 -0.30227197D-02 -0.26610591D-02 -0.49823422D-02
 -0.84828638D-02 -0.13121700D-01 -0.17280818D-01 -0.17955877D-01 -0.11410154D-01
  0.76468196D-02  0.32382190D-01  0.18812256D-02 -0.24395157D-03 -0.12082282D-02
 -0.11327907D-02 -0.80661446D-03 -0.84720526D-04 -0.79430878D-04 -0.56559517D-04
 -0.31066598D-15 -0.29126910D-15 -0.20740095D-15  0.34938135D-02  0.22759089D-03
  0.30243814D-15  0.18583455D-02 -0.14878514D-02  0.61800195D-15  0.75335460D-04
  0.34145840D-04 -0.79590703D-17  0.19484549D-02  0.95705510D-03 -0.29055100D-02
 -0.11361425D-02  0.73379811D-15  0.89193241D-15  0.37922678D-04 -0.51228073D-04
  0.13305395D-04 -0.23944030D-02 -0.10493555D-14 -0.58620885D-15  0.59335491D-03
 -0.59843945D-03  0.50845448D-05  0.51196713D-03 -0.30310890D-16  0.75040934D-16
  0.78664391D-03  0.90009551D-03  0.54472039D-16 -0.19602269D-02 -0.19945844D-02
 -0.13809359D-15 -0.39970481D-03 -0.70570215D-03 -0.25322526D-16  0.19244060D-15
 -0.27258836D-03 -0.24320815D-03 -0.36915511D-16  0.61630340D-03  0.60249824D-03
  0.79014403D-16  0.20146169D-03  0.12712622D-03  0.31732129D-16  0.40867757D-15
  0.73248636D-04  0.13210693D-03  0.19479159D-03  0.90865999D-03  0.36714438D-02
 -0.41957194D-04 -0.39730364D-03  0.28816300D-03 -0.33296365D-15  0.91920266D-03
 -0.23044523D-03  0.43574817D-15  0.10363372D-03  0.43605436D-03  0.40928412D-16
 -0.13909820D-03 -0.12932666D-04  0.15203087D-03  0.41700273D-03  0.16439090D-15
  0.10291949D-15 -0.94628577D-04 -0.18550542D-04  0.11317912D-03  0.30311274D-03
 -0.15290843D-15  0.89498436D-17  0.55018119D-04  0.99227443D-04  0.14631081D-03
  0.28573640D-02 -0.34035000D-02  0.77089262D-05 -0.44694009D-03 -0.13495601D-03
 -0.69505730D-16 -0.28212706D-06 -0.90560652D-03  0.26449192D-15  0.34172175D-03
  0.25454049D-03 -0.13728742D-15 -0.24918058D-03  0.87008920D-04  0.16217166D-03
  0.27931604D-03 -0.87779363D-16 -0.13702651D-15 -0.21250890D-03  0.10654463D-03
  0.10596427D-03  0.50080292D-04 -0.12200945D-15  0.49887691D-16  0.15908235D-05
  0.28691157D-05  0.42305094D-05 -0.14083255D-03  0.73461161D-02 -0.86832928D-05
 -0.38365851D-03  0.14414554D-02 -0.78070891D-16 -0.21404253D-04  0.21036362D-02
  0.19871244D-15  0.31895458D-03 -0.55467023D-03 -0.14826302D-15  0.90420413D-03
 -0.18292394D-02  0.92503524D-03  0.11555347D-02  0.83337030D-16 -0.85146438D-16
  0.16896752D-04 -0.26010858D-03  0.24321183D-03  0.14332561D-04 -0.70683853D-16
 -0.61128144D-16  0.58754118D-02  0.10953103D-01  0.18512674D-01  0.27830613D-01
  0.34193124D-01  0.28881560D-01  0.10893062D-01 -0.53910370D-04 -0.17864534D-03
 -0.33448043D-03 -0.56948156D-03 -0.88090138D-03 -0.11601161D-02 -0.12054350D-02
 -0.76599980D-03  0.51335526D-03  0.96017100D-03 -0.31395307D-03  0.61029782D-03
  0.71737268D-04  0.67258249D-04  0.47891880D-04  0.21573550D-03  0.20226575D-03
  0.14402526D-03 -0.33642540D-15 -0.31542020D-15 -0.22459797D-15  0.19051977D-02
  0.12063062D-02  0.61129156D-15 -0.44203063D-04 -0.67895170D-03 -0.34687040D-14
  0.49009103D-04  0.38311223D-04 -0.10341058D-16  0.40106994D-03 -0.26733486D-05
 -0.39839659D-03  0.84965738D-03 -0.77629939D-15  0.43654737D-15 -0.31958268D-03
 -0.10961305D-04  0.33054399D-03 -0.71693431D-03 -0.22283319D-15 -0.54869480D-15
  0.12516492D-03 -0.18585033D-03  0.60685414D-04 -0.60138305D-04  0.62397544D-15
 -0.57550014D-15  0.81822576D-04  0.23712852D-03  0.20649135D-16 -0.67339146D-03
 -0.10722433D-02  0.52681704D-16  0.42792373D-03  0.36085776D-03 -0.11462911D-15
 -0.15544771D-15 -0.10439334D-03 -0.19606541D-03  0.98878832D-16  0.62232830D-04
 -0.41385463D-04 -0.14377229D-15  0.25094718D-03  0.62958169D-03 -0.15286420D-15
 -0.35604947D-15 -0.27241467D-04 -0.49131107D-04 -0.72443789D-04 -0.88750374D-03
  0.11651979D-02  0.36049503D-04  0.43150584D-08  0.35567757D-04 -0.48992771D-15
 -0.31706265D-03  0.92197032D-04  0.39108631D-15 -0.20012147D-03  0.47094651D-04
 -0.69197808D-15  0.80110109D-04 -0.48832156D-04 -0.31277953D-04 -0.78049370D-03
 -0.63784098D-16 -0.18642873D-16 -0.44090719D-04 -0.92490719D-05  0.53339791D-04
 -0.25769871D-03 -0.12663892D-15 -0.41702350D-16 -0.11834371D-04 -0.21343775D-04
 -0.31471383D-04  0.21652534D-03 -0.16460617D-02  0.30232740D-04 -0.19347345D-04
  0.12939329D-03 -0.11578008D-03 -0.24926710D-03 -0.91941409D-03 -0.34611401D-03
 -0.14803910D-03 -0.43475035D-04  0.13531312D-03 -0.41449513D-03  0.68283758D-04
  0.34621138D-03 -0.55680101D-03 -0.34272557D-05  0.54498332D-03 -0.88018672D-04
  0.51268385D-04  0.36750287D-04 -0.21181851D-03 -0.12174614D-03  0.11827824D-04
 -0.11834371D-04 -0.21343775D-04 -0.31471383D-04  0.21652534D-03 -0.16460617D-02
  0.30232740D-04 -0.19347345D-04  0.12939329D-03  0.11578008D-03 -0.24926710D-03
 -0.91941409D-03  0.34611401D-03 -0.14803910D-03 -0.43475035D-04 -0.13531312D-03
 -0.41449513D-03  0.68283758D-04  0.34621138D-03 -0.55680101D-03  0.34272557D-05
 -0.54498332D-03 -0.88018672D-04  0.51268385D-04  0.36750287D-04 -0.21181851D-03
  0.12174614D-03 -0.11827824D-04
MO    2     MO 0.0        OCC NO =    2.0000000  ORB. ENERGY =  -10.049784
  0.32132972D-04  0.59903167D-04  0.10124690D-03  0.15220726D-03  0.18700421D-03
  0.15795495D-03  0.59574795D-04 -0.29483898D-06 -0.11018327D-03 -0.20629784D-03
 -0.35123973D-03 -0.54331445D-03 -0.71552602D-03 -0.74347737D-03 -0.47244649D-03
  0.31662265D-03  0.39492729D-03 -0.14270440D-02  0.85652103D-03  0.47551899D-04
  0.44582928D-04  0.31745701D-04 -0.48075849D-04 -0.45074164D-04 -0.32095490D-04
 -0.24263478D-15 -0.22748553D-15 -0.16198325D-15 -0.20101461D-02  0.75028019D-03
 -0.62034272D-15  0.11992654D-02 -0.13074483D-02 -0.54961719D-16 -0.39071842D-04
 -0.17786803D-05 -0.99844898D-16  0.13631810D-03 -0.16167091D-03  0.25352814D-04
  0.15344418D-03  0.76440165D-15  0.48102119D-15  0.30252537D-03 -0.62548885D-03
  0.32296347D-03 -0.20896684D-02  0.16393391D-14  0.77573278D-17 -0.68554768D-04
  0.11667656D-03 -0.48121796D-04  0.54326139D-04  0.90198546D-15  0.63373691D-15
  0.80731605D-04  0.19355909D-04  0.91295122D-16 -0.24802608D-03  0.10148386D-03
 -0.71359646D-15  0.58312636D-05 -0.15955159D-03  0.43971110D-15 -0.20879421D-15
 -0.10060560D-03 -0.26137193D-03 -0.39657536D-16  0.52395082D-03  0.54616354D-03
 -0.41066565D-15 -0.22213400D-03  0.23795227D-03  0.52963826D-15 -0.37974901D-15
 -0.55012725D-02 -0.10255623D-01 -0.17333809D-01 -0.26058393D-01 -0.32015747D-01
 -0.27042416D-01 -0.10199404D-01  0.50477421D-04 -0.12393135D-03 -0.23203859D-03
 -0.39506556D-03 -0.61110635D-03 -0.80480556D-03 -0.83624453D-03 -0.53139586D-03
  0.35612915D-03  0.30532933D-03 -0.69770145D-03 -0.60437413D-03 -0.23957885D-03
 -0.22462040D-03 -0.15994311D-03 -0.25197705D-03 -0.23624450D-03 -0.16822016D-03
  0.20308224D-15  0.19040251D-15  0.13557793D-15 -0.19926837D-02  0.46440686D-03
 -0.12101712D-14  0.17785449D-02 -0.11865692D-02  0.72876756D-15 -0.61052350D-04
 -0.17778460D-04 -0.49337324D-16 -0.18559987D-03  0.19443777D-03 -0.88378980D-05
  0.15766604D-03 -0.15328251D-14  0.21400341D-14 -0.67330626D-03  0.33124090D-03
  0.34206536D-03 -0.11181622D-02  0.48855457D-14  0.86174211D-15  0.18910712D-03
 -0.24059629D-03  0.51489172D-04 -0.93656239D-04 -0.58755057D-15  0.61481646D-15
 -0.31835609D-04 -0.91948528D-05  0.24582707D-15  0.35110956D-03  0.66531591D-03
  0.52054807D-15 -0.25560273D-03 -0.63773136D-03 -0.12580293D-14 -0.71874462D-15
 -0.30232226D-03 -0.33891823D-03  0.18671650D-15  0.13707739D-02  0.87109810D-03
 -0.79674088D-15 -0.46380710D-03  0.14565660D-03  0.23659137D-15 -0.31058448D-14
 -0.29277033D-04 -0.52802335D-04 -0.77857012D-04 -0.14084616D-02 -0.20833628D-02
 -0.95462254D-05 -0.18086798D-04 -0.52772359D-04 -0.39720993D-15 -0.62638917D-03
  0.40181634D-03 -0.71050692D-15  0.83581969D-04 -0.14978743D-03  0.21522944D-15
  0.72479740D-04  0.16509711D-03 -0.23757685D-03 -0.62716032D-03  0.11090985D-14
 -0.40044948D-15  0.20423576D-04  0.72071053D-04 -0.92494629D-04 -0.12147613D-03
 -0.43408623D-15 -0.32039776D-15 -0.43786577D-04 -0.78970895D-04 -0.11644254D-03
  0.10674218D-02 -0.33789457D-03  0.29100992D-04  0.31563607D-05 -0.80464619D-04
  0.30373063D-15 -0.13207656D-02 -0.36844359D-03 -0.45010288D-15  0.12306327D-04
 -0.72874121D-04 -0.99892420D-15  0.39579176D-03 -0.12082606D-03 -0.27496570D-03
  0.17078878D-03  0.12155750D-14 -0.66340995D-15  0.48565554D-04  0.35727453D-04
 -0.84293007D-04  0.57510391D-04 -0.29011029D-15  0.91063969D-16  0.10624133D-03
  0.19161061D-03  0.28252974D-03  0.19281347D-02  0.32988879D-02  0.40467482D-04
  0.25986961D-03 -0.30710225D-03  0.65887678D-15 -0.60201030D-03  0.74028528D-03
 -0.12186181D-14  0.17055929D-03 -0.26486597D-03 -0.10369521D-14 -0.10829224D-03
 -0.34823425D-03  0.45652650D-03 -0.14794832D-03  0.69054938D-15 -0.61919855D-15
 -0.16307986D-04 -0.12725535D-03  0.14356333D-03 -0.27514843D-04  0.25611565D-15
  0.28223543D-15  0.32980150D+00  0.61482497D+00  0.10391625D+01  0.15622016D+01
  0.19193452D+01  0.16211939D+01  0.61145468D+00 -0.30261233D-02 -0.28259215D-02
 -0.52910166D-02 -0.90084085D-02 -0.13934638D-01 -0.18351428D-01 -0.19068310D-01
 -0.12117055D-01  0.81205683D-02  0.31987453D-01 -0.27233859D-02 -0.44148701D-03
 -0.28220647D-04 -0.26458650D-04 -0.18840135D-04 -0.66000912D-05 -0.61880051D-05
 -0.44062282D-05  0.11012200D-13  0.10324637D-13  0.73517568D-14  0.66928109D-03
  0.83338880D-03 -0.39757693D-13 -0.15444897D-03  0.17822950D-03 -0.28657639D-13
 -0.20772084D-04 -0.22108096D-04  0.10583130D-15 -0.43361617D-04  0.60424507D-04
 -0.17062890D-04 -0.90363658D-03  0.47542959D-14 -0.39260191D-14  0.10698090D-04
 -0.34200905D-03  0.33131096D-03  0.57835918D-03  0.38963469D-13 -0.60678785D-14
 -0.14435492D-04 -0.56461538D-04  0.70897029D-04  0.16385297D-04  0.53874249D-14
 -0.31606367D-14  0.23021937D-03 -0.78007740D-03 -0.55417478D-15  0.20889515D-02
  0.99171473D-03 -0.61984606D-14 -0.27796097D-02  0.13485175D-02  0.78609849D-14
  0.70419704D-14 -0.67314825D-04  0.84592176D-04  0.32244724D-15 -0.63105542D-03
 -0.42953973D-05 -0.41828778D-14  0.83299990D-03 -0.24948113D-03  0.32155361D-14
  0.34997207D-14 -0.64440406D-04 -0.11622093D-03 -0.17136769D-03  0.18186813D-02
  0.15096787D-02 -0.20629420D-04  0.44970295D-03 -0.14443211D-02  0.30433957D-15
  0.76030985D-03 -0.40405239D-03 -0.40603620D-14  0.63549768D-05  0.10009562D-03
 -0.50124172D-14  0.49722172D-03 -0.11748292D-02  0.67760745D-03  0.15050022D-02
 -0.27873496D-15 -0.85516769D-15  0.66073161D-04 -0.16045238D-03  0.94379216D-04
  0.15678511D-03  0.67569443D-15 -0.19965561D-14 -0.61684609D-04 -0.11125073D-03
 -0.16403914D-03  0.97914386D-03 -0.24797373D-03 -0.14860703D-04 -0.10160997D-02
  0.18059513D-03  0.11674097D-02 -0.58359838D-03  0.18189930D-03  0.92880344D-03
 -0.13373641D-03  0.26719719D-04  0.70700032D-04 -0.17982066D-03  0.80711825D-03
 -0.62729760D-03  0.41697834D-03  0.21617230D-02 -0.30074936D-03 -0.68388787D-05
  0.10695115D-03 -0.10011227D-03  0.11509035D-03  0.29240674D-03 -0.46652662D-04
 -0.61684609D-04 -0.11125073D-03 -0.16403914D-03  0.97914386D-03 -0.24797373D-03
 -0.14860703D-04 -0.10160997D-02  0.18059513D-03 -0.11674097D-02 -0.58359838D-03
  0.18189930D-03 -0.92880344D-03 -0.13373641D-03  0.26719719D-04 -0.70700032D-04
 -0.17982066D-03  0.80711825D-03 -0.62729760D-03  0.41697834D-03 -0.21617230D-02
  0.30074936D-03 -0.68388787D-05  0.10695115D-03 -0.10011227D-03  0.11509035D-03
 -0.29240674D-03  0.46652662D-04
MO    3     MO 0.0        OCC NO =    2.0000000  ORB. ENERGY =  -10.039172
  0.32960797D+00  0.61446419D+00  0.10385527D+01  0.15612849D+01  0.19182189D+01
  0.16202425D+01  0.61109588D+00 -0.30243476D-02 -0.27596714D-02 -0.51669757D-02
 -0.87972182D-02 -0.13607959D-01 -0.17921203D-01 -0.18621278D-01 -0.11832986D-01
  0.79301922D-02  0.32269112D-01  0.10665392D-01  0.11648049D-03  0.93127584D-03
  0.87313029D-03  0.62172078D-03 -0.28074921D-03 -0.26322023D-03 -0.18742849D-03
 -0.78840156D-15 -0.73917658D-15 -0.52633776D-15 -0.40381525D-02  0.98273647D-03
 -0.21104861D-15 -0.43295986D-02  0.10440212D-02 -0.34481671D-15 -0.45877010D-04
 -0.34668660D-04 -0.55745256D-16  0.21466567D-02  0.11384064D-02 -0.32850631D-02
 -0.38008853D-03  0.84431859D-15  0.69441970D-15  0.67619101D-03 -0.50900895D-03
 -0.16718205D-03 -0.16464136D-02  0.13480647D-14 -0.22532721D-15  0.44651903D-03
 -0.45887139D-03  0.12352362D-04  0.35919844D-03  0.10528291D-14  0.68741199D-15
 -0.86283963D-03 -0.94852651D-03  0.31793565D-16  0.27585139D-02  0.27750080D-02
 -0.62741369D-15 -0.16999502D-03  0.70571551D-04  0.53203299D-15 -0.82463124D-16
  0.13707251D-03  0.10905378D-03 -0.65527433D-16 -0.43419830D-03 -0.30818664D-03
 -0.27127361D-15  0.22980766D-04 -0.18974701D-04  0.46785591D-15 -0.22625639D-15
 -0.72079226D-02 -0.13437207D-01 -0.22711246D-01 -0.34142443D-01 -0.41947936D-01
 -0.35431737D-01 -0.13363548D-01  0.66136944D-04 -0.10556532D-03 -0.19765159D-03
 -0.33651875D-03 -0.52054334D-03 -0.68553727D-03 -0.71231713D-03 -0.45264556D-03
  0.30335253D-03  0.11980691D-02 -0.14883685D-01 -0.10866887D-02  0.12860351D-02
  0.12057397D-02  0.85855849D-03 -0.36625299D-03 -0.34338546D-03 -0.24451091D-03
  0.18133056D-15  0.17000893D-15  0.12105648D-15 -0.31815522D-02  0.12079808D-02
 -0.17556904D-14 -0.55295888D-02  0.96748821D-04  0.14116993D-14  0.18723064D-04
  0.74349127D-04 -0.11614280D-15 -0.65561407D-03  0.39704330D-03  0.25857077D-03
  0.11019756D-02 -0.54550081D-15  0.24804474D-14 -0.26355570D-02  0.13493479D-02
  0.12862091D-02  0.85663711D-03  0.41323425D-14  0.77240540D-15  0.11724722D-03
 -0.18414738D-03  0.66900157D-04  0.14496865D-02 -0.55815169D-15  0.59911983D-15
 -0.67533931D-03 -0.32233021D-03  0.29755232D-15  0.11219257D-02  0.12973079D-02
  0.90760792D-15  0.90409224D-03 -0.33031725D-03 -0.18002649D-14 -0.44090195D-15
 -0.34995996D-03 -0.30705335D-03  0.27381095D-15  0.69480210D-03  0.87453236D-03
 -0.64340140D-15  0.35507778D-03  0.46627692D-04 -0.17803144D-15 -0.27939268D-14
  0.88252518D-05  0.15916705D-04  0.23469172D-04 -0.46333955D-03  0.63517533D-02
 -0.68955918D-05  0.46820679D-03 -0.15371330D-02 -0.60975006D-15  0.17837505D-03
 -0.14440218D-02 -0.55225555D-15 -0.41050645D-03  0.50498615D-03  0.25471826D-15
  0.70280648D-03 -0.15197571D-02  0.81695063D-03  0.14858619D-02  0.13143296D-14
 -0.54421526D-15  0.54597926D-04 -0.19717343D-03  0.14257550D-03 -0.52201199D-05
 -0.48013276D-15 -0.29072408D-15 -0.11239636D-04 -0.20271146D-04 -0.29889793D-04
  0.74888657D-03 -0.23528507D-02  0.63133579D-04  0.11399626D-02  0.10890574D-02
  0.25899586D-15  0.53636709D-03  0.80439597D-03 -0.51754678D-15  0.33461401D-04
  0.60896777D-03 -0.11729019D-14 -0.51581678D-03 -0.36538257D-03  0.88119936D-03
 -0.25731588D-02  0.13022383D-14 -0.64253733D-15 -0.38859588D-04 -0.10391686D-03
  0.14277645D-03 -0.13480318D-03 -0.35428289D-15  0.18254526D-15  0.58556331D-04
  0.10560875D-03  0.15572005D-03  0.12767271D-02  0.48375691D-02 -0.55555875D-04
  0.17016598D-03 -0.38399703D-03  0.30720994D-15 -0.67073757D-03  0.53692759D-03
 -0.23404447D-15 -0.45701901D-03 -0.52122487D-03 -0.86783922D-15 -0.13207915D-03
 -0.27538774D-04  0.15961793D-03  0.45565315D-03  0.14457110D-14 -0.11536151D-14
 -0.17402399D-03 -0.13279773D-04  0.18730376D-03  0.29455522D-03  0.11919996D-15
  0.51063926D-16  0.13210106D-03  0.24626641D-03  0.41623361D-03  0.62573545D-03
  0.76878830D-03  0.64936462D-03  0.24491644D-03 -0.12121051D-05 -0.10466616D-03
 -0.19596807D-03 -0.33365241D-03 -0.51610954D-03 -0.67969811D-03 -0.70624988D-03
 -0.44879009D-03  0.30076868D-03  0.33112283D-03 -0.49584054D-02  0.65547427D-03
 -0.18615835D-03 -0.17453528D-03 -0.12427952D-03 -0.38204234D-04 -0.35818898D-04
 -0.25505189D-04  0.11592734D-13  0.10868925D-13  0.77393223D-14  0.19223187D-02
  0.89761904D-03 -0.47670346D-13 -0.74070911D-03 -0.19669574D-02 -0.37947536D-13
  0.41726573D-04  0.72010791D-05 -0.17843195D-15  0.56466431D-03 -0.20382841D-03
 -0.36083590D-03  0.56818718D-03  0.79868362D-14 -0.34687953D-14 -0.57384549D-03
  0.91982845D-03 -0.34598296D-03  0.64740154D-03  0.44543587D-13 -0.94809227D-14
  0.14034028D-04  0.13291174D-04 -0.27325202D-04 -0.15912613D-03  0.63754348D-14
 -0.41887757D-14 -0.89847812D-04  0.36579715D-04 -0.91982907D-15 -0.19632120D-03
  0.10454439D-03 -0.71934400D-14  0.46586464D-03 -0.21428354D-03  0.99529272D-14
  0.88870368D-14 -0.23001301D-03 -0.17100724D-03 -0.50745772D-16  0.29870676D-03
  0.22596386D-03 -0.35749703D-14  0.39133226D-03  0.28705785D-03  0.37272076D-14
  0.34590481D-14 -0.50855317D-04 -0.91719658D-04 -0.13524058D-03 -0.12551756D-02
 -0.18055126D-02 -0.38188294D-04  0.86718930D-04 -0.28778457D-04  0.11092943D-15
  0.68861949D-03  0.31475322D-03 -0.53855673D-14 -0.58076256D-04 -0.17003619D-03
 -0.59074485D-14 -0.11398597D-03  0.29244632D-03 -0.17846034D-03  0.46865316D-03
 -0.56152396D-15 -0.21155429D-14 -0.60171623D-04  0.73020991D-04 -0.12849368D-04
 -0.86109187D-04  0.62940931D-15 -0.24716291D-14 -0.10390878D-04 -0.18740376D-04
 -0.27632674D-04  0.16439945D-02 -0.73427634D-03  0.34535097D-04 -0.38918484D-04
 -0.42529597D-04 -0.21447927D-03  0.60576577D-03 -0.41537624D-03 -0.59404524D-03
 -0.81759188D-04 -0.30843023D-04  0.57225781D-04 -0.93293355D-04 -0.49898163D-04
  0.14319152D-03 -0.15712315D-03 -0.38107894D-03  0.23916546D-03 -0.20696996D-04
  0.15620111D-04  0.50768848D-05 -0.98763027D-04 -0.17846553D-03 -0.24290643D-04
 -0.10390878D-04 -0.18740376D-04 -0.27632674D-04  0.16439945D-02 -0.73427634D-03
  0.34535097D-04 -0.38918484D-04 -0.42529597D-04  0.21447927D-03  0.60576577D-03
 -0.41537624D-03  0.59404524D-03 -0.81759188D-04 -0.30843023D-04 -0.57225781D-04
 -0.93293355D-04 -0.49898163D-04  0.14319152D-03 -0.15712315D-03  0.38107894D-03
 -0.23916546D-03 -0.20696996D-04  0.15620111D-04  0.50768848D-05 -0.98763027D-04
  0.17846553D-03  0.24290643D-04
MO    4     MO 0.0        OCC NO =    2.0000000  ORB. ENERGY =   -0.749585
 -0.54342131D-02 -0.10130609D-01 -0.17122513D-01 -0.25740746D-01 -0.31625481D-01
 -0.26712774D-01 -0.10075076D-01  0.49862112D-04 -0.29973437D-01 -0.56119732D-01
 -0.95548645D-01 -0.14779923D+00 -0.19464638D+00 -0.20225006D+00 -0.12852083D+00
  0.86131673D-01  0.30742787D-01  0.45691781D-01 -0.14135374D-02 -0.11144406D+00
 -0.10448589D+00 -0.74400179D-01  0.20145097D-01  0.18887309D-01  0.13448889D-01
  0.17374890D-14  0.16290064D-14  0.11599496D-14 -0.26508900D-02 -0.25561272D-02
 -0.36166488D-17 -0.44522948D-02 -0.23724196D-02  0.92296849D-14  0.10200479D-03