 Molden2AIM, Version 4.0.0 (06/02/2016)           Time: Thu Jun 28 18:12:23 2018
GAUSSIAN             12 MOL ORBITALS    387 PRIMITIVES        9 NUCLEI
  C    1    (CENTRE  1)   0.00000000  1.64187532  0.00000000  CHARGE =  6.0
  C    2    (CENTRE  2)   1.42190175 -0.82089892  0.00000000  CHARGE =  6.0
  C    3    (CENTRE  3)  -1.42190175 -0.82089892  0.00000000  CHARGE =  6.0
  H    4    (CENTRE  4)   0.00000000  2.75763198  1.73024458  CHARGE =  1.0
  H    5    (CENTRE  5)   0.00000000  2.75763198 -1.73024458  CHARGE =  1.0
  H    6    (CENTRE  6)   2.38813761 -1.37883489 -1.73025403  CHARGE =  1.0
  H    7    (CENTRE  7)   2.38813761 -1.37883489  1.73025403  CHARGE =  1.0
  H    8    (CENTRE  8)  -2.38813761 -1.37883489  1.73025403  CHARGE =  1.0
  H    9    (CENTRE  9)  -2.38813761 -1.37883489 -1.73025403  CHARGE =  1.0
CENTRE ASSIGNMENTS    1  1  1  1  1  1  1  1  1  1  1  1  1  1  1  1  1  1  1  1
CENTRE ASSIGNMENTS    1  1  1  1  1  1  1  1  1  1  1  1  1  1  1  1  1  1  1  1
CENTRE ASSIGNMENTS    1  1  1  1  1  1  1  1  1  1  1  1  1  1  1  1  1  1  1  1
CENTRE ASSIGNMENTS    1  1  1  1  1  1  1  1  1  1  1  1  1  1  1  2  2  2  2  2
CENTRE ASSIGNMENTS    2  2  2  2  2  2  2  2  2  2  2  2  2  2  2  2  2  2  2  2
CENTRE ASSIGNMENTS    2  2  2  2  2  2  2  2  2  2  2  2  2  2  2  2  2  2  2  2
CENTRE ASSIGNMENTS    2  2  2  2  2  2  2  2  2  2  2  2  2  2  2  2  2  2  2  2
CENTRE ASSIGNMENTS    2  2  2  2  2  2  2  2  2  2  3  3  3  3  3  3  3  3  3  3
CENTRE ASSIGNMENTS    3  3  3  3  3  3  3  3  3  3  3  3  3  3  3  3  3  3  3  3
CENTRE ASSIGNMENTS    3  3  3  3  3  3  3  3  3  3  3  3  3  3  3  3  3  3  3  3
CENTRE ASSIGNMENTS    3  3  3  3  3  3  3  3  3  3  3  3  3  3  3  3  3  3  3  3
CENTRE ASSIGNMENTS    3  3  3  3  3  4  4  4  4  4  4  4  4  4  4  4  4  4  4  4
CENTRE ASSIGNMENTS    4  4  4  4  4  4  4  4  4  4  4  4  5  5  5  5  5  5  5  5
CENTRE ASSIGNMENTS    5  5  5  5  5  5  5  5  5  5  5  5  5  5  5  5  5  5  5  6
CENTRE ASSIGNMENTS    6  6  6  6  6  6  6  6  6  6  6  6  6  6  6  6  6  6  6  6
CENTRE ASSIGNMENTS    6  6  6  6  6  6  7  7  7  7  7  7  7  7  7  7  7  7  7  7
CENTRE ASSIGNMENTS    7  7  7  7  7  7  7  7  7  7  7  7  7  8  8  8  8  8  8  8
CENTRE ASSIGNMENTS    8  8  8  8  8  8  8  8  8  8  8  8  8  8  8  8  8  8  8  8
CENTRE ASSIGNMENTS    9  9  9  9  9  9  9  9  9  9  9  9  9  9  9  9  9  9  9  9
CENTRE ASSIGNMENTS    9  9  9  9  9  9  9
TYPE ASSIGNMENTS      1  1  1  1  1  1  1  1  1  1  1  1  1  1  1  1  1  1  1  2
TYPE ASSIGNMENTS      2  2  3  3  3  4  4  4  2  3  4  2  3  4  2  3  4  5  6  7
TYPE ASSIGNMENTS      8  9 10  5  6  7  8  9 10  5  6  7  8  9 10 11 12 13 17 14
TYPE ASSIGNMENTS     15 18 19 16 20 11 12 13 17 14 15 18 19 16 20  1  1  1  1  1
TYPE ASSIGNMENTS      1  1  1  1  1  1  1  1  1  1  1  1  1  1  2  2  2  3  3  3
TYPE ASSIGNMENTS      4  4  4  2  3  4  2  3  4  2  3  4  5  6  7  8  9 10  5  6
TYPE ASSIGNMENTS      7  8  9 10  5  6  7  8  9 10 11 12 13 17 14 15 18 19 16 20
TYPE ASSIGNMENTS     11 12 13 17 14 15 18 19 16 20  1  1  1  1  1  1  1  1  1  1
TYPE ASSIGNMENTS      1  1  1  1  1  1  1  1  1  2  2  2  3  3  3  4  4  4  2  3
TYPE ASSIGNMENTS      4  2  3  4  2  3  4  5  6  7  8  9 10  5  6  7  8  9 10  5
TYPE ASSIGNMENTS      6  7  8  9 10 11 12 13 17 14 15 18 19 16 20 11 12 13 17 14
TYPE ASSIGNMENTS     15 18 19 16 20  1  1  1  1  1  1  2  3  4  2  3  4  2  3  4
TYPE ASSIGNMENTS      5  6  7  8  9 10  5  6  7  8  9 10  1  1  1  1  1  1  2  3
TYPE ASSIGNMENTS      4  2  3  4  2  3  4  5  6  7  8  9 10  5  6  7  8  9 10  1
TYPE ASSIGNMENTS      1  1  1  1  1  2  3  4  2  3  4  2  3  4  5  6  7  8  9 10
TYPE ASSIGNMENTS      5  6  7  8  9 10  1  1  1  1  1  1  2  3  4  2  3  4  2  3
TYPE ASSIGNMENTS      4  5  6  7  8  9 10  5  6  7  8  9 10  1  1  1  1  1  1  2
TYPE ASSIGNMENTS      3  4  2  3  4  2  3  4  5  6  7  8  9 10  5  6  7  8  9 10
TYPE ASSIGNMENTS      1  1  1  1  1  1  2  3  4  2  3  4  2  3  4  5  6  7  8  9
TYPE ASSIGNMENTS     10  5  6  7  8  9 10
EXPONENTS  0.8236000D+04 0.1235000D+04 0.2808000D+03 0.7927000D+02 0.2559000D+02
EXPONENTS  0.8997000D+01 0.3319000D+01 0.3643000D+00 0.8236000D+04 0.1235000D+04
EXPONENTS  0.2808000D+03 0.7927000D+02 0.2559000D+02 0.8997000D+01 0.3319000D+01
EXPONENTS  0.3643000D+00 0.9059000D+00 0.1285000D+00 0.4402000D-01 0.1871000D+02
EXPONENTS  0.4133000D+01 0.1200000D+01 0.1871000D+02 0.4133000D+01 0.1200000D+01
EXPONENTS  0.1871000D+02 0.4133000D+01 0.1200000D+01 0.3827000D+00 0.3827000D+00
EXPONENTS  0.3827000D+00 0.1209000D+00 0.1209000D+00 0.1209000D+00 0.3569000D-01
EXPONENTS  0.3569000D-01 0.3569000D-01 0.1097000D+01 0.1097000D+01 0.1097000D+01
EXPONENTS  0.1097000D+01 0.1097000D+01 0.1097000D+01 0.3180000D+00 0.3180000D+00
EXPONENTS  0.3180000D+00 0.3180000D+00 0.3180000D+00 0.3180000D+00 0.1000000D+00
EXPONENTS  0.1000000D+00 0.1000000D+00 0.1000000D+00 0.1000000D+00 0.1000000D+00
EXPONENTS  0.7610000D+00 0.7610000D+00 0.7610000D+00 0.7610000D+00 0.7610000D+00
EXPONENTS  0.7610000D+00 0.7610000D+00 0.7610000D+00 0.7610000D+00 0.7610000D+00
EXPONENTS  0.2680000D+00 0.2680000D+00 0.2680000D+00 0.2680000D+00 0.2680000D+00
EXPONENTS  0.2680000D+00 0.2680000D+00 0.2680000D+00 0.2680000D+00 0.2680000D+00
EXPONENTS  0.8236000D+04 0.1235000D+04 0.2808000D+03 0.7927000D+02 0.2559000D+02
EXPONENTS  0.8997000D+01 0.3319000D+01 0.3643000D+00 0.8236000D+04 0.1235000D+04
EXPONENTS  0.2808000D+03 0.7927000D+02 0.2559000D+02 0.8997000D+01 0.3319000D+01
EXPONENTS  0.3643000D+00 0.9059000D+00 0.1285000D+00 0.4402000D-01 0.1871000D+02
EXPONENTS  0.4133000D+01 0.1200000D+01 0.1871000D+02 0.4133000D+01 0.1200000D+01
EXPONENTS  0.1871000D+02 0.4133000D+01 0.1200000D+01 0.3827000D+00 0.3827000D+00
EXPONENTS  0.3827000D+00 0.1209000D+00 0.1209000D+00 0.1209000D+00 0.3569000D-01
EXPONENTS  0.3569000D-01 0.3569000D-01 0.1097000D+01 0.1097000D+01 0.1097000D+01
EXPONENTS  0.1097000D+01 0.1097000D+01 0.1097000D+01 0.3180000D+00 0.3180000D+00
EXPONENTS  0.3180000D+00 0.3180000D+00 0.3180000D+00 0.3180000D+00 0.1000000D+00
EXPONENTS  0.1000000D+00 0.1000000D+00 0.1000000D+00 0.1000000D+00 0.1000000D+00
EXPONENTS  0.7610000D+00 0.7610000D+00 0.7610000D+00 0.7610000D+00 0.7610000D+00
EXPONENTS  0.7610000D+00 0.7610000D+00 0.7610000D+00 0.7610000D+00 0.7610000D+00
EXPONENTS  0.2680000D+00 0.2680000D+00 0.2680000D+00 0.2680000D+00 0.2680000D+00
EXPONENTS  0.2680000D+00 0.2680000D+00 0.2680000D+00 0.2680000D+00 0.2680000D+00
EXPONENTS  0.8236000D+04 0.1235000D+04 0.2808000D+03 0.7927000D+02 0.2559000D+02
EXPONENTS  0.8997000D+01 0.3319000D+01 0.3643000D+00 0.8236000D+04 0.1235000D+04
EXPONENTS  0.2808000D+03 0.7927000D+02 0.2559000D+02 0.8997000D+01 0.3319000D+01
EXPONENTS  0.3643000D+00 0.9059000D+00 0.1285000D+00 0.4402000D-01 0.1871000D+02
EXPONENTS  0.4133000D+01 0.1200000D+01 0.1871000D+02 0.4133000D+01 0.1200000D+01
EXPONENTS  0.1871000D+02 0.4133000D+01 0.1200000D+01 0.3827000D+00 0.3827000D+00
EXPONENTS  0.3827000D+00 0.1209000D+00 0.1209000D+00 0.1209000D+00 0.3569000D-01
EXPONENTS  0.3569000D-01 0.3569000D-01 0.1097000D+01 0.1097000D+01 0.1097000D+01
EXPONENTS  0.1097000D+01 0.1097000D+01 0.1097000D+01 0.3180000D+00 0.3180000D+00
EXPONENTS  0.3180000D+00 0.3180000D+00 0.3180000D+00 0.3180000D+00 0.1000000D+00
EXPONENTS  0.1000000D+00 0.1000000D+00 0.1000000D+00 0.1000000D+00 0.1000000D+00
EXPONENTS  0.7610000D+00 0.7610000D+00 0.7610000D+00 0.7610000D+00 0.7610000D+00
EXPONENTS  0.7610000D+00 0.7610000D+00 0.7610000D+00 0.7610000D+00 0.7610000D+00
EXPONENTS  0.2680000D+00 0.2680000D+00 0.2680000D+00 0.2680000D+00 0.2680000D+00
EXPONENTS  0.2680000D+00 0.2680000D+00 0.2680000D+00 0.2680000D+00 0.2680000D+00
EXPONENTS  0.3387000D+02 0.5095000D+01 0.1159000D+01 0.3258000D+00 0.1027000D+00
EXPONENTS  0.2526000D-01 0.1407000D+01 0.1407000D+01 0.1407000D+01 0.3880000D+00
EXPONENTS  0.3880000D+00 0.3880000D+00 0.1020000D+00 0.1020000D+00 0.1020000D+00
EXPONENTS  0.1057000D+01 0.1057000D+01 0.1057000D+01 0.1057000D+01 0.1057000D+01
EXPONENTS  0.1057000D+01 0.2470000D+00 0.2470000D+00 0.2470000D+00 0.2470000D+00
EXPONENTS  0.2470000D+00 0.2470000D+00 0.3387000D+02 0.5095000D+01 0.1159000D+01
EXPONENTS  0.3258000D+00 0.1027000D+00 0.2526000D-01 0.1407000D+01 0.1407000D+01
EXPONENTS  0.1407000D+01 0.3880000D+00 0.3880000D+00 0.3880000D+00 0.1020000D+00
EXPONENTS  0.1020000D+00 0.1020000D+00 0.1057000D+01 0.1057000D+01 0.1057000D+01
EXPONENTS  0.1057000D+01 0.1057000D+01 0.1057000D+01 0.2470000D+00 0.2470000D+00
EXPONENTS  0.2470000D+00 0.2470000D+00 0.2470000D+00 0.2470000D+00 0.3387000D+02
EXPONENTS  0.5095000D+01 0.1159000D+01 0.3258000D+00 0.1027000D+00 0.2526000D-01
EXPONENTS  0.1407000D+01 0.1407000D+01 0.1407000D+01 0.3880000D+00 0.3880000D+00
EXPONENTS  0.3880000D+00 0.1020000D+00 0.1020000D+00 0.1020000D+00 0.1057000D+01
EXPONENTS  0.1057000D+01 0.1057000D+01 0.1057000D+01 0.1057000D+01 0.1057000D+01
EXPONENTS  0.2470000D+00 0.2470000D+00 0.2470000D+00 0.2470000D+00 0.2470000D+00
EXPONENTS  0.2470000D+00 0.3387000D+02 0.5095000D+01 0.1159000D+01 0.3258000D+00
EXPONENTS  0.1027000D+00 0.2526000D-01 0.1407000D+01 0.1407000D+01 0.1407000D+01
EXPONENTS  0.3880000D+00 0.3880000D+00 0.3880000D+00 0.1020000D+00 0.1020000D+00
EXPONENTS  0.1020000D+00 0.1057000D+01 0.1057000D+01 0.1057000D+01 0.1057000D+01
EXPONENTS  0.1057000D+01 0.1057000D+01 0.2470000D+00 0.2470000D+00 0.2470000D+00
EXPONENTS  0.2470000D+00 0.2470000D+00 0.2470000D+00 0.3387000D+02 0.5095000D+01
EXPONENTS  0.1159000D+01 0.3258000D+00 0.1027000D+00 0.2526000D-01 0.1407000D+01
EXPONENTS  0.1407000D+01 0.1407000D+01 0.3880000D+00 0.3880000D+00 0.3880000D+00
EXPONENTS  0.1020000D+00 0.1020000D+00 0.1020000D+00 0.1057000D+01 0.1057000D+01
EXPONENTS  0.1057000D+01 0.1057000D+01 0.1057000D+01 0.1057000D+01 0.2470000D+00
EXPONENTS  0.2470000D+00 0.2470000D+00 0.2470000D+00 0.2470000D+00 0.2470000D+00
EXPONENTS  0.3387000D+02 0.5095000D+01 0.1159000D+01 0.3258000D+00 0.1027000D+00
EXPONENTS  0.2526000D-01 0.1407000D+01 0.1407000D+01 0.1407000D+01 0.3880000D+00
EXPONENTS  0.3880000D+00 0.3880000D+00 0.1020000D+00 0.1020000D+00 0.1020000D+00
EXPONENTS  0.1057000D+01 0.1057000D+01 0.1057000D+01 0.1057000D+01 0.1057000D+01
EXPONENTS  0.1057000D+01 0.2470000D+00 0.2470000D+00 0.2470000D+00 0.2470000D+00
EXPONENTS  0.2470000D+00 0.2470000D+00
MO    1     MO 0.0        OCC NO =    2.0000000  ORB. ENERGY =  -10.049790
  0.20474120D+00  0.38168415D+00  0.64511345D+00  0.96981684D+00  0.11915320D+01
  0.10064393D+01  0.37959187D+00 -0.18786213D-02 -0.16828126D-02 -0.31507561D-02
 -0.53644319D-02 -0.82979605D-02 -0.10928122D-01 -0.11355019D-01 -0.72156047D-02
  0.48357305D-02  0.20154806D-01  0.12532953D-02  0.44697247D-04 -0.12826641D-12
 -0.12025792D-12 -0.85630801D-13 -0.17593550D-02 -0.16495071D-02 -0.11745473D-02
 -0.12445232D-13 -0.11668196D-13 -0.83084510D-14 -0.27590662D-12  0.36408642D-03
  0.51635775D-13  0.78401129D-13  0.44526390D-03  0.12363466D-12 -0.17730267D-13
  0.19114728D-05 -0.16348636D-14 -0.19787179D-02  0.12586886D-02  0.72002933D-03
  0.11066523D-12  0.18524872D-15  0.88383218D-14  0.16719475D-04 -0.77978065D-03
  0.76306117D-03 -0.32623024D-12  0.49871361D-14  0.16435612D-13  0.57994412D-05
 -0.94263110D-04  0.88463668D-04  0.33350735D-14  0.11946381D-15  0.57645486D-13
 -0.51552562D-13 -0.40465300D-03 -0.55363847D-15  0.42453329D-12 -0.13339395D-03
 -0.29558194D-14 -0.26987560D-12  0.13473529D-02  0.46167348D-14 -0.57388984D-14
 -0.98827326D-14  0.11395558D-03 -0.86120920D-15  0.95068321D-13  0.10005135D-03
 -0.16086239D-14 -0.65420123D-13 -0.44191808D-03  0.41922515D-14  0.63082949D-15
  0.18267794D+00  0.34055321D+00  0.57559492D+00  0.86530771D+00  0.10631305D+01
  0.89798366D+00  0.33868640D+00 -0.16761779D-02 -0.15039239D-02 -0.28158200D-02
 -0.47941745D-02 -0.74158589D-02 -0.97664253D-02 -0.10147941D-01 -0.64485613D-02
  0.43216758D-02  0.18054845D-01  0.18392851D-02  0.85909769D-04 -0.14379368D-02
 -0.13481571D-02 -0.95996818D-03  0.84866518D-03  0.79567755D-03  0.56656982D-03
 -0.29169784D-13 -0.27348526D-13 -0.19473780D-13  0.23678557D-03 -0.59880402D-04
  0.11698582D-12  0.35249551D-03 -0.17175971D-03  0.82922344D-13  0.10358263D-06
  0.10177959D-05  0.13240662D-14  0.41398709D-03 -0.10512913D-02  0.63730422D-03
 -0.26003550D-02  0.11282658D-13 -0.26032117D-14 -0.53162185D-03 -0.20563993D-03
  0.73726178D-03  0.66532999D-03  0.87238436D-13 -0.49793974D-13 -0.66768969D-04
 -0.16897370D-04  0.83666339D-04  0.83026450D-04  0.76690261D-14  0.26971624D-15
 -0.24029342D-03  0.16172659D-04  0.45510056D-14 -0.18093723D-03  0.42666912D-03
 -0.24841274D-14  0.90181749D-03 -0.47518710D-03 -0.11168889D-13 -0.26707066D-13
  0.64578651D-04 -0.36909140D-04  0.91551755D-15  0.89370733D-04 -0.69247507D-04
  0.52047795D-14 -0.28310669D-03  0.17997493D-03 -0.79513321D-14 -0.69889087D-14
  0.18267794D+00  0.34055321D+00  0.57559492D+00  0.86530771D+00  0.10631305D+01
  0.89798366D+00  0.33868640D+00 -0.16761779D-02 -0.15039239D-02 -0.28158200D-02
 -0.47941745D-02 -0.74158589D-02 -0.97664253D-02 -0.10147941D-01 -0.64485613D-02
  0.43216758D-02  0.18054845D-01  0.18392851D-02  0.85909768D-04  0.14379368D-02
  0.13481571D-02  0.95996818D-03  0.84866518D-03  0.79567755D-03  0.56656982D-03
 -0.21128379D-13 -0.19809199D-13 -0.14105329D-13 -0.23678558D-03 -0.59880402D-04
  0.86967830D-13 -0.35249550D-03 -0.17175971D-03  0.27183037D-13 -0.10358274D-06
  0.10177959D-05  0.11137916D-14  0.41398709D-03 -0.10512913D-02  0.63730422D-03
  0.26003550D-02 -0.14948983D-13 -0.35322606D-14 -0.53162185D-03 -0.20563993D-03
  0.73726178D-03 -0.66532999D-03 -0.43396711D-13 -0.33605321D-13 -0.66768969D-04
 -0.16897370D-04  0.83666339D-04 -0.83026450D-04  0.20044599D-13  0.13297125D-13
  0.24029342D-03  0.16172660D-04  0.28816245D-14  0.18093723D-03  0.42666912D-03
  0.11904845D-15 -0.90181749D-03 -0.47518710D-03 -0.87639219D-14  0.18358587D-13
 -0.64578651D-04 -0.36909140D-04 -0.14559624D-14 -0.89370733D-04 -0.69247507D-04
  0.77483790D-14  0.28310669D-03  0.17997493D-03 -0.33804917D-14  0.49428814D-14
  0.52268653D-04  0.94268669D-04  0.13899910D-03 -0.92370989D-03 -0.76894414D-03
 -0.93713189D-05 -0.17216260D-13  0.36710966D-03  0.76682685D-03  0.16072325D-12
  0.13070195D-02  0.95963303D-03 -0.17529708D-13  0.21770929D-03  0.47054845D-04
  0.57273754D-03 -0.21920834D-03 -0.35352920D-03 -0.22021550D-12 -0.12228448D-12
 -0.19451888D-02  0.11438174D-03 -0.10819964D-03 -0.61820929D-05 -0.45579652D-13
 -0.62065096D-15 -0.23970487D-03  0.52268653D-04  0.94268669D-04  0.13899910D-03
 -0.92370989D-03 -0.76894414D-03 -0.93713189D-05 -0.18432622D-13  0.36710966D-03
 -0.76682685D-03  0.16426803D-12  0.13070195D-02 -0.95963303D-03 -0.19377392D-13
  0.21770929D-03 -0.47054845D-04  0.57273754D-03 -0.21920834D-03 -0.35352920D-03
 -0.22339392D-12  0.11930863D-12  0.19451888D-02  0.11438174D-03 -0.10819964D-03
 -0.61820929D-05 -0.44926333D-13  0.31782081D-14  0.23970487D-03  0.55987365D-04
  0.10097552D-03  0.14888834D-03 -0.10278580D-02 -0.79818673D-03 -0.72413616D-05
  0.25679334D-03 -0.14348540D-03 -0.64787923D-03  0.10495098D-02 -0.64136132D-03
 -0.85726084D-03  0.18297631D-03 -0.10910957D-03 -0.48805456D-04 -0.27424365D-04
  0.30219995D-03 -0.27477559D-03  0.64698957D-03  0.15138273D-02 -0.89826728D-03
 -0.48744314D-04  0.41526853D-04  0.72174609D-05  0.17617981D-03  0.18856220D-03
 -0.10829988D-03  0.55987365D-04  0.10097552D-03  0.14888834D-03 -0.10278580D-02
 -0.79818673D-03 -0.72413616D-05  0.25679334D-03 -0.14348540D-03  0.64787923D-03
  0.10495098D-02 -0.64136132D-03  0.85726084D-03  0.18297631D-03 -0.10910957D-03
  0.48805456D-04 -0.27424365D-04  0.30219995D-03 -0.27477559D-03  0.64698957D-03
 -0.15138273D-02  0.89826728D-03 -0.48744314D-04  0.41526853D-04  0.72174609D-05
  0.17617981D-03 -0.18856220D-03  0.10829988D-03  0.55987365D-04  0.10097552D-03
  0.14888834D-03 -0.10278580D-02 -0.79818673D-03 -0.72413617D-05 -0.25679334D-03
 -0.14348540D-03  0.64787923D-03 -0.10495098D-02 -0.64136132D-03  0.85726084D-03
 -0.18297631D-03 -0.10910957D-03  0.48805456D-04 -0.27424364D-04  0.30219995D-03
 -0.27477559D-03 -0.64698957D-03  0.15138273D-02  0.89826728D-03 -0.48744314D-04
  0.41526853D-04  0.72174608D-05 -0.17617981D-03  0.18856220D-03  0.10829988D-03
  0.55987365D-04  0.10097552D-03  0.14888834D-03 -0.10278580D-02 -0.79818673D-03
 -0.72413617D-05 -0.25679334D-03 -0.14348540D-03 -0.64787923D-03 -0.10495098D-02
 -0.64136132D-03 -0.85726084D-03 -0.18297631D-03 -0.10910957D-03 -0.48805456D-04
 -0.27424364D-04  0.30219995D-03 -0.27477559D-03 -0.64698957D-03 -0.15138273D-02
 -0.89826728D-03 -0.48744314D-04  0.41526853D-04  0.72174608D-05 -0.17617981D-03
 -0.18856220D-03 -0.10829988D-03
MO    2     MO 0.0        OCC NO =    2.0000000  ORB. ENERGY =  -10.049564
  0.25835653D+00  0.48163531D+00  0.81404851D+00  0.12237816D+01  0.15035571D+01
  0.12699943D+01  0.47899512D+00 -0.23705736D-02 -0.20931625D-02 -0.39190606D-02
 -0.66725360D-02 -0.10321399D-01 -0.13592919D-01 -0.14123913D-01 -0.89751129D-02
  0.60149120D-02  0.24555150D-01 -0.72199721D-02 -0.50521854D-03  0.12719413D-11
  0.11925258D-11  0.84914942D-12 -0.10031245D-02 -0.94049302D-03 -0.66968706D-03
 -0.28004190D-13 -0.26255708D-13 -0.18695628D-13  0.50810211D-11  0.15637940D-02
  0.10595156D-12  0.19472307D-11  0.63533168D-03  0.39880776D-12  0.78233400D-13
  0.28330800D-04 -0.48049609D-14 -0.19418785D-02  0.97051931D-03  0.97135924D-03
 -0.23644353D-11  0.34489593D-15 -0.13355523D-13  0.19131209D-03 -0.46634321D-03
  0.27503111D-03  0.39317913D-11 -0.55698148D-15  0.16199440D-12 -0.99259783D-05
 -0.43781230D-04  0.53707209D-04 -0.12177363D-12 -0.12902657D-15  0.23786143D-12
  0.40049967D-12 -0.55636463D-03  0.34072906D-14 -0.42991526D-11 -0.22732571D-02
 -0.98161137D-14  0.30976536D-11  0.39423510D-02 -0.40575825D-15  0.26441595D-15
  0.19994763D-12  0.26382074D-03  0.12846073D-13 -0.16932015D-11  0.48917935D-03
 -0.21801224D-13  0.10933586D-11 -0.12806416D-02 -0.16736995D-13 -0.12206756D-15
 -0.14477866D+00 -0.26990033D+00 -0.45617911D+00 -0.68578662D+00 -0.84256810D+00
 -0.71168346D+00 -0.26842082D+00  0.13284296D-02  0.11749251D-02  0.21998305D-02
  0.37453997D-02  0.57935639D-02  0.76299198D-02  0.79279754D-02  0.50378725D-02
 -0.33762650D-02 -0.13817221D-01  0.34743499D-02  0.24664440D-03  0.70193126D-03
  0.65810517D-03  0.46861009D-03 -0.66618410D-04 -0.62458994D-04 -0.44474524D-04
  0.23330200D-13  0.21873546D-13  0.15575267D-13 -0.88245046D-04  0.14568812D-02
 -0.86234206D-13 -0.53368759D-04  0.61026669D-03 -0.21286203D-12 -0.37827865D-05
  0.21836460D-04  0.21223294D-14 -0.40358936D-03  0.94378808D-03 -0.54019872D-03
  0.11945362D-02  0.55560952D-14  0.14691405D-13  0.59534516D-03 -0.39652030D-03
 -0.19882486D-03  0.12113239D-03 -0.68354305D-13  0.73162442D-13  0.99652090D-05
  0.23908753D-04 -0.33873962D-04 -0.36891090D-04 -0.99163078D-13  0.73278407D-13
  0.85851139D-04 -0.62139439D-03 -0.31618724D-14  0.11688036D-02  0.20708581D-03
 -0.16630725D-13 -0.14263570D-02  0.16570974D-02  0.26116342D-13 -0.10296585D-13
 -0.29104103D-03  0.54945196D-04 -0.65486897D-14  0.16173009D-03 -0.55562429D-04
  0.14327043D-13  0.71139300D-03 -0.10927316D-03  0.53190263D-14  0.10532481D-13
 -0.14477866D+00 -0.26990033D+00 -0.45617911D+00 -0.68578663D+00 -0.84256811D+00
 -0.71168347D+00 -0.26842082D+00  0.13284296D-02  0.11749251D-02  0.21998306D-02
  0.37453998D-02  0.57935639D-02  0.76299199D-02  0.79279755D-02  0.50378725D-02
 -0.33762650D-02 -0.13817221D-01  0.34743500D-02  0.24664440D-03 -0.70193126D-03
 -0.65810518D-03 -0.46861009D-03 -0.66618414D-04 -0.62458998D-04 -0.44474527D-04
  0.23249704D-13  0.21798076D-13  0.15521528D-13  0.88245057D-04  0.14568812D-02
 -0.88271544D-13  0.53368763D-04  0.61026669D-03 -0.20486468D-12  0.37827867D-05
  0.21836460D-04  0.29616869D-14 -0.40358936D-03  0.94378809D-03 -0.54019872D-03
 -0.11945363D-02 -0.38649150D-14  0.14520689D-13  0.59534516D-03 -0.39652030D-03
 -0.19882486D-03 -0.12113239D-03  0.66615121D-13  0.74513576D-13  0.99652092D-05
  0.23908753D-04 -0.33873962D-04  0.36891090D-04  0.95299051D-13  0.71271394D-13
 -0.85851146D-04 -0.62139440D-03 -0.34954137D-14 -0.11688036D-02  0.20708582D-03
 -0.15876482D-13  0.14263570D-02  0.16570974D-02  0.26362723D-13  0.11085824D-13
  0.29104103D-03  0.54945197D-04 -0.69493623D-14 -0.16173009D-03 -0.55562429D-04
  0.16129675D-13 -0.71139300D-03 -0.10927316D-03  0.47184118D-14 -0.97564860D-14
 -0.47714773D-04 -0.86055557D-04 -0.12688887D-03  0.13191329D-02  0.39914103D-03
 -0.25485699D-04  0.31393728D-12  0.87070866D-03  0.14112426D-02 -0.23619795D-11
  0.87645640D-03  0.12006207D-02 -0.20781458D-12  0.45428829D-04 -0.23809623D-04
  0.85878539D-03  0.85145543D-04 -0.94393093D-03  0.29459834D-11  0.16240082D-11
 -0.21554642D-02  0.22771700D-03 -0.64216588D-04 -0.16350041D-03  0.75834578D-12
 -0.33912665D-13 -0.25894447D-03 -0.47714773D-04 -0.86055557D-04 -0.12688887D-03
  0.13191329D-02  0.39914103D-03 -0.25485699D-04  0.31380422D-12  0.87070866D-03
 -0.14112426D-02 -0.23623679D-11  0.87645639D-03 -0.12006207D-02 -0.20805573D-12
  0.45428829D-04  0.23809623D-04  0.85878539D-03  0.85145543D-04 -0.94393093D-03
  0.29463773D-11 -0.16235065D-11  0.21554642D-02  0.22771700D-03 -0.64216588D-04
 -0.16350041D-03  0.75830346D-12  0.33359723D-13  0.25894447D-03  0.19336248D-04
  0.34873720D-04  0.51421279D-04 -0.57765775D-03 -0.13461854D-03  0.13398093D-04
 -0.36210249D-03  0.29578841D-03  0.76210565D-03 -0.74861645D-03 -0.21381129D-03
  0.67358713D-03 -0.62304918D-04 -0.27175799D-04 -0.79446836D-05  0.16409002D-03
 -0.66080248D-03  0.49671246D-03 -0.41312996D-04 -0.12542924D-02  0.28230617D-03
  0.78173600D-04 -0.15969460D-03  0.81521004D-04 -0.50758410D-04 -0.12360355D-03
  0.81779277D-04  0.19336248D-04  0.34873720D-04  0.51421279D-04 -0.57765775D-03
 -0.13461854D-03  0.13398093D-04 -0.36210249D-03  0.29578841D-03 -0.76210565D-03
 -0.74861645D-03 -0.21381129D-03 -0.67358713D-03 -0.62304918D-04 -0.27175799D-04
  0.79446834D-05  0.16409002D-03 -0.66080248D-03  0.49671246D-03 -0.41312996D-04
  0.12542924D-02 -0.28230617D-03  0.78173600D-04 -0.15969460D-03  0.81521004D-04
 -0.50758410D-04  0.12360355D-03 -0.81779277D-04  0.19336248D-04  0.34873720D-04
  0.51421280D-04 -0.57765775D-03 -0.13461854D-03  0.13398093D-04  0.36210250D-03
  0.29578841D-03 -0.76210566D-03  0.74861646D-03 -0.21381128D-03 -0.67358714D-03
  0.62304919D-04 -0.27175799D-04  0.79446835D-05  0.16409002D-03 -0.66080248D-03
  0.49671246D-03  0.41313002D-04 -0.12542925D-02 -0.28230618D-03  0.78173600D-04
 -0.15969460D-03  0.81521005D-04  0.50758412D-04 -0.12360355D-03 -0.81779278D-04
  0.19336248D-04  0.34873720D-04  0.51421280D-04 -0.57765775D-03 -0.13461855D-03
  0.13398093D-04  0.36210250D-03  0.29578841D-03  0.76210566D-03  0.74861646D-03
 -0.21381128D-03  0.67358714D-03  0.62304918D-04 -0.27175799D-04 -0.79446837D-05
  0.16409002D-03 -0.66080248D-03  0.49671246D-03  0.41313002D-04  0.12542925D-02
  0.28230618D-03  0.78173600D-04 -0.15969460D-03  0.81521005D-04  0.50758412D-04
  0.12360355D-03  0.81779278D-04
MO    3     MO 0.0        OCC NO =    2.0000000  ORB. ENERGY =  -10.049547
 -0.89252038D-09 -0.16638609D-08 -0.28122181D-08 -0.42276849D-08 -0.51941994D-08
 -0.43873318D-08 -0.16547401D-08  0.81894012D-11  0.72098918D-11  0.13499192D-10
  0.22983530D-10  0.35552026D-10  0.46820768D-10  0.48649777D-10  0.30914749D-10
 -0.20718346D-10 -0.84599392D-10  0.27012563D-10  0.26249018D-11  0.33909850D-03
  0.31792640D-03  0.22638253D-03  0.32080194D-11  0.30077221D-11  0.21416773D-11
  0.14838938D-13  0.13912448D-13  0.99064915D-14  0.14082140D-02 -0.58420273D-11
 -0.63097622D-13  0.58039907D-03 -0.20286253D-11 -0.11066434D-12  0.19676918D-04
 -0.16122596D-12  0.10292977D-14  0.66021818D-11 -0.31957808D-11 -0.34064010D-11
 -0.65897218D-03  0.85977926D-14 -0.40586744D-14 -0.70552421D-12  0.14827242D-11
 -0.77720002D-12  0.10633531D-02  0.32816014D-13 -0.64222561D-13  0.89184446D-14
  0.92538549D-13 -0.10145699D-12 -0.35303560D-04  0.93547210D-14 -0.56450985D-13
  0.10438737D-03  0.19401345D-11 -0.23425742D-14 -0.11478964D-02  0.83321395D-11
  0.94155168D-14  0.83473433D-03 -0.14152543D-10 -0.23877942D-14 -0.38802775D-13
  0.55446860D-04 -0.93922947D-12 -0.33561402D-14 -0.46821767D-03 -0.17518419D-11
  0.66988187D-14  0.30187709D-03  0.45695303D-11  0.33696018D-14  0.59075908D-14
  0.23309853D+00  0.43454865D+00  0.73446377D+00  0.11041396D+01  0.13565631D+01
  0.11458344D+01  0.43216658D+00 -0.21388165D-02 -0.18896770D-02 -0.35380716D-02
 -0.60238696D-02 -0.93180103D-02 -0.12271492D-01 -0.12750866D-01 -0.81026029D-02
  0.54301760D-02  0.22187835D-01 -0.61855499D-02 -0.43482313D-03 -0.73877925D-03
 -0.69265251D-03 -0.49320985D-03  0.62221125D-03  0.58336260D-03  0.41538892D-03
 -0.29948097D-13 -0.28078245D-13 -0.19993383D-13  0.15381552D-02 -0.75127452D-04
  0.11576533D-12  0.63968689D-03 -0.33893834D-04  0.25854924D-12  0.26227396D-04
 -0.37657657D-05 -0.31821696D-14  0.88081682D-04 -0.96211457D-03  0.87403289D-03
 -0.24785863D-02 -0.59378438D-14  0.43373655D-14 -0.58346199D-04 -0.21556585D-03
  0.27391205D-03  0.79107788D-03  0.15074539D-12 -0.75345221D-13 -0.41492169D-04
 -0.91685114D-05  0.50660681D-04  0.20633406D-04  0.13639462D-12 -0.75764827D-13
 -0.96047855D-03  0.71169842D-03  0.61087498D-14 -0.33443933D-03 -0.76009617D-03
 -0.84724838D-14  0.32158750D-02 -0.13749991D-02 -0.98537655D-14 -0.21262736D-13
  0.15996912D-03 -0.22231667D-03  0.11578708D-13  0.42178568D-03 -0.28089402D-04
 -0.16315659D-13 -0.90169303D-03  0.69503941D-03 -0.18420465D-13 -0.85019904D-15
 -0.23309853D+00 -0.43454865D+00 -0.73446377D+00 -0.11041396D+01 -0.13565631D+01
 -0.11458344D+01 -0.43216658D+00  0.21388165D-02  0.18896770D-02  0.35380715D-02
  0.60238695D-02  0.93180102D-02  0.12271492D-01  0.12750866D-01  0.81026029D-02
 -0.54301760D-02 -0.22187835D-01  0.61855499D-02  0.43482313D-03 -0.73877924D-03
 -0.69265250D-03 -0.49320984D-03 -0.62221125D-03 -0.58336260D-03 -0.41538892D-03
  0.29168439D-13  0.27347265D-13  0.19472882D-13  0.15381552D-02  0.75127441D-04
 -0.11402602D-12  0.63968689D-03  0.33893830D-04 -0.19782069D-12  0.26227396D-04
  0.37657655D-05  0.19282082D-14 -0.88081679D-04  0.96211456D-03 -0.87403288D-03
 -0.24785863D-02  0.32910449D-14 -0.72434272D-14  0.58346195D-04  0.21556586D-03
 -0.27391205D-03  0.79107788D-03  0.12944956D-12  0.47842551D-13  0.41492169D-04
  0.91685113D-05 -0.50660680D-04  0.20633405D-04  0.98453249D-13  0.46585657D-13
 -0.96047855D-03 -0.71169842D-03 -0.57067279D-14 -0.33443932D-03  0.76009616D-03
  0.16290824D-13  0.32158750D-02  0.13749991D-02  0.82935977D-15 -0.32113938D-13
  0.15996912D-03  0.22231667D-03 -0.87592819D-14  0.42178568D-03  0.28089402D-04
  0.11111905D-13 -0.90169302D-03 -0.69503941D-03  0.15165940D-13  0.26080363D-16
  0.19356455D-12  0.34910165D-12  0.51475017D-12 -0.50189049D-11 -0.16941326D-11
  0.12425123D-12  0.86801214D-04 -0.31026875D-11 -0.49864211D-11 -0.64692860D-03
 -0.28776924D-11 -0.42181570D-11 -0.63248605D-04 -0.60903316D-13 -0.75955411D-14
 -0.30100435D-11 -0.39286485D-12  0.34029083D-11  0.80228293D-03  0.44263619D-03
  0.73814137D-11 -0.81035224D-12  0.19977844D-12  0.61057380D-12  0.20890178D-03
 -0.10435324D-04  0.90681606D-12  0.19549964D-12  0.35259165D-12  0.51989619D-12
 -0.51989441D-11 -0.24428437D-11  0.12445709D-12  0.86801214D-04 -0.30956165D-11
  0.49733918D-11 -0.64692860D-03 -0.28271809D-11  0.41511305D-11 -0.63248605D-04
 -0.35967001D-13 -0.91623555D-13 -0.29929942D-11 -0.39581181D-12  0.33888060D-11
  0.80228293D-03 -0.44263619D-03 -0.73576042D-11 -0.81220460D-12  0.20223966D-12
  0.60996495D-12  0.20890178D-03  0.10435324D-04 -0.89780374D-12 -0.38726305D-04
 -0.69844486D-04 -0.10298565D-03  0.10972438D-02  0.30861787D-03 -0.22489308D-04
  0.68869468D-03 -0.34749898D-03 -0.12565447D-02  0.54805890D-03 -0.69011168D-03
 -0.10836241D-02  0.27142652D-04 -0.52203720D-04  0.18373137D-04  0.41369916D-03
  0.41935935D-03 -0.83305852D-03  0.81243682D-03  0.15831295D-02 -0.11697983D-02
  0.50339693D-04  0.91341760D-04 -0.14168145D-03  0.28000647D-03  0.20634818D-03
 -0.11311799D-03 -0.38726305D-04 -0.69844486D-04 -0.10298565D-03  0.10972438D-02
  0.30861787D-03 -0.22489308D-04  0.68869468D-03 -0.34749898D-03  0.12565447D-02
  0.54805890D-03 -0.69011168D-03  0.10836241D-02  0.27142652D-04 -0.52203720D-04
 -0.18373137D-04  0.41369916D-03  0.41935935D-03 -0.83305852D-03  0.81243682D-03
 -0.15831295D-02  0.11697983D-02  0.50339693D-04  0.91341760D-04 -0.14168145D-03
  0.28000647D-03 -0.20634818D-03  0.11311799D-03  0.38726305D-04  0.69844486D-04
  0.10298565D-03 -0.10972438D-02 -0.30861787D-03  0.22489308D-04  0.68869468D-03
  0.34749898D-03 -0.12565447D-02  0.54805889D-03  0.69011168D-03 -0.10836241D-02
  0.27142651D-04  0.52203720D-04  0.18373137D-04 -0.41369916D-03 -0.41935935D-03
  0.83305851D-03  0.81243681D-03 -0.15831295D-02 -0.11697983D-02 -0.50339694D-04
 -0.91341759D-04  0.14168145D-03  0.28000647D-03 -0.20634818D-03 -0.11311799D-03
  0.38726305D-04  0.69844486D-04  0.10298565D-03 -0.10972438D-02 -0.30861787D-03
  0.22489308D-04  0.68869468D-03  0.34749898D-03  0.12565447D-02  0.54805889D-03
  0.69011168D-03  0.10836241D-02  0.27142651D-04  0.52203720D-04 -0.18373137D-04
 -0.41369916D-03 -0.41935935D-03  0.83305851D-03  0.81243681D-03  0.15831295D-02
  0.11697983D-02 -0.50339694D-04 -0.91341759D-04  0.14168145D-03  0.28000647D-03
  0.20634818D-03  0.11311799D-03
MO    4     MO 0.0        OCC NO =    2.0000000  ORB. ENERGY =   -0.810378
 -0.61532640D-02 -0.11471083D-01 -0.19388151D-01 -0.29146742D-01 -0.35810140D-01
 -0.30247388D-01 -0.11408202D-01  0.56459828D-04 -0.32956231D-01 -0.61704462D-01
 -0.10505713D+00 -0.16250740D+00 -0.21401653D+00 -0.22237688D+00 -0.14131053D+00
  0.94703029D-01  0.34828264D-01  0.38289148D-01  0.13494976D-02  0.82512351D-13
  0.77360574D-13  0.55085337D-13 -0.14175030D+00 -0.13289991D+00 -0.94632655D-01
 -0.20471742D-12 -0.19193560D-12 -0.13666958D-12 -0.55641470D-12 -0.18588075D-01
  0.95833556D-12  0.47014040D-13  0.26523134D-02  0.43506462D-11 -0.28407322D-12