 Molden2AIM, Version 4.0.0 (06/02/2016)           Time: Thu Jun 28 20:49:17 2018
GAUSSIAN             20 MOL ORBITALS    558 PRIMITIVES       10 NUCLEI
  C    1    (CENTRE  1)  -1.24158597  0.00000000  0.00000000  CHARGE =  6.0
  C    2    (CENTRE  2)   1.24158597  0.00000000  0.00000000  CHARGE =  6.0
  C    3    (CENTRE  3)  -3.70483263  1.24592478  0.00000000  CHARGE =  6.0
  C    4    (CENTRE  4)   3.70483263  1.24592478  0.00000000  CHARGE =  6.0
  C    5    (CENTRE  5)  -3.70483263 -1.24592478  0.00000000  CHARGE =  6.0
  C    6    (CENTRE  6)   3.70483263 -1.24592478  0.00000000  CHARGE =  6.0
  H    7    (CENTRE  7)  -4.79646694  2.98222593  0.00000000  CHARGE =  1.0
  H    8    (CENTRE  8)   4.79646694  2.98222593  0.00000000  CHARGE =  1.0
  H    9    (CENTRE  9)  -4.79646883 -2.98222593  0.00000000  CHARGE =  1.0
  H   10    (CENTRE 10)   4.79646883 -2.98222593  0.00000000  CHARGE =  1.0
CENTRE ASSIGNMENTS    1  1  1  1  1  1  1  1  1  1  1  1  1  1  1  1  1  1  1  1
CENTRE ASSIGNMENTS    1  1  1  1  1  1  1  1  1  1  1  1  1  1  1  1  1  1  1  1
CENTRE ASSIGNMENTS    1  1  1  1  1  1  1  1  1  1  1  1  1  1  1  1  1  1  1  1
CENTRE ASSIGNMENTS    1  1  1  1  1  1  1  1  1  1  1  1  1  1  1  2  2  2  2  2
CENTRE ASSIGNMENTS    2  2  2  2  2  2  2  2  2  2  2  2  2  2  2  2  2  2  2  2
CENTRE ASSIGNMENTS    2  2  2  2  2  2  2  2  2  2  2  2  2  2  2  2  2  2  2  2
CENTRE ASSIGNMENTS    2  2  2  2  2  2  2  2  2  2  2  2  2  2  2  2  2  2  2  2
CENTRE ASSIGNMENTS    2  2  2  2  2  2  2  2  2  2  3  3  3  3  3  3  3  3  3  3
CENTRE ASSIGNMENTS    3  3  3  3  3  3  3  3  3  3  3  3  3  3  3  3  3  3  3  3
CENTRE ASSIGNMENTS    3  3  3  3  3  3  3  3  3  3  3  3  3  3  3  3  3  3  3  3
CENTRE ASSIGNMENTS    3  3  3  3  3  3  3  3  3  3  3  3  3  3  3  3  3  3  3  3
CENTRE ASSIGNMENTS    3  3  3  3  3  4  4  4  4  4  4  4  4  4  4  4  4  4  4  4
CENTRE ASSIGNMENTS    4  4  4  4  4  4  4  4  4  4  4  4  4  4  4  4  4  4  4  4
CENTRE ASSIGNMENTS    4  4  4  4  4  4  4  4  4  4  4  4  4  4  4  4  4  4  4  4
CENTRE ASSIGNMENTS    4  4  4  4  4  4  4  4  4  4  4  4  4  4  4  4  4  4  4  4
CENTRE ASSIGNMENTS    5  5  5  5  5  5  5  5  5  5  5  5  5  5  5  5  5  5  5  5
CENTRE ASSIGNMENTS    5  5  5  5  5  5  5  5  5  5  5  5  5  5  5  5  5  5  5  5
CENTRE ASSIGNMENTS    5  5  5  5  5  5  5  5  5  5  5  5  5  5  5  5  5  5  5  5
CENTRE ASSIGNMENTS    5  5  5  5  5  5  5  5  5  5  5  5  5  5  5  6  6  6  6  6
CENTRE ASSIGNMENTS    6  6  6  6  6  6  6  6  6  6  6  6  6  6  6  6  6  6  6  6
CENTRE ASSIGNMENTS    6  6  6  6  6  6  6  6  6  6  6  6  6  6  6  6  6  6  6  6
CENTRE ASSIGNMENTS    6  6  6  6  6  6  6  6  6  6  6  6  6  6  6  6  6  6  6  6
CENTRE ASSIGNMENTS    6  6  6  6  6  6  6  6  6  6  7  7  7  7  7  7  7  7  7  7
CENTRE ASSIGNMENTS    7  7  7  7  7  7  7  7  7  7  7  7  7  7  7  7  7  8  8  8
CENTRE ASSIGNMENTS    8  8  8  8  8  8  8  8  8  8  8  8  8  8  8  8  8  8  8  8
CENTRE ASSIGNMENTS    8  8  8  8  9  9  9  9  9  9  9  9  9  9  9  9  9  9  9  9
CENTRE ASSIGNMENTS    9  9  9  9  9  9  9  9  9  9  9 10 10 10 10 10 10 10 10 10
CENTRE ASSIGNMENTS   10 10 10 10 10 10 10 10 10 10 10 10 10 10 10 10 10 10
TYPE ASSIGNMENTS      1  1  1  1  1  1  1  1  1  1  1  1  1  1  1  1  1  1  1  2
TYPE ASSIGNMENTS      2  2  3  3  3  4  4  4  2  3  4  2  3  4  2  3  4  5  6  7
TYPE ASSIGNMENTS      8  9 10  5  6  7  8  9 10  5  6  7  8  9 10 11 12 13 17 14
TYPE ASSIGNMENTS     15 18 19 16 20 11 12 13 17 14 15 18 19 16 20  1  1  1  1  1
TYPE ASSIGNMENTS      1  1  1  1  1  1  1  1  1  1  1  1  1  1  2  2  2  3  3  3
TYPE ASSIGNMENTS      4  4  4  2  3  4  2  3  4  2  3  4  5  6  7  8  9 10  5  6
TYPE ASSIGNMENTS      7  8  9 10  5  6  7  8  9 10 11 12 13 17 14 15 18 19 16 20
TYPE ASSIGNMENTS     11 12 13 17 14 15 18 19 16 20  1  1  1  1  1  1  1  1  1  1
TYPE ASSIGNMENTS      1  1  1  1  1  1  1  1  1  2  2  2  3  3  3  4  4  4  2  3
TYPE ASSIGNMENTS      4  2  3  4  2  3  4  5  6  7  8  9 10  5  6  7  8  9 10  5
TYPE ASSIGNMENTS      6  7  8  9 10 11 12 13 17 14 15 18 19 16 20 11 12 13 17 14
TYPE ASSIGNMENTS     15 18 19 16 20  1  1  1  1  1  1  1  1  1  1  1  1  1  1  1
TYPE ASSIGNMENTS      1  1  1  1  2  2  2  3  3  3  4  4  4  2  3  4  2  3  4  2
TYPE ASSIGNMENTS      3  4  5  6  7  8  9 10  5  6  7  8  9 10  5  6  7  8  9 10
TYPE ASSIGNMENTS     11 12 13 17 14 15 18 19 16 20 11 12 13 17 14 15 18 19 16 20
TYPE ASSIGNMENTS      1  1  1  1  1  1  1  1  1  1  1  1  1  1  1  1  1  1  1  2
TYPE ASSIGNMENTS      2  2  3  3  3  4  4  4  2  3  4  2  3  4  2  3  4  5  6  7
TYPE ASSIGNMENTS      8  9 10  5  6  7  8  9 10  5  6  7  8  9 10 11 12 13 17 14
TYPE ASSIGNMENTS     15 18 19 16 20 11 12 13 17 14 15 18 19 16 20  1  1  1  1  1
TYPE ASSIGNMENTS      1  1  1  1  1  1  1  1  1  1  1  1  1  1  2  2  2  3  3  3
TYPE ASSIGNMENTS      4  4  4  2  3  4  2  3  4  2  3  4  5  6  7  8  9 10  5  6
TYPE ASSIGNMENTS      7  8  9 10  5  6  7  8  9 10 11 12 13 17 14 15 18 19 16 20
TYPE ASSIGNMENTS     11 12 13 17 14 15 18 19 16 20  1  1  1  1  1  1  2  3  4  2
TYPE ASSIGNMENTS      3  4  2  3  4  5  6  7  8  9 10  5  6  7  8  9 10  1  1  1
TYPE ASSIGNMENTS      1  1  1  2  3  4  2  3  4  2  3  4  5  6  7  8  9 10  5  6
TYPE ASSIGNMENTS      7  8  9 10  1  1  1  1  1  1  2  3  4  2  3  4  2  3  4  5
TYPE ASSIGNMENTS      6  7  8  9 10  5  6  7  8  9 10  1  1  1  1  1  1  2  3  4
TYPE ASSIGNMENTS      2  3  4  2  3  4  5  6  7  8  9 10  5  6  7  8  9 10
EXPONENTS  0.8236000D+04 0.1235000D+04 0.2808000D+03 0.7927000D+02 0.2559000D+02
EXPONENTS  0.8997000D+01 0.3319000D+01 0.3643000D+00 0.8236000D+04 0.1235000D+04
EXPONENTS  0.2808000D+03 0.7927000D+02 0.2559000D+02 0.8997000D+01 0.3319000D+01
EXPONENTS  0.3643000D+00 0.9059000D+00 0.1285000D+00 0.4402000D-01 0.1871000D+02
EXPONENTS  0.4133000D+01 0.1200000D+01 0.1871000D+02 0.4133000D+01 0.1200000D+01
EXPONENTS  0.1871000D+02 0.4133000D+01 0.1200000D+01 0.3827000D+00 0.3827000D+00
EXPONENTS  0.3827000D+00 0.1209000D+00 0.1209000D+00 0.1209000D+00 0.3569000D-01
EXPONENTS  0.3569000D-01 0.3569000D-01 0.1097000D+01 0.1097000D+01 0.1097000D+01
EXPONENTS  0.1097000D+01 0.1097000D+01 0.1097000D+01 0.3180000D+00 0.3180000D+00
EXPONENTS  0.3180000D+00 0.3180000D+00 0.3180000D+00 0.3180000D+00 0.1000000D+00
EXPONENTS  0.1000000D+00 0.1000000D+00 0.1000000D+00 0.1000000D+00 0.1000000D+00
EXPONENTS  0.7610000D+00 0.7610000D+00 0.7610000D+00 0.7610000D+00 0.7610000D+00
EXPONENTS  0.7610000D+00 0.7610000D+00 0.7610000D+00 0.7610000D+00 0.7610000D+00
EXPONENTS  0.2680000D+00 0.2680000D+00 0.2680000D+00 0.2680000D+00 0.2680000D+00
EXPONENTS  0.2680000D+00 0.2680000D+00 0.2680000D+00 0.2680000D+00 0.2680000D+00
EXPONENTS  0.8236000D+04 0.1235000D+04 0.2808000D+03 0.7927000D+02 0.2559000D+02
EXPONENTS  0.8997000D+01 0.3319000D+01 0.3643000D+00 0.8236000D+04 0.1235000D+04
EXPONENTS  0.2808000D+03 0.7927000D+02 0.2559000D+02 0.8997000D+01 0.3319000D+01
EXPONENTS  0.3643000D+00 0.9059000D+00 0.1285000D+00 0.4402000D-01 0.1871000D+02
EXPONENTS  0.4133000D+01 0.1200000D+01 0.1871000D+02 0.4133000D+01 0.1200000D+01
EXPONENTS  0.1871000D+02 0.4133000D+01 0.1200000D+01 0.3827000D+00 0.3827000D+00
EXPONENTS  0.3827000D+00 0.1209000D+00 0.1209000D+00 0.1209000D+00 0.3569000D-01
EXPONENTS  0.3569000D-01 0.3569000D-01 0.1097000D+01 0.1097000D+01 0.1097000D+01
EXPONENTS  0.1097000D+01 0.1097000D+01 0.1097000D+01 0.3180000D+00 0.3180000D+00
EXPONENTS  0.3180000D+00 0.3180000D+00 0.3180000D+00 0.3180000D+00 0.1000000D+00
EXPONENTS  0.1000000D+00 0.1000000D+00 0.1000000D+00 0.1000000D+00 0.1000000D+00
EXPONENTS  0.7610000D+00 0.7610000D+00 0.7610000D+00 0.7610000D+00 0.7610000D+00
EXPONENTS  0.7610000D+00 0.7610000D+00 0.7610000D+00 0.7610000D+00 0.7610000D+00
EXPONENTS  0.2680000D+00 0.2680000D+00 0.2680000D+00 0.2680000D+00 0.2680000D+00
EXPONENTS  0.2680000D+00 0.2680000D+00 0.2680000D+00 0.2680000D+00 0.2680000D+00
EXPONENTS  0.8236000D+04 0.1235000D+04 0.2808000D+03 0.7927000D+02 0.2559000D+02
EXPONENTS  0.8997000D+01 0.3319000D+01 0.3643000D+00 0.8236000D+04 0.1235000D+04
EXPONENTS  0.2808000D+03 0.7927000D+02 0.2559000D+02 0.8997000D+01 0.3319000D+01
EXPONENTS  0.3643000D+00 0.9059000D+00 0.1285000D+00 0.4402000D-01 0.1871000D+02
EXPONENTS  0.4133000D+01 0.1200000D+01 0.1871000D+02 0.4133000D+01 0.1200000D+01
EXPONENTS  0.1871000D+02 0.4133000D+01 0.1200000D+01 0.3827000D+00 0.3827000D+00
EXPONENTS  0.3827000D+00 0.1209000D+00 0.1209000D+00 0.1209000D+00 0.3569000D-01
EXPONENTS  0.3569000D-01 0.3569000D-01 0.1097000D+01 0.1097000D+01 0.1097000D+01
EXPONENTS  0.1097000D+01 0.1097000D+01 0.1097000D+01 0.3180000D+00 0.3180000D+00
EXPONENTS  0.3180000D+00 0.3180000D+00 0.3180000D+00 0.3180000D+00 0.1000000D+00
EXPONENTS  0.1000000D+00 0.1000000D+00 0.1000000D+00 0.1000000D+00 0.1000000D+00
EXPONENTS  0.7610000D+00 0.7610000D+00 0.7610000D+00 0.7610000D+00 0.7610000D+00
EXPONENTS  0.7610000D+00 0.7610000D+00 0.7610000D+00 0.7610000D+00 0.7610000D+00
EXPONENTS  0.2680000D+00 0.2680000D+00 0.2680000D+00 0.2680000D+00 0.2680000D+00
EXPONENTS  0.2680000D+00 0.2680000D+00 0.2680000D+00 0.2680000D+00 0.2680000D+00
EXPONENTS  0.8236000D+04 0.1235000D+04 0.2808000D+03 0.7927000D+02 0.2559000D+02
EXPONENTS  0.8997000D+01 0.3319000D+01 0.3643000D+00 0.8236000D+04 0.1235000D+04
EXPONENTS  0.2808000D+03 0.7927000D+02 0.2559000D+02 0.8997000D+01 0.3319000D+01
EXPONENTS  0.3643000D+00 0.9059000D+00 0.1285000D+00 0.4402000D-01 0.1871000D+02
EXPONENTS  0.4133000D+01 0.1200000D+01 0.1871000D+02 0.4133000D+01 0.1200000D+01
EXPONENTS  0.1871000D+02 0.4133000D+01 0.1200000D+01 0.3827000D+00 0.3827000D+00
EXPONENTS  0.3827000D+00 0.1209000D+00 0.1209000D+00 0.1209000D+00 0.3569000D-01
EXPONENTS  0.3569000D-01 0.3569000D-01 0.1097000D+01 0.1097000D+01 0.1097000D+01
EXPONENTS  0.1097000D+01 0.1097000D+01 0.1097000D+01 0.3180000D+00 0.3180000D+00
EXPONENTS  0.3180000D+00 0.3180000D+00 0.3180000D+00 0.3180000D+00 0.1000000D+00
EXPONENTS  0.1000000D+00 0.1000000D+00 0.1000000D+00 0.1000000D+00 0.1000000D+00
EXPONENTS  0.7610000D+00 0.7610000D+00 0.7610000D+00 0.7610000D+00 0.7610000D+00
EXPONENTS  0.7610000D+00 0.7610000D+00 0.7610000D+00 0.7610000D+00 0.7610000D+00
EXPONENTS  0.2680000D+00 0.2680000D+00 0.2680000D+00 0.2680000D+00 0.2680000D+00
EXPONENTS  0.2680000D+00 0.2680000D+00 0.2680000D+00 0.2680000D+00 0.2680000D+00
EXPONENTS  0.8236000D+04 0.1235000D+04 0.2808000D+03 0.7927000D+02 0.2559000D+02
EXPONENTS  0.8997000D+01 0.3319000D+01 0.3643000D+00 0.8236000D+04 0.1235000D+04
EXPONENTS  0.2808000D+03 0.7927000D+02 0.2559000D+02 0.8997000D+01 0.3319000D+01
EXPONENTS  0.3643000D+00 0.9059000D+00 0.1285000D+00 0.4402000D-01 0.1871000D+02
EXPONENTS  0.4133000D+01 0.1200000D+01 0.1871000D+02 0.4133000D+01 0.1200000D+01
EXPONENTS  0.1871000D+02 0.4133000D+01 0.1200000D+01 0.3827000D+00 0.3827000D+00
EXPONENTS  0.3827000D+00 0.1209000D+00 0.1209000D+00 0.1209000D+00 0.3569000D-01
EXPONENTS  0.3569000D-01 0.3569000D-01 0.1097000D+01 0.1097000D+01 0.1097000D+01
EXPONENTS  0.1097000D+01 0.1097000D+01 0.1097000D+01 0.3180000D+00 0.3180000D+00
EXPONENTS  0.3180000D+00 0.3180000D+00 0.3180000D+00 0.3180000D+00 0.1000000D+00
EXPONENTS  0.1000000D+00 0.1000000D+00 0.1000000D+00 0.1000000D+00 0.1000000D+00
EXPONENTS  0.7610000D+00 0.7610000D+00 0.7610000D+00 0.7610000D+00 0.7610000D+00
EXPONENTS  0.7610000D+00 0.7610000D+00 0.7610000D+00 0.7610000D+00 0.7610000D+00
EXPONENTS  0.2680000D+00 0.2680000D+00 0.2680000D+00 0.2680000D+00 0.2680000D+00
EXPONENTS  0.2680000D+00 0.2680000D+00 0.2680000D+00 0.2680000D+00 0.2680000D+00
EXPONENTS  0.8236000D+04 0.1235000D+04 0.2808000D+03 0.7927000D+02 0.2559000D+02
EXPONENTS  0.8997000D+01 0.3319000D+01 0.3643000D+00 0.8236000D+04 0.1235000D+04
EXPONENTS  0.2808000D+03 0.7927000D+02 0.2559000D+02 0.8997000D+01 0.3319000D+01
EXPONENTS  0.3643000D+00 0.9059000D+00 0.1285000D+00 0.4402000D-01 0.1871000D+02
EXPONENTS  0.4133000D+01 0.1200000D+01 0.1871000D+02 0.4133000D+01 0.1200000D+01
EXPONENTS  0.1871000D+02 0.4133000D+01 0.1200000D+01 0.3827000D+00 0.3827000D+00
EXPONENTS  0.3827000D+00 0.1209000D+00 0.1209000D+00 0.1209000D+00 0.3569000D-01
EXPONENTS  0.3569000D-01 0.3569000D-01 0.1097000D+01 0.1097000D+01 0.1097000D+01
EXPONENTS  0.1097000D+01 0.1097000D+01 0.1097000D+01 0.3180000D+00 0.3180000D+00
EXPONENTS  0.3180000D+00 0.3180000D+00 0.3180000D+00 0.3180000D+00 0.1000000D+00
EXPONENTS  0.1000000D+00 0.1000000D+00 0.1000000D+00 0.1000000D+00 0.1000000D+00
EXPONENTS  0.7610000D+00 0.7610000D+00 0.7610000D+00 0.7610000D+00 0.7610000D+00
EXPONENTS  0.7610000D+00 0.7610000D+00 0.7610000D+00 0.7610000D+00 0.7610000D+00
EXPONENTS  0.2680000D+00 0.2680000D+00 0.2680000D+00 0.2680000D+00 0.2680000D+00
EXPONENTS  0.2680000D+00 0.2680000D+00 0.2680000D+00 0.2680000D+00 0.2680000D+00
EXPONENTS  0.3387000D+02 0.5095000D+01 0.1159000D+01 0.3258000D+00 0.1027000D+00
EXPONENTS  0.2526000D-01 0.1407000D+01 0.1407000D+01 0.1407000D+01 0.3880000D+00
EXPONENTS  0.3880000D+00 0.3880000D+00 0.1020000D+00 0.1020000D+00 0.1020000D+00
EXPONENTS  0.1057000D+01 0.1057000D+01 0.1057000D+01 0.1057000D+01 0.1057000D+01
EXPONENTS  0.1057000D+01 0.2470000D+00 0.2470000D+00 0.2470000D+00 0.2470000D+00
EXPONENTS  0.2470000D+00 0.2470000D+00 0.3387000D+02 0.5095000D+01 0.1159000D+01
EXPONENTS  0.3258000D+00 0.1027000D+00 0.2526000D-01 0.1407000D+01 0.1407000D+01
EXPONENTS  0.1407000D+01 0.3880000D+00 0.3880000D+00 0.3880000D+00 0.1020000D+00
EXPONENTS  0.1020000D+00 0.1020000D+00 0.1057000D+01 0.1057000D+01 0.1057000D+01
EXPONENTS  0.1057000D+01 0.1057000D+01 0.1057000D+01 0.2470000D+00 0.2470000D+00
EXPONENTS  0.2470000D+00 0.2470000D+00 0.2470000D+00 0.2470000D+00 0.3387000D+02
EXPONENTS  0.5095000D+01 0.1159000D+01 0.3258000D+00 0.1027000D+00 0.2526000D-01
EXPONENTS  0.1407000D+01 0.1407000D+01 0.1407000D+01 0.3880000D+00 0.3880000D+00
EXPONENTS  0.3880000D+00 0.1020000D+00 0.1020000D+00 0.1020000D+00 0.1057000D+01
EXPONENTS  0.1057000D+01 0.1057000D+01 0.1057000D+01 0.1057000D+01 0.1057000D+01
EXPONENTS  0.2470000D+00 0.2470000D+00 0.2470000D+00 0.2470000D+00 0.2470000D+00
EXPONENTS  0.2470000D+00 0.3387000D+02 0.5095000D+01 0.1159000D+01 0.3258000D+00
EXPONENTS  0.1027000D+00 0.2526000D-01 0.1407000D+01 0.1407000D+01 0.1407000D+01
EXPONENTS  0.3880000D+00 0.3880000D+00 0.3880000D+00 0.1020000D+00 0.1020000D+00
EXPONENTS  0.1020000D+00 0.1057000D+01 0.1057000D+01 0.1057000D+01 0.1057000D+01
EXPONENTS  0.1057000D+01 0.1057000D+01 0.2470000D+00 0.2470000D+00 0.2470000D+00
EXPONENTS  0.2470000D+00 0.2470000D+00 0.2470000D+00
MO    1     MO 0.0        OCC NO =    2.0000000  ORB. ENERGY =  -10.074667
  0.18418078D-02  0.34335485D-02  0.58033019D-02  0.87242637D-02  0.10718766D-01
  0.90537114D-02  0.34147268D-02 -0.16899674D-04 -0.98023622D-04 -0.18353115D-03
 -0.31247748D-03 -0.48335515D-03 -0.63656173D-03 -0.66142841D-03 -0.42030807D-03
  0.28168069D-03  0.13341102D-02 -0.42737375D-02 -0.14401885D-02 -0.52723067D-03
 -0.49431227D-03 -0.35197978D-03 -0.11180819D-05 -0.10482729D-05 -0.74643274D-06
  0.40632686D-15  0.38095726D-15  0.27126426D-15 -0.17892943D-02 -0.39141354D-05
 -0.16991652D-15  0.74308083D-02  0.29782531D-04  0.40171535D-16 -0.54234568D-03
 -0.26057507D-05  0.18977205D-19  0.45518155D-03 -0.59815903D-03  0.14297748D-03
 -0.82608820D-07 -0.12981084D-15  0.70958295D-16 -0.20325848D-02  0.14878198D-02
  0.54476501D-03  0.22387293D-04 -0.50470544D-17 -0.36073925D-16 -0.26120604D-03
  0.17906151D-03  0.82144534D-04  0.44754153D-05  0.29422335D-17  0.45009326D-17
 -0.21752546D-03 -0.17305897D-05 -0.27820099D-17  0.58408566D-03  0.46232918D-05
  0.60179164D-17  0.68490731D-04  0.56847722D-06  0.23281134D-17  0.94189815D-17
  0.45856026D-03 -0.81529962D-06  0.84643827D-19 -0.49858769D-03  0.48203631D-05
  0.94387316D-18 -0.87709308D-03 -0.23744642D-05 -0.11978046D-17 -0.82455817D-17
 -0.18417997D-02 -0.34335335D-02 -0.58032765D-02 -0.87242254D-02 -0.10718719D-01
 -0.90536717D-02 -0.34147118D-02  0.16899600D-04  0.98023621D-04  0.18353115D-03
  0.31247748D-03  0.48335515D-03  0.63656173D-03  0.66142841D-03  0.42030806D-03
 -0.28168069D-03 -0.13341071D-02  0.42737097D-02  0.14401904D-02 -0.52722719D-03
 -0.49430900D-03 -0.35197746D-03  0.11180903D-05  0.10482808D-05  0.74643834D-06
  0.33979206D-17  0.31857665D-17  0.22684556D-17 -0.17893000D-02  0.39140086D-05
 -0.53340848D-17  0.74307986D-02 -0.29782420D-04 -0.13507521D-16 -0.54234594D-03
  0.26057478D-05 -0.65159129D-18 -0.45517798D-03  0.59815590D-03 -0.14297792D-03
 -0.82635546D-07  0.82265043D-17 -0.77575945D-17  0.20325795D-02 -0.14878159D-02
 -0.54476355D-03  0.22387345D-04  0.15424917D-18  0.20721843D-17  0.26120663D-03
 -0.17906178D-03 -0.82144849D-04  0.44754462D-05 -0.36572176D-17 -0.66686133D-19
 -0.21752513D-03  0.17305924D-05  0.90088510D-18  0.58408427D-03 -0.46232956D-05
 -0.40968819D-17  0.68491121D-04 -0.56848150D-06  0.13942266D-17 -0.29487333D-17
  0.45855959D-03  0.81528314D-06  0.11836274D-17 -0.49858638D-03 -0.48202974D-05
 -0.48040992D-17 -0.87709240D-03  0.23744480D-05  0.12532170D-17 -0.17361851D-17
  0.16411830D+00  0.30595382D+00  0.51711586D+00  0.77739452D+00  0.95511899D+00
  0.80675068D+00  0.30427667D+00 -0.15058822D-02 -0.13886948D-02 -0.26000747D-02
 -0.44268497D-02 -0.68476634D-02 -0.90181318D-02 -0.93704166D-02 -0.59544791D-02
  0.39905534D-02  0.17202145D-01  0.23430407D-02 -0.19090237D-02  0.55843223D-03
  0.52356572D-03  0.37280998D-03 -0.67498342D-03 -0.63283986D-03 -0.45061968D-03
  0.11740148D-16  0.11007135D-16  0.78377362D-17  0.18821989D-03 -0.13689429D-02
 -0.59022907D-17  0.22255513D-02 -0.19948893D-02 -0.55015738D-17 -0.81627319D-04
  0.61608255D-04 -0.15221688D-18  0.71448615D-04  0.12914213D-02 -0.13628699D-02
 -0.21612989D-02  0.13838860D-17 -0.88287590D-18 -0.19144410D-03 -0.40045648D-03
  0.59190058D-03  0.23504488D-03 -0.68475453D-17  0.39665294D-17  0.16081219D-03
 -0.26872760D-03  0.10791541D-03 -0.13452597D-04 -0.53548948D-18  0.20764694D-17
  0.75928672D-04  0.38775424D-03  0.15999933D-17 -0.31583904D-03 -0.51034863D-03
 -0.46109845D-17  0.88053023D-04 -0.65291408D-03 -0.18899535D-18 -0.70442661D-17
 -0.16866067D-03  0.13693806D-03 -0.10869353D-18  0.66182763D-03 -0.43186538D-03
 -0.14323301D-17 -0.15584562D-03  0.21051188D-04  0.17584107D-17 -0.60082159D-18
 -0.16411755D+00 -0.30595242D+00 -0.51711349D+00 -0.77739097D+00 -0.95511463D+00
 -0.80674699D+00 -0.30427528D+00  0.15058753D-02  0.13886891D-02  0.26000642D-02
  0.44268317D-02  0.68476355D-02  0.90180951D-02  0.93703785D-02  0.59544549D-02
 -0.39905372D-02 -0.17202069D-01 -0.23430404D-02  0.19090222D-02  0.55843036D-03
  0.52356396D-03  0.37280873D-03  0.67497953D-03  0.63283621D-03  0.45061708D-03
 -0.13215227D-16 -0.12390116D-16 -0.88225004D-17  0.18822193D-03  0.13689414D-02
  0.32226366D-18  0.22255459D-02  0.19948863D-02 -0.10711306D-17 -0.81627254D-04
 -0.61608231D-04  0.39495515D-18 -0.71448653D-04 -0.12914145D-02  0.13628631D-02
 -0.21612890D-02  0.39057008D-17  0.96979850D-18  0.19144423D-03  0.40045425D-03
 -0.59189847D-03  0.23504516D-03 -0.37326343D-17  0.26966566D-17 -0.16081170D-03
  0.26872686D-03 -0.10791516D-03 -0.13452582D-04 -0.45497664D-18  0.74013156D-18
  0.75927873D-04 -0.38775239D-03 -0.17891183D-18 -0.31583619D-03  0.51034625D-03
  0.61456437D-18  0.88052570D-04  0.65291092D-03 -0.77828870D-19  0.55505862D-17
 -0.16865993D-03 -0.13693738D-03  0.17555391D-18  0.66182498D-03  0.43186350D-03
  0.96874494D-18 -0.15584518D-03 -0.21051372D-04 -0.14954067D-17  0.45528474D-18
  0.16551144D+00  0.30855095D+00  0.52150546D+00  0.78399353D+00  0.96322663D+00
  0.81359887D+00  0.30685956D+00 -0.15186651D-02 -0.14018635D-02 -0.26247309D-02
 -0.44688289D-02 -0.69125988D-02 -0.91036495D-02 -0.94592749D-02 -0.60109446D-02
  0.40283953D-02  0.17343079D-01  0.23518502D-02 -0.19393759D-02  0.56389710D-03
  0.52868938D-03  0.37645833D-03  0.67113965D-03  0.62923608D-03  0.44805358D-03
  0.31974329D-17  0.29977966D-17  0.21346098D-17  0.18819295D-03  0.13910470D-02
 -0.19875861D-17  0.22444979D-02  0.20201646D-02  0.13774030D-16 -0.83126953D-04
 -0.62220044D-04  0.25566136D-18  0.70363751D-04  0.13068544D-02 -0.13772182D-02
  0.21692562D-02 -0.60764537D-17  0.11450288D-17 -0.20206996D-03 -0.39186222D-03
  0.59393218D-03 -0.22498542D-03  0.41861404D-17 -0.16426472D-17  0.16134303D-03
 -0.26937257D-03  0.10802955D-03  0.12203892D-04  0.20166395D-17  0.30441875D-17
  0.76434424D-04 -0.38278547D-03  0.13230581D-17 -0.32125800D-03  0.49919681D-03
 -0.30374059D-17  0.91954731D-04  0.64915962D-03 -0.93176843D-18 -0.26105787D-17
 -0.17164939D-03 -0.13401889D-03 -0.20299500D-18  0.67073797D-03  0.42493726D-03
  0.73214127D-18 -0.15578979D-03 -0.22880592D-04 -0.12315626D-18 -0.27048908D-17
 -0.16551067D+00 -0.30854952D+00 -0.52150305D+00 -0.78398991D+00 -0.96322219D+00
 -0.81359512D+00 -0.30685815D+00  0.15186581D-02  0.14018578D-02  0.26247201D-02
  0.44688105D-02  0.69125704D-02  0.91036120D-02  0.94592360D-02  0.60109198D-02
 -0.40283787D-02 -0.17343001D-01 -0.23518494D-02  0.19393743D-02  0.56389520D-03
  0.52868759D-03  0.37645706D-03 -0.67113578D-03 -0.62923245D-03 -0.44805099D-03
 -0.16020830D-16 -0.15020546D-16 -0.10695524D-16  0.18819487D-03 -0.13910453D-02
  0.11046350D-16  0.22444924D-02 -0.20201614D-02  0.95569342D-17 -0.83126883D-04
  0.62220017D-04  0.50806887D-19 -0.70363797D-04 -0.13068475D-02  0.13772113D-02
  0.21692463D-02 -0.24372884D-17 -0.42786320D-17  0.20207004D-03  0.39186004D-03
 -0.59393008D-03 -0.22498578D-03 -0.34071104D-19  0.52218531D-17 -0.16134254D-03
  0.26937184D-03 -0.10802930D-03  0.12203883D-04 -0.24519480D-17  0.33100330D-17
  0.76433617D-04  0.38278368D-03 -0.83019428D-18 -0.32125509D-03 -0.49919455D-03
  0.12612638D-17  0.91954239D-04 -0.64915648D-03  0.12293190D-17  0.21084342D-17
 -0.17164864D-03  0.13401821D-03 -0.56831054D-18  0.67073528D-03 -0.42493539D-03
 -0.58603005D-18 -0.15578935D-03  0.22880766D-04  0.22909617D-17 -0.25207222D-17
  0.31210107D-04  0.56288713D-04  0.82997675D-04  0.22306433D-02  0.44263993D-02
 -0.10249974D-03 -0.12374321D-03  0.36962358D-03  0.34383664D-17 -0.73747546D-03
 -0.11664891D-03 -0.47114246D-17  0.48212485D-03 -0.23978113D-03 -0.15662069D-17
 -0.28049632D-03 -0.29812583D-03  0.57862215D-03  0.13647835D-02 -0.41158088D-17
  0.62832153D-17 -0.47082104D-04 -0.84005540D-04  0.13108764D-03  0.17547366D-03
 -0.61972062D-18 -0.49234969D-18 -0.31209876D-04 -0.56288296D-04 -0.82997060D-04
 -0.22306390D-02 -0.44263913D-02  0.10249980D-03 -0.12374209D-03 -0.36962130D-03
 -0.19042865D-17 -0.73747109D-03  0.11665125D-03  0.99382666D-18  0.48212393D-03
  0.23978114D-03 -0.97968425D-18  0.28049529D-03  0.29812361D-03 -0.57861890D-03
  0.13647758D-02  0.25865633D-17 -0.10592687D-17  0.47081973D-04  0.84004959D-04
 -0.13108693D-03  0.17547291D-03 -0.21655218D-18 -0.24328041D-19  0.31311089D-04
  0.56470838D-04  0.83266218D-04  0.22415009D-02  0.44653409D-02 -0.10357040D-03
 -0.12565526D-03 -0.37246702D-03  0.21144240D-17 -0.73250213D-03  0.10545843D-03
 -0.70301540D-18  0.48463023D-03  0.24317936D-03  0.22220942D-17 -0.27579915D-03
 -0.30577999D-03  0.58157914D-03 -0.13709795D-02  0.23631687D-17 -0.44081864D-17
 -0.47257453D-04 -0.84955419D-04  0.13221287D-03 -0.17586155D-03 -0.12796609D-17
  0.76010664D-18 -0.31310858D-04 -0.56470422D-04 -0.83265604D-04 -0.22414965D-02
 -0.44653327D-02  0.10357047D-03 -0.12565413D-03  0.37246470D-03  0.52720632D-17
 -0.73249777D-03 -0.10546083D-03 -0.66778303D-17  0.48462929D-03 -0.24317934D-03
  0.41456830D-17  0.27579815D-03  0.30577771D-03 -0.58157586D-03 -0.13709717D-02
  0.42392404D-19 -0.13104119D-17  0.47257323D-04  0.84954833D-04 -0.13221216D-03
 -0.17586080D-03  0.11237057D-17 -0.58136640D-18
MO    2     MO 0.0        OCC NO =    2.0000000  ORB. ENERGY =  -10.074660
  0.17567690D-02  0.32750168D-02  0.55353554D-02  0.83214523D-02  0.10223866D-01
  0.86356889D-02  0.32570641D-02 -0.16119392D-04 -0.19544332D-06 -0.36593156D-06
 -0.62302979D-06 -0.96373235D-06 -0.12692016D-05 -0.13187818D-05 -0.83802661D-06
  0.56162594D-06  0.66187286D-03 -0.60433406D-02  0.39852235D-03 -0.75706995D-03
 -0.70980120D-03 -0.50542074D-03  0.87747963D-06  0.82269293D-06  0.58580637D-06
  0.32663409D-15  0.30624023D-15  0.21806128D-15  0.12338748D-02 -0.13297174D-04
 -0.16621150D-15  0.20910715D-02  0.11652417D-04  0.44405112D-16  0.57830063D-04
 -0.30099375D-06 -0.86363733D-18  0.77584065D-03 -0.67977015D-03 -0.96070496D-04
  0.27978765D-05  0.13765367D-15 -0.21893365D-15 -0.11614731D-02  0.84352351D-03
  0.31794958D-03 -0.54514365D-05 -0.78749512D-17  0.65198324D-16  0.12877123D-03
 -0.60375019D-04 -0.68396212D-04 -0.32713828D-05 -0.19646110D-17 -0.62637956D-17
 -0.72845295D-04  0.28144003D-06 -0.69872753D-18  0.30340729D-03 -0.39102524D-06
  0.67873769D-18 -0.84871406D-04 -0.45329485D-06  0.14174449D-17 -0.43604093D-17
  0.14477341D-03 -0.17301836D-05 -0.16112768D-17 -0.28517200D-03  0.68969751D-05
  0.70586124D-17 -0.14914823D-03 -0.17064242D-05 -0.22247818D-17  0.76587567D-17
  0.17567775D-02  0.32750326D-02  0.55353820D-02  0.83214924D-02  0.10223915D-01
  0.86357305D-02  0.32570798D-02 -0.16119470D-04 -0.19589396D-06 -0.36677530D-06
 -0.62446634D-06 -0.96595447D-06 -0.12721281D-05 -0.13218225D-05 -0.83995888D-06
  0.56292091D-06  0.66187899D-03 -0.60433602D-02  0.39851573D-03  0.75707237D-03
  0.70980347D-03  0.50542236D-03  0.87748010D-06  0.82269337D-06  0.58580669D-06
  0.63140487D-17  0.59198220D-17  0.42152659D-17 -0.12338666D-02 -0.13297173D-04
 -0.91824280D-17 -0.20911057D-02  0.11652404D-04  0.82049843D-17 -0.57827569D-04
 -0.30099267D-06  0.13246303D-17  0.77584274D-03 -0.67977290D-03 -0.96069839D-04
 -0.27978766D-05 -0.10510257D-16  0.79043855D-17 -0.11614824D-02  0.84353035D-03
  0.31795209D-03  0.54514457D-05  0.16887148D-16 -0.38347233D-17  0.12877003D-03
 -0.60374195D-04 -0.68395835D-04  0.32713849D-05 -0.51564619D-17 -0.11915194D-18
  0.72846295D-04  0.28144073D-06 -0.28196227D-18 -0.30340998D-03 -0.39102707D-06
 -0.79555610D-18  0.84871092D-04 -0.45329511D-06  0.16414429D-17  0.62646482D-17
 -0.14477552D-03 -0.17301833D-05 -0.61191500D-18  0.28517429D-03  0.68969731D-05
  0.24694717D-17  0.14915227D-03 -0.17064232D-05 -0.63372670D-18 -0.30707378D-17
  0.16390506D+00  0.30555631D+00  0.51644398D+00  0.77638447D+00  0.95387803D+00
  0.80570249D+00  0.30388133D+00 -0.15039257D-02 -0.12350427D-02 -0.23123896D-02
 -0.39370412D-02 -0.60900041D-02 -0.80203211D-02 -0.83336274D-02 -0.52956461D-02
  0.35490189D-02  0.16717855D-01  0.10150466D-03 -0.33125529D-03  0.40862388D-03
  0.38311086D-03  0.27279775D-03 -0.84520496D-03 -0.79243338D-03 -0.56425977D-03
  0.18695292D-16  0.17528025D-16  0.12480998D-16 -0.43722933D-03 -0.33661530D-03
 -0.82092644D-17  0.11812607D-02 -0.65147091D-03  0.60451776D-17 -0.14416099D-04
  0.54022907D-05  0.72925735D-18 -0.86393529D-05  0.14841660D-02 -0.14755266D-02
 -0.21420130D-02 -0.46761766D-17  0.46372684D-18  0.24629932D-04 -0.48202853D-03
  0.45739859D-03 -0.65052345D-04  0.55114707D-17  0.57036393D-17  0.10651318D-03
 -0.15965405D-03  0.53140868D-04 -0.30424892D-05  0.84709060D-18 -0.23838522D-17
  0.17423638D-03  0.39911852D-03  0.21620078D-17 -0.62340464D-03 -0.51053421D-03
 -0.85737795D-18  0.10069551D-03 -0.68682134D-03 -0.56286456D-17 -0.62819914D-17
 -0.16043036D-03  0.14924838D-03  0.15718861D-18  0.57774798D-03 -0.40827186D-03
  0.12048010D-17 -0.96456910D-04 -0.39473283D-04 -0.16763669D-17  0.40530902D-17
  0.16390582D+00  0.30555772D+00  0.51644637D+00  0.77638807D+00  0.95388244D+00
  0.80570621D+00  0.30388274D+00 -0.15039326D-02 -0.12350491D-02 -0.23124016D-02
 -0.39370617D-02 -0.60900357D-02 -0.80203628D-02 -0.83336707D-02 -0.52956736D-02
  0.35490373D-02  0.16717935D-01  0.10151545D-03 -0.33126415D-03 -0.40862646D-03
 -0.38311328D-03 -0.27279948D-03 -0.84520806D-03 -0.79243628D-03 -0.56426184D-03
  0.18650859D-16  0.17486366D-16  0.12451334D-16  0.43722846D-03 -0.33662166D-03
 -0.91017993D-17 -0.11812709D-02 -0.65148015D-03 -0.22735138D-17  0.14416478D-04
  0.54025756D-05 -0.32616078D-18 -0.86390272D-05  0.14841719D-02 -0.14755329D-02
  0.21420230D-02 -0.21640892D-17 -0.71012095D-17  0.24629025D-04 -0.48203035D-03
  0.45740132D-03  0.65051288D-04  0.15456315D-17  0.66995973D-17  0.10651392D-03
 -0.15965529D-03  0.53141365D-04  0.30425480D-05 -0.19410892D-19  0.52214743D-18
 -0.17423673D-03  0.39912029D-03  0.24819474D-18  0.62340611D-03 -0.51053653D-03
 -0.66735835D-18 -0.10069592D-03 -0.68682433D-03 -0.77225867D-19 -0.24132619D-17
  0.16043114D-03  0.14924900D-03  0.34296819D-18 -0.57775104D-03 -0.40827383D-03
 -0.75402725D-18  0.96457627D-04 -0.39473182D-04 -0.27487734D-18 -0.23859268D-17
  0.16530541D+00  0.30816688D+00  0.52085631D+00  0.78301764D+00  0.96202764D+00
  0.81258614D+00  0.30647759D+00 -0.15167747D-02 -0.12478043D-02 -0.23362834D-02
 -0.39777224D-02 -0.61529317D-02 -0.81031946D-02 -0.84197383D-02 -0.53503657D-02
  0.35856907D-02  0.16856193D-01  0.15939897D-03 -0.34160771D-03  0.41196598D-03
  0.38624429D-03  0.27502895D-03  0.84311894D-03  0.79047760D-03  0.56286714D-03
 -0.18893624D-18 -0.17713974D-18 -0.12613405D-18 -0.42405992D-03  0.35561594D-03
 -0.88199613D-18  0.11960811D-02  0.67484368D-03 -0.15060993D-16 -0.14938736D-04
 -0.56441241D-05 -0.53246002D-18 -0.94890401D-05  0.14991120D-02 -0.14896230D-02
  0.21496968D-02 -0.31081700D-18 -0.54803284D-17  0.20146917D-04 -0.47741602D-03
  0.45726910D-03  0.73367126D-04 -0.13171081D-16  0.41059675D-18  0.10604582D-03
 -0.15954948D-03  0.53503658D-04  0.23545555D-05 -0.29059386D-17 -0.44507862D-17
  0.17504807D-03 -0.39376423D-03  0.15834894D-17 -0.62985569D-03  0.49747947D-03
 -0.32977200D-17  0.10471147D-03  0.68381320D-03 -0.14527481D-17 -0.15690416D-16
 -0.16200248D-03 -0.14842544D-03  0.15646435D-18  0.58180572D-03  0.40692815D-03
 -0.18825140D-17 -0.95798276D-04  0.38348182D-04  0.14131210D-17 -0.13446761D-17
  0.16530617D+00  0.30816829D+00  0.52085869D+00  0.78302123D+00  0.96203205D+00
  0.81258986D+00  0.30647900D+00 -0.15167817D-02 -0.12478107D-02 -0.23362954D-02
 -0.39777428D-02 -0.61529633D-02 -0.81032363D-02 -0.84197815D-02 -0.53503932D-02