 Molden2AIM, Version 4.0.0 (06/02/2016)           Time: Thu Jun 28 18:06:33 2018
GAUSSIAN             37 MOL ORBITALS    599 PRIMITIVES        5 NUCLEI
  C    1    (CENTRE  1)   0.00000000  0.00000000  0.00000000  CHARGE =  6.0
  Cl   2    (CENTRE  2)   1.93692014  1.93692014  1.93692014  CHARGE = 17.0
  Cl   3    (CENTRE  3)   1.93692014 -1.93692014 -1.93692014  CHARGE = 17.0
  Cl   4    (CENTRE  4)  -1.93692014  1.93692014 -1.93692014  CHARGE = 17.0
  Cl   5    (CENTRE  5)  -1.93692014 -1.93692014  1.93692014  CHARGE = 17.0
CENTRE ASSIGNMENTS    1  1  1  1  1  1  1  1  1  1  1  1  1  1  1  1  1  1  1  1
CENTRE ASSIGNMENTS    1  1  1  1  1  1  1  1  1  1  1  1  1  1  1  1  1  1  1  1
CENTRE ASSIGNMENTS    1  1  1  1  1  1  1  1  1  1  1  1  1  1  1  1  1  1  1  1
CENTRE ASSIGNMENTS    1  1  1  1  1  1  1  1  1  1  1  1  1  1  1  2  2  2  2  2
CENTRE ASSIGNMENTS    2  2  2  2  2  2  2  2  2  2  2  2  2  2  2  2  2  2  2  2
CENTRE ASSIGNMENTS    2  2  2  2  2  2  2  2  2  2  2  2  2  2  2  2  2  2  2  2
CENTRE ASSIGNMENTS    2  2  2  2  2  2  2  2  2  2  2  2  2  2  2  2  2  2  2  2
CENTRE ASSIGNMENTS    2  2  2  2  2  2  2  2  2  2  2  2  2  2  2  2  2  2  2  2
CENTRE ASSIGNMENTS    2  2  2  2  2  2  2  2  2  2  2  2  2  2  2  2  2  2  2  2
CENTRE ASSIGNMENTS    2  2  2  2  2  2  2  2  2  2  2  2  2  2  2  2  2  2  2  2
CENTRE ASSIGNMENTS    2  2  2  2  2  2  3  3  3  3  3  3  3  3  3  3  3  3  3  3
CENTRE ASSIGNMENTS    3  3  3  3  3  3  3  3  3  3  3  3  3  3  3  3  3  3  3  3
CENTRE ASSIGNMENTS    3  3  3  3  3  3  3  3  3  3  3  3  3  3  3  3  3  3  3  3
CENTRE ASSIGNMENTS    3  3  3  3  3  3  3  3  3  3  3  3  3  3  3  3  3  3  3  3
CENTRE ASSIGNMENTS    3  3  3  3  3  3  3  3  3  3  3  3  3  3  3  3  3  3  3  3
CENTRE ASSIGNMENTS    3  3  3  3  3  3  3  3  3  3  3  3  3  3  3  3  3  3  3  3
CENTRE ASSIGNMENTS    3  3  3  3  3  3  3  3  3  3  3  3  3  3  3  3  3  4  4  4
CENTRE ASSIGNMENTS    4  4  4  4  4  4  4  4  4  4  4  4  4  4  4  4  4  4  4  4
CENTRE ASSIGNMENTS    4  4  4  4  4  4  4  4  4  4  4  4  4  4  4  4  4  4  4  4
CENTRE ASSIGNMENTS    4  4  4  4  4  4  4  4  4  4  4  4  4  4  4  4  4  4  4  4
CENTRE ASSIGNMENTS    4  4  4  4  4  4  4  4  4  4  4  4  4  4  4  4  4  4  4  4
CENTRE ASSIGNMENTS    4  4  4  4  4  4  4  4  4  4  4  4  4  4  4  4  4  4  4  4
CENTRE ASSIGNMENTS    4  4  4  4  4  4  4  4  4  4  4  4  4  4  4  4  4  4  4  4
CENTRE ASSIGNMENTS    4  4  4  4  4  4  4  4  5  5  5  5  5  5  5  5  5  5  5  5
CENTRE ASSIGNMENTS    5  5  5  5  5  5  5  5  5  5  5  5  5  5  5  5  5  5  5  5
CENTRE ASSIGNMENTS    5  5  5  5  5  5  5  5  5  5  5  5  5  5  5  5  5  5  5  5
CENTRE ASSIGNMENTS    5  5  5  5  5  5  5  5  5  5  5  5  5  5  5  5  5  5  5  5
CENTRE ASSIGNMENTS    5  5  5  5  5  5  5  5  5  5  5  5  5  5  5  5  5  5  5  5
CENTRE ASSIGNMENTS    5  5  5  5  5  5  5  5  5  5  5  5  5  5  5  5  5  5  5  5
CENTRE ASSIGNMENTS    5  5  5  5  5  5  5  5  5  5  5  5  5  5  5  5  5  5  5
TYPE ASSIGNMENTS      1  1  1  1  1  1  1  1  1  1  1  1  1  1  1  1  1  1  1  2
TYPE ASSIGNMENTS      2  2  3  3  3  4  4  4  2  3  4  2  3  4  2  3  4  5  6  7
TYPE ASSIGNMENTS      8  9 10  5  6  7  8  9 10  5  6  7  8  9 10 11 12 13 17 14
TYPE ASSIGNMENTS     15 18 19 16 20 11 12 13 17 14 15 18 19 16 20  1  1  1  1  1
TYPE ASSIGNMENTS      1  1  1  1  1  1  1  1  1  1  1  1  1  1  1  1  1  1  1  1
TYPE ASSIGNMENTS      1  1  1  1  1  1  1  1  1  1  1  1  1  1  1  1  1  2  2  2
TYPE ASSIGNMENTS      2  2  2  2  3  3  3  3  3  3  3  4  4  4  4  4  4  4  2  2
TYPE ASSIGNMENTS      2  2  2  2  2  3  3  3  3  3  3  3  4  4  4  4  4  4  4  2
TYPE ASSIGNMENTS      3  4  2  3  4  2  3  4  5  6  7  8  9 10  5  6  7  8  9 10
TYPE ASSIGNMENTS      5  6  7  8  9 10 11 12 13 17 14 15 18 19 16 20 11 12 13 17
TYPE ASSIGNMENTS     14 15 18 19 16 20  1  1  1  1  1  1  1  1  1  1  1  1  1  1
TYPE ASSIGNMENTS      1  1  1  1  1  1  1  1  1  1  1  1  1  1  1  1  1  1  1  1
TYPE ASSIGNMENTS      1  1  1  1  1  1  1  1  2  2  2  2  2  2  2  3  3  3  3  3
TYPE ASSIGNMENTS      3  3  4  4  4  4  4  4  4  2  2  2  2  2  2  2  3  3  3  3
TYPE ASSIGNMENTS      3  3  3  4  4  4  4  4  4  4  2  3  4  2  3  4  2  3  4  5
TYPE ASSIGNMENTS      6  7  8  9 10  5  6  7  8  9 10  5  6  7  8  9 10 11 12 13
TYPE ASSIGNMENTS     17 14 15 18 19 16 20 11 12 13 17 14 15 18 19 16 20  1  1  1
TYPE ASSIGNMENTS      1  1  1  1  1  1  1  1  1  1  1  1  1  1  1  1  1  1  1  1
TYPE ASSIGNMENTS      1  1  1  1  1  1  1  1  1  1  1  1  1  1  1  1  1  1  1  2
TYPE ASSIGNMENTS      2  2  2  2  2  2  3  3  3  3  3  3  3  4  4  4  4  4  4  4
TYPE ASSIGNMENTS      2  2  2  2  2  2  2  3  3  3  3  3  3  3  4  4  4  4  4  4
TYPE ASSIGNMENTS      4  2  3  4  2  3  4  2  3  4  5  6  7  8  9 10  5  6  7  8
TYPE ASSIGNMENTS      9 10  5  6  7  8  9 10 11 12 13 17 14 15 18 19 16 20 11 12
TYPE ASSIGNMENTS     13 17 14 15 18 19 16 20  1  1  1  1  1  1  1  1  1  1  1  1
TYPE ASSIGNMENTS      1  1  1  1  1  1  1  1  1  1  1  1  1  1  1  1  1  1  1  1
TYPE ASSIGNMENTS      1  1  1  1  1  1  1  1  1  1  2  2  2  2  2  2  2  3  3  3
TYPE ASSIGNMENTS      3  3  3  3  4  4  4  4  4  4  4  2  2  2  2  2  2  2  3  3
TYPE ASSIGNMENTS      3  3  3  3  3  4  4  4  4  4  4  4  2  3  4  2  3  4  2  3
TYPE ASSIGNMENTS      4  5  6  7  8  9 10  5  6  7  8  9 10  5  6  7  8  9 10 11
TYPE ASSIGNMENTS     12 13 17 14 15 18 19 16 20 11 12 13 17 14 15 18 19 16 20
EXPONENTS  0.8236000D+04 0.1235000D+04 0.2808000D+03 0.7927000D+02 0.2559000D+02
EXPONENTS  0.8997000D+01 0.3319000D+01 0.3643000D+00 0.8236000D+04 0.1235000D+04
EXPONENTS  0.2808000D+03 0.7927000D+02 0.2559000D+02 0.8997000D+01 0.3319000D+01
EXPONENTS  0.3643000D+00 0.9059000D+00 0.1285000D+00 0.4402000D-01 0.1871000D+02
EXPONENTS  0.4133000D+01 0.1200000D+01 0.1871000D+02 0.4133000D+01 0.1200000D+01
EXPONENTS  0.1871000D+02 0.4133000D+01 0.1200000D+01 0.3827000D+00 0.3827000D+00
EXPONENTS  0.3827000D+00 0.1209000D+00 0.1209000D+00 0.1209000D+00 0.3569000D-01
EXPONENTS  0.3569000D-01 0.3569000D-01 0.1097000D+01 0.1097000D+01 0.1097000D+01
EXPONENTS  0.1097000D+01 0.1097000D+01 0.1097000D+01 0.3180000D+00 0.3180000D+00
EXPONENTS  0.3180000D+00 0.3180000D+00 0.3180000D+00 0.3180000D+00 0.1000000D+00
EXPONENTS  0.1000000D+00 0.1000000D+00 0.1000000D+00 0.1000000D+00 0.1000000D+00
EXPONENTS  0.7610000D+00 0.7610000D+00 0.7610000D+00 0.7610000D+00 0.7610000D+00
EXPONENTS  0.7610000D+00 0.7610000D+00 0.7610000D+00 0.7610000D+00 0.7610000D+00
EXPONENTS  0.2680000D+00 0.2680000D+00 0.2680000D+00 0.2680000D+00 0.2680000D+00
EXPONENTS  0.2680000D+00 0.2680000D+00 0.2680000D+00 0.2680000D+00 0.2680000D+00
EXPONENTS  0.4561000D+06 0.6833000D+05 0.1555000D+05 0.4405000D+04 0.1439000D+04
EXPONENTS  0.5204000D+03 0.2031000D+03 0.8396000D+02 0.3620000D+02 0.1583000D+02
EXPONENTS  0.6334000D+01 0.2694000D+01 0.4313000D+00 0.4561000D+06 0.6833000D+05
EXPONENTS  0.1555000D+05 0.4405000D+04 0.1439000D+04 0.5204000D+03 0.2031000D+03
EXPONENTS  0.8396000D+02 0.3620000D+02 0.1583000D+02 0.6334000D+01 0.2694000D+01
EXPONENTS  0.4313000D+00 0.4561000D+06 0.6833000D+05 0.1555000D+05 0.4405000D+04
EXPONENTS  0.1439000D+04 0.5204000D+03 0.2031000D+03 0.8396000D+02 0.3620000D+02
EXPONENTS  0.1583000D+02 0.6334000D+01 0.2694000D+01 0.4313000D+00 0.9768000D+00
EXPONENTS  0.1625000D+00 0.5910000D-01 0.6633000D+03 0.1568000D+03 0.4998000D+02
EXPONENTS  0.1842000D+02 0.7240000D+01 0.2922000D+01 0.3818000D+00 0.6633000D+03
EXPONENTS  0.1568000D+03 0.4998000D+02 0.1842000D+02 0.7240000D+01 0.2922000D+01
EXPONENTS  0.3818000D+00 0.6633000D+03 0.1568000D+03 0.4998000D+02 0.1842000D+02
EXPONENTS  0.7240000D+01 0.2922000D+01 0.3818000D+00 0.6633000D+03 0.1568000D+03
EXPONENTS  0.4998000D+02 0.1842000D+02 0.7240000D+01 0.2922000D+01 0.3818000D+00
EXPONENTS  0.6633000D+03 0.1568000D+03 0.4998000D+02 0.1842000D+02 0.7240000D+01
EXPONENTS  0.2922000D+01 0.3818000D+00 0.6633000D+03 0.1568000D+03 0.4998000D+02
EXPONENTS  0.1842000D+02 0.7240000D+01 0.2922000D+01 0.3818000D+00 0.1022000D+01
EXPONENTS  0.1022000D+01 0.1022000D+01 0.1301000D+00 0.1301000D+00 0.1301000D+00
EXPONENTS  0.4190000D-01 0.4190000D-01 0.4190000D-01 0.1046000D+01 0.1046000D+01
EXPONENTS  0.1046000D+01 0.1046000D+01 0.1046000D+01 0.1046000D+01 0.3440000D+00
EXPONENTS  0.3440000D+00 0.3440000D+00 0.3440000D+00 0.3440000D+00 0.3440000D+00
EXPONENTS  0.1350000D+00 0.1350000D+00 0.1350000D+00 0.1350000D+00 0.1350000D+00
EXPONENTS  0.1350000D+00 0.7060000D+00 0.7060000D+00 0.7060000D+00 0.7060000D+00
EXPONENTS  0.7060000D+00 0.7060000D+00 0.7060000D+00 0.7060000D+00 0.7060000D+00
EXPONENTS  0.7060000D+00 0.3120000D+00 0.3120000D+00 0.3120000D+00 0.3120000D+00
EXPONENTS  0.3120000D+00 0.3120000D+00 0.3120000D+00 0.3120000D+00 0.3120000D+00
EXPONENTS  0.3120000D+00 0.4561000D+06 0.6833000D+05 0.1555000D+05 0.4405000D+04
EXPONENTS  0.1439000D+04 0.5204000D+03 0.2031000D+03 0.8396000D+02 0.3620000D+02
EXPONENTS  0.1583000D+02 0.6334000D+01 0.2694000D+01 0.4313000D+00 0.4561000D+06
EXPONENTS  0.6833000D+05 0.1555000D+05 0.4405000D+04 0.1439000D+04 0.5204000D+03
EXPONENTS  0.2031000D+03 0.8396000D+02 0.3620000D+02 0.1583000D+02 0.6334000D+01
EXPONENTS  0.2694000D+01 0.4313000D+00 0.4561000D+06 0.6833000D+05 0.1555000D+05
EXPONENTS  0.4405000D+04 0.1439000D+04 0.5204000D+03 0.2031000D+03 0.8396000D+02
EXPONENTS  0.3620000D+02 0.1583000D+02 0.6334000D+01 0.2694000D+01 0.4313000D+00
EXPONENTS  0.9768000D+00 0.1625000D+00 0.5910000D-01 0.6633000D+03 0.1568000D+03
EXPONENTS  0.4998000D+02 0.1842000D+02 0.7240000D+01 0.2922000D+01 0.3818000D+00
EXPONENTS  0.6633000D+03 0.1568000D+03 0.4998000D+02 0.1842000D+02 0.7240000D+01
EXPONENTS  0.2922000D+01 0.3818000D+00 0.6633000D+03 0.1568000D+03 0.4998000D+02
EXPONENTS  0.1842000D+02 0.7240000D+01 0.2922000D+01 0.3818000D+00 0.6633000D+03
EXPONENTS  0.1568000D+03 0.4998000D+02 0.1842000D+02 0.7240000D+01 0.2922000D+01
EXPONENTS  0.3818000D+00 0.6633000D+03 0.1568000D+03 0.4998000D+02 0.1842000D+02
EXPONENTS  0.7240000D+01 0.2922000D+01 0.3818000D+00 0.6633000D+03 0.1568000D+03
EXPONENTS  0.4998000D+02 0.1842000D+02 0.7240000D+01 0.2922000D+01 0.3818000D+00
EXPONENTS  0.1022000D+01 0.1022000D+01 0.1022000D+01 0.1301000D+00 0.1301000D+00
EXPONENTS  0.1301000D+00 0.4190000D-01 0.4190000D-01 0.4190000D-01 0.1046000D+01
EXPONENTS  0.1046000D+01 0.1046000D+01 0.1046000D+01 0.1046000D+01 0.1046000D+01
EXPONENTS  0.3440000D+00 0.3440000D+00 0.3440000D+00 0.3440000D+00 0.3440000D+00
EXPONENTS  0.3440000D+00 0.1350000D+00 0.1350000D+00 0.1350000D+00 0.1350000D+00
EXPONENTS  0.1350000D+00 0.1350000D+00 0.7060000D+00 0.7060000D+00 0.7060000D+00
EXPONENTS  0.7060000D+00 0.7060000D+00 0.7060000D+00 0.7060000D+00 0.7060000D+00
EXPONENTS  0.7060000D+00 0.7060000D+00 0.3120000D+00 0.3120000D+00 0.3120000D+00
EXPONENTS  0.3120000D+00 0.3120000D+00 0.3120000D+00 0.3120000D+00 0.3120000D+00
EXPONENTS  0.3120000D+00 0.3120000D+00 0.4561000D+06 0.6833000D+05 0.1555000D+05
EXPONENTS  0.4405000D+04 0.1439000D+04 0.5204000D+03 0.2031000D+03 0.8396000D+02
EXPONENTS  0.3620000D+02 0.1583000D+02 0.6334000D+01 0.2694000D+01 0.4313000D+00
EXPONENTS  0.4561000D+06 0.6833000D+05 0.1555000D+05 0.4405000D+04 0.1439000D+04
EXPONENTS  0.5204000D+03 0.2031000D+03 0.8396000D+02 0.3620000D+02 0.1583000D+02
EXPONENTS  0.6334000D+01 0.2694000D+01 0.4313000D+00 0.4561000D+06 0.6833000D+05
EXPONENTS  0.1555000D+05 0.4405000D+04 0.1439000D+04 0.5204000D+03 0.2031000D+03
EXPONENTS  0.8396000D+02 0.3620000D+02 0.1583000D+02 0.6334000D+01 0.2694000D+01
EXPONENTS  0.4313000D+00 0.9768000D+00 0.1625000D+00 0.5910000D-01 0.6633000D+03
EXPONENTS  0.1568000D+03 0.4998000D+02 0.1842000D+02 0.7240000D+01 0.2922000D+01
EXPONENTS  0.3818000D+00 0.6633000D+03 0.1568000D+03 0.4998000D+02 0.1842000D+02
EXPONENTS  0.7240000D+01 0.2922000D+01 0.3818000D+00 0.6633000D+03 0.1568000D+03
EXPONENTS  0.4998000D+02 0.1842000D+02 0.7240000D+01 0.2922000D+01 0.3818000D+00
EXPONENTS  0.6633000D+03 0.1568000D+03 0.4998000D+02 0.1842000D+02 0.7240000D+01
EXPONENTS  0.2922000D+01 0.3818000D+00 0.6633000D+03 0.1568000D+03 0.4998000D+02
EXPONENTS  0.1842000D+02 0.7240000D+01 0.2922000D+01 0.3818000D+00 0.6633000D+03
EXPONENTS  0.1568000D+03 0.4998000D+02 0.1842000D+02 0.7240000D+01 0.2922000D+01
EXPONENTS  0.3818000D+00 0.1022000D+01 0.1022000D+01 0.1022000D+01 0.1301000D+00
EXPONENTS  0.1301000D+00 0.1301000D+00 0.4190000D-01 0.4190000D-01 0.4190000D-01
EXPONENTS  0.1046000D+01 0.1046000D+01 0.1046000D+01 0.1046000D+01 0.1046000D+01
EXPONENTS  0.1046000D+01 0.3440000D+00 0.3440000D+00 0.3440000D+00 0.3440000D+00
EXPONENTS  0.3440000D+00 0.3440000D+00 0.1350000D+00 0.1350000D+00 0.1350000D+00
EXPONENTS  0.1350000D+00 0.1350000D+00 0.1350000D+00 0.7060000D+00 0.7060000D+00
EXPONENTS  0.7060000D+00 0.7060000D+00 0.7060000D+00 0.7060000D+00 0.7060000D+00
EXPONENTS  0.7060000D+00 0.7060000D+00 0.7060000D+00 0.3120000D+00 0.3120000D+00
EXPONENTS  0.3120000D+00 0.3120000D+00 0.3120000D+00 0.3120000D+00 0.3120000D+00
EXPONENTS  0.3120000D+00 0.3120000D+00 0.3120000D+00 0.4561000D+06 0.6833000D+05
EXPONENTS  0.1555000D+05 0.4405000D+04 0.1439000D+04 0.5204000D+03 0.2031000D+03
EXPONENTS  0.8396000D+02 0.3620000D+02 0.1583000D+02 0.6334000D+01 0.2694000D+01
EXPONENTS  0.4313000D+00 0.4561000D+06 0.6833000D+05 0.1555000D+05 0.4405000D+04
EXPONENTS  0.1439000D+04 0.5204000D+03 0.2031000D+03 0.8396000D+02 0.3620000D+02
EXPONENTS  0.1583000D+02 0.6334000D+01 0.2694000D+01 0.4313000D+00 0.4561000D+06
EXPONENTS  0.6833000D+05 0.1555000D+05 0.4405000D+04 0.1439000D+04 0.5204000D+03
EXPONENTS  0.2031000D+03 0.8396000D+02 0.3620000D+02 0.1583000D+02 0.6334000D+01
EXPONENTS  0.2694000D+01 0.4313000D+00 0.9768000D+00 0.1625000D+00 0.5910000D-01
EXPONENTS  0.6633000D+03 0.1568000D+03 0.4998000D+02 0.1842000D+02 0.7240000D+01
EXPONENTS  0.2922000D+01 0.3818000D+00 0.6633000D+03 0.1568000D+03 0.4998000D+02
EXPONENTS  0.1842000D+02 0.7240000D+01 0.2922000D+01 0.3818000D+00 0.6633000D+03
EXPONENTS  0.1568000D+03 0.4998000D+02 0.1842000D+02 0.7240000D+01 0.2922000D+01
EXPONENTS  0.3818000D+00 0.6633000D+03 0.1568000D+03 0.4998000D+02 0.1842000D+02
EXPONENTS  0.7240000D+01 0.2922000D+01 0.3818000D+00 0.6633000D+03 0.1568000D+03
EXPONENTS  0.4998000D+02 0.1842000D+02 0.7240000D+01 0.2922000D+01 0.3818000D+00
EXPONENTS  0.6633000D+03 0.1568000D+03 0.4998000D+02 0.1842000D+02 0.7240000D+01
EXPONENTS  0.2922000D+01 0.3818000D+00 0.1022000D+01 0.1022000D+01 0.1022000D+01
EXPONENTS  0.1301000D+00 0.1301000D+00 0.1301000D+00 0.4190000D-01 0.4190000D-01
EXPONENTS  0.4190000D-01 0.1046000D+01 0.1046000D+01 0.1046000D+01 0.1046000D+01
EXPONENTS  0.1046000D+01 0.1046000D+01 0.3440000D+00 0.3440000D+00 0.3440000D+00
EXPONENTS  0.3440000D+00 0.3440000D+00 0.3440000D+00 0.1350000D+00 0.1350000D+00
EXPONENTS  0.1350000D+00 0.1350000D+00 0.1350000D+00 0.1350000D+00 0.7060000D+00
EXPONENTS  0.7060000D+00 0.7060000D+00 0.7060000D+00 0.7060000D+00 0.7060000D+00
EXPONENTS  0.7060000D+00 0.7060000D+00 0.7060000D+00 0.7060000D+00 0.3120000D+00
EXPONENTS  0.3120000D+00 0.3120000D+00 0.3120000D+00 0.3120000D+00 0.3120000D+00
EXPONENTS  0.3120000D+00 0.3120000D+00 0.3120000D+00 0.3120000D+00
MO    1     MO 0.0        OCC NO =    2.0000000  ORB. ENERGY = -101.225970
 -0.15302917D-11 -0.28528116D-11 -0.48217542D-11 -0.72486760D-11 -0.89058359D-11
 -0.75224021D-11 -0.28371733D-11  0.14041329D-13  0.95742566D-12  0.17926029D-11
  0.30520599D-11  0.47210725D-11  0.62174864D-11  0.64603667D-11  0.41052730D-11
 -0.27512585D-11 -0.72041972D-13  0.54481621D-10  0.40980972D-11  0.43137855D-04
  0.40444481D-04  0.28798880D-04  0.88609937D-04  0.83077448D-04  0.59156092D-04
  0.37123935D-04  0.34806049D-04  0.24783980D-04  0.54652947D-04  0.11226321D-03
  0.47033689D-04  0.30118506D-03  0.61866751D-03  0.25919635D-03  0.66453478D-05
  0.13650281D-04  0.57189088D-05 -0.30922789D-14 -0.67516809D-14  0.98439597D-14
  0.14530761D-03  0.34683009D-03  0.16884682D-03  0.22617475D-14  0.50125594D-14
 -0.72743069D-14 -0.62118043D-04 -0.14826758D-03 -0.72180903D-04  0.34692669D-14
  0.75232421D-14 -0.10992509D-13  0.13082358D-04  0.31225864D-04  0.15201645D-04
 -0.91027479D-05 -0.18698053D-04 -0.78337187D-05  0.13654122D-04  0.28047080D-04
  0.11750578D-04  0.13654122D-04  0.28047080D-04  0.11750578D-04  0.75004760D-12
  0.25190024D-04  0.51743101D-04  0.21678241D-04 -0.37785036D-04 -0.77614652D-04
 -0.32517361D-04 -0.37785036D-04 -0.77614652D-04 -0.32517361D-04 -0.16493437D-11
  0.49497925D+00  0.92610807D+00  0.16001096D+01  0.25939643D+01  0.39391417D+01
  0.54749437D+01  0.65089182D+01  0.57976437D+01  0.28781239D+01  0.46371188D+00
  0.71192126D-02  0.12721963D-02  0.47539990D-04 -0.10108007D-02 -0.18880306D-02
 -0.32767687D-02 -0.53168639D-02 -0.82298739D-02 -0.11780317D-01 -0.15376993D-01
 -0.16386752D-01 -0.12249430D-01 -0.64662564D-03  0.83088185D-02  0.49363928D-02
 -0.18507772D-04  0.40996262D-03  0.76513615D-03  0.13297393D-02  0.21551162D-02
  0.33472329D-02  0.47950077D-02  0.63313609D-02  0.68460792D-02  0.53674148D-02
  0.26708079D-03 -0.46012316D-02 -0.47631276D-02  0.21553826D-02 -0.25714607D-02
 -0.12567908D-02 -0.32572263D-03 -0.29803465D-02 -0.39257852D-02 -0.43310607D-02
 -0.35974438D-02 -0.19106898D-02 -0.49282263D-03  0.50660491D-06 -0.40144959D-02
 -0.52879920D-02 -0.58338940D-02 -0.48457196D-02 -0.25736794D-02 -0.66382699D-03
  0.68239157D-06 -0.28435748D-02 -0.37456262D-02 -0.41323032D-02 -0.34323528D-02
 -0.18230059D-02 -0.47020641D-03  0.48335620D-06  0.25385479D-02  0.33329273D-02
  0.37947829D-02  0.32132663D-02  0.18406827D-02  0.41869144D-03 -0.19597064D-03
  0.34171064D-02  0.44864102D-02  0.51081081D-02  0.43253361D-02  0.24777191D-02
  0.56359512D-03 -0.26379354D-03  0.24223539D-02  0.31803731D-02  0.36210888D-02
  0.30661893D-02  0.17564313D-02  0.39952718D-03 -0.18700071D-03  0.73967236D-04
  0.15327860D-03  0.63477895D-04  0.33614534D-03  0.31375116D-03  0.33910709D-03
  0.72774179D-05  0.71638756D-05  0.72924345D-05  0.68376360D-05 -0.16801697D-04
  0.99640612D-05  0.17895018D-03  0.22875754D-03  0.18476802D-03 -0.81802339D-05
  0.20100779D-04 -0.11920546D-04 -0.12333298D-05 -0.59027887D-04 -0.79841327D-05
 -0.15162900D-05  0.37258850D-05 -0.22095950D-05 -0.74450458D-04 -0.77849906D-04
 -0.74847537D-04  0.29816828D-04  0.34817972D-04  0.29155400D-04 -0.57995892D-04
 -0.53777061D-04 -0.32012554D-04 -0.31454592D-04 -0.50676854D-04 -0.55453647D-04
 -0.19508872D-03 -0.13880100D-04 -0.15183509D-04 -0.13707717D-04  0.14118217D-04
  0.21992431D-04  0.26480677D-04  0.27522083D-04  0.23558095D-04  0.14642475D-04
  0.71849074D-04 -0.24209685D+00 -0.45296413D+00 -0.78262166D+00 -0.12687210D+01
 -0.19266540D+01 -0.26778226D+01 -0.31835447D+01 -0.28356568D+01 -0.14077049D+01
 -0.22680382D+00 -0.34820427D-02 -0.62223762D-03 -0.23252049D-04  0.49438773D-03
  0.92344529D-03  0.16026841D-02  0.26005050D-02  0.40252728D-02  0.57618123D-02
  0.75209649D-02  0.80148431D-02  0.59912579D-02  0.31626786D-03 -0.40638850D-02
 -0.24144146D-02  0.90522447D-05 -0.20051478D-03 -0.37423195D-03 -0.65038219D-03
 -0.10540782D-02 -0.16371485D-02 -0.23452625D-02 -0.30967005D-02 -0.33484519D-02
 -0.26252297D-02 -0.13063056D-03  0.22504856D-02  0.23296698D-02 -0.10542085D-02
  0.12577144D-02  0.61470273D-03  0.15931258D-03 -0.32037207D-05 -0.42200192D-05
 -0.46556698D-05 -0.38670689D-05 -0.20538942D-05 -0.52975924D-06  0.54457449D-09
 -0.29930722D-02 -0.39425478D-02 -0.43495538D-02 -0.36128044D-02 -0.19188482D-02
 -0.49492692D-03  0.50876805D-06 -0.18221511D-02 -0.24001820D-02 -0.26479630D-02
 -0.21994376D-02 -0.11681748D-02 -0.30130635D-03  0.30973268D-06 -0.50813015D-06
 -0.66713764D-06 -0.75958528D-06 -0.64318562D-06 -0.36844148D-06 -0.83807655D-07
  0.39226595D-07  0.25459853D-02  0.33426920D-02  0.38059008D-02  0.32226805D-02
  0.18460754D-02  0.41991812D-03 -0.19654479D-03  0.15512328D-02  0.20366550D-02
  0.23188815D-02  0.19635336D-02  0.11247877D-02  0.25585017D-03 -0.11975196D-03
  0.75862600D-04  0.15392888D-03  0.64128173D-04 -0.19604585D-03  0.13116243D-03
  0.15651836D-03 -0.37198191D-05  0.33908490D-05  0.35194079D-05 -0.36738771D-04
  0.31752265D-04  0.49865063D-05  0.10587349D-03  0.15568085D-03 -0.28228539D-04
  0.43952579D-04 -0.37986952D-04 -0.59656273D-05 -0.21893604D-04 -0.79688161D-04
 -0.68202626D-04  0.81470601D-05 -0.70412701D-05 -0.11057900D-05 -0.37666384D-04
 -0.41065832D-04  0.32366967D-04 -0.75186216D-05  0.22008605D-04  0.16346033D-04
  0.24548582D-04 -0.12325223D-04  0.94392839D-05 -0.19927175D-05 -0.53700591D-04
 -0.58477384D-04  0.95418876D-04  0.49475471D-05 -0.87239576D-05 -0.72481661D-05
 -0.71938775D-06  0.23533614D-04  0.28021860D-04 -0.14123254D-04  0.26382589D-05
 -0.62773614D-05 -0.35141742D-04  0.24469225D-01  0.45782014D-01  0.79101178D-01
  0.12823223D+00  0.19473088D+00  0.27065302D+00  0.32176740D+00  0.28660565D+00
  0.14227963D+00  0.22923527D-01  0.35193721D-03  0.62890833D-04  0.23501323D-05
 -0.49968780D-04 -0.93334506D-04 -0.16198656D-03 -0.26283836D-03 -0.40684257D-03
 -0.58235817D-03 -0.76015932D-03 -0.81007660D-03 -0.60554870D-03 -0.31965840D-04
  0.41074518D-03  0.24402983D-03 -0.91492891D-06  0.20266439D-04  0.37824389D-04
  0.65735459D-04  0.10653784D-03  0.16546995D-03  0.23704048D-03  0.31298986D-03
  0.33843488D-03  0.26533734D-03  0.13203098D-04 -0.22746118D-03 -0.23546449D-03
  0.10655101D-03 -0.12711977D-03 -0.62129264D-04 -0.16102048D-04 -0.88222901D-03
 -0.11620936D-02 -0.12820615D-02 -0.10648994D-02 -0.56559395D-03 -0.14588318D-03
  0.14996295D-06 -0.21140469D-02 -0.27846742D-02 -0.30721480D-02 -0.25517721D-02
 -0.13553081D-02 -0.34957350D-03  0.35934968D-06 -0.74545735D-03 -0.98193463D-03
 -0.10833039D-02 -0.89980844D-03 -0.47791012D-03 -0.12326696D-03  0.12671424D-06
  0.74916854D-03  0.98360337D-03  0.11199048D-02  0.94828939D-03  0.54321667D-03
  0.12356295D-03 -0.57834259D-04  0.17963086D-02  0.23584215D-02  0.26852364D-02
  0.22737479D-02  0.13024903D-02  0.29627136D-03 -0.13867130D-03  0.63297459D-03
  0.83104923D-03  0.94621069D-03  0.80121235D-03  0.45896528D-03  0.10439868D-03
 -0.48864327D-04  0.75302979D-04  0.15448850D-03  0.64813638D-04 -0.38912136D-04
 -0.25971281D-04 -0.35950388D-04 -0.47279670D-06  0.14382663D-06 -0.45778013D-06
  0.23872487D-04 -0.44618549D-04  0.20746062D-04  0.28842558D-04  0.92791908D-04
  0.34660401D-04 -0.28559948D-04  0.53379584D-04 -0.24819636D-04 -0.43671827D-04
 -0.97468158D-04 -0.50422629D-04 -0.52938784D-05  0.98944518D-05 -0.46005734D-05
  0.11081051D-05 -0.94098913D-05  0.71102615D-06  0.35049688D-05  0.10985014D-04
  0.28435413D-05  0.27150777D-04 -0.14927418D-04 -0.38223646D-04 -0.37665684D-04
 -0.18027625D-04  0.29693022D-04 -0.96441835D-05 -0.61146632D-06 -0.31649441D-05
 -0.43908370D-06  0.17283978D-04  0.55302482D-05 -0.16490985D-04 -0.15449579D-04
  0.39645842D-05  0.17808236D-04  0.35518495D-05 -0.27735160D+00 -0.51892591D+00
 -0.89658901D+00 -0.14534754D+01 -0.22072183D+01 -0.30677738D+01 -0.36471405D+01
 -0.32485923D+01 -0.16126985D+01 -0.25983156D+00 -0.39891066D-02 -0.71284943D-03
 -0.26638071D-04  0.56638172D-03  0.10579197D-02  0.18360710D-02  0.29791970D-02
  0.46114432D-02  0.66008620D-02  0.86161868D-02  0.91819847D-02  0.68637200D-02
  0.36232359D-03 -0.46556782D-02 -0.27660078D-02  0.10370455D-04 -0.22971425D-03
 -0.42872855D-03 -0.74509249D-03 -0.12075757D-02 -0.18755542D-02 -0.26867855D-02
 -0.35476499D-02 -0.38360619D-02 -0.30075222D-02 -0.14965331D-03  0.25782070D-02
  0.26689222D-02 -0.12077250D-02  0.14408660D-02  0.70421729D-03  0.18251208D-03
 -0.21013212D-02 -0.27679116D-02 -0.30536549D-02 -0.25364114D-02 -0.13471497D-02
 -0.34746920D-03  0.35718653D-06 -0.31354706D-02 -0.41301184D-02 -0.45564882D-02
 -0.37846872D-02 -0.20101393D-02 -0.51847356D-03  0.53297320D-06  0.27596631D-03
  0.36350956D-03  0.40103620D-03  0.33310666D-03  0.17692104D-03  0.45633097D-04
 -0.46909273D-07  0.17888712D-02  0.23486567D-02  0.26741185D-02  0.22643337D-02
  0.12970975D-02  0.29504469D-03 -0.13809715D-03  0.26674297D-02  0.35021397D-02
  0.39874437D-02  0.33764035D-02  0.19341339D-02  0.43994837D-03 -0.20592005D-03
 -0.23814652D-03 -0.31266892D-03 -0.35599657D-03 -0.30144327D-03 -0.17267831D-03
 -0.39278325D-04  0.18384418D-04  0.74526859D-04  0.15383822D-03  0.65463915D-04
  0.17901161D-03  0.15661743D-03 -0.21853910D-03  0.40303953D-05  0.39168529D-05
 -0.42308064D-05  0.60286481D-05  0.29667981D-04 -0.35696629D-04 -0.44234124D-04
  0.16586859D-03  0.12187907D-03 -0.72123978D-05 -0.35493411D-04  0.42705809D-04
 -0.64332106D-04 -0.76807878D-04 -0.25764124D-04 -0.13368917D-05 -0.65790667D-05
  0.79159584D-05  0.37892174D-04 -0.46193960D-04 -0.43191591D-04  0.18793236D-04
  0.23794380D-04 -0.99658240D-05 -0.60598084D-04 -0.56379254D-04  0.32281895D-05
  0.42183769D-05 -0.15003886D-04  0.26669283D-04  0.10931401D-03 -0.83210854D-05
 -0.96244943D-05  0.60204664D-05 -0.38851504D-05  0.39890639D-05 -0.14949801D-04
  0.28848406D-04  0.24884419D-04 -0.31115987D-05 -0.40259171D-04
MO    2     MO 0.0        OCC NO =    2.0000000  ORB. ENERGY = -101.225970
  0.70471067D-14  0.13137409D-13  0.22204536D-13  0.33380691D-13  0.41012035D-13
  0.34641220D-13  0.13065394D-13 -0.64661362D-16 -0.49962596D-14 -0.93545744D-14
 -0.15926963D-13 -0.24636590D-13 -0.32445523D-13 -0.33712977D-13 -0.21423083D-13
  0.14357252D-13  0.91266565D-14 -0.11496449D-12 -0.27027656D-13 -0.48607624D-04
 -0.45572737D-04 -0.32450504D-04  0.55231868D-04  0.51783387D-04  0.36872857D-04
 -0.75349331D-04 -0.70644787D-04 -0.50303297D-04 -0.61582800D-04  0.69975300D-04
 -0.95462859D-04 -0.33937455D-03  0.38562449D-03 -0.52608301D-03 -0.74879607D-05
  0.85084196D-05 -0.11607497D-04  0.36324536D-14 -0.44644519D-14  0.83199827D-15
 -0.29492646D-03  0.21618426D-03 -0.19025616D-03 -0.28599227D-14  0.34480376D-14
 -0.58811491D-15  0.12607912D-03 -0.92417346D-04  0.81333255D-04 -0.40606119D-14
  0.52889648D-14 -0.12283529D-14 -0.26552868D-04  0.19463537D-04 -0.17129174D-04
  0.10256953D-04 -0.11654770D-04  0.15899862D-04 -0.15385429D-04  0.17482155D-04
 -0.23849793D-04 -0.15385429D-04  0.17482155D-04 -0.23849793D-04 -0.12967433D-13
 -0.28384054D-04  0.32252231D-04 -0.43999671D-04  0.42576081D-04 -0.48378346D-04
  0.65999506D-04  0.42576081D-04 -0.48378346D-04  0.65999506D-04 -0.61907106D-14
 -0.20143983D+00 -0.37689469D+00 -0.65119053D+00 -0.10556558D+01 -0.16030975D+01
 -0.22281171D+01 -0.26489097D+01 -0.23594451D+01 -0.11712992D+01 -0.18871506D+00
 -0.28972789D-02 -0.51774089D-03 -0.19347169D-04  0.41136173D-03  0.76836465D-03
  0.13335341D-02  0.21637839D-02  0.33492805D-02  0.47941908D-02  0.62579165D-02
  0.66688543D-02  0.49851040D-02  0.26315478D-03 -0.33814083D-02 -0.20089450D-02
  0.75320378D-05 -0.16684093D-03 -0.31138456D-03 -0.54115895D-03 -0.87705946D-03
 -0.13622107D-02 -0.19514061D-02 -0.25766499D-02 -0.27861229D-02 -0.21843564D-02
 -0.10869285D-03  0.18725457D-02  0.19384320D-02 -0.87716790D-03  0.10464976D-02
  0.51147139D-03  0.13255810D-03  0.19191003D-02  0.25278857D-02  0.27888502D-02
  0.23164606D-02  0.12303285D-02  0.31733761D-03 -0.32621228D-06 -0.44247079D-03
 -0.58283333D-03 -0.64300170D-03 -0.53408682D-03 -0.28366648D-03 -0.73165861D-04
  0.75212018D-07  0.25272739D-02  0.33289869D-02  0.36726524D-02  0.30505600D-02
  0.16202265D-02  0.41790368D-03 -0.42959077D-06 -0.16330532D-02 -0.21440792D-02
 -0.24411919D-02 -0.20671010D-02 -0.11841151D-02 -0.26934509D-03  0.12606833D-03
  0.37321229D-03  0.49000037D-03  0.55790147D-03  0.47240805D-03  0.27061352D-03
  0.61555188D-04 -0.28811215D-04 -0.21497253D-02 -0.28224317D-02 -0.32135462D-02
 -0.27210989D-02 -0.15587502D-02 -0.35456160D-03  0.16595434D-03 -0.84262308D-04
  0.96852151D-04 -0.13090458D-03 -0.12150726D-03 -0.17264634D-03 -0.10833745D-03
 -0.28841274D-05 -0.31434113D-05 -0.28173542D-05  0.13360141D-04 -0.40622353D-04
  0.27262212D-04 -0.13110373D-03 -0.47799757D-05 -0.10523390D-03 -0.15983459D-04
  0.48598719D-04 -0.32615259D-04  0.68124385D-04 -0.78456866D-04  0.38106030D-04
 -0.29626977D-05  0.90082695D-05 -0.60455718D-05  0.34276341D-04  0.25654502D-04
  0.32510676D-04 -0.15549623D-04 -0.41290706D-05 -0.18490749D-04 -0.10333208D-04
 -0.69913819D-06  0.54501020D-04  0.56982075D-04  0.13086350D-04  0.97122561D-06
  0.79394517D-04  0.65388033D-05  0.35623547D-05  0.73053259D-05 -0.26805960D-04
 -0.88245000D-05  0.25587981D-05  0.71895500D-05 -0.18625640D-05 -0.24474776D-04
 -0.29240144D-04 -0.83507397D-01 -0.15624266D+00 -0.26995271D+00 -0.43762482D+00
 -0.66456820D+00 -0.92367165D+00 -0.10981123D+01 -0.97811401D+00 -0.48556508D+00
 -0.78232314D-01 -0.12010744D-02 -0.21463082D-03 -0.80204188D-05  0.17053106D-03
  0.31852754D-03  0.55281999D-03  0.89700219D-03  0.13884528D-02  0.19874441D-02
  0.25942354D-02  0.27645907D-02  0.20665877D-02  0.10909149D-03 -0.14017715D-02
 -0.83281333D-03  0.31224256D-05 -0.69164336D-04 -0.12908527D-03 -0.22433883D-03
 -0.36358725D-03 -0.56470793D-03 -0.80896041D-03 -0.10681568D-02 -0.11549944D-02
 -0.90553058D-03 -0.45058902D-04  0.77626865D-03  0.80358196D-03 -0.36363221D-03
  0.43382827D-03  0.21203178D-03  0.54952302D-04  0.14427564D-02  0.19004340D-02
  0.20966239D-02  0.17414871D-02  0.92494611D-03  0.23857058D-03 -0.24524245D-06
 -0.15934083D-02 -0.20988764D-02 -0.23155524D-02 -0.19233324D-02 -0.10215286D-02
 -0.26348201D-03  0.27085055D-06  0.13763363D-02  0.18129438D-02  0.20001017D-02
  0.16613144D-02  0.88236444D-03  0.22758753D-03 -0.23395224D-06 -0.12268034D-02
 -0.16107029D-02 -0.18339038D-02 -0.15528744D-02 -0.88954624D-03 -0.20234091D-03
  0.94706681D-04  0.13547893D-02  0.17787391D-02  0.20252253D-02  0.17148776D-02
  0.98234790D-03  0.22345007D-03 -0.10458693D-03 -0.11681483D-02 -0.15336930D-02
 -0.17462224D-02 -0.14786294D-02 -0.84701584D-03 -0.19266672D-03  0.90178627D-04
 -0.84565566D-04  0.96119420D-04 -0.13163731D-03 -0.36356482D-04  0.33094161D-04
  0.97403051D-04 -0.11245657D-05  0.11080251D-05  0.14340822D-05  0.20332381D-04
  0.23776092D-04 -0.44108473D-04 -0.48761104D-04  0.77562647D-04 -0.71154379D-04
 -0.24324727D-04 -0.28444625D-04  0.52769353D-04  0.91404332D-04 -0.55176919D-04