 Molden2AIM, Version 4.0.0 (06/02/2016)           Time: Thu Jun 28 19:24:36 2018
GAUSSIAN             12 MOL ORBITALS    225 PRIMITIVES        3 NUCLEI
  C    1    (CENTRE  1)   0.00000000  0.00000000  0.49609657  CHARGE =  6.0
  F    2    (CENTRE  2)   0.00000000  1.95134253 -1.02387629  CHARGE =  9.0
  F    3    (CENTRE  3)   0.00000000 -1.95134253 -1.02387629  CHARGE =  9.0
CENTRE ASSIGNMENTS    1  1  1  1  1  1  1  1  1  1  1  1  1  1  1  1  1  1  1  1
CENTRE ASSIGNMENTS    1  1  1  1  1  1  1  1  1  1  1  1  1  1  1  1  1  1  1  1
CENTRE ASSIGNMENTS    1  1  1  1  1  1  1  1  1  1  1  1  1  1  1  1  1  1  1  1
CENTRE ASSIGNMENTS    1  1  1  1  1  1  1  1  1  1  1  1  1  1  1  2  2  2  2  2
CENTRE ASSIGNMENTS    2  2  2  2  2  2  2  2  2  2  2  2  2  2  2  2  2  2  2  2
CENTRE ASSIGNMENTS    2  2  2  2  2  2  2  2  2  2  2  2  2  2  2  2  2  2  2  2
CENTRE ASSIGNMENTS    2  2  2  2  2  2  2  2  2  2  2  2  2  2  2  2  2  2  2  2
CENTRE ASSIGNMENTS    2  2  2  2  2  2  2  2  2  2  3  3  3  3  3  3  3  3  3  3
CENTRE ASSIGNMENTS    3  3  3  3  3  3  3  3  3  3  3  3  3  3  3  3  3  3  3  3
CENTRE ASSIGNMENTS    3  3  3  3  3  3  3  3  3  3  3  3  3  3  3  3  3  3  3  3
CENTRE ASSIGNMENTS    3  3  3  3  3  3  3  3  3  3  3  3  3  3  3  3  3  3  3  3
CENTRE ASSIGNMENTS    3  3  3  3  3
TYPE ASSIGNMENTS      1  1  1  1  1  1  1  1  1  1  1  1  1  1  1  1  1  1  1  2
TYPE ASSIGNMENTS      2  2  3  3  3  4  4  4  2  3  4  2  3  4  2  3  4  5  6  7
TYPE ASSIGNMENTS      8  9 10  5  6  7  8  9 10  5  6  7  8  9 10 11 12 13 17 14
TYPE ASSIGNMENTS     15 18 19 16 20 11 12 13 17 14 15 18 19 16 20  1  1  1  1  1
TYPE ASSIGNMENTS      1  1  1  1  1  1  1  1  1  1  1  1  1  1  2  2  2  3  3  3
TYPE ASSIGNMENTS      4  4  4  2  3  4  2  3  4  2  3  4  5  6  7  8  9 10  5  6
TYPE ASSIGNMENTS      7  8  9 10  5  6  7  8  9 10 11 12 13 17 14 15 18 19 16 20
TYPE ASSIGNMENTS     11 12 13 17 14 15 18 19 16 20  1  1  1  1  1  1  1  1  1  1
TYPE ASSIGNMENTS      1  1  1  1  1  1  1  1  1  2  2  2  3  3  3  4  4  4  2  3
TYPE ASSIGNMENTS      4  2  3  4  2  3  4  5  6  7  8  9 10  5  6  7  8  9 10  5
TYPE ASSIGNMENTS      6  7  8  9 10 11 12 13 17 14 15 18 19 16 20 11 12 13 17 14
TYPE ASSIGNMENTS     15 18 19 16 20
EXPONENTS  0.8236000D+04 0.1235000D+04 0.2808000D+03 0.7927000D+02 0.2559000D+02
EXPONENTS  0.8997000D+01 0.3319000D+01 0.3643000D+00 0.8236000D+04 0.1235000D+04
EXPONENTS  0.2808000D+03 0.7927000D+02 0.2559000D+02 0.8997000D+01 0.3319000D+01
EXPONENTS  0.3643000D+00 0.9059000D+00 0.1285000D+00 0.4402000D-01 0.1871000D+02
EXPONENTS  0.4133000D+01 0.1200000D+01 0.1871000D+02 0.4133000D+01 0.1200000D+01
EXPONENTS  0.1871000D+02 0.4133000D+01 0.1200000D+01 0.3827000D+00 0.3827000D+00
EXPONENTS  0.3827000D+00 0.1209000D+00 0.1209000D+00 0.1209000D+00 0.3569000D-01
EXPONENTS  0.3569000D-01 0.3569000D-01 0.1097000D+01 0.1097000D+01 0.1097000D+01
EXPONENTS  0.1097000D+01 0.1097000D+01 0.1097000D+01 0.3180000D+00 0.3180000D+00
EXPONENTS  0.3180000D+00 0.3180000D+00 0.3180000D+00 0.3180000D+00 0.1000000D+00
EXPONENTS  0.1000000D+00 0.1000000D+00 0.1000000D+00 0.1000000D+00 0.1000000D+00
EXPONENTS  0.7610000D+00 0.7610000D+00 0.7610000D+00 0.7610000D+00 0.7610000D+00
EXPONENTS  0.7610000D+00 0.7610000D+00 0.7610000D+00 0.7610000D+00 0.7610000D+00
EXPONENTS  0.2680000D+00 0.2680000D+00 0.2680000D+00 0.2680000D+00 0.2680000D+00
EXPONENTS  0.2680000D+00 0.2680000D+00 0.2680000D+00 0.2680000D+00 0.2680000D+00
EXPONENTS  0.1950000D+05 0.2923000D+04 0.6645000D+03 0.1875000D+03 0.6062000D+02
EXPONENTS  0.2142000D+02 0.7950000D+01 0.8815000D+00 0.1950000D+05 0.2923000D+04
EXPONENTS  0.6645000D+03 0.1875000D+03 0.6062000D+02 0.2142000D+02 0.7950000D+01
EXPONENTS  0.8815000D+00 0.2257000D+01 0.3041000D+00 0.9158000D-01 0.4388000D+02
EXPONENTS  0.9926000D+01 0.2930000D+01 0.4388000D+02 0.9926000D+01 0.2930000D+01
EXPONENTS  0.4388000D+02 0.9926000D+01 0.2930000D+01 0.9132000D+00 0.9132000D+00
EXPONENTS  0.9132000D+00 0.2672000D+00 0.2672000D+00 0.2672000D+00 0.7361000D-01
EXPONENTS  0.7361000D-01 0.7361000D-01 0.3107000D+01 0.3107000D+01 0.3107000D+01
EXPONENTS  0.3107000D+01 0.3107000D+01 0.3107000D+01 0.8550000D+00 0.8550000D+00
EXPONENTS  0.8550000D+00 0.8550000D+00 0.8550000D+00 0.8550000D+00 0.2920000D+00
EXPONENTS  0.2920000D+00 0.2920000D+00 0.2920000D+00 0.2920000D+00 0.2920000D+00
EXPONENTS  0.1917000D+01 0.1917000D+01 0.1917000D+01 0.1917000D+01 0.1917000D+01
EXPONENTS  0.1917000D+01 0.1917000D+01 0.1917000D+01 0.1917000D+01 0.1917000D+01
EXPONENTS  0.7240000D+00 0.7240000D+00 0.7240000D+00 0.7240000D+00 0.7240000D+00
EXPONENTS  0.7240000D+00 0.7240000D+00 0.7240000D+00 0.7240000D+00 0.7240000D+00
EXPONENTS  0.1950000D+05 0.2923000D+04 0.6645000D+03 0.1875000D+03 0.6062000D+02
EXPONENTS  0.2142000D+02 0.7950000D+01 0.8815000D+00 0.1950000D+05 0.2923000D+04
EXPONENTS  0.6645000D+03 0.1875000D+03 0.6062000D+02 0.2142000D+02 0.7950000D+01
EXPONENTS  0.8815000D+00 0.2257000D+01 0.3041000D+00 0.9158000D-01 0.4388000D+02
EXPONENTS  0.9926000D+01 0.2930000D+01 0.4388000D+02 0.9926000D+01 0.2930000D+01
EXPONENTS  0.4388000D+02 0.9926000D+01 0.2930000D+01 0.9132000D+00 0.9132000D+00
EXPONENTS  0.9132000D+00 0.2672000D+00 0.2672000D+00 0.2672000D+00 0.7361000D-01
EXPONENTS  0.7361000D-01 0.7361000D-01 0.3107000D+01 0.3107000D+01 0.3107000D+01
EXPONENTS  0.3107000D+01 0.3107000D+01 0.3107000D+01 0.8550000D+00 0.8550000D+00
EXPONENTS  0.8550000D+00 0.8550000D+00 0.8550000D+00 0.8550000D+00 0.2920000D+00
EXPONENTS  0.2920000D+00 0.2920000D+00 0.2920000D+00 0.2920000D+00 0.2920000D+00
EXPONENTS  0.1917000D+01 0.1917000D+01 0.1917000D+01 0.1917000D+01 0.1917000D+01
EXPONENTS  0.1917000D+01 0.1917000D+01 0.1917000D+01 0.1917000D+01 0.1917000D+01
EXPONENTS  0.7240000D+00 0.7240000D+00 0.7240000D+00 0.7240000D+00 0.7240000D+00
EXPONENTS  0.7240000D+00 0.7240000D+00 0.7240000D+00 0.7240000D+00 0.7240000D+00
MO    1     MO 0.0        OCC NO =    2.0000000  ORB. ENERGY =  -24.587234
  0.50925875D-12  0.94937409D-12  0.16046095D-11  0.24122536D-11  0.29637323D-11
  0.25033457D-11  0.94416990D-12 -0.46727495D-14 -0.36162645D-12 -0.67707881D-12
 -0.11527846D-11 -0.17831825D-11 -0.23483886D-11 -0.24401262D-11 -0.15505907D-11
  0.10391698D-11 -0.19616265D-12  0.92188003D-12  0.74352072D-13 -0.57900621D-16
 -0.54285513D-16 -0.38654519D-16  0.24545938D-03  0.23013378D-03  0.16386896D-03
  0.16078427D-12  0.15074547D-12  0.10733976D-12  0.61113732D-16 -0.19361634D-02
 -0.11275209D-11 -0.20666270D-16 -0.29668422D-03 -0.22760161D-12  0.13453529D-17
 -0.29154574D-05 -0.34102761D-14 -0.58040959D-12  0.51221463D-12  0.68194960D-13
 -0.16750077D-15  0.72796171D-15  0.20469332D-02 -0.18045720D-12  0.26069996D-13
  0.15438721D-12 -0.48297010D-19  0.50555142D-17  0.70786482D-03 -0.69154924D-14
 -0.87411938D-15  0.77896117D-14  0.12195543D-18 -0.40667001D-19  0.14154330D-04
 -0.12390499D-17 -0.64800915D-04  0.80680356D-14  0.26391870D-17  0.37173942D-03
  0.22720765D-12  0.10779628D-17 -0.17733668D-03 -0.25141176D-12  0.52954090D-17
  0.44433674D-18  0.27941958D-05 -0.10790375D-13 -0.75631360D-18  0.13660831D-04
  0.34144935D-13 -0.57669661D-18 -0.22043419D-04 -0.17738091D-14  0.95545381D-18
 -0.42138309D+00 -0.78547633D+00 -0.13315755D+01 -0.20163977D+01 -0.25215124D+01
 -0.21707873D+01 -0.83452990D+00  0.36161547D-02  0.27448576D-03  0.51543564D-03
  0.87769799D-03  0.13749087D-02  0.18425394D-02  0.19818996D-02  0.11899299D-02
 -0.78254797D-03 -0.42669976D-01  0.98343017D-03  0.47939385D-03 -0.49224020D-16
 -0.48140017D-16 -0.31808144D-16  0.38309785D-02  0.37466133D-02  0.24755458D-02
 -0.27831173D-02 -0.27218280D-02 -0.17984268D-02  0.17529908D-17 -0.60550627D-03
  0.49371805D-03  0.45147505D-17 -0.74140738D-03  0.56535171D-03  0.11680816D-18
 -0.44761953D-04  0.26574887D-04  0.73821885D-03 -0.28742715D-03 -0.45079169D-03
  0.69070236D-19  0.38399536D-18  0.88679365D-03 -0.29753405D-03  0.17538364D-03
  0.12215042D-03  0.84397471D-17 -0.55275543D-18 -0.87437007D-03 -0.11323408D-03
  0.10799668D-03  0.52373917D-05 -0.44835301D-17  0.14590088D-17 -0.31957581D-03
  0.42352326D-17  0.59118455D-04  0.73129641D-04 -0.11710333D-16 -0.55017353D-03
  0.32850172D-03 -0.99536485D-18  0.37281817D-03 -0.54789064D-03  0.71495542D-17
 -0.24705691D-18  0.47903330D-05 -0.85800218D-04  0.38352558D-18  0.35182625D-03
 -0.27468486D-03  0.35764516D-18 -0.36619725D-03  0.53208552D-03  0.88421295D-18
  0.42138309D+00  0.78547633D+00  0.13315755D+01  0.20163977D+01  0.25215124D+01
  0.21707873D+01  0.83452990D+00 -0.36161547D-02 -0.27448576D-03 -0.51543564D-03
 -0.87769800D-03 -0.13749087D-02 -0.18425394D-02 -0.19818996D-02 -0.11899299D-02
  0.78254797D-03  0.42669976D-01 -0.98343018D-03 -0.47939385D-03  0.52100650D-17
  0.50953298D-17  0.33666998D-17  0.38309785D-02  0.37466133D-02  0.24755458D-02
  0.27831173D-02  0.27218280D-02  0.17984268D-02 -0.14067914D-17 -0.60550627D-03
 -0.49371805D-03  0.90942793D-18 -0.74140738D-03 -0.56535171D-03  0.27833686D-18
 -0.44761953D-04 -0.26574887D-04 -0.73821885D-03  0.28742715D-03  0.45079169D-03
  0.36299785D-17  0.11005715D-16  0.88679365D-03  0.29753405D-03 -0.17538364D-03
 -0.12215042D-03 -0.45110679D-17 -0.72759255D-17 -0.87437007D-03  0.11323408D-03
 -0.10799668D-03 -0.52373916D-05  0.11522101D-18  0.78926163D-18 -0.31957581D-03
 -0.48331266D-17  0.59118455D-04 -0.73129641D-04  0.21416351D-16 -0.55017353D-03
 -0.32850172D-03 -0.69169712D-17  0.37281817D-03  0.54789064D-03  0.41055803D-17
  0.24244377D-17  0.47903328D-05  0.85800218D-04 -0.78072082D-17  0.35182625D-03
  0.27468486D-03  0.53389508D-18 -0.36619725D-03 -0.53208552D-03 -0.56190975D-17
MO    2     MO 0.0        OCC NO =    2.0000000  ORB. ENERGY =  -24.587234
  0.45291529D-03  0.84433709D-03  0.14270784D-02  0.21453663D-02  0.26358304D-02
  0.22263801D-02  0.83970867D-03 -0.41557651D-05 -0.32161855D-03 -0.60217141D-03
 -0.10252484D-02 -0.15859033D-02 -0.20885789D-02 -0.21701672D-02 -0.13790438D-02
  0.92420312D-03 -0.18542332D-03  0.83050643D-03  0.67386130D-04 -0.11949803D-15
 -0.11203700D-15 -0.79777020D-16 -0.29104122D-12 -0.27286965D-12 -0.19429944D-12
  0.13404577D-03  0.12567643D-03  0.89489106D-04 -0.12437809D-17  0.22158749D-11
 -0.99081854D-03 -0.27771398D-18  0.33400175D-12 -0.19821910D-03  0.40698941D-20
  0.22194269D-14 -0.28576029D-05 -0.52275290D-03  0.45747786D-03  0.65275039D-04
  0.71246053D-18  0.39915426D-19 -0.22856655D-11 -0.16509713D-03  0.45334176D-04
  0.11976295D-03  0.15383144D-18  0.61047131D-18 -0.84625387D-12 -0.66483439D-05
  0.12421256D-05  0.54062183D-05 -0.21806737D-20  0.44429889D-19 -0.15301893D-13
 -0.10312798D-18  0.64717496D-13  0.10942255D-04  0.34168281D-18 -0.42795716D-12
  0.20238123D-03 -0.32298863D-19  0.23380467D-12 -0.23520799D-03 -0.14589262D-17
  0.64154686D-19 -0.90621540D-14 -0.67913161D-05 -0.13001861D-18 -0.12001657D-13
  0.29685811D-04 -0.62445445D-19  0.39188119D-13 -0.93118631D-05 -0.21027547D-20
  0.42128504D+00  0.78529356D+00  0.13312657D+01  0.20159285D+01  0.25209257D+01
  0.21702822D+01  0.83433572D+00 -0.36153133D-02 -0.20828813D-03 -0.39112822D-03
 -0.66602390D-03 -0.10433225D-02 -0.13981749D-02 -0.15039256D-02 -0.90295496D-03
  0.59382117D-03  0.42691344D-01 -0.56259797D-03 -0.27959726D-03  0.53206188D-16
  0.52034489D-16  0.34381387D-16 -0.38471872D-02 -0.37624650D-02 -0.24860197D-02
  0.25999422D-02  0.25426867D-02  0.16800606D-02 -0.50552861D-17  0.59648773D-03
 -0.39617535D-03  0.10042803D-17  0.46315692D-03 -0.23325706D-03  0.12889052D-20
  0.20564486D-04 -0.11145658D-04 -0.77404060D-03  0.67497478D-03  0.99065812D-04
 -0.85268214D-17  0.14693080D-17 -0.29705023D-03  0.28954936D-03 -0.33016383D-03
  0.40614474D-04  0.11354550D-17 -0.16024980D-18  0.55499762D-03  0.51335668D-04
 -0.67521880D-04  0.16186213D-04 -0.39686883D-18  0.21963239D-18  0.12688830D-03
  0.23856889D-18 -0.62376052D-04 -0.26532497D-04 -0.15034150D-17  0.21236545D-03
 -0.29160234D-03  0.78770836D-18 -0.25237294D-04  0.37119983D-03  0.36964039D-18
 -0.73810025D-19  0.59924914D-04  0.61984044D-04  0.29732960D-18 -0.24083679D-03
  0.18316221D-03 -0.75899529D-19  0.61062048D-04 -0.36911434D-03  0.40676088D-18
  0.42128504D+00  0.78529356D+00  0.13312657D+01  0.20159285D+01  0.25209257D+01
  0.21702822D+01  0.83433572D+00 -0.36153132D-02 -0.20828813D-03 -0.39112822D-03
 -0.66602390D-03 -0.10433225D-02 -0.13981749D-02 -0.15039256D-02 -0.90295496D-03
  0.59382117D-03  0.42691344D-01 -0.56259797D-03 -0.27959726D-03  0.61514060D-17
  0.60159407D-17  0.39749864D-17  0.38471872D-02  0.37624650D-02  0.24860197D-02
  0.25999422D-02  0.25426867D-02  0.16800606D-02 -0.29876618D-18 -0.59648773D-03
 -0.39617535D-03  0.63264562D-18 -0.46315692D-03 -0.23325706D-03  0.42059716D-19
 -0.20564486D-04 -0.11145658D-04 -0.77404059D-03  0.67497478D-03  0.99065811D-04
  0.16461313D-17  0.47159786D-18  0.29705023D-03  0.28954936D-03 -0.33016383D-03
  0.40614475D-04  0.15839303D-18  0.49047659D-20 -0.55499762D-03  0.51335667D-04
 -0.67521880D-04  0.16186213D-04  0.36562662D-18  0.34870437D-18 -0.12688830D-03
  0.11782169D-17  0.62376052D-04 -0.26532497D-04 -0.36923649D-17 -0.21236545D-03
 -0.29160234D-03  0.15771415D-18  0.25237293D-04  0.37119983D-03 -0.38428399D-17
 -0.33146561D-18 -0.59924914D-04  0.61984044D-04  0.91260620D-18  0.24083679D-03
  0.18316221D-03  0.81790627D-19 -0.61062047D-04 -0.36911434D-03  0.12743712D-17
MO    3     MO 0.0        OCC NO =    2.0000000  ORB. ENERGY =  -10.248534
  0.32844358D+00  0.61229351D+00  0.10348839D+01  0.15557695D+01  0.19114426D+01
  0.16145188D+01  0.60893709D+00 -0.30136637D-02 -0.17428826D-02 -0.32632261D-02
 -0.55559216D-02 -0.85941659D-02 -0.11318214D-01 -0.11760350D-01 -0.74731742D-02
  0.50083476D-02  0.30963367D-01  0.43574605D-03 -0.85372844D-05  0.14165102D-15
  0.13280683D-15  0.94566375D-16 -0.23522191D-14 -0.22053549D-14 -0.15703441D-14
 -0.94211001D-02 -0.88328802D-02 -0.62895369D-02 -0.29924780D-16  0.62438104D-14
 -0.12970789D-02 -0.24743381D-17  0.29158417D-14  0.36627452D-03 -0.60337680D-19
  0.21126833D-16  0.36998488D-05 -0.32273286D-02  0.22802015D-02  0.94712701D-03
 -0.81409809D-17 -0.43480372D-17 -0.28296843D-14  0.14601531D-03  0.24601064D-03
 -0.39202594D-03  0.32120594D-18  0.12433700D-16 -0.27955356D-14  0.38998232D-04
 -0.78037769D-05 -0.31194456D-04  0.82463876D-20  0.44177437D-18 -0.23846672D-15
  0.10518733D-17  0.86816918D-16  0.37787590D-03 -0.56526835D-17 -0.10446002D-14
  0.10873506D-02  0.24970634D-17  0.78414940D-15 -0.22209783D-02  0.33240473D-17
  0.12231201D-17  0.17355143D-15 -0.93684969D-05 -0.22862990D-17 -0.32897851D-15
 -0.23886543D-03 -0.13830612D-17 -0.19167579D-15  0.26697092D-03 -0.20505716D-18
  0.49153200D-03  0.91623694D-03  0.15532469D-02  0.23520735D-02  0.29412762D-02
  0.25321648D-02  0.97345661D-03 -0.42181468D-05 -0.37568038D-03 -0.70546123D-03
 -0.12012788D-02 -0.18817961D-02 -0.25218282D-02 -0.27125662D-02 -0.16286212D-02
  0.10710498D-02  0.30391177D-03 -0.74103485D-03 -0.28312122D-03  0.31789636D-18
  0.31089570D-18  0.20542193D-18 -0.12231466D-02 -0.11962107D-02 -0.79038698D-03
  0.96924108D-03  0.94789661D-03  0.62631537D-03 -0.15943504D-17  0.18640714D-03
 -0.45645270D-04  0.10051096D-16  0.10409673D-02 -0.13482445D-02  0.29489037D-18
  0.35466487D-04 -0.63321202D-04 -0.10864992D-02  0.68786192D-03  0.39863732D-03
  0.81349108D-17 -0.47969999D-17 -0.41698782D-02  0.70787964D-03 -0.45606872D-03
 -0.25181091D-03 -0.50737719D-17  0.32148041D-17  0.25583922D-02  0.31265805D-03
 -0.16581373D-03 -0.14684432D-03 -0.63287262D-17  0.46419680D-17  0.10347131D-02
  0.54055207D-17  0.12776983D-04 -0.46449640D-03 -0.12485084D-16  0.12827704D-02
 -0.90129456D-03 -0.37314777D-17 -0.13211014D-02  0.22947838D-02  0.20011289D-16
 -0.33057033D-17 -0.84523029D-04  0.42232003D-03  0.73485439D-17 -0.12975058D-02
  0.11080384D-02  0.25685660D-17  0.15510749D-02 -0.23749985D-02 -0.13562318D-16
  0.49153200D-03  0.91623694D-03  0.15532469D-02  0.23520735D-02  0.29412762D-02
  0.25321648D-02  0.97345661D-03 -0.42181468D-05 -0.37568038D-03 -0.70546123D-03
 -0.12012788D-02 -0.18817961D-02 -0.25218282D-02 -0.27125662D-02 -0.16286212D-02
  0.10710498D-02  0.30391177D-03 -0.74103485D-03 -0.28312122D-03  0.11154268D-17
  0.10908630D-17  0.72077932D-18  0.12231466D-02  0.11962107D-02  0.79038698D-03
  0.96924108D-03  0.94789661D-03  0.62631537D-03 -0.20828049D-17 -0.18640714D-03
 -0.45645270D-04  0.10321575D-16 -0.10409673D-02 -0.13482445D-02  0.30568910D-18
 -0.35466487D-04 -0.63321202D-04 -0.10864992D-02  0.68786192D-03  0.39863732D-03
 -0.62585728D-17 -0.34287765D-17  0.41698782D-02  0.70787964D-03 -0.45606872D-03
 -0.25181091D-03  0.37120737D-17  0.22067209D-17 -0.25583922D-02  0.31265805D-03
 -0.16581373D-03 -0.14684432D-03  0.64346247D-17  0.47316177D-17 -0.10347131D-02
  0.61129105D-17 -0.12776983D-04 -0.46449640D-03 -0.13959197D-16 -0.12827704D-02
 -0.90129456D-03 -0.43795346D-17  0.13211014D-02  0.22947838D-02 -0.23949047D-16
 -0.30382477D-17  0.84523029D-04  0.42232003D-03  0.67362322D-17  0.12975058D-02
  0.11080384D-02  0.23785110D-17 -0.15510749D-02 -0.23749985D-02  0.12358515D-16
MO    4     MO 0.0        OCC NO =    2.0000000  ORB. ENERGY =   -1.315424
 -0.59360745D-02 -0.11066193D-01 -0.18703815D-01 -0.28117960D-01 -0.34546163D-01
 -0.29179757D-01 -0.11005531D-01  0.54466986D-04 -0.20114081D-01 -0.37659907D-01
 -0.64119213D-01 -0.99182673D-01 -0.13062009D+00 -0.13572264D+00 -0.86245646D-01
  0.57799826D-01  0.28049526D-01  0.52780371D-02  0.17995026D-03  0.19704108D-15
  0.18473854D-15  0.13154484D-15  0.42355401D-13  0.39710881D-13  0.28276513D-13
 -0.13036779D+00 -0.12222809D+00 -0.87033682D-01  0.15957026D-15 -0.18097105D-12
 -0.28915722D-01  0.18086690D-16 -0.18648480D-13  0.48670715D-03  0.49900286D-18
  0.22207965D-14  0.68763608D-05 -0.19173140D-01  0.12306121D-01  0.68670186D-02
  0.87058143D-18 -0.12490444D-15  0.61285751D-13 -0.26550990D-02  0.25609375D-02
  0.94161550D-04 -0.13973945D-16 -0.55643291D-17  0.14192372D-12  0.11655216D-03
  0.12584206D-04 -0.12913637D-03 -0.13641677D-17  0.67234176D-18 -0.58081650D-15
 -0.11094879D-16  0.87509456D-14  0.17409288D-02  0.23889633D-16  0.37611116D-13
  0.52779910D-02  0.93950030D-17 -0.63863953D-13 -0.10500777D-01  0.10097731D-16
  0.87033438D-18  0.13001158D-13  0.16628832D-03 -0.11665338D-17 -0.57899754D-14
  0.87201857D-04 -0.14444694D-17 -0.33213498D-13 -0.58606681D-03  0.52142926D-17
 -0.12548771D-02 -0.23391454D-02 -0.39654265D-02 -0.60048243D-02 -0.75090539D-02
 -0.64645960D-02 -0.24852267D-02  0.10768894D-04 -0.86404280D-01 -0.16225194D+00
 -0.27628706D+00 -0.43280205D+00 -0.58000567D+00 -0.62387429D+00 -0.37457331D+00
  0.24633517D+00  0.13896796D+00  0.56443465D-01 -0.11653372D-02  0.12635886D-14
  0.12357621D-14  0.81652024D-15 -0.25120246D+00 -0.24567052D+00 -0.16232490D+00
  0.14664339D+00  0.14341403D+00  0.94759713D-01  0.35405984D-15 -0.67418710D-01
  0.40135499D-01  0.52195442D-16 -0.25426025D-02 -0.57463891D-03  0.54970343D-18
  0.17135479D-03 -0.26517794D-03 -0.82329969D-02  0.11275565D-01 -0.30425680D-02
 -0.44739530D-16  0.18557407D-15 -0.30236009D-01 -0.73329664D-02  0.93404349D-02
 -0.20074685D-02 -0.94062732D-16  0.68017262D-16 -0.21883517D-01  0.60152536D-03
 -0.27398179D-03 -0.32754357D-03 -0.84455328D-17  0.17512655D-16  0.16443078D-02
 -0.21689197D-16 -0.23465504D-02 -0.23582094D-02  0.52104278D-16  0.96329298D-02
 -0.45493557D-02  0.12963313D-16 -0.25932787D-02  0.11623984D-01 -0.81694085D-16
 -0.87924084D-17 -0.45468071D-03 -0.13601005D-02  0.15863944D-16  0.24193667D-02
 -0.18562176D-02  0.10513281D-16 -0.10553246D-02  0.59365193D-02 -0.46746213D-16
 -0.12548771D-02 -0.23391454D-02 -0.39654265D-02 -0.60048243D-02 -0.75090539D-02
 -0.64645960D-02 -0.24852267D-02  0.10768894D-04 -0.86404280D-01 -0.16225194D+00
 -0.27628706D+00 -0.43280205D+00 -0.58000567D+00 -0.62387429D+00 -0.37457331D+00
  0.24633517D+00  0.13896796D+00  0.56443465D-01 -0.11653372D-02  0.73683595D-15
  0.72060946D-15  0.47613714D-15  0.25120246D+00  0.24567052D+00  0.16232490D+00
  0.14664339D+00  0.14341403D+00  0.94759713D-01  0.19839233D-15  0.67418710D-01
  0.40135499D-01  0.26834799D-16  0.25426025D-02 -0.57463891D-03 -0.16857075D-17
 -0.17135479D-03 -0.26517794D-03 -0.82329969D-02  0.11275565D-01 -0.30425680D-02
  0.16940629D-15  0.56286885D-16  0.30236009D-01 -0.73329664D-02  0.93404349D-02
 -0.20074685D-02  0.55165226D-16  0.56015888D-16  0.21883517D-01  0.60152536D-03
 -0.27398179D-03 -0.32754357D-03  0.97092167D-17 -0.18049287D-17 -0.16443078D-02
 -0.21796851D-16  0.23465504D-02 -0.23582094D-02  0.46028277D-16 -0.96329298D-02
 -0.45493557D-02  0.19362276D-16  0.25932787D-02  0.11623984D-01  0.65742878D-16
 -0.73746466D-17  0.45468071D-03 -0.13601005D-02  0.16101823D-16 -0.24193667D-02
 -0.18562176D-02  0.60221168D-17  0.10553246D-02  0.59365193D-02  0.33443339D-16
MO    5     MO 0.0        OCC NO =    2.0000000  ORB. ENERGY =   -1.246044
  0.12540483D-13  0.23378311D-13  0.39513464D-13  0.59401680D-13  0.72981827D-13
  0.61644820D-13  0.23250158D-13 -0.11506633D-15 -0.94046941D-14 -0.17608555D-13
 -0.29980071D-13 -0.46374611D-13 -0.61073732D-13 -0.63459519D-13 -0.40325676D-13
  0.27025330D-13  0.15543937D-13 -0.78465617D-14 -0.65015711D-14 -0.32381955D-17
 -0.30360141D-17 -0.21618229D-17  0.17387529D+00  0.16301913D+00  0.11607933D+00
  0.21808043D-13  0.20446427D-13  0.14559074D-13 -0.20264360D-17  0.28621361D-01
 -0.63611775D-13  0.39236449D-16  0.37908594D-04 -0.20523101D-13  0.20076373D-17
  0.11966372D-05 -0.47394744D-15 -0.11077419D-13  0.21018325D-13 -0.99409062D-14
  0.63830898D-16  0.39214750D-15 -0.56365006D-01  0.25831463D-14 -0.52814360D-13
  0.50231213D-13  0.32350654D-16 -0.10183071D-15 -0.74258786D-02  0.12327271D-14
 -0.66324190D-14  0.53996919D-14  0.85776783D-19 -0.11825570D-18  0.14043673D-03
  0.72575283D-16 -0.54300399D-03 -0.77390527D-14  0.48981441D-16 -0.39308000D-02
  0.81482663D-14 -0.26670729D-15  0.55598120D-02  0.15068892D-13  0.48247325D-15
 -0.12606424D-16 -0.24801766D-03 -0.79730470D-14  0.40288663D-16 -0.14802849D-03
  0.48011887D-14 -0.24693899D-17  0.89208147D-03  0.19117952D-13 -0.13114163D-15
 -0.13916819D-02 -0.25941553D-02 -0.43977310D-02 -0.66594608D-02 -0.83276791D-02
 -0.71693560D-02 -0.27561622D-02  0.11942902D-04 -0.93756062D-01 -0.17605728D+00
 -0.29979518D+00 -0.46962738D+00 -0.62935594D+00 -0.67695717D+00 -0.40644420D+00
  0.26729480D+00  0.15275487D+00  0.67547440D-01 -0.30748309D-04  0.14054954D-14
  0.13745438D-14  0.90821920D-15 -0.15397244D+00 -0.15058168D+00 -0.99495685D-01
  0.14922590D+00  0.14593967D+00  0.96428508D-01 -0.24843139D-15 -0.46113684D-01
  0.42226161D-01 -0.11829476D-15 -0.25259287D-02  0.35602877D-02  0.12041510D-16
  0.10887562D-03 -0.98614721D-04 -0.27687529D-02  0.75807732D-03  0.20106756D-02
 -0.22686024D-15  0.62977299D-19 -0.25968618D-01 -0.64618855D-02  0.51093896D-02
  0.13524959D-02 -0.17385449D-15  0.20284416D-15 -0.23339461D-01 -0.11247307D-03
 -0.12339306D-03  0.23586613D-03 -0.11093324D-16  0.28574458D-17 -0.14662806D-03
 -0.31299297D-15  0.17648944D-02 -0.12936019D-02  0.66353489D-15  0.22579659D-02
 -0.36834166D-02  0.27544400D-15 -0.75526491D-02  0.75642224D-02  0.12186397D-14
 -0.20363640D-16  0.54748158D-04 -0.90161195D-03  0.28666223D-16  0.32798686D-02
 -0.25764342D-02  0.32424698D-16 -0.34441131D-02  0.52812700D-02 -0.26462000D-15
  0.13916819D-02  0.25941553D-02  0.43977310D-02  0.66594608D-02  0.83276791D-02
  0.71693560D-02  0.27561622D-02 -0.11942902D-04  0.93756062D-01  0.17605728D+00
  0.29979518D+00  0.46962738D+00  0.62935594D+00  0.67695717D+00  0.40644420D+00
 -0.26729480D+00 -0.15275487D+00 -0.67547440D-01  0.30748309D-04 -0.17782847D-14
 -0.17391236D-14 -0.11491125D-14 -0.15397244D+00 -0.15058168D+00 -0.99495685D-01
 -0.14922590D+00 -0.14593967D+00 -0.96428508D-01 -0.11619568D-15 -0.46113684D-01
 -0.42226161D-01 -0.13001192D-15 -0.25259287D-02 -0.35602877D-02 -0.97557131D-18
  0.10887562D-03  0.98614721D-04  0.27687529D-02 -0.75807732D-03 -0.20106756D-02
  0.14412163D-14  0.10722154D-14 -0.25968618D-01  0.64618855D-02 -0.51093896D-02
 -0.13524959D-02 -0.17136268D-15 -0.95191114D-16 -0.23339461D-01  0.11247307D-03
  0.12339306D-03 -0.23586613D-03 -0.28065078D-16 -0.20897160D-16 -0.14662806D-03
 -0.44833240D-15  0.17648944D-02  0.12936019D-02  0.97547015D-15  0.22579659D-02
  0.36834166D-02  0.36952706D-15 -0.75526491D-02 -0.75642224D-02 -0.86946288D-16
  0.33753902D-16  0.54748158D-04  0.90161195D-03 -0.67267805D-16  0.32798686D-02
  0.25764342D-02 -0.33993902D-16 -0.34441131D-02 -0.52812700D-02 -0.12072332D-15
MO    6     MO 0.0        OCC NO =    2.0000000  ORB. ENERGY =   -0.672415
 -0.55932489D-02 -0.10427088D-01 -0.17623615D-01 -0.26494066D-01 -0.32551022D-01
 -0.27494541D-01 -0.10369929D-01  0.51321359D-04 -0.40193061D-01 -0.75254092D-01
 -0.12812653D+00 -0.19819226D+00 -0.26101224D+00 -0.27120843D+00 -0.17234078D+00
  0.11549879D+00  0.60796136D-01  0.19213079D-01 -0.11754601D-02  0.88422908D-15
  0.82902096D-15  0.59031231D-15 -0.81140641D-13 -0.76074509D-13 -0.54169582D-13
 -0.16421220D+00 -0.15395937D+00 -0.10962825D+00  0.27788461D-15  0.27064569D-12
 -0.37994789D-01 -0.28403993D-16  0.29197711D-12  0.36682842D-03 -0.41370133D-18
 -0.76399259D-14  0.14969421D-03 -0.89391472D-02  0.14130909D-02  0.75260564D-02
  0.44029897D-17 -0.33529255D-15 -0.54356154D-13 -0.25773473D-02  0.21827046D-02
  0.39464265D-03 -0.85479553D-17 -0.41384860D-16 -0.17141029D-12  0.10620378D-03
  0.41743843D-04 -0.14794763D-03  0.62217647D-18 -0.27764964D-17 -0.23661236D-13
 -0.12963512D-16  0.69037418D-15  0.57679904D-03  0.12524629D-16 -0.45612489D-13
  0.31556480D-02  0.26365906D-16  0.43541366D-13 -0.48860451D-02  0.93970459D-17
 -0.37292286D-18  0.95627010D-14  0.27052600D-03 -0.31674439D-18 -0.16004267D-13
  0.66717894D-03  0.14355130D-17 -0.12683836D-13 -0.14787569D-02  0.36179548D-17
 -0.94253218D-03 -0.17569208D-02 -0.29784127D-02 -0.45101947D-02 -0.56400143D-02
 -0.48555269D-02 -0.18666418D-02  0.80884645D-05  0.41473740D-01  0.77880339D-01
  0.13261679D+00  0.20774341D+00  0.27840061D+00  0.29945739D+00  0.17979383D+00
 -0.11823998D+00 -0.75877520D-01 -0.54338641D-01 -0.91012916D-03 -0.62690574D-15
 -0.61310012D-15 -0.40510117D-15 -0.11186740D+01 -0.10940388D+01 -0.72287767D+00
  0.70778393D+00  0.69219722D+00  0.45736397D+00 -0.15951204D-15 -0.25296208D+00
  0.15942694D+00 -0.30529667D-16 -0.28957893D-01  0.17116582D-01 -0.54297722D-17
 -0.10272571D-05 -0.23809654D-03 -0.26917061D-01  0.29127519D-01 -0.22104584D-02
 -0.41539933D-15  0.13662836D-15 -0.64526351D-01 -0.96615253D-02  0.11690964D-01
 -0.20294388D-02 -0.10840911D-15  0.85446774D-16 -0.25813193D-01 -0.29272038D-03
  0.68151572D-03 -0.38879534D-03 -0.10552865D-16  0.89418695D-19 -0.15146121D-02
 -0.19548773D-16 -0.26729616D-02 -0.50381433D-02  0.36062721D-16  0.13364830D-01
 -0.70832033D-02  0.22583599D-16 -0.53459448D-02  0.22197633D-01 -0.14075123D-15
 -0.65877825D-17 -0.63125587D-03 -0.19483520D-02  0.74804832D-17  0.35053945D-02
 -0.27218003D-02  0.12282864D-16 -0.16116269D-02  0.85668563D-02 -0.36937857D-16
 -0.94253218D-03 -0.17569208D-02 -0.29784127D-02 -0.45101947D-02 -0.56400143D-02
 -0.48555269D-02 -0.18666418D-02  0.80884645D-05  0.41473740D-01  0.77880339D-01
  0.13261679D+00  0.20774341D+00  0.27840061D+00  0.29945739D+00  0.17979383D+00
 -0.11823998D+00 -0.75877520D-01 -0.54338641D-01 -0.91012916D-03  0.33838694D-15
  0.33093504D-15  0.21866277D-15  0.11186740D+01  0.10940388D+01  0.72287767D+00
  0.70778393D+00  0.69219722D+00  0.45736397D+00  0.75251561D-16  0.25296208D+00
  0.15942694D+00 -0.83977871D-17  0.28957893D-01  0.17116582D-01 -0.43491017D-17
  0.10272573D-05 -0.23809654D-03 -0.26917061D-01  0.29127519D-01 -0.22104584D-02
  0.84636897D-16  0.14065699D-15  0.64526351D-01 -0.96615253D-02  0.11690964D-01
 -0.20294388D-02  0.10580392D-15  0.53116882D-16  0.25813193D-01 -0.29272038D-03
  0.68151572D-03 -0.38879534D-03 -0.11906029D-16  0.17915132D-17  0.15146121D-02
 -0.37536444D-16  0.26729616D-02 -0.50381433D-02  0.90608849D-16 -0.13364830D-01
 -0.70832033D-02  0.22000483D-16  0.53459448D-02  0.22197633D-01  0.15144406D-15
 -0.23543150D-17  0.63125587D-03 -0.19483520D-02  0.57835800D-17 -0.35053945D-02
 -0.27218003D-02  0.12793651D-17  0.16116269D-02  0.85668563D-02  0.28854784D-16
MO    7     MO 0.0        OCC NO =    2.0000000  ORB. ENERGY =   -0.565934
 -0.73282269D-14 -0.13661481D-13 -0.23090310D-13 -0.34712299D-13 -0.42648070D-13
 -0.36023113D-13 -0.13586593D-13  0.67240806D-16  0.37310918D-14  0.69857811D-14
  0.11893890D-13  0.18398039D-13  0.24229571D-13  0.25176076D-13  0.15998266D-13
 -0.10721666D-13  0.20756225D-13 -0.46591974D-12 -0.46248756D-13 -0.36192993D-14
 -0.33933232D-14 -0.24162482D-14  0.40499009D+00  0.37970395D+00  0.27037183D+00
 -0.50479658D-13 -0.47327888D-13 -0.33700276D-13 -0.62789431D-15  0.74597268D-01
  0.11432424D-12 -0.10952790D-15 -0.16775918D-03  0.10549239D-12 -0.21068519D-16
 -0.62728691D-04  0.19138615D-14 -0.68281454D-14  0.53993282D-14  0.14288173D-14
  0.16400954D-15  0.64560055D-15 -0.54454260D-01  0.49557077D-13 -0.64302177D-13
  0.14745099D-13 -0.24033633D-16 -0.10797032D-15 -0.11279697D-01  0.21384033D-14
  0.20688220D-14 -0.42072253D-14 -0.13793435D-16 -0.21972513D-17  0.18607202D-03
  0.28053312D-16  0.93636788D-03 -0.18238914D-13 -0.13818552D-15 -0.25597639D-02
 -0.12850156D-13  0.54025581D-16 -0.24933977D-03  0.67566897D-13 -0.31455224D-15
 -0.10022064D-16 -0.75819056D-03 -0.37891386D-14 -0.69828907D-17 -0.50413903D-03
 -0.59392931D-14  0.37049082D-16  0.27787107D-02  0.17306709D-13  0.69080371D-16
 -0.76182146D-03 -0.14200682D-02 -0.24073647D-02 -0.36454597D-02 -0.45586601D-02
 -0.39245817D-02 -0.15087525D-02  0.65376715D-05  0.23093486D-01  0.43365477D-01
  0.73843928D-01  0.11567608D+00  0.15501955D+00  0.16674443D+00  0.10011314D+00
 -0.65838610D-01 -0.44560266D-01 -0.32507310D-01  0.49055506D-02 -0.15465821D-13
 -0.15125236D-13 -0.99938827D-14 -0.98819081D+00 -0.96642903D+00 -0.63856052D+00
  0.12870569D+01  0.12587136D+01  0.83168529D+00 -0.37292195D-14 -0.22735789D+00