 Molden2AIM, Version 4.0.0 (06/02/2016)           Time: Thu Jun 28 18:10:38 2018
GAUSSIAN             16 MOL ORBITALS    300 PRIMITIVES        4 NUCLEI
  F    1    (CENTRE  1)   0.00000000  2.01139992 -1.26898133  CHARGE =  9.0
  F    2    (CENTRE  2)   0.00000000 -2.01139992 -1.26898133  CHARGE =  9.0
  C    3    (CENTRE  3)   0.00000000  0.00000000  0.20106119  CHARGE =  6.0
  O    4    (CENTRE  4)   0.00000000  0.00000000  2.42184088  CHARGE =  8.0
CENTRE ASSIGNMENTS    1  1  1  1  1  1  1  1  1  1  1  1  1  1  1  1  1  1  1  1
CENTRE ASSIGNMENTS    1  1  1  1  1  1  1  1  1  1  1  1  1  1  1  1  1  1  1  1
CENTRE ASSIGNMENTS    1  1  1  1  1  1  1  1  1  1  1  1  1  1  1  1  1  1  1  1
CENTRE ASSIGNMENTS    1  1  1  1  1  1  1  1  1  1  1  1  1  1  1  2  2  2  2  2
CENTRE ASSIGNMENTS    2  2  2  2  2  2  2  2  2  2  2  2  2  2  2  2  2  2  2  2
CENTRE ASSIGNMENTS    2  2  2  2  2  2  2  2  2  2  2  2  2  2  2  2  2  2  2  2
CENTRE ASSIGNMENTS    2  2  2  2  2  2  2  2  2  2  2  2  2  2  2  2  2  2  2  2
CENTRE ASSIGNMENTS    2  2  2  2  2  2  2  2  2  2  3  3  3  3  3  3  3  3  3  3
CENTRE ASSIGNMENTS    3  3  3  3  3  3  3  3  3  3  3  3  3  3  3  3  3  3  3  3
CENTRE ASSIGNMENTS    3  3  3  3  3  3  3  3  3  3  3  3  3  3  3  3  3  3  3  3
CENTRE ASSIGNMENTS    3  3  3  3  3  3  3  3  3  3  3  3  3  3  3  3  3  3  3  3
CENTRE ASSIGNMENTS    3  3  3  3  3  4  4  4  4  4  4  4  4  4  4  4  4  4  4  4
CENTRE ASSIGNMENTS    4  4  4  4  4  4  4  4  4  4  4  4  4  4  4  4  4  4  4  4
CENTRE ASSIGNMENTS    4  4  4  4  4  4  4  4  4  4  4  4  4  4  4  4  4  4  4  4
CENTRE ASSIGNMENTS    4  4  4  4  4  4  4  4  4  4  4  4  4  4  4  4  4  4  4  4
TYPE ASSIGNMENTS      1  1  1  1  1  1  1  1  1  1  1  1  1  1  1  1  1  1  1  2
TYPE ASSIGNMENTS      2  2  3  3  3  4  4  4  2  3  4  2  3  4  2  3  4  5  6  7
TYPE ASSIGNMENTS      8  9 10  5  6  7  8  9 10  5  6  7  8  9 10 11 12 13 17 14
TYPE ASSIGNMENTS     15 18 19 16 20 11 12 13 17 14 15 18 19 16 20  1  1  1  1  1
TYPE ASSIGNMENTS      1  1  1  1  1  1  1  1  1  1  1  1  1  1  2  2  2  3  3  3
TYPE ASSIGNMENTS      4  4  4  2  3  4  2  3  4  2  3  4  5  6  7  8  9 10  5  6
TYPE ASSIGNMENTS      7  8  9 10  5  6  7  8  9 10 11 12 13 17 14 15 18 19 16 20
TYPE ASSIGNMENTS     11 12 13 17 14 15 18 19 16 20  1  1  1  1  1  1  1  1  1  1
TYPE ASSIGNMENTS      1  1  1  1  1  1  1  1  1  2  2  2  3  3  3  4  4  4  2  3
TYPE ASSIGNMENTS      4  2  3  4  2  3  4  5  6  7  8  9 10  5  6  7  8  9 10  5
TYPE ASSIGNMENTS      6  7  8  9 10 11 12 13 17 14 15 18 19 16 20 11 12 13 17 14
TYPE ASSIGNMENTS     15 18 19 16 20  1  1  1  1  1  1  1  1  1  1  1  1  1  1  1
TYPE ASSIGNMENTS      1  1  1  1  2  2  2  3  3  3  4  4  4  2  3  4  2  3  4  2
TYPE ASSIGNMENTS      3  4  5  6  7  8  9 10  5  6  7  8  9 10  5  6  7  8  9 10
TYPE ASSIGNMENTS     11 12 13 17 14 15 18 19 16 20 11 12 13 17 14 15 18 19 16 20
EXPONENTS  0.1950000D+05 0.2923000D+04 0.6645000D+03 0.1875000D+03 0.6062000D+02
EXPONENTS  0.2142000D+02 0.7950000D+01 0.8815000D+00 0.1950000D+05 0.2923000D+04
EXPONENTS  0.6645000D+03 0.1875000D+03 0.6062000D+02 0.2142000D+02 0.7950000D+01
EXPONENTS  0.8815000D+00 0.2257000D+01 0.3041000D+00 0.9158000D-01 0.4388000D+02
EXPONENTS  0.9926000D+01 0.2930000D+01 0.4388000D+02 0.9926000D+01 0.2930000D+01
EXPONENTS  0.4388000D+02 0.9926000D+01 0.2930000D+01 0.9132000D+00 0.9132000D+00
EXPONENTS  0.9132000D+00 0.2672000D+00 0.2672000D+00 0.2672000D+00 0.7361000D-01
EXPONENTS  0.7361000D-01 0.7361000D-01 0.3107000D+01 0.3107000D+01 0.3107000D+01
EXPONENTS  0.3107000D+01 0.3107000D+01 0.3107000D+01 0.8550000D+00 0.8550000D+00
EXPONENTS  0.8550000D+00 0.8550000D+00 0.8550000D+00 0.8550000D+00 0.2920000D+00
EXPONENTS  0.2920000D+00 0.2920000D+00 0.2920000D+00 0.2920000D+00 0.2920000D+00
EXPONENTS  0.1917000D+01 0.1917000D+01 0.1917000D+01 0.1917000D+01 0.1917000D+01
EXPONENTS  0.1917000D+01 0.1917000D+01 0.1917000D+01 0.1917000D+01 0.1917000D+01
EXPONENTS  0.7240000D+00 0.7240000D+00 0.7240000D+00 0.7240000D+00 0.7240000D+00
EXPONENTS  0.7240000D+00 0.7240000D+00 0.7240000D+00 0.7240000D+00 0.7240000D+00
EXPONENTS  0.1950000D+05 0.2923000D+04 0.6645000D+03 0.1875000D+03 0.6062000D+02
EXPONENTS  0.2142000D+02 0.7950000D+01 0.8815000D+00 0.1950000D+05 0.2923000D+04
EXPONENTS  0.6645000D+03 0.1875000D+03 0.6062000D+02 0.2142000D+02 0.7950000D+01
EXPONENTS  0.8815000D+00 0.2257000D+01 0.3041000D+00 0.9158000D-01 0.4388000D+02
EXPONENTS  0.9926000D+01 0.2930000D+01 0.4388000D+02 0.9926000D+01 0.2930000D+01
EXPONENTS  0.4388000D+02 0.9926000D+01 0.2930000D+01 0.9132000D+00 0.9132000D+00
EXPONENTS  0.9132000D+00 0.2672000D+00 0.2672000D+00 0.2672000D+00 0.7361000D-01
EXPONENTS  0.7361000D-01 0.7361000D-01 0.3107000D+01 0.3107000D+01 0.3107000D+01
EXPONENTS  0.3107000D+01 0.3107000D+01 0.3107000D+01 0.8550000D+00 0.8550000D+00
EXPONENTS  0.8550000D+00 0.8550000D+00 0.8550000D+00 0.8550000D+00 0.2920000D+00
EXPONENTS  0.2920000D+00 0.2920000D+00 0.2920000D+00 0.2920000D+00 0.2920000D+00
EXPONENTS  0.1917000D+01 0.1917000D+01 0.1917000D+01 0.1917000D+01 0.1917000D+01
EXPONENTS  0.1917000D+01 0.1917000D+01 0.1917000D+01 0.1917000D+01 0.1917000D+01
EXPONENTS  0.7240000D+00 0.7240000D+00 0.7240000D+00 0.7240000D+00 0.7240000D+00
EXPONENTS  0.7240000D+00 0.7240000D+00 0.7240000D+00 0.7240000D+00 0.7240000D+00
EXPONENTS  0.8236000D+04 0.1235000D+04 0.2808000D+03 0.7927000D+02 0.2559000D+02
EXPONENTS  0.8997000D+01 0.3319000D+01 0.3643000D+00 0.8236000D+04 0.1235000D+04
EXPONENTS  0.2808000D+03 0.7927000D+02 0.2559000D+02 0.8997000D+01 0.3319000D+01
EXPONENTS  0.3643000D+00 0.9059000D+00 0.1285000D+00 0.4402000D-01 0.1871000D+02
EXPONENTS  0.4133000D+01 0.1200000D+01 0.1871000D+02 0.4133000D+01 0.1200000D+01
EXPONENTS  0.1871000D+02 0.4133000D+01 0.1200000D+01 0.3827000D+00 0.3827000D+00
EXPONENTS  0.3827000D+00 0.1209000D+00 0.1209000D+00 0.1209000D+00 0.3569000D-01
EXPONENTS  0.3569000D-01 0.3569000D-01 0.1097000D+01 0.1097000D+01 0.1097000D+01
EXPONENTS  0.1097000D+01 0.1097000D+01 0.1097000D+01 0.3180000D+00 0.3180000D+00
EXPONENTS  0.3180000D+00 0.3180000D+00 0.3180000D+00 0.3180000D+00 0.1000000D+00
EXPONENTS  0.1000000D+00 0.1000000D+00 0.1000000D+00 0.1000000D+00 0.1000000D+00
EXPONENTS  0.7610000D+00 0.7610000D+00 0.7610000D+00 0.7610000D+00 0.7610000D+00
EXPONENTS  0.7610000D+00 0.7610000D+00 0.7610000D+00 0.7610000D+00 0.7610000D+00
EXPONENTS  0.2680000D+00 0.2680000D+00 0.2680000D+00 0.2680000D+00 0.2680000D+00
EXPONENTS  0.2680000D+00 0.2680000D+00 0.2680000D+00 0.2680000D+00 0.2680000D+00
EXPONENTS  0.1533000D+05 0.2299000D+04 0.5224000D+03 0.1473000D+03 0.4755000D+02
EXPONENTS  0.1676000D+02 0.6207000D+01 0.6882000D+00 0.1533000D+05 0.2299000D+04
EXPONENTS  0.5224000D+03 0.1473000D+03 0.4755000D+02 0.1676000D+02 0.6207000D+01
EXPONENTS  0.6882000D+00 0.1752000D+01 0.2384000D+00 0.7376000D-01 0.3446000D+02
EXPONENTS  0.7749000D+01 0.2280000D+01 0.3446000D+02 0.7749000D+01 0.2280000D+01
EXPONENTS  0.3446000D+02 0.7749000D+01 0.2280000D+01 0.7156000D+00 0.7156000D+00
EXPONENTS  0.7156000D+00 0.2140000D+00 0.2140000D+00 0.2140000D+00 0.5974000D-01
EXPONENTS  0.5974000D-01 0.5974000D-01 0.2314000D+01 0.2314000D+01 0.2314000D+01
EXPONENTS  0.2314000D+01 0.2314000D+01 0.2314000D+01 0.6450000D+00 0.6450000D+00
EXPONENTS  0.6450000D+00 0.6450000D+00 0.6450000D+00 0.6450000D+00 0.2140000D+00
EXPONENTS  0.2140000D+00 0.2140000D+00 0.2140000D+00 0.2140000D+00 0.2140000D+00
EXPONENTS  0.1428000D+01 0.1428000D+01 0.1428000D+01 0.1428000D+01 0.1428000D+01
EXPONENTS  0.1428000D+01 0.1428000D+01 0.1428000D+01 0.1428000D+01 0.1428000D+01
EXPONENTS  0.5000000D+00 0.5000000D+00 0.5000000D+00 0.5000000D+00 0.5000000D+00
EXPONENTS  0.5000000D+00 0.5000000D+00 0.5000000D+00 0.5000000D+00 0.5000000D+00
MO    1     MO 0.0        OCC NO =    2.0000000  ORB. ENERGY =  -24.584467
  0.42139032D+00  0.78548981D+00  0.13315983D+01  0.20164323D+01  0.25215557D+01
  0.21708246D+01  0.83454422D+00 -0.36162167D-02 -0.28308729D-03 -0.53158779D-03
 -0.90520233D-03 -0.14179941D-02 -0.19002789D-02 -0.20440062D-02 -0.12272186D-02
  0.80707060D-03  0.42726886D-01 -0.10460682D-02 -0.44369225D-03  0.30363747D-15
  0.29695081D-15  0.19620796D-15 -0.44527762D-02 -0.43547178D-02 -0.28773462D-02
  0.32387213D-02  0.31673987D-02  0.20928342D-02 -0.99980578D-16  0.78296625D-03
 -0.60786929D-03  0.22265479D-16  0.69641521D-03 -0.77605619D-03  0.20707002D-19
  0.42597178D-04 -0.22461268D-04 -0.50828058D-03  0.17293629D-03  0.33534429D-03
 -0.12305950D-16 -0.22900746D-16 -0.81864110D-03  0.33658411D-03 -0.24340948D-03
 -0.93174631D-04 -0.63228395D-18  0.26925307D-17  0.98161515D-03  0.13188515D-03
 -0.68585714D-04 -0.63299437D-04 -0.78430214D-18  0.41229922D-18  0.39363372D-03
  0.20019244D-17  0.69399372D-04 -0.59063328D-04 -0.17852913D-17  0.39609297D-03
 -0.26767734D-03 -0.42204819D-17 -0.60429109D-03  0.44486732D-03  0.10111783D-16
 -0.70283778D-18 -0.11992139D-04  0.95376219D-04  0.10973453D-17 -0.36621161D-03
  0.27578078D-03  0.10111681D-17  0.40218803D-03 -0.56190944D-03 -0.37216933D-17
 -0.42139009D+00 -0.78548937D+00 -0.13315976D+01 -0.20164312D+01 -0.25215543D+01
 -0.21708234D+01 -0.83454376D+00  0.36162147D-02  0.28308715D-03  0.53158753D-03
  0.90520189D-03  0.14179934D-02  0.19002780D-02  0.20440052D-02  0.12272180D-02
 -0.80707020D-03 -0.42726862D-01  0.10460678D-02  0.44369206D-03  0.13601606D-17
  0.13302074D-17  0.87892426D-18 -0.44527737D-02 -0.43547155D-02 -0.28773446D-02
 -0.32387196D-02 -0.31673971D-02 -0.20928332D-02 -0.12645643D-17  0.78296587D-03
  0.60786905D-03  0.11450393D-17  0.69641489D-03  0.77605596D-03  0.20772348D-18
  0.42597165D-04  0.22461255D-04  0.50828028D-03 -0.17293598D-03 -0.33534430D-03
  0.61095380D-17  0.27582491D-17 -0.81864096D-03 -0.33658394D-03  0.24340928D-03
  0.93174663D-04 -0.11296692D-17  0.50786860D-18  0.98161479D-03 -0.13188510D-03
  0.68585676D-04  0.63299426D-04  0.65186044D-18  0.84524877D-18  0.39363360D-03
  0.12491331D-17  0.69399435D-04  0.59063329D-04  0.52087657D-18  0.39609278D-03
  0.26767717D-03 -0.42682760D-17 -0.60429108D-03 -0.44486715D-03 -0.68830526D-17
 -0.57873413D-18 -0.11992187D-04 -0.95376187D-04 -0.79631561D-19 -0.36621143D-03
 -0.27578066D-03  0.18158340D-17  0.40218799D-03  0.56190922D-03  0.32008345D-17
  0.92671978D-10  0.17276164D-09  0.29199760D-09  0.43896804D-09  0.53932296D-09
  0.45554446D-09  0.17181461D-09 -0.85032009D-12 -0.65757445D-10 -0.12311868D-09
 -0.20962009D-09 -0.32425041D-09 -0.42702639D-09 -0.44370777D-09 -0.28195637D-09
  0.18896060D-09 -0.69804701D-10  0.16413923D-09  0.12194303D-10 -0.10214428D-17
 -0.95766760D-18 -0.68191638D-18 -0.43197894D-03 -0.40500771D-03 -0.28838962D-03
  0.86597125D-10  0.81190309D-10  0.57812337D-10 -0.30356430D-18  0.23658719D-02
 -0.51756397D-09 -0.63042837D-18  0.21607708D-03 -0.60794939D-10 -0.14008995D-19
  0.21170669D-05 -0.43423904D-12 -0.12420306D-09  0.19356776D-09 -0.69364702D-10
  0.55479539D-18  0.25492343D-17 -0.18839345D-02 -0.45891588D-10  0.72007207D-10
 -0.26115619D-10  0.48747018D-18  0.16081041D-17 -0.84145601D-03 -0.19105727D-11
  0.14616679D-11  0.44890480D-12  0.14597590D-18  0.15466991D-18 -0.17379156D-04
  0.14895744D-17  0.35043551D-04 -0.26256789D-10 -0.47492132D-17 -0.58905827D-03
  0.13603688D-09  0.28048994D-18  0.48392762D-03 -0.57266514D-10  0.34689036D-18
  0.82082752D-19  0.60845014D-04 -0.23915800D-11 -0.37523319D-18 -0.21126483D-05
 -0.33330726D-12  0.12898493D-18 -0.18042239D-03  0.75080472D-11  0.10615520D-17
  0.27444197D-10  0.51152451D-10  0.86737609D-10  0.13128141D-09  0.16380087D-09
  0.14068310D-09  0.54010979D-10 -0.24159442D-12 -0.18525390D-10 -0.34744827D-10
 -0.59232314D-10 -0.92568577D-10 -0.12378183D-09 -0.13217013D-09 -0.80806227D-10
  0.53311040D-10 -0.22960205D-10  0.16769992D-09  0.48622315D-10  0.30812132D-19
  0.29877404D-19  0.20155120D-19 -0.92339351D-04 -0.89538110D-04 -0.60401880D-04
  0.95619285D-10  0.92718542D-10  0.62547381D-10 -0.45010882D-18  0.13939017D-03
 -0.17390902D-09 -0.64918635D-18  0.22266205D-03 -0.10557991D-09  0.17759487D-19
  0.55474697D-05 -0.67660603D-11 -0.39681566D-10  0.39076846D-10  0.60472058D-12
 -0.52753221D-17 -0.16989983D-17 -0.28989456D-03 -0.20792121D-10 -0.49374523D-10
  0.70166644D-10  0.55991510D-18  0.14507055D-17  0.18254515D-03 -0.67465868D-11
 -0.14264823D-10  0.21011410D-10 -0.80236262D-18  0.34493715D-18 -0.78896783D-04
 -0.20603281D-18 -0.21876010D-04  0.84092777D-11  0.55601782D-18  0.31726772D-04
  0.40714315D-10  0.62080600D-19  0.33901259D-04 -0.65942148D-10 -0.73423661D-17
  0.20662586D-18  0.30641151D-04 -0.15519913D-10  0.13446175D-18  0.47431716D-04
  0.33898973D-11 -0.75433933D-18 -0.13935517D-03  0.43169841D-10  0.37015740D-17
MO    2     MO 0.0        OCC NO =    2.0000000  ORB. ENERGY =  -24.584467
  0.42134368D+00  0.78540287D+00  0.13314509D+01  0.20162091D+01  0.25212766D+01
  0.21705843D+01  0.83445185D+00 -0.36158164D-02 -0.25071887D-03 -0.47080564D-03
 -0.80170080D-03 -0.12558596D-02 -0.16829996D-02 -0.18102929D-02 -0.10868975D-02
  0.71478953D-03  0.42704432D-01 -0.71632872D-03 -0.33662021D-03 -0.33198500D-15
 -0.32467408D-15 -0.21452589D-15 -0.43854966D-02 -0.42889199D-02 -0.28338707D-02
  0.29865208D-02  0.29207521D-02  0.19298644D-02  0.86178517D-16  0.68682192D-03
 -0.43594467D-03 -0.23536263D-16  0.56184158D-03 -0.41321690D-03  0.22341394D-18
  0.23291574D-04 -0.22112371D-04 -0.54588514D-03  0.55135813D-03 -0.54729841D-05
 -0.19860237D-16 -0.17619776D-16 -0.25966349D-03  0.30717364D-03 -0.36594668D-03
  0.58773040D-04  0.29241842D-17  0.16007612D-18  0.64321901D-03  0.87656235D-04
 -0.69238786D-04 -0.18417449D-04  0.71302983D-18 -0.68815873D-18  0.21534459D-03
 -0.12115550D-17 -0.11383942D-03  0.29682557D-05  0.35745934D-17  0.35182693D-03
 -0.31180476D-03  0.60071460D-19 -0.10308674D-04  0.30290000D-03 -0.57880081D-17
  0.68431769D-18  0.86929309D-04  0.56759638D-04 -0.12275245D-17 -0.32498707D-03
  0.21933714D-03 -0.82542861D-18  0.64199142D-04 -0.38961605D-03  0.36240852D-17
  0.42134391D+00  0.78540330D+00  0.13314517D+01  0.20162103D+01  0.25212780D+01
  0.21705855D+01  0.83445231D+00 -0.36158185D-02 -0.25071903D-03 -0.47080593D-03
 -0.80170131D-03 -0.12558604D-02 -0.16830006D-02 -0.18102941D-02 -0.10868982D-02
  0.71478998D-03  0.42704456D-01 -0.71632930D-03 -0.33662046D-03 -0.13418284D-17
 -0.13122789D-17 -0.86707813D-18  0.43854991D-02  0.42889223D-02  0.28338723D-02
  0.29865226D-02  0.29207538D-02  0.19298656D-02  0.12623464D-17 -0.68682235D-03
 -0.43594501D-03 -0.11811215D-17 -0.56184196D-03 -0.41321733D-03 -0.19729794D-18
 -0.23291598D-04 -0.22112383D-04 -0.54588543D-03  0.55135823D-03 -0.54727981D-05
 -0.60713831D-17 -0.27797421D-17  0.25966394D-03  0.30717383D-03 -0.36594682D-03
  0.58772988D-04  0.11277145D-17 -0.49781170D-18 -0.64321956D-03  0.87656308D-04
 -0.69238824D-04 -0.18417484D-04 -0.70282470D-18 -0.84135098D-18 -0.21534481D-03
 -0.13601371D-17  0.11383938D-03  0.29682229D-05 -0.39945786D-19 -0.35182715D-03
 -0.31180491D-03  0.41203572D-17  0.10309010D-04  0.30290024D-03  0.67237220D-17
  0.61143720D-18 -0.86929302D-04  0.56759691D-04 -0.92812087D-19  0.32498727D-03
  0.21933729D-03 -0.17414995D-17 -0.64199365D-04 -0.38961636D-03 -0.31213004D-17
  0.33408412D-03  0.62280876D-03  0.10526565D-02  0.15824876D-02  0.19442688D-02
  0.16422458D-02  0.61939471D-03 -0.30654190D-05 -0.23705730D-03 -0.44384607D-03
 -0.75568591D-03 -0.11689312D-02 -0.15394413D-02 -0.15995781D-02 -0.10164601D-02
  0.68120789D-03 -0.25162825D-03  0.59168639D-03  0.43955645D-04  0.86673561D-18
  0.81261973D-18  0.57863366D-18  0.11982858D-09  0.11234691D-09  0.79997690D-10
  0.31217044D-03  0.29267963D-03  0.20840533D-03  0.47901122D-18 -0.65627644D-09
 -0.18657583D-02  0.69705931D-18 -0.59924410D-10 -0.21916994D-03  0.13382138D-19
 -0.58794137D-12 -0.15653420D-05 -0.44776189D-03  0.69780727D-03 -0.25004538D-03
 -0.65145009D-18 -0.24100537D-17  0.52258836D-09 -0.16542813D-03  0.25956490D-03
 -0.94136772D-04 -0.40821296D-18 -0.16858703D-17  0.23342099D-09 -0.68864786D-05
  0.52682148D-05  0.16182639D-05 -0.12369175D-18 -0.14247163D-18  0.48184050D-11
 -0.15036994D-17 -0.97201945D-11 -0.94656763D-04  0.45067450D-17  0.16340172D-09
  0.49039889D-03  0.43533043D-20 -0.13424114D-09 -0.20642860D-03 -0.48058296D-18
 -0.98777947D-19 -0.16875261D-10 -0.86251706D-05  0.40326701D-18  0.58386627D-12
 -0.11980921D-05 -0.10693317D-18  0.50041917D-10  0.27073604D-04 -0.10669720D-17
  0.98940971D-04  0.18441324D-03  0.31270375D-03  0.47329169D-03  0.59052985D-03
  0.50718638D-03  0.19471871D-03 -0.87098876D-06 -0.66788282D-04 -0.12526308D-03
 -0.21354609D-03 -0.33373097D-03 -0.44626189D-03 -0.47650366D-03 -0.29132500D-03
  0.19219854D-03 -0.82769706D-04  0.60454343D-03  0.17528535D-03 -0.27382662D-20
 -0.26551971D-20 -0.17911803D-20  0.25608177D-10  0.24831317D-10  0.16751060D-10
  0.34468731D-03  0.33423074D-03  0.22547008D-03  0.40618200D-18 -0.38658286D-10
 -0.62692378D-03  0.58123766D-18 -0.61766053D-10 -0.38059085D-03 -0.25241194D-19
 -0.15375689D-11 -0.24391441D-04 -0.14305909D-03  0.14086690D-03  0.21921868D-05
  0.51794701D-17  0.16378444D-17  0.80405112D-10 -0.74948468D-04 -0.17798874D-03
  0.25293721D-03 -0.51220399D-18 -0.13137722D-17 -0.50635312D-10 -0.24318989D-04
 -0.51420616D-04  0.75739605D-04  0.77996622D-18 -0.34123839D-18  0.21887503D-10
  0.29384420D-18  0.60678719D-11  0.30315655D-04 -0.47290497D-18 -0.88095576D-11
  0.14676804D-03 -0.40862764D-18 -0.93940580D-11 -0.23771501D-03  0.73318114D-17
 -0.20780784D-18 -0.84994585D-11 -0.55946080D-04 -0.13276183D-18 -0.13153782D-10
  0.12216804D-04  0.75618536D-18  0.38652158D-10  0.15562144D-03 -0.37177771D-17
MO    3     MO 0.0        OCC NO =    2.0000000  ORB. ENERGY =  -19.021923
  0.16302657D-03  0.30388858D-03  0.51516585D-03  0.78011293D-03  0.97553396D-03
  0.83984387D-03  0.32286664D-03 -0.13990340D-05 -0.10747487D-03 -0.20181877D-03
 -0.34366255D-03 -0.53834536D-03 -0.72144611D-03 -0.77601257D-03 -0.46591693D-03
  0.30640657D-03 -0.17958046D-03  0.91242965D-03  0.69672518D-04  0.70517340D-16
  0.68964419D-16  0.45567707D-16  0.41253036D-03  0.40344568D-03  0.26657362D-03
 -0.46864810D-03 -0.45832761D-03 -0.30283643D-03  0.85957942D-16 -0.57065657D-03
  0.55255781D-03 -0.21725238D-16 -0.26710306D-03  0.24212340D-03 -0.82170517D-18
 -0.14414543D-04 -0.14907000D-04 -0.35369894D-03  0.11849923D-03  0.23519971D-03
 -0.28635952D-17  0.23021060D-17  0.33873498D-03 -0.22722306D-04  0.60913946D-04
 -0.38191640D-04  0.90167676D-18 -0.87615622D-18 -0.60670746D-03  0.34823502D-04
  0.67103786D-05 -0.41533881D-04  0.33521565D-18  0.35969589D-18 -0.11882949D-03
 -0.58033857D-18 -0.85128759D-04  0.33926344D-03  0.43137740D-17  0.95128920D-03
 -0.58142266D-03 -0.25727583D-17 -0.69590293D-03 -0.43636767D-03 -0.60959854D-17
  0.11442665D-18  0.93818495D-04 -0.18955908D-03 -0.12010841D-17 -0.28510943D-03
  0.13774464D-03  0.85780419D-18  0.36539446D-05  0.43093260D-03  0.11205765D-17
  0.16302657D-03  0.30388858D-03  0.51516585D-03  0.78011293D-03  0.97553396D-03
  0.83984387D-03  0.32286664D-03 -0.13990340D-05 -0.10747487D-03 -0.20181877D-03
 -0.34366255D-03 -0.53834536D-03 -0.72144611D-03 -0.77601257D-03 -0.46591693D-03
  0.30640657D-03 -0.17958046D-03  0.91242965D-03  0.69672518D-04 -0.71190228D-18
 -0.69622488D-18 -0.46002522D-18 -0.41253036D-03 -0.40344568D-03 -0.26657362D-03
 -0.46864810D-03 -0.45832761D-03 -0.30283643D-03  0.82151918D-18  0.57065657D-03
  0.55255781D-03  0.35657531D-18  0.26710306D-03  0.24212340D-03 -0.19438427D-18
  0.14414543D-04 -0.14907000D-04 -0.35369894D-03  0.11849923D-03  0.23519971D-03
  0.12152669D-17 -0.63680002D-18 -0.33873498D-03 -0.22722306D-04  0.60913946D-04
 -0.38191640D-04 -0.19092697D-18  0.40482858D-18  0.60670746D-03  0.34823502D-04
  0.67103786D-05 -0.41533881D-04  0.36546308D-18 -0.24939739D-18  0.11882949D-03
 -0.30122829D-18  0.85128759D-04  0.33926344D-03 -0.17243422D-17 -0.95128920D-03
 -0.58142266D-03  0.26280271D-17  0.69590293D-03 -0.43636767D-03  0.26827243D-18
  0.23819634D-18 -0.93818495D-04 -0.18955908D-03  0.28566895D-18  0.28510943D-03
  0.13774464D-03 -0.10002580D-17 -0.36539446D-05  0.43093260D-03 -0.57413486D-18
  0.26910068D-03  0.50166485D-03  0.84790198D-03  0.12746744D-02  0.15660848D-02
  0.13228090D-02  0.49891487D-03 -0.24691575D-05 -0.21485731D-03 -0.40228067D-03
 -0.68491727D-03 -0.10594629D-02 -0.13952753D-02 -0.14497804D-02 -0.92127039D-03
  0.61741399D-03  0.14442008D-02 -0.11625094D-02 -0.20667079D-04  0.67683795D-18
  0.63457860D-18  0.45185777D-18 -0.79960451D-16 -0.74968006D-16 -0.53381686D-16
  0.10995180D-02  0.10308681D-02  0.73403947D-03 -0.70470961D-18 -0.82134181D-16
  0.56974778D-03 -0.14916882D-18  0.17341784D-15 -0.24930125D-03 -0.11398075D-19
 -0.91443234D-18  0.38506568D-05  0.69879941D-04  0.41460824D-04 -0.11134077D-03
 -0.22601820D-17 -0.17719837D-17  0.69004380D-15  0.50972843D-03  0.88122112D-04
 -0.59785054D-03 -0.37401995D-18 -0.84169524D-19 -0.57317264D-16  0.19819587D-04
  0.27866461D-04 -0.47686047D-04 -0.32926676D-18 -0.28127516D-19 -0.42605036D-16
 -0.54473736D-18 -0.83131480D-17 -0.92912158D-03  0.12764489D-17  0.90106717D-16
  0.77102343D-03  0.35776314D-18 -0.65167273D-16  0.20163413D-02  0.44786452D-18
 -0.51527156D-20  0.39763631D-16 -0.17950681D-03 -0.58091907D-19 -0.20769258D-16
  0.85418897D-04  0.73550053D-19 -0.98521635D-16  0.45310153D-03 -0.18410505D-17
  0.49924388D+00  0.93052636D+00  0.15778644D+01  0.23881712D+01  0.29797404D+01
  0.25591996D+01  0.98252650D+00 -0.43949013D-02 -0.99129771D-03 -0.18592034D-02
 -0.31695343D-02 -0.49533651D-02 -0.66235929D-02 -0.70724530D-02 -0.43239591D-02
  0.28526856D-02  0.49906576D-01  0.59271503D-03 -0.11137543D-04  0.23967613D-16
  0.23240522D-16  0.15677919D-16 -0.14017783D-15 -0.13592535D-15 -0.91694435D-16
 -0.81326329D-02 -0.78859182D-02 -0.53197939D-02 -0.28077243D-17  0.12886502D-15
 -0.70686372D-03  0.47325599D-18  0.76827265D-16  0.92542755D-03  0.55559080D-19
  0.10021807D-16  0.14035769D-04 -0.24095063D-02 -0.10552834D-02  0.34647897D-02
 -0.13524591D-17 -0.13060698D-17  0.21224425D-15  0.44142367D-03  0.10810047D-03
 -0.54952414D-03  0.18970226D-18  0.19257818D-18 -0.64304903D-16  0.17730803D-03
  0.85550770D-04 -0.26285880D-03  0.13351696D-17 -0.25359633D-18  0.24733790D-17
  0.78972868D-19 -0.36303067D-17 -0.50596166D-03  0.85726486D-18 -0.42894123D-15
  0.94165047D-03 -0.10941835D-17  0.43983215D-15  0.57623452D-03  0.10676232D-16
 -0.91655159D-19  0.62513130D-17  0.23224005D-03 -0.20761211D-18  0.45313399D-16
 -0.52229299D-03  0.48257759D-18 -0.64067338D-16 -0.17442717D-03 -0.42396074D-17
MO    4     MO 0.0        OCC NO =    2.0000000  ORB. ENERGY =  -10.307060
  0.29298249D-03  0.54613205D-03  0.92582809D-03  0.14019766D-02  0.17531767D-02
  0.15093218D-02  0.58023840D-03 -0.25142680D-05 -0.23408333D-03 -0.43956704D-03
 -0.74850685D-03 -0.11725316D-02 -0.15713302D-02 -0.16901775D-02 -0.10147804D-02
  0.66736226D-03  0.29757256D-03 -0.28865206D-04 -0.28558656D-03 -0.67643417D-16
 -0.66153785D-16 -0.43710603D-16 -0.10010581D-02 -0.97901294D-03 -0.64687524D-03
  0.90676999D-03  0.88680125D-03  0.58594708D-03 -0.10364126D-15  0.16136419D-03
 -0.17939987D-03 -0.49467110D-18  0.57622741D-03 -0.27396382D-03 -0.28460723D-18
  0.20052224D-04 -0.55002706D-04 -0.78545799D-03  0.40902680D-03  0.37643119D-03
 -0.63240986D-17  0.38372872D-17 -0.34231169D-02  0.62160625D-03 -0.34787930D-03
 -0.27372695D-03  0.22379584D-17 -0.54656866D-19  0.23431201D-02  0.16871771D-03
 -0.17872040D-03  0.10002692D-04  0.23521038D-17 -0.16191338D-17  0.31443536D-03
 -0.19473353D-17  0.49671406D-04 -0.86683402D-04  0.96144319D-17  0.16023292D-03
 -0.33059625D-03 -0.37724259D-17 -0.30924713D-03  0.59064646D-03 -0.75738875D-17
  0.43054548D-18 -0.12209564D-03  0.32239384D-03 -0.28025194D-17 -0.80320689D-03
  0.80081245D-03  0.15108829D-17  0.11694938D-02 -0.17679940D-02  0.74948081D-18
  0.29298249D-03  0.54613205D-03  0.92582809D-03  0.14019766D-02  0.17531767D-02
  0.15093218D-02  0.58023840D-03 -0.25142680D-05 -0.23408333D-03 -0.43956704D-03
 -0.74850685D-03 -0.11725316D-02 -0.15713302D-02 -0.16901775D-02 -0.10147804D-02
  0.66736226D-03  0.29757256D-03 -0.28865206D-04 -0.28558656D-03  0.10507156D-17
  0.10275769D-17  0.67896348D-18  0.10010581D-02  0.97901294D-03  0.64687524D-03
  0.90676999D-03  0.88680125D-03  0.58594708D-03 -0.84851145D-19 -0.16136419D-03
 -0.17939987D-03 -0.11176756D-18 -0.57622741D-03 -0.27396382D-03  0.28775907D-18
 -0.20052224D-04 -0.55002706D-04 -0.78545799D-03  0.40902680D-03  0.37643119D-03
  0.16615149D-16  0.51774326D-17  0.34231169D-02  0.62160625D-03 -0.34787930D-03
 -0.27372695D-03 -0.64140148D-17 -0.19075872D-17 -0.23431201D-02  0.16871771D-03
 -0.17872040D-03  0.10002692D-04  0.12012336D-17 -0.12499336D-17 -0.31443536D-03
 -0.36962686D-17 -0.49671406D-04 -0.86683402D-04 -0.20656485D-17 -0.16023292D-03
 -0.33059625D-03  0.13154454D-16  0.30924713D-03  0.59064646D-03  0.10628947D-16
  0.15561976D-17  0.12209564D-03  0.32239384D-03 -0.26162917D-18  0.80320689D-03
  0.80081245D-03 -0.44069637D-17 -0.11694938D-02 -0.17679940D-02 -0.47395732D-17
  0.32919984D+00  0.61370335D+00  0.10372668D+01  0.15593517D+01  0.19158438D+01
  0.16182363D+01  0.61033920D+00 -0.30206028D-02 -0.24072107D-02 -0.45070580D-02
 -0.76736519D-02 -0.11869973D-01 -0.15632337D-01 -0.16242999D-01 -0.10321697D-01
  0.69173611D-02  0.31976916D-01  0.19521325D-02  0.18197514D-03 -0.25649125D-17
 -0.24047685D-17 -0.17123384D-17  0.37580028D-14  0.35233665D-14  0.25088469D-14
 -0.36251489D-02 -0.33988075D-02 -0.24201534D-02  0.27170355D-18 -0.68412653D-14
  0.39689202D-02 -0.13300268D-17  0.13313248D-15  0.16296607D-03 -0.24698285D-19
 -0.44553579D-17  0.14277785D-04 -0.39133670D-02  0.13345816D-03  0.37799089D-02
 -0.60749274D-17 -0.63230316D-17  0.30013479D-15 -0.89072580D-06 -0.43855816D-03
  0.43944889D-03 -0.83910768D-18 -0.70106253D-17  0.50410441D-14  0.24988741D-04
  0.22705339D-04 -0.47694080D-04  0.23379025D-18 -0.22695390D-18  0.13523449D-15
  0.11164421D-17 -0.44939991D-16  0.17139121D-02 -0.15157796D-17  0.17072099D-14
 -0.10473967D-02 -0.18335467D-17 -0.15723899D-14 -0.40943397D-02  0.26324760D-17
 -0.31636265D-18 -0.50864679D-15 -0.15977436D-03  0.17074470D-17 -0.16250306D-15
 -0.73600988D-05 -0.75835904D-18  0.16884434D-14  0.48668317D-03 -0.44726089D-17
 -0.14802916D-03 -0.27590731D-03 -0.46784738D-03 -0.70810879D-03 -0.88351303D-03
 -0.75881986D-03 -0.29132570D-03  0.13031177D-05  0.29375346D-04  0.55094189D-04
  0.93923514D-04  0.14678417D-03  0.19627840D-03  0.20957958D-03  0.12813284D-03
 -0.84534267D-04  0.64633142D-03 -0.34319657D-02 -0.78187040D-03 -0.21407227D-17
 -0.20757809D-17 -0.14003095D-17  0.10703358D-14  0.10378657D-14  0.70013807D-15
 -0.22889968D-02 -0.22195569D-02 -0.14973000D-02  0.19467766D-17 -0.14407046D-14
  0.41100740D-02  0.36639233D-17 -0.34361889D-14  0.26616901D-02  0.48114626D-18
 -0.90170822D-16  0.74386867D-04  0.44097145D-03  0.34586485D-03 -0.78683631D-03
 -0.19945331D-16  0.67462222D-17 -0.27728324D-14  0.11062545D-02  0.12200468D-02
 -0.23263013D-02  0.64929018D-17 -0.55700650D-17  0.11577026D-14  0.27275284D-03
  0.18298408D-03 -0.45573693D-03  0.16696055D-17 -0.18852180D-17  0.14371162D-14
 -0.12171767D-17 -0.69766084D-15  0.76697247D-04  0.85617633D-17 -0.57233111D-15
  0.36070608D-03 -0.49102334D-17  0.26653136D-14 -0.59079782D-03  0.11681112D-16
 -0.38217631D-18  0.11916644D-15  0.40386983D-03 -0.26424205D-17  0.81827324D-16
 -0.54855937D-03  0.37889494D-17 -0.43932666D-15 -0.66305013D-03 -0.10589381D-16
MO    5     MO 0.0        OCC NO =    2.0000000  ORB. ENERGY =   -1.315114
 -0.19230140D-02 -0.35845813D-02 -0.60767466D-02 -0.92019853D-02 -0.11507115D-01
 -0.99065541D-02 -0.38084411D-02  0.16502599D-04 -0.84038924D-01 -0.15781022D+00
 -0.26872358D+00 -0.42095390D+00 -0.56412775D+00 -0.60679545D+00 -0.36431919D+00
  0.23959163D+00  0.13558383D+00  0.56401305D-01 -0.18818599D-03 -0.14664302D-15
 -0.14341367D-15 -0.94759475D-16 -0.24864052D+00 -0.24316500D+00 -0.16066939D+00
  0.15150237D+00  0.14816601D+00  0.97899546D-01 -0.14754104D-15 -0.66692788D-01
  0.40712040D-01  0.35954586D-16 -0.33845234D-02  0.12961158D-02 -0.86902116D-17
  0.16000677D-03 -0.50231854D-04 -0.95618429D-02  0.12069463D-01 -0.25076201D-02
  0.13336446D-14 -0.12122001D-14 -0.29962578D-01 -0.77423228D-02  0.92978210D-02
 -0.15554982D-02 -0.17557083D-16  0.82149416D-16 -0.21549338D-01  0.29335335D-03
 -0.25469296D-03 -0.38660390D-04 -0.14168952D-18 -0.71697552D-17  0.94818681D-03
 -0.65096302D-17 -0.21470297D-02 -0.25091284D-02  0.34841647D-16  0.89399247D-02
 -0.38026965D-02 -0.15312756D-16 -0.24988356D-02  0.11330082D-01 -0.10599475D-16
 -0.81426488D-18 -0.57604578D-03 -0.10097993D-02 -0.55339037D-17  0.28054593D-02
 -0.23317182D-02  0.79766983D-17 -0.10773219D-02  0.53611161D-02 -0.62428722D-17
 -0.19230140D-02 -0.35845813D-02 -0.60767466D-02 -0.92019853D-02 -0.11507115D-01
 -0.99065541D-02 -0.38084411D-02  0.16502599D-04 -0.84038924D-01 -0.15781022D+00
 -0.26872358D+00 -0.42095390D+00 -0.56412775D+00 -0.60679545D+00 -0.36431919D+00
  0.23959163D+00  0.13558383D+00  0.56401305D-01 -0.18818599D-03  0.68668780D-17
  0.67156567D-17  0.44373183D-17  0.24864052D+00  0.24316500D+00  0.16066939D+00
  0.15150237D+00  0.14816601D+00  0.97899546D-01 -0.54373339D-17  0.66692788D-01
  0.40712040D-01 -0.18424932D-16  0.33845234D-02  0.12961158D-02 -0.49195415D-17
 -0.16000677D-03 -0.50231854D-04 -0.95618429D-02  0.12069463D-01 -0.25076201D-02
 -0.10165913D-16 -0.48573460D-16  0.29962578D-01 -0.77423228D-02  0.92978210D-02
 -0.15554982D-02  0.23176590D-16 -0.70098967D-17  0.21549338D-01  0.29335335D-03
 -0.25469296D-03 -0.38660390D-04 -0.21359991D-16 -0.69494381D-17 -0.94818681D-03
 -0.68182596D-17  0.21470297D-02 -0.25091284D-02  0.43206986D-16 -0.89399247D-02
 -0.38026965D-02 -0.22752207D-16  0.24988356D-02  0.11330082D-01 -0.10008763D-16
  0.35170371D-17  0.57604578D-03 -0.10097993D-02 -0.17084234D-16 -0.28054593D-02
 -0.23317182D-02  0.65331226D-17  0.10773219D-02  0.53611161D-02 -0.20996878D-16