 Molden2AIM, Version 4.0.0 (06/02/2016)           Time: Thu Jun 28 22:19:51 2018
GAUSSIAN             20 MOL ORBITALS    356 PRIMITIVES        4 NUCLEI
  F    1    (CENTRE  1)   0.00000000  2.00203066 -1.47258987  CHARGE =  9.0
  F    2    (CENTRE  2)   0.00000000 -2.00203066 -1.47258987  CHARGE =  9.0
  C    3    (CENTRE  3)   0.00000000  0.00000000  0.00225066  CHARGE =  6.0
  S    4    (CENTRE  4)   0.00000000  0.00000000  3.02786849  CHARGE = 16.0
CENTRE ASSIGNMENTS    1  1  1  1  1  1  1  1  1  1  1  1  1  1  1  1  1  1  1  1
CENTRE ASSIGNMENTS    1  1  1  1  1  1  1  1  1  1  1  1  1  1  1  1  1  1  1  1
CENTRE ASSIGNMENTS    1  1  1  1  1  1  1  1  1  1  1  1  1  1  1  1  1  1  1  1
CENTRE ASSIGNMENTS    1  1  1  1  1  1  1  1  1  1  1  1  1  1  1  2  2  2  2  2
CENTRE ASSIGNMENTS    2  2  2  2  2  2  2  2  2  2  2  2  2  2  2  2  2  2  2  2
CENTRE ASSIGNMENTS    2  2  2  2  2  2  2  2  2  2  2  2  2  2  2  2  2  2  2  2
CENTRE ASSIGNMENTS    2  2  2  2  2  2  2  2  2  2  2  2  2  2  2  2  2  2  2  2
CENTRE ASSIGNMENTS    2  2  2  2  2  2  2  2  2  2  3  3  3  3  3  3  3  3  3  3
CENTRE ASSIGNMENTS    3  3  3  3  3  3  3  3  3  3  3  3  3  3  3  3  3  3  3  3
CENTRE ASSIGNMENTS    3  3  3  3  3  3  3  3  3  3  3  3  3  3  3  3  3  3  3  3
CENTRE ASSIGNMENTS    3  3  3  3  3  3  3  3  3  3  3  3  3  3  3  3  3  3  3  3
CENTRE ASSIGNMENTS    3  3  3  3  3  4  4  4  4  4  4  4  4  4  4  4  4  4  4  4
CENTRE ASSIGNMENTS    4  4  4  4  4  4  4  4  4  4  4  4  4  4  4  4  4  4  4  4
CENTRE ASSIGNMENTS    4  4  4  4  4  4  4  4  4  4  4  4  4  4  4  4  4  4  4  4
CENTRE ASSIGNMENTS    4  4  4  4  4  4  4  4  4  4  4  4  4  4  4  4  4  4  4  4
CENTRE ASSIGNMENTS    4  4  4  4  4  4  4  4  4  4  4  4  4  4  4  4  4  4  4  4
CENTRE ASSIGNMENTS    4  4  4  4  4  4  4  4  4  4  4  4  4  4  4  4  4  4  4  4
CENTRE ASSIGNMENTS    4  4  4  4  4  4  4  4  4  4  4  4  4  4  4  4
TYPE ASSIGNMENTS      1  1  1  1  1  1  1  1  1  1  1  1  1  1  1  1  1  1  1  2
TYPE ASSIGNMENTS      2  2  3  3  3  4  4  4  2  3  4  2  3  4  2  3  4  5  6  7
TYPE ASSIGNMENTS      8  9 10  5  6  7  8  9 10  5  6  7  8  9 10 11 12 13 17 14
TYPE ASSIGNMENTS     15 18 19 16 20 11 12 13 17 14 15 18 19 16 20  1  1  1  1  1
TYPE ASSIGNMENTS      1  1  1  1  1  1  1  1  1  1  1  1  1  1  2  2  2  3  3  3
TYPE ASSIGNMENTS      4  4  4  2  3  4  2  3  4  2  3  4  5  6  7  8  9 10  5  6
TYPE ASSIGNMENTS      7  8  9 10  5  6  7  8  9 10 11 12 13 17 14 15 18 19 16 20
TYPE ASSIGNMENTS     11 12 13 17 14 15 18 19 16 20  1  1  1  1  1  1  1  1  1  1
TYPE ASSIGNMENTS      1  1  1  1  1  1  1  1  1  2  2  2  3  3  3  4  4  4  2  3
TYPE ASSIGNMENTS      4  2  3  4  2  3  4  5  6  7  8  9 10  5  6  7  8  9 10  5
TYPE ASSIGNMENTS      6  7  8  9 10 11 12 13 17 14 15 18 19 16 20 11 12 13 17 14
TYPE ASSIGNMENTS     15 18 19 16 20  1  1  1  1  1  1  1  1  1  1  1  1  1  1  1
TYPE ASSIGNMENTS      1  1  1  1  1  1  1  1  1  1  1  1  1  1  1  1  1  1  1  1
TYPE ASSIGNMENTS      1  1  1  1  1  1  1  2  2  2  2  2  2  2  3  3  3  3  3  3
TYPE ASSIGNMENTS      3  4  4  4  4  4  4  4  2  2  2  2  2  2  2  3  3  3  3  3
TYPE ASSIGNMENTS      3  3  4  4  4  4  4  4  4  2  3  4  2  3  4  2  3  4  5  6
TYPE ASSIGNMENTS      7  8  9 10  5  6  7  8  9 10  5  6  7  8  9 10 11 12 13 17
TYPE ASSIGNMENTS     14 15 18 19 16 20 11 12 13 17 14 15 18 19 16 20
EXPONENTS  0.1950000D+05 0.2923000D+04 0.6645000D+03 0.1875000D+03 0.6062000D+02
EXPONENTS  0.2142000D+02 0.7950000D+01 0.8815000D+00 0.1950000D+05 0.2923000D+04
EXPONENTS  0.6645000D+03 0.1875000D+03 0.6062000D+02 0.2142000D+02 0.7950000D+01
EXPONENTS  0.8815000D+00 0.2257000D+01 0.3041000D+00 0.9158000D-01 0.4388000D+02
EXPONENTS  0.9926000D+01 0.2930000D+01 0.4388000D+02 0.9926000D+01 0.2930000D+01
EXPONENTS  0.4388000D+02 0.9926000D+01 0.2930000D+01 0.9132000D+00 0.9132000D+00
EXPONENTS  0.9132000D+00 0.2672000D+00 0.2672000D+00 0.2672000D+00 0.7361000D-01
EXPONENTS  0.7361000D-01 0.7361000D-01 0.3107000D+01 0.3107000D+01 0.3107000D+01
EXPONENTS  0.3107000D+01 0.3107000D+01 0.3107000D+01 0.8550000D+00 0.8550000D+00
EXPONENTS  0.8550000D+00 0.8550000D+00 0.8550000D+00 0.8550000D+00 0.2920000D+00
EXPONENTS  0.2920000D+00 0.2920000D+00 0.2920000D+00 0.2920000D+00 0.2920000D+00
EXPONENTS  0.1917000D+01 0.1917000D+01 0.1917000D+01 0.1917000D+01 0.1917000D+01
EXPONENTS  0.1917000D+01 0.1917000D+01 0.1917000D+01 0.1917000D+01 0.1917000D+01
EXPONENTS  0.7240000D+00 0.7240000D+00 0.7240000D+00 0.7240000D+00 0.7240000D+00
EXPONENTS  0.7240000D+00 0.7240000D+00 0.7240000D+00 0.7240000D+00 0.7240000D+00
EXPONENTS  0.1950000D+05 0.2923000D+04 0.6645000D+03 0.1875000D+03 0.6062000D+02
EXPONENTS  0.2142000D+02 0.7950000D+01 0.8815000D+00 0.1950000D+05 0.2923000D+04
EXPONENTS  0.6645000D+03 0.1875000D+03 0.6062000D+02 0.2142000D+02 0.7950000D+01
EXPONENTS  0.8815000D+00 0.2257000D+01 0.3041000D+00 0.9158000D-01 0.4388000D+02
EXPONENTS  0.9926000D+01 0.2930000D+01 0.4388000D+02 0.9926000D+01 0.2930000D+01
EXPONENTS  0.4388000D+02 0.9926000D+01 0.2930000D+01 0.9132000D+00 0.9132000D+00
EXPONENTS  0.9132000D+00 0.2672000D+00 0.2672000D+00 0.2672000D+00 0.7361000D-01
EXPONENTS  0.7361000D-01 0.7361000D-01 0.3107000D+01 0.3107000D+01 0.3107000D+01
EXPONENTS  0.3107000D+01 0.3107000D+01 0.3107000D+01 0.8550000D+00 0.8550000D+00
EXPONENTS  0.8550000D+00 0.8550000D+00 0.8550000D+00 0.8550000D+00 0.2920000D+00
EXPONENTS  0.2920000D+00 0.2920000D+00 0.2920000D+00 0.2920000D+00 0.2920000D+00
EXPONENTS  0.1917000D+01 0.1917000D+01 0.1917000D+01 0.1917000D+01 0.1917000D+01
EXPONENTS  0.1917000D+01 0.1917000D+01 0.1917000D+01 0.1917000D+01 0.1917000D+01
EXPONENTS  0.7240000D+00 0.7240000D+00 0.7240000D+00 0.7240000D+00 0.7240000D+00
EXPONENTS  0.7240000D+00 0.7240000D+00 0.7240000D+00 0.7240000D+00 0.7240000D+00
EXPONENTS  0.8236000D+04 0.1235000D+04 0.2808000D+03 0.7927000D+02 0.2559000D+02
EXPONENTS  0.8997000D+01 0.3319000D+01 0.3643000D+00 0.8236000D+04 0.1235000D+04
EXPONENTS  0.2808000D+03 0.7927000D+02 0.2559000D+02 0.8997000D+01 0.3319000D+01
EXPONENTS  0.3643000D+00 0.9059000D+00 0.1285000D+00 0.4402000D-01 0.1871000D+02
EXPONENTS  0.4133000D+01 0.1200000D+01 0.1871000D+02 0.4133000D+01 0.1200000D+01
EXPONENTS  0.1871000D+02 0.4133000D+01 0.1200000D+01 0.3827000D+00 0.3827000D+00
EXPONENTS  0.3827000D+00 0.1209000D+00 0.1209000D+00 0.1209000D+00 0.3569000D-01
EXPONENTS  0.3569000D-01 0.3569000D-01 0.1097000D+01 0.1097000D+01 0.1097000D+01
EXPONENTS  0.1097000D+01 0.1097000D+01 0.1097000D+01 0.3180000D+00 0.3180000D+00
EXPONENTS  0.3180000D+00 0.3180000D+00 0.3180000D+00 0.3180000D+00 0.1000000D+00
EXPONENTS  0.1000000D+00 0.1000000D+00 0.1000000D+00 0.1000000D+00 0.1000000D+00
EXPONENTS  0.7610000D+00 0.7610000D+00 0.7610000D+00 0.7610000D+00 0.7610000D+00
EXPONENTS  0.7610000D+00 0.7610000D+00 0.7610000D+00 0.7610000D+00 0.7610000D+00
EXPONENTS  0.2680000D+00 0.2680000D+00 0.2680000D+00 0.2680000D+00 0.2680000D+00
EXPONENTS  0.2680000D+00 0.2680000D+00 0.2680000D+00 0.2680000D+00 0.2680000D+00
EXPONENTS  0.3741000D+06 0.5605000D+05 0.1276000D+05 0.3615000D+04 0.1183000D+04
EXPONENTS  0.4288000D+03 0.1678000D+03 0.6947000D+02 0.2984000D+02 0.1272000D+02
EXPONENTS  0.5244000D+01 0.2219000D+01 0.3490000D+00 0.3741000D+06 0.5605000D+05
EXPONENTS  0.1276000D+05 0.3615000D+04 0.1183000D+04 0.4288000D+03 0.1678000D+03
EXPONENTS  0.6947000D+02 0.2984000D+02 0.1272000D+02 0.5244000D+01 0.2219000D+01
EXPONENTS  0.3490000D+00 0.3741000D+06 0.5605000D+05 0.1276000D+05 0.3615000D+04
EXPONENTS  0.1183000D+04 0.4288000D+03 0.1678000D+03 0.6947000D+02 0.2984000D+02
EXPONENTS  0.1272000D+02 0.5244000D+01 0.2219000D+01 0.3490000D+00 0.7767000D+00
EXPONENTS  0.1322000D+00 0.4970000D-01 0.5744000D+03 0.1358000D+03 0.4319000D+02
EXPONENTS  0.1587000D+02 0.6208000D+01 0.2483000D+01 0.3229000D+00 0.5744000D+03
EXPONENTS  0.1358000D+03 0.4319000D+02 0.1587000D+02 0.6208000D+01 0.2483000D+01
EXPONENTS  0.3229000D+00 0.5744000D+03 0.1358000D+03 0.4319000D+02 0.1587000D+02
EXPONENTS  0.6208000D+01 0.2483000D+01 0.3229000D+00 0.5744000D+03 0.1358000D+03
EXPONENTS  0.4319000D+02 0.1587000D+02 0.6208000D+01 0.2483000D+01 0.3229000D+00
EXPONENTS  0.5744000D+03 0.1358000D+03 0.4319000D+02 0.1587000D+02 0.6208000D+01
EXPONENTS  0.2483000D+01 0.3229000D+00 0.5744000D+03 0.1358000D+03 0.4319000D+02
EXPONENTS  0.1587000D+02 0.6208000D+01 0.2483000D+01 0.3229000D+00 0.8688000D+00
EXPONENTS  0.8688000D+00 0.8688000D+00 0.1098000D+00 0.1098000D+00 0.1098000D+00
EXPONENTS  0.3510000D-01 0.3510000D-01 0.3510000D-01 0.2690000D+00 0.2690000D+00
EXPONENTS  0.2690000D+00 0.2690000D+00 0.2690000D+00 0.2690000D+00 0.8190000D+00
EXPONENTS  0.8190000D+00 0.8190000D+00 0.8190000D+00 0.8190000D+00 0.8190000D+00
EXPONENTS  0.1010000D+00 0.1010000D+00 0.1010000D+00 0.1010000D+00 0.1010000D+00
EXPONENTS  0.1010000D+00 0.5570000D+00 0.5570000D+00 0.5570000D+00 0.5570000D+00
EXPONENTS  0.5570000D+00 0.5570000D+00 0.5570000D+00 0.5570000D+00 0.5570000D+00
EXPONENTS  0.5570000D+00 0.2180000D+00 0.2180000D+00 0.2180000D+00 0.2180000D+00
EXPONENTS  0.2180000D+00 0.2180000D+00 0.2180000D+00 0.2180000D+00 0.2180000D+00
EXPONENTS  0.2180000D+00
MO    1     MO 0.0        OCC NO =    2.0000000  ORB. ENERGY =  -88.554766
  0.38083747D-04  0.70989754D-04  0.12034509D-03  0.18223793D-03  0.22788917D-03
  0.19619135D-03  0.75423116D-04 -0.32682071D-06 -0.25542511D-04 -0.47964313D-04
 -0.81674952D-04 -0.12794333D-03 -0.17145911D-03 -0.18442739D-03 -0.11072997D-03
  0.72820684D-04 -0.11774695D-04  0.21840176D-03  0.22694168D-03  0.45722109D-16
  0.44715224D-16  0.29545239D-16 -0.56149427D-04 -0.54912913D-04 -0.36283284D-04
 -0.43867861D-04 -0.42901810D-04 -0.28347039D-04 -0.44290902D-16  0.61610188D-05
  0.65434186D-04 -0.12903868D-19 -0.54943427D-04 -0.78828142D-04 -0.30568782D-20
 -0.16031621D-04  0.30911118D-04 -0.79983284D-04 -0.11984540D-04  0.91967824D-04
  0.24004171D-18  0.38822191D-19 -0.36697201D-04  0.31679372D-04  0.52215603D-05
 -0.36900933D-04  0.88173662D-19 -0.11992492D-18  0.18708101D-04  0.28114750D-04
  0.20522069D-05 -0.30166957D-04 -0.45380081D-20 -0.64423804D-19  0.62252435D-04
  0.27980630D-18  0.76130215D-05  0.67750928D-05 -0.60618505D-18  0.21321694D-03
 -0.88013080D-05 -0.23323385D-18 -0.23605600D-03 -0.11523970D-04 -0.88244349D-18
 -0.79398637D-19 -0.97092406D-06 -0.15590794D-06  0.20122890D-18 -0.87327598D-04
  0.28506074D-04  0.36967013D-19  0.90240370D-04 -0.28038351D-04  0.22949141D-18
  0.38083747D-04  0.70989754D-04  0.12034509D-03  0.18223793D-03  0.22788917D-03
  0.19619135D-03  0.75423116D-04 -0.32682071D-06 -0.25542511D-04 -0.47964313D-04
 -0.81674952D-04 -0.12794333D-03 -0.17145911D-03 -0.18442739D-03 -0.11072997D-03
  0.72820684D-04 -0.11774695D-04  0.21840176D-03  0.22694168D-03  0.47027504D-19
  0.45991872D-19  0.30388774D-19  0.56149427D-04  0.54912913D-04  0.36283284D-04
 -0.43867861D-04 -0.42901810D-04 -0.28347039D-04 -0.15510296D-19 -0.61610188D-05
  0.65434186D-04  0.31739173D-19  0.54943427D-04 -0.78828142D-04  0.22761599D-20
  0.16031621D-04  0.30911118D-04 -0.79983284D-04 -0.11984540D-04  0.91967824D-04
 -0.50979185D-19  0.20162557D-18  0.36697201D-04  0.31679372D-04  0.52215603D-05
 -0.36900933D-04 -0.61756895D-19 -0.77393614D-19 -0.18708101D-04  0.28114750D-04
  0.20522069D-05 -0.30166957D-04  0.35654637D-19 -0.12310355D-18 -0.62252435D-04
 -0.65820062D-19 -0.76130214D-05  0.67750928D-05 -0.38207088D-18 -0.21321694D-03
 -0.88013080D-05  0.57953107D-18  0.23605600D-03 -0.11523970D-04  0.12503950D-17
  0.48137554D-19  0.97092406D-06 -0.15590794D-06  0.70438736D-19  0.87327598D-04
  0.28506074D-04 -0.21485140D-18 -0.90240370D-04 -0.28038351D-04 -0.51265545D-18
  0.46920766D-04  0.87470976D-04  0.14784136D-03  0.22225399D-03  0.27306471D-03
  0.23064680D-03  0.86991485D-04 -0.43052572D-06 -0.41724860D-04 -0.78122102D-04
 -0.13300956D-03 -0.20574557D-03 -0.27095968D-03 -0.28154446D-03 -0.17890887D-03
  0.11990056D-03  0.30516882D-03  0.34002281D-03  0.84690976D-05  0.27339360D-18
  0.25632388D-18  0.18251787D-18  0.19949543D-17  0.18703964D-17  0.13318337D-17
  0.31617526D-03  0.29643440D-03  0.21107895D-03 -0.15391919D-18 -0.96758958D-15
 -0.43942414D-03 -0.12693033D-18 -0.11437222D-15  0.41840786D-03  0.36836766D-20
  0.13653628D-17 -0.90475430D-05 -0.12715678D-03  0.87055145D-04  0.40101634D-04
 -0.10497611D-18  0.71008170D-18  0.78505242D-15  0.16951456D-03  0.13778622D-03
 -0.30730077D-03 -0.36614604D-19 -0.51913430D-18  0.22768763D-15  0.95788006D-05
 -0.13463278D-04  0.38844774D-05  0.33873861D-21 -0.10593388D-19  0.84492217D-17
 -0.81100035D-19 -0.46078194D-16 -0.59787115D-04  0.26624781D-18  0.65588063D-16
  0.18080162D-03 -0.22947705D-19  0.72646518D-16 -0.14402730D-05  0.50349509D-18
  0.42580083D-19 -0.43724236D-16 -0.57530809D-04  0.86706166D-19 -0.58275879D-17
  0.15412789D-04 -0.21444641D-18  0.13700029D-15  0.15717964D-03 -0.18181242D-18
  0.58516091D+00  0.10939243D+01  0.18906428D+01  0.30580298D+01  0.46220330D+01
  0.63652979D+01  0.74395575D+01  0.64283389D+01  0.29982002D+01  0.40709081D+00
  0.10900889D-02  0.21383038D-02  0.97622499D-04 -0.12288899D-02 -0.22950042D-02
 -0.39810399D-02 -0.64551185D-02 -0.99383899D-02 -0.14154500D-01 -0.18200849D-01
 -0.19105475D-01 -0.13508925D-01  0.29916080D-03  0.97063372D-02  0.53445727D-02
 -0.22602107D-04  0.51206163D-03  0.95558276D-03  0.16597329D-02  0.26883990D-02
  0.41527897D-02  0.59204257D-02  0.77005399D-02  0.82066997D-02  0.60867385D-02
 -0.18945757D-03 -0.55142680D-02 -0.54020794D-02  0.25230915D-02 -0.28984571D-02
 -0.11975784D-02 -0.14008622D-03  0.16974487D-16  0.22269603D-16  0.24426360D-16
  0.20098396D-16  0.10596272D-16  0.27566491D-17 -0.30505133D-20 -0.19246041D-14
 -0.25249758D-14 -0.27695136D-14 -0.22787997D-14 -0.12014283D-14 -0.31255485D-15
  0.34587381D-18 -0.94718887D-02 -0.12426602D-01 -0.13630089D-01 -0.11215053D-01
 -0.59127977D-02 -0.15382305D-02  0.17022089D-05 -0.96876195D-17 -0.12719903D-16
 -0.14310749D-16 -0.12057888D-16 -0.67450135D-17 -0.16788201D-17  0.76998780D-18
  0.16980153D-14  0.22295044D-14  0.25083428D-14  0.21134685D-14  0.11822446D-14
  0.29425828D-15 -0.13496103D-15  0.82880490D-02  0.10882259D-01  0.12243275D-01
  0.10315885D-01  0.57705613D-02  0.14362810D-02 -0.65874765D-03 -0.12287215D-17
  0.61113599D-16  0.14944634D-03  0.10961106D-19 -0.25856171D-16  0.47251714D-03
  0.34762913D-20 -0.13712265D-17  0.10394522D-04  0.67728076D-05 -0.34837260D-04
  0.28064452D-04  0.11183138D-18 -0.37696100D-18  0.91604822D-16 -0.19619969D-03
 -0.17649447D-03  0.37269417D-03 -0.14669830D-18  0.25138904D-19  0.51751430D-16
  0.26367063D-04  0.28187354D-04 -0.54554417D-04 -0.94769098D-20 -0.71544031D-20
  0.68645977D-17 -0.65920784D-19  0.86627434D-17 -0.11721730D-03 -0.67658572D-19
  0.16884118D-17  0.14045933D-03  0.26542092D-18 -0.27676642D-16  0.21119257D-03
 -0.22234612D-19 -0.83389203D-20  0.33291954D-17  0.17624526D-04 -0.15611476D-19
  0.40421453D-17 -0.33535465D-04  0.40628237D-19 -0.14029732D-16 -0.19338112D-04
 -0.61032278D-19
MO    2     MO 0.0        OCC NO =    2.0000000  ORB. ENERGY =  -24.583376
  0.42139040D+00  0.78548997D+00  0.13315986D+01  0.20164327D+01  0.25215562D+01
  0.21708250D+01  0.83454439D+00 -0.36162174D-02 -0.28297387D-03 -0.53137480D-03
 -0.90483965D-03 -0.14174260D-02 -0.18995175D-02 -0.20431872D-02 -0.12267269D-02
  0.80674723D-03  0.42720943D-01 -0.10189311D-02 -0.46944844D-03 -0.14770687D-14
 -0.14445409D-14 -0.95446923D-15 -0.43543550D-02 -0.42584641D-02 -0.28137473D-02
  0.32056676D-02  0.31350729D-02  0.20714752D-02  0.82808806D-15  0.73641343D-03
 -0.60274166D-03 -0.23586463D-15  0.64756951D-03 -0.85228812D-03 -0.25219092D-18
  0.43791687D-04 -0.26401617D-04 -0.49070069D-03  0.15573237D-03  0.33496832D-03
  0.46511380D-17  0.38939686D-16 -0.83559475D-03  0.32195702D-03 -0.20820819D-03
 -0.11374882D-03  0.61844068D-17 -0.91657557D-17  0.97973342D-03  0.13296545D-03
 -0.45567718D-04 -0.87397736D-04 -0.26096855D-17  0.28463912D-17  0.40304640D-03
  0.13810139D-17  0.67050534D-04 -0.79435339D-04 -0.56803692D-17  0.41071838D-03
 -0.22785053D-03  0.15373275D-17 -0.61186999D-03  0.46615655D-03  0.59919982D-17
 -0.18610004D-18 -0.28025955D-04  0.93461049D-04  0.33943144D-18 -0.35416563D-03
  0.26331149D-03  0.21886868D-18  0.43824349D-03 -0.54369464D-03  0.11195451D-17
 -0.42139033D+00 -0.78548982D+00 -0.13315984D+01 -0.20164324D+01 -0.25215558D+01
 -0.21708246D+01 -0.83454424D+00  0.36162168D-02  0.28297382D-03  0.53137473D-03
  0.90483952D-03  0.14174257D-02  0.18995173D-02  0.20431869D-02  0.12267267D-02
 -0.80674712D-03 -0.42720935D-01  0.10189310D-02  0.46944838D-03 -0.20367104D-16
 -0.19918583D-16 -0.13161050D-16 -0.43543542D-02 -0.42584633D-02 -0.28137468D-02
 -0.32056671D-02 -0.31350724D-02 -0.20714749D-02  0.40433319D-17  0.73641330D-03
  0.60274158D-03 -0.46085198D-18  0.64756942D-03  0.85228805D-03 -0.60320059D-18
  0.43791684D-04  0.26401614D-04  0.49070059D-03 -0.15573226D-03 -0.33496833D-03
  0.24382284D-17 -0.11503084D-16 -0.83559472D-03 -0.32195696D-03  0.20820813D-03
  0.11374883D-03 -0.31612058D-17  0.38432340D-17  0.97973331D-03 -0.13296544D-03
  0.45567706D-04  0.87397735D-04  0.80371212D-18 -0.17713538D-17  0.40304636D-03
 -0.54707459D-17  0.67050554D-04  0.79435336D-04  0.73708544D-17  0.41071833D-03
  0.22785049D-03  0.90413834D-17 -0.61186999D-03 -0.46615650D-03  0.69490086D-17
  0.19835334D-17 -0.28025968D-04 -0.93461037D-04 -0.33432013D-17 -0.35416557D-03
 -0.26331146D-03 -0.26073988D-17  0.43824348D-03  0.54369457D-03 -0.23942157D-17
  0.41546110D-10  0.77451395D-10  0.13090650D-09  0.19679535D-09  0.24178583D-09
  0.20422678D-09  0.77026829D-10 -0.38121008D-12 -0.29591224D-10 -0.55404107D-10
 -0.94330233D-10 -0.14591453D-09 -0.19216430D-09 -0.19967102D-09 -0.12688197D-09
  0.85033344D-10 -0.16513490D-10  0.92913440D-10  0.12609470D-10 -0.40250064D-17
 -0.37736993D-17 -0.26870987D-17 -0.39594710D-03 -0.37122558D-03 -0.26433472D-03
  0.28002352D-10  0.26253985D-10  0.18694401D-10 -0.26626367D-17  0.22608809D-02
 -0.11773547D-09 -0.34388945D-17  0.20091361D-03 -0.92892483D-11  0.22972320D-18
  0.30351915D-05  0.36648741D-12 -0.49231584D-10  0.49114869D-10  0.11671468D-12
  0.42141837D-18 -0.16434587D-17 -0.19594441D-02 -0.16563384D-10  0.15201614D-10
  0.13617701D-11 -0.17045966D-17  0.34616282D-18 -0.96103563D-03 -0.79763276D-12
  0.52306804D-12  0.27456472D-12 -0.19513019D-17  0.33203451D-18 -0.20075911D-04
 -0.37281631D-17  0.76697942D-04  0.30303456D-12  0.74490350D-17 -0.51803614D-03
  0.31529838D-10  0.37354543D-17  0.28794231D-03 -0.32438942D-10 -0.57651275D-17
  0.41807524D-18  0.87462549D-04 -0.33489826D-12 -0.23924373D-18  0.44561209D-05
  0.11690315D-11 -0.10149820D-17 -0.26684377D-03 -0.16433675D-12 -0.21788507D-17
  0.22385472D-11  0.41848340D-11  0.72326997D-11  0.11698567D-10  0.17681699D-10
  0.24350601D-10  0.28460207D-10  0.24591766D-10  0.11469687D-10  0.15573358D-11
  0.41701615D-14  0.81801329D-14  0.37345724D-15 -0.39909589D-11 -0.74532858D-11
 -0.12928877D-10 -0.20963728D-10 -0.32276045D-10 -0.45968338D-10 -0.59109316D-10
 -0.62047193D-10 -0.43871762D-10  0.97155854D-12  0.31522428D-10  0.17357104D-10
 -0.73402900D-13  0.21690877D-11  0.40478385D-11  0.70306110D-11  0.11388030D-10
  0.17591173D-10  0.25078861D-10  0.32619406D-10  0.34763494D-10  0.25783360D-10
 -0.80254027D-12 -0.23358381D-10 -0.22883152D-10  0.10687789D-10 -0.81271528D-11
 -0.49149560D-11 -0.82396277D-11  0.22005323D-16  0.28869785D-16  0.31665754D-16
  0.26055084D-16  0.13736756D-16  0.35736546D-17 -0.39546131D-20  0.51910017D-02
  0.68103115D-02  0.74698737D-02  0.61463305D-02  0.32404670D-02  0.84301635D-03
 -0.93288354D-06 -0.17732647D-09 -0.23264267D-09 -0.25517355D-09 -0.20996084D-09
 -0.11069551D-09 -0.28797739D-10  0.31867634D-13 -0.19433422D-16 -0.25516201D-16
 -0.28707447D-16 -0.24188195D-16 -0.13530537D-16 -0.33677231D-17  0.15446001D-17
 -0.46241257D-02 -0.60715052D-02 -0.68308527D-02 -0.57555099D-02 -0.32195515D-02
 -0.80133982D-03  0.36753305D-03  0.16657366D-09  0.21871223D-09  0.24606601D-09
  0.20732921D-09  0.11597706D-09  0.28866453D-10 -0.13239546D-10 -0.13161737D-17
 -0.19797155D-03  0.51832574D-11  0.61345698D-18  0.78313404D-04  0.41606769D-11
 -0.46695049D-19 -0.54700560D-06  0.28878271D-12 -0.13431125D-11 -0.32257705D-11
  0.45688829D-11  0.14596795D-18 -0.15518237D-17 -0.29406257D-03 -0.49559395D-11
 -0.23182274D-11  0.72741669D-11 -0.19081342D-18  0.10059012D-17 -0.50710727D-04
  0.21049159D-12  0.15821134D-12 -0.36870293D-12  0.83047747D-18 -0.17312904D-18
 -0.17349282D-04 -0.15692573D-18 -0.23235733D-04 -0.33096145D-11  0.50915086D-18
 -0.59480064D-05  0.40470751D-11 -0.38373663D-19  0.75655207D-04  0.58817685D-11
  0.11226089D-17 -0.82840370D-20 -0.11992447D-04 -0.62774998D-12 -0.19248756D-18
 -0.11320863D-04  0.45514606D-12  0.21733967D-18  0.47298204D-04  0.14281039D-11
 -0.18499745D-17
MO    3     MO 0.0        OCC NO =    2.0000000  ORB. ENERGY =  -24.583375
  0.42130620D+00  0.78533302D+00  0.13313325D+01  0.20160298D+01  0.25210524D+01
  0.21703913D+01  0.83437764D+00 -0.36154949D-02 -0.22522834D-03 -0.42293893D-03
 -0.72019205D-03 -0.11281766D-02 -0.15118894D-02 -0.16262408D-02 -0.97639287D-03
  0.64211703D-03  0.42715892D-01 -0.66630561D-03 -0.30604153D-03  0.15722438D-14
  0.15376201D-14  0.10159706D-14 -0.43322989D-02 -0.42368937D-02 -0.27994948D-02
  0.29404954D-02  0.28757403D-02  0.19001232D-02 -0.85156161D-15  0.69188526D-03
 -0.43679606D-03  0.23658023D-15  0.50366758D-03 -0.34901354D-03  0.21237878D-18
  0.18965313D-04 -0.17920333D-04 -0.52366278D-03  0.55469378D-03 -0.31030998D-04
  0.37214816D-16  0.56591895D-17 -0.19689540D-03  0.29836304D-03 -0.35215063D-03
  0.53787594D-04 -0.80650272D-17  0.53681876D-17  0.62648486D-03  0.68896722D-04
 -0.63934925D-04 -0.49617978D-05  0.25998195D-17 -0.24337352D-17  0.17497972D-03
 -0.13587683D-17 -0.10639688D-03 -0.12632763D-04 -0.98166718D-18  0.28659371D-03
 -0.23856728D-03  0.50579720D-17  0.32596927D-04  0.27646557D-03  0.25690459D-17
  0.20150288D-18  0.75339299D-04  0.64032624D-04 -0.39271990D-19 -0.29298747D-03
  0.19257674D-03 -0.56523665D-18  0.66969576D-04 -0.38467461D-03 -0.13736219D-17
  0.42130628D+00  0.78533316D+00  0.13313328D+01  0.20160302D+01  0.25210528D+01
  0.21703917D+01  0.83437779D+00 -0.36154955D-02 -0.22522839D-03 -0.42293903D-03
 -0.72019222D-03 -0.11281768D-02 -0.15118897D-02 -0.16262412D-02 -0.97639309D-03
  0.64211718D-03  0.42715900D-01 -0.66630579D-03 -0.30604161D-03  0.20235268D-16
  0.19789650D-16  0.13075858D-16  0.43322996D-02  0.42368944D-02  0.27994953D-02
  0.29404960D-02  0.28757409D-02  0.19001236D-02 -0.39641339D-17 -0.69188539D-03
 -0.43679617D-03  0.59930444D-18 -0.50366770D-03 -0.34901370D-03  0.55997227D-18
 -0.18965321D-04 -0.17920337D-04 -0.52366287D-03  0.55469381D-03 -0.31030937D-04
 -0.27888733D-17  0.11299109D-16  0.19689555D-03  0.29836310D-03 -0.35215067D-03
  0.53787573D-04  0.32760212D-17 -0.37479949D-17 -0.62648504D-03  0.68896747D-04
 -0.63934933D-04 -0.49618137D-05 -0.69415638D-18  0.17538842D-17 -0.17497980D-03
  0.53929855D-17  0.10639687D-03 -0.12632778D-04 -0.75756358D-17 -0.28659379D-03
 -0.23856732D-03 -0.86033208D-17 -0.32596816D-04  0.27646565D-03 -0.70606647D-17
 -0.19727905D-17 -0.75339294D-04  0.64032641D-04  0.34924230D-17  0.29298754D-03
  0.19257679D-03  0.24259486D-17 -0.66969655D-04 -0.38467471D-03  0.24163220D-17
  0.45676046D-03  0.85150536D-03  0.14391941D-02  0.21635801D-02  0.26582081D-02
  0.22452817D-02  0.84683765D-03 -0.41910468D-05 -0.32532695D-03 -0.60911469D-03
 -0.10370699D-02 -0.16041894D-02 -0.21126610D-02 -0.21951901D-02 -0.13949448D-02
  0.93485955D-03 -0.18143294D-03  0.10212237D-02  0.13842473D-03  0.41093300D-17
  0.38527581D-17  0.27433933D-17  0.36008323D-10  0.33760092D-10  0.24039197D-10
  0.30791349D-03  0.28868847D-03  0.20556339D-03  0.24427304D-17 -0.20565978D-09
 -0.12945630D-02  0.31326274D-17 -0.18248203D-10 -0.10211633D-03 -0.21682500D-18
 -0.28098387D-12  0.40104984D-05 -0.54112698D-03  0.53994202D-03  0.11849560D-05
 -0.17254571D-18  0.15312614D-17  0.17828835D-09 -0.18206243D-03  0.16694808D-03
  0.15114350D-04  0.16784487D-17 -0.30774454D-18  0.87371122D-10 -0.87534250D-05
  0.56858885D-05  0.30675364D-05  0.18661250D-17 -0.36698072D-18  0.18029924D-11
  0.34701639D-17 -0.69812969D-11  0.32883705D-05 -0.67029969D-17  0.47119588D-10
  0.34659093D-03 -0.37074947D-17 -0.26175698D-10 -0.35645604D-03  0.48889124D-17
 -0.37316284D-18 -0.79632351D-11 -0.36898371D-05  0.19609896D-18 -0.40663899D-12
  0.12854174D-04  0.92338955D-18  0.24296344D-10 -0.17846622D-05  0.20897950D-17
  0.24582409D-04  0.45955385D-04  0.79425252D-04  0.12846678D-03  0.19417002D-03
  0.26740398D-03  0.31253325D-03  0.27005231D-03  0.12595336D-03  0.17101745D-04
  0.45794260D-07  0.89829407D-07  0.41010876D-08 -0.43825575D-04 -0.81846128D-04
 -0.14197477D-03 -0.23020719D-03 -0.35443017D-03 -0.50478818D-03 -0.64909207D-03
 -0.68135352D-03 -0.48176522D-03  0.10668893D-04  0.34615454D-03  0.19060208D-03
 -0.80605298D-06  0.23817998D-04  0.44447907D-04  0.77200695D-04  0.12504800D-03
  0.19316256D-03  0.27538225D-03  0.35818235D-03  0.38172584D-03  0.28311811D-03
 -0.88124156D-05 -0.25649026D-03 -0.25127193D-03  0.11735889D-03 -0.89338885D-04
 -0.54160533D-04 -0.90377063D-04 -0.20705646D-16 -0.27164680D-16 -0.29795514D-16
 -0.24516221D-16 -0.12925436D-16 -0.33625877D-17  0.37210461D-20 -0.47269391D-09
 -0.62014867D-09 -0.68020857D-09 -0.55968639D-09 -0.29507774D-09 -0.76765280D-10
  0.84948609D-13 -0.19484237D-02 -0.25562258D-02 -0.28037901D-02 -0.23070029D-02
 -0.12162976D-02 -0.31642314D-03  0.35015447D-06  0.18282584D-16  0.24005144D-16
  0.27007405D-16  0.22755781D-16  0.12729265D-16  0.31682881D-17 -0.14531296D-17
  0.42106304D-09  0.55285834D-09  0.62200290D-09  0.52408447D-09  0.29316551D-09
  0.72968298D-10 -0.33466777D-10  0.18302832D-02  0.24031729D-02  0.27037316D-02
  0.22780983D-02  0.12743362D-02  0.31717970D-03 -0.14547389D-03  0.12610580D-17
  0.18033534D-10  0.56998638D-04 -0.45321376D-18 -0.70879850D-11  0.45632685D-04
  0.42542443D-19  0.52386860D-13  0.31689953D-05 -0.14808291D-04 -0.35467640D-04
  0.50275931D-04 -0.10142533D-18  0.14126958D-17  0.26753165D-10 -0.54409353D-04
 -0.25482133D-04  0.79891486D-04  0.17130805D-18 -0.96337552D-18  0.46239124D-11
  0.23026712D-05  0.17431836D-05 -0.40458548D-05 -0.80107071D-18  0.13091367D-18
  0.15689699D-11  0.13974004D-18  0.21159952D-11 -0.36407838D-04 -0.49436705D-18
  0.53835127D-12  0.44498976D-04  0.75146935D-19 -0.68863370D-11  0.64724538D-04
 -0.11386202D-17  0.35472921D-20  0.10900152D-11 -0.69034382D-05  0.18086146D-18
  0.10298400D-11  0.50274099D-05 -0.19150333D-18 -0.42998857D-11  0.15682905D-04
  0.17904313D-17
MO    4     MO 0.0        OCC NO =    2.0000000  ORB. ENERGY =  -10.290529
  0.54334014D-03  0.10128096D-02  0.17169612D-02  0.25999853D-02  0.32512907D-02
  0.27990585D-02  0.10760603D-02 -0.46627453D-05 -0.40900457D-03 -0.76803814D-03
 -0.13078365D-02 -0.20487181D-02 -0.27455233D-02 -0.29531805D-02 -0.17730857D-02
  0.11660557D-02  0.29544161D-03 -0.21754593D-03 -0.58459507D-04 -0.12569770D-14
 -0.12292960D-14 -0.81224786D-15 -0.11905817D-02 -0.11643629D-02 -0.76934379D-03
  0.73505622D-03  0.71886893D-03  0.47498710D-03  0.12965296D-15  0.19853471D-03
  0.10373630D-03  0.50172717D-16  0.10993707D-02 -0.11711560D-02 -0.95127070D-18
  0.27663618D-04 -0.18945074D-04 -0.98089102D-03  0.75096770D-03  0.22992332D-03
  0.95862200D-17 -0.20598790D-17 -0.35122280D-02  0.71076010D-03 -0.58855818D-03
 -0.12220192D-03 -0.37245381D-17 -0.35699130D-17  0.23745104D-02  0.37210253D-03
 -0.21220858D-03 -0.15989396D-03  0.49251015D-17  0.19397893D-18  0.93786663D-03
  0.85887083D-17  0.40524042D-04  0.30149955D-05 -0.67483730D-17  0.78810454D-03
 -0.11258921D-02 -0.19017752D-16 -0.90967666D-03  0.11168471D-02 -0.42260084D-17
 -0.28842954D-17 -0.44673321D-04  0.29272222D-03  0.29150332D-17 -0.11575662D-02
  0.11437347D-02  0.57378529D-17  0.12915862D-02 -0.20219013D-02 -0.12565750D-17
  0.54334014D-03  0.10128096D-02  0.17169612D-02  0.25999853D-02  0.32512907D-02
  0.27990585D-02  0.10760603D-02 -0.46627453D-05 -0.40900457D-03 -0.76803814D-03
 -0.13078365D-02 -0.20487181D-02 -0.27455233D-02 -0.29531805D-02 -0.17730857D-02
  0.11660557D-02  0.29544161D-03 -0.21754593D-03 -0.58459507D-04 -0.14735142D-17
 -0.14410647D-17 -0.95217235D-18  0.11905817D-02  0.11643629D-02  0.76934379D-03
  0.73505622D-03  0.71886893D-03  0.47498710D-03  0.27282485D-17 -0.19853471D-03
  0.10373630D-03  0.48547620D-17 -0.10993707D-02 -0.11711560D-02 -0.18185867D-18
 -0.27663618D-04 -0.18945074D-04 -0.98089102D-03  0.75096770D-03  0.22992332D-03
 -0.14830430D-16  0.86945948D-17  0.35122280D-02  0.71076010D-03 -0.58855818D-03
 -0.12220192D-03  0.52035440D-17 -0.39347800D-17 -0.23745104D-02  0.37210253D-03
 -0.21220858D-03 -0.15989396D-03  0.11419406D-17  0.73414473D-18 -0.93786663D-03
 -0.55530999D-17 -0.40524042D-04  0.30149955D-05  0.59554618D-17 -0.78810454D-03
 -0.11258921D-02  0.10703838D-16  0.90967666D-03  0.11168471D-02  0.36482123D-17
  0.23716092D-17  0.44673321D-04  0.29272222D-03 -0.18100067D-17  0.11575662D-02
  0.11437347D-02 -0.53048208D-17 -0.12915862D-02 -0.20219013D-02 -0.58671904D-17
  0.32861285D+00  0.61260906D+00  0.10354172D+01  0.15565713D+01  0.19124277D+01
  0.16153509D+01  0.60925092D+00 -0.30152168D-02 -0.19141075D-02 -0.35838131D-02
 -0.61017485D-02 -0.94384771D-02 -0.12430142D-01 -0.12915714D-01 -0.82073565D-02
  0.55003795D-02  0.31092617D-01  0.13565738D-02  0.26901246D-03  0.11966116D-16
  0.11218994D-16  0.79885924D-17  0.29995703D-14  0.28122878D-14  0.20025165D-14
 -0.47770213D-02 -0.44787611D-02 -0.31891447D-02 -0.87831230D-18 -0.73567155D-14
 -0.83005194D-03 -0.36597895D-18 -0.47436209D-14  0.11647434D-02  0.17703243D-18
  0.11741059D-15  0.20457964D-04 -0.30057643D-02  0.16822008D-02  0.13235635D-02
 -0.41426851D-17  0.18753534D-16  0.25978064D-14  0.73721790D-04  0.14495808D-03
 -0.21867987D-03  0.19278427D-17 -0.56409697D-17  0.85950365D-14  0.36849199D-04