 Molden2AIM, Version 4.0.0 (06/02/2016)           Time: Thu Jun 28 19:27:21 2018
GAUSSIAN             17 MOL ORBITALS    327 PRIMITIVES        5 NUCLEI
  C    1    (CENTRE  1)   2.81547083  0.17324253 -0.00183492  CHARGE =  6.0
  F    2    (CENTRE  2)   3.67180400  0.40832824  2.37087118  CHARGE =  9.0
  F    3    (CENTRE  3)   4.10969890 -1.68516327 -1.13733545  CHARGE =  9.0
  F    4    (CENTRE  4)   3.27602543  2.33808821 -1.23537066  CHARGE =  9.0
  H    5    (CENTRE  5)   0.78419099 -0.24968951 -0.00316907  CHARGE =  1.0
CENTRE ASSIGNMENTS    1  1  1  1  1  1  1  1  1  1  1  1  1  1  1  1  1  1  1  1
CENTRE ASSIGNMENTS    1  1  1  1  1  1  1  1  1  1  1  1  1  1  1  1  1  1  1  1
CENTRE ASSIGNMENTS    1  1  1  1  1  1  1  1  1  1  1  1  1  1  1  1  1  1  1  1
CENTRE ASSIGNMENTS    1  1  1  1  1  1  1  1  1  1  1  1  1  1  1  2  2  2  2  2
CENTRE ASSIGNMENTS    2  2  2  2  2  2  2  2  2  2  2  2  2  2  2  2  2  2  2  2
CENTRE ASSIGNMENTS    2  2  2  2  2  2  2  2  2  2  2  2  2  2  2  2  2  2  2  2
CENTRE ASSIGNMENTS    2  2  2  2  2  2  2  2  2  2  2  2  2  2  2  2  2  2  2  2
CENTRE ASSIGNMENTS    2  2  2  2  2  2  2  2  2  2  3  3  3  3  3  3  3  3  3  3
CENTRE ASSIGNMENTS    3  3  3  3  3  3  3  3  3  3  3  3  3  3  3  3  3  3  3  3
CENTRE ASSIGNMENTS    3  3  3  3  3  3  3  3  3  3  3  3  3  3  3  3  3  3  3  3
CENTRE ASSIGNMENTS    3  3  3  3  3  3  3  3  3  3  3  3  3  3  3  3  3  3  3  3
CENTRE ASSIGNMENTS    3  3  3  3  3  4  4  4  4  4  4  4  4  4  4  4  4  4  4  4
CENTRE ASSIGNMENTS    4  4  4  4  4  4  4  4  4  4  4  4  4  4  4  4  4  4  4  4
CENTRE ASSIGNMENTS    4  4  4  4  4  4  4  4  4  4  4  4  4  4  4  4  4  4  4  4
CENTRE ASSIGNMENTS    4  4  4  4  4  4  4  4  4  4  4  4  4  4  4  4  4  4  4  4
CENTRE ASSIGNMENTS    5  5  5  5  5  5  5  5  5  5  5  5  5  5  5  5  5  5  5  5
CENTRE ASSIGNMENTS    5  5  5  5  5  5  5
TYPE ASSIGNMENTS      1  1  1  1  1  1  1  1  1  1  1  1  1  1  1  1  1  1  1  2
TYPE ASSIGNMENTS      2  2  3  3  3  4  4  4  2  3  4  2  3  4  2  3  4  5  6  7
TYPE ASSIGNMENTS      8  9 10  5  6  7  8  9 10  5  6  7  8  9 10 11 12 13 17 14
TYPE ASSIGNMENTS     15 18 19 16 20 11 12 13 17 14 15 18 19 16 20  1  1  1  1  1
TYPE ASSIGNMENTS      1  1  1  1  1  1  1  1  1  1  1  1  1  1  2  2  2  3  3  3
TYPE ASSIGNMENTS      4  4  4  2  3  4  2  3  4  2  3  4  5  6  7  8  9 10  5  6
TYPE ASSIGNMENTS      7  8  9 10  5  6  7  8  9 10 11 12 13 17 14 15 18 19 16 20
TYPE ASSIGNMENTS     11 12 13 17 14 15 18 19 16 20  1  1  1  1  1  1  1  1  1  1
TYPE ASSIGNMENTS      1  1  1  1  1  1  1  1  1  2  2  2  3  3  3  4  4  4  2  3
TYPE ASSIGNMENTS      4  2  3  4  2  3  4  5  6  7  8  9 10  5  6  7  8  9 10  5
TYPE ASSIGNMENTS      6  7  8  9 10 11 12 13 17 14 15 18 19 16 20 11 12 13 17 14
TYPE ASSIGNMENTS     15 18 19 16 20  1  1  1  1  1  1  1  1  1  1  1  1  1  1  1
TYPE ASSIGNMENTS      1  1  1  1  2  2  2  3  3  3  4  4  4  2  3  4  2  3  4  2
TYPE ASSIGNMENTS      3  4  5  6  7  8  9 10  5  6  7  8  9 10  5  6  7  8  9 10
TYPE ASSIGNMENTS     11 12 13 17 14 15 18 19 16 20 11 12 13 17 14 15 18 19 16 20
TYPE ASSIGNMENTS      1  1  1  1  1  1  2  3  4  2  3  4  2  3  4  5  6  7  8  9
TYPE ASSIGNMENTS     10  5  6  7  8  9 10
EXPONENTS  0.8236000D+04 0.1235000D+04 0.2808000D+03 0.7927000D+02 0.2559000D+02
EXPONENTS  0.8997000D+01 0.3319000D+01 0.3643000D+00 0.8236000D+04 0.1235000D+04
EXPONENTS  0.2808000D+03 0.7927000D+02 0.2559000D+02 0.8997000D+01 0.3319000D+01
EXPONENTS  0.3643000D+00 0.9059000D+00 0.1285000D+00 0.4402000D-01 0.1871000D+02
EXPONENTS  0.4133000D+01 0.1200000D+01 0.1871000D+02 0.4133000D+01 0.1200000D+01
EXPONENTS  0.1871000D+02 0.4133000D+01 0.1200000D+01 0.3827000D+00 0.3827000D+00
EXPONENTS  0.3827000D+00 0.1209000D+00 0.1209000D+00 0.1209000D+00 0.3569000D-01
EXPONENTS  0.3569000D-01 0.3569000D-01 0.1097000D+01 0.1097000D+01 0.1097000D+01
EXPONENTS  0.1097000D+01 0.1097000D+01 0.1097000D+01 0.3180000D+00 0.3180000D+00
EXPONENTS  0.3180000D+00 0.3180000D+00 0.3180000D+00 0.3180000D+00 0.1000000D+00
EXPONENTS  0.1000000D+00 0.1000000D+00 0.1000000D+00 0.1000000D+00 0.1000000D+00
EXPONENTS  0.7610000D+00 0.7610000D+00 0.7610000D+00 0.7610000D+00 0.7610000D+00
EXPONENTS  0.7610000D+00 0.7610000D+00 0.7610000D+00 0.7610000D+00 0.7610000D+00
EXPONENTS  0.2680000D+00 0.2680000D+00 0.2680000D+00 0.2680000D+00 0.2680000D+00
EXPONENTS  0.2680000D+00 0.2680000D+00 0.2680000D+00 0.2680000D+00 0.2680000D+00
EXPONENTS  0.1950000D+05 0.2923000D+04 0.6645000D+03 0.1875000D+03 0.6062000D+02
EXPONENTS  0.2142000D+02 0.7950000D+01 0.8815000D+00 0.1950000D+05 0.2923000D+04
EXPONENTS  0.6645000D+03 0.1875000D+03 0.6062000D+02 0.2142000D+02 0.7950000D+01
EXPONENTS  0.8815000D+00 0.2257000D+01 0.3041000D+00 0.9158000D-01 0.4388000D+02
EXPONENTS  0.9926000D+01 0.2930000D+01 0.4388000D+02 0.9926000D+01 0.2930000D+01
EXPONENTS  0.4388000D+02 0.9926000D+01 0.2930000D+01 0.9132000D+00 0.9132000D+00
EXPONENTS  0.9132000D+00 0.2672000D+00 0.2672000D+00 0.2672000D+00 0.7361000D-01
EXPONENTS  0.7361000D-01 0.7361000D-01 0.3107000D+01 0.3107000D+01 0.3107000D+01
EXPONENTS  0.3107000D+01 0.3107000D+01 0.3107000D+01 0.8550000D+00 0.8550000D+00
EXPONENTS  0.8550000D+00 0.8550000D+00 0.8550000D+00 0.8550000D+00 0.2920000D+00
EXPONENTS  0.2920000D+00 0.2920000D+00 0.2920000D+00 0.2920000D+00 0.2920000D+00
EXPONENTS  0.1917000D+01 0.1917000D+01 0.1917000D+01 0.1917000D+01 0.1917000D+01
EXPONENTS  0.1917000D+01 0.1917000D+01 0.1917000D+01 0.1917000D+01 0.1917000D+01
EXPONENTS  0.7240000D+00 0.7240000D+00 0.7240000D+00 0.7240000D+00 0.7240000D+00
EXPONENTS  0.7240000D+00 0.7240000D+00 0.7240000D+00 0.7240000D+00 0.7240000D+00
EXPONENTS  0.1950000D+05 0.2923000D+04 0.6645000D+03 0.1875000D+03 0.6062000D+02
EXPONENTS  0.2142000D+02 0.7950000D+01 0.8815000D+00 0.1950000D+05 0.2923000D+04
EXPONENTS  0.6645000D+03 0.1875000D+03 0.6062000D+02 0.2142000D+02 0.7950000D+01
EXPONENTS  0.8815000D+00 0.2257000D+01 0.3041000D+00 0.9158000D-01 0.4388000D+02
EXPONENTS  0.9926000D+01 0.2930000D+01 0.4388000D+02 0.9926000D+01 0.2930000D+01
EXPONENTS  0.4388000D+02 0.9926000D+01 0.2930000D+01 0.9132000D+00 0.9132000D+00
EXPONENTS  0.9132000D+00 0.2672000D+00 0.2672000D+00 0.2672000D+00 0.7361000D-01
EXPONENTS  0.7361000D-01 0.7361000D-01 0.3107000D+01 0.3107000D+01 0.3107000D+01
EXPONENTS  0.3107000D+01 0.3107000D+01 0.3107000D+01 0.8550000D+00 0.8550000D+00
EXPONENTS  0.8550000D+00 0.8550000D+00 0.8550000D+00 0.8550000D+00 0.2920000D+00
EXPONENTS  0.2920000D+00 0.2920000D+00 0.2920000D+00 0.2920000D+00 0.2920000D+00
EXPONENTS  0.1917000D+01 0.1917000D+01 0.1917000D+01 0.1917000D+01 0.1917000D+01
EXPONENTS  0.1917000D+01 0.1917000D+01 0.1917000D+01 0.1917000D+01 0.1917000D+01
EXPONENTS  0.7240000D+00 0.7240000D+00 0.7240000D+00 0.7240000D+00 0.7240000D+00
EXPONENTS  0.7240000D+00 0.7240000D+00 0.7240000D+00 0.7240000D+00 0.7240000D+00
EXPONENTS  0.1950000D+05 0.2923000D+04 0.6645000D+03 0.1875000D+03 0.6062000D+02
EXPONENTS  0.2142000D+02 0.7950000D+01 0.8815000D+00 0.1950000D+05 0.2923000D+04
EXPONENTS  0.6645000D+03 0.1875000D+03 0.6062000D+02 0.2142000D+02 0.7950000D+01
EXPONENTS  0.8815000D+00 0.2257000D+01 0.3041000D+00 0.9158000D-01 0.4388000D+02
EXPONENTS  0.9926000D+01 0.2930000D+01 0.4388000D+02 0.9926000D+01 0.2930000D+01
EXPONENTS  0.4388000D+02 0.9926000D+01 0.2930000D+01 0.9132000D+00 0.9132000D+00
EXPONENTS  0.9132000D+00 0.2672000D+00 0.2672000D+00 0.2672000D+00 0.7361000D-01
EXPONENTS  0.7361000D-01 0.7361000D-01 0.3107000D+01 0.3107000D+01 0.3107000D+01
EXPONENTS  0.3107000D+01 0.3107000D+01 0.3107000D+01 0.8550000D+00 0.8550000D+00
EXPONENTS  0.8550000D+00 0.8550000D+00 0.8550000D+00 0.8550000D+00 0.2920000D+00
EXPONENTS  0.2920000D+00 0.2920000D+00 0.2920000D+00 0.2920000D+00 0.2920000D+00
EXPONENTS  0.1917000D+01 0.1917000D+01 0.1917000D+01 0.1917000D+01 0.1917000D+01
EXPONENTS  0.1917000D+01 0.1917000D+01 0.1917000D+01 0.1917000D+01 0.1917000D+01
EXPONENTS  0.7240000D+00 0.7240000D+00 0.7240000D+00 0.7240000D+00 0.7240000D+00
EXPONENTS  0.7240000D+00 0.7240000D+00 0.7240000D+00 0.7240000D+00 0.7240000D+00
EXPONENTS  0.3387000D+02 0.5095000D+01 0.1159000D+01 0.3258000D+00 0.1027000D+00
EXPONENTS  0.2526000D-01 0.1407000D+01 0.1407000D+01 0.1407000D+01 0.3880000D+00
EXPONENTS  0.3880000D+00 0.3880000D+00 0.1020000D+00 0.1020000D+00 0.1020000D+00
EXPONENTS  0.1057000D+01 0.1057000D+01 0.1057000D+01 0.1057000D+01 0.1057000D+01
EXPONENTS  0.1057000D+01 0.2470000D+00 0.2470000D+00 0.2470000D+00 0.2470000D+00
EXPONENTS  0.2470000D+00 0.2470000D+00
MO    1     MO 0.0        OCC NO =    2.0000000  ORB. ENERGY =  -24.548020
  0.17429761D-03  0.32493037D-03  0.54918956D-03  0.82561180D-03  0.10143595D-02
  0.85678874D-03  0.32314919D-03 -0.15992834D-05 -0.12157299D-03 -0.22762300D-03
 -0.38754763D-03 -0.59947725D-03 -0.78949045D-03 -0.82033115D-03 -0.52128362D-03
  0.34935216D-03 -0.28479377D-03  0.11977229D-02  0.14913364D-03 -0.12544107D-03
 -0.11760898D-03 -0.83744600D-04 -0.39185069D-03 -0.36738493D-03 -0.26159996D-03
  0.21385571D-03  0.20050332D-03  0.14277031D-03  0.42187398D-03  0.15277565D-02
 -0.84212185D-03 -0.12307723D-04  0.23667756D-03 -0.13994746D-03 -0.62633966D-05
 -0.16552473D-05  0.20161002D-06 -0.42549169D-03  0.54197140D-03 -0.11647971D-03
  0.39471342D-03 -0.22017015D-03 -0.11356969D-02 -0.21690677D-03  0.25100925D-03
 -0.34102482D-04  0.22570245D-03 -0.14145533D-03 -0.47480265D-03 -0.52654488D-05
  0.87024442D-05 -0.34369954D-05  0.13814325D-04 -0.71161149D-05 -0.19237808D-04
 -0.26320723D-04  0.50429604D-04  0.68150709D-04  0.10793007D-03 -0.18806132D-03
  0.12891365D-03 -0.28967906D-04  0.36772507D-04 -0.33336578D-03 -0.25504709D-03
 -0.23618435D-04  0.47705709D-05  0.19027727D-04  0.35392835D-04 -0.23669253D-04
 -0.56459327D-05  0.35462472D-04  0.93575403D-05 -0.51437249D-04  0.14386092D-04
 -0.11028146D-02 -0.20556941D-02 -0.34849070D-02 -0.52771762D-02 -0.65991274D-02
 -0.56812340D-02 -0.21840737D-02  0.94639491D-05  0.83390518D-05  0.15659262D-04
  0.26665023D-04  0.41770601D-04  0.55977520D-04  0.60211370D-04  0.36150827D-04
 -0.23774305D-04 -0.11706059D-03 -0.52950132D-04  0.35458916D-04  0.31310573D-04
  0.30621057D-04  0.20232627D-04  0.48214728D-04  0.47152951D-04  0.31155948D-04
  0.36353828D-04  0.35553250D-04  0.23491535D-04 -0.10005006D-04 -0.10412698D-04
 -0.98644505D-05  0.28643584D-05 -0.23806148D-04 -0.71270608D-04  0.28274683D-05
  0.93051565D-05 -0.11800251D-04 -0.67298739D-04  0.41849164D-04  0.25449576D-04
 -0.66396290D-04 -0.12644798D-03 -0.45243811D-03  0.20607482D-04 -0.15380936D-04
 -0.52265457D-05  0.27211594D-04  0.53238747D-04  0.17195354D-03 -0.11157837D-04
 -0.35334281D-04  0.46492118D-04 -0.10052541D-04  0.18592827D-04  0.14604452D-04
 -0.25688446D-05 -0.92239285D-04  0.60867691D-04 -0.88945117D-04 -0.96829011D-04
  0.10284638D-03  0.96651651D-04  0.37354687D-03 -0.28544945D-03  0.49064633D-04
  0.70042004D-05  0.41756777D-04 -0.25549461D-04  0.36068228D-04  0.44750154D-04
 -0.41332699D-04 -0.57080829D-04 -0.17002048D-03  0.11798108D-03 -0.43687500D-04
 -0.69975078D-02 -0.13043658D-01 -0.22112207D-01 -0.33484398D-01 -0.41872357D-01
 -0.36048199D-01 -0.13858244D-01  0.60050038D-04  0.12065411D-04  0.22656704D-04
  0.38580460D-04  0.60436063D-04  0.80991434D-04  0.87117207D-04  0.52305057D-04
 -0.34398006D-04 -0.71482740D-03 -0.39199953D-04  0.43189875D-04  0.79587725D-04
  0.77835057D-04  0.51428913D-04 -0.58227739D-04 -0.56945457D-04 -0.37626271D-04
 -0.84788326D-04 -0.82921131D-04 -0.54789497D-04 -0.18725945D-04  0.11591840D-04
  0.17088267D-04 -0.19091837D-04  0.60548016D-04  0.59406249D-04  0.12564487D-05
  0.15709453D-04 -0.16794889D-05 -0.10121183D-03  0.22204259D-03 -0.12083076D-03
  0.66979082D-04  0.17003368D-03 -0.23836561D-03  0.34299879D-04 -0.79645705D-04
  0.45345826D-04 -0.37489013D-04 -0.74757657D-04  0.97682108D-04 -0.73760562D-05
  0.19546659D-04 -0.12170603D-04 -0.44324934D-04 -0.95484502D-05  0.73272180D-04
  0.81927176D-05  0.14468602D-03  0.84419504D-04  0.91277864D-05 -0.18600406D-03
  0.19633764D-04 -0.33705939D-04 -0.24805399D-03 -0.27289228D-03  0.30380880D-03
  0.27728656D-05 -0.65326238D-04 -0.37853739D-04 -0.76534797D-05  0.86407806D-04
 -0.64794148D-06 -0.66511716D-06  0.10957091D-03  0.11420916D-03 -0.15915979D-03
  0.59584766D+00  0.11106859D+01  0.18828856D+01  0.28512437D+01  0.35654902D+01
  0.30695550D+01  0.11800490D+01 -0.51133455D-02 -0.37042534D-03 -0.69559319D-03
 -0.11844752D-02 -0.18554735D-02 -0.24865527D-02 -0.26746227D-02 -0.16058400D-02
  0.10560679D-02  0.60412035D-01 -0.14454485D-02 -0.75013494D-03 -0.13213724D-02
 -0.12922734D-02 -0.85385966D-03 -0.61901815D-02 -0.60538623D-02 -0.40000428D-02
  0.35262910D-02  0.34486355D-02  0.22786593D-02  0.19405948D-03  0.10275072D-02
 -0.58854179D-03  0.22123828D-03  0.10548282D-02 -0.60169332D-03  0.14191616D-04
  0.69684854D-04 -0.39692709D-04 -0.30224113D-03  0.39261580D-03 -0.90374677D-04
  0.17517836D-03 -0.93644100D-04 -0.85943967D-03  0.37088649D-03 -0.47696727D-03
  0.10608078D-03 -0.32237738D-03  0.18655649D-03  0.99865049D-03  0.11776390D-03
 -0.15463256D-03  0.36868664D-04 -0.12293036D-03  0.70334793D-04  0.32258584D-03
  0.49499608D-04 -0.92782113D-04 -0.13137182D-03 -0.21080598D-03  0.34764709D-03
 -0.24164947D-03  0.62307157D-04 -0.69300752D-04  0.63576494D-03  0.47954712D-03
 -0.74753486D-04  0.96929022D-04  0.14238075D-03  0.23031775D-03 -0.37209091D-03
  0.22616451D-03 -0.60572964D-05  0.81303849D-04 -0.65330676D-03 -0.41201946D-03
  0.20230545D-05  0.36486621D-05  0.53799501D-05  0.73757560D-04 -0.12976832D-03
 -0.23544212D-04  0.11566741D-04 -0.32463832D-04  0.20413589D-04  0.23460703D-03
  0.66846124D-04 -0.10359943D-04 -0.37660857D-05  0.27855371D-04 -0.16753098D-04
  0.13187198D-03 -0.97090485D-04 -0.34781494D-04 -0.70774201D-04  0.76075648D-04
  0.93799535D-04  0.34388099D-04 -0.15879731D-04 -0.18508368D-04  0.57249135D-04
 -0.21615393D-04  0.91051212D-05
MO    2     MO 0.0        OCC NO =    2.0000000  ORB. ENERGY =  -24.548012
  0.17858856D-03  0.33292968D-03  0.56270980D-03  0.84593715D-03  0.10393315D-02
  0.87788163D-03  0.33110465D-03 -0.16386554D-05 -0.12458701D-03 -0.23326619D-03
 -0.39715565D-03 -0.61433940D-03 -0.80906338D-03 -0.84066867D-03 -0.53420720D-03
  0.35801324D-03 -0.29094319D-03  0.12266092D-02  0.15261903D-03 -0.27510682D-03
 -0.25793013D-03 -0.18366162D-03  0.30935627D-03  0.29004116D-03  0.20652659D-03
  0.20129942D-03  0.18873100D-03  0.13438772D-03  0.10119410D-02 -0.12360706D-02
 -0.79496104D-03  0.83684841D-04 -0.22313511D-03 -0.13205272D-03 -0.65483010D-05
 -0.10185518D-05  0.18929625D-06 -0.13255236D-03  0.30187662D-03 -0.16932425D-03
 -0.10063598D-02 -0.61290829D-03  0.88120245D-03 -0.62769737D-04  0.11784509D-03
 -0.55075357D-04 -0.50738550D-03 -0.29782087D-03  0.34885074D-03  0.19928077D-05
  0.23200908D-05 -0.43128985D-05 -0.20030498D-04 -0.13271219D-04  0.13619573D-04
 -0.64504510D-04  0.15956014D-04  0.70752155D-04  0.23210376D-03 -0.33749793D-04
 -0.34195685D-04 -0.38590235D-04 -0.14118250D-04 -0.17806078D-03  0.48117056D-03
 -0.21182028D-04  0.79250996D-05  0.19427447D-04  0.28140832D-04 -0.37201113D-04
 -0.74106256D-05  0.35405250D-04  0.13425814D-04 -0.50871717D-04  0.23466048D-04
 -0.13438823D-02 -0.25050548D-02 -0.42466838D-02 -0.64307309D-02 -0.80416515D-02
 -0.69231129D-02 -0.26614973D-02  0.11532704D-04  0.87497111D-05  0.16430408D-04
  0.27978151D-04  0.43827608D-04  0.58734150D-04  0.63176498D-04  0.37931086D-04
 -0.24945078D-04 -0.14154366D-03 -0.54217754D-04  0.36519019D-04  0.49183810D-04
  0.48100692D-04  0.31782161D-04 -0.28823973D-04 -0.28189216D-04 -0.18625807D-04
  0.41245355D-04  0.40337056D-04  0.26652399D-04 -0.13513239D-04  0.48908163D-05
 -0.10509139D-04 -0.63903214D-05  0.19336664D-04 -0.74301698D-04  0.64471216D-05
 -0.77142780D-05 -0.11684553D-04 -0.73124301D-04  0.66964080D-04  0.61602207D-05
 -0.53189414D-04 -0.29941830D-03  0.35076206D-03  0.24207796D-04 -0.26487795D-04
  0.22799988D-05  0.15084777D-04  0.11899074D-03 -0.13083739D-03 -0.19114068D-04
 -0.28842462D-04  0.47956531D-04  0.25391690D-04  0.21105171D-04  0.13495018D-05
 -0.53585014D-04  0.41237262D-04  0.77790870D-04 -0.65601799D-04  0.13598087D-03
  0.49502489D-04  0.22635684D-03 -0.25969265D-03 -0.28287510D-03  0.28792612D-03
  0.28737979D-04 -0.19901889D-04 -0.33161343D-04  0.30809744D-04 -0.54139252D-04
 -0.27513959D-04 -0.11702368D-03  0.11384492D-03  0.12699799D-03 -0.10514044D-03
  0.59584712D+00  0.11106848D+01  0.18828839D+01  0.28512411D+01  0.35654870D+01
  0.30695522D+01  0.11800479D+01 -0.51133408D-02 -0.37039768D-03 -0.69554124D-03
 -0.11843868D-02 -0.18553349D-02 -0.24863670D-02 -0.26744230D-02 -0.16057200D-02
  0.10559890D-02  0.60411874D-01 -0.14465785D-02 -0.74928773D-03 -0.37036001D-02
 -0.36220400D-02 -0.23932350D-02  0.53140160D-02  0.51969916D-02  0.34338721D-02
  0.32458497D-02  0.31743701D-02  0.20974405D-02  0.59111908D-03 -0.89177087D-03
 -0.54143902D-03  0.62750034D-03 -0.90556993D-03 -0.55278396D-03  0.41120753D-04
 -0.59712030D-04 -0.36586919D-04 -0.12596076D-03  0.25803577D-03 -0.13207501D-03
 -0.65382145D-03 -0.39578904D-03  0.70829640D-03  0.11470434D-03 -0.26556932D-03
  0.15086498D-03  0.87169163D-03  0.52640043D-03 -0.79709627D-03  0.27878820D-04
 -0.78457616D-04  0.50578795D-04  0.29287750D-03  0.17883285D-03 -0.25274229D-03
  0.11771006D-03 -0.27686760D-04 -0.13169293D-03 -0.43197659D-03  0.59038296D-04
  0.72642263D-04  0.78846408D-04  0.24021984D-04  0.32243654D-03 -0.91822882D-03
 -0.14199570D-03  0.32795044D-04  0.14375842D-03  0.44706258D-03 -0.87129760D-04
 -0.63633756D-04 -0.21075488D-04 -0.11255373D-04 -0.36764150D-03  0.87976362D-03
  0.69733223D-02  0.12998575D-01  0.22035780D-01  0.33368665D-01  0.41727633D-01
  0.35923605D-01  0.13810345D-01 -0.59842487D-04  0.34380622D-05  0.64560720D-05
  0.10993577D-04  0.17221374D-04  0.23078667D-04  0.24824218D-04  0.14904428D-04
 -0.98017787D-05  0.70175197D-03 -0.73623831D-04  0.25535921D-04  0.19669746D-04
  0.19236582D-04  0.12710423D-04 -0.64448440D-04 -0.63029167D-04 -0.41646036D-04
 -0.54070272D-05 -0.52879545D-05 -0.34939751D-05 -0.80806929D-05  0.71389409D-05
  0.38334693D-05  0.11187464D-04 -0.35016921D-04  0.48428504D-04  0.77317846D-05
 -0.12312393D-04 -0.18847150D-05 -0.33602254D-04  0.16888564D-03 -0.13528339D-03
 -0.27701904D-03  0.74315416D-04  0.23770380D-03  0.11704968D-04 -0.64714775D-04
  0.53009807D-04  0.10079192D-03 -0.31421273D-04 -0.85823944D-04 -0.16665389D-04
  0.24249796D-04 -0.75844074D-05  0.94460853D-05  0.21342682D-04 -0.67076393D-04
 -0.45039502D-04 -0.98684240D-04  0.69101182D-04  0.26368525D-03  0.42287782D-04
  0.77897161D-04 -0.12856675D-03  0.25376494D-03 -0.28520071D-03 -0.24096282D-04
  0.24461939D-04  0.44840994D-04 -0.28935921D-04 -0.11502619D-03 -0.17059439D-04
 -0.34908318D-04  0.41640369D-04 -0.11746354D-03  0.12171608D-03  0.32710226D-04
  0.20584994D-05  0.37125884D-05  0.54742094D-05  0.75154943D-04 -0.13320611D-03
 -0.24099297D-04 -0.25392995D-05  0.34593091D-04  0.19329104D-04  0.24713498D-03
  0.34405703D-04 -0.89943373D-05  0.75892193D-05 -0.27120236D-04 -0.15765337D-04
  0.71420470D-04 -0.39494192D-04 -0.31926278D-04  0.22104173D-03  0.10194505D-03
 -0.51401502D-04  0.48232690D-04 -0.29922021D-04 -0.18310670D-04 -0.13848303D-05
 -0.15220520D-04 -0.15734121D-04
MO    3     MO 0.0        OCC NO =    2.0000000  ORB. ENERGY =  -24.547969
  0.17760719D-03  0.33110018D-03  0.55961763D-03  0.84128861D-03  0.10336203D-02
  0.87305754D-03  0.32928518D-03 -0.16296507D-05 -0.12389899D-03 -0.23197801D-03
 -0.39496241D-03 -0.61094680D-03 -0.80459544D-03 -0.83602620D-03 -0.53125712D-03
  0.35603617D-03 -0.28949694D-03  0.12201478D-02  0.15179462D-03 -0.19860841D-03
 -0.18620801D-03 -0.13259119D-03 -0.51106419D-04 -0.47915516D-04 -0.34118702D-04
 -0.41275716D-03 -0.38698607D-03 -0.27555714D-03  0.71017328D-03  0.18676348D-03
  0.16286015D-02  0.34001151D-04  0.13398616D-04  0.27073065D-03 -0.64428170D-05
 -0.13540619D-05 -0.39435219D-06 -0.32339842D-03 -0.42734388D-03  0.75074229D-03
  0.66845048D-04  0.82998301D-03  0.22984400D-03 -0.15843441D-03 -0.16147289D-03
  0.31990730D-03  0.12573271D-04  0.43699229D-03  0.11411095D-03 -0.23674811D-05
 -0.82706393D-05  0.10638120D-04  0.30943940D-05  0.20309196D-04  0.51698428D-05
 -0.58976582D-04 -0.33753830D-04  0.11314998D-03 -0.12863343D-03  0.18813544D-04
 -0.12397882D-03  0.30556318D-03  0.82447946D-04 -0.21547112D-03  0.63670168D-04
 -0.22791900D-04  0.56035214D-05  0.16017682D-04  0.28768531D-04 -0.28877586D-04
  0.60076778D-05  0.39607169D-04  0.12067022D-04 -0.54060724D-04  0.26286298D-04
  0.59588706D+00  0.11107593D+01  0.18830101D+01  0.28514322D+01  0.35657260D+01
  0.30697579D+01  0.11801270D+01 -0.51136836D-02 -0.37043793D-03 -0.69561683D-03
 -0.11845155D-02 -0.18555365D-02 -0.24866372D-02 -0.26747136D-02 -0.16058945D-02
  0.10561038D-02  0.60416017D-01 -0.14462929D-02 -0.74954648D-03 -0.24517206D-02
 -0.23977292D-02 -0.15842811D-02 -0.67281668D-03 -0.65800002D-03 -0.43476843D-03
 -0.67843857D-02 -0.66349810D-02 -0.43840125D-02  0.38233422D-03  0.10670273D-03
  0.11315145D-02  0.41430364D-03  0.11411105D-03  0.11557111D-02  0.27044234D-04
  0.74608255D-05  0.76275249D-04 -0.24718853D-03 -0.33499022D-03  0.58217875D-03
  0.51572125D-04  0.48812216D-03  0.14666936D-03  0.28176764D-03  0.38337575D-03
 -0.66514339D-03 -0.63092610D-04 -0.71050083D-03 -0.19872815D-03  0.85296258D-04
  0.12481619D-03 -0.21011244D-03 -0.23810855D-04 -0.24859679D-03 -0.68054907D-04
  0.10803753D-03  0.66049863D-04 -0.21085506D-03  0.25326360D-03 -0.42471302D-04
  0.22905765D-03 -0.57737619D-03 -0.15567829D-03  0.40350754D-03 -0.12156683D-03
 -0.13104969D-03 -0.52221972D-04  0.22147216D-03 -0.19102410D-03 -0.27952901D-05
 -0.22747073D-03  0.58417317D-03  0.15946121D-03 -0.43694574D-03  0.13291929D-03
  0.13088506D-02  0.24397542D-02  0.41359832D-02  0.62630975D-02  0.78320254D-02
  0.67426443D-02  0.25921186D-02 -0.11232074D-04  0.70321757D-05  0.13205180D-04
  0.22486145D-04  0.35224413D-04  0.47204857D-04  0.50775189D-04  0.30485357D-04
 -0.20048453D-04  0.12747700D-03 -0.60126505D-04  0.32866475D-04  0.35585830D-04
  0.34802165D-04  0.22995262D-04 -0.20759202D-04 -0.20302046D-04 -0.13414420D-04
  0.30047784D-04  0.29386076D-04  0.19416623D-04 -0.11829007D-04  0.60125572D-05
 -0.44144726D-05 -0.14788779D-04  0.68685827D-04  0.13081402D-04  0.35040199D-05
  0.67448715D-05  0.13098183D-04 -0.12032860D-03 -0.10304206D-03  0.22337066D-03
  0.20665114D-03  0.52204064D-04  0.20246700D-03  0.43213964D-04  0.39804435D-04
 -0.83018400D-04 -0.84844705D-04 -0.18365111D-04 -0.74622687D-04 -0.10335064D-04
  0.27628371D-04 -0.17293306D-04 -0.25858523D-04 -0.38605157D-04  0.55928831D-04
 -0.15820704D-04 -0.81752857D-04  0.12497053D-03  0.94728608D-04 -0.69233155D-04
 -0.21654156D-03 -0.47266496D-04  0.31449173D-03 -0.15837002D-03  0.28209928D-03
  0.10792329D-04  0.32251067D-04 -0.53229779D-04 -0.59150839D-04  0.44396610D-04
  0.93365735D-04  0.26773852D-04 -0.14114981D-03  0.66323603D-04 -0.12131733D-03
  0.10966229D-02  0.20441526D-02  0.34653413D-02  0.52475480D-02  0.65620772D-02
  0.56493372D-02  0.21718115D-02 -0.94108146D-05  0.71474495D-05  0.13421644D-04
  0.22854745D-04  0.35801823D-04  0.47978655D-04  0.51607513D-04  0.30985083D-04
 -0.20377094D-04  0.10597171D-03 -0.59643189D-04  0.33139191D-04  0.24461534D-04
  0.23922846D-04  0.15806836D-04  0.36728489D-04  0.35919660D-04  0.23733638D-04
  0.27369925D-04  0.26767189D-04  0.17686214D-04 -0.84069263D-05 -0.10791554D-04
 -0.37534729D-05  0.13726003D-04 -0.68429210D-04  0.16421565D-04  0.57680800D-05
 -0.41887199D-05  0.13370838D-04 -0.43354232D-04 -0.18791560D-03  0.23126984D-03
 -0.14650069D-03  0.12980114D-03 -0.12765817D-03  0.12040334D-04  0.73892348D-04
 -0.85932682D-04  0.57846190D-04 -0.47293662D-04  0.46718355D-04 -0.13665198D-04
  0.27882948D-04 -0.14217750D-04 -0.10006027D-04 -0.12583636D-04 -0.70961731D-04
 -0.25751822D-04  0.90327947D-04  0.13922977D-03 -0.89260672D-05 -0.69552958D-05
 -0.10672264D-03  0.86181532D-04 -0.26402854D-03 -0.31096666D-03 -0.22121351D-03
  0.16209285D-04 -0.44669209D-04 -0.59686601D-04 -0.15004754D-04  0.12422415D-04
  0.45364429D-04 -0.33623100D-04  0.12158521D-03  0.13369537D-03  0.98777693D-04
  0.20439260D-05  0.36863048D-05  0.54354542D-05  0.74621592D-04 -0.13250138D-03
 -0.23970058D-04  0.46359354D-05  0.12166140D-07 -0.39559196D-04  0.24232218D-03
  0.50725609D-04  0.19441957D-04  0.16756812D-05  0.11132492D-05  0.32301000D-04
  0.10625403D-03 -0.82364630D-05 -0.98017567D-04  0.45029963D-04 -0.17706715D-03
 -0.41058318D-04  0.41806375D-04 -0.12228417D-04 -0.29577958D-04  0.24431722D-04
  0.36786307D-04  0.69288756D-05
MO    4     MO 0.0        OCC NO =    2.0000000  ORB. ENERGY =  -10.302921
  0.32992845D+00  0.61506164D+00  0.10395625D+01  0.15628030D+01  0.19200840D+01
  0.16218179D+01  0.61169005D+00 -0.30272882D-02 -0.28256745D-02 -0.52905543D-02
 -0.90076214D-02 -0.13933421D-01 -0.18349825D-01 -0.19066643D-01 -0.12115996D-01
  0.81198587D-02  0.31164201D-01 -0.15790561D-02 -0.10307576D-03  0.46279414D-02
  0.43389893D-02  0.30896188D-02  0.96181127D-03  0.90175920D-03  0.64210627D-03
  0.31559510D-05  0.29589047D-05  0.21069164D-05 -0.31222135D-02 -0.65520768D-03
  0.22063453D-05 -0.84010204D-03 -0.17362739D-03 -0.15613779D-05  0.15182824D-04
  0.31792611D-05 -0.56706998D-08  0.64426955D-03 -0.30000537D-03 -0.34426417D-03
  0.41307754D-03  0.82805133D-06  0.21015002D-05  0.92685811D-03 -0.43412435D-03
 -0.49273375D-03  0.58957948D-03  0.26849924D-05  0.32960804D-05  0.56745425D-04
 -0.26493973D-04 -0.30251452D-04  0.36168810D-04  0.58346047D-07 -0.12457666D-06
 -0.14575035D-02  0.41578480D-03  0.84490308D-03  0.19720883D-02 -0.19306834D-02
 -0.11317147D-03  0.24004222D-02  0.68332895D-03 -0.24215378D-02  0.10023494D-02
  0.22997426D-03 -0.61814616D-04 -0.19283530D-03 -0.31466823D-03  0.30554672D-03
  0.24851725D-04 -0.37525454D-03 -0.12010287D-03  0.55365418D-03 -0.22710753D-03
  0.48576610D-04  0.90548906D-04  0.15350266D-03  0.23244826D-03  0.29067737D-03
  0.25024614D-03  0.96203752D-04 -0.41686660D-06 -0.64379426D-04 -0.12089316D-03
 -0.20586020D-03 -0.32247879D-03 -0.43215952D-03 -0.46484583D-03 -0.27909282D-03
  0.18354318D-03  0.39931410D-03  0.14552663D-02  0.45773068D-03 -0.40358552D-03
 -0.39469782D-03 -0.26079354D-03 -0.11303358D-03 -0.11054438D-03 -0.73041343D-04
 -0.12163045D-02 -0.11895192D-02 -0.78596564D-03  0.25595219D-04  0.11734242D-04
  0.26422974D-03  0.54539194D-04  0.14523660D-04  0.18644200D-03 -0.45260626D-04
 -0.99743998D-05 -0.23188144D-04 -0.45467375D-03 -0.89475199D-03  0.13494257D-02
  0.24036541D-03  0.18795071D-02  0.49905388D-03  0.37053483D-03  0.63190463D-03
 -0.10024395D-02 -0.14831142D-03 -0.13245649D-02 -0.35434740D-03  0.77630936D-04
  0.23235313D-03 -0.30998407D-03 -0.74486186D-04 -0.25964591D-03 -0.79594780D-04
  0.24042294D-03 -0.87571053D-04 -0.37289212D-03 -0.53114175D-03  0.40007789D-03
 -0.30221344D-03 -0.19012707D-03 -0.13736473D-03  0.14208898D-02 -0.72868626D-03
 -0.38754873D-03 -0.76666662D-04  0.59568384D-03 -0.19626472D-03 -0.17091852D-03
 -0.27863675D-03  0.13589109D-02  0.40091851D-03 -0.15084148D-02  0.61713625D-03
  0.48658519D-04  0.90701587D-04  0.15376149D-03  0.23284021D-03  0.29116750D-03
  0.25066810D-03  0.96365967D-04 -0.41756951D-06 -0.64438960D-04 -0.12100496D-03
 -0.20605057D-03 -0.32277700D-03 -0.43255915D-03 -0.46527569D-03 -0.27935091D-03
  0.18371291D-03  0.39929320D-03  0.14561729D-02  0.45772710D-03 -0.62787352D-03
 -0.61404659D-03 -0.40572655D-03  0.96025916D-03  0.93911249D-03  0.62051133D-03
  0.58170313D-03  0.56889295D-03  0.37589163D-03  0.74209844D-04 -0.22142637D-03
 -0.12632497D-03  0.88662503D-04 -0.14879152D-03 -0.87431065D-04 -0.49586182D-04
  0.10432170D-04  0.11083157D-04 -0.31059504D-04  0.43657371D-03 -0.40551420D-03
 -0.20659547D-02 -0.12993358D-02  0.16804480D-02  0.70142252D-04 -0.34340879D-03
  0.27326653D-03  0.14933371D-02  0.92504050D-03 -0.12262288D-02  0.10865069D-04
 -0.12601717D-03  0.11515210D-03  0.31903323D-03  0.22142699D-03 -0.42615158D-03
  0.18727474D-03 -0.90010063D-04 -0.51287409D-03 -0.76927507D-04  0.55932790D-03
  0.16339195D-03 -0.48489672D-03 -0.28929771D-03  0.13752303D-02 -0.14480650D-03
 -0.37259133D-03  0.12838247D-03  0.51952531D-03  0.96518702D-03 -0.49418051D-03
 -0.24706828D-03  0.15258696D-03  0.10903310D-03 -0.13115076D-02  0.19396653D-02
  0.48812566D-04  0.90988737D-04  0.15424828D-03  0.23357735D-03  0.29208930D-03
  0.25146168D-03  0.96671050D-04 -0.41889148D-06 -0.64494261D-04 -0.12110880D-03
 -0.20622740D-03 -0.32305400D-03 -0.43293036D-03 -0.46567498D-03 -0.27959065D-03
  0.18387057D-03  0.39837552D-03  0.14611434D-02  0.45756956D-03 -0.19983086D-03
 -0.19543021D-03 -0.12912900D-03 -0.10995055D-02 -0.10752924D-02 -0.71049112D-03
  0.63035065D-03  0.61646916D-03  0.40732724D-03 -0.19657571D-04  0.22314536D-03
 -0.13530165D-03  0.22578922D-04  0.16223977D-03 -0.93535604D-04 -0.41463343D-04
 -0.28889895D-04  0.12089589D-04 -0.70518094D-03  0.10168393D-02 -0.31165837D-03
  0.10692952D-02 -0.58282715D-03 -0.21811630D-02  0.54474811D-03 -0.74945317D-03
  0.20470506D-03 -0.71715166D-03  0.40135913D-03  0.15788809D-02  0.10428439D-03
 -0.19630391D-03  0.92019519D-04 -0.12126080D-03  0.38541635D-04  0.50552778D-03
  0.31097395D-03  0.33413995D-04 -0.51644080D-03 -0.43485071D-03  0.21938892D-04
  0.32188633D-03 -0.49807114D-03 -0.12218088D-03  0.12274361D-02 -0.79748699D-03
 -0.30805767D-03  0.18445994D-03  0.51720898D-03  0.72419905D-03 -0.75459172D-03
  0.31452700D-03  0.19997396D-03  0.20121191D-03 -0.18661539D-02 -0.61711220D-03
 -0.14112794D-03 -0.25453004D-03 -0.37530440D-03 -0.24915630D-02 -0.17162012D-02
  0.88001817D-05 -0.24658536D-02 -0.51411610D-03 -0.12353501D-05 -0.32588930D-02
 -0.67930289D-03 -0.18969481D-05 -0.41957987D-03 -0.87442584D-04 -0.31109587D-06
 -0.19548314D-02  0.91180781D-03  0.10430236D-02 -0.12511675D-02 -0.27326147D-05
  0.68997595D-06 -0.35046817D-03  0.16333717D-03  0.18713100D-03 -0.22366885D-03