 Molden2AIM, Version 4.0.0 (06/02/2016)           Time: Thu Jun 28 17:07:52 2018
GAUSSIAN             17 MOL ORBITALS    362 PRIMITIVES        6 NUCLEI
  C    1    (CENTRE  1)  -3.23177560  0.89559034 -0.37666399  CHARGE =  6.0
  F    2    (CENTRE  2)  -0.62220555  0.88616061 -0.62622689  CHARGE =  9.0
  H    3    (CENTRE  3)  -3.87895956 -1.07246304 -0.42132389  CHARGE =  1.0
  H    4    (CENTRE  4)  -4.02917011  1.96105195 -1.96869778  CHARGE =  1.0
  S    5    (CENTRE  5)  -4.26708663  2.46143253  2.46290273  CHARGE = 16.0
  H    6    (CENTRE  6)  -3.71269956  0.54942464  4.07377898  CHARGE =  1.0
CENTRE ASSIGNMENTS    1  1  1  1  1  1  1  1  1  1  1  1  1  1  1  1  1  1  1  1
CENTRE ASSIGNMENTS    1  1  1  1  1  1  1  1  1  1  1  1  1  1  1  1  1  1  1  1
CENTRE ASSIGNMENTS    1  1  1  1  1  1  1  1  1  1  1  1  1  1  1  1  1  1  1  1
CENTRE ASSIGNMENTS    1  1  1  1  1  1  1  1  1  1  1  1  1  1  1  2  2  2  2  2
CENTRE ASSIGNMENTS    2  2  2  2  2  2  2  2  2  2  2  2  2  2  2  2  2  2  2  2
CENTRE ASSIGNMENTS    2  2  2  2  2  2  2  2  2  2  2  2  2  2  2  2  2  2  2  2
CENTRE ASSIGNMENTS    2  2  2  2  2  2  2  2  2  2  2  2  2  2  2  2  2  2  2  2
CENTRE ASSIGNMENTS    2  2  2  2  2  2  2  2  2  2  3  3  3  3  3  3  3  3  3  3
CENTRE ASSIGNMENTS    3  3  3  3  3  3  3  3  3  3  3  3  3  3  3  3  3  4  4  4
CENTRE ASSIGNMENTS    4  4  4  4  4  4  4  4  4  4  4  4  4  4  4  4  4  4  4  4
CENTRE ASSIGNMENTS    4  4  4  4  5  5  5  5  5  5  5  5  5  5  5  5  5  5  5  5
CENTRE ASSIGNMENTS    5  5  5  5  5  5  5  5  5  5  5  5  5  5  5  5  5  5  5  5
CENTRE ASSIGNMENTS    5  5  5  5  5  5  5  5  5  5  5  5  5  5  5  5  5  5  5  5
CENTRE ASSIGNMENTS    5  5  5  5  5  5  5  5  5  5  5  5  5  5  5  5  5  5  5  5
CENTRE ASSIGNMENTS    5  5  5  5  5  5  5  5  5  5  5  5  5  5  5  5  5  5  5  5
CENTRE ASSIGNMENTS    5  5  5  5  5  5  5  5  5  5  5  5  5  5  5  5  5  5  5  5
CENTRE ASSIGNMENTS    5  5  5  5  5  5  5  5  5  5  5  5  5  5  5  6  6  6  6  6
CENTRE ASSIGNMENTS    6  6  6  6  6  6  6  6  6  6  6  6  6  6  6  6  6  6  6  6
CENTRE ASSIGNMENTS    6  6
TYPE ASSIGNMENTS      1  1  1  1  1  1  1  1  1  1  1  1  1  1  1  1  1  1  1  2
TYPE ASSIGNMENTS      2  2  3  3  3  4  4  4  2  3  4  2  3  4  2  3  4  5  6  7
TYPE ASSIGNMENTS      8  9 10  5  6  7  8  9 10  5  6  7  8  9 10 11 12 13 17 14
TYPE ASSIGNMENTS     15 18 19 16 20 11 12 13 17 14 15 18 19 16 20  1  1  1  1  1
TYPE ASSIGNMENTS      1  1  1  1  1  1  1  1  1  1  1  1  1  1  2  2  2  3  3  3
TYPE ASSIGNMENTS      4  4  4  2  3  4  2  3  4  2  3  4  5  6  7  8  9 10  5  6
TYPE ASSIGNMENTS      7  8  9 10  5  6  7  8  9 10 11 12 13 17 14 15 18 19 16 20
TYPE ASSIGNMENTS     11 12 13 17 14 15 18 19 16 20  1  1  1  1  1  1  2  3  4  2
TYPE ASSIGNMENTS      3  4  2  3  4  5  6  7  8  9 10  5  6  7  8  9 10  1  1  1
TYPE ASSIGNMENTS      1  1  1  2  3  4  2  3  4  2  3  4  5  6  7  8  9 10  5  6
TYPE ASSIGNMENTS      7  8  9 10  1  1  1  1  1  1  1  1  1  1  1  1  1  1  1  1
TYPE ASSIGNMENTS      1  1  1  1  1  1  1  1  1  1  1  1  1  1  1  1  1  1  1  1
TYPE ASSIGNMENTS      1  1  1  1  1  1  2  2  2  2  2  2  2  3  3  3  3  3  3  3
TYPE ASSIGNMENTS      4  4  4  4  4  4  4  2  2  2  2  2  2  2  3  3  3  3  3  3
TYPE ASSIGNMENTS      3  4  4  4  4  4  4  4  2  3  4  2  3  4  2  3  4  5  6  7
TYPE ASSIGNMENTS      8  9 10  5  6  7  8  9 10  5  6  7  8  9 10 11 12 13 17 14
TYPE ASSIGNMENTS     15 18 19 16 20 11 12 13 17 14 15 18 19 16 20  1  1  1  1  1
TYPE ASSIGNMENTS      1  2  3  4  2  3  4  2  3  4  5  6  7  8  9 10  5  6  7  8
TYPE ASSIGNMENTS      9 10
EXPONENTS  0.8236000D+04 0.1235000D+04 0.2808000D+03 0.7927000D+02 0.2559000D+02
EXPONENTS  0.8997000D+01 0.3319000D+01 0.3643000D+00 0.8236000D+04 0.1235000D+04
EXPONENTS  0.2808000D+03 0.7927000D+02 0.2559000D+02 0.8997000D+01 0.3319000D+01
EXPONENTS  0.3643000D+00 0.9059000D+00 0.1285000D+00 0.4402000D-01 0.1871000D+02
EXPONENTS  0.4133000D+01 0.1200000D+01 0.1871000D+02 0.4133000D+01 0.1200000D+01
EXPONENTS  0.1871000D+02 0.4133000D+01 0.1200000D+01 0.3827000D+00 0.3827000D+00
EXPONENTS  0.3827000D+00 0.1209000D+00 0.1209000D+00 0.1209000D+00 0.3569000D-01
EXPONENTS  0.3569000D-01 0.3569000D-01 0.1097000D+01 0.1097000D+01 0.1097000D+01
EXPONENTS  0.1097000D+01 0.1097000D+01 0.1097000D+01 0.3180000D+00 0.3180000D+00
EXPONENTS  0.3180000D+00 0.3180000D+00 0.3180000D+00 0.3180000D+00 0.1000000D+00
EXPONENTS  0.1000000D+00 0.1000000D+00 0.1000000D+00 0.1000000D+00 0.1000000D+00
EXPONENTS  0.7610000D+00 0.7610000D+00 0.7610000D+00 0.7610000D+00 0.7610000D+00
EXPONENTS  0.7610000D+00 0.7610000D+00 0.7610000D+00 0.7610000D+00 0.7610000D+00
EXPONENTS  0.2680000D+00 0.2680000D+00 0.2680000D+00 0.2680000D+00 0.2680000D+00
EXPONENTS  0.2680000D+00 0.2680000D+00 0.2680000D+00 0.2680000D+00 0.2680000D+00
EXPONENTS  0.1950000D+05 0.2923000D+04 0.6645000D+03 0.1875000D+03 0.6062000D+02
EXPONENTS  0.2142000D+02 0.7950000D+01 0.8815000D+00 0.1950000D+05 0.2923000D+04
EXPONENTS  0.6645000D+03 0.1875000D+03 0.6062000D+02 0.2142000D+02 0.7950000D+01
EXPONENTS  0.8815000D+00 0.2257000D+01 0.3041000D+00 0.9158000D-01 0.4388000D+02
EXPONENTS  0.9926000D+01 0.2930000D+01 0.4388000D+02 0.9926000D+01 0.2930000D+01
EXPONENTS  0.4388000D+02 0.9926000D+01 0.2930000D+01 0.9132000D+00 0.9132000D+00
EXPONENTS  0.9132000D+00 0.2672000D+00 0.2672000D+00 0.2672000D+00 0.7361000D-01
EXPONENTS  0.7361000D-01 0.7361000D-01 0.3107000D+01 0.3107000D+01 0.3107000D+01
EXPONENTS  0.3107000D+01 0.3107000D+01 0.3107000D+01 0.8550000D+00 0.8550000D+00
EXPONENTS  0.8550000D+00 0.8550000D+00 0.8550000D+00 0.8550000D+00 0.2920000D+00
EXPONENTS  0.2920000D+00 0.2920000D+00 0.2920000D+00 0.2920000D+00 0.2920000D+00
EXPONENTS  0.1917000D+01 0.1917000D+01 0.1917000D+01 0.1917000D+01 0.1917000D+01
EXPONENTS  0.1917000D+01 0.1917000D+01 0.1917000D+01 0.1917000D+01 0.1917000D+01
EXPONENTS  0.7240000D+00 0.7240000D+00 0.7240000D+00 0.7240000D+00 0.7240000D+00
EXPONENTS  0.7240000D+00 0.7240000D+00 0.7240000D+00 0.7240000D+00 0.7240000D+00
EXPONENTS  0.3387000D+02 0.5095000D+01 0.1159000D+01 0.3258000D+00 0.1027000D+00
EXPONENTS  0.2526000D-01 0.1407000D+01 0.1407000D+01 0.1407000D+01 0.3880000D+00
EXPONENTS  0.3880000D+00 0.3880000D+00 0.1020000D+00 0.1020000D+00 0.1020000D+00
EXPONENTS  0.1057000D+01 0.1057000D+01 0.1057000D+01 0.1057000D+01 0.1057000D+01
EXPONENTS  0.1057000D+01 0.2470000D+00 0.2470000D+00 0.2470000D+00 0.2470000D+00
EXPONENTS  0.2470000D+00 0.2470000D+00 0.3387000D+02 0.5095000D+01 0.1159000D+01
EXPONENTS  0.3258000D+00 0.1027000D+00 0.2526000D-01 0.1407000D+01 0.1407000D+01
EXPONENTS  0.1407000D+01 0.3880000D+00 0.3880000D+00 0.3880000D+00 0.1020000D+00
EXPONENTS  0.1020000D+00 0.1020000D+00 0.1057000D+01 0.1057000D+01 0.1057000D+01
EXPONENTS  0.1057000D+01 0.1057000D+01 0.1057000D+01 0.2470000D+00 0.2470000D+00
EXPONENTS  0.2470000D+00 0.2470000D+00 0.2470000D+00 0.2470000D+00 0.3741000D+06
EXPONENTS  0.5605000D+05 0.1276000D+05 0.3615000D+04 0.1183000D+04 0.4288000D+03
EXPONENTS  0.1678000D+03 0.6947000D+02 0.2984000D+02 0.1272000D+02 0.5244000D+01
EXPONENTS  0.2219000D+01 0.3490000D+00 0.3741000D+06 0.5605000D+05 0.1276000D+05
EXPONENTS  0.3615000D+04 0.1183000D+04 0.4288000D+03 0.1678000D+03 0.6947000D+02
EXPONENTS  0.2984000D+02 0.1272000D+02 0.5244000D+01 0.2219000D+01 0.3490000D+00
EXPONENTS  0.3741000D+06 0.5605000D+05 0.1276000D+05 0.3615000D+04 0.1183000D+04
EXPONENTS  0.4288000D+03 0.1678000D+03 0.6947000D+02 0.2984000D+02 0.1272000D+02
EXPONENTS  0.5244000D+01 0.2219000D+01 0.3490000D+00 0.7767000D+00 0.1322000D+00
EXPONENTS  0.4970000D-01 0.5744000D+03 0.1358000D+03 0.4319000D+02 0.1587000D+02
EXPONENTS  0.6208000D+01 0.2483000D+01 0.3229000D+00 0.5744000D+03 0.1358000D+03
EXPONENTS  0.4319000D+02 0.1587000D+02 0.6208000D+01 0.2483000D+01 0.3229000D+00
EXPONENTS  0.5744000D+03 0.1358000D+03 0.4319000D+02 0.1587000D+02 0.6208000D+01
EXPONENTS  0.2483000D+01 0.3229000D+00 0.5744000D+03 0.1358000D+03 0.4319000D+02
EXPONENTS  0.1587000D+02 0.6208000D+01 0.2483000D+01 0.3229000D+00 0.5744000D+03
EXPONENTS  0.1358000D+03 0.4319000D+02 0.1587000D+02 0.6208000D+01 0.2483000D+01
EXPONENTS  0.3229000D+00 0.5744000D+03 0.1358000D+03 0.4319000D+02 0.1587000D+02
EXPONENTS  0.6208000D+01 0.2483000D+01 0.3229000D+00 0.8688000D+00 0.8688000D+00
EXPONENTS  0.8688000D+00 0.1098000D+00 0.1098000D+00 0.1098000D+00 0.3510000D-01
EXPONENTS  0.3510000D-01 0.3510000D-01 0.2690000D+00 0.2690000D+00 0.2690000D+00
EXPONENTS  0.2690000D+00 0.2690000D+00 0.2690000D+00 0.8190000D+00 0.8190000D+00
EXPONENTS  0.8190000D+00 0.8190000D+00 0.8190000D+00 0.8190000D+00 0.1010000D+00
EXPONENTS  0.1010000D+00 0.1010000D+00 0.1010000D+00 0.1010000D+00 0.1010000D+00
EXPONENTS  0.5570000D+00 0.5570000D+00 0.5570000D+00 0.5570000D+00 0.5570000D+00
EXPONENTS  0.5570000D+00 0.5570000D+00 0.5570000D+00 0.5570000D+00 0.5570000D+00
EXPONENTS  0.2180000D+00 0.2180000D+00 0.2180000D+00 0.2180000D+00 0.2180000D+00
EXPONENTS  0.2180000D+00 0.2180000D+00 0.2180000D+00 0.2180000D+00 0.2180000D+00
EXPONENTS  0.3387000D+02 0.5095000D+01 0.1159000D+01 0.3258000D+00 0.1027000D+00
EXPONENTS  0.2526000D-01 0.1407000D+01 0.1407000D+01 0.1407000D+01 0.3880000D+00
EXPONENTS  0.3880000D+00 0.3880000D+00 0.1020000D+00 0.1020000D+00 0.1020000D+00
EXPONENTS  0.1057000D+01 0.1057000D+01 0.1057000D+01 0.1057000D+01 0.1057000D+01
EXPONENTS  0.1057000D+01 0.2470000D+00 0.2470000D+00 0.2470000D+00 0.2470000D+00
EXPONENTS  0.2470000D+00 0.2470000D+00
MO    1     MO 0.0        OCC NO =    2.0000000  ORB. ENERGY =  -88.556299
  0.51254315D-04  0.95549697D-04  0.16149582D-03  0.24278112D-03  0.29828465D-03
  0.25194908D-03  0.95025921D-04 -0.47028859D-06 -0.37653891D-04 -0.70499964D-04
 -0.12003222D-03 -0.18567160D-03 -0.24452296D-03 -0.25407502D-03 -0.16145327D-03
  0.10820223D-03  0.84748560D-04  0.27306894D-03  0.95819884D-04 -0.18154758D-04
 -0.17021239D-04 -0.12120136D-04  0.57020071D-04  0.53459941D-04  0.38066663D-04
  0.11394333D-03  0.10682911D-03  0.76068693D-04 -0.91265279D-04  0.39577476D-04
  0.11761136D-03  0.14052382D-04  0.96683590D-04  0.44453809D-03 -0.50160210D-06
  0.10213460D-04  0.11110542D-04 -0.93689113D-04 -0.26154267D-04  0.11984338D-03
 -0.11656279D-03 -0.18820739D-03  0.21639101D-03  0.11276512D-03  0.46884236D-04
 -0.15964936D-03  0.13627857D-03  0.19209680D-03 -0.21694595D-03  0.72712799D-05
 -0.22520979D-04  0.15249699D-04  0.28302741D-04  0.50460550D-05  0.57279487D-04
 -0.34876159D-05  0.27065191D-04 -0.79375249D-05 -0.59087996D-04  0.20514935D-04
  0.12485452D-04  0.69550844D-04 -0.10171051D-03  0.11327122D-04  0.16664830D-03
  0.34866995D-05  0.13874410D-04 -0.21537111D-04 -0.51206822D-04  0.64404883D-04
  0.57165549D-04  0.40746723D-04 -0.10602811D-03  0.74457830D-05  0.13345215D-03
 -0.21063302D-04 -0.39262908D-04 -0.66560282D-04 -0.10079188D-03 -0.12604060D-03
 -0.10850922D-03 -0.41714906D-04  0.18075751D-06  0.13522886D-04  0.25393586D-04
  0.43240897D-04  0.67736609D-04  0.90775025D-04  0.97640779D-04  0.58623395D-04
 -0.38553211D-04  0.21864765D-04 -0.90395752D-04 -0.47949352D-05 -0.10029737D-03
 -0.98088641D-04 -0.64811313D-04  0.15650368D-05  0.15305718D-05  0.10113135D-05
  0.20833205D-04  0.20374419D-04  0.13462240D-04  0.10913134D-03  0.10428632D-04
  0.69302650D-06 -0.36301195D-04 -0.13599877D-03 -0.18343752D-03  0.14211638D-06
 -0.11727518D-04  0.42511521D-05 -0.10032506D-03  0.11413149D-04  0.88911913D-04
 -0.21420279D-03 -0.31642108D-03  0.60078318D-05  0.26093494D-04  0.35150276D-05
 -0.29608522D-04  0.95748921D-04  0.14442647D-03 -0.40729784D-05  0.14278618D-04
  0.30509208D-05 -0.17329539D-04  0.61406611D-04  0.80423959D-04 -0.47768595D-04
  0.10596326D-04  0.83230018D-04 -0.67747598D-04  0.39711834D-04  0.12864147D-03
  0.21468891D-03 -0.71500813D-04 -0.37833152D-03 -0.11446110D-04 -0.25533500D-03
 -0.14523047D-04 -0.14527749D-04  0.29250285D-04 -0.67693507D-05 -0.67190655D-04
 -0.10211853D-03  0.50338493D-04  0.11077390D-03  0.14367674D-04  0.11289643D-03
 -0.10078197D-04 -0.18176444D-04 -0.26801156D-04 -0.51927828D-04  0.21072093D-03
  0.19513449D-04  0.16802312D-04 -0.15477688D-04  0.34397084D-04  0.76318963D-04
 -0.41791601D-04 -0.19724736D-03  0.31019597D-04  0.30493731D-05  0.43170784D-04
  0.52469021D-04 -0.76864014D-05 -0.44782620D-04  0.12255620D-03 -0.63808818D-05
 -0.18090374D-03  0.15948111D-04 -0.86819300D-05 -0.72661810D-05 -0.18919800D-04
  0.19663468D-05 -0.17142951D-04 -0.16664534D-04 -0.30055174D-04 -0.44316336D-04
  0.10554410D-03  0.53865287D-03  0.47981294D-05 -0.13916668D-04  0.21457826D-04
  0.24515822D-04  0.15258984D-03 -0.12397620D-03 -0.12781972D-03  0.42179179D-04
  0.18612875D-04  0.73027386D-04  0.55166935D-04  0.45574541D-04 -0.10074148D-03
 -0.10533577D-03  0.86580731D-04 -0.71552171D-04  0.14607131D-04  0.37625520D-05
 -0.18369683D-04  0.13615515D-04  0.13313653D-05  0.39376761D-05  0.58529886D+00
  0.10941822D+01  0.18910885D+01  0.30587508D+01  0.46231227D+01  0.63667986D+01
  0.74413114D+01  0.64298545D+01  0.29989070D+01  0.40718679D+00  0.10903459D-02
  0.21388079D-02  0.97645515D-04 -0.14721724D-02 -0.27493447D-02 -0.47691637D-02
 -0.77330341D-02 -0.11905886D-01 -0.16956656D-01 -0.21804059D-01 -0.22887774D-01
 -0.16183278D-01  0.35838547D-03  0.11627894D-01  0.64026342D-02 -0.27076632D-04
  0.64083713D-03  0.11958969D-02  0.20771298D-02  0.33644894D-02  0.51971514D-02
  0.74093202D-02  0.96371053D-02  0.10270557D-01  0.76174582D-02 -0.23710319D-03
 -0.69010203D-02 -0.67606180D-02  0.31576096D-02 -0.32862317D-02 -0.12556672D-02
 -0.38686266D-03  0.49977013D-02  0.65567120D-02  0.71917137D-02  0.59174560D-02
  0.31197998D-02  0.81162446D-03 -0.89814521D-06 -0.12222335D-01 -0.16035038D-01
 -0.17587993D-01 -0.14471679D-01 -0.76297554D-02 -0.19849017D-02  0.21964961D-05
  0.17413112D-02  0.22845054D-02  0.25057543D-02  0.20617743D-02  0.10870082D-02
  0.28278816D-03 -0.31293392D-06 -0.43404997D-02 -0.56991026D-02 -0.64118747D-02
 -0.54024892D-02 -0.30220767D-02 -0.75218874D-03  0.34499000D-03  0.10573458D-01
  0.13883015D-01  0.15619328D-01  0.13160465D-01  0.73617795D-02  0.18323319D-02
 -0.84039571D-03 -0.15705222D-02 -0.20621052D-02 -0.23200074D-02 -0.19547816D-02
 -0.10934774D-02 -0.27216430D-03  0.12482766D-03 -0.15127261D-03  0.39569471D-03
 -0.13483854D-03 -0.23885180D-03  0.38115741D-03  0.27312027D-03 -0.70602226D-05
  0.95264251D-05  0.13876971D-04 -0.32294527D-04  0.62027775D-04 -0.29733248D-04
 -0.51789052D-04  0.78092622D-04 -0.16854798D-03 -0.24444662D-03  0.43063016D-04
  0.20138360D-03 -0.29511681D-03 -0.13302866D-03 -0.12284332D-03  0.24817950D-04
 -0.54552519D-05 -0.19362698D-04  0.46522757D-04  0.32980610D-04 -0.24607172D-04
 -0.76843859D-04  0.36779605D-04 -0.50278568D-04  0.11143960D-03  0.13869975D-03
 -0.59741005D-04  0.11909198D-03 -0.24903856D-03  0.21057671D-03 -0.69684994D-04
  0.10634757D-04 -0.98446464D-05  0.52952430D-05 -0.75994013D-05 -0.16835972D-04
  0.32874688D-06 -0.24304870D-04  0.46369911D-04 -0.16214476D-04 -0.22357508D-04
  0.34916033D-04  0.62972503D-04  0.92852919D-04 -0.39875181D-03  0.27266665D-03
 -0.49976392D-05  0.84738782D-05 -0.30789810D-04  0.41405343D-05  0.13732176D-03
 -0.50688346D-03  0.47143123D-03  0.12218486D-04 -0.19344984D-04 -0.12962129D-05
  0.17840857D-03 -0.14902148D-03 -0.29387086D-04  0.17929926D-03 -0.20121450D-03
  0.65246255D-03  0.55160274D-04 -0.25039065D-04 -0.30121209D-04  0.46878593D-04
 -0.41624741D-04  0.16041447D-03
MO    2     MO 0.0        OCC NO =    2.0000000  ORB. ENERGY =  -24.502316
  0.14107102D-03  0.26298845D-03  0.44449681D-03  0.66822431D-03  0.82099077D-03
  0.69345795D-03  0.26154682D-03 -0.12944098D-05 -0.95243473D-04 -0.17832583D-03
 -0.30361499D-03 -0.46964622D-03 -0.61850755D-03 -0.64266896D-03 -0.40838728D-03
  0.27369166D-03 -0.37731756D-03  0.14469189D-02  0.27381374D-03 -0.59045740D-03
 -0.55359135D-03 -0.39419002D-03 -0.23911247D-04 -0.22418314D-04 -0.15963175D-04
 -0.96913620D-06 -0.90862679D-06 -0.64699641D-06  0.15661112D-02  0.74883051D-04
  0.30993138D-04  0.20463785D-03  0.13257582D-04  0.37094103D-04 -0.26269769D-05
  0.27924868D-05  0.33144190D-05  0.72011288D-03 -0.38454209D-03 -0.33557078D-03
 -0.16290052D-04 -0.23135352D-03  0.38154605D-04  0.46401007D-03 -0.25516035D-03
 -0.20884973D-03 -0.21114502D-04 -0.18869345D-03  0.93652143D-04  0.16032634D-04
 -0.88840905D-05 -0.71485430D-05  0.14190672D-05 -0.10062010D-04  0.45825457D-05
  0.26311739D-03  0.28851077D-04  0.41150952D-04 -0.39071774D-03 -0.22058163D-04
 -0.17730226D-03 -0.39863444D-03 -0.64495070D-04  0.53849405D-04 -0.58143442D-04
  0.33439220D-04 -0.95242187D-05  0.76879694D-05 -0.46292474D-04  0.19845121D-05
 -0.23003650D-04 -0.54025184D-04  0.26588144D-04 -0.60258346D-07 -0.22963936D-04
  0.59587168D+00  0.11107306D+01  0.18829615D+01  0.28513586D+01  0.35656340D+01
  0.30696787D+01  0.11800966D+01 -0.51135516D-02 -0.35716124D-03 -0.67068556D-03
 -0.11420618D-02 -0.17890331D-02 -0.23975149D-02 -0.25788505D-02 -0.15483384D-02
  0.10182525D-02  0.60418335D-01 -0.13651049D-02 -0.70791686D-03 -0.67232274D-02
 -0.65751695D-02 -0.43444925D-02 -0.25907918D-04 -0.25337378D-04 -0.16741477D-04
  0.57680310D-03  0.56410083D-03  0.37272527D-03  0.11051212D-02 -0.27530987D-05
 -0.10775533D-03  0.12008560D-02 -0.22320043D-05 -0.94644954D-04  0.71149493D-04
  0.30038857D-06 -0.25079989D-05  0.39298049D-03 -0.17547389D-03 -0.21750660D-03
  0.24391053D-04 -0.82784972D-04 -0.50810969D-04 -0.74000951D-03  0.37533208D-03
  0.36467743D-03  0.41045015D-05  0.20433044D-03 -0.25600443D-05 -0.25304822D-03
  0.12429470D-03  0.12875351D-03  0.64192382D-06  0.60513856D-04  0.91272334D-05
 -0.32115445D-03 -0.19456902D-04 -0.36877940D-04  0.45066053D-03 -0.18354733D-06
  0.15687061D-03  0.51280281D-03  0.58554255D-04 -0.46236792D-04  0.10965214D-03
  0.32792050D-03  0.62797427D-05  0.43176471D-04 -0.48972432D-03 -0.28575221D-05
 -0.17602762D-03 -0.49403719D-03 -0.15981706D-04  0.46498206D-04 -0.31794975D-04
  0.78158082D-05  0.14096132D-04  0.20784738D-04  0.16427770D-04 -0.85233422D-04
 -0.88517224D-05 -0.42759408D-04 -0.46411304D-05 -0.11294307D-04  0.11853287D-03
  0.14344271D-03  0.28179325D-04  0.30279809D-04  0.25772296D-05  0.56434060D-05
 -0.87485884D-04  0.87547304D-04 -0.61420322D-07 -0.72198001D-05  0.17355460D-04
  0.41776697D-05 -0.80455291D-05  0.20774313D-04 -0.12728784D-04  0.68928402D-04
  0.27900156D-05  0.10401275D-04  0.80914288D-05  0.14593225D-04  0.21517702D-04
  0.70230696D-04 -0.35126261D-04 -0.13005238D-04 -0.39780486D-04 -0.14021728D-04
 -0.38112409D-05  0.14267817D-03 -0.68798568D-04  0.13177489D-03  0.27455892D-04
  0.21343573D-05  0.95335432D-05 -0.84059998D-04  0.31924258D-04  0.52135739D-04
 -0.69935644D-05  0.30786012D-04 -0.88198972D-04 -0.35498932D-05 -0.71897737D-05
  0.10739667D-04 -0.40526017D-04  0.60882186D-04 -0.21288037D-04  0.44509700D-05
  0.83208298D-05  0.14380992D-04  0.23260609D-04  0.35157048D-04  0.48417025D-04
  0.56588277D-04  0.48896540D-04  0.22805521D-04  0.30964970D-05  0.82916561D-08
  0.16264802D-07  0.74255613D-09 -0.88249218D-05 -0.16480917D-04 -0.28588701D-04
 -0.46355590D-04 -0.71369709D-04 -0.10164650D-03 -0.13070420D-03 -0.13720052D-03
 -0.97010487D-04  0.21483378D-05  0.69703289D-04  0.38380522D-04 -0.16231058D-06
  0.53746748D-05  0.10029938D-04  0.17420802D-04  0.28217835D-04  0.43588296D-04
  0.62141665D-04  0.80826008D-04  0.86138737D-04  0.63887310D-04 -0.19885747D-05
 -0.57878575D-04 -0.56701027D-04  0.26482742D-04  0.18600067D-04 -0.24728980D-03
 -0.13422050D-03 -0.27832428D-03 -0.36514630D-03 -0.40050984D-03 -0.32954584D-03
 -0.17374309D-03 -0.45199739D-04  0.50018119D-07  0.82318096D-03  0.10799686D-02
  0.11845609D-02  0.97467551D-03  0.51386821D-03  0.13368422D-03 -0.14793522D-06
  0.15312370D-02  0.20088996D-02  0.22034566D-02  0.18130390D-02  0.95587004D-03
  0.24867221D-03 -0.27518115D-06  0.23331511D-03  0.30634416D-03  0.34465784D-03
  0.29040029D-03  0.16244585D-03  0.40432441D-04 -0.18544266D-04 -0.72986169D-03
 -0.95831284D-03 -0.10781666D-02 -0.90843684D-03 -0.50816683D-03 -0.12648169D-03
  0.58010598D-04 -0.13466710D-02 -0.17681872D-02 -0.19893298D-02 -0.16761608D-02
 -0.93762083D-03 -0.23337192D-03  0.10703561D-03  0.14852716D-04 -0.35793089D-04
 -0.74265393D-04 -0.17509037D-04  0.64137869D-04  0.10687353D-03 -0.15683631D-05
  0.27235248D-05  0.84984611D-05  0.23258720D-04  0.98100567D-05 -0.33068776D-04
  0.64616422D-06 -0.43733512D-05 -0.57354468D-04 -0.30638541D-06 -0.10547976D-04
  0.10854361D-04 -0.75831689D-05 -0.10385829D-04  0.19052929D-04  0.46435885D-05
  0.12624095D-05 -0.59059980D-05  0.26892636D-05  0.48938226D-05 -0.14831958D-04
 -0.68719533D-05 -0.48420898D-05  0.12279109D-05  0.10438257D-04 -0.69142569D-05
 -0.72798284D-05  0.10177603D-04  0.21440526D-04  0.35960958D-05 -0.60281490D-05
 -0.57811582D-06 -0.25904222D-05  0.17145632D-05  0.19051517D-06 -0.20882427D-05
 -0.69663719D-05  0.15438323D-05  0.98595092D-05  0.18226824D-05  0.61976887D-05
 -0.20001215D-05 -0.36073016D-05 -0.53189641D-05  0.57500501D-05 -0.23157865D-05
 -0.73440699D-05 -0.70878080D-05 -0.12833398D-04  0.14555141D-04  0.41701573D-05
  0.12699123D-04  0.73137554D-05  0.18847731D-05 -0.69051669D-06 -0.13183500D-05
 -0.57570031D-05  0.43145613D-05  0.14424418D-05 -0.86208283D-05 -0.50749679D-05
  0.12446644D-05  0.27939625D-05  0.17683102D-05 -0.45622727D-05  0.21689846D-05
  0.94165947D-06 -0.20027589D-06
MO    3     MO 0.0        OCC NO =    2.0000000  ORB. ENERGY =  -10.166043
  0.32946495D+00  0.61419758D+00  0.10381021D+01  0.15606075D+01  0.19173866D+01
  0.16195395D+01  0.61083072D+00 -0.30230353D-02 -0.25068103D-02 -0.46935399D-02
 -0.79911532D-02 -0.12361099D-01 -0.16279132D-01 -0.16915061D-01 -0.10748762D-01
  0.72035704D-02  0.31027923D-01 -0.31702129D-03 -0.39494441D-03  0.33017781D-02
  0.30956268D-02  0.22042707D-02  0.11191065D-02  0.10492335D-02  0.74711673D-03
  0.15449197D-02  0.14484604D-02  0.10313901D-02 -0.20602141D-02 -0.18509736D-02
 -0.30053181D-02 -0.36816924D-03 -0.49875459D-03 -0.92417572D-03  0.95146519D-05
 -0.16039941D-04 -0.20356223D-04 -0.13985165D-03  0.67895079D-03 -0.53909913D-03
  0.31786933D-03  0.86953455D-03 -0.15676251D-02 -0.48466089D-03  0.94850649D-03
 -0.46384559D-03  0.55382073D-03  0.13050427D-02 -0.16972366D-02 -0.38955075D-04
  0.55977458D-04 -0.17022382D-04  0.26675006D-04  0.82277913D-04 -0.11921008D-03
  0.10675880D-02 -0.95600335D-03  0.49377049D-04 -0.22181586D-02  0.51587900D-03
  0.18865876D-03 -0.98460542D-03  0.23521311D-02 -0.33678991D-03  0.20581689D-02
 -0.18144365D-03  0.95133266D-04 -0.71303586D-04  0.19986028D-03  0.75639767D-04
  0.20395934D-03  0.34447068D-03 -0.36103957D-03  0.99514210D-05  0.22775165D-03
  0.58367690D-04  0.10879990D-03  0.18444258D-03  0.27930043D-03  0.34926617D-03
  0.30068564D-03  0.11559454D-03 -0.50089005D-06 -0.63152610D-04 -0.11858942D-03
 -0.20193732D-03 -0.31633362D-03 -0.42392427D-03 -0.45598771D-03 -0.27377442D-03
  0.18004558D-03  0.23909177D-03  0.15319633D-02  0.61802492D-03 -0.77278536D-03
 -0.75576720D-03 -0.49936734D-03  0.42932057D-04  0.41986614D-04  0.27742331D-04
  0.10683751D-03  0.10448475D-03  0.69037493D-04 -0.30637324D-03 -0.18183718D-04
  0.32084255D-04 -0.19111040D-03 -0.13852180D-03 -0.26515048D-03 -0.43753988D-04
 -0.18003736D-04 -0.40177513D-04  0.17916527D-02 -0.88819639D-03 -0.90345633D-03
 -0.22137311D-03 -0.87462555D-03  0.60672647D-04 -0.84184810D-03  0.41281270D-03
  0.42903540D-03  0.11387337D-03  0.42230285D-03 -0.17381374D-04 -0.17406983D-03
  0.10573949D-03  0.68330341D-04  0.10661726D-03  0.27325549D-03 -0.27088015D-04
 -0.46977576D-03  0.18249911D-03 -0.22333406D-03  0.76760167D-03  0.23411746D-03
  0.79201988D-03  0.64172561D-03 -0.78161478D-03 -0.12201771D-03 -0.28886397D-03
  0.72308503D-03 -0.39847160D-04  0.18852222D-03 -0.11412165D-02 -0.14965394D-03
 -0.72230899D-03 -0.10280386D-02  0.26919542D-03  0.15674234D-03  0.13520311D-03
 -0.90675285D-04 -0.16353661D-03 -0.24113464D-03 -0.27077149D-02 -0.14372976D-02
 -0.34031550D-04 -0.61197620D-03 -0.19444409D-02  0.54900474D-04 -0.96640591D-03
 -0.29159956D-02 -0.51421900D-03 -0.14890893D-03 -0.35571742D-03 -0.11895057D-03
  0.82073752D-03 -0.17629330D-02  0.94219551D-03 -0.16542135D-02 -0.12293883D-03
 -0.42530007D-03  0.13898928D-03 -0.26861520D-03  0.12962592D-03 -0.31216178D-03
 -0.45273733D-04 -0.14075991D-03 -0.95246436D-04 -0.17178087D-03 -0.25329079D-03
 -0.24320817D-02 -0.14618990D-02 -0.13528421D-04 -0.77292872D-03  0.11061335D-02
 -0.15121291D-02 -0.10544860D-02  0.11398625D-02 -0.24429604D-02 -0.17524567D-03
  0.10110537D-03 -0.33617758D-03  0.66248158D-03  0.25670691D-03 -0.91918848D-03
  0.10122619D-02 -0.16910882D-02  0.22623765D-02  0.11029665D-03  0.73687439D-04
 -0.18398408D-03  0.15120904D-03 -0.32537716D-03  0.29561151D-03  0.57911373D-04
  0.10826195D-03  0.18711045D-03  0.30264275D-03  0.45742679D-03  0.62995175D-03
  0.73626755D-03  0.63619071D-03  0.29672161D-03  0.40288385D-04  0.10788237D-06
  0.21162061D-06  0.96613648D-08 -0.10357223D-03 -0.19342556D-03 -0.33552656D-03
 -0.54404471D-03 -0.83761877D-03 -0.11929573D-02 -0.15339882D-02 -0.16102311D-02
 -0.11385475D-02  0.25213611D-04  0.81806111D-03  0.45044665D-03 -0.19049312D-05
  0.55834431D-04  0.10419531D-03  0.18097478D-03  0.29313899D-03  0.45281395D-03
  0.64555432D-03  0.83965529D-03  0.89484621D-03  0.66368882D-03 -0.20658169D-04
 -0.60126750D-03 -0.58903462D-03  0.27511410D-03 -0.43802365D-03  0.23885722D-02
  0.67110194D-03  0.74709929D-02  0.98015359D-02  0.10750791D-01  0.88459212D-02
  0.46637446D-02  0.12132859D-02 -0.13426246D-05 -0.12455869D-01 -0.16341421D-01
 -0.17924048D-01 -0.14748191D-01 -0.77755380D-02 -0.20228275D-02  0.22384648D-05
 -0.20068353D-01 -0.26328587D-01 -0.28878447D-01 -0.23761644D-01 -0.12527608D-01
 -0.32590916D-02  0.36065171D-05 -0.67291253D-02 -0.88353824D-02 -0.99404010D-02
 -0.83755394D-02 -0.46851593D-02 -0.11661266D-02  0.53484185D-03  0.11267159D-01
  0.14793848D-01  0.16644076D-01  0.14023893D-01  0.78447690D-02  0.19525470D-02
 -0.89553215D-03  0.18193877D-01  0.23888671D-01  0.26876366D-01  0.22645370D-01
  0.12667503D-01  0.31529156D-02 -0.14460790D-02 -0.24823790D-03  0.40324604D-03
  0.57681757D-03  0.26877145D-03 -0.50445317D-03 -0.81190330D-03  0.67779615D-05
 -0.13485567D-04 -0.34303237D-04 -0.19336059D-03 -0.26320769D-04  0.21968135D-03
 -0.27679153D-03 -0.37736983D-03  0.59677870D-03 -0.12716246D-03 -0.66500200D-04
  0.19366266D-03 -0.38549652D-04 -0.12413687D-03  0.28311266D-03 -0.18348929D-04
 -0.40316373D-05  0.22380567D-04 -0.30790656D-04 -0.52249700D-04  0.96076481D-04
 -0.29693782D-04  0.19990182D-04 -0.39354395D-04  0.36459891D-04  0.54904773D-04
  0.77545279D-04  0.52621455D-04 -0.11487532D-03  0.40517905D-04  0.33501728D-04
 -0.77894644D-05  0.11037796D-04  0.11416214D-05  0.89431272D-05  0.12551033D-04
  0.17431242D-04  0.14425266D-04 -0.45664420D-04 -0.20856106D-04  0.11172141D-03
  0.21952161D-04  0.39591626D-04  0.58377830D-04 -0.78143987D-04  0.51158660D-05
  0.24058285D-04  0.10176501D-04 -0.52237526D-04 -0.59035595D-04  0.73331818D-05
  0.43606319D-04  0.18159233D-03 -0.81992619D-05  0.41627454D-04  0.25524806D-04
  0.11162444D-03  0.12740345D-03 -0.23902788D-03 -0.53404792D-04  0.18213174D-04
  0.13396231D-03 -0.11645856D-04  0.21219022D-04 -0.95731657D-05  0.16123906D-04
  0.31366001D-04 -0.33412101D-04
MO    4     MO 0.0        OCC NO =    2.0000000  ORB. ENERGY =   -7.906799
  0.38223888D-05  0.71258017D-05  0.12043860D-04  0.18105867D-04  0.22245150D-04
  0.18789585D-04  0.70867401D-05 -0.35072672D-07 -0.15112006D-04 -0.28294443D-04
 -0.48173711D-04 -0.74517405D-04 -0.98136802D-04 -0.10197042D-03 -0.64797626D-04
  0.43425862D-04  0.11027835D-03  0.15234722D-03 -0.37107936D-05 -0.79487452D-04
 -0.74524539D-04 -0.53065911D-04  0.12868681D-03  0.12065206D-03  0.85911457D-04
  0.27632187D-03  0.25906932D-03  0.18447279D-03 -0.31352381D-04  0.20574025D-04
 -0.24827369D-04 -0.53209196D-05  0.15207113D-04 -0.26698673D-04  0.42091400D-07
  0.22355969D-05 -0.63761205D-07 -0.64154391D-04 -0.10799325D-05  0.65234324D-04
 -0.96296776D-04 -0.17255679D-03  0.26438145D-03  0.91536481D-04  0.12482179D-04
 -0.10401866D-03  0.12675278D-03  0.22995354D-03 -0.38023922D-03  0.50843284D-05
  0.17727407D-05 -0.68570691D-05  0.49963610D-05  0.11874467D-04 -0.74747640D-05
 -0.53595259D-04  0.82456815D-04 -0.31971854D-04 -0.31774754D-04  0.66822236D-04
  0.11595172D-03  0.19256053D-03 -0.31419268D-03 -0.20036155D-04  0.40507733D-03
  0.91783709D-05  0.49646651D-05 -0.68778913D-05 -0.27574797D-04  0.20824645D-04
  0.39048055D-04  0.39684025D-07 -0.35718640D-04 -0.18414381D-04  0.11382758D-03
 -0.20931427D-05 -0.39017087D-05 -0.66143554D-05 -0.10016083D-04 -0.12525148D-04
 -0.10782985D-04 -0.41453732D-05  0.17962581D-07  0.13459108D-05  0.25273821D-05
  0.43036958D-05  0.67417140D-05  0.90346899D-05  0.97180271D-05  0.58346907D-05
 -0.38371381D-05  0.15977767D-05 -0.81064051D-04 -0.21534273D-04 -0.18511191D-04
 -0.18103540D-04 -0.11961775D-04  0.23853826D-04  0.23328520D-04  0.15414140D-04
  0.50306673D-04  0.49198827D-04  0.32507745D-04  0.27933513D-04 -0.10201449D-04
 -0.28158192D-04  0.17223792D-04 -0.61225153D-04 -0.11588651D-03  0.21896906D-05
 -0.30535313D-05 -0.43666578D-05 -0.38907691D-04 -0.92433180D-05  0.48151009D-04
 -0.12765558D-03 -0.21214086D-03  0.49484448D-04  0.26925612D-04  0.84284581D-06
 -0.27768458D-04  0.70589417D-04  0.11787625D-03 -0.24254074D-04  0.46453705D-05
  0.22135120D-05 -0.68588825D-05  0.39484747D-04  0.75323847D-04 -0.18853022D-04
 -0.10602719D-04  0.11934306D-04 -0.20710960D-04  0.37247090D-04  0.89144815D-04
  0.15689689D-03 -0.54389322D-05 -0.12494773D-03 -0.94764006D-04 -0.43283626D-04
 -0.14976574D-04  0.49849586D-05  0.18306427D-04  0.18763920D-06 -0.60219833D-04
 -0.98992145D-04  0.44742081D-04  0.45264957D-04  0.44072865D-04  0.51978394D-04
  0.19386226D-05  0.34963858D-05  0.51554188D-05 -0.53517572D-04 -0.39669408D-04
  0.38632513D-05  0.17988604D-04  0.36622866D-04 -0.30012155D-05  0.84670071D-04