 Molden2AIM, Version 4.0.0 (06/02/2016)           Time: Thu Jun 28 21:00:00 2018
GAUSSIAN             12 MOL ORBITALS    279 PRIMITIVES        5 NUCLEI
  C    1    (CENTRE  1)   0.14152915  0.79049134  0.00005480  CHARGE =  6.0
  O    2    (CENTRE  2)  -1.92729010 -0.67178063  0.00000378  CHARGE =  8.0
  O    3    (CENTRE  3)   2.27915522  0.02298285 -0.00001512  CHARGE =  8.0
  H    4    (CENTRE  4)  -0.40870052  2.80324052 -0.00002835  CHARGE =  1.0
  H    5    (CENTRE  5)  -1.35855813 -2.41486779 -0.00001512  CHARGE =  1.0
CENTRE ASSIGNMENTS    1  1  1  1  1  1  1  1  1  1  1  1  1  1  1  1  1  1  1  1
CENTRE ASSIGNMENTS    1  1  1  1  1  1  1  1  1  1  1  1  1  1  1  1  1  1  1  1
CENTRE ASSIGNMENTS    1  1  1  1  1  1  1  1  1  1  1  1  1  1  1  1  1  1  1  1
CENTRE ASSIGNMENTS    1  1  1  1  1  1  1  1  1  1  1  1  1  1  1  2  2  2  2  2
CENTRE ASSIGNMENTS    2  2  2  2  2  2  2  2  2  2  2  2  2  2  2  2  2  2  2  2
CENTRE ASSIGNMENTS    2  2  2  2  2  2  2  2  2  2  2  2  2  2  2  2  2  2  2  2
CENTRE ASSIGNMENTS    2  2  2  2  2  2  2  2  2  2  2  2  2  2  2  2  2  2  2  2
CENTRE ASSIGNMENTS    2  2  2  2  2  2  2  2  2  2  3  3  3  3  3  3  3  3  3  3
CENTRE ASSIGNMENTS    3  3  3  3  3  3  3  3  3  3  3  3  3  3  3  3  3  3  3  3
CENTRE ASSIGNMENTS    3  3  3  3  3  3  3  3  3  3  3  3  3  3  3  3  3  3  3  3
CENTRE ASSIGNMENTS    3  3  3  3  3  3  3  3  3  3  3  3  3  3  3  3  3  3  3  3
CENTRE ASSIGNMENTS    3  3  3  3  3  4  4  4  4  4  4  4  4  4  4  4  4  4  4  4
CENTRE ASSIGNMENTS    4  4  4  4  4  4  4  4  4  4  4  4  5  5  5  5  5  5  5  5
CENTRE ASSIGNMENTS    5  5  5  5  5  5  5  5  5  5  5  5  5  5  5  5  5  5  5
TYPE ASSIGNMENTS      1  1  1  1  1  1  1  1  1  1  1  1  1  1  1  1  1  1  1  2
TYPE ASSIGNMENTS      2  2  3  3  3  4  4  4  2  3  4  2  3  4  2  3  4  5  6  7
TYPE ASSIGNMENTS      8  9 10  5  6  7  8  9 10  5  6  7  8  9 10 11 12 13 17 14
TYPE ASSIGNMENTS     15 18 19 16 20 11 12 13 17 14 15 18 19 16 20  1  1  1  1  1
TYPE ASSIGNMENTS      1  1  1  1  1  1  1  1  1  1  1  1  1  1  2  2  2  3  3  3
TYPE ASSIGNMENTS      4  4  4  2  3  4  2  3  4  2  3  4  5  6  7  8  9 10  5  6
TYPE ASSIGNMENTS      7  8  9 10  5  6  7  8  9 10 11 12 13 17 14 15 18 19 16 20
TYPE ASSIGNMENTS     11 12 13 17 14 15 18 19 16 20  1  1  1  1  1  1  1  1  1  1
TYPE ASSIGNMENTS      1  1  1  1  1  1  1  1  1  2  2  2  3  3  3  4  4  4  2  3
TYPE ASSIGNMENTS      4  2  3  4  2  3  4  5  6  7  8  9 10  5  6  7  8  9 10  5
TYPE ASSIGNMENTS      6  7  8  9 10 11 12 13 17 14 15 18 19 16 20 11 12 13 17 14
TYPE ASSIGNMENTS     15 18 19 16 20  1  1  1  1  1  1  2  3  4  2  3  4  2  3  4
TYPE ASSIGNMENTS      5  6  7  8  9 10  5  6  7  8  9 10  1  1  1  1  1  1  2  3
TYPE ASSIGNMENTS      4  2  3  4  2  3  4  5  6  7  8  9 10  5  6  7  8  9 10
EXPONENTS  0.8236000D+04 0.1235000D+04 0.2808000D+03 0.7927000D+02 0.2559000D+02
EXPONENTS  0.8997000D+01 0.3319000D+01 0.3643000D+00 0.8236000D+04 0.1235000D+04
EXPONENTS  0.2808000D+03 0.7927000D+02 0.2559000D+02 0.8997000D+01 0.3319000D+01
EXPONENTS  0.3643000D+00 0.9059000D+00 0.1285000D+00 0.4402000D-01 0.1871000D+02
EXPONENTS  0.4133000D+01 0.1200000D+01 0.1871000D+02 0.4133000D+01 0.1200000D+01
EXPONENTS  0.1871000D+02 0.4133000D+01 0.1200000D+01 0.3827000D+00 0.3827000D+00
EXPONENTS  0.3827000D+00 0.1209000D+00 0.1209000D+00 0.1209000D+00 0.3569000D-01
EXPONENTS  0.3569000D-01 0.3569000D-01 0.1097000D+01 0.1097000D+01 0.1097000D+01
EXPONENTS  0.1097000D+01 0.1097000D+01 0.1097000D+01 0.3180000D+00 0.3180000D+00
EXPONENTS  0.3180000D+00 0.3180000D+00 0.3180000D+00 0.3180000D+00 0.1000000D+00
EXPONENTS  0.1000000D+00 0.1000000D+00 0.1000000D+00 0.1000000D+00 0.1000000D+00
EXPONENTS  0.7610000D+00 0.7610000D+00 0.7610000D+00 0.7610000D+00 0.7610000D+00
EXPONENTS  0.7610000D+00 0.7610000D+00 0.7610000D+00 0.7610000D+00 0.7610000D+00
EXPONENTS  0.2680000D+00 0.2680000D+00 0.2680000D+00 0.2680000D+00 0.2680000D+00
EXPONENTS  0.2680000D+00 0.2680000D+00 0.2680000D+00 0.2680000D+00 0.2680000D+00
EXPONENTS  0.1533000D+05 0.2299000D+04 0.5224000D+03 0.1473000D+03 0.4755000D+02
EXPONENTS  0.1676000D+02 0.6207000D+01 0.6882000D+00 0.1533000D+05 0.2299000D+04
EXPONENTS  0.5224000D+03 0.1473000D+03 0.4755000D+02 0.1676000D+02 0.6207000D+01
EXPONENTS  0.6882000D+00 0.1752000D+01 0.2384000D+00 0.7376000D-01 0.3446000D+02
EXPONENTS  0.7749000D+01 0.2280000D+01 0.3446000D+02 0.7749000D+01 0.2280000D+01
EXPONENTS  0.3446000D+02 0.7749000D+01 0.2280000D+01 0.7156000D+00 0.7156000D+00
EXPONENTS  0.7156000D+00 0.2140000D+00 0.2140000D+00 0.2140000D+00 0.5974000D-01
EXPONENTS  0.5974000D-01 0.5974000D-01 0.2314000D+01 0.2314000D+01 0.2314000D+01
EXPONENTS  0.2314000D+01 0.2314000D+01 0.2314000D+01 0.6450000D+00 0.6450000D+00
EXPONENTS  0.6450000D+00 0.6450000D+00 0.6450000D+00 0.6450000D+00 0.2140000D+00
EXPONENTS  0.2140000D+00 0.2140000D+00 0.2140000D+00 0.2140000D+00 0.2140000D+00
EXPONENTS  0.1428000D+01 0.1428000D+01 0.1428000D+01 0.1428000D+01 0.1428000D+01
EXPONENTS  0.1428000D+01 0.1428000D+01 0.1428000D+01 0.1428000D+01 0.1428000D+01
EXPONENTS  0.5000000D+00 0.5000000D+00 0.5000000D+00 0.5000000D+00 0.5000000D+00
EXPONENTS  0.5000000D+00 0.5000000D+00 0.5000000D+00 0.5000000D+00 0.5000000D+00
EXPONENTS  0.1533000D+05 0.2299000D+04 0.5224000D+03 0.1473000D+03 0.4755000D+02
EXPONENTS  0.1676000D+02 0.6207000D+01 0.6882000D+00 0.1533000D+05 0.2299000D+04
EXPONENTS  0.5224000D+03 0.1473000D+03 0.4755000D+02 0.1676000D+02 0.6207000D+01
EXPONENTS  0.6882000D+00 0.1752000D+01 0.2384000D+00 0.7376000D-01 0.3446000D+02
EXPONENTS  0.7749000D+01 0.2280000D+01 0.3446000D+02 0.7749000D+01 0.2280000D+01
EXPONENTS  0.3446000D+02 0.7749000D+01 0.2280000D+01 0.7156000D+00 0.7156000D+00
EXPONENTS  0.7156000D+00 0.2140000D+00 0.2140000D+00 0.2140000D+00 0.5974000D-01
EXPONENTS  0.5974000D-01 0.5974000D-01 0.2314000D+01 0.2314000D+01 0.2314000D+01
EXPONENTS  0.2314000D+01 0.2314000D+01 0.2314000D+01 0.6450000D+00 0.6450000D+00
EXPONENTS  0.6450000D+00 0.6450000D+00 0.6450000D+00 0.6450000D+00 0.2140000D+00
EXPONENTS  0.2140000D+00 0.2140000D+00 0.2140000D+00 0.2140000D+00 0.2140000D+00
EXPONENTS  0.1428000D+01 0.1428000D+01 0.1428000D+01 0.1428000D+01 0.1428000D+01
EXPONENTS  0.1428000D+01 0.1428000D+01 0.1428000D+01 0.1428000D+01 0.1428000D+01
EXPONENTS  0.5000000D+00 0.5000000D+00 0.5000000D+00 0.5000000D+00 0.5000000D+00
EXPONENTS  0.5000000D+00 0.5000000D+00 0.5000000D+00 0.5000000D+00 0.5000000D+00
EXPONENTS  0.3387000D+02 0.5095000D+01 0.1159000D+01 0.3258000D+00 0.1027000D+00
EXPONENTS  0.2526000D-01 0.1407000D+01 0.1407000D+01 0.1407000D+01 0.3880000D+00
EXPONENTS  0.3880000D+00 0.3880000D+00 0.1020000D+00 0.1020000D+00 0.1020000D+00
EXPONENTS  0.1057000D+01 0.1057000D+01 0.1057000D+01 0.1057000D+01 0.1057000D+01
EXPONENTS  0.1057000D+01 0.2470000D+00 0.2470000D+00 0.2470000D+00 0.2470000D+00
EXPONENTS  0.2470000D+00 0.2470000D+00 0.3387000D+02 0.5095000D+01 0.1159000D+01
EXPONENTS  0.3258000D+00 0.1027000D+00 0.2526000D-01 0.1407000D+01 0.1407000D+01
EXPONENTS  0.1407000D+01 0.3880000D+00 0.3880000D+00 0.3880000D+00 0.1020000D+00
EXPONENTS  0.1020000D+00 0.1020000D+00 0.1057000D+01 0.1057000D+01 0.1057000D+01
EXPONENTS  0.1057000D+01 0.1057000D+01 0.1057000D+01 0.2470000D+00 0.2470000D+00
EXPONENTS  0.2470000D+00 0.2470000D+00 0.2470000D+00 0.2470000D+00
MO    1     MO 0.0        OCC NO =    2.0000000  ORB. ENERGY =  -19.038367
  0.24998823D-03  0.46603490D-03  0.78768108D-03  0.11841427D-02  0.14548561D-02
  0.12288585D-02  0.46348023D-03 -0.22937895D-05 -0.18622536D-03 -0.34867264D-03
 -0.59364500D-03 -0.91827854D-03 -0.12093405D-02 -0.12565823D-02 -0.79850163D-03
  0.53513722D-03  0.22389577D-03  0.25557268D-03  0.10920352D-03 -0.55442705D-04
 -0.51981061D-04 -0.37013612D-04 -0.40983449D-04 -0.38424589D-04 -0.27360596D-04
  0.15289666D-08  0.14335033D-08  0.10207398D-08 -0.17361080D-02 -0.94338807D-03
 -0.20055014D-07  0.14474926D-04 -0.15488740D-03 -0.33286571D-08 -0.55167478D-05
 -0.11243496D-04 -0.23368640D-09  0.40544796D-03 -0.15818230D-03 -0.24726566D-03
  0.11995582D-02  0.54920451D-07  0.39055191D-07 -0.20357940D-03  0.19360466D-03
  0.99747408D-05  0.32552011D-03  0.34399408D-07  0.50607082D-08 -0.25723098D-04
  0.32904274D-04 -0.71811766D-05  0.14472531D-04 -0.19882774D-08  0.17528958D-08
 -0.10318940D-03 -0.21079965D-03 -0.95219208D-09  0.18181276D-03  0.52538625D-03
  0.27034317D-07  0.12775545D-03  0.10701269D-03 -0.24177740D-07  0.54359327D-07
  0.87851811D-04 -0.11178227D-03  0.22704419D-08 -0.19941439D-03  0.31643300D-03
  0.52342628D-08 -0.64141045D-04  0.18913825D-04 -0.12045589D-07  0.21040486D-07
  0.49919152D+00  0.93042877D+00  0.15776989D+01  0.23879208D+01  0.29794279D+01
  0.25589312D+01  0.98242346D+00 -0.43944404D-02 -0.94849889D-03 -0.17789332D-02
 -0.30326911D-02 -0.47395058D-02 -0.63376224D-02 -0.67671031D-02 -0.41372742D-02
  0.27295222D-02  0.49741258D-01 -0.34902829D-03 -0.23949406D-03  0.67109414D-02
  0.65073557D-02  0.43898237D-02 -0.17045793D-02 -0.16528686D-02 -0.11150154D-02
  0.14021437D-06  0.13596078D-06  0.91718337D-07 -0.30834683D-03 -0.12112532D-02
 -0.33955274D-07 -0.11315647D-02 -0.10874523D-03 -0.11804992D-07 -0.30691657D-04
 -0.82181693D-05 -0.38387407D-09  0.62463692D-03  0.13847789D-02 -0.20094158D-02
  0.40199843D-04  0.32083885D-07  0.70427226D-07 -0.71203461D-03  0.36514575D-03
  0.34688885D-03 -0.10538313D-02 -0.48304269D-07 -0.60872819D-08 -0.17637322D-03
 -0.30568052D-05  0.17943003D-03 -0.11141820D-03 -0.98195369D-08 -0.42064313D-08
 -0.33310358D-03 -0.78387076D-03  0.18763518D-07  0.18456829D-02  0.10114782D-02
  0.19042082D-07 -0.84637213D-03  0.13401341D-02 -0.75332635D-07  0.64339644D-07
 -0.27494530D-04  0.19124242D-03  0.39454028D-08 -0.38919434D-03 -0.53622114D-03
 -0.25953399D-07  0.47167793D-03 -0.37506116D-04  0.14117191D-07 -0.37608809D-07
  0.19566021D-03  0.36468545D-03  0.61838569D-03  0.93595555D-03  0.11677993D-02
  0.10029838D-02  0.38506499D-03 -0.17224193D-05 -0.12190202D-03 -0.22863026D-03
 -0.38976448D-03 -0.60912601D-03 -0.81451754D-03 -0.86971483D-03 -0.53172659D-03
  0.35080091D-03 -0.35517291D-04  0.56419782D-03  0.10586714D-03  0.22223690D-03
  0.21549504D-03  0.14537168D-03  0.48976394D-04  0.47490627D-04  0.32036897D-04
 -0.18094805D-07 -0.17545874D-07 -0.11836343D-07 -0.64742088D-03  0.88207001D-05
  0.30387886D-07 -0.39117430D-03 -0.10908485D-03  0.11415112D-07 -0.97815505D-05
  0.11606428D-04  0.10401553D-08  0.30946752D-03  0.50829872D-04 -0.36029740D-03
  0.39711916D-03  0.18958887D-07  0.87064045D-07  0.79455318D-04 -0.14370244D-03
  0.64247117D-04 -0.38380028D-03 -0.40512773D-07 -0.35399319D-07  0.82223124D-04
 -0.75819276D-04 -0.64038483D-05 -0.27291115D-04 -0.56812277D-08 -0.13661148D-07
 -0.49756598D-04  0.83437041D-04 -0.18268515D-07  0.15121203D-03 -0.18489717D-03
  0.62668967D-08 -0.19422353D-05 -0.65413950D-04  0.48538647D-07 -0.50164860D-07
  0.28995120D-04 -0.80697543D-04  0.60529144D-08  0.20306419D-05  0.23503637D-03
  0.12196407D-07 -0.89016003D-04  0.70562557D-05 -0.30355151D-07  0.31293280D-07
  0.20305769D-04  0.36622291D-04  0.53999547D-04  0.22234990D-03  0.52145096D-05
  0.52035033D-05  0.37254484D-04 -0.19983374D-03  0.12701973D-07  0.54694368D-03
  0.30647714D-04  0.51591449D-07 -0.28842634D-04 -0.38771225D-04 -0.18083026D-08
  0.84683414D-04 -0.39467876D-04 -0.45215538D-04 -0.62842633D-03  0.46259317D-07
 -0.75334225D-07  0.10896581D-04 -0.15001855D-05 -0.93963951D-05 -0.52199427D-04
  0.46827082D-08 -0.39108086D-08  0.13356024D-03  0.24088139D-03  0.35517947D-03
 -0.37779456D-03 -0.43747216D-03 -0.22831627D-04  0.34898176D-03 -0.93752590D-03
 -0.11645267D-07  0.26722990D-03 -0.92195971D-03 -0.10465018D-07 -0.12302011D-04
 -0.13261074D-03 -0.30669321D-08  0.68876841D-03 -0.17277642D-02  0.10389958D-02
  0.17634233D-02  0.24824695D-07 -0.51840645D-07  0.22142526D-04 -0.77694095D-04
  0.55551569D-04  0.25731430D-04 -0.10917198D-08 -0.51049059D-08
MO    2     MO 0.0        OCC NO =    2.0000000  ORB. ENERGY =  -18.978280
  0.28938093D-03  0.53947186D-03  0.91180247D-03  0.13707378D-02  0.16841097D-02
  0.14224999D-02  0.53651463D-03 -0.26552408D-05 -0.22743545D-03 -0.42583093D-03
 -0.72501359D-03 -0.11214858D-02 -0.14769573D-02 -0.15346533D-02 -0.97520325D-03
  0.65355854D-03  0.11958598D-02 -0.13228860D-02 -0.90455580D-04  0.93860279D-03
  0.87999978D-03  0.62661227D-03 -0.28678813D-03 -0.26888210D-03 -0.19146008D-03
 -0.38300918D-07 -0.35909545D-07 -0.25569735D-07  0.77409550D-03 -0.31823703D-03
 -0.50913498D-08 -0.20331343D-04 -0.22582970D-03  0.48302088D-08  0.69577506D-05
  0.69067270D-05 -0.51934649D-09  0.17439169D-03 -0.12510064D-03 -0.49291054D-04
 -0.27343902D-03 -0.14415781D-07 -0.10702291D-08 -0.49711927D-03  0.62529605D-04
  0.43458966D-03  0.33359724D-03  0.18724602D-07  0.74599744D-08 -0.46855782D-04
  0.29809829D-04  0.17045953D-04  0.94372453D-04 -0.10500015D-08  0.12595505D-09
 -0.40592027D-03 -0.48998612D-03 -0.27262876D-07  0.59608752D-03  0.16530337D-02
  0.94718889D-07  0.62167328D-03 -0.18307537D-03 -0.12930262D-07 -0.80619272D-07
 -0.70156403D-04 -0.15956214D-03  0.34630405D-09  0.14954828D-03  0.45271784D-03
  0.12807242D-07  0.60920932D-04  0.25968567D-04 -0.13846154D-07 -0.19529872D-07
  0.16829249D-03  0.31367555D-03  0.53188979D-03  0.80503998D-03  0.10044548D-02
  0.86269275D-03  0.33120452D-03 -0.14814982D-05 -0.12747094D-03 -0.23907492D-03
 -0.40757032D-03 -0.63695308D-03 -0.85172763D-03 -0.90944654D-03 -0.55601778D-03
  0.36682676D-03 -0.11475553D-03  0.92376117D-03  0.34941978D-03 -0.28213923D-03
 -0.27358015D-03 -0.18455555D-03 -0.30105953D-03 -0.29192648D-03 -0.19693188D-03
 -0.35157309D-07 -0.34090763D-07 -0.22997428D-07  0.58610564D-03  0.57407572D-03
  0.39573268D-07  0.12486676D-03  0.13622174D-03  0.15866131D-08  0.64721776D-05
  0.19913116D-04  0.14072869D-08  0.60154142D-03 -0.21902191D-03 -0.38251950D-03
 -0.12810393D-03 -0.44931507D-07 -0.25601101D-07 -0.12533610D-03  0.68300193D-04
  0.57035903D-04  0.63367685D-03  0.42007975D-07  0.38599487D-07 -0.45931354D-04
  0.56384776D-04 -0.10453421D-04  0.12137604D-03  0.53417777D-08  0.67696240D-08
  0.18467618D-03  0.13709896D-03 -0.27207537D-07 -0.41281650D-03  0.13224009D-03
  0.71817109D-08 -0.14121204D-03 -0.54353698D-03  0.74440899D-07  0.12533003D-07
 -0.89724969D-04 -0.15934534D-03  0.11854945D-07  0.15018149D-03  0.29325856D-03
  0.17156841D-07  0.11899342D-03  0.18477746D-03 -0.52721675D-07  0.15941372D-07
  0.49910995D+00  0.93027672D+00  0.15774411D+01  0.23875306D+01  0.29789410D+01
  0.25585131D+01  0.98226292D+00 -0.43937223D-02 -0.89197685D-03 -0.16729247D-02
 -0.28519699D-02 -0.44570738D-02 -0.59599569D-02 -0.63638444D-02 -0.38907297D-02
  0.25668671D-02  0.49871943D-01  0.35823255D-03 -0.39542777D-04 -0.70332078D-02
 -0.68198458D-02 -0.46006277D-02  0.21683732D-02  0.21025926D-02  0.14183965D-02
  0.28818307D-06  0.27944064D-06  0.18850900D-06 -0.45348984D-03  0.17393507D-03
  0.16895292D-07  0.80802842D-03 -0.32016147D-03 -0.66670250D-08  0.17943198D-04
 -0.19549294D-04  0.12189746D-08  0.25872891D-02 -0.35964009D-03 -0.22276490D-02
 -0.21817181D-02 -0.22110014D-06  0.90944035D-07 -0.48934443D-03  0.28674355D-04
  0.46067008D-03  0.38197487D-03  0.31193401D-07 -0.16786697D-07 -0.19676161D-03
  0.36691833D-04  0.16006978D-03  0.20049114D-03  0.18611960D-07 -0.93534982D-08
 -0.31778573D-03 -0.86764130D-04 -0.33531525D-07  0.12595002D-03  0.52652514D-03
  0.87726837D-07  0.82740718D-03 -0.26623275D-03  0.12867739D-07 -0.68962284D-07
  0.17085767D-03  0.42906899D-04  0.16260759D-07 -0.26587679D-04 -0.28313185D-03
 -0.42079905D-07 -0.48598533D-03  0.15441115D-03 -0.67023716D-08  0.39237582D-07
  0.73185514D-04  0.13199309D-03  0.19462373D-03  0.12132790D-02  0.44093468D-03
 -0.17994405D-05  0.18547108D-03 -0.48674258D-03  0.44885606D-08  0.23834411D-03
 -0.20894956D-03  0.75939588D-07 -0.72111316D-04 -0.97382058D-04  0.67791631D-08
 -0.22670274D-03  0.68238042D-04  0.15846470D-03 -0.34686943D-03  0.96780493D-07
 -0.27213071D-07 -0.40192373D-04  0.48658995D-05  0.35326473D-04  0.10670770D-04
  0.10654012D-07 -0.29970584D-08 -0.13689638D-04 -0.24689826D-04 -0.36405134D-04
 -0.19437712D-03 -0.47332177D-03  0.67799901D-05  0.28789779D-03  0.23329645D-03
  0.17824061D-07  0.37150603D-04 -0.28330729D-04  0.27559652D-07 -0.11700976D-04
 -0.10538431D-03 -0.33651018D-08 -0.17168814D-03  0.20263559D-03 -0.30947448D-04
  0.10450720D-03 -0.29083773D-07  0.40582761D-07 -0.28877131D-04  0.17144018D-04
  0.11733113D-04 -0.48361753D-04 -0.53586525D-08  0.33708305D-08
MO    3     MO 0.0        OCC NO =    2.0000000  ORB. ENERGY =  -10.188212
  0.32947144D+00  0.61420967D+00  0.10381225D+01  0.15606382D+01  0.19174244D+01
  0.16195714D+01  0.61084275D+00 -0.30230949D-02 -0.26179162D-02 -0.49015652D-02
 -0.83453341D-02 -0.12908963D-01 -0.17000650D-01 -0.17664764D-01 -0.11225165D-01
  0.75228444D-02  0.31898372D-01  0.53604795D-02  0.27630328D-03 -0.98357246D-03
 -0.92216170D-03 -0.65663407D-03 -0.25364967D-02 -0.23781269D-02 -0.16933680D-02
  0.16716727D-06  0.15672994D-06  0.11160105D-06  0.17821895D-02  0.72357486D-03
 -0.38651223D-06 -0.52664706D-03  0.94288765D-03 -0.65222182D-07  0.10356321D-04
  0.65293301D-05 -0.12454488D-08  0.29803846D-02  0.10364390D-02 -0.40168236D-02
 -0.19462534D-02 -0.18075583D-06 -0.27119443D-07 -0.35728282D-04  0.38436576D-03
 -0.34863748D-03 -0.57061403D-03 -0.43884883D-07 -0.58655855D-07 -0.13430947D-03
  0.14544654D-03 -0.11137075D-04  0.13204576D-03 -0.73836817D-12 -0.73608463D-08
  0.11034978D-02  0.14064195D-02  0.11317435D-06 -0.26489625D-02 -0.38557340D-02
 -0.17962110D-06 -0.66153101D-03 -0.36352455D-03 -0.15990196D-06  0.19013306D-06
 -0.98895956D-04 -0.85965866D-04  0.21204988D-08  0.25453301D-03  0.35093590D-03
  0.74795087D-08  0.42154857D-04 -0.93038297D-04 -0.13841005D-07  0.11474322D-07
  0.22488211D-03  0.41915133D-03  0.71074177D-03  0.10757408D-02  0.13422104D-02
  0.11527797D-02  0.44257455D-03 -0.19796631D-05 -0.18785739D-03 -0.35233119D-03
 -0.60064744D-03 -0.93869504D-03 -0.12552141D-02 -0.13402760D-02 -0.81941849D-03
  0.54060255D-03  0.50162653D-03 -0.89427251D-03  0.23335476D-03  0.10280170D-02
  0.99683069D-03  0.67245609D-03  0.63579938D-03  0.61651153D-03  0.41589504D-03
  0.11328355D-08  0.10984693D-08  0.74102093D-09 -0.35407536D-03  0.27070166D-04
  0.11558612D-07 -0.40705970D-03 -0.99683478D-03 -0.13126369D-07 -0.14680576D-04
  0.58212871D-04  0.31773227D-08  0.56458674D-03 -0.59752193D-04 -0.50483455D-03
  0.27144443D-02  0.84225606D-08  0.24424276D-07 -0.69615912D-03 -0.32343852D-04
  0.72850297D-03 -0.27264849D-02 -0.43462852D-07 -0.39001468D-07 -0.46666073D-04
 -0.37934183D-04  0.84600256D-04 -0.59381683D-03 -0.91534598D-08 -0.14526005D-07
 -0.18899041D-03  0.47906835D-03  0.27874250D-07 -0.42161104D-03 -0.19565687D-02
 -0.10949649D-06  0.98858225D-03  0.51936370D-03  0.25873741D-07 -0.10973170D-06
 -0.20029144D-03  0.33233134D-03  0.44981480D-08  0.25420808D-03 -0.13425558D-02
 -0.18203344D-07  0.34666622D-03  0.34556177D-03  0.47089003D-08 -0.33644781D-07
  0.31249484D-04  0.58245017D-04  0.98764250D-04  0.14948429D-03  0.18651275D-03
  0.16018958D-03  0.61499895D-04 -0.27509280D-06 -0.86872111D-04 -0.16293080D-03
 -0.27776129D-03 -0.43408683D-03 -0.58045681D-03 -0.61979254D-03 -0.37892901D-03
  0.24999434D-03  0.72257026D-03 -0.21494635D-02 -0.36240974D-04 -0.19848716D-02
 -0.19246577D-02 -0.12983627D-02  0.68583826D-03  0.66503241D-03  0.44862693D-03
  0.53937369D-07  0.52301105D-07  0.35282016D-07  0.28623365D-02 -0.97291474D-03
 -0.81626375D-07  0.22925996D-02 -0.77407995D-03  0.77732977D-08  0.13584406D-04
 -0.35455089D-05  0.16788491D-08 -0.37252526D-03  0.13079450D-03  0.24173076D-03
  0.36094004D-03  0.16800551D-06 -0.43725821D-07 -0.18190660D-02  0.75004052D-03
  0.10690255D-02  0.22771068D-02  0.99141687D-07 -0.52417882D-07 -0.38442898D-03
  0.83275114D-04  0.30115387D-03  0.38439271D-03  0.13560250D-07 -0.61284358D-08
  0.29460271D-03  0.53982544D-03  0.17930345D-07 -0.69064597D-03 -0.15917684D-02
 -0.11296711D-06 -0.19316217D-03 -0.27707911D-04  0.59176073D-07  0.18688551D-06
  0.27141161D-03  0.15842151D-03  0.92649262D-08 -0.19371022D-03 -0.78693476D-03
 -0.22510031D-07 -0.62052462D-03  0.31167024D-03 -0.52847474D-08  0.42745762D-07
 -0.10927602D-04 -0.19708380D-04 -0.29059994D-04 -0.28114572D-02 -0.34383286D-02
 -0.54102912D-04 -0.79734076D-03  0.21651969D-02 -0.10969727D-06 -0.73192424D-03
  0.24039427D-02 -0.42787487D-07 -0.37081499D-03  0.53209360D-03 -0.21395536D-07
  0.91197129D-03 -0.18972100D-02  0.98523873D-03  0.22930322D-02 -0.81376922D-07
  0.20034675D-06  0.14885489D-04 -0.15609768D-03  0.14121219D-03  0.12159313D-03
 -0.11710829D-07  0.10703332D-07 -0.38172253D-04 -0.68845230D-04 -0.10151225D-03
 -0.42294938D-03 -0.90982231D-03  0.15265457D-05 -0.51389399D-03 -0.49054314D-03
 -0.13924893D-07 -0.83918160D-03 -0.33436964D-04 -0.11362959D-07 -0.12605661D-03
 -0.22624543D-03 -0.15146113D-07  0.38853385D-03 -0.20705107D-03 -0.18148278D-03
 -0.11525108D-02 -0.18072260D-08 -0.69653324D-08  0.36196200D-04  0.16058941D-04
 -0.52255141D-04 -0.15067659D-03 -0.34699451D-08 -0.56634365D-08
MO    4     MO 0.0        OCC NO =    2.0000000  ORB. ENERGY =   -1.094020
 -0.65829573D-02 -0.12272129D-01 -0.20742060D-01 -0.31182110D-01 -0.38310826D-01
 -0.32359617D-01 -0.12204857D-01  0.60402517D-04 -0.28221641D-01 -0.52839817D-01
 -0.89964310D-01 -0.13916111D+00 -0.18327028D+00 -0.19042956D+00 -0.12100944D+00
  0.81097712D-01  0.36098351D-01  0.25771943D-01  0.20088168D-02 -0.48161774D-02
 -0.45154725D-02 -0.32152854D-02 -0.11430943D+00 -0.10717236D+00 -0.76313103D-01
 -0.58638812D-05 -0.54977614D-05 -0.39147336D-05 -0.45209073D-02 -0.13560315D-01
 -0.15392154D-05 -0.22008874D-02  0.23023139D-02 -0.14991448D-06 -0.18278576D-04
 -0.51697505D-04 -0.99991565D-09  0.15923561D-01  0.21919232D-02 -0.18115485D-01
  0.77294543D-02 -0.27453496D-06  0.62839599D-06  0.27954417D-02  0.10515667D-02
 -0.38470084D-02 -0.14621267D-03 -0.53627656D-07 -0.19193286D-06 -0.29378967D-03
  0.38985560D-03 -0.96065931D-04  0.57125414D-04  0.12269859D-08 -0.14710798D-07
  0.20755255D-02  0.35261785D-02  0.29154642D-06 -0.70056569D-02 -0.11196956D-01
 -0.50314359D-06  0.77908041D-03  0.61842065D-03 -0.37149566D-06  0.38311365D-06
 -0.18957553D-03  0.32527960D-03  0.66692984D-08  0.44727392D-06 -0.58584006D-03
  0.10621652D-07  0.56827932D-03 -0.38999875D-03 -0.30629547D-07  0.23887157D-07
 -0.33488188D-02 -0.62417674D-02 -0.10583969D-01 -0.16019331D-01 -0.19987447D-01
 -0.17166552D-01 -0.65905730D-02  0.29480038D-04 -0.79867434D-01 -0.14979335D+00
 -0.25536483D+00 -0.39908552D+00 -0.53365338D+00 -0.56981739D+00 -0.34837518D+00
  0.22983678D+00  0.11852397D+00  0.50515004D-01  0.12335968D-02  0.26769851D+00
  0.25957751D+00  0.17510945D+00 -0.25516848D-01 -0.24742759D-01 -0.16691319D-01
  0.30997597D-05  0.30057242D-05  0.20276438D-05  0.72896030D-01 -0.44253210D-02
  0.87200143D-06  0.99147381D-03 -0.40873377D-02 -0.10164274D-06 -0.19316077D-03
 -0.13804005D-03 -0.79415050D-08  0.83273412D-02  0.91264817D-02 -0.17453823D-01
  0.85503703D-02  0.92176549D-06  0.96739358D-06  0.61378932D-02  0.16128552D-02
 -0.77507483D-02  0.10740733D-01  0.55180853D-06  0.40197206D-06 -0.35107620D-03
 -0.23440866D-03  0.58548486D-03 -0.47886265D-03 -0.58243580D-07 -0.94353360D-07
  0.17183299D-02 -0.17922255D-02 -0.12967748D-06  0.47515782D-02  0.88538976D-02
  0.28686147D-06 -0.99065679D-02 -0.34772210D-02  0.10217097D-06  0.85993561D-06
  0.62326994D-03 -0.13701004D-02 -0.27346672D-07 -0.88863878D-03  0.41117703D-02
  0.14553303D-06 -0.98117103D-03 -0.14690612D-05 -0.63493015D-07  0.72107694D-07
 -0.27135614D-02 -0.50577292D-02 -0.85762330D-02 -0.12980528D-01 -0.16195909D-01
 -0.13910126D-01 -0.53403678D-02  0.23887793D-04 -0.42888470D-01 -0.80438387D-01
 -0.13712982D+00 -0.21430721D+00 -0.28656958D+00 -0.30598950D+00 -0.18707598D+00
  0.12342137D+00  0.62985546D-01  0.21620545D-01 -0.82291488D-03 -0.22520905D+00
 -0.21837703D+00 -0.14731585D+00  0.49795938D-01  0.48285310D-01  0.32572985D-01
  0.58722635D-05  0.56941203D-05  0.38412199D-05 -0.55358379D-01  0.11854314D-01
  0.14402254D-05  0.10314812D-02 -0.74371268D-03  0.24867724D-08  0.16789112D-03
  0.91481925D-04 -0.73562817D-08  0.19871278D-01 -0.10923950D-01 -0.89473277D-02
 -0.14371035D-01 -0.14411247D-05  0.30110732D-06  0.79056364D-02 -0.35164953D-02
 -0.43891411D-02 -0.44358249D-02 -0.78377445D-06  0.19011089D-06 -0.73562922D-03
  0.33543090D-03  0.40019833D-03  0.89302788D-03  0.69557931D-07 -0.10631062D-07
 -0.44076574D-02 -0.52794357D-03 -0.17099252D-06  0.57790459D-02  0.25826097D-02
  0.70389959D-06  0.74439264D-02 -0.99877902D-03 -0.19092204D-06 -0.21008730D-06
 -0.66950627D-03 -0.16844330D-03 -0.69017195D-07  0.78459544D-03  0.67367574D-03
  0.18718106D-06  0.12239234D-02 -0.16834583D-03  0.19870524D-07 -0.96092679D-07
  0.33364331D-02  0.60173945D-02  0.88726447D-02 -0.74511086D-02 -0.11778841D-01
 -0.17020930D-03 -0.10228872D-02 -0.10663401D-02 -0.17541074D-06 -0.23326935D-02
  0.66643973D-02 -0.40580429D-06 -0.79634015D-03  0.20182301D-02 -0.10822505D-06
  0.75979826D-03 -0.14940701D-02  0.73427180D-03  0.34963773D-02 -0.21433809D-06
  0.48918700D-06  0.17504737D-03 -0.64176818D-03  0.46672082D-03  0.31335900D-03
 -0.25308876D-07  0.82231299D-07  0.17132219D-01  0.30898662D-01  0.45560060D-01
  0.16537314D-01 -0.66651567D-02 -0.25182590D-03 -0.34826303D-02  0.25289957D-01
  0.33534268D-06  0.28419807D-02  0.27297914D-02  0.37451835D-07  0.15704007D-03
 -0.16230039D-02 -0.37826622D-07 -0.37893599D-02  0.62393194D-02 -0.24499596D-02
 -0.15427949D-02 -0.57918452D-07  0.22872503D-06  0.12809331D-03 -0.25502599D-03
  0.12693269D-03  0.81038746D-03  0.30614144D-07 -0.11293479D-07
MO    5     MO 0.0        OCC NO =    2.0000000  ORB. ENERGY =   -1.008225
 -0.36227605D-02 -0.67536493D-02 -0.11414857D-01 -0.17160269D-01 -0.21083373D-01
 -0.17808279D-01 -0.67166277D-02  0.33240966D-04 -0.14873577D-01 -0.27848029D-01
 -0.47413652D-01 -0.73341710D-01 -0.96588453D-01 -0.10036159D+00 -0.63775285D-01
  0.42740713D-01  0.18200504D-01  0.11071779D-01  0.70108240D-03  0.27875546D+00
  0.26135096D+00  0.18609745D+00 -0.15839769D-01 -0.14850790D-01 -0.10574647D-01
 -0.47305343D-05 -0.44351766D-05 -0.31581100D-05  0.35140009D-01  0.31089448D-02
 -0.10863778D-05 -0.14174648D-02  0.69288060D-03 -0.19301025D-07 -0.68809553D-05
  0.46658022D-05  0.28950171D-09  0.13001077D-01 -0.54335588D-02 -0.75675184D-02
 -0.36383662D-01 -0.20260724D-05  0.60080264D-07  0.40241415D-03  0.13399138D-02
 -0.17423279D-02 -0.38991812D-02 -0.64886347D-07 -0.18878465D-06 -0.15226007D-03
  0.19028780D-03 -0.38027725D-04  0.22751694D-03  0.99985541D-09  0.40178859D-08
  0.18773881D-02  0.25259016D-02  0.19005829D-06 -0.47170103D-02 -0.66948446D-02
 -0.32388837D-06 -0.91515408D-03 -0.88286006D-03 -0.24628649D-06  0.34873672D-06
 -0.42730465D-04 -0.16439578D-03  0.26338080D-08 -0.25868509D-03  0.58979283D-03
  0.54204556D-07  0.38687649D-03 -0.96605509D-04 -0.62105980D-07  0.77888603D-07
  0.20749028D-02  0.38673519D-02  0.65577474D-02  0.99254561D-02  0.12384071D-01
  0.10636266D-01  0.40834692D-02 -0.18265608D-04  0.55157084D-01  0.10344848D+00
  0.17635698D+00  0.27561163D+00  0.36854526D+00  0.39352041D+00  0.24059066D+00
 -0.15872711D+00 -0.81946954D-01 -0.48881429D-01 -0.24723934D-02 -0.99989099D-01
 -0.96955792D-01 -0.65405804D-01  0.51847657D-01  0.50274787D-01  0.33915074D-01
 -0.23609420D-05 -0.22893196D-05 -0.15443615D-05 -0.34988328D-01  0.91390691D-02
 -0.81731432D-06 -0.43159756D-02 -0.21955038D-03 -0.20541003D-06 -0.97103947D-04
  0.19939779D-03 -0.68161341D-09  0.29550923D-02 -0.10690473D-01  0.77353812D-02
 -0.78633361D-03 -0.66078990D-06 -0.74151569D-06 -0.20728147D-02 -0.46666657D-02
  0.67394804D-02 -0.11468834D-01 -0.65325787D-06 -0.58645620D-06 -0.13686372D-03
 -0.15869685D-03  0.29556056D-03 -0.72847531D-03 -0.53563145D-07 -0.50978850D-07
  0.13223826D-02  0.23606121D-02  0.17087450D-06 -0.86974201D-02 -0.93851730D-02
 -0.44688935D-06  0.47302722D-02  0.23033367D-02 -0.65734157D-07 -0.10669744D-05
 -0.19250741D-03  0.90657945D-03  0.40429020D-07 -0.70053679D-03 -0.35172298D-02
 -0.11601787D-06  0.12780590D-02  0.79749144D-03 -0.52691899D-08 -0.21578208D-06
 -0.37044506D-02 -0.69046192D-02 -0.11707946D-01 -0.17720522D-01 -0.22110038D-01
 -0.18989574D-01 -0.72904667D-02  0.32610705D-04 -0.81674621D-01 -0.15318277D+00
 -0.26114305D+00 -0.40811576D+00 -0.54572853D+00 -0.58271084D+00 -0.35625798D+00
  0.23503738D+00  0.12107375D+00  0.57465404D-01  0.71730054D-03 -0.32837613D+00
 -0.31841439D+00 -0.21480047D+00  0.13452539D+00  0.13044437D+00  0.87997004D-01
  0.11777214D-04  0.11419936D-04  0.77038212D-05 -0.89303551D-01  0.35451550D-01
  0.32041710D-05 -0.52540901D-02  0.22918155D-02  0.20047849D-06  0.54894993D-04
 -0.42325992D-04 -0.42159811D-08  0.24688228D-01 -0.12020231D-01 -0.12667997D-01
 -0.38789814D-01 -0.29373324D-05  0.12338821D-05  0.13420815D-01 -0.55971513D-02
 -0.78236637D-02 -0.17616969D-01 -0.17094408D-05  0.58672286D-06 -0.14362800D-03
  0.10241793D-03  0.41210071D-04  0.14512961D-03  0.20966698D-07 -0.43442181D-07
 -0.33330361D-02 -0.32836613D-02 -0.44421302D-06  0.73391929D-03  0.14315232D-01
  0.13152593D-05  0.92651890D-02 -0.44642479D-02  0.17379755D-07 -0.15436841D-05
 -0.11388240D-02 -0.72218748D-03 -0.98649949D-07  0.87663584D-03  0.29671774D-02
  0.35784417D-06  0.25398360D-02 -0.80061493D-03 -0.61894323D-07 -0.24015230D-06
  0.12606708D-02  0.22736717D-02  0.33525276D-02 -0.71468299D-02 -0.49492831D-02
 -0.14207133D-03  0.42332590D-02  0.24849625D-02 -0.21852492D-06  0.58810122D-03
  0.69675914D-02 -0.21384787D-06 -0.50559794D-03  0.90911534D-03 -0.68920089D-07
  0.31594384D-02 -0.41725437D-02  0.10131052D-02 -0.46616245D-02  0.16584327D-06
  0.53550995D-06  0.20328811D-04 -0.41197427D-03  0.39164546D-03  0.54025903D-03
  0.88724180D-08  0.76638554D-07 -0.12232906D-01 -0.22062549D-01 -0.32531216D-01
 -0.10077758D-01  0.15043335D-02  0.56782493D-04  0.41431064D-02 -0.16371557D-01