 Molden2AIM, Version 4.0.0 (06/02/2016)           Time: Thu Jun 28 19:56:26 2018
GAUSSIAN             12 MOL ORBITALS    260 PRIMITIVES        4 NUCLEI
  H    1    (CENTRE  1)   0.00000000  1.76020997 -1.29011414  CHARGE =  1.0
  H    2    (CENTRE  2)   0.00000000 -1.76020997 -1.29011414  CHARGE =  1.0
  C    3    (CENTRE  3)   0.00000000  0.00000000 -0.19331142  CHARGE =  6.0
  S    4    (CENTRE  4)   0.00000000  0.00000000  2.85847910  CHARGE = 16.0
CENTRE ASSIGNMENTS    1  1  1  1  1  1  1  1  1  1  1  1  1  1  1  1  1  1  1  1
CENTRE ASSIGNMENTS    1  1  1  1  1  1  1  2  2  2  2  2  2  2  2  2  2  2  2  2
CENTRE ASSIGNMENTS    2  2  2  2  2  2  2  2  2  2  2  2  2  2  3  3  3  3  3  3
CENTRE ASSIGNMENTS    3  3  3  3  3  3  3  3  3  3  3  3  3  3  3  3  3  3  3  3
CENTRE ASSIGNMENTS    3  3  3  3  3  3  3  3  3  3  3  3  3  3  3  3  3  3  3  3
CENTRE ASSIGNMENTS    3  3  3  3  3  3  3  3  3  3  3  3  3  3  3  3  3  3  3  3
CENTRE ASSIGNMENTS    3  3  3  3  3  3  3  3  3  4  4  4  4  4  4  4  4  4  4  4
CENTRE ASSIGNMENTS    4  4  4  4  4  4  4  4  4  4  4  4  4  4  4  4  4  4  4  4
CENTRE ASSIGNMENTS    4  4  4  4  4  4  4  4  4  4  4  4  4  4  4  4  4  4  4  4
CENTRE ASSIGNMENTS    4  4  4  4  4  4  4  4  4  4  4  4  4  4  4  4  4  4  4  4
CENTRE ASSIGNMENTS    4  4  4  4  4  4  4  4  4  4  4  4  4  4  4  4  4  4  4  4
CENTRE ASSIGNMENTS    4  4  4  4  4  4  4  4  4  4  4  4  4  4  4  4  4  4  4  4
CENTRE ASSIGNMENTS    4  4  4  4  4  4  4  4  4  4  4  4  4  4  4  4  4  4  4  4
TYPE ASSIGNMENTS      1  1  1  1  1  1  2  3  4  2  3  4  2  3  4  5  6  7  8  9
TYPE ASSIGNMENTS     10  5  6  7  8  9 10  1  1  1  1  1  1  2  3  4  2  3  4  2
TYPE ASSIGNMENTS      3  4  5  6  7  8  9 10  5  6  7  8  9 10  1  1  1  1  1  1
TYPE ASSIGNMENTS      1  1  1  1  1  1  1  1  1  1  1  1  1  2  2  2  3  3  3  4
TYPE ASSIGNMENTS      4  4  2  3  4  2  3  4  2  3  4  5  6  7  8  9 10  5  6  7
TYPE ASSIGNMENTS      8  9 10  5  6  7  8  9 10 11 12 13 17 14 15 18 19 16 20 11
TYPE ASSIGNMENTS     12 13 17 14 15 18 19 16 20  1  1  1  1  1  1  1  1  1  1  1
TYPE ASSIGNMENTS      1  1  1  1  1  1  1  1  1  1  1  1  1  1  1  1  1  1  1  1
TYPE ASSIGNMENTS      1  1  1  1  1  1  1  1  1  1  1  2  2  2  2  2  2  2  3  3
TYPE ASSIGNMENTS      3  3  3  3  3  4  4  4  4  4  4  4  2  2  2  2  2  2  2  3
TYPE ASSIGNMENTS      3  3  3  3  3  3  4  4  4  4  4  4  4  2  3  4  2  3  4  2
TYPE ASSIGNMENTS      3  4  5  6  7  8  9 10  5  6  7  8  9 10  5  6  7  8  9 10
TYPE ASSIGNMENTS     11 12 13 17 14 15 18 19 16 20 11 12 13 17 14 15 18 19 16 20
EXPONENTS  0.3387000D+02 0.5095000D+01 0.1159000D+01 0.3258000D+00 0.1027000D+00
EXPONENTS  0.2526000D-01 0.1407000D+01 0.1407000D+01 0.1407000D+01 0.3880000D+00
EXPONENTS  0.3880000D+00 0.3880000D+00 0.1020000D+00 0.1020000D+00 0.1020000D+00
EXPONENTS  0.1057000D+01 0.1057000D+01 0.1057000D+01 0.1057000D+01 0.1057000D+01
EXPONENTS  0.1057000D+01 0.2470000D+00 0.2470000D+00 0.2470000D+00 0.2470000D+00
EXPONENTS  0.2470000D+00 0.2470000D+00 0.3387000D+02 0.5095000D+01 0.1159000D+01
EXPONENTS  0.3258000D+00 0.1027000D+00 0.2526000D-01 0.1407000D+01 0.1407000D+01
EXPONENTS  0.1407000D+01 0.3880000D+00 0.3880000D+00 0.3880000D+00 0.1020000D+00
EXPONENTS  0.1020000D+00 0.1020000D+00 0.1057000D+01 0.1057000D+01 0.1057000D+01
EXPONENTS  0.1057000D+01 0.1057000D+01 0.1057000D+01 0.2470000D+00 0.2470000D+00
EXPONENTS  0.2470000D+00 0.2470000D+00 0.2470000D+00 0.2470000D+00 0.8236000D+04
EXPONENTS  0.1235000D+04 0.2808000D+03 0.7927000D+02 0.2559000D+02 0.8997000D+01
EXPONENTS  0.3319000D+01 0.3643000D+00 0.8236000D+04 0.1235000D+04 0.2808000D+03
EXPONENTS  0.7927000D+02 0.2559000D+02 0.8997000D+01 0.3319000D+01 0.3643000D+00
EXPONENTS  0.9059000D+00 0.1285000D+00 0.4402000D-01 0.1871000D+02 0.4133000D+01
EXPONENTS  0.1200000D+01 0.1871000D+02 0.4133000D+01 0.1200000D+01 0.1871000D+02
EXPONENTS  0.4133000D+01 0.1200000D+01 0.3827000D+00 0.3827000D+00 0.3827000D+00
EXPONENTS  0.1209000D+00 0.1209000D+00 0.1209000D+00 0.3569000D-01 0.3569000D-01
EXPONENTS  0.3569000D-01 0.1097000D+01 0.1097000D+01 0.1097000D+01 0.1097000D+01
EXPONENTS  0.1097000D+01 0.1097000D+01 0.3180000D+00 0.3180000D+00 0.3180000D+00
EXPONENTS  0.3180000D+00 0.3180000D+00 0.3180000D+00 0.1000000D+00 0.1000000D+00
EXPONENTS  0.1000000D+00 0.1000000D+00 0.1000000D+00 0.1000000D+00 0.7610000D+00
EXPONENTS  0.7610000D+00 0.7610000D+00 0.7610000D+00 0.7610000D+00 0.7610000D+00
EXPONENTS  0.7610000D+00 0.7610000D+00 0.7610000D+00 0.7610000D+00 0.2680000D+00
EXPONENTS  0.2680000D+00 0.2680000D+00 0.2680000D+00 0.2680000D+00 0.2680000D+00
EXPONENTS  0.2680000D+00 0.2680000D+00 0.2680000D+00 0.2680000D+00 0.3741000D+06
EXPONENTS  0.5605000D+05 0.1276000D+05 0.3615000D+04 0.1183000D+04 0.4288000D+03
EXPONENTS  0.1678000D+03 0.6947000D+02 0.2984000D+02 0.1272000D+02 0.5244000D+01
EXPONENTS  0.2219000D+01 0.3490000D+00 0.3741000D+06 0.5605000D+05 0.1276000D+05
EXPONENTS  0.3615000D+04 0.1183000D+04 0.4288000D+03 0.1678000D+03 0.6947000D+02
EXPONENTS  0.2984000D+02 0.1272000D+02 0.5244000D+01 0.2219000D+01 0.3490000D+00
EXPONENTS  0.3741000D+06 0.5605000D+05 0.1276000D+05 0.3615000D+04 0.1183000D+04
EXPONENTS  0.4288000D+03 0.1678000D+03 0.6947000D+02 0.2984000D+02 0.1272000D+02
EXPONENTS  0.5244000D+01 0.2219000D+01 0.3490000D+00 0.7767000D+00 0.1322000D+00
EXPONENTS  0.4970000D-01 0.5744000D+03 0.1358000D+03 0.4319000D+02 0.1587000D+02
EXPONENTS  0.6208000D+01 0.2483000D+01 0.3229000D+00 0.5744000D+03 0.1358000D+03
EXPONENTS  0.4319000D+02 0.1587000D+02 0.6208000D+01 0.2483000D+01 0.3229000D+00
EXPONENTS  0.5744000D+03 0.1358000D+03 0.4319000D+02 0.1587000D+02 0.6208000D+01
EXPONENTS  0.2483000D+01 0.3229000D+00 0.5744000D+03 0.1358000D+03 0.4319000D+02
EXPONENTS  0.1587000D+02 0.6208000D+01 0.2483000D+01 0.3229000D+00 0.5744000D+03
EXPONENTS  0.1358000D+03 0.4319000D+02 0.1587000D+02 0.6208000D+01 0.2483000D+01
EXPONENTS  0.3229000D+00 0.5744000D+03 0.1358000D+03 0.4319000D+02 0.1587000D+02
EXPONENTS  0.6208000D+01 0.2483000D+01 0.3229000D+00 0.8688000D+00 0.8688000D+00
EXPONENTS  0.8688000D+00 0.1098000D+00 0.1098000D+00 0.1098000D+00 0.3510000D-01
EXPONENTS  0.3510000D-01 0.3510000D-01 0.2690000D+00 0.2690000D+00 0.2690000D+00
EXPONENTS  0.2690000D+00 0.2690000D+00 0.2690000D+00 0.8190000D+00 0.8190000D+00
EXPONENTS  0.8190000D+00 0.8190000D+00 0.8190000D+00 0.8190000D+00 0.1010000D+00
EXPONENTS  0.1010000D+00 0.1010000D+00 0.1010000D+00 0.1010000D+00 0.1010000D+00
EXPONENTS  0.5570000D+00 0.5570000D+00 0.5570000D+00 0.5570000D+00 0.5570000D+00
EXPONENTS  0.5570000D+00 0.5570000D+00 0.5570000D+00 0.5570000D+00 0.5570000D+00
EXPONENTS  0.2180000D+00 0.2180000D+00 0.2180000D+00 0.2180000D+00 0.2180000D+00
EXPONENTS  0.2180000D+00 0.2180000D+00 0.2180000D+00 0.2180000D+00 0.2180000D+00
MO    1     MO 0.0        OCC NO =    2.0000000  ORB. ENERGY =  -88.542430
  0.72966535D-05  0.13159815D-04  0.19404140D-04  0.73602647D-03  0.87424710D-03
  0.12337135D-04  0.24143287D-15  0.16938425D-05  0.73520288D-04  0.83362870D-18
 -0.13805364D-03 -0.32563813D-05 -0.90770504D-19 -0.47978907D-04  0.14003481D-03
  0.44038392D-04 -0.29554432D-05 -0.41082949D-04 -0.30874045D-18  0.42544670D-19
  0.10580374D-04  0.29659205D-04 -0.20056899D-04 -0.96023062D-05 -0.13575301D-18
  0.12724463D-18  0.72354659D-05  0.72966535D-05  0.13159815D-04  0.19404140D-04
  0.73602647D-03  0.87424710D-03  0.12337135D-04 -0.11542406D-19 -0.16938425D-05
  0.73520288D-04 -0.67939028D-20  0.13805364D-03 -0.32563813D-05  0.35541834D-20
  0.47978907D-04  0.14003481D-03  0.44038392D-04 -0.29554432D-05 -0.41082949D-04
  0.15128469D-18 -0.51406616D-19 -0.10580374D-04  0.29659205D-04 -0.20056899D-04
 -0.96023062D-05 -0.50505971D-19  0.55491188D-19 -0.72354659D-05  0.65380014D-04
  0.12188321D-03  0.20600410D-03  0.30969164D-03  0.38049196D-03  0.32138629D-03
  0.12121508D-03 -0.59990021D-06 -0.54403588D-04 -0.10186068D-03 -0.17342653D-03
 -0.26826447D-03 -0.35329487D-03 -0.36709600D-03 -0.23327303D-03  0.15633416D-03
  0.36498513D-03 -0.10607837D-02 -0.80471971D-04  0.23411510D-19  0.21949778D-19
  0.15629550D-19 -0.27019489D-15 -0.25332488D-15 -0.18038241D-15  0.26127661D-03
  0.24496343D-03  0.17442856D-03 -0.62103882D-19  0.86966105D-15 -0.16906046D-03
 -0.14119952D-18  0.35188915D-15  0.59965480D-03 -0.28735267D-20  0.39023659D-18
  0.29812146D-05 -0.16215400D-03  0.12233289D-03  0.39821110D-04  0.69647066D-18
 -0.98317587D-18 -0.27188333D-15  0.28691168D-03 -0.42024154D-04 -0.24488752D-03
 -0.26217426D-18  0.49208482D-18 -0.61123259D-15  0.16961765D-04 -0.63035114D-04
  0.46073349D-04  0.30981802D-19 -0.56104764D-19 -0.14536725D-15 -0.11541128D-18
  0.10497734D-15 -0.59882873D-04  0.16233401D-18 -0.47776345D-15  0.11511462D-03
  0.18389982D-18  0.16283142D-15  0.64533997D-04 -0.49266737D-18 -0.79346944D-20
  0.22807076D-16 -0.88852652D-04 -0.73809622D-19 -0.26687737D-18  0.13718668D-04
  0.97613706D-19 -0.68154352D-16  0.25283929D-03  0.16135906D-18  0.58518505D+00
  0.10939694D+01  0.18907207D+01  0.30581560D+01  0.46222237D+01  0.63655605D+01
  0.74398644D+01  0.64286041D+01  0.29983239D+01  0.40710760D+00  0.10901339D-02
  0.21383920D-02  0.97626526D-04 -0.12728432D-02 -0.23770888D-02 -0.41234284D-02
 -0.66859966D-02 -0.10293853D-01 -0.14660759D-01 -0.18851833D-01 -0.19788814D-01
 -0.13992094D-01  0.30986078D-03  0.10053500D-01  0.55357302D-02 -0.23410509D-04
  0.53661209D-03  0.10013975D-02  0.17393077D-02  0.28172925D-02  0.43518924D-02
  0.62042765D-02  0.80697371D-02  0.86001645D-02  0.63785632D-02 -0.19854099D-03
 -0.57786459D-02 -0.56610785D-02  0.26440594D-02 -0.29044132D-02 -0.14144871D-02
 -0.17984460D-03 -0.42877540D-17 -0.56252997D-17 -0.61700964D-17 -0.50768531D-17
 -0.26766173D-17 -0.69632932D-18  0.77055939D-21  0.12108421D-14  0.15885589D-14
  0.17424070D-14  0.14336801D-14  0.75586451D-15  0.19664022D-15 -0.21760245D-18
 -0.97962274D-02 -0.12852117D-01 -0.14096813D-01 -0.11599081D-01 -0.61152651D-02
 -0.15909029D-02  0.17604963D-05  0.69169508D-17  0.90819984D-17  0.10217861D-16
  0.86093201D-17  0.48159330D-17  0.11986759D-17 -0.54977053D-18 -0.11771704D-14
 -0.15456319D-14 -0.17389401D-14 -0.14651885D-14 -0.81960591D-15 -0.20399824D-15
  0.93563423D-16  0.86496395D-02  0.11357029D-01  0.12777424D-01  0.10765946D-01
  0.60223190D-02  0.14989429D-02 -0.68748745D-03  0.43954957D-18 -0.63022661D-16
  0.13414890D-03  0.16221342D-18  0.19869934D-15  0.50754213D-03  0.53579027D-20
  0.44225037D-17  0.87989558D-05  0.12422899D-04 -0.37707088D-04  0.25284189D-04
 -0.10416446D-18  0.28873159D-18 -0.15051168D-15 -0.19117116D-03 -0.16744934D-03
  0.35862050D-03  0.12964392D-18  0.22329463D-20 -0.58221487D-17  0.24889628D-04
  0.29221919D-04 -0.54111548D-04 -0.77674142D-20 -0.59020521D-19 -0.43481155D-16
  0.20167278D-19 -0.21242200D-16 -0.10445493D-03  0.96858220D-19 -0.15709383D-16
  0.12413480D-03 -0.15736005D-18  0.79435984D-16  0.18922998D-03 -0.20772474D-18
  0.41485279D-20 -0.70885197D-17  0.17264051D-04  0.11539268D-19 -0.42626906D-17
 -0.36795832D-04 -0.23984851D-19  0.25528250D-16 -0.14996322D-04  0.10648299D-18
MO    2     MO 0.0        OCC NO =    2.0000000  ORB. ENERGY =  -10.126816
  0.47056157D-04  0.84867716D-04  0.12513740D-03 -0.28775686D-02 -0.11875654D-02
 -0.20836122D-04  0.99921756D-16  0.15898332D-02 -0.78901892D-03  0.75032982D-17
  0.26335666D-02 -0.20183388D-02 -0.14685963D-18  0.27621201D-03 -0.21325420D-03
  0.11992685D-02 -0.13756761D-02  0.17640760D-03 -0.14305628D-17  0.30711253D-19
  0.32568109D-02  0.21990116D-03 -0.13484033D-03 -0.85060827D-04 -0.27101195D-18
 -0.82470759D-19  0.36895386D-03  0.47056157D-04  0.84867716D-04  0.12513740D-03
 -0.28775686D-02 -0.11875654D-02 -0.20836122D-04  0.72438886D-18 -0.15898332D-02
 -0.78901892D-03 -0.85675583D-18 -0.26335666D-02 -0.20183388D-02 -0.23905234D-18
 -0.27621201D-03 -0.21325420D-03  0.11992685D-02 -0.13756761D-02  0.17640760D-03
  0.28568278D-19  0.76780095D-19 -0.32568109D-02  0.21990116D-03 -0.13484033D-03
 -0.85060827D-04 -0.30885526D-18  0.24838956D-18 -0.36895386D-03  0.32885553D+00
  0.61306148D+00  0.10361819D+01  0.15577208D+01  0.19138400D+01  0.16165438D+01
  0.60970085D+00 -0.30174435D-02 -0.21107660D-02 -0.39520200D-02 -0.67286522D-02
 -0.10408202D-01 -0.13707236D-01 -0.14242696D-01 -0.90505938D-02  0.60654975D-02
  0.30897380D-01  0.27705786D-02  0.10993278D-03  0.17740765D-16  0.16633095D-16
  0.11843755D-16  0.60810687D-15  0.57013884D-15  0.40597282D-15  0.96510354D-03
  0.90484591D-03  0.64430419D-03 -0.21669936D-17 -0.18270877D-14 -0.37046974D-02
  0.49369859D-18  0.44959553D-15 -0.38678710D-03 -0.43642676D-20  0.67418567D-16
 -0.85801555D-06 -0.29921754D-02  0.21885974D-02  0.80357797D-03  0.39005394D-17
  0.11108027D-17  0.14162405D-15 -0.41860378D-03  0.10199239D-02 -0.60132013D-03
 -0.43589981D-18 -0.56674197D-18  0.70919170D-15  0.14689842D-04 -0.58975275D-05
 -0.87923144D-05  0.21114215D-19 -0.54466804D-19 -0.44057319D-15 -0.40217425D-18
 -0.10681861D-15  0.84134512D-03  0.10830328D-17 -0.66167681D-16  0.11807946D-02
  0.12348998D-18  0.38662350D-15 -0.37048300D-02 -0.26311258D-17  0.76257161D-20
  0.12844644D-15 -0.16098216D-03 -0.84505259D-20  0.26291624D-16  0.14420156D-04
 -0.14426622D-19 -0.41163093D-15  0.46852633D-03  0.10420304D-17  0.13812953D-03
  0.25822513D-03  0.44629364D-03  0.72185994D-03  0.10910490D-02  0.15025535D-02
  0.17561367D-02  0.15174346D-02  0.70773692D-03  0.96095384D-04  0.25731976D-06
  0.50475500D-06  0.23044174D-07 -0.27656661D-03 -0.51649992D-03 -0.89594902D-03
 -0.14527504D-02 -0.22366746D-02 -0.31855270D-02 -0.40961742D-02 -0.42997640D-02
 -0.30402378D-02  0.67327340D-04  0.21844502D-02  0.12028176D-02 -0.50866950D-05
  0.16278137D-03  0.30377412D-03  0.52761929D-03  0.85462619D-03  0.13201473D-02
  0.18820684D-02  0.24479562D-02  0.26088614D-02  0.19349383D-02 -0.60227443D-04
 -0.17529533D-02 -0.17172892D-02  0.80207590D-03  0.18196762D-03  0.30677524D-03
  0.77291435D-04  0.40756352D-17  0.53470114D-17  0.58648565D-17  0.48256969D-17
  0.25442028D-17  0.66188133D-18 -0.73243917D-21  0.20371779D-15  0.26726665D-15
  0.29315078D-15  0.24120911D-15  0.12717021D-15  0.33083679D-16 -0.36610463D-19
 -0.77751345D-02 -0.10200553D-01 -0.11188452D-01 -0.92060356D-02 -0.48536040D-02
 -0.12626784D-02  0.13972823D-05 -0.40916254D-17 -0.53723291D-17 -0.60442325D-17
 -0.50927228D-17 -0.28487978D-17 -0.70905996D-18  0.32520906D-18 -0.95560231D-15
 -0.12547117D-14 -0.14116352D-14 -0.11894094D-14 -0.66533894D-15 -0.16560151D-15
  0.75952831D-16  0.73128930D-02  0.96018730D-02  0.10802755D-01  0.91021375D-02
  0.50916081D-02  0.12672909D-02 -0.58124066D-03 -0.44976220D-18  0.10968939D-15
 -0.56398968D-03 -0.22033507D-19  0.65425113D-15 -0.99893615D-04  0.56871299D-21
 -0.15672381D-17 -0.48607759D-05  0.67123120D-04 -0.14587568D-03  0.78752562D-04
  0.18062869D-19 -0.41160131D-18 -0.28699819D-15 -0.13723701D-03  0.29205454D-04
  0.10803156D-03 -0.20578376D-18  0.88273874D-18  0.23192305D-16 -0.84556623D-05
  0.27508771D-05  0.57047852D-05 -0.80658739D-19  0.37661256D-19 -0.15107003D-15
  0.71880543D-19 -0.14054875D-16  0.17525627D-03 -0.10055066D-18  0.85026138D-17
 -0.33869002D-03 -0.11509097D-18  0.33662012D-16 -0.18707880D-03  0.10385697D-18
 -0.33351230D-19 -0.15162837D-16 -0.14365597D-04  0.38259210D-19 -0.11477835D-16
 -0.26117002D-04  0.61794481D-19  0.56966345D-16  0.69213794D-04  0.11918033D-18
MO    3     MO 0.0        OCC NO =    2.0000000  ORB. ENERGY =   -7.893482
  0.10497175D-06  0.18932088D-06  0.27915353D-06 -0.25192039D-03 -0.12522996D-03
 -0.10263801D-05  0.15062812D-15  0.13066425D-04 -0.99214290D-05 -0.42385212D-16
  0.89363051D-04 -0.11475166D-03  0.27941469D-16  0.29830689D-04 -0.94894385D-05
  0.12594822D-04 -0.22187431D-04  0.95926081D-05  0.26471415D-15  0.22037284D-16
  0.54643929D-04  0.15781337D-05  0.45571495D-05 -0.61352832D-05 -0.55431288D-17
  0.82293320D-17  0.24484148D-04  0.10497175D-06  0.18932088D-06  0.27915353D-06
 -0.25192039D-03 -0.12522996D-03 -0.10263801D-05  0.65407558D-17 -0.13066425D-04
 -0.99214290D-05 -0.49729856D-17 -0.89363051D-04 -0.11475166D-03  0.66319950D-18
 -0.29830689D-04 -0.94894385D-05  0.12594822D-04 -0.22187431D-04  0.95926081D-05
  0.57132046D-17  0.32319427D-17 -0.54643929D-04  0.15781337D-05  0.45571495D-05
 -0.61352832D-05 -0.52005858D-18  0.19548769D-17 -0.24484148D-04 -0.65237871D-04
 -0.12161822D-03 -0.20555622D-03 -0.30901834D-03 -0.37966473D-03 -0.32068756D-03
 -0.12095155D-03  0.59859596D-06  0.13782064D-04  0.25804373D-04  0.43934153D-04
  0.67959454D-04  0.89500210D-04  0.92996451D-04  0.59095070D-04 -0.39604142D-04
  0.17562958D-03  0.43588330D-04 -0.19770006D-04 -0.28945171D-16 -0.27137938D-16
 -0.19323829D-16  0.13239092D-14  0.12412490D-14  0.88384325D-15  0.40782247D-03
  0.38235949D-03  0.27226273D-03 -0.21601735D-16 -0.79057588D-14 -0.60113147D-03
 -0.10895297D-16 -0.84860945D-14 -0.19353988D-03 -0.28625179D-19 -0.25401216D-15
 -0.31200607D-05  0.15235090D-03  0.17788160D-03 -0.33023250D-03  0.38232854D-17
  0.55139575D-16  0.69443695D-15  0.28559015D-04  0.16863073D-03 -0.19718974D-03
 -0.28939231D-16  0.13402589D-16  0.63109356D-14  0.15294780D-05 -0.30200785D-06
 -0.12274702D-05 -0.10237916D-17 -0.10495093D-18  0.26683339D-14  0.51125546D-17
 -0.84544335D-16 -0.13996136D-03 -0.32810204D-17  0.13649188D-14  0.22784887D-03
 -0.12056643D-16 -0.11112858D-14  0.19203520D-03  0.12878360D-16  0.20332692D-17
 -0.22381410D-15  0.22024798D-05 -0.67141324D-17  0.36995902D-15  0.24399666D-04
  0.61432489D-18  0.30148328D-15 -0.31007105D-04  0.13218693D-16 -0.48023535D-03
 -0.89777207D-03 -0.15516304D-02 -0.25096926D-02 -0.37932534D-02 -0.52239324D-02
 -0.61055659D-02 -0.52756695D-02 -0.24605911D-02 -0.33409511D-03 -0.89462438D-06
 -0.17548832D-05 -0.80117749D-07 -0.16119578D+00 -0.30103999D+00 -0.52220045D+00
 -0.84672997D+00 -0.13036372D+01 -0.18566722D+01 -0.23874394D+01 -0.25061009D+01
 -0.17719910D+01  0.39241482D-01  0.12731984D+01  0.70105759D+00 -0.29647607D-02
  0.27837416D-03  0.51948736D-03  0.90228737D-03  0.14615053D-02  0.22575980D-02
  0.32185452D-02  0.41862760D-02  0.44614417D-02  0.33089585D-02 -0.10299559D-03
 -0.29977441D-02 -0.29367545D-02  0.13716385D-02  0.43383811D-01  0.46372690D-03
  0.37527368D-04  0.52456192D-15  0.68819668D-15  0.75484686D-15  0.62109996D-15
  0.32745618D-15  0.85188622D-16 -0.94269895D-19 -0.35439873D-14 -0.46495183D-14
 -0.50998130D-14 -0.41962069D-14 -0.22123233D-14 -0.57554195D-15  0.63689585D-18
 -0.56115010D-01 -0.73619837D-01 -0.80749740D-01 -0.66442166D-01 -0.35029624D-01
 -0.91130525D-02  0.10084522D-04  0.11281831D-15  0.14813113D-15  0.16665751D-15
  0.14042155D-15  0.78549848D-16  0.19550897D-16 -0.89669836D-17 -0.71897937D-14
 -0.94402429D-14 -0.10620910D-13 -0.89489195D-14 -0.50059001D-14 -0.12459583D-14
  0.57145653D-15  0.51427650D-02  0.67524817D-02  0.75969972D-02  0.64010445D-02
  0.35806546D-02  0.89121763D-03 -0.40875535D-03  0.30774622D-16 -0.10298740D-14
 -0.54076271D-03  0.45763870D-17 -0.31530220D-14 -0.99830341D-04 -0.87661645D-19
 -0.37736194D-16  0.72449027D-07 -0.90912192D-04  0.54715505D-07  0.90857476D-04
 -0.35108450D-17  0.31348566D-17  0.88797100D-15  0.23197228D-03 -0.92020433D-03
  0.68823205D-03  0.51511880D-17 -0.35651884D-17  0.31975254D-16  0.14777774D-05
 -0.30283321D-05  0.15505546D-05  0.21237442D-18 -0.77194241D-18  0.71265580D-15
  0.35193708D-18  0.10365060D-15 -0.16415714D-03 -0.51416321D-18  0.73902635D-16
  0.29962796D-03 -0.54164802D-18 -0.38485445D-15  0.19284347D-03  0.18493761D-16
  0.27973134D-19  0.71533978D-16  0.54208880D-05  0.52990304D-18  0.37205128D-16
 -0.47948794D-05 -0.61382244D-18 -0.25180706D-15 -0.11467785D-04  0.35334813D-18
MO    4     MO 0.0        OCC NO =    2.0000000  ORB. ENERGY =   -5.804829
 -0.67954247D-17 -0.12255828D-16 -0.18071212D-16 -0.21247771D-15 -0.89062489D-16
 -0.32971383D-16  0.16119985D-04 -0.88136900D-16 -0.10282870D-15 -0.56912630D-04
  0.27871419D-16 -0.43911381D-16 -0.84292914D-05 -0.37523837D-16 -0.51247730D-16
 -0.81995904D-17 -0.34413171D-15  0.35233130D-15 -0.98551829D-07 -0.86200916D-04
 -0.25669853D-15 -0.25838589D-16  0.46945151D-16 -0.21106562D-16 -0.47846590D-05
 -0.30733851D-04  0.14882234D-16  0.25395015D-16  0.45800956D-16  0.67533483D-16
 -0.25558581D-15 -0.30109896D-15  0.15666183D-16  0.16119985D-04 -0.21503249D-15
 -0.24195445D-15 -0.56912630D-04  0.25243699D-16 -0.17270901D-15 -0.84292914D-05
 -0.53145985D-16 -0.66926247D-16 -0.51306322D-15  0.23631486D-15  0.27674836D-15
  0.98551830D-07 -0.86200916D-04  0.66113647D-16  0.94554244D-17  0.78851864D-17
 -0.17340611D-16  0.47846590D-05 -0.30733851D-04 -0.89468509D-16 -0.47767956D-17
 -0.89050331D-17 -0.15051075D-16 -0.22626695D-16 -0.27799509D-16 -0.23481130D-16
 -0.88562182D-17  0.43829918D-19  0.36436754D-17  0.68221099D-17  0.11615226D-16
  0.17966988D-16  0.23661892D-16  0.24586221D-16  0.15623440D-16 -0.10470466D-16
 -0.48093309D-16  0.71907917D-15  0.79407817D-16  0.54674292D-04  0.51260624D-04
  0.36500618D-04 -0.67844076D-16 -0.63608134D-16 -0.45292781D-16  0.13950560D-17
  0.13079537D-17  0.93134095D-18  0.57488458D-04 -0.33646203D-16  0.71054664D-16
  0.75370702D-05  0.94922420D-16  0.12623567D-15  0.12742256D-05  0.16380465D-16
  0.10457894D-18 -0.97031489D-16 -0.25590280D-15  0.35293429D-15  0.32327486D-16
  0.97058044D-05  0.13927010D-15 -0.59255050D-16  0.95433717D-16 -0.36178667D-16
 -0.40784069D-16 -0.55301364D-04  0.84483165D-16 -0.89790436D-17  0.97520721D-17
 -0.77302851D-18 -0.22157392D-16 -0.14826546D-05  0.41177719D-16  0.51175120D-04
  0.70575244D-16 -0.75848572D-16  0.58082866D-04 -0.20090343D-15  0.81596512D-16
 -0.21160823D-03 -0.10822302D-16  0.14594920D-15 -0.22285255D-16  0.12551696D-05
 -0.25860718D-16  0.36556262D-16  0.39187123D-04 -0.64400219D-17 -0.18702565D-16
 -0.42952632D-04  0.84022175D-16 -0.90966221D-16  0.10064927D-16  0.13565638D-16
  0.25360173D-16  0.43830297D-16  0.70893538D-16  0.10715143D-15  0.14756510D-15
  0.17246939D-15  0.14902657D-15  0.69506522D-16  0.94374841D-17  0.25271257D-19
  0.49571760D-19  0.22631579D-20 -0.51625695D-17 -0.96413184D-17 -0.16724359D-16
 -0.27117969D-16 -0.41751201D-16 -0.59463088D-16 -0.76461812D-16 -0.80262150D-16
 -0.56751027D-16  0.12567753D-17  0.40776347D-16  0.22452563D-16 -0.94951509D-19
  0.11019633D-16  0.20564265D-16  0.35717668D-16  0.57854697D-16  0.89368575D-16
  0.12740833D-15  0.16571662D-15  0.17660925D-15  0.13098741D-15 -0.40771516D-17
 -0.11866777D-15 -0.11625345D-15  0.54297257D-16 -0.85629674D-16 -0.33986330D-15
  0.17195956D-16  0.97038128D+01  0.12730874D+02  0.13963828D+02  0.11489659D+02
  0.60575756D+01  0.15758949D+01 -0.17438883D-02  0.14375498D-13  0.18859871D-13
  0.20686404D-13  0.17021101D-13  0.89738609D-14  0.23345745D-14 -0.25834446D-17
 -0.59886640D-13 -0.78568010D-13 -0.86177132D-13 -0.70907910D-13 -0.37384052D-13
 -0.97255635D-14  0.10762328D-16 -0.12287611D-01 -0.16133708D-01 -0.18151509D-01
 -0.15294019D-01 -0.85552598D-02 -0.21293867D-02  0.97663936D-03  0.71426340D-15
  0.93783219D-15  0.10551245D-14  0.88902213D-15  0.49730651D-15  0.12377858D-15
 -0.56770820D-16 -0.28543548D-14 -0.37477852D-14 -0.42165110D-14 -0.35527293D-14
 -0.19873470D-14 -0.49464662D-15  0.22686877D-15  0.77588489D-01  0.15779731D-15
 -0.57932860D-15  0.61645784D-04 -0.12795024D-15  0.38658334D-16 -0.37957386D-05
 -0.19435070D-17 -0.43882688D-17 -0.24349518D-16  0.62923919D-16 -0.38574401D-16
 -0.68098417D-17  0.23851659D-04  0.14391166D-15  0.10285412D-15 -0.46577499D-16
 -0.56276620D-16  0.45103701D-17 -0.93647959D-03 -0.27029360D-16  0.29437815D-17
 -0.32538359D-17  0.31005435D-18  0.53800773D-17 -0.40059541D-05  0.18812997D-16
 -0.14266931D-04 -0.87980065D-17  0.30078385D-16 -0.18795806D-03 -0.55936238D-16
  0.44468833D-16  0.23075885D-03  0.82330258D-16 -0.13470399D-15  0.12922790D-16
 -0.27680605D-06  0.68316711D-17  0.39705697D-17  0.99966504D-05  0.17006794D-17
 -0.56310059D-17 -0.91662323D-05 -0.22195693D-16 -0.62807031D-17 -0.85559558D-17
MO    5     MO 0.0        OCC NO =    2.0000000  ORB. ENERGY =   -5.802432
 -0.66092088D-06 -0.11919980D-05 -0.17576004D-05  0.31271678D-03  0.59860747D-03
  0.42297044D-05 -0.60733872D-16 -0.66441770D-04  0.40532471D-04  0.83851475D-16
 -0.14136765D-03  0.37491128D-03 -0.28783903D-16 -0.34575925D-04  0.16782236D-03
 -0.35290752D-04  0.42535225D-04 -0.72444728D-05  0.32772292D-15 -0.50470643D-16
 -0.22017501D-03 -0.19209530D-04 -0.30278315D-04  0.49487846D-04 -0.52000658D-18
  0.39368819D-17 -0.11339623D-03 -0.66092088D-06 -0.11919980D-05 -0.17576004D-05
  0.31271678D-03  0.59860747D-03  0.42297044D-05 -0.10340338D-16  0.66441770D-04
  0.40532471D-04  0.26167867D-16  0.14136765D-03  0.37491128D-03  0.32256930D-17
  0.34575925D-04  0.16782236D-03 -0.35290752D-04  0.42535225D-04 -0.72444728D-05
  0.10621076D-16  0.67545857D-17  0.22017501D-03 -0.19209530D-04 -0.30278315D-04
  0.49487846D-04  0.76041501D-17  0.95242995D-17  0.11339623D-03  0.10788860D-03
  0.20112887D-03  0.33994322D-03  0.51104602D-03  0.62787908D-03  0.53034426D-03
  0.20002634D-03 -0.98994152D-06  0.12273289D-04  0.22979470D-04  0.39124514D-04
  0.60519673D-04  0.79702281D-04  0.82815775D-04  0.52625707D-04 -0.35268525D-04
 -0.73258093D-03  0.19591693D-02  0.37265458D-03 -0.17547110D-16 -0.16451531D-16
 -0.11714470D-16 -0.51131732D-15 -0.47939249D-15 -0.34135601D-15 -0.14465618D-02
 -0.13562436D-02 -0.96572624D-03 -0.16920057D-16  0.17264584D-15  0.20303488D-02
  0.61098760D-19 -0.32993938D-14  0.12712909D-02 -0.75341277D-18 -0.11764342D-15
  0.29512801D-04 -0.18875640D-03 -0.43328683D-03  0.62204323D-03 -0.30256486D-16
  0.42660531D-16  0.62134185D-15 -0.33223305D-03 -0.61482923D-03  0.94706228D-03
  0.92376262D-17  0.22638139D-16 -0.10230055D-15 -0.32274261D-04 -0.76036384D-04
  0.10831065D-03  0.26627245D-17 -0.44211222D-17  0.18140809D-15  0.53083056D-17
  0.21422398D-15  0.33731389D-03 -0.20842019D-17 -0.50616576D-15 -0.57777544D-03
 -0.13840715D-16 -0.13650619D-15 -0.43416621D-03  0.16404177D-16  0.13815035D-17
  0.17653476D-15  0.49683943D-04 -0.88757705D-17  0.22826886D-15 -0.72234953D-04
  0.47312599D-17 -0.75787315D-15 -0.76816875D-04  0.10264802D-17 -0.74307883D-04
 -0.13891427D-03 -0.24008723D-03 -0.38833032D-03 -0.58693854D-03 -0.80831068D-03
 -0.94472778D-03 -0.81631608D-03 -0.38073273D-03 -0.51695279D-04 -0.13842722D-06
 -0.27153698D-06 -0.12396797D-07 -0.69164393D-03 -0.12916745D-02 -0.22406093D-02
 -0.36330705D-02 -0.55935256D-02 -0.79664369D-02 -0.10243804D-01 -0.10752946D-01
 -0.76030945D-02  0.16837371D-03  0.54629217D-02  0.30080329D-02 -0.12720920D-04
 -0.10334181D-03 -0.19285110D-03 -0.33495928D-03 -0.54255971D-03 -0.83809597D-03
 -0.11948317D-02 -0.15540858D-02 -0.16562365D-02 -0.12283962D-02  0.38235412D-04
  0.11128630D-02  0.10902216D-02 -0.50919815D-03  0.79594120D-03 -0.32294130D-02
 -0.60889429D-03  0.62625042D-13  0.82160645D-13  0.90117705D-13  0.74150276D-13
  0.39093492D-13  0.10170279D-13 -0.11254450D-16  0.91999712D-11  0.12069861D-10
  0.13238798D-10  0.10893093D-10  0.57430540D-11  0.14940712D-11 -0.16533421D-14
  0.97354922D+01  0.12772436D+02  0.14009415D+02  0.11527169D+02  0.60773513D+01
  0.15810396D+01 -0.17495815D-02  0.11987085D-15  0.15739115D-15  0.17707566D-15
  0.14919963D-15  0.83460182D-16  0.20773069D-16 -0.95275306D-17 -0.29610653D-13
 -0.38878968D-13 -0.43741460D-13 -0.36855487D-13 -0.20616443D-13 -0.51313906D-14
  0.23535030D-14 -0.42347225D-01 -0.55602164D-01 -0.62556183D-01 -0.52708314D-01
 -0.29484292D-01 -0.73385802D-02  0.33658265D-02  0.52000813D-15  0.71217985D-13
  0.76494007D-01  0.71378171D-17  0.24470071D-15  0.99983454D-03  0.47245917D-18
 -0.80035279D-18  0.17063433D-04  0.24880033D-03  0.24739671D-03 -0.49619704D-03
 -0.52342757D-18  0.90647776D-17 -0.10010283D-14  0.92929655D-03  0.92304334D-03
 -0.18523399D-02 -0.69646736D-18  0.11396114D-16 -0.41263499D-15  0.25446531D-04
  0.22988122D-04 -0.48434652D-04 -0.98524536D-18 -0.21684767D-17 -0.18841113D-16
  0.11141544D-17 -0.18850396D-15  0.58507904D-03 -0.43298273D-17  0.91005986D-16
 -0.72677215D-03  0.98736420D-18  0.47450589D-15 -0.10284650D-02  0.10264434D-16
  0.17445482D-18 -0.27376594D-16 -0.26961513D-05  0.91873814D-18 -0.22612990D-16
 -0.28708522D-05 -0.14421026D-17  0.10474277D-15  0.10959306D-04  0.13565852D-17
MO    6     MO 0.0        OCC NO =    2.0000000  ORB. ENERGY =   -5.793196
 -0.74874588D-05 -0.13503940D-04 -0.19911552D-04 -0.36671376D-03 -0.14735744D-03
  0.97060277D-05  0.31634326D-15  0.10507447D-03  0.19615394D-04 -0.13109460D-15
 -0.14720916D-03 -0.86602615D-03  0.41363688D-16  0.55931175D-05  0.55081327D-04
  0.14000577D-04  0.20227594D-03 -0.21627652D-03 -0.41426268D-15 -0.83695409D-16
  0.33927549D-03 -0.34741171D-05  0.14997652D-04 -0.11523535D-04  0.10051164D-16
  0.78266216D-17  0.87814466D-04  0.74874588D-05  0.13503940D-04  0.19911552D-04
  0.36671376D-03  0.14735744D-03 -0.97060277D-05  0.11209342D-16  0.10507447D-03
 -0.19615394D-04 -0.15751646D-16 -0.14720916D-03  0.86602615D-03 -0.71571183D-17
  0.55931175D-05 -0.55081327D-04 -0.14000577D-04 -0.20227594D-03  0.21627652D-03
  0.59069194D-17  0.60263659D-18  0.33927549D-03  0.34741171D-05 -0.14997652D-04
  0.11523535D-04 -0.50458536D-17 -0.38835822D-17  0.87814466D-04 -0.10932503D-16
 -0.20380671D-16 -0.34446924D-16 -0.51785010D-16 -0.63623868D-16 -0.53740528D-16
 -0.20268950D-16  0.10031216D-18 -0.56974432D-16 -0.10667411D-15 -0.18162180D-15
 -0.28094132D-15 -0.36998983D-15 -0.38444313D-15 -0.24429635D-15  0.16372173D-15
  0.54677677D-15 -0.21287900D-14 -0.58592055D-15  0.39203770D-16  0.36756026D-16
  0.26172480D-16 -0.58980337D-04 -0.55297815D-04 -0.39375338D-04  0.14035876D-14
  0.13159526D-14  0.93703666D-15 -0.50730797D-17  0.66345586D-03 -0.15457665D-14
  0.23995547D-17 -0.30935546D-03 -0.16909634D-14  0.63899256D-18 -0.47293746D-05
 -0.37444032D-16 -0.13625832D-16  0.97024812D-15 -0.95662229D-15  0.37270605D-16
 -0.24357825D-16  0.31501643D-03  0.48225899D-15  0.61419044D-15 -0.10964494D-14
 -0.21013511D-16  0.57656037D-17 -0.59822706D-03  0.49821631D-16  0.24579198D-15