 Molden2AIM, Version 4.0.0 (06/02/2016)           Time: Thu Jun 28 19:05:52 2018
GAUSSIAN             38 MOL ORBITALS    655 PRIMITIVES        5 NUCLEI
  C    1    (CENTRE  1)   0.13585241  1.16167701 -0.00077479  CHARGE =  6.0
  Se   2    (CENTRE  2)  -2.84608061 -0.72523909 -0.00038172  CHARGE = 34.0
  Se   3    (CENTRE  3)   3.29682942  0.10502342 -0.00001890  CHARGE = 34.0
  H    4    (CENTRE  4)  -0.30442165  3.18824009  0.00069542  CHARGE =  1.0
  H    5    (CENTRE  5)  -1.55604395 -3.19963514  0.00048188  CHARGE =  1.0
CENTRE ASSIGNMENTS    1  1  1  1  1  1  1  1  1  1  1  1  1  1  1  1  1  1  1  1
CENTRE ASSIGNMENTS    1  1  1  1  1  1  1  1  1  1  1  1  1  1  1  1  1  1  1  1
CENTRE ASSIGNMENTS    1  1  1  1  1  1  1  1  1  1  1  1  1  1  1  1  1  1  1  1
CENTRE ASSIGNMENTS    1  1  1  1  1  1  1  1  1  1  1  1  1  1  1  2  2  2  2  2
CENTRE ASSIGNMENTS    2  2  2  2  2  2  2  2  2  2  2  2  2  2  2  2  2  2  2  2
CENTRE ASSIGNMENTS    2  2  2  2  2  2  2  2  2  2  2  2  2  2  2  2  2  2  2  2
CENTRE ASSIGNMENTS    2  2  2  2  2  2  2  2  2  2  2  2  2  2  2  2  2  2  2  2
CENTRE ASSIGNMENTS    2  2  2  2  2  2  2  2  2  2  2  2  2  2  2  2  2  2  2  2
CENTRE ASSIGNMENTS    2  2  2  2  2  2  2  2  2  2  2  2  2  2  2  2  2  2  2  2
CENTRE ASSIGNMENTS    2  2  2  2  2  2  2  2  2  2  2  2  2  2  2  2  2  2  2  2
CENTRE ASSIGNMENTS    2  2  2  2  2  2  2  2  2  2  2  2  2  2  2  2  2  2  2  2
CENTRE ASSIGNMENTS    2  2  2  2  2  2  2  2  2  2  2  2  2  2  2  2  2  2  2  2
CENTRE ASSIGNMENTS    2  2  2  2  2  2  2  2  2  2  2  2  2  2  2  2  2  2  2  2
CENTRE ASSIGNMENTS    2  2  2  2  2  2  2  2  2  2  2  2  2  2  2  2  2  2  2  2
CENTRE ASSIGNMENTS    2  2  2  2  2  2  2  2  2  2  2  2  2  2  2  2  2  2  2  2
CENTRE ASSIGNMENTS    2  2  2  2  2  2  2  2  2  2  2  2  2  2  2  2  2  2  2  2
CENTRE ASSIGNMENTS    2  2  2  2  2  2  2  2  2  2  2  2  2  2  2  2  2  2  3  3
CENTRE ASSIGNMENTS    3  3  3  3  3  3  3  3  3  3  3  3  3  3  3  3  3  3  3  3
CENTRE ASSIGNMENTS    3  3  3  3  3  3  3  3  3  3  3  3  3  3  3  3  3  3  3  3
CENTRE ASSIGNMENTS    3  3  3  3  3  3  3  3  3  3  3  3  3  3  3  3  3  3  3  3
CENTRE ASSIGNMENTS    3  3  3  3  3  3  3  3  3  3  3  3  3  3  3  3  3  3  3  3
CENTRE ASSIGNMENTS    3  3  3  3  3  3  3  3  3  3  3  3  3  3  3  3  3  3  3  3
CENTRE ASSIGNMENTS    3  3  3  3  3  3  3  3  3  3  3  3  3  3  3  3  3  3  3  3
CENTRE ASSIGNMENTS    3  3  3  3  3  3  3  3  3  3  3  3  3  3  3  3  3  3  3  3
CENTRE ASSIGNMENTS    3  3  3  3  3  3  3  3  3  3  3  3  3  3  3  3  3  3  3  3
CENTRE ASSIGNMENTS    3  3  3  3  3  3  3  3  3  3  3  3  3  3  3  3  3  3  3  3
CENTRE ASSIGNMENTS    3  3  3  3  3  3  3  3  3  3  3  3  3  3  3  3  3  3  3  3
CENTRE ASSIGNMENTS    3  3  3  3  3  3  3  3  3  3  3  3  3  3  3  3  3  3  3  3
CENTRE ASSIGNMENTS    3  3  3  3  3  3  3  3  3  3  3  3  3  3  3  3  3  3  3  3
CENTRE ASSIGNMENTS    3  3  3  3  3  3  3  3  3  3  3  3  3  3  3  3  3  3  3  3
CENTRE ASSIGNMENTS    3  4  4  4  4  4  4  4  4  4  4  4  4  4  4  4  4  4  4  4
CENTRE ASSIGNMENTS    4  4  4  4  4  4  4  4  5  5  5  5  5  5  5  5  5  5  5  5
CENTRE ASSIGNMENTS    5  5  5  5  5  5  5  5  5  5  5  5  5  5  5
TYPE ASSIGNMENTS      1  1  1  1  1  1  1  1  1  1  1  1  1  1  1  1  1  1  1  2
TYPE ASSIGNMENTS      2  2  3  3  3  4  4  4  2  3  4  2  3  4  2  3  4  5  6  7
TYPE ASSIGNMENTS      8  9 10  5  6  7  8  9 10  5  6  7  8  9 10 11 12 13 17 14
TYPE ASSIGNMENTS     15 18 19 16 20 11 12 13 17 14 15 18 19 16 20  1  1  1  1  1
TYPE ASSIGNMENTS      1  1  1  1  1  1  1  1  1  1  1  1  1  1  1  1  1  1  1  1
TYPE ASSIGNMENTS      1  1  1  1  1  1  1  1  1  1  1  1  1  1  1  1  1  1  1  1
TYPE ASSIGNMENTS      1  1  1  1  1  1  1  1  1  1  1  1  1  1  1  1  1  1  1  1
TYPE ASSIGNMENTS      1  1  1  1  1  1  1  1  1  1  2  2  2  2  2  2  2  2  2  2
TYPE ASSIGNMENTS      2  3  3  3  3  3  3  3  3  3  3  3  4  4  4  4  4  4  4  4
TYPE ASSIGNMENTS      4  4  4  2  2  2  2  2  2  2  2  2  2  2  3  3  3  3  3  3
TYPE ASSIGNMENTS      3  3  3  3  3  4  4  4  4  4  4  4  4  4  4  4  2  2  2  2
TYPE ASSIGNMENTS      2  2  2  2  2  2  2  3  3  3  3  3  3  3  3  3  3  3  4  4
TYPE ASSIGNMENTS      4  4  4  4  4  4  4  4  4  2  3  4  2  3  4  2  3  4  5  5
TYPE ASSIGNMENTS      5  5  5  5  5  6  6  6  6  6  6  6  7  7  7  7  7  7  7  8
TYPE ASSIGNMENTS      8  8  8  8  8  8  9  9  9  9  9  9  9 10 10 10 10 10 10 10
TYPE ASSIGNMENTS      5  6  7  8  9 10  5  6  7  8  9 10  5  6  7  8  9 10 11 12
TYPE ASSIGNMENTS     13 17 14 15 18 19 16 20 11 12 13 17 14 15 18 19 16 20  1  1
TYPE ASSIGNMENTS      1  1  1  1  1  1  1  1  1  1  1  1  1  1  1  1  1  1  1  1
TYPE ASSIGNMENTS      1  1  1  1  1  1  1  1  1  1  1  1  1  1  1  1  1  1  1  1
TYPE ASSIGNMENTS      1  1  1  1  1  1  1  1  1  1  1  1  1  1  1  1  1  1  1  1
TYPE ASSIGNMENTS      1  1  1  1  1  1  1  1  1  1  1  1  1  2  2  2  2  2  2  2
TYPE ASSIGNMENTS      2  2  2  2  3  3  3  3  3  3  3  3  3  3  3  4  4  4  4  4
TYPE ASSIGNMENTS      4  4  4  4  4  4  2  2  2  2  2  2  2  2  2  2  2  3  3  3
TYPE ASSIGNMENTS      3  3  3  3  3  3  3  3  4  4  4  4  4  4  4  4  4  4  4  2
TYPE ASSIGNMENTS      2  2  2  2  2  2  2  2  2  2  3  3  3  3  3  3  3  3  3  3
TYPE ASSIGNMENTS      3  4  4  4  4  4  4  4  4  4  4  4  2  3  4  2  3  4  2  3
TYPE ASSIGNMENTS      4  5  5  5  5  5  5  5  6  6  6  6  6  6  6  7  7  7  7  7
TYPE ASSIGNMENTS      7  7  8  8  8  8  8  8  8  9  9  9  9  9  9  9 10 10 10 10
TYPE ASSIGNMENTS     10 10 10  5  6  7  8  9 10  5  6  7  8  9 10  5  6  7  8  9
TYPE ASSIGNMENTS     10 11 12 13 17 14 15 18 19 16 20 11 12 13 17 14 15 18 19 16
TYPE ASSIGNMENTS     20  1  1  1  1  1  1  2  3  4  2  3  4  2  3  4  5  6  7  8
TYPE ASSIGNMENTS      9 10  5  6  7  8  9 10  1  1  1  1  1  1  2  3  4  2  3  4
TYPE ASSIGNMENTS      2  3  4  5  6  7  8  9 10  5  6  7  8  9 10
EXPONENTS  0.8236000D+04 0.1235000D+04 0.2808000D+03 0.7927000D+02 0.2559000D+02
EXPONENTS  0.8997000D+01 0.3319000D+01 0.3643000D+00 0.8236000D+04 0.1235000D+04
EXPONENTS  0.2808000D+03 0.7927000D+02 0.2559000D+02 0.8997000D+01 0.3319000D+01
EXPONENTS  0.3643000D+00 0.9059000D+00 0.1285000D+00 0.4402000D-01 0.1871000D+02
EXPONENTS  0.4133000D+01 0.1200000D+01 0.1871000D+02 0.4133000D+01 0.1200000D+01
EXPONENTS  0.1871000D+02 0.4133000D+01 0.1200000D+01 0.3827000D+00 0.3827000D+00
EXPONENTS  0.3827000D+00 0.1209000D+00 0.1209000D+00 0.1209000D+00 0.3569000D-01
EXPONENTS  0.3569000D-01 0.3569000D-01 0.1097000D+01 0.1097000D+01 0.1097000D+01
EXPONENTS  0.1097000D+01 0.1097000D+01 0.1097000D+01 0.3180000D+00 0.3180000D+00
EXPONENTS  0.3180000D+00 0.3180000D+00 0.3180000D+00 0.3180000D+00 0.1000000D+00
EXPONENTS  0.1000000D+00 0.1000000D+00 0.1000000D+00 0.1000000D+00 0.1000000D+00
EXPONENTS  0.7610000D+00 0.7610000D+00 0.7610000D+00 0.7610000D+00 0.7610000D+00
EXPONENTS  0.7610000D+00 0.7610000D+00 0.7610000D+00 0.7610000D+00 0.7610000D+00
EXPONENTS  0.2680000D+00 0.2680000D+00 0.2680000D+00 0.2680000D+00 0.2680000D+00
EXPONENTS  0.2680000D+00 0.2680000D+00 0.2680000D+00 0.2680000D+00 0.2680000D+00
EXPONENTS  0.9563600D+07 0.1432100D+07 0.3259100D+06 0.9231200D+05 0.3011600D+05
EXPONENTS  0.1087200D+05 0.4240100D+04 0.1758400D+04 0.7665900D+03 0.3484300D+03
EXPONENTS  0.1640300D+03 0.7914200D+02 0.3552400D+02 0.1730500D+02 0.8378400D+01
EXPONENTS  0.3740500D+01 0.1689000D+01 0.2552000D+00 0.9563600D+07 0.1432100D+07
EXPONENTS  0.3259100D+06 0.9231200D+05 0.3011600D+05 0.1087200D+05 0.4240100D+04
EXPONENTS  0.1758400D+04 0.7665900D+03 0.3484300D+03 0.1640300D+03 0.7914200D+02
EXPONENTS  0.3552400D+02 0.1730500D+02 0.8378400D+01 0.3740500D+01 0.1689000D+01
EXPONENTS  0.2552000D+00 0.9563600D+07 0.1432100D+07 0.3259100D+06 0.9231200D+05
EXPONENTS  0.3011600D+05 0.1087200D+05 0.4240100D+04 0.1758400D+04 0.7665900D+03
EXPONENTS  0.3484300D+03 0.1640300D+03 0.7914200D+02 0.3552400D+02 0.1730500D+02
EXPONENTS  0.8378400D+01 0.3740500D+01 0.1689000D+01 0.2552000D+00 0.9563600D+07
EXPONENTS  0.1432100D+07 0.3259100D+06 0.9231200D+05 0.3011600D+05 0.1087200D+05
EXPONENTS  0.4240100D+04 0.1758400D+04 0.7665900D+03 0.3484300D+03 0.1640300D+03
EXPONENTS  0.7914200D+02 0.3552400D+02 0.1730500D+02 0.8378400D+01 0.3740500D+01
EXPONENTS  0.1689000D+01 0.2552000D+00 0.5092700D+00 0.1065100D+00 0.3920100D-01
EXPONENTS  0.8004300D+04 0.1896900D+04 0.6147100D+03 0.2335000D+03 0.9785600D+02
EXPONENTS  0.4351400D+02 0.2006300D+02 0.9112700D+01 0.4106300D+01 0.1794900D+01
EXPONENTS  0.2461500D+00 0.8004300D+04 0.1896900D+04 0.6147100D+03 0.2335000D+03
EXPONENTS  0.9785600D+02 0.4351400D+02 0.2006300D+02 0.9112700D+01 0.4106300D+01
EXPONENTS  0.1794900D+01 0.2461500D+00 0.8004300D+04 0.1896900D+04 0.6147100D+03
EXPONENTS  0.2335000D+03 0.9785600D+02 0.4351400D+02 0.2006300D+02 0.9112700D+01
EXPONENTS  0.4106300D+01 0.1794900D+01 0.2461500D+00 0.8004300D+04 0.1896900D+04
EXPONENTS  0.6147100D+03 0.2335000D+03 0.9785600D+02 0.4351400D+02 0.2006300D+02
EXPONENTS  0.9112700D+01 0.4106300D+01 0.1794900D+01 0.2461500D+00 0.8004300D+04
EXPONENTS  0.1896900D+04 0.6147100D+03 0.2335000D+03 0.9785600D+02 0.4351400D+02
EXPONENTS  0.2006300D+02 0.9112700D+01 0.4106300D+01 0.1794900D+01 0.2461500D+00
EXPONENTS  0.8004300D+04 0.1896900D+04 0.6147100D+03 0.2335000D+03 0.9785600D+02
EXPONENTS  0.4351400D+02 0.2006300D+02 0.9112700D+01 0.4106300D+01 0.1794900D+01
EXPONENTS  0.2461500D+00 0.8004300D+04 0.1896900D+04 0.6147100D+03 0.2335000D+03
EXPONENTS  0.9785600D+02 0.4351400D+02 0.2006300D+02 0.9112700D+01 0.4106300D+01
EXPONENTS  0.1794900D+01 0.2461500D+00 0.8004300D+04 0.1896900D+04 0.6147100D+03
EXPONENTS  0.2335000D+03 0.9785600D+02 0.4351400D+02 0.2006300D+02 0.9112700D+01
EXPONENTS  0.4106300D+01 0.1794900D+01 0.2461500D+00 0.8004300D+04 0.1896900D+04
EXPONENTS  0.6147100D+03 0.2335000D+03 0.9785600D+02 0.4351400D+02 0.2006300D+02
EXPONENTS  0.9112700D+01 0.4106300D+01 0.1794900D+01 0.2461500D+00 0.6243200D+00
EXPONENTS  0.6243200D+00 0.6243200D+00 0.8891700D-01 0.8891700D-01 0.8891700D-01
EXPONENTS  0.3025100D-01 0.3025100D-01 0.3025100D-01 0.3618500D+03 0.1085500D+03
EXPONENTS  0.4143300D+02 0.1757900D+02 0.7862700D+01 0.3518000D+01 0.1534800D+01
EXPONENTS  0.3618500D+03 0.1085500D+03 0.4143300D+02 0.1757900D+02 0.7862700D+01
EXPONENTS  0.3518000D+01 0.1534800D+01 0.3618500D+03 0.1085500D+03 0.4143300D+02
EXPONENTS  0.1757900D+02 0.7862700D+01 0.3518000D+01 0.1534800D+01 0.3618500D+03
EXPONENTS  0.1085500D+03 0.4143300D+02 0.1757900D+02 0.7862700D+01 0.3518000D+01
EXPONENTS  0.1534800D+01 0.3618500D+03 0.1085500D+03 0.4143300D+02 0.1757900D+02
EXPONENTS  0.7862700D+01 0.3518000D+01 0.1534800D+01 0.3618500D+03 0.1085500D+03
EXPONENTS  0.4143300D+02 0.1757900D+02 0.7862700D+01 0.3518000D+01 0.1534800D+01
EXPONENTS  0.6081300D+00 0.6081300D+00 0.6081300D+00 0.6081300D+00 0.6081300D+00
EXPONENTS  0.6081300D+00 0.2220000D+00 0.2220000D+00 0.2220000D+00 0.2220000D+00
EXPONENTS  0.2220000D+00 0.2220000D+00 0.8370000D-01 0.8370000D-01 0.8370000D-01
EXPONENTS  0.8370000D-01 0.8370000D-01 0.8370000D-01 0.4620000D+00 0.4620000D+00
EXPONENTS  0.4620000D+00 0.4620000D+00 0.4620000D+00 0.4620000D+00 0.4620000D+00
EXPONENTS  0.4620000D+00 0.4620000D+00 0.4620000D+00 0.1880000D+00 0.1880000D+00
EXPONENTS  0.1880000D+00 0.1880000D+00 0.1880000D+00 0.1880000D+00 0.1880000D+00
EXPONENTS  0.1880000D+00 0.1880000D+00 0.1880000D+00 0.9563600D+07 0.1432100D+07
EXPONENTS  0.3259100D+06 0.9231200D+05 0.3011600D+05 0.1087200D+05 0.4240100D+04
EXPONENTS  0.1758400D+04 0.7665900D+03 0.3484300D+03 0.1640300D+03 0.7914200D+02
EXPONENTS  0.3552400D+02 0.1730500D+02 0.8378400D+01 0.3740500D+01 0.1689000D+01
EXPONENTS  0.2552000D+00 0.9563600D+07 0.1432100D+07 0.3259100D+06 0.9231200D+05
EXPONENTS  0.3011600D+05 0.1087200D+05 0.4240100D+04 0.1758400D+04 0.7665900D+03
EXPONENTS  0.3484300D+03 0.1640300D+03 0.7914200D+02 0.3552400D+02 0.1730500D+02
EXPONENTS  0.8378400D+01 0.3740500D+01 0.1689000D+01 0.2552000D+00 0.9563600D+07
EXPONENTS  0.1432100D+07 0.3259100D+06 0.9231200D+05 0.3011600D+05 0.1087200D+05
EXPONENTS  0.4240100D+04 0.1758400D+04 0.7665900D+03 0.3484300D+03 0.1640300D+03
EXPONENTS  0.7914200D+02 0.3552400D+02 0.1730500D+02 0.8378400D+01 0.3740500D+01
EXPONENTS  0.1689000D+01 0.2552000D+00 0.9563600D+07 0.1432100D+07 0.3259100D+06
EXPONENTS  0.9231200D+05 0.3011600D+05 0.1087200D+05 0.4240100D+04 0.1758400D+04
EXPONENTS  0.7665900D+03 0.3484300D+03 0.1640300D+03 0.7914200D+02 0.3552400D+02
EXPONENTS  0.1730500D+02 0.8378400D+01 0.3740500D+01 0.1689000D+01 0.2552000D+00
EXPONENTS  0.5092700D+00 0.1065100D+00 0.3920100D-01 0.8004300D+04 0.1896900D+04
EXPONENTS  0.6147100D+03 0.2335000D+03 0.9785600D+02 0.4351400D+02 0.2006300D+02
EXPONENTS  0.9112700D+01 0.4106300D+01 0.1794900D+01 0.2461500D+00 0.8004300D+04
EXPONENTS  0.1896900D+04 0.6147100D+03 0.2335000D+03 0.9785600D+02 0.4351400D+02
EXPONENTS  0.2006300D+02 0.9112700D+01 0.4106300D+01 0.1794900D+01 0.2461500D+00
EXPONENTS  0.8004300D+04 0.1896900D+04 0.6147100D+03 0.2335000D+03 0.9785600D+02
EXPONENTS  0.4351400D+02 0.2006300D+02 0.9112700D+01 0.4106300D+01 0.1794900D+01
EXPONENTS  0.2461500D+00 0.8004300D+04 0.1896900D+04 0.6147100D+03 0.2335000D+03
EXPONENTS  0.9785600D+02 0.4351400D+02 0.2006300D+02 0.9112700D+01 0.4106300D+01
EXPONENTS  0.1794900D+01 0.2461500D+00 0.8004300D+04 0.1896900D+04 0.6147100D+03
EXPONENTS  0.2335000D+03 0.9785600D+02 0.4351400D+02 0.2006300D+02 0.9112700D+01
EXPONENTS  0.4106300D+01 0.1794900D+01 0.2461500D+00 0.8004300D+04 0.1896900D+04
EXPONENTS  0.6147100D+03 0.2335000D+03 0.9785600D+02 0.4351400D+02 0.2006300D+02
EXPONENTS  0.9112700D+01 0.4106300D+01 0.1794900D+01 0.2461500D+00 0.8004300D+04
EXPONENTS  0.1896900D+04 0.6147100D+03 0.2335000D+03 0.9785600D+02 0.4351400D+02
EXPONENTS  0.2006300D+02 0.9112700D+01 0.4106300D+01 0.1794900D+01 0.2461500D+00
EXPONENTS  0.8004300D+04 0.1896900D+04 0.6147100D+03 0.2335000D+03 0.9785600D+02
EXPONENTS  0.4351400D+02 0.2006300D+02 0.9112700D+01 0.4106300D+01 0.1794900D+01
EXPONENTS  0.2461500D+00 0.8004300D+04 0.1896900D+04 0.6147100D+03 0.2335000D+03
EXPONENTS  0.9785600D+02 0.4351400D+02 0.2006300D+02 0.9112700D+01 0.4106300D+01
EXPONENTS  0.1794900D+01 0.2461500D+00 0.6243200D+00 0.6243200D+00 0.6243200D+00
EXPONENTS  0.8891700D-01 0.8891700D-01 0.8891700D-01 0.3025100D-01 0.3025100D-01
EXPONENTS  0.3025100D-01 0.3618500D+03 0.1085500D+03 0.4143300D+02 0.1757900D+02
EXPONENTS  0.7862700D+01 0.3518000D+01 0.1534800D+01 0.3618500D+03 0.1085500D+03
EXPONENTS  0.4143300D+02 0.1757900D+02 0.7862700D+01 0.3518000D+01 0.1534800D+01
EXPONENTS  0.3618500D+03 0.1085500D+03 0.4143300D+02 0.1757900D+02 0.7862700D+01
EXPONENTS  0.3518000D+01 0.1534800D+01 0.3618500D+03 0.1085500D+03 0.4143300D+02
EXPONENTS  0.1757900D+02 0.7862700D+01 0.3518000D+01 0.1534800D+01 0.3618500D+03
EXPONENTS  0.1085500D+03 0.4143300D+02 0.1757900D+02 0.7862700D+01 0.3518000D+01
EXPONENTS  0.1534800D+01 0.3618500D+03 0.1085500D+03 0.4143300D+02 0.1757900D+02
EXPONENTS  0.7862700D+01 0.3518000D+01 0.1534800D+01 0.6081300D+00 0.6081300D+00
EXPONENTS  0.6081300D+00 0.6081300D+00 0.6081300D+00 0.6081300D+00 0.2220000D+00
EXPONENTS  0.2220000D+00 0.2220000D+00 0.2220000D+00 0.2220000D+00 0.2220000D+00
EXPONENTS  0.8370000D-01 0.8370000D-01 0.8370000D-01 0.8370000D-01 0.8370000D-01
EXPONENTS  0.8370000D-01 0.4620000D+00 0.4620000D+00 0.4620000D+00 0.4620000D+00
EXPONENTS  0.4620000D+00 0.4620000D+00 0.4620000D+00 0.4620000D+00 0.4620000D+00
EXPONENTS  0.4620000D+00 0.1880000D+00 0.1880000D+00 0.1880000D+00 0.1880000D+00
EXPONENTS  0.1880000D+00 0.1880000D+00 0.1880000D+00 0.1880000D+00 0.1880000D+00
EXPONENTS  0.1880000D+00 0.3387000D+02 0.5095000D+01 0.1159000D+01 0.3258000D+00
EXPONENTS  0.1027000D+00 0.2526000D-01 0.1407000D+01 0.1407000D+01 0.1407000D+01
EXPONENTS  0.3880000D+00 0.3880000D+00 0.3880000D+00 0.1020000D+00 0.1020000D+00
EXPONENTS  0.1020000D+00 0.1057000D+01 0.1057000D+01 0.1057000D+01 0.1057000D+01
EXPONENTS  0.1057000D+01 0.1057000D+01 0.2470000D+00 0.2470000D+00 0.2470000D+00
EXPONENTS  0.2470000D+00 0.2470000D+00 0.2470000D+00 0.3387000D+02 0.5095000D+01
EXPONENTS  0.1159000D+01 0.3258000D+00 0.1027000D+00 0.2526000D-01 0.1407000D+01
EXPONENTS  0.1407000D+01 0.1407000D+01 0.3880000D+00 0.3880000D+00 0.3880000D+00
EXPONENTS  0.1020000D+00 0.1020000D+00 0.1020000D+00 0.1057000D+01 0.1057000D+01
EXPONENTS  0.1057000D+01 0.1057000D+01 0.1057000D+01 0.1057000D+01 0.2470000D+00
EXPONENTS  0.2470000D+00 0.2470000D+00 0.2470000D+00 0.2470000D+00 0.2470000D+00
MO    1     MO 0.0        OCC NO =    2.0000000  ORB. ENERGY = -453.222539
 -0.85973851D-05 -0.16027481D-04 -0.27089266D-04 -0.40724040D-04 -0.50034188D-04
 -0.42261870D-04 -0.15939623D-04  0.78886082D-07  0.66262363D-05  0.12406405D-04
  0.21122966D-04  0.32674017D-04  0.43030531D-04  0.44711478D-04  0.28412137D-04
 -0.19041153D-04 -0.25756394D-04  0.67888538D-04  0.11912176D-04  0.18105581D-04
  0.16975133D-04  0.12087306D-04  0.13351465D-04  0.12517847D-04  0.89134527D-05
 -0.10938962D-07 -0.10255972D-07 -0.73028631D-08 -0.52314729D-05  0.30812558D-05
  0.81955865D-08  0.38632580D-05  0.18585537D-04  0.67892975D-08  0.68424191D-06
  0.99049091D-06 -0.14015747D-09 -0.11310390D-04 -0.58676100D-05  0.17178000D-04
 -0.17179243D-04  0.71743444D-09 -0.54638035D-08  0.11218889D-04  0.11238620D-04
 -0.22457509D-04  0.18588279D-04 -0.21531781D-08  0.52347332D-08  0.24922510D-05
  0.15438312D-06 -0.26466341D-05 -0.39465618D-05 -0.28500897D-08 -0.64630245D-08
  0.39016524D-06  0.39391978D-05  0.23287794D-09 -0.25881052D-05 -0.11358311D-04
  0.10697545D-08  0.14176094D-05 -0.45928207D-06 -0.17683884D-08  0.11097619D-08
 -0.10437027D-06  0.42857069D-05 -0.24514903D-08 -0.53228284D-05 -0.14188325D-04
  0.11701889D-08  0.56359392D-05  0.13312043D-05  0.61842822D-08  0.65223188D-08
  0.77213420D+00  0.14426968D+01  0.25021768D+01  0.40992048D+01  0.64190292D+01
  0.96396701D+01  0.13748930D+02  0.18165121D+02  0.20948850D+02  0.18854637D+02
  0.10577920D+02  0.25572688D+01  0.12140645D+00 -0.20776292D-02  0.58434757D-03
 -0.22771932D-03  0.21539647D-04  0.21238546D-05  0.58057823D-04  0.10691438D-03
  0.18557651D-03  0.30393956D-03  0.47838688D-03  0.72206166D-03  0.10525556D-02
  0.14453799D-02  0.18356141D-02  0.19768399D-02  0.15770857D-02  0.35325463D-03
 -0.94459493D-03 -0.84000410D-03 -0.16405621D-03 -0.45446945D-05 -0.32911132D-06
 -0.67213536D-08 -0.13797958D-03 -0.24910936D-03 -0.43365196D-03 -0.71012338D-03
 -0.11195500D-02 -0.16893701D-02 -0.24725188D-02 -0.34068060D-02 -0.43888790D-02
 -0.48307757D-02 -0.40667298D-02 -0.96843388D-03  0.32620577D-02  0.43587929D-02
  0.53548662D-03 -0.18710630D-02 -0.82595259D-03  0.40990541D-05  0.48277419D-04
  0.10459249D-03  0.17805501D-03  0.29064869D-03  0.45822013D-03  0.69147993D-03
  0.10120395D-02  0.13960451D-02  0.18007523D-02  0.19907605D-02  0.16860265D-02
  0.40954704D-03 -0.14208869D-02 -0.20054190D-02 -0.23927410D-03  0.11245332D-02
  0.89890163D-03 -0.34054645D-03  0.27231605D-03  0.13526846D-03  0.19215174D-04
 -0.46654761D-03 -0.66867092D-03 -0.88300561D-03 -0.10149704D-02 -0.93370935D-03
 -0.59731945D-03 -0.20675543D-03 -0.23244254D-04 -0.29572357D-06 -0.51243784D-07
 -0.52365571D-09  0.10656896D-03  0.15273804D-03  0.20169644D-03  0.23183989D-03
  0.21327820D-03  0.13643991D-03  0.47227144D-04  0.53094603D-05  0.67549277D-07
  0.11705122D-07  0.11961361D-09 -0.15417427D-06 -0.22096749D-06 -0.29179605D-06
 -0.33540484D-06 -0.30855149D-06 -0.19738884D-06 -0.68323934D-07 -0.76812439D-08
 -0.97724146D-10 -0.16933906D-10 -0.17304609D-12  0.30740505D-02  0.44340757D-02
  0.59056151D-02  0.69890783D-02  0.67162418D-02  0.46164352D-02  0.14534604D-02
 -0.70244429D-03 -0.72087788D-03 -0.18154380D-03  0.19793395D-06 -0.84296749D-03
 -0.12159142D-02 -0.16194404D-02 -0.19165481D-02 -0.18417308D-02 -0.12659209D-02
 -0.39856855D-03  0.19262458D-03  0.19767945D-03  0.49783021D-04 -0.54277535D-07
  0.60004884D-06  0.86552317D-06  0.11527649D-05  0.13642548D-05  0.13109977D-05
  0.90111939D-06  0.28371271D-06 -0.13711579D-06 -0.14071399D-06 -0.35437006D-07
  0.38636332D-10 -0.23374893D-02 -0.33886278D-02 -0.44975559D-02 -0.53674026D-02
 -0.51567997D-02 -0.36094849D-02 -0.10898519D-02  0.66715195D-03  0.71751001D-03
  0.19296191D-03 -0.71929906D-04  0.64935490D-03  0.94136135D-03  0.12494218D-02
  0.14910653D-02  0.14325598D-02  0.10027155D-02  0.30276104D-03 -0.18533492D-03
 -0.19932440D-03 -0.53604850D-04  0.19982140D-04 -0.45377359D-06 -0.65782968D-06
 -0.87310437D-06 -0.10419665D-05 -0.10010825D-05 -0.70070437D-06 -0.21157146D-06
  0.12951330D-06  0.13928924D-06  0.37459432D-07 -0.13963654D-07  0.15187327D-04
 -0.43157385D-05  0.57590900D-08  0.38789267D-04 -0.19297698D-04  0.21187153D-09
  0.86901752D-06  0.66090648D-06  0.11478389D-09  0.21306384D-03  0.22054143D-03
  0.18451979D-03  0.11906766D-03  0.53486822D-04  0.15617286D-04  0.26347319D-05
  0.31859383D-03  0.32977506D-03  0.27591199D-03  0.17804158D-03  0.79978713D-04
  0.23352490D-04  0.39397082D-05 -0.53165767D-03 -0.55031649D-03 -0.46043178D-03
 -0.29710925D-03 -0.13346553D-03 -0.38969776D-04 -0.65744401D-05  0.15392958D-04
  0.15933182D-04  0.13330772D-04  0.86021333D-05  0.38641959D-05  0.11282827D-05
  0.19034820D-06 -0.73713714D-07 -0.76300737D-07 -0.63838327D-07 -0.41193849D-07
 -0.18504840D-07 -0.54031138D-08 -0.91153842D-09 -0.60099909D-06 -0.62209148D-06
 -0.52048356D-06 -0.33585970D-06 -0.15087277D-06 -0.44052406D-07 -0.74319109D-08
 -0.11566205D-04 -0.17645424D-04  0.29211630D-04 -0.13082006D-05  0.45606573D-08
  0.32812492D-07 -0.94495600D-06 -0.26003021D-05  0.35452581D-05  0.62307876D-05
 -0.91274641D-08  0.23096119D-08  0.26923473D-05  0.56606779D-06 -0.32584151D-05
 -0.10906342D-05 -0.75725329D-09 -0.25146417D-08  0.86905682D-06  0.84085654D-05
  0.41970550D-08 -0.24752225D-04 -0.15682051D-04  0.43245683D-08  0.22145054D-04
 -0.95436454D-05 -0.16915733D-07  0.30625786D-07  0.58890068D-06 -0.12952676D-05
  0.29418832D-10  0.17711069D-05  0.35795714D-05 -0.25245633D-08 -0.35378089D-05
  0.30623131D-06  0.24363068D-08 -0.33124928D-08 -0.44680968D-06 -0.83484306D-06
 -0.14479307D-05 -0.23720804D-05 -0.37144895D-05 -0.55781728D-05 -0.79560715D-05
 -0.10511582D-04 -0.12122438D-04 -0.10910583D-04 -0.61211085D-05 -0.14798107D-05
 -0.70254078D-07  0.12022584D-08 -0.33814349D-09  0.13177398D-09 -0.12464314D-10
 -0.12290076D-11  0.14546807D-06  0.26788171D-06  0.46497534D-06  0.76154252D-06
  0.11986329D-05  0.18091776D-05  0.26372540D-05  0.36215037D-05  0.45992636D-05
  0.49531152D-05  0.39515022D-05  0.88510497D-06 -0.23667508D-05 -0.21046909D-05
 -0.41105467D-06 -0.11387060D-07 -0.82461218D-09 -0.16840837D-10 -0.27162840D-06
 -0.49039992D-06 -0.85369288D-06 -0.13979581D-05 -0.22039606D-05 -0.33257159D-05
 -0.48674327D-05 -0.67066826D-05 -0.86400042D-05 -0.95099278D-05 -0.80058170D-05
 -0.19064715D-05  0.64217291D-05  0.85807763D-05  0.10541659D-05 -0.36833989D-05
 -0.16259810D-05  0.80694513D-08  0.17417506D-06  0.37734834D-06  0.64238611D-06
  0.10486011D-05  0.16531646D-05  0.24947183D-05  0.36512319D-05  0.50366456D-05
  0.64967462D-05  0.71822570D-05  0.60828391D-05  0.14775620D-05 -0.51262697D-05
 -0.72351418D-05 -0.86325207D-06  0.40570861D-05  0.32430534D-05 -0.12286220D-05
  0.58705473D-06 -0.42638116D-04 -0.12682455D-04  0.17087427D-03  0.24490246D-03
  0.32340309D-03  0.37173555D-03  0.34197347D-03  0.21876980D-03  0.75724711D-04
  0.85132683D-05  0.10830952D-06  0.18768169D-07  0.19179026D-09 -0.69815465D-04
 -0.10006175D-03 -0.13213538D-03 -0.15188296D-03 -0.13972283D-03 -0.89384522D-04
 -0.30939450D-04 -0.34783340D-05 -0.44252887D-07 -0.76682606D-08 -0.78361278D-10
  0.79352872D-07  0.11373107D-06  0.15018624D-06  0.17263151D-06  0.15881020D-06
  0.10159523D-06  0.35166051D-07  0.39535050D-08  0.50298221D-10  0.87158125D-11
  0.89066118D-13 -0.74254850D-03 -0.10710677D-02 -0.14265236D-02 -0.16882382D-02
 -0.16223335D-02 -0.11151173D-02 -0.35108884D-03  0.16967807D-03  0.17413077D-03
  0.43852590D-04 -0.47811692D-07  0.29765591D-03  0.42934520D-03  0.57183225D-03
  0.67674244D-03  0.65032407D-03  0.44700280D-03  0.14073649D-03 -0.68016674D-04
 -0.69801572D-04 -0.17578626D-04  0.19165661D-07 -0.34101406D-06 -0.49188591D-06
 -0.65512839D-06 -0.77532036D-06 -0.74505374D-06 -0.51211562D-06 -0.16123692D-06
  0.77924347D-07  0.79969242D-07  0.20139223D-07 -0.21957433D-10  0.56589594D-03
  0.82037198D-03  0.10888386D-02  0.12994247D-02  0.12484387D-02  0.87384053D-03
  0.26384838D-03 -0.16151457D-03 -0.17370604D-03 -0.46715236D-04  0.17413916D-04
 -0.22073333D-03 -0.31999423D-03 -0.42471231D-03 -0.50685351D-03 -0.48696590D-03
 -0.34085017D-03 -0.10291668D-03  0.63000362D-04  0.67755764D-04  0.18221741D-04
 -0.67924708D-05  0.25622064D-06  0.37143973D-06  0.49299334D-06  0.58834039D-06
  0.56525544D-06  0.39564868D-06  0.11946260D-06 -0.73128935D-07 -0.78648863D-07
 -0.21151252D-07  0.78844968D-08 -0.21447902D-05  0.28176953D-05 -0.24959893D-08
  0.14504523D-04 -0.11476985D-05  0.26034624D-08  0.81029633D-06  0.13002682D-07
  0.20111663D-09  0.19846462D-04  0.20542985D-04  0.17187643D-04  0.11090910D-04
  0.49821885D-05  0.14547184D-05  0.24541991D-06 -0.11805406D-04 -0.12219723D-04
 -0.10223842D-04 -0.65972813D-05 -0.29635890D-05 -0.86532001D-06 -0.14598479D-06
 -0.80410565D-05 -0.83232618D-05 -0.69638005D-05 -0.44936288D-05 -0.20185995D-05
 -0.58939838D-06 -0.99435119D-07 -0.20195559D-04 -0.20904334D-04 -0.17489971D-04
 -0.11285998D-04 -0.50698246D-05 -0.14803067D-05 -0.24973682D-06  0.10926734D-06
  0.11310214D-06  0.94628854D-07  0.61062482D-07  0.27430102D-07  0.80091458D-08
  0.13511920D-08  0.63511257D-07  0.65740219D-07  0.55002688D-07  0.35492353D-07
  0.15943650D-07  0.46552878D-08  0.78537558D-09 -0.19686946D-05  0.98842619D-06
  0.98026839D-06  0.14202227D-05 -0.64744426D-08 -0.28117282D-08 -0.45559125D-05
  0.28217783D-05  0.17341342D-05  0.48507448D-05 -0.31188285D-08  0.21108557D-08
 -0.12333790D-05  0.42796474D-06  0.80541422D-06 -0.47361620D-06 -0.23221028D-10
  0.67161466D-09  0.30431051D-06  0.21439890D-05 -0.19091909D-09 -0.11919526D-05
 -0.51693882D-05  0.60129509D-08  0.27902107D-06 -0.12625788D-05 -0.54401936D-08
  0.24010164D-08  0.45298511D-06 -0.11239967D-06  0.14120236D-09 -0.79610596D-06
  0.77469022D-07 -0.78448222D-09 -0.56284936D-06  0.25972999D-06  0.36087514D-09
 -0.15673975D-08  0.58888215D-06  0.10620732D-05  0.15660263D-05 -0.58654908D-04
 -0.41798700D-04 -0.30444744D-05 -0.32329508D-05  0.58578869D-05 -0.10713425D-07
 -0.99780618D-05  0.12318211D-04  0.41909837D-07  0.49840530D-05  0.29306262D-05
  0.22996294D-07  0.88175915D-06 -0.33532798D-05  0.24715206D-05  0.55775380D-05
  0.51366122D-08 -0.15660215D-07 -0.16499167D-05  0.31509126D-05 -0.15009959D-05
 -0.92736592D-06  0.10724594D-08 -0.81224482D-08 -0.61905153D-05 -0.11164849D-04
 -0.16462564D-04  0.53555127D-04 -0.78972964D-04  0.68977604D-06  0.93169607D-06
 -0.12968559D-04  0.61631733D-08 -0.24632384D-04  0.59727881D-04 -0.20881949D-07
  0.26266920D-05 -0.82573326D-05  0.43361478D-08 -0.52639700D-05  0.17261672D-04
 -0.11997702D-04 -0.36764794D-04  0.12958591D-07 -0.17957561D-07 -0.26454612D-05
  0.75765008D-05 -0.49310396D-05 -0.91631079D-05  0.33949380D-08 -0.84298868D-08
MO    2     MO 0.0        OCC NO =    2.0000000  ORB. ENERGY = -453.173824
 -0.51473897D-05 -0.95959047D-05 -0.16218769D-04 -0.24382123D-04 -0.29956255D-04
 -0.25302846D-04 -0.95433027D-05  0.47230338D-07  0.43165275D-05  0.80819014D-05
  0.13760129D-04  0.21284827D-04  0.28031368D-04  0.29126387D-04  0.18508511D-04
 -0.12403974D-04 -0.30409764D-04  0.94606095D-04  0.17769618D-04 -0.30127522D-04
 -0.28246467D-04 -0.20113167D-04  0.85186042D-05  0.79867329D-05  0.56870296D-05
 -0.23382010D-07 -0.21922121D-07 -0.15609856D-07  0.21015488D-04  0.36965119D-05
  0.26447610D-07  0.43370334D-04  0.11284898D-04  0.21118128D-07  0.30040943D-05
 -0.37345591D-06  0.35374762D-10 -0.15612668D-04 -0.12343337D-06  0.15736101D-04
  0.61286259D-05 -0.12868164D-07 -0.13469470D-07  0.27124459D-04 -0.11038890D-05
 -0.26020570D-04 -0.32423466D-04  0.13563364D-07  0.17940105D-07  0.56857767D-05
 -0.21027926D-05 -0.35829841D-05 -0.17831307D-04  0.14300899D-09 -0.67007790D-08
  0.25532085D-05  0.54816761D-05 -0.93508489D-09 -0.46558261D-05 -0.15363019D-04
  0.70844151D-08 -0.30037994D-05 -0.10820093D-05 -0.42791605D-08 -0.19267918D-07
  0.61819545D-05  0.21656300D-05 -0.41923035D-08 -0.11786597D-04 -0.72884604D-05
  0.45929718D-08 -0.67592660D-05  0.79157051D-06  0.79839386D-08 -0.59376278D-08
  0.67195491D-06  0.12555164D-05  0.21775360D-05  0.35673602D-05  0.55862028D-05
  0.83889869D-05  0.11965097D-04  0.15808318D-04  0.18230876D-04  0.16408373D-04
  0.92055053D-05  0.22254802D-05  0.10565477D-06 -0.18080706D-08  0.50853235D-09
 -0.19817425D-09  0.18745021D-10  0.18482986D-11 -0.61851979D-06 -0.11390138D-05
 -0.19770418D-05 -0.32380242D-05 -0.50965011D-05 -0.76924936D-05 -0.11213415D-04
 -0.15398374D-04 -0.19555739D-04 -0.21060291D-04 -0.16801504D-04 -0.37634029D-05
  0.10063255D-04  0.89489950D-05  0.17477750D-05  0.48416964D-07  0.35061919D-08
  0.71606031D-10  0.91407925D-06  0.16502855D-05  0.28728327D-05  0.47043848D-05
  0.74167306D-05  0.11191642D-04  0.16379801D-04  0.22569214D-04  0.29075195D-04
  0.32002647D-04  0.26941039D-04  0.64156255D-05 -0.21610293D-04 -0.28875882D-04
 -0.35474611D-05  0.12395311D-04  0.54717235D-05 -0.27155180D-07 -0.40766104D-06
 -0.88319311D-06 -0.15035206D-05 -0.24542768D-05 -0.38692726D-05 -0.58389498D-05
 -0.85457985D-05 -0.11788393D-04 -0.15205795D-04 -0.16810250D-04 -0.14237035D-04
 -0.34582705D-05  0.11998161D-04  0.16934028D-04  0.20204628D-05 -0.94957104D-05
 -0.75904466D-05  0.28756202D-05  0.23945114D-05  0.34002622D-04  0.11908250D-05
  0.26313740D-04  0.37713692D-04  0.49802378D-04  0.57245322D-04  0.52662118D-04
  0.33689400D-04  0.11661208D-04  0.13109986D-05  0.16679098D-07  0.28901994D-08
  0.29534693D-10  0.41550127D-04  0.59550968D-04  0.78639338D-04  0.90391955D-04
  0.83154948D-04  0.53196498D-04  0.18413371D-04  0.20701032D-05  0.26336759D-07