 Molden2AIM, Version 4.0.0 (06/02/2016)           Time: Thu Jun 28 21:39:22 2018
GAUSSIAN             22 MOL ORBITALS    419 PRIMITIVES        5 NUCLEI
  C    1    (CENTRE  1)   0.00000000  0.00000000 -2.19838832  CHARGE =  6.0
  Br   2    (CENTRE  2)   0.00000000  0.00000000  1.46937356  CHARGE = 35.0
  H    3    (CENTRE  3)   0.00000000  1.96599547 -2.83616333  CHARGE =  1.0
  H    4    (CENTRE  4)   1.70259977 -0.98299774 -2.83616522  CHARGE =  1.0
  H    5    (CENTRE  5)  -1.70259977 -0.98299774 -2.83616522  CHARGE =  1.0
CENTRE ASSIGNMENTS    1  1  1  1  1  1  1  1  1  1  1  1  1  1  1  1  1  1  1  1
CENTRE ASSIGNMENTS    1  1  1  1  1  1  1  1  1  1  1  1  1  1  1  1  1  1  1  1
CENTRE ASSIGNMENTS    1  1  1  1  1  1  1  1  1  1  1  1  1  1  1  1  1  1  1  1
CENTRE ASSIGNMENTS    1  1  1  1  1  1  1  1  1  1  1  1  1  1  1  2  2  2  2  2
CENTRE ASSIGNMENTS    2  2  2  2  2  2  2  2  2  2  2  2  2  2  2  2  2  2  2  2
CENTRE ASSIGNMENTS    2  2  2  2  2  2  2  2  2  2  2  2  2  2  2  2  2  2  2  2
CENTRE ASSIGNMENTS    2  2  2  2  2  2  2  2  2  2  2  2  2  2  2  2  2  2  2  2
CENTRE ASSIGNMENTS    2  2  2  2  2  2  2  2  2  2  2  2  2  2  2  2  2  2  2  2
CENTRE ASSIGNMENTS    2  2  2  2  2  2  2  2  2  2  2  2  2  2  2  2  2  2  2  2
CENTRE ASSIGNMENTS    2  2  2  2  2  2  2  2  2  2  2  2  2  2  2  2  2  2  2  2
CENTRE ASSIGNMENTS    2  2  2  2  2  2  2  2  2  2  2  2  2  2  2  2  2  2  2  2
CENTRE ASSIGNMENTS    2  2  2  2  2  2  2  2  2  2  2  2  2  2  2  2  2  2  2  2
CENTRE ASSIGNMENTS    2  2  2  2  2  2  2  2  2  2  2  2  2  2  2  2  2  2  2  2
CENTRE ASSIGNMENTS    2  2  2  2  2  2  2  2  2  2  2  2  2  2  2  2  2  2  2  2
CENTRE ASSIGNMENTS    2  2  2  2  2  2  2  2  2  2  2  2  2  2  2  2  2  2  2  2
CENTRE ASSIGNMENTS    2  2  2  2  2  2  2  2  2  2  2  2  2  2  2  2  2  2  2  2
CENTRE ASSIGNMENTS    2  2  2  2  2  2  2  2  2  2  2  2  2  2  2  2  2  2  3  3
CENTRE ASSIGNMENTS    3  3  3  3  3  3  3  3  3  3  3  3  3  3  3  3  3  3  3  3
CENTRE ASSIGNMENTS    3  3  3  3  3  4  4  4  4  4  4  4  4  4  4  4  4  4  4  4
CENTRE ASSIGNMENTS    4  4  4  4  4  4  4  4  4  4  4  4  5  5  5  5  5  5  5  5
CENTRE ASSIGNMENTS    5  5  5  5  5  5  5  5  5  5  5  5  5  5  5  5  5  5  5
TYPE ASSIGNMENTS      1  1  1  1  1  1  1  1  1  1  1  1  1  1  1  1  1  1  1  2
TYPE ASSIGNMENTS      2  2  3  3  3  4  4  4  2  3  4  2  3  4  2  3  4  5  6  7
TYPE ASSIGNMENTS      8  9 10  5  6  7  8  9 10  5  6  7  8  9 10 11 12 13 17 14
TYPE ASSIGNMENTS     15 18 19 16 20 11 12 13 17 14 15 18 19 16 20  1  1  1  1  1
TYPE ASSIGNMENTS      1  1  1  1  1  1  1  1  1  1  1  1  1  1  1  1  1  1  1  1
TYPE ASSIGNMENTS      1  1  1  1  1  1  1  1  1  1  1  1  1  1  1  1  1  1  1  1
TYPE ASSIGNMENTS      1  1  1  1  1  1  1  1  1  1  1  1  1  1  1  1  1  1  1  1
TYPE ASSIGNMENTS      1  1  1  1  1  1  1  1  1  1  2  2  2  2  2  2  2  2  2  2
TYPE ASSIGNMENTS      2  3  3  3  3  3  3  3  3  3  3  3  4  4  4  4  4  4  4  4
TYPE ASSIGNMENTS      4  4  4  2  2  2  2  2  2  2  2  2  2  2  3  3  3  3  3  3
TYPE ASSIGNMENTS      3  3  3  3  3  4  4  4  4  4  4  4  4  4  4  4  2  2  2  2
TYPE ASSIGNMENTS      2  2  2  2  2  2  2  3  3  3  3  3  3  3  3  3  3  3  4  4
TYPE ASSIGNMENTS      4  4  4  4  4  4  4  4  4  2  3  4  2  3  4  2  3  4  5  5
TYPE ASSIGNMENTS      5  5  5  5  5  6  6  6  6  6  6  6  7  7  7  7  7  7  7  8
TYPE ASSIGNMENTS      8  8  8  8  8  8  9  9  9  9  9  9  9 10 10 10 10 10 10 10
TYPE ASSIGNMENTS      5  6  7  8  9 10  5  6  7  8  9 10  5  6  7  8  9 10 11 12
TYPE ASSIGNMENTS     13 17 14 15 18 19 16 20 11 12 13 17 14 15 18 19 16 20  1  1
TYPE ASSIGNMENTS      1  1  1  1  2  3  4  2  3  4  2  3  4  5  6  7  8  9 10  5
TYPE ASSIGNMENTS      6  7  8  9 10  1  1  1  1  1  1  2  3  4  2  3  4  2  3  4
TYPE ASSIGNMENTS      5  6  7  8  9 10  5  6  7  8  9 10  1  1  1  1  1  1  2  3
TYPE ASSIGNMENTS      4  2  3  4  2  3  4  5  6  7  8  9 10  5  6  7  8  9 10
EXPONENTS  0.8236000D+04 0.1235000D+04 0.2808000D+03 0.7927000D+02 0.2559000D+02
EXPONENTS  0.8997000D+01 0.3319000D+01 0.3643000D+00 0.8236000D+04 0.1235000D+04
EXPONENTS  0.2808000D+03 0.7927000D+02 0.2559000D+02 0.8997000D+01 0.3319000D+01
EXPONENTS  0.3643000D+00 0.9059000D+00 0.1285000D+00 0.4402000D-01 0.1871000D+02
EXPONENTS  0.4133000D+01 0.1200000D+01 0.1871000D+02 0.4133000D+01 0.1200000D+01
EXPONENTS  0.1871000D+02 0.4133000D+01 0.1200000D+01 0.3827000D+00 0.3827000D+00
EXPONENTS  0.3827000D+00 0.1209000D+00 0.1209000D+00 0.1209000D+00 0.3569000D-01
EXPONENTS  0.3569000D-01 0.3569000D-01 0.1097000D+01 0.1097000D+01 0.1097000D+01
EXPONENTS  0.1097000D+01 0.1097000D+01 0.1097000D+01 0.3180000D+00 0.3180000D+00
EXPONENTS  0.3180000D+00 0.3180000D+00 0.3180000D+00 0.3180000D+00 0.1000000D+00
EXPONENTS  0.1000000D+00 0.1000000D+00 0.1000000D+00 0.1000000D+00 0.1000000D+00
EXPONENTS  0.7610000D+00 0.7610000D+00 0.7610000D+00 0.7610000D+00 0.7610000D+00
EXPONENTS  0.7610000D+00 0.7610000D+00 0.7610000D+00 0.7610000D+00 0.7610000D+00
EXPONENTS  0.2680000D+00 0.2680000D+00 0.2680000D+00 0.2680000D+00 0.2680000D+00
EXPONENTS  0.2680000D+00 0.2680000D+00 0.2680000D+00 0.2680000D+00 0.2680000D+00
EXPONENTS  0.1063900D+08 0.1593400D+07 0.3626100D+06 0.1027000D+06 0.3350100D+05
EXPONENTS  0.1209300D+05 0.4715900D+04 0.1955600D+04 0.8526100D+03 0.3876700D+03
EXPONENTS  0.1826800D+03 0.8824500D+02 0.3926300D+02 0.1923400D+02 0.9405700D+01
EXPONENTS  0.4160100D+01 0.1899500D+01 0.3011400D+00 0.1063900D+08 0.1593400D+07
EXPONENTS  0.3626100D+06 0.1027000D+06 0.3350100D+05 0.1209300D+05 0.4715900D+04
EXPONENTS  0.1955600D+04 0.8526100D+03 0.3876700D+03 0.1826800D+03 0.8824500D+02
EXPONENTS  0.3926300D+02 0.1923400D+02 0.9405700D+01 0.4160100D+01 0.1899500D+01
EXPONENTS  0.3011400D+00 0.1063900D+08 0.1593400D+07 0.3626100D+06 0.1027000D+06
EXPONENTS  0.3350100D+05 0.1209300D+05 0.4715900D+04 0.1955600D+04 0.8526100D+03
EXPONENTS  0.3876700D+03 0.1826800D+03 0.8824500D+02 0.3926300D+02 0.1923400D+02
EXPONENTS  0.9405700D+01 0.4160100D+01 0.1899500D+01 0.3011400D+00 0.1063900D+08
EXPONENTS  0.1593400D+07 0.3626100D+06 0.1027000D+06 0.3350100D+05 0.1209300D+05
EXPONENTS  0.4715900D+04 0.1955600D+04 0.8526100D+03 0.3876700D+03 0.1826800D+03
EXPONENTS  0.8824500D+02 0.3926300D+02 0.1923400D+02 0.9405700D+01 0.4160100D+01
EXPONENTS  0.1899500D+01 0.3011400D+00 0.6047200D+00 0.1251500D+00 0.4559300D-01
EXPONENTS  0.8676500D+04 0.2055900D+04 0.6662300D+03 0.2531000D+03 0.1061200D+03
EXPONENTS  0.4724200D+02 0.2182500D+02 0.9968400D+01 0.4517100D+01 0.1998200D+01
EXPONENTS  0.2814500D+00 0.8676500D+04 0.2055900D+04 0.6662300D+03 0.2531000D+03
EXPONENTS  0.1061200D+03 0.4724200D+02 0.2182500D+02 0.9968400D+01 0.4517100D+01
EXPONENTS  0.1998200D+01 0.2814500D+00 0.8676500D+04 0.2055900D+04 0.6662300D+03
EXPONENTS  0.2531000D+03 0.1061200D+03 0.4724200D+02 0.2182500D+02 0.9968400D+01
EXPONENTS  0.4517100D+01 0.1998200D+01 0.2814500D+00 0.8676500D+04 0.2055900D+04
EXPONENTS  0.6662300D+03 0.2531000D+03 0.1061200D+03 0.4724200D+02 0.2182500D+02
EXPONENTS  0.9968400D+01 0.4517100D+01 0.1998200D+01 0.2814500D+00 0.8676500D+04
EXPONENTS  0.2055900D+04 0.6662300D+03 0.2531000D+03 0.1061200D+03 0.4724200D+02
EXPONENTS  0.2182500D+02 0.9968400D+01 0.4517100D+01 0.1998200D+01 0.2814500D+00
EXPONENTS  0.8676500D+04 0.2055900D+04 0.6662300D+03 0.2531000D+03 0.1061200D+03
EXPONENTS  0.4724200D+02 0.2182500D+02 0.9968400D+01 0.4517100D+01 0.1998200D+01
EXPONENTS  0.2814500D+00 0.8676500D+04 0.2055900D+04 0.6662300D+03 0.2531000D+03
EXPONENTS  0.1061200D+03 0.4724200D+02 0.2182500D+02 0.9968400D+01 0.4517100D+01
EXPONENTS  0.1998200D+01 0.2814500D+00 0.8676500D+04 0.2055900D+04 0.6662300D+03
EXPONENTS  0.2531000D+03 0.1061200D+03 0.4724200D+02 0.2182500D+02 0.9968400D+01
EXPONENTS  0.4517100D+01 0.1998200D+01 0.2814500D+00 0.8676500D+04 0.2055900D+04
EXPONENTS  0.6662300D+03 0.2531000D+03 0.1061200D+03 0.4724200D+02 0.2182500D+02
EXPONENTS  0.9968400D+01 0.4517100D+01 0.1998200D+01 0.2814500D+00 0.7098800D+00
EXPONENTS  0.7098800D+00 0.7098800D+00 0.1020400D+00 0.1020400D+00 0.1020400D+00
EXPONENTS  0.3514200D-01 0.3514200D-01 0.3514200D-01 0.4038300D+03 0.1211700D+03
EXPONENTS  0.4634500D+02 0.1972100D+02 0.8862400D+01 0.3996200D+01 0.1763600D+01
EXPONENTS  0.4038300D+03 0.1211700D+03 0.4634500D+02 0.1972100D+02 0.8862400D+01
EXPONENTS  0.3996200D+01 0.1763600D+01 0.4038300D+03 0.1211700D+03 0.4634500D+02
EXPONENTS  0.1972100D+02 0.8862400D+01 0.3996200D+01 0.1763600D+01 0.4038300D+03
EXPONENTS  0.1211700D+03 0.4634500D+02 0.1972100D+02 0.8862400D+01 0.3996200D+01
EXPONENTS  0.1763600D+01 0.4038300D+03 0.1211700D+03 0.4634500D+02 0.1972100D+02
EXPONENTS  0.8862400D+01 0.3996200D+01 0.1763600D+01 0.4038300D+03 0.1211700D+03
EXPONENTS  0.4634500D+02 0.1972100D+02 0.8862400D+01 0.3996200D+01 0.1763600D+01
EXPONENTS  0.7061900D+00 0.7061900D+00 0.7061900D+00 0.7061900D+00 0.7061900D+00
EXPONENTS  0.7061900D+00 0.2639000D+00 0.2639000D+00 0.2639000D+00 0.2639000D+00
EXPONENTS  0.2639000D+00 0.2639000D+00 0.1047000D+00 0.1047000D+00 0.1047000D+00
EXPONENTS  0.1047000D+00 0.1047000D+00 0.1047000D+00 0.5515000D+00 0.5515000D+00
EXPONENTS  0.5515000D+00 0.5515000D+00 0.5515000D+00 0.5515000D+00 0.5515000D+00
EXPONENTS  0.5515000D+00 0.5515000D+00 0.5515000D+00 0.2580000D+00 0.2580000D+00
EXPONENTS  0.2580000D+00 0.2580000D+00 0.2580000D+00 0.2580000D+00 0.2580000D+00
EXPONENTS  0.2580000D+00 0.2580000D+00 0.2580000D+00 0.3387000D+02 0.5095000D+01
EXPONENTS  0.1159000D+01 0.3258000D+00 0.1027000D+00 0.2526000D-01 0.1407000D+01
EXPONENTS  0.1407000D+01 0.1407000D+01 0.3880000D+00 0.3880000D+00 0.3880000D+00
EXPONENTS  0.1020000D+00 0.1020000D+00 0.1020000D+00 0.1057000D+01 0.1057000D+01
EXPONENTS  0.1057000D+01 0.1057000D+01 0.1057000D+01 0.1057000D+01 0.2470000D+00
EXPONENTS  0.2470000D+00 0.2470000D+00 0.2470000D+00 0.2470000D+00 0.2470000D+00
EXPONENTS  0.3387000D+02 0.5095000D+01 0.1159000D+01 0.3258000D+00 0.1027000D+00
EXPONENTS  0.2526000D-01 0.1407000D+01 0.1407000D+01 0.1407000D+01 0.3880000D+00
EXPONENTS  0.3880000D+00 0.3880000D+00 0.1020000D+00 0.1020000D+00 0.1020000D+00
EXPONENTS  0.1057000D+01 0.1057000D+01 0.1057000D+01 0.1057000D+01 0.1057000D+01
EXPONENTS  0.1057000D+01 0.2470000D+00 0.2470000D+00 0.2470000D+00 0.2470000D+00
EXPONENTS  0.2470000D+00 0.2470000D+00 0.3387000D+02 0.5095000D+01 0.1159000D+01
EXPONENTS  0.3258000D+00 0.1027000D+00 0.2526000D-01 0.1407000D+01 0.1407000D+01
EXPONENTS  0.1407000D+01 0.3880000D+00 0.3880000D+00 0.3880000D+00 0.1020000D+00
EXPONENTS  0.1020000D+00 0.1020000D+00 0.1057000D+01 0.1057000D+01 0.1057000D+01
EXPONENTS  0.1057000D+01 0.1057000D+01 0.1057000D+01 0.2470000D+00 0.2470000D+00
EXPONENTS  0.2470000D+00 0.2470000D+00 0.2470000D+00 0.2470000D+00
MO    1     MO 0.0        OCC NO =    2.0000000  ORB. ENERGY = -482.124286
 -0.32288350D-05 -0.60192825D-05 -0.10173648D-04 -0.15294325D-04 -0.18790846D-04
 -0.15871873D-04 -0.59862865D-05  0.29626466D-07  0.23967736D-05  0.44875164D-05
  0.76403806D-05  0.11818507D-04  0.15564558D-04  0.16172573D-04  0.10276944D-04
 -0.68873688D-05 -0.85546663D-05  0.54138649D-04 -0.78117112D-05 -0.12324375D-16
 -0.11554885D-16 -0.82277663D-17  0.18206135D-10  0.17069409D-10  0.12154436D-10
 -0.14080793D-04 -0.13201639D-04 -0.94003531D-05  0.25269264D-16 -0.65308546D-10
 -0.14873914D-04  0.21284277D-16 -0.27425475D-10 -0.45042938D-04  0.32500623D-18
 -0.60419078D-12 -0.93992738D-06  0.81841069D-05  0.81840850D-05 -0.16368192D-04
  0.98624761D-17  0.57082918D-17  0.16093163D-10 -0.37910916D-05 -0.37910227D-05
  0.75821143D-05 -0.16568241D-16 -0.10350847D-16  0.74327339D-10  0.15780164D-05
  0.15780320D-05 -0.31560485D-05 -0.18378497D-17  0.13527171D-17  0.32840260D-11
  0.31072744D-17 -0.16159044D-05  0.48171610D-05 -0.97889835D-17  0.48477469D-05
 -0.72257381D-05  0.46716042D-18 -0.33852944D-10 -0.72257450D-05 -0.95470236D-17
  0.94901551D-18  0.44883071D-06  0.41999510D-05 -0.13451596D-17 -0.13464747D-05
 -0.62999188D-05 -0.15018869D-17 -0.17457724D-10 -0.62999341D-05  0.64263021D-17
  0.78328156D+00  0.14734480D+01  0.25506112D+01  0.41809397D+01  0.65495231D+01
  0.98444909D+01  0.14070250D+02  0.18678607D+02  0.21753775D+02  0.19980632D+02
  0.11683461D+02  0.30657987D+01  0.16760602D+00 -0.59989462D-02  0.16765161D-02
 -0.49781421D-03  0.84868705D-04  0.69241190D-05  0.45043137D-04  0.82758199D-04
  0.14310800D-03  0.23435935D-03  0.36898826D-03  0.55720843D-03  0.81335414D-03
  0.11200381D-02  0.14311088D-02  0.15600763D-02  0.12841830D-02  0.35211425D-03
 -0.71023729D-03 -0.69215725D-03 -0.15146351D-03 -0.51026661D-05 -0.17286202D-06
  0.43973869D-09 -0.10479629D-03 -0.20544270D-03 -0.35982780D-03 -0.58784154D-03
 -0.92716770D-03 -0.13990547D-02 -0.20512921D-02 -0.28321481D-02 -0.36718940D-02
 -0.40833622D-02 -0.35466515D-02 -0.10302388D-02  0.25972196D-02  0.37843319D-02
  0.65148627D-03 -0.15893476D-02 -0.75648936D-03  0.36533182D-05  0.36599530D-04
  0.79302344D-04  0.13499966D-03  0.22035581D-03  0.34736931D-03  0.52428061D-03
  0.76868082D-03  0.10626467D-02  0.13792088D-02  0.15408174D-02  0.13459389D-02
  0.39866840D-03 -0.10363088D-02 -0.15941933D-02 -0.27903250D-03  0.88019260D-03
  0.74715040D-03 -0.27875514D-03  0.26121613D-03  0.13935749D-03  0.24490172D-04
 -0.17322176D-17 -0.24854255D-17 -0.32908355D-17 -0.37999826D-17 -0.35227587D-17
 -0.22806982D-17 -0.80500271D-18 -0.94353259D-19 -0.13717218D-20 -0.20087338D-21
 -0.20652903D-23  0.83628850D-09  0.11999259D-08  0.15887657D-08  0.18345743D-08
  0.17007347D-08  0.11010867D-08  0.38864316D-09  0.45552329D-10  0.66224656D-12
  0.96978637D-13  0.99709100D-15  0.16255480D-03  0.23323736D-03  0.30881866D-03
  0.35659806D-03  0.33058281D-03  0.21402534D-03  0.75543084D-04  0.88543008D-05
  0.12872515D-06  0.18850365D-07  0.19381102D-09 -0.14788563D-16 -0.21347460D-16
 -0.28519697D-16 -0.33882275D-16 -0.32834521D-16 -0.22824181D-16 -0.74267695D-17
  0.33426356D-17  0.36111617D-17  0.92968253D-18 -0.90681946D-21  0.37257199D-09
  0.53781195D-09  0.71850390D-09  0.85360468D-09  0.82720837D-09  0.57501533D-09
  0.18710447D-09 -0.84211862D-10 -0.90976906D-10 -0.23421726D-10  0.22845731D-13
 -0.15914060D-02 -0.22972129D-02 -0.30690215D-02 -0.36460917D-02 -0.35333424D-02
 -0.24561237D-02 -0.79919908D-03  0.35970301D-03  0.38859926D-03  0.10004369D-03
 -0.97583381D-07  0.10285149D-16  0.14944778D-16  0.19869256D-16  0.23841732D-16
  0.23066981D-16  0.16374870D-16  0.50893509D-17 -0.29219842D-17 -0.33567112D-17
 -0.89140417D-18  0.32162140D-18 -0.14279141D-09 -0.20748225D-09 -0.27585005D-09
 -0.33100097D-09 -0.32024490D-09 -0.22733659D-09 -0.70656784D-10  0.40566668D-10
  0.46602096D-10  0.12375596D-10 -0.44651537D-11  0.11701721D-02  0.17003120D-02
  0.22605845D-02  0.27125449D-02  0.26243992D-02  0.18630179D-02  0.57903064D-03
 -0.33244287D-03 -0.38190305D-03 -0.10141771D-03  0.36591827D-04 -0.20862767D-18
  0.10268271D-10 -0.12292476D-04 -0.12796847D-17  0.10204559D-10 -0.52999215D-04
  0.12928015D-18  0.24841546D-12 -0.12493889D-05 -0.17853170D-03 -0.18681419D-03
 -0.15917569D-03 -0.10482922D-03 -0.48312668D-04 -0.14467307D-04 -0.24614896D-05
 -0.17853176D-03 -0.18681425D-03 -0.15917574D-03 -0.10482926D-03 -0.48312685D-04
 -0.14467312D-04 -0.24614904D-05  0.35706346D-03  0.37362844D-03  0.31835143D-03
  0.20965848D-03  0.96625353D-04  0.28934618D-04  0.49229800D-05 -0.10550480D-16
 -0.11039940D-16 -0.94066198D-17 -0.61949703D-17 -0.28550774D-17 -0.85495754D-18
 -0.14546378D-18  0.38184712D-16  0.39956187D-16  0.34044810D-16  0.22421081D-16
  0.10333209D-16  0.30942961D-17  0.52646825D-18 -0.30071189D-09 -0.31466259D-09
 -0.26810937D-09 -0.17657029D-09 -0.81375989D-10 -0.24368172D-10 -0.41460378D-11
  0.10243842D-04  0.10243844D-04 -0.20487686D-04  0.86723325D-18 -0.20209625D-17
  0.48358754D-11 -0.10971185D-05 -0.10971188D-05  0.21942373D-05 -0.68856282D-18
  0.12638309D-18 -0.53533396D-11 -0.35507300D-05 -0.35507288D-05  0.71014589D-05
 -0.32340545D-18  0.25572436D-18 -0.44477093D-11 -0.46851558D-18 -0.85331027D-06
  0.10873570D-04 -0.33944560D-18  0.25599400D-05 -0.16310362D-04  0.17449923D-17
 -0.92214612D-11 -0.16310349D-04 -0.26788130D-17  0.34220416D-20  0.33605923D-06
 -0.37502972D-05  0.29904091D-19 -0.10081829D-05  0.56254487D-05 -0.40170216D-19
  0.51637565D-11  0.56254428D-05  0.18381294D-17  0.15364288D-05  0.27710126D-05
  0.40858564D-05 -0.22521047D-04 -0.44872286D-04 -0.56950883D-06 -0.13423908D-17
 -0.39323652D-05 -0.20795223D-05  0.58266626D-17  0.15520546D-04  0.89661189D-05
  0.18548725D-17  0.59703228D-05 -0.74086583D-05  0.63319945D-06 -0.92601792D-05
  0.86269798D-05  0.35354427D-17  0.60070066D-17 -0.41060778D-05  0.41277977D-06
  0.14100520D-05 -0.18228317D-05 -0.29049332D-17 -0.83270162D-18 -0.22910113D-06
  0.15364311D-05  0.27710168D-05  0.40858627D-05 -0.22521112D-04 -0.44872253D-04
 -0.56950964D-06 -0.34055050D-05  0.19661746D-05 -0.20795454D-05  0.13441250D-04
 -0.77602676D-05  0.89661750D-05  0.51704536D-05 -0.29851509D-05 -0.74086533D-05
 -0.67868993D-05 -0.18401358D-05  0.86270352D-05  0.85679153D-05 -0.35559946D-05
  0.20530397D-05  0.11607257D-05  0.66209541D-06 -0.18228212D-05 -0.86366707D-06
 -0.19841356D-06  0.11455127D-06  0.15364311D-05  0.27710168D-05  0.40858627D-05
 -0.22521112D-04 -0.44872253D-04 -0.56950964D-06  0.34055050D-05  0.19661746D-05
 -0.20795454D-05 -0.13441250D-04 -0.77602676D-05  0.89661750D-05 -0.51704536D-05
 -0.29851509D-05 -0.74086533D-05 -0.67868993D-05 -0.18401358D-05  0.86270352D-05
 -0.85679153D-05  0.35559946D-05  0.20530397D-05  0.11607257D-05  0.66209541D-06
 -0.18228212D-05  0.86366707D-06  0.19841356D-06  0.11455127D-06
MO    2     MO 0.0        OCC NO =    2.0000000  ORB. ENERGY =  -62.380093
  0.28230837D-04  0.52628699D-04  0.88951773D-04  0.13372365D-03  0.16429496D-03
  0.13877336D-03  0.52340204D-04 -0.25903459D-06 -0.21128705D-04 -0.39559603D-04
 -0.67353609D-04 -0.10418579D-03 -0.13720902D-03 -0.14256896D-03 -0.90596176D-04
  0.60715450D-04  0.86163785D-04 -0.54625043D-03  0.92335961D-04  0.46308131D-15
  0.43416816D-15  0.30915360D-15 -0.16775664D-10 -0.15728252D-10 -0.11199452D-10
  0.13169789D-03  0.12347514D-03  0.87921658D-04 -0.88817979D-15  0.14529628D-09
  0.15668330D-03 -0.10135166D-14  0.93775361D-11  0.50305373D-03 -0.15158893D-17
  0.38973135D-11  0.10681615D-04 -0.76172405D-04 -0.76172364D-04  0.15234477D-03
 -0.54772040D-17  0.92481945D-17  0.12333927D-10  0.30268482D-04  0.30267472D-04
 -0.60535955D-04  0.73097343D-15  0.51676880D-15 -0.69946977D-09 -0.17968793D-04
 -0.17969047D-04  0.35937840D-04  0.15412458D-15  0.11647776D-15 -0.71366829D-10
 -0.42209905D-17  0.14436270D-04 -0.41824512D-04 -0.23276156D-16 -0.43309216D-04
  0.62736635D-04  0.35939128D-16  0.40533296D-09  0.62736901D-04 -0.38138368D-15
  0.48932376D-17 -0.55098331D-05 -0.42659202D-04 -0.83581390D-18  0.16529310D-04
  0.63988725D-04 -0.13843899D-16  0.18963814D-09  0.63988881D-04 -0.11980644D-15
  0.29080869D-03  0.54704657D-03  0.94696458D-03  0.15522561D-02  0.24316393D-02
  0.36549609D-02  0.52238573D-02  0.69348004D-02  0.80765170D-02  0.74182027D-02
  0.43377149D-02  0.11382381D-02  0.62227032D-04 -0.22272268D-05  0.62243960D-06
 -0.18482332D-06  0.31509176D-07  0.25707154D-08 -0.25306831D+00 -0.46496489D+00
 -0.80403146D+00 -0.13167139D+01 -0.20731068D+01 -0.31305945D+01 -0.45697119D+01
 -0.62927708D+01 -0.80404764D+01 -0.87650614D+01 -0.72149952D+01 -0.19783027D+01
  0.39903648D+01  0.38887848D+01  0.85097567D+00  0.28668587D-01  0.97120012D-03
 -0.24706078D-05  0.10315365D-02  0.20222247D-02  0.35418765D-02  0.57862737D-02
  0.91263473D-02  0.13771251D-01  0.20191390D-01  0.27877553D-01  0.36143386D-01
  0.40193572D-01  0.34910592D-01  0.10140903D-01 -0.25565092D-01 -0.37250141D-01
 -0.64127449D-02  0.15644352D-01  0.74463171D-02 -0.35960539D-04 -0.39402013D-03
 -0.85374647D-03 -0.14533680D-02 -0.23722879D-02 -0.37396792D-02 -0.56442559D-02
 -0.82753991D-02 -0.11440152D-01 -0.14848169D-01 -0.16588001D-01 -0.14489995D-01
 -0.42919506D-02  0.11156606D-01  0.17162631D-01  0.30039845D-02 -0.94759032D-02
 -0.80436087D-02  0.30009985D-02 -0.30529539D-02 -0.15566709D-02 -0.27372080D-03
 -0.37371277D-15 -0.53621166D-15 -0.70997274D-15 -0.81981736D-15 -0.76000841D-15
 -0.49204330D-15 -0.17367321D-15 -0.20355998D-16 -0.29593854D-18 -0.43336905D-19
 -0.44557068D-21  0.17844740D-06  0.25604043D-06  0.33901114D-06  0.39146181D-06
  0.36290311D-06  0.23495009D-06  0.82928753D-07  0.97199650D-08  0.14131030D-09
  0.20693321D-10  0.21275947D-12 -0.48492949D-01 -0.69578796D-01 -0.92126025D-01
 -0.10637946D+00 -0.98618651D-01 -0.63847512D-01 -0.22535827D-01 -0.26413933D-02
 -0.38400969D-04 -0.56233945D-05 -0.57817228D-07 -0.48382952D-14 -0.69841347D-14
 -0.93306370D-14 -0.11085083D-13 -0.10742295D-13 -0.74672654D-14 -0.24297765D-14
  0.10935923D-14  0.11814445D-14  0.30415927D-15 -0.29667928D-18 -0.10714512D-07
 -0.15466522D-07 -0.20662903D-07 -0.24548163D-07 -0.23789051D-07 -0.16536425D-07
 -0.53807942D-08  0.24217844D-08  0.26163351D-08  0.67356747D-09 -0.65700287D-12
  0.16125079D-01  0.23276737D-01  0.31097164D-01  0.36944384D-01  0.35801940D-01
  0.24886915D-01  0.80979636D-02 -0.36447262D-02 -0.39375203D-02 -0.10137026D-02
  0.98877324D-06  0.32570522D-14  0.47326413D-14  0.62921015D-14  0.75500862D-14
  0.73047418D-14  0.51855161D-14  0.16116715D-14 -0.92532008D-15 -0.10629874D-14
 -0.28228564D-15  0.10184954D-15  0.55495389D-08  0.80637262D-08  0.10720817D-07
  0.12864239D-07  0.12446208D-07  0.88353585D-08  0.27460516D-08 -0.15766096D-08
 -0.18111744D-08 -0.48097329D-09  0.17353666D-09 -0.11706083D-01 -0.17009458D-01
 -0.22614272D-01 -0.27135561D-01 -0.26253775D-01 -0.18637123D-01 -0.57924648D-02
  0.33256679D-02  0.38204541D-02  0.10145552D-02 -0.36605467D-03 -0.11910730D-15
 -0.33201245D-09  0.11959412D-03 -0.93109419D-16 -0.90826471D-10  0.58763440D-03
 -0.31907828D-17 -0.48772485D-11  0.13984105D-04 -0.52289258D-03 -0.54715074D-03
 -0.46620172D-03 -0.30702908D-03 -0.14150056D-03 -0.42372572D-04 -0.72093338D-05
 -0.52290794D-03 -0.54716682D-03 -0.46621542D-03 -0.30703810D-03 -0.14150472D-03
 -0.42373817D-04 -0.72095457D-05  0.10458005D-02  0.10943176D-02  0.93241713D-03
  0.61406717D-03  0.28300528D-03  0.84746388D-04  0.14418879D-04  0.81833614D-15
  0.85630060D-15  0.72961394D-15  0.48050594D-15  0.22145088D-15  0.66313825D-16
  0.11282735D-16 -0.16395278D-14 -0.17155892D-14 -0.14617738D-14 -0.96268858D-15
 -0.44367451D-15 -0.13285905D-15 -0.22604841D-16 -0.81609231D-07 -0.85395267D-07
 -0.72761338D-07 -0.47918842D-07 -0.22084368D-07 -0.66131996D-08 -0.11251799D-08
 -0.96425555D-04 -0.96425731D-04  0.19285129D-03 -0.32960271D-16  0.10939432D-15
  0.53196633D-09  0.14853706D-04  0.14853806D-04 -0.29707512D-04  0.15237758D-16
 -0.56817773D-16 -0.89637021D-10  0.39170413D-04  0.39170389D-04 -0.78340802D-04
 -0.15333396D-16  0.33704724D-16  0.53177941D-10  0.11008427D-17  0.92133835D-05
 -0.11173635D-03  0.24629060D-17 -0.27640247D-04  0.16760468D-03 -0.57654341D-17
  0.96226304D-10  0.16760437D-03 -0.42340272D-16  0.91038576D-18 -0.36372413D-05
  0.41024209D-04  0.53972116D-18  0.10911765D-04 -0.61536351D-04 -0.32708784D-17
 -0.41553318D-10 -0.61536276D-04  0.21696961D-16 -0.15116590D-04 -0.27263393D-04
 -0.40199857D-04  0.23878573D-03  0.48877089D-03  0.61765522D-05 -0.77241548D-16
  0.41836848D-04  0.23411932D-04 -0.63612574D-16 -0.16263706D-03 -0.86434080D-04
 -0.13481051D-15 -0.64915607D-04  0.82268851D-04 -0.53780132D-05  0.92200860D-04
 -0.86822847D-04  0.15246154D-16  0.20121540D-16  0.36334976D-04 -0.50771951D-05
 -0.15690154D-04  0.20767349D-04  0.53847181D-16 -0.68436162D-16 -0.47475666D-06
 -0.15116590D-04 -0.27263392D-04 -0.40199856D-04  0.23878550D-03  0.48876960D-03
  0.61765368D-05  0.36231834D-04 -0.20918519D-04  0.23412218D-04 -0.14084811D-03
  0.81318230D-04 -0.86434957D-04 -0.56218544D-04  0.32457575D-04  0.82268678D-04
  0.67806734D-04  0.19016647D-04 -0.86823382D-04 -0.84505594D-04  0.31467804D-04
 -0.18167824D-04 -0.13036836D-04 -0.77304036D-05  0.20767240D-04  0.91911895D-05
 -0.41110354D-06  0.23738474D-06 -0.15116590D-04 -0.27263392D-04 -0.40199856D-04
  0.23878550D-03  0.48876960D-03  0.61765368D-05 -0.36231834D-04 -0.20918519D-04
  0.23412218D-04  0.14084811D-03  0.81318230D-04 -0.86434957D-04  0.56218544D-04
  0.32457575D-04  0.82268678D-04  0.67806734D-04  0.19016647D-04 -0.86823382D-04
  0.84505594D-04 -0.31467804D-04 -0.18167824D-04 -0.13036836D-04 -0.77304036D-05
  0.20767240D-04 -0.91911895D-05  0.41110354D-06  0.23738474D-06
MO    3     MO 0.0        OCC NO =    2.0000000  ORB. ENERGY =  -56.086257
 -0.89345931D-04 -0.16656113D-03 -0.28151765D-03 -0.42321324D-03 -0.51996637D-03
 -0.43919472D-03 -0.16564809D-03  0.81980164D-06  0.67599168D-04  0.12656697D-03
  0.21549110D-03  0.33333196D-03  0.43898647D-03  0.45613506D-03  0.28985335D-03
 -0.19425298D-03 -0.32689617D-03  0.22102502D-02  0.18114752D-03 -0.63710167D-17
 -0.59732331D-17 -0.42532978D-17  0.99433717D-10  0.93225430D-10  0.66382060D-10
 -0.20645978D-03 -0.19356916D-03 -0.13783278D-03 -0.14087361D-15 -0.36571941D-09
  0.12076354D-03  0.33023048D-15  0.11258287D-08  0.31837059D-03  0.14053976D-16
  0.14068043D-10  0.98903912D-05  0.29334095D-04  0.29333860D-04 -0.58667955D-04
  0.99474829D-16  0.49283445D-16 -0.12835298D-08 -0.32094034D-04 -0.32093226D-04
  0.64187261D-04  0.19442779D-16  0.23113785D-16  0.12147069D-08 -0.12356803D-04
 -0.12356375D-04  0.24713178D-04 -0.58543897D-16  0.29139632D-18  0.18529091D-09
  0.35024316D-17  0.20546937D-04  0.50401599D-04 -0.72633208D-17 -0.61640356D-04
 -0.75602443D-04 -0.32439741D-17 -0.45512338D-09 -0.75602354D-04 -0.44956515D-16
 -0.26596997D-17  0.48193072D-04  0.38497381D-04 -0.10751433D-17 -0.14457942D-03
 -0.57746190D-04  0.90542425D-17  0.20730729D-09 -0.57745952D-04 -0.14342012D-16
  0.21125957D-04  0.39740499D-04  0.68792763D-04  0.11276450D-03  0.17664778D-03
  0.26551665D-03  0.37948999D-03  0.50378239D-03  0.58672302D-03  0.53889942D-03
  0.31511569D-03  0.82687932D-04  0.45205170D-05 -0.16179812D-06  0.45217467D-07
 -0.13426592D-07  0.22890015D-08  0.18675104D-09 -0.25584952D-03 -0.47007485D-03
 -0.81286775D-03 -0.13311846D-02 -0.20958903D-02 -0.31649996D-02 -0.46199329D-02
 -0.63619283D-02 -0.81288412D-02 -0.88613893D-02 -0.72942879D-02 -0.20000442D-02
  0.40342189D-02  0.39315225D-02  0.86032788D-03  0.28983654D-04  0.98187359D-06
 -0.24977598D-08  0.54140770D-04  0.10613760D-03  0.18589737D-03  0.30369581D-03
  0.47900145D-03  0.72279179D-03  0.10597564D-02  0.14631690D-02  0.18970058D-02
  0.21095821D-02  0.18323020D-02  0.53225095D-03 -0.13417982D-02 -0.19550945D-02
 -0.33657651D-03  0.82110256D-03  0.39082412D-03 -0.18874090D-05 -0.29258824D-04
 -0.63396806D-04 -0.10792301D-03 -0.17615941D-03 -0.27769803D-03 -0.41912653D-03
 -0.61450781D-03 -0.84951341D-03 -0.11025832D-02 -0.12317782D-02 -0.10759862D-02
 -0.31870815D-03  0.82845811D-03  0.12744486D-02  0.22306742D-03 -0.70365385D-03
 -0.59729571D-03  0.22284569D-03  0.21236983D-03 -0.10098177D-02 -0.12863946D-03
 -0.13620035D-11 -0.19542338D-11 -0.25875095D-11 -0.29878404D-11 -0.27698655D-11
 -0.17932614D-11 -0.63295542D-12 -0.74187833D-13 -0.10785538D-14 -0.15794219D-15
 -0.16238910D-17 -0.31698553D-03 -0.45481811D-03 -0.60220336D-03 -0.69537426D-03
 -0.64464393D-03 -0.41735423D-03 -0.14731072D-03 -0.17266086D-04 -0.25101694D-06
 -0.36758636D-07 -0.37793587D-09  0.52020072D+02  0.74639593D+02  0.98826789D+02
  0.11411694D+03  0.10579165D+03  0.68491445D+02  0.24174965D+02  0.28335143D+01
  0.41194054D-01  0.60324107D-02  0.62022550D-04  0.23771792D-14  0.34314854D-14
  0.45843825D-14  0.54463871D-14  0.52779666D-14  0.36688600D-14  0.11938119D-14
 -0.53731008D-15 -0.58047415D-15 -0.14944129D-15  0.14576618D-18  0.80765751D-07
  0.11658629D-06  0.15575650D-06  0.18504350D-06  0.17932133D-06  0.12465120D-06
  0.40560305D-07 -0.18255356D-07 -0.19721875D-07 -0.50773363D-08  0.49524728D-11
 -0.38549582D-01 -0.55646765D-01 -0.74342748D-01 -0.88321466D-01 -0.85590270D-01
 -0.59496156D-01 -0.19359478D-01  0.87133016D-02  0.94132728D-02  0.24234183D-02
 -0.23638207D-05 -0.17346507D-14 -0.25205244D-14 -0.33510664D-14 -0.40210477D-14
 -0.38903814D-14 -0.27617178D-14 -0.85834884D-15  0.49280976D-15  0.56612901D-15
  0.15034054D-15 -0.54243334D-16 -0.75487290D-07 -0.10968638D-06 -0.14582932D-06
 -0.17498508D-06 -0.16929884D-06 -0.12018247D-06 -0.37353013D-07  0.21445743D-07
  0.24636398D-07  0.65424122D-08 -0.23605227D-08  0.30054609D-01  0.43670680D-01
  0.58060676D-01  0.69668792D-01  0.67404865D-01  0.47849605D-01  0.14871778D-01
 -0.85384366D-02 -0.98087682D-02 -0.26048046D-02  0.93982162D-03  0.93667287D-16
  0.10341134D-07 -0.22447326D-02 -0.29174523D-17  0.13520185D-09  0.26300539D-03
  0.34507584D-18 -0.20171458D-10  0.51298225D-05  0.32068605D-02  0.33556340D-02
  0.28591797D-02  0.18829860D-02  0.86781219D-03  0.25986776D-03  0.44214297D-04
  0.32068581D-02  0.33556315D-02  0.28591777D-02  0.18829846D-02  0.86781156D-03
  0.25986758D-03  0.44214265D-04 -0.64137186D-02 -0.67112655D-02 -0.57183574D-02
 -0.37659707D-02 -0.17356238D-02 -0.51973534D-03 -0.88428562D-04  0.20712526D-15
  0.21673427D-15  0.18466919D-15  0.12161863D-15  0.56050404D-16  0.16784384D-16
  0.28557207D-17  0.11805919D-14  0.12353622D-14  0.10525948D-14  0.69321322D-15
  0.31948133D-15  0.95669203D-16  0.16277304D-16  0.84080690D-07  0.87981383D-07
  0.74964847D-07  0.49370019D-07  0.22753172D-07  0.68134742D-08  0.11592549D-08
 -0.10246196D-03 -0.10246178D-03  0.20492375D-03 -0.12632049D-16 -0.67356646D-16
 -0.11779012D-08  0.11895995D-03  0.11895982D-03 -0.23791976D-03  0.76959469D-17
  0.50635450D-16  0.78880218D-09  0.12371818D-04  0.12371804D-04 -0.24743622D-04
  0.13832005D-17 -0.33748231D-17 -0.24225418D-11 -0.59163231D-18 -0.19282980D-05
  0.36333848D-04  0.68674091D-18  0.57851294D-05 -0.54500836D-04  0.10881560D-17
 -0.23532270D-09 -0.54500709D-04  0.56788877D-17  0.25478113D-17 -0.99870440D-06
  0.27587705D-04  0.20263071D-17  0.29962742D-05 -0.41381593D-04 -0.96697411D-17