 Molden2AIM, Version 4.0.0 (06/02/2016)           Time: Thu Jun 28 22:34:47 2018
GAUSSIAN             12 MOL ORBITALS    462 PRIMITIVES        8 NUCLEI
  C    1    (CENTRE  1)  -3.33535527  2.04906972  0.04705229  CHARGE =  6.0
  C    2    (CENTRE  2)  -0.57659701  3.02058926 -0.09365105  CHARGE =  6.0
  H    3    (CENTRE  3)  -4.41856896  2.81690135  1.66580303  CHARGE =  1.0
  H    4    (CENTRE  4)  -3.49351401 -0.02979720  0.23778046  CHARGE =  1.0
  H    5    (CENTRE  5)  -4.48721704  2.51983262 -1.63660865  CHARGE =  1.0
  Li   6    (CENTRE  6)   1.62785544  2.28296868  2.75713309  CHARGE =  3.0
  Li   7    (CENTRE  7)  -0.07477457  6.64888799 -0.43376962  CHARGE =  3.0
  Li   8    (CENTRE  8)   1.47855762  1.78081743 -2.88695161  CHARGE =  3.0
CENTRE ASSIGNMENTS    1  1  1  1  1  1  1  1  1  1  1  1  1  1  1  1  1  1  1  1
CENTRE ASSIGNMENTS    1  1  1  1  1  1  1  1  1  1  1  1  1  1  1  1  1  1  1  1
CENTRE ASSIGNMENTS    1  1  1  1  1  1  1  1  1  1  1  1  1  1  1  1  1  1  1  1
CENTRE ASSIGNMENTS    1  1  1  1  1  1  1  1  1  1  1  1  1  1  1  2  2  2  2  2
CENTRE ASSIGNMENTS    2  2  2  2  2  2  2  2  2  2  2  2  2  2  2  2  2  2  2  2
CENTRE ASSIGNMENTS    2  2  2  2  2  2  2  2  2  2  2  2  2  2  2  2  2  2  2  2
CENTRE ASSIGNMENTS    2  2  2  2  2  2  2  2  2  2  2  2  2  2  2  2  2  2  2  2
CENTRE ASSIGNMENTS    2  2  2  2  2  2  2  2  2  2  3  3  3  3  3  3  3  3  3  3
CENTRE ASSIGNMENTS    3  3  3  3  3  3  3  3  3  3  3  3  3  3  3  3  3  4  4  4
CENTRE ASSIGNMENTS    4  4  4  4  4  4  4  4  4  4  4  4  4  4  4  4  4  4  4  4
CENTRE ASSIGNMENTS    4  4  4  4  5  5  5  5  5  5  5  5  5  5  5  5  5  5  5  5
CENTRE ASSIGNMENTS    5  5  5  5  5  5  5  5  5  5  5  6  6  6  6  6  6  6  6  6
CENTRE ASSIGNMENTS    6  6  6  6  6  6  6  6  6  6  6  6  6  6  6  6  6  6  6  6
CENTRE ASSIGNMENTS    6  6  6  6  6  6  6  6  6  6  6  6  6  6  6  6  6  6  6  6
CENTRE ASSIGNMENTS    6  6  6  6  6  6  6  6  6  6  6  6  6  6  6  6  6  6  6  6
CENTRE ASSIGNMENTS    6  6  6  6  6  6  6  6  7  7  7  7  7  7  7  7  7  7  7  7
CENTRE ASSIGNMENTS    7  7  7  7  7  7  7  7  7  7  7  7  7  7  7  7  7  7  7  7
CENTRE ASSIGNMENTS    7  7  7  7  7  7  7  7  7  7  7  7  7  7  7  7  7  7  7  7
CENTRE ASSIGNMENTS    7  7  7  7  7  7  7  7  7  7  7  7  7  7  7  7  7  7  7  7
CENTRE ASSIGNMENTS    7  7  7  7  7  8  8  8  8  8  8  8  8  8  8  8  8  8  8  8
CENTRE ASSIGNMENTS    8  8  8  8  8  8  8  8  8  8  8  8  8  8  8  8  8  8  8  8
CENTRE ASSIGNMENTS    8  8  8  8  8  8  8  8  8  8  8  8  8  8  8  8  8  8  8  8
CENTRE ASSIGNMENTS    8  8  8  8  8  8  8  8  8  8  8  8  8  8  8  8  8  8  8  8
CENTRE ASSIGNMENTS    8  8
TYPE ASSIGNMENTS      1  1  1  1  1  1  1  1  1  1  1  1  1  1  1  1  1  1  1  2
TYPE ASSIGNMENTS      2  2  3  3  3  4  4  4  2  3  4  2  3  4  2  3  4  5  6  7
TYPE ASSIGNMENTS      8  9 10  5  6  7  8  9 10  5  6  7  8  9 10 11 12 13 17 14
TYPE ASSIGNMENTS     15 18 19 16 20 11 12 13 17 14 15 18 19 16 20  1  1  1  1  1
TYPE ASSIGNMENTS      1  1  1  1  1  1  1  1  1  1  1  1  1  1  2  2  2  3  3  3
TYPE ASSIGNMENTS      4  4  4  2  3  4  2  3  4  2  3  4  5  6  7  8  9 10  5  6
TYPE ASSIGNMENTS      7  8  9 10  5  6  7  8  9 10 11 12 13 17 14 15 18 19 16 20
TYPE ASSIGNMENTS     11 12 13 17 14 15 18 19 16 20  1  1  1  1  1  1  2  3  4  2
TYPE ASSIGNMENTS      3  4  2  3  4  5  6  7  8  9 10  5  6  7  8  9 10  1  1  1
TYPE ASSIGNMENTS      1  1  1  2  3  4  2  3  4  2  3  4  5  6  7  8  9 10  5  6
TYPE ASSIGNMENTS      7  8  9 10  1  1  1  1  1  1  2  3  4  2  3  4  2  3  4  5
TYPE ASSIGNMENTS      6  7  8  9 10  5  6  7  8  9 10  1  1  1  1  1  1  1  1  1
TYPE ASSIGNMENTS      1  1  1  1  1  1  1  1  1  1  1  1  2  2  2  3  3  3  4  4
TYPE ASSIGNMENTS      4  2  3  4  2  3  4  2  3  4  5  6  7  8  9 10  5  6  7  8
TYPE ASSIGNMENTS      9 10  5  6  7  8  9 10 11 12 13 17 14 15 18 19 16 20 11 12
TYPE ASSIGNMENTS     13 17 14 15 18 19 16 20  1  1  1  1  1  1  1  1  1  1  1  1
TYPE ASSIGNMENTS      1  1  1  1  1  1  1  1  1  2  2  2  3  3  3  4  4  4  2  3
TYPE ASSIGNMENTS      4  2  3  4  2  3  4  5  6  7  8  9 10  5  6  7  8  9 10  5
TYPE ASSIGNMENTS      6  7  8  9 10 11 12 13 17 14 15 18 19 16 20 11 12 13 17 14
TYPE ASSIGNMENTS     15 18 19 16 20  1  1  1  1  1  1  1  1  1  1  1  1  1  1  1
TYPE ASSIGNMENTS      1  1  1  1  1  1  2  2  2  3  3  3  4  4  4  2  3  4  2  3
TYPE ASSIGNMENTS      4  2  3  4  5  6  7  8  9 10  5  6  7  8  9 10  5  6  7  8
TYPE ASSIGNMENTS      9 10 11 12 13 17 14 15 18 19 16 20 11 12 13 17 14 15 18 19
TYPE ASSIGNMENTS     16 20
EXPONENTS  0.8236000D+04 0.1235000D+04 0.2808000D+03 0.7927000D+02 0.2559000D+02
EXPONENTS  0.8997000D+01 0.3319000D+01 0.3643000D+00 0.8236000D+04 0.1235000D+04
EXPONENTS  0.2808000D+03 0.7927000D+02 0.2559000D+02 0.8997000D+01 0.3319000D+01
EXPONENTS  0.3643000D+00 0.9059000D+00 0.1285000D+00 0.4402000D-01 0.1871000D+02
EXPONENTS  0.4133000D+01 0.1200000D+01 0.1871000D+02 0.4133000D+01 0.1200000D+01
EXPONENTS  0.1871000D+02 0.4133000D+01 0.1200000D+01 0.3827000D+00 0.3827000D+00
EXPONENTS  0.3827000D+00 0.1209000D+00 0.1209000D+00 0.1209000D+00 0.3569000D-01
EXPONENTS  0.3569000D-01 0.3569000D-01 0.1097000D+01 0.1097000D+01 0.1097000D+01
EXPONENTS  0.1097000D+01 0.1097000D+01 0.1097000D+01 0.3180000D+00 0.3180000D+00
EXPONENTS  0.3180000D+00 0.3180000D+00 0.3180000D+00 0.3180000D+00 0.1000000D+00
EXPONENTS  0.1000000D+00 0.1000000D+00 0.1000000D+00 0.1000000D+00 0.1000000D+00
EXPONENTS  0.7610000D+00 0.7610000D+00 0.7610000D+00 0.7610000D+00 0.7610000D+00
EXPONENTS  0.7610000D+00 0.7610000D+00 0.7610000D+00 0.7610000D+00 0.7610000D+00
EXPONENTS  0.2680000D+00 0.2680000D+00 0.2680000D+00 0.2680000D+00 0.2680000D+00
EXPONENTS  0.2680000D+00 0.2680000D+00 0.2680000D+00 0.2680000D+00 0.2680000D+00
EXPONENTS  0.8236000D+04 0.1235000D+04 0.2808000D+03 0.7927000D+02 0.2559000D+02
EXPONENTS  0.8997000D+01 0.3319000D+01 0.3643000D+00 0.8236000D+04 0.1235000D+04
EXPONENTS  0.2808000D+03 0.7927000D+02 0.2559000D+02 0.8997000D+01 0.3319000D+01
EXPONENTS  0.3643000D+00 0.9059000D+00 0.1285000D+00 0.4402000D-01 0.1871000D+02
EXPONENTS  0.4133000D+01 0.1200000D+01 0.1871000D+02 0.4133000D+01 0.1200000D+01
EXPONENTS  0.1871000D+02 0.4133000D+01 0.1200000D+01 0.3827000D+00 0.3827000D+00
EXPONENTS  0.3827000D+00 0.1209000D+00 0.1209000D+00 0.1209000D+00 0.3569000D-01
EXPONENTS  0.3569000D-01 0.3569000D-01 0.1097000D+01 0.1097000D+01 0.1097000D+01
EXPONENTS  0.1097000D+01 0.1097000D+01 0.1097000D+01 0.3180000D+00 0.3180000D+00
EXPONENTS  0.3180000D+00 0.3180000D+00 0.3180000D+00 0.3180000D+00 0.1000000D+00
EXPONENTS  0.1000000D+00 0.1000000D+00 0.1000000D+00 0.1000000D+00 0.1000000D+00
EXPONENTS  0.7610000D+00 0.7610000D+00 0.7610000D+00 0.7610000D+00 0.7610000D+00
EXPONENTS  0.7610000D+00 0.7610000D+00 0.7610000D+00 0.7610000D+00 0.7610000D+00
EXPONENTS  0.2680000D+00 0.2680000D+00 0.2680000D+00 0.2680000D+00 0.2680000D+00
EXPONENTS  0.2680000D+00 0.2680000D+00 0.2680000D+00 0.2680000D+00 0.2680000D+00
EXPONENTS  0.3387000D+02 0.5095000D+01 0.1159000D+01 0.3258000D+00 0.1027000D+00
EXPONENTS  0.2526000D-01 0.1407000D+01 0.1407000D+01 0.1407000D+01 0.3880000D+00
EXPONENTS  0.3880000D+00 0.3880000D+00 0.1020000D+00 0.1020000D+00 0.1020000D+00
EXPONENTS  0.1057000D+01 0.1057000D+01 0.1057000D+01 0.1057000D+01 0.1057000D+01
EXPONENTS  0.1057000D+01 0.2470000D+00 0.2470000D+00 0.2470000D+00 0.2470000D+00
EXPONENTS  0.2470000D+00 0.2470000D+00 0.3387000D+02 0.5095000D+01 0.1159000D+01
EXPONENTS  0.3258000D+00 0.1027000D+00 0.2526000D-01 0.1407000D+01 0.1407000D+01
EXPONENTS  0.1407000D+01 0.3880000D+00 0.3880000D+00 0.3880000D+00 0.1020000D+00
EXPONENTS  0.1020000D+00 0.1020000D+00 0.1057000D+01 0.1057000D+01 0.1057000D+01
EXPONENTS  0.1057000D+01 0.1057000D+01 0.1057000D+01 0.2470000D+00 0.2470000D+00
EXPONENTS  0.2470000D+00 0.2470000D+00 0.2470000D+00 0.2470000D+00 0.3387000D+02
EXPONENTS  0.5095000D+01 0.1159000D+01 0.3258000D+00 0.1027000D+00 0.2526000D-01
EXPONENTS  0.1407000D+01 0.1407000D+01 0.1407000D+01 0.3880000D+00 0.3880000D+00
EXPONENTS  0.3880000D+00 0.1020000D+00 0.1020000D+00 0.1020000D+00 0.1057000D+01
EXPONENTS  0.1057000D+01 0.1057000D+01 0.1057000D+01 0.1057000D+01 0.1057000D+01
EXPONENTS  0.2470000D+00 0.2470000D+00 0.2470000D+00 0.2470000D+00 0.2470000D+00
EXPONENTS  0.2470000D+00 0.5988000D+04 0.8989000D+03 0.2059000D+03 0.5924000D+02
EXPONENTS  0.1987000D+02 0.7406000D+01 0.2930000D+01 0.1189000D+01 0.4798000D+00
EXPONENTS  0.5988000D+04 0.8989000D+03 0.2059000D+03 0.5924000D+02 0.1987000D+02
EXPONENTS  0.7406000D+01 0.2930000D+01 0.1189000D+01 0.4798000D+00 0.7509000D-01
EXPONENTS  0.2832000D-01 0.7600000D-02 0.3266000D+01 0.6511000D+00 0.1696000D+00
EXPONENTS  0.3266000D+01 0.6511000D+00 0.1696000D+00 0.3266000D+01 0.6511000D+00
EXPONENTS  0.1696000D+00 0.5578000D-01 0.5578000D-01 0.5578000D-01 0.2050000D-01
EXPONENTS  0.2050000D-01 0.2050000D-01 0.9100000D-02 0.9100000D-02 0.9100000D-02
EXPONENTS  0.1874000D+00 0.1874000D+00 0.1874000D+00 0.1874000D+00 0.1874000D+00
EXPONENTS  0.1874000D+00 0.8010000D-01 0.8010000D-01 0.8010000D-01 0.8010000D-01
EXPONENTS  0.8010000D-01 0.8010000D-01 0.3710000D-01 0.3710000D-01 0.3710000D-01
EXPONENTS  0.3710000D-01 0.3710000D-01 0.3710000D-01 0.1829000D+00 0.1829000D+00
EXPONENTS  0.1829000D+00 0.1829000D+00 0.1829000D+00 0.1829000D+00 0.1829000D+00
EXPONENTS  0.1829000D+00 0.1829000D+00 0.1829000D+00 0.8160000D-01 0.8160000D-01
EXPONENTS  0.8160000D-01 0.8160000D-01 0.8160000D-01 0.8160000D-01 0.8160000D-01
EXPONENTS  0.8160000D-01 0.8160000D-01 0.8160000D-01 0.5988000D+04 0.8989000D+03
EXPONENTS  0.2059000D+03 0.5924000D+02 0.1987000D+02 0.7406000D+01 0.2930000D+01
EXPONENTS  0.1189000D+01 0.4798000D+00 0.5988000D+04 0.8989000D+03 0.2059000D+03
EXPONENTS  0.5924000D+02 0.1987000D+02 0.7406000D+01 0.2930000D+01 0.1189000D+01
EXPONENTS  0.4798000D+00 0.7509000D-01 0.2832000D-01 0.7600000D-02 0.3266000D+01
EXPONENTS  0.6511000D+00 0.1696000D+00 0.3266000D+01 0.6511000D+00 0.1696000D+00
EXPONENTS  0.3266000D+01 0.6511000D+00 0.1696000D+00 0.5578000D-01 0.5578000D-01
EXPONENTS  0.5578000D-01 0.2050000D-01 0.2050000D-01 0.2050000D-01 0.9100000D-02
EXPONENTS  0.9100000D-02 0.9100000D-02 0.1874000D+00 0.1874000D+00 0.1874000D+00
EXPONENTS  0.1874000D+00 0.1874000D+00 0.1874000D+00 0.8010000D-01 0.8010000D-01
EXPONENTS  0.8010000D-01 0.8010000D-01 0.8010000D-01 0.8010000D-01 0.3710000D-01
EXPONENTS  0.3710000D-01 0.3710000D-01 0.3710000D-01 0.3710000D-01 0.3710000D-01
EXPONENTS  0.1829000D+00 0.1829000D+00 0.1829000D+00 0.1829000D+00 0.1829000D+00
EXPONENTS  0.1829000D+00 0.1829000D+00 0.1829000D+00 0.1829000D+00 0.1829000D+00
EXPONENTS  0.8160000D-01 0.8160000D-01 0.8160000D-01 0.8160000D-01 0.8160000D-01
EXPONENTS  0.8160000D-01 0.8160000D-01 0.8160000D-01 0.8160000D-01 0.8160000D-01
EXPONENTS  0.5988000D+04 0.8989000D+03 0.2059000D+03 0.5924000D+02 0.1987000D+02
EXPONENTS  0.7406000D+01 0.2930000D+01 0.1189000D+01 0.4798000D+00 0.5988000D+04
EXPONENTS  0.8989000D+03 0.2059000D+03 0.5924000D+02 0.1987000D+02 0.7406000D+01
EXPONENTS  0.2930000D+01 0.1189000D+01 0.4798000D+00 0.7509000D-01 0.2832000D-01
EXPONENTS  0.7600000D-02 0.3266000D+01 0.6511000D+00 0.1696000D+00 0.3266000D+01
EXPONENTS  0.6511000D+00 0.1696000D+00 0.3266000D+01 0.6511000D+00 0.1696000D+00
EXPONENTS  0.5578000D-01 0.5578000D-01 0.5578000D-01 0.2050000D-01 0.2050000D-01
EXPONENTS  0.2050000D-01 0.9100000D-02 0.9100000D-02 0.9100000D-02 0.1874000D+00
EXPONENTS  0.1874000D+00 0.1874000D+00 0.1874000D+00 0.1874000D+00 0.1874000D+00
EXPONENTS  0.8010000D-01 0.8010000D-01 0.8010000D-01 0.8010000D-01 0.8010000D-01
EXPONENTS  0.8010000D-01 0.3710000D-01 0.3710000D-01 0.3710000D-01 0.3710000D-01
EXPONENTS  0.3710000D-01 0.3710000D-01 0.1829000D+00 0.1829000D+00 0.1829000D+00
EXPONENTS  0.1829000D+00 0.1829000D+00 0.1829000D+00 0.1829000D+00 0.1829000D+00
EXPONENTS  0.1829000D+00 0.1829000D+00 0.8160000D-01 0.8160000D-01 0.8160000D-01
EXPONENTS  0.8160000D-01 0.8160000D-01 0.8160000D-01 0.8160000D-01 0.8160000D-01
EXPONENTS  0.8160000D-01 0.8160000D-01
MO    1     MO 0.0        OCC NO =    2.0000000  ORB. ENERGY =   -9.986930
  0.32948565D+00  0.61423616D+00  0.10381673D+01  0.15607056D+01  0.19175071D+01
  0.16196413D+01  0.61086910D+00 -0.30232253D-02 -0.25257251D-02 -0.47289543D-02
 -0.80514494D-02 -0.12454368D-01 -0.16401964D-01 -0.17042692D-01 -0.10829865D-01
  0.72579240D-02  0.30979245D-01 -0.14263593D-02 -0.63886870D-04 -0.15619984D-03
 -0.14644728D-03 -0.10427919D-03 -0.56557540D-04 -0.53026289D-04 -0.37757877D-04
  0.53982878D-05  0.50612380D-05  0.36039029D-05 -0.19688566D-02 -0.69248561D-03
  0.10192529D-03 -0.48427307D-03 -0.17686155D-03  0.15097838D-04 -0.57000660D-04
 -0.20539369D-04  0.21834966D-05 -0.51488311D-03  0.20835702D-03  0.30652609D-03
 -0.57689237D-03  0.89613627D-04  0.30414259D-04 -0.49080358D-03  0.19889505D-03
  0.29190854D-03 -0.55169674D-03  0.85316736D-04  0.25021053D-04 -0.60001148D-05
  0.26204993D-05  0.33796155D-05 -0.76855630D-05  0.85914185D-06 -0.19493523D-05
  0.72305279D-03 -0.11947188D-02 -0.14958512D-03  0.21397697D-03  0.14245583D-02
 -0.27226499D-03 -0.23831353D-02  0.21595982D-02  0.72102033D-03 -0.43329767D-03
 -0.15508359D-03  0.17050404D-03  0.64916286D-05  0.54896342D-04 -0.35071591D-03
  0.58142221D-04  0.41035443D-03 -0.16079621D-03 -0.77617107D-04  0.70763132D-04
  0.59295013D-03  0.11053939D-02  0.18683104D-02  0.28086824D-02  0.34507909D-02
  0.29147446D-02  0.10993344D-02 -0.54406674D-05 -0.14700461D-03 -0.27523902D-03
 -0.46861798D-03 -0.72488076D-03 -0.95464246D-03 -0.99193467D-03 -0.63032995D-03
  0.42243248D-03  0.39238378D-03  0.30143686D-02 -0.11143498D-02 -0.40058635D-03
 -0.37557516D-03 -0.26743189D-03 -0.14181238D-03 -0.13295812D-03 -0.94674105D-04
  0.19296344D-04  0.18091549D-04  0.12882261D-04 -0.63894276D-03 -0.22425740D-03
  0.33753595D-04 -0.74259109D-03 -0.26368584D-03  0.34634734D-04  0.87581706D-04
  0.31776176D-04 -0.30428497D-05  0.10638487D-04 -0.43982090D-05 -0.62402779D-05
  0.10880052D-04 -0.30277705D-05 -0.16353729D-05 -0.49704439D-04  0.20318855D-04
  0.29385584D-04 -0.54515563D-04  0.10285641D-04  0.35899159D-05  0.78184047D-04
 -0.31886770D-04 -0.46297277D-04  0.88120653D-04 -0.14112348D-04 -0.26773714D-05
  0.23714818D-03 -0.10583775D-03  0.36544927D-04 -0.26612237D-03  0.61831666D-03
 -0.88709326D-04 -0.44532218D-03 -0.30080341D-03 -0.20925455D-04 -0.66683560D-04
  0.21325641D-04 -0.24791353D-04 -0.17547174D-05 -0.50984740D-05  0.47389121D-04
 -0.60225807D-05 -0.58878449D-04  0.26984939D-04  0.11286733D-04 -0.12666207D-04
 -0.32021753D-04 -0.57752550D-04 -0.85156101D-04 -0.53576819D-03 -0.59668191D-04
 -0.47270878D-04 -0.82847106D-03  0.58465003D-03  0.12342512D-02 -0.10937209D-02
  0.55632260D-03  0.13368263D-02 -0.97835125D-04  0.11192927D-03  0.20433663D-03
 -0.14280953D-05  0.60758222D-03 -0.60615413D-03  0.98033113D-03  0.22936204D-02
 -0.13271446D-02 -0.95222407D-05  0.10657148D-03 -0.97049235D-04  0.13416638D-03
  0.37515721D-03 -0.24930874D-03 -0.31395116D-04 -0.56622385D-04 -0.83489673D-04
 -0.54929763D-03 -0.82760239D-04 -0.48646891D-04 -0.12378981D-03 -0.15883039D-02
  0.14486749D-03 -0.33677919D-03 -0.17802340D-02  0.16821468D-03  0.19459723D-04
 -0.25414410D-03  0.20096492D-04  0.81238221D-03 -0.16958167D-02  0.88343449D-03
 -0.77829284D-03  0.73718437D-04  0.48551005D-03  0.11373825D-03 -0.28181788D-03
  0.16807962D-03 -0.11813807D-03  0.12238006D-04  0.83783048D-04 -0.31365411D-04
 -0.56568810D-04 -0.83410678D-04 -0.55008702D-03 -0.83667307D-04 -0.48734563D-04
 -0.88225194D-03  0.35746909D-03 -0.12858449D-02 -0.11533938D-02  0.31485782D-03
 -0.13718907D-02 -0.10816645D-03  0.73187188D-04 -0.21994041D-03 -0.10185427D-03
  0.80121057D-03 -0.69935630D-03  0.59411804D-03 -0.24901115D-02  0.80252716D-03
 -0.25099221D-04  0.14319256D-03 -0.11809334D-03  0.72572004D-04 -0.40123820D-03
  0.16087899D-03 -0.37453979D-04 -0.69613325D-04 -0.11855030D-03 -0.18488205D-03
 -0.25829075D-03 -0.30788731D-03 -0.29187617D-03 -0.18537087D-03 -0.45521633D-04
  0.28548225D-04  0.52784679D-04  0.89013235D-04  0.14183454D-03  0.19770667D-03
  0.25191046D-03  0.25017309D-03  0.22566203D-03  0.12916473D-03  0.46666613D-03
  0.66074595D-04  0.62761807D-06 -0.21731237D-04 -0.15946080D-04 -0.13094329D-04
  0.15704478D-04  0.11523728D-04  0.94628576D-05 -0.42234371D-04 -0.30990996D-04
 -0.25448655D-04 -0.68878702D-04 -0.36645144D-04  0.26559637D-04 -0.57907620D-05
 -0.27266267D-05  0.16275899D-05  0.18123164D-07  0.25457067D-06 -0.47551191D-06
 -0.21624013D-04  0.14429220D-04  0.71947923D-05 -0.93884735D-05 -0.29247925D-04
 -0.30422281D-05  0.65788311D-05  0.85367476D-05 -0.15115579D-04  0.95909832D-05
 -0.25321345D-04  0.19823040D-04  0.18340006D-05 -0.22889215D-06 -0.16051084D-05
  0.17783850D-05 -0.77764252D-06  0.11445814D-05  0.48782735D-05 -0.10253842D-05
 -0.32966926D-05 -0.10849170D-04  0.45860053D-05  0.14219566D-04 -0.37856507D-05
 -0.15098527D-05 -0.43294886D-05  0.58396951D-05 -0.10405252D-05  0.67966004D-06
  0.67016944D-08 -0.21344186D-05 -0.43796353D-06  0.27491863D-05  0.52559943D-05
 -0.16010166D-05 -0.27692913D-05 -0.46542987D-05 -0.37445236D-04 -0.69597074D-04
 -0.11852262D-03 -0.18483889D-03 -0.25823045D-03 -0.30781544D-03 -0.29180803D-03
 -0.18532760D-03 -0.45511006D-04  0.28541864D-04  0.52772918D-04  0.88993402D-04
  0.14180294D-03  0.19766262D-03  0.25185433D-03  0.25011735D-03  0.22561175D-03
  0.12913595D-03  0.46637212D-03  0.65922322D-04  0.68442814D-06  0.38939510D-05
  0.28573273D-05  0.23463311D-05 -0.49639201D-04 -0.36424558D-04 -0.29910494D-04
  0.47026073D-05  0.34507081D-05  0.28335933D-05 -0.81948570D-04 -0.16850202D-05
  0.18226662D-05 -0.65198786D-05 -0.73451034D-06  0.18846244D-06  0.29102925D-06
 -0.45528973D-06  0.48973329D-07 -0.56394326D-05 -0.90021264D-05  0.14641559D-04
 -0.41408376D-04  0.49847766D-05  0.47064138D-05  0.12072642D-04 -0.23889829D-04
  0.11817188D-04  0.79587829D-05 -0.49910441D-06  0.64235032D-05  0.17145902D-05
 -0.14819250D-05 -0.23266525D-06  0.25523254D-05 -0.22723463D-06  0.17577333D-06
 -0.18666153D-05 -0.10866174D-05  0.99522123D-06  0.12916554D-04  0.12670095D-04
 -0.14190121D-05 -0.73167084D-05 -0.94102426D-05 -0.15666516D-05 -0.47833099D-05
 -0.44343542D-06  0.27099030D-05  0.41289518D-06  0.23770002D-05 -0.40482126D-05
  0.35387961D-06 -0.10466940D-05 -0.40814966D-05 -0.15925651D-05 -0.68126204D-06
 -0.37293572D-04 -0.69315187D-04 -0.11804257D-03 -0.18409024D-03 -0.25718454D-03
 -0.30656870D-03 -0.29062613D-03 -0.18457697D-03 -0.45326674D-04  0.28433706D-04
  0.52572938D-04  0.88656166D-04  0.14126558D-03  0.19691359D-03  0.25089994D-03
  0.24916954D-03  0.22475681D-03  0.12864659D-03  0.46245292D-03  0.64016417D-04
  0.15558667D-05 -0.16169672D-04 -0.11865081D-04 -0.97431641D-05  0.23160837D-04
  0.16995101D-04  0.13955746D-04  0.41133916D-04  0.30183497D-04  0.24785567D-04
 -0.63225904D-04 -0.38092490D-04 -0.19046723D-04 -0.52094805D-05 -0.27816682D-05
 -0.10357286D-05 -0.24146517D-07  0.34337421D-06  0.47737266D-06 -0.21520255D-04
  0.14431775D-04  0.70884792D-05 -0.32369698D-05  0.33629990D-04  0.15701824D-05
  0.68591456D-05  0.52803965D-05 -0.12139542D-04  0.12471343D-04  0.23226047D-04
 -0.26887186D-04  0.17024159D-05 -0.33249201D-06 -0.13699238D-05  0.18562422D-05
  0.57122291D-06 -0.15858246D-05  0.42904517D-05 -0.35496797D-06  0.38931617D-05
 -0.11411521D-04  0.15394654D-05 -0.16373258D-04 -0.14598337D-05 -0.47456153D-06
  0.46937733D-05 -0.33049275D-05 -0.11325183D-05  0.11088824D-05  0.14394569D-06
 -0.12334302D-05 -0.67874434D-06 -0.21967592D-05  0.46309852D-05 -0.26479028D-05
  0.17649221D-05  0.67638198D-05
MO    2     MO 0.0        OCC NO =    2.0000000  ORB. ENERGY =   -9.940573
 -0.23511120D-03 -0.43830074D-03 -0.74080546D-03 -0.11136733D-02 -0.13682763D-02
 -0.11557281D-02 -0.43589810D-03  0.21572840D-05 -0.13273523D-03 -0.24852223D-03
 -0.42313036D-03 -0.65451833D-03 -0.86197762D-03 -0.89564996D-03 -0.56914534D-03
  0.38142797D-03  0.23577121D-03  0.90599381D-02 -0.33159325D-02  0.34177529D-03
  0.32043606D-03  0.22816956D-03  0.11880972D-03  0.11139166D-03  0.79317501D-04
 -0.19756548D-04 -0.18523020D-04 -0.13189493D-04  0.12505518D-02  0.44316705D-03
 -0.59580142D-04  0.30024088D-02  0.10664904D-02 -0.13930343D-03 -0.86772320D-04
 -0.30299563D-04  0.48255255D-05  0.85806088D-03 -0.34509514D-03 -0.51296574D-03
  0.96748963D-03 -0.13869039D-03 -0.52246995D-04 -0.12731349D-02  0.51035812D-03
  0.76277674D-03 -0.14379426D-02  0.19865008D-03  0.82065230D-04  0.53135476D-04
 -0.21479807D-04 -0.31655669D-04  0.61830104D-04 -0.74477273D-05 -0.88072626D-07
 -0.23347740D-03  0.74494711D-04 -0.44047298D-04  0.29667067D-03 -0.62713701D-03
  0.85301346D-04  0.40376153D-03  0.40365288D-03  0.46840548D-04  0.54727795D-04
 -0.18880523D-03 -0.44118711D-04 -0.67114457D-04  0.36243159D-03 -0.56097177D-03
  0.68888160D-04  0.20398409D-03  0.69332790D-03  0.13245521D-03  0.18932783D-04
  0.32832022D+00  0.61206355D+00  0.10344952D+01  0.15551852D+01  0.19107247D+01
  0.16139124D+01  0.60870839D+00 -0.30125318D-02 -0.15717249D-02 -0.29427650D-02
 -0.50103092D-02 -0.77501865D-02 -0.10206723D-01 -0.10605439D-01 -0.67392804D-02
  0.45165090D-02  0.30477546D-01 -0.92005506D-02  0.44902525D-02 -0.21673648D-02
 -0.20320423D-02 -0.14469352D-02 -0.77654305D-03 -0.72805847D-03 -0.51842101D-03
  0.90235825D-04  0.84601821D-04  0.60241537D-04 -0.20005466D-02 -0.70067869D-03
  0.10802238D-03  0.37671138D-02  0.13262664D-02 -0.19264244D-03 -0.54086309D-03
 -0.18899973D-03  0.29896433D-04  0.12273051D-02 -0.49256742D-03 -0.73473772D-03
  0.13891659D-02 -0.19030102D-03 -0.72750080D-04 -0.15118589D-03  0.59714686D-04
  0.91471200D-04 -0.17361524D-03  0.18462096D-04  0.99607320D-05 -0.46900242D-03
  0.18955327D-03  0.27944915D-03 -0.52614797D-03  0.80755556D-04  0.27900963D-04
 -0.12277765D-03  0.12646849D-03  0.23485366D-05  0.52915453D-04 -0.28422623D-03
  0.44317988D-04  0.31541749D-03 -0.95179242D-04 -0.51363598D-04  0.50516739D-04
  0.90964251D-04 -0.83946018D-04  0.12020289D-05 -0.51023071D-04  0.21609056D-03
 -0.33039319D-04 -0.22186968D-03  0.35747497D-04  0.29433233D-04 -0.33851081D-04
 -0.17471795D-05 -0.31511102D-05 -0.46463101D-05 -0.96844718D-03  0.64272345D-03
 -0.74001830D-05  0.17198387D-03  0.97805803D-04  0.41255436D-04 -0.12865492D-02
 -0.64081017D-03 -0.18750570D-03 -0.22084211D-03 -0.14636755D-03 -0.81404806D-04
 -0.66518899D-03  0.29182958D-03  0.37335941D-03 -0.24739270D-03  0.51693039D-03
  0.54655730D-03 -0.19235100D-03  0.91669581D-04  0.10068142D-03 -0.17599219D-03
  0.97882257D-04  0.21515333D-05 -0.13733884D-05 -0.24769625D-05 -0.36522798D-05
 -0.93023078D-03  0.65286307D-03 -0.58676768D-05  0.20514058D-03  0.13134970D-04
 -0.47009979D-05 -0.14358108D-02 -0.16549858D-03  0.45472454D-04 -0.27566993D-03
  0.22990525D-04  0.53016539D-05 -0.31949158D-03  0.18182195D-03  0.13766963D-03
 -0.12779413D-02  0.13328886D-03  0.20568725D-04 -0.16310134D-03  0.37623270D-04
  0.12547807D-03 -0.25493219D-03  0.34495860D-04  0.21833027D-04 -0.13512971D-05
 -0.24371199D-05 -0.35935319D-05 -0.92787459D-03  0.65266971D-03 -0.57690822D-05
  0.17655747D-03  0.87316552D-04 -0.59769717D-04 -0.12699174D-02 -0.59003569D-03
  0.36010099D-03 -0.21761214D-03 -0.12611650D-03  0.11529840D-03 -0.68414766D-03
  0.19923385D-03  0.48491382D-03 -0.34912541D-03 -0.36990557D-03 -0.46374093D-03
 -0.19703073D-03  0.93296504D-04  0.10373423D-03 -0.18983249D-03 -0.40256362D-04
  0.10841095D-04  0.40429974D-04  0.75144617D-04  0.12796999D-03  0.19957229D-03
  0.27881385D-03  0.33235123D-03  0.31506788D-03  0.20009995D-03  0.49138662D-04
 -0.34892137D-04 -0.64514352D-04 -0.10879352D-03 -0.17335264D-03 -0.24164053D-03
 -0.30788934D-03 -0.30576590D-03 -0.27580805D-03 -0.15786737D-03 -0.91042646D-03
 -0.60305325D-04 -0.17143597D-05 -0.19842120D-03 -0.14559873D-03 -0.11956027D-03
  0.22740643D-04  0.16686769D-04  0.13702555D-04 -0.17100222D-03 -0.12547906D-03
 -0.10303875D-03  0.26954175D-03  0.65692234D-04  0.36587858D-04  0.13405703D-04
  0.36160618D-05  0.12821149D-05 -0.38643454D-06 -0.43293740D-06  0.60225245D-06
  0.86177414D-04 -0.96183793D-04  0.10006378D-04 -0.15235456D-04  0.26518865D-03
 -0.25965150D-04 -0.20915219D-04 -0.24122168D-05  0.23327436D-04  0.15773714D-04
 -0.32248128D-04 -0.51752118D-04 -0.32320398D-05  0.24376560D-05  0.79438382D-06
  0.52071195D-06 -0.76873278D-05 -0.10990533D-05 -0.16271166D-05  0.26311546D-06
  0.10071492D-04  0.36476273D-04  0.16363457D-05 -0.58977067D-04 -0.31594923D-04
 -0.24256921D-05  0.28762591D-04  0.21732120D-04 -0.54895498D-06 -0.98057221D-06
 -0.20842591D-05  0.12199893D-05 -0.57545803D-05  0.56773836D-05  0.42687567D-06
  0.86962969D-05  0.57539367D-06  0.29817832D-05  0.40431941D-04  0.75148273D-04
  0.12797622D-03  0.19958200D-03  0.27882741D-03  0.33236740D-03  0.31508321D-03
  0.20010969D-03  0.49141053D-04 -0.34893280D-04 -0.64516466D-04 -0.10879709D-03
 -0.17335832D-03 -0.24164845D-03 -0.30789944D-03 -0.30577592D-03 -0.27581709D-03
 -0.15787255D-03 -0.91068209D-03 -0.60441465D-04 -0.17347210D-05 -0.94256776D-04
 -0.69164316D-04 -0.56795168D-04 -0.24422044D-03 -0.17920557D-03 -0.14715696D-03
  0.24690284D-04  0.18117388D-04  0.14877327D-04  0.23827050D-03  0.14425162D-03
 -0.20907657D-04  0.12190266D-04  0.66377681D-05 -0.93042748D-06 -0.71753005D-06
  0.42576730D-06 -0.22876937D-07 -0.36751951D-04  0.13442922D-03 -0.97677268D-04
  0.20970589D-03 -0.22546415D-04 -0.47720366D-04  0.11134123D-04  0.69947340D-05
 -0.18128857D-04 -0.69796693D-04  0.53326215D-05 -0.18463066D-05  0.94539083D-06
 -0.29616517D-05  0.20162609D-05 -0.80421643D-05  0.78194406D-06  0.11727876D-05
  0.11065856D-04 -0.15413311D-04 -0.41366874D-05 -0.59696105D-04  0.89791855D-05
 -0.16292565D-06  0.26498538D-04  0.37260749D-04  0.12572988D-04  0.17572992D-04
 -0.30997798D-05 -0.13733899D-05 -0.52832568D-06  0.90035551D-05 -0.21865249D-05
  0.37871160D-06  0.29578418D-06  0.63066946D-05  0.12062654D-05 -0.13544217D-05
  0.40514316D-04  0.75301379D-04  0.12823695D-03  0.19998862D-03  0.27939549D-03
  0.33304456D-03  0.31572515D-03  0.20051739D-03  0.49241172D-04 -0.34954358D-04
 -0.64629396D-04 -0.10898753D-03 -0.17366177D-03 -0.24207143D-03 -0.30843838D-03
 -0.30631115D-03 -0.27629988D-03 -0.15814889D-03 -0.91379491D-03 -0.62655617D-04
 -0.21480789D-05 -0.18901948D-03 -0.13869988D-03 -0.11389519D-03  0.54377627D-04
  0.39901549D-04  0.32765670D-04  0.17476092D-03  0.12823714D-03  0.10530358D-03
  0.25844497D-03  0.52608490D-04 -0.66124542D-04  0.12819299D-04  0.30170295D-05
 -0.27135073D-05 -0.36347700D-06 -0.51763939D-06 -0.51592455D-06  0.70084742D-04
 -0.86833720D-04  0.16748977D-04 -0.59857159D-04 -0.26371001D-03  0.68701933D-04
 -0.17130169D-04  0.64728919D-05  0.10657277D-04  0.23629619D-04  0.31929975D-04
  0.54097736D-04 -0.25859125D-05  0.24754449D-05  0.11046760D-06  0.19472818D-05
  0.76061540D-05  0.14956528D-06  0.15579481D-05 -0.50223992D-05 -0.84797955D-05
  0.28308457D-04  0.94512050D-05  0.53476547D-04 -0.32982301D-04  0.56159925D-05
 -0.28037161D-04 -0.45796744D-04 -0.92273457D-06 -0.76298604D-06  0.38876556D-06
  0.10378439D-05 -0.64570419D-05 -0.40718482D-05  0.17303598D-05  0.87460000D-05
  0.29055516D-05 -0.14070628D-05
MO    3     MO 0.0        OCC NO =    2.0000000  ORB. ENERGY =   -1.868358
  0.41605310D-04  0.77561758D-04  0.13109304D-03  0.19707577D-03  0.24213036D-03
  0.20451779D-03  0.77136587D-04 -0.38175327D-06 -0.55635692D-04 -0.10416757D-03
 -0.17735420D-03 -0.27433998D-03 -0.36129611D-03 -0.37540980D-03 -0.23855607D-03
  0.15987473D-03  0.36658428D-03 -0.29674182D-03 -0.13642161D-01  0.91423880D-03
  0.85715698D-03  0.61034684D-03  0.33680143D-03  0.31577275D-03  0.22484901D-03
 -0.25530701D-04 -0.23936655D-04 -0.17044324D-04 -0.17053640D-02 -0.67866045D-03
 -0.20275568D-04  0.33102273D-02  0.13574489D-02  0.64925321D-04 -0.71705865D-03
 -0.26963464D-03  0.14764385D-04  0.14218930D-03 -0.50524768D-04 -0.91664530D-04
  0.15551032D-03 -0.66953465D-05 -0.38461376D-04 -0.97117778D-03  0.38282973D-03
  0.58834806D-03 -0.11395998D-02  0.10545780D-03  0.29963320D-04  0.58189929D-04
 -0.29874553D-04 -0.28315376D-04  0.76133866D-04 -0.23351009D-04  0.28720413D-04
  0.20085386D-04 -0.11157816D-03 -0.17337984D-04  0.97022466D-04 -0.73314442D-04
 -0.44336616D-04 -0.15727862D-03  0.40804892D-03  0.96350567D-04 -0.11037926D-03
 -0.13325144D-03  0.21983952D-04 -0.27610649D-04  0.18119177D-03 -0.36674769D-03
  0.26610302D-04  0.21856255D-03  0.30079583D-03  0.56221646D-04  0.52609498D-04
 -0.10791750D-02 -0.20118276D-02 -0.34003431D-02 -0.51118294D-02 -0.62804731D-02
 -0.53048635D-02 -0.20007993D-02  0.99020676D-05  0.22251787D-03  0.41662366D-03
  0.70933743D-03  0.10972371D-02  0.14450227D-02  0.15014712D-02  0.95411752D-03
 -0.63942737D-03 -0.12921051D-02  0.15262461D-01  0.25612502D-01  0.17678107D-02
  0.16574349D-02  0.11801924D-02  0.40539659D-03  0.38008507D-03  0.27064321D-03
 -0.37458869D-03 -0.35120070D-03 -0.25007582D-03 -0.83628864D-03 -0.36718762D-03
 -0.53636903D-04  0.54806751D-02  0.12111599D-02 -0.12107726D-02 -0.21169995D-02
 -0.76255090D-03  0.83002850D-04  0.23834427D-03 -0.45184702D-04 -0.19315956D-03
  0.37211562D-03  0.16111491D-03 -0.10050651D-03  0.12380892D-03 -0.16570160D-03
  0.41892672D-04 -0.69899927D-04 -0.45219354D-03  0.20360604D-03 -0.48477136D-03
  0.15258626D-03  0.33218510D-03 -0.59146082D-03 -0.62034087D-04  0.13638973D-03
 -0.32042598D-03  0.32661308D-03 -0.10407859D-04  0.14358336D-03 -0.62218324D-03
  0.17169790D-03  0.81769459D-03 -0.35765600D-03 -0.14047432D-03  0.26843881D-03
 -0.22522981D-03  0.30437328D-03  0.28479420D-04 -0.27855391D-04 -0.44933783D-03
  0.26729412D-04  0.70354482D-03 -0.46378202D-03 -0.11216767D-03  0.23577755D-03
 -0.32690161D-04 -0.58958052D-04 -0.86933614D-04  0.94811210D-04  0.23597885D-02
 -0.29987717D-03  0.11313629D-03  0.23132884D-03  0.25474699D-03 -0.80131253D-03
 -0.45355273D-03 -0.19634793D-03 -0.10621775D-03 -0.27358219D-03 -0.32085532D-03
 -0.19447519D-03  0.11119455D-03  0.83280647D-04 -0.74922878D-04  0.21933236D-03