 Molden2AIM, Version 4.0.0 (06/02/2016)           Time: Thu Jun 28 18:01:49 2018
GAUSSIAN             16 MOL ORBITALS    435 PRIMITIVES        9 NUCLEI
  C    1    (CENTRE  1) -10.29394291  3.63162653 -0.00862471  CHARGE =  6.0
  C    2    (CENTRE  2)  -8.20134713  5.57301210 -0.06043155  CHARGE =  6.0
  H    3    (CENTRE  3)  -9.62226622  1.68286159  0.21270946  CHARGE =  1.0
  H    4    (CENTRE  4) -11.37090350  3.78703005 -1.77339647  CHARGE =  1.0
  H    5    (CENTRE  5) -11.57848803  4.09778795  1.54941669  CHARGE =  1.0
  O    6    (CENTRE  6)  -8.62964222  7.83331730 -0.21743000  CHARGE =  8.0
  N    7    (CENTRE  7)  -5.80119275  4.64931586  0.07167353  CHARGE =  7.0
  H    8    (CENTRE  8)  -5.42650541  2.78994819  0.19575673  CHARGE =  1.0
  H    9    (CENTRE  9)  -4.35450347  5.88952800  0.03032444  CHARGE =  1.0
CENTRE ASSIGNMENTS    1  1  1  1  1  1  1  1  1  1  1  1  1  1  1  1  1  1  1  1
CENTRE ASSIGNMENTS    1  1  1  1  1  1  1  1  1  1  1  1  1  1  1  1  1  1  1  1
CENTRE ASSIGNMENTS    1  1  1  1  1  1  1  1  1  1  1  1  1  1  1  1  1  1  1  1
CENTRE ASSIGNMENTS    1  1  1  1  1  1  1  1  1  1  1  1  1  1  1  2  2  2  2  2
CENTRE ASSIGNMENTS    2  2  2  2  2  2  2  2  2  2  2  2  2  2  2  2  2  2  2  2
CENTRE ASSIGNMENTS    2  2  2  2  2  2  2  2  2  2  2  2  2  2  2  2  2  2  2  2
CENTRE ASSIGNMENTS    2  2  2  2  2  2  2  2  2  2  2  2  2  2  2  2  2  2  2  2
CENTRE ASSIGNMENTS    2  2  2  2  2  2  2  2  2  2  3  3  3  3  3  3  3  3  3  3
CENTRE ASSIGNMENTS    3  3  3  3  3  3  3  3  3  3  3  3  3  3  3  3  3  4  4  4
CENTRE ASSIGNMENTS    4  4  4  4  4  4  4  4  4  4  4  4  4  4  4  4  4  4  4  4
CENTRE ASSIGNMENTS    4  4  4  4  5  5  5  5  5  5  5  5  5  5  5  5  5  5  5  5
CENTRE ASSIGNMENTS    5  5  5  5  5  5  5  5  5  5  5  6  6  6  6  6  6  6  6  6
CENTRE ASSIGNMENTS    6  6  6  6  6  6  6  6  6  6  6  6  6  6  6  6  6  6  6  6
CENTRE ASSIGNMENTS    6  6  6  6  6  6  6  6  6  6  6  6  6  6  6  6  6  6  6  6
CENTRE ASSIGNMENTS    6  6  6  6  6  6  6  6  6  6  6  6  6  6  6  6  6  6  6  6
CENTRE ASSIGNMENTS    6  6  6  6  6  6  7  7  7  7  7  7  7  7  7  7  7  7  7  7
CENTRE ASSIGNMENTS    7  7  7  7  7  7  7  7  7  7  7  7  7  7  7  7  7  7  7  7
CENTRE ASSIGNMENTS    7  7  7  7  7  7  7  7  7  7  7  7  7  7  7  7  7  7  7  7
CENTRE ASSIGNMENTS    7  7  7  7  7  7  7  7  7  7  7  7  7  7  7  7  7  7  7  7
CENTRE ASSIGNMENTS    7  8  8  8  8  8  8  8  8  8  8  8  8  8  8  8  8  8  8  8
CENTRE ASSIGNMENTS    8  8  8  8  8  8  8  8  9  9  9  9  9  9  9  9  9  9  9  9
CENTRE ASSIGNMENTS    9  9  9  9  9  9  9  9  9  9  9  9  9  9  9
TYPE ASSIGNMENTS      1  1  1  1  1  1  1  1  1  1  1  1  1  1  1  1  1  1  1  2
TYPE ASSIGNMENTS      2  2  3  3  3  4  4  4  2  3  4  2  3  4  2  3  4  5  6  7
TYPE ASSIGNMENTS      8  9 10  5  6  7  8  9 10  5  6  7  8  9 10 11 12 13 17 14
TYPE ASSIGNMENTS     15 18 19 16 20 11 12 13 17 14 15 18 19 16 20  1  1  1  1  1
TYPE ASSIGNMENTS      1  1  1  1  1  1  1  1  1  1  1  1  1  1  2  2  2  3  3  3
TYPE ASSIGNMENTS      4  4  4  2  3  4  2  3  4  2  3  4  5  6  7  8  9 10  5  6
TYPE ASSIGNMENTS      7  8  9 10  5  6  7  8  9 10 11 12 13 17 14 15 18 19 16 20
TYPE ASSIGNMENTS     11 12 13 17 14 15 18 19 16 20  1  1  1  1  1  1  2  3  4  2
TYPE ASSIGNMENTS      3  4  2  3  4  5  6  7  8  9 10  5  6  7  8  9 10  1  1  1
TYPE ASSIGNMENTS      1  1  1  2  3  4  2  3  4  2  3  4  5  6  7  8  9 10  5  6
TYPE ASSIGNMENTS      7  8  9 10  1  1  1  1  1  1  2  3  4  2  3  4  2  3  4  5
TYPE ASSIGNMENTS      6  7  8  9 10  5  6  7  8  9 10  1  1  1  1  1  1  1  1  1
TYPE ASSIGNMENTS      1  1  1  1  1  1  1  1  1  1  2  2  2  3  3  3  4  4  4  2
TYPE ASSIGNMENTS      3  4  2  3  4  2  3  4  5  6  7  8  9 10  5  6  7  8  9 10
TYPE ASSIGNMENTS      5  6  7  8  9 10 11 12 13 17 14 15 18 19 16 20 11 12 13 17
TYPE ASSIGNMENTS     14 15 18 19 16 20  1  1  1  1  1  1  1  1  1  1  1  1  1  1
TYPE ASSIGNMENTS      1  1  1  1  1  2  2  2  3  3  3  4  4  4  2  3  4  2  3  4
TYPE ASSIGNMENTS      2  3  4  5  6  7  8  9 10  5  6  7  8  9 10  5  6  7  8  9
TYPE ASSIGNMENTS     10 11 12 13 17 14 15 18 19 16 20 11 12 13 17 14 15 18 19 16
TYPE ASSIGNMENTS     20  1  1  1  1  1  1  2  3  4  2  3  4  2  3  4  5  6  7  8
TYPE ASSIGNMENTS      9 10  5  6  7  8  9 10  1  1  1  1  1  1  2  3  4  2  3  4
TYPE ASSIGNMENTS      2  3  4  5  6  7  8  9 10  5  6  7  8  9 10
EXPONENTS  0.8236000D+04 0.1235000D+04 0.2808000D+03 0.7927000D+02 0.2559000D+02
EXPONENTS  0.8997000D+01 0.3319000D+01 0.3643000D+00 0.8236000D+04 0.1235000D+04
EXPONENTS  0.2808000D+03 0.7927000D+02 0.2559000D+02 0.8997000D+01 0.3319000D+01
EXPONENTS  0.3643000D+00 0.9059000D+00 0.1285000D+00 0.4402000D-01 0.1871000D+02
EXPONENTS  0.4133000D+01 0.1200000D+01 0.1871000D+02 0.4133000D+01 0.1200000D+01
EXPONENTS  0.1871000D+02 0.4133000D+01 0.1200000D+01 0.3827000D+00 0.3827000D+00
EXPONENTS  0.3827000D+00 0.1209000D+00 0.1209000D+00 0.1209000D+00 0.3569000D-01
EXPONENTS  0.3569000D-01 0.3569000D-01 0.1097000D+01 0.1097000D+01 0.1097000D+01
EXPONENTS  0.1097000D+01 0.1097000D+01 0.1097000D+01 0.3180000D+00 0.3180000D+00
EXPONENTS  0.3180000D+00 0.3180000D+00 0.3180000D+00 0.3180000D+00 0.1000000D+00
EXPONENTS  0.1000000D+00 0.1000000D+00 0.1000000D+00 0.1000000D+00 0.1000000D+00
EXPONENTS  0.7610000D+00 0.7610000D+00 0.7610000D+00 0.7610000D+00 0.7610000D+00
EXPONENTS  0.7610000D+00 0.7610000D+00 0.7610000D+00 0.7610000D+00 0.7610000D+00
EXPONENTS  0.2680000D+00 0.2680000D+00 0.2680000D+00 0.2680000D+00 0.2680000D+00
EXPONENTS  0.2680000D+00 0.2680000D+00 0.2680000D+00 0.2680000D+00 0.2680000D+00
EXPONENTS  0.8236000D+04 0.1235000D+04 0.2808000D+03 0.7927000D+02 0.2559000D+02
EXPONENTS  0.8997000D+01 0.3319000D+01 0.3643000D+00 0.8236000D+04 0.1235000D+04
EXPONENTS  0.2808000D+03 0.7927000D+02 0.2559000D+02 0.8997000D+01 0.3319000D+01
EXPONENTS  0.3643000D+00 0.9059000D+00 0.1285000D+00 0.4402000D-01 0.1871000D+02
EXPONENTS  0.4133000D+01 0.1200000D+01 0.1871000D+02 0.4133000D+01 0.1200000D+01
EXPONENTS  0.1871000D+02 0.4133000D+01 0.1200000D+01 0.3827000D+00 0.3827000D+00
EXPONENTS  0.3827000D+00 0.1209000D+00 0.1209000D+00 0.1209000D+00 0.3569000D-01
EXPONENTS  0.3569000D-01 0.3569000D-01 0.1097000D+01 0.1097000D+01 0.1097000D+01
EXPONENTS  0.1097000D+01 0.1097000D+01 0.1097000D+01 0.3180000D+00 0.3180000D+00
EXPONENTS  0.3180000D+00 0.3180000D+00 0.3180000D+00 0.3180000D+00 0.1000000D+00
EXPONENTS  0.1000000D+00 0.1000000D+00 0.1000000D+00 0.1000000D+00 0.1000000D+00
EXPONENTS  0.7610000D+00 0.7610000D+00 0.7610000D+00 0.7610000D+00 0.7610000D+00
EXPONENTS  0.7610000D+00 0.7610000D+00 0.7610000D+00 0.7610000D+00 0.7610000D+00
EXPONENTS  0.2680000D+00 0.2680000D+00 0.2680000D+00 0.2680000D+00 0.2680000D+00
EXPONENTS  0.2680000D+00 0.2680000D+00 0.2680000D+00 0.2680000D+00 0.2680000D+00
EXPONENTS  0.3387000D+02 0.5095000D+01 0.1159000D+01 0.3258000D+00 0.1027000D+00
EXPONENTS  0.2526000D-01 0.1407000D+01 0.1407000D+01 0.1407000D+01 0.3880000D+00
EXPONENTS  0.3880000D+00 0.3880000D+00 0.1020000D+00 0.1020000D+00 0.1020000D+00
EXPONENTS  0.1057000D+01 0.1057000D+01 0.1057000D+01 0.1057000D+01 0.1057000D+01
EXPONENTS  0.1057000D+01 0.2470000D+00 0.2470000D+00 0.2470000D+00 0.2470000D+00
EXPONENTS  0.2470000D+00 0.2470000D+00 0.3387000D+02 0.5095000D+01 0.1159000D+01
EXPONENTS  0.3258000D+00 0.1027000D+00 0.2526000D-01 0.1407000D+01 0.1407000D+01
EXPONENTS  0.1407000D+01 0.3880000D+00 0.3880000D+00 0.3880000D+00 0.1020000D+00
EXPONENTS  0.1020000D+00 0.1020000D+00 0.1057000D+01 0.1057000D+01 0.1057000D+01
EXPONENTS  0.1057000D+01 0.1057000D+01 0.1057000D+01 0.2470000D+00 0.2470000D+00
EXPONENTS  0.2470000D+00 0.2470000D+00 0.2470000D+00 0.2470000D+00 0.3387000D+02
EXPONENTS  0.5095000D+01 0.1159000D+01 0.3258000D+00 0.1027000D+00 0.2526000D-01
EXPONENTS  0.1407000D+01 0.1407000D+01 0.1407000D+01 0.3880000D+00 0.3880000D+00
EXPONENTS  0.3880000D+00 0.1020000D+00 0.1020000D+00 0.1020000D+00 0.1057000D+01
EXPONENTS  0.1057000D+01 0.1057000D+01 0.1057000D+01 0.1057000D+01 0.1057000D+01
EXPONENTS  0.2470000D+00 0.2470000D+00 0.2470000D+00 0.2470000D+00 0.2470000D+00
EXPONENTS  0.2470000D+00 0.1533000D+05 0.2299000D+04 0.5224000D+03 0.1473000D+03
EXPONENTS  0.4755000D+02 0.1676000D+02 0.6207000D+01 0.6882000D+00 0.1533000D+05
EXPONENTS  0.2299000D+04 0.5224000D+03 0.1473000D+03 0.4755000D+02 0.1676000D+02
EXPONENTS  0.6207000D+01 0.6882000D+00 0.1752000D+01 0.2384000D+00 0.7376000D-01
EXPONENTS  0.3446000D+02 0.7749000D+01 0.2280000D+01 0.3446000D+02 0.7749000D+01
EXPONENTS  0.2280000D+01 0.3446000D+02 0.7749000D+01 0.2280000D+01 0.7156000D+00
EXPONENTS  0.7156000D+00 0.7156000D+00 0.2140000D+00 0.2140000D+00 0.2140000D+00
EXPONENTS  0.5974000D-01 0.5974000D-01 0.5974000D-01 0.2314000D+01 0.2314000D+01
EXPONENTS  0.2314000D+01 0.2314000D+01 0.2314000D+01 0.2314000D+01 0.6450000D+00
EXPONENTS  0.6450000D+00 0.6450000D+00 0.6450000D+00 0.6450000D+00 0.6450000D+00
EXPONENTS  0.2140000D+00 0.2140000D+00 0.2140000D+00 0.2140000D+00 0.2140000D+00
EXPONENTS  0.2140000D+00 0.1428000D+01 0.1428000D+01 0.1428000D+01 0.1428000D+01
EXPONENTS  0.1428000D+01 0.1428000D+01 0.1428000D+01 0.1428000D+01 0.1428000D+01
EXPONENTS  0.1428000D+01 0.5000000D+00 0.5000000D+00 0.5000000D+00 0.5000000D+00
EXPONENTS  0.5000000D+00 0.5000000D+00 0.5000000D+00 0.5000000D+00 0.5000000D+00
EXPONENTS  0.5000000D+00 0.1142000D+05 0.1712000D+04 0.3893000D+03 0.1100000D+03
EXPONENTS  0.3557000D+02 0.1254000D+02 0.4644000D+01 0.5118000D+00 0.1142000D+05
EXPONENTS  0.1712000D+04 0.3893000D+03 0.1100000D+03 0.3557000D+02 0.1254000D+02
EXPONENTS  0.4644000D+01 0.5118000D+00 0.1293000D+01 0.1787000D+00 0.5760000D-01
EXPONENTS  0.2663000D+02 0.5948000D+01 0.1742000D+01 0.2663000D+02 0.5948000D+01
EXPONENTS  0.1742000D+01 0.2663000D+02 0.5948000D+01 0.1742000D+01 0.5550000D+00
EXPONENTS  0.5550000D+00 0.5550000D+00 0.1725000D+00 0.1725000D+00 0.1725000D+00
EXPONENTS  0.4910000D-01 0.4910000D-01 0.4910000D-01 0.1654000D+01 0.1654000D+01
EXPONENTS  0.1654000D+01 0.1654000D+01 0.1654000D+01 0.1654000D+01 0.4690000D+00
EXPONENTS  0.4690000D+00 0.4690000D+00 0.4690000D+00 0.4690000D+00 0.4690000D+00
EXPONENTS  0.1510000D+00 0.1510000D+00 0.1510000D+00 0.1510000D+00 0.1510000D+00
EXPONENTS  0.1510000D+00 0.1093000D+01 0.1093000D+01 0.1093000D+01 0.1093000D+01
EXPONENTS  0.1093000D+01 0.1093000D+01 0.1093000D+01 0.1093000D+01 0.1093000D+01
EXPONENTS  0.1093000D+01 0.3640000D+00 0.3640000D+00 0.3640000D+00 0.3640000D+00
EXPONENTS  0.3640000D+00 0.3640000D+00 0.3640000D+00 0.3640000D+00 0.3640000D+00
EXPONENTS  0.3640000D+00 0.3387000D+02 0.5095000D+01 0.1159000D+01 0.3258000D+00
EXPONENTS  0.1027000D+00 0.2526000D-01 0.1407000D+01 0.1407000D+01 0.1407000D+01
EXPONENTS  0.3880000D+00 0.3880000D+00 0.3880000D+00 0.1020000D+00 0.1020000D+00
EXPONENTS  0.1020000D+00 0.1057000D+01 0.1057000D+01 0.1057000D+01 0.1057000D+01
EXPONENTS  0.1057000D+01 0.1057000D+01 0.2470000D+00 0.2470000D+00 0.2470000D+00
EXPONENTS  0.2470000D+00 0.2470000D+00 0.2470000D+00 0.3387000D+02 0.5095000D+01
EXPONENTS  0.1159000D+01 0.3258000D+00 0.1027000D+00 0.2526000D-01 0.1407000D+01
EXPONENTS  0.1407000D+01 0.1407000D+01 0.3880000D+00 0.3880000D+00 0.3880000D+00
EXPONENTS  0.1020000D+00 0.1020000D+00 0.1020000D+00 0.1057000D+01 0.1057000D+01
EXPONENTS  0.1057000D+01 0.1057000D+01 0.1057000D+01 0.1057000D+01 0.2470000D+00
EXPONENTS  0.2470000D+00 0.2470000D+00 0.2470000D+00 0.2470000D+00 0.2470000D+00
MO    1     MO 0.0        OCC NO =    2.0000000  ORB. ENERGY =  -18.930407
  0.26006951D-03  0.48482869D-03  0.81944589D-03  0.12318956D-02  0.15135261D-02
  0.12784147D-02  0.48217100D-03 -0.23862912D-05 -0.19173726D-03 -0.35899265D-03
 -0.61121571D-03 -0.94545777D-03 -0.12451346D-02 -0.12937746D-02 -0.82213569D-03
  0.55097622D-03  0.55508209D-03 -0.47316294D-02  0.14719001D-04 -0.14492808D-03
 -0.13587929D-03 -0.96754148D-04 -0.23177580D-03 -0.21730454D-03 -0.15473378D-03
  0.11454204D-04  0.10739045D-04  0.76468396D-05  0.78307470D-03  0.12501439D-02
 -0.59666624D-04 -0.52826002D-03 -0.50265589D-03  0.36287442D-04  0.19030882D-05
 -0.50737615D-05  0.77518084D-06 -0.10260629D-05  0.18701310D-03 -0.18598703D-03
  0.19829072D-03 -0.25544598D-05 -0.33544431D-04  0.28844593D-03 -0.18314839D-03
 -0.10529755D-03  0.12629301D-02 -0.64730648D-04  0.58731169D-04  0.41956084D-04
 -0.83351467D-04  0.41395383D-04 -0.30951347D-04 -0.16971379D-05  0.25312827D-04
 -0.11166179D-04 -0.46682378D-04  0.29376824D-04 -0.14176334D-03  0.33535821D-03
 -0.42201261D-04  0.17526188D-03 -0.19531108D-03 -0.45929211D-04  0.12906187D-03
 -0.45696619D-04 -0.40964919D-04  0.31931049D-04 -0.16002442D-03  0.29471327D-03
 -0.51051160D-04  0.29711428D-03 -0.17181852D-03 -0.44741988D-04  0.13490764D-03
  0.41769898D-03  0.77868587D-03  0.13161163D-02  0.19785539D-02  0.24308821D-02
  0.20532685D-02  0.77441734D-03 -0.38326346D-05 -0.31844632D-03 -0.59623198D-03
 -0.10151360D-02 -0.15702610D-02 -0.20679785D-02 -0.21487621D-02 -0.13654419D-02
  0.91508738D-03  0.10660435D-02  0.14582822D-02 -0.10238296D-03 -0.25686041D-03
 -0.24082297D-03 -0.17148030D-03  0.65644029D-03  0.61545449D-03  0.43824026D-03
 -0.49019861D-04 -0.45959235D-04 -0.32725713D-04 -0.11198212D-03  0.23558900D-02
 -0.15598941D-03 -0.41013760D-03 -0.70645602D-03  0.22005458D-04  0.16289958D-04
  0.69233855D-05  0.22566239D-06 -0.44707593D-03  0.63687646D-03 -0.18980053D-03
 -0.34331210D-03  0.36108672D-05 -0.12136460D-03  0.36953403D-03 -0.66715442D-03
  0.29762039D-03  0.85216052D-03 -0.45071255D-04  0.16128074D-03  0.21398668D-03
 -0.21420292D-03  0.21623452D-06  0.24927908D-03 -0.96980797D-06  0.36103938D-04
 -0.82023364D-04 -0.40906532D-03 -0.20590323D-04  0.42547820D-03  0.10316038D-02
 -0.60653511D-04 -0.17940811D-03  0.19559210D-03  0.12242448D-03 -0.32214620D-04
 -0.13501148D-03 -0.33257542D-03 -0.13882020D-04  0.48273560D-03  0.84228817D-03
 -0.56543332D-04 -0.77701150D-04  0.15543808D-03  0.98189393D-04 -0.30366135D-04
  0.30351669D-05  0.54740485D-05  0.80714813D-05  0.19057109D-02  0.12421055D-02
 -0.47594384D-05 -0.89686174D-04  0.15350131D-03 -0.16067987D-04  0.36534177D-03
  0.10403555D-02 -0.83950004D-04 -0.81687064D-04  0.19200884D-03 -0.17749616D-04
 -0.18945562D-03  0.29159252D-03 -0.10213690D-03  0.23939167D-03 -0.45934591D-04
 -0.76150779D-04 -0.20159425D-04  0.37241263D-04 -0.17081839D-04 -0.20567817D-04
 -0.31938603D-05 -0.14979960D-04 -0.14034967D-04 -0.25312642D-04 -0.37323475D-04
  0.15280820D-02 -0.27623071D-03  0.10344528D-04  0.82290305D-05 -0.22550231D-04
  0.17867280D-03  0.52059654D-03  0.15016902D-03  0.27531990D-03  0.18583236D-04
  0.34141974D-04 -0.78606519D-05  0.12652666D-04  0.25298448D-04 -0.37951113D-04
  0.20414481D-03  0.29521373D-03 -0.16627834D-05  0.97884119D-05  0.81092662D-05
 -0.17897678D-04  0.58362098D-04  0.45661570D-04  0.11789566D-04 -0.13720054D-04
 -0.24744682D-04 -0.36486020D-04  0.14842426D-02 -0.40306756D-03  0.90013363D-05
  0.29700928D-04 -0.33483501D-04 -0.16784051D-03  0.58781812D-03  0.11161702D-03
 -0.19954814D-03  0.49883374D-05  0.33027267D-04  0.16009004D-04  0.67575953D-04
  0.20585810D-04 -0.88161763D-04  0.16244150D-03 -0.30324824D-03 -0.23563547D-04
  0.15878179D-04  0.58050096D-05 -0.21683189D-04  0.45744985D-04 -0.54200035D-04
 -0.19040949D-04  0.49932843D+00  0.93068395D+00  0.15781316D+01  0.23885757D+01
  0.29802451D+01  0.25596331D+01  0.98269291D+00 -0.43956457D-02 -0.10387066D-02
 -0.19481200D-02 -0.33211176D-02 -0.51902603D-02 -0.69403670D-02 -0.74106938D-02
 -0.45307529D-02  0.29891156D-02  0.49963347D-01  0.77794074D-03  0.64696410D-03
  0.16865692D-02  0.16354048D-02  0.11032344D-02 -0.72573469D-02 -0.70371852D-02
 -0.47472436D-02  0.51401545D-03  0.49842208D-03  0.33623259D-03 -0.78799502D-04
 -0.21198846D-03  0.75070841D-05 -0.26217329D-03  0.14326922D-02 -0.10100310D-03
 -0.15729066D-04 -0.23723073D-04  0.59642073D-06 -0.25501305D-03  0.25151512D-02
 -0.22601382D-02 -0.13212400D-02  0.21217390D-03 -0.65879036D-03  0.57405630D-04
 -0.78892575D-03  0.73152012D-03  0.51056034D-03 -0.76863723D-04  0.21714553D-03
  0.67160335D-04 -0.32830135D-03  0.26114101D-03  0.14295627D-03 -0.20868211D-04
  0.80449160D-04  0.31107412D-04 -0.10664147D-03 -0.33183426D-04 -0.13349558D-04
 -0.14943586D-03  0.23777684D-04 -0.79972678D-04  0.46936028D-03  0.75772593D-04
 -0.47742642D-04  0.10932327D-04  0.19708495D-03  0.41654698D-04 -0.14954718D-03
 -0.16266480D-04 -0.70530373D-05  0.11675020D-03 -0.57498838D-03 -0.11791106D-03
  0.70806161D-04  0.15224036D-03  0.28367750D-03  0.47976976D-03  0.72250668D-03
  0.89451014D-03  0.76118776D-03  0.28964598D-03 -0.13565357D-05 -0.10589810D-03
 -0.19855993D-03 -0.33780951D-03 -0.52458251D-03 -0.69615150D-03 -0.73364812D-03
 -0.45490864D-03  0.30260540D-03  0.86847788D-04  0.61288077D-04 -0.78804618D-04
  0.34185971D-03  0.32835216D-03  0.23026320D-03 -0.14667172D-03 -0.14087644D-03
 -0.98792280D-04  0.21274275D-04  0.20433687D-04  0.14329512D-04 -0.12849633D-02
  0.68891884D-03 -0.84121108D-04  0.34912052D-03 -0.23559594D-03  0.25209435D-04
  0.21295615D-04 -0.43192660D-05  0.72223927D-06 -0.61829319D-04  0.19485663D-03
 -0.13302731D-03 -0.67257757D-03  0.48387863D-04 -0.63124889D-04  0.49250216D-03
 -0.70365637D-03  0.21115421D-03 -0.27577227D-04  0.25653043D-04  0.11745294D-03
  0.11152762D-03 -0.83708839D-04 -0.27818781D-04  0.18834816D-03 -0.48708261D-05
  0.12747109D-04  0.15153133D-04  0.22713586D-03  0.17803299D-04 -0.33184474D-03
 -0.53674033D-03  0.11237825D-04  0.28638535D-03 -0.14466725D-03 -0.64647722D-04
  0.53825920D-04 -0.21139191D-03 -0.80477846D-04 -0.13538371D-04  0.86367545D-03
  0.14989914D-03 -0.10492856D-04 -0.22949972D-03  0.91534395D-04  0.51107968D-04
 -0.12658448D-03 -0.22529527D-04 -0.40632929D-04 -0.59913230D-04  0.69540566D-04
  0.86519634D-03  0.62858364D-05 -0.22215010D-03  0.37901008D-03 -0.31471356D-04
 -0.76976438D-03  0.35516840D-03 -0.40003923D-04 -0.13772265D-03  0.12623198D-03
 -0.97669062D-05  0.26809889D-04  0.22806956D-03 -0.25487945D-03 -0.62604858D-03
  0.56492534D-04 -0.74678090D-04  0.87556279D-06  0.40097351D-04 -0.40972914D-04
 -0.15663458D-03  0.10504597D-04 -0.13053403D-04 -0.57614703D-04 -0.10391049D-03
 -0.15321596D-03 -0.41799781D-03 -0.10977323D-02 -0.18012007D-04 -0.13787662D-03
  0.10092507D-05 -0.42924204D-05 -0.10496495D-03 -0.37940567D-03  0.10982704D-04
  0.15470525D-03  0.45710121D-04 -0.29593098D-07  0.20375754D-03  0.93351624D-04
 -0.29710916D-03  0.17488002D-03  0.18938239D-04 -0.38533871D-04 -0.29806455D-04
  0.61017323D-04 -0.31210868D-04  0.13374204D-03 -0.61626717D-05 -0.68912793D-05
MO    2     MO 0.0        OCC NO =    2.0000000  ORB. ENERGY =  -14.202820
  0.32871369D-04  0.61279706D-04  0.10357350D-03  0.15570489D-03  0.19130145D-03
  0.16158466D-03  0.60943788D-04 -0.30161421D-06 -0.22958152D-04 -0.42984905D-04
 -0.73185478D-04 -0.11320681D-03 -0.14908938D-03 -0.15491342D-03 -0.98440523D-04
  0.65972549D-04 -0.87132656D-04 -0.47555478D-04  0.38999072D-03 -0.58834483D-04
 -0.55161067D-04 -0.39277966D-04  0.17606773D-04  0.16507469D-04  0.11754301D-04
  0.43227629D-06  0.40528650D-06  0.28858813D-06  0.76509234D-03  0.80866236D-04
  0.12145405D-04  0.50158714D-04 -0.11652788D-03  0.11639076D-04  0.17159708D-04
  0.11239750D-04  0.77356710D-06  0.34631078D-03 -0.12239413D-03 -0.22391665D-03
  0.21299842D-03  0.27744456D-04 -0.71151764D-05 -0.46324138D-03  0.71091821D-03
 -0.24767682D-03  0.33460218D-03  0.50619220D-05 -0.15678766D-03  0.97252907D-05
  0.11225488D-04 -0.20950779D-04  0.10945397D-04 -0.56586324D-05 -0.83398714D-05
 -0.12020413D-03 -0.19670127D-04  0.11859360D-04  0.23395379D-03  0.12260114D-03
 -0.40507511D-04  0.12665860D-03 -0.63590758D-04  0.49294308D-05  0.36754090D-04
 -0.11777425D-03 -0.57037250D-04  0.20397929D-06  0.24135273D-03  0.64120104D-04
 -0.40095678D-04  0.11197003D-03  0.10699165D-03  0.39483740D-04  0.61601333D-06
  0.27450167D-03  0.51173352D-03  0.86491979D-03  0.13002578D-02  0.15975169D-02
  0.13493584D-02  0.50892834D-03 -0.25187148D-05 -0.21560016D-03 -0.40367152D-03
 -0.68728530D-03 -0.10631259D-02 -0.14000994D-02 -0.14547929D-02 -0.92445559D-03
  0.61954864D-03  0.11427433D-02 -0.17491760D-02 -0.87941846D-03  0.80324631D-03
  0.75309448D-03  0.53624813D-03 -0.31468026D-03 -0.29503275D-03 -0.21008089D-03
  0.43909845D-04  0.41168271D-04  0.29314262D-04  0.51953967D-03 -0.16836470D-04
  0.17906922D-04 -0.58435067D-03 -0.75131710D-04  0.19270370D-05  0.15855424D-04
  0.23170113D-04 -0.95681237D-06  0.94190927D-04 -0.80928650D-04 -0.13262277D-04
  0.16148880D-03 -0.13943196D-05  0.14374279D-04 -0.67107067D-03  0.19932491D-03
  0.47174576D-03 -0.77959740D-04 -0.65087161D-04  0.33966833D-04  0.26122338D-04
 -0.58648624D-04  0.32526286D-04  0.18491870D-03 -0.14466552D-04  0.16918412D-04
 -0.37672517D-03 -0.26965370D-03  0.38506728D-04  0.51328154D-03  0.11241193D-02
 -0.14372919D-03  0.61689398D-03 -0.31515815D-03  0.28209004D-04  0.10320949D-03
 -0.28268930D-04 -0.13675692D-03  0.33213910D-05 -0.89474645D-04  0.38852249D-03
 -0.37938263D-04  0.17428143D-03  0.21748266D-04  0.27974090D-04  0.50746092D-04
 -0.27505290D-04 -0.49606923D-04 -0.73145379D-04 -0.12866438D-02  0.19058416D-03
 -0.48489791D-05  0.13935598D-03 -0.11251656D-03  0.86016356D-05  0.36154781D-03
 -0.23656456D-03  0.74216182D-04  0.74865407D-04  0.87565072D-04 -0.44017598D-05
 -0.27428159D-04  0.62080305D-04 -0.34652146D-04  0.35680455D-03 -0.40085660D-04
  0.20369795D-04  0.12257705D-04  0.67027094D-05 -0.18960414D-04  0.30269503D-04
  0.30391609D-05  0.81509636D-06  0.16890723D-05  0.30463114D-05  0.44917844D-05
  0.50582386D-03 -0.12228426D-03  0.12470208D-04 -0.66886667D-04 -0.24275590D-04
  0.51959735D-04  0.20903257D-03 -0.14487957D-03  0.27407255D-03 -0.29049828D-05
  0.98892116D-05 -0.14002307D-04 -0.51948227D-04 -0.45076915D-04  0.97025142D-04
 -0.10949246D-03  0.93357376D-04 -0.50343830D-04 -0.17039880D-04  0.14496445D-04
  0.25434346D-05 -0.36851538D-05  0.72770472D-04  0.20669570D-04  0.34911537D-05
  0.62964395D-05  0.92840964D-05  0.59406767D-03 -0.18628465D-03  0.94911060D-05
 -0.45601299D-04 -0.40906353D-04 -0.49205750D-04  0.24943541D-03 -0.15879018D-03
 -0.28106149D-03 -0.45014472D-05  0.21448973D-04  0.15061471D-04 -0.52730700D-04
 -0.27921846D-04  0.80652546D-04 -0.12497243D-03 -0.12947673D-03  0.51062685D-04
 -0.12678824D-04  0.10453291D-04  0.22255329D-05 -0.18664629D-04 -0.80765623D-04
 -0.28396815D-04  0.16095960D-03  0.30000798D-03  0.50871414D-03  0.76996254D-03
  0.96068845D-03  0.82510325D-03  0.31677318D-03 -0.14169459D-05 -0.11355725D-03
 -0.21297945D-03 -0.36308326D-03 -0.56742847D-03 -0.75875998D-03 -0.81017876D-03
 -0.49532741D-03  0.32678694D-03 -0.18929714D-05  0.74858386D-03  0.51352814D-03
 -0.15800321D-03 -0.15320996D-03 -0.10335453D-03  0.13849143D-04  0.13429010D-04
  0.90591311D-05 -0.60140131D-05 -0.58315697D-05 -0.39339425D-05  0.32434105D-03
 -0.36606296D-03  0.33422267D-04  0.18417066D-03  0.14501470D-03 -0.12239565D-04
 -0.28560367D-04 -0.27211996D-04  0.51368393D-06  0.86573018D-04  0.27800612D-03
 -0.36457914D-03 -0.54605897D-03  0.57071204D-04 -0.10758538D-03 -0.10756601D-03
  0.17770541D-04  0.89795464D-04  0.68317143D-04 -0.13848071D-04  0.16545801D-04
  0.18242767D-04 -0.72646629D-04  0.54403862D-04 -0.18832327D-04  0.23427938D-06
  0.18771074D-04 -0.98180126D-04 -0.29854986D-04 -0.87925754D-06  0.16324454D-03
  0.18307537D-04 -0.19373876D-04  0.13129584D-03  0.71257422D-04  0.22011648D-04
 -0.15502886D-06  0.30190101D-04 -0.10597644D-04  0.84406061D-05 -0.83500171D-04
  0.15905652D-03 -0.60309023D-05 -0.70701322D-05 -0.12726359D-03 -0.19290916D-04
  0.23640216D-04  0.41351213D+00  0.77051896D+00  0.13031407D+01  0.19624577D+01
  0.24296500D+01  0.20675225D+01  0.78673045D+00 -0.36845943D-02 -0.20147401D-02
 -0.37776564D-02 -0.64269176D-02 -0.99803245D-02 -0.13244471D-01 -0.13957854D-01
 -0.86547602D-02  0.57571498D-02  0.39336590D-01  0.42935837D-02  0.84086973D-03
 -0.31337128D-04 -0.30098937D-04 -0.21107452D-04 -0.18401147D-03 -0.17674082D-03
 -0.12394286D-03 -0.15104443D-04 -0.14507637D-04 -0.10173756D-04  0.15699899D-02
 -0.54508659D-03  0.63471249D-04 -0.46542271D-04 -0.23459084D-03  0.14735798D-04
 -0.84163968D-04  0.16256959D-04 -0.33775617D-05  0.13212547D-02  0.23312533D-02
 -0.36525080D-02  0.75863283D-03  0.22494137D-03 -0.73880586D-03 -0.32726421D-03
  0.69382843D-03 -0.36656422D-03  0.62986504D-03 -0.35523972D-04 -0.11295886D-03
 -0.10146528D-03  0.46201700D-04  0.55263584D-04  0.16613650D-03 -0.19846073D-04
  0.54016563D-05 -0.68888449D-03 -0.16994656D-02 -0.52532419D-04  0.33325950D-02
  0.47134286D-02 -0.29253917D-03 -0.12659415D-02  0.38496828D-03  0.45013643D-03
 -0.34977674D-03  0.19793697D-03  0.25444495D-03  0.13445877D-05 -0.65018749D-03
 -0.74442099D-03  0.62542722D-04  0.56376564D-04 -0.18913859D-04 -0.66576485D-04
  0.50566923D-04  0.14352172D-03  0.25884733D-03  0.38167024D-03 -0.20252668D-02
 -0.69523527D-03  0.58427657D-06  0.37545486D-03 -0.21774902D-02  0.14683706D-03
  0.84154839D-03 -0.22077004D-02  0.15543759D-03  0.21096568D-03 -0.12534783D-03
  0.12770188D-04  0.99531133D-03 -0.25482854D-02  0.15529741D-02  0.17200133D-02
 -0.13604130D-03  0.55238650D-03  0.34040137D-05 -0.12335369D-03  0.11994967D-03
  0.16345357D-03 -0.15360228D-04  0.34039202D-04  0.14261469D-03  0.25721147D-03
  0.37925816D-03 -0.17681002D-02 -0.10983459D-02  0.14852965D-05  0.15887676D-02
  0.14368335D-02 -0.49041876D-04  0.17856981D-02  0.13764371D-02 -0.44624879D-04
  0.29804709D-03  0.82007384D-04  0.33372652D-05 -0.11187926D-02 -0.47555836D-03
  0.15943510D-02 -0.37548966D-02  0.99592304D-04  0.16775281D-03 -0.10562082D-03
 -0.11342710D-04  0.11696353D-03 -0.22748768D-03  0.35265497D-05  0.11082377D-04
MO    3     MO 0.0        OCC NO =    2.0000000  ORB. ENERGY =  -10.149967
  0.36374930D-03  0.67811140D-03  0.11461277D-02  0.17230054D-02  0.21169112D-02
  0.17880699D-02  0.67439419D-03 -0.33376145D-05 -0.55358649D-04 -0.10364886D-03
 -0.17647105D-03 -0.27297388D-03 -0.35949700D-03 -0.37354041D-03 -0.23736816D-03
  0.15907862D-03  0.33133681D-03 -0.25175276D-02  0.31299260D-03  0.34383585D-03
  0.32236797D-03  0.22954520D-03  0.35032418D-03  0.32845119D-03  0.23387681D-03
 -0.17688628D-05 -0.16584213D-05 -0.11808947D-05  0.94387669D-03  0.34612541D-03
 -0.16818421D-05 -0.85938777D-03 -0.11748432D-02  0.59986446D-04  0.11340173D-04
  0.18069371D-04 -0.17191041D-05  0.40008601D-03 -0.35571177D-04 -0.36451483D-03
  0.52309237D-03  0.33542466D-04 -0.13887435D-04 -0.67988683D-03  0.32046314D-03
  0.35942369D-03 -0.10525524D-02  0.23585493D-04 -0.87472663D-04  0.93985528D-04
 -0.16166488D-03  0.67679347D-04 -0.16006906D-03  0.27193270D-05  0.37359953D-04
  0.17059675D-03  0.17453441D-03 -0.17129703D-04 -0.85792223D-03 -0.94448737D-03
  0.49702739D-04  0.34613199D-03  0.42088415D-03  0.16863717D-05  0.56191621D-04
 -0.13777431D-03 -0.16703317D-03 -0.48512036D-04  0.19089924D-03 -0.13280443D-03
 -0.13686828D-04  0.22242370D-03  0.63390395D-03  0.15922294D-03 -0.82368003D-04
  0.32962431D+00  0.61449465D+00  0.10386042D+01  0.15613623D+01  0.19183140D+01
  0.16203229D+01  0.61112617D+00 -0.30244975D-02 -0.27166363D-02 -0.50864003D-02
 -0.86600318D-02 -0.13395752D-01 -0.17641735D-01 -0.18330892D-01 -0.11648459D-01
  0.78065265D-02  0.32604736D-01  0.38998725D-02  0.57534310D-04  0.12644540D-02
  0.11855060D-02  0.84415089D-03 -0.23378704D-04 -0.21919021D-04 -0.15607649D-04
  0.46786630D-04  0.43865440D-04  0.31234806D-04  0.82329465D-03  0.35699076D-02
 -0.21972777D-03 -0.21310269D-02 -0.14945264D-02  0.78244736D-05  0.92005412D-04
 -0.62438764D-05  0.32137489D-05  0.55432741D-03  0.27497306D-02 -0.33040580D-02
 -0.22645231D-02  0.39349290D-03 -0.83444529D-03 -0.18570789D-03  0.25101108D-03
 -0.65303192D-04 -0.80790074D-03  0.29720327D-04 -0.80881037D-04  0.35345680D-03
 -0.38548272D-03  0.32025917D-04  0.57143561D-03 -0.16237091D-04  0.72530249D-04
  0.78971255D-03  0.13008754D-02  0.83124795D-04 -0.21934359D-02 -0.26055819D-02
  0.24298954D-03 -0.17570170D-03 -0.12970444D-02 -0.49236392D-03  0.19606938D-03
 -0.16630261D-03 -0.39740524D-03 -0.14516768D-04  0.23393814D-03  0.81887058D-03
 -0.89005899D-04  0.26496968D-03  0.37334513D-03  0.13255620D-03  0.37004284D-04
 -0.33533995D-05 -0.60479941D-05 -0.89177638D-05 -0.17158319D-02  0.10101309D-02
  0.41516979D-05  0.13400242D-03  0.18403085D-03 -0.22625173D-04 -0.29811606D-03
 -0.49900014D-03  0.40554141D-04 -0.22450384D-03  0.66020036D-04 -0.56966548D-05
  0.48722988D-04 -0.14833657D-03  0.99613583D-04 -0.61984692D-03  0.39090283D-04
 -0.13336297D-04  0.21524112D-05 -0.80189479D-04  0.78037067D-04 -0.24540730D-03
  0.83231027D-05  0.14994251D-04 -0.35951036D-04 -0.64839174D-04 -0.95605324D-04
  0.12244806D-03 -0.16967903D-02  0.15655079D-04 -0.10992442D-03  0.10393695D-03
 -0.32179664D-05 -0.31416275D-03 -0.89191134D-03  0.45039934D-03 -0.15225640D-03
 -0.41114628D-04 -0.15312121D-03 -0.34812719D-03 -0.29315043D-04  0.37744223D-03
 -0.43102581D-03 -0.69530666D-04 -0.51961015D-03 -0.10197991D-03  0.60139454D-04
  0.41840456D-04 -0.18430127D-03  0.12159486D-03  0.66687230D-05 -0.34089255D-04
 -0.61481376D-04 -0.90654252D-04  0.17512085D-03 -0.19273571D-02  0.19171630D-04
 -0.93992562D-04  0.99087574D-04 -0.53171051D-04 -0.22201574D-03 -0.93863192D-03
 -0.33228462D-03 -0.19025411D-03 -0.75862033D-05  0.16486095D-03 -0.35862489D-03
  0.71337245D-04  0.28728764D-03 -0.49997238D-03 -0.27365599D-04  0.57173883D-03
 -0.93616455D-04  0.60954717D-04  0.32661738D-04 -0.21259133D-03 -0.12636909D-03
 -0.43901155D-04  0.26398343D-03  0.49203115D-03  0.83432181D-03  0.12627849D-02
  0.15755869D-02  0.13532190D-02  0.51952709D-03 -0.23238765D-05 -0.24742402D-03
 -0.46404988D-03 -0.79110331D-03 -0.12363405D-02 -0.16532228D-02 -0.17652565D-02
 -0.10792432D-02  0.71201912D-03  0.89295120D-03 -0.83715734D-03  0.12336193D-02
  0.26532065D-03  0.25727178D-03  0.17355402D-03 -0.21958370D-02 -0.21292233D-02
 -0.14363614D-02  0.14469698D-03  0.14030740D-03  0.94650543D-04 -0.32436974D-03