 Molden2AIM, Version 4.0.0 (06/02/2016)           Time: Thu Jun 28 19:24:26 2018
GAUSSIAN             12 MOL ORBITALS    306 PRIMITIVES        6 NUCLEI
  H    1    (CENTRE  1)  -1.75873220 -1.13657389  0.00000000  CHARGE =  1.0
  H    2    (CENTRE  2)   2.01109945 -3.35528999  0.00000000  CHARGE =  1.0
  H    3    (CENTRE  3)   3.82870985 -0.61260764  0.00000000  CHARGE =  1.0
  C    4    (CENTRE  4)   0.00774977 -0.00060471  0.00000000  CHARGE =  6.0
  O    5    (CENTRE  5)   0.00564839  2.29400279  0.00000000  CHARGE =  8.0
  N    6    (CENTRE  6)   2.11701104 -1.45545572  0.00000000  CHARGE =  7.0
CENTRE ASSIGNMENTS    1  1  1  1  1  1  1  1  1  1  1  1  1  1  1  1  1  1  1  1
CENTRE ASSIGNMENTS    1  1  1  1  1  1  1  2  2  2  2  2  2  2  2  2  2  2  2  2
CENTRE ASSIGNMENTS    2  2  2  2  2  2  2  2  2  2  2  2  2  2  3  3  3  3  3  3
CENTRE ASSIGNMENTS    3  3  3  3  3  3  3  3  3  3  3  3  3  3  3  3  3  3  3  3
CENTRE ASSIGNMENTS    3  4  4  4  4  4  4  4  4  4  4  4  4  4  4  4  4  4  4  4
CENTRE ASSIGNMENTS    4  4  4  4  4  4  4  4  4  4  4  4  4  4  4  4  4  4  4  4
CENTRE ASSIGNMENTS    4  4  4  4  4  4  4  4  4  4  4  4  4  4  4  4  4  4  4  4
CENTRE ASSIGNMENTS    4  4  4  4  4  4  4  4  4  4  4  4  4  4  4  4  5  5  5  5
CENTRE ASSIGNMENTS    5  5  5  5  5  5  5  5  5  5  5  5  5  5  5  5  5  5  5  5
CENTRE ASSIGNMENTS    5  5  5  5  5  5  5  5  5  5  5  5  5  5  5  5  5  5  5  5
CENTRE ASSIGNMENTS    5  5  5  5  5  5  5  5  5  5  5  5  5  5  5  5  5  5  5  5
CENTRE ASSIGNMENTS    5  5  5  5  5  5  5  5  5  5  5  6  6  6  6  6  6  6  6  6
CENTRE ASSIGNMENTS    6  6  6  6  6  6  6  6  6  6  6  6  6  6  6  6  6  6  6  6
CENTRE ASSIGNMENTS    6  6  6  6  6  6  6  6  6  6  6  6  6  6  6  6  6  6  6  6
CENTRE ASSIGNMENTS    6  6  6  6  6  6  6  6  6  6  6  6  6  6  6  6  6  6  6  6
CENTRE ASSIGNMENTS    6  6  6  6  6  6
TYPE ASSIGNMENTS      1  1  1  1  1  1  2  3  4  2  3  4  2  3  4  5  6  7  8  9
TYPE ASSIGNMENTS     10  5  6  7  8  9 10  1  1  1  1  1  1  2  3  4  2  3  4  2
TYPE ASSIGNMENTS      3  4  5  6  7  8  9 10  5  6  7  8  9 10  1  1  1  1  1  1
TYPE ASSIGNMENTS      2  3  4  2  3  4  2  3  4  5  6  7  8  9 10  5  6  7  8  9
TYPE ASSIGNMENTS     10  1  1  1  1  1  1  1  1  1  1  1  1  1  1  1  1  1  1  1
TYPE ASSIGNMENTS      2  2  2  3  3  3  4  4  4  2  3  4  2  3  4  2  3  4  5  6
TYPE ASSIGNMENTS      7  8  9 10  5  6  7  8  9 10  5  6  7  8  9 10 11 12 13 17
TYPE ASSIGNMENTS     14 15 18 19 16 20 11 12 13 17 14 15 18 19 16 20  1  1  1  1
TYPE ASSIGNMENTS      1  1  1  1  1  1  1  1  1  1  1  1  1  1  1  2  2  2  3  3
TYPE ASSIGNMENTS      3  4  4  4  2  3  4  2  3  4  2  3  4  5  6  7  8  9 10  5
TYPE ASSIGNMENTS      6  7  8  9 10  5  6  7  8  9 10 11 12 13 17 14 15 18 19 16
TYPE ASSIGNMENTS     20 11 12 13 17 14 15 18 19 16 20  1  1  1  1  1  1  1  1  1
TYPE ASSIGNMENTS      1  1  1  1  1  1  1  1  1  1  2  2  2  3  3  3  4  4  4  2
TYPE ASSIGNMENTS      3  4  2  3  4  2  3  4  5  6  7  8  9 10  5  6  7  8  9 10
TYPE ASSIGNMENTS      5  6  7  8  9 10 11 12 13 17 14 15 18 19 16 20 11 12 13 17
TYPE ASSIGNMENTS     14 15 18 19 16 20
EXPONENTS  0.3387000D+02 0.5095000D+01 0.1159000D+01 0.3258000D+00 0.1027000D+00
EXPONENTS  0.2526000D-01 0.1407000D+01 0.1407000D+01 0.1407000D+01 0.3880000D+00
EXPONENTS  0.3880000D+00 0.3880000D+00 0.1020000D+00 0.1020000D+00 0.1020000D+00
EXPONENTS  0.1057000D+01 0.1057000D+01 0.1057000D+01 0.1057000D+01 0.1057000D+01
EXPONENTS  0.1057000D+01 0.2470000D+00 0.2470000D+00 0.2470000D+00 0.2470000D+00
EXPONENTS  0.2470000D+00 0.2470000D+00 0.3387000D+02 0.5095000D+01 0.1159000D+01
EXPONENTS  0.3258000D+00 0.1027000D+00 0.2526000D-01 0.1407000D+01 0.1407000D+01
EXPONENTS  0.1407000D+01 0.3880000D+00 0.3880000D+00 0.3880000D+00 0.1020000D+00
EXPONENTS  0.1020000D+00 0.1020000D+00 0.1057000D+01 0.1057000D+01 0.1057000D+01
EXPONENTS  0.1057000D+01 0.1057000D+01 0.1057000D+01 0.2470000D+00 0.2470000D+00
EXPONENTS  0.2470000D+00 0.2470000D+00 0.2470000D+00 0.2470000D+00 0.3387000D+02
EXPONENTS  0.5095000D+01 0.1159000D+01 0.3258000D+00 0.1027000D+00 0.2526000D-01
EXPONENTS  0.1407000D+01 0.1407000D+01 0.1407000D+01 0.3880000D+00 0.3880000D+00
EXPONENTS  0.3880000D+00 0.1020000D+00 0.1020000D+00 0.1020000D+00 0.1057000D+01
EXPONENTS  0.1057000D+01 0.1057000D+01 0.1057000D+01 0.1057000D+01 0.1057000D+01
EXPONENTS  0.2470000D+00 0.2470000D+00 0.2470000D+00 0.2470000D+00 0.2470000D+00
EXPONENTS  0.2470000D+00 0.8236000D+04 0.1235000D+04 0.2808000D+03 0.7927000D+02
EXPONENTS  0.2559000D+02 0.8997000D+01 0.3319000D+01 0.3643000D+00 0.8236000D+04
EXPONENTS  0.1235000D+04 0.2808000D+03 0.7927000D+02 0.2559000D+02 0.8997000D+01
EXPONENTS  0.3319000D+01 0.3643000D+00 0.9059000D+00 0.1285000D+00 0.4402000D-01
EXPONENTS  0.1871000D+02 0.4133000D+01 0.1200000D+01 0.1871000D+02 0.4133000D+01
EXPONENTS  0.1200000D+01 0.1871000D+02 0.4133000D+01 0.1200000D+01 0.3827000D+00
EXPONENTS  0.3827000D+00 0.3827000D+00 0.1209000D+00 0.1209000D+00 0.1209000D+00
EXPONENTS  0.3569000D-01 0.3569000D-01 0.3569000D-01 0.1097000D+01 0.1097000D+01
EXPONENTS  0.1097000D+01 0.1097000D+01 0.1097000D+01 0.1097000D+01 0.3180000D+00
EXPONENTS  0.3180000D+00 0.3180000D+00 0.3180000D+00 0.3180000D+00 0.3180000D+00
EXPONENTS  0.1000000D+00 0.1000000D+00 0.1000000D+00 0.1000000D+00 0.1000000D+00
EXPONENTS  0.1000000D+00 0.7610000D+00 0.7610000D+00 0.7610000D+00 0.7610000D+00
EXPONENTS  0.7610000D+00 0.7610000D+00 0.7610000D+00 0.7610000D+00 0.7610000D+00
EXPONENTS  0.7610000D+00 0.2680000D+00 0.2680000D+00 0.2680000D+00 0.2680000D+00
EXPONENTS  0.2680000D+00 0.2680000D+00 0.2680000D+00 0.2680000D+00 0.2680000D+00
EXPONENTS  0.2680000D+00 0.1533000D+05 0.2299000D+04 0.5224000D+03 0.1473000D+03
EXPONENTS  0.4755000D+02 0.1676000D+02 0.6207000D+01 0.6882000D+00 0.1533000D+05
EXPONENTS  0.2299000D+04 0.5224000D+03 0.1473000D+03 0.4755000D+02 0.1676000D+02
EXPONENTS  0.6207000D+01 0.6882000D+00 0.1752000D+01 0.2384000D+00 0.7376000D-01
EXPONENTS  0.3446000D+02 0.7749000D+01 0.2280000D+01 0.3446000D+02 0.7749000D+01
EXPONENTS  0.2280000D+01 0.3446000D+02 0.7749000D+01 0.2280000D+01 0.7156000D+00
EXPONENTS  0.7156000D+00 0.7156000D+00 0.2140000D+00 0.2140000D+00 0.2140000D+00
EXPONENTS  0.5974000D-01 0.5974000D-01 0.5974000D-01 0.2314000D+01 0.2314000D+01
EXPONENTS  0.2314000D+01 0.2314000D+01 0.2314000D+01 0.2314000D+01 0.6450000D+00
EXPONENTS  0.6450000D+00 0.6450000D+00 0.6450000D+00 0.6450000D+00 0.6450000D+00
EXPONENTS  0.2140000D+00 0.2140000D+00 0.2140000D+00 0.2140000D+00 0.2140000D+00
EXPONENTS  0.2140000D+00 0.1428000D+01 0.1428000D+01 0.1428000D+01 0.1428000D+01
EXPONENTS  0.1428000D+01 0.1428000D+01 0.1428000D+01 0.1428000D+01 0.1428000D+01
EXPONENTS  0.1428000D+01 0.5000000D+00 0.5000000D+00 0.5000000D+00 0.5000000D+00
EXPONENTS  0.5000000D+00 0.5000000D+00 0.5000000D+00 0.5000000D+00 0.5000000D+00
EXPONENTS  0.5000000D+00 0.1142000D+05 0.1712000D+04 0.3893000D+03 0.1100000D+03
EXPONENTS  0.3557000D+02 0.1254000D+02 0.4644000D+01 0.5118000D+00 0.1142000D+05
EXPONENTS  0.1712000D+04 0.3893000D+03 0.1100000D+03 0.3557000D+02 0.1254000D+02
EXPONENTS  0.4644000D+01 0.5118000D+00 0.1293000D+01 0.1787000D+00 0.5760000D-01
EXPONENTS  0.2663000D+02 0.5948000D+01 0.1742000D+01 0.2663000D+02 0.5948000D+01
EXPONENTS  0.1742000D+01 0.2663000D+02 0.5948000D+01 0.1742000D+01 0.5550000D+00
EXPONENTS  0.5550000D+00 0.5550000D+00 0.1725000D+00 0.1725000D+00 0.1725000D+00
EXPONENTS  0.4910000D-01 0.4910000D-01 0.4910000D-01 0.1654000D+01 0.1654000D+01
EXPONENTS  0.1654000D+01 0.1654000D+01 0.1654000D+01 0.1654000D+01 0.4690000D+00
EXPONENTS  0.4690000D+00 0.4690000D+00 0.4690000D+00 0.4690000D+00 0.4690000D+00
EXPONENTS  0.1510000D+00 0.1510000D+00 0.1510000D+00 0.1510000D+00 0.1510000D+00
EXPONENTS  0.1510000D+00 0.1093000D+01 0.1093000D+01 0.1093000D+01 0.1093000D+01
EXPONENTS  0.1093000D+01 0.1093000D+01 0.1093000D+01 0.1093000D+01 0.1093000D+01
EXPONENTS  0.1093000D+01 0.3640000D+00 0.3640000D+00 0.3640000D+00 0.3640000D+00
EXPONENTS  0.3640000D+00 0.3640000D+00 0.3640000D+00 0.3640000D+00 0.3640000D+00
EXPONENTS  0.3640000D+00
MO    1     MO 0.0        OCC NO =    2.0000000  ORB. ENERGY =  -18.945443
  0.68525160D-04  0.12358795D-03  0.18223036D-03  0.13133872D-02  0.44003334D-03
  0.44556591D-05  0.46279459D-03  0.28136253D-03  0.45839454D-16  0.10334630D-03
  0.36580034D-03 -0.29297802D-17  0.15279186D-03 -0.82234148D-04 -0.43804522D-19
  0.43384967D-04 -0.16757813D-03  0.12419317D-03  0.51803587D-03 -0.27718018D-17
 -0.33824441D-17  0.15214890D-04 -0.54459765D-04  0.39244875D-04  0.43476782D-04
 -0.10515274D-17 -0.82552376D-18 -0.29200805D-04 -0.52664855D-04 -0.77654297D-04
  0.37435909D-03  0.75088181D-03  0.15782837D-05 -0.74339214D-04  0.36013828D-03
  0.88466422D-18 -0.53112731D-03  0.56887999D-03  0.19422145D-18 -0.91763650D-04
  0.14439036D-03  0.81212825D-19 -0.48406428D-04  0.32895403D-03 -0.28054760D-03
 -0.30866794D-03  0.64306460D-18 -0.62852253D-18 -0.59854287D-04  0.81256472D-04
 -0.21402184D-04 -0.90417922D-04  0.43524561D-18  0.12882087D-18 -0.61810706D-04
 -0.11147815D-03 -0.16437447D-03 -0.49418861D-03 -0.69662291D-03 -0.17814939D-04
 -0.10475404D-03  0.30091753D-04 -0.33512673D-18 -0.21284958D-03 -0.18580309D-03
 -0.25118457D-17  0.72422178D-04  0.66815002D-04 -0.31717066D-19  0.26502689D-03
 -0.10704849D-04 -0.25432204D-03  0.88275462D-04  0.16050970D-17  0.25265078D-17
  0.20423376D-04  0.13438992D-05 -0.21767275D-04  0.14221911D-03  0.56967165D-18
  0.20031225D-18  0.35152034D-03  0.65531384D-03  0.11075958D-02  0.16650793D-02
  0.20457424D-02  0.17279565D-02  0.65172160D-03 -0.32254066D-05 -0.27123717D-03
 -0.50784156D-03 -0.86464371D-03 -0.13374724D-02 -0.17614040D-02 -0.18302116D-02
 -0.11630173D-02  0.77942717D-03  0.11364040D-02 -0.13241632D-02  0.53656596D-04
 -0.12398822D-03 -0.11624684D-03 -0.82774673D-04  0.81353099D-03  0.76273702D-03
  0.54311419D-03  0.10208154D-16  0.95707934D-17  0.68149750D-17  0.14446033D-03
  0.16563437D-02  0.18365620D-17  0.43177684D-03  0.31349884D-04 -0.61690174D-18
  0.28361895D-05 -0.61172668D-05 -0.68345937D-19 -0.31247837D-03  0.42532760D-03
 -0.11284923D-03 -0.15825728D-04  0.45837362D-17  0.54877451D-17  0.19895893D-03
 -0.58904258D-03  0.39008365D-03  0.56502935D-03 -0.37433615D-17  0.39000959D-18
  0.96749179D-04 -0.12327326D-03  0.26524077D-04 -0.27168494D-04  0.12371663D-18
  0.38263927D-18  0.11504292D-03 -0.63154982D-03 -0.40522679D-19 -0.27438655D-03
  0.14819808D-02 -0.11405186D-17 -0.70742207D-04  0.41266867D-03  0.12620866D-17
  0.22374253D-17  0.71027800D-04 -0.24720775D-03  0.14629354D-18 -0.13899929D-03
  0.64295706D-03  0.66298026D-18 -0.74084110D-04  0.98666195D-04 -0.11018609D-17
  0.14369831D-17  0.49915914D+00  0.93036841D+00  0.15775966D+01  0.23877659D+01
  0.29792346D+01  0.25587652D+01  0.98235973D+00 -0.43941553D-02 -0.92149372D-03
 -0.17282843D-02 -0.29463459D-02 -0.46045651D-02 -0.61571809D-02 -0.65744337D-02
 -0.40194799D-02  0.26518087D-02  0.49897351D-01  0.45239223D-03  0.41968156D-04
  0.37463201D-03  0.36326703D-03  0.24505779D-03 -0.74719039D-02 -0.72452334D-02
 -0.48875916D-02 -0.15961071D-16 -0.15476870D-16 -0.10440605D-16 -0.76991153D-04
 -0.25974678D-03  0.31904023D-17 -0.91833104D-04  0.11048543D-02 -0.11799824D-17
  0.33024122D-05  0.29637978D-04 -0.88351150D-19 -0.58089536D-03  0.27891523D-02
 -0.22082570D-02 -0.39867919D-03  0.34186744D-17 -0.35829755D-17  0.12366500D-03
 -0.70357976D-03  0.57991476D-03  0.20441868D-03 -0.90513643D-18  0.81140727D-18
  0.76897997D-04 -0.27260655D-03  0.19570855D-03  0.36888701D-04 -0.34382805D-18
  0.84023830D-18 -0.20281041D-04 -0.28253649D-03 -0.31830364D-18  0.68466771D-04
  0.15194971D-03 -0.32439460D-17 -0.76236486D-05  0.69565976D-03  0.41988570D-17
 -0.51066332D-17  0.47136030D-05  0.22172682D-03  0.47690025D-18 -0.36550965D-04
 -0.12361240D-03  0.77954686D-18  0.22410156D-04 -0.54156806D-03 -0.22102476D-17
  0.11063404D-17  0.12792481D-03  0.23836905D-03  0.40314183D-03  0.60710925D-03
  0.75164064D-03  0.63961226D-03  0.24338426D-03 -0.11398723D-05 -0.87870978D-04
 -0.16475891D-03 -0.28030392D-03 -0.43528239D-03 -0.57764505D-03 -0.60875859D-03
 -0.37746916D-03  0.25109263D-03  0.41743775D-05  0.16353155D-03 -0.15086763D-03
  0.31051431D-03  0.29824528D-03  0.20915018D-03 -0.26446126D-03 -0.25401188D-03
 -0.17813066D-03 -0.22962583D-17 -0.22055286D-17 -0.15466689D-17 -0.11727994D-02
  0.10046144D-02  0.24853133D-17  0.22998213D-03  0.26848001D-04  0.19972522D-17
  0.41136119D-04 -0.72070989D-05  0.67978570D-19 -0.13219156D-03  0.29279091D-03
 -0.16059936D-03 -0.66743392D-03  0.60970521D-18 -0.17514031D-17  0.41931769D-03
 -0.55351770D-03  0.13420001D-03 -0.57236550D-03 -0.48412096D-19  0.13777236D-17
  0.14579866D-03 -0.10930221D-03 -0.36496451D-04 -0.48652557D-04 -0.86772567D-18
  0.18309910D-18 -0.92751985D-04  0.21062838D-03  0.62561057D-18 -0.74007108D-04
 -0.46627295D-03 -0.38013318D-17  0.35226306D-03 -0.16561220D-03  0.19245001D-17
 -0.37120689D-18 -0.40537039D-04 -0.21360259D-03 -0.45777073D-18  0.36522598D-03
  0.55353076D-03  0.23217976D-17 -0.24361486D-03  0.87277017D-04 -0.94848542D-18
  0.94392162D-18
MO    2     MO 0.0        OCC NO =    2.0000000  ORB. ENERGY =  -14.212873
  0.46640045D-04  0.84117243D-04  0.12403083D-03  0.30926458D-03  0.42159683D-03
  0.12548739D-04  0.29213008D-03  0.10695954D-03  0.10921711D-16 -0.19139599D-03
  0.16287099D-03  0.35193313D-16  0.84600886D-04  0.19937347D-04 -0.11418344D-16
 -0.24208452D-03  0.13627379D-03  0.10581073D-03  0.21699558D-03  0.32961428D-17
  0.97488164D-18 -0.66141806D-04  0.44795117D-04  0.21346689D-04 -0.68954810D-05
 -0.30761132D-18  0.82219654D-18  0.14211880D-03  0.25631710D-03  0.37793941D-03
 -0.19598661D-02 -0.71069336D-03 -0.82368096D-05 -0.16898350D-03 -0.22258094D-02
  0.38478542D-18  0.14157810D-03 -0.22710549D-02  0.21124669D-17  0.95856363D-04
 -0.19755607D-03 -0.28755908D-18  0.11460615D-02 -0.27369835D-02  0.15909220D-02
 -0.25899814D-03  0.84144193D-18  0.33120096D-17  0.52962016D-04 -0.16562998D-03
  0.11266796D-03  0.40804206D-04 -0.68603067D-18  0.67266796D-19  0.13814673D-03
  0.24915331D-03  0.36737641D-03 -0.19959001D-02 -0.10758493D-02  0.33344106D-05
  0.20098505D-02  0.10455892D-02  0.85093895D-18  0.22519601D-02  0.82926812D-03
  0.17713425D-17  0.28515294D-03  0.22212053D-04 -0.85505523D-19 -0.20642451D-02
  0.47205298D-03  0.15921921D-02 -0.30919430D-02 -0.22278850D-17 -0.18054059D-17
 -0.17377895D-03  0.47709682D-04  0.12606927D-03 -0.13873209D-03 -0.14765560D-17
  0.98255077D-18  0.18119588D-03  0.33779031D-03  0.57092513D-03  0.85828749D-03
  0.10545053D-02  0.89069834D-03  0.33593864D-03 -0.16625791D-05 -0.14672803D-03
 -0.27472116D-03 -0.46773628D-03 -0.72351691D-03 -0.95284632D-03 -0.99006836D-03
 -0.62914400D-03  0.42163768D-03  0.10162738D-02 -0.12708766D-02 -0.33195760D-03
  0.83981840D-03  0.78738313D-03  0.56066370D-03 -0.42874959D-03 -0.40197999D-03
 -0.28623370D-03  0.13312066D-17  0.12480908D-17  0.88871501D-18  0.19812404D-04
 -0.41280794D-03 -0.14277905D-17  0.96680800D-04  0.32599731D-03  0.70808367D-18
 -0.92648497D-05  0.69119903D-05 -0.19527268D-18 -0.56180743D-04  0.53155601D-05
  0.50865183D-04  0.31181270D-03  0.17961988D-17  0.44059984D-18 -0.13446133D-03
 -0.27851053D-03  0.41297186D-03  0.34547445D-03  0.22698508D-17 -0.12600548D-17
  0.17068510D-04 -0.24932768D-04  0.78642584D-05  0.48338088D-04  0.34631704D-18
 -0.51122247D-18 -0.38359627D-04 -0.34954824D-03 -0.12200094D-17 -0.59008663D-03
  0.14245525D-02  0.54730770D-17  0.70516551D-03 -0.37590775D-03 -0.18130488D-17
  0.11179364D-17  0.12384036D-04  0.70133534D-05  0.23101172D-18 -0.93960414D-04
  0.78343026D-04 -0.10842641D-17  0.56808305D-04 -0.99383087D-04  0.39122896D-18
 -0.14078348D-17  0.16100201D-03  0.30008704D-03  0.50884818D-03  0.77016543D-03
  0.96094159D-03  0.82532067D-03  0.31685665D-03 -0.14173193D-05 -0.11267087D-03
 -0.21131700D-03 -0.36024917D-03 -0.56299933D-03 -0.75283737D-03 -0.80385480D-03
 -0.49146106D-03  0.32423616D-03 -0.36794203D-04  0.45053499D-03  0.11487189D-03
 -0.15425354D-03 -0.14957404D-03 -0.10090177D-03  0.84449928D-04  0.81888023D-04
  0.55241176D-04 -0.18659364D-18 -0.18093306D-18 -0.12205637D-18  0.21826669D-03
 -0.55852764D-03 -0.42879199D-18 -0.10307109D-03 -0.20506684D-03  0.38466180D-18
 -0.12322694D-04 -0.49281134D-06  0.39878739D-18  0.26955262D-04  0.36540500D-03
 -0.39236026D-03 -0.43461012D-03  0.23686466D-17  0.99075382D-17 -0.14553842D-03
  0.75554240D-04  0.69984181D-04  0.15361609D-04 -0.32401975D-18 -0.43062450D-17
 -0.20432597D-04  0.13102708D-04  0.73298890D-05  0.61578368D-04 -0.19063083D-19
  0.16767230D-18 -0.14595774D-03 -0.49019505D-04  0.48425854D-18  0.41810382D-03
  0.11677018D-03 -0.63242390D-17  0.19769400D-04  0.30288334D-04  0.48714634D-17
 -0.15836288D-17  0.37957885D-04  0.42698610D-05 -0.30906594D-18 -0.95408164D-04
  0.12593542D-03 -0.86972102D-19 -0.18465490D-04 -0.13874500D-03  0.10141699D-17
  0.15432669D-18  0.41342682D+00  0.77036001D+00  0.13028719D+01  0.19620529D+01
  0.24291488D+01  0.20670960D+01  0.78656815D+00 -0.36838342D-02 -0.19532434D-02
 -0.36623496D-02 -0.62307463D-02 -0.96756912D-02 -0.12840205D-01 -0.13531813D-01
 -0.83905876D-02  0.55814221D-02  0.39227544D-01  0.34857868D-02  0.71310665D-03
 -0.18259351D-03 -0.17537889D-03 -0.12298778D-03 -0.58869485D-04 -0.56543436D-04
 -0.39652160D-04  0.22091427D-16  0.21218551D-16  0.14879913D-16  0.16890297D-02
 -0.10198854D-02 -0.46390133D-17  0.50164656D-04 -0.30134083D-03 -0.26748775D-17
 -0.45482125D-04  0.26341159D-04  0.20679785D-19  0.15241840D-02  0.21671558D-02
 -0.36913399D-02  0.10499894D-02  0.34001422D-17 -0.73034053D-17  0.68588258D-04
  0.36128517D-03 -0.42987343D-03  0.12685627D-02 -0.12841155D-17  0.11655956D-17
 -0.83325340D-05 -0.24113614D-04  0.32446148D-04  0.19645808D-03  0.13059669D-17
 -0.47432356D-18  0.64725557D-03 -0.20672426D-02 -0.42045691D-19 -0.79790567D-03
  0.55417475D-02 -0.14830551D-17 -0.11438610D-02  0.65998031D-03  0.16091922D-17
 -0.50060069D-18 -0.96196945D-04  0.31557729D-03  0.51438064D-18  0.18457872D-03
 -0.90943873D-03  0.95914276D-19  0.10401212D-03 -0.37293140D-04 -0.16390562D-17
 -0.17605324D-17
MO    3     MO 0.0        OCC NO =    2.0000000  ORB. ENERGY =  -10.150866
  0.72752497D-05  0.13121212D-04  0.19347220D-04 -0.24673295D-02 -0.24373925D-02
 -0.20872958D-04 -0.16099021D-02 -0.12978870D-02  0.57692136D-17 -0.18839960D-02
 -0.13259812D-02 -0.10494921D-17 -0.21306424D-03 -0.45819927D-03 -0.29283933D-18
 -0.99908154D-03  0.10266840D-04  0.98881470D-03 -0.32291852D-02 -0.14163461D-18
 -0.93286989D-19 -0.96346441D-04 -0.38523550D-04  0.13486999D-03 -0.21414296D-03
 -0.64593444D-18 -0.35070018D-18  0.11921721D-03  0.21501315D-03  0.31703676D-03
  0.19689166D-02  0.15720791D-02 -0.36585134D-05 -0.22721125D-05  0.40855444D-03
 -0.30278437D-18 -0.21728773D-03  0.24430996D-03  0.10726020D-17 -0.76561814D-04
  0.22137288D-03  0.12134950D-18 -0.24920472D-03 -0.33079802D-04  0.28228453D-03
  0.46840262D-03  0.15071780D-18  0.71874505D-18 -0.65281346D-04 -0.32243666D-04
  0.97525012D-04  0.26621840D-04 -0.18778135D-18  0.28884362D-18  0.86475475D-04
  0.15596208D-03  0.22996600D-03  0.12831542D-02 -0.81947284D-03 -0.37683490D-04
 -0.52166373D-04 -0.42767108D-03 -0.64195263D-19  0.19102476D-03 -0.11716082D-02
 -0.14023286D-18  0.22252461D-03 -0.31120232D-05 -0.89252016D-19 -0.47457916D-03
  0.36194600D-03  0.11263316D-03  0.10185099D-02  0.52425238D-18  0.33085036D-18
 -0.13049283D-03  0.80588143D-04  0.49904682D-04  0.23806044D-03 -0.21861685D-19
  0.15725959D-18  0.32954238D+00  0.61434193D+00  0.10383461D+01  0.15609743D+01
  0.19178373D+01  0.16199202D+01  0.61097429D+00 -0.30237458D-02 -0.26678011D-02
 -0.49949654D-02 -0.85043560D-02 -0.13154946D-01 -0.17324601D-01 -0.18001370D-01
 -0.11439062D-01  0.76661936D-02  0.31977102D-01  0.47870423D-02  0.69431357D-03
  0.17541669D-02  0.16446429D-02  0.11710837D-02  0.10333508D-03  0.96883208D-04
  0.68986615D-04 -0.29417906D-16 -0.27581157D-16 -0.19639427D-16 -0.23097546D-04
  0.16179992D-02  0.56990860D-17 -0.13079439D-05 -0.66882867D-03  0.12661803D-17
  0.32863720D-04 -0.14380208D-04  0.32680094D-19  0.62296741D-03  0.32697992D-02
 -0.38927666D-02 -0.47733228D-04  0.37650943D-17  0.13065883D-17  0.61848550D-03
 -0.22090814D-03 -0.39757736D-03  0.43673790D-03  0.34685259D-18 -0.15161921D-17
  0.19675660D-03 -0.18853583D-03 -0.82207734D-05  0.53462250D-04  0.10997100D-18
 -0.10942833D-18 -0.15264024D-04  0.17722612D-02 -0.24115264D-18 -0.45301855D-03
 -0.46913194D-02  0.12275959D-17  0.49881062D-03 -0.62546421D-03 -0.50413801D-18
 -0.85957786D-18 -0.14751289D-04 -0.16399275D-03 -0.23236337D-18  0.26163161D-04
  0.35194525D-03  0.35559802D-18  0.18090707D-04  0.14003300D-03  0.34149210D-18
 -0.53528189D-19  0.13680203D-03  0.25498138D-03  0.43236394D-03  0.65440297D-03
  0.81650384D-03  0.70126790D-03  0.26923038D-03 -0.12042840D-05 -0.15723874D-03
 -0.29490515D-03 -0.50274862D-03 -0.78569824D-03 -0.10506283D-02 -0.11218260D-02
 -0.68586244D-03  0.45249038D-03  0.77968048D-03 -0.17081041D-02  0.69315765D-05
 -0.20167678D-04 -0.19555864D-04 -0.13192270D-04 -0.20811987D-02 -0.20180627D-02
 -0.13613731D-02  0.23832990D-19  0.23109983D-19  0.15589858D-19  0.50144757D-05
  0.26989844D-02 -0.80969174D-19 -0.20019328D-03  0.23822895D-02 -0.52942187D-18
 -0.20913960D-04  0.20332787D-04 -0.31534372D-20  0.87428291D-04 -0.19763382D-03
  0.11020553D-03 -0.12756498D-03 -0.63026536D-19 -0.12904860D-18  0.11970853D-02
 -0.23188141D-02  0.11217288D-02  0.18449238D-04  0.10155140D-18 -0.72848876D-19
  0.17928932D-03 -0.47294082D-03  0.29365150D-03  0.65165157D-04 -0.75432796D-19
  0.15796006D-18 -0.11958848D-03  0.76497269D-03 -0.52610748D-18  0.29639045D-03
 -0.17894495D-02  0.43775813D-18  0.62374995D-04 -0.50546853D-03  0.11405643D-17
 -0.81181049D-18  0.30173092D-04  0.46673623D-03  0.17548442D-19 -0.41301994D-04
 -0.67048288D-03 -0.38537098D-18 -0.49217282D-04 -0.72972580D-03  0.33272566D-18
  0.13380930D-18  0.22970820D-03  0.42802740D-03  0.72390164D-03  0.10901558D-02
  0.13496835D-02  0.11485198D-02  0.43703296D-03 -0.20468118D-05 -0.20635211D-03
 -0.38691213D-03 -0.65825266D-03 -0.10221969D-02 -0.13565147D-02 -0.14295803D-02
 -0.88643098D-03  0.58965423D-03  0.10719568D-02 -0.44067551D-02 -0.11007570D-02
 -0.96527338D-03 -0.92713354D-03 -0.65017004D-03  0.65936420D-03  0.63331143D-03
  0.44412169D-03  0.99652862D-18  0.95715382D-18  0.67122233D-18  0.64838334D-03
 -0.48790867D-03 -0.93949828D-18  0.39902997D-03  0.27082738D-03 -0.18890795D-17
  0.67534655D-04 -0.40370906D-04 -0.77975170D-19  0.20720633D-03  0.36713954D-03
 -0.57434587D-03 -0.43151743D-03 -0.18293701D-17  0.25512136D-18 -0.87980373D-03
 -0.31556394D-03  0.11953677D-02  0.23422419D-02  0.21457032D-17 -0.34062897D-18
  0.78747147D-04 -0.17486702D-03  0.96119869D-04  0.76216706D-06  0.58560848D-18
 -0.19704354D-18 -0.60762648D-04  0.54500568D-03 -0.43724970D-19  0.10441175D-02
 -0.23781596D-02  0.10869443D-18 -0.86182954D-03  0.74314253D-03  0.22480478D-19
  0.20039311D-17 -0.28512813D-03  0.25645775D-03  0.28692793D-18  0.10107304D-02
 -0.82965142D-03 -0.35014831D-18 -0.15534603D-03  0.60278166D-04 -0.51063548D-18
  0.37871456D-18
MO    4     MO 0.0        OCC NO =    2.0000000  ORB. ENERGY =   -1.008998
  0.40931795D-02  0.73822178D-02  0.10885076D-01 -0.88767944D-02 -0.93430346D-02
 -0.59895755D-04 -0.23414468D-03  0.17128132D-02 -0.28233834D-15 -0.94212702D-02
 -0.36360301D-02 -0.13965487D-15 -0.14441258D-02 -0.12773587D-02 -0.59816433D-16
 -0.33143540D-02  0.22401820D-02  0.10741721D-02 -0.34811454D-02  0.39599466D-16
  0.37089895D-15 -0.56211224D-03 -0.87849761D-04  0.64996200D-03 -0.90570081D-03
 -0.39571649D-16 -0.18719333D-16  0.37520462D-02  0.67669699D-02  0.99778931D-02
  0.85713992D-03 -0.76085427D-03 -0.22619821D-03  0.15599721D-03  0.54046575D-02
  0.45839787D-17  0.54879256D-03  0.26195121D-03 -0.97420450D-17  0.64866069D-04
 -0.28503157D-03 -0.43826764D-17 -0.38654418D-03  0.16119614D-02 -0.12254172D-02
  0.11195168D-02  0.67493345D-17 -0.25906391D-17 -0.10720238D-05  0.10339969D-03
 -0.10232767D-03  0.87281652D-04 -0.66763165D-17 -0.20682285D-18  0.46365133D-02
  0.83621426D-02  0.12329974D-01  0.41374132D-02 -0.35941385D-02 -0.21544130D-03
 -0.70074754D-02 -0.16545406D-02  0.32694265D-17 -0.23329044D-02  0.29086285D-02
  0.17596632D-16  0.97460470D-03  0.37042345D-03  0.10779941D-16  0.26043604D-02
 -0.13093361D-02 -0.12950243D-02  0.51392374D-04 -0.11078934D-16 -0.13984421D-16
  0.93800792D-04 -0.10173506D-03  0.79342694D-05 -0.47788653D-03 -0.92416565D-17
 -0.17662325D-17 -0.72849150D-02 -0.13580738D-01 -0.22953839D-01 -0.34507139D-01
 -0.42396008D-01 -0.35810206D-01 -0.13506292D-01  0.66843394D-04 -0.32189639D-01
 -0.60269160D-01 -0.10261340D+00 -0.15872733D+00 -0.20903831D+00 -0.21720419D+00
 -0.13802351D+00  0.92500149D-01  0.40110909D-01  0.30777360D-01  0.39585806D-02
  0.35952159D-01  0.33707435D-01  0.24001702D-01  0.18243159D+00  0.17104121D+00
  0.12179153D+00 -0.14492437D-15 -0.13587581D-15 -0.96751670D-16  0.83541716D-03
  0.18999294D-01 -0.22154020D-16  0.11987031D-02 -0.36115866D-02  0.19133593D-16
  0.21138712D-03 -0.11476920D-03 -0.76887788D-18 -0.42722336D-02  0.22939207D-01
 -0.18666973D-01 -0.22981196D-02  0.10418506D-15  0.57076859D-16  0.76262614D-03
  0.34858193D-02 -0.42484455D-02  0.30409397D-02 -0.64957835D-16 -0.10690332D-15
  0.39414221D-03 -0.26908281D-03 -0.12505940D-03  0.24004780D-04 -0.13186688D-16
 -0.15324421D-16  0.48964784D-04  0.50934368D-02  0.17070458D-16 -0.24722916D-07
 -0.15578587D-01 -0.83559000D-17 -0.14686963D-03  0.29827637D-03 -0.42855473D-16
 -0.66392704D-16  0.41550444D-04 -0.34008499D-03 -0.56189353D-17 -0.11583420D-03
  0.31444852D-03  0.19909828D-16 -0.88171287D-05  0.70580645D-03 -0.30530223D-17
  0.40702256D-16 -0.42231738D-02 -0.78714525D-02 -0.13347375D-01 -0.20201874D-01
 -0.25206041D-01 -0.21648627D-01 -0.83113290D-02  0.37177085D-04 -0.84369984D-01
 -0.15823800D+00 -0.26976110D+00 -0.42158408D+00 -0.56373825D+00 -0.60194102D+00
 -0.36801494D+00  0.24279390D+00  0.12432150D+00  0.53052511D-01 -0.64838928D-03
  0.14481868D-01  0.14042541D-01  0.94730149D-02 -0.39501784D+00 -0.38303443D+00
 -0.25839276D+00 -0.28331512D-16 -0.27472037D-16 -0.18532474D-16  0.37661425D-02
 -0.10316401D+00 -0.33529643D-16 -0.21442268D-03 -0.25946041D-02  0.75301748D-16
 -0.10636545D-03  0.22858595D-03  0.54643300D-17 -0.21482491D-01  0.36084918D-01
 -0.14602427D-01 -0.30052643D-02 -0.13811624D-16  0.10434222D-15 -0.86085930D-02
  0.16770368D-01 -0.81617747D-02 -0.17355639D-02 -0.40086360D-17 -0.79933461D-16
  0.37273398D-03 -0.77105313D-03  0.39831915D-03  0.21626832D-03  0.66247151D-18
 -0.32251914D-16 -0.58567147D-03 -0.73446951D-02  0.29585380D-17  0.22917880D-02
  0.97745437D-02  0.17660137D-16 -0.53477362D-03  0.12259542D-01 -0.26535751D-16
  0.16407223D-16  0.46356727D-05 -0.16343921D-02 -0.97606523D-17  0.24125543D-03
  0.23236639D-02 -0.21019814D-16 -0.25516245D-03  0.25795122D-02  0.50301771D-16
  0.37826649D-17 -0.21306511D-02 -0.39701546D-02 -0.67145268D-02 -0.10111705D-01
 -0.12518947D-01 -0.10653059D-01 -0.40536855D-02  0.18985139D-04 -0.21073442D-01
 -0.39512901D-01 -0.67223201D-01 -0.10439053D+00 -0.13853231D+00 -0.14599404D+00
 -0.90525618D-01  0.60217676D-01  0.28934916D-01  0.43809719D-02 -0.40054781D-02
 -0.46247316D-01 -0.44419994D-01 -0.31150366D-01  0.56705684D-01  0.54465132D-01
  0.38194710D-01 -0.59801297D-17 -0.57438431D-17 -0.40279792D-17 -0.10228442D-01
  0.13027108D-01 -0.12565843D-16  0.58197575D-02 -0.46970383D-02 -0.49246628D-17
  0.36255309D-03 -0.34831715D-03 -0.93762267D-18  0.19708664D-02  0.43009847D-02
 -0.62718511D-02 -0.77766822D-02  0.25967082D-16  0.71812284D-17 -0.39932126D-03
  0.12981449D-02 -0.89882369D-03 -0.19195808D-02 -0.21785723D-16 -0.23616631D-17
 -0.24811273D-03 -0.14837171D-03  0.39648444D-03  0.72963789D-03 -0.13985220D-17
 -0.48724063D-17  0.75377271D-03  0.13498759D-02  0.27898143D-17 -0.49410599D-02
 -0.93828922D-03 -0.43400647D-17  0.26797417D-02 -0.31113386D-02 -0.40293782D-17
 -0.68531376D-17  0.88872468D-03 -0.64866132D-03  0.42556363D-19 -0.16805341D-02
  0.12286688D-02 -0.56354803D-17 -0.98563999D-03  0.71731519D-03  0.55078112D-17
 -0.14565487D-16
MO    5     MO 0.0        OCC NO =    2.0000000  ORB. ENERGY =   -0.885974
  0.28448766D-02  0.51308521D-02  0.75654384D-02 -0.81145616D-03 -0.83352510D-02
  0.23395556D-04  0.51475370D-02 -0.32623648D-02  0.97980191D-16 -0.87596604D-03
 -0.23024734D-02 -0.16730992D-15 -0.13408029D-02 -0.71819488D-03  0.70885234D-16
  0.37448531D-02 -0.33434381D-02 -0.40141498D-03 -0.41146321D-02  0.41793601D-15
 -0.24005281D-15 -0.34804572D-03  0.19381048D-03  0.15423524D-03  0.11270582D-03
  0.23953400D-16  0.40964667D-16  0.19140436D-01  0.34520565D-01  0.50900553D-01
  0.10510951D-01 -0.76967311D-02 -0.23622953D-03  0.14373256D-03  0.24365121D-01
  0.62592047D-16 -0.37361067D-02 -0.19966092D-02 -0.77894000D-16 -0.90080099D-04
 -0.18200572D-02 -0.15711078D-16 -0.24639350D-02  0.66842509D-02 -0.42203159D-02
 -0.28692374D-02 -0.37637441D-16 -0.19183037D-16  0.60566768D-03 -0.67567365D-03
  0.70005972D-04 -0.11896262D-02  0.21905288D-17 -0.34889738D-16  0.17833128D-01
  0.32162781D-01  0.47424002D-01  0.11031958D-01 -0.74671693D-02 -0.12321069D-03
 -0.20712242D-01 -0.10332191D-01  0.13117400D-16 -0.29066558D-03  0.21586519D-02
  0.22942100D-16  0.17287471D-02  0.53072471D-03 -0.24613360D-16  0.55776895D-02
 -0.15440356D-02 -0.40336539D-02  0.63620758D-02 -0.17127298D-16 -0.24406355D-16
 -0.56406291D-04  0.10742918D-03 -0.51022891D-04 -0.13909237D-02  0.96961527D-17
 -0.57974901D-17 -0.16433098D-02 -0.30635031D-02 -0.51778600D-02 -0.77840196D-02
 -0.95635675D-02 -0.80779616D-02 -0.30467099D-02  0.15078337D-04 -0.98829223D-02
 -0.18503949D-01 -0.31504556D-01 -0.48732758D-01 -0.64179328D-01 -0.66686432D-01
 -0.42376234D-01  0.28399567D-01  0.12353227D-01  0.14835684D-01 -0.39028603D-04
  0.12821162D+00  0.12020654D+00  0.85594220D-01 -0.20354784D+00 -0.19083904D+00