 Molden2AIM, Version 4.0.0 (06/02/2016)           Time: Thu Jun 28 17:46:27 2018
GAUSSIAN              9 MOL ORBITALS    258 PRIMITIVES        6 NUCLEI
  C    1    (CENTRE  1)  -0.05759318  1.25116877  0.00000000  CHARGE =  6.0
  O    2    (CENTRE  2)  -0.12174372 -1.42298834  0.00000000  CHARGE =  8.0
  H    3    (CENTRE  3)  -2.02626640  1.89820155  0.00000000  CHARGE =  1.0
  H    4    (CENTRE  4)   0.88070497  2.01841647  1.69568338  CHARGE =  1.0
  H    5    (CENTRE  5)   0.88070497  2.01841647 -1.69568338  CHARGE =  1.0
  H    6    (CENTRE  6)   1.58388718 -2.04536586  0.00000000  CHARGE =  1.0
CENTRE ASSIGNMENTS    1  1  1  1  1  1  1  1  1  1  1  1  1  1  1  1  1  1  1  1
CENTRE ASSIGNMENTS    1  1  1  1  1  1  1  1  1  1  1  1  1  1  1  1  1  1  1  1
CENTRE ASSIGNMENTS    1  1  1  1  1  1  1  1  1  1  1  1  1  1  1  1  1  1  1  1
CENTRE ASSIGNMENTS    1  1  1  1  1  1  1  1  1  1  1  1  1  1  1  2  2  2  2  2
CENTRE ASSIGNMENTS    2  2  2  2  2  2  2  2  2  2  2  2  2  2  2  2  2  2  2  2
CENTRE ASSIGNMENTS    2  2  2  2  2  2  2  2  2  2  2  2  2  2  2  2  2  2  2  2
CENTRE ASSIGNMENTS    2  2  2  2  2  2  2  2  2  2  2  2  2  2  2  2  2  2  2  2
CENTRE ASSIGNMENTS    2  2  2  2  2  2  2  2  2  2  3  3  3  3  3  3  3  3  3  3
CENTRE ASSIGNMENTS    3  3  3  3  3  3  3  3  3  3  3  3  3  3  3  3  3  4  4  4
CENTRE ASSIGNMENTS    4  4  4  4  4  4  4  4  4  4  4  4  4  4  4  4  4  4  4  4
CENTRE ASSIGNMENTS    4  4  4  4  5  5  5  5  5  5  5  5  5  5  5  5  5  5  5  5
CENTRE ASSIGNMENTS    5  5  5  5  5  5  5  5  5  5  5  6  6  6  6  6  6  6  6  6
CENTRE ASSIGNMENTS    6  6  6  6  6  6  6  6  6  6  6  6  6  6  6  6  6  6
TYPE ASSIGNMENTS      1  1  1  1  1  1  1  1  1  1  1  1  1  1  1  1  1  1  1  2
TYPE ASSIGNMENTS      2  2  3  3  3  4  4  4  2  3  4  2  3  4  2  3  4  5  6  7
TYPE ASSIGNMENTS      8  9 10  5  6  7  8  9 10  5  6  7  8  9 10 11 12 13 17 14
TYPE ASSIGNMENTS     15 18 19 16 20 11 12 13 17 14 15 18 19 16 20  1  1  1  1  1
TYPE ASSIGNMENTS      1  1  1  1  1  1  1  1  1  1  1  1  1  1  2  2  2  3  3  3
TYPE ASSIGNMENTS      4  4  4  2  3  4  2  3  4  2  3  4  5  6  7  8  9 10  5  6
TYPE ASSIGNMENTS      7  8  9 10  5  6  7  8  9 10 11 12 13 17 14 15 18 19 16 20
TYPE ASSIGNMENTS     11 12 13 17 14 15 18 19 16 20  1  1  1  1  1  1  2  3  4  2
TYPE ASSIGNMENTS      3  4  2  3  4  5  6  7  8  9 10  5  6  7  8  9 10  1  1  1
TYPE ASSIGNMENTS      1  1  1  2  3  4  2  3  4  2  3  4  5  6  7  8  9 10  5  6
TYPE ASSIGNMENTS      7  8  9 10  1  1  1  1  1  1  2  3  4  2  3  4  2  3  4  5
TYPE ASSIGNMENTS      6  7  8  9 10  5  6  7  8  9 10  1  1  1  1  1  1  2  3  4
TYPE ASSIGNMENTS      2  3  4  2  3  4  5  6  7  8  9 10  5  6  7  8  9 10
EXPONENTS  0.8236000D+04 0.1235000D+04 0.2808000D+03 0.7927000D+02 0.2559000D+02
EXPONENTS  0.8997000D+01 0.3319000D+01 0.3643000D+00 0.8236000D+04 0.1235000D+04
EXPONENTS  0.2808000D+03 0.7927000D+02 0.2559000D+02 0.8997000D+01 0.3319000D+01
EXPONENTS  0.3643000D+00 0.9059000D+00 0.1285000D+00 0.4402000D-01 0.1871000D+02
EXPONENTS  0.4133000D+01 0.1200000D+01 0.1871000D+02 0.4133000D+01 0.1200000D+01
EXPONENTS  0.1871000D+02 0.4133000D+01 0.1200000D+01 0.3827000D+00 0.3827000D+00
EXPONENTS  0.3827000D+00 0.1209000D+00 0.1209000D+00 0.1209000D+00 0.3569000D-01
EXPONENTS  0.3569000D-01 0.3569000D-01 0.1097000D+01 0.1097000D+01 0.1097000D+01
EXPONENTS  0.1097000D+01 0.1097000D+01 0.1097000D+01 0.3180000D+00 0.3180000D+00
EXPONENTS  0.3180000D+00 0.3180000D+00 0.3180000D+00 0.3180000D+00 0.1000000D+00
EXPONENTS  0.1000000D+00 0.1000000D+00 0.1000000D+00 0.1000000D+00 0.1000000D+00
EXPONENTS  0.7610000D+00 0.7610000D+00 0.7610000D+00 0.7610000D+00 0.7610000D+00
EXPONENTS  0.7610000D+00 0.7610000D+00 0.7610000D+00 0.7610000D+00 0.7610000D+00
EXPONENTS  0.2680000D+00 0.2680000D+00 0.2680000D+00 0.2680000D+00 0.2680000D+00
EXPONENTS  0.2680000D+00 0.2680000D+00 0.2680000D+00 0.2680000D+00 0.2680000D+00
EXPONENTS  0.1533000D+05 0.2299000D+04 0.5224000D+03 0.1473000D+03 0.4755000D+02
EXPONENTS  0.1676000D+02 0.6207000D+01 0.6882000D+00 0.1533000D+05 0.2299000D+04
EXPONENTS  0.5224000D+03 0.1473000D+03 0.4755000D+02 0.1676000D+02 0.6207000D+01
EXPONENTS  0.6882000D+00 0.1752000D+01 0.2384000D+00 0.7376000D-01 0.3446000D+02
EXPONENTS  0.7749000D+01 0.2280000D+01 0.3446000D+02 0.7749000D+01 0.2280000D+01
EXPONENTS  0.3446000D+02 0.7749000D+01 0.2280000D+01 0.7156000D+00 0.7156000D+00
EXPONENTS  0.7156000D+00 0.2140000D+00 0.2140000D+00 0.2140000D+00 0.5974000D-01
EXPONENTS  0.5974000D-01 0.5974000D-01 0.2314000D+01 0.2314000D+01 0.2314000D+01
EXPONENTS  0.2314000D+01 0.2314000D+01 0.2314000D+01 0.6450000D+00 0.6450000D+00
EXPONENTS  0.6450000D+00 0.6450000D+00 0.6450000D+00 0.6450000D+00 0.2140000D+00
EXPONENTS  0.2140000D+00 0.2140000D+00 0.2140000D+00 0.2140000D+00 0.2140000D+00
EXPONENTS  0.1428000D+01 0.1428000D+01 0.1428000D+01 0.1428000D+01 0.1428000D+01
EXPONENTS  0.1428000D+01 0.1428000D+01 0.1428000D+01 0.1428000D+01 0.1428000D+01
EXPONENTS  0.5000000D+00 0.5000000D+00 0.5000000D+00 0.5000000D+00 0.5000000D+00
EXPONENTS  0.5000000D+00 0.5000000D+00 0.5000000D+00 0.5000000D+00 0.5000000D+00
EXPONENTS  0.3387000D+02 0.5095000D+01 0.1159000D+01 0.3258000D+00 0.1027000D+00
EXPONENTS  0.2526000D-01 0.1407000D+01 0.1407000D+01 0.1407000D+01 0.3880000D+00
EXPONENTS  0.3880000D+00 0.3880000D+00 0.1020000D+00 0.1020000D+00 0.1020000D+00
EXPONENTS  0.1057000D+01 0.1057000D+01 0.1057000D+01 0.1057000D+01 0.1057000D+01
EXPONENTS  0.1057000D+01 0.2470000D+00 0.2470000D+00 0.2470000D+00 0.2470000D+00
EXPONENTS  0.2470000D+00 0.2470000D+00 0.3387000D+02 0.5095000D+01 0.1159000D+01
EXPONENTS  0.3258000D+00 0.1027000D+00 0.2526000D-01 0.1407000D+01 0.1407000D+01
EXPONENTS  0.1407000D+01 0.3880000D+00 0.3880000D+00 0.3880000D+00 0.1020000D+00
EXPONENTS  0.1020000D+00 0.1020000D+00 0.1057000D+01 0.1057000D+01 0.1057000D+01
EXPONENTS  0.1057000D+01 0.1057000D+01 0.1057000D+01 0.2470000D+00 0.2470000D+00
EXPONENTS  0.2470000D+00 0.2470000D+00 0.2470000D+00 0.2470000D+00 0.3387000D+02
EXPONENTS  0.5095000D+01 0.1159000D+01 0.3258000D+00 0.1027000D+00 0.2526000D-01
EXPONENTS  0.1407000D+01 0.1407000D+01 0.1407000D+01 0.3880000D+00 0.3880000D+00
EXPONENTS  0.3880000D+00 0.1020000D+00 0.1020000D+00 0.1020000D+00 0.1057000D+01
EXPONENTS  0.1057000D+01 0.1057000D+01 0.1057000D+01 0.1057000D+01 0.1057000D+01
EXPONENTS  0.2470000D+00 0.2470000D+00 0.2470000D+00 0.2470000D+00 0.2470000D+00
EXPONENTS  0.2470000D+00 0.3387000D+02 0.5095000D+01 0.1159000D+01 0.3258000D+00
EXPONENTS  0.1027000D+00 0.2526000D-01 0.1407000D+01 0.1407000D+01 0.1407000D+01
EXPONENTS  0.3880000D+00 0.3880000D+00 0.3880000D+00 0.1020000D+00 0.1020000D+00
EXPONENTS  0.1020000D+00 0.1057000D+01 0.1057000D+01 0.1057000D+01 0.1057000D+01
EXPONENTS  0.1057000D+01 0.1057000D+01 0.2470000D+00 0.2470000D+00 0.2470000D+00
EXPONENTS  0.2470000D+00 0.2470000D+00 0.2470000D+00
MO    1     MO 0.0        OCC NO =    2.0000000  ORB. ENERGY =  -18.973902
  0.17172909D-03  0.32014207D-03  0.54109650D-03  0.81344528D-03  0.99941151D-03
  0.84416279D-03  0.31838715D-03 -0.15757158D-05 -0.12308752D-03 -0.23045868D-03
 -0.39237562D-03 -0.60694543D-03 -0.79932578D-03 -0.83055068D-03 -0.52777767D-03
  0.35370432D-03 -0.13997756D-03  0.85317635D-03  0.20933096D-03  0.79642617D-04
  0.74670016D-04  0.53169500D-04  0.33649223D-03  0.31548286D-03  0.22464259D-03
  0.82326651D-15  0.77186468D-15  0.54961363D-15 -0.32948302D-03 -0.17855575D-02
 -0.32015127D-14 -0.13501478D-03 -0.39036026D-03 -0.32326069D-14 -0.33081679D-05
 -0.17607176D-04 -0.10926737D-15 -0.47203072D-03  0.91258780D-03 -0.44055709D-03
  0.32268861D-03 -0.50601797D-15 -0.41730775D-15 -0.50202225D-05  0.18466446D-03
 -0.17964424D-03 -0.37396024D-03 -0.19218980D-14 -0.17285673D-14 -0.27253514D-06
  0.23709591D-04 -0.23437056D-04 -0.24192764D-04 -0.26252060D-15 -0.28154574D-15
  0.38835856D-04 -0.48554630D-04 -0.10073399D-15 -0.24643201D-04  0.18750405D-03
 -0.53493850D-17 -0.91864367D-04 -0.41840159D-04  0.30755134D-15 -0.10377056D-14
 -0.39816550D-04  0.23692541D-04  0.51504171D-18  0.64120919D-04  0.36145765D-04
  0.71894304D-16  0.55328731D-04 -0.10722339D-03 -0.73439430D-16 -0.38031795D-15
  0.49911586D+00  0.93028774D+00  0.15774598D+01  0.23875588D+01  0.29789763D+01
  0.25585434D+01  0.98227455D+00 -0.43937743D-02 -0.89949803D-03 -0.16870309D-02
 -0.28760178D-02 -0.44946560D-02 -0.60102114D-02 -0.64175046D-02 -0.39235365D-02
  0.25885111D-02  0.49812865D-01 -0.84599114D-03 -0.54309476D-03  0.58095437D-02
  0.56333032D-02  0.38001931D-02  0.47176766D-02  0.45745594D-02  0.30859707D-02
  0.12736779D-15  0.12350391D-15  0.83315011D-16  0.90360904D-03 -0.13373912D-02
 -0.17517800D-15 -0.14738254D-03 -0.96417198D-03  0.10140687D-15  0.65466480D-05
 -0.59494811D-04 -0.22190507D-16  0.97891752D-03  0.37529616D-03 -0.13542137D-02
 -0.15834698D-02  0.17842131D-15  0.43160472D-15  0.61251416D-03 -0.84866643D-03
  0.23615228D-03 -0.48087295D-03 -0.12026227D-15 -0.29195261D-15  0.20484956D-04
 -0.13792112D-03  0.11743616D-03  0.45847665D-04  0.16136689D-16  0.19638488D-15
  0.75170906D-03  0.51732698D-03  0.56407696D-16 -0.78040429D-03 -0.22627090D-02
  0.11725629D-15 -0.14747229D-02  0.71072809D-03 -0.28647938D-15 -0.24382468D-15
 -0.94052409D-04 -0.28313973D-03  0.38145948D-17  0.86884679D-05  0.70638307D-03
 -0.59789437D-16  0.27346876D-03  0.14303611D-03  0.48345653D-16  0.14236803D-15
 -0.17115330D-04 -0.30868203D-04 -0.45515147D-04 -0.35735875D-03 -0.24578341D-03
 -0.17124338D-04 -0.20007017D-04  0.27436642D-04 -0.19309192D-15  0.22157309D-05
  0.47490252D-04 -0.10062529D-15 -0.36148379D-04 -0.21215797D-04 -0.63236598D-16
  0.12890292D-03 -0.10983789D-03 -0.19065032D-04  0.15050760D-03  0.17318655D-16
  0.16266790D-15  0.41775222D-05 -0.84260753D-05  0.42485531D-05 -0.35432987D-04
 -0.68368510D-16  0.99697330D-16  0.14730448D-04  0.26566969D-04  0.39172980D-04
  0.34098803D-03  0.22321490D-03  0.11317179D-04 -0.40944743D-04 -0.67560700D-04
 -0.65647554D-04 -0.19470503D-03  0.14381255D-03 -0.28671159D-03 -0.25952478D-04
 -0.15146201D-04 -0.31513194D-04  0.83776732D-04 -0.28511509D-03  0.20133836D-03
 -0.96168605D-04  0.18561293D-03 -0.16051186D-03  0.20580091D-04 -0.46631733D-04
  0.26051642D-04 -0.83246002D-05  0.23614014D-04  0.38283534D-04  0.14730448D-04
  0.26566969D-04  0.39172980D-04  0.34098803D-03  0.22321490D-03  0.11317179D-04
 -0.40944743D-04 -0.67560700D-04  0.65647554D-04 -0.19470503D-03  0.14381255D-03
  0.28671159D-03 -0.25952478D-04 -0.15146201D-04  0.31513194D-04  0.83776732D-04
 -0.28511509D-03  0.20133836D-03 -0.96168605D-04 -0.18561293D-03  0.16051186D-03
  0.20580091D-04 -0.46631733D-04  0.26051642D-04 -0.83246002D-05 -0.23614014D-04
 -0.38283534D-04  0.13483910D-03  0.24318786D-03  0.35858036D-03 -0.53030181D-03
 -0.28700099D-03 -0.33713049D-04  0.10943967D-02 -0.48691571D-03 -0.62668029D-17
  0.89994091D-03 -0.37426587D-03  0.95091523D-16  0.71755507D-04 -0.54577819D-04
  0.42494197D-16 -0.17364720D-02  0.66148923D-03  0.10749827D-02  0.21465242D-02
 -0.62240118D-16  0.46015706D-16 -0.61744097D-04  0.16575852D-04  0.45168245D-04
  0.76440394D-04 -0.44747249D-16 -0.20120191D-17
MO    2     MO 0.0        OCC NO =    2.0000000  ORB. ENERGY =  -10.093349
  0.32972338D+00  0.61467935D+00  0.10389164D+01  0.15618316D+01  0.19188906D+01
  0.16208099D+01  0.61130985D+00 -0.30254066D-02 -0.27254954D-02 -0.51029873D-02
 -0.86882726D-02 -0.13439437D-01 -0.17699265D-01 -0.18390670D-01 -0.11686445D-01
  0.78319839D-02  0.31241416D-01 -0.99009522D-03 -0.22291015D-03  0.48711543D-04
  0.45670168D-04  0.32519880D-04 -0.28306577D-02 -0.26539215D-02 -0.18897502D-02
 -0.91195270D-14 -0.85501362D-14 -0.60882063D-14 -0.30834416D-03  0.18800434D-02
  0.37057081D-13 -0.79685748D-04  0.39886010D-03  0.34814774D-13 -0.29638952D-05
  0.95354423D-05  0.52186447D-15  0.20969620D-03 -0.24363184D-03  0.33935642D-04
  0.14600354D-03  0.50454699D-14  0.66715285D-14  0.19331494D-03 -0.54304936D-03
  0.34973442D-03 -0.18696587D-03  0.26711772D-13  0.17363363D-13  0.12025804D-04
 -0.49249650D-04  0.37223846D-04  0.11580400D-05  0.52070757D-14  0.10867033D-14
 -0.11426334D-02 -0.12965995D-02  0.11545221D-14  0.10011182D-03  0.20587705D-02
  0.35629330D-15  0.33277882D-02  0.18310280D-02 -0.38198596D-14  0.13778518D-13
  0.16074649D-03  0.20445443D-03 -0.53435277D-16  0.42841918D-05 -0.22806081D-03
 -0.11448769D-14 -0.48652366D-03 -0.38530247D-03  0.13051828D-14  0.58730349D-14
  0.92603304D-04  0.17260064D-03  0.29267350D-03  0.44297498D-03  0.55270344D-03
  0.47469854D-03  0.18224600D-03 -0.81519754D-06 -0.88043573D-04 -0.16512790D-03
 -0.28150687D-03 -0.43994045D-03 -0.58828421D-03 -0.62815038D-03 -0.38403883D-03
  0.25336549D-03  0.30298838D-03  0.24899430D-02  0.69639443D-03 -0.33251220D-03
 -0.32242498D-03 -0.21750599D-03  0.86072816D-03  0.83461678D-03  0.56302755D-03
 -0.33201162D-14 -0.32193959D-14 -0.21717854D-14  0.62037729D-03  0.44374067D-04
  0.34452954D-14  0.57349477D-03  0.60742176D-03 -0.49593063D-14  0.12376903D-04
  0.55041637D-04  0.51823376D-15 -0.94088542D-03  0.13852091D-02 -0.44432373D-03
 -0.22405390D-03 -0.79707979D-15 -0.21350069D-14  0.97406658D-03 -0.11790195D-02
  0.20495297D-03 -0.54056021D-05  0.20827392D-15  0.20381915D-14  0.18205799D-03
 -0.16163040D-03 -0.20427585D-04  0.16394387D-03 -0.40153460D-15 -0.24496536D-14
  0.41670314D-03 -0.45429747D-03 -0.40519984D-15 -0.46213086D-03  0.30410974D-04
 -0.17806214D-14 -0.78797857D-03  0.13324814D-02  0.29962210D-14 -0.38248497D-15
  0.11322743D-03 -0.42336804D-03  0.16610808D-15 -0.47633079D-03  0.98400161D-03
  0.35974685D-15  0.13664848D-03  0.28610252D-03 -0.85807108D-15 -0.54911393D-16
 -0.10407531D-03 -0.18770410D-03 -0.27676959D-03 -0.50069722D-03 -0.33606697D-03
 -0.11057284D-05 -0.18335149D-02  0.55824920D-03 -0.23112698D-15 -0.18991021D-02
  0.41823669D-03  0.60459233D-14 -0.17286146D-03  0.11203054D-03  0.42219164D-14
 -0.16383321D-02  0.82045029D-03  0.81788182D-03  0.13860644D-02  0.19703410D-14
 -0.19033326D-14 -0.22663335D-03  0.12626707D-03  0.10036628D-03  0.29449195D-03
  0.21868449D-14 -0.12780162D-14 -0.69182585D-04 -0.12477364D-03 -0.18397866D-03
 -0.28119344D-03 -0.36698404D-03 -0.51116858D-05  0.77143335D-03  0.67831027D-03
  0.14769797D-02  0.86086863D-03  0.74092927D-03  0.14323076D-02  0.10232770D-03
  0.13733411D-03  0.12072935D-03  0.33464150D-03  0.50745938D-03 -0.84210089D-03
 -0.97311059D-03 -0.18309070D-02 -0.16726503D-02  0.43114182D-04  0.65143534D-04
 -0.10825772D-03 -0.18413645D-03 -0.26197327D-03 -0.27469451D-03 -0.69182585D-04
 -0.12477364D-03 -0.18397866D-03 -0.28119344D-03 -0.36698404D-03 -0.51116858D-05
  0.77143335D-03  0.67831027D-03 -0.14769797D-02  0.86086863D-03  0.74092927D-03
 -0.14323076D-02  0.10232770D-03  0.13733411D-03 -0.12072935D-03  0.33464150D-03
  0.50745938D-03 -0.84210089D-03 -0.97311059D-03  0.18309070D-02  0.16726503D-02
  0.43114182D-04  0.65143534D-04 -0.10825772D-03 -0.18413645D-03  0.26197327D-03
  0.27469451D-03  0.45483678D-04  0.82031687D-04  0.12095567D-03 -0.11750979D-02
  0.15815610D-04  0.21587826D-04  0.31851795D-03 -0.64811748D-03 -0.34000656D-15
  0.26596694D-03 -0.98560158D-03  0.65475355D-15 -0.24472131D-04 -0.77240253D-06
 -0.10108985D-14  0.12868685D-03 -0.31206264D-03  0.18337579D-03  0.12241308D-02
 -0.76299678D-15  0.42729106D-15  0.24014554D-04 -0.23463386D-04 -0.55116733D-06
  0.10085734D-03  0.77073926D-16 -0.18013014D-15
MO    3     MO 0.0        OCC NO =    2.0000000  ORB. ENERGY =   -0.995300
 -0.31635387D-02 -0.58975555D-02 -0.99679077D-02 -0.14985030D-01 -0.18410841D-01
 -0.15550899D-01 -0.58652268D-02  0.29027335D-04 -0.18525326D-01 -0.34685255D-01
 -0.59054614D-01 -0.91348508D-01 -0.12030277D+00 -0.12500229D+00 -0.79433341D-01
  0.53234378D-01  0.22773003D-01  0.10996529D-01  0.47525175D-03  0.38185126D-02
  0.35800983D-02  0.25492432D-02 -0.12171381D+00 -0.11411444D+00 -0.81256278D-01
 -0.34543794D-13 -0.32387002D-13 -0.23061475D-13  0.14495742D-02 -0.21288105D-01
  0.15691133D-12 -0.73109507D-03 -0.28395376D-03  0.23779081D-12 -0.72526740D-04
 -0.18411540D-04 -0.16648238D-14 -0.75045917D-02  0.15119824D-01 -0.76152320D-02
 -0.23348945D-02  0.64601543D-14  0.25190869D-13 -0.44422999D-03  0.15125051D-02
 -0.10682751D-02  0.97245849D-03  0.14156511D-12  0.67448401D-13  0.98703794D-04
 -0.30656498D-04 -0.68047295D-04 -0.67753398D-04  0.45128938D-13  0.16867223D-14
 -0.15362640D-02 -0.27144859D-02  0.46485874D-14  0.97892146D-03  0.30249242D-02
  0.99153596D-15  0.36298706D-02  0.51185335D-02 -0.14937298D-13  0.50157028D-13
  0.32092461D-04 -0.11925996D-03 -0.13399117D-14 -0.28333065D-03  0.28815967D-05
 -0.36358270D-14  0.18705327D-03  0.35489829D-03  0.76555621D-14  0.33450629D-13
 -0.40989391D-02 -0.76398952D-02 -0.12954731D-01 -0.19607589D-01 -0.24464546D-01
 -0.21011782D-01 -0.80668317D-02  0.36083433D-04 -0.95426780D-01 -0.17897529D+00
 -0.30511363D+00 -0.47683322D+00 -0.63761687D+00 -0.68082616D+00 -0.41624377D+00
  0.27461236D+00  0.14239871D+00  0.71170909D-01  0.29078035D-02  0.22473164D+00
  0.21791410D+00  0.14700356D+00  0.15463411D+00  0.14994307D+00  0.10115071D+00
 -0.12337663D-13 -0.11963383D-13 -0.80704276D-14  0.58106640D-01  0.49156390D-01
  0.18840261D-13  0.43773209D-02  0.23180488D-03 -0.38806507D-13  0.21986230D-03
 -0.28116606D-03  0.78917082D-14  0.11066527D-01  0.89058602D-02 -0.19972387D-01
 -0.96737993D-02  0.11825998D-14  0.15207060D-14 -0.12391316D-02  0.10902060D-01
 -0.96629282D-02 -0.32327350D-02 -0.13889497D-14  0.30408609D-14 -0.41590337D-03
 -0.57189183D-04  0.47309255D-03 -0.22644741D-03 -0.18387051D-14 -0.18206372D-13
  0.89073385D-03  0.67783288D-02 -0.40808603D-14 -0.10609971D-02 -0.10453049D-01
 -0.49244037D-14 -0.16112044D-02 -0.98819379D-02  0.17166985D-13  0.55328458D-15
 -0.80630130D-03  0.16013139D-02  0.25885845D-14  0.30332933D-02 -0.38555206D-02
  0.34145506D-15 -0.61438943D-03 -0.94842103D-03 -0.81072086D-14 -0.19825534D-15
  0.30409048D-02  0.54843971D-02  0.80867403D-02  0.20996119D-02 -0.35492073D-02
 -0.19106918D-03  0.17694123D-02 -0.29458251D-02  0.41805721D-15 -0.12531402D-02
 -0.58152242D-04  0.32352006D-13 -0.64263806D-03  0.26827058D-03  0.47946476D-13
 -0.46079249D-03  0.79785392D-03 -0.33706143D-03 -0.19812452D-02  0.10426444D-13
 -0.66034050D-14 -0.14788748D-03 -0.40968408D-04  0.18885589D-03  0.32928835D-03
  0.18449979D-13 -0.61091745D-14  0.29752907D-02  0.53660592D-02  0.79122512D-02
  0.14686220D-02 -0.62580167D-03  0.94722661D-04 -0.58142681D-03 -0.31125879D-02
 -0.12489143D-02  0.87022588D-03 -0.27339671D-03  0.16922350D-02  0.56624022D-04
  0.21717739D-03  0.29098801D-03 -0.49227224D-03  0.14182754D-02 -0.92600320D-03
  0.92591231D-03 -0.70929315D-03  0.18572459D-02  0.10077138D-03  0.37840574D-04
 -0.13861196D-03 -0.11800673D-03 -0.28930265D-03 -0.46438806D-03  0.29752907D-02
  0.53660592D-02  0.79122512D-02  0.14686220D-02 -0.62580167D-03  0.94722661D-04
 -0.58142681D-03 -0.31125879D-02  0.12489143D-02  0.87022588D-03 -0.27339671D-03
 -0.16922350D-02  0.56624022D-04  0.21717739D-03 -0.29098801D-03 -0.49227224D-03
  0.14182754D-02 -0.92600320D-03  0.92591231D-03  0.70929315D-03 -0.18572459D-02
  0.10077138D-03  0.37840574D-04 -0.13861196D-03 -0.11800673D-03  0.28930265D-03
  0.46438806D-03  0.22356479D-01  0.40320831D-01  0.59453042D-01  0.21381786D-01
 -0.58397882D-02 -0.22251397D-03 -0.28149386D-01  0.15078269D-01 -0.38679749D-15
  0.10463755D-02  0.50416888D-02  0.49833808D-14  0.14743811D-02 -0.26723535D-03
 -0.10412652D-13  0.38580332D-02 -0.11871808D-03 -0.37393151D-02 -0.12129127D-01
 -0.63354891D-14  0.28445457D-14 -0.94751084D-03  0.57525959D-03  0.37225125D-03
  0.95687102D-04  0.15674218D-14 -0.94214747D-15
MO    4     MO 0.0        OCC NO =    2.0000000  ORB. ENERGY =   -0.645775
 -0.52266852D-02 -0.97437296D-02 -0.16468619D-01 -0.24757730D-01 -0.30417731D-01
 -0.25692637D-01 -0.96903173D-02  0.47957921D-04 -0.51030416D-01 -0.95545039D-01
 -0.16267360D+00 -0.25163133D+00 -0.33138961D+00 -0.34433503D+00 -0.21880945D+00
  0.14664101D+00  0.63470425D-01  0.79585455D-01  0.34076821D-02 -0.25688577D-01
 -0.24084674D-01 -0.17149723D-01  0.66316916D-01  0.62176324D-01  0.44273247D-01
 -0.59351201D-13 -0.55645523D-13 -0.39622928D-13 -0.60392768D-02  0.23615654D-01
  0.30087256D-12  0.12780447D-02  0.85525718D-02  0.77594782D-12  0.58437076D-04
  0.24850443D-03  0.15680357D-13  0.50169951D-02 -0.94586913D-02  0.44416962D-02
  0.64302124D-02 -0.31071303D-14  0.36887150D-13  0.25726589D-02 -0.41621700D-02
  0.15895111D-02  0.18235683D-02  0.28322286D-12  0.14441865D-12  0.79799112D-04
 -0.40442924D-03  0.32463013D-03  0.23020969D-04  0.12122728D-12  0.14044449D-13
 -0.22416707D-02 -0.36007284D-02  0.10213842D-13 -0.11451238D-02  0.36162565D-02
  0.26061324D-14  0.78701360D-02  0.71859288D-02 -0.33247659D-13  0.87988895D-13
 -0.90866006D-03 -0.64084793D-03 -0.66478592D-14  0.46150373D-05  0.76235276D-03
 -0.13482744D-13  0.27213652D-02  0.11601910D-02  0.33426322D-13  0.76113705D-13
  0.58554936D-04  0.10913887D-03  0.18506335D-03  0.28010201D-03  0.34948552D-03
  0.30016146D-03  0.11523782D-03 -0.51546584D-06  0.27436636D-01  0.51458092D-01
  0.87724765D-01  0.13709673D+00  0.18332445D+00  0.19574778D+00  0.11967635D+00
 -0.78955189D-01 -0.44856688D-01 -0.31707097D-01 -0.10362663D-02 -0.29244265D+00
 -0.28357100D+00 -0.19129532D+00  0.50973243D+00  0.49426899D+00  0.33343094D+00
 -0.30564441D-13 -0.29637226D-13 -0.19993098D-13 -0.70044474D-01  0.11725194D+00
  0.47658497D-13 -0.82850294D-02  0.10315222D-01 -0.14292036D-12 -0.41010041D-03
  0.34435086D-03  0.11867146D-13 -0.24205604D-01  0.25394593D-01 -0.11889888D-02
  0.23324945D-01 -0.60961256D-15  0.28865569D-14 -0.95449203D-02  0.98363655D-02
 -0.29144524D-03  0.43940416D-02 -0.17334682D-14  0.67668021D-14 -0.54110295D-03
  0.91785567D-03 -0.37675272D-03 -0.15353164D-02 -0.10444826D-13 -0.72066898D-13
  0.71061102D-03  0.99095822D-03 -0.17816084D-13 -0.65853268D-02  0.37327855D-02
 -0.13991020D-13  0.44534938D-02 -0.67056602D-02  0.67439271D-13  0.30442418D-14
 -0.55338870D-03  0.15018518D-02  0.10499318D-13  0.20452213D-02 -0.34511355D-02
  0.17536881D-14 -0.38505517D-03 -0.10544197D-02 -0.33251642D-13  0.13952705D-14
  0.21830707D-01  0.39372578D-01  0.58054844D-01  0.14418174D-01 -0.10320548D-01
 -0.16153321D-03  0.18002039D-01 -0.46457325D-02  0.22708256D-13 -0.54045159D-02
  0.37207132D-02  0.34770718D-13 -0.20822334D-02  0.74162535D-03  0.10299169D-12
  0.20859649D-02 -0.72943668D-03 -0.13565282D-02 -0.75253323D-03  0.18004247D-13
 -0.19082595D-13 -0.32696564D-03 -0.18849542D-03  0.51546106D-03  0.40301596D-03
  0.26829904D-13 -0.10772159D-13  0.20218223D-01  0.36464397D-01  0.53766732D-01
  0.11536687D-01 -0.13973745D-01 -0.46758286D-03 -0.78969228D-02 -0.40949441D-02
 -0.13752120D-01  0.18483576D-02  0.32499800D-02  0.47919135D-02  0.12009044D-02
  0.10751072D-02  0.21017177D-02 -0.32874961D-03 -0.33470752D-03  0.66345713D-03
  0.59403405D-03  0.22006714D-02 -0.71345504D-04  0.21101539D-03  0.18526532D-04
 -0.22954192D-03 -0.98152769D-04 -0.47769984D-03 -0.18978414D-03  0.20218223D-01
  0.36464397D-01  0.53766732D-01  0.11536687D-01 -0.13973745D-01 -0.46758286D-03
 -0.78969228D-02 -0.40949441D-02  0.13752120D-01  0.18483576D-02  0.32499800D-02
 -0.47919135D-02  0.12009044D-02  0.10751072D-02 -0.21017177D-02 -0.32874961D-03
 -0.33470752D-03  0.66345713D-03  0.59403405D-03 -0.22006714D-02  0.71345504D-04
  0.21101539D-03  0.18526532D-04 -0.22954192D-03 -0.98152769D-04  0.47769984D-03
  0.18978414D-03 -0.19537386D-01 -0.35236481D-01 -0.51956170D-01 -0.25168314D-01
  0.50875155D-02  0.51016319D-03  0.21342315D-01 -0.20956283D-02 -0.38545292D-14
  0.12197105D-02  0.65862771D-02  0.19927089D-13 -0.11841825D-02  0.11514226D-02
 -0.21090229D-13 -0.71272730D-02  0.42810729D-02  0.28462001D-02  0.17090859D-02
 -0.16545159D-13  0.63393206D-15  0.28597318D-03  0.28375332D-03 -0.56972650D-03
 -0.18575945D-02  0.36478339D-15  0.37234346D-14
MO    5     MO 0.0        OCC NO =    2.0000000  ORB. ENERGY =   -0.474022
 -0.15195350D-03 -0.28327588D-03 -0.47878613D-03 -0.71977239D-03 -0.88432354D-03
 -0.74695260D-03 -0.28172304D-03  0.13942630D-05 -0.91288265D-02 -0.17092044D-01
 -0.29100667D-01 -0.45014306D-01 -0.59282258D-01 -0.61598063D-01 -0.39142804D-01
  0.26232597D-01  0.83588897D-02  0.53565193D-01  0.34084673D-02  0.22000037D+00
  0.20626433D+00  0.14687249D+00  0.30149741D+00  0.28267299D+00  0.20128001D+00
  0.70599958D-14  0.66191948D-14  0.47132610D-14  0.56229728D-01  0.60891762D-01
  0.91777716D-14  0.10034419D-01  0.49511416D-02  0.22703906D-12  0.79987552D-04
  0.63919332D-04  0.15130047D-13  0.42115640D-02 -0.17374095D-01  0.13162531D-01
 -0.18026533D-01 -0.10581839D-13 -0.23590404D-15 -0.12185535D-02 -0.22790461D-02
  0.34975995D-02 -0.27154152D-02  0.11190309D-13 -0.37097880D-14 -0.32726501D-04
  0.17829145D-03 -0.14556495D-03  0.56336078D-03  0.23592860D-13  0.51026417D-14
 -0.16077924D-02  0.10450050D-03  0.16987723D-14  0.80185767D-02  0.18611569D-02
 -0.62462584D-15 -0.31951994D-02 -0.21746583D-02 -0.44716912D-14 -0.61052389D-14
 -0.67576867D-03 -0.40016804D-03 -0.16010602D-14  0.13960547D-03 -0.12515320D-03
 -0.48271456D-14  0.18877005D-02  0.13256573D-02  0.96303264D-14  0.28128070D-14
 -0.36188035D-03 -0.67449841D-03 -0.11437258D-02 -0.17310823D-02 -0.21598853D-02
 -0.18550534D-02 -0.71219107D-03  0.31856744D-05  0.19055689D-01  0.35739416D-01
  0.60927870D-01  0.95218401D-01  0.12732515D+00  0.13595357D+00  0.83119347D-01
 -0.54837097D-01 -0.27209284D-01 -0.37786616D-01  0.27533889D-02  0.94069634D+00
  0.91215902D+00  0.61533709D+00 -0.71712303D+00 -0.69536811D+00 -0.46909122D+00
 -0.67492954D-15 -0.65445462D-15 -0.44149122D-15  0.21351049D+00 -0.17245168D+00
  0.14106247D-13  0.25166638D-01 -0.26452450D-01 -0.52660228D-13  0.96130106D-03
 -0.56481920D-03 -0.40284233D-14  0.39812451D-01 -0.31108646D-01 -0.87038045D-02
 -0.10416241D-01  0.26962644D-14  0.51896766D-14  0.14982424D-01 -0.18364308D-01
  0.33818844D-02  0.72409160D-02 -0.17646920D-14 -0.21704127D-14  0.44155693D-03
 -0.13659507D-02  0.92439379D-03  0.11447127D-02 -0.59482915D-14 -0.27159815D-13
 -0.41491919D-02 -0.63061666D-02 -0.81451713D-14  0.21769263D-01  0.47693292D-02
 -0.37308351D-14 -0.93216876D-02  0.14149170D-01  0.28166349D-13  0.73922834D-14
  0.11526233D-02 -0.24530981D-02  0.45905491D-14 -0.26427023D-02  0.52193325D-02
  0.15809099D-14 -0.81516751D-03  0.21399619D-02 -0.15352557D-13 -0.34052044D-14
 -0.23829603D-02 -0.42977671D-02 -0.63370551D-02 -0.86773459D-02  0.24457724D-02
  0.12132704D-03  0.75634563D-03  0.12508122D-01  0.15830830D-13  0.26192591D-02
  0.38813763D-02 -0.18492173D-13  0.49959081D-03 -0.27091328D-03  0.60177412D-14
  0.28957243D-02 -0.36384482D-02  0.74272390D-03  0.10331525D-01  0.24916485D-15
 -0.41035033D-14  0.22972488D-03  0.77887822D-04 -0.30761271D-03 -0.10426001D-02
 -0.56969651D-14  0.73030037D-15  0.19190702D-01  0.34611221D-01  0.51034225D-01
  0.17796909D-01 -0.93224366D-02 -0.21033895D-03 -0.36074261D-02 -0.70686686D-03
 -0.17093459D-01  0.43915500D-02  0.39712142D-02  0.13516523D-02  0.66881090D-03
  0.16002299D-03  0.21548650D-02 -0.14632001D-02 -0.28881983D-02  0.43513984D-02
 -0.36539380D-02  0.18627865D-02 -0.93711739D-03  0.39741422D-05  0.15348994D-03
 -0.15746408D-03  0.78821958D-04 -0.49903065D-03  0.26925001D-03  0.19190702D-01
  0.34611221D-01  0.51034225D-01  0.17796909D-01 -0.93224366D-02 -0.21033895D-03
 -0.36074261D-02 -0.70686686D-03  0.17093459D-01  0.43915500D-02  0.39712142D-02
 -0.13516523D-02  0.66881090D-03  0.16002299D-03 -0.21548650D-02 -0.14632001D-02
 -0.28881983D-02  0.43513984D-02 -0.36539380D-02 -0.18627865D-02  0.93711739D-03
  0.39741422D-05  0.15348994D-03 -0.15746408D-03  0.78821958D-04  0.49903065D-03
 -0.26925001D-03  0.32635609D-01  0.58859664D-01  0.86788540D-01  0.64110246D-01
 -0.93574567D-02 -0.44814723D-03 -0.28745853D-01  0.58365082D-02 -0.20978260D-14
 -0.38344720D-02 -0.35040494D-02  0.73008260D-14  0.30567224D-02 -0.20218341D-02
  0.39301890D-15  0.11550562D-01 -0.46160717D-02 -0.69344900D-02 -0.49126157D-02
 -0.23355553D-14 -0.23065573D-14 -0.45377762D-03 -0.64007319D-03  0.10938508D-02
  0.22978512D-02 -0.23419395D-14  0.39296285D-14
MO    6     MO 0.0        OCC NO =    2.0000000  ORB. ENERGY =   -0.401995
 -0.12587539D-13 -0.23466035D-13 -0.39661732D-13 -0.59624575D-13 -0.73255680D-13
 -0.61876133D-13 -0.23337401D-13  0.11549810D-15  0.97026530D-14  0.18166428D-13
  0.30929898D-13  0.47843849D-13  0.63008666D-13  0.65470040D-13  0.41603271D-13
 -0.27881545D-13 -0.20625786D-12  0.27874367D-11  0.32770846D-12  0.51313957D-12
  0.48110097D-12  0.34257255D-12 -0.51910377D-12 -0.48669278D-12 -0.34655425D-12
  0.50632739D+00  0.47471412D+00  0.33802473D+00  0.56286813D-12  0.24331056D-12
  0.13420335D+00  0.10491950D-11  0.33863615D-12  0.25362701D-01  0.18208729D-13
  0.10527058D-13  0.61557623D-03 -0.18236939D-13 -0.16776039D-14  0.19914543D-13
  0.76463835D-13  0.26370234D-01  0.68458374D-03 -0.11353175D-12 -0.17234673D-12
  0.28587848D-12  0.17895870D-12  0.11456936D-01  0.54774297D-02 -0.69050704D-13
 -0.23170553D-13  0.92221257D-13  0.81131898D-13  0.98649020D-03  0.22856678D-02
 -0.42658612D-13 -0.28730688D-13 -0.24413475D-02 -0.22722423D-13 -0.36374869D-13
 -0.13342106D-02  0.15069826D-12  0.12256693D-12  0.86582530D-02 -0.50652693D-02
 -0.51181009D-13 -0.35614949D-13  0.91242599D-04  0.22285753D-13  0.13178962D-13
  0.46319287D-03  0.13125727D-12  0.93665884D-13 -0.73692067D-03  0.11527587D-02
  0.49819647D-14  0.92857412D-14  0.15745540D-13  0.23831609D-13  0.29734890D-13
  0.25538305D-13  0.98046517D-14 -0.43856809D-16  0.17786365D-13  0.33358769D-13
  0.56869389D-13  0.88875785D-13  0.11884386D-12  0.12689753D-12  0.77582664D-13
 -0.51184329D-13 -0.23277013D-13 -0.56357722D-12 -0.28195686D-12  0.54318816D-12
  0.52670979D-12  0.35531531D-12  0.13950927D-11  0.13527706D-11  0.91257107D-12
  0.72019387D+00  0.69834580D+00  0.47109995D+00  0.18034270D-13  0.41500906D-12