 Molden2AIM, Version 4.0.0 (06/02/2016)           Time: Thu Jun 28 19:25:54 2018
GAUSSIAN             22 MOL ORBITALS    446 PRIMITIVES        6 NUCLEI
  C    1    (CENTRE  1)  -0.15850267  1.59209804  0.00000000  CHARGE =  6.0
  Se   2    (CENTRE  2)  -0.50045428 -2.08993505  0.00000000  CHARGE = 34.0
  H    3    (CENTRE  3)  -2.08714581  2.34703040  0.00000000  CHARGE =  1.0
  H    4    (CENTRE  4)   0.82352753  2.23473720  1.70346527  CHARGE =  1.0
  H    5    (CENTRE  5)   0.82352753  2.23473720 -1.70346527  CHARGE =  1.0
  H    6    (CENTRE  6)   2.23874342 -2.60081684  0.00000000  CHARGE =  1.0
CENTRE ASSIGNMENTS    1  1  1  1  1  1  1  1  1  1  1  1  1  1  1  1  1  1  1  1
CENTRE ASSIGNMENTS    1  1  1  1  1  1  1  1  1  1  1  1  1  1  1  1  1  1  1  1
CENTRE ASSIGNMENTS    1  1  1  1  1  1  1  1  1  1  1  1  1  1  1  1  1  1  1  1
CENTRE ASSIGNMENTS    1  1  1  1  1  1  1  1  1  1  1  1  1  1  1  2  2  2  2  2
CENTRE ASSIGNMENTS    2  2  2  2  2  2  2  2  2  2  2  2  2  2  2  2  2  2  2  2
CENTRE ASSIGNMENTS    2  2  2  2  2  2  2  2  2  2  2  2  2  2  2  2  2  2  2  2
CENTRE ASSIGNMENTS    2  2  2  2  2  2  2  2  2  2  2  2  2  2  2  2  2  2  2  2
CENTRE ASSIGNMENTS    2  2  2  2  2  2  2  2  2  2  2  2  2  2  2  2  2  2  2  2
CENTRE ASSIGNMENTS    2  2  2  2  2  2  2  2  2  2  2  2  2  2  2  2  2  2  2  2
CENTRE ASSIGNMENTS    2  2  2  2  2  2  2  2  2  2  2  2  2  2  2  2  2  2  2  2
CENTRE ASSIGNMENTS    2  2  2  2  2  2  2  2  2  2  2  2  2  2  2  2  2  2  2  2
CENTRE ASSIGNMENTS    2  2  2  2  2  2  2  2  2  2  2  2  2  2  2  2  2  2  2  2
CENTRE ASSIGNMENTS    2  2  2  2  2  2  2  2  2  2  2  2  2  2  2  2  2  2  2  2
CENTRE ASSIGNMENTS    2  2  2  2  2  2  2  2  2  2  2  2  2  2  2  2  2  2  2  2
CENTRE ASSIGNMENTS    2  2  2  2  2  2  2  2  2  2  2  2  2  2  2  2  2  2  2  2
CENTRE ASSIGNMENTS    2  2  2  2  2  2  2  2  2  2  2  2  2  2  2  2  2  2  2  2
CENTRE ASSIGNMENTS    2  2  2  2  2  2  2  2  2  2  2  2  2  2  2  2  2  2  3  3
CENTRE ASSIGNMENTS    3  3  3  3  3  3  3  3  3  3  3  3  3  3  3  3  3  3  3  3
CENTRE ASSIGNMENTS    3  3  3  3  3  4  4  4  4  4  4  4  4  4  4  4  4  4  4  4
CENTRE ASSIGNMENTS    4  4  4  4  4  4  4  4  4  4  4  4  5  5  5  5  5  5  5  5
CENTRE ASSIGNMENTS    5  5  5  5  5  5  5  5  5  5  5  5  5  5  5  5  5  5  5  6
CENTRE ASSIGNMENTS    6  6  6  6  6  6  6  6  6  6  6  6  6  6  6  6  6  6  6  6
CENTRE ASSIGNMENTS    6  6  6  6  6  6
TYPE ASSIGNMENTS      1  1  1  1  1  1  1  1  1  1  1  1  1  1  1  1  1  1  1  2
TYPE ASSIGNMENTS      2  2  3  3  3  4  4  4  2  3  4  2  3  4  2  3  4  5  6  7
TYPE ASSIGNMENTS      8  9 10  5  6  7  8  9 10  5  6  7  8  9 10 11 12 13 17 14
TYPE ASSIGNMENTS     15 18 19 16 20 11 12 13 17 14 15 18 19 16 20  1  1  1  1  1
TYPE ASSIGNMENTS      1  1  1  1  1  1  1  1  1  1  1  1  1  1  1  1  1  1  1  1
TYPE ASSIGNMENTS      1  1  1  1  1  1  1  1  1  1  1  1  1  1  1  1  1  1  1  1
TYPE ASSIGNMENTS      1  1  1  1  1  1  1  1  1  1  1  1  1  1  1  1  1  1  1  1
TYPE ASSIGNMENTS      1  1  1  1  1  1  1  1  1  1  2  2  2  2  2  2  2  2  2  2
TYPE ASSIGNMENTS      2  3  3  3  3  3  3  3  3  3  3  3  4  4  4  4  4  4  4  4
TYPE ASSIGNMENTS      4  4  4  2  2  2  2  2  2  2  2  2  2  2  3  3  3  3  3  3
TYPE ASSIGNMENTS      3  3  3  3  3  4  4  4  4  4  4  4  4  4  4  4  2  2  2  2
TYPE ASSIGNMENTS      2  2  2  2  2  2  2  3  3  3  3  3  3  3  3  3  3  3  4  4
TYPE ASSIGNMENTS      4  4  4  4  4  4  4  4  4  2  3  4  2  3  4  2  3  4  5  5
TYPE ASSIGNMENTS      5  5  5  5  5  6  6  6  6  6  6  6  7  7  7  7  7  7  7  8
TYPE ASSIGNMENTS      8  8  8  8  8  8  9  9  9  9  9  9  9 10 10 10 10 10 10 10
TYPE ASSIGNMENTS      5  6  7  8  9 10  5  6  7  8  9 10  5  6  7  8  9 10 11 12
TYPE ASSIGNMENTS     13 17 14 15 18 19 16 20 11 12 13 17 14 15 18 19 16 20  1  1
TYPE ASSIGNMENTS      1  1  1  1  2  3  4  2  3  4  2  3  4  5  6  7  8  9 10  5
TYPE ASSIGNMENTS      6  7  8  9 10  1  1  1  1  1  1  2  3  4  2  3  4  2  3  4
TYPE ASSIGNMENTS      5  6  7  8  9 10  5  6  7  8  9 10  1  1  1  1  1  1  2  3
TYPE ASSIGNMENTS      4  2  3  4  2  3  4  5  6  7  8  9 10  5  6  7  8  9 10  1
TYPE ASSIGNMENTS      1  1  1  1  1  2  3  4  2  3  4  2  3  4  5  6  7  8  9 10
TYPE ASSIGNMENTS      5  6  7  8  9 10
EXPONENTS  0.8236000D+04 0.1235000D+04 0.2808000D+03 0.7927000D+02 0.2559000D+02
EXPONENTS  0.8997000D+01 0.3319000D+01 0.3643000D+00 0.8236000D+04 0.1235000D+04
EXPONENTS  0.2808000D+03 0.7927000D+02 0.2559000D+02 0.8997000D+01 0.3319000D+01
EXPONENTS  0.3643000D+00 0.9059000D+00 0.1285000D+00 0.4402000D-01 0.1871000D+02
EXPONENTS  0.4133000D+01 0.1200000D+01 0.1871000D+02 0.4133000D+01 0.1200000D+01
EXPONENTS  0.1871000D+02 0.4133000D+01 0.1200000D+01 0.3827000D+00 0.3827000D+00
EXPONENTS  0.3827000D+00 0.1209000D+00 0.1209000D+00 0.1209000D+00 0.3569000D-01
EXPONENTS  0.3569000D-01 0.3569000D-01 0.1097000D+01 0.1097000D+01 0.1097000D+01
EXPONENTS  0.1097000D+01 0.1097000D+01 0.1097000D+01 0.3180000D+00 0.3180000D+00
EXPONENTS  0.3180000D+00 0.3180000D+00 0.3180000D+00 0.3180000D+00 0.1000000D+00
EXPONENTS  0.1000000D+00 0.1000000D+00 0.1000000D+00 0.1000000D+00 0.1000000D+00
EXPONENTS  0.7610000D+00 0.7610000D+00 0.7610000D+00 0.7610000D+00 0.7610000D+00
EXPONENTS  0.7610000D+00 0.7610000D+00 0.7610000D+00 0.7610000D+00 0.7610000D+00
EXPONENTS  0.2680000D+00 0.2680000D+00 0.2680000D+00 0.2680000D+00 0.2680000D+00
EXPONENTS  0.2680000D+00 0.2680000D+00 0.2680000D+00 0.2680000D+00 0.2680000D+00
EXPONENTS  0.9563600D+07 0.1432100D+07 0.3259100D+06 0.9231200D+05 0.3011600D+05
EXPONENTS  0.1087200D+05 0.4240100D+04 0.1758400D+04 0.7665900D+03 0.3484300D+03
EXPONENTS  0.1640300D+03 0.7914200D+02 0.3552400D+02 0.1730500D+02 0.8378400D+01
EXPONENTS  0.3740500D+01 0.1689000D+01 0.2552000D+00 0.9563600D+07 0.1432100D+07
EXPONENTS  0.3259100D+06 0.9231200D+05 0.3011600D+05 0.1087200D+05 0.4240100D+04
EXPONENTS  0.1758400D+04 0.7665900D+03 0.3484300D+03 0.1640300D+03 0.7914200D+02
EXPONENTS  0.3552400D+02 0.1730500D+02 0.8378400D+01 0.3740500D+01 0.1689000D+01
EXPONENTS  0.2552000D+00 0.9563600D+07 0.1432100D+07 0.3259100D+06 0.9231200D+05
EXPONENTS  0.3011600D+05 0.1087200D+05 0.4240100D+04 0.1758400D+04 0.7665900D+03
EXPONENTS  0.3484300D+03 0.1640300D+03 0.7914200D+02 0.3552400D+02 0.1730500D+02
EXPONENTS  0.8378400D+01 0.3740500D+01 0.1689000D+01 0.2552000D+00 0.9563600D+07
EXPONENTS  0.1432100D+07 0.3259100D+06 0.9231200D+05 0.3011600D+05 0.1087200D+05
EXPONENTS  0.4240100D+04 0.1758400D+04 0.7665900D+03 0.3484300D+03 0.1640300D+03
EXPONENTS  0.7914200D+02 0.3552400D+02 0.1730500D+02 0.8378400D+01 0.3740500D+01
EXPONENTS  0.1689000D+01 0.2552000D+00 0.5092700D+00 0.1065100D+00 0.3920100D-01
EXPONENTS  0.8004300D+04 0.1896900D+04 0.6147100D+03 0.2335000D+03 0.9785600D+02
EXPONENTS  0.4351400D+02 0.2006300D+02 0.9112700D+01 0.4106300D+01 0.1794900D+01
EXPONENTS  0.2461500D+00 0.8004300D+04 0.1896900D+04 0.6147100D+03 0.2335000D+03
EXPONENTS  0.9785600D+02 0.4351400D+02 0.2006300D+02 0.9112700D+01 0.4106300D+01
EXPONENTS  0.1794900D+01 0.2461500D+00 0.8004300D+04 0.1896900D+04 0.6147100D+03
EXPONENTS  0.2335000D+03 0.9785600D+02 0.4351400D+02 0.2006300D+02 0.9112700D+01
EXPONENTS  0.4106300D+01 0.1794900D+01 0.2461500D+00 0.8004300D+04 0.1896900D+04
EXPONENTS  0.6147100D+03 0.2335000D+03 0.9785600D+02 0.4351400D+02 0.2006300D+02
EXPONENTS  0.9112700D+01 0.4106300D+01 0.1794900D+01 0.2461500D+00 0.8004300D+04
EXPONENTS  0.1896900D+04 0.6147100D+03 0.2335000D+03 0.9785600D+02 0.4351400D+02
EXPONENTS  0.2006300D+02 0.9112700D+01 0.4106300D+01 0.1794900D+01 0.2461500D+00
EXPONENTS  0.8004300D+04 0.1896900D+04 0.6147100D+03 0.2335000D+03 0.9785600D+02
EXPONENTS  0.4351400D+02 0.2006300D+02 0.9112700D+01 0.4106300D+01 0.1794900D+01
EXPONENTS  0.2461500D+00 0.8004300D+04 0.1896900D+04 0.6147100D+03 0.2335000D+03
EXPONENTS  0.9785600D+02 0.4351400D+02 0.2006300D+02 0.9112700D+01 0.4106300D+01
EXPONENTS  0.1794900D+01 0.2461500D+00 0.8004300D+04 0.1896900D+04 0.6147100D+03
EXPONENTS  0.2335000D+03 0.9785600D+02 0.4351400D+02 0.2006300D+02 0.9112700D+01
EXPONENTS  0.4106300D+01 0.1794900D+01 0.2461500D+00 0.8004300D+04 0.1896900D+04
EXPONENTS  0.6147100D+03 0.2335000D+03 0.9785600D+02 0.4351400D+02 0.2006300D+02
EXPONENTS  0.9112700D+01 0.4106300D+01 0.1794900D+01 0.2461500D+00 0.6243200D+00
EXPONENTS  0.6243200D+00 0.6243200D+00 0.8891700D-01 0.8891700D-01 0.8891700D-01
EXPONENTS  0.3025100D-01 0.3025100D-01 0.3025100D-01 0.3618500D+03 0.1085500D+03
EXPONENTS  0.4143300D+02 0.1757900D+02 0.7862700D+01 0.3518000D+01 0.1534800D+01
EXPONENTS  0.3618500D+03 0.1085500D+03 0.4143300D+02 0.1757900D+02 0.7862700D+01
EXPONENTS  0.3518000D+01 0.1534800D+01 0.3618500D+03 0.1085500D+03 0.4143300D+02
EXPONENTS  0.1757900D+02 0.7862700D+01 0.3518000D+01 0.1534800D+01 0.3618500D+03
EXPONENTS  0.1085500D+03 0.4143300D+02 0.1757900D+02 0.7862700D+01 0.3518000D+01
EXPONENTS  0.1534800D+01 0.3618500D+03 0.1085500D+03 0.4143300D+02 0.1757900D+02
EXPONENTS  0.7862700D+01 0.3518000D+01 0.1534800D+01 0.3618500D+03 0.1085500D+03
EXPONENTS  0.4143300D+02 0.1757900D+02 0.7862700D+01 0.3518000D+01 0.1534800D+01
EXPONENTS  0.6081300D+00 0.6081300D+00 0.6081300D+00 0.6081300D+00 0.6081300D+00
EXPONENTS  0.6081300D+00 0.2220000D+00 0.2220000D+00 0.2220000D+00 0.2220000D+00
EXPONENTS  0.2220000D+00 0.2220000D+00 0.8370000D-01 0.8370000D-01 0.8370000D-01
EXPONENTS  0.8370000D-01 0.8370000D-01 0.8370000D-01 0.4620000D+00 0.4620000D+00
EXPONENTS  0.4620000D+00 0.4620000D+00 0.4620000D+00 0.4620000D+00 0.4620000D+00
EXPONENTS  0.4620000D+00 0.4620000D+00 0.4620000D+00 0.1880000D+00 0.1880000D+00
EXPONENTS  0.1880000D+00 0.1880000D+00 0.1880000D+00 0.1880000D+00 0.1880000D+00
EXPONENTS  0.1880000D+00 0.1880000D+00 0.1880000D+00 0.3387000D+02 0.5095000D+01
EXPONENTS  0.1159000D+01 0.3258000D+00 0.1027000D+00 0.2526000D-01 0.1407000D+01
EXPONENTS  0.1407000D+01 0.1407000D+01 0.3880000D+00 0.3880000D+00 0.3880000D+00
EXPONENTS  0.1020000D+00 0.1020000D+00 0.1020000D+00 0.1057000D+01 0.1057000D+01
EXPONENTS  0.1057000D+01 0.1057000D+01 0.1057000D+01 0.1057000D+01 0.2470000D+00
EXPONENTS  0.2470000D+00 0.2470000D+00 0.2470000D+00 0.2470000D+00 0.2470000D+00
EXPONENTS  0.3387000D+02 0.5095000D+01 0.1159000D+01 0.3258000D+00 0.1027000D+00
EXPONENTS  0.2526000D-01 0.1407000D+01 0.1407000D+01 0.1407000D+01 0.3880000D+00
EXPONENTS  0.3880000D+00 0.3880000D+00 0.1020000D+00 0.1020000D+00 0.1020000D+00
EXPONENTS  0.1057000D+01 0.1057000D+01 0.1057000D+01 0.1057000D+01 0.1057000D+01
EXPONENTS  0.1057000D+01 0.2470000D+00 0.2470000D+00 0.2470000D+00 0.2470000D+00
EXPONENTS  0.2470000D+00 0.2470000D+00 0.3387000D+02 0.5095000D+01 0.1159000D+01
EXPONENTS  0.3258000D+00 0.1027000D+00 0.2526000D-01 0.1407000D+01 0.1407000D+01
EXPONENTS  0.1407000D+01 0.3880000D+00 0.3880000D+00 0.3880000D+00 0.1020000D+00
EXPONENTS  0.1020000D+00 0.1020000D+00 0.1057000D+01 0.1057000D+01 0.1057000D+01
EXPONENTS  0.1057000D+01 0.1057000D+01 0.1057000D+01 0.2470000D+00 0.2470000D+00
EXPONENTS  0.2470000D+00 0.2470000D+00 0.2470000D+00 0.2470000D+00 0.3387000D+02
EXPONENTS  0.5095000D+01 0.1159000D+01 0.3258000D+00 0.1027000D+00 0.2526000D-01
EXPONENTS  0.1407000D+01 0.1407000D+01 0.1407000D+01 0.3880000D+00 0.3880000D+00
EXPONENTS  0.3880000D+00 0.1020000D+00 0.1020000D+00 0.1020000D+00 0.1057000D+01
EXPONENTS  0.1057000D+01 0.1057000D+01 0.1057000D+01 0.1057000D+01 0.1057000D+01
EXPONENTS  0.2470000D+00 0.2470000D+00 0.2470000D+00 0.2470000D+00 0.2470000D+00
EXPONENTS  0.2470000D+00
MO    1     MO 0.0        OCC NO =    2.0000000  ORB. ENERGY = -453.180090
 -0.10248168D-04 -0.19104915D-04 -0.32290671D-04 -0.48543456D-04 -0.59641244D-04
 -0.50376565D-04 -0.19000187D-04  0.94032985D-07  0.73394200D-05  0.13741710D-04
  0.23396437D-04  0.36190731D-04  0.47661919D-04  0.49523787D-04  0.31470143D-04
 -0.21090558D-04 -0.19023059D-04  0.10913643D-03 -0.50966680D-05  0.36435641D-05
  0.34160729D-05  0.24324474D-05  0.11276756D-04  0.10572675D-04  0.75283747D-05
  0.16722298D-16  0.15678217D-16  0.11163824D-16 -0.96366379D-05  0.20930676D-04
 -0.48246339D-16 -0.89894551D-05  0.28020683D-04 -0.25442983D-16 -0.32220822D-06
  0.85594841D-06 -0.71513545D-18  0.13100572D-04 -0.20461102D-04  0.73605294D-05
 -0.36245835D-05 -0.18587756D-16 -0.85262950D-17 -0.21399425D-05  0.75948428D-05
 -0.54549003D-05 -0.24136856D-05 -0.24812855D-16 -0.13578881D-16  0.37452583D-05
 -0.23267492D-05 -0.14185090D-05 -0.46043744D-06  0.10290736D-17 -0.73260988D-17
  0.15839302D-05 -0.59641271D-05 -0.52720570D-18 -0.55703140D-05  0.12578327D-04
 -0.91182826D-17  0.81852346D-06  0.53140539D-05  0.10699900D-16 -0.19504188D-16
 -0.24263379D-05 -0.54537523D-05 -0.12620141D-17  0.10098638D-06  0.65415245D-05
  0.12870565D-17  0.71780274D-05  0.98197325D-05  0.24989858D-17 -0.14959360D-17
  0.77213276D+00  0.14426941D+01  0.25021722D+01  0.40991972D+01  0.64190173D+01
  0.96396522D+01  0.13748904D+02  0.18165088D+02  0.20948811D+02  0.18854602D+02
  0.10577901D+02  0.25572641D+01  0.12140622D+00 -0.20776254D-02  0.58434648D-03
 -0.22771889D-03  0.21539607D-04  0.21238507D-05  0.61097855D-04  0.11251265D-03
  0.19529370D-03  0.31985449D-03  0.50343625D-03  0.75987036D-03  0.11076696D-02
  0.15210631D-02  0.19317308D-02  0.20803515D-02  0.16596654D-02  0.37175180D-03
 -0.99405596D-03 -0.88398853D-03 -0.17264655D-03 -0.47826645D-05 -0.34634430D-06
 -0.70732982D-08 -0.14227958D-03 -0.25687261D-03 -0.44716629D-03 -0.73225367D-03
 -0.11544396D-02 -0.17420176D-02 -0.25495724D-02 -0.35129758D-02 -0.45256541D-02
 -0.49813220D-02 -0.41934654D-02 -0.99861416D-03  0.33637165D-02  0.44946303D-02
  0.55217452D-03 -0.19293728D-02 -0.85169258D-03  0.42267971D-05  0.50102546D-04
  0.10854661D-03  0.18478638D-03  0.30163666D-03  0.47554314D-03  0.71762131D-03
  0.10502997D-02  0.14488226D-02  0.18688297D-02  0.20660211D-02  0.17497667D-02
  0.42502996D-03 -0.14746035D-02 -0.20812338D-02 -0.24831986D-03  0.11670462D-02
  0.93288459D-03 -0.35342081D-03  0.27814959D-03  0.14738106D-03  0.27299136D-04
 -0.46887120D-03 -0.67200117D-03 -0.88740333D-03 -0.10200254D-02 -0.93835959D-03
 -0.60029434D-03 -0.20778515D-03 -0.23360020D-04 -0.29719639D-06 -0.51498999D-07
 -0.52626372D-09 -0.18112666D-03 -0.25959651D-03 -0.34280715D-03 -0.39403953D-03
 -0.36249174D-03 -0.23189590D-03 -0.80268164D-04 -0.90240610D-05 -0.11480805D-06
 -0.19894251D-07 -0.20329760D-09  0.10411313D-15  0.14921825D-15  0.19704843D-15
  0.22649724D-15  0.20836330D-15  0.13329571D-15  0.46138816D-16  0.51871061D-17
  0.65992634D-19  0.11435383D-19  0.11685717D-21  0.30316290D-02  0.43728860D-02
  0.58241184D-02  0.68926299D-02  0.66235584D-02  0.45527289D-02  0.14334028D-02
 -0.69275065D-03 -0.71092985D-03 -0.17903852D-03  0.19520249D-06  0.15207261D-02
  0.21935275D-02  0.29214949D-02  0.34574817D-02  0.33225101D-02  0.22837404D-02
  0.71902368D-03 -0.34749765D-03 -0.35661671D-03 -0.89809321D-04  0.97917492D-07
  0.11160958D-15  0.16098803D-15  0.21441523D-15  0.25375253D-15  0.24384665D-15
  0.16760896D-15  0.52770801D-16 -0.25503652D-16 -0.26172920D-16 -0.65913126D-17
  0.71863899D-20 -0.23014547D-02 -0.33363889D-02 -0.44282218D-02 -0.52846591D-02
 -0.50773029D-02 -0.35538413D-02 -0.10730508D-02  0.65686718D-03  0.70644892D-03
  0.18998722D-03 -0.70821039D-04 -0.11304121D-02 -0.16387437D-02 -0.21750224D-02
 -0.25956811D-02 -0.24938334D-02 -0.17455504D-02 -0.52705344D-03  0.32263533D-03
  0.34698854D-03  0.93316568D-04 -0.34785373D-04 -0.66835342D-16 -0.96890326D-16
 -0.12859768D-15 -0.15346902D-15 -0.14744730D-15 -0.10320525D-15 -0.31161908D-16
  0.19075736D-16  0.20515614D-16  0.55173196D-17 -0.20566768D-17  0.17930769D-04
  0.11433761D-04  0.23309334D-17  0.29262846D-04  0.38337179D-04 -0.44575327D-17
  0.27988108D-06  0.13724880D-05  0.16266762D-18  0.27477843D-03  0.28442193D-03
  0.23796651D-03  0.15355597D-03  0.68979443D-04  0.20140881D-04  0.33978900D-05
  0.25176733D-03  0.26060324D-03  0.21803820D-03  0.14069655D-03  0.63202815D-04
  0.18454199D-04  0.31133365D-05 -0.52654576D-03 -0.54502518D-03 -0.45600471D-03
 -0.29425253D-03 -0.13218226D-03 -0.38595080D-04 -0.65112265D-05 -0.16725547D-03
 -0.17312540D-03 -0.14484835D-03 -0.93468316D-04 -0.41987245D-04 -0.12259596D-04
 -0.20682690D-05 -0.40860688D-16 -0.42294716D-16 -0.35386604D-16 -0.22834408D-16
 -0.10257528D-16 -0.29950322D-17 -0.50528029D-18 -0.46385895D-16 -0.48013834D-16
 -0.40171602D-16 -0.25922091D-16 -0.11644557D-16 -0.34000223D-17 -0.57360460D-18
 -0.14799062D-04 -0.13642378D-04  0.28441440D-04  0.10124057D-04  0.22052429D-17
  0.29640125D-17 -0.11436046D-04  0.80305201D-05  0.34055263D-05  0.13675478D-05
 -0.11150867D-17 -0.34574582D-17  0.57975598D-06  0.29214203D-05 -0.35011763D-05
  0.29294413D-05  0.28020129D-19 -0.10307992D-17 -0.96387072D-05 -0.92243710D-05
  0.40930596D-18  0.77068467D-05  0.19265592D-04 -0.49921177D-18  0.21209275D-04
  0.84075212D-05 -0.72870609D-18  0.10581559D-17 -0.97637607D-07  0.20596514D-05
  0.12057110D-18  0.20278572D-05 -0.37860795D-05  0.37171064D-18 -0.17349444D-05
 -0.23928747D-05 -0.73342394D-18 -0.43679842D-18  0.28424431D-05  0.51264632D-05
  0.75589670D-05 -0.63652225D-04 -0.68937240D-04 -0.22285706D-05 -0.64174023D-05
 -0.31001786D-05 -0.14994501D-17 -0.22228264D-04  0.70922287D-05 -0.20631394D-17
 -0.51267052D-05  0.79972908D-05  0.44235634D-17 -0.11549441D-04  0.58740197D-05
  0.56754212D-05  0.39794227D-05 -0.14218229D-17 -0.55572085D-17  0.16805424D-05
 -0.15134042D-05 -0.16713822D-06 -0.15603680D-05 -0.36988191D-18  0.25356992D-17
  0.13214535D-05  0.23832959D-05  0.35141684D-05 -0.41278535D-04 -0.39724508D-04
 -0.55881789D-06  0.86643929D-06 -0.24170167D-05 -0.48839700D-06  0.82848480D-05
 -0.21952029D-05  0.14168924D-04 -0.15484398D-05  0.85892604D-05  0.53966989D-05
 -0.18202447D-07  0.61400177D-05 -0.61218152D-05  0.85867492D-06 -0.10409304D-04
  0.70824501D-06  0.23562823D-06 -0.26935725D-05  0.24579442D-05  0.20751451D-05
  0.23246514D-05  0.69115349D-06  0.13214535D-05  0.23832959D-05  0.35141684D-05
 -0.41278535D-04 -0.39724508D-04 -0.55881789D-06  0.86643929D-06 -0.24170167D-05
  0.48839700D-06  0.82848480D-05 -0.21952029D-05 -0.14168924D-04 -0.15484398D-05
  0.85892604D-05 -0.53966989D-05 -0.18202447D-07  0.61400177D-05 -0.61218152D-05
  0.85867492D-06  0.10409304D-04 -0.70824501D-06  0.23562823D-06 -0.26935725D-05
  0.24579442D-05  0.20751451D-05 -0.23246514D-05 -0.69115349D-06 -0.62230408D-05
 -0.11223510D-04 -0.16549059D-04  0.64452996D-04 -0.52035353D-04 -0.83142398D-06
  0.14862728D-04 -0.30694527D-05 -0.21407256D-19 -0.73438438D-04  0.18622542D-04
 -0.11716846D-18  0.76002634D-06 -0.51081563D-05 -0.11307171D-18  0.27907086D-04
 -0.13762465D-04 -0.14144620D-04 -0.15346488D-04  0.43694329D-18 -0.85751706D-18
  0.10227196D-04 -0.56032630D-05 -0.46239330D-05 -0.94772686D-05 -0.15687951D-18
  0.16805746D-18
MO    2     MO 0.0        OCC NO =    2.0000000  ORB. ENERGY =  -57.957020
  0.93150487D-04  0.17365369D-03  0.29350532D-03  0.44123464D-03  0.54210774D-03
  0.45789665D-03  0.17270177D-03 -0.85471069D-06 -0.67186858D-04 -0.12579500D-03
 -0.21417674D-03 -0.33129886D-03 -0.43630894D-03 -0.45335294D-03 -0.28808544D-03
  0.19306816D-03  0.19890525D-03 -0.11202544D-02  0.64161142D-04 -0.36309595D-04
 -0.34042553D-04 -0.24240326D-04 -0.10011427D-03 -0.93863496D-04 -0.66836401D-04
 -0.37099665D-15 -0.34783294D-15 -0.24767777D-15  0.96331128D-04 -0.22337640D-03
  0.41902638D-15  0.97261303D-04 -0.31743741D-03  0.38436601D-15  0.35020443D-05
 -0.98442053D-05  0.87549839D-16 -0.12765730D-03  0.19822997D-03 -0.70572674D-04
  0.29300102D-04  0.17580005D-15 -0.11206270D-15  0.13476818D-04 -0.61517549D-04
  0.48040731D-04  0.33481950D-04 -0.40767230D-16  0.48177819D-15 -0.41289085D-04
  0.26842563D-04  0.14446521D-04  0.51624909D-05 -0.79110962D-16  0.18733851D-15
 -0.11546572D-04  0.55220319D-04 -0.89257698D-17  0.53587321D-04 -0.12195445D-03
 -0.45339595D-16 -0.18947604D-04 -0.43706510D-04  0.72116904D-16  0.16471579D-15
  0.25841935D-04  0.55603427D-04 -0.78239541D-17 -0.86809534D-06 -0.68049702D-04
  0.16782384D-16 -0.76657710D-04 -0.98760578D-04  0.66894783D-17  0.31338713D-17
  0.37142227D-03  0.69398519D-03  0.12036304D-02  0.19718541D-02  0.30877669D-02
  0.46370024D-02  0.66136931D-02  0.87380285D-02  0.10077095D-01  0.90697085D-02
  0.50883320D-02  0.12301315D-02  0.58400545D-04 -0.99940886D-06  0.28109064D-06
 -0.10954058D-06  0.10361288D-07  0.10216448D-08 -0.24612384D+00 -0.45324088D+00
 -0.78671231D+00 -0.12884874D+01 -0.20280199D+01 -0.30610275D+01 -0.44620864D+01
 -0.61273820D+01 -0.77816971D+01 -0.83803941D+01 -0.66857210D+01 -0.14975482D+01
  0.40044101D+01  0.35610195D+01  0.69548155D+00  0.19266270D-01  0.13951977D-02
  0.28493755D-04  0.14222625D-02  0.25677633D-02  0.44699870D-02  0.73197924D-02
  0.11540070D-01  0.17413647D-01  0.25486169D-01  0.35116592D-01  0.45239579D-01
  0.49794551D-01  0.41918937D-01  0.99823990D-02 -0.33624558D-01 -0.44929458D-01
 -0.55196758D-02  0.19286497D-01  0.85137338D-02 -0.42252130D-04 -0.53392277D-03
 -0.11567377D-02 -0.19691945D-02 -0.32144211D-02 -0.50676728D-02 -0.76474029D-02
 -0.11192623D-01 -0.15439522D-01 -0.19915369D-01 -0.22016760D-01 -0.18646563D-01
 -0.45293740D-02  0.15714259D-01  0.22178875D-01  0.26462452D-02 -0.12436744D-01
 -0.99413774D-02  0.37662640D-02 -0.31617272D-02 -0.16589940D-02 -0.30223709D-03
  0.50348084D-01  0.72160481D-01  0.95290684D-01  0.10953184D+00  0.10076244D+00
  0.64460495D-01  0.22312278D-01  0.25084335D-02  0.31913389D-04  0.55300388D-05
  0.56510978D-07  0.39160404D-01  0.56125941D-01  0.74116458D-01  0.85193132D-01
  0.78372356D-01  0.50136943D-01  0.17354341D-01  0.19510429D-02  0.24822021D-04
  0.43012273D-05  0.43953862D-07  0.27726794D-13  0.39738925D-13  0.52476776D-13
  0.60319408D-13  0.55490085D-13  0.35498528D-13  0.12287417D-13  0.13813995D-14
  0.17574769D-16  0.30454037D-17  0.31120712D-19 -0.31090760D-01 -0.44845972D-01
 -0.59729032D-01 -0.70687112D-01 -0.67927660D-01 -0.46690344D-01 -0.14700210D-01
  0.71044788D-02  0.72909149D-02  0.18361230D-02 -0.20018919D-05 -0.15409587D-01
 -0.22227116D-01 -0.29603642D-01 -0.35034822D-01 -0.33667148D-01 -0.23141246D-01
 -0.72859000D-02  0.35212097D-02  0.36136135D-02  0.91004199D-03 -0.99220246D-06
 -0.77137129D-14 -0.11126423D-13 -0.14818956D-13 -0.17537689D-13 -0.16853061D-13
 -0.11584018D-13 -0.36471672D-14  0.17626430D-14  0.18088984D-14  0.45554774D-15
 -0.49667553D-18  0.23440851D-01  0.33981897D-01  0.45102469D-01  0.53825481D-01
  0.51713510D-01  0.36196700D-01  0.10929272D-01 -0.66903449D-02 -0.71953465D-02
 -0.19350640D-02  0.72132875D-03  0.11300798D-01  0.16382620D-01  0.21743831D-01
  0.25949182D-01  0.24931004D-01  0.17450374D-01  0.52689853D-02 -0.32254051D-02
 -0.34688656D-02 -0.93289141D-03  0.34775149D-03  0.52683588D-14  0.76374712D-14
  0.10136833D-13  0.12097340D-13  0.11622672D-13  0.81352509D-14  0.24563667D-14
 -0.15036629D-14 -0.16171626D-14 -0.43490791D-15  0.16211948D-15 -0.18414527D-03
 -0.11515131D-03 -0.17211861D-15 -0.32346118D-03 -0.42244439D-03  0.50006462D-17
 -0.30297677D-05 -0.15144852D-04 -0.95542114D-17 -0.13880015D-02 -0.14367142D-02
 -0.12020517D-02 -0.77566468D-03 -0.34843918D-03 -0.10173860D-03 -0.17163926D-04
 -0.40558233D-03 -0.41981646D-03 -0.35124668D-03 -0.22665385D-03 -0.10181601D-03
 -0.29728627D-04 -0.50154015D-05  0.17935838D-02  0.18565306D-02  0.15532984D-02
  0.10023185D-02  0.45025519D-03  0.13146723D-03  0.22179327D-04  0.41598483D-04
  0.43058405D-04  0.36025557D-04  0.23246714D-04  0.10442742D-04  0.30491116D-05
  0.51440381D-06  0.25482618D-15  0.26376945D-15  0.22068725D-15  0.14240595D-15
  0.63970698D-16  0.18678409D-16  0.31511620D-17  0.32225854D-15  0.33356838D-15
  0.27908574D-15  0.18008955D-15  0.80898689D-16  0.23621108D-16  0.39850257D-17
  0.14321484D-03  0.13351880D-03 -0.27673364D-03 -0.95107657D-04  0.87027900D-17
 -0.62178987D-16  0.11749547D-03 -0.87685468D-04 -0.29809999D-04 -0.13325714D-04
 -0.15304716D-17  0.77456142D-16 -0.64012090D-05 -0.31922943D-04  0.38324152D-04
 -0.31752497D-04 -0.21944040D-17 -0.11514991D-16  0.97054011D-04  0.91954727D-04
 -0.13773457D-16 -0.76087760D-04 -0.19139224D-03 -0.26868046D-16 -0.21507427D-03
 -0.84471941D-04  0.68188417D-16  0.53865816D-16  0.58685427D-06 -0.22182720D-04
  0.22447283D-17 -0.20991497D-04  0.40557714D-04  0.32629575D-17  0.19230934D-04
  0.25990447D-04 -0.99971424D-17 -0.16706526D-16 -0.28283216D-04 -0.51009945D-04
 -0.75214134D-04  0.67380058D-03  0.74595750D-03  0.24426994D-04  0.66938051D-04
  0.27458473D-04  0.12593179D-15  0.23541433D-03 -0.77649808D-04 -0.26209158D-15
  0.55556523D-04 -0.88258117D-04 -0.25802630D-15  0.11836727D-03 -0.60999855D-04
 -0.57367420D-04 -0.45013508D-04 -0.75292110D-16  0.48915307D-16 -0.18108875D-04
  0.16971148D-04  0.11377270D-05  0.14651286D-04 -0.12892800D-15 -0.19667065D-16
 -0.13114435D-04 -0.23652423D-04 -0.34875484D-04  0.43453092D-03  0.42800570D-03
  0.59617123D-05 -0.96665691D-05  0.23624574D-04  0.47601250D-05 -0.87760574D-04
  0.11800621D-04 -0.15199335D-03  0.16661009D-04 -0.94563328D-04 -0.58331263D-04
 -0.11528514D-05 -0.62033134D-04  0.63185985D-04 -0.29791371D-05  0.10815361D-03
  0.11770034D-05 -0.31431677D-05  0.29499588D-04 -0.26356420D-04 -0.19987695D-04
 -0.24037593D-04 -0.42461382D-05 -0.13114435D-04 -0.23652423D-04 -0.34875484D-04
  0.43453092D-03  0.42800570D-03  0.59617123D-05 -0.96665691D-05  0.23624574D-04
 -0.47601250D-05 -0.87760574D-04  0.11800621D-04  0.15199335D-03  0.16661009D-04
 -0.94563328D-04  0.58331263D-04 -0.11528514D-05 -0.62033134D-04  0.63185985D-04
 -0.29791371D-05 -0.10815361D-03 -0.11770034D-05 -0.31431677D-05  0.29499588D-04
 -0.26356420D-04 -0.19987695D-04  0.24037593D-04  0.42461382D-05  0.61234051D-04
  0.11043813D-03  0.16284096D-03 -0.64021761D-03  0.58651871D-03  0.92594969D-05
 -0.16290403D-03  0.33239117D-04 -0.28824196D-16  0.74275486D-03 -0.18944750D-03
  0.18251804D-16 -0.13430418D-04  0.56339266D-04 -0.85050063D-18 -0.26087119D-03
  0.13057267D-03  0.13029853D-03  0.14517526D-03  0.11212794D-16 -0.15427577D-16
 -0.10748641D-03  0.58382136D-04  0.49104276D-04  0.10024385D-03 -0.45374270D-17
  0.88402652D-17
MO    3     MO 0.0        OCC NO =    2.0000000  ORB. ENERGY =  -51.902464
  0.71823246D-04  0.13389486D-03  0.22630590D-03  0.34021190D-03  0.41798963D-03
  0.35305906D-03  0.13316089D-03 -0.65902067D-06 -0.54596728D-04 -0.10222230D-03
 -0.17404221D-03 -0.26921684D-03 -0.35454911D-03 -0.36839924D-03 -0.23410118D-03
  0.15688916D-03  0.26158229D-03 -0.18228616D-02 -0.18991888D-03  0.28066541D-05
  0.26314166D-05  0.18737254D-05 -0.16188443D-03 -0.15177695D-03 -0.10807423D-03
  0.10954425D-14  0.10270470D-14  0.73131861D-15 -0.35304668D-04  0.17365687D-03
 -0.20098698D-15  0.14940550D-03  0.29257876D-03  0.29583965D-16  0.16887368D-05
  0.15136227D-04  0.70756202D-17  0.19173739D-04 -0.56192262D-05 -0.13554513D-04
  0.17875969D-04 -0.18931304D-16 -0.41223533D-17 -0.10242994D-04 -0.22806816D-04
  0.33049810D-04 -0.12080195D-04 -0.12360585D-15 -0.76698557D-16  0.46430930D-06
 -0.23901936D-04  0.23437627D-04 -0.14825598D-04  0.57450126D-17 -0.25396529D-16
  0.21678474D-04  0.21165508D-04  0.23754389D-17 -0.35262070D-04 -0.19845141D-04
 -0.76667342D-17 -0.29773353D-04 -0.43651384D-04  0.54041750D-18 -0.41229724D-16
  0.32275384D-04  0.21267034D-04 -0.45013204D-18  0.46944449D-04 -0.58561625D-04
 -0.62250748D-17 -0.14377060D-03 -0.52394781D-05  0.75754709D-17 -0.27333471D-16
 -0.72248472D-05 -0.13499290D-04 -0.23412828D-04 -0.38356194D-04 -0.60062753D-04
 -0.90198238D-04 -0.12864851D-03 -0.16997075D-03 -0.19601805D-03 -0.17642254D-03
 -0.98977429D-04 -0.23928323D-04 -0.11359982D-05  0.19440343D-07 -0.54677308D-08
  0.21307660D-08 -0.20154613D-09 -0.19872873D-10  0.55499828D-04  0.10220380D-03
  0.17740012D-03  0.29054816D-03  0.45730943D-03  0.69024804D-03  0.10061806D-02
  0.13816973D-02  0.17547380D-02  0.18897415D-02  0.15076002D-02  0.33769043D-03
 -0.90297662D-03 -0.80299401D-03 -0.15682799D-03 -0.43444579D-05 -0.31461087D-06
 -0.64252146D-08 -0.23950256D-04 -0.43239970D-04 -0.75272554D-04 -0.12326198D-03
 -0.19432954D-03 -0.29323793D-03 -0.42917553D-03 -0.59134748D-03 -0.76181400D-03
 -0.83851766D-03 -0.70589589D-03 -0.16809907D-03  0.56622231D-03  0.75659170D-03
  0.92948837D-04 -0.32477587D-03 -0.14336742D-03  0.71150670D-06  0.12506870D-04
  0.27095995D-04  0.46127381D-04  0.75296184D-04  0.11870766D-03  0.17913654D-03
  0.26218152D-03  0.36166297D-03  0.46650743D-03  0.51573143D-03  0.43678628D-03
  0.10609829D-03 -0.36809856D-03 -0.51952890D-03 -0.61986953D-04  0.29132442D-03
  0.23287172D-03 -0.88222824D-04 -0.13307302D-03  0.65679218D-03  0.12620924D-03
 -0.25188383D+02 -0.36100795D+02 -0.47672485D+02 -0.54797118D+02 -0.50409923D+02
 -0.32248609D+02 -0.11162494D+02 -0.12549313D+01 -0.15965785D-01 -0.27665946D-02
 -0.28271586D-04  0.41597650D+02  0.59619080D+02  0.78729283D+02  0.90495341D+02
  0.83250057D+02  0.53257342D+02  0.18434432D+02  0.20724709D+01  0.26366882D-01
  0.45689250D-02  0.46689441D-04 -0.27902504D-11 -0.39990759D-11 -0.52809332D-11
 -0.60701665D-11 -0.55841737D-11 -0.35723489D-11 -0.12365285D-11 -0.13901537D-12
 -0.17686144D-14 -0.30647031D-15 -0.31317931D-17  0.13689348D-01  0.19745806D-01
  0.26298858D-01  0.31123731D-01  0.29908737D-01  0.20557888D-01  0.64725432D-02
 -0.31281217D-02 -0.32102101D-02 -0.80845003D-03  0.88143857D-06 -0.35466690D-01
 -0.51157906D-01 -0.68135711D-01 -0.80636108D-01 -0.77488271D-01 -0.53261868D-01
 -0.16769220D-01  0.81044125D-02  0.83170890D-02  0.20945517D-02 -0.22836521D-05
  0.13709156D-14  0.19774377D-14  0.26336912D-14  0.31168767D-14  0.29952014D-14
  0.20587635D-14  0.64819089D-15 -0.31326480D-15 -0.32148552D-15 -0.80961984D-16
  0.88271399D-19 -0.10857706D-01 -0.15740276D-01 -0.20891279D-01 -0.24931743D-01
 -0.23953487D-01 -0.16766164D-01 -0.50623942D-02  0.30989405D-02  0.33328551D-02
  0.89631376D-03 -0.33411653D-03  0.27064765D-01  0.39235439D-01  0.52075232D-01
  0.62146807D-01  0.59708328D-01  0.41792647D-01  0.12618918D-01 -0.77246606D-02