 Molden2AIM, Version 4.0.0 (06/02/2016)           Time: Thu Jun 28 17:54:06 2018
GAUSSIAN             29 MOL ORBITALS    495 PRIMITIVES        5 NUCLEI
  C    1    (CENTRE  1)   0.00000000  0.00002646  0.86325713  CHARGE =  6.0
  H    2    (CENTRE  2)   0.00000000 -0.00002079  2.92764875  CHARGE =  1.0
  Cl   3    (CENTRE  3)   0.00000000  3.18689461 -0.16362761  CHARGE = 17.0
  Cl   4    (CENTRE  4)   2.75990343 -1.59344919 -0.16361627  CHARGE = 17.0
  Cl   5    (CENTRE  5)  -2.75990343 -1.59344919 -0.16361627  CHARGE = 17.0
CENTRE ASSIGNMENTS    1  1  1  1  1  1  1  1  1  1  1  1  1  1  1  1  1  1  1  1
CENTRE ASSIGNMENTS    1  1  1  1  1  1  1  1  1  1  1  1  1  1  1  1  1  1  1  1
CENTRE ASSIGNMENTS    1  1  1  1  1  1  1  1  1  1  1  1  1  1  1  1  1  1  1  1
CENTRE ASSIGNMENTS    1  1  1  1  1  1  1  1  1  1  1  1  1  1  1  2  2  2  2  2
CENTRE ASSIGNMENTS    2  2  2  2  2  2  2  2  2  2  2  2  2  2  2  2  2  2  2  2
CENTRE ASSIGNMENTS    2  2  3  3  3  3  3  3  3  3  3  3  3  3  3  3  3  3  3  3
CENTRE ASSIGNMENTS    3  3  3  3  3  3  3  3  3  3  3  3  3  3  3  3  3  3  3  3
CENTRE ASSIGNMENTS    3  3  3  3  3  3  3  3  3  3  3  3  3  3  3  3  3  3  3  3
CENTRE ASSIGNMENTS    3  3  3  3  3  3  3  3  3  3  3  3  3  3  3  3  3  3  3  3
CENTRE ASSIGNMENTS    3  3  3  3  3  3  3  3  3  3  3  3  3  3  3  3  3  3  3  3
CENTRE ASSIGNMENTS    3  3  3  3  3  3  3  3  3  3  3  3  3  3  3  3  3  3  3  3
CENTRE ASSIGNMENTS    3  3  3  3  3  3  3  3  3  3  3  3  3  4  4  4  4  4  4  4
CENTRE ASSIGNMENTS    4  4  4  4  4  4  4  4  4  4  4  4  4  4  4  4  4  4  4  4
CENTRE ASSIGNMENTS    4  4  4  4  4  4  4  4  4  4  4  4  4  4  4  4  4  4  4  4
CENTRE ASSIGNMENTS    4  4  4  4  4  4  4  4  4  4  4  4  4  4  4  4  4  4  4  4
CENTRE ASSIGNMENTS    4  4  4  4  4  4  4  4  4  4  4  4  4  4  4  4  4  4  4  4
CENTRE ASSIGNMENTS    4  4  4  4  4  4  4  4  4  4  4  4  4  4  4  4  4  4  4  4
CENTRE ASSIGNMENTS    4  4  4  4  4  4  4  4  4  4  4  4  4  4  4  4  4  4  4  4
CENTRE ASSIGNMENTS    4  4  4  4  5  5  5  5  5  5  5  5  5  5  5  5  5  5  5  5
CENTRE ASSIGNMENTS    5  5  5  5  5  5  5  5  5  5  5  5  5  5  5  5  5  5  5  5
CENTRE ASSIGNMENTS    5  5  5  5  5  5  5  5  5  5  5  5  5  5  5  5  5  5  5  5
CENTRE ASSIGNMENTS    5  5  5  5  5  5  5  5  5  5  5  5  5  5  5  5  5  5  5  5
CENTRE ASSIGNMENTS    5  5  5  5  5  5  5  5  5  5  5  5  5  5  5  5  5  5  5  5
CENTRE ASSIGNMENTS    5  5  5  5  5  5  5  5  5  5  5  5  5  5  5  5  5  5  5  5
CENTRE ASSIGNMENTS    5  5  5  5  5  5  5  5  5  5  5  5  5  5  5
TYPE ASSIGNMENTS      1  1  1  1  1  1  1  1  1  1  1  1  1  1  1  1  1  1  1  2
TYPE ASSIGNMENTS      2  2  3  3  3  4  4  4  2  3  4  2  3  4  2  3  4  5  6  7
TYPE ASSIGNMENTS      8  9 10  5  6  7  8  9 10  5  6  7  8  9 10 11 12 13 17 14
TYPE ASSIGNMENTS     15 18 19 16 20 11 12 13 17 14 15 18 19 16 20  1  1  1  1  1
TYPE ASSIGNMENTS      1  2  3  4  2  3  4  2  3  4  5  6  7  8  9 10  5  6  7  8
TYPE ASSIGNMENTS      9 10  1  1  1  1  1  1  1  1  1  1  1  1  1  1  1  1  1  1
TYPE ASSIGNMENTS      1  1  1  1  1  1  1  1  1  1  1  1  1  1  1  1  1  1  1  1
TYPE ASSIGNMENTS      1  1  1  1  2  2  2  2  2  2  2  3  3  3  3  3  3  3  4  4
TYPE ASSIGNMENTS      4  4  4  4  4  2  2  2  2  2  2  2  3  3  3  3  3  3  3  4
TYPE ASSIGNMENTS      4  4  4  4  4  4  2  3  4  2  3  4  2  3  4  5  6  7  8  9
TYPE ASSIGNMENTS     10  5  6  7  8  9 10  5  6  7  8  9 10 11 12 13 17 14 15 18
TYPE ASSIGNMENTS     19 16 20 11 12 13 17 14 15 18 19 16 20  1  1  1  1  1  1  1
TYPE ASSIGNMENTS      1  1  1  1  1  1  1  1  1  1  1  1  1  1  1  1  1  1  1  1
TYPE ASSIGNMENTS      1  1  1  1  1  1  1  1  1  1  1  1  1  1  1  2  2  2  2  2
TYPE ASSIGNMENTS      2  2  3  3  3  3  3  3  3  4  4  4  4  4  4  4  2  2  2  2
TYPE ASSIGNMENTS      2  2  2  3  3  3  3  3  3  3  4  4  4  4  4  4  4  2  3  4
TYPE ASSIGNMENTS      2  3  4  2  3  4  5  6  7  8  9 10  5  6  7  8  9 10  5  6
TYPE ASSIGNMENTS      7  8  9 10 11 12 13 17 14 15 18 19 16 20 11 12 13 17 14 15
TYPE ASSIGNMENTS     18 19 16 20  1  1  1  1  1  1  1  1  1  1  1  1  1  1  1  1
TYPE ASSIGNMENTS      1  1  1  1  1  1  1  1  1  1  1  1  1  1  1  1  1  1  1  1
TYPE ASSIGNMENTS      1  1  1  1  1  1  2  2  2  2  2  2  2  3  3  3  3  3  3  3
TYPE ASSIGNMENTS      4  4  4  4  4  4  4  2  2  2  2  2  2  2  3  3  3  3  3  3
TYPE ASSIGNMENTS      3  4  4  4  4  4  4  4  2  3  4  2  3  4  2  3  4  5  6  7
TYPE ASSIGNMENTS      8  9 10  5  6  7  8  9 10  5  6  7  8  9 10 11 12 13 17 14
TYPE ASSIGNMENTS     15 18 19 16 20 11 12 13 17 14 15 18 19 16 20
EXPONENTS  0.8236000D+04 0.1235000D+04 0.2808000D+03 0.7927000D+02 0.2559000D+02
EXPONENTS  0.8997000D+01 0.3319000D+01 0.3643000D+00 0.8236000D+04 0.1235000D+04
EXPONENTS  0.2808000D+03 0.7927000D+02 0.2559000D+02 0.8997000D+01 0.3319000D+01
EXPONENTS  0.3643000D+00 0.9059000D+00 0.1285000D+00 0.4402000D-01 0.1871000D+02
EXPONENTS  0.4133000D+01 0.1200000D+01 0.1871000D+02 0.4133000D+01 0.1200000D+01
EXPONENTS  0.1871000D+02 0.4133000D+01 0.1200000D+01 0.3827000D+00 0.3827000D+00
EXPONENTS  0.3827000D+00 0.1209000D+00 0.1209000D+00 0.1209000D+00 0.3569000D-01
EXPONENTS  0.3569000D-01 0.3569000D-01 0.1097000D+01 0.1097000D+01 0.1097000D+01
EXPONENTS  0.1097000D+01 0.1097000D+01 0.1097000D+01 0.3180000D+00 0.3180000D+00
EXPONENTS  0.3180000D+00 0.3180000D+00 0.3180000D+00 0.3180000D+00 0.1000000D+00
EXPONENTS  0.1000000D+00 0.1000000D+00 0.1000000D+00 0.1000000D+00 0.1000000D+00
EXPONENTS  0.7610000D+00 0.7610000D+00 0.7610000D+00 0.7610000D+00 0.7610000D+00
EXPONENTS  0.7610000D+00 0.7610000D+00 0.7610000D+00 0.7610000D+00 0.7610000D+00
EXPONENTS  0.2680000D+00 0.2680000D+00 0.2680000D+00 0.2680000D+00 0.2680000D+00
EXPONENTS  0.2680000D+00 0.2680000D+00 0.2680000D+00 0.2680000D+00 0.2680000D+00
EXPONENTS  0.3387000D+02 0.5095000D+01 0.1159000D+01 0.3258000D+00 0.1027000D+00
EXPONENTS  0.2526000D-01 0.1407000D+01 0.1407000D+01 0.1407000D+01 0.3880000D+00
EXPONENTS  0.3880000D+00 0.3880000D+00 0.1020000D+00 0.1020000D+00 0.1020000D+00
EXPONENTS  0.1057000D+01 0.1057000D+01 0.1057000D+01 0.1057000D+01 0.1057000D+01
EXPONENTS  0.1057000D+01 0.2470000D+00 0.2470000D+00 0.2470000D+00 0.2470000D+00
EXPONENTS  0.2470000D+00 0.2470000D+00 0.4561000D+06 0.6833000D+05 0.1555000D+05
EXPONENTS  0.4405000D+04 0.1439000D+04 0.5204000D+03 0.2031000D+03 0.8396000D+02
EXPONENTS  0.3620000D+02 0.1583000D+02 0.6334000D+01 0.2694000D+01 0.4313000D+00
EXPONENTS  0.4561000D+06 0.6833000D+05 0.1555000D+05 0.4405000D+04 0.1439000D+04
EXPONENTS  0.5204000D+03 0.2031000D+03 0.8396000D+02 0.3620000D+02 0.1583000D+02
EXPONENTS  0.6334000D+01 0.2694000D+01 0.4313000D+00 0.4561000D+06 0.6833000D+05
EXPONENTS  0.1555000D+05 0.4405000D+04 0.1439000D+04 0.5204000D+03 0.2031000D+03
EXPONENTS  0.8396000D+02 0.3620000D+02 0.1583000D+02 0.6334000D+01 0.2694000D+01
EXPONENTS  0.4313000D+00 0.9768000D+00 0.1625000D+00 0.5910000D-01 0.6633000D+03
EXPONENTS  0.1568000D+03 0.4998000D+02 0.1842000D+02 0.7240000D+01 0.2922000D+01
EXPONENTS  0.3818000D+00 0.6633000D+03 0.1568000D+03 0.4998000D+02 0.1842000D+02
EXPONENTS  0.7240000D+01 0.2922000D+01 0.3818000D+00 0.6633000D+03 0.1568000D+03
EXPONENTS  0.4998000D+02 0.1842000D+02 0.7240000D+01 0.2922000D+01 0.3818000D+00
EXPONENTS  0.6633000D+03 0.1568000D+03 0.4998000D+02 0.1842000D+02 0.7240000D+01
EXPONENTS  0.2922000D+01 0.3818000D+00 0.6633000D+03 0.1568000D+03 0.4998000D+02
EXPONENTS  0.1842000D+02 0.7240000D+01 0.2922000D+01 0.3818000D+00 0.6633000D+03
EXPONENTS  0.1568000D+03 0.4998000D+02 0.1842000D+02 0.7240000D+01 0.2922000D+01
EXPONENTS  0.3818000D+00 0.1022000D+01 0.1022000D+01 0.1022000D+01 0.1301000D+00
EXPONENTS  0.1301000D+00 0.1301000D+00 0.4190000D-01 0.4190000D-01 0.4190000D-01
EXPONENTS  0.1046000D+01 0.1046000D+01 0.1046000D+01 0.1046000D+01 0.1046000D+01
EXPONENTS  0.1046000D+01 0.3440000D+00 0.3440000D+00 0.3440000D+00 0.3440000D+00
EXPONENTS  0.3440000D+00 0.3440000D+00 0.1350000D+00 0.1350000D+00 0.1350000D+00
EXPONENTS  0.1350000D+00 0.1350000D+00 0.1350000D+00 0.7060000D+00 0.7060000D+00
EXPONENTS  0.7060000D+00 0.7060000D+00 0.7060000D+00 0.7060000D+00 0.7060000D+00
EXPONENTS  0.7060000D+00 0.7060000D+00 0.7060000D+00 0.3120000D+00 0.3120000D+00
EXPONENTS  0.3120000D+00 0.3120000D+00 0.3120000D+00 0.3120000D+00 0.3120000D+00
EXPONENTS  0.3120000D+00 0.3120000D+00 0.3120000D+00 0.4561000D+06 0.6833000D+05
EXPONENTS  0.1555000D+05 0.4405000D+04 0.1439000D+04 0.5204000D+03 0.2031000D+03
EXPONENTS  0.8396000D+02 0.3620000D+02 0.1583000D+02 0.6334000D+01 0.2694000D+01
EXPONENTS  0.4313000D+00 0.4561000D+06 0.6833000D+05 0.1555000D+05 0.4405000D+04
EXPONENTS  0.1439000D+04 0.5204000D+03 0.2031000D+03 0.8396000D+02 0.3620000D+02
EXPONENTS  0.1583000D+02 0.6334000D+01 0.2694000D+01 0.4313000D+00 0.4561000D+06
EXPONENTS  0.6833000D+05 0.1555000D+05 0.4405000D+04 0.1439000D+04 0.5204000D+03
EXPONENTS  0.2031000D+03 0.8396000D+02 0.3620000D+02 0.1583000D+02 0.6334000D+01
EXPONENTS  0.2694000D+01 0.4313000D+00 0.9768000D+00 0.1625000D+00 0.5910000D-01
EXPONENTS  0.6633000D+03 0.1568000D+03 0.4998000D+02 0.1842000D+02 0.7240000D+01
EXPONENTS  0.2922000D+01 0.3818000D+00 0.6633000D+03 0.1568000D+03 0.4998000D+02
EXPONENTS  0.1842000D+02 0.7240000D+01 0.2922000D+01 0.3818000D+00 0.6633000D+03
EXPONENTS  0.1568000D+03 0.4998000D+02 0.1842000D+02 0.7240000D+01 0.2922000D+01
EXPONENTS  0.3818000D+00 0.6633000D+03 0.1568000D+03 0.4998000D+02 0.1842000D+02
EXPONENTS  0.7240000D+01 0.2922000D+01 0.3818000D+00 0.6633000D+03 0.1568000D+03
EXPONENTS  0.4998000D+02 0.1842000D+02 0.7240000D+01 0.2922000D+01 0.3818000D+00
EXPONENTS  0.6633000D+03 0.1568000D+03 0.4998000D+02 0.1842000D+02 0.7240000D+01
EXPONENTS  0.2922000D+01 0.3818000D+00 0.1022000D+01 0.1022000D+01 0.1022000D+01
EXPONENTS  0.1301000D+00 0.1301000D+00 0.1301000D+00 0.4190000D-01 0.4190000D-01
EXPONENTS  0.4190000D-01 0.1046000D+01 0.1046000D+01 0.1046000D+01 0.1046000D+01
EXPONENTS  0.1046000D+01 0.1046000D+01 0.3440000D+00 0.3440000D+00 0.3440000D+00
EXPONENTS  0.3440000D+00 0.3440000D+00 0.3440000D+00 0.1350000D+00 0.1350000D+00
EXPONENTS  0.1350000D+00 0.1350000D+00 0.1350000D+00 0.1350000D+00 0.7060000D+00
EXPONENTS  0.7060000D+00 0.7060000D+00 0.7060000D+00 0.7060000D+00 0.7060000D+00
EXPONENTS  0.7060000D+00 0.7060000D+00 0.7060000D+00 0.7060000D+00 0.3120000D+00
EXPONENTS  0.3120000D+00 0.3120000D+00 0.3120000D+00 0.3120000D+00 0.3120000D+00
EXPONENTS  0.3120000D+00 0.3120000D+00 0.3120000D+00 0.3120000D+00 0.4561000D+06
EXPONENTS  0.6833000D+05 0.1555000D+05 0.4405000D+04 0.1439000D+04 0.5204000D+03
EXPONENTS  0.2031000D+03 0.8396000D+02 0.3620000D+02 0.1583000D+02 0.6334000D+01
EXPONENTS  0.2694000D+01 0.4313000D+00 0.4561000D+06 0.6833000D+05 0.1555000D+05
EXPONENTS  0.4405000D+04 0.1439000D+04 0.5204000D+03 0.2031000D+03 0.8396000D+02
EXPONENTS  0.3620000D+02 0.1583000D+02 0.6334000D+01 0.2694000D+01 0.4313000D+00
EXPONENTS  0.4561000D+06 0.6833000D+05 0.1555000D+05 0.4405000D+04 0.1439000D+04
EXPONENTS  0.5204000D+03 0.2031000D+03 0.8396000D+02 0.3620000D+02 0.1583000D+02
EXPONENTS  0.6334000D+01 0.2694000D+01 0.4313000D+00 0.9768000D+00 0.1625000D+00
EXPONENTS  0.5910000D-01 0.6633000D+03 0.1568000D+03 0.4998000D+02 0.1842000D+02
EXPONENTS  0.7240000D+01 0.2922000D+01 0.3818000D+00 0.6633000D+03 0.1568000D+03
EXPONENTS  0.4998000D+02 0.1842000D+02 0.7240000D+01 0.2922000D+01 0.3818000D+00
EXPONENTS  0.6633000D+03 0.1568000D+03 0.4998000D+02 0.1842000D+02 0.7240000D+01
EXPONENTS  0.2922000D+01 0.3818000D+00 0.6633000D+03 0.1568000D+03 0.4998000D+02
EXPONENTS  0.1842000D+02 0.7240000D+01 0.2922000D+01 0.3818000D+00 0.6633000D+03
EXPONENTS  0.1568000D+03 0.4998000D+02 0.1842000D+02 0.7240000D+01 0.2922000D+01
EXPONENTS  0.3818000D+00 0.6633000D+03 0.1568000D+03 0.4998000D+02 0.1842000D+02
EXPONENTS  0.7240000D+01 0.2922000D+01 0.3818000D+00 0.1022000D+01 0.1022000D+01
EXPONENTS  0.1022000D+01 0.1301000D+00 0.1301000D+00 0.1301000D+00 0.4190000D-01
EXPONENTS  0.4190000D-01 0.4190000D-01 0.1046000D+01 0.1046000D+01 0.1046000D+01
EXPONENTS  0.1046000D+01 0.1046000D+01 0.1046000D+01 0.3440000D+00 0.3440000D+00
EXPONENTS  0.3440000D+00 0.3440000D+00 0.3440000D+00 0.3440000D+00 0.1350000D+00
EXPONENTS  0.1350000D+00 0.1350000D+00 0.1350000D+00 0.1350000D+00 0.1350000D+00
EXPONENTS  0.7060000D+00 0.7060000D+00 0.7060000D+00 0.7060000D+00 0.7060000D+00
EXPONENTS  0.7060000D+00 0.7060000D+00 0.7060000D+00 0.7060000D+00 0.7060000D+00
EXPONENTS  0.3120000D+00 0.3120000D+00 0.3120000D+00 0.3120000D+00 0.3120000D+00
EXPONENTS  0.3120000D+00 0.3120000D+00 0.3120000D+00 0.3120000D+00 0.3120000D+00
MO    1     MO 0.0        OCC NO =    2.0000000  ORB. ENERGY = -101.216562
 -0.80561568D-05 -0.15018508D-04 -0.25383924D-04 -0.38160353D-04 -0.46884403D-04
 -0.39601373D-04 -0.14936181D-04  0.73919993D-07  0.48881455D-05  0.91521507D-05
  0.15582320D-04  0.24103479D-04  0.31743434D-04  0.32983461D-04  0.20959509D-04
 -0.14046575D-04 -0.13211096D-04  0.68839502D-03  0.58247427D-04  0.13410772D-11
  0.12573451D-11  0.89530460D-12  0.79388573D-04  0.74431833D-04  0.52999899D-04
 -0.41234746D-04 -0.38660195D-04 -0.27528362D-04  0.29931073D-11  0.17937150D-03
  0.24934591D-04  0.10677980D-10  0.63786721D-03 -0.16047812D-03  0.20331741D-12
  0.12189544D-04 -0.23899277D-05 -0.15053547D-03  0.18226251D-03 -0.31727034D-04
 -0.55834500D-11 -0.23741130D-11 -0.14141677D-03  0.61827002D-04 -0.89818335D-04
  0.27991333D-04  0.25531224D-11  0.27116724D-11  0.16129579D-03 -0.41461484D-05
  0.80990144D-05 -0.39528660D-05 -0.20357876D-12 -0.16220039D-11 -0.96821938D-04
 -0.38970397D-12 -0.23935927D-04 -0.24541324D-05 -0.38755324D-12 -0.20888853D-04
  0.18024979D-04  0.15566651D-11  0.92696632D-04 -0.10662582D-04  0.47601868D-12
 -0.28892967D-12 -0.25349959D-04  0.73673543D-05 -0.29198167D-12  0.69041627D-05
 -0.11114275D-03  0.11587707D-11  0.69145714D-04  0.89040684D-04 -0.33577378D-11
 -0.36831981D-05 -0.66427995D-05 -0.97948040D-05 -0.13291198D-03  0.15500903D-03
  0.29244385D-05  0.11245993D-11  0.67092946D-04  0.25273142D-04 -0.48221782D-11
 -0.28761620D-03  0.26076141D-04  0.10939557D-11  0.65242195D-04 -0.26040472D-04
  0.44783138D-04 -0.51670542D-04  0.68874043D-05  0.16159604D-11  0.44559567D-11
  0.26578642D-03  0.72166347D-05 -0.56679108D-05 -0.15487239D-05  0.21600561D-12
  0.11971975D-12  0.71109195D-05  0.59554564D+00  0.11142682D+01  0.19252086D+01
  0.31209876D+01  0.47394687D+01  0.65873041D+01  0.78313543D+01  0.69755680D+01
  0.34628808D+01  0.55792559D+00  0.85656439D-02  0.15306721D-02  0.57198830D-04
 -0.11998475D-02 -0.22411428D-02 -0.38896121D-02 -0.63112597D-02 -0.97690804D-02
 -0.13983551D-01 -0.18252902D-01 -0.19451513D-01 -0.14540401D-01 -0.76756193D-03
  0.98627898D-02  0.58596303D-02 -0.21969220D-04  0.48487513D-03  0.90494957D-03
  0.15727227D-02  0.25489208D-02  0.39588731D-02  0.56712000D-02  0.74882912D-02
  0.80970640D-02  0.63482032D-02  0.31588449D-03 -0.54420151D-02 -0.56334945D-02
  0.25492360D-02 -0.30629363D-02 -0.15531810D-02 -0.38292889D-03 -0.30611602D-10
 -0.40322350D-10 -0.44484998D-10 -0.36949904D-10 -0.19624992D-10 -0.50618578D-11
  0.52034177D-14 -0.60222156D-02 -0.79326095D-02 -0.87515266D-02 -0.72691488D-02
 -0.38608215D-02 -0.99581849D-03  0.10236676D-05  0.93161394D-03  0.12271446D-02
  0.13538280D-02  0.11245098D-02  0.59725446D-03  0.15404935D-03 -0.15835749D-06
  0.25912530D-10  0.34021252D-10  0.38735698D-10  0.32799798D-10  0.18788987D-10
  0.42738428D-11 -0.20003936D-11  0.50882167D-02  0.66804555D-02  0.76061901D-02
  0.64406094D-02  0.36894290D-02  0.83921710D-03 -0.39279979D-03 -0.76740767D-03
 -0.10075500D-02 -0.11471698D-02 -0.97137628D-03 -0.55644173D-03 -0.12657119D-03
  0.59242282D-04  0.24433420D-11  0.17970996D-03  0.13890057D-04 -0.15590370D-11
  0.66888772D-03 -0.14038027D-03  0.51834897D-14  0.15550475D-04 -0.32337686D-05
 -0.11660239D-03  0.19522803D-03 -0.78625646D-04 -0.21623742D-11  0.11508047D-13
 -0.20345608D-03  0.19907754D-04 -0.22318972D-04  0.24112187D-05  0.23483203D-11
 -0.61730136D-13  0.46061342D-04  0.44781124D-04 -0.83080943D-04  0.38299819D-04
  0.48741685D-12  0.22315091D-13  0.62638830D-04  0.10221755D-12 -0.74026412D-04
 -0.28799830D-04 -0.74119518D-12  0.12939781D-03 -0.46602915D-04  0.43454252D-12
  0.92681423D-04  0.13300240D-03  0.42801627D-12  0.15319753D-12  0.28539037D-04
  0.99515290D-05 -0.57780628D-12 -0.55077669D-04  0.29088789D-04  0.11821368D-12
 -0.30539441D-04 -0.58943376D-04 -0.16457773D-12 -0.11501674D+00 -0.21519676D+00
 -0.37181232D+00 -0.60275114D+00 -0.91532569D+00 -0.12721951D+01 -0.15124564D+01
 -0.13471798D+01 -0.66878041D+00 -0.10775124D+00 -0.16542685D-02 -0.29561616D-03
 -0.11046715D-04  0.25587130D-03  0.47793085D-03  0.82947217D-03  0.13458962D-02
  0.20832875D-02  0.29820368D-02  0.38924896D-02  0.41480972D-02  0.31007868D-02
  0.16368503D-03 -0.21032714D-02 -0.12495848D-02  0.46850063D-05 -0.10594185D-03
 -0.19772519D-03 -0.34362898D-03 -0.55692148D-03 -0.86498626D-03 -0.12391178D-02
 -0.16361396D-02 -0.17691522D-02 -0.13870383D-02 -0.69018565D-04  0.11890425D-02
  0.12308794D-02 -0.55699034D-03  0.64032910D-03  0.29978707D-03  0.85199949D-04
  0.13973675D-02  0.18406466D-02  0.20306644D-02  0.16867002D-02  0.89584746D-03
  0.23106519D-03 -0.23752716D-06 -0.26332874D-02 -0.34686305D-02 -0.38267120D-02
 -0.31785242D-02 -0.16881914D-02 -0.43543381D-03  0.44761115D-06  0.39213653D-03
  0.51653182D-03  0.56985560D-03  0.47333058D-03  0.25139737D-03  0.64842715D-04
 -0.66656106D-07 -0.12297966D-02 -0.16146328D-02 -0.18383782D-02 -0.15566632D-02
 -0.89171659D-03 -0.20283459D-03  0.94937750D-04  0.22561606D-02  0.29621735D-02
  0.33726524D-02  0.28558236D-02  0.16359257D-02  0.37211634D-03 -0.17417092D-03
 -0.31929846D-03 -0.41921547D-03 -0.47730765D-03 -0.40416452D-03 -0.23152100D-03
 -0.52662994D-04  0.24649180D-04 -0.28231996D-04  0.16208120D-03 -0.57255884D-04
 -0.14652758D-03 -0.84499167D-05  0.18559825D-04 -0.32575733D-05  0.21757561D-05
 -0.32723678D-07 -0.61107819D-04  0.64550164D-04 -0.34423447D-05 -0.57600855D-05
  0.69454486D-04 -0.39341285D-04  0.33135644D-04 -0.60247114D-04  0.27111469D-04
  0.80891472D-04 -0.29134065D-04  0.13091475D-04  0.18979656D-04 -0.11837813D-04
 -0.71418422D-05 -0.29357907D-05 -0.69758811D-05  0.53618627D-05 -0.61217326D-05
 -0.55291502D-05  0.92731469D-06  0.37363987D-04 -0.20261988D-04 -0.20928347D-05
 -0.18998789D-04  0.36849438D-04 -0.68910934D-06  0.46572125D-04 -0.91764237D-05
 -0.23566860D-05  0.13849505D-05  0.28620248D-04 -0.61878377D-06  0.12643212D-05
 -0.10909773D-05  0.76888417D-05 -0.54191726D-05 -0.28541083D-04 -0.11501675D+00
 -0.21519678D+00 -0.37181237D+00 -0.60275121D+00 -0.91532580D+00 -0.12721952D+01
 -0.15124566D+01 -0.13471800D+01 -0.66878049D+00 -0.10775125D+00 -0.16542687D-02
 -0.29561620D-03 -0.11046716D-04  0.25587133D-03  0.47793090D-03  0.82947226D-03
  0.13458964D-02  0.20832878D-02  0.29820372D-02  0.38924900D-02  0.41480976D-02
  0.31007872D-02  0.16368505D-03 -0.21032716D-02 -0.12495850D-02  0.46850068D-05
 -0.10594186D-03 -0.19772521D-03 -0.34362902D-03 -0.55692154D-03 -0.86498635D-03
 -0.12391179D-02 -0.16361397D-02 -0.17691524D-02 -0.13870384D-02 -0.69018573D-04
  0.11890426D-02  0.12308795D-02 -0.55699040D-03  0.64032917D-03  0.29978711D-03
  0.85199959D-04 -0.13973677D-02 -0.18406468D-02 -0.20306646D-02 -0.16867004D-02
 -0.89584756D-03 -0.23106522D-03  0.23752719D-06 -0.26332875D-02 -0.34686306D-02
 -0.38267121D-02 -0.31785243D-02 -0.16881914D-02 -0.43543382D-03  0.44761116D-06
  0.39213652D-03  0.51653180D-03  0.56985558D-03  0.47333057D-03  0.25139736D-03
  0.64842713D-04 -0.66656104D-07  0.12297967D-02  0.16146330D-02  0.18383784D-02
  0.15566633D-02  0.89171669D-03  0.20283461D-03 -0.94937761D-04  0.22561606D-02
  0.29621735D-02  0.33726525D-02  0.28558236D-02  0.16359257D-02  0.37211634D-03
 -0.17417093D-03 -0.31929845D-03 -0.41921546D-03 -0.47730764D-03 -0.40416451D-03
 -0.23152099D-03 -0.52662993D-04  0.24649179D-04  0.28232002D-04  0.16208120D-03
 -0.57255886D-04  0.14652759D-03 -0.84499077D-05  0.18559828D-04  0.32575737D-05
  0.21757563D-05 -0.32723616D-07 -0.61107820D-04  0.64550164D-04 -0.34423433D-05
  0.57600783D-05 -0.69454490D-04 -0.39341288D-04  0.33135643D-04 -0.60247113D-04
  0.27111470D-04 -0.80891470D-04  0.29134067D-04  0.13091476D-04  0.18979657D-04
 -0.11837814D-04 -0.71418430D-05  0.29357934D-05  0.69758823D-05  0.53618634D-05
  0.61217318D-05 -0.55291494D-05  0.92731526D-06 -0.37363987D-04 -0.20261991D-04
 -0.20928368D-05  0.18998791D-04  0.36849439D-04 -0.68910895D-06 -0.46572129D-04
  0.91764236D-05 -0.23566863D-05  0.13849503D-05 -0.28620248D-04 -0.61878244D-06
  0.12643221D-05  0.10909769D-05  0.76888414D-05 -0.54191730D-05  0.28541085D-04
MO    2     MO 0.0        OCC NO =    2.0000000  ORB. ENERGY = -101.216557
 -0.18583867D-11 -0.34644554D-11 -0.58555400D-11 -0.88027946D-11 -0.10815250D-10
 -0.91352078D-11 -0.34454643D-11  0.17051795D-13  0.11297937D-11  0.21153302D-11
  0.36015307D-11  0.55710204D-11  0.73368379D-11  0.76234445D-11  0.48443568D-11
 -0.32465752D-11 -0.30611876D-11  0.15774694D-09  0.13333874D-10 -0.84471616D-04
 -0.79197509D-04 -0.56393345D-04 -0.96819524D-12 -0.90774458D-12 -0.64636822D-12
 -0.94244846D-11 -0.88360533D-11 -0.62917964D-11 -0.19087577D-03 -0.22389493D-11
  0.57280233D-11 -0.67875858D-03 -0.79945275D-11 -0.36729470D-10 -0.12970984D-04
 -0.15176117D-12 -0.54862595D-12  0.56902125D-11  0.15479964D-11 -0.72382089D-11
  0.35414797D-03  0.15049168D-03  0.17196495D-11 -0.41427839D-11 -0.22590254D-11
  0.64018094D-11 -0.16136573D-03 -0.17163430D-03 -0.19642142D-11  0.51652092D-12
  0.38624502D-12 -0.90276595D-12  0.13023511D-04  0.10303051D-03  0.12447720D-11
  0.24658418D-04  0.11690596D-12 -0.55425889D-12  0.24659645D-04  0.78419761D-12
  0.65134408D-12 -0.98634900D-04 -0.11349155D-11  0.10114326D-11 -0.30519407D-04
  0.18394709D-04 -0.16239563D-11  0.16915720D-11  0.18395257D-04  0.57326775D-11
 -0.12991758D-11 -0.73579385D-04 -0.86080875D-12 -0.37755402D-11  0.21302542D-03
 -0.83958430D-12 -0.15142249D-11 -0.22327237D-11 -0.30497839D-10  0.35419716D-10
  0.67128786D-12 -0.71387138D-04 -0.84083301D-12  0.57892746D-11  0.30605128D-03
  0.35637870D-11  0.60004936D-11 -0.69426483D-04 -0.84431469D-12 -0.59488950D-11
 -0.13817073D-11 -0.17918806D-12  0.15608953D-11 -0.10261949D-03 -0.28281669D-03
 -0.32782299D-11  0.10096923D-12  0.25294510D-12 -0.35391433D-12 -0.13702337D-04
 -0.75660499D-05 -0.88915347D-13  0.21969235D-07  0.41104523D-07  0.71019510D-07
  0.11513091D-06  0.17483547D-06  0.24300074D-06  0.28889283D-06  0.25732351D-06
  0.12774310D-06  0.20581459D-07  0.31598022D-09  0.56465355D-10  0.21100222D-11
 -0.40381275D-10 -0.75426424D-10 -0.13090622D-09 -0.21240759D-09 -0.32878172D-09
 -0.47062117D-09 -0.61430763D-09 -0.65464728D-09 -0.48936213D-09 -0.25832558D-10
  0.33193554D-09  0.19720785D-09 -0.73938159D-12  0.15910521D-10  0.29694694D-10
  0.51606765D-10  0.83639385D-10  0.12990506D-09  0.18609275D-09  0.24571813D-09
  0.26569419D-09  0.20830769D-09  0.10365322D-10 -0.17857236D-09 -0.18485549D-09
  0.83649725D-10 -0.10514518D-09 -0.57330109D-10 -0.12325344D-10  0.19435087D-02
  0.25600372D-02  0.28243208D-02  0.23459230D-02  0.12459767D-02  0.32137374D-03
 -0.33036128D-06 -0.27178829D-11 -0.35800617D-11 -0.39496468D-11 -0.32806357D-11
 -0.17424253D-11 -0.44942231D-12  0.46199085D-15  0.12643704D-09  0.16654596D-09
  0.18373921D-09  0.15261653D-09  0.81058348D-10  0.20907312D-10 -0.21492006D-13
 -0.16451673D-02 -0.21599841D-02 -0.24593008D-02 -0.20824349D-02 -0.11928989D-02
 -0.27134311D-03  0.12700351D-03 -0.70606805D-11 -0.92701559D-11 -0.10554754D-10
 -0.89373326D-11 -0.51196482D-11 -0.11645423D-11  0.54506991D-12 -0.10355528D-09
 -0.13596049D-09 -0.15480102D-09 -0.13107914D-09 -0.75087179D-10 -0.17079728D-10
  0.79942528D-11 -0.15512083D-03 -0.47643481D-11 -0.82684287D-11  0.99028916D-04
  0.25726204D-10 -0.65915546D-11 -0.31364206D-06  0.42774226D-12 -0.22535092D-12
 -0.30002920D-11  0.88973797D-11 -0.58970877D-11  0.13725894D-03 -0.80584280D-06
 -0.10039898D-11  0.10551413D-11 -0.55772085D-11  0.45220672D-11 -0.14906932D-03
  0.39678813D-05 -0.19649116D-11  0.21771977D-11 -0.36281327D-11  0.14509350D-11
 -0.30994531D-04 -0.14187628D-05  0.28622544D-11 -0.64731068D-05 -0.30390560D-11
 -0.18042554D-11  0.46955509D-04  0.84205060D-11 -0.98282273D-13 -0.27536188D-04
  0.69666188D-12  0.55110484D-11 -0.27118621D-04 -0.97329164D-05  0.20622708D-11
  0.89817717D-12  0.36712173D-04 -0.33435165D-11 -0.60748292D-12 -0.75134236D-05
 -0.28432960D-11 -0.20870486D-11  0.10422498D-04 -0.43654378D+00 -0.81677509D+00
 -0.14112064D+01 -0.22877302D+01 -0.34741008D+01 -0.48285916D+01 -0.57404988D+01
 -0.51131948D+01 -0.25383430D+01 -0.40896773D+00 -0.62787440D-02 -0.11220054D-02
 -0.41927591D-04  0.89434383D-03  0.16705059D-02  0.28992439D-02  0.47042947D-02
  0.72816895D-02  0.10423077D-01  0.13605371D-01  0.14498793D-01  0.10838142D-01
  0.57212628D-03 -0.73515387D-02 -0.43676586D-02  0.16375445D-04 -0.36297811D-03
 -0.67744635D-03 -0.11773421D-02 -0.19081252D-02 -0.29636172D-02 -0.42454672D-02
 -0.56057438D-02 -0.60614719D-02 -0.47522726D-02 -0.23647151D-03  0.40738991D-02
  0.42172408D-02 -0.19083611D-02  0.22751562D-02  0.11383798D-02  0.28760461D-03
  0.50345521D-02  0.66316350D-02  0.73162470D-02  0.60769841D-02  0.32276339D-02
  0.83250093D-03 -0.85578265D-06 -0.17847009D-02 -0.23508516D-02 -0.25935400D-02
 -0.21542331D-02 -0.11441655D-02 -0.29511366D-03  0.30336681D-06 -0.33140280D-03
 -0.43653186D-03 -0.48159691D-03 -0.40002159D-03 -0.21246118D-03 -0.54799937D-04
  0.56332472D-07 -0.42854687D-02 -0.56265063D-02 -0.64061913D-02 -0.54244997D-02
 -0.31073623D-02 -0.70681711D-03  0.33082931D-03  0.15244580D-02  0.20015016D-02
  0.22788568D-02  0.19296423D-02  0.11053734D-02  0.25143410D-03 -0.11768500D-03
  0.27527377D-03  0.36141428D-03  0.41149674D-03  0.34843854D-03  0.19959901D-03
  0.45401850D-04 -0.21250565D-04 -0.19052694D-03  0.20446729D-04 -0.43711350D-04
 -0.39639634D-03  0.28603718D-03  0.97643844D-04 -0.10432198D-04  0.58420037D-05
  0.19666497D-05 -0.50159216D-04  0.39649603D-05  0.46194255D-04  0.23099994D-03
  0.15051565D-03 -0.87369373D-04 -0.36963503D-04  0.21788655D-04  0.15174848D-04
 -0.47297811D-04 -0.40423352D-04  0.25630232D-04  0.29644127D-04 -0.17253939D-05
 -0.27918733D-04 -0.85329687D-04 -0.38321993D-04  0.21306766D-04  0.25367640D-04
  0.26691454D-04  0.18263313D-04 -0.13438058D-05 -0.10733652D-03 -0.67151335D-04
 -0.74759115D-04  0.27262160D-04  0.12361396D-04  0.11061333D-03  0.28491199D-05
 -0.10318139D-04 -0.52631390D-05 -0.20372054D-04  0.42117131D-04  0.27980806D-04
  0.11824695D-04 -0.11162715D-04 -0.12191389D-04 -0.59162849D-04  0.43654385D+00
  0.81677521D+00  0.14112066D+01  0.22877305D+01  0.34741013D+01  0.48285923D+01
  0.57404996D+01  0.51131955D+01  0.25383434D+01  0.40896779D+00  0.62787449D-02
  0.11220055D-02  0.41927597D-04 -0.89434395D-03 -0.16705061D-02 -0.28992443D-02
 -0.47042953D-02 -0.72816904D-02 -0.10423078D-01 -0.13605373D-01 -0.14498795D-01
 -0.10838144D-01 -0.57212635D-03  0.73515396D-02  0.43676592D-02 -0.16375447D-04
  0.36297816D-03  0.67744643D-03  0.11773423D-02  0.19081255D-02  0.29636176D-02
  0.42454677D-02  0.56057446D-02  0.60614727D-02  0.47522732D-02  0.23647154D-03
 -0.40738997D-02 -0.42172414D-02  0.19083614D-02 -0.22751566D-02 -0.11383800D-02
 -0.28760464D-03  0.50345523D-02  0.66316352D-02  0.73162472D-02  0.60769843D-02
  0.32276340D-02  0.83250096D-03 -0.85578268D-06  0.17847010D-02  0.23508517D-02
  0.25935402D-02  0.21542333D-02  0.11441656D-02  0.29511369D-03 -0.30336684D-06
  0.33140307D-03  0.43653221D-03  0.48159729D-03  0.40002191D-03  0.21246135D-03
  0.54799981D-04 -0.56332517D-07 -0.42854689D-02 -0.56265064D-02 -0.64061915D-02
 -0.54244999D-02 -0.31073624D-02 -0.70681713D-03  0.33082932D-03 -0.15244581D-02
 -0.20015017D-02 -0.22788569D-02 -0.19296425D-02 -0.11053735D-02 -0.25143412D-03
  0.11768501D-03 -0.27527398D-03 -0.36141456D-03 -0.41149707D-03 -0.34843881D-03
 -0.19959917D-03 -0.45401886D-04  0.21250581D-04 -0.19052694D-03 -0.20446730D-04
  0.43711335D-04 -0.39639640D-03 -0.28603721D-03 -0.97643861D-04 -0.10432199D-04
 -0.58420044D-05 -0.19666502D-05  0.50159232D-04 -0.39649629D-05 -0.46194269D-04
  0.23099997D-03  0.15051566D-03  0.87369377D-04  0.36963494D-04 -0.21788655D-04
 -0.15174839D-04 -0.47297821D-04 -0.40423351D-04 -0.25630231D-04 -0.29644133D-04
  0.17253960D-05  0.27918738D-04 -0.85329700D-04 -0.38322000D-04 -0.21306770D-04
  0.25367641D-04 -0.26691460D-04 -0.18263317D-04 -0.13438041D-05  0.10733654D-03
  0.67151345D-04 -0.74759119D-04 -0.27262163D-04 -0.12361393D-04  0.11061335D-03
  0.28491182D-05  0.10318141D-04  0.52631410D-05 -0.20372055D-04 -0.42117141D-04
 -0.27980810D-04  0.11824700D-04  0.11162718D-04  0.12191387D-04 -0.59162854D-04
MO    3     MO 0.0        OCC NO =    2.0000000  ORB. ENERGY = -101.216554
 -0.22171582D-04 -0.41332869D-04 -0.69859831D-04 -0.10502221D-03 -0.12903192D-03
 -0.10898808D-03 -0.41106295D-04  0.20343735D-06  0.13455927D-04  0.25193741D-04
  0.42894500D-04  0.66351269D-04  0.87382287D-04  0.90795793D-04  0.57696651D-04
 -0.38666954D-04 -0.36365092D-04  0.18927457D-02  0.16013186D-03  0.65002853D-11
  0.60944306D-11  0.43395977D-11 -0.28873089D-04 -0.27070356D-04 -0.19275706D-04
 -0.11337693D-03 -0.10629807D-03 -0.75690562D-04  0.14826469D-10 -0.65253635D-04
  0.68601739D-04  0.52596239D-10 -0.23204339D-03 -0.44110688D-03  0.10078168D-11
 -0.44346236D-05 -0.65696168D-05  0.10413237D-03 -0.16920800D-04 -0.87211573D-04
 -0.27398190D-10 -0.11637050D-10  0.51436222D-04 -0.66058154D-04 -0.10902229D-04
  0.76960383D-04  0.12450655D-10  0.13257184D-10 -0.58661905D-04  0.76606184D-05
  0.32041656D-05 -0.10864784D-04 -0.10138470D-11 -0.79796406D-11  0.35216114D-04
 -0.19041764D-11  0.63386979D-05 -0.67408342D-05 -0.19122416D-11  0.14700936D-04
  0.48967060D-05  0.76247709D-11 -0.33717030D-04  0.15325797D-04  0.23800232D-11
 -0.14270560D-11 -0.15874104D-04  0.20260887D-04 -0.14159200D-11  0.72771509D-04