 Molden2AIM, Version 4.0.0 (06/02/2016)           Time: Thu Jun 28 21:04:15 2018
GAUSSIAN             21 MOL ORBITALS    337 PRIMITIVES        3 NUCLEI
  O    1    (CENTRE  1)   1.23994569  2.54263973 -0.06619333  CHARGE =  8.0
  Cl   2    (CENTRE  2)   4.47521917  2.61201346 -0.07755247  CHARGE = 17.0
  Cl   3    (CENTRE  3)   0.09525354 -0.44435965  0.42312291  CHARGE = 17.0
CENTRE ASSIGNMENTS    1  1  1  1  1  1  1  1  1  1  1  1  1  1  1  1  1  1  1  1
CENTRE ASSIGNMENTS    1  1  1  1  1  1  1  1  1  1  1  1  1  1  1  1  1  1  1  1
CENTRE ASSIGNMENTS    1  1  1  1  1  1  1  1  1  1  1  1  1  1  1  1  1  1  1  1
CENTRE ASSIGNMENTS    1  1  1  1  1  1  1  1  1  1  1  1  1  1  1  2  2  2  2  2
CENTRE ASSIGNMENTS    2  2  2  2  2  2  2  2  2  2  2  2  2  2  2  2  2  2  2  2
CENTRE ASSIGNMENTS    2  2  2  2  2  2  2  2  2  2  2  2  2  2  2  2  2  2  2  2
CENTRE ASSIGNMENTS    2  2  2  2  2  2  2  2  2  2  2  2  2  2  2  2  2  2  2  2
CENTRE ASSIGNMENTS    2  2  2  2  2  2  2  2  2  2  2  2  2  2  2  2  2  2  2  2
CENTRE ASSIGNMENTS    2  2  2  2  2  2  2  2  2  2  2  2  2  2  2  2  2  2  2  2
CENTRE ASSIGNMENTS    2  2  2  2  2  2  2  2  2  2  2  2  2  2  2  2  2  2  2  2
CENTRE ASSIGNMENTS    2  2  2  2  2  2  3  3  3  3  3  3  3  3  3  3  3  3  3  3
CENTRE ASSIGNMENTS    3  3  3  3  3  3  3  3  3  3  3  3  3  3  3  3  3  3  3  3
CENTRE ASSIGNMENTS    3  3  3  3  3  3  3  3  3  3  3  3  3  3  3  3  3  3  3  3
CENTRE ASSIGNMENTS    3  3  3  3  3  3  3  3  3  3  3  3  3  3  3  3  3  3  3  3
CENTRE ASSIGNMENTS    3  3  3  3  3  3  3  3  3  3  3  3  3  3  3  3  3  3  3  3
CENTRE ASSIGNMENTS    3  3  3  3  3  3  3  3  3  3  3  3  3  3  3  3  3  3  3  3
CENTRE ASSIGNMENTS    3  3  3  3  3  3  3  3  3  3  3  3  3  3  3  3  3
TYPE ASSIGNMENTS      1  1  1  1  1  1  1  1  1  1  1  1  1  1  1  1  1  1  1  2
TYPE ASSIGNMENTS      2  2  3  3  3  4  4  4  2  3  4  2  3  4  2  3  4  5  6  7
TYPE ASSIGNMENTS      8  9 10  5  6  7  8  9 10  5  6  7  8  9 10 11 12 13 17 14
TYPE ASSIGNMENTS     15 18 19 16 20 11 12 13 17 14 15 18 19 16 20  1  1  1  1  1
TYPE ASSIGNMENTS      1  1  1  1  1  1  1  1  1  1  1  1  1  1  1  1  1  1  1  1
TYPE ASSIGNMENTS      1  1  1  1  1  1  1  1  1  1  1  1  1  1  1  1  1  2  2  2
TYPE ASSIGNMENTS      2  2  2  2  3  3  3  3  3  3  3  4  4  4  4  4  4  4  2  2
TYPE ASSIGNMENTS      2  2  2  2  2  3  3  3  3  3  3  3  4  4  4  4  4  4  4  2
TYPE ASSIGNMENTS      3  4  2  3  4  2  3  4  5  6  7  8  9 10  5  6  7  8  9 10
TYPE ASSIGNMENTS      5  6  7  8  9 10 11 12 13 17 14 15 18 19 16 20 11 12 13 17
TYPE ASSIGNMENTS     14 15 18 19 16 20  1  1  1  1  1  1  1  1  1  1  1  1  1  1
TYPE ASSIGNMENTS      1  1  1  1  1  1  1  1  1  1  1  1  1  1  1  1  1  1  1  1
TYPE ASSIGNMENTS      1  1  1  1  1  1  1  1  2  2  2  2  2  2  2  3  3  3  3  3
TYPE ASSIGNMENTS      3  3  4  4  4  4  4  4  4  2  2  2  2  2  2  2  3  3  3  3
TYPE ASSIGNMENTS      3  3  3  4  4  4  4  4  4  4  2  3  4  2  3  4  2  3  4  5
TYPE ASSIGNMENTS      6  7  8  9 10  5  6  7  8  9 10  5  6  7  8  9 10 11 12 13
TYPE ASSIGNMENTS     17 14 15 18 19 16 20 11 12 13 17 14 15 18 19 16 20
EXPONENTS  0.1533000D+05 0.2299000D+04 0.5224000D+03 0.1473000D+03 0.4755000D+02
EXPONENTS  0.1676000D+02 0.6207000D+01 0.6882000D+00 0.1533000D+05 0.2299000D+04
EXPONENTS  0.5224000D+03 0.1473000D+03 0.4755000D+02 0.1676000D+02 0.6207000D+01
EXPONENTS  0.6882000D+00 0.1752000D+01 0.2384000D+00 0.7376000D-01 0.3446000D+02
EXPONENTS  0.7749000D+01 0.2280000D+01 0.3446000D+02 0.7749000D+01 0.2280000D+01
EXPONENTS  0.3446000D+02 0.7749000D+01 0.2280000D+01 0.7156000D+00 0.7156000D+00
EXPONENTS  0.7156000D+00 0.2140000D+00 0.2140000D+00 0.2140000D+00 0.5974000D-01
EXPONENTS  0.5974000D-01 0.5974000D-01 0.2314000D+01 0.2314000D+01 0.2314000D+01
EXPONENTS  0.2314000D+01 0.2314000D+01 0.2314000D+01 0.6450000D+00 0.6450000D+00
EXPONENTS  0.6450000D+00 0.6450000D+00 0.6450000D+00 0.6450000D+00 0.2140000D+00
EXPONENTS  0.2140000D+00 0.2140000D+00 0.2140000D+00 0.2140000D+00 0.2140000D+00
EXPONENTS  0.1428000D+01 0.1428000D+01 0.1428000D+01 0.1428000D+01 0.1428000D+01
EXPONENTS  0.1428000D+01 0.1428000D+01 0.1428000D+01 0.1428000D+01 0.1428000D+01
EXPONENTS  0.5000000D+00 0.5000000D+00 0.5000000D+00 0.5000000D+00 0.5000000D+00
EXPONENTS  0.5000000D+00 0.5000000D+00 0.5000000D+00 0.5000000D+00 0.5000000D+00
EXPONENTS  0.4561000D+06 0.6833000D+05 0.1555000D+05 0.4405000D+04 0.1439000D+04
EXPONENTS  0.5204000D+03 0.2031000D+03 0.8396000D+02 0.3620000D+02 0.1583000D+02
EXPONENTS  0.6334000D+01 0.2694000D+01 0.4313000D+00 0.4561000D+06 0.6833000D+05
EXPONENTS  0.1555000D+05 0.4405000D+04 0.1439000D+04 0.5204000D+03 0.2031000D+03
EXPONENTS  0.8396000D+02 0.3620000D+02 0.1583000D+02 0.6334000D+01 0.2694000D+01
EXPONENTS  0.4313000D+00 0.4561000D+06 0.6833000D+05 0.1555000D+05 0.4405000D+04
EXPONENTS  0.1439000D+04 0.5204000D+03 0.2031000D+03 0.8396000D+02 0.3620000D+02
EXPONENTS  0.1583000D+02 0.6334000D+01 0.2694000D+01 0.4313000D+00 0.9768000D+00
EXPONENTS  0.1625000D+00 0.5910000D-01 0.6633000D+03 0.1568000D+03 0.4998000D+02
EXPONENTS  0.1842000D+02 0.7240000D+01 0.2922000D+01 0.3818000D+00 0.6633000D+03
EXPONENTS  0.1568000D+03 0.4998000D+02 0.1842000D+02 0.7240000D+01 0.2922000D+01
EXPONENTS  0.3818000D+00 0.6633000D+03 0.1568000D+03 0.4998000D+02 0.1842000D+02
EXPONENTS  0.7240000D+01 0.2922000D+01 0.3818000D+00 0.6633000D+03 0.1568000D+03
EXPONENTS  0.4998000D+02 0.1842000D+02 0.7240000D+01 0.2922000D+01 0.3818000D+00
EXPONENTS  0.6633000D+03 0.1568000D+03 0.4998000D+02 0.1842000D+02 0.7240000D+01
EXPONENTS  0.2922000D+01 0.3818000D+00 0.6633000D+03 0.1568000D+03 0.4998000D+02
EXPONENTS  0.1842000D+02 0.7240000D+01 0.2922000D+01 0.3818000D+00 0.1022000D+01
EXPONENTS  0.1022000D+01 0.1022000D+01 0.1301000D+00 0.1301000D+00 0.1301000D+00
EXPONENTS  0.4190000D-01 0.4190000D-01 0.4190000D-01 0.1046000D+01 0.1046000D+01
EXPONENTS  0.1046000D+01 0.1046000D+01 0.1046000D+01 0.1046000D+01 0.3440000D+00
EXPONENTS  0.3440000D+00 0.3440000D+00 0.3440000D+00 0.3440000D+00 0.3440000D+00
EXPONENTS  0.1350000D+00 0.1350000D+00 0.1350000D+00 0.1350000D+00 0.1350000D+00
EXPONENTS  0.1350000D+00 0.7060000D+00 0.7060000D+00 0.7060000D+00 0.7060000D+00
EXPONENTS  0.7060000D+00 0.7060000D+00 0.7060000D+00 0.7060000D+00 0.7060000D+00
EXPONENTS  0.7060000D+00 0.3120000D+00 0.3120000D+00 0.3120000D+00 0.3120000D+00
EXPONENTS  0.3120000D+00 0.3120000D+00 0.3120000D+00 0.3120000D+00 0.3120000D+00
EXPONENTS  0.3120000D+00 0.4561000D+06 0.6833000D+05 0.1555000D+05 0.4405000D+04
EXPONENTS  0.1439000D+04 0.5204000D+03 0.2031000D+03 0.8396000D+02 0.3620000D+02
EXPONENTS  0.1583000D+02 0.6334000D+01 0.2694000D+01 0.4313000D+00 0.4561000D+06
EXPONENTS  0.6833000D+05 0.1555000D+05 0.4405000D+04 0.1439000D+04 0.5204000D+03
EXPONENTS  0.2031000D+03 0.8396000D+02 0.3620000D+02 0.1583000D+02 0.6334000D+01
EXPONENTS  0.2694000D+01 0.4313000D+00 0.4561000D+06 0.6833000D+05 0.1555000D+05
EXPONENTS  0.4405000D+04 0.1439000D+04 0.5204000D+03 0.2031000D+03 0.8396000D+02
EXPONENTS  0.3620000D+02 0.1583000D+02 0.6334000D+01 0.2694000D+01 0.4313000D+00
EXPONENTS  0.9768000D+00 0.1625000D+00 0.5910000D-01 0.6633000D+03 0.1568000D+03
EXPONENTS  0.4998000D+02 0.1842000D+02 0.7240000D+01 0.2922000D+01 0.3818000D+00
EXPONENTS  0.6633000D+03 0.1568000D+03 0.4998000D+02 0.1842000D+02 0.7240000D+01
EXPONENTS  0.2922000D+01 0.3818000D+00 0.6633000D+03 0.1568000D+03 0.4998000D+02
EXPONENTS  0.1842000D+02 0.7240000D+01 0.2922000D+01 0.3818000D+00 0.6633000D+03
EXPONENTS  0.1568000D+03 0.4998000D+02 0.1842000D+02 0.7240000D+01 0.2922000D+01
EXPONENTS  0.3818000D+00 0.6633000D+03 0.1568000D+03 0.4998000D+02 0.1842000D+02
EXPONENTS  0.7240000D+01 0.2922000D+01 0.3818000D+00 0.6633000D+03 0.1568000D+03
EXPONENTS  0.4998000D+02 0.1842000D+02 0.7240000D+01 0.2922000D+01 0.3818000D+00
EXPONENTS  0.1022000D+01 0.1022000D+01 0.1022000D+01 0.1301000D+00 0.1301000D+00
EXPONENTS  0.1301000D+00 0.4190000D-01 0.4190000D-01 0.4190000D-01 0.1046000D+01
EXPONENTS  0.1046000D+01 0.1046000D+01 0.1046000D+01 0.1046000D+01 0.1046000D+01
EXPONENTS  0.3440000D+00 0.3440000D+00 0.3440000D+00 0.3440000D+00 0.3440000D+00
EXPONENTS  0.3440000D+00 0.1350000D+00 0.1350000D+00 0.1350000D+00 0.1350000D+00
EXPONENTS  0.1350000D+00 0.1350000D+00 0.7060000D+00 0.7060000D+00 0.7060000D+00
EXPONENTS  0.7060000D+00 0.7060000D+00 0.7060000D+00 0.7060000D+00 0.7060000D+00
EXPONENTS  0.7060000D+00 0.7060000D+00 0.3120000D+00 0.3120000D+00 0.3120000D+00
EXPONENTS  0.3120000D+00 0.3120000D+00 0.3120000D+00 0.3120000D+00 0.3120000D+00
EXPONENTS  0.3120000D+00 0.3120000D+00
MO    1     MO 0.0        OCC NO =    2.0000000  ORB. ENERGY = -101.255474
  0.20396109D-04  0.38015722D-04  0.64462069D-04  0.97566344D-04  0.12173431D-03
  0.10455354D-03  0.40140136D-04 -0.17954929D-06 -0.15108577D-04 -0.28336510D-04
 -0.48307538D-04 -0.75495279D-04 -0.10095157D-03 -0.10779274D-03 -0.65902370D-04
  0.43478381D-04  0.13166918D-04  0.10807601D-03  0.10330011D-03 -0.12493648D-04
 -0.12114636D-04 -0.81724616D-05 -0.89199974D-04 -0.86493970D-04 -0.58348321D-04
  0.14612336D-04  0.14169051D-04  0.95583578D-05 -0.86748369D-04 -0.72140631D-04
  0.11817608D-04 -0.49106868D-04 -0.37394642D-04  0.61257950D-05  0.34895046D-05
 -0.94594778D-05  0.15496184D-05 -0.11035941D-03  0.24211644D-03 -0.13175703D-03
  0.29899179D-03 -0.48979144D-04 -0.12586945D-03  0.90298698D-05 -0.53598109D-04
  0.44568239D-04 -0.79799903D-04  0.13072232D-04  0.33049036D-04  0.32843054D-04
 -0.43251919D-04  0.10408865D-04 -0.29390210D-04  0.48146636D-05  0.18065721D-04
 -0.12279862D-04 -0.12734490D-03 -0.36648401D-04 -0.96179830D-04  0.17767607D-03
 -0.29106506D-04  0.13301942D-03  0.20435862D-03  0.13905171D-03  0.77163352D-04
 -0.65080103D-05  0.62753791D-04  0.21622691D-04  0.10025007D-03 -0.67006964D-04
  0.10977083D-04 -0.80726037D-04 -0.12125441D-03 -0.75845156D-04 -0.60928273D-04
 -0.18542139D+00 -0.34692413D+00 -0.59940805D+00 -0.97171035D+00 -0.14756197D+01
 -0.20509378D+01 -0.24382692D+01 -0.21718227D+01 -0.10781578D+01 -0.17370850D+00
 -0.26668882D-02 -0.47657029D-03 -0.17808688D-04  0.33675550D-03  0.62901093D-03
  0.10916790D-02  0.17713513D-02  0.27418415D-02  0.39246969D-02  0.51229555D-02
  0.54593639D-02  0.40809853D-02  0.21542797D-03 -0.27681424D-02 -0.16445946D-02
  0.61659969D-05 -0.13130492D-03 -0.24506172D-03 -0.42589570D-03 -0.69025163D-03
 -0.10720689D-02 -0.15357696D-02 -0.20278406D-02 -0.21926972D-02 -0.17191031D-02
 -0.85542000D-04  0.14737060D-02  0.15255589D-02 -0.69033697D-03  0.92599509D-03
  0.21288294D-03  0.34440649D-04  0.23366706D-02  0.30779196D-02  0.33956663D-02
  0.28204912D-02  0.14980314D-02  0.38638599D-03 -0.39719167D-06  0.12329256D-02
  0.16240398D-02  0.17916963D-02  0.14882097D-02  0.79042434D-03  0.20387349D-03
 -0.20957502D-06 -0.20197310D-03 -0.26604390D-03 -0.29350875D-03 -0.24379275D-03
 -0.12948425D-03 -0.33397766D-04  0.34331768D-07 -0.19431328D-02 -0.25511909D-02
 -0.29047185D-02 -0.24595963D-02 -0.14089515D-02 -0.32048758D-03  0.15000582D-03
 -0.10861996D-02 -0.14261005D-02 -0.16237203D-02 -0.13748997D-02 -0.78759548D-03
 -0.17915065D-03  0.83852362D-04  0.17793483D-03  0.23361539D-03  0.26598830D-03
  0.22522797D-03  0.12901925D-03  0.29347404D-04 -0.13736200D-04 -0.96350542D-04
 -0.66361875D-04  0.10871264D-04 -0.12391389D-03 -0.59567888D-04  0.97579745D-05
 -0.66740845D-06 -0.27841930D-06  0.45607805D-07 -0.68064101D-04  0.19733129D-04
  0.48330971D-04 -0.83864194D-04  0.13737882D-04  0.96277287D-05  0.13667672D-04
 -0.49802261D-05 -0.86874455D-05 -0.36533290D-05  0.59857319D-06 -0.12480715D-05
  0.21693369D-04 -0.28650957D-05 -0.18828273D-04  0.32165677D-04 -0.52691176D-05
 -0.53742180D-05  0.24483866D-04 -0.27773298D-04  0.70259339D-05  0.49988908D-04
  0.12537641D-03 -0.20538144D-04 -0.12344050D-03 -0.42056518D-04 -0.53965749D-06
 -0.58387494D-04 -0.13246646D-04  0.74477640D-05 -0.30608174D-05 -0.13431250D-04
 -0.40408561D-04  0.66193244D-05  0.53171188D-04  0.18065268D-04  0.25631280D-05
  0.22422645D-04  0.58869783D+00  0.11014559D+01  0.19030718D+01  0.30851013D+01
  0.46849724D+01  0.65115608D+01  0.77413064D+01  0.68953603D+01  0.34230633D+01
  0.55151034D+00  0.84671528D-02  0.15130719D-02  0.56541136D-04 -0.92907320D-03
 -0.17353753D-02 -0.30118281D-02 -0.48869730D-02 -0.75644538D-02 -0.10827828D-01
 -0.14133698D-01 -0.15061814D-01 -0.11259012D-01 -0.59434322D-03  0.76370154D-02
  0.45372646D-02 -0.17011340D-04  0.34365079D-03  0.64137469D-03  0.11146528D-02
  0.18065242D-02  0.28058149D-02  0.40194109D-02  0.53072575D-02  0.57387197D-02
  0.44992306D-02  0.22388023D-03 -0.38569782D-02 -0.39926874D-02  0.18067475D-02
 -0.27668047D-02 -0.53462792D-03 -0.87830899D-04  0.34378550D-02  0.45284266D-02
  0.49959154D-02  0.41496820D-02  0.22039969D-02  0.56847510D-03 -0.58437308D-06
  0.53578658D-02  0.70575118D-02  0.77860888D-02  0.64672417D-02  0.34349092D-02
  0.88596328D-03 -0.91074013D-06 -0.87770711D-03 -0.11561372D-02 -0.12754902D-02
 -0.10594412D-02 -0.56269498D-03 -0.14513545D-03  0.14919431D-06 -0.28608345D-02
 -0.37560660D-02 -0.42765575D-02 -0.36212132D-02 -0.20743704D-02 -0.47184729D-03
  0.22085050D-03 -0.43525134D-02 -0.57145310D-02 -0.65064140D-02 -0.55093641D-02
 -0.31559759D-02 -0.71787502D-03  0.33600502D-03  0.71300874D-03  0.93612821D-03
  0.10658508D-02  0.90251871D-03  0.51699747D-03  0.11759899D-03 -0.55042798D-04
 -0.17895186D-03 -0.24086465D-03  0.39457789D-04 -0.13531173D-03 -0.20766339D-03
  0.34018358D-04 -0.35228159D-05 -0.34861281D-05  0.57107701D-06 -0.33473027D-04
  0.13423608D-03 -0.10076305D-03  0.19905000D-03 -0.32607127D-04 -0.79115839D-04
  0.30622058D-05 -0.29879183D-05 -0.74287560D-07  0.20345054D-04 -0.33329275D-05
  0.98087850D-06 -0.43837603D-06 -0.26913531D-04  0.27351907D-04 -0.62435993D-04
  0.10227921D-04  0.18269249D-04 -0.32585540D-04  0.50612353D-04  0.34681436D-04
  0.22073662D-03  0.45406393D-04 -0.74381747D-05 -0.12298000D-03 -0.19724345D-03
 -0.96606133D-04 -0.11571719D-03  0.81393401D-05 -0.16370303D-04 -0.11555402D-04
 -0.67659289D-04 -0.16635344D-04  0.27250387D-05  0.43241269D-04  0.65746254D-04
  0.31941167D-04  0.37336192D-04
MO    2     MO 0.0        OCC NO =    2.0000000  ORB. ENERGY = -101.255467
  0.39146959D-04  0.72964894D-04  0.12372429D-03  0.18726247D-03  0.23364889D-03
  0.20067323D-03  0.77042356D-04 -0.34461518D-06 -0.28998458D-04 -0.54387326D-04
 -0.92718468D-04 -0.14490092D-03 -0.19376014D-03 -0.20689065D-03 -0.12648889D-03
  0.83449686D-04  0.25271967D-04  0.20744123D-03  0.19827369D-03  0.10032896D-03
  0.97285343D-04  0.65628118D-04 -0.84464052D-04 -0.81901718D-04 -0.55250415D-04
  0.13836902D-04  0.13417140D-04  0.90511234D-05  0.58726489D-04  0.18701662D-04
 -0.30636110D-05  0.29232968D-04  0.14393826D-04 -0.23578324D-05  0.12048009D-04
 -0.14423046D-04  0.23627485D-05  0.29783997D-03 -0.31629618D-04 -0.26621036D-03
  0.21823598D-03 -0.35748981D-04 -0.78975249D-04 -0.84538294D-04 -0.36664591D-05
  0.88204753D-04 -0.82079960D-04  0.13445505D-04  0.30929866D-04 -0.32520247D-04
  0.10044585D-04  0.22475663D-04  0.10269674D-04 -0.16824821D-05  0.41851358D-05
  0.14800214D-03 -0.95054594D-05 -0.15889818D-04 -0.21316119D-03 -0.62606963D-04
  0.10256966D-04 -0.23084521D-03  0.91123342D-04  0.37412490D-04 -0.59537643D-05
 -0.10421646D-03  0.17833636D-04  0.86265944D-05  0.17647549D-03 -0.47296164D-05
  0.77389262D-06  0.13617389D-03 -0.48771291D-04 -0.26653676D-04 -0.13568116D-04
  0.58868006D+00  0.11014227D+01  0.19030143D+01  0.30850082D+01  0.46848311D+01
  0.65113643D+01  0.77410728D+01  0.68951522D+01  0.34229600D+01  0.55149370D+00
  0.84668974D-02  0.15130262D-02  0.56539430D-04 -0.89818991D-03 -0.16776898D-02
 -0.29117120D-02 -0.47245253D-02 -0.73130040D-02 -0.10467901D-01 -0.13663880D-01
 -0.14561145D-01 -0.10884751D-01 -0.57458668D-03  0.73831536D-02  0.43864415D-02
 -0.16445867D-04  0.32751219D-03  0.61125432D-03  0.10623062D-02  0.17216858D-02
  0.26740477D-02  0.38306505D-02  0.50580170D-02  0.54692168D-02  0.42879368D-02
  0.21336632D-03 -0.36758460D-02 -0.38051820D-02  0.17218987D-02 -0.27285836D-02
 -0.50350409D-03 -0.83090079D-04 -0.60103699D-02 -0.79170060D-02 -0.87343123D-02
 -0.72548504D-02 -0.38532273D-02 -0.99385971D-03  0.10216540D-05 -0.86161186D-03
 -0.11349362D-02 -0.12521005D-02 -0.10400134D-02 -0.55237637D-03 -0.14247398D-03
  0.14645841D-06  0.14114637D-03  0.18592144D-03  0.20511490D-03  0.17037150D-03
  0.90488445D-04  0.23339610D-04 -0.23992325D-07  0.48788354D-02  0.64055532D-02
  0.72931935D-02  0.61755767D-02  0.35376081D-02  0.80468311D-03 -0.37663598D-03
  0.71807341D-03  0.94277775D-03  0.10734218D-02  0.90892952D-03  0.52066982D-03
  0.11843432D-03 -0.55433780D-04 -0.11762575D-03 -0.15443399D-03 -0.17583446D-03
 -0.14888940D-03 -0.85289578D-04 -0.19400420D-04  0.90804643D-05  0.28620372D-03
  0.58790001D-04 -0.96309340D-05  0.21047776D-03  0.27504411D-04 -0.45053625D-05
  0.50301130D-05  0.23868075D-05 -0.39098820D-06  0.17784128D-03 -0.81724863D-04
 -0.96116422D-04 -0.15646284D-05  0.25712840D-06 -0.48450526D-05  0.14548544D-04
 -0.83512931D-05 -0.61972510D-05  0.21393377D-04 -0.35044598D-05  0.72518517D-06
 -0.39966727D-04  0.18329864D-04  0.21636863D-04 -0.15594284D-04  0.25544079D-05
  0.11133436D-05 -0.13046145D-03  0.44602920D-05 -0.49686245D-05  0.17317257D-03
 -0.42286666D-04  0.69259355D-05  0.21821178D-03  0.28905790D-04  0.79799380D-05
  0.15163215D-04  0.37538434D-04 -0.13859654D-05  0.15390618D-05 -0.47695527D-04
  0.13111820D-04 -0.21475742D-05 -0.64919774D-04 -0.89539238D-05 -0.24696113D-05
 -0.57988295D-05  0.18536499D+00  0.34681861D+00  0.59922573D+00  0.97141479D+00
  0.14751709D+01  0.20503140D+01  0.24375276D+01  0.21711621D+01  0.10778299D+01
  0.17365566D+00  0.26660770D-02  0.47642533D-03  0.17803271D-04 -0.23869643D-03
 -0.44585065D-03 -0.77379543D-03 -0.12555555D-02 -0.19434508D-02 -0.27818733D-02
 -0.36312136D-02 -0.38696640D-02 -0.28926524D-02 -0.15269798D-03  0.19620933D-02
  0.11657088D-02 -0.43705341D-05  0.80061497D-04  0.14942325D-03  0.25968445D-03
  0.42087210D-03  0.65368027D-03  0.93641586D-03  0.12364499D-02  0.13369691D-02
  0.10482011D-02  0.52158140D-04 -0.89857336D-03 -0.93019001D-03  0.42092414D-03
 -0.80464320D-03 -0.11405094D-03 -0.19386702D-04  0.16044880D-04  0.21134708D-04
  0.23316535D-04  0.19367062D-04  0.10286317D-04  0.26531412D-05 -0.27273390D-08
  0.15948978D-02  0.21008384D-02  0.23177169D-02  0.19251303D-02  0.10224835D-02
  0.26372831D-03 -0.27110374D-06 -0.26127235D-03 -0.34415432D-03 -0.37968284D-03
 -0.31537024D-03 -0.16750079D-03 -0.43203341D-04  0.44411566D-07  0.56285258D-04
  0.73898417D-04  0.84138785D-04  0.71245267D-04  0.40812032D-04  0.92833214D-05
 -0.43451053D-05 -0.12790463D-02 -0.16792940D-02 -0.19119998D-02 -0.16190029D-02
 -0.92742718D-03 -0.21095751D-03  0.98739724D-04  0.20952894D-03  0.27509614D-03
  0.31321720D-03  0.26521946D-03  0.15192792D-03  0.34558330D-04 -0.16175200D-04
 -0.85714177D-05 -0.86018650D-04  0.14091375D-04  0.25230847D-04 -0.28748258D-04
  0.47094788D-05 -0.18671281D-05 -0.17930295D-05  0.29372303D-06 -0.44671904D-04
  0.57766583D-04 -0.13094679D-04 -0.62679820D-05  0.10266426D-05 -0.23856644D-04
 -0.27164880D-05  0.12805855D-04 -0.10089367D-04  0.24793806D-04 -0.40615998D-05
 -0.77080006D-05  0.12503350D-04 -0.90104991D-05 -0.34928506D-05  0.51255100D-05
 -0.83957993D-06  0.18576199D-05 -0.31584152D-04  0.50881150D-04  0.37826192D-05
  0.82777013D-04 -0.13363270D-03  0.21890803D-04  0.11975443D-04 -0.19010752D-04
 -0.33238661D-04 -0.23837037D-04  0.96470418D-05 -0.11895469D-04  0.64640288D-06
 -0.16675434D-04  0.40070927D-04 -0.65641303D-05 -0.12265691D-04 -0.43845199D-05
  0.46249217D-05  0.14847956D-05
MO    3     MO 0.0        OCC NO =    2.0000000  ORB. ENERGY =  -19.112480
  0.49865203D+00  0.92942322D+00  0.15759938D+01  0.23853401D+01  0.29762080D+01
  0.25561657D+01  0.98136172D+00 -0.43896912D-02 -0.58812888D-03 -0.11030503D-02
 -0.18804589D-02 -0.29387913D-02 -0.39297239D-02 -0.41960289D-02 -0.25653698D-02
  0.16924752D-02  0.50267498D-01 -0.20356641D-02 -0.80620172D-03  0.48112885D-02
  0.46653314D-02  0.31472050D-02 -0.67148101D-02 -0.65111070D-02 -0.43923543D-02
  0.11006030D-02  0.10672147D-02  0.71993675D-03 -0.62793289D-03  0.87633872D-03
 -0.14365565D-03 -0.50099324D-03  0.69926178D-03 -0.11453405D-03 -0.32379631D-04
  0.45192644D-04 -0.74035766D-05  0.12212446D-03 -0.19808492D-03  0.75960453D-04
  0.91658328D-03 -0.15050113D-03  0.92274159D-04 -0.36931642D-03 -0.14769692D-03
  0.51701334D-03 -0.56756759D-03  0.93003215D-04  0.22379190D-03 -0.11752164D-03
 -0.37153276D-04  0.15467491D-03 -0.20962529D-03  0.34334577D-04  0.64574516D-04
  0.14108032D-03  0.91703667D-05  0.45089060D-04 -0.60531861D-03  0.23198977D-03
 -0.37796864D-04  0.18207765D-03 -0.25950087D-03 -0.97470316D-04  0.26478094D-03
 -0.26062254D-03  0.10791333D-03  0.34548285D-04  0.61230982D-03 -0.13041183D-03
  0.21344425D-04  0.16955780D-03 -0.19332815D-03 -0.12498928D-03 -0.14904662D-03
  0.78523222D-05  0.14691725D-04  0.25384046D-04  0.41150499D-04  0.62490316D-04
  0.86854190D-04  0.10325710D-03  0.91973485D-04  0.45658392D-04  0.73562985D-05
  0.11293878D-06  0.20182048D-07  0.75417166D-09  0.25201012D-05  0.47071872D-05
  0.81695517D-05  0.13255862D-04  0.20518501D-04  0.29370369D-04  0.38337506D-04
  0.40855010D-04  0.30539950D-04  0.16121497D-05 -0.20715323D-04 -0.12307282D-04
  0.46143081D-07 -0.12735517D-04 -0.23769008D-04 -0.41308444D-04 -0.66948835D-04
 -0.10398202D-03 -0.14895725D-03 -0.19668417D-03 -0.21267393D-03 -0.16673912D-03
 -0.82968832D-05  0.14293758D-03  0.14796689D-03 -0.66957112D-04 -0.45934265D-03
  0.98943324D-03  0.20968209D-03 -0.16621273D-01 -0.21893947D-01 -0.24154152D-01
 -0.20062800D-01 -0.10655840D-01 -0.27484521D-02  0.28253153D-05 -0.19961899D-04
 -0.26294302D-04 -0.29008774D-04 -0.24095122D-04 -0.12797504D-04 -0.33008497D-05
  0.33931613D-08  0.32880684D-05  0.43311240D-05  0.47782444D-05  0.39688812D-05
  0.21079692D-05  0.54370675D-06 -0.55891206D-09  0.14596894D-01  0.19164651D-01
  0.21820365D-01  0.18476589D-01  0.10584102D-01  0.24075159D-02 -0.11268499D-02
  0.12952990D-04  0.17006326D-04  0.19362953D-04  0.16395754D-04  0.93921190D-05
  0.21363812D-05 -0.99994399D-06 -0.21371678D-05 -0.28059446D-05 -0.31947744D-05
 -0.27052037D-05 -0.15496449D-05 -0.35249044D-06  0.16498493D-06  0.11801547D-02
  0.47410259D-05 -0.77801432D-06 -0.37595180D-03  0.81164196D-05 -0.13302820D-05
 -0.10302381D-04 -0.24830157D-05  0.40679817D-06 -0.10465768D-03  0.48647075D-04
  0.56010607D-04 -0.15546323D-04  0.25483778D-05  0.24773856D-05  0.47359881D-03
 -0.23440257D-03 -0.23919624D-03  0.77416233D-05 -0.12694304D-05 -0.16131519D-05
  0.36801548D-04 -0.19072445D-04 -0.17729103D-04 -0.61160566D-05  0.10024330D-05
  0.45224903D-06 -0.24545807D-03  0.17264982D-05 -0.13595872D-06  0.38975199D-03
 -0.60573578D-05  0.99441646D-06  0.34662222D-03  0.87786326D-06 -0.58654030D-06
 -0.14516756D-04 -0.55197500D-04  0.12050841D-05 -0.42391773D-06  0.81028595D-04
 -0.61269927D-05  0.10034247D-05  0.84563904D-04  0.25117404D-05  0.26832846D-06
  0.11892535D-05  0.78583795D-05  0.14703058D-04  0.25403627D-04  0.41182243D-04
  0.62538521D-04  0.86921190D-04  0.10333676D-03  0.92044434D-04  0.45693613D-04
  0.73619732D-05  0.11302590D-06  0.20197617D-07  0.75475343D-09  0.25096685D-05
  0.46877003D-05  0.81357313D-05  0.13200986D-04  0.20433558D-04  0.29248782D-04
  0.38178796D-04  0.40685878D-04  0.30413520D-04  0.16054757D-05 -0.20629566D-04
 -0.12256332D-04  0.45952057D-07 -0.12730008D-04 -0.23758726D-04 -0.41290575D-04
 -0.66919875D-04 -0.10393704D-03 -0.14889281D-03 -0.19659909D-03 -0.21258193D-03
 -0.16666699D-03 -0.82932943D-05  0.14287575D-03  0.14790289D-03 -0.66928149D-04
 -0.45936973D-03  0.98948419D-03  0.20969118D-03  0.55598705D-02  0.73235972D-02
  0.80796434D-02  0.67110725D-02  0.35644137D-02  0.91936626D-03 -0.94507726D-06
  0.15458839D-01  0.20362761D-01  0.22464896D-01  0.18659678D-01  0.99106083D-02
  0.25562350D-02 -0.26277227D-05 -0.25324527D-02 -0.33358085D-02 -0.36801783D-02
 -0.30568111D-02 -0.16235466D-02 -0.41876003D-03  0.43047108D-06 -0.48783534D-02
 -0.64049204D-02 -0.72924731D-02 -0.61749667D-02 -0.35372587D-02 -0.80460363D-03
  0.37659878D-03 -0.13577602D-01 -0.17826396D-01 -0.20296663D-01 -0.17186380D-01
 -0.98450204D-02 -0.22394006D-02  0.10481627D-02  0.22242713D-02  0.29203052D-02
  0.33249823D-02  0.28154584D-02  0.16128030D-02  0.36685673D-03 -0.17170914D-03
 -0.39792731D-03 -0.10964771D-02  0.17962324D-03  0.11757143D-03  0.35250759D-03
 -0.57750400D-04  0.58062042D-05  0.87581320D-05 -0.14345916D-05  0.26476658D-04
 -0.79053018D-04  0.52576360D-04 -0.10703522D-03  0.17537272D-04  0.44315499D-04
 -0.15315664D-03  0.37598189D-03 -0.22282525D-03  0.44511368D-03 -0.72920297D-04
 -0.20160400D-03 -0.14844465D-04  0.31224357D-04 -0.16379892D-04  0.29925110D-04
 -0.49029325D-05 -0.16029055D-04 -0.10759048D-03  0.14826271D-03  0.50541290D-04
  0.42419327D-03 -0.16144295D-03  0.26445423D-04 -0.10142185D-03 -0.28334519D-03
 -0.17806929D-03 -0.17694870D-03 -0.22275984D-04  0.32547173D-04  0.12276361D-04
  0.94205431D-04 -0.28636290D-04  0.46913223D-05 -0.27377479D-04 -0.69005229D-04
 -0.41520406D-04 -0.40938396D-04
MO    4     MO 0.0        OCC NO =    2.0000000  ORB. ENERGY =   -9.468314
  0.83015806D-04  0.15473078D-03  0.26237214D-03  0.39711245D-03  0.49548039D-03
  0.42555158D-03  0.16337752D-03 -0.73079769D-06 -0.62647153D-04 -0.11749629D-03
 -0.20030541D-03 -0.31303837D-03 -0.41859195D-03 -0.44695861D-03 -0.27326173D-03
  0.18028149D-03 -0.26867137D-04  0.98060211D-04  0.34046663D-04 -0.12435319D-04
 -0.12058077D-04 -0.81343073D-05 -0.11139310D-03 -0.10801383D-03 -0.72865495D-04
  0.18246291D-04  0.17692764D-04  0.11935434D-04 -0.97233475D-04 -0.20595624D-03
  0.33737912D-04 -0.34852706D-04 -0.26459404D-04  0.43392072D-05 -0.15525926D-05
 -0.72763205D-05  0.11920377D-05 -0.18304407D-03  0.57018201D-03 -0.38713794D-03
  0.80413312D-03 -0.13172379D-03 -0.32227038D-03  0.74550734D-05 -0.77573347D-04
  0.70118273D-04 -0.12825220D-03  0.21007041D-04  0.49711500D-04  0.67440267D-06
 -0.17939580D-04  0.17265178D-04 -0.51957312D-04  0.85112104D-05  0.11849460D-04
  0.67051891D-04 -0.10495285D-03 -0.19857156D-04 -0.22979035D-03  0.20609426D-03
 -0.33766238D-04  0.28634678D-04  0.10876429D-03  0.93337708D-04  0.86981610D-04
 -0.62415218D-04  0.81537466D-04  0.24302382D-04  0.22906347D-03 -0.10892605D-03
  0.17843502D-04 -0.41817812D-04 -0.13568635D-03 -0.90750647D-04 -0.91190385D-04
 -0.90884384D-05 -0.17004503D-04 -0.29380014D-04 -0.47628430D-04 -0.72327570D-04
 -0.10052682D-03 -0.11951188D-03 -0.10645199D-03 -0.52845957D-04 -0.85143304D-05
 -0.13071765D-06 -0.23359116D-07 -0.87289371D-09 -0.60151604D-04 -0.11235456D-03
 -0.19499679D-03 -0.31640054D-03 -0.48975046D-03 -0.70103329D-03 -0.91506742D-03
 -0.97515703D-03 -0.72894968D-03 -0.38479959D-04  0.49444837D-03  0.29375914D-03
 -0.11013765D-05 -0.79037914D-05 -0.14751288D-04 -0.25636440D-04 -0.41549127D-04
 -0.64532300D-04 -0.92444382D-04 -0.12206419D-03 -0.13198760D-03 -0.10347999D-03
 -0.51491301D-05  0.88708514D-04  0.91829757D-04 -0.41554264D-04  0.36997051D-04
  0.43533472D-04  0.36784422D-04 -0.15938375D-03 -0.20994417D-03 -0.23161760D-03
 -0.19238504D-03 -0.10218037D-03 -0.26355297D-04  0.27092350D-07  0.10311964D-02
  0.13583170D-02  0.14985419D-02  0.12447113D-02  0.66109641D-03  0.17051605D-03
 -0.17528470D-06 -0.16893404D-03 -0.22252405D-03 -0.24549616D-03 -0.20391278D-03
 -0.10830303D-03 -0.27934510D-04  0.28715727D-07  0.14898727D-03  0.19560936D-03
  0.22271565D-03  0.18858647D-03  0.10802959D-03  0.24572984D-04 -0.11501509D-04
 -0.90508455D-03 -0.11883097D-02 -0.13529780D-02 -0.11456462D-02 -0.65627024D-03
 -0.14927871D-03  0.69870653D-04  0.14827382D-03  0.19467266D-03  0.22164914D-03
  0.18768339D-03  0.10751227D-03  0.24455312D-04 -0.11446432D-04 -0.13538785D-04
 -0.67862049D-04  0.11117724D-04 -0.45667593D-04 -0.20089086D-04  0.32903819D-05
 -0.22980752D-05 -0.80341865D-06  0.13151590D-06  0.17301939D-04 -0.12573049D-04
 -0.47288906D-05 -0.13584577D-04  0.22253587D-05  0.26421175D-05  0.19154388D-04
 -0.12603272D-04 -0.65511167D-05 -0.43036559D-04  0.70505989D-05  0.20371859D-05
  0.56834287D-05  0.14846208D-05 -0.71680495D-05  0.13272361D-04 -0.21737894D-05
 -0.29127650D-05 -0.19479562D-04 -0.22411233D-04  0.69603793D-05  0.84544259D-04
  0.10861208D-03 -0.17792004D-04 -0.26105573D-04 -0.41378384D-04 -0.30891343D-05
 -0.37253259D-04 -0.10253564D-05  0.15066836D-06 -0.18670931D-05 -0.12574270D-04
 -0.11229120D-04  0.18390122D-05  0.15650339D-04  0.10777115D-04  0.37622669D-05
  0.95023547D-05 -0.30238518D-03 -0.56576383D-03 -0.97751456D-03 -0.15846651D-02
 -0.24064404D-02 -0.33446692D-02 -0.39763291D-02 -0.35418081D-02 -0.17582596D-02
 -0.28328380D-03 -0.43491608D-05 -0.77719077D-06 -0.29042406D-07 -0.17294560D+00
 -0.32303754D+00 -0.56064732D+00 -0.90970276D+00 -0.14081118D+01 -0.20155842D+01
 -0.26309669D+01 -0.28037343D+01 -0.20958483D+01 -0.11063611D+00  0.14216191D+01
  0.84460506D+00 -0.31666358D-02  0.40067750D-03  0.74780682D-03  0.12996224D-02
  0.21063056D-02  0.32714224D-02  0.46864070D-02  0.61879638D-02  0.66910244D-02
  0.52458499D-02  0.26103176D-03 -0.44970197D-02 -0.46552490D-02  0.21065660D-02
  0.57708089D-01 -0.15310243D-03 -0.64872193D-04  0.29530778D-01  0.38898662D-01
  0.42914337D-01  0.35645289D-01  0.18932079D-01  0.48831355D-02 -0.50196972D-05
  0.72058203D-01  0.94916825D-01  0.10471549D+00  0.86978255D-01  0.46196264D-01
  0.11915364D-01 -0.12248589D-04 -0.11805448D-01 -0.15550424D-01 -0.17155761D-01
 -0.14249832D-01 -0.75684317D-02 -0.19521193D-02  0.20067123D-05 -0.11020232D-02
 -0.14468757D-02 -0.16473744D-02 -0.13949290D-02 -0.79906903D-03 -0.18176048D-03
  0.85073908D-04 -0.18630474D-02 -0.24460446D-02 -0.27850017D-02 -0.23582251D-02
 -0.13508821D-02 -0.30727882D-03  0.14382340D-03  0.30529436D-03  0.40082911D-03
  0.45637343D-03  0.38643828D-03  0.22136672D-03  0.50353249D-04 -0.23568092D-04