 Molden2AIM, Version 4.0.0 (06/02/2016)           Time: Thu Jun 28 21:09:15 2018
GAUSSIAN             34 MOL ORBITALS    525 PRIMITIVES        3 NUCLEI
  Se   1    (CENTRE  1)  -0.42362180  0.00000000 -0.29131829  CHARGE = 34.0
  Cl   2    (CENTRE  2)  -0.08610348  0.00000000  3.79239876  CHARGE = 17.0
  Cl   3    (CENTRE  3)   3.51054044  0.00000000 -1.43734270  CHARGE = 17.0
CENTRE ASSIGNMENTS    1  1  1  1  1  1  1  1  1  1  1  1  1  1  1  1  1  1  1  1
CENTRE ASSIGNMENTS    1  1  1  1  1  1  1  1  1  1  1  1  1  1  1  1  1  1  1  1
CENTRE ASSIGNMENTS    1  1  1  1  1  1  1  1  1  1  1  1  1  1  1  1  1  1  1  1
CENTRE ASSIGNMENTS    1  1  1  1  1  1  1  1  1  1  1  1  1  1  1  1  1  1  1  1
CENTRE ASSIGNMENTS    1  1  1  1  1  1  1  1  1  1  1  1  1  1  1  1  1  1  1  1
CENTRE ASSIGNMENTS    1  1  1  1  1  1  1  1  1  1  1  1  1  1  1  1  1  1  1  1
CENTRE ASSIGNMENTS    1  1  1  1  1  1  1  1  1  1  1  1  1  1  1  1  1  1  1  1
CENTRE ASSIGNMENTS    1  1  1  1  1  1  1  1  1  1  1  1  1  1  1  1  1  1  1  1
CENTRE ASSIGNMENTS    1  1  1  1  1  1  1  1  1  1  1  1  1  1  1  1  1  1  1  1
CENTRE ASSIGNMENTS    1  1  1  1  1  1  1  1  1  1  1  1  1  1  1  1  1  1  1  1
CENTRE ASSIGNMENTS    1  1  1  1  1  1  1  1  1  1  1  1  1  1  1  1  1  1  1  1
CENTRE ASSIGNMENTS    1  1  1  1  1  1  1  1  1  1  1  1  1  1  1  1  1  1  1  1
CENTRE ASSIGNMENTS    1  1  1  1  1  1  1  1  1  1  1  1  1  1  1  1  1  1  1  1
CENTRE ASSIGNMENTS    1  1  1  2  2  2  2  2  2  2  2  2  2  2  2  2  2  2  2  2
CENTRE ASSIGNMENTS    2  2  2  2  2  2  2  2  2  2  2  2  2  2  2  2  2  2  2  2
CENTRE ASSIGNMENTS    2  2  2  2  2  2  2  2  2  2  2  2  2  2  2  2  2  2  2  2
CENTRE ASSIGNMENTS    2  2  2  2  2  2  2  2  2  2  2  2  2  2  2  2  2  2  2  2
CENTRE ASSIGNMENTS    2  2  2  2  2  2  2  2  2  2  2  2  2  2  2  2  2  2  2  2
CENTRE ASSIGNMENTS    2  2  2  2  2  2  2  2  2  2  2  2  2  2  2  2  2  2  2  2
CENTRE ASSIGNMENTS    2  2  2  2  2  2  2  2  2  2  2  2  2  2  3  3  3  3  3  3
CENTRE ASSIGNMENTS    3  3  3  3  3  3  3  3  3  3  3  3  3  3  3  3  3  3  3  3
CENTRE ASSIGNMENTS    3  3  3  3  3  3  3  3  3  3  3  3  3  3  3  3  3  3  3  3
CENTRE ASSIGNMENTS    3  3  3  3  3  3  3  3  3  3  3  3  3  3  3  3  3  3  3  3
CENTRE ASSIGNMENTS    3  3  3  3  3  3  3  3  3  3  3  3  3  3  3  3  3  3  3  3
CENTRE ASSIGNMENTS    3  3  3  3  3  3  3  3  3  3  3  3  3  3  3  3  3  3  3  3
CENTRE ASSIGNMENTS    3  3  3  3  3  3  3  3  3  3  3  3  3  3  3  3  3  3  3  3
CENTRE ASSIGNMENTS    3  3  3  3  3
TYPE ASSIGNMENTS      1  1  1  1  1  1  1  1  1  1  1  1  1  1  1  1  1  1  1  1
TYPE ASSIGNMENTS      1  1  1  1  1  1  1  1  1  1  1  1  1  1  1  1  1  1  1  1
TYPE ASSIGNMENTS      1  1  1  1  1  1  1  1  1  1  1  1  1  1  1  1  1  1  1  1
TYPE ASSIGNMENTS      1  1  1  1  1  1  1  1  1  1  1  1  1  1  1  2  2  2  2  2
TYPE ASSIGNMENTS      2  2  2  2  2  2  3  3  3  3  3  3  3  3  3  3  3  4  4  4
TYPE ASSIGNMENTS      4  4  4  4  4  4  4  4  2  2  2  2  2  2  2  2  2  2  2  3
TYPE ASSIGNMENTS      3  3  3  3  3  3  3  3  3  3  4  4  4  4  4  4  4  4  4  4
TYPE ASSIGNMENTS      4  2  2  2  2  2  2  2  2  2  2  2  3  3  3  3  3  3  3  3
TYPE ASSIGNMENTS      3  3  3  4  4  4  4  4  4  4  4  4  4  4  2  3  4  2  3  4
TYPE ASSIGNMENTS      2  3  4  5  5  5  5  5  5  5  6  6  6  6  6  6  6  7  7  7
TYPE ASSIGNMENTS      7  7  7  7  8  8  8  8  8  8  8  9  9  9  9  9  9  9 10 10
TYPE ASSIGNMENTS     10 10 10 10 10  5  6  7  8  9 10  5  6  7  8  9 10  5  6  7
TYPE ASSIGNMENTS      8  9 10 11 12 13 17 14 15 18 19 16 20 11 12 13 17 14 15 18
TYPE ASSIGNMENTS     19 16 20  1  1  1  1  1  1  1  1  1  1  1  1  1  1  1  1  1
TYPE ASSIGNMENTS      1  1  1  1  1  1  1  1  1  1  1  1  1  1  1  1  1  1  1  1
TYPE ASSIGNMENTS      1  1  1  1  1  2  2  2  2  2  2  2  3  3  3  3  3  3  3  4
TYPE ASSIGNMENTS      4  4  4  4  4  4  2  2  2  2  2  2  2  3  3  3  3  3  3  3
TYPE ASSIGNMENTS      4  4  4  4  4  4  4  2  3  4  2  3  4  2  3  4  5  6  7  8
TYPE ASSIGNMENTS      9 10  5  6  7  8  9 10  5  6  7  8  9 10 11 12 13 17 14 15
TYPE ASSIGNMENTS     18 19 16 20 11 12 13 17 14 15 18 19 16 20  1  1  1  1  1  1
TYPE ASSIGNMENTS      1  1  1  1  1  1  1  1  1  1  1  1  1  1  1  1  1  1  1  1
TYPE ASSIGNMENTS      1  1  1  1  1  1  1  1  1  1  1  1  1  1  1  1  2  2  2  2
TYPE ASSIGNMENTS      2  2  2  3  3  3  3  3  3  3  4  4  4  4  4  4  4  2  2  2
TYPE ASSIGNMENTS      2  2  2  2  3  3  3  3  3  3  3  4  4  4  4  4  4  4  2  3
TYPE ASSIGNMENTS      4  2  3  4  2  3  4  5  6  7  8  9 10  5  6  7  8  9 10  5
TYPE ASSIGNMENTS      6  7  8  9 10 11 12 13 17 14 15 18 19 16 20 11 12 13 17 14
TYPE ASSIGNMENTS     15 18 19 16 20
EXPONENTS  0.9563600D+07 0.1432100D+07 0.3259100D+06 0.9231200D+05 0.3011600D+05
EXPONENTS  0.1087200D+05 0.4240100D+04 0.1758400D+04 0.7665900D+03 0.3484300D+03
EXPONENTS  0.1640300D+03 0.7914200D+02 0.3552400D+02 0.1730500D+02 0.8378400D+01
EXPONENTS  0.3740500D+01 0.1689000D+01 0.2552000D+00 0.9563600D+07 0.1432100D+07
EXPONENTS  0.3259100D+06 0.9231200D+05 0.3011600D+05 0.1087200D+05 0.4240100D+04
EXPONENTS  0.1758400D+04 0.7665900D+03 0.3484300D+03 0.1640300D+03 0.7914200D+02
EXPONENTS  0.3552400D+02 0.1730500D+02 0.8378400D+01 0.3740500D+01 0.1689000D+01
EXPONENTS  0.2552000D+00 0.9563600D+07 0.1432100D+07 0.3259100D+06 0.9231200D+05
EXPONENTS  0.3011600D+05 0.1087200D+05 0.4240100D+04 0.1758400D+04 0.7665900D+03
EXPONENTS  0.3484300D+03 0.1640300D+03 0.7914200D+02 0.3552400D+02 0.1730500D+02
EXPONENTS  0.8378400D+01 0.3740500D+01 0.1689000D+01 0.2552000D+00 0.9563600D+07
EXPONENTS  0.1432100D+07 0.3259100D+06 0.9231200D+05 0.3011600D+05 0.1087200D+05
EXPONENTS  0.4240100D+04 0.1758400D+04 0.7665900D+03 0.3484300D+03 0.1640300D+03
EXPONENTS  0.7914200D+02 0.3552400D+02 0.1730500D+02 0.8378400D+01 0.3740500D+01
EXPONENTS  0.1689000D+01 0.2552000D+00 0.5092700D+00 0.1065100D+00 0.3920100D-01
EXPONENTS  0.8004300D+04 0.1896900D+04 0.6147100D+03 0.2335000D+03 0.9785600D+02
EXPONENTS  0.4351400D+02 0.2006300D+02 0.9112700D+01 0.4106300D+01 0.1794900D+01
EXPONENTS  0.2461500D+00 0.8004300D+04 0.1896900D+04 0.6147100D+03 0.2335000D+03
EXPONENTS  0.9785600D+02 0.4351400D+02 0.2006300D+02 0.9112700D+01 0.4106300D+01
EXPONENTS  0.1794900D+01 0.2461500D+00 0.8004300D+04 0.1896900D+04 0.6147100D+03
EXPONENTS  0.2335000D+03 0.9785600D+02 0.4351400D+02 0.2006300D+02 0.9112700D+01
EXPONENTS  0.4106300D+01 0.1794900D+01 0.2461500D+00 0.8004300D+04 0.1896900D+04
EXPONENTS  0.6147100D+03 0.2335000D+03 0.9785600D+02 0.4351400D+02 0.2006300D+02
EXPONENTS  0.9112700D+01 0.4106300D+01 0.1794900D+01 0.2461500D+00 0.8004300D+04
EXPONENTS  0.1896900D+04 0.6147100D+03 0.2335000D+03 0.9785600D+02 0.4351400D+02
EXPONENTS  0.2006300D+02 0.9112700D+01 0.4106300D+01 0.1794900D+01 0.2461500D+00
EXPONENTS  0.8004300D+04 0.1896900D+04 0.6147100D+03 0.2335000D+03 0.9785600D+02
EXPONENTS  0.4351400D+02 0.2006300D+02 0.9112700D+01 0.4106300D+01 0.1794900D+01
EXPONENTS  0.2461500D+00 0.8004300D+04 0.1896900D+04 0.6147100D+03 0.2335000D+03
EXPONENTS  0.9785600D+02 0.4351400D+02 0.2006300D+02 0.9112700D+01 0.4106300D+01
EXPONENTS  0.1794900D+01 0.2461500D+00 0.8004300D+04 0.1896900D+04 0.6147100D+03
EXPONENTS  0.2335000D+03 0.9785600D+02 0.4351400D+02 0.2006300D+02 0.9112700D+01
EXPONENTS  0.4106300D+01 0.1794900D+01 0.2461500D+00 0.8004300D+04 0.1896900D+04
EXPONENTS  0.6147100D+03 0.2335000D+03 0.9785600D+02 0.4351400D+02 0.2006300D+02
EXPONENTS  0.9112700D+01 0.4106300D+01 0.1794900D+01 0.2461500D+00 0.6243200D+00
EXPONENTS  0.6243200D+00 0.6243200D+00 0.8891700D-01 0.8891700D-01 0.8891700D-01
EXPONENTS  0.3025100D-01 0.3025100D-01 0.3025100D-01 0.3618500D+03 0.1085500D+03
EXPONENTS  0.4143300D+02 0.1757900D+02 0.7862700D+01 0.3518000D+01 0.1534800D+01
EXPONENTS  0.3618500D+03 0.1085500D+03 0.4143300D+02 0.1757900D+02 0.7862700D+01
EXPONENTS  0.3518000D+01 0.1534800D+01 0.3618500D+03 0.1085500D+03 0.4143300D+02
EXPONENTS  0.1757900D+02 0.7862700D+01 0.3518000D+01 0.1534800D+01 0.3618500D+03
EXPONENTS  0.1085500D+03 0.4143300D+02 0.1757900D+02 0.7862700D+01 0.3518000D+01
EXPONENTS  0.1534800D+01 0.3618500D+03 0.1085500D+03 0.4143300D+02 0.1757900D+02
EXPONENTS  0.7862700D+01 0.3518000D+01 0.1534800D+01 0.3618500D+03 0.1085500D+03
EXPONENTS  0.4143300D+02 0.1757900D+02 0.7862700D+01 0.3518000D+01 0.1534800D+01
EXPONENTS  0.6081300D+00 0.6081300D+00 0.6081300D+00 0.6081300D+00 0.6081300D+00
EXPONENTS  0.6081300D+00 0.2220000D+00 0.2220000D+00 0.2220000D+00 0.2220000D+00
EXPONENTS  0.2220000D+00 0.2220000D+00 0.8370000D-01 0.8370000D-01 0.8370000D-01
EXPONENTS  0.8370000D-01 0.8370000D-01 0.8370000D-01 0.4620000D+00 0.4620000D+00
EXPONENTS  0.4620000D+00 0.4620000D+00 0.4620000D+00 0.4620000D+00 0.4620000D+00
EXPONENTS  0.4620000D+00 0.4620000D+00 0.4620000D+00 0.1880000D+00 0.1880000D+00
EXPONENTS  0.1880000D+00 0.1880000D+00 0.1880000D+00 0.1880000D+00 0.1880000D+00
EXPONENTS  0.1880000D+00 0.1880000D+00 0.1880000D+00 0.4561000D+06 0.6833000D+05
EXPONENTS  0.1555000D+05 0.4405000D+04 0.1439000D+04 0.5204000D+03 0.2031000D+03
EXPONENTS  0.8396000D+02 0.3620000D+02 0.1583000D+02 0.6334000D+01 0.2694000D+01
EXPONENTS  0.4313000D+00 0.4561000D+06 0.6833000D+05 0.1555000D+05 0.4405000D+04
EXPONENTS  0.1439000D+04 0.5204000D+03 0.2031000D+03 0.8396000D+02 0.3620000D+02
EXPONENTS  0.1583000D+02 0.6334000D+01 0.2694000D+01 0.4313000D+00 0.4561000D+06
EXPONENTS  0.6833000D+05 0.1555000D+05 0.4405000D+04 0.1439000D+04 0.5204000D+03
EXPONENTS  0.2031000D+03 0.8396000D+02 0.3620000D+02 0.1583000D+02 0.6334000D+01
EXPONENTS  0.2694000D+01 0.4313000D+00 0.9768000D+00 0.1625000D+00 0.5910000D-01
EXPONENTS  0.6633000D+03 0.1568000D+03 0.4998000D+02 0.1842000D+02 0.7240000D+01
EXPONENTS  0.2922000D+01 0.3818000D+00 0.6633000D+03 0.1568000D+03 0.4998000D+02
EXPONENTS  0.1842000D+02 0.7240000D+01 0.2922000D+01 0.3818000D+00 0.6633000D+03
EXPONENTS  0.1568000D+03 0.4998000D+02 0.1842000D+02 0.7240000D+01 0.2922000D+01
EXPONENTS  0.3818000D+00 0.6633000D+03 0.1568000D+03 0.4998000D+02 0.1842000D+02
EXPONENTS  0.7240000D+01 0.2922000D+01 0.3818000D+00 0.6633000D+03 0.1568000D+03
EXPONENTS  0.4998000D+02 0.1842000D+02 0.7240000D+01 0.2922000D+01 0.3818000D+00
EXPONENTS  0.6633000D+03 0.1568000D+03 0.4998000D+02 0.1842000D+02 0.7240000D+01
EXPONENTS  0.2922000D+01 0.3818000D+00 0.1022000D+01 0.1022000D+01 0.1022000D+01
EXPONENTS  0.1301000D+00 0.1301000D+00 0.1301000D+00 0.4190000D-01 0.4190000D-01
EXPONENTS  0.4190000D-01 0.1046000D+01 0.1046000D+01 0.1046000D+01 0.1046000D+01
EXPONENTS  0.1046000D+01 0.1046000D+01 0.3440000D+00 0.3440000D+00 0.3440000D+00
EXPONENTS  0.3440000D+00 0.3440000D+00 0.3440000D+00 0.1350000D+00 0.1350000D+00
EXPONENTS  0.1350000D+00 0.1350000D+00 0.1350000D+00 0.1350000D+00 0.7060000D+00
EXPONENTS  0.7060000D+00 0.7060000D+00 0.7060000D+00 0.7060000D+00 0.7060000D+00
EXPONENTS  0.7060000D+00 0.7060000D+00 0.7060000D+00 0.7060000D+00 0.3120000D+00
EXPONENTS  0.3120000D+00 0.3120000D+00 0.3120000D+00 0.3120000D+00 0.3120000D+00
EXPONENTS  0.3120000D+00 0.3120000D+00 0.3120000D+00 0.3120000D+00 0.4561000D+06
EXPONENTS  0.6833000D+05 0.1555000D+05 0.4405000D+04 0.1439000D+04 0.5204000D+03
EXPONENTS  0.2031000D+03 0.8396000D+02 0.3620000D+02 0.1583000D+02 0.6334000D+01
EXPONENTS  0.2694000D+01 0.4313000D+00 0.4561000D+06 0.6833000D+05 0.1555000D+05
EXPONENTS  0.4405000D+04 0.1439000D+04 0.5204000D+03 0.2031000D+03 0.8396000D+02
EXPONENTS  0.3620000D+02 0.1583000D+02 0.6334000D+01 0.2694000D+01 0.4313000D+00
EXPONENTS  0.4561000D+06 0.6833000D+05 0.1555000D+05 0.4405000D+04 0.1439000D+04
EXPONENTS  0.5204000D+03 0.2031000D+03 0.8396000D+02 0.3620000D+02 0.1583000D+02
EXPONENTS  0.6334000D+01 0.2694000D+01 0.4313000D+00 0.9768000D+00 0.1625000D+00
EXPONENTS  0.5910000D-01 0.6633000D+03 0.1568000D+03 0.4998000D+02 0.1842000D+02
EXPONENTS  0.7240000D+01 0.2922000D+01 0.3818000D+00 0.6633000D+03 0.1568000D+03
EXPONENTS  0.4998000D+02 0.1842000D+02 0.7240000D+01 0.2922000D+01 0.3818000D+00
EXPONENTS  0.6633000D+03 0.1568000D+03 0.4998000D+02 0.1842000D+02 0.7240000D+01
EXPONENTS  0.2922000D+01 0.3818000D+00 0.6633000D+03 0.1568000D+03 0.4998000D+02
EXPONENTS  0.1842000D+02 0.7240000D+01 0.2922000D+01 0.3818000D+00 0.6633000D+03
EXPONENTS  0.1568000D+03 0.4998000D+02 0.1842000D+02 0.7240000D+01 0.2922000D+01
EXPONENTS  0.3818000D+00 0.6633000D+03 0.1568000D+03 0.4998000D+02 0.1842000D+02
EXPONENTS  0.7240000D+01 0.2922000D+01 0.3818000D+00 0.1022000D+01 0.1022000D+01
EXPONENTS  0.1022000D+01 0.1301000D+00 0.1301000D+00 0.1301000D+00 0.4190000D-01
EXPONENTS  0.4190000D-01 0.4190000D-01 0.1046000D+01 0.1046000D+01 0.1046000D+01
EXPONENTS  0.1046000D+01 0.1046000D+01 0.1046000D+01 0.3440000D+00 0.3440000D+00
EXPONENTS  0.3440000D+00 0.3440000D+00 0.3440000D+00 0.3440000D+00 0.1350000D+00
EXPONENTS  0.1350000D+00 0.1350000D+00 0.1350000D+00 0.1350000D+00 0.1350000D+00
EXPONENTS  0.7060000D+00 0.7060000D+00 0.7060000D+00 0.7060000D+00 0.7060000D+00
EXPONENTS  0.7060000D+00 0.7060000D+00 0.7060000D+00 0.7060000D+00 0.7060000D+00
EXPONENTS  0.3120000D+00 0.3120000D+00 0.3120000D+00 0.3120000D+00 0.3120000D+00
EXPONENTS  0.3120000D+00 0.3120000D+00 0.3120000D+00 0.3120000D+00 0.3120000D+00
MO    1     MO 0.0        OCC NO =    2.0000000  ORB. ENERGY = -453.277229
  0.77214446D+00  0.14427159D+01  0.25022100D+01  0.40992593D+01  0.64191145D+01
  0.96397982D+01  0.13749112D+02  0.18165363D+02  0.20949129D+02  0.18854888D+02
  0.10578061D+02  0.25573028D+01  0.12140806D+00 -0.20776568D-02  0.58435533D-03
 -0.22772234D-03  0.21539934D-04  0.21238828D-05  0.36591363D-04  0.67383564D-04
  0.11696094D-03  0.19156011D-03  0.30150680D-03  0.45508459D-03  0.66338077D-03
  0.91096116D-03  0.11569091D-02  0.12459177D-02  0.99396971D-03  0.22264129D-03
 -0.59533780D-03 -0.52941867D-03 -0.10339761D-03 -0.28643266D-05 -0.20742479D-06
 -0.42361818D-08 -0.10631484D-03 -0.19194159D-03 -0.33413377D-03 -0.54715814D-03
 -0.86262597D-03 -0.13016789D-02 -0.19051039D-02 -0.26249828D-02 -0.33816812D-02
 -0.37221676D-02 -0.31334615D-02 -0.74618932D-03  0.25134525D-02  0.33584995D-02
  0.41259853D-03 -0.14416753D-02 -0.63640586D-03  0.31583678D-05  0.34206635D-04
  0.74108294D-04  0.12615966D-03  0.20593714D-03  0.32466874D-03  0.48994337D-03
  0.71707369D-03  0.98915822D-03  0.12759107D-02  0.14105397D-02  0.11946225D-02
  0.29018175D-03 -0.10067597D-02 -0.14209259D-02 -0.16953603D-03  0.79678033D-03
  0.63691059D-03 -0.24129186D-03  0.23804398D-03  0.10459665D-03  0.16358804D-04
  0.73074102D-04  0.10473214D-03  0.13830280D-03  0.15897210D-03  0.14624439D-03
  0.93556546D-04  0.32383549D-04  0.36406853D-05  0.46318391D-07  0.80261767D-08
  0.82018791D-10 -0.12879858D-16 -0.18459823D-16 -0.24376905D-16 -0.28020023D-16
 -0.25776670D-16 -0.16490042D-16 -0.57078431D-17 -0.64169805D-18 -0.81639633D-20
 -0.14146738D-20 -0.14456426D-22  0.50214575D-04  0.71969131D-04  0.95037999D-04
  0.10924139D-03  0.10049525D-03  0.64289564D-04  0.22253112D-04  0.25017819D-05
  0.31828763D-07  0.55153747D-08  0.56361127D-10  0.93211932D-03  0.13445087D-02
  0.17907116D-02  0.21192413D-02  0.20365113D-02  0.13998041D-02  0.44072097D-03
 -0.21299646D-03 -0.21858593D-03 -0.55048049D-04  0.60017901D-07  0.18888675D-17
  0.27245426D-17  0.36287382D-17  0.42944782D-17  0.41268323D-17  0.28365944D-17
  0.89308687D-18 -0.43162082D-18 -0.44294744D-18 -0.11155060D-18  0.12162162D-21
  0.64113089D-03  0.92478080D-03  0.12316884D-02  0.14576579D-02  0.14007545D-02
  0.96281410D-03  0.30313697D-03 -0.14650336D-03 -0.15034791D-03 -0.37863184D-04
  0.41281550D-07 -0.66065098D-03 -0.95773714D-03 -0.12711565D-02 -0.15170037D-02
 -0.14574804D-02 -0.10201586D-02 -0.30802782D-03  0.18855898D-03  0.20279182D-03
  0.54537353D-04 -0.20329746D-04 -0.14977793D-17 -0.21713112D-17 -0.28818725D-17
 -0.34392392D-17 -0.33042924D-17 -0.23128285D-17 -0.69833802D-18  0.42748705D-18
  0.45975469D-18  0.12364307D-18 -0.46090105D-19 -0.45441425D-03 -0.65875844D-03
 -0.87433707D-03 -0.10434376D-02 -0.10024959D-02 -0.70169367D-03 -0.21187017D-03
  0.12969615D-03  0.13948589D-03  0.37512319D-04 -0.13983369D-04  0.12015327D-04
  0.84150113D-19  0.82645121D-05  0.21851746D-04  0.56810274D-20  0.15027497D-04
  0.54110923D-06 -0.63987086D-21  0.37212695D-06  0.11729639D-03  0.12141297D-03
  0.10158226D-03  0.65549402D-04  0.29445688D-04  0.85976642D-05  0.14504786D-05
 -0.28800692D-03 -0.29811468D-03 -0.24942279D-03 -0.16094853D-03 -0.72300279D-04
 -0.21110511D-04 -0.35614726D-05  0.17071053D-03  0.17670171D-03  0.14784053D-03
  0.95399125D-04  0.42854591D-04  0.12512847D-04  0.21109940D-05 -0.51487976D-18
 -0.53294975D-18 -0.44590159D-18 -0.28773315D-18 -0.12925366D-18 -0.37739978D-19
 -0.63669656D-20 -0.13936811D-03 -0.14425931D-03 -0.12069704D-03 -0.77883865D-04
 -0.34986497D-04 -0.10215491D-04 -0.17234159D-05 -0.13318073D-17 -0.13785479D-17
 -0.11533858D-17 -0.74426138D-18 -0.33433239D-18 -0.97619646D-19 -0.16469033D-19
 -0.54091161D-05  0.13468981D-04 -0.80598648D-05  0.90658321D-20  0.69168251D-05
  0.11006427D-19  0.10567576D-05 -0.25916290D-05  0.15348713D-05 -0.65919118D-20
 -0.12504089D-05 -0.52421691D-20  0.12030565D-05 -0.24458955D-05  0.12428389D-05
  0.12441971D-21 -0.10392445D-06  0.92533036D-22 -0.38028899D-05  0.23595921D-20
 -0.68899177D-05  0.10272133D-04 -0.32040125D-20  0.13604889D-04  0.11365364D-05
 -0.38747639D-20  0.70648643D-05  0.18806351D-20  0.11101822D-05  0.39464046D-21
  0.19676639D-05 -0.30489874D-05 -0.46323643D-21 -0.38061679D-05 -0.28155932D-06
 -0.72068496D-21 -0.20968237D-05  0.36469937D-21  0.25298482D-05  0.47333557D-05
  0.81781901D-05  0.13257800D-04  0.20133027D-04  0.27982540D-04  0.33267203D-04
  0.29631866D-04  0.14710146D-04  0.23700401D-05  0.36386429D-07  0.65022191D-08
  0.24297778D-09 -0.41870782D-05 -0.78208608D-05 -0.13573483D-04 -0.22024247D-04
 -0.34090919D-04 -0.48798053D-04 -0.63696702D-04 -0.67879465D-04 -0.50741278D-04
 -0.26785419D-05  0.34417934D-04  0.20448207D-04 -0.76665447D-07  0.20002962D-05
  0.37332647D-05  0.64880855D-05  0.10515278D-04  0.16331873D-04  0.23395879D-04
  0.30892079D-04  0.33403501D-04  0.26188778D-04  0.13031449D-05 -0.22450404D-04
 -0.23240330D-04  0.10516578D-04 -0.89187698D-05 -0.28166070D-04 -0.21633958D-04
  0.42292422D-04  0.55708611D-04  0.61459649D-04  0.51049303D-04  0.27113525D-04
  0.69933690D-05 -0.71889455D-08  0.10795168D-19  0.14219659D-19  0.15687615D-19
  0.13030368D-19  0.69207449D-20  0.17850620D-20 -0.18349830D-23 -0.10579651D-03
 -0.13935774D-03 -0.15374424D-03 -0.12770226D-03 -0.67825772D-04 -0.17494245D-04
  0.17983489D-07 -0.37711324D-04 -0.49512203D-04 -0.56373286D-04 -0.47734583D-04
 -0.27344207D-04 -0.62198585D-05  0.29112361D-05 -0.46474202D-20 -0.61017220D-20
 -0.69472595D-20 -0.58826540D-20 -0.33698107D-20 -0.76651502D-21  0.35877121D-21
  0.73050821D-04  0.95910373D-04  0.10920102D-03  0.92466935D-04  0.52968620D-04
  0.12048523D-04 -0.56393721D-05 -0.18521694D-05 -0.35276156D-20  0.20074158D-04
 -0.19604775D-05  0.17409548D-20  0.15434649D-04  0.62106037D-07  0.60102111D-22
  0.12350348D-05  0.76467925D-05  0.54386455D-05 -0.13085438D-04 -0.25326667D-21
 -0.25695916D-05  0.16120455D-19 -0.32471904D-05 -0.23270237D-05  0.55742141D-05
  0.20695081D-21  0.22347742D-06 -0.58135528D-20  0.17481839D-06  0.28255315D-06
 -0.45737154D-06 -0.28275110D-21  0.10592990D-05 -0.15309491D-20 -0.10610659D-05
  0.54992178D-20  0.36242592D-05  0.10193250D-05  0.51290727D-20 -0.50947386D-05
  0.21638729D-05 -0.21626726D-19 -0.57780391D-05 -0.41716006D-20  0.52267277D-06
 -0.23772760D-20 -0.36797876D-05  0.10320033D-06 -0.22098090D-20  0.55693182D-05
 -0.16712186D-05  0.93416370D-20  0.54700445D-05  0.16074107D-20  0.25302462D-05
  0.47341003D-05  0.81794766D-05  0.13259885D-04  0.20136194D-04  0.27986942D-04
  0.33272436D-04  0.29636527D-04  0.14712459D-04  0.23704129D-05  0.36392153D-07
  0.65032419D-08  0.24301600D-09 -0.41878104D-05 -0.78222285D-05 -0.13575857D-04
 -0.22028099D-04 -0.34096880D-04 -0.48806587D-04 -0.63707841D-04 -0.67891335D-04
 -0.50750151D-04 -0.26790103D-05  0.34423953D-04  0.20451783D-04 -0.76678854D-07
  0.20007107D-05  0.37340382D-05  0.64894297D-05  0.10517457D-04  0.16335257D-04
  0.23400727D-04  0.30898479D-04  0.33410421D-04  0.26194203D-04  0.13034149D-05
 -0.22455055D-04 -0.23245145D-04  0.10518757D-04 -0.89186654D-05 -0.28167741D-04
 -0.21634786D-04 -0.83644997D-04 -0.11017923D-03 -0.12155351D-03 -0.10096416D-03
 -0.53624517D-04 -0.13831327D-04  0.14218134D-07  0.10810417D-19  0.14239745D-19
  0.15709775D-19  0.13048774D-19  0.69305207D-20  0.17875835D-20 -0.18375750D-23
  0.77342169D-04  0.10187699D-03  0.11239419D-03  0.93356295D-04  0.49583796D-04
  0.12789107D-04 -0.13146768D-07  0.54709159D-04  0.71829116D-04  0.81782732D-04
  0.69250259D-04  0.39669214D-04  0.90233700D-05 -0.42234338D-05 -0.46783760D-20
 -0.61423648D-20 -0.69935342D-20 -0.59218375D-20 -0.33922565D-20 -0.77162067D-21
  0.36116094D-21 -0.61348620D-04 -0.80546241D-04 -0.91707821D-04 -0.77654416D-04
 -0.44483439D-04 -0.10118439D-04  0.47359864D-05  0.18080510D-04 -0.34757376D-20
 -0.89116203D-05  0.13712999D-04  0.15419524D-20 -0.73538069D-05  0.11755515D-05
  0.63984785D-22 -0.38393665D-06 -0.11288927D-04  0.54382790D-05  0.58506480D-05
  0.14790579D-19  0.11941540D-04 -0.60535669D-20  0.45185611D-05 -0.23265146D-05
 -0.21920465D-05 -0.51694002D-20 -0.57275495D-05  0.22607163D-20 -0.22794278D-07
  0.28272928D-06 -0.25993500D-06 -0.14084584D-20  0.12108245D-05  0.24605624D-21
  0.29685700D-05  0.54377864D-20  0.81824488D-06 -0.50309222D-05 -0.19293386D-19
 -0.54739817D-05 -0.38747879D-05  0.29800271D-20  0.30192471D-05  0.14635308D-19
 -0.28277137D-05 -0.23305005D-20 -0.13431374D-05  0.51444455D-05  0.81956352D-20
  0.58901330D-05  0.33386957D-05 -0.12041337D-20 -0.18607208D-05 -0.64260636D-20
MO    2     MO 0.0        OCC NO =    2.0000000  ORB. ENERGY = -101.219363
 -0.15482572D-04 -0.28928464D-04 -0.50172798D-04 -0.82195861D-04 -0.12871219D-03
 -0.19329139D-03 -0.27568886D-03 -0.36424084D-03 -0.42005922D-03 -0.37806677D-03
 -0.21210486D-03 -0.51277484D-04 -0.24344008D-05  0.41659914D-07 -0.11717139D-07
  0.45661503D-08 -0.43190568D-09 -0.42586810D-10  0.33067577D-04  0.60894457D-04
  0.10569748D-03  0.17311267D-03  0.27247138D-03  0.41125947D-03  0.59949651D-03
  0.82323466D-03  0.10454975D-02  0.11259345D-02  0.89824940D-03  0.20120070D-03
 -0.53800615D-03 -0.47843510D-03 -0.93440316D-04 -0.25884890D-05 -0.18744957D-06
 -0.38282331D-08 -0.49458395D-04 -0.89292553D-04 -0.15544133D-03 -0.25454174D-03
 -0.40129955D-03 -0.60554998D-03 -0.88626745D-03 -0.12211601D-02 -0.15731814D-02
 -0.17315780D-02 -0.14577079D-02 -0.34713241D-03  0.11692754D-02  0.15623971D-02
  0.19194368D-03 -0.67067729D-03 -0.29606039D-03  0.14692945D-05  0.22636184D-04
  0.49041040D-04  0.83485946D-04  0.13627856D-03  0.21484900D-03  0.32421921D-03
  0.47452233D-03  0.65457381D-03  0.84433178D-03  0.93342230D-03  0.79053948D-03
  0.19202729D-03 -0.66622157D-03 -0.94029534D-03 -0.11219018D-03  0.52726806D-03
  0.42147453D-03 -0.15967449D-03 -0.11236622D-03  0.66344321D-03  0.79287341D-04
  0.39544220D-02  0.56676039D-02  0.74842883D-02  0.86028121D-02  0.79140494D-02
  0.50628342D-02  0.17524433D-02  0.19701653D-03  0.25065305D-05  0.43433842D-06
  0.44384660D-08 -0.57854158D-15 -0.82918426D-15 -0.10949696D-14 -0.12586124D-14
 -0.11578447D-14 -0.74070499D-15 -0.25638673D-15 -0.28823999D-16 -0.36671152D-18
 -0.63544769D-19 -0.64935839D-21 -0.13012029D-02 -0.18649255D-02 -0.24627057D-02
 -0.28307561D-02 -0.26041186D-02 -0.16659260D-02 -0.57664161D-03 -0.64828306D-04
 -0.82477407D-06 -0.14291909D-06 -0.14604776D-08 -0.16563594D-01 -0.23891680D-01
 -0.31820626D-01 -0.37658540D-01 -0.36188443D-01 -0.24874268D-01 -0.78315330D-02
  0.37849092D-02  0.38842330D-02  0.97819402D-03 -0.10665074D-05 -0.18415834D-15
 -0.26563389D-15 -0.35378998D-15 -0.41869742D-15 -0.40235250D-15 -0.27655857D-15
 -0.87073016D-16  0.42081603D-16  0.43185911D-16  0.10875815D-16 -0.11857706D-19
  0.55041607D-02  0.79393181D-02  0.10574144D-01  0.12514111D-01  0.12025591D-01
  0.82658371D-02  0.26024555D-02 -0.12577432D-02 -0.12907490D-02 -0.32505850D-03
  0.35440545D-06  0.12017066D-01  0.17420985D-01  0.23122000D-01  0.27593895D-01
  0.26511183D-01  0.18556415D-01  0.56029446D-02 -0.34298379D-02 -0.36887294D-02
 -0.99202000D-03  0.36979270D-03  0.58052806D-16  0.84158398D-16  0.11169922D-15
  0.13330234D-15  0.12807190D-15  0.89643504D-16  0.27067060D-16 -0.16569078D-16
 -0.17819748D-16 -0.47923131D-17  0.17864180D-17 -0.40628755D-02 -0.58898977D-02
 -0.78173662D-02 -0.93292786D-02 -0.89632220D-02 -0.62737776D-02 -0.18943114D-02
  0.11596012D-02  0.12471304D-02  0.33539415D-03 -0.12502400D-03 -0.28363339D-03
 -0.10751463D-18  0.81409439D-04  0.27286576D-03  0.48946181D-19 -0.11427375D-03
  0.34469546D-05 -0.17718102D-20 -0.23097303D-05  0.18025029D-03  0.18657628D-03
  0.15610226D-03  0.10073028D-03  0.45249421D-04  0.13212098D-04  0.22289620D-05
 -0.22678684D-03 -0.23474605D-03 -0.19640433D-03 -0.12673656D-03 -0.56931796D-04
 -0.16623163D-04 -0.28044295D-05  0.46536545D-04  0.48169770D-04  0.40302069D-04
  0.26006279D-04  0.11682376D-04  0.34110647D-05  0.57546752D-06 -0.33290997D-18
 -0.34459363D-18 -0.28831020D-18 -0.18604195D-18 -0.83572587D-19 -0.24401843D-19
 -0.41167404D-20  0.59255247D-04  0.61334843D-04  0.51316854D-04  0.33113943D-04
  0.14875236D-04  0.43433281D-05  0.73274607D-06  0.36043512D-18  0.37308479D-18
  0.31214782D-18  0.20142398D-18  0.90482407D-19  0.26419398D-19  0.44571144D-20
 -0.28491463D-04  0.21934777D-04  0.65566856D-05 -0.11986845D-19  0.12778245D-04
 -0.13864226D-19  0.12818741D-03 -0.66124202D-04 -0.62063204D-04  0.28169143D-19
 -0.10827979D-03  0.61205929D-20  0.25914700D-04 -0.10155779D-04 -0.15758921D-04
  0.14494444D-19 -0.13037310D-04  0.11400260D-20  0.17153898D-04  0.87489975D-20
  0.11632423D-04 -0.16273420D-04 -0.19482560D-19 -0.41666514D-04 -0.35188273D-04
 -0.67644328D-20  0.67692438D-05  0.16995942D-20  0.82039460D-05 -0.59434498D-20
  0.10090068D-05 -0.21227066D-04  0.13009765D-19 -0.10607727D-04 -0.33847724D-05
  0.48205840D-20  0.75807062D-05 -0.47585391D-20 -0.58250012D-01 -0.10898600D+00
 -0.18830366D+00 -0.30526219D+00 -0.46356498D+00 -0.64430082D+00 -0.76598072D+00
 -0.68227671D+00 -0.33870259D+00 -0.54570414D-01 -0.83780121D-03 -0.14971425D-03
 -0.55945881D-05  0.10229528D-03  0.19107290D-03  0.33161628D-03  0.53807845D-03
  0.83288154D-03  0.11921943D-02  0.15561859D-02  0.16583758D-02  0.12396695D-02
  0.65439953D-04 -0.84087091D-03 -0.49957393D-03  0.18730277D-05 -0.39332906D-04
 -0.73409203D-04 -0.12757873D-03 -0.20676759D-03 -0.32114245D-03 -0.46004582D-03
 -0.60744764D-03 -0.65683109D-03 -0.51496409D-03 -0.25624443D-04  0.44145442D-03
  0.45698717D-03 -0.20679316D-03  0.28185911D-03  0.12150050D-03  0.54070260D-04
  0.19642081D-03  0.25873029D-03  0.28544012D-03  0.23709083D-03  0.12592470D-03
  0.32479653D-04 -0.33387979D-07  0.33360558D-17  0.43943342D-17  0.48479800D-17
  0.40268047D-17  0.21387338D-17  0.55164183D-18 -0.56706905D-21  0.55491763D-03
  0.73095105D-03  0.80641025D-03  0.66981641D-03  0.35575576D-03  0.91759789D-04
 -0.94325944D-07 -0.16874564D-03 -0.22155065D-03 -0.25225172D-03 -0.21359639D-03
 -0.12235624D-03 -0.27831799D-04  0.13026814D-04 -0.13515799D-17 -0.17745253D-17
 -0.20204277D-17 -0.17108152D-17 -0.98002079D-18 -0.22292073D-18  0.10433917D-18
 -0.43088826D-03 -0.56572470D-03 -0.64411919D-03 -0.54541368D-03 -0.31243395D-03
 -0.71067885D-04  0.33263681D-04 -0.97603952D-05 -0.26748806D-18 -0.37619674D-04
 -0.34000355D-04 -0.38098216D-19 -0.51550533D-04 -0.10161176D-05  0.75374772D-21
 -0.39845242D-05  0.82027580D-05  0.11624016D-04 -0.19826774D-04 -0.10111715D-19
 -0.69468862D-05 -0.48581983D-19 -0.73021241D-05 -0.61134998D-05  0.13415624D-04
  0.54292991D-20  0.50128135D-05  0.25772809D-20 -0.25845704D-05 -0.20493763D-05
  0.46339467D-05 -0.31854083D-20  0.12214705D-04  0.13198883D-19 -0.70794828D-05
 -0.36272079D-20  0.36966641D-05  0.31898259D-04 -0.28708350D-19  0.15510702D-04
 -0.10659810D-04  0.39589974D-19 -0.26600695D-04  0.14079069D-19  0.34265514D-05
  0.23280862D-20 -0.56656495D-05 -0.82649230D-05  0.87354024D-20  0.42087135D-05
 -0.20147310D-05 -0.15719661D-19  0.12788235D-04 -0.28537818D-20  0.61447473D+00
  0.11496846D+01  0.19864002D+01  0.32201865D+01  0.48901100D+01  0.67966779D+01
  0.80802695D+01  0.71972826D+01  0.35729466D+01  0.57565894D+00  0.88378981D-02
  0.15793237D-02  0.59016863D-04 -0.10234174D-02 -0.19115967D-02 -0.33176688D-02
 -0.53832282D-02 -0.83325979D-02 -0.11927357D-01 -0.15568926D-01 -0.16591289D-01
 -0.12402325D-01 -0.65469673D-03  0.84125279D-02  0.49980081D-02 -0.18738783D-04
  0.38910639D-03  0.72621100D-03  0.12620908D-02  0.20454779D-02  0.31769475D-02
  0.45510689D-02  0.60092624D-02  0.64977952D-02  0.50943557D-02  0.25349345D-03
 -0.43671508D-02 -0.45208107D-02  0.20457308D-02 -0.28310315D-02 -0.11281629D-02
 -0.29001874D-03 -0.18394640D-02 -0.24229869D-02 -0.26731222D-02 -0.22203352D-02
 -0.11792740D-02 -0.30416916D-03  0.31267555D-06  0.75411141D-17  0.99333397D-17
  0.10958801D-16  0.91025437D-17  0.48345821D-17  0.12469797D-17 -0.12818528D-20
  0.65917174D-03  0.86827711D-03  0.95791306D-03  0.79565691D-03  0.42259271D-03
  0.10899899D-03 -0.11204725D-06  0.13024373D-02  0.17100047D-02  0.19469662D-02
  0.16486110D-02  0.94438786D-03  0.21481547D-03 -0.10054546D-03 -0.65276724D-17
 -0.85703554D-17 -0.97579801D-17 -0.82626568D-17 -0.47331679D-17 -0.10766315D-17
  0.50392279D-18 -0.48987207D-03 -0.64316612D-03 -0.73229194D-03 -0.62007474D-03
 -0.35520268D-03 -0.80796287D-04  0.37817109D-04  0.15363045D-04 -0.98228659D-18
 -0.12377161D-04  0.47704214D-03 -0.14012411D-18 -0.14993578D-03  0.13810789D-04
  0.53955383D-20 -0.44762020D-05  0.20600861D-03 -0.13112971D-03 -0.74878900D-04
  0.38636966D-19 -0.18764891D-03  0.32462438D-20 -0.11572294D-03  0.71648131D-04
  0.44074813D-04 -0.22418115D-19  0.10425080D-03  0.60299997D-20 -0.58993938D-04