 Molden2AIM, Version 4.0.0 (06/02/2016)           Time: Thu Jun 28 22:32:56 2018
GAUSSIAN             25 MOL ORBITALS    393 PRIMITIVES        3 NUCLEI
  S    1    (CENTRE  1)  -0.31530269  0.00000000 -0.21684229  CHARGE = 16.0
  Cl   2    (CENTRE  2)  -0.05796735  0.00000000  3.63550992  CHARGE = 17.0
  Cl   3    (CENTRE  3)   3.37408521  0.00000000 -1.35492796  CHARGE = 17.0
CENTRE ASSIGNMENTS    1  1  1  1  1  1  1  1  1  1  1  1  1  1  1  1  1  1  1  1
CENTRE ASSIGNMENTS    1  1  1  1  1  1  1  1  1  1  1  1  1  1  1  1  1  1  1  1
CENTRE ASSIGNMENTS    1  1  1  1  1  1  1  1  1  1  1  1  1  1  1  1  1  1  1  1
CENTRE ASSIGNMENTS    1  1  1  1  1  1  1  1  1  1  1  1  1  1  1  1  1  1  1  1
CENTRE ASSIGNMENTS    1  1  1  1  1  1  1  1  1  1  1  1  1  1  1  1  1  1  1  1
CENTRE ASSIGNMENTS    1  1  1  1  1  1  1  1  1  1  1  1  1  1  1  1  1  1  1  1
CENTRE ASSIGNMENTS    1  1  1  1  1  1  1  1  1  1  1  2  2  2  2  2  2  2  2  2
CENTRE ASSIGNMENTS    2  2  2  2  2  2  2  2  2  2  2  2  2  2  2  2  2  2  2  2
CENTRE ASSIGNMENTS    2  2  2  2  2  2  2  2  2  2  2  2  2  2  2  2  2  2  2  2
CENTRE ASSIGNMENTS    2  2  2  2  2  2  2  2  2  2  2  2  2  2  2  2  2  2  2  2
CENTRE ASSIGNMENTS    2  2  2  2  2  2  2  2  2  2  2  2  2  2  2  2  2  2  2  2
CENTRE ASSIGNMENTS    2  2  2  2  2  2  2  2  2  2  2  2  2  2  2  2  2  2  2  2
CENTRE ASSIGNMENTS    2  2  2  2  2  2  2  2  2  2  2  2  2  2  2  2  2  2  2  2
CENTRE ASSIGNMENTS    2  2  3  3  3  3  3  3  3  3  3  3  3  3  3  3  3  3  3  3
CENTRE ASSIGNMENTS    3  3  3  3  3  3  3  3  3  3  3  3  3  3  3  3  3  3  3  3
CENTRE ASSIGNMENTS    3  3  3  3  3  3  3  3  3  3  3  3  3  3  3  3  3  3  3  3
CENTRE ASSIGNMENTS    3  3  3  3  3  3  3  3  3  3  3  3  3  3  3  3  3  3  3  3
CENTRE ASSIGNMENTS    3  3  3  3  3  3  3  3  3  3  3  3  3  3  3  3  3  3  3  3
CENTRE ASSIGNMENTS    3  3  3  3  3  3  3  3  3  3  3  3  3  3  3  3  3  3  3  3
CENTRE ASSIGNMENTS    3  3  3  3  3  3  3  3  3  3  3  3  3
TYPE ASSIGNMENTS      1  1  1  1  1  1  1  1  1  1  1  1  1  1  1  1  1  1  1  1
TYPE ASSIGNMENTS      1  1  1  1  1  1  1  1  1  1  1  1  1  1  1  1  1  1  1  1
TYPE ASSIGNMENTS      1  1  2  2  2  2  2  2  2  3  3  3  3  3  3  3  4  4  4  4
TYPE ASSIGNMENTS      4  4  4  2  2  2  2  2  2  2  3  3  3  3  3  3  3  4  4  4
TYPE ASSIGNMENTS      4  4  4  4  2  3  4  2  3  4  2  3  4  5  6  7  8  9 10  5
TYPE ASSIGNMENTS      6  7  8  9 10  5  6  7  8  9 10 11 12 13 17 14 15 18 19 16
TYPE ASSIGNMENTS     20 11 12 13 17 14 15 18 19 16 20  1  1  1  1  1  1  1  1  1
TYPE ASSIGNMENTS      1  1  1  1  1  1  1  1  1  1  1  1  1  1  1  1  1  1  1  1
TYPE ASSIGNMENTS      1  1  1  1  1  1  1  1  1  1  1  1  1  2  2  2  2  2  2  2
TYPE ASSIGNMENTS      3  3  3  3  3  3  3  4  4  4  4  4  4  4  2  2  2  2  2  2
TYPE ASSIGNMENTS      2  3  3  3  3  3  3  3  4  4  4  4  4  4  4  2  3  4  2  3
TYPE ASSIGNMENTS      4  2  3  4  5  6  7  8  9 10  5  6  7  8  9 10  5  6  7  8
TYPE ASSIGNMENTS      9 10 11 12 13 17 14 15 18 19 16 20 11 12 13 17 14 15 18 19
TYPE ASSIGNMENTS     16 20  1  1  1  1  1  1  1  1  1  1  1  1  1  1  1  1  1  1
TYPE ASSIGNMENTS      1  1  1  1  1  1  1  1  1  1  1  1  1  1  1  1  1  1  1  1
TYPE ASSIGNMENTS      1  1  1  1  2  2  2  2  2  2  2  3  3  3  3  3  3  3  4  4
TYPE ASSIGNMENTS      4  4  4  4  4  2  2  2  2  2  2  2  3  3  3  3  3  3  3  4
TYPE ASSIGNMENTS      4  4  4  4  4  4  2  3  4  2  3  4  2  3  4  5  6  7  8  9
TYPE ASSIGNMENTS     10  5  6  7  8  9 10  5  6  7  8  9 10 11 12 13 17 14 15 18
TYPE ASSIGNMENTS     19 16 20 11 12 13 17 14 15 18 19 16 20
EXPONENTS  0.3741000D+06 0.5605000D+05 0.1276000D+05 0.3615000D+04 0.1183000D+04
EXPONENTS  0.4288000D+03 0.1678000D+03 0.6947000D+02 0.2984000D+02 0.1272000D+02
EXPONENTS  0.5244000D+01 0.2219000D+01 0.3490000D+00 0.3741000D+06 0.5605000D+05
EXPONENTS  0.1276000D+05 0.3615000D+04 0.1183000D+04 0.4288000D+03 0.1678000D+03
EXPONENTS  0.6947000D+02 0.2984000D+02 0.1272000D+02 0.5244000D+01 0.2219000D+01
EXPONENTS  0.3490000D+00 0.3741000D+06 0.5605000D+05 0.1276000D+05 0.3615000D+04
EXPONENTS  0.1183000D+04 0.4288000D+03 0.1678000D+03 0.6947000D+02 0.2984000D+02
EXPONENTS  0.1272000D+02 0.5244000D+01 0.2219000D+01 0.3490000D+00 0.7767000D+00
EXPONENTS  0.1322000D+00 0.4970000D-01 0.5744000D+03 0.1358000D+03 0.4319000D+02
EXPONENTS  0.1587000D+02 0.6208000D+01 0.2483000D+01 0.3229000D+00 0.5744000D+03
EXPONENTS  0.1358000D+03 0.4319000D+02 0.1587000D+02 0.6208000D+01 0.2483000D+01
EXPONENTS  0.3229000D+00 0.5744000D+03 0.1358000D+03 0.4319000D+02 0.1587000D+02
EXPONENTS  0.6208000D+01 0.2483000D+01 0.3229000D+00 0.5744000D+03 0.1358000D+03
EXPONENTS  0.4319000D+02 0.1587000D+02 0.6208000D+01 0.2483000D+01 0.3229000D+00
EXPONENTS  0.5744000D+03 0.1358000D+03 0.4319000D+02 0.1587000D+02 0.6208000D+01
EXPONENTS  0.2483000D+01 0.3229000D+00 0.5744000D+03 0.1358000D+03 0.4319000D+02
EXPONENTS  0.1587000D+02 0.6208000D+01 0.2483000D+01 0.3229000D+00 0.8688000D+00
EXPONENTS  0.8688000D+00 0.8688000D+00 0.1098000D+00 0.1098000D+00 0.1098000D+00
EXPONENTS  0.3510000D-01 0.3510000D-01 0.3510000D-01 0.2690000D+00 0.2690000D+00
EXPONENTS  0.2690000D+00 0.2690000D+00 0.2690000D+00 0.2690000D+00 0.8190000D+00
EXPONENTS  0.8190000D+00 0.8190000D+00 0.8190000D+00 0.8190000D+00 0.8190000D+00
EXPONENTS  0.1010000D+00 0.1010000D+00 0.1010000D+00 0.1010000D+00 0.1010000D+00
EXPONENTS  0.1010000D+00 0.5570000D+00 0.5570000D+00 0.5570000D+00 0.5570000D+00
EXPONENTS  0.5570000D+00 0.5570000D+00 0.5570000D+00 0.5570000D+00 0.5570000D+00
EXPONENTS  0.5570000D+00 0.2180000D+00 0.2180000D+00 0.2180000D+00 0.2180000D+00
EXPONENTS  0.2180000D+00 0.2180000D+00 0.2180000D+00 0.2180000D+00 0.2180000D+00
EXPONENTS  0.2180000D+00 0.4561000D+06 0.6833000D+05 0.1555000D+05 0.4405000D+04
EXPONENTS  0.1439000D+04 0.5204000D+03 0.2031000D+03 0.8396000D+02 0.3620000D+02
EXPONENTS  0.1583000D+02 0.6334000D+01 0.2694000D+01 0.4313000D+00 0.4561000D+06
EXPONENTS  0.6833000D+05 0.1555000D+05 0.4405000D+04 0.1439000D+04 0.5204000D+03
EXPONENTS  0.2031000D+03 0.8396000D+02 0.3620000D+02 0.1583000D+02 0.6334000D+01
EXPONENTS  0.2694000D+01 0.4313000D+00 0.4561000D+06 0.6833000D+05 0.1555000D+05
EXPONENTS  0.4405000D+04 0.1439000D+04 0.5204000D+03 0.2031000D+03 0.8396000D+02
EXPONENTS  0.3620000D+02 0.1583000D+02 0.6334000D+01 0.2694000D+01 0.4313000D+00
EXPONENTS  0.9768000D+00 0.1625000D+00 0.5910000D-01 0.6633000D+03 0.1568000D+03
EXPONENTS  0.4998000D+02 0.1842000D+02 0.7240000D+01 0.2922000D+01 0.3818000D+00
EXPONENTS  0.6633000D+03 0.1568000D+03 0.4998000D+02 0.1842000D+02 0.7240000D+01
EXPONENTS  0.2922000D+01 0.3818000D+00 0.6633000D+03 0.1568000D+03 0.4998000D+02
EXPONENTS  0.1842000D+02 0.7240000D+01 0.2922000D+01 0.3818000D+00 0.6633000D+03
EXPONENTS  0.1568000D+03 0.4998000D+02 0.1842000D+02 0.7240000D+01 0.2922000D+01
EXPONENTS  0.3818000D+00 0.6633000D+03 0.1568000D+03 0.4998000D+02 0.1842000D+02
EXPONENTS  0.7240000D+01 0.2922000D+01 0.3818000D+00 0.6633000D+03 0.1568000D+03
EXPONENTS  0.4998000D+02 0.1842000D+02 0.7240000D+01 0.2922000D+01 0.3818000D+00
EXPONENTS  0.1022000D+01 0.1022000D+01 0.1022000D+01 0.1301000D+00 0.1301000D+00
EXPONENTS  0.1301000D+00 0.4190000D-01 0.4190000D-01 0.4190000D-01 0.1046000D+01
EXPONENTS  0.1046000D+01 0.1046000D+01 0.1046000D+01 0.1046000D+01 0.1046000D+01
EXPONENTS  0.3440000D+00 0.3440000D+00 0.3440000D+00 0.3440000D+00 0.3440000D+00
EXPONENTS  0.3440000D+00 0.1350000D+00 0.1350000D+00 0.1350000D+00 0.1350000D+00
EXPONENTS  0.1350000D+00 0.1350000D+00 0.7060000D+00 0.7060000D+00 0.7060000D+00
EXPONENTS  0.7060000D+00 0.7060000D+00 0.7060000D+00 0.7060000D+00 0.7060000D+00
EXPONENTS  0.7060000D+00 0.7060000D+00 0.3120000D+00 0.3120000D+00 0.3120000D+00
EXPONENTS  0.3120000D+00 0.3120000D+00 0.3120000D+00 0.3120000D+00 0.3120000D+00
EXPONENTS  0.3120000D+00 0.3120000D+00 0.4561000D+06 0.6833000D+05 0.1555000D+05
EXPONENTS  0.4405000D+04 0.1439000D+04 0.5204000D+03 0.2031000D+03 0.8396000D+02
EXPONENTS  0.3620000D+02 0.1583000D+02 0.6334000D+01 0.2694000D+01 0.4313000D+00
EXPONENTS  0.4561000D+06 0.6833000D+05 0.1555000D+05 0.4405000D+04 0.1439000D+04
EXPONENTS  0.5204000D+03 0.2031000D+03 0.8396000D+02 0.3620000D+02 0.1583000D+02
EXPONENTS  0.6334000D+01 0.2694000D+01 0.4313000D+00 0.4561000D+06 0.6833000D+05
EXPONENTS  0.1555000D+05 0.4405000D+04 0.1439000D+04 0.5204000D+03 0.2031000D+03
EXPONENTS  0.8396000D+02 0.3620000D+02 0.1583000D+02 0.6334000D+01 0.2694000D+01
EXPONENTS  0.4313000D+00 0.9768000D+00 0.1625000D+00 0.5910000D-01 0.6633000D+03
EXPONENTS  0.1568000D+03 0.4998000D+02 0.1842000D+02 0.7240000D+01 0.2922000D+01
EXPONENTS  0.3818000D+00 0.6633000D+03 0.1568000D+03 0.4998000D+02 0.1842000D+02
EXPONENTS  0.7240000D+01 0.2922000D+01 0.3818000D+00 0.6633000D+03 0.1568000D+03
EXPONENTS  0.4998000D+02 0.1842000D+02 0.7240000D+01 0.2922000D+01 0.3818000D+00
EXPONENTS  0.6633000D+03 0.1568000D+03 0.4998000D+02 0.1842000D+02 0.7240000D+01
EXPONENTS  0.2922000D+01 0.3818000D+00 0.6633000D+03 0.1568000D+03 0.4998000D+02
EXPONENTS  0.1842000D+02 0.7240000D+01 0.2922000D+01 0.3818000D+00 0.6633000D+03
EXPONENTS  0.1568000D+03 0.4998000D+02 0.1842000D+02 0.7240000D+01 0.2922000D+01
EXPONENTS  0.3818000D+00 0.1022000D+01 0.1022000D+01 0.1022000D+01 0.1301000D+00
EXPONENTS  0.1301000D+00 0.1301000D+00 0.4190000D-01 0.4190000D-01 0.4190000D-01
EXPONENTS  0.1046000D+01 0.1046000D+01 0.1046000D+01 0.1046000D+01 0.1046000D+01
EXPONENTS  0.1046000D+01 0.3440000D+00 0.3440000D+00 0.3440000D+00 0.3440000D+00
EXPONENTS  0.3440000D+00 0.3440000D+00 0.1350000D+00 0.1350000D+00 0.1350000D+00
EXPONENTS  0.1350000D+00 0.1350000D+00 0.1350000D+00 0.7060000D+00 0.7060000D+00
EXPONENTS  0.7060000D+00 0.7060000D+00 0.7060000D+00 0.7060000D+00 0.7060000D+00
EXPONENTS  0.7060000D+00 0.7060000D+00 0.7060000D+00 0.3120000D+00 0.3120000D+00
EXPONENTS  0.3120000D+00 0.3120000D+00 0.3120000D+00 0.3120000D+00 0.3120000D+00
EXPONENTS  0.3120000D+00 0.3120000D+00 0.3120000D+00
MO    1     MO 0.0        OCC NO =    2.0000000  ORB. ENERGY = -101.231154
 -0.61311274D-04 -0.11461786D-03 -0.19809546D-03 -0.32041051D-03 -0.48428172D-03
 -0.66693540D-03 -0.77949286D-03 -0.67354064D-03 -0.31414175D-03 -0.42653663D-04
 -0.11421600D-06 -0.22404458D-06 -0.10228571D-07  0.11230643D-03  0.20973705D-03
  0.36382136D-03  0.58992375D-03  0.90825478D-03  0.12935588D-02  0.16633487D-02
  0.17460212D-02  0.12345607D-02 -0.27339864D-04 -0.88704782D-03 -0.48843261D-03
  0.20655732D-05 -0.62028242D-04 -0.11575388D-03 -0.20105063D-03 -0.32565741D-03
 -0.50304539D-03 -0.71716679D-03 -0.93279973D-03 -0.99411306D-03 -0.73731298D-03
  0.22949815D-04  0.66796715D-03  0.65437726D-03 -0.30563299D-03 -0.40682873D-05
  0.78625702D-03  0.20036869D-03  0.39918076D-02  0.52370342D-02  0.57442283D-02
  0.47264421D-02  0.24918737D-02  0.64826777D-03 -0.71737438D-06 -0.66970042D-15
 -0.87861048D-15 -0.96370178D-15 -0.79294910D-15 -0.41805845D-15 -0.10875905D-15
  0.12035297D-18 -0.10444095D-02 -0.13702084D-02 -0.15029097D-02 -0.12366180D-02
 -0.65196944D-03 -0.16961163D-03  0.18769257D-06 -0.34960685D-02 -0.45903593D-02
 -0.51644637D-02 -0.43514511D-02 -0.24341408D-02 -0.60585268D-03  0.27787323D-03
  0.97528613D-15  0.12805566D-14  0.14407126D-14  0.12139093D-14  0.67904382D-15
  0.16901262D-15 -0.77517333D-16  0.93613738D-03  0.12291541D-02  0.13828812D-02
  0.11651820D-02  0.65178647D-03  0.16222832D-03 -0.74405726D-04 -0.23106573D-03
 -0.29218864D-17  0.50214763D-04  0.43354766D-03 -0.74902878D-19 -0.18961255D-03
  0.11351879D-04 -0.40013551D-20 -0.39844457D-05  0.12617738D-03 -0.66637612D-04
 -0.59539773D-04  0.17905767D-19 -0.11019821D-03  0.11396213D-18 -0.37220349D-04
  0.18353348D-04  0.18867001D-04 -0.45529294D-19  0.14407851D-04 -0.29562104D-18
  0.42398209D-04 -0.16517542D-04 -0.25880667D-04  0.15575188D-19 -0.21297457D-04
 -0.87805325D-20  0.13072177D-04  0.58559685D-19  0.18842726D-04 -0.19663745D-05
 -0.13791176D-18 -0.45984362D-04 -0.37250158D-04 -0.37767299D-19 -0.10543818D-04
  0.18144293D-19  0.55533206D-05 -0.71842016D-20 -0.13692362D-05 -0.22591936D-04
 -0.56513634D-20 -0.69247524D-05  0.59319746D-05  0.27203968D-19  0.11032461D-04
  0.35026240D-20 -0.38095985D-01 -0.71277733D-01 -0.12315213D+00 -0.19964397D+00
 -0.30317530D+00 -0.42137801D+00 -0.50095766D+00 -0.44621456D+00 -0.22151427D+00
 -0.35689497D-01 -0.54792885D-03 -0.97914347D-04 -0.36589064D-05  0.95059523D-04
  0.17755754D-03  0.30815972D-03  0.50001800D-03  0.77396847D-03  0.11078656D-02
  0.14461106D-02  0.15410722D-02  0.11519827D-02  0.60811121D-04 -0.78139272D-03
 -0.46423705D-03  0.17405409D-05 -0.40056372D-04 -0.74759447D-04 -0.12992534D-03
 -0.21057075D-03 -0.32704935D-03 -0.46850763D-03 -0.61862067D-03 -0.66891244D-03
 -0.52443603D-03 -0.26095763D-04  0.44957427D-03  0.46539271D-03 -0.21059679D-03
  0.23081747D-03  0.17625097D-03  0.34296501D-04 -0.25088945D-03 -0.33047772D-03
 -0.36459434D-03 -0.30283751D-03 -0.16084436D-03 -0.41486452D-04  0.42646662D-07
 -0.50929286D-19 -0.67085300D-19 -0.74010801D-19 -0.61474478D-19 -0.32650588D-19
 -0.84215392D-20  0.86570560D-23  0.68506253D-03  0.90238110D-03  0.99553775D-03
  0.82690853D-03  0.43919121D-03  0.11328022D-03 -0.11644822D-06  0.20555018D-03
  0.26987232D-03  0.30726949D-03  0.26018318D-03  0.14904294D-03  0.33902099D-04
 -0.15868048D-04  0.81878060D-18  0.10749989D-17  0.12239653D-17  0.10364036D-17
  0.59369187D-18  0.13504430D-18 -0.63208166D-19 -0.55022464D-03 -0.72240462D-03
 -0.82251080D-03 -0.69646836D-03 -0.39896389D-03 -0.90750444D-04  0.42476202D-04
  0.25714453D-04 -0.11146458D-18 -0.51411102D-04 -0.37498366D-04 -0.35800482D-19
 -0.68804988D-04 -0.12620826D-05  0.89121357D-20 -0.13576193D-05 -0.54377991D-05
  0.70091439D-05 -0.15713448D-05 -0.51639254D-19 -0.27224334D-04 -0.33431018D-18
 -0.22123921D-06 -0.18214079D-05  0.20426471D-05  0.20889202D-19  0.22974907D-04
  0.14289690D-18 -0.25108261D-05 -0.30442904D-05  0.55551165D-05 -0.43872338D-20
  0.15504476D-04  0.12157152D-19 -0.12039236D-04  0.26257364D-19 -0.72871435D-05
  0.37273290D-04 -0.22430218D-19  0.40255970D-04 -0.11555809D-05 -0.56341875D-19
 -0.18394540D-04  0.93306470D-20  0.58255960D-05  0.22969139D-19 -0.13571253D-06
 -0.99695083D-05  0.37363814D-19 -0.83067185D-05 -0.75072798D-05 -0.10627123D-18
  0.87138561D-05 -0.22439110D-19  0.61606925D+00  0.11526679D+01  0.19915548D+01
  0.32285427D+01  0.49027996D+01  0.68143149D+01  0.81012373D+01  0.72159591D+01
  0.35822182D+01  0.57715274D+00  0.88608319D-02  0.15834220D-02  0.59170008D-04
 -0.10534694D-02 -0.19677297D-02 -0.34150903D-02 -0.55413036D-02 -0.85772799D-02
 -0.12277597D-01 -0.16026099D-01 -0.17078483D-01 -0.12766513D-01 -0.67392152D-03
  0.86595570D-02  0.51447718D-02 -0.19289037D-04  0.40478237D-03  0.75546798D-03
  0.13129369D-02  0.21278844D-02  0.33049376D-02  0.47344185D-02  0.62513585D-02
  0.67595729D-02  0.52995928D-02  0.26370598D-03 -0.45430909D-02 -0.47029413D-02
  0.21281475D-02 -0.28650123D-02 -0.12751167D-02 -0.32917060D-03 -0.17429184D-02
 -0.22958147D-02 -0.25328214D-02 -0.21037993D-02 -0.11173789D-02 -0.28820462D-03
  0.29626455D-06  0.86795318D-17  0.11432891D-16  0.12613157D-16  0.10476677D-16
  0.55644177D-17  0.14352256D-17 -0.14753632D-20  0.72695977D-03  0.95756916D-03
  0.10564231D-02  0.87748083D-03  0.46605138D-03  0.12020825D-03 -0.12356999D-06
  0.11849112D-02  0.15557015D-02  0.17712807D-02  0.14998477D-02  0.85917051D-03
  0.19543148D-03 -0.91472690D-04 -0.80568420D-17 -0.10578043D-16 -0.12043880D-16
 -0.10198263D-16 -0.58419577D-17 -0.13288427D-17  0.62197152D-18 -0.53066872D-03
 -0.69672913D-03 -0.79327737D-03 -0.67171470D-03 -0.38478404D-03 -0.87525020D-04
  0.40966526D-04  0.71973710D-05 -0.11851365D-17 -0.14365468D-04  0.54737526D-03
 -0.16425866D-18 -0.18295344D-03  0.14525902D-04  0.14684448D-19 -0.48014729D-05
  0.19594656D-03 -0.13197174D-03 -0.63974811D-04 -0.64312829D-18 -0.18499920D-03
  0.19760400D-18 -0.11540864D-03  0.74357621D-04  0.41051018D-04  0.32330416D-19
  0.10572999D-03 -0.39361785D-19 -0.67771279D-04  0.38511104D-04  0.29260175D-04
  0.30545330D-19  0.71378103D-04 -0.32677554D-20 -0.53207075D-04 -0.10403159D-18
 -0.25827294D-04  0.11422780D-03  0.29112026D-18  0.11006860D-03  0.45393428D-04
  0.20974504D-19 -0.32586717D-04  0.15154682D-18  0.42472935D-04  0.16119896D-19
  0.20408956D-04 -0.88152172D-04 -0.53630648D-19 -0.87764661D-04 -0.39266632D-04
  0.52709615D-20  0.26537792D-04  0.26246003D-19
MO    2     MO 0.0        OCC NO =    2.0000000  ORB. ENERGY = -101.231131
 -0.69389938D-04 -0.12972046D-03 -0.22419745D-03 -0.36262932D-03 -0.54809298D-03
 -0.75481397D-03 -0.88220253D-03 -0.76228954D-03 -0.35553456D-03 -0.48273912D-04
 -0.12926564D-06 -0.25356575D-06 -0.11576336D-07  0.12710446D-03  0.23737300D-03
  0.41176019D-03  0.66765492D-03  0.10279308D-02  0.14640043D-02  0.18825195D-02
  0.19760853D-02  0.13972323D-02 -0.30942295D-04 -0.10039295D-02 -0.55279081D-03
  0.23377430D-05 -0.70201382D-04 -0.13100616D-03 -0.22754202D-03 -0.36856759D-03
 -0.56932907D-03 -0.81166413D-03 -0.10557099D-02 -0.11251022D-02 -0.83446489D-03
  0.25973793D-04  0.75598172D-03  0.74060116D-03 -0.34590467D-03 -0.46041632D-05
  0.88985425D-03  0.22676961D-03  0.95183961D-03  0.12487617D-02  0.13697013D-02
  0.11270119D-02  0.59418297D-03  0.15457833D-03 -0.17105668D-06  0.10108040D-14
  0.13261199D-14  0.14545514D-14  0.11968279D-14  0.63099134D-15  0.16415412D-15
 -0.18165327D-18  0.40030756D-02  0.52518172D-02  0.57604430D-02  0.47397838D-02
  0.24989078D-02  0.65009769D-03 -0.71939937D-06 -0.81346444D-03 -0.10680838D-02
 -0.12016663D-02 -0.10124947D-02 -0.56637532D-03 -0.14096966D-03  0.64655481D-04
 -0.14708390D-14 -0.19312206D-14 -0.21727534D-14 -0.18307090D-14 -0.10240729D-14
 -0.25488967D-15  0.11690468D-15 -0.35110041D-02 -0.46099698D-02 -0.51865268D-02
 -0.43700410D-02 -0.24445397D-02 -0.60844095D-03  0.27906033D-03 -0.64733632D-04
  0.25567414D-17 -0.22929740D-03  0.31696426D-04  0.47670219D-19  0.45278605D-03
  0.17523801D-05  0.40958644D-20  0.11623800D-04 -0.57481955D-04 -0.75418004D-04
  0.13289996D-03 -0.21661820D-19  0.28768700D-04 -0.88725693D-19  0.12008480D-04
  0.20771940D-04 -0.32780420D-04  0.89463302D-19 -0.25179089D-04  0.16544660D-18
 -0.19180028D-04 -0.18693939D-04  0.37873966D-04 -0.49770428D-21  0.27367440D-04
 -0.21599992D-19  0.43533634D-06 -0.55370919D-19  0.22163992D-04 -0.10874269D-04
  0.11135967D-18 -0.67134696D-04  0.95682601D-05  0.54753090D-19  0.64272034D-06
 -0.23034140D-20  0.85272279D-06  0.73917947D-20  0.73414572D-05 -0.56789180D-06
  0.40648035D-20  0.18425621D-05 -0.19902766D-05 -0.26240188D-19 -0.23866934D-04
 -0.39266788D-20  0.61606706D+00  0.11526638D+01  0.19915478D+01  0.32285312D+01
  0.49027822D+01  0.68142907D+01  0.81012086D+01  0.72159335D+01  0.35822054D+01
  0.57715069D+00  0.88608005D-02  0.15834163D-02  0.59169798D-04 -0.10497533D-02
 -0.19607884D-02 -0.34030434D-02 -0.55217565D-02 -0.85470233D-02 -0.12234287D-01
 -0.15969566D-01 -0.17018238D-01 -0.12721478D-01 -0.67154424D-03  0.86290101D-02
  0.51266234D-02 -0.19220994D-04  0.40291632D-03  0.75198526D-03  0.13068842D-02
  0.21180748D-02  0.32897018D-02  0.47125928D-02  0.62225396D-02  0.67284112D-02
  0.52751616D-02  0.26249030D-03 -0.45221472D-02 -0.46812607D-02  0.21183367D-02
 -0.28583441D-02 -0.12630252D-02 -0.32743913D-03  0.24291586D-04  0.31997471D-04
  0.35300706D-04  0.29321294D-04  0.15573252D-04  0.40167958D-05 -0.41291296D-08
 -0.16789760D-16 -0.22115882D-16 -0.24398999D-16 -0.20266173D-16 -0.10763857D-16
 -0.27763127D-17  0.28539550D-20 -0.18170483D-02 -0.23934604D-02 -0.26405476D-02
 -0.21932783D-02 -0.11649034D-02 -0.30046256D-03  0.30886530D-06 -0.46566251D-04
 -0.61138073D-04 -0.69610194D-04 -0.58943053D-04 -0.33764850D-04 -0.76803320D-05
  0.35948181D-05  0.93647687D-17  0.12295255D-16  0.13999052D-16  0.11853822D-16
  0.67903259D-17  0.15445636D-17 -0.72294075D-18  0.12379906D-02  0.16253909D-02
  0.18506272D-02  0.15670351D-02  0.89765803D-03  0.20418606D-03 -0.95570313D-04
 -0.77175747D-05  0.18073547D-17  0.55679555D-05  0.20550574D-04  0.21309803D-18
  0.57248276D-03  0.56264827D-06 -0.17171063D-19  0.15230964D-04 -0.93894821D-04
 -0.13211461D-03  0.22600943D-03  0.14147217D-19  0.32954181D-04  0.11711068D-18
  0.56751356D-04  0.74702158D-04 -0.13145351D-03 -0.74732973D-20 -0.23240060D-04
 -0.49311190D-19  0.40686945D-04  0.38428650D-04 -0.79115595D-04 -0.17691073D-20
 -0.99036943D-05 -0.53317476D-19  0.23896260D-05  0.21006533D-19 -0.72504202D-04
  0.15147051D-04  0.14209900D-19  0.10056381D-03 -0.22315929D-04 -0.77229500D-19
  0.11694880D-03  0.41854413D-21 -0.34887192D-05 -0.33701979D-19  0.56751962D-04
 -0.80492282D-05 -0.31779712D-19 -0.78821653D-04  0.18515386D-04  0.13288565D-18
 -0.91434232D-04  0.18013353D-19  0.38060581D-01  0.71211493D-01  0.12303768D+00
  0.19945844D+00  0.30289355D+00  0.42098641D+00  0.50049211D+00  0.44579988D+00
  0.22130841D+00  0.35656330D-01  0.54741965D-03  0.97823353D-04  0.36555061D-05
 -0.34937730D-04 -0.65258663D-04 -0.11325958D-03 -0.18377426D-03 -0.28446073D-03
 -0.40717970D-03 -0.53149669D-03 -0.56639841D-03 -0.42339431D-03 -0.22350234D-04
  0.28718941D-03  0.17062350D-03 -0.63971022D-06  0.98663683D-05  0.18414155D-04
  0.32002180D-04  0.51866120D-04  0.80556204D-04  0.11539909D-03  0.15237374D-03
  0.16476121D-03  0.12917493D-03  0.64277017D-05 -0.11073557D-03 -0.11463185D-03
  0.51872532D-04 -0.12293507D-03  0.19372615D-04 -0.62879095D-05  0.33786873D-03
  0.44504894D-03  0.49099324D-03  0.40782632D-03  0.21660647D-03  0.55869126D-04
 -0.57431562D-07  0.14793235D-17  0.19486010D-17  0.21497634D-17  0.17856256D-17
  0.94838914D-18  0.24461722D-18 -0.25145819D-21 -0.39287743D-03 -0.51750774D-03
 -0.57093228D-03 -0.47422488D-03 -0.25187235D-03 -0.64965227D-04  0.66782045D-07
 -0.29658436D-03 -0.38939352D-03 -0.44335317D-03 -0.37541326D-03 -0.21505117D-03
 -0.48916680D-04  0.22895698D-04 -0.16352492D-18 -0.21469623D-18 -0.24444745D-18
 -0.20698806D-18 -0.11857073D-18 -0.26970728D-19  0.12623785D-19  0.32594675D-03
  0.42794419D-03  0.48724594D-03  0.41257985D-03  0.23634163D-03  0.53759520D-04
 -0.25162414D-04 -0.38210909D-04 -0.70027857D-19  0.40950890D-04 -0.10338115D-04
  0.17381329D-19 -0.33180044D-04  0.70056286D-07 -0.60909503D-20 -0.12939133D-05
  0.13066996D-04 -0.93139246D-05 -0.37530710D-05  0.65368054D-18 -0.45969847D-04
 -0.12320152D-18 -0.48196186D-05  0.73917966D-05 -0.25721780D-05 -0.85067341D-19
  0.28819213D-04  0.37678844D-19  0.13673610D-05  0.17112955D-05 -0.30786566D-05
  0.19847099D-20  0.15049275D-04 -0.68803987D-21 -0.86512075D-05  0.52719715D-19
 -0.25541934D-04  0.10305132D-04 -0.17782564D-18  0.38964765D-04  0.15648490D-04
  0.19666491D-19  0.37661038D-04 -0.19472828D-18  0.20671811D-05 -0.26898955D-20
  0.90258391D-05 -0.63341299D-05  0.24002099D-19 -0.17848027D-04  0.13258660D-06
 -0.15932413D-19 -0.92294904D-05 -0.72482101D-20
MO    3     MO 0.0        OCC NO =    2.0000000  ORB. ENERGY =  -88.649990
  0.58508621D+00  0.10937847D+01  0.18904014D+01  0.30576394D+01  0.46214430D+01
  0.63644853D+01  0.74386078D+01  0.64275183D+01  0.29978174D+01  0.40703884D+00
  0.10899497D-02  0.21380308D-02  0.97610037D-04 -0.10914235D-02 -0.20382800D-02
 -0.35357120D-02 -0.57330347D-02 -0.88266596D-02 -0.12571146D-01 -0.16164862D-01
 -0.16968295D-01 -0.11997787D-01  0.26569601D-03  0.86205648D-02  0.47467169D-02
 -0.20073786D-04  0.43948185D-03  0.82013814D-03  0.14244818D-02  0.23073444D-02
  0.35641719D-02  0.50812626D-02  0.66090628D-02  0.70434794D-02  0.52240022D-02
 -0.16260379D-03 -0.47326738D-02 -0.46363869D-02  0.21654677D-02 -0.27230182D-02
 -0.13384702D-02 -0.34637827D-03  0.22661336D-02  0.29730439D-02  0.32609760D-02
  0.26831827D-02  0.14146270D-02  0.36801909D-03 -0.40725064D-06  0.25461709D-16
  0.33404376D-16  0.36639509D-16  0.30147569D-16  0.15894395D-16  0.41349702D-17
 -0.45757661D-20  0.15583815D-02  0.20445117D-02  0.22425177D-02  0.18451791D-02
  0.97281491D-03  0.25308046D-03 -0.28005933D-06 -0.14153271D-02 -0.18583331D-02
 -0.20907500D-02 -0.17616150D-02 -0.98542273D-03 -0.24526971D-03  0.11249251D-03
 -0.50898519D-17 -0.66830065D-17 -0.75188330D-17 -0.63351852D-17 -0.35438138D-17
 -0.88204804D-18  0.40454973D-18 -0.97331763D-03 -0.12779720D-02 -0.14378046D-02
 -0.12114591D-02 -0.67767324D-03 -0.16867149D-03  0.77360873D-04 -0.78101484D-04
 -0.16660875D-17 -0.53705497D-04 -0.34954220D-03 -0.47076336D-19 -0.24039001D-03
 -0.10034806D-04  0.35164709D-20 -0.69012141D-05 -0.30992552D-04  0.87829237D-04
 -0.56836685D-04  0.21770656D-19  0.67444193D-04  0.16363674D-19  0.62365028D-04
 -0.17489674D-03  0.11253171D-03  0.14718201D-19 -0.13092350D-03  0.22123348D-20
 -0.16724322D-04  0.37902837D-04 -0.21178515D-04 -0.21457150D-20  0.11624412D-04
 -0.13469589D-20  0.25702968D-04 -0.14790278D-19  0.45063771D-04 -0.71158295D-04
  0.19103834D-19 -0.86254169D-04 -0.59506090D-05  0.25267001D-19 -0.48937143D-04
 -0.11896608D-19 -0.15714518D-04 -0.83175732D-21 -0.30647477D-04  0.39928113D-04
  0.72005594D-21  0.64482703D-04  0.72154400D-05  0.17752160D-20  0.27459727D-04
 -0.21315884D-20 -0.63150519D-04 -0.11815486D-03 -0.20414543D-03 -0.33094355D-03
 -0.50256418D-03 -0.69850512D-03 -0.83042182D-03 -0.73967588D-03 -0.36719726D-03
 -0.59161361D-04 -0.90828448D-06 -0.16230954D-06 -0.60652544D-08  0.11029709D-03
  0.20601913D-03  0.35755620D-03  0.58016840D-03  0.89803177D-03  0.12854509D-02
  0.16779150D-02  0.17880984D-02  0.13366398D-02  0.70558842D-04 -0.90664610D-03
 -0.53865195D-03  0.20195410D-05 -0.57669264D-04 -0.10763137D-03 -0.18705385D-03
 -0.30315926D-03 -0.47085380D-03 -0.67451166D-03 -0.89062979D-03 -0.96303500D-03
 -0.75503192D-03 -0.37570139D-04  0.64725325D-03  0.67002711D-03 -0.30319675D-03
  0.11636367D-03  0.57414449D-03  0.25659612D-03 -0.29942863D-03 -0.39441471D-03
 -0.43513182D-03 -0.36142699D-03 -0.19196266D-03 -0.49512768D-04  0.50897443D-07
 -0.29166605D-18 -0.38418964D-18 -0.42385118D-18 -0.35205712D-18 -0.18698609D-18
 -0.48229167D-19  0.49577944D-22 -0.11140092D-02 -0.14674001D-02 -0.16188860D-02
 -0.13446709D-02 -0.71418740D-03 -0.18420976D-03  0.18936138D-06  0.27054279D-03
  0.35520285D-03  0.40442458D-03  0.34245012D-03  0.19616862D-03  0.44621554D-04
 -0.20885343D-04  0.22303493D-18  0.29282851D-18  0.33340681D-18  0.28231519D-18
  0.16172101D-18  0.36785919D-19 -0.17217835D-19  0.10720133D-02  0.14074749D-02
  0.16025137D-02  0.13569428D-02  0.77730906D-03  0.17681084D-03 -0.82757206D-04
  0.12973737D-04  0.37802476D-19 -0.36077033D-05  0.82775778D-06  0.34081388D-20
 -0.29770693D-03 -0.86548952D-06 -0.56559062D-21 -0.13260262D-04 -0.28974212D-04
 -0.12151740D-04  0.41125951D-04 -0.18537587D-20  0.42120644D-05 -0.87559365D-19
 -0.74293544D-05 -0.15448929D-04  0.22878284D-04  0.63985812D-21  0.17069393D-04
  0.37401380D-19 -0.14924273D-04 -0.15659620D-04  0.30583892D-04  0.83819634D-21
 -0.29068870D-05 -0.11700259D-20  0.10364055D-04 -0.10945242D-19 -0.74041385D-05
 -0.72033876D-05 -0.72753522D-20  0.44022508D-05 -0.23888776D-04  0.40111079D-19
  0.17810165D-04  0.10539760D-19 -0.16159828D-05  0.76673689D-20  0.12262906D-04
  0.17056158D-05  0.63402459D-20 -0.18176116D-04  0.31423325D-05 -0.29342353D-19
 -0.18612602D-04 -0.56882398D-20 -0.63150025D-04 -0.11815394D-03 -0.20414383D-03
 -0.33094096D-03 -0.50256025D-03 -0.69849965D-03 -0.83041531D-03 -0.73967009D-03
 -0.36719438D-03 -0.59160898D-04 -0.90827737D-06 -0.16230827D-06 -0.60652069D-08
  0.11029619D-03  0.20601744D-03  0.35755326D-03  0.58016364D-03  0.89802441D-03
  0.12854404D-02  0.16779012D-02  0.17880837D-02  0.13366289D-02  0.70558264D-04
 -0.90663867D-03 -0.53864753D-03  0.20195244D-05 -0.57668759D-04 -0.10763043D-03
 -0.18705221D-03 -0.30315661D-03 -0.47084968D-03 -0.67450575D-03 -0.89062199D-03
 -0.96302656D-03 -0.75502531D-03 -0.37569810D-04  0.64724758D-03  0.67002124D-03
 -0.30319409D-03  0.11636352D-03  0.57414243D-03  0.25659514D-03 -0.11473800D-02
 -0.15113570D-02 -0.16673808D-02 -0.13849514D-02 -0.73558135D-03 -0.18972789D-03
  0.19503382D-06 -0.31028912D-18 -0.40872041D-18 -0.45091436D-18 -0.37453621D-18
 -0.19892528D-18 -0.51308632D-19  0.52743530D-22  0.11899297D-03  0.15674045D-03
  0.17292144D-03  0.14363113D-03  0.76285982D-04  0.19676380D-04 -0.20226650D-07
  0.10978320D-02  0.14413730D-02  0.16411092D-02  0.13896238D-02  0.79603004D-03
  0.18106922D-03 -0.84750359D-04  0.23276453D-18  0.30560277D-18  0.34795123D-18
  0.29463081D-18  0.16877587D-18  0.38390656D-19 -0.17968940D-19 -0.13094026D-03
 -0.17191497D-03 -0.19573784D-03 -0.16574276D-03 -0.94943836D-04 -0.21596429D-04
  0.10108317D-04  0.12710204D-05  0.39783365D-19  0.13405903D-04 -0.27769994D-03
  0.40214868D-20  0.10729282D-03 -0.12692014D-04 -0.53281765D-21  0.39363437D-05
  0.33559761D-04 -0.12152398D-04 -0.21407364D-04 -0.82357886D-19 -0.43710832D-04
  0.29020179D-19  0.24700310D-04 -0.15448358D-04 -0.92519517D-05  0.34902645D-19
 -0.75526598D-05 -0.12539788D-19  0.23786314D-04 -0.15659420D-04 -0.81268934D-05
 -0.12055333D-20 -0.32572228D-04  0.12815467D-20 -0.12480681D-04 -0.10803487D-19
  0.45490209D-05  0.14053750D-04  0.36555782D-19 -0.54756278D-06  0.23388294D-04
 -0.41453209D-20 -0.13099500D-04 -0.23107412D-19  0.87186828D-05  0.74752803D-20
  0.41690686D-05 -0.16770665D-04 -0.25947764D-19 -0.20759867D-04 -0.93853829D-05
  0.35219232D-20  0.82526615D-05  0.19138191D-19
MO    4     MO 0.0        OCC NO =    2.0000000  ORB. ENERGY =   -9.446005
 -0.13351242D-04 -0.24959372D-04 -0.43137587D-04 -0.69773112D-04 -0.10545797D-03
 -0.14523293D-03 -0.16974363D-03 -0.14667130D-03 -0.68408017D-04 -0.92883308D-05
 -0.24871861D-07 -0.48788310D-07 -0.22273902D-08  0.25476016D-04  0.47577546D-04
  0.82530615D-04  0.13382054D-03  0.20603195D-03  0.29343578D-03  0.37732032D-03
  0.39607406D-03  0.28005243D-03 -0.62018782D-05 -0.20122129D-03 -0.11079790D-03
  0.46856245D-06 -0.15398240D-04 -0.28735394D-04 -0.49909940D-04 -0.80843028D-04
 -0.12487882D-03 -0.17803352D-03 -0.23156346D-03 -0.24678422D-03 -0.18303473D-03
  0.56971914D-05  0.16581993D-03  0.16244630D-03 -0.75872055D-04 -0.77979888D-04