 Molden2AIM, Version 4.0.0 (06/02/2016)           Time: Thu Jun 28 21:55:03 2018
GAUSSIAN             25 MOL ORBITALS    431 PRIMITIVES        5 NUCLEI
  O    1    (CENTRE  1)  -0.13137754  0.17496218  1.90613084  CHARGE =  8.0
  Cl   2    (CENTRE  2)  -0.63952300  2.61460617  0.74765691  CHARGE = 17.0
  F    3    (CENTRE  3)   2.23342951  3.99782333  0.82854664  CHARGE =  9.0
  O    4    (CENTRE  4)  -1.17479360  2.57142782 -1.94745915  CHARGE =  8.0
  O    5    (CENTRE  5)  -2.15287616  4.35594344  2.24087314  CHARGE =  8.0
CENTRE ASSIGNMENTS    1  1  1  1  1  1  1  1  1  1  1  1  1  1  1  1  1  1  1  1
CENTRE ASSIGNMENTS    1  1  1  1  1  1  1  1  1  1  1  1  1  1  1  1  1  1  1  1
CENTRE ASSIGNMENTS    1  1  1  1  1  1  1  1  1  1  1  1  1  1  1  1  1  1  1  1
CENTRE ASSIGNMENTS    1  1  1  1  1  1  1  1  1  1  1  1  1  1  1  2  2  2  2  2
CENTRE ASSIGNMENTS    2  2  2  2  2  2  2  2  2  2  2  2  2  2  2  2  2  2  2  2
CENTRE ASSIGNMENTS    2  2  2  2  2  2  2  2  2  2  2  2  2  2  2  2  2  2  2  2
CENTRE ASSIGNMENTS    2  2  2  2  2  2  2  2  2  2  2  2  2  2  2  2  2  2  2  2
CENTRE ASSIGNMENTS    2  2  2  2  2  2  2  2  2  2  2  2  2  2  2  2  2  2  2  2
CENTRE ASSIGNMENTS    2  2  2  2  2  2  2  2  2  2  2  2  2  2  2  2  2  2  2  2
CENTRE ASSIGNMENTS    2  2  2  2  2  2  2  2  2  2  2  2  2  2  2  2  2  2  2  2
CENTRE ASSIGNMENTS    2  2  2  2  2  2  3  3  3  3  3  3  3  3  3  3  3  3  3  3
CENTRE ASSIGNMENTS    3  3  3  3  3  3  3  3  3  3  3  3  3  3  3  3  3  3  3  3
CENTRE ASSIGNMENTS    3  3  3  3  3  3  3  3  3  3  3  3  3  3  3  3  3  3  3  3
CENTRE ASSIGNMENTS    3  3  3  3  3  3  3  3  3  3  3  3  3  3  3  3  3  3  3  3
CENTRE ASSIGNMENTS    3  4  4  4  4  4  4  4  4  4  4  4  4  4  4  4  4  4  4  4
CENTRE ASSIGNMENTS    4  4  4  4  4  4  4  4  4  4  4  4  4  4  4  4  4  4  4  4
CENTRE ASSIGNMENTS    4  4  4  4  4  4  4  4  4  4  4  4  4  4  4  4  4  4  4  4
CENTRE ASSIGNMENTS    4  4  4  4  4  4  4  4  4  4  4  4  4  4  4  4  5  5  5  5
CENTRE ASSIGNMENTS    5  5  5  5  5  5  5  5  5  5  5  5  5  5  5  5  5  5  5  5
CENTRE ASSIGNMENTS    5  5  5  5  5  5  5  5  5  5  5  5  5  5  5  5  5  5  5  5
CENTRE ASSIGNMENTS    5  5  5  5  5  5  5  5  5  5  5  5  5  5  5  5  5  5  5  5
CENTRE ASSIGNMENTS    5  5  5  5  5  5  5  5  5  5  5
TYPE ASSIGNMENTS      1  1  1  1  1  1  1  1  1  1  1  1  1  1  1  1  1  1  1  2
TYPE ASSIGNMENTS      2  2  3  3  3  4  4  4  2  3  4  2  3  4  2  3  4  5  6  7
TYPE ASSIGNMENTS      8  9 10  5  6  7  8  9 10  5  6  7  8  9 10 11 12 13 17 14
TYPE ASSIGNMENTS     15 18 19 16 20 11 12 13 17 14 15 18 19 16 20  1  1  1  1  1
TYPE ASSIGNMENTS      1  1  1  1  1  1  1  1  1  1  1  1  1  1  1  1  1  1  1  1
TYPE ASSIGNMENTS      1  1  1  1  1  1  1  1  1  1  1  1  1  1  1  1  1  2  2  2
TYPE ASSIGNMENTS      2  2  2  2  3  3  3  3  3  3  3  4  4  4  4  4  4  4  2  2
TYPE ASSIGNMENTS      2  2  2  2  2  3  3  3  3  3  3  3  4  4  4  4  4  4  4  2
TYPE ASSIGNMENTS      3  4  2  3  4  2  3  4  5  6  7  8  9 10  5  6  7  8  9 10
TYPE ASSIGNMENTS      5  6  7  8  9 10 11 12 13 17 14 15 18 19 16 20 11 12 13 17
TYPE ASSIGNMENTS     14 15 18 19 16 20  1  1  1  1  1  1  1  1  1  1  1  1  1  1
TYPE ASSIGNMENTS      1  1  1  1  1  2  2  2  3  3  3  4  4  4  2  3  4  2  3  4
TYPE ASSIGNMENTS      2  3  4  5  6  7  8  9 10  5  6  7  8  9 10  5  6  7  8  9
TYPE ASSIGNMENTS     10 11 12 13 17 14 15 18 19 16 20 11 12 13 17 14 15 18 19 16
TYPE ASSIGNMENTS     20  1  1  1  1  1  1  1  1  1  1  1  1  1  1  1  1  1  1  1
TYPE ASSIGNMENTS      2  2  2  3  3  3  4  4  4  2  3  4  2  3  4  2  3  4  5  6
TYPE ASSIGNMENTS      7  8  9 10  5  6  7  8  9 10  5  6  7  8  9 10 11 12 13 17
TYPE ASSIGNMENTS     14 15 18 19 16 20 11 12 13 17 14 15 18 19 16 20  1  1  1  1
TYPE ASSIGNMENTS      1  1  1  1  1  1  1  1  1  1  1  1  1  1  1  2  2  2  3  3
TYPE ASSIGNMENTS      3  4  4  4  2  3  4  2  3  4  2  3  4  5  6  7  8  9 10  5
TYPE ASSIGNMENTS      6  7  8  9 10  5  6  7  8  9 10 11 12 13 17 14 15 18 19 16
TYPE ASSIGNMENTS     20 11 12 13 17 14 15 18 19 16 20
EXPONENTS  0.1533000D+05 0.2299000D+04 0.5224000D+03 0.1473000D+03 0.4755000D+02
EXPONENTS  0.1676000D+02 0.6207000D+01 0.6882000D+00 0.1533000D+05 0.2299000D+04
EXPONENTS  0.5224000D+03 0.1473000D+03 0.4755000D+02 0.1676000D+02 0.6207000D+01
EXPONENTS  0.6882000D+00 0.1752000D+01 0.2384000D+00 0.7376000D-01 0.3446000D+02
EXPONENTS  0.7749000D+01 0.2280000D+01 0.3446000D+02 0.7749000D+01 0.2280000D+01
EXPONENTS  0.3446000D+02 0.7749000D+01 0.2280000D+01 0.7156000D+00 0.7156000D+00
EXPONENTS  0.7156000D+00 0.2140000D+00 0.2140000D+00 0.2140000D+00 0.5974000D-01
EXPONENTS  0.5974000D-01 0.5974000D-01 0.2314000D+01 0.2314000D+01 0.2314000D+01
EXPONENTS  0.2314000D+01 0.2314000D+01 0.2314000D+01 0.6450000D+00 0.6450000D+00
EXPONENTS  0.6450000D+00 0.6450000D+00 0.6450000D+00 0.6450000D+00 0.2140000D+00
EXPONENTS  0.2140000D+00 0.2140000D+00 0.2140000D+00 0.2140000D+00 0.2140000D+00
EXPONENTS  0.1428000D+01 0.1428000D+01 0.1428000D+01 0.1428000D+01 0.1428000D+01
EXPONENTS  0.1428000D+01 0.1428000D+01 0.1428000D+01 0.1428000D+01 0.1428000D+01
EXPONENTS  0.5000000D+00 0.5000000D+00 0.5000000D+00 0.5000000D+00 0.5000000D+00
EXPONENTS  0.5000000D+00 0.5000000D+00 0.5000000D+00 0.5000000D+00 0.5000000D+00
EXPONENTS  0.4561000D+06 0.6833000D+05 0.1555000D+05 0.4405000D+04 0.1439000D+04
EXPONENTS  0.5204000D+03 0.2031000D+03 0.8396000D+02 0.3620000D+02 0.1583000D+02
EXPONENTS  0.6334000D+01 0.2694000D+01 0.4313000D+00 0.4561000D+06 0.6833000D+05
EXPONENTS  0.1555000D+05 0.4405000D+04 0.1439000D+04 0.5204000D+03 0.2031000D+03
EXPONENTS  0.8396000D+02 0.3620000D+02 0.1583000D+02 0.6334000D+01 0.2694000D+01
EXPONENTS  0.4313000D+00 0.4561000D+06 0.6833000D+05 0.1555000D+05 0.4405000D+04
EXPONENTS  0.1439000D+04 0.5204000D+03 0.2031000D+03 0.8396000D+02 0.3620000D+02
EXPONENTS  0.1583000D+02 0.6334000D+01 0.2694000D+01 0.4313000D+00 0.9768000D+00
EXPONENTS  0.1625000D+00 0.5910000D-01 0.6633000D+03 0.1568000D+03 0.4998000D+02
EXPONENTS  0.1842000D+02 0.7240000D+01 0.2922000D+01 0.3818000D+00 0.6633000D+03
EXPONENTS  0.1568000D+03 0.4998000D+02 0.1842000D+02 0.7240000D+01 0.2922000D+01
EXPONENTS  0.3818000D+00 0.6633000D+03 0.1568000D+03 0.4998000D+02 0.1842000D+02
EXPONENTS  0.7240000D+01 0.2922000D+01 0.3818000D+00 0.6633000D+03 0.1568000D+03
EXPONENTS  0.4998000D+02 0.1842000D+02 0.7240000D+01 0.2922000D+01 0.3818000D+00
EXPONENTS  0.6633000D+03 0.1568000D+03 0.4998000D+02 0.1842000D+02 0.7240000D+01
EXPONENTS  0.2922000D+01 0.3818000D+00 0.6633000D+03 0.1568000D+03 0.4998000D+02
EXPONENTS  0.1842000D+02 0.7240000D+01 0.2922000D+01 0.3818000D+00 0.1022000D+01
EXPONENTS  0.1022000D+01 0.1022000D+01 0.1301000D+00 0.1301000D+00 0.1301000D+00
EXPONENTS  0.4190000D-01 0.4190000D-01 0.4190000D-01 0.1046000D+01 0.1046000D+01
EXPONENTS  0.1046000D+01 0.1046000D+01 0.1046000D+01 0.1046000D+01 0.3440000D+00
EXPONENTS  0.3440000D+00 0.3440000D+00 0.3440000D+00 0.3440000D+00 0.3440000D+00
EXPONENTS  0.1350000D+00 0.1350000D+00 0.1350000D+00 0.1350000D+00 0.1350000D+00
EXPONENTS  0.1350000D+00 0.7060000D+00 0.7060000D+00 0.7060000D+00 0.7060000D+00
EXPONENTS  0.7060000D+00 0.7060000D+00 0.7060000D+00 0.7060000D+00 0.7060000D+00
EXPONENTS  0.7060000D+00 0.3120000D+00 0.3120000D+00 0.3120000D+00 0.3120000D+00
EXPONENTS  0.3120000D+00 0.3120000D+00 0.3120000D+00 0.3120000D+00 0.3120000D+00
EXPONENTS  0.3120000D+00 0.1950000D+05 0.2923000D+04 0.6645000D+03 0.1875000D+03
EXPONENTS  0.6062000D+02 0.2142000D+02 0.7950000D+01 0.8815000D+00 0.1950000D+05
EXPONENTS  0.2923000D+04 0.6645000D+03 0.1875000D+03 0.6062000D+02 0.2142000D+02
EXPONENTS  0.7950000D+01 0.8815000D+00 0.2257000D+01 0.3041000D+00 0.9158000D-01
EXPONENTS  0.4388000D+02 0.9926000D+01 0.2930000D+01 0.4388000D+02 0.9926000D+01
EXPONENTS  0.2930000D+01 0.4388000D+02 0.9926000D+01 0.2930000D+01 0.9132000D+00
EXPONENTS  0.9132000D+00 0.9132000D+00 0.2672000D+00 0.2672000D+00 0.2672000D+00
EXPONENTS  0.7361000D-01 0.7361000D-01 0.7361000D-01 0.3107000D+01 0.3107000D+01
EXPONENTS  0.3107000D+01 0.3107000D+01 0.3107000D+01 0.3107000D+01 0.8550000D+00
EXPONENTS  0.8550000D+00 0.8550000D+00 0.8550000D+00 0.8550000D+00 0.8550000D+00
EXPONENTS  0.2920000D+00 0.2920000D+00 0.2920000D+00 0.2920000D+00 0.2920000D+00
EXPONENTS  0.2920000D+00 0.1917000D+01 0.1917000D+01 0.1917000D+01 0.1917000D+01
EXPONENTS  0.1917000D+01 0.1917000D+01 0.1917000D+01 0.1917000D+01 0.1917000D+01
EXPONENTS  0.1917000D+01 0.7240000D+00 0.7240000D+00 0.7240000D+00 0.7240000D+00
EXPONENTS  0.7240000D+00 0.7240000D+00 0.7240000D+00 0.7240000D+00 0.7240000D+00
EXPONENTS  0.7240000D+00 0.1533000D+05 0.2299000D+04 0.5224000D+03 0.1473000D+03
EXPONENTS  0.4755000D+02 0.1676000D+02 0.6207000D+01 0.6882000D+00 0.1533000D+05
EXPONENTS  0.2299000D+04 0.5224000D+03 0.1473000D+03 0.4755000D+02 0.1676000D+02
EXPONENTS  0.6207000D+01 0.6882000D+00 0.1752000D+01 0.2384000D+00 0.7376000D-01
EXPONENTS  0.3446000D+02 0.7749000D+01 0.2280000D+01 0.3446000D+02 0.7749000D+01
EXPONENTS  0.2280000D+01 0.3446000D+02 0.7749000D+01 0.2280000D+01 0.7156000D+00
EXPONENTS  0.7156000D+00 0.7156000D+00 0.2140000D+00 0.2140000D+00 0.2140000D+00
EXPONENTS  0.5974000D-01 0.5974000D-01 0.5974000D-01 0.2314000D+01 0.2314000D+01
EXPONENTS  0.2314000D+01 0.2314000D+01 0.2314000D+01 0.2314000D+01 0.6450000D+00
EXPONENTS  0.6450000D+00 0.6450000D+00 0.6450000D+00 0.6450000D+00 0.6450000D+00
EXPONENTS  0.2140000D+00 0.2140000D+00 0.2140000D+00 0.2140000D+00 0.2140000D+00
EXPONENTS  0.2140000D+00 0.1428000D+01 0.1428000D+01 0.1428000D+01 0.1428000D+01
EXPONENTS  0.1428000D+01 0.1428000D+01 0.1428000D+01 0.1428000D+01 0.1428000D+01
EXPONENTS  0.1428000D+01 0.5000000D+00 0.5000000D+00 0.5000000D+00 0.5000000D+00
EXPONENTS  0.5000000D+00 0.5000000D+00 0.5000000D+00 0.5000000D+00 0.5000000D+00
EXPONENTS  0.5000000D+00 0.1533000D+05 0.2299000D+04 0.5224000D+03 0.1473000D+03
EXPONENTS  0.4755000D+02 0.1676000D+02 0.6207000D+01 0.6882000D+00 0.1533000D+05
EXPONENTS  0.2299000D+04 0.5224000D+03 0.1473000D+03 0.4755000D+02 0.1676000D+02
EXPONENTS  0.6207000D+01 0.6882000D+00 0.1752000D+01 0.2384000D+00 0.7376000D-01
EXPONENTS  0.3446000D+02 0.7749000D+01 0.2280000D+01 0.3446000D+02 0.7749000D+01
EXPONENTS  0.2280000D+01 0.3446000D+02 0.7749000D+01 0.2280000D+01 0.7156000D+00
EXPONENTS  0.7156000D+00 0.7156000D+00 0.2140000D+00 0.2140000D+00 0.2140000D+00
EXPONENTS  0.5974000D-01 0.5974000D-01 0.5974000D-01 0.2314000D+01 0.2314000D+01
EXPONENTS  0.2314000D+01 0.2314000D+01 0.2314000D+01 0.2314000D+01 0.6450000D+00
EXPONENTS  0.6450000D+00 0.6450000D+00 0.6450000D+00 0.6450000D+00 0.6450000D+00
EXPONENTS  0.2140000D+00 0.2140000D+00 0.2140000D+00 0.2140000D+00 0.2140000D+00
EXPONENTS  0.2140000D+00 0.1428000D+01 0.1428000D+01 0.1428000D+01 0.1428000D+01
EXPONENTS  0.1428000D+01 0.1428000D+01 0.1428000D+01 0.1428000D+01 0.1428000D+01
EXPONENTS  0.1428000D+01 0.5000000D+00 0.5000000D+00 0.5000000D+00 0.5000000D+00
EXPONENTS  0.5000000D+00 0.5000000D+00 0.5000000D+00 0.5000000D+00 0.5000000D+00
EXPONENTS  0.5000000D+00
MO    1     MO 0.0        OCC NO =    2.0000000  ORB. ENERGY = -101.617494
  0.54948143D-04  0.10241627D-03  0.17366406D-03  0.26284864D-03  0.32795836D-03
  0.28167249D-03  0.10813955D-03 -0.48371483D-06 -0.43860093D-04 -0.82260692D-04
 -0.14023645D-03 -0.21916227D-03 -0.29306171D-03 -0.31292158D-03 -0.19131412D-03
  0.12621744D-03  0.17057264D-03  0.42600784D-03  0.64935054D-04 -0.83613500D-04
 -0.81076969D-04 -0.54694044D-04  0.34469355D-03  0.33423680D-03  0.22547417D-03
 -0.16641922D-03 -0.16137067D-03 -0.10885970D-03  0.14927764D-04 -0.74864414D-04
  0.35357386D-04 -0.67500803D-04 -0.38723983D-04  0.78117419D-06 -0.38553643D-05
 -0.15729760D-06 -0.83151367D-06 -0.33075020D-03  0.35451979D-03 -0.23769588D-04
 -0.26059247D-03  0.15479343D-04 -0.47041440D-03  0.23743761D-03 -0.29589004D-03
  0.58452423D-04  0.20311926D-03 -0.48787208D-04  0.43304815D-03  0.32444094D-04
 -0.57795273D-04  0.25351179D-04 -0.10097977D-04 -0.77240595D-06  0.83820937D-04
 -0.83042265D-04  0.12751565D-04 -0.33396842D-04  0.12561247D-03 -0.10108398D-03
 -0.58070793D-04  0.12351432D-03  0.62829291D-04  0.15826132D-03 -0.15543299D-03
 -0.19098728D-04 -0.76355920D-04 -0.66213490D-04  0.11118316D-03  0.23024759D-03
 -0.69513650D-04 -0.53886972D-04 -0.11798328D-05  0.26815412D-03 -0.14313676D-03
  0.61773383D+00  0.11557824D+01  0.19969359D+01  0.32372660D+01  0.49160466D+01
  0.68327267D+01  0.81231264D+01  0.72354561D+01  0.35918971D+01  0.57871217D+00
  0.88847733D-02  0.15877003D-02  0.59329882D-04 -0.19155589D-02 -0.35779890D-02
 -0.62097735D-02 -0.10075939D-01 -0.15596357D-01 -0.22324767D-01 -0.29140795D-01
 -0.31054380D-01 -0.23213779D-01 -0.12254142D-02  0.15745964D-01  0.93549116D-02
 -0.35073905D-04  0.88376437D-03  0.16494189D-02  0.28665448D-02  0.46458258D-02
  0.72156949D-02  0.10336691D-01  0.13648638D-01  0.14758226D-01  0.11570640D-01
  0.57575124D-03 -0.99189642D-02 -0.10267967D-01  0.46464002D-02 -0.37914271D-02
 -0.18724241D-02 -0.17563313D-03 -0.31065010D-02 -0.40919590D-02 -0.45143893D-02
 -0.37497193D-02 -0.19915670D-02 -0.51368322D-03  0.52804889D-06 -0.14944269D-02
 -0.19684956D-02 -0.21717118D-02 -0.18038563D-02 -0.95807190D-03 -0.24711469D-03
  0.25402550D-06 -0.88654556D-04 -0.11677795D-03 -0.12883343D-03 -0.10701097D-03
 -0.56836128D-04 -0.14659695D-04  0.15069668D-07  0.29824514D-02  0.39157401D-02
  0.44583582D-02  0.37751546D-02  0.21625539D-02  0.49190599D-03 -0.23023907D-03
  0.14347919D-02  0.18837766D-02  0.21448183D-02  0.18161440D-02  0.10403572D-02
  0.23664517D-03 -0.11076296D-03  0.85064965D-04  0.11168406D-03  0.12716052D-03
  0.10767431D-03  0.61679989D-04  0.14030058D-04 -0.65668391D-05  0.42097978D-04
  0.20213601D-04  0.12324003D-05  0.83677353D-04  0.40264982D-04  0.23753990D-05
  0.50453981D-05  0.24280987D-05  0.14252209D-06 -0.27410473D-03  0.83332053D-04
  0.19077268D-03 -0.44722727D-03 -0.26929830D-04 -0.12921344D-04 -0.97052356D-04
  0.29489828D-04  0.67562528D-04 -0.15871301D-03 -0.91893278D-05 -0.44218673D-05
  0.31789209D-04 -0.96543686D-05 -0.22134841D-04  0.51859655D-04  0.31265846D-05
  0.14916492D-05  0.15636995D-03 -0.21601672D-03 -0.39080579D-03  0.50047623D-04
  0.62156864D-03  0.25597805D-03 -0.51915747D-03  0.26481529D-04  0.91643933D-03
 -0.84772995D-03 -0.67857351D-04  0.84845582D-04  0.12097445D-03 -0.11872882D-04
 -0.27382957D-03 -0.83098867D-04  0.21544494D-03  0.19292824D-04 -0.27982448D-03
  0.25263365D-03 -0.83479656D-04 -0.15560969D-03 -0.26379669D-03 -0.39946593D-03
 -0.49953355D-03 -0.43005186D-03 -0.16532763D-03  0.71639170D-06  0.53895347D-04
  0.10120592D-03  0.17233622D-03  0.26996367D-03  0.36178308D-03  0.38914648D-03
  0.23364304D-03 -0.15365349D-03  0.46370119D-04  0.43917827D-03  0.10380977D-03
  0.31743245D-04  0.31044200D-04  0.20512216D-04  0.15291349D-04  0.14954605D-04
  0.98811400D-05  0.87774549D-06  0.85841591D-06  0.56719169D-06 -0.14055455D-03
 -0.67693396D-04 -0.39232534D-05 -0.31167359D-03 -0.15001618D-03 -0.88408087D-05
 -0.12884040D-04 -0.61980688D-05 -0.36923996D-06  0.25691649D-03 -0.77928234D-04
 -0.17898826D-03  0.41995352D-03  0.24408943D-04  0.11620933D-04 -0.24964685D-04
  0.75336638D-05  0.17431021D-04 -0.40805292D-04 -0.23441823D-05 -0.10819937D-05
  0.29428532D-04 -0.89501354D-05 -0.20478397D-04  0.48108915D-04  0.28120310D-05
  0.13576939D-05 -0.21119351D-03  0.21241273D-03  0.94884728D-04  0.19958928D-04
 -0.87566954D-03 -0.96609118D-04  0.61362159D-03  0.23843136D-03 -0.18804506D-03
  0.11900268D-03  0.82864801D-04 -0.82245353D-04 -0.31232087D-04 -0.90263200D-05
  0.34409534D-03  0.34441141D-04 -0.23956808D-03 -0.97359280D-04  0.59255120D-04
 -0.32514980D-04  0.54904233D-04  0.10233443D-03  0.17352528D-03  0.26263859D-03
  0.32769628D-03  0.28144740D-03  0.10805313D-03 -0.48332828D-06 -0.43830153D-04
 -0.82204539D-04 -0.14014072D-03 -0.21901266D-03 -0.29286166D-03 -0.31270798D-03
 -0.19118352D-03  0.12613128D-03  0.17058004D-03  0.42596407D-03  0.64909761D-04
  0.65913328D-04  0.63913756D-04  0.43115842D-04  0.95881151D-06  0.92972464D-06
  0.62718675D-06  0.38623896D-03  0.37452186D-03  0.25265024D-03 -0.16955642D-04
 -0.15819929D-05 -0.82490203D-04 -0.69891672D-04 -0.33157045D-04 -0.83252552D-05
 -0.31948766D-05 -0.16739170D-05  0.16017427D-05 -0.27124818D-03 -0.17004703D-03
  0.44129521D-03 -0.16974365D-03  0.36148055D-03  0.84140524D-04  0.20591836D-03
  0.17551382D-03 -0.38143218D-03  0.70688945D-04 -0.28448986D-03 -0.51531700D-04
  0.17664605D-04  0.39673263D-04 -0.57337867D-04 -0.18567781D-04 -0.77791866D-04
 -0.21514925D-04 -0.27950108D-04  0.38433908D-04 -0.88519055D-04  0.21668470D-04
 -0.18736443D-03  0.13302013D-03  0.62181852D-04  0.72062711D-04  0.13253704D-03
  0.15624479D-04  0.56708566D-04 -0.12951831D-04 -0.12838246D-03  0.39385948D-04
  0.75386748D-04  0.17296954D-03 -0.20951164D-03 -0.36531256D-04  0.21217783D-03
 -0.56252936D-05  0.54922013D-04  0.10236757D-03  0.17358147D-03  0.26272364D-03
  0.32780240D-03  0.28153854D-03  0.10808812D-03 -0.48348480D-06 -0.43842344D-04
 -0.82227402D-04 -0.14017969D-03 -0.21907358D-03 -0.29294311D-03 -0.31279495D-03
 -0.19123670D-03  0.12616636D-03  0.17057451D-03  0.42597741D-03  0.64922775D-04
  0.20623657D-03  0.19998010D-03  0.13490539D-03 -0.25494522D-03 -0.24721111D-03
 -0.16676715D-03 -0.21443390D-03 -0.20792875D-03 -0.14026751D-03 -0.46868763D-04
  0.52993420D-04  0.45604986D-04 -0.72196518D-04 -0.28994519D-04  0.16000935D-05
 -0.25768723D-05 -0.28022771D-05 -0.10419601D-05 -0.61971562D-04  0.17345510D-04
  0.44626051D-04 -0.65388796D-03 -0.44131913D-03  0.35540989D-03  0.30418955D-04
 -0.23622961D-04 -0.67959944D-05  0.49983330D-03  0.37919309D-03 -0.35947674D-03
 -0.23304402D-04  0.99922294D-05  0.13312172D-04  0.72435480D-04  0.81150090D-04
 -0.61073890D-04  0.33299506D-05  0.20464429D-04 -0.29013406D-04 -0.96569304D-04
 -0.17415735D-03 -0.97742717D-05  0.86579452D-04  0.11276406D-03  0.96814489D-04
 -0.27235401D-03  0.74990934D-04 -0.61629981D-04 -0.61853864D-04 -0.11971487D-03
  0.14385369D-03  0.66634038D-04 -0.10525793D-03  0.41036250D-04  0.11892755D-03
 -0.40223186D-03
MO    2     MO 0.0        OCC NO =    2.0000000  ORB. ENERGY =  -24.566060
  0.45662774D-04  0.85109535D-04  0.14431757D-03  0.21843137D-03  0.27253857D-03
  0.23407428D-03  0.89865669D-04 -0.40197465D-06 -0.29843950D-04 -0.55973068D-04
 -0.95421810D-04 -0.14912571D-03 -0.19940949D-03 -0.21292285D-03 -0.13017686D-03
  0.85882783D-04 -0.48526638D-04  0.35966092D-04  0.37733269D-05 -0.76940616D-04
 -0.74606516D-04 -0.50329115D-04 -0.13550358D-03 -0.13139290D-03 -0.88636871D-04
  0.39796266D-04  0.38588991D-04  0.26031905D-04  0.61145871D-04  0.16993935D-03
 -0.58154875D-04  0.54789692D-04  0.13112678D-08  0.12772316D-04  0.43496338D-05
  0.31984610D-05 -0.34860392D-06  0.67265245D-04 -0.44786782D-04 -0.22478463D-04
 -0.98638234D-04  0.90440931D-04 -0.15825305D-04 -0.63747886D-04  0.77946459D-04
 -0.14198573D-04  0.87476574D-04 -0.57153613D-04 -0.64119783D-04 -0.12525714D-04
  0.55172039D-05  0.70085101D-05  0.22107975D-04 -0.20698530D-04  0.10375286D-04
 -0.12099598D-04 -0.92014466D-05  0.37579629D-04  0.99251404D-04  0.10937796D-03
 -0.33318403D-04 -0.62952610D-04 -0.81773625D-04 -0.79420483D-04 -0.10674077D-04
 -0.81280813D-05  0.19449665D-04 -0.88357357D-05 -0.39052239D-05 -0.81093791D-04
  0.23540616D-04  0.28289468D-04  0.22744797D-04  0.29665912D-05 -0.40537279D-04
 -0.47953918D-04 -0.89721964D-04 -0.15501968D-03 -0.25130498D-03 -0.38162665D-03
 -0.53041617D-03 -0.63058831D-03 -0.56167956D-03 -0.27883455D-03 -0.44924714D-04
 -0.68971403D-06 -0.12325122D-06 -0.46057058D-08  0.96457580D-04  0.18016891D-03
  0.31269188D-03  0.50737184D-03  0.78535136D-03  0.11241591D-02  0.14673788D-02
  0.15637370D-02  0.11689251D-02  0.61705481D-04 -0.79288480D-03 -0.47106466D-03
  0.17661393D-05 -0.60777641D-04 -0.11343271D-03 -0.19713606D-03 -0.31949957D-03
 -0.49623285D-03 -0.71086788D-03 -0.93863480D-03 -0.10149426D-02 -0.79572819D-03
 -0.39595172D-04  0.68214024D-03  0.70614161D-03 -0.31953907D-03 -0.18172039D-03
  0.78126140D-03  0.12239086D-03  0.92856554D-02  0.12231292D-01  0.13493981D-01
  0.11208302D-01  0.59530014D-02  0.15354527D-02 -0.15783932D-05  0.44678366D-02
  0.58851435D-02  0.64926919D-02  0.53929270D-02  0.28643145D-02  0.73879027D-03
 -0.75945128D-06  0.26510192D-03  0.34919872D-03  0.38524800D-03  0.31999274D-03
  0.16995592D-03  0.43836589D-04 -0.45062524D-07 -0.79620609D-02 -0.10453602D-01
 -0.11902195D-01 -0.10078290D-01 -0.57732326D-02 -0.13132101D-02  0.61465461D-03
 -0.38308980D-02 -0.50296882D-02 -0.57266700D-02 -0.48491090D-02 -0.27777563D-02
 -0.63184319D-03  0.29573739D-03 -0.22742343D-03 -0.29859029D-03 -0.33996701D-03
 -0.28787010D-03 -0.16490308D-03 -0.37509729D-04  0.17556618D-04 -0.79867628D-03
 -0.38436602D-03 -0.22699289D-04  0.26109476D-03  0.12567405D-03  0.73917839D-05
  0.70692187D-06  0.33910719D-06  0.21076493D-07 -0.27667723D-03  0.84065548D-04
  0.19261168D-03 -0.45240710D-03 -0.26274213D-04 -0.12650910D-04  0.39233360D-03
 -0.11915475D-03 -0.27317885D-03  0.64139733D-03  0.37331243D-04  0.17921722D-04
  0.42473773D-04 -0.12908993D-04 -0.29564780D-04  0.69469474D-04  0.40164404D-05
  0.19463850D-05  0.68236402D-04 -0.52909769D-04  0.55573187D-04 -0.23943866D-04
  0.29034642D-03 -0.18464191D-04 -0.18076534D-03 -0.13161711D-03 -0.14825537D-03
  0.16600375D-03  0.42800505D-04 -0.38902838D-04  0.36621274D-05 -0.87304727D-05
  0.17950549D-03  0.63967601D-05 -0.11967104D-03 -0.62796982D-04 -0.17383142D-04
  0.30235090D-04  0.59583395D+00  0.11106603D+01  0.18828423D+01  0.28511781D+01
  0.35654082D+01  0.30694844D+01  0.11800218D+01 -0.51132278D-02 -0.32861891D-03
 -0.61708811D-03 -0.10507946D-02 -0.16460636D-02 -0.22059188D-02 -0.23727631D-02
 -0.14246039D-02  0.93687944D-03  0.60350857D-01 -0.68540859D-03 -0.43565133D-03
 -0.41528737D-02 -0.40614198D-02 -0.26835518D-02 -0.20002122D-02 -0.19561639D-02
 -0.12925202D-02 -0.11687866D-03 -0.11430477D-03 -0.75525997D-04  0.44043998D-03
  0.21211858D-03  0.12429626D-04  0.75187327D-03  0.36196405D-03  0.21183891D-04
  0.48370116D-04  0.23285525D-04  0.13663816D-05 -0.10082149D-03  0.30092689D-04
  0.70728803D-04 -0.16570250D-03 -0.88879005D-05 -0.54414993D-05 -0.28583221D-03
  0.86934493D-04  0.19889771D-03 -0.46711819D-03 -0.27428876D-04 -0.13126116D-04
 -0.13960308D-03  0.42429675D-04  0.97173401D-04 -0.22816595D-03 -0.13331080D-04
 -0.64257005D-05 -0.16736254D-03  0.15972324D-03  0.27904175D-04  0.25849150D-04
 -0.69701854D-03 -0.49603876D-04  0.47623848D-03  0.21784883D-03 -0.34108649D-04
 -0.15917067D-04  0.11267245D-03 -0.10649633D-03 -0.13058680D-04 -0.18309284D-04
  0.47037787D-03  0.29879018D-04 -0.31970808D-03 -0.15088887D-03  0.92970230D-05
  0.25448363D-04  0.45775045D-04  0.85318794D-04  0.14467241D-03  0.21896842D-03
  0.27320866D-03  0.23464980D-03  0.90086622D-04 -0.40296299D-06 -0.29919534D-04
 -0.56114828D-04 -0.95663480D-04 -0.14950340D-03 -0.19991453D-03 -0.21346211D-03
 -0.13050655D-03  0.86100294D-04 -0.48604033D-04  0.36263141D-04  0.39003240D-05
 -0.11505259D-03 -0.11156231D-03 -0.75259274D-04 -0.47484319D-04 -0.46043816D-04
 -0.31060887D-04 -0.10187063D-03 -0.98780241D-04 -0.66636567D-04  0.11575306D-03
  0.44447124D-04  0.14401918D-03  0.44272034D-04  0.23420243D-04 -0.24772171D-04
  0.47796568D-05  0.22124311D-05  0.12530278D-05  0.34624478D-07 -0.22020082D-04
  0.21985458D-04  0.47159886D-04 -0.14614591D-03 -0.80105002D-04 -0.69429981D-05
 -0.23909699D-04  0.30852697D-04  0.54186286D-06  0.16529908D-03  0.71636181D-04
  0.16905585D-05  0.81062948D-05 -0.97968533D-05 -0.11801875D-04  0.27281136D-04
  0.16628891D-04  0.16275339D-04 -0.25928250D-04 -0.53914952D-05 -0.30457011D-04
  0.10363066D-03  0.86746860D-04 -0.18369006D-04 -0.25845910D-04 -0.70572374D-04
  0.18292783D-03 -0.20298050D-04  0.46192725D-05 -0.10183019D-05 -0.41041007D-05
 -0.50164332D-04 -0.12304483D-04  0.64998249D-04  0.36306515D-04  0.15359389D-04
 -0.46661027D-04  0.45719152D-04  0.85214617D-04  0.14449576D-03  0.21870106D-03
  0.27287506D-03  0.23436329D-03  0.89976624D-04 -0.40247096D-06 -0.29881770D-04
 -0.56043999D-04 -0.95542733D-04 -0.14931469D-03 -0.19966220D-03 -0.21319268D-03
 -0.13034182D-03  0.85991618D-04 -0.48568622D-04  0.36117909D-04  0.38378366D-05
 -0.15108535D-03 -0.14650197D-03 -0.98829360D-04  0.18030775D-04  0.17483787D-04
  0.11794459D-04  0.52154555D-04  0.50572374D-04  0.34115825D-04  0.16705026D-03
 -0.49098605D-04 -0.75796531D-04  0.34859502D-04  0.40922013D-04  0.15956762D-04
  0.51842091D-05  0.14733329D-05 -0.49137601D-06 -0.46057708D-04  0.60301013D-04
 -0.14243304D-04  0.85578936D-04  0.58427506D-04  0.97164360D-04  0.59574483D-04
 -0.50742326D-04 -0.88321568D-05 -0.10576664D-03 -0.10958678D-03 -0.80684193D-05
  0.89303933D-05 -0.13066297D-04  0.41359033D-05 -0.13348214D-04 -0.68286601D-05
 -0.27088926D-04  0.58817366D-04 -0.95676321D-05  0.41657593D-04 -0.95512143D-04
  0.56840329D-04 -0.83388350D-04 -0.80939956D-04 -0.28137433D-04 -0.41584430D-04
  0.34578844D-04 -0.19201037D-04  0.16398679D-04 -0.92773326D-05  0.20936365D-04
 -0.69467993D-04 -0.98370225D-05  0.36666747D-04  0.20271956D-04  0.37669020D-04
  0.17477398D-04
MO    3     MO 0.0        OCC NO =    2.0000000  ORB. ENERGY =  -19.081129
  0.49861190D+00  0.92934842D+00  0.15758670D+01  0.23851481D+01  0.29759684D+01
  0.25559600D+01  0.98128274D+00 -0.43893379D-02 -0.58375602D-03 -0.10948489D-02
 -0.18664773D-02 -0.29169407D-02 -0.39005056D-02 -0.41648306D-02 -0.25462958D-02
  0.16798913D-02  0.49933845D-01 -0.23382844D-02 -0.76442667D-03 -0.15927315D-02
 -0.15444138D-02 -0.10418524D-02  0.76484610D-02  0.74164344D-02  0.50030828D-02
 -0.36326384D-02 -0.35224373D-02 -0.23762154D-02  0.28096896D-03 -0.13518413D-02
  0.64196344D-03  0.26647715D-03 -0.12406035D-02  0.59102762D-03  0.13890590D-04
 -0.63089644D-04  0.30137962D-04 -0.87155161D-03  0.11090103D-02 -0.23745864D-03
 -0.92702365D-03  0.28385061D-03 -0.17021766D-02  0.47799430D-03 -0.70461832D-03
  0.22662402D-03  0.51318451D-03 -0.22755458D-03  0.11443784D-02  0.81233111D-04
 -0.12341276D-03  0.42179644D-04  0.10741635D-03 -0.51186159D-04  0.20940881D-03
 -0.25565005D-04 -0.60105035D-04 -0.65386007D-04  0.22504349D-04  0.10853560D-03
 -0.85238545D-04  0.54190666D-04  0.71779503D-04  0.28139656D-03 -0.37806544D-04
 -0.53968921D-04 -0.79355972D-04 -0.84343299D-04  0.17659299D-03  0.21895822D-03
 -0.10014576D-03 -0.14686226D-04  0.19109697D-04  0.35317566D-03 -0.22019629D-03
  0.11431126D-03  0.21387681D-03  0.36953175D-03  0.59905406D-03  0.90971138D-03
  0.12643918D-02  0.15031795D-02  0.13389167D-02  0.66467833D-03  0.10709033D-03
  0.16441218D-05  0.29380295D-06  0.10978958D-07 -0.19594738D-03 -0.36600157D-03
 -0.63521347D-03 -0.10306933D-02 -0.15953908D-02 -0.22836570D-02 -0.29808858D-02
 -0.31766312D-02 -0.23745963D-02 -0.12535072D-03  0.16106945D-02  0.95693761D-03
 -0.35877986D-05  0.10382853D-03  0.19378099D-03  0.33677430D-03  0.54581207D-03
  0.84773161D-03  0.12144000D-02  0.16035020D-02  0.17338613D-02  0.13593698D-02
  0.67641790D-04 -0.11653236D-02 -0.12063259D-02  0.54587956D-03 -0.66508852D-03
  0.21125808D-02  0.49916115D-03  0.55232505D-02  0.72753605D-02  0.80264269D-02
  0.66668702D-02  0.35409367D-02  0.91331087D-03 -0.93885252D-06 -0.23010013D-01
 -0.30309351D-01 -0.33438314D-01 -0.27774364D-01 -0.14751639D-01 -0.38048781D-02
  0.39112853D-05  0.11101229D-01  0.14622810D-01  0.16132385D-01  0.13399800D-01
  0.71169593D-02  0.18356714D-02 -0.18870078D-05 -0.51062668D-02 -0.67041540D-02
 -0.76331726D-02 -0.64634570D-02 -0.37025170D-02 -0.84219417D-03  0.39419322D-03
  0.21449386D-01  0.28161472D-01  0.32063907D-01  0.27150400D-01  0.15552794D-01
  0.35377211D-02 -0.16558482D-02 -0.10338384D-01 -0.13573541D-01 -0.15454474D-01
 -0.13086214D-01 -0.74962873D-02 -0.17051453D-02  0.79810184D-03 -0.18397686D-03
  0.66492657D-03 -0.32651652D-03  0.50694541D-04 -0.63145508D-03  0.28115780D-03
 -0.43072296D-06 -0.15108999D-04  0.63353044D-05 -0.39418186D-03  0.54338009D-03
 -0.14919823D-03 -0.28914728D-03  0.95019547D-04 -0.81525739D-03 -0.13870850D-03
  0.28025322D-03 -0.14154472D-03 -0.21598245D-03  0.15327626D-03 -0.51952196D-03
 -0.31957603D-04  0.50723034D-04 -0.18765430D-04 -0.78456991D-04  0.39297680D-04
 -0.99528679D-04 -0.10849355D-03 -0.11307495D-03 -0.10003476D-03  0.29854092D-03
  0.31329035D-03 -0.19961739D-03  0.26939720D-04  0.25934496D-04  0.49972168D-03
 -0.28283685D-03  0.44151274D-04 -0.56170293D-05  0.51117861D-05 -0.44929988D-04
  0.55696285D-04  0.50534579D-04 -0.87523833D-04 -0.38845197D-04 -0.65869937D-04
  0.19481580D-04  0.23724823D-04  0.44224098D-04  0.74970719D-04  0.11352776D-03
  0.14196687D-03  0.12222025D-03  0.46985926D-04 -0.20359771D-06 -0.16186339D-04
 -0.30395079D-04 -0.51757577D-04 -0.81077938D-04 -0.10865398D-03 -0.11687200D-03
 -0.70169796D-04  0.46146610D-04 -0.79386719D-05 -0.30839395D-04 -0.40388511D-04
  0.97857680D-05  0.95702674D-05  0.63234803D-05  0.92073206D-04  0.90045585D-04
  0.59496925D-04 -0.36911862D-04 -0.36098994D-04 -0.23852132D-04 -0.22558278D-04
 -0.10810085D-03  0.40779713D-04  0.86928562D-04  0.18374137D-03 -0.58043150D-04
  0.49495657D-05  0.30279346D-05 -0.12881937D-06 -0.25186676D-04  0.69138955D-04
 -0.43952278D-04  0.13607105D-03 -0.44538003D-04 -0.73571675D-04  0.79190972D-05
 -0.12427959D-04  0.45088614D-05 -0.22536251D-04  0.10895336D-04  0.98870490D-05
 -0.61090008D-05 -0.32920090D-04  0.39029091D-04 -0.10637630D-03  0.21243698D-04
  0.42041064D-04  0.85702973D-04 -0.52537489D-04 -0.23994746D-04 -0.46571075D-03
 -0.59305994D-04 -0.74031096D-04  0.20860183D-03  0.21691846D-03  0.14601533D-03
  0.55771801D-03 -0.28223317D-04  0.13250853D-04  0.10522691D-04  0.17020520D-03
  0.45808827D-04  0.21306696D-04 -0.85535249D-04 -0.85561387D-04 -0.52874770D-04
 -0.19302138D-03  0.62506570D-02  0.11650420D-01  0.19755253D-01  0.29900495D-01
  0.37307088D-01  0.32041813D-01  0.12301475D-01 -0.55025253D-04 -0.38565756D-04