 Molden2AIM, Version 4.0.0 (06/02/2016)           Time: Thu Jun 28 16:40:07 2018
GAUSSIAN             11 MOL ORBITALS    225 PRIMITIVES        3 NUCLEI
  C    1    (CENTRE  1)   0.00000000  0.00000000  0.00000000  CHARGE =  6.0
  O    2    (CENTRE  2)   0.00000000  0.00000000  2.19924626  CHARGE =  8.0
  O    3    (CENTRE  3)   0.00000000  0.00000000 -2.19924626  CHARGE =  8.0
CENTRE ASSIGNMENTS    1  1  1  1  1  1  1  1  1  1  1  1  1  1  1  1  1  1  1  1
CENTRE ASSIGNMENTS    1  1  1  1  1  1  1  1  1  1  1  1  1  1  1  1  1  1  1  1
CENTRE ASSIGNMENTS    1  1  1  1  1  1  1  1  1  1  1  1  1  1  1  1  1  1  1  1
CENTRE ASSIGNMENTS    1  1  1  1  1  1  1  1  1  1  1  1  1  1  1  2  2  2  2  2
CENTRE ASSIGNMENTS    2  2  2  2  2  2  2  2  2  2  2  2  2  2  2  2  2  2  2  2
CENTRE ASSIGNMENTS    2  2  2  2  2  2  2  2  2  2  2  2  2  2  2  2  2  2  2  2
CENTRE ASSIGNMENTS    2  2  2  2  2  2  2  2  2  2  2  2  2  2  2  2  2  2  2  2
CENTRE ASSIGNMENTS    2  2  2  2  2  2  2  2  2  2  3  3  3  3  3  3  3  3  3  3
CENTRE ASSIGNMENTS    3  3  3  3  3  3  3  3  3  3  3  3  3  3  3  3  3  3  3  3
CENTRE ASSIGNMENTS    3  3  3  3  3  3  3  3  3  3  3  3  3  3  3  3  3  3  3  3
CENTRE ASSIGNMENTS    3  3  3  3  3  3  3  3  3  3  3  3  3  3  3  3  3  3  3  3
CENTRE ASSIGNMENTS    3  3  3  3  3
TYPE ASSIGNMENTS      1  1  1  1  1  1  1  1  1  1  1  1  1  1  1  1  1  1  1  2
TYPE ASSIGNMENTS      2  2  3  3  3  4  4  4  2  3  4  2  3  4  2  3  4  5  6  7
TYPE ASSIGNMENTS      8  9 10  5  6  7  8  9 10  5  6  7  8  9 10 11 12 13 17 14
TYPE ASSIGNMENTS     15 18 19 16 20 11 12 13 17 14 15 18 19 16 20  1  1  1  1  1
TYPE ASSIGNMENTS      1  1  1  1  1  1  1  1  1  1  1  1  1  1  2  2  2  3  3  3
TYPE ASSIGNMENTS      4  4  4  2  3  4  2  3  4  2  3  4  5  6  7  8  9 10  5  6
TYPE ASSIGNMENTS      7  8  9 10  5  6  7  8  9 10 11 12 13 17 14 15 18 19 16 20
TYPE ASSIGNMENTS     11 12 13 17 14 15 18 19 16 20  1  1  1  1  1  1  1  1  1  1
TYPE ASSIGNMENTS      1  1  1  1  1  1  1  1  1  2  2  2  3  3  3  4  4  4  2  3
TYPE ASSIGNMENTS      4  2  3  4  2  3  4  5  6  7  8  9 10  5  6  7  8  9 10  5
TYPE ASSIGNMENTS      6  7  8  9 10 11 12 13 17 14 15 18 19 16 20 11 12 13 17 14
TYPE ASSIGNMENTS     15 18 19 16 20
EXPONENTS  0.8236000D+04 0.1235000D+04 0.2808000D+03 0.7927000D+02 0.2559000D+02
EXPONENTS  0.8997000D+01 0.3319000D+01 0.3643000D+00 0.8236000D+04 0.1235000D+04
EXPONENTS  0.2808000D+03 0.7927000D+02 0.2559000D+02 0.8997000D+01 0.3319000D+01
EXPONENTS  0.3643000D+00 0.9059000D+00 0.1285000D+00 0.4402000D-01 0.1871000D+02
EXPONENTS  0.4133000D+01 0.1200000D+01 0.1871000D+02 0.4133000D+01 0.1200000D+01
EXPONENTS  0.1871000D+02 0.4133000D+01 0.1200000D+01 0.3827000D+00 0.3827000D+00
EXPONENTS  0.3827000D+00 0.1209000D+00 0.1209000D+00 0.1209000D+00 0.3569000D-01
EXPONENTS  0.3569000D-01 0.3569000D-01 0.1097000D+01 0.1097000D+01 0.1097000D+01
EXPONENTS  0.1097000D+01 0.1097000D+01 0.1097000D+01 0.3180000D+00 0.3180000D+00
EXPONENTS  0.3180000D+00 0.3180000D+00 0.3180000D+00 0.3180000D+00 0.1000000D+00
EXPONENTS  0.1000000D+00 0.1000000D+00 0.1000000D+00 0.1000000D+00 0.1000000D+00
EXPONENTS  0.7610000D+00 0.7610000D+00 0.7610000D+00 0.7610000D+00 0.7610000D+00
EXPONENTS  0.7610000D+00 0.7610000D+00 0.7610000D+00 0.7610000D+00 0.7610000D+00
EXPONENTS  0.2680000D+00 0.2680000D+00 0.2680000D+00 0.2680000D+00 0.2680000D+00
EXPONENTS  0.2680000D+00 0.2680000D+00 0.2680000D+00 0.2680000D+00 0.2680000D+00
EXPONENTS  0.1533000D+05 0.2299000D+04 0.5224000D+03 0.1473000D+03 0.4755000D+02
EXPONENTS  0.1676000D+02 0.6207000D+01 0.6882000D+00 0.1533000D+05 0.2299000D+04
EXPONENTS  0.5224000D+03 0.1473000D+03 0.4755000D+02 0.1676000D+02 0.6207000D+01
EXPONENTS  0.6882000D+00 0.1752000D+01 0.2384000D+00 0.7376000D-01 0.3446000D+02
EXPONENTS  0.7749000D+01 0.2280000D+01 0.3446000D+02 0.7749000D+01 0.2280000D+01
EXPONENTS  0.3446000D+02 0.7749000D+01 0.2280000D+01 0.7156000D+00 0.7156000D+00
EXPONENTS  0.7156000D+00 0.2140000D+00 0.2140000D+00 0.2140000D+00 0.5974000D-01
EXPONENTS  0.5974000D-01 0.5974000D-01 0.2314000D+01 0.2314000D+01 0.2314000D+01
EXPONENTS  0.2314000D+01 0.2314000D+01 0.2314000D+01 0.6450000D+00 0.6450000D+00
EXPONENTS  0.6450000D+00 0.6450000D+00 0.6450000D+00 0.6450000D+00 0.2140000D+00
EXPONENTS  0.2140000D+00 0.2140000D+00 0.2140000D+00 0.2140000D+00 0.2140000D+00
EXPONENTS  0.1428000D+01 0.1428000D+01 0.1428000D+01 0.1428000D+01 0.1428000D+01
EXPONENTS  0.1428000D+01 0.1428000D+01 0.1428000D+01 0.1428000D+01 0.1428000D+01
EXPONENTS  0.5000000D+00 0.5000000D+00 0.5000000D+00 0.5000000D+00 0.5000000D+00
EXPONENTS  0.5000000D+00 0.5000000D+00 0.5000000D+00 0.5000000D+00 0.5000000D+00
EXPONENTS  0.1533000D+05 0.2299000D+04 0.5224000D+03 0.1473000D+03 0.4755000D+02
EXPONENTS  0.1676000D+02 0.6207000D+01 0.6882000D+00 0.1533000D+05 0.2299000D+04
EXPONENTS  0.5224000D+03 0.1473000D+03 0.4755000D+02 0.1676000D+02 0.6207000D+01
EXPONENTS  0.6882000D+00 0.1752000D+01 0.2384000D+00 0.7376000D-01 0.3446000D+02
EXPONENTS  0.7749000D+01 0.2280000D+01 0.3446000D+02 0.7749000D+01 0.2280000D+01
EXPONENTS  0.3446000D+02 0.7749000D+01 0.2280000D+01 0.7156000D+00 0.7156000D+00
EXPONENTS  0.7156000D+00 0.2140000D+00 0.2140000D+00 0.2140000D+00 0.5974000D-01
EXPONENTS  0.5974000D-01 0.5974000D-01 0.2314000D+01 0.2314000D+01 0.2314000D+01
EXPONENTS  0.2314000D+01 0.2314000D+01 0.2314000D+01 0.6450000D+00 0.6450000D+00
EXPONENTS  0.6450000D+00 0.6450000D+00 0.6450000D+00 0.6450000D+00 0.2140000D+00
EXPONENTS  0.2140000D+00 0.2140000D+00 0.2140000D+00 0.2140000D+00 0.2140000D+00
EXPONENTS  0.1428000D+01 0.1428000D+01 0.1428000D+01 0.1428000D+01 0.1428000D+01
EXPONENTS  0.1428000D+01 0.1428000D+01 0.1428000D+01 0.1428000D+01 0.1428000D+01
EXPONENTS  0.5000000D+00 0.5000000D+00 0.5000000D+00 0.5000000D+00 0.5000000D+00
EXPONENTS  0.5000000D+00 0.5000000D+00 0.5000000D+00 0.5000000D+00 0.5000000D+00
MO    1     MO 0.0        OCC NO =    2.0000000  ORB. ENERGY =  -19.050317
  0.39968638D-10  0.74510628D-10  0.12593609D-09  0.18932319D-09  0.23260542D-09
  0.19647246D-09  0.74102183D-10 -0.36673584D-12 -0.29939182D-10 -0.56055595D-10
 -0.95439447D-10 -0.14763031D-09 -0.19442393D-09 -0.20201891D-09 -0.12837395D-09
  0.86033237D-10  0.10826446D-09 -0.14497714D-10  0.16228085D-11  0.13059406D-15
  0.12244023D-15  0.87184737D-16 -0.40701383D-16 -0.38160134D-16 -0.27172288D-16
  0.31234896D-02  0.29284700D-02  0.20852451D-02 -0.46541664D-16 -0.15313095D-16
 -0.49166818D-02  0.60862821D-17  0.82953134D-17 -0.10498044D-02 -0.67366801D-18
 -0.85250679D-19 -0.21406574D-05 -0.58296261D-11 -0.58296258D-11  0.11659252D-10
  0.72066436D-17 -0.26631237D-17  0.76633823D-15  0.19493888D-10  0.19493888D-10
 -0.38987775D-10 -0.10585315D-17  0.48990236D-17 -0.77889333D-17  0.66395507D-12
  0.66395505D-12 -0.13279101D-11 -0.81043385D-19  0.38038461D-18 -0.83041521D-18
 -0.80248417D-18 -0.94274891D-18 -0.26699058D-02 -0.80110822D-18 -0.93626605D-18
  0.40048586D-02  0.32085607D-17  0.37645128D-17  0.40048586D-02 -0.11246656D-17
 -0.78842974D-19 -0.18841044D-18 -0.17331036D-03 -0.80442539D-19 -0.19051603D-18
  0.25996554D-03  0.31697146D-18  0.75574735D-18  0.25996554D-03  0.10503433D-17
  0.35369661D+00  0.65924496D+00  0.11178610D+01  0.16919347D+01  0.21110406D+01
  0.18131023D+01  0.69608523D+00 -0.31136319D-02 -0.11611293D-02 -0.21777268D-02
 -0.37125467D-02 -0.58019879D-02 -0.77583633D-02 -0.82841232D-02 -0.50647505D-02
  0.33414148D-02  0.35007608D-01  0.20182773D-02  0.37520938D-03  0.51728530D-17
  0.50159274D-17  0.33837150D-17  0.78421135D-17  0.76042122D-17  0.51297566D-17
 -0.54386753D-02 -0.52736856D-02 -0.35575971D-02 -0.21696422D-17 -0.44848253D-17
 -0.34426211D-02 -0.30098800D-17  0.13897984D-17  0.11718881D-04 -0.11931982D-18
 -0.11298888D-18 -0.30750205D-04 -0.18703561D-02 -0.18703561D-02  0.37407123D-02
  0.60761505D-17 -0.21706909D-17 -0.56367854D-16 -0.30350099D-03 -0.30350099D-03
  0.60700198D-03 -0.77270221D-18  0.40406088D-17  0.31326573D-17  0.66586509D-04
  0.66586509D-04 -0.13317302D-03 -0.36235816D-18  0.13297999D-17  0.20773406D-18
 -0.12261947D-18  0.38636050D-17 -0.95785410D-03 -0.72819424D-19  0.25562357D-17
  0.14367812D-02  0.44067783D-18 -0.14147051D-16  0.14367812D-02  0.20083528D-16
  0.38310205D-18  0.12947562D-18  0.10989734D-03  0.37600461D-18  0.20151900D-18
 -0.16484602D-03 -0.15253108D-17 -0.58994587D-18 -0.16484602D-03  0.12166608D-17
 -0.35369655D+00 -0.65924486D+00 -0.11178609D+01 -0.16919345D+01 -0.21110402D+01
 -0.18131020D+01 -0.69608512D+00  0.31136314D-02  0.11611292D-02  0.21777266D-02
  0.37125465D-02  0.58019875D-02  0.77583628D-02  0.82841227D-02  0.50647502D-02
 -0.33414146D-02 -0.35007603D-01 -0.20182773D-02 -0.37520939D-03 -0.11726603D-17
 -0.11370861D-17 -0.76707154D-18 -0.17341364D-16 -0.16815290D-16 -0.11343495D-16
 -0.54386744D-02 -0.52736847D-02 -0.35575965D-02 -0.13844821D-17  0.25663586D-17
 -0.34426211D-02  0.23333393D-17 -0.64870824D-17  0.11718823D-04  0.19339324D-18
 -0.74473169D-18 -0.30750207D-04  0.18703560D-02  0.18703560D-02 -0.37407120D-02
  0.16939850D-16  0.75060555D-19 -0.32951306D-17  0.30350103D-03  0.30350103D-03
 -0.60700206D-03 -0.14458039D-17 -0.51551814D-18 -0.66270804D-18 -0.66586500D-04
 -0.66586500D-04  0.13317300D-03  0.75346553D-18  0.14220975D-17 -0.32086111D-17
  0.85449202D-18  0.18885478D-17 -0.95785407D-03  0.26956861D-18  0.28977179D-17
  0.14367811D-02 -0.28330447D-17 -0.85633612D-17  0.14367811D-02 -0.14167827D-16
 -0.12843532D-18  0.24609071D-18  0.10989731D-03 -0.94061789D-19  0.19991610D-18
 -0.16484597D-03  0.47936774D-18 -0.93818825D-18 -0.16484597D-03  0.54414698D-20
MO    2     MO 0.0        OCC NO =    2.0000000  ORB. ENERGY =  -19.050295
  0.50526377D-03  0.94192654D-03  0.15920218D-02  0.23933302D-02  0.29404827D-02
  0.24837077D-02  0.93676317D-03 -0.46360932D-05 -0.37849212D-03 -0.70865667D-03
 -0.12065486D-02 -0.18663473D-02 -0.24579137D-02 -0.25539297D-02 -0.16229077D-02
  0.10876350D-02  0.13694699D-02 -0.18745200D-03  0.19792957D-04 -0.44714878D-17
 -0.41923040D-17 -0.29851702D-17 -0.15627297D-16 -0.14651584D-16 -0.10432801D-16
 -0.24699443D-09 -0.23157297D-09 -0.16489375D-09  0.35146367D-17  0.20752907D-17
  0.38884868D-09  0.75671891D-18  0.30683384D-18  0.82731160D-10  0.17730904D-19
  0.52281289D-20  0.16836473D-12 -0.73896855D-04 -0.73896855D-04  0.14779371D-03
 -0.36013023D-19 -0.95288593D-18 -0.35467546D-18  0.24695804D-03  0.24695804D-03
 -0.49391608D-03  0.17816568D-19 -0.13260536D-17 -0.52079250D-18  0.84484631D-05
  0.84484631D-05 -0.16896926D-04 -0.66199061D-21 -0.97183424D-20 -0.22396901D-19
 -0.48921968D-18 -0.99649181D-18  0.21118278D-09 -0.48737055D-18 -0.98061966D-18
 -0.31677417D-09  0.19550296D-17  0.39700951D-17 -0.31677417D-09 -0.64476175D-19
 -0.84879861D-19 -0.92441691D-19  0.13677748D-10 -0.82231562D-19 -0.10084704D-18
 -0.20516621D-10  0.33687115D-18  0.37817211D-18 -0.20516621D-10  0.58525228D-19
  0.35265832D+00  0.65730972D+00  0.11145795D+01  0.16869680D+01  0.21048435D+01
  0.18077799D+01  0.69404184D+00 -0.31044917D-02 -0.43765427D-03 -0.82083143D-03
 -0.13993376D-02 -0.21868923D-02 -0.29242918D-02 -0.31224618D-02 -0.19090119D-02
  0.12594501D-02  0.35216972D-01  0.14446439D-03 -0.68654984D-04  0.21967456D-17
  0.21301043D-17  0.14369557D-17  0.65352978D-17  0.63370405D-17  0.42749301D-17
 -0.59311434D-02 -0.57512140D-02 -0.38797350D-02 -0.44860954D-18 -0.26538996D-17
  0.12675466D-03 -0.52520608D-18 -0.28047699D-18  0.36511745D-03 -0.59271418D-19
 -0.10817250D-19  0.12499038D-04 -0.98932186D-03 -0.98932186D-03  0.19786437D-02
  0.29534247D-17  0.53508638D-17 -0.23531886D-17  0.25837975D-03  0.25837975D-03
 -0.51675949D-03 -0.13585293D-18 -0.79966629D-19  0.23900515D-17  0.59635181D-04
  0.59635181D-04 -0.11927036D-03 -0.18542263D-19  0.27893299D-18  0.51086301D-19
  0.42099564D-18  0.10253506D-17 -0.19994520D-03  0.49589516D-18 -0.29886022D-18
  0.29991780D-03 -0.17588821D-17 -0.27771915D-17  0.29991780D-03 -0.23348364D-17
 -0.56643699D-19  0.50940175D-19  0.20830745D-03 -0.70924947D-19  0.12921397D-18
 -0.31246118D-03  0.24085604D-18 -0.28203449D-18 -0.31246118D-03  0.18014243D-18
  0.35265837D+00  0.65730983D+00  0.11145797D+01  0.16869683D+01  0.21048438D+01
  0.18077801D+01  0.69404195D+00 -0.31044922D-02 -0.43765445D-03 -0.82083177D-03
 -0.13993382D-02 -0.21868933D-02 -0.29242930D-02 -0.31224631D-02 -0.19090127D-02
  0.12594507D-02  0.35216978D-01  0.14446471D-03 -0.68654925D-04  0.22044887D-17
  0.21376125D-17  0.14420207D-17  0.17497552D-16  0.16966739D-16  0.11445662D-16
  0.59311443D-02  0.57512148D-02  0.38797356D-02 -0.17513664D-17 -0.37428958D-17
 -0.12675411D-03 -0.15022095D-17 -0.68333385D-18 -0.36511745D-03 -0.65754189D-19
 -0.31793636D-19 -0.12499033D-04 -0.98932216D-03 -0.98932216D-03  0.19786443D-02
 -0.76953768D-18 -0.22692836D-17  0.10924185D-17  0.25837970D-03  0.25837970D-03
 -0.51675939D-03  0.13631169D-19 -0.13892892D-17 -0.30215428D-17  0.59635192D-04
  0.59635192D-04 -0.11927038D-03  0.20627006D-19 -0.96618951D-18 -0.28033208D-18
 -0.84105507D-18  0.11044060D-17  0.19994535D-03 -0.25317334D-18  0.83710294D-19
 -0.29991803D-03  0.27763385D-17 -0.33969281D-17 -0.29991803D-03 -0.82791991D-19
  0.37180499D-18  0.15783053D-18 -0.20830747D-03  0.33600853D-18  0.21469871D-18
  0.31246120D-03 -0.14514235D-17 -0.68819030D-18  0.31246120D-03  0.78277513D-19
MO    3     MO 0.0        OCC NO =    2.0000000  ORB. ENERGY =  -10.226136
  0.32945566D+00  0.61418026D+00  0.10380728D+01  0.15605635D+01  0.19173326D+01
  0.16194939D+01  0.61081350D+00 -0.30229501D-02 -0.27713015D-02 -0.51887508D-02
 -0.88342922D-02 -0.13665307D-01 -0.17996728D-01 -0.18699754D-01 -0.11882854D-01
  0.79636124D-02  0.35101428D-01  0.25707337D-02  0.20910778D-03  0.11032498D-16
  0.10343669D-16  0.73653082D-17 -0.20460273D-16 -0.19182806D-16 -0.13659301D-16
  0.14880412D-13  0.13951332D-13  0.99341797D-14 -0.34819083D-17  0.83613290D-17
 -0.27772106D-13 -0.71133534D-18  0.12035185D-17 -0.55783831D-15 -0.60431180D-20
  0.50910586D-20 -0.88568080D-16 -0.42459955D-02 -0.42459955D-02  0.84919910D-02
 -0.11898566D-17 -0.66627819D-17 -0.70243161D-17  0.25655701D-03  0.25655701D-03
 -0.51311402D-03 -0.58467558D-20 -0.51132883D-18  0.55401628D-18  0.48248772D-04
  0.48248772D-04 -0.96497544D-04  0.18342203D-20 -0.33709676D-19  0.54798226D-19
  0.28034552D-18 -0.19880431D-17 -0.71854921D-14  0.88801773D-19 -0.17371855D-17
  0.10778994D-13 -0.92983834D-18  0.77013147D-17  0.10777483D-13  0.15589129D-18
  0.14036498D-18 -0.21716855D-18  0.54420438D-15  0.14560941D-18 -0.22061508D-18
 -0.81639500D-15 -0.56670436D-18  0.87212074D-18 -0.81621812D-15 -0.12069672D-19
  0.33848845D-03  0.63089892D-03  0.10697955D-02  0.16191854D-02  0.20202706D-02
  0.17351430D-02  0.66615513D-03 -0.29797528D-05 -0.33731176D-03 -0.63263657D-03
 -0.10785067D-02 -0.16854960D-02 -0.22538293D-02 -0.24065642D-02 -0.14713262D-02
  0.97069164D-03  0.10134638D-02 -0.22381001D-02 -0.76630891D-03 -0.13009886D-17
 -0.12615213D-17 -0.85101480D-18  0.20368910D-17  0.19750991D-17  0.13323902D-17
 -0.28484172D-02 -0.27620065D-02 -0.18632333D-02  0.14054633D-17 -0.25954120D-17
  0.21748432D-02  0.14662501D-17 -0.26507472D-17  0.24714332D-02  0.49658529D-19
 -0.82457659D-19  0.11456852D-03 -0.55709751D-03 -0.55709751D-03  0.11141950D-02
 -0.29795568D-18  0.98454024D-19 -0.18579900D-17  0.14140087D-02  0.14140087D-02
 -0.28280173D-02 -0.89069823D-20 -0.23781673D-17  0.43881242D-17  0.24402235D-03
  0.24402235D-03 -0.48804470D-03  0.52753713D-20 -0.57534630D-18  0.11798754D-17
 -0.99469637D-18  0.25388124D-18  0.77592155D-03 -0.98332947D-18  0.12814961D-18
 -0.11638823D-02  0.39674186D-17 -0.88979332D-18 -0.11638823D-02  0.80948754D-18
 -0.13641674D-18  0.37923991D-18  0.67765097D-03 -0.12472245D-18  0.38913039D-18
 -0.10164764D-02  0.53397268D-18 -0.15268501D-17 -0.10164764D-02 -0.32858216D-19
  0.33848845D-03  0.63089892D-03  0.10697955D-02  0.16191854D-02  0.20202706D-02
  0.17351430D-02  0.66615513D-03 -0.29797528D-05 -0.33731176D-03 -0.63263657D-03
 -0.10785067D-02 -0.16854960D-02 -0.22538293D-02 -0.24065642D-02 -0.14713262D-02
  0.97069164D-03  0.10134638D-02 -0.22381001D-02 -0.76630891D-03 -0.74638637D-19
 -0.72374371D-19 -0.48823323D-19  0.30271696D-17  0.29353362D-17  0.19801605D-17
  0.28484172D-02  0.27620065D-02  0.18632333D-02  0.38317545D-18 -0.34293367D-17
 -0.21748432D-02  0.93282006D-18 -0.19848156D-17 -0.24714332D-02  0.31187702D-19
 -0.32415613D-19 -0.11456852D-03 -0.55709751D-03 -0.55709751D-03  0.11141950D-02
  0.13076133D-18 -0.87657732D-19  0.79607920D-18  0.14140087D-02  0.14140087D-02
 -0.28280173D-02  0.21880802D-19 -0.70667680D-19 -0.56347107D-17  0.24402235D-03
  0.24402235D-03 -0.48804470D-03 -0.62321164D-20  0.41071010D-18 -0.80290226D-18
  0.75169563D-18  0.21507732D-17 -0.77592155D-03  0.85457299D-18  0.21653473D-17
  0.11638823D-02 -0.31096599D-17 -0.86176668D-17  0.11638823D-02  0.97296529D-18
  0.18437529D-21  0.31171586D-18 -0.67765097D-03 -0.27707175D-19  0.31915307D-18
  0.10164764D-02  0.27154049D-19 -0.12543007D-17  0.10164764D-02 -0.47495392D-19
MO    4     MO 0.0        OCC NO =    2.0000000  ORB. ENERGY =   -1.128041
 -0.10078629D-01 -0.18788857D-01 -0.31756478D-01 -0.47740388D-01 -0.58654583D-01
 -0.49543172D-01 -0.18685862D-01  0.92477372D-04 -0.38031461D-01 -0.71206895D-01
 -0.12123583D+00 -0.18753340D+00 -0.24697489D+00 -0.25662273D+00 -0.16307222D+00
  0.10928721D+00  0.53265524D-01  0.13830749D-01  0.95844564D-03 -0.10929515D-15
 -0.10247115D-15 -0.72965564D-16 -0.42175347D-15 -0.39542069D-15 -0.28156309D-15
  0.69884693D-11  0.65521342D-11  0.46655099D-11 -0.14637553D-15 -0.14913888D-15
  0.31044923D-12  0.63268071D-17 -0.26206114D-18  0.72281521D-12 -0.38257083D-18
  0.93874880D-19  0.11172269D-15 -0.24064738D-01 -0.24064738D-01  0.48129477D-01
 -0.46258251D-17  0.15385632D-15 -0.67877537D-16 -0.18605914D-02 -0.18605914D-02
  0.37211829D-02 -0.26464713D-17  0.93369119D-16 -0.50250250D-16  0.22945663D-03
  0.22945663D-03 -0.45891326D-03  0.38018820D-19  0.47932408D-17  0.50267669D-18
  0.11122178D-17  0.15303856D-16 -0.84711703D-13 -0.40523738D-17  0.30955915D-16
  0.12705812D-12  0.71572050D-18 -0.76867482D-16  0.12707698D-12 -0.42346825D-17
 -0.27215623D-17  0.63991041D-18  0.67446381D-13 -0.40558906D-17 -0.77703005D-18
 -0.10115585D-12  0.12220577D-16 -0.11427012D-17 -0.10118329D-12 -0.25817408D-18
 -0.30326800D-02 -0.56525252D-02 -0.95848099D-02 -0.14507056D-01 -0.18100571D-01
 -0.15545976D-01 -0.59684025D-02  0.26697031D-04 -0.62806456D-01 -0.11779506D+00
 -0.20081476D+00 -0.31383438D+00 -0.41965637D+00 -0.44809516D+00 -0.27395660D+00
  0.18073992D+00  0.94050061D-01  0.32441750D-01 -0.31420750D-02 -0.30652717D-15
 -0.29722825D-15 -0.20050842D-15 -0.27209633D-15 -0.26384191D-15 -0.17798619D-15
 -0.32403163D+00 -0.31420168D+00 -0.21195860D+00 -0.11691382D-15  0.46105402D-17
 -0.79602034D-01 -0.80938568D-16  0.14960418D-16  0.28797516D-02 -0.10318316D-17
 -0.11690682D-17  0.59774264D-03 -0.15772857D-01 -0.15772857D-01  0.31545713D-01
 -0.66701274D-16 -0.97250548D-15  0.53463371D-15 -0.48408453D-02 -0.48408453D-02
  0.96816905D-02  0.10889548D-16  0.19067359D-15 -0.10454161D-15  0.77336546D-03
  0.77336546D-03 -0.15467309D-02 -0.24377058D-17  0.26105836D-16 -0.51309250D-17
  0.19525208D-16 -0.10206187D-16 -0.53220824D-02  0.40056054D-16 -0.29198183D-17
  0.79831236D-02 -0.98631678D-16  0.33538381D-16  0.79831236D-02  0.55022737D-16
  0.71385900D-17 -0.80776275D-17 -0.28773252D-03  0.73947365D-17 -0.49468577D-17
  0.43159878D-03 -0.28810507D-16  0.29179740D-16  0.43159878D-03 -0.73151244D-17
 -0.30326800D-02 -0.56525252D-02 -0.95848099D-02 -0.14507056D-01 -0.18100571D-01
 -0.15545976D-01 -0.59684025D-02  0.26697031D-04 -0.62806456D-01 -0.11779506D+00
 -0.20081476D+00 -0.31383438D+00 -0.41965637D+00 -0.44809516D+00 -0.27395660D+00
  0.18073992D+00  0.94050061D-01  0.32441750D-01 -0.31420750D-02 -0.55837680D-15
 -0.54143767D-15 -0.36525065D-15 -0.50134921D-16 -0.48614009D-16 -0.32794723D-16
  0.32403163D+00  0.31420168D+00  0.21195860D+00 -0.71931400D-16 -0.12183122D-16
  0.79602034D-01 -0.19922623D-17 -0.16681202D-16 -0.28797516D-02  0.16046427D-17
  0.85498613D-18 -0.59774264D-03 -0.15772857D-01 -0.15772857D-01  0.31545713D-01
 -0.68565215D-16 -0.11515872D-14  0.34377403D-15 -0.48408453D-02 -0.48408453D-02
  0.96816905D-02  0.83924000D-17  0.13025670D-15 -0.22480324D-16  0.77336546D-03
  0.77336546D-03 -0.15467309D-02 -0.26332138D-17 -0.37204218D-17 -0.88497552D-17
 -0.10170900D-16 -0.89649772D-17  0.53220824D-02 -0.44255608D-17  0.31721653D-16
 -0.79831236D-02  0.34938262D-16 -0.48267214D-17 -0.79831236D-02  0.23080711D-16
 -0.49522076D-17  0.14541969D-17  0.28773252D-03 -0.62935724D-17  0.33016123D-17
 -0.43159878D-03  0.21150195D-16 -0.76642029D-17 -0.43159878D-03  0.15042414D-17
MO    5     MO 0.0        OCC NO =    2.0000000  ORB. ENERGY =   -1.088880
 -0.18662582D-12 -0.34791296D-12 -0.58803419D-12 -0.88400800D-12 -0.10861060D-11
 -0.91739012D-12 -0.34600580D-12  0.17124020D-14 -0.73381562D-12 -0.13739344D-11
 -0.23392408D-11 -0.36184499D-11 -0.47653712D-11 -0.49515259D-11 -0.31464724D-11
  0.21086927D-11  0.90401635D-12  0.14362284D-11  0.25630798D-12  0.68016622D-15
  0.63769907D-15  0.45407973D-15  0.82913644D-16  0.77736811D-16  0.55353241D-16
 -0.39222191D+00 -0.36773297D+00 -0.26184778D+00  0.29993901D-15  0.81523313D-16
 -0.29777445D-01  0.31395815D-16 -0.88395972D-16  0.66279382D-02 -0.50024381D-17
  0.13820715D-16  0.95340639D-04 -0.42937781D-12 -0.42942677D-12  0.85880458D-12
 -0.13615142D-15  0.26685833D-15  0.44600879D-15 -0.14907694D-12 -0.14905329D-12
  0.29813022D-12 -0.80235698D-16 -0.65007549D-16 -0.28309617D-16 -0.12067866D-13
 -0.12070940D-13  0.24138806D-13  0.30178823D-16  0.18483230D-17  0.25021381D-16
  0.72721126D-17 -0.47065626D-18  0.49510541D-03 -0.29928844D-17 -0.31333703D-17
 -0.74265812D-03 -0.18823453D-16  0.45453391D-17 -0.74265812D-03  0.24466666D-16
  0.42705459D-17  0.59069215D-17  0.36599826D-03  0.44006319D-17  0.70066211D-17
 -0.54899739D-03 -0.17212270D-16 -0.24727386D-16 -0.54899739D-03 -0.62385410D-17
  0.27164054D-02  0.50630302D-02  0.85852217D-02  0.12994133D-01  0.16212884D-01
  0.13924705D-01  0.53459651D-02 -0.23912830D-04  0.68872844D-01  0.12917273D+00
  0.22021118D+00  0.34414721D+00  0.46019039D+00  0.49137605D+00  0.30041768D+00
 -0.19819734D+00 -0.10125984D+00 -0.60895171D-01 -0.45489707D-02  0.12563167D-15
  0.12182046D-15  0.82179365D-16  0.53167141D-15  0.51554242D-15  0.34778187D-15
  0.32679564D+00  0.31688184D+00  0.21376662D+00  0.55842549D-16  0.10552332D-15
  0.97357589D-01 -0.22377489D-16  0.60659900D-16  0.11346954D-01 -0.51195305D-17
  0.49322607D-17  0.28768040D-03  0.17660002D-01  0.17660002D-01 -0.35320004D-01
  0.54042143D-16 -0.15223789D-15 -0.26103793D-16  0.98914554D-02  0.98914554D-02
 -0.19782911D-01  0.45205745D-17 -0.44506778D-16 -0.20793093D-16  0.27971193D-03
  0.27971193D-03 -0.55942386D-03 -0.10168012D-17  0.14355122D-16 -0.24142707D-16
 -0.26068967D-16  0.78393595D-17  0.85619742D-02 -0.13787269D-16  0.14927477D-16
 -0.12842961D-01  0.91994170D-16 -0.38445556D-16 -0.12842961D-01 -0.24614243D-16
 -0.83344395D-19 -0.40647014D-17  0.17748005D-02 -0.75439061D-19 -0.88787427D-17
 -0.26622007D-02  0.32547225D-18  0.21072847D-16 -0.26622007D-02  0.42523830D-18
 -0.27164054D-02 -0.50630302D-02 -0.85852217D-02 -0.12994133D-01 -0.16212884D-01
 -0.13924705D-01 -0.53459651D-02  0.23912830D-04 -0.68872844D-01 -0.12917273D+00
 -0.22021118D+00 -0.34414721D+00 -0.46019039D+00 -0.49137605D+00 -0.30041768D+00
  0.19819734D+00  0.10125984D+00  0.60895171D-01  0.45489707D-02  0.12895214D-14
  0.12504020D-14  0.84351382D-15 -0.16926146D-15 -0.16412668D-15 -0.11071889D-15
  0.32679564D+00  0.31688184D+00  0.21376662D+00  0.29445121D-15 -0.23377206D-16
  0.97357589D-01  0.12269833D-15  0.61115052D-16  0.11346954D-01  0.42191353D-18
 -0.74567144D-18  0.28768040D-03 -0.17660002D-01 -0.17660002D-01  0.35320004D-01
 -0.13535070D-15  0.29681548D-15 -0.42189367D-16 -0.98914554D-02 -0.98914554D-02
  0.19782911D-01  0.48293824D-16  0.81530371D-16  0.25673829D-16 -0.27971193D-03
 -0.27971193D-03  0.55942386D-03 -0.15670993D-16  0.42164117D-16  0.29601981D-16
 -0.26383954D-16  0.18603833D-16  0.85619742D-02 -0.19510719D-16  0.21922497D-16
 -0.12842961D-01  0.98662583D-16 -0.77733996D-16 -0.12842961D-01  0.26068984D-16
 -0.20691052D-17 -0.39553998D-17  0.17748005D-02 -0.37296679D-17 -0.18459780D-17
 -0.26622007D-02  0.99369836D-17  0.13712177D-16 -0.26622007D-02  0.24943190D-17
MO    6     MO 0.0        OCC NO =    2.0000000  ORB. ENERGY =   -0.530554
 -0.38366163D-02 -0.71523251D-02 -0.12088689D-01 -0.18173260D-01 -0.22327950D-01
 -0.18859523D-01 -0.71131181D-02  0.35203218D-04 -0.41031307D-01 -0.76823553D-01
 -0.13079867D+00 -0.20232566D+00 -0.26645577D+00 -0.27686462D+00 -0.17593503D+00
  0.11790757D+00  0.59609383D-01  0.23560805D-01  0.65383202D-03  0.82953060D-14
  0.77773767D-14  0.55379555D-14  0.66481803D-15  0.62330916D-15  0.44383326D-15
  0.66065844D-11  0.61940928D-11  0.44105631D-11  0.21051236D-14  0.23247660D-15
  0.15177124D-11  0.61212296D-16  0.13062229D-17  0.72734863D-12  0.74394496D-17
 -0.53550975D-18 -0.26347029D-14 -0.86843112D-02 -0.86843112D-02  0.17368622D-01
 -0.12882547D-16  0.13981942D-16 -0.44923555D-17 -0.12803257D-02 -0.12803257D-02
  0.25606514D-02 -0.83559269D-17 -0.18663512D-16 -0.11681912D-16 -0.33859028D-03
 -0.33859028D-03  0.67718056D-03 -0.21094387D-18 -0.11360310D-17 -0.10811301D-16
 -0.17414146D-15 -0.30899999D-16  0.15833046D-12 -0.17768105D-15 -0.19500653D-16
 -0.23743626D-12  0.70010544D-15  0.11220065D-15 -0.23755513D-12 -0.56275548D-17
  0.15432834D-16  0.29069278D-17  0.39700815D-13  0.13613112D-16  0.17670196D-17
 -0.59581801D-13 -0.59911614D-16 -0.10487803D-16 -0.59520643D-13 -0.24761440D-17
 -0.17303957D-02 -0.32252350D-02 -0.54689299D-02 -0.82774802D-02 -0.10327878D-01
 -0.88702702D-02 -0.34054692D-02  0.15232873D-04  0.45610772D-01  0.85544132D-01
  0.14583399D+00  0.22791014D+00  0.30475929D+00  0.32541187D+00  0.19895044D+00
 -0.13125541D+00 -0.74751917D-01 -0.68385751D-01 -0.26141284D-02  0.14267710D-13
  0.13834879D-13  0.93329277D-14  0.17972891D-14  0.17427658D-14  0.11756595D-14
 -0.90696856D+00 -0.87945441D+00 -0.59327475D+00  0.33167282D-14  0.40190510D-15
 -0.19713189D+00  0.57018519D-15  0.10628485D-15 -0.23227549D-01 -0.51758068D-17
  0.83512229D-17 -0.42821914D-03 -0.24693676D-01 -0.24693676D-01  0.49387351D-01
  0.48688454D-16 -0.18690294D-14 -0.24850703D-15 -0.40770239D-02 -0.40770239D-02
  0.81540477D-02  0.80456873D-18 -0.41445908D-15 -0.18926888D-16 -0.45207931D-03
 -0.45207931D-03  0.90415862D-03  0.30774929D-17 -0.73476750D-16 -0.22408954D-16
 -0.15636130D-15 -0.14164292D-16 -0.54271550D-02 -0.17240912D-15 -0.21238398D-16
  0.81407325D-02  0.64149302D-15  0.63731276D-16  0.81407325D-02  0.85458138D-16
 -0.11165225D-17  0.15251651D-17 -0.71052953D-03  0.13808446D-17  0.22362769D-17
  0.10657943D-02  0.19687229D-17 -0.68117722D-17  0.10657943D-02 -0.90401276D-17
 -0.17303957D-02 -0.32252350D-02 -0.54689299D-02 -0.82774802D-02 -0.10327878D-01
 -0.88702702D-02 -0.34054692D-02  0.15232873D-04  0.45610772D-01  0.85544132D-01
  0.14583399D+00  0.22791014D+00  0.30475929D+00  0.32541187D+00  0.19895044D+00
 -0.13125541D+00 -0.74751917D-01 -0.68385751D-01 -0.26141284D-02  0.14531485D-13
  0.14090653D-13  0.95054711D-14  0.16556881D-14  0.16054605D-14  0.10830342D-14
  0.90696856D+00  0.87945441D+00  0.59327475D+00  0.33699827D-14  0.39702739D-15
  0.19713189D+00  0.55908105D-15  0.60706382D-16  0.23227549D-01 -0.70604285D-17
 -0.66486772D-17  0.42821914D-03 -0.24693676D-01 -0.24693676D-01  0.49387351D-01
  0.48111745D-16  0.17832790D-14  0.32180333D-15 -0.40770239D-02 -0.40770239D-02
  0.81540477D-02  0.41871124D-17  0.39669982D-15 -0.74116437D-18 -0.45207931D-03
 -0.45207931D-03  0.90415862D-03 -0.13051340D-18  0.61005788D-16  0.17468590D-16
 -0.15789031D-15 -0.67970692D-17  0.54271550D-02 -0.16347659D-15 -0.27014884D-16
 -0.81407325D-02  0.63714753D-15  0.47406092D-16 -0.81407325D-02 -0.58213389D-16
 -0.93614412D-18 -0.17928692D-18  0.71052953D-03 -0.11435682D-17  0.75131378D-18
 -0.10657943D-02  0.39520006D-17 -0.21345300D-18 -0.10657943D-02 -0.72768456D-18
MO    7     MO 0.0        OCC NO =    2.0000000  ORB. ENERGY =   -0.479280
 -0.46830515D-13 -0.87302728D-13 -0.14755699D-12 -0.22182649D-12 -0.27253947D-12
 -0.23020315D-12 -0.86824160D-13  0.42969761D-15 -0.66443682D-12 -0.12440354D-11
 -0.21180767D-11 -0.32763425D-11 -0.43148279D-11 -0.44833825D-11 -0.28489883D-11
  0.19093257D-11  0.82911065D-12  0.17470113D-11  0.29581788D-12 -0.15684277D-12
 -0.14705007D-12 -0.10470841D-12 -0.12737931D-12 -0.11942620D-12 -0.85038566D-13
 -0.43175679D+00 -0.40479943D+00 -0.28824131D+00 -0.37261747D-13 -0.30175258D-13
 -0.91260250D-01 -0.15513666D-14 -0.12031920D-14  0.38487109D-03 -0.92445351D-16
 -0.76263969D-16  0.34626719D-03 -0.89072460D-13 -0.89391912D-13  0.17846437D-12
 -0.21164546D-15 -0.38377016D-15  0.65281533D-15 -0.13671553D-12 -0.13658141D-12
  0.27329693D-12 -0.26658571D-16 -0.66092699D-16  0.58513671D-16 -0.21078689D-13
 -0.21107393D-13  0.42186082D-13  0.24261404D-16 -0.44268401D-19  0.71677745D-17
  0.35492793D-14  0.27924074D-14 -0.95443528D-02  0.35397210D-14  0.27639488D-14
  0.14316529D-01 -0.14187559D-13 -0.11141171D-13  0.14316529D-01 -0.14610474D-15
 -0.49773073D-16 -0.56703817D-16  0.55224618D-03 -0.50261700D-16 -0.52155873D-16
 -0.82836927D-03  0.19958092D-15  0.22226732D-15 -0.82836927D-03  0.68574629D-18
  0.20546970D-02  0.38296908D-02  0.64938866D-02  0.98287998D-02  0.12263472D-01
  0.10532687D-01  0.40437035D-02 -0.18087734D-04 -0.34023545D-01 -0.63812001D-01
 -0.10878547D+00 -0.17001052D+00 -0.22733646D+00 -0.24274233D+00 -0.14840790D+00
  0.97910521D-01  0.56411107D-01  0.52106898D-01 -0.10865557D-02 -0.29701542D-12
 -0.28800505D-12 -0.19428650D-12 -0.23977139D-12 -0.23249760D-12 -0.15684150D-12
  0.11076617D+01  0.10740592D+01  0.72455402D+00 -0.68441258D-13 -0.55549407D-13