 Molden2AIM, Version 4.0.0 (06/02/2016)           Time: Thu Jun 28 18:58:24 2018
GAUSSIAN             15 MOL ORBITALS    281 PRIMITIVES        3 NUCLEI
  C    1    (CENTRE  1)   0.00000000  0.00000000  0.26021907  CHARGE =  6.0
  O    2    (CENTRE  2)   0.00000000  0.00000000  2.45181193  CHARGE =  8.0
  S    3    (CENTRE  3)   0.00000000  0.00000000 -2.71203100  CHARGE = 16.0
CENTRE ASSIGNMENTS    1  1  1  1  1  1  1  1  1  1  1  1  1  1  1  1  1  1  1  1
CENTRE ASSIGNMENTS    1  1  1  1  1  1  1  1  1  1  1  1  1  1  1  1  1  1  1  1
CENTRE ASSIGNMENTS    1  1  1  1  1  1  1  1  1  1  1  1  1  1  1  1  1  1  1  1
CENTRE ASSIGNMENTS    1  1  1  1  1  1  1  1  1  1  1  1  1  1  1  2  2  2  2  2
CENTRE ASSIGNMENTS    2  2  2  2  2  2  2  2  2  2  2  2  2  2  2  2  2  2  2  2
CENTRE ASSIGNMENTS    2  2  2  2  2  2  2  2  2  2  2  2  2  2  2  2  2  2  2  2
CENTRE ASSIGNMENTS    2  2  2  2  2  2  2  2  2  2  2  2  2  2  2  2  2  2  2  2
CENTRE ASSIGNMENTS    2  2  2  2  2  2  2  2  2  2  3  3  3  3  3  3  3  3  3  3
CENTRE ASSIGNMENTS    3  3  3  3  3  3  3  3  3  3  3  3  3  3  3  3  3  3  3  3
CENTRE ASSIGNMENTS    3  3  3  3  3  3  3  3  3  3  3  3  3  3  3  3  3  3  3  3
CENTRE ASSIGNMENTS    3  3  3  3  3  3  3  3  3  3  3  3  3  3  3  3  3  3  3  3
CENTRE ASSIGNMENTS    3  3  3  3  3  3  3  3  3  3  3  3  3  3  3  3  3  3  3  3
CENTRE ASSIGNMENTS    3  3  3  3  3  3  3  3  3  3  3  3  3  3  3  3  3  3  3  3
CENTRE ASSIGNMENTS    3  3  3  3  3  3  3  3  3  3  3  3  3  3  3  3  3  3  3  3
CENTRE ASSIGNMENTS    3
TYPE ASSIGNMENTS      1  1  1  1  1  1  1  1  1  1  1  1  1  1  1  1  1  1  1  2
TYPE ASSIGNMENTS      2  2  3  3  3  4  4  4  2  3  4  2  3  4  2  3  4  5  6  7
TYPE ASSIGNMENTS      8  9 10  5  6  7  8  9 10  5  6  7  8  9 10 11 12 13 17 14
TYPE ASSIGNMENTS     15 18 19 16 20 11 12 13 17 14 15 18 19 16 20  1  1  1  1  1
TYPE ASSIGNMENTS      1  1  1  1  1  1  1  1  1  1  1  1  1  1  2  2  2  3  3  3
TYPE ASSIGNMENTS      4  4  4  2  3  4  2  3  4  2  3  4  5  6  7  8  9 10  5  6
TYPE ASSIGNMENTS      7  8  9 10  5  6  7  8  9 10 11 12 13 17 14 15 18 19 16 20
TYPE ASSIGNMENTS     11 12 13 17 14 15 18 19 16 20  1  1  1  1  1  1  1  1  1  1
TYPE ASSIGNMENTS      1  1  1  1  1  1  1  1  1  1  1  1  1  1  1  1  1  1  1  1
TYPE ASSIGNMENTS      1  1  1  1  1  1  1  1  1  1  1  1  2  2  2  2  2  2  2  3
TYPE ASSIGNMENTS      3  3  3  3  3  3  4  4  4  4  4  4  4  2  2  2  2  2  2  2
TYPE ASSIGNMENTS      3  3  3  3  3  3  3  4  4  4  4  4  4  4  2  3  4  2  3  4
TYPE ASSIGNMENTS      2  3  4  5  6  7  8  9 10  5  6  7  8  9 10  5  6  7  8  9
TYPE ASSIGNMENTS     10 11 12 13 17 14 15 18 19 16 20 11 12 13 17 14 15 18 19 16
TYPE ASSIGNMENTS     20
EXPONENTS  0.8236000D+04 0.1235000D+04 0.2808000D+03 0.7927000D+02 0.2559000D+02
EXPONENTS  0.8997000D+01 0.3319000D+01 0.3643000D+00 0.8236000D+04 0.1235000D+04
EXPONENTS  0.2808000D+03 0.7927000D+02 0.2559000D+02 0.8997000D+01 0.3319000D+01
EXPONENTS  0.3643000D+00 0.9059000D+00 0.1285000D+00 0.4402000D-01 0.1871000D+02
EXPONENTS  0.4133000D+01 0.1200000D+01 0.1871000D+02 0.4133000D+01 0.1200000D+01
EXPONENTS  0.1871000D+02 0.4133000D+01 0.1200000D+01 0.3827000D+00 0.3827000D+00
EXPONENTS  0.3827000D+00 0.1209000D+00 0.1209000D+00 0.1209000D+00 0.3569000D-01
EXPONENTS  0.3569000D-01 0.3569000D-01 0.1097000D+01 0.1097000D+01 0.1097000D+01
EXPONENTS  0.1097000D+01 0.1097000D+01 0.1097000D+01 0.3180000D+00 0.3180000D+00
EXPONENTS  0.3180000D+00 0.3180000D+00 0.3180000D+00 0.3180000D+00 0.1000000D+00
EXPONENTS  0.1000000D+00 0.1000000D+00 0.1000000D+00 0.1000000D+00 0.1000000D+00
EXPONENTS  0.7610000D+00 0.7610000D+00 0.7610000D+00 0.7610000D+00 0.7610000D+00
EXPONENTS  0.7610000D+00 0.7610000D+00 0.7610000D+00 0.7610000D+00 0.7610000D+00
EXPONENTS  0.2680000D+00 0.2680000D+00 0.2680000D+00 0.2680000D+00 0.2680000D+00
EXPONENTS  0.2680000D+00 0.2680000D+00 0.2680000D+00 0.2680000D+00 0.2680000D+00
EXPONENTS  0.1533000D+05 0.2299000D+04 0.5224000D+03 0.1473000D+03 0.4755000D+02
EXPONENTS  0.1676000D+02 0.6207000D+01 0.6882000D+00 0.1533000D+05 0.2299000D+04
EXPONENTS  0.5224000D+03 0.1473000D+03 0.4755000D+02 0.1676000D+02 0.6207000D+01
EXPONENTS  0.6882000D+00 0.1752000D+01 0.2384000D+00 0.7376000D-01 0.3446000D+02
EXPONENTS  0.7749000D+01 0.2280000D+01 0.3446000D+02 0.7749000D+01 0.2280000D+01
EXPONENTS  0.3446000D+02 0.7749000D+01 0.2280000D+01 0.7156000D+00 0.7156000D+00
EXPONENTS  0.7156000D+00 0.2140000D+00 0.2140000D+00 0.2140000D+00 0.5974000D-01
EXPONENTS  0.5974000D-01 0.5974000D-01 0.2314000D+01 0.2314000D+01 0.2314000D+01
EXPONENTS  0.2314000D+01 0.2314000D+01 0.2314000D+01 0.6450000D+00 0.6450000D+00
EXPONENTS  0.6450000D+00 0.6450000D+00 0.6450000D+00 0.6450000D+00 0.2140000D+00
EXPONENTS  0.2140000D+00 0.2140000D+00 0.2140000D+00 0.2140000D+00 0.2140000D+00
EXPONENTS  0.1428000D+01 0.1428000D+01 0.1428000D+01 0.1428000D+01 0.1428000D+01
EXPONENTS  0.1428000D+01 0.1428000D+01 0.1428000D+01 0.1428000D+01 0.1428000D+01
EXPONENTS  0.5000000D+00 0.5000000D+00 0.5000000D+00 0.5000000D+00 0.5000000D+00
EXPONENTS  0.5000000D+00 0.5000000D+00 0.5000000D+00 0.5000000D+00 0.5000000D+00
EXPONENTS  0.3741000D+06 0.5605000D+05 0.1276000D+05 0.3615000D+04 0.1183000D+04
EXPONENTS  0.4288000D+03 0.1678000D+03 0.6947000D+02 0.2984000D+02 0.1272000D+02
EXPONENTS  0.5244000D+01 0.2219000D+01 0.3490000D+00 0.3741000D+06 0.5605000D+05
EXPONENTS  0.1276000D+05 0.3615000D+04 0.1183000D+04 0.4288000D+03 0.1678000D+03
EXPONENTS  0.6947000D+02 0.2984000D+02 0.1272000D+02 0.5244000D+01 0.2219000D+01
EXPONENTS  0.3490000D+00 0.3741000D+06 0.5605000D+05 0.1276000D+05 0.3615000D+04
EXPONENTS  0.1183000D+04 0.4288000D+03 0.1678000D+03 0.6947000D+02 0.2984000D+02
EXPONENTS  0.1272000D+02 0.5244000D+01 0.2219000D+01 0.3490000D+00 0.7767000D+00
EXPONENTS  0.1322000D+00 0.4970000D-01 0.5744000D+03 0.1358000D+03 0.4319000D+02
EXPONENTS  0.1587000D+02 0.6208000D+01 0.2483000D+01 0.3229000D+00 0.5744000D+03
EXPONENTS  0.1358000D+03 0.4319000D+02 0.1587000D+02 0.6208000D+01 0.2483000D+01
EXPONENTS  0.3229000D+00 0.5744000D+03 0.1358000D+03 0.4319000D+02 0.1587000D+02
EXPONENTS  0.6208000D+01 0.2483000D+01 0.3229000D+00 0.5744000D+03 0.1358000D+03
EXPONENTS  0.4319000D+02 0.1587000D+02 0.6208000D+01 0.2483000D+01 0.3229000D+00
EXPONENTS  0.5744000D+03 0.1358000D+03 0.4319000D+02 0.1587000D+02 0.6208000D+01
EXPONENTS  0.2483000D+01 0.3229000D+00 0.5744000D+03 0.1358000D+03 0.4319000D+02
EXPONENTS  0.1587000D+02 0.6208000D+01 0.2483000D+01 0.3229000D+00 0.8688000D+00
EXPONENTS  0.8688000D+00 0.8688000D+00 0.1098000D+00 0.1098000D+00 0.1098000D+00
EXPONENTS  0.3510000D-01 0.3510000D-01 0.3510000D-01 0.2690000D+00 0.2690000D+00
EXPONENTS  0.2690000D+00 0.2690000D+00 0.2690000D+00 0.2690000D+00 0.8190000D+00
EXPONENTS  0.8190000D+00 0.8190000D+00 0.8190000D+00 0.8190000D+00 0.8190000D+00
EXPONENTS  0.1010000D+00 0.1010000D+00 0.1010000D+00 0.1010000D+00 0.1010000D+00
EXPONENTS  0.1010000D+00 0.5570000D+00 0.5570000D+00 0.5570000D+00 0.5570000D+00
EXPONENTS  0.5570000D+00 0.5570000D+00 0.5570000D+00 0.5570000D+00 0.5570000D+00
EXPONENTS  0.5570000D+00 0.2180000D+00 0.2180000D+00 0.2180000D+00 0.2180000D+00
EXPONENTS  0.2180000D+00 0.2180000D+00 0.2180000D+00 0.2180000D+00 0.2180000D+00
EXPONENTS  0.2180000D+00
MO    1     MO 0.0        OCC NO =    2.0000000  ORB. ENERGY =  -88.573816
  0.10606052D-03  0.19772093D-03  0.33418319D-03  0.50238681D-03  0.61724024D-03
  0.52135805D-03  0.19663708D-03 -0.97316786D-06 -0.85768165D-04 -0.16058507D-03
 -0.27340982D-03 -0.42292341D-03 -0.55697526D-03 -0.57873297D-03 -0.36775882D-03
  0.24646341D-03  0.45837690D-03  0.55092741D-03 -0.12187320D-04  0.77983708D-17
  0.73114683D-17  0.52062010D-17  0.11118089D-17  0.10423915D-17  0.74224483D-18
 -0.25188613D-03 -0.23615926D-03 -0.16815946D-03 -0.52697532D-19 -0.23971470D-18
  0.85999595D-03 -0.59723954D-19 -0.45435092D-18 -0.32957492D-03  0.31286504D-20
  0.22794931D-19  0.15154541D-05 -0.11758289D-03 -0.11758289D-03  0.23516577D-03
  0.21338596D-20 -0.14090439D-18 -0.81345601D-18  0.17078815D-03  0.17078815D-03
 -0.34157629D-03 -0.70081778D-21  0.20878829D-18  0.17364987D-17  0.16836647D-04
  0.16836647D-04 -0.33673295D-04  0.59506933D-22  0.15036504D-19  0.11024011D-18
 -0.29477846D-20 -0.93753377D-19  0.15941537D-03 -0.34129762D-20 -0.92731459D-19
 -0.23912305D-03  0.12256330D-19  0.37399159D-18 -0.23912305D-03 -0.26957046D-20
  0.24238820D-19  0.17617927D-18  0.29399379D-04  0.24299743D-19  0.17605246D-18
 -0.44099069D-04 -0.97016203D-19 -0.70459027D-18 -0.44099069D-04  0.14645601D-20
 -0.38115881D-04 -0.71043098D-04 -0.12046556D-03 -0.18233023D-03 -0.22749489D-03
 -0.19538777D-03 -0.75013165D-04  0.33553849D-06  0.23432010D-04  0.43947316D-04
  0.74920539D-04  0.11708622D-03  0.15656658D-03  0.16717661D-03  0.10220850D-03
 -0.67430961D-04  0.86581520D-04  0.21785242D-03  0.17244887D-03 -0.12067752D-18
 -0.11701660D-18 -0.78938705D-19 -0.64274186D-18 -0.62324340D-18 -0.42043632D-18
 -0.27870051D-04 -0.27024574D-04 -0.18230618D-04  0.11832003D-18  0.64681478D-18
  0.10276756D-03 -0.14409107D-19 -0.14683729D-18  0.24799865D-03 -0.67385180D-20
 -0.48436750D-19 -0.78823898D-05 -0.86595531D-04 -0.86595531D-04  0.17319106D-03
  0.20105904D-20 -0.10275154D-18 -0.11762207D-17  0.12314108D-03  0.12314108D-03
 -0.24628217D-03 -0.58449558D-21  0.24088281D-19  0.51188784D-18  0.42246675D-04
  0.42246675D-04 -0.84493350D-04 -0.47494465D-21  0.40482544D-19  0.29259610D-18
 -0.79301651D-19 -0.45883260D-18  0.12077799D-04 -0.78429620D-19 -0.46171463D-18
 -0.18116699D-04  0.31633457D-18  0.18382124D-17 -0.18116699D-04 -0.38986977D-20
  0.25113496D-19  0.19509746D-18  0.83027928D-04  0.24992065D-19  0.19539347D-18
 -0.12454189D-03 -0.10033255D-18 -0.78068584D-18 -0.12454189D-03  0.97107020D-21
  0.58516598D+00  0.10939338D+01  0.18906592D+01  0.30580563D+01  0.46220731D+01
  0.63653531D+01  0.74396220D+01  0.64283947D+01  0.29982262D+01  0.40709434D+00
  0.10900983D-02  0.21383223D-02  0.97623346D-04 -0.12362006D-02 -0.23086572D-02
 -0.40047231D-02 -0.64935201D-02 -0.99975134D-02 -0.14238705D-01 -0.18309126D-01
 -0.19219134D-01 -0.13589290D-01  0.30094051D-03  0.97640802D-02  0.53763676D-02
 -0.22736567D-04  0.51522843D-03  0.96149248D-03  0.16699973D-02  0.27050252D-02
  0.41784723D-02  0.59570400D-02  0.77481632D-02  0.82574534D-02  0.61243814D-02
 -0.19062925D-03 -0.55483705D-02 -0.54354881D-02  0.25386953D-02 -0.29885842D-02
 -0.89232900D-03 -0.14768100D-03 -0.36997299D-17 -0.48538441D-17 -0.53239272D-17
 -0.43806117D-17 -0.23095451D-17 -0.60083448D-18  0.66488460D-21  0.55723968D-16
  0.73106811D-16  0.80187029D-16  0.65979158D-16  0.34785517D-16  0.90495474D-17
 -0.10014247D-19  0.12000554D-01  0.15744073D-01  0.17268849D-01  0.14209082D-01
  0.74913093D-02  0.19488846D-02 -0.21566395D-05 -0.25966516D-17 -0.34094194D-17
 -0.38358267D-17 -0.32319740D-17 -0.18079209D-17 -0.44998784D-18  0.20638611D-18
 -0.30086885D-16 -0.39504263D-16 -0.44444959D-16 -0.37448238D-16 -0.20948020D-16
 -0.52139194D-17  0.23913547D-17 -0.10515611D-01 -0.13807062D-01 -0.15533875D-01
 -0.13088464D-01 -0.73215035D-02 -0.18223073D-02  0.83579794D-03  0.11740804D-18
 -0.37918632D-17 -0.27245196D-03  0.40747819D-19  0.22850948D-18 -0.44341161D-03
 -0.80716470D-21 -0.24774787D-21 -0.97437318D-05 -0.29456049D-04 -0.29456049D-04
  0.58912099D-04  0.48507681D-20  0.15533817D-18  0.12531692D-17 -0.22691790D-03
 -0.22691790D-03  0.45383579D-03 -0.43732140D-19  0.35894023D-19 -0.36627481D-19
  0.27411982D-04  0.27411982D-04 -0.54823964D-04 -0.29248018D-21  0.57288264D-20
  0.42646206D-19 -0.32633386D-19 -0.23521270D-18  0.13386740D-03 -0.33166014D-19
 -0.23524818D-18 -0.20080110D-03  0.13106617D-18  0.94088628D-18 -0.20080110D-03
  0.10866640D-20 -0.29485231D-20 -0.27461245D-19 -0.15730376D-04 -0.29132475D-20
 -0.27413584D-19  0.23595564D-04  0.11758817D-19  0.10979732D-18  0.23595564D-04
  0.39622189D-21
MO    2     MO 0.0        OCC NO =    2.0000000  ORB. ENERGY =  -19.054279
  0.18128531D-03  0.33795703D-03  0.57120692D-03  0.85871110D-03  0.10550258D-02
  0.89113795D-03  0.33610445D-03 -0.16633997D-05 -0.13410163D-03 -0.25108056D-03
 -0.42748613D-03 -0.66125605D-03 -0.87085095D-03 -0.90486992D-03 -0.57500422D-03
  0.38535445D-03  0.89340560D-03  0.22928505D-04  0.11038958D-03  0.14660802D-17
  0.13745434D-17  0.97875677D-18 -0.11730422D-15 -0.10998016D-15 -0.78312426D-16
  0.16958433D-02  0.15899608D-02  0.11321468D-02 -0.20316826D-17 -0.40731121D-17
 -0.78138763D-03 -0.29508719D-17 -0.44917767D-18 -0.63198946D-03  0.47183658D-19
 -0.94520243D-19 -0.97173847D-05  0.38854241D-03  0.38854241D-03 -0.77708482D-03
 -0.70838641D-21  0.15977365D-17 -0.39444952D-17  0.20534061D-03  0.20534061D-03
 -0.41068123D-03  0.76106426D-22 -0.16080773D-17 -0.38506032D-17 -0.15642024D-05
 -0.15642024D-05  0.31284048D-05  0.36863591D-21  0.29547968D-18  0.79072278D-19
  0.49535843D-19  0.13502547D-17 -0.98226212D-03  0.50113999D-19  0.13532216D-17
  0.14733932D-02 -0.19872153D-18 -0.54039859D-17  0.14733932D-02  0.49795109D-20
  0.30548526D-18  0.49126608D-19 -0.10543166D-03  0.30654643D-18  0.50154762D-19
  0.15814749D-03 -0.12230022D-17 -0.19753458D-18  0.15814749D-03 -0.36591367D-21
  0.49920092D+00  0.93044629D+00  0.15777286D+01  0.23879658D+01  0.29794840D+01
  0.25589794D+01  0.98244196D+00 -0.43945232D-02 -0.94648005D-03 -0.17751468D-02
 -0.30262361D-02 -0.47294180D-02 -0.63241330D-02 -0.67526997D-02 -0.41284682D-02
  0.27237126D-02  0.49697436D-01  0.65625605D-03 -0.34125186D-04 -0.17968552D-16
 -0.17423451D-16 -0.11753757D-16 -0.43755865D-16 -0.42428471D-16 -0.28621996D-16
 -0.76781265D-02 -0.74451999D-02 -0.50224879D-02  0.34607825D-17  0.73683850D-17
 -0.11666446D-02  0.27062289D-17  0.13276146D-17  0.68472571D-03 -0.15653092D-19
  0.12741695D-18  0.14950298D-04 -0.18183517D-02 -0.18183517D-02  0.36367033D-02
 -0.72273928D-18 -0.95181703D-17  0.71363005D-17  0.11954348D-03  0.11954348D-03
 -0.23908697D-03  0.35556994D-19 -0.87495031D-18 -0.67815419D-17  0.12086624D-03
  0.12086624D-03 -0.24173248D-03 -0.21094191D-20 -0.14826849D-17 -0.98626058D-18
  0.25123289D-18 -0.39923017D-18 -0.80697293D-03  0.78911821D-18  0.16859816D-19
  0.12104594D-02 -0.15428169D-17  0.11808307D-17  0.12104594D-02 -0.50066094D-18
  0.36962245D-19 -0.67143856D-18  0.23782349D-03  0.15721490D-19 -0.69606137D-18
 -0.35673523D-03 -0.12660822D-18  0.27103771D-17 -0.35673523D-03  0.30287696D-20
 -0.88163535D-04 -0.16481661D-03 -0.28485455D-03 -0.46073946D-03 -0.69638071D-03
 -0.95903051D-03 -0.11208843D-02 -0.96852862D-03 -0.45172520D-03 -0.61334523D-04
 -0.16423874D-06 -0.32216851D-06 -0.14708338D-07  0.17159068D-03  0.32045290D-03
  0.55587514D-03  0.90133232D-03  0.13877037D-02  0.19764018D-02  0.25413962D-02
  0.26677097D-02  0.18862598D-02 -0.41772013D-04 -0.13553021D-02 -0.74626609D-03
  0.31559467D-05 -0.10457032D-03 -0.19514368D-03 -0.33894122D-03 -0.54900958D-03
 -0.84805913D-03 -0.12090357D-02 -0.15725605D-02 -0.16759256D-02 -0.12429992D-02
  0.38689949D-04  0.11260925D-02  0.11031820D-02 -0.51525141D-03 -0.17495618D-04
 -0.40051658D-03 -0.10845104D-03  0.18704214D-16  0.24538911D-16  0.26915445D-16
  0.22146454D-16  0.11676049D-16  0.30375560D-17 -0.33613654D-20 -0.13616492D-16
 -0.17864096D-16 -0.19594190D-16 -0.16122410D-16 -0.85000534D-17 -0.22113122D-17
  0.24470423D-20 -0.25039525D-02 -0.32850493D-02 -0.36031984D-02 -0.29647687D-02
 -0.15630847D-02 -0.40664076D-03  0.44998946D-06 -0.15003631D-16 -0.19699858D-16
 -0.22163669D-16 -0.18674567D-16 -0.10446291D-16 -0.26000605D-17  0.11925130D-17
  0.11245889D-16  0.14765921D-16  0.16612657D-16  0.13997420D-16  0.78299603D-17
  0.19488612D-17 -0.89384164D-18  0.31179118D-02  0.40938371D-02  0.46058428D-02
  0.38807708D-02  0.21708488D-02  0.54031984D-03 -0.24781671D-03 -0.16389744D-17
  0.16918281D-17 -0.41906328D-03  0.13485810D-17  0.14216088D-18 -0.37701612D-04
 -0.11121167D-20  0.56342365D-19 -0.21212853D-05 -0.18340441D-04 -0.18340441D-04
  0.36680882D-04  0.29443591D-21  0.15098961D-17 -0.99610524D-18  0.25162442D-03
  0.25162442D-03 -0.50324884D-03 -0.19993802D-20 -0.25041815D-17  0.16955910D-17
 -0.69157652D-05 -0.69157652D-05  0.13831530D-04 -0.23093718D-21  0.40202614D-18
  0.31984714D-19  0.20525902D-18 -0.11045040D-18 -0.13006585D-03  0.20785681D-18
 -0.11107615D-18  0.19509877D-03 -0.82363387D-18  0.44242736D-18  0.19509877D-03
 -0.48556357D-21 -0.81352722D-19  0.56245908D-19  0.19415748D-04 -0.81839787D-19
  0.56194425D-19 -0.29123622D-04  0.32589795D-18 -0.22493215D-18 -0.29123622D-04
 -0.17830326D-21
MO    3     MO 0.0        OCC NO =    2.0000000  ORB. ENERGY =  -10.202902
  0.32874453D+00  0.61285455D+00  0.10358322D+01  0.15571950D+01  0.19131940D+01
  0.16159982D+01  0.60949506D+00 -0.30164251D-02 -0.21621695D-02 -0.40482636D-02
 -0.68925151D-02 -0.10661673D-01 -0.14041048D-01 -0.14589548D-01 -0.92710030D-02
  0.62132106D-02  0.33160418D-01  0.46262546D-02  0.86571552D-03  0.42022899D-16
  0.39399139D-16  0.28054534D-16  0.35333652D-16  0.33127545D-16  0.23588786D-16
  0.11215518D-02  0.10515261D-02  0.74874926D-03 -0.10427945D-16 -0.60284047D-17
  0.75299216D-02 -0.27650028D-17 -0.17779617D-17 -0.67495817D-03 -0.16656219D-19
  0.61595964D-20 -0.45537782D-04 -0.31818740D-02 -0.31818740D-02  0.63637480D-02
 -0.40555194D-17  0.66968945D-18 -0.81423358D-17 -0.96154166D-07 -0.96154166D-07
  0.19230833D-06  0.16938361D-18 -0.15585646D-17  0.13665391D-17  0.22002610D-04
  0.22002610D-04 -0.44005220D-04 -0.49515489D-20 -0.42056409D-19  0.15017307D-18
  0.32870206D-18 -0.29010317D-18  0.17673294D-02 -0.28873679D-19  0.96455441D-18
 -0.26509942D-02 -0.95723250D-18 -0.94244915D-19 -0.26509942D-02  0.85509158D-18
  0.53922228D-18  0.38025951D-18 -0.94567242D-04  0.54704075D-18  0.33368040D-18
  0.14185086D-03 -0.21647076D-17 -0.14744589D-17  0.14185086D-03 -0.80345642D-19
 -0.65964485D-04 -0.12294931D-03 -0.20848130D-03 -0.31554615D-03 -0.39370947D-03
 -0.33814393D-03 -0.12982003D-03  0.58069296D-06 -0.49021004D-04 -0.91940107D-04
 -0.15673773D-03 -0.24495056D-03 -0.32754557D-03 -0.34974230D-03 -0.21382559D-03
  0.14106914D-03  0.98881099D-03 -0.49327843D-02 -0.13877544D-02 -0.21616535D-17
 -0.20960767D-17 -0.14140010D-17 -0.13713989D-17 -0.13297956D-17 -0.89707229D-18
 -0.35531706D-02 -0.34453803D-02 -0.23242332D-02  0.27306031D-17  0.16231432D-17
  0.53683306D-02  0.50030005D-17  0.19931343D-17  0.43363771D-02  0.14982061D-18
  0.73451864D-20  0.18534037D-03 -0.27182654D-04 -0.27182654D-04  0.54365309D-04
  0.66905664D-19  0.34090467D-17  0.12893478D-17  0.17912346D-02  0.17912346D-02
 -0.35824691D-02  0.25451576D-19 -0.38545447D-17 -0.15834422D-17  0.41877894D-03
  0.41877894D-03 -0.83755788D-03  0.97338175D-20 -0.19863875D-17 -0.67286504D-18
  0.64090748D-18 -0.57080700D-19  0.58121119D-03  0.75281679D-18 -0.21945929D-20
 -0.87181679D-03 -0.26755392D-17  0.17343669D-18 -0.87181679D-03 -0.10981280D-17
 -0.29217705D-18 -0.29086088D-19  0.72360643D-03 -0.30001489D-18 -0.43078364D-19
 -0.10854096D-02  0.11765460D-17  0.13033663D-18 -0.10854096D-02  0.57626172D-19
  0.21603236D-03  0.40385995D-03  0.69799609D-03  0.11289774D-02  0.17063832D-02
  0.23499696D-02  0.27465697D-02  0.23732434D-02  0.11068892D-02  0.15029164D-03
  0.40244397D-06  0.78942871D-06  0.36040718D-07 -0.41517264D-03 -0.77535259D-03
 -0.13449690D-02 -0.21808208D-02 -0.33576219D-02 -0.47820077D-02 -0.61490412D-02
 -0.64546635D-02 -0.45639045D-02  0.10106958D-03  0.32792244D-02  0.18056299D-02
 -0.76359784D-05  0.23643448D-03  0.44122172D-03  0.76634932D-03  0.12413159D-02
  0.19174697D-02  0.27336412D-02  0.35555742D-02  0.37892837D-02  0.28104329D-02
 -0.87478341D-04 -0.25461058D-02 -0.24943049D-02  0.11649883D-02 -0.53158267D-03
 -0.11203293D-02 -0.96667028D-03  0.44289243D-16  0.58105075D-16  0.63732411D-16
  0.52440037D-16  0.27647425D-16  0.71925532D-17 -0.79592934D-20  0.37433455D-16
  0.49110655D-16  0.53866903D-16  0.44322541D-16  0.23367720D-16  0.60791764D-17
 -0.67272284D-20  0.12392136D-01  0.16257808D-01  0.17832337D-01  0.14672730D-01
  0.77357533D-02  0.20124774D-02 -0.22270114D-05 -0.39003452D-16 -0.51211771D-16
 -0.57616695D-16 -0.48546422D-16 -0.27156188D-16 -0.67591198D-17  0.31000580D-17
 -0.32773459D-16 -0.43031751D-16 -0.48413621D-16 -0.40792136D-16 -0.22818549D-16
 -0.56794904D-17  0.26048880D-17 -0.12025530D-01 -0.15789594D-01 -0.17764358D-01
 -0.14967815D-01 -0.83727858D-02 -0.20839693D-02  0.95580875D-03 -0.21829827D-17
 -0.18808617D-17  0.43045785D-03  0.98490232D-18  0.10179629D-17 -0.76144872D-03
  0.53548149D-20 -0.39225236D-20 -0.40825370D-04 -0.54208978D-04 -0.54208978D-04
  0.10841796D-03 -0.38865090D-19  0.26649394D-17  0.24568219D-17 -0.52815497D-03
 -0.52815497D-03  0.10563099D-02  0.28763137D-19  0.87597847D-19 -0.25737241D-18
  0.25582062D-04  0.25582062D-04 -0.51164125D-04 -0.83499395D-21  0.25453530D-18
  0.23680018D-18 -0.39796889D-18 -0.26154035D-18 -0.59433038D-05 -0.37822690D-18
 -0.29661244D-18  0.89149557D-05  0.15721336D-17  0.10812335D-17  0.89149557D-05
  0.49096616D-19 -0.11013707D-18 -0.10845797D-18  0.13031951D-04 -0.11246987D-18
 -0.10018063D-18 -0.19547927D-04  0.44288107D-18  0.42555454D-18 -0.19547927D-04
 -0.29919617D-19
MO    4     MO 0.0        OCC NO =    2.0000000  ORB. ENERGY =   -7.925075
 -0.69764902D-04 -0.13005764D-03 -0.21982032D-03 -0.33046195D-03 -0.40601068D-03
 -0.34294093D-03 -0.12934470D-03  0.64013414D-06  0.45712269D-05  0.85587790D-05
  0.14572054D-04  0.22540751D-04  0.29685376D-04  0.30845007D-04  0.19600618D-04
 -0.13135878D-04  0.28724584D-03 -0.29943495D-03  0.13732755D-04  0.44484300D-15
  0.41706859D-15  0.29697768D-15 -0.48397202D-16 -0.45375453D-16 -0.32310026D-16
 -0.45451691D-03 -0.42613849D-03 -0.30343599D-03 -0.17364651D-15  0.15576240D-16
  0.93899166D-03  0.28485650D-16  0.65932143D-17  0.10738224D-03 -0.15624314D-18
  0.84010905D-19  0.26896053D-06  0.14388162D-03  0.14388162D-03 -0.28776324D-03
  0.72207847D-19 -0.89521976D-19 -0.20629775D-16  0.98488435D-04  0.98488435D-04
 -0.19697687D-03 -0.10184552D-18  0.15788242D-16  0.11781793D-16  0.28271088D-05
  0.28271088D-05 -0.56542175D-05  0.55145377D-20  0.19128028D-17  0.12467484D-17
 -0.33374039D-17  0.34844177D-18  0.27350239D-03 -0.32541809D-17  0.34892357D-18
 -0.41025358D-03  0.13266393D-16 -0.13942489D-17 -0.41025358D-03 -0.17742405D-18
  0.68005469D-18 -0.13915229D-17 -0.28424524D-06  0.66503093D-18 -0.13963659D-17
  0.42636786D-06 -0.27051950D-17  0.55709346D-17  0.42636786D-06  0.13322414D-18
  0.11480726D-04  0.21398596D-04  0.36284929D-04  0.54918931D-04  0.68522791D-04
  0.58851939D-04  0.22594404D-04 -0.10106615D-06 -0.65300684D-05 -0.12247305D-04
 -0.20878970D-04 -0.32629767D-04 -0.43632215D-04 -0.46589033D-04 -0.28483622D-04
  0.18791763D-04 -0.11829241D-04 -0.14548723D-03 -0.55543924D-04 -0.20381194D-16
 -0.19762903D-16 -0.13331937D-16 -0.24054741D-16 -0.23325007D-16 -0.15734912D-16
 -0.88767508D-05 -0.86074623D-05 -0.58065432D-05 -0.17958048D-17 -0.25483641D-17
  0.24676240D-03 -0.61165642D-17 -0.17375841D-16  0.14818271D-03 -0.22589941D-18
 -0.10535484D-17  0.65311172D-05  0.14793804D-04  0.14793804D-04 -0.29587608D-04
  0.69220649D-19 -0.21776430D-16  0.29966901D-16  0.67997424D-04  0.67997424D-04
 -0.13599485D-03 -0.42252598D-19  0.18394820D-16  0.23533600D-17  0.15444324D-04
  0.15444324D-04 -0.30888648D-04 -0.33652267D-19  0.20219790D-17  0.78672181D-17
 -0.15392313D-17  0.16521822D-17  0.10650334D-04 -0.15877859D-17  0.16375326D-17
 -0.15975502D-04  0.62054799D-17 -0.65940793D-17 -0.15975502D-04 -0.23669928D-18
  0.13875302D-17 -0.13315523D-17  0.14161323D-04  0.14017418D-17 -0.13262011D-17
 -0.21241984D-04 -0.55643324D-17  0.53208581D-17 -0.21241984D-04  0.49407533D-19
 -0.39894952D-03 -0.74581294D-03 -0.12889976D-02 -0.20848958D-02 -0.31511979D-02
 -0.43397166D-02 -0.50721226D-02 -0.43826966D-02 -0.20441053D-02 -0.27754534D-03
 -0.74319804D-06 -0.14578473D-05 -0.66556820D-07 -0.16133197D+00 -0.30129433D+00
 -0.52264164D+00 -0.84744535D+00 -0.13047386D+01 -0.18582408D+01 -0.23894565D+01
 -0.25082183D+01 -0.17734881D+01  0.39274636D-01  0.12742741D+01  0.70164990D+00
 -0.29672655D-02  0.33696957D-03  0.62883506D-03  0.10922112D-02  0.17691399D-02
  0.27328034D-02  0.38960218D-02  0.50674517D-02  0.54005375D-02  0.40054664D-02
 -0.12467529D-03 -0.36287439D-02 -0.35549166D-02  0.16603569D-02  0.43032620D-01
  0.46943869D-03 -0.81251886D-05 -0.13923938D-14 -0.18267449D-14 -0.20036607D-14
 -0.16486438D-14 -0.86919759D-15 -0.22612413D-15  0.25022941D-18  0.26884183D-14
  0.35270584D-14  0.38686454D-14  0.31831828D-14  0.16782369D-14  0.43659792D-15
 -0.48314012D-18  0.69938639D-01  0.91755686D-01  0.10064200D+00  0.82809834D-01
  0.43658982D-01  0.11358004D-01 -0.12568789D-04 -0.16344702D-15 -0.21460693D-15
 -0.24144726D-15 -0.20343757D-15 -0.11380013D-15 -0.28324620D-16  0.12991035D-16
  0.11278286D-15  0.14808458D-15  0.16660513D-15  0.14037742D-15  0.78525161D-16
  0.19544753D-16 -0.89641654D-17 -0.70914175D-02 -0.93110743D-02 -0.10475586D-01
 -0.88264736D-02 -0.49374056D-02 -0.12289102D-02  0.56363743D-03 -0.46123099D-16
  0.69657637D-16  0.78476944D-03  0.45776913D-17 -0.53122565D-18  0.78121782D-04
  0.11952124D-18  0.16607194D-18 -0.16533025D-05 -0.37824643D-04 -0.37824643D-04
  0.75649287D-04  0.78418217D-18  0.67753005D-17 -0.23532989D-17 -0.65122140D-03
 -0.65122140D-03  0.13024428D-02 -0.10066276D-16 -0.37106810D-17 -0.48520420D-17
 -0.13447023D-05 -0.13447023D-05  0.26894045D-05 -0.53850887D-19  0.13764199D-17
 -0.14014018D-18 -0.15217484D-17  0.73554962D-18  0.22907362D-03 -0.16231445D-17
  0.22008768D-18 -0.34361043D-03  0.61883897D-17 -0.24267365D-17 -0.34361043D-03
 -0.46280311D-18 -0.31133161D-18  0.36644553D-19 -0.83673593D-05 -0.29093297D-18
  0.77490018D-19  0.12551039D-04  0.12249278D-17 -0.18742368D-18  0.12551039D-04
  0.97804377D-19
MO    5     MO 0.0        OCC NO =    2.0000000  ORB. ENERGY =   -5.836789
 -0.29235098D-03 -0.54500869D-03 -0.92116070D-03 -0.13848063D-02 -0.17013945D-02
 -0.14370996D-02 -0.54202111D-03  0.26824927D-05  0.96717096D-04  0.18108492D-03
  0.30831257D-03  0.47691267D-03  0.62807720D-03  0.65261245D-03  0.41470591D-03
 -0.27792626D-03  0.77514100D-03 -0.30281712D-02 -0.34724226D-03 -0.19304374D-15
 -0.18099078D-15 -0.12887622D-15  0.29023101D-16  0.27211002D-16  0.19375854D-16
 -0.10693915D-02 -0.10026225D-02 -0.71392693D-03  0.11591785D-15 -0.62621497D-16
  0.18188407D-02 -0.60829346D-16  0.29858404D-16  0.12511891D-02 -0.83189081D-18
 -0.43307895D-18  0.21904273D-04  0.31821073D-03  0.31821073D-03 -0.63642146D-03
  0.17933598D-18  0.35355503D-17  0.14627739D-16  0.40632996D-03  0.40632996D-03
 -0.81265993D-03 -0.80396643D-19  0.12192872D-16 -0.13863101D-16  0.32240721D-04
  0.32240721D-04 -0.64481442D-04 -0.12631885D-19  0.51163673D-18  0.11949263D-17
 -0.30051731D-17  0.29169269D-17  0.23254372D-03 -0.28339332D-17  0.28277162D-17
 -0.34881558D-03  0.11849453D-16 -0.11578497D-16 -0.34881558D-03  0.25148677D-18
  0.34038590D-17 -0.29924362D-18  0.60576825D-04  0.33982677D-17 -0.28856764D-18
 -0.90865237D-04 -0.13609845D-16  0.11862985D-17 -0.90865237D-04 -0.38430082D-19
  0.10703121D-03  0.19949240D-03  0.33827301D-03  0.51199195D-03  0.63881647D-03
  0.54865815D-03  0.21064053D-03 -0.94220803D-06 -0.73777016D-04 -0.13837062D-03
 -0.23589158D-03 -0.36865262D-03 -0.49295879D-03 -0.52636506D-03 -0.32180928D-03
  0.21231022D-03 -0.23419642D-04 -0.24457016D-04 -0.12510496D-03 -0.15708985D-16
 -0.15232431D-16 -0.10275708D-16 -0.18404970D-17 -0.17846630D-17 -0.12039231D-17
  0.10659789D-03  0.10336409D-03  0.69728806D-04  0.39411833D-17 -0.42698069D-20
 -0.43170173D-04  0.17157889D-16  0.57525818D-17 -0.19301622D-04  0.28171962D-18
 -0.40411998D-18  0.29558270D-04 -0.14286188D-03 -0.14286188D-03  0.28572376D-03
 -0.13143039D-19 -0.13568791D-16 -0.12313204D-17  0.99307528D-04  0.99307528D-04
 -0.19861506D-03 -0.15997589D-19  0.76628179D-17  0.71675470D-18 -0.76896979D-06
 -0.76896979D-06  0.15379396D-05  0.46015652D-19 -0.62237269D-17 -0.52178637D-17
 -0.37235675D-17 -0.16238907D-17 -0.14298375D-03 -0.37255294D-17 -0.16021111D-17
  0.21447562D-03  0.14896232D-16  0.64737831D-17  0.21447562D-03  0.32487346D-18
  0.19387071D-17 -0.68178351D-18  0.48575499D-04  0.19293328D-17 -0.68969723D-18
 -0.72863248D-04 -0.77454542D-17  0.27350478D-17 -0.72863248D-04 -0.86918715D-19
  0.92060897D-04  0.17210250D-03  0.29744685D-03  0.48110693D-03  0.72716495D-03
  0.10014255D-02  0.11704342D-02  0.10113434D-02  0.47169419D-03  0.64045880D-04
  0.17149909D-06  0.33641031D-06  0.15358536D-07  0.84725003D-03  0.15822755D-02
  0.27447017D-02  0.44504389D-02  0.68519574D-02  0.97587264D-02  0.12548455D-01
  0.13172144D-01  0.93136393D-02 -0.20625444D-03 -0.66919702D-02 -0.36847804D-02
  0.15582874D-04  0.14294650D-03  0.26675932D-03  0.46332901D-03  0.75049020D-03
  0.11592877D-02  0.16527388D-02  0.21496733D-02  0.22909723D-02  0.16991665D-02
 -0.52888744D-04 -0.15393564D-02 -0.15080379D-02  0.70434315D-03 -0.68332304D-03
  0.30521333D-02  0.48555857D-03  0.27692867D-14  0.36331534D-14  0.39850155D-14
  0.32789339D-14  0.17287188D-14  0.44973092D-15 -0.49767312D-18 -0.18839585D-14
 -0.24716509D-14 -0.27110244D-14 -0.22306738D-14 -0.11760553D-14 -0.30595402D-15
  0.33856931D-18  0.97343533D+01  0.12770941D+02  0.14007776D+02  0.11525820D+02
  0.60766404D+01  0.15808546D+01 -0.17493768D-02 -0.39271446D-15 -0.51563648D-15
 -0.58012580D-15 -0.48879985D-15 -0.27342778D-15 -0.68055619D-16  0.31213586D-16
  0.12583167D-15  0.16521776D-15  0.18588111D-15  0.15661889D-15  0.87610413D-16
  0.21806053D-16 -0.10001307D-16 -0.42552471D-01 -0.55871653D-01 -0.62859377D-01
 -0.52963778D-01 -0.29627195D-01 -0.73741485D-02  0.33821398D-02 -0.21411596D-16
  0.40861785D-17  0.76876599D-01  0.41470847D-17  0.24406271D-17  0.88398718D-03
  0.38544457D-18  0.57781654D-18  0.11089710D-04 -0.21008887D-03 -0.21008887D-03
  0.42017775D-03  0.29143442D-18  0.23696878D-16 -0.11829449D-16 -0.11067589D-02
 -0.11067589D-02  0.22135179D-02 -0.29078373D-17 -0.44960037D-16  0.10652591D-15