 Molden2AIM, Version 4.0.0 (06/02/2016)           Time: Thu Jun 28 20:16:36 2018
GAUSSIAN             33 MOL ORBITALS    590 PRIMITIVES        6 NUCLEI
  C    1    (CENTRE  1)  -2.73607209  0.29129183  0.03719170  CHARGE =  6.0
  O    2    (CENTRE  2)  -2.83429250  2.53359739  0.00726789  CHARGE =  8.0
  F    3    (CENTRE  3)  -4.83042910 -1.19176334 -0.10783722  CHARGE =  9.0
  N    4    (CENTRE  4)  -0.71064474 -1.27113562  0.31068231  CHARGE =  7.0
  H    5    (CENTRE  5)  -0.90056599 -3.09987461 -0.21301749  CHARGE =  1.0
  Br   6    (CENTRE  6)   2.50721303  0.02989358 -0.03555520  CHARGE = 35.0
CENTRE ASSIGNMENTS    1  1  1  1  1  1  1  1  1  1  1  1  1  1  1  1  1  1  1  1
CENTRE ASSIGNMENTS    1  1  1  1  1  1  1  1  1  1  1  1  1  1  1  1  1  1  1  1
CENTRE ASSIGNMENTS    1  1  1  1  1  1  1  1  1  1  1  1  1  1  1  1  1  1  1  1
CENTRE ASSIGNMENTS    1  1  1  1  1  1  1  1  1  1  1  1  1  1  1  2  2  2  2  2
CENTRE ASSIGNMENTS    2  2  2  2  2  2  2  2  2  2  2  2  2  2  2  2  2  2  2  2
CENTRE ASSIGNMENTS    2  2  2  2  2  2  2  2  2  2  2  2  2  2  2  2  2  2  2  2
CENTRE ASSIGNMENTS    2  2  2  2  2  2  2  2  2  2  2  2  2  2  2  2  2  2  2  2
CENTRE ASSIGNMENTS    2  2  2  2  2  2  2  2  2  2  3  3  3  3  3  3  3  3  3  3
CENTRE ASSIGNMENTS    3  3  3  3  3  3  3  3  3  3  3  3  3  3  3  3  3  3  3  3
CENTRE ASSIGNMENTS    3  3  3  3  3  3  3  3  3  3  3  3  3  3  3  3  3  3  3  3
CENTRE ASSIGNMENTS    3  3  3  3  3  3  3  3  3  3  3  3  3  3  3  3  3  3  3  3
CENTRE ASSIGNMENTS    3  3  3  3  3  4  4  4  4  4  4  4  4  4  4  4  4  4  4  4
CENTRE ASSIGNMENTS    4  4  4  4  4  4  4  4  4  4  4  4  4  4  4  4  4  4  4  4
CENTRE ASSIGNMENTS    4  4  4  4  4  4  4  4  4  4  4  4  4  4  4  4  4  4  4  4
CENTRE ASSIGNMENTS    4  4  4  4  4  4  4  4  4  4  4  4  4  4  4  4  4  4  4  4
CENTRE ASSIGNMENTS    5  5  5  5  5  5  5  5  5  5  5  5  5  5  5  5  5  5  5  5
CENTRE ASSIGNMENTS    5  5  5  5  5  5  5  6  6  6  6  6  6  6  6  6  6  6  6  6
CENTRE ASSIGNMENTS    6  6  6  6  6  6  6  6  6  6  6  6  6  6  6  6  6  6  6  6
CENTRE ASSIGNMENTS    6  6  6  6  6  6  6  6  6  6  6  6  6  6  6  6  6  6  6  6
CENTRE ASSIGNMENTS    6  6  6  6  6  6  6  6  6  6  6  6  6  6  6  6  6  6  6  6
CENTRE ASSIGNMENTS    6  6  6  6  6  6  6  6  6  6  6  6  6  6  6  6  6  6  6  6
CENTRE ASSIGNMENTS    6  6  6  6  6  6  6  6  6  6  6  6  6  6  6  6  6  6  6  6
CENTRE ASSIGNMENTS    6  6  6  6  6  6  6  6  6  6  6  6  6  6  6  6  6  6  6  6
CENTRE ASSIGNMENTS    6  6  6  6  6  6  6  6  6  6  6  6  6  6  6  6  6  6  6  6
CENTRE ASSIGNMENTS    6  6  6  6  6  6  6  6  6  6  6  6  6  6  6  6  6  6  6  6
CENTRE ASSIGNMENTS    6  6  6  6  6  6  6  6  6  6  6  6  6  6  6  6  6  6  6  6
CENTRE ASSIGNMENTS    6  6  6  6  6  6  6  6  6  6  6  6  6  6  6  6  6  6  6  6
CENTRE ASSIGNMENTS    6  6  6  6  6  6  6  6  6  6  6  6  6  6  6  6  6  6  6  6
CENTRE ASSIGNMENTS    6  6  6  6  6  6  6  6  6  6  6  6  6  6  6  6  6  6  6  6
CENTRE ASSIGNMENTS    6  6  6  6  6  6  6  6  6  6
TYPE ASSIGNMENTS      1  1  1  1  1  1  1  1  1  1  1  1  1  1  1  1  1  1  1  2
TYPE ASSIGNMENTS      2  2  3  3  3  4  4  4  2  3  4  2  3  4  2  3  4  5  6  7
TYPE ASSIGNMENTS      8  9 10  5  6  7  8  9 10  5  6  7  8  9 10 11 12 13 17 14
TYPE ASSIGNMENTS     15 18 19 16 20 11 12 13 17 14 15 18 19 16 20  1  1  1  1  1
TYPE ASSIGNMENTS      1  1  1  1  1  1  1  1  1  1  1  1  1  1  2  2  2  3  3  3
TYPE ASSIGNMENTS      4  4  4  2  3  4  2  3  4  2  3  4  5  6  7  8  9 10  5  6
TYPE ASSIGNMENTS      7  8  9 10  5  6  7  8  9 10 11 12 13 17 14 15 18 19 16 20
TYPE ASSIGNMENTS     11 12 13 17 14 15 18 19 16 20  1  1  1  1  1  1  1  1  1  1
TYPE ASSIGNMENTS      1  1  1  1  1  1  1  1  1  2  2  2  3  3  3  4  4  4  2  3
TYPE ASSIGNMENTS      4  2  3  4  2  3  4  5  6  7  8  9 10  5  6  7  8  9 10  5
TYPE ASSIGNMENTS      6  7  8  9 10 11 12 13 17 14 15 18 19 16 20 11 12 13 17 14
TYPE ASSIGNMENTS     15 18 19 16 20  1  1  1  1  1  1  1  1  1  1  1  1  1  1  1
TYPE ASSIGNMENTS      1  1  1  1  2  2  2  3  3  3  4  4  4  2  3  4  2  3  4  2
TYPE ASSIGNMENTS      3  4  5  6  7  8  9 10  5  6  7  8  9 10  5  6  7  8  9 10
TYPE ASSIGNMENTS     11 12 13 17 14 15 18 19 16 20 11 12 13 17 14 15 18 19 16 20
TYPE ASSIGNMENTS      1  1  1  1  1  1  2  3  4  2  3  4  2  3  4  5  6  7  8  9
TYPE ASSIGNMENTS     10  5  6  7  8  9 10  1  1  1  1  1  1  1  1  1  1  1  1  1
TYPE ASSIGNMENTS      1  1  1  1  1  1  1  1  1  1  1  1  1  1  1  1  1  1  1  1
TYPE ASSIGNMENTS      1  1  1  1  1  1  1  1  1  1  1  1  1  1  1  1  1  1  1  1
TYPE ASSIGNMENTS      1  1  1  1  1  1  1  1  1  1  1  1  1  1  1  1  1  1  1  1
TYPE ASSIGNMENTS      1  1  2  2  2  2  2  2  2  2  2  2  2  3  3  3  3  3  3  3
TYPE ASSIGNMENTS      3  3  3  3  4  4  4  4  4  4  4  4  4  4  4  2  2  2  2  2
TYPE ASSIGNMENTS      2  2  2  2  2  2  3  3  3  3  3  3  3  3  3  3  3  4  4  4
TYPE ASSIGNMENTS      4  4  4  4  4  4  4  4  2  2  2  2  2  2  2  2  2  2  2  3
TYPE ASSIGNMENTS      3  3  3  3  3  3  3  3  3  3  4  4  4  4  4  4  4  4  4  4
TYPE ASSIGNMENTS      4  2  3  4  2  3  4  2  3  4  5  5  5  5  5  5  5  6  6  6
TYPE ASSIGNMENTS      6  6  6  6  7  7  7  7  7  7  7  8  8  8  8  8  8  8  9  9
TYPE ASSIGNMENTS      9  9  9  9  9 10 10 10 10 10 10 10  5  6  7  8  9 10  5  6
TYPE ASSIGNMENTS      7  8  9 10  5  6  7  8  9 10 11 12 13 17 14 15 18 19 16 20
TYPE ASSIGNMENTS     11 12 13 17 14 15 18 19 16 20
EXPONENTS  0.8236000D+04 0.1235000D+04 0.2808000D+03 0.7927000D+02 0.2559000D+02
EXPONENTS  0.8997000D+01 0.3319000D+01 0.3643000D+00 0.8236000D+04 0.1235000D+04
EXPONENTS  0.2808000D+03 0.7927000D+02 0.2559000D+02 0.8997000D+01 0.3319000D+01
EXPONENTS  0.3643000D+00 0.9059000D+00 0.1285000D+00 0.4402000D-01 0.1871000D+02
EXPONENTS  0.4133000D+01 0.1200000D+01 0.1871000D+02 0.4133000D+01 0.1200000D+01
EXPONENTS  0.1871000D+02 0.4133000D+01 0.1200000D+01 0.3827000D+00 0.3827000D+00
EXPONENTS  0.3827000D+00 0.1209000D+00 0.1209000D+00 0.1209000D+00 0.3569000D-01
EXPONENTS  0.3569000D-01 0.3569000D-01 0.1097000D+01 0.1097000D+01 0.1097000D+01
EXPONENTS  0.1097000D+01 0.1097000D+01 0.1097000D+01 0.3180000D+00 0.3180000D+00
EXPONENTS  0.3180000D+00 0.3180000D+00 0.3180000D+00 0.3180000D+00 0.1000000D+00
EXPONENTS  0.1000000D+00 0.1000000D+00 0.1000000D+00 0.1000000D+00 0.1000000D+00
EXPONENTS  0.7610000D+00 0.7610000D+00 0.7610000D+00 0.7610000D+00 0.7610000D+00
EXPONENTS  0.7610000D+00 0.7610000D+00 0.7610000D+00 0.7610000D+00 0.7610000D+00
EXPONENTS  0.2680000D+00 0.2680000D+00 0.2680000D+00 0.2680000D+00 0.2680000D+00
EXPONENTS  0.2680000D+00 0.2680000D+00 0.2680000D+00 0.2680000D+00 0.2680000D+00
EXPONENTS  0.1533000D+05 0.2299000D+04 0.5224000D+03 0.1473000D+03 0.4755000D+02
EXPONENTS  0.1676000D+02 0.6207000D+01 0.6882000D+00 0.1533000D+05 0.2299000D+04
EXPONENTS  0.5224000D+03 0.1473000D+03 0.4755000D+02 0.1676000D+02 0.6207000D+01
EXPONENTS  0.6882000D+00 0.1752000D+01 0.2384000D+00 0.7376000D-01 0.3446000D+02
EXPONENTS  0.7749000D+01 0.2280000D+01 0.3446000D+02 0.7749000D+01 0.2280000D+01
EXPONENTS  0.3446000D+02 0.7749000D+01 0.2280000D+01 0.7156000D+00 0.7156000D+00
EXPONENTS  0.7156000D+00 0.2140000D+00 0.2140000D+00 0.2140000D+00 0.5974000D-01
EXPONENTS  0.5974000D-01 0.5974000D-01 0.2314000D+01 0.2314000D+01 0.2314000D+01
EXPONENTS  0.2314000D+01 0.2314000D+01 0.2314000D+01 0.6450000D+00 0.6450000D+00
EXPONENTS  0.6450000D+00 0.6450000D+00 0.6450000D+00 0.6450000D+00 0.2140000D+00
EXPONENTS  0.2140000D+00 0.2140000D+00 0.2140000D+00 0.2140000D+00 0.2140000D+00
EXPONENTS  0.1428000D+01 0.1428000D+01 0.1428000D+01 0.1428000D+01 0.1428000D+01
EXPONENTS  0.1428000D+01 0.1428000D+01 0.1428000D+01 0.1428000D+01 0.1428000D+01
EXPONENTS  0.5000000D+00 0.5000000D+00 0.5000000D+00 0.5000000D+00 0.5000000D+00
EXPONENTS  0.5000000D+00 0.5000000D+00 0.5000000D+00 0.5000000D+00 0.5000000D+00
EXPONENTS  0.1950000D+05 0.2923000D+04 0.6645000D+03 0.1875000D+03 0.6062000D+02
EXPONENTS  0.2142000D+02 0.7950000D+01 0.8815000D+00 0.1950000D+05 0.2923000D+04
EXPONENTS  0.6645000D+03 0.1875000D+03 0.6062000D+02 0.2142000D+02 0.7950000D+01
EXPONENTS  0.8815000D+00 0.2257000D+01 0.3041000D+00 0.9158000D-01 0.4388000D+02
EXPONENTS  0.9926000D+01 0.2930000D+01 0.4388000D+02 0.9926000D+01 0.2930000D+01
EXPONENTS  0.4388000D+02 0.9926000D+01 0.2930000D+01 0.9132000D+00 0.9132000D+00
EXPONENTS  0.9132000D+00 0.2672000D+00 0.2672000D+00 0.2672000D+00 0.7361000D-01
EXPONENTS  0.7361000D-01 0.7361000D-01 0.3107000D+01 0.3107000D+01 0.3107000D+01
EXPONENTS  0.3107000D+01 0.3107000D+01 0.3107000D+01 0.8550000D+00 0.8550000D+00
EXPONENTS  0.8550000D+00 0.8550000D+00 0.8550000D+00 0.8550000D+00 0.2920000D+00
EXPONENTS  0.2920000D+00 0.2920000D+00 0.2920000D+00 0.2920000D+00 0.2920000D+00
EXPONENTS  0.1917000D+01 0.1917000D+01 0.1917000D+01 0.1917000D+01 0.1917000D+01
EXPONENTS  0.1917000D+01 0.1917000D+01 0.1917000D+01 0.1917000D+01 0.1917000D+01
EXPONENTS  0.7240000D+00 0.7240000D+00 0.7240000D+00 0.7240000D+00 0.7240000D+00
EXPONENTS  0.7240000D+00 0.7240000D+00 0.7240000D+00 0.7240000D+00 0.7240000D+00
EXPONENTS  0.1142000D+05 0.1712000D+04 0.3893000D+03 0.1100000D+03 0.3557000D+02
EXPONENTS  0.1254000D+02 0.4644000D+01 0.5118000D+00 0.1142000D+05 0.1712000D+04
EXPONENTS  0.3893000D+03 0.1100000D+03 0.3557000D+02 0.1254000D+02 0.4644000D+01
EXPONENTS  0.5118000D+00 0.1293000D+01 0.1787000D+00 0.5760000D-01 0.2663000D+02
EXPONENTS  0.5948000D+01 0.1742000D+01 0.2663000D+02 0.5948000D+01 0.1742000D+01
EXPONENTS  0.2663000D+02 0.5948000D+01 0.1742000D+01 0.5550000D+00 0.5550000D+00
EXPONENTS  0.5550000D+00 0.1725000D+00 0.1725000D+00 0.1725000D+00 0.4910000D-01
EXPONENTS  0.4910000D-01 0.4910000D-01 0.1654000D+01 0.1654000D+01 0.1654000D+01
EXPONENTS  0.1654000D+01 0.1654000D+01 0.1654000D+01 0.4690000D+00 0.4690000D+00
EXPONENTS  0.4690000D+00 0.4690000D+00 0.4690000D+00 0.4690000D+00 0.1510000D+00
EXPONENTS  0.1510000D+00 0.1510000D+00 0.1510000D+00 0.1510000D+00 0.1510000D+00
EXPONENTS  0.1093000D+01 0.1093000D+01 0.1093000D+01 0.1093000D+01 0.1093000D+01
EXPONENTS  0.1093000D+01 0.1093000D+01 0.1093000D+01 0.1093000D+01 0.1093000D+01
EXPONENTS  0.3640000D+00 0.3640000D+00 0.3640000D+00 0.3640000D+00 0.3640000D+00
EXPONENTS  0.3640000D+00 0.3640000D+00 0.3640000D+00 0.3640000D+00 0.3640000D+00
EXPONENTS  0.3387000D+02 0.5095000D+01 0.1159000D+01 0.3258000D+00 0.1027000D+00
EXPONENTS  0.2526000D-01 0.1407000D+01 0.1407000D+01 0.1407000D+01 0.3880000D+00
EXPONENTS  0.3880000D+00 0.3880000D+00 0.1020000D+00 0.1020000D+00 0.1020000D+00
EXPONENTS  0.1057000D+01 0.1057000D+01 0.1057000D+01 0.1057000D+01 0.1057000D+01
EXPONENTS  0.1057000D+01 0.2470000D+00 0.2470000D+00 0.2470000D+00 0.2470000D+00
EXPONENTS  0.2470000D+00 0.2470000D+00 0.1063900D+08 0.1593400D+07 0.3626100D+06
EXPONENTS  0.1027000D+06 0.3350100D+05 0.1209300D+05 0.4715900D+04 0.1955600D+04
EXPONENTS  0.8526100D+03 0.3876700D+03 0.1826800D+03 0.8824500D+02 0.3926300D+02
EXPONENTS  0.1923400D+02 0.9405700D+01 0.4160100D+01 0.1899500D+01 0.3011400D+00
EXPONENTS  0.1063900D+08 0.1593400D+07 0.3626100D+06 0.1027000D+06 0.3350100D+05
EXPONENTS  0.1209300D+05 0.4715900D+04 0.1955600D+04 0.8526100D+03 0.3876700D+03
EXPONENTS  0.1826800D+03 0.8824500D+02 0.3926300D+02 0.1923400D+02 0.9405700D+01
EXPONENTS  0.4160100D+01 0.1899500D+01 0.3011400D+00 0.1063900D+08 0.1593400D+07
EXPONENTS  0.3626100D+06 0.1027000D+06 0.3350100D+05 0.1209300D+05 0.4715900D+04
EXPONENTS  0.1955600D+04 0.8526100D+03 0.3876700D+03 0.1826800D+03 0.8824500D+02
EXPONENTS  0.3926300D+02 0.1923400D+02 0.9405700D+01 0.4160100D+01 0.1899500D+01
EXPONENTS  0.3011400D+00 0.1063900D+08 0.1593400D+07 0.3626100D+06 0.1027000D+06
EXPONENTS  0.3350100D+05 0.1209300D+05 0.4715900D+04 0.1955600D+04 0.8526100D+03
EXPONENTS  0.3876700D+03 0.1826800D+03 0.8824500D+02 0.3926300D+02 0.1923400D+02
EXPONENTS  0.9405700D+01 0.4160100D+01 0.1899500D+01 0.3011400D+00 0.6047200D+00
EXPONENTS  0.1251500D+00 0.4559300D-01 0.8676500D+04 0.2055900D+04 0.6662300D+03
EXPONENTS  0.2531000D+03 0.1061200D+03 0.4724200D+02 0.2182500D+02 0.9968400D+01
EXPONENTS  0.4517100D+01 0.1998200D+01 0.2814500D+00 0.8676500D+04 0.2055900D+04
EXPONENTS  0.6662300D+03 0.2531000D+03 0.1061200D+03 0.4724200D+02 0.2182500D+02
EXPONENTS  0.9968400D+01 0.4517100D+01 0.1998200D+01 0.2814500D+00 0.8676500D+04
EXPONENTS  0.2055900D+04 0.6662300D+03 0.2531000D+03 0.1061200D+03 0.4724200D+02
EXPONENTS  0.2182500D+02 0.9968400D+01 0.4517100D+01 0.1998200D+01 0.2814500D+00
EXPONENTS  0.8676500D+04 0.2055900D+04 0.6662300D+03 0.2531000D+03 0.1061200D+03
EXPONENTS  0.4724200D+02 0.2182500D+02 0.9968400D+01 0.4517100D+01 0.1998200D+01
EXPONENTS  0.2814500D+00 0.8676500D+04 0.2055900D+04 0.6662300D+03 0.2531000D+03
EXPONENTS  0.1061200D+03 0.4724200D+02 0.2182500D+02 0.9968400D+01 0.4517100D+01
EXPONENTS  0.1998200D+01 0.2814500D+00 0.8676500D+04 0.2055900D+04 0.6662300D+03
EXPONENTS  0.2531000D+03 0.1061200D+03 0.4724200D+02 0.2182500D+02 0.9968400D+01
EXPONENTS  0.4517100D+01 0.1998200D+01 0.2814500D+00 0.8676500D+04 0.2055900D+04
EXPONENTS  0.6662300D+03 0.2531000D+03 0.1061200D+03 0.4724200D+02 0.2182500D+02
EXPONENTS  0.9968400D+01 0.4517100D+01 0.1998200D+01 0.2814500D+00 0.8676500D+04
EXPONENTS  0.2055900D+04 0.6662300D+03 0.2531000D+03 0.1061200D+03 0.4724200D+02
EXPONENTS  0.2182500D+02 0.9968400D+01 0.4517100D+01 0.1998200D+01 0.2814500D+00
EXPONENTS  0.8676500D+04 0.2055900D+04 0.6662300D+03 0.2531000D+03 0.1061200D+03
EXPONENTS  0.4724200D+02 0.2182500D+02 0.9968400D+01 0.4517100D+01 0.1998200D+01
EXPONENTS  0.2814500D+00 0.7098800D+00 0.7098800D+00 0.7098800D+00 0.1020400D+00
EXPONENTS  0.1020400D+00 0.1020400D+00 0.3514200D-01 0.3514200D-01 0.3514200D-01
EXPONENTS  0.4038300D+03 0.1211700D+03 0.4634500D+02 0.1972100D+02 0.8862400D+01
EXPONENTS  0.3996200D+01 0.1763600D+01 0.4038300D+03 0.1211700D+03 0.4634500D+02
EXPONENTS  0.1972100D+02 0.8862400D+01 0.3996200D+01 0.1763600D+01 0.4038300D+03
EXPONENTS  0.1211700D+03 0.4634500D+02 0.1972100D+02 0.8862400D+01 0.3996200D+01
EXPONENTS  0.1763600D+01 0.4038300D+03 0.1211700D+03 0.4634500D+02 0.1972100D+02
EXPONENTS  0.8862400D+01 0.3996200D+01 0.1763600D+01 0.4038300D+03 0.1211700D+03
EXPONENTS  0.4634500D+02 0.1972100D+02 0.8862400D+01 0.3996200D+01 0.1763600D+01
EXPONENTS  0.4038300D+03 0.1211700D+03 0.4634500D+02 0.1972100D+02 0.8862400D+01
EXPONENTS  0.3996200D+01 0.1763600D+01 0.7061900D+00 0.7061900D+00 0.7061900D+00
EXPONENTS  0.7061900D+00 0.7061900D+00 0.7061900D+00 0.2639000D+00 0.2639000D+00
EXPONENTS  0.2639000D+00 0.2639000D+00 0.2639000D+00 0.2639000D+00 0.1047000D+00
EXPONENTS  0.1047000D+00 0.1047000D+00 0.1047000D+00 0.1047000D+00 0.1047000D+00
EXPONENTS  0.5515000D+00 0.5515000D+00 0.5515000D+00 0.5515000D+00 0.5515000D+00
EXPONENTS  0.5515000D+00 0.5515000D+00 0.5515000D+00 0.5515000D+00 0.5515000D+00
EXPONENTS  0.2580000D+00 0.2580000D+00 0.2580000D+00 0.2580000D+00 0.2580000D+00
EXPONENTS  0.2580000D+00 0.2580000D+00 0.2580000D+00 0.2580000D+00 0.2580000D+00
MO    1     MO 0.0        OCC NO =    2.0000000  ORB. ENERGY = -482.185481
 -0.40276234D-06 -0.75084058D-06 -0.12690529D-05 -0.19078021D-05 -0.23439554D-05
 -0.19798450D-05 -0.74672469D-06  0.36955822D-08  0.33338452D-06  0.62420101D-06
  0.10627556D-05  0.16439214D-05  0.21649866D-05  0.22495598D-05  0.14294942D-05
 -0.95801380D-06  0.29099992D-06  0.23841768D-05  0.42460347D-05  0.17537661D-06
  0.16442672D-06  0.11708162D-06 -0.31024996D-05 -0.29087906D-05 -0.20712322D-05
 -0.13667762D-05 -0.12814395D-05 -0.91246129D-06  0.29714143D-05  0.20165457D-04
  0.63588238D-06 -0.20966518D-04 -0.81717555D-05  0.92270699D-06  0.66445068D-06
 -0.49467840D-06 -0.64546817D-07  0.41057733D-05 -0.14197589D-05 -0.26860144D-05
  0.40905147D-05 -0.31148910D-05  0.25837283D-05 -0.57435257D-05  0.12723956D-05
  0.44711301D-05  0.75993503D-05 -0.20321820D-05  0.30376045D-05 -0.41519397D-05
  0.25516313D-05  0.16003084D-05 -0.26517950D-05  0.56248620D-06  0.83643412D-06
  0.62890899D-05 -0.77638137D-06 -0.64388442D-07 -0.10625310D-04  0.93262656D-05
 -0.41158927D-05 -0.82419596D-05 -0.69971215D-05  0.43090580D-05  0.63217784D-05
 -0.67105377D-06  0.44033226D-06 -0.32909455D-06 -0.31809532D-05 -0.40363131D-05
  0.73920480D-06  0.51941146D-05  0.27153163D-05  0.24807884D-06  0.30920152D-05
 -0.21765277D-05 -0.40567676D-05 -0.68789336D-05 -0.10411586D-04 -0.12990620D-04
 -0.11157210D-04 -0.42834699D-05  0.19160224D-07  0.14698132D-05  0.27566711D-05
  0.46995199D-05  0.73444348D-05  0.98209088D-05  0.10486441D-04  0.64112043D-05
 -0.42297232D-05  0.54362771D-06  0.29719272D-05 -0.10746120D-04 -0.34813487D-05
 -0.33757372D-05 -0.22772524D-05 -0.89967699D-06 -0.87238405D-06 -0.58850512D-06
  0.11100985D-07  0.10764221D-07  0.72614800D-08  0.35316113D-05  0.29475040D-05
 -0.29236691D-06  0.79774994D-05  0.25323878D-05 -0.31371523D-05 -0.40999068D-06
  0.12080196D-05 -0.22259395D-06 -0.12007951D-04  0.60393449D-05  0.59686065D-05
  0.44257862D-05  0.25618191D-05 -0.67915918D-05  0.63304962D-05 -0.39351519D-05
 -0.23953443D-05 -0.63527188D-05 -0.14842252D-05  0.49704573D-05  0.10719125D-05
 -0.82944530D-06 -0.24246723D-06  0.30547843D-05 -0.13022044D-05  0.39852372D-06
  0.22484749D-06  0.19249680D-05  0.11751603D-05  0.19570458D-04 -0.19776735D-05
  0.27465088D-05 -0.20245001D-04 -0.37972306D-05 -0.62719897D-05 -0.56593535D-05
  0.24106487D-06  0.18136467D-07  0.24545565D-06 -0.47912939D-05 -0.15262747D-05
 -0.34851602D-06  0.40680993D-05  0.14718653D-05 -0.38785092D-06  0.36975195D-05
 -0.67898246D-05 -0.12656527D-04 -0.21455925D-04 -0.32490594D-04 -0.40629602D-04
 -0.34978303D-04 -0.13446937D-04  0.58267778D-07  0.44354891D-05  0.83290630D-05
  0.14182958D-04  0.22217520D-04  0.29774090D-04  0.32026048D-04  0.19228397D-04
 -0.12645403D-04  0.39920261D-05 -0.35553053D-05  0.12613858D-05 -0.31942198D-05
 -0.31238772D-05 -0.20640777D-05 -0.58020825D-07 -0.56743099D-07 -0.37492565D-07
  0.35243472D-05  0.34467345D-05  0.22774032D-05 -0.12257186D-05 -0.10451250D-05
 -0.28713186D-05  0.20333179D-05  0.61364002D-05 -0.20035871D-05 -0.26945441D-05
  0.14721918D-05  0.43783241D-06  0.12379885D-06 -0.33885209D-06  0.21505325D-06
 -0.92847647D-05 -0.38550703D-05  0.81406450D-05 -0.80499631D-06  0.12728086D-05
 -0.46781227D-06  0.73046479D-05  0.41125433D-06 -0.28583936D-05  0.26613831D-05
 -0.11791156D-06 -0.25434716D-05  0.24754884D-05 -0.76079787D-06  0.19741646D-06
 -0.78280180D-05 -0.25917008D-05  0.49339136D-05  0.46164558D-05  0.23660078D-04
 -0.17010178D-04  0.18867598D-04 -0.15884976D-04  0.22084369D-05  0.13040830D-04
  0.19714404D-05  0.10196805D-05 -0.14494470D-05  0.13802607D-05 -0.52916695D-05
  0.44578657D-05 -0.72945818D-05  0.22326280D-05 -0.10952460D-06 -0.29296442D-05
 -0.77855277D-05 -0.14507185D-04 -0.24535286D-04 -0.36948781D-04 -0.45744988D-04
 -0.38926920D-04 -0.14812411D-04  0.69372841D-07  0.56661367D-05  0.10624059D-04
  0.18074686D-04  0.28068079D-04  0.37247973D-04  0.39254250D-04  0.24340139D-04
 -0.16191070D-04 -0.82912775D-05  0.21919072D-04 -0.21371200D-04 -0.15458566D-05
 -0.14847768D-05 -0.10412280D-05 -0.78336976D-05 -0.75241729D-05 -0.52764694D-05
  0.59294641D-05  0.56951794D-05  0.39938529D-05 -0.24858925D-04 -0.16752996D-06
 -0.34773543D-05  0.33452540D-04  0.23843813D-04 -0.16570879D-05  0.64013686D-06
 -0.86744425D-06  0.75133422D-06 -0.35277416D-04  0.10258110D-04  0.25019306D-04
 -0.33318390D-04  0.16703348D-04 -0.27306577D-05  0.23814239D-04 -0.84209880D-05
 -0.15393251D-04  0.11256186D-04 -0.70256115D-05  0.96513491D-06  0.45214073D-05
 -0.78385966D-06 -0.37375477D-05  0.91299159D-05 -0.35916164D-05 -0.25004972D-05
 -0.40650421D-05 -0.39480520D-05 -0.38768513D-05 -0.21550408D-05  0.60357647D-05
  0.16804889D-05  0.14350167D-04  0.58083912D-05  0.99500648D-05 -0.55029694D-05
  0.53249383D-05 -0.22500445D-05  0.20881448D-05 -0.35915782D-05  0.14633713D-04
 -0.40337211D-05 -0.12383237D-04 -0.78835790D-05 -0.22307133D-05 -0.37519866D-05
 -0.99743119D-06 -0.17989082D-05 -0.26524891D-05  0.10100968D-04 -0.41035077D-05
 -0.86995816D-06  0.11884352D-04  0.48827130D-05  0.11004337D-05 -0.45820198D-05
 -0.27933904D-05  0.27047235D-05 -0.25908948D-05 -0.24726587D-05 -0.75532606D-06
  0.73927791D-05 -0.31581747D-05 -0.42346045D-05  0.90835070D-05 -0.58218377D-05
  0.24498175D-05 -0.27234179D-05  0.40493420D-06  0.23184837D-05 -0.59093939D-05
  0.14064052D-05  0.13958844D-06  0.78328157D+00  0.14734480D+01  0.25506112D+01
  0.41809398D+01  0.65495231D+01  0.98444911D+01  0.14070251D+02  0.18678607D+02
  0.21753775D+02  0.19980632D+02  0.11683461D+02  0.30657987D+01  0.16760602D+00
 -0.59989462D-02  0.16765162D-02 -0.49781422D-03  0.84868706D-04  0.69241191D-05
  0.45103984D-04  0.82869994D-04  0.14330132D-03  0.23467594D-03  0.36948671D-03
  0.55796114D-03  0.81445287D-03  0.11215511D-02  0.14330420D-02  0.15621837D-02
  0.12859177D-02  0.35258991D-03 -0.71119672D-03 -0.69309226D-03 -0.15166811D-03
 -0.51095591D-05 -0.17309554D-06  0.44033272D-09 -0.10461380D-03 -0.20508494D-03
 -0.35920119D-03 -0.58681787D-03 -0.92555312D-03 -0.13966183D-02 -0.20477200D-02
 -0.28272161D-02 -0.36654997D-02 -0.40762514D-02 -0.35404753D-02 -0.10284448D-02
  0.25926967D-02  0.37777418D-02  0.65035177D-03 -0.15865798D-02 -0.75517201D-03
  0.36469562D-05  0.36454409D-04  0.78987902D-04  0.13446438D-03  0.21948207D-03
  0.34599195D-03  0.52220179D-03  0.76563292D-03  0.10584332D-02  0.13737401D-02
  0.15347079D-02  0.13406021D-02  0.39708764D-03 -0.10321998D-02 -0.15878721D-02
 -0.27792611D-03  0.87670255D-03  0.74418788D-03 -0.27764985D-03  0.27344080D-03
  0.63474208D-04  0.11866277D-04  0.52967774D-03  0.75999378D-03  0.10062722D-02
  0.11619593D-02  0.10771897D-02  0.69739224D-03  0.24615385D-03  0.28851354D-04
  0.41944528D-06  0.61423092D-07  0.63152478D-09  0.13024561D-03  0.18687939D-03
  0.24743824D-03  0.28572106D-03  0.26487657D-03  0.17148592D-03  0.60528232D-04
  0.70944307D-05  0.10313989D-06  0.15103689D-07  0.15528938D-09 -0.41233845D-04
 -0.59163266D-04 -0.78335310D-04 -0.90455088D-04 -0.83856028D-04 -0.54289921D-04
 -0.19162349D-04 -0.22459925D-05 -0.32652574D-07 -0.47816059D-08 -0.49162335D-10
 -0.32310512D-02 -0.46640595D-02 -0.62310720D-02 -0.74027048D-02 -0.71737883D-02
 -0.49866980D-02 -0.16226237D-02  0.73030943D-03  0.78897784D-03  0.20311993D-03
 -0.19812474D-06 -0.99529858D-03 -0.14367249D-02 -0.19194302D-02 -0.22803419D-02
 -0.22098261D-02 -0.15361110D-02 -0.49983580D-03  0.22496578D-03  0.24303809D-03
  0.62569413D-04 -0.61030685D-07  0.26336183D-03  0.38016583D-03  0.50789246D-03
  0.60339182D-03  0.58473293D-03  0.40646397D-03  0.13225948D-03 -0.59527261D-04
 -0.64309302D-04 -0.16556233D-04  0.16149076D-07  0.23565020D-02  0.34241019D-02
  0.45523832D-02  0.54625447D-02  0.52850362D-02  0.37517603D-02  0.11660565D-02
 -0.66947611D-03 -0.76907943D-03 -0.20423580D-03  0.73688914D-04  0.72813406D-03
  0.10580111D-02  0.14066380D-02  0.16878682D-02  0.16330200D-02  0.11592540D-02
  0.36029907D-03 -0.20686100D-03 -0.23763736D-03 -0.63106691D-04  0.22769091D-04
 -0.19205169D-03 -0.27905962D-03 -0.37101300D-03 -0.44518992D-03 -0.43072321D-03
 -0.30576333D-03 -0.95032011D-04  0.54561386D-04  0.62678920D-04  0.16644938D-04
 -0.60055456D-05 -0.37062204D-04 -0.10429714D-04  0.31572325D-05 -0.26898286D-04
 -0.41485115D-05  0.85957604D-06 -0.84143257D-06 -0.18471697D-06 -0.34349537D-07
  0.36142872D-03  0.37819621D-03  0.32224341D-03  0.21222165D-03  0.97806640D-04
  0.29288357D-04  0.49831656D-05 -0.10380850D-03 -0.10862441D-03 -0.92553812D-04
 -0.60953682D-04 -0.28091737D-04 -0.84121162D-05 -0.14312503D-05 -0.25762022D-03
 -0.26957180D-03 -0.22968960D-03 -0.15126797D-03 -0.69714903D-04 -0.20876240D-04
 -0.35519153D-05  0.36025536D-03  0.37696842D-03  0.32119727D-03  0.21153268D-03
  0.97489117D-04  0.29193274D-04  0.49669880D-05 -0.90365028D-04 -0.94557265D-04
 -0.80567851D-04 -0.53060021D-04 -0.24453784D-04 -0.73227251D-05 -0.12458996D-05
 -0.36395233D-04 -0.38083690D-04 -0.32449342D-04 -0.21370345D-04 -0.98489558D-05
 -0.29492858D-05 -0.50179597D-06 -0.19380206D-04  0.54517132D-05  0.13928493D-04
 -0.18525013D-04  0.44560322D-05  0.16958145D-05 -0.54399837D-05  0.28592225D-05
  0.25807612D-05 -0.84329347D-05  0.26359925D-05  0.11548565D-05  0.40643248D-05
 -0.14650470D-05 -0.25992778D-05  0.21360161D-05 -0.56227450D-06 -0.25331178D-06
  0.91659848D-05 -0.34994158D-05  0.15936706D-05 -0.39881322D-05  0.17651124D-04
 -0.55290635D-05 -0.23509822D-04 -0.71528767D-05  0.74805170D-06 -0.70589763D-05
 -0.24135171D-05  0.25354796D-06 -0.15707141D-06  0.79315532D-06 -0.21969867D-05
  0.77006799D-06  0.64473961D-05  0.14363428D-05 -0.29885375D-06  0.99314743D-06
MO    2     MO 0.0        OCC NO =    2.0000000  ORB. ENERGY =  -62.440085
  0.25570561D-05  0.47669340D-05  0.80569583D-05  0.12112247D-04  0.14881295D-04
  0.12569633D-04  0.47408031D-05 -0.23462499D-07 -0.23448503D-05 -0.43902995D-05
 -0.74748606D-05 -0.11562473D-04 -0.15227370D-04 -0.15822213D-04 -0.10054306D-04
  0.67381620D-05 -0.44648853D-05 -0.22613958D-04 -0.50534350D-04 -0.44318696D-05
 -0.41551595D-05 -0.29587211D-05  0.28382010D-04  0.26609938D-04  0.18947861D-04
  0.13602680D-04  0.12753377D-04  0.90811643D-05 -0.30024091D-04 -0.18821237D-03
 -0.77691994D-05  0.22807950D-03  0.87560828D-04 -0.98753511D-05 -0.75660145D-05
  0.55039655D-05  0.76226248D-06 -0.44453832D-04  0.18038637D-04  0.26415195D-04
 -0.41001611D-04  0.29404051D-04 -0.23914184D-04  0.63693666D-04 -0.15843265D-04
 -0.47850402D-04 -0.83871028D-04  0.21034729D-04 -0.30068400D-04  0.46123190D-04
 -0.28702197D-04 -0.17420993D-04  0.28750240D-04 -0.60134682D-05 -0.87724595D-05
 -0.61696508D-04  0.12623893D-04  0.45341493D-06  0.99128046D-04 -0.10625166D-03
  0.43068998D-04  0.85961479D-04  0.68379977D-04 -0.44429243D-04 -0.61437755D-04
  0.89909558D-05 -0.40945061D-05  0.34332776D-05  0.29240345D-04  0.40872690D-04
 -0.79176764D-05 -0.56213212D-04 -0.28589172D-04 -0.23821564D-05 -0.32437928D-04
  0.19733571D-04  0.36780838D-04  0.62368114D-04  0.94397046D-04  0.11777995D-03
  0.10115727D-03  0.38836243D-04 -0.17371690D-06 -0.13472853D-04 -0.25268670D-04
 -0.43077543D-04 -0.67321814D-04 -0.90022093D-04 -0.96122607D-04 -0.58767477D-04
  0.38771212D-04 -0.20198946D-05 -0.37228876D-04  0.11924629D-03  0.28133264D-04
  0.27279803D-04  0.18402794D-04  0.45624604D-05  0.44240519D-05  0.29844393D-05
  0.15072454D-05  0.14615210D-05  0.98593345D-06 -0.28786182D-04 -0.21032908D-04
  0.14917868D-05 -0.82752348D-04 -0.20564589D-04  0.32406225D-04  0.44913427D-05
 -0.13093232D-04  0.22234318D-05  0.11968800D-03 -0.61407099D-04 -0.58280900D-04
 -0.47064171D-04 -0.24991237D-04  0.66707477D-04 -0.62793137D-04  0.36083469D-04
  0.26709668D-04  0.62524976D-04  0.14947091D-04 -0.49944184D-04 -0.10747180D-04
  0.75753188D-05  0.31718610D-05 -0.33729545D-04  0.13684397D-04 -0.39183365D-05
 -0.31157909D-05 -0.18002070D-04 -0.11295766D-04 -0.19424219D-03  0.17140995D-04
 -0.27128090D-04  0.20358957D-03  0.36865213D-04  0.61015388D-04  0.58388565D-04
 -0.28161366D-05  0.66524666D-06 -0.25393012D-05  0.50287994D-04  0.14395719D-04
  0.36117509D-05 -0.41839584D-04 -0.16391459D-04  0.40061526D-05 -0.38027570D-04
  0.61531574D-04  0.11469752D-03  0.19444049D-03  0.29444021D-03  0.36819852D-03
  0.31698463D-03  0.12186046D-03 -0.52804133D-06 -0.40653837D-04 -0.76340705D-04
 -0.12999506D-03 -0.20363648D-03 -0.27289685D-03 -0.29353735D-03 -0.17623944D-03
  0.11590247D-03 -0.30952555D-04  0.47514574D-04 -0.14713347D-04  0.34129802D-04
  0.33378201D-04  0.22054388D-04 -0.14961973D-05 -0.14632483D-05 -0.96683000D-06
 -0.34550442D-04 -0.33789578D-04 -0.22326203D-04  0.80949278D-05  0.11957063D-04
  0.28830060D-04 -0.12694403D-04 -0.59996650D-04  0.22248326D-04  0.29516680D-04
 -0.16920057D-04 -0.47702821D-05 -0.88013575D-05  0.45248607D-05  0.42764969D-05
  0.92323926D-04  0.36236393D-04 -0.79326452D-04  0.10426848D-04 -0.13119338D-04
  0.26924902D-05 -0.75624641D-04 -0.44452125D-05  0.29418247D-04 -0.26181244D-04
  0.14396659D-05  0.24741578D-04 -0.24489601D-04  0.92944595D-05 -0.15649135D-05
  0.72114330D-04  0.22150594D-04 -0.45168043D-04 -0.40312048D-04 -0.23088083D-03
  0.15829478D-03 -0.17603094D-03  0.16442905D-03 -0.22790657D-04 -0.12836052D-03
 -0.17901642D-04 -0.88148902D-05  0.13823063D-04 -0.16657899D-04  0.51757224D-04
 -0.42941313D-04  0.70362826D-04 -0.25312553D-04  0.14721233D-05  0.29496907D-04
  0.66509471D-04  0.12393061D-03  0.20959772D-03  0.31564256D-03  0.39078596D-03
  0.33254122D-03  0.12653807D-03 -0.59263176D-06 -0.48939951D-04 -0.91762866D-04
 -0.15611594D-03 -0.24243157D-03 -0.32172079D-03 -0.33904955D-03 -0.21023235D-03
  0.13984664D-03  0.85146556D-04 -0.18217334D-03  0.25317196D-03  0.62445910D-05
  0.59978550D-05  0.42061099D-05  0.76049399D-04  0.73044538D-04  0.51223872D-04
 -0.59564349D-04 -0.57210845D-04 -0.40120194D-04  0.25248609D-03 -0.10332472D-05
  0.37569369D-04 -0.32473802D-03 -0.24585693D-03  0.14557753D-04 -0.57401208D-05
  0.10651647D-04 -0.84772563D-05  0.32253396D-03 -0.92228519D-04 -0.23030544D-03
  0.29640398D-03 -0.15865777D-03  0.26361709D-04 -0.22501509D-03  0.76266340D-04
  0.14874875D-03 -0.91689681D-04  0.69185114D-04 -0.98259701D-05 -0.44617976D-04
  0.68770740D-05  0.37740902D-04 -0.92484070D-04  0.37419016D-04  0.27123886D-04
  0.43231697D-04  0.36933041D-04  0.40641764D-04  0.22243432D-04 -0.48095647D-04
 -0.26043216D-04 -0.15193852D-03 -0.62703475D-04 -0.95882076D-04  0.43655454D-04
 -0.53592500D-04  0.20633026D-04 -0.21558919D-04  0.36130444D-04 -0.14251894D-03
  0.40609012D-04  0.12464705D-03  0.80619865D-04  0.24067744D-04  0.35732670D-04
  0.10291536D-04  0.18561210D-04  0.27368493D-04 -0.11250911D-03  0.48931393D-04
  0.10070605D-04 -0.11460127D-03 -0.47632129D-04 -0.12685645D-04  0.49725805D-04
  0.30231736D-04 -0.28399402D-04  0.29328164D-04  0.28428666D-04  0.87072247D-05
 -0.74773614D-04  0.33173274D-04  0.41600340D-04 -0.82349076D-04  0.60560696D-04
 -0.25598223D-04  0.29024178D-04 -0.37620769D-05 -0.25262101D-04  0.64276462D-04