 Molden2AIM, Version 4.0.0 (06/02/2016)           Time: Thu Jun 28 21:03:28 2018
GAUSSIAN             17 MOL ORBITALS    344 PRIMITIVES        4 NUCLEI
  Ga   1    (CENTRE  1)   0.00000000  0.00001134  0.00000000  CHARGE = 31.0
  H    2    (CENTRE  2)   0.00000000  2.96539225  0.00000000  CHARGE =  1.0
  H    3    (CENTRE  3)   2.56809056 -1.48270179  0.00000000  CHARGE =  1.0
  H    4    (CENTRE  4)  -2.56809056 -1.48270179  0.00000000  CHARGE =  1.0
CENTRE ASSIGNMENTS    1  1  1  1  1  1  1  1  1  1  1  1  1  1  1  1  1  1  1  1
CENTRE ASSIGNMENTS    1  1  1  1  1  1  1  1  1  1  1  1  1  1  1  1  1  1  1  1
CENTRE ASSIGNMENTS    1  1  1  1  1  1  1  1  1  1  1  1  1  1  1  1  1  1  1  1
CENTRE ASSIGNMENTS    1  1  1  1  1  1  1  1  1  1  1  1  1  1  1  1  1  1  1  1
CENTRE ASSIGNMENTS    1  1  1  1  1  1  1  1  1  1  1  1  1  1  1  1  1  1  1  1
CENTRE ASSIGNMENTS    1  1  1  1  1  1  1  1  1  1  1  1  1  1  1  1  1  1  1  1
CENTRE ASSIGNMENTS    1  1  1  1  1  1  1  1  1  1  1  1  1  1  1  1  1  1  1  1
CENTRE ASSIGNMENTS    1  1  1  1  1  1  1  1  1  1  1  1  1  1  1  1  1  1  1  1
CENTRE ASSIGNMENTS    1  1  1  1  1  1  1  1  1  1  1  1  1  1  1  1  1  1  1  1
CENTRE ASSIGNMENTS    1  1  1  1  1  1  1  1  1  1  1  1  1  1  1  1  1  1  1  1
CENTRE ASSIGNMENTS    1  1  1  1  1  1  1  1  1  1  1  1  1  1  1  1  1  1  1  1
CENTRE ASSIGNMENTS    1  1  1  1  1  1  1  1  1  1  1  1  1  1  1  1  1  1  1  1
CENTRE ASSIGNMENTS    1  1  1  1  1  1  1  1  1  1  1  1  1  1  1  1  1  1  1  1
CENTRE ASSIGNMENTS    1  1  1  2  2  2  2  2  2  2  2  2  2  2  2  2  2  2  2  2
CENTRE ASSIGNMENTS    2  2  2  2  2  2  2  2  2  2  3  3  3  3  3  3  3  3  3  3
CENTRE ASSIGNMENTS    3  3  3  3  3  3  3  3  3  3  3  3  3  3  3  3  3  4  4  4
CENTRE ASSIGNMENTS    4  4  4  4  4  4  4  4  4  4  4  4  4  4  4  4  4  4  4  4
CENTRE ASSIGNMENTS    4  4  4  4
TYPE ASSIGNMENTS      1  1  1  1  1  1  1  1  1  1  1  1  1  1  1  1  1  1  1  1
TYPE ASSIGNMENTS      1  1  1  1  1  1  1  1  1  1  1  1  1  1  1  1  1  1  1  1
TYPE ASSIGNMENTS      1  1  1  1  1  1  1  1  1  1  1  1  1  1  1  1  1  1  1  1
TYPE ASSIGNMENTS      1  1  1  1  1  1  1  1  1  1  1  1  1  1  1  2  2  2  2  2
TYPE ASSIGNMENTS      2  2  2  2  2  2  3  3  3  3  3  3  3  3  3  3  3  4  4  4
TYPE ASSIGNMENTS      4  4  4  4  4  4  4  4  2  2  2  2  2  2  2  2  2  2  2  3
TYPE ASSIGNMENTS      3  3  3  3  3  3  3  3  3  3  4  4  4  4  4  4  4  4  4  4
TYPE ASSIGNMENTS      4  2  2  2  2  2  2  2  2  2  2  2  3  3  3  3  3  3  3  3
TYPE ASSIGNMENTS      3  3  3  4  4  4  4  4  4  4  4  4  4  4  2  3  4  2  3  4
TYPE ASSIGNMENTS      2  3  4  5  5  5  5  5  5  5  6  6  6  6  6  6  6  7  7  7
TYPE ASSIGNMENTS      7  7  7  7  8  8  8  8  8  8  8  9  9  9  9  9  9  9 10 10
TYPE ASSIGNMENTS     10 10 10 10 10  5  6  7  8  9 10  5  6  7  8  9 10  5  6  7
TYPE ASSIGNMENTS      8  9 10 11 12 13 17 14 15 18 19 16 20 11 12 13 17 14 15 18
TYPE ASSIGNMENTS     19 16 20  1  1  1  1  1  1  2  3  4  2  3  4  2  3  4  5  6
TYPE ASSIGNMENTS      7  8  9 10  5  6  7  8  9 10  1  1  1  1  1  1  2  3  4  2
TYPE ASSIGNMENTS      3  4  2  3  4  5  6  7  8  9 10  5  6  7  8  9 10  1  1  1
TYPE ASSIGNMENTS      1  1  1  2  3  4  2  3  4  2  3  4  5  6  7  8  9 10  5  6
TYPE ASSIGNMENTS      7  8  9 10
EXPONENTS  0.6558157D+07 0.9820253D+06 0.2234677D+06 0.6328829D+05 0.2064294D+05
EXPONENTS  0.7450522D+04 0.2905074D+04 0.1204210D+04 0.5243045D+03 0.2374656D+03
EXPONENTS  0.1105787D+03 0.5137462D+02 0.2444085D+02 0.1176859D+02 0.5342119D+01
EXPONENTS  0.2495036D+01 0.1098773D+01 0.2601800D+00 0.6558157D+07 0.9820253D+06
EXPONENTS  0.2234677D+06 0.6328829D+05 0.2064294D+05 0.7450522D+04 0.2905074D+04
EXPONENTS  0.1204210D+04 0.5243045D+03 0.2374656D+03 0.1105787D+03 0.5137462D+02
EXPONENTS  0.2444085D+02 0.1176859D+02 0.5342119D+01 0.2495036D+01 0.1098773D+01
EXPONENTS  0.2601800D+00 0.6558157D+07 0.9820253D+06 0.2234677D+06 0.6328829D+05
EXPONENTS  0.2064294D+05 0.7450522D+04 0.2905074D+04 0.1204210D+04 0.5243045D+03
EXPONENTS  0.2374656D+03 0.1105787D+03 0.5137462D+02 0.2444085D+02 0.1176859D+02
EXPONENTS  0.5342119D+01 0.2495036D+01 0.1098773D+01 0.2601800D+00 0.6558157D+07
EXPONENTS  0.9820253D+06 0.2234677D+06 0.6328829D+05 0.2064294D+05 0.7450522D+04
EXPONENTS  0.2905074D+04 0.1204210D+04 0.5243045D+03 0.2374656D+03 0.1105787D+03
EXPONENTS  0.5137462D+02 0.2444085D+02 0.1176859D+02 0.5342119D+01 0.2495036D+01
EXPONENTS  0.1098773D+01 0.2601800D+00 0.1270790D+00 0.5440800D-01 0.1439800D-01
EXPONENTS  0.8050167D+04 0.1907536D+04 0.6186275D+03 0.2353242D+03 0.9889965D+02
EXPONENTS  0.4424822D+02 0.2061743D+02 0.9780516D+01 0.4441238D+01 0.1964045D+01
EXPONENTS  0.8335780D+00 0.8050167D+04 0.1907536D+04 0.6186275D+03 0.2353242D+03
EXPONENTS  0.9889965D+02 0.4424822D+02 0.2061743D+02 0.9780516D+01 0.4441238D+01
EXPONENTS  0.1964045D+01 0.8335780D+00 0.8050167D+04 0.1907536D+04 0.6186275D+03
EXPONENTS  0.2353242D+03 0.9889965D+02 0.4424822D+02 0.2061743D+02 0.9780516D+01
EXPONENTS  0.4441238D+01 0.1964045D+01 0.8335780D+00 0.8050167D+04 0.1907536D+04
EXPONENTS  0.6186275D+03 0.2353242D+03 0.9889965D+02 0.4424822D+02 0.2061743D+02
EXPONENTS  0.9780516D+01 0.4441238D+01 0.1964045D+01 0.8335780D+00 0.8050167D+04
EXPONENTS  0.1907536D+04 0.6186275D+03 0.2353242D+03 0.9889965D+02 0.4424822D+02
EXPONENTS  0.2061743D+02 0.9780516D+01 0.4441238D+01 0.1964045D+01 0.8335780D+00
EXPONENTS  0.8050167D+04 0.1907536D+04 0.6186275D+03 0.2353242D+03 0.9889965D+02
EXPONENTS  0.4424822D+02 0.2061743D+02 0.9780516D+01 0.4441238D+01 0.1964045D+01
EXPONENTS  0.8335780D+00 0.8050167D+04 0.1907536D+04 0.6186275D+03 0.2353242D+03
EXPONENTS  0.9889965D+02 0.4424822D+02 0.2061743D+02 0.9780516D+01 0.4441238D+01
EXPONENTS  0.1964045D+01 0.8335780D+00 0.8050167D+04 0.1907536D+04 0.6186275D+03
EXPONENTS  0.2353242D+03 0.9889965D+02 0.4424822D+02 0.2061743D+02 0.9780516D+01
EXPONENTS  0.4441238D+01 0.1964045D+01 0.8335780D+00 0.8050167D+04 0.1907536D+04
EXPONENTS  0.6186275D+03 0.2353242D+03 0.9889965D+02 0.4424822D+02 0.2061743D+02
EXPONENTS  0.9780516D+01 0.4441238D+01 0.1964045D+01 0.8335780D+00 0.1934450D+00
EXPONENTS  0.1934450D+00 0.1934450D+00 0.5611700D-01 0.5611700D-01 0.5611700D-01
EXPONENTS  0.1930000D-01 0.1930000D-01 0.1930000D-01 0.2441474D+03 0.7306759D+02
EXPONENTS  0.2759208D+02 0.1154652D+02 0.5048628D+01 0.2178465D+01 0.9002530D+00
EXPONENTS  0.2441474D+03 0.7306759D+02 0.2759208D+02 0.1154652D+02 0.5048628D+01
EXPONENTS  0.2178465D+01 0.9002530D+00 0.2441474D+03 0.7306759D+02 0.2759208D+02
EXPONENTS  0.1154652D+02 0.5048628D+01 0.2178465D+01 0.9002530D+00 0.2441474D+03
EXPONENTS  0.7306759D+02 0.2759208D+02 0.1154652D+02 0.5048628D+01 0.2178465D+01
EXPONENTS  0.9002530D+00 0.2441474D+03 0.7306759D+02 0.2759208D+02 0.1154652D+02
EXPONENTS  0.5048628D+01 0.2178465D+01 0.9002530D+00 0.2441474D+03 0.7306759D+02
EXPONENTS  0.2759208D+02 0.1154652D+02 0.5048628D+01 0.2178465D+01 0.9002530D+00
EXPONENTS  0.3373270D+00 0.3373270D+00 0.3373270D+00 0.3373270D+00 0.3373270D+00
EXPONENTS  0.3373270D+00 0.1169000D+00 0.1169000D+00 0.1169000D+00 0.1169000D+00
EXPONENTS  0.1169000D+00 0.1169000D+00 0.3870000D-01 0.3870000D-01 0.3870000D-01
EXPONENTS  0.3870000D-01 0.3870000D-01 0.3870000D-01 0.2881000D+00 0.2881000D+00
EXPONENTS  0.2881000D+00 0.2881000D+00 0.2881000D+00 0.2881000D+00 0.2881000D+00
EXPONENTS  0.2881000D+00 0.2881000D+00 0.2881000D+00 0.9800000D-01 0.9800000D-01
EXPONENTS  0.9800000D-01 0.9800000D-01 0.9800000D-01 0.9800000D-01 0.9800000D-01
EXPONENTS  0.9800000D-01 0.9800000D-01 0.9800000D-01 0.3387000D+02 0.5095000D+01
EXPONENTS  0.1159000D+01 0.3258000D+00 0.1027000D+00 0.2526000D-01 0.1407000D+01
EXPONENTS  0.1407000D+01 0.1407000D+01 0.3880000D+00 0.3880000D+00 0.3880000D+00
EXPONENTS  0.1020000D+00 0.1020000D+00 0.1020000D+00 0.1057000D+01 0.1057000D+01
EXPONENTS  0.1057000D+01 0.1057000D+01 0.1057000D+01 0.1057000D+01 0.2470000D+00
EXPONENTS  0.2470000D+00 0.2470000D+00 0.2470000D+00 0.2470000D+00 0.2470000D+00
EXPONENTS  0.3387000D+02 0.5095000D+01 0.1159000D+01 0.3258000D+00 0.1027000D+00
EXPONENTS  0.2526000D-01 0.1407000D+01 0.1407000D+01 0.1407000D+01 0.3880000D+00
EXPONENTS  0.3880000D+00 0.3880000D+00 0.1020000D+00 0.1020000D+00 0.1020000D+00
EXPONENTS  0.1057000D+01 0.1057000D+01 0.1057000D+01 0.1057000D+01 0.1057000D+01
EXPONENTS  0.1057000D+01 0.2470000D+00 0.2470000D+00 0.2470000D+00 0.2470000D+00
EXPONENTS  0.2470000D+00 0.2470000D+00 0.3387000D+02 0.5095000D+01 0.1159000D+01
EXPONENTS  0.3258000D+00 0.1027000D+00 0.2526000D-01 0.1407000D+01 0.1407000D+01
EXPONENTS  0.1407000D+01 0.3880000D+00 0.3880000D+00 0.3880000D+00 0.1020000D+00
EXPONENTS  0.1020000D+00 0.1020000D+00 0.1057000D+01 0.1057000D+01 0.1057000D+01
EXPONENTS  0.1057000D+01 0.1057000D+01 0.1057000D+01 0.2470000D+00 0.2470000D+00
EXPONENTS  0.2470000D+00 0.2470000D+00 0.2470000D+00 0.2470000D+00
MO    1     MO 0.0        OCC NO =    2.0000000  ORB. ENERGY = -371.910796
  0.73886000D+00  0.13828281D+01  0.23952155D+01  0.39225505D+01  0.61358348D+01
  0.91787787D+01  0.12975635D+02  0.16786084D+02  0.18537014D+02  0.15226697D+02
  0.70852036D+01  0.11106374D+01  0.59967807D-02  0.73013293D-02 -0.18856711D-02
  0.44339664D-03 -0.99887227D-04  0.13318600D-04  0.53843867D-04  0.10005970D-03
  0.17320438D-03  0.28388838D-03  0.44597624D-03  0.67262747D-03  0.97365212D-03
  0.13231952D-02  0.16330845D-02  0.16729524D-02  0.11356990D-02 -0.36656743D-04
 -0.90576450D-03 -0.55919629D-03 -0.64832144D-04  0.23094869D-06 -0.39743353D-06
  0.30356355D-07 -0.14197591D-03 -0.28100207D-03 -0.48418106D-03 -0.79316673D-03
 -0.12460723D-02 -0.18832288D-02 -0.27305650D-02 -0.37395506D-02 -0.46710758D-02
 -0.49419260D-02 -0.35288882D-02  0.11028074D-03  0.40365506D-02  0.37322477D-02
 -0.38140579D-03 -0.17611309D-02 -0.56024299D-03 -0.91903840D-05  0.64110898D-04
  0.13117662D-03  0.22880687D-03  0.37505211D-03  0.58871106D-03  0.89044098D-03
  0.12908102D-02  0.17705520D-02  0.22135111D-02  0.23542343D-02  0.16893329D-02
 -0.48110911D-04 -0.20396598D-02 -0.19771179D-02  0.26149343D-03  0.12218080D-02
  0.75488565D-03 -0.28029429D-03  0.47591249D-03  0.19281301D-03  0.79537763D-05
  0.58792709D-16  0.84800765D-16  0.11349974D-15  0.13445519D-15  0.13151253D-15
  0.94705148D-16  0.41654790D-16  0.77423344D-17  0.34337049D-18  0.65666184D-20
  0.53001142D-21  0.83067064D-09  0.11981334D-08  0.16036155D-08  0.18996910D-08
  0.18581148D-08  0.13380705D-08  0.58853236D-09  0.10938992D-09  0.48514144D-11
  0.92778464D-13  0.74884273D-14 -0.37934489D-16 -0.54715521D-16 -0.73232799D-16
 -0.86753767D-16 -0.84855093D-16 -0.61106070D-16 -0.26876686D-16 -0.49955429D-17
 -0.22155101D-18 -0.42369423D-20 -0.34197629D-21  0.18391861D-15  0.26518755D-15
  0.35940281D-15  0.43305470D-15  0.44289030D-15  0.33532249D-15  0.15587873D-15
 -0.12616645D-16 -0.54716289D-16 -0.23087410D-16 -0.28703721D-17  0.12420812D-07
  0.17909252D-07  0.24272013D-07  0.29246041D-07  0.29910281D-07  0.22645765D-07
  0.10527159D-07 -0.85205611D-09 -0.36952255D-08 -0.15591918D-08 -0.19384854D-09
  0.14149590D-15  0.20401933D-15  0.27650288D-15  0.33316620D-15  0.34073312D-15
  0.25797692D-15  0.11992371D-15 -0.97064864D-17 -0.42095416D-16 -0.17762063D-16
 -0.22082914D-17 -0.13894913D-15 -0.19399490D-15 -0.27176457D-15 -0.31740239D-15
 -0.33838355D-15 -0.24506770D-15 -0.12578088D-15  0.21461533D-16  0.43116906D-16
  0.26793268D-16 -0.11507956D-17 -0.98448745D-08 -0.13744997D-07 -0.19255162D-07
 -0.22488710D-07 -0.23975275D-07 -0.17363626D-07 -0.89118727D-08  0.15206004D-08
  0.30549348D-08  0.18983664D-08 -0.81536587D-10 -0.12485331D-15 -0.17431491D-15
 -0.24419516D-15 -0.28520322D-15 -0.30405592D-15 -0.22020658D-15 -0.11302092D-15
  0.19284349D-16  0.38742872D-16  0.24075201D-16 -0.10340521D-17  0.12974480D-16
  0.41748203D-09  0.63805504D-18 -0.20943922D-17 -0.29943028D-10  0.48786780D-19
 -0.14336399D-17 -0.18571412D-10  0.34534521D-21 -0.34375007D-03 -0.33902503D-03
 -0.26292634D-03 -0.15546962D-03 -0.62227315D-04 -0.16158334D-04 -0.25681971D-05
 -0.34376281D-03 -0.33903759D-03 -0.26293608D-03 -0.15547539D-03 -0.62229621D-04
 -0.16158933D-04 -0.25682923D-05  0.68751288D-03  0.67806263D-03  0.52586242D-03
  0.31094501D-03  0.12445694D-03  0.32317267D-04  0.51364894D-05  0.76381607D-16
  0.75331699D-16  0.58422493D-16  0.34545505D-16  0.13826971D-16  0.35903979D-17
  0.57065595D-18  0.17832633D-17  0.17587513D-17  0.13639761D-17  0.80652571D-18
  0.32281502D-18  0.83824168D-19  0.13322969D-19  0.14074694D-17  0.13881229D-17
  0.10765402D-17  0.63656347D-18  0.25478698D-18  0.66159582D-19  0.10515369D-19
  0.19979643D-04  0.19980969D-04 -0.39960612D-04 -0.71460710D-17 -0.56475693D-20
 -0.43031965D-20  0.11886675D-04  0.11887311D-04 -0.23773986D-04  0.24516745D-17
  0.14633910D-21  0.11536578D-21  0.26903405D-06  0.26903969D-06 -0.53807374D-06
  0.59123041D-18 -0.62587378D-23 -0.54243882D-23  0.41325468D-18  0.20788700D-04
 -0.47719230D-19  0.11420500D-17 -0.62366011D-04  0.72048358D-19 -0.23818140D-17
 -0.88471305D-10  0.71109331D-19  0.13084693D-20 -0.21555165D-19  0.16577624D-05
 -0.43285484D-20  0.82074826D-21 -0.49732822D-05  0.64849454D-20  0.63844746D-19
 -0.49778298D-11  0.65006998D-20 -0.26317209D-22  0.73570200D-05  0.13268689D-04
  0.19564673D-04 -0.12272446D-03 -0.19548665D-03 -0.11014160D-04  0.14698546D-17
 -0.25163986D-04  0.17872882D-18 -0.16820830D-17  0.94574373D-04 -0.18553028D-18
 -0.33277432D-17  0.28223133D-04 -0.10307355D-18  0.23578620D-04 -0.40857197D-04
  0.17278577D-04 -0.35640850D-17 -0.10653407D-21 -0.90855016D-19  0.37931740D-05
  0.29821358D-06 -0.40913876D-05  0.27561086D-17 -0.71207954D-23  0.16887348D-18
  0.73569278D-05  0.13268522D-04  0.19564428D-04 -0.12272195D-03 -0.19548503D-03
 -0.11014260D-04 -0.21793129D-04  0.12582911D-04  0.17927822D-18  0.81902481D-04
 -0.47288320D-04 -0.18605177D-18  0.24441736D-04 -0.14111979D-04 -0.10309307D-18
 -0.24746761D-04  0.74684704D-05  0.17278291D-04  0.55803419D-04 -0.77803722D-19
  0.45101109D-19  0.11719361D-05  0.29192731D-05 -0.40912093D-05  0.30270603D-05
  0.14641298D-18 -0.84582704D-19  0.73569278D-05  0.13268522D-04  0.19564428D-04
 -0.12272195D-03 -0.19548503D-03 -0.11014260D-04  0.21793129D-04  0.12582911D-04
  0.18241564D-18 -0.81902481D-04 -0.47288320D-04 -0.18947581D-18 -0.24441736D-04
 -0.14111979D-04 -0.10322471D-18 -0.24746761D-04  0.74684704D-05  0.17278291D-04
 -0.55803419D-04  0.74254852D-19  0.42797769D-19  0.11719361D-05  0.29192731D-05
 -0.40912093D-05 -0.30270603D-05 -0.14814415D-18 -0.85517464D-19
MO    2     MO 0.0        OCC NO =    2.0000000  ORB. ENERGY =  -45.815230
  0.33954135D-03  0.63547536D-03  0.11007156D-02  0.18025987D-02  0.28197082D-02
  0.42180858D-02  0.59629222D-02  0.77140047D-02  0.85186404D-02  0.69973923D-02
  0.32559884D-02  0.51039078D-03  0.27558062D-05  0.33553085D-05 -0.86655564D-06
  0.20376187D-06 -0.45902937D-07  0.61205311D-08 -0.23187293D+00 -0.43089654D+00
 -0.74588639D+00 -0.12225354D+01 -0.19205496D+01 -0.28965993D+01 -0.41929302D+01
 -0.56982006D+01 -0.70327063D+01 -0.72043931D+01 -0.48907679D+01  0.15785840D+00
  0.39005793D+01  0.24081199D+01  0.27919279D+00 -0.99455619D-03  0.17115056D-02
 -0.13072644D-03  0.14667019D-02  0.29029309D-02  0.50018997D-02  0.81939191D-02
  0.12872723D-01  0.19454956D-01  0.28208481D-01  0.38631947D-01  0.48255198D-01
  0.51053253D-01  0.36455669D-01 -0.11392705D-02 -0.41700147D-01 -0.38556503D-01
  0.39401655D-02  0.18193607D-01  0.57876680D-02  0.94942538D-04 -0.69541417D-03
 -0.14228795D-02 -0.24818797D-02 -0.40682094D-02 -0.63857789D-02 -0.96586587D-02
 -0.14001484D-01 -0.19205268D-01 -0.24010068D-01 -0.25536500D-01 -0.18324280D-01
  0.52186151D-03  0.22124293D-01  0.21445899D-01 -0.28364325D-02 -0.13253014D-01
 -0.81882831D-02  0.30403665D-02 -0.52198998D-02 -0.21644466D-02 -0.89720801D-04
  0.17110297D-13  0.24679357D-13  0.33031549D-13  0.39130162D-13  0.38273768D-13
  0.27561805D-13  0.12122691D-13  0.22532325D-14  0.99930268D-16  0.19110668D-17
  0.15424792D-18  0.16776010D-05  0.24197193D-05  0.32386206D-05  0.38365670D-05
  0.37526007D-05  0.27023326D-05  0.11885848D-05  0.22092107D-06  0.97977913D-08
  0.18737299D-09  0.15123435D-10  0.57605671D-15  0.83088618D-15  0.11120815D-14
  0.13174051D-14  0.12885727D-14  0.92793030D-15  0.40813771D-15  0.75860150D-16
  0.33643777D-17  0.64340370D-19  0.51931037D-20  0.27766689D-13  0.40036082D-13
  0.54260015D-13  0.65379440D-13  0.66864346D-13  0.50624542D-13  0.23533434D-13
 -0.19047690D-14 -0.82606660D-14 -0.34855687D-14 -0.43334784D-15 -0.10343375D-06
 -0.14913849D-06 -0.20212409D-06 -0.24354508D-06 -0.24907650D-06 -0.18858158D-06
 -0.87664440D-07  0.70954585D-08  0.30771823D-07  0.12984099D-07  0.16142649D-08
 -0.15112311D-15 -0.21790056D-15 -0.29531580D-15 -0.35583443D-15 -0.36391619D-15
 -0.27552936D-15 -0.12808317D-15  0.10366904D-16  0.44959538D-16  0.18970572D-16
  0.23585409D-17 -0.22647254D-13 -0.31619137D-13 -0.44294780D-13 -0.51733268D-13
 -0.55152976D-13 -0.39943470D-13 -0.20500967D-13  0.34980053D-14  0.70276044D-14
  0.43670223D-14 -0.18756763D-15  0.56846227D-07  0.79366297D-07  0.11118307D-06
  0.12985420D-06  0.13843792D-06  0.10026097D-06  0.51458893D-07 -0.87802436D-08
 -0.17639790D-07 -0.10961538D-07  0.47080817D-09  0.14788086D-15  0.20646500D-15
  0.28923375D-15  0.33780520D-15  0.36013504D-15  0.26082079D-15  0.13386615D-15
 -0.22841093D-16 -0.45888486D-16 -0.28515555D-16  0.12247694D-17  0.16494386D-14
 -0.51576102D-08 -0.70592482D-18  0.24573133D-15  0.18173806D-09 -0.54994991D-19
  0.15528322D-17  0.21527738D-09 -0.21710004D-21  0.18523758D-02  0.18269139D-02
  0.14168387D-02  0.83778361D-03  0.33532611D-03  0.87072877D-04  0.13839317D-04
  0.18525673D-02  0.18271027D-02  0.14169851D-02  0.83787020D-03  0.33536077D-03
  0.87081877D-04  0.13840748D-04 -0.37049431D-02 -0.36540166D-02 -0.28338238D-02
 -0.16756538D-02 -0.67068688D-03 -0.17415475D-03 -0.27680065D-04  0.85361301D-14
  0.84187961D-14  0.65290849D-14  0.38606797D-14  0.15452519D-14  0.40124978D-15
  0.63774430D-16  0.19983791D-15  0.19709102D-15  0.15285131D-15  0.90381726D-16
  0.36175633D-16  0.93935914D-17  0.14930125D-17  0.27635750D-15  0.27255881D-15
  0.21137935D-15  0.12498964D-15  0.50027584D-16  0.12990476D-16  0.20646993D-17
 -0.21225995D-03 -0.21227494D-03  0.42453489D-03 -0.89690476D-15 -0.53444599D-18
 -0.74021815D-18 -0.13277923D-03 -0.13278638D-03  0.26556560D-03 -0.12361379D-15
  0.27948337D-19  0.35754480D-19 -0.30350741D-05 -0.30351423D-05  0.60702164D-05
 -0.49835488D-17 -0.15332093D-21 -0.63247322D-21  0.77797658D-16 -0.22882686D-03
  0.55314840D-19 -0.90233478D-16  0.68647952D-03 -0.13152491D-19 -0.14315950D-15
  0.10741194D-08 -0.15279203D-18  0.10218731D-18  0.18466266D-16 -0.18659611D-04
  0.46112749D-20 -0.55201750D-16  0.55978772D-04 -0.97345037D-20 -0.19704798D-18
  0.60508369D-10 -0.40993210D-20 -0.51078790D-20 -0.77778458D-04 -0.14027665D-03
 -0.20683784D-03  0.13468288D-02  0.21749239D-02  0.12406305D-03 -0.27922660D-15
  0.24473069D-03 -0.35919627D-18  0.27094153D-15 -0.10278622D-02  0.42645022D-18
  0.20757678D-15 -0.31123745D-03  0.10503599D-18 -0.24944670D-03  0.43439687D-03
 -0.18495017D-03 -0.14954229D-15 -0.13351970D-19 -0.25348971D-18 -0.41309925D-04
 -0.57564978D-05  0.47066423D-04 -0.88822244D-16  0.46004486D-20 -0.30736549D-18
 -0.77777315D-04 -0.14027459D-03 -0.20683480D-03  0.13468004D-02  0.21749051D-02
  0.12406411D-03  0.21194878D-03 -0.12237518D-03 -0.23801506D-18 -0.89013961D-03
  0.51394314D-03  0.24665977D-18 -0.26953710D-03  0.15562331D-03  0.10750573D-18
  0.26341909D-03 -0.78473158D-04 -0.18494594D-03 -0.59222833D-03  0.66999511D-19
 -0.48825093D-19 -0.14644628D-04 -0.32419802D-04  0.47064431D-04 -0.30793865D-04
 -0.18253741D-18  0.10919994D-18 -0.77777315D-04 -0.14027459D-03 -0.20683480D-03
  0.13468004D-02  0.21749051D-02  0.12406411D-03 -0.21194878D-03 -0.12237518D-03
 -0.19630716D-19  0.89013961D-03  0.51394314D-03 -0.33197329D-19  0.26953710D-03
  0.15562331D-03  0.12993509D-18  0.26341909D-03 -0.78473158D-04 -0.18494594D-03
  0.59222833D-03 -0.46499982D-18 -0.27111230D-18 -0.14644628D-04 -0.32419802D-04
  0.47064431D-04  0.30793865D-04  0.64124367D-19  0.38664600D-19
MO    3     MO 0.0        OCC NO =    2.0000000  ORB. ENERGY =  -40.471760
  0.32103114D-17  0.60083221D-17  0.10407097D-16  0.17043294D-16  0.26659909D-16
  0.39881355D-16  0.56378515D-16  0.72934732D-16  0.80542439D-16  0.66159271D-16
  0.30784871D-16  0.48256666D-17  0.26055726D-19  0.31723927D-19 -0.81931507D-20
  0.19265372D-20 -0.43400523D-21  0.57868683D-22  0.78776420D-17  0.14639262D-16
  0.25340715D-16  0.41534368D-16  0.65248678D-16  0.98408951D-16  0.14245045D-15
  0.19359045D-15  0.23892889D-15  0.24476177D-15  0.16615876D-15 -0.53630751D-17
 -0.13251813D-15 -0.81813370D-16 -0.94852849D-17  0.33789013D-19 -0.58146624D-19
  0.44412950D-20  0.11868141D-16  0.23489705D-16  0.40473973D-16  0.66302901D-16
  0.10416247D-15  0.15742406D-15  0.22825514D-15  0.31259891D-15  0.39046756D-15
  0.41310864D-15  0.29498908D-15 -0.92186581D-17 -0.33742592D-15 -0.31198844D-15
  0.31882717D-16  0.14721758D-15  0.46832190D-16  0.76824845D-18  0.45032707D-18
  0.92140937D-18  0.16071827D-17  0.26344369D-17  0.41352178D-17  0.62546258D-17
  0.90668946D-17  0.12436692D-16  0.15548121D-16  0.16536587D-16  0.11866194D-16
 -0.33794014D-18 -0.14326956D-16 -0.13887650D-16  0.18367793D-17  0.85822106D-17
  0.53024595D-17 -0.19688401D-17 -0.19562418D-15 -0.70732523D-18 -0.48525180D-17
  0.15412795D-10  0.22230934D-10  0.29754510D-10  0.35248083D-10  0.34476652D-10
  0.24827416D-10  0.10920006D-10  0.20296907D-11  0.90016249D-13  0.17214710D-14
  0.13894508D-15 -0.72356466D-12 -0.10436470D-11 -0.13968467D-11 -0.16547464D-11
 -0.16185310D-11 -0.11655408D-11 -0.51264748D-12 -0.95285278D-13 -0.42258770D-14
 -0.80815685D-16 -0.65228757D-17  0.34430463D+02  0.49661423D+02  0.66468251D+02
  0.78740281D+02  0.77016989D+02  0.55461674D+02  0.24394074D+02  0.45341023D+01
  0.20108624D+00  0.38455740D-02  0.31038778D-03  0.31433547D-13  0.45323231D-13
  0.61425570D-13  0.74013422D-13  0.75694425D-13  0.57309999D-13  0.26641250D-13
 -0.21563120D-14 -0.93515663D-14 -0.39458715D-14 -0.49057559D-15  0.74673778D-14
  0.10767022D-13  0.14592306D-13  0.17582686D-13  0.17982026D-13  0.13614608D-13
  0.63289160D-14 -0.51225515D-15 -0.22215653D-14 -0.93738431D-15 -0.11654152D-15
  0.82340260D-01  0.11872432D+00  0.16090444D+00  0.19387836D+00  0.19828175D+00
  0.15012369D+00  0.69786824D-01 -0.56484650D-02 -0.24496453D-01 -0.10336221D-01
 -0.12850640D-02 -0.27620180D-13 -0.38562126D-13 -0.54021109D-13 -0.63092954D-13
 -0.67263568D-13 -0.48714331D-13 -0.25002607D-13  0.42661038D-14  0.85707387D-14
  0.53259411D-14 -0.22875408D-15 -0.63900901D-14 -0.89215734D-14 -0.12498100D-13
 -0.14596924D-13 -0.15561820D-13 -0.11270345D-13 -0.57844993D-14  0.98698806D-15
  0.19828905D-14  0.12321876D-14 -0.52923594D-16 -0.71143648D-01 -0.99327750D-01
 -0.13914677D+00 -0.16251389D+00 -0.17325650D+00 -0.12547765D+00 -0.64401342D-01
  0.10988567D-01  0.22076381D-01  0.13718480D-01 -0.58922135D-03 -0.10218561D-15
  0.10934183D-15  0.11112170D-03 -0.87634486D-17 -0.77327358D-17  0.60300801D-05
 -0.22988572D-18  0.18594113D-17  0.19964376D-06  0.88148424D-15  0.86936774D-15
  0.67422654D-15  0.39867344D-15  0.15957058D-15  0.41435095D-16  0.65856722D-17
 -0.14535736D-15 -0.14335934D-15 -0.11118042D-15 -0.65741524D-16 -0.26313298D-16
 -0.68326757D-17 -0.10859819D-17 -0.73612688D-15 -0.72600840D-15 -0.56304612D-15
 -0.33293192D-15 -0.13325728D-15 -0.34602419D-16 -0.54996903D-17 -0.75105952D-15
 -0.74073578D-15 -0.57446774D-15 -0.33968558D-15 -0.13596046D-15 -0.35304344D-16
 -0.56112538D-17  0.32435853D-14  0.31990004D-14  0.24809420D-14  0.14669931D-14
  0.58716964D-15  0.15246814D-15  0.24233206D-16  0.28421233D-06  0.28030567D-06
  0.21738732D-06  0.12854218D-06  0.51449503D-07  0.13359700D-07  0.21233837D-08
 -0.76658833D-16  0.14482095D-16  0.62176739D-16  0.10853031D-15 -0.18926022D-16
 -0.86496043D-09 -0.60499530D-17 -0.13009426D-18  0.61800473D-17  0.11518505D-16
 -0.80959090D-17  0.53219301D-10 -0.64051350D-19  0.37061427D-18 -0.30656292D-18
  0.53276151D-18 -0.30381158D-18  0.34662756D-11 -0.51295868D-17 -0.15291279D-16
 -0.41153200D-05  0.58338179D-18  0.68674286D-16  0.61728656D-05  0.14805379D-16
 -0.22800448D-16  0.61730945D-05  0.10921681D-16 -0.42626741D-19 -0.66186463D-18
 -0.75526846D-06  0.17422145D-18  0.16094559D-17  0.11328561D-05 -0.46341229D-19
  0.37613804D-18  0.11329492D-05  0.15236347D-17  0.72444161D-17  0.13065603D-16
  0.19265224D-16  0.36270324D-16  0.18114825D-16 -0.83725336D-17  0.66214749D-17
 -0.85577232D-16  0.64589305D-05 -0.14291146D-16  0.55331388D-16 -0.16370636D-04
 -0.57405407D-17 -0.82954134D-17 -0.15770477D-04  0.96361010D-16 -0.65973996D-18
 -0.95701270D-16  0.12714885D-16  0.18606763D-17 -0.52017382D-04 -0.97569755D-17
  0.86718701D-17  0.10851054D-17  0.66317721D-17 -0.18370452D-17  0.20224092D-04
 -0.40974104D-16 -0.73898484D-16 -0.10896327D-15  0.32664230D-15  0.60162050D-16
  0.14441365D-16  0.20993813D-15 -0.61790662D-16  0.64588291D-05 -0.22530878D-15
  0.10395073D-15 -0.16370572D-04 -0.12921286D-16  0.19260310D-16 -0.15770097D-04
  0.16208823D-15  0.16013408D-16 -0.17810164D-15 -0.27296190D-15 -0.45047067D-04
  0.26007806D-04  0.11862185D-16 -0.11354668D-17 -0.10726718D-16 -0.36913822D-16
  0.17514652D-04 -0.10111934D-04  0.63857300D-17  0.11516927D-16  0.16981702D-16
  0.11697769D-15 -0.38863137D-16  0.70488134D-17  0.22138171D-16 -0.30404028D-16
  0.64588291D-05 -0.10026604D-16 -0.12601892D-16 -0.16370572D-04  0.30831991D-17
  0.11296410D-16 -0.15770097D-04  0.14261565D-16  0.45778226D-16 -0.60039791D-16
  0.11714312D-15  0.45047067D-04  0.26007806D-04  0.44593288D-17  0.18180646D-17
 -0.62773935D-17 -0.45992904D-17 -0.17514652D-04 -0.10111934D-04
MO    4     MO 0.0        OCC NO =    2.0000000  ORB. ENERGY =  -40.466297
 -0.10753884D-09 -0.20126646D-09 -0.34861640D-09 -0.57091540D-09 -0.89305225D-09
 -0.13359436D-08 -0.18885646D-08 -0.24431639D-08 -0.26980065D-08 -0.22161998D-08
 -0.10312300D-08 -0.16164993D-09 -0.87281335D-12 -0.10626865D-11  0.27445374D-12
 -0.64535044D-13  0.14538285D-13 -0.19384821D-14  0.11240116D-07  0.20887851D-07
  0.36157087D-07  0.59262802D-07  0.93099273D-07  0.14041360D-06  0.20325366D-06
  0.27622214D-06  0.34091275D-06  0.34923532D-06  0.23708158D-06 -0.76522376D-08
 -0.18908186D-06 -0.11673440D-06 -0.13533962D-07  0.48211437D-10 -0.82965794D-10
  0.63370070D-11 -0.14003124D-09 -0.27715314D-09 -0.47754916D-09 -0.78230260D-09
 -0.12290047D-08 -0.18574339D-08 -0.26931640D-08 -0.36883294D-08 -0.46070954D-08
 -0.48742357D-08 -0.34805524D-08  0.10877021D-09  0.39812614D-08  0.36811265D-08
 -0.37618161D-09 -0.17370084D-08 -0.55256925D-09 -0.90645018D-11  0.18591620D-09
  0.38040114D-09  0.66352062D-09  0.10876195D-08  0.17072124D-08  0.25822038D-08
  0.37432406D-08  0.51344516D-08  0.64189957D-08  0.68270810D-08  0.48989230D-08
 -0.13951759D-09 -0.59148413D-08 -0.57334754D-08  0.75830890D-09  0.35431403D-08
  0.21891047D-08 -0.81282981D-09 -0.33049639D-08 -0.39206323D-09 -0.15832250D-10
  0.14404425D-05  0.20776492D-05  0.27807843D-05  0.32942004D-05  0.32221043D-05
  0.23203101D-05  0.10205573D-05  0.18968997D-06  0.84127004D-08  0.16088451D-09
  0.12985470D-10  0.34429989D+02  0.49660740D+02  0.66467337D+02  0.78739198D+02
  0.77015930D+02  0.55460911D+02  0.24393739D+02  0.45340400D+01  0.20108348D+00
  0.38455211D-02  0.31038351D-03  0.72171591D-12  0.10409805D-11  0.13932777D-11
  0.16505184D-11  0.16143956D-11  0.11625627D-11  0.51133764D-12  0.95041818D-13
  0.42150796D-14  0.80609196D-16  0.65062094D-17  0.35925010D-08  0.51799358D-08
  0.70202521D-08  0.84589021D-08  0.86510217D-08  0.65498886D-08  0.30447953D-08
 -0.24644222D-09 -0.10687789D-08 -0.45096876D-09 -0.56067274D-10  0.85869398D-01
  0.12381290D+00  0.16780088D+00  0.20218806D+00  0.20678019D+00  0.15655806D+00
  0.72777917D-01 -0.58905606D-02 -0.25546381D-01 -0.10779236D-01 -0.13401424D-02
  0.32251236D-14  0.46502236D-14  0.63023449D-14  0.75938752D-14  0.77663483D-14
  0.58800818D-14  0.27334275D-14 -0.22124047D-15 -0.95948309D-15 -0.40485165D-15
 -0.50333705D-16 -0.30944808D-08 -0.43203831D-08 -0.60523604D-08 -0.70687423D-08
 -0.75360052D-08 -0.54578052D-08 -0.28012159D-08  0.47796127D-09  0.96023945D-09
  0.59670221D-09 -0.25628910D-10 -0.73965532D-01 -0.10326755D+00 -0.14466597D+00
 -0.16895994D+00 -0.18012865D+00 -0.13045467D+00 -0.66955796D-01  0.11424424D-01
  0.22952032D-01  0.14262618D-01 -0.61259258D-03 -0.28202085D-14 -0.39374558D-14
 -0.55159233D-14 -0.64422205D-14 -0.68680686D-14 -0.49740651D-14 -0.25529365D-14
  0.43559826D-15  0.87513082D-15  0.54381487D-15 -0.23357350D-16 -0.36862244D-11
 -0.88117087D-04  0.89121146D-17  0.21515171D-12  0.51421219D-05  0.62840193D-18
  0.16652065D-13  0.39798093D-06  0.80045407D-20 -0.60788746D-03 -0.59953171D-03
 -0.46495881D-03 -0.27493241D-03 -0.11004275D-03 -0.28574390D-04 -0.45415986D-05
  0.60798742D-03  0.59963029D-03  0.46503527D-03  0.27497762D-03  0.11006085D-03
  0.28579089D-04  0.45423454D-05 -0.99959503D-07 -0.98585503D-07 -0.76456671D-07
 -0.45209202D-07 -0.18095157D-07 -0.46987017D-08 -0.74680918D-09 -0.50841517D-10
 -0.50142671D-10 -0.38887479D-10 -0.22994356D-10 -0.92035794D-11 -0.23898590D-11
 -0.37984294D-12  0.26368955D-16  0.26006499D-16  0.20168993D-16  0.11926024D-16
  0.47734369D-17  0.12395005D-17  0.19700556D-18 -0.17755015D-15 -0.17510963D-15
 -0.13580393D-15 -0.80301527D-16 -0.32140995D-16 -0.83459320D-17 -0.13264980D-17
  0.92005931D-04 -0.92007126D-04  0.11952693D-08  0.76983763D-11 -0.79020741D-19
  0.47237504D-18 -0.44966218D-05  0.44965494D-05  0.72438912D-10 -0.37627219D-12
  0.11201049D-19 -0.24012219D-19 -0.23646578D-06  0.23646531D-06  0.46967523D-12
 -0.19787053D-13  0.19888440D-21  0.34957503D-21 -0.26752739D-12 -0.63957062D-05
 -0.57327524D-18 -0.26762880D-12 -0.63946170D-05  0.81480673D-18  0.10702110D-11