 Molden2AIM, Version 4.0.0 (06/02/2016)           Time: Thu Jun 28 19:59:11 2018
GAUSSIAN             18 MOL ORBITALS    371 PRIMITIVES        5 NUCLEI
  Ge   1    (CENTRE  1)   0.00000000  0.00000000  0.00000000  CHARGE = 32.0
  H    2    (CENTRE  2)   1.67743429  1.67743429  1.67743429  CHARGE =  1.0
  H    3    (CENTRE  3)   1.67743429 -1.67743429 -1.67743429  CHARGE =  1.0
  H    4    (CENTRE  4)  -1.67743429  1.67743429 -1.67743429  CHARGE =  1.0
  H    5    (CENTRE  5)  -1.67743429 -1.67743429  1.67743429  CHARGE =  1.0
CENTRE ASSIGNMENTS    1  1  1  1  1  1  1  1  1  1  1  1  1  1  1  1  1  1  1  1
CENTRE ASSIGNMENTS    1  1  1  1  1  1  1  1  1  1  1  1  1  1  1  1  1  1  1  1
CENTRE ASSIGNMENTS    1  1  1  1  1  1  1  1  1  1  1  1  1  1  1  1  1  1  1  1
CENTRE ASSIGNMENTS    1  1  1  1  1  1  1  1  1  1  1  1  1  1  1  1  1  1  1  1
CENTRE ASSIGNMENTS    1  1  1  1  1  1  1  1  1  1  1  1  1  1  1  1  1  1  1  1
CENTRE ASSIGNMENTS    1  1  1  1  1  1  1  1  1  1  1  1  1  1  1  1  1  1  1  1
CENTRE ASSIGNMENTS    1  1  1  1  1  1  1  1  1  1  1  1  1  1  1  1  1  1  1  1
CENTRE ASSIGNMENTS    1  1  1  1  1  1  1  1  1  1  1  1  1  1  1  1  1  1  1  1
CENTRE ASSIGNMENTS    1  1  1  1  1  1  1  1  1  1  1  1  1  1  1  1  1  1  1  1
CENTRE ASSIGNMENTS    1  1  1  1  1  1  1  1  1  1  1  1  1  1  1  1  1  1  1  1
CENTRE ASSIGNMENTS    1  1  1  1  1  1  1  1  1  1  1  1  1  1  1  1  1  1  1  1
CENTRE ASSIGNMENTS    1  1  1  1  1  1  1  1  1  1  1  1  1  1  1  1  1  1  1  1
CENTRE ASSIGNMENTS    1  1  1  1  1  1  1  1  1  1  1  1  1  1  1  1  1  1  1  1
CENTRE ASSIGNMENTS    1  1  1  2  2  2  2  2  2  2  2  2  2  2  2  2  2  2  2  2
CENTRE ASSIGNMENTS    2  2  2  2  2  2  2  2  2  2  3  3  3  3  3  3  3  3  3  3
CENTRE ASSIGNMENTS    3  3  3  3  3  3  3  3  3  3  3  3  3  3  3  3  3  4  4  4
CENTRE ASSIGNMENTS    4  4  4  4  4  4  4  4  4  4  4  4  4  4  4  4  4  4  4  4
CENTRE ASSIGNMENTS    4  4  4  4  5  5  5  5  5  5  5  5  5  5  5  5  5  5  5  5
CENTRE ASSIGNMENTS    5  5  5  5  5  5  5  5  5  5  5
TYPE ASSIGNMENTS      1  1  1  1  1  1  1  1  1  1  1  1  1  1  1  1  1  1  1  1
TYPE ASSIGNMENTS      1  1  1  1  1  1  1  1  1  1  1  1  1  1  1  1  1  1  1  1
TYPE ASSIGNMENTS      1  1  1  1  1  1  1  1  1  1  1  1  1  1  1  1  1  1  1  1
TYPE ASSIGNMENTS      1  1  1  1  1  1  1  1  1  1  1  1  1  1  1  2  2  2  2  2
TYPE ASSIGNMENTS      2  2  2  2  2  2  3  3  3  3  3  3  3  3  3  3  3  4  4  4
TYPE ASSIGNMENTS      4  4  4  4  4  4  4  4  2  2  2  2  2  2  2  2  2  2  2  3
TYPE ASSIGNMENTS      3  3  3  3  3  3  3  3  3  3  4  4  4  4  4  4  4  4  4  4
TYPE ASSIGNMENTS      4  2  2  2  2  2  2  2  2  2  2  2  3  3  3  3  3  3  3  3
TYPE ASSIGNMENTS      3  3  3  4  4  4  4  4  4  4  4  4  4  4  2  3  4  2  3  4
TYPE ASSIGNMENTS      2  3  4  5  5  5  5  5  5  5  6  6  6  6  6  6  6  7  7  7
TYPE ASSIGNMENTS      7  7  7  7  8  8  8  8  8  8  8  9  9  9  9  9  9  9 10 10
TYPE ASSIGNMENTS     10 10 10 10 10  5  6  7  8  9 10  5  6  7  8  9 10  5  6  7
TYPE ASSIGNMENTS      8  9 10 11 12 13 17 14 15 18 19 16 20 11 12 13 17 14 15 18
TYPE ASSIGNMENTS     19 16 20  1  1  1  1  1  1  2  3  4  2  3  4  2  3  4  5  6
TYPE ASSIGNMENTS      7  8  9 10  5  6  7  8  9 10  1  1  1  1  1  1  2  3  4  2
TYPE ASSIGNMENTS      3  4  2  3  4  5  6  7  8  9 10  5  6  7  8  9 10  1  1  1
TYPE ASSIGNMENTS      1  1  1  2  3  4  2  3  4  2  3  4  5  6  7  8  9 10  5  6
TYPE ASSIGNMENTS      7  8  9 10  1  1  1  1  1  1  2  3  4  2  3  4  2  3  4  5
TYPE ASSIGNMENTS      6  7  8  9 10  5  6  7  8  9 10
EXPONENTS  0.7447967D+07 0.1115318D+07 0.2538426D+06 0.7191529D+05 0.2347018D+05
EXPONENTS  0.8477492D+04 0.3308391D+04 0.1372605D+04 0.5982201D+03 0.2713860D+03
EXPONENTS  0.1269780D+03 0.6022207D+02 0.2801858D+02 0.1351752D+02 0.6309406D+01
EXPONENTS  0.2904534D+01 0.1287556D+01 0.1677320D+00 0.7447967D+07 0.1115318D+07
EXPONENTS  0.2538426D+06 0.7191529D+05 0.2347018D+05 0.8477492D+04 0.3308391D+04
EXPONENTS  0.1372605D+04 0.5982201D+03 0.2713860D+03 0.1269780D+03 0.6022207D+02
EXPONENTS  0.2801858D+02 0.1351752D+02 0.6309406D+01 0.2904534D+01 0.1287556D+01
EXPONENTS  0.1677320D+00 0.7447967D+07 0.1115318D+07 0.2538426D+06 0.7191529D+05
EXPONENTS  0.2347018D+05 0.8477492D+04 0.3308391D+04 0.1372605D+04 0.5982201D+03
EXPONENTS  0.2713860D+03 0.1269780D+03 0.6022207D+02 0.2801858D+02 0.1351752D+02
EXPONENTS  0.6309406D+01 0.2904534D+01 0.1287556D+01 0.1677320D+00 0.7447967D+07
EXPONENTS  0.1115318D+07 0.2538426D+06 0.7191529D+05 0.2347018D+05 0.8477492D+04
EXPONENTS  0.3308391D+04 0.1372605D+04 0.5982201D+03 0.2713860D+03 0.1269780D+03
EXPONENTS  0.6022207D+02 0.2801858D+02 0.1351752D+02 0.6309406D+01 0.2904534D+01
EXPONENTS  0.1287556D+01 0.1677320D+00 0.3365520D+00 0.7106900D-01 0.2737000D-01
EXPONENTS  0.6979598D+04 0.1654165D+04 0.5360286D+03 0.2035371D+03 0.8523753D+02
EXPONENTS  0.3784196D+02 0.1740651D+02 0.7881492D+01 0.3533213D+01 0.1521473D+01
EXPONENTS  0.1990930D+00 0.6979598D+04 0.1654165D+04 0.5360286D+03 0.2035371D+03
EXPONENTS  0.8523753D+02 0.3784196D+02 0.1740651D+02 0.7881492D+01 0.3533213D+01
EXPONENTS  0.1521473D+01 0.1990930D+00 0.6979598D+04 0.1654165D+04 0.5360286D+03
EXPONENTS  0.2035371D+03 0.8523753D+02 0.3784196D+02 0.1740651D+02 0.7881492D+01
EXPONENTS  0.3533213D+01 0.1521473D+01 0.1990930D+00 0.6979598D+04 0.1654165D+04
EXPONENTS  0.5360286D+03 0.2035371D+03 0.8523753D+02 0.3784196D+02 0.1740651D+02
EXPONENTS  0.7881492D+01 0.3533213D+01 0.1521473D+01 0.1990930D+00 0.6979598D+04
EXPONENTS  0.1654165D+04 0.5360286D+03 0.2035371D+03 0.8523753D+02 0.3784196D+02
EXPONENTS  0.1740651D+02 0.7881492D+01 0.3533213D+01 0.1521473D+01 0.1990930D+00
EXPONENTS  0.6979598D+04 0.1654165D+04 0.5360286D+03 0.2035371D+03 0.8523753D+02
EXPONENTS  0.3784196D+02 0.1740651D+02 0.7881492D+01 0.3533213D+01 0.1521473D+01
EXPONENTS  0.1990930D+00 0.6979598D+04 0.1654165D+04 0.5360286D+03 0.2035371D+03
EXPONENTS  0.8523753D+02 0.3784196D+02 0.1740651D+02 0.7881492D+01 0.3533213D+01
EXPONENTS  0.1521473D+01 0.1990930D+00 0.6979598D+04 0.1654165D+04 0.5360286D+03
EXPONENTS  0.2035371D+03 0.8523753D+02 0.3784196D+02 0.1740651D+02 0.7881492D+01
EXPONENTS  0.3533213D+01 0.1521473D+01 0.1990930D+00 0.6979598D+04 0.1654165D+04
EXPONENTS  0.5360286D+03 0.2035371D+03 0.8523753D+02 0.3784196D+02 0.1740651D+02
EXPONENTS  0.7881492D+01 0.3533213D+01 0.1521473D+01 0.1990930D+00 0.5627040D+00
EXPONENTS  0.5627040D+00 0.5627040D+00 0.6703100D-01 0.6703100D-01 0.6703100D-01
EXPONENTS  0.2136800D-01 0.2136800D-01 0.2136800D-01 0.2822391D+03 0.8454996D+02
EXPONENTS  0.3207366D+02 0.1349750D+02 0.5958550D+01 0.2610788D+01 0.1103987D+01
EXPONENTS  0.2822391D+03 0.8454996D+02 0.3207366D+02 0.1349750D+02 0.5958550D+01
EXPONENTS  0.2610788D+01 0.1103987D+01 0.2822391D+03 0.8454996D+02 0.3207366D+02
EXPONENTS  0.1349750D+02 0.5958550D+01 0.2610788D+01 0.1103987D+01 0.2822391D+03
EXPONENTS  0.8454996D+02 0.3207366D+02 0.1349750D+02 0.5958550D+01 0.2610788D+01
EXPONENTS  0.1103987D+01 0.2822391D+03 0.8454996D+02 0.3207366D+02 0.1349750D+02
EXPONENTS  0.5958550D+01 0.2610788D+01 0.1103987D+01 0.2822391D+03 0.8454996D+02
EXPONENTS  0.3207366D+02 0.1349750D+02 0.5958550D+01 0.2610788D+01 0.1103987D+01
EXPONENTS  0.4240490D+00 0.4240490D+00 0.4240490D+00 0.4240490D+00 0.4240490D+00
EXPONENTS  0.4240490D+00 0.1520000D+00 0.1520000D+00 0.1520000D+00 0.1520000D+00
EXPONENTS  0.1520000D+00 0.1520000D+00 0.5280000D-01 0.5280000D-01 0.5280000D-01
EXPONENTS  0.5280000D-01 0.5280000D-01 0.5280000D-01 0.3458000D+00 0.3458000D+00
EXPONENTS  0.3458000D+00 0.3458000D+00 0.3458000D+00 0.3458000D+00 0.3458000D+00
EXPONENTS  0.3458000D+00 0.3458000D+00 0.3458000D+00 0.1323000D+00 0.1323000D+00
EXPONENTS  0.1323000D+00 0.1323000D+00 0.1323000D+00 0.1323000D+00 0.1323000D+00
EXPONENTS  0.1323000D+00 0.1323000D+00 0.1323000D+00 0.3387000D+02 0.5095000D+01
EXPONENTS  0.1159000D+01 0.3258000D+00 0.1027000D+00 0.2526000D-01 0.1407000D+01
EXPONENTS  0.1407000D+01 0.1407000D+01 0.3880000D+00 0.3880000D+00 0.3880000D+00
EXPONENTS  0.1020000D+00 0.1020000D+00 0.1020000D+00 0.1057000D+01 0.1057000D+01
EXPONENTS  0.1057000D+01 0.1057000D+01 0.1057000D+01 0.1057000D+01 0.2470000D+00
EXPONENTS  0.2470000D+00 0.2470000D+00 0.2470000D+00 0.2470000D+00 0.2470000D+00
EXPONENTS  0.3387000D+02 0.5095000D+01 0.1159000D+01 0.3258000D+00 0.1027000D+00
EXPONENTS  0.2526000D-01 0.1407000D+01 0.1407000D+01 0.1407000D+01 0.3880000D+00
EXPONENTS  0.3880000D+00 0.3880000D+00 0.1020000D+00 0.1020000D+00 0.1020000D+00
EXPONENTS  0.1057000D+01 0.1057000D+01 0.1057000D+01 0.1057000D+01 0.1057000D+01
EXPONENTS  0.1057000D+01 0.2470000D+00 0.2470000D+00 0.2470000D+00 0.2470000D+00
EXPONENTS  0.2470000D+00 0.2470000D+00 0.3387000D+02 0.5095000D+01 0.1159000D+01
EXPONENTS  0.3258000D+00 0.1027000D+00 0.2526000D-01 0.1407000D+01 0.1407000D+01
EXPONENTS  0.1407000D+01 0.3880000D+00 0.3880000D+00 0.3880000D+00 0.1020000D+00
EXPONENTS  0.1020000D+00 0.1020000D+00 0.1057000D+01 0.1057000D+01 0.1057000D+01
EXPONENTS  0.1057000D+01 0.1057000D+01 0.1057000D+01 0.2470000D+00 0.2470000D+00
EXPONENTS  0.2470000D+00 0.2470000D+00 0.2470000D+00 0.2470000D+00 0.3387000D+02
EXPONENTS  0.5095000D+01 0.1159000D+01 0.3258000D+00 0.1027000D+00 0.2526000D-01
EXPONENTS  0.1407000D+01 0.1407000D+01 0.1407000D+01 0.3880000D+00 0.3880000D+00
EXPONENTS  0.3880000D+00 0.1020000D+00 0.1020000D+00 0.1020000D+00 0.1057000D+01
EXPONENTS  0.1057000D+01 0.1057000D+01 0.1057000D+01 0.1057000D+01 0.1057000D+01
EXPONENTS  0.2470000D+00 0.2470000D+00 0.2470000D+00 0.2470000D+00 0.2470000D+00
EXPONENTS  0.2470000D+00
MO    1     MO 0.0        OCC NO =    2.0000000  ORB. ENERGY = -398.058448
  0.75186860D+00  0.14039218D+01  0.24331478D+01  0.39850023D+01  0.62328519D+01
  0.93319348D+01  0.13229117D+02  0.17245000D+02  0.19354343D+02  0.16454534D+02
  0.82092350D+01  0.15262570D+01  0.35858765D-01  0.51983940D-02 -0.13776915D-02
  0.28619793D-03 -0.78559980D-04 -0.49685025D-05  0.69360391D-04  0.12994439D-03
  0.22485715D-03  0.36821794D-03  0.57857351D-03  0.87224855D-03  0.12655325D-02
  0.17257570D-02  0.21535136D-02  0.22470162D-02  0.16272766D-02  0.11496210D-03
 -0.11785433D-02 -0.83087284D-03 -0.11764142D-03 -0.10657003D-05 -0.53504088D-06
 -0.18189618D-07 -0.16820830D-03 -0.31043794D-03 -0.53667161D-03 -0.87966207D-03
 -0.13828434D-02 -0.20868139D-02 -0.30357153D-02 -0.41646258D-02 -0.52647461D-02
 -0.56503020D-02 -0.43118377D-02 -0.33651829D-03  0.43496414D-02  0.46221659D-02
 -0.56651811D-04 -0.21047897D-02 -0.76140171D-03  0.35148067D-05  0.67092255D-04
  0.14535691D-03  0.24746882D-03  0.40505693D-03  0.63623997D-03  0.96061772D-03
  0.13973733D-02  0.19194726D-02  0.24294566D-02  0.26195976D-02  0.20107020D-02
  0.16352015D-03 -0.21347834D-02 -0.23891852D-02  0.75700269D-04  0.14156448D-02
  0.96743729D-03 -0.38177965D-03  0.20931381D-03 -0.18341993D-03 -0.19587273D-05
 -0.17978547D-15 -0.25742286D-15 -0.33907946D-15 -0.38822429D-15 -0.35523555D-15
 -0.22610324D-15 -0.78079265D-16 -0.87179896D-17 -0.11037388D-18 -0.20031179D-19
 -0.15724886D-21 -0.11376561D-14 -0.16289342D-14 -0.21456452D-14 -0.24566265D-14
 -0.22478785D-14 -0.14307482D-14 -0.49407416D-15 -0.55166161D-16 -0.69842977D-18
 -0.12675436D-18 -0.99504775D-21 -0.70244589D-15 -0.10057856D-14 -0.13248288D-14
 -0.15168443D-14 -0.13879528D-14 -0.88341561D-15 -0.30506614D-15 -0.34062352D-16
 -0.43124553D-18 -0.78264495D-19 -0.61439233D-21  0.75308325D-15  0.10853936D-14
  0.14416226D-14  0.16988635D-14  0.16220974D-14  0.11076658D-14  0.35084894D-15
 -0.16538209D-15 -0.17144693D-15 -0.45107134D-16  0.29930222D-19  0.55205862D-14
  0.79566354D-14  0.10568024D-13  0.12453766D-13  0.11891021D-13  0.81199048D-14
  0.25719491D-14 -0.12123574D-14 -0.12568166D-14 -0.33066439D-15  0.21940784D-18
  0.29748661D-14  0.42875746D-14  0.56947679D-14  0.67109335D-14  0.64076883D-14
  0.43755552D-14  0.13859406D-14 -0.65330038D-15 -0.67725802D-15 -0.17818440D-15
  0.11823182D-18 -0.56959371D-15 -0.81576418D-15 -0.10909995D-14 -0.12817270D-14
 -0.12384908D-14 -0.84429260D-15 -0.26991115D-15  0.16007432D-15  0.15533418D-15
  0.52492952D-16 -0.19635540D-16 -0.42673383D-14 -0.61116224D-14 -0.81736576D-14
 -0.96025688D-14 -0.92786473D-14 -0.63253545D-14 -0.20221470D-14  0.11992606D-14
  0.11637479D-14  0.39327187D-15 -0.14710747D-15 -0.22915227D-14 -0.32818869D-14
 -0.43891815D-14 -0.51564941D-14 -0.49825511D-14 -0.33966591D-14 -0.10858749D-14
  0.64399227D-15  0.62492230D-15  0.21118350D-15 -0.78995406D-16  0.12563126D-16
  0.12930608D-16  0.15688033D-16 -0.12302775D-17 -0.46324937D-16 -0.31653876D-16
 -0.87821980D-18 -0.37511313D-18 -0.11833179D-17 -0.47280544D-17 -0.47559254D-17
 -0.38005926D-17 -0.23274521D-17 -0.97646644D-18 -0.26622028D-18 -0.43554972D-19
  0.30356019D-16  0.30534963D-16  0.24401340D-16  0.14943183D-16  0.62693091D-17
  0.17092418D-17  0.27964052D-18 -0.25627965D-16 -0.25779037D-16 -0.20600748D-16
 -0.12615731D-16 -0.52928426D-17 -0.14430215D-17 -0.23608554D-18  0.59842987D-15
  0.60195750D-15  0.48104103D-15  0.29458563D-15  0.12359136D-15  0.33695502D-16
  0.55127530D-17  0.97507529D-15  0.98082318D-15  0.78380317D-15  0.47999470D-15
  0.20137846D-15  0.54903095D-16  0.89824214D-17  0.33159411D-15  0.33354880D-15
  0.26654815D-15  0.16323192D-15  0.68482825D-16  0.18670910D-16  0.30546544D-17
  0.33991444D-18 -0.85866538D-18  0.51875094D-18 -0.42059926D-16 -0.78509208D-16
 -0.16596683D-16  0.11346782D-16 -0.93967651D-17 -0.19500165D-17 -0.11270328D-16
 -0.64466338D-17 -0.29782833D-16  0.92146314D-18 -0.75518297D-18 -0.16628017D-18
 -0.13137426D-17  0.64696515D-19 -0.21878014D-17  0.46549384D-17  0.51495084D-17
  0.38298519D-17 -0.58819281D-17 -0.69492087D-17 -0.41833484D-17 -0.80828871D-17
 -0.84993163D-17 -0.73062072D-17 -0.89277245D-04  0.18225792D-17 -0.20782740D-17
 -0.21271276D-18 -0.23895372D-17  0.30826331D-17  0.11330849D-17 -0.30782006D-17
  0.31521888D-17 -0.49494660D-18 -0.19804227D-05 -0.42781062D-05 -0.77157408D-05
 -0.11376855D-04  0.60344690D-04  0.98367435D-04  0.15937652D-05  0.20960754D-04
  0.20960754D-04  0.20960754D-04 -0.45830389D-04 -0.45830389D-04 -0.45830389D-04
 -0.13383743D-04 -0.13383743D-04 -0.13383743D-04 -0.10057769D-16  0.54180624D-17
  0.46397065D-17  0.13253890D-04  0.13253890D-04  0.13253890D-04  0.10027387D-16
 -0.64857594D-17 -0.35416277D-17  0.78913477D-05  0.78913477D-05  0.78913477D-05
 -0.42781062D-05 -0.77157408D-05 -0.11376855D-04  0.60344690D-04  0.98367435D-04
  0.15937652D-05  0.20960754D-04 -0.20960754D-04 -0.20960754D-04 -0.45830389D-04
  0.45830389D-04  0.45830389D-04 -0.13383743D-04  0.13383743D-04  0.13383743D-04
 -0.11005584D-17  0.18383993D-17 -0.73784088D-18 -0.13253890D-04 -0.13253890D-04
  0.13253890D-04  0.27408253D-17 -0.11790866D-17 -0.15617387D-17 -0.78913477D-05
 -0.78913477D-05  0.78913477D-05 -0.42781062D-05 -0.77157408D-05 -0.11376855D-04
  0.60344690D-04  0.98367435D-04  0.15937652D-05 -0.20960754D-04  0.20960754D-04
 -0.20960754D-04  0.45830389D-04 -0.45830389D-04  0.45830389D-04  0.13383743D-04
 -0.13383743D-04  0.13383743D-04  0.17405999D-17  0.39062786D-17 -0.56468785D-17
 -0.13253890D-04  0.13253890D-04 -0.13253890D-04 -0.10134907D-17 -0.35462299D-17
  0.45597206D-17 -0.78913477D-05  0.78913477D-05 -0.78913477D-05 -0.42781062D-05
 -0.77157408D-05 -0.11376855D-04  0.60344690D-04  0.98367435D-04  0.15937652D-05
 -0.20960754D-04 -0.20960754D-04  0.20960754D-04  0.45830389D-04  0.45830389D-04
 -0.45830389D-04  0.13383743D-04  0.13383743D-04 -0.13383743D-04 -0.41364284D-17
  0.12062846D-17  0.29301438D-17  0.13253890D-04 -0.13253890D-04 -0.13253890D-04
  0.74366264D-18 -0.34847055D-18 -0.39519209D-18  0.78913477D-05 -0.78913477D-05
 -0.78913477D-05
MO    2     MO 0.0        OCC NO =    2.0000000  ORB. ENERGY =  -49.660520
  0.42196510D-03  0.78791162D-03  0.13655358D-02  0.22364704D-02  0.34980128D-02
  0.52372859D-02  0.74244695D-02  0.96782710D-02  0.10862081D-01  0.92346444D-02
  0.46072022D-02  0.85656882D-03  0.20124723D-04  0.29174524D-05 -0.77319058D-06
  0.16062054D-06 -0.44089579D-07 -0.27884323D-08 -0.23481887D+00 -0.43992535D+00
 -0.76125150D+00 -0.12465980D+01 -0.19587545D+01 -0.29529883D+01 -0.42844470D+01
 -0.58425320D+01 -0.72906976D+01 -0.76072498D+01 -0.55091276D+01 -0.38920297D+00
  0.39899459D+01  0.28129112D+01  0.39827378D+00  0.36079170D-02  0.18113753D-02
  0.61580759D-04  0.17350979D-02  0.32022214D-02  0.55358612D-02  0.90738676D-02
  0.14264271D-01  0.21525849D-01  0.31313932D-01  0.42958841D-01  0.54306774D-01
  0.58283850D-01  0.44477358D-01  0.34712448D-02 -0.44867309D-01 -0.47678447D-01
  0.58437330D-03  0.21711273D-01  0.78539913D-02 -0.36255844D-04 -0.72302393D-03
 -0.15664480D-02 -0.26668634D-02 -0.43651216D-02 -0.68564803D-02 -0.10352158D-01
 -0.15058882D-01 -0.20685318D-01 -0.26181193D-01 -0.28230259D-01 -0.21668457D-01
 -0.17621852D-02  0.23005628D-01  0.25747206D-01 -0.81578875D-03 -0.15255786D-01
 -0.10425649D-01  0.41142726D-02 -0.23671704D-02  0.20055642D-02  0.20542277D-04
 -0.45843183D-13 -0.65639805D-13 -0.86461279D-13 -0.98992635D-13 -0.90580892D-13
 -0.57653670D-13 -0.19909295D-13 -0.22229849D-14 -0.28144044D-16 -0.51077152D-17
 -0.40096612D-19  0.31001540D-13  0.44389044D-13  0.58469606D-13  0.66943959D-13
  0.61255502D-13  0.38988405D-13  0.13463699D-13  0.15032978D-14  0.19032464D-16
  0.34541022D-17  0.27115411D-19 -0.27643369D-13 -0.39580702D-13 -0.52136019D-13
 -0.59692408D-13 -0.54620140D-13 -0.34765075D-13 -0.12005275D-13 -0.13404565D-14
 -0.16970816D-16 -0.30799445D-17 -0.24178196D-19  0.14932155D-12  0.21521214D-12
  0.28584533D-12  0.33685113D-12  0.32162992D-12  0.21962827D-12  0.69566423D-13
 -0.32792006D-13 -0.33994545D-13 -0.89438548D-14  0.59345727D-17 -0.94124467D-13
 -0.13565843D-12 -0.18018189D-12 -0.21233326D-12 -0.20273862D-12 -0.13844213D-12
 -0.43851020D-13  0.20670358D-13  0.21428376D-13  0.56377364D-14 -0.37408430D-17
 -0.92664290D-13 -0.13355393D-12 -0.17738668D-12 -0.20903928D-12 -0.19959348D-12
 -0.13629444D-12 -0.43170748D-13  0.20349694D-13  0.21095952D-13  0.55502768D-14
 -0.36828104D-17 -0.11436685D-12 -0.16379461D-12 -0.21905821D-12 -0.25735377D-12
 -0.24867250D-12 -0.16952274D-12 -0.54194575D-13  0.32140798D-13  0.31189041D-13
  0.10539888D-13 -0.39425557D-14  0.74201791D-13  0.10627077D-12  0.14212607D-12
  0.16697242D-12  0.16133998D-12  0.10998721D-12  0.35161714D-13 -0.20853112D-13
 -0.20235607D-13 -0.68383323D-14  0.25579501D-14  0.71809602D-13  0.10284471D-12
  0.13754408D-12  0.16158941D-12  0.15613854D-12  0.10644134D-12  0.34028137D-13
 -0.20180829D-13 -0.19583232D-13 -0.66178716D-14  0.24754844D-14  0.81256332D-15
 -0.12433999D-15 -0.58140511D-15 -0.16411816D-14  0.41627891D-15  0.61048927D-15
 -0.47831760D-16  0.41878573D-16  0.80461213D-16 -0.12796884D-14 -0.12872320D-14
 -0.10286630D-14 -0.62994486D-15 -0.26428901D-15 -0.72054800D-16 -0.11788526D-16
  0.38682125D-14  0.38910149D-14  0.31094185D-14  0.19041827D-14  0.79888667D-15
  0.21780558D-15  0.35634083D-16 -0.25885240D-14 -0.26037829D-14 -0.20807556D-14
 -0.12742378D-14 -0.53459767D-15 -0.14575078D-15 -0.23845557D-16 -0.31782065D-13
 -0.31969415D-13 -0.25547651D-13 -0.15645174D-13 -0.65638247D-14 -0.17895374D-14
 -0.29277729D-15 -0.29232393D-13 -0.29404712D-13 -0.23498126D-13 -0.14390062D-13
 -0.60372509D-14 -0.16459743D-14 -0.26928964D-15  0.27271685D-13  0.27432447D-13
  0.21922034D-13  0.13424876D-13  0.56323137D-14  0.15355737D-14  0.25122754D-15
  0.28553255D-16  0.18513221D-17 -0.30404577D-16  0.19344542D-14  0.18800476D-14
 -0.20187410D-14  0.17062629D-15  0.30657298D-15 -0.47719927D-15  0.17130684D-14
  0.74506208D-15 -0.99377023D-15  0.12093693D-16  0.25108142D-16 -0.37201835D-16
  0.14525899D-15  0.54484143D-16 -0.92415964D-16  0.22882676D-15 -0.19460211D-15
 -0.33256836D-15 -0.29683551D-15  0.34933795D-15  0.54198182D-15 -0.38964476D-15
  0.23446838D-15  0.45572325D-15  0.93392101D-03  0.13417665D-16 -0.21377710D-16
 -0.10061460D-15  0.11597143D-16  0.79721582D-16  0.16200910D-15 -0.51850139D-16
 -0.15588453D-16  0.13983471D-15  0.22302067D-04  0.44359218D-04  0.80003677D-04
  0.11796537D-03 -0.63088201D-03 -0.10727094D-02 -0.17261882D-04 -0.22768866D-03
 -0.22768866D-03 -0.22768866D-03  0.48344564D-03  0.48344564D-03  0.48344564D-03
  0.14574859D-03  0.14574859D-03  0.14574859D-03 -0.89211578D-16 -0.18623027D-15
  0.27544185D-15 -0.13076972D-03 -0.13076972D-03 -0.13076972D-03  0.21788648D-15
  0.14245213D-15 -0.36033861D-15 -0.84639838D-04 -0.84639838D-04 -0.84639838D-04
  0.44359218D-04  0.80003677D-04  0.11796537D-03 -0.63088201D-03 -0.10727094D-02
 -0.17261882D-04 -0.22768866D-03  0.22768866D-03  0.22768866D-03  0.48344564D-03
 -0.48344564D-03 -0.48344564D-03  0.14574859D-03 -0.14574859D-03 -0.14574859D-03
  0.13276863D-15 -0.22831326D-15  0.95544632D-16  0.13076972D-03  0.13076972D-03
 -0.13076972D-03 -0.13486884D-15  0.14817387D-15 -0.13305023D-16  0.84639838D-04
  0.84639838D-04 -0.84639838D-04  0.44359218D-04  0.80003677D-04  0.11796537D-03
 -0.63088201D-03 -0.10727094D-02 -0.17261882D-04  0.22768866D-03 -0.22768866D-03
  0.22768866D-03 -0.48344564D-03  0.48344564D-03 -0.48344564D-03 -0.14574859D-03
  0.14574859D-03 -0.14574859D-03 -0.20791049D-15  0.27027064D-16  0.18088342D-15
  0.13076972D-03 -0.13076972D-03  0.13076972D-03  0.62142790D-16 -0.63602379D-16
  0.14595894D-17  0.84639838D-04 -0.84639838D-04  0.84639838D-04  0.44359218D-04
  0.80003677D-04  0.11796537D-03 -0.63088201D-03 -0.10727094D-02 -0.17261882D-04
  0.22768866D-03  0.22768866D-03 -0.22768866D-03 -0.48344564D-03 -0.48344564D-03
  0.48344564D-03 -0.14574859D-03 -0.14574859D-03  0.14574859D-03 -0.28605660D-16
  0.16728283D-16  0.11877377D-16 -0.13076972D-03  0.13076972D-03  0.13076972D-03
  0.62047076D-16  0.12913263D-15 -0.19117970D-15 -0.84639838D-04  0.84639838D-04
  0.84639838D-04
MO    3     MO 0.0        OCC NO =    2.0000000  ORB. ENERGY =  -44.078795
 -0.42544351D-16 -0.79440665D-16 -0.13767924D-15 -0.22549065D-15 -0.35268482D-15
 -0.52804587D-15 -0.74856721D-15 -0.97580524D-15 -0.10951621D-14 -0.93107689D-15
 -0.46451810D-15 -0.86362983D-16 -0.20290618D-17 -0.29415020D-18  0.77956426D-19
 -0.16194459D-19  0.44453025D-20  0.28114183D-21  0.54132620D-16  0.10141566D-15
  0.17549074D-15  0.28737730D-15  0.45155022D-15  0.68075019D-15  0.98769038D-15
  0.13468746D-14  0.16807191D-14  0.17536936D-14  0.12700151D-14  0.89722670D-16
 -0.91979925D-15 -0.64845833D-15 -0.91813759D-16 -0.83173041D-18 -0.41757499D-18
 -0.14196166D-19 -0.13624115D-15 -0.25144075D-15 -0.43467984D-15 -0.71248666D-15
 -0.11200409D-14 -0.16902253D-14 -0.24587927D-14 -0.33731593D-14 -0.42642073D-14
 -0.45764902D-14 -0.34923944D-14 -0.27256466D-15  0.35230137D-14  0.37437462D-14
 -0.45885415D-16 -0.17047849D-14 -0.61670110D-15  0.28468352D-17  0.66249527D-16
  0.14353112D-15  0.24436043D-15  0.39996912D-15  0.62824833D-15  0.94855166D-15
  0.13798213D-14  0.18953626D-14  0.23989408D-14  0.25866935D-14  0.19854461D-14
  0.16146622D-15 -0.21079689D-14 -0.23591753D-14  0.74749419D-16  0.13978633D-14
  0.95528557D-15 -0.37698422D-15  0.33750703D-15 -0.36620805D-14  0.51823667D-15
 -0.98973277D+01 -0.14171325D+02 -0.18666584D+02 -0.21372044D+02 -0.19555989D+02
 -0.12447156D+02 -0.42983233D+01 -0.47993200D+00 -0.60761668D-02 -0.11027317D-02
 -0.86566701D-05  0.36259229D+02  0.51917179D+02  0.68385725D+02  0.78297282D+02
  0.71644094D+02  0.45600621D+02  0.15747068D+02  0.17582488D+01  0.22260264D-01
  0.40398987D-02  0.31714034D-04  0.17724478D+02  0.25378501D+02  0.33428766D+02
  0.38273799D+02  0.35021543D+02  0.22290799D+02  0.76975865D+01  0.85947888D+00
  0.10881410D-01  0.19748102D-02  0.15502665D-04  0.52142123D-02  0.75150690D-02
  0.99815344D-02  0.11762624D-01  0.11231109D-01  0.76692774D-02  0.24292146D-02
 -0.11450757D-02 -0.11870676D-02 -0.31231364D-03  0.20723145D-06 -0.19102461D-01
 -0.27531735D-01 -0.36567723D-01 -0.43092811D-01 -0.41145588D-01 -0.28096684D-01
 -0.88995182D-02  0.41950274D-02  0.43488662D-02  0.11441726D-02 -0.75920013D-06
 -0.93377923D-02 -0.13458246D-01 -0.17875278D-01 -0.21064915D-01 -0.20113060D-01
 -0.13734408D-01 -0.43503218D-02  0.20506412D-02  0.21258418D-02  0.55930210D-03
 -0.37111727D-06 -0.32090106D-02 -0.45959003D-02 -0.61465373D-02 -0.72210693D-02
 -0.69774824D-02 -0.47566254D-02 -0.15206413D-02  0.90183614D-03  0.87513087D-03
  0.29573788D-03 -0.11062386D-03  0.11756330D-01  0.16837252D-01  0.22518068D-01
  0.26454656D-01  0.25562267D-01  0.17426074D-01  0.55709263D-02 -0.33039103D-02
 -0.32060746D-02 -0.10834468D-02  0.40527465D-03  0.57468075D-02  0.82304977D-02
  0.11007432D-01  0.12931741D-01  0.12495518D-01  0.85183298D-02  0.27232173D-02
 -0.16150395D-02 -0.15672147D-02 -0.52961767D-03  0.19810905D-03  0.39439302D-03
 -0.14448735D-02 -0.70629271D-03 -0.23473653D-04  0.85996602D-04  0.42037432D-04
 -0.49704458D-06  0.18209413D-05  0.89012468D-06  0.10060070D-14  0.10119373D-14
  0.80866730D-15  0.49522130D-15  0.20776667D-15  0.56644754D-16  0.92673656D-17
 -0.65632518D-15 -0.66019409D-15 -0.52757952D-15 -0.32308542D-15 -0.13554825D-15
 -0.36955386D-16 -0.60460862D-17 -0.34968187D-15 -0.35174318D-15 -0.28108779D-15
 -0.17213588D-15 -0.72218419D-16 -0.19689369D-16 -0.32212794D-17  0.48610857D-03
  0.48897409D-03  0.39075284D-03  0.23929387D-03  0.10039409D-03  0.27371081D-04
  0.44780460D-05  0.99443956D-03  0.10003016D-02  0.79936891D-03  0.48952704D-03
  0.20537768D-03  0.55993429D-04  0.91608055D-05 -0.27144246D-03 -0.27304256D-03
 -0.21819593D-03 -0.13362142D-03 -0.56059941D-04 -0.15283980D-04 -0.25005356D-05
 -0.11697607D-16  0.73969243D-17  0.43006825D-17 -0.69131983D-04 -0.14142433D-03
  0.38603218D-04 -0.25721050D-16  0.12126689D-16  0.13594361D-16  0.55478590D-04
  0.11349338D-03 -0.30979180D-04 -0.15797872D-17  0.39941167D-18  0.11803755D-17
  0.22341217D-05  0.45703760D-05 -0.12475309D-05  0.16814313D-05 -0.61599862D-05
 -0.30111655D-05 -0.25221469D-05  0.92399794D-05  0.45167483D-05 -0.25221469D-05
  0.92399794D-05  0.45167483D-05 -0.12889925D-15  0.84466589D-06 -0.30944650D-05
 -0.15126570D-05 -0.12669988D-05  0.46416974D-05  0.22689855D-05 -0.12669988D-05
  0.46416974D-05  0.22689855D-05 -0.10563271D-15 -0.33690658D-05 -0.60762489D-05
 -0.89594255D-05 -0.12907683D-03 -0.23803609D-03 -0.17872938D-04 -0.13245954D-04
 -0.22440523D-04 -0.18748328D-04  0.15404866D-04  0.17810174D-04  0.16844292D-04
  0.26409916D-04  0.11470989D-04  0.17469905D-04  0.24455119D-04 -0.21443057D-04
 -0.30120619D-05  0.17807351D-03  0.20617820D-03  0.13618989D-03 -0.85783151D-05
  0.75217504D-05  0.10565647D-05  0.16032808D-04  0.50345488D-05  0.32423197D-04
  0.48817665D-05  0.88044670D-05  0.12982181D-04  0.18703195D-03  0.34491359D-03
  0.25897834D-04  0.24021760D-04 -0.29273155D-04 -0.25580959D-04 -0.23584723D-04
  0.24958492D-04  0.23992611D-04 -0.30422904D-04  0.21890671D-04  0.27889586D-04
 -0.11332554D-04  0.14881775D-04 -0.35492202D-05  0.24596072D-03  0.27406541D-03
 -0.23409222D-03  0.39752096D-05 -0.52201976D-05  0.12449880D-05  0.27953799D-04
  0.16955539D-04 -0.32598319D-04 -0.21727696D-05 -0.39186795D-05 -0.57780906D-05
 -0.83243913D-04 -0.15351364D-03 -0.11526571D-04  0.11785646D-04 -0.17037041D-04
  0.62832728D-05 -0.10783266D-04  0.12157036D-04 -0.93438396D-05 -0.11762977D-04
  0.32307430D-05 -0.20702988D-04 -0.41761714D-06 -0.26631946D-04  0.27049563D-04
 -0.70633827D-04  0.15249064D-03 -0.11251744D-03  0.14649086D-06  0.93418981D-05
 -0.94883890D-05 -0.27640185D-04 -0.43929841D-05 -0.11249796D-04  0.66006890D-06
  0.11904615D-05  0.17553347D-05  0.25288792D-04  0.46636138D-04  0.35016740D-05
 -0.10098406D-05 -0.10204410D-04 -0.54935874D-06  0.26034090D-05  0.50087169D-05
 -0.21955210D-05  0.77499883D-05 -0.71889387D-05 -0.10283306D-04 -0.12704947D-04
  0.33193228D-04 -0.20488281D-04 -0.27466144D-05  0.84603426D-04  0.14615113D-04
  0.44566146D-05 -0.11643451D-04  0.71868363D-05 -0.15719194D-04 -0.16313974D-04
  0.11074674D-04
MO    4     MO 0.0        OCC NO =    2.0000000  ORB. ENERGY =  -44.078795
 -0.59887927D-16 -0.11182534D-15 -0.19380537D-15 -0.31741387D-15 -0.49645985D-15
 -0.74330837D-15 -0.10537271D-14 -0.13736007D-14 -0.15416144D-14 -0.13106385D-14
 -0.65388295D-15 -0.12156960D-15 -0.28562266D-17 -0.41406309D-18  0.10973604D-18
 -0.22796271D-19  0.62574688D-20  0.39575175D-21  0.98849207D-16  0.18519070D-15
  0.32045596D-15  0.52476710D-15  0.82455609D-15  0.12430881D-14  0.18035782D-14
  0.24594687D-14  0.30690876D-14  0.32023431D-14  0.23191189D-14  0.16383864D-15
 -0.16796051D-14 -0.11841214D-14 -0.16765709D-15 -0.15187865D-17 -0.76251541D-18
 -0.25922998D-19 -0.19391426D-15 -0.35787975D-15 -0.61868695D-15 -0.10140940D-14
 -0.15941726D-14 -0.24057254D-14 -0.34996400D-14 -0.48010731D-14 -0.60693162D-14
 -0.65137936D-14 -0.49707823D-14 -0.38794576D-15  0.50143632D-14  0.53285355D-14
 -0.65309466D-16 -0.24264483D-14 -0.87776080D-15  0.40519473D-17  0.98108014D-16
  0.21255327D-15  0.36187000D-15  0.59230877D-15  0.93036431D-15  0.14046971D-14
  0.20433584D-14  0.28068164D-14  0.35525585D-14  0.38305989D-14  0.29402198D-14
  0.23911310D-15 -0.31216622D-14 -0.34936703D-14  0.11069539D-15  0.20700765D-14
  0.14146693D-14 -0.55827075D-15  0.12192050D-15 -0.23525684D-14  0.40438446D-15
  0.39529083D+02  0.56599066D+02  0.74552744D+02  0.85358124D+02  0.78104952D+02
  0.49712881D+02  0.17167137D+02  0.19168075D+01  0.24267692D-01  0.44042165D-02
  0.34574002D-04  0.12391837D+02  0.17743048D+02  0.23371285D+02  0.26758626D+02
  0.24484854D+02  0.15584321D+02  0.53816670D+01  0.60089343D+00  0.76075958D-02
  0.13806627D-02  0.10838486D-04 -0.32771723D+01 -0.46923651D+01 -0.61808210D+01
 -0.70766448D+01 -0.64753181D+01 -0.41214636D+01 -0.14232474D+01 -0.15891359D+00
 -0.20119214D-02 -0.36513309D-03 -0.28663696D-05 -0.20825119D-01 -0.30014545D-01
 -0.39865398D-01 -0.46978917D-01 -0.44856093D-01 -0.30630440D-01 -0.97020760D-02
  0.45733346D-02  0.47410466D-02  0.12473540D-02 -0.82766474D-06 -0.65283954D-02
 -0.94091570D-02 -0.12497267D-01 -0.14727260D-01 -0.14061783D-01 -0.96022320D-02