 Molden2AIM, Version 4.0.0 (06/02/2016)           Time: Thu Jun 28 21:34:43 2018
GAUSSIAN              9 MOL ORBITALS    204 PRIMITIVES        4 NUCLEI
  O    1    (CENTRE  1)   0.04607341  1.34783393 -0.15816630  CHARGE =  8.0
  O    2    (CENTRE  2)  -0.04607341 -1.34783393 -0.15816630  CHARGE =  8.0
  H    3    (CENTRE  3)   1.53532500  1.65115387  0.85594956  CHARGE =  1.0
  H    4    (CENTRE  4)  -1.53532500 -1.65115387  0.85594956  CHARGE =  1.0
CENTRE ASSIGNMENTS    1  1  1  1  1  1  1  1  1  1  1  1  1  1  1  1  1  1  1  1
CENTRE ASSIGNMENTS    1  1  1  1  1  1  1  1  1  1  1  1  1  1  1  1  1  1  1  1
CENTRE ASSIGNMENTS    1  1  1  1  1  1  1  1  1  1  1  1  1  1  1  1  1  1  1  1
CENTRE ASSIGNMENTS    1  1  1  1  1  1  1  1  1  1  1  1  1  1  1  2  2  2  2  2
CENTRE ASSIGNMENTS    2  2  2  2  2  2  2  2  2  2  2  2  2  2  2  2  2  2  2  2
CENTRE ASSIGNMENTS    2  2  2  2  2  2  2  2  2  2  2  2  2  2  2  2  2  2  2  2
CENTRE ASSIGNMENTS    2  2  2  2  2  2  2  2  2  2  2  2  2  2  2  2  2  2  2  2
CENTRE ASSIGNMENTS    2  2  2  2  2  2  2  2  2  2  3  3  3  3  3  3  3  3  3  3
CENTRE ASSIGNMENTS    3  3  3  3  3  3  3  3  3  3  3  3  3  3  3  3  3  4  4  4
CENTRE ASSIGNMENTS    4  4  4  4  4  4  4  4  4  4  4  4  4  4  4  4  4  4  4  4
CENTRE ASSIGNMENTS    4  4  4  4
TYPE ASSIGNMENTS      1  1  1  1  1  1  1  1  1  1  1  1  1  1  1  1  1  1  1  2
TYPE ASSIGNMENTS      2  2  3  3  3  4  4  4  2  3  4  2  3  4  2  3  4  5  6  7
TYPE ASSIGNMENTS      8  9 10  5  6  7  8  9 10  5  6  7  8  9 10 11 12 13 17 14
TYPE ASSIGNMENTS     15 18 19 16 20 11 12 13 17 14 15 18 19 16 20  1  1  1  1  1
TYPE ASSIGNMENTS      1  1  1  1  1  1  1  1  1  1  1  1  1  1  2  2  2  3  3  3
TYPE ASSIGNMENTS      4  4  4  2  3  4  2  3  4  2  3  4  5  6  7  8  9 10  5  6
TYPE ASSIGNMENTS      7  8  9 10  5  6  7  8  9 10 11 12 13 17 14 15 18 19 16 20
TYPE ASSIGNMENTS     11 12 13 17 14 15 18 19 16 20  1  1  1  1  1  1  2  3  4  2
TYPE ASSIGNMENTS      3  4  2  3  4  5  6  7  8  9 10  5  6  7  8  9 10  1  1  1
TYPE ASSIGNMENTS      1  1  1  2  3  4  2  3  4  2  3  4  5  6  7  8  9 10  5  6
TYPE ASSIGNMENTS      7  8  9 10
EXPONENTS  0.1533000D+05 0.2299000D+04 0.5224000D+03 0.1473000D+03 0.4755000D+02
EXPONENTS  0.1676000D+02 0.6207000D+01 0.6882000D+00 0.1533000D+05 0.2299000D+04
EXPONENTS  0.5224000D+03 0.1473000D+03 0.4755000D+02 0.1676000D+02 0.6207000D+01
EXPONENTS  0.6882000D+00 0.1752000D+01 0.2384000D+00 0.7376000D-01 0.3446000D+02
EXPONENTS  0.7749000D+01 0.2280000D+01 0.3446000D+02 0.7749000D+01 0.2280000D+01
EXPONENTS  0.3446000D+02 0.7749000D+01 0.2280000D+01 0.7156000D+00 0.7156000D+00
EXPONENTS  0.7156000D+00 0.2140000D+00 0.2140000D+00 0.2140000D+00 0.5974000D-01
EXPONENTS  0.5974000D-01 0.5974000D-01 0.2314000D+01 0.2314000D+01 0.2314000D+01
EXPONENTS  0.2314000D+01 0.2314000D+01 0.2314000D+01 0.6450000D+00 0.6450000D+00
EXPONENTS  0.6450000D+00 0.6450000D+00 0.6450000D+00 0.6450000D+00 0.2140000D+00
EXPONENTS  0.2140000D+00 0.2140000D+00 0.2140000D+00 0.2140000D+00 0.2140000D+00
EXPONENTS  0.1428000D+01 0.1428000D+01 0.1428000D+01 0.1428000D+01 0.1428000D+01
EXPONENTS  0.1428000D+01 0.1428000D+01 0.1428000D+01 0.1428000D+01 0.1428000D+01
EXPONENTS  0.5000000D+00 0.5000000D+00 0.5000000D+00 0.5000000D+00 0.5000000D+00
EXPONENTS  0.5000000D+00 0.5000000D+00 0.5000000D+00 0.5000000D+00 0.5000000D+00
EXPONENTS  0.1533000D+05 0.2299000D+04 0.5224000D+03 0.1473000D+03 0.4755000D+02
EXPONENTS  0.1676000D+02 0.6207000D+01 0.6882000D+00 0.1533000D+05 0.2299000D+04
EXPONENTS  0.5224000D+03 0.1473000D+03 0.4755000D+02 0.1676000D+02 0.6207000D+01
EXPONENTS  0.6882000D+00 0.1752000D+01 0.2384000D+00 0.7376000D-01 0.3446000D+02
EXPONENTS  0.7749000D+01 0.2280000D+01 0.3446000D+02 0.7749000D+01 0.2280000D+01
EXPONENTS  0.3446000D+02 0.7749000D+01 0.2280000D+01 0.7156000D+00 0.7156000D+00
EXPONENTS  0.7156000D+00 0.2140000D+00 0.2140000D+00 0.2140000D+00 0.5974000D-01
EXPONENTS  0.5974000D-01 0.5974000D-01 0.2314000D+01 0.2314000D+01 0.2314000D+01
EXPONENTS  0.2314000D+01 0.2314000D+01 0.2314000D+01 0.6450000D+00 0.6450000D+00
EXPONENTS  0.6450000D+00 0.6450000D+00 0.6450000D+00 0.6450000D+00 0.2140000D+00
EXPONENTS  0.2140000D+00 0.2140000D+00 0.2140000D+00 0.2140000D+00 0.2140000D+00
EXPONENTS  0.1428000D+01 0.1428000D+01 0.1428000D+01 0.1428000D+01 0.1428000D+01
EXPONENTS  0.1428000D+01 0.1428000D+01 0.1428000D+01 0.1428000D+01 0.1428000D+01
EXPONENTS  0.5000000D+00 0.5000000D+00 0.5000000D+00 0.5000000D+00 0.5000000D+00
EXPONENTS  0.5000000D+00 0.5000000D+00 0.5000000D+00 0.5000000D+00 0.5000000D+00
EXPONENTS  0.3387000D+02 0.5095000D+01 0.1159000D+01 0.3258000D+00 0.1027000D+00
EXPONENTS  0.2526000D-01 0.1407000D+01 0.1407000D+01 0.1407000D+01 0.3880000D+00
EXPONENTS  0.3880000D+00 0.3880000D+00 0.1020000D+00 0.1020000D+00 0.1020000D+00
EXPONENTS  0.1057000D+01 0.1057000D+01 0.1057000D+01 0.1057000D+01 0.1057000D+01
EXPONENTS  0.1057000D+01 0.2470000D+00 0.2470000D+00 0.2470000D+00 0.2470000D+00
EXPONENTS  0.2470000D+00 0.2470000D+00 0.3387000D+02 0.5095000D+01 0.1159000D+01
EXPONENTS  0.3258000D+00 0.1027000D+00 0.2526000D-01 0.1407000D+01 0.1407000D+01
EXPONENTS  0.1407000D+01 0.3880000D+00 0.3880000D+00 0.3880000D+00 0.1020000D+00
EXPONENTS  0.1020000D+00 0.1020000D+00 0.1057000D+01 0.1057000D+01 0.1057000D+01
EXPONENTS  0.1057000D+01 0.1057000D+01 0.1057000D+01 0.2470000D+00 0.2470000D+00
EXPONENTS  0.2470000D+00 0.2470000D+00 0.2470000D+00 0.2470000D+00
MO    1     MO 0.0        OCC NO =    2.0000000  ORB. ENERGY =  -19.033749
  0.35265222D+00  0.65729836D+00  0.11145602D+01  0.16869388D+01  0.21048071D+01
  0.18077486D+01  0.69402984D+00 -0.31044381D-02 -0.46636085D-03 -0.87467133D-03
 -0.14911229D-02 -0.23303348D-02 -0.31161017D-02 -0.33272701D-02 -0.20342277D-02
  0.13420599D-02  0.35319445D-01  0.32524797D-03 -0.18916088D-04  0.31091087D-02
  0.30147896D-02  0.20337593D-02 -0.36731901D-02 -0.35617588D-02 -0.24027415D-02
  0.25673627D-02  0.24894782D-02  0.16793873D-02  0.52322229D-03  0.11452042D-03
  0.25636029D-03 -0.56974105D-04 -0.39260188D-04 -0.42089757D-04 -0.94294300D-05
 -0.50451658D-05 -0.95802782D-06  0.38956807D-03 -0.25974367D-03 -0.12982440D-03
  0.48178404D-03  0.13088010D-02  0.47983188D-03  0.89331289D-04 -0.92125982D-04
  0.27946930D-05 -0.11359146D-04  0.23231759D-03  0.22176143D-04 -0.13671678D-04
 -0.71157036D-05  0.20787382D-04 -0.72827889D-04 -0.10125519D-03 -0.62407822D-04
  0.14647703D-03 -0.48130170D-03 -0.16761475D-03 -0.93025438D-03  0.89975979D-03
  0.13071638D-02  0.49082327D-03  0.54414530D-03 -0.80431958D-03  0.11167895D-02
 -0.97593508D-05  0.16778537D-03  0.32139220D-04  0.11368457D-03 -0.28827917D-03
 -0.21065664D-03 -0.84406516D-04 -0.21507693D-03  0.11423898D-03 -0.28260439D-03
  0.35265273D+00  0.65729931D+00  0.11145618D+01  0.16869413D+01  0.21048102D+01
  0.18077512D+01  0.69403084D+00 -0.31044425D-02 -0.46636178D-03 -0.87467308D-03
 -0.14911258D-02 -0.23303394D-02 -0.31161079D-02 -0.33272767D-02 -0.20342317D-02
  0.13420625D-02  0.35319496D-01  0.32524420D-03 -0.18917249D-04 -0.31091134D-02
 -0.30147941D-02 -0.20337623D-02  0.36731980D-02  0.35617665D-02  0.24027466D-02
  0.25673665D-02  0.24894819D-02  0.16793898D-02 -0.52322293D-03 -0.11452299D-03
  0.25636072D-03  0.56973973D-04  0.39257267D-04 -0.42089888D-04  0.94294124D-05
  0.50450300D-05 -0.95802706D-06  0.38956851D-03 -0.25974365D-03 -0.12982486D-03
  0.48178503D-03 -0.13088032D-02 -0.47983221D-03  0.89332256D-04 -0.92127816D-04
  0.27955608D-05 -0.11359216D-04 -0.23231783D-03 -0.22176271D-04 -0.13671506D-04
 -0.71161016D-05  0.20787608D-04 -0.72827951D-04  0.10125529D-03  0.62407749D-04
 -0.14647724D-03  0.48130110D-03 -0.16761511D-03  0.93025574D-03 -0.89975908D-03
  0.13071657D-02 -0.49082400D-03 -0.54414423D-03 -0.80432038D-03  0.11167906D-02
  0.97593974D-05 -0.16778567D-03  0.32139320D-04 -0.11368488D-03  0.28827962D-03
 -0.21065700D-03  0.84406686D-04  0.21507739D-03  0.11423904D-03 -0.28260449D-03
  0.80034154D-04  0.14434489D-03  0.21283646D-03 -0.17436331D-03 -0.53007608D-04
  0.98124172D-06  0.55056586D-03  0.21995135D-03  0.41160825D-03  0.41611749D-03
  0.24757532D-03  0.27926343D-03  0.26213659D-04  0.28159413D-04  0.14487794D-04
 -0.63879945D-03  0.58894200D-03  0.49857453D-04 -0.65578506D-03 -0.17898430D-02
 -0.41759078D-03 -0.20667615D-04  0.15356962D-04  0.53106531D-05 -0.39983237D-04
 -0.66561186D-04 -0.68509361D-05  0.80034287D-04  0.14434513D-03  0.21283681D-03
 -0.17436365D-03 -0.53008035D-04  0.98120401D-06 -0.55056670D-03 -0.21995151D-03
  0.41160880D-03 -0.41611810D-03 -0.24757532D-03  0.27926388D-03 -0.26213768D-04
 -0.28159467D-04  0.14487861D-04 -0.63880050D-03  0.58894304D-03  0.49857450D-04
 -0.65578583D-03  0.17898458D-02  0.41759137D-03 -0.20667631D-04  0.15356963D-04
  0.53106683D-05 -0.39983284D-04  0.66561264D-04  0.68509688D-05
MO    2     MO 0.0        OCC NO =    2.0000000  ORB. ENERGY =  -19.033748
  0.35289801D+00  0.65775648D+00  0.11153370D+01  0.16881146D+01  0.21062741D+01
  0.18090086D+01  0.69451356D+00 -0.31066018D-02 -0.64650194D-03 -0.12125304D-02
 -0.20670985D-02 -0.32304726D-02 -0.43197575D-02 -0.46124939D-02 -0.28199883D-02
  0.18604570D-02  0.35764961D-01 -0.26206970D-02 -0.80705241D-03  0.32228223D-02
  0.31250535D-02  0.21081426D-02 -0.54799353D-02 -0.53136939D-02 -0.35845865D-02
  0.26029187D-02  0.25239556D-02  0.17026455D-02  0.43998782D-03  0.17933845D-02
  0.30201769D-03  0.91516059D-04  0.20313425D-02 -0.90681481D-04  0.12239049D-04
  0.94432289D-04  0.53149217D-06  0.30380883D-03  0.14344769D-04 -0.31815360D-03
  0.68929294D-03  0.14983187D-02  0.23396711D-03  0.67214942D-03 -0.12755848D-02
  0.60343541D-03 -0.49103072D-04  0.16641822D-03  0.89006577D-04  0.11968705D-03
 -0.27675389D-03  0.15706684D-03 -0.43055321D-04 -0.69342286D-04  0.50940955D-04
  0.14562604D-03  0.41347219D-03 -0.24608911D-03 -0.94442417D-03 -0.49189392D-03
  0.12989625D-02  0.50754604D-03 -0.74852264D-03 -0.56069520D-03  0.77662638D-03
 -0.32392729D-04  0.21216364D-03  0.69737529D-04  0.21476299D-03 -0.31781673D-03
 -0.25228264D-03 -0.11758480D-03 -0.31867418D-03  0.43070056D-04 -0.72292660D-04
 -0.35289750D+00 -0.65775553D+00 -0.11153354D+01 -0.16881121D+01 -0.21062711D+01
 -0.18090060D+01 -0.69451256D+00  0.31065973D-02  0.64650127D-03  0.12125292D-02
  0.20670964D-02  0.32304693D-02  0.43197530D-02  0.46124891D-02  0.28199854D-02
 -0.18604551D-02 -0.35764910D-01  0.26206974D-02  0.80705238D-03  0.32228178D-02
  0.31250492D-02  0.21081397D-02 -0.54799301D-02 -0.53136888D-02 -0.35845831D-02
 -0.26029150D-02 -0.25239520D-02 -0.17026431D-02  0.43998707D-03  0.17933843D-02
 -0.30201733D-03  0.91516141D-04  0.20313425D-02  0.90681421D-04  0.12239063D-04
  0.94432296D-04 -0.53149354D-06 -0.30380827D-03 -0.14345143D-04  0.31815341D-03
 -0.68929225D-03  0.14983168D-02  0.23396642D-03 -0.67214929D-03  0.12755847D-02
 -0.60343540D-03  0.49103055D-04  0.16641788D-03  0.89006545D-04 -0.11968707D-03
  0.27675388D-03 -0.15706681D-03  0.43055216D-04 -0.69342141D-04  0.50941045D-04
  0.14562583D-03  0.41347288D-03  0.24608887D-03 -0.94442283D-03 -0.49189521D-03
 -0.12989606D-02  0.50754534D-03 -0.74852342D-03  0.56069404D-03 -0.77662478D-03
 -0.32392715D-04  0.21216340D-03 -0.69737483D-04  0.21476282D-03 -0.31781631D-03
  0.25228234D-03 -0.11758468D-03 -0.31867387D-03 -0.43069892D-04  0.72292254D-04
  0.92509762D-04  0.16684516D-03  0.24601310D-03 -0.23193803D-03 -0.29692711D-03
 -0.26221799D-04  0.58212369D-03  0.11024742D-03  0.38107153D-03  0.42590045D-03
  0.21323245D-06  0.31573091D-03  0.76254218D-04  0.37234216D-04  0.46859843D-04
 -0.72553394D-03  0.72725975D-03 -0.17258085D-05 -0.53594531D-03 -0.19183999D-02
 -0.41270395D-03 -0.11551867D-04  0.95537356D-06  0.10596494D-04 -0.32297947D-04
 -0.54013823D-04 -0.22715174D-04 -0.92509647D-04 -0.16684496D-03 -0.24601279D-03
  0.23193778D-03  0.29692703D-03  0.26221801D-04  0.58212290D-03  0.11024710D-03
 -0.38107094D-03  0.42589985D-03  0.21287630D-06 -0.31573051D-03  0.76254180D-04
  0.37234176D-04 -0.46859822D-04  0.72553302D-03 -0.72725890D-03  0.17258803D-05
  0.53594436D-03 -0.19183973D-02 -0.41270335D-03  0.11551838D-04 -0.95535147D-06
 -0.10596486D-04  0.32297890D-04 -0.54013728D-04 -0.22715164D-04
MO    3     MO 0.0        OCC NO =    2.0000000  ORB. ENERGY =   -1.101390
 -0.30735785D-02 -0.57287549D-02 -0.97140702D-02 -0.14702698D-01 -0.18344674D-01
 -0.15755628D-01 -0.60488921D-02  0.27057065D-04 -0.69942486D-01 -0.13117887D+00
 -0.22363121D+00 -0.34949205D+00 -0.46733746D+00 -0.49900745D+00 -0.30508337D+00
  0.20127548D+00  0.10557523D+00  0.48894209D-01  0.19312941D-02  0.95509909D-01
  0.92612484D-01  0.62475834D-01 -0.24798156D+00 -0.24045870D+00 -0.16221202D+00
  0.90139917D-01  0.87405398D-01  0.58963165D-01  0.24420888D-01 -0.68186534D-01
  0.23444785D-01  0.14751397D-02 -0.15891602D-02  0.18042345D-02  0.12300476D-03
  0.20206847D-03  0.53042084D-04 -0.73206019D-02  0.22891460D-01 -0.15570858D-01
  0.51565071D-02  0.21698477D-01 -0.33525680D-02 -0.36113150D-02  0.98013449D-02
 -0.61900299D-02  0.29414366D-02  0.55281940D-02 -0.86050722D-03  0.10741458D-03
 -0.27418129D-03  0.16676671D-03  0.31970407D-03 -0.61062316D-03  0.20534400D-03
  0.15696091D-02 -0.82087990D-02 -0.60620788D-03 -0.69711855D-02  0.12146320D-01
  0.23147076D-02  0.22623581D-02  0.12480077D-01 -0.49608392D-03  0.17152986D-02
 -0.18808239D-03 -0.72708132D-03 -0.16362936D-03  0.84170122D-03  0.12367629D-02
 -0.11442112D-03 -0.27745404D-03  0.94448107D-03  0.60530922D-03  0.20268326D-02
 -0.30735785D-02 -0.57287549D-02 -0.97140702D-02 -0.14702698D-01 -0.18344674D-01
 -0.15755628D-01 -0.60488921D-02  0.27057065D-04 -0.69942486D-01 -0.13117887D+00
 -0.22363121D+00 -0.34949205D+00 -0.46733746D+00 -0.49900745D+00 -0.30508337D+00
  0.20127548D+00  0.10557523D+00  0.48894209D-01  0.19312941D-02 -0.95509909D-01
 -0.92612484D-01 -0.62475834D-01  0.24798156D+00  0.24045870D+00  0.16221202D+00
  0.90139917D-01  0.87405398D-01  0.58963165D-01 -0.24420888D-01  0.68186534D-01
  0.23444785D-01 -0.14751397D-02  0.15891602D-02  0.18042345D-02 -0.12300476D-03
 -0.20206847D-03  0.53042084D-04 -0.73206019D-02  0.22891460D-01 -0.15570858D-01
  0.51565071D-02 -0.21698477D-01  0.33525680D-02 -0.36113150D-02  0.98013449D-02
 -0.61900299D-02  0.29414366D-02 -0.55281940D-02  0.86050722D-03  0.10741458D-03
 -0.27418129D-03  0.16676671D-03  0.31970407D-03  0.61062316D-03 -0.20534400D-03
 -0.15696091D-02  0.82087990D-02 -0.60620788D-03  0.69711855D-02 -0.12146320D-01
  0.23147076D-02 -0.22623581D-02 -0.12480077D-01 -0.49608392D-03  0.17152986D-02
  0.18808239D-03  0.72708132D-03 -0.16362936D-03 -0.84170122D-03 -0.12367629D-02
 -0.11442112D-03  0.27745404D-03 -0.94448107D-03  0.60530922D-03  0.20268326D-02
  0.14463428D-01  0.26085388D-01  0.38462889D-01  0.13075436D-01 -0.42766842D-02
 -0.60757535D-04 -0.16523576D-01 -0.74152327D-02 -0.10890159D-01 -0.27564367D-03
 -0.30837227D-02  0.88888415D-04  0.90940843D-03  0.46012336D-04  0.70496172D-03
  0.16024533D-02 -0.92358178D-03 -0.67887149D-03  0.50151768D-02  0.48593020D-02
  0.31426959D-02 -0.24869610D-03  0.18923506D-03  0.59461044D-04  0.36442107D-03
 -0.82101981D-03  0.18307660D-03  0.14463428D-01  0.26085388D-01  0.38462889D-01
  0.13075436D-01 -0.42766842D-02 -0.60757535D-04  0.16523576D-01  0.74152327D-02
 -0.10890159D-01  0.27564367D-03  0.30837227D-02  0.88888415D-04 -0.90940843D-03
 -0.46012336D-04  0.70496172D-03  0.16024533D-02 -0.92358178D-03 -0.67887149D-03
  0.50151768D-02 -0.48593020D-02 -0.31426959D-02 -0.24869610D-03  0.18923506D-03
  0.59461044D-04  0.36442107D-03  0.82101981D-03 -0.18307660D-03
MO    4     MO 0.0        OCC NO =    2.0000000  ORB. ENERGY =   -0.872993
 -0.18974384D-02 -0.35365810D-02 -0.59968696D-02 -0.90765414D-02 -0.11324874D-01
 -0.97265561D-02 -0.37342140D-02  0.16703368D-04 -0.72360671D-01 -0.13571423D+00
 -0.23136301D+00 -0.36157536D+00 -0.48349515D+00 -0.51626009D+00 -0.31563130D+00
  0.20823436D+00  0.11494125D+00  0.58949850D-01  0.10496749D-02  0.24974171D+00
  0.24216545D+00  0.16336338D+00  0.18958290D+00  0.18383164D+00  0.12401174D+00
  0.14666825D+00  0.14221887D+00  0.95940007D-01  0.59837390D-01  0.37335869D-01
  0.35951675D-01  0.48598020D-02  0.60531379D-02  0.31196683D-02  0.26569473D-03
  0.44608933D-03  0.18315381D-03  0.19204155D-01 -0.25461016D-01  0.62568611D-02
  0.18835102D-02  0.33721993D-01  0.99533258D-02  0.40124486D-02 -0.42225320D-02
  0.21008334D-03  0.60404191D-03  0.93590431D-02  0.21785784D-02  0.15100359D-03
 -0.61571739D-03  0.46471380D-03 -0.19082136D-03 -0.31165436D-03 -0.76983759D-04
 -0.17944800D-03  0.40472620D-03  0.97749747D-04  0.10515737D-02  0.56078115D-03
  0.24963723D-02 -0.51322970D-03 -0.17749598D-02 -0.27896216D-02  0.60195011D-02
 -0.10720334D-04  0.12079164D-03 -0.99245268D-04 -0.18835860D-03 -0.18259915D-03
  0.51913252D-03  0.22051960D-03 -0.17977575D-03 -0.22139672D-03  0.37379088D-03
  0.18974384D-02  0.35365810D-02  0.59968696D-02  0.90765414D-02  0.11324874D-01
  0.97265561D-02  0.37342140D-02 -0.16703368D-04  0.72360671D-01  0.13571423D+00
  0.23136301D+00  0.36157536D+00  0.48349515D+00  0.51626009D+00  0.31563130D+00
 -0.20823436D+00 -0.11494125D+00 -0.58949850D-01 -0.10496749D-02  0.24974171D+00
  0.24216545D+00  0.16336338D+00  0.18958290D+00  0.18383164D+00  0.12401174D+00
 -0.14666825D+00 -0.14221887D+00 -0.95940007D-01  0.59837390D-01  0.37335869D-01
 -0.35951675D-01  0.48598020D-02  0.60531379D-02 -0.31196683D-02  0.26569473D-03
  0.44608933D-03 -0.18315381D-03 -0.19204155D-01  0.25461016D-01 -0.62568611D-02
 -0.18835102D-02  0.33721993D-01  0.99533258D-02 -0.40124486D-02  0.42225320D-02
 -0.21008334D-03 -0.60404191D-03  0.93590431D-02  0.21785784D-02 -0.15100359D-03
  0.61571739D-03 -0.46471380D-03  0.19082136D-03 -0.31165436D-03 -0.76983759D-04
 -0.17944800D-03  0.40472620D-03 -0.97749747D-04  0.10515737D-02  0.56078115D-03
 -0.24963723D-02 -0.51322970D-03 -0.17749598D-02  0.27896216D-02 -0.60195011D-02
 -0.10720334D-04  0.12079164D-03  0.99245268D-04 -0.18835860D-03 -0.18259915D-03
 -0.51913252D-03  0.22051960D-03 -0.17977575D-03  0.22139672D-03 -0.37379088D-03
  0.22571810D-01  0.40709188D-01  0.60025674D-01  0.25398465D-01 -0.65033571D-02
 -0.37131963D-03 -0.24208776D-01 -0.37667953D-02 -0.16460193D-01 -0.89348951D-03
  0.10427300D-02 -0.11036253D-02  0.14138781D-02  0.43163236D-03  0.88283399D-03
  0.38843349D-02 -0.34378856D-02 -0.44644928D-03  0.25106834D-02  0.11208865D-01
  0.16400516D-02 -0.33921731D-03  0.13631275D-03  0.20290457D-03 -0.52844360D-03
 -0.10477081D-02 -0.25187965D-03 -0.22571810D-01 -0.40709188D-01 -0.60025674D-01
 -0.25398465D-01  0.65033571D-02  0.37131963D-03 -0.24208776D-01 -0.37667953D-02
  0.16460193D-01 -0.89348951D-03  0.10427300D-02  0.11036253D-02  0.14138781D-02
  0.43163236D-03 -0.88283399D-03 -0.38843349D-02  0.34378856D-02  0.44644928D-03
 -0.25106834D-02  0.11208865D-01  0.16400516D-02  0.33921731D-03 -0.13631275D-03
 -0.20290457D-03  0.52844360D-03 -0.10477081D-02 -0.25187965D-03
MO    5     MO 0.0        OCC NO =    2.0000000  ORB. ENERGY =   -0.510915
  0.13482887D-02  0.25130366D-02  0.42612774D-02  0.64496418D-02  0.80472698D-02
  0.69115316D-02  0.26534714D-02 -0.11869140D-04 -0.15846295D-02 -0.29720118D-02
 -0.50666286D-02 -0.79181543D-02 -0.10588081D-01 -0.11305602D-01 -0.69120234D-02
  0.45601332D-02  0.50094570D-03 -0.64584869D-02 -0.50124430D-02 -0.47420920D+00
 -0.45982341D+00 -0.31019416D+00 -0.87633470D+00 -0.84974988D+00 -0.57323625D+00
 -0.55717001D+00 -0.54026749D+00 -0.36446126D+00 -0.10749141D+00 -0.20619652D+00
 -0.12926053D+00 -0.13558174D-01 -0.21908989D-01 -0.16286943D-01 -0.63365158D-03
 -0.71379906D-04 -0.39343620D-03 -0.27231384D-01  0.46254351D-01 -0.19022968D-01
 -0.29441960D-01 -0.42852494D-01  0.30055872D-02 -0.91740138D-02  0.15891216D-01
 -0.67172024D-02 -0.45078787D-02 -0.11740293D-01  0.64779854D-02 -0.69115536D-03
  0.17368895D-02 -0.10457342D-02  0.15908202D-02 -0.43858268D-03  0.46737715D-03
  0.15772142D-02 -0.46665231D-02  0.46231497D-02 -0.77310551D-03  0.51147626D-02
 -0.12102462D-02 -0.39585371D-02  0.88848067D-02 -0.12659203D-01 -0.14373572D-01
 -0.35033871D-03 -0.23199886D-02  0.89855450D-04  0.14667401D-02  0.34869269D-02
 -0.10879146D-02 -0.41572398D-03  0.34730390D-02  0.81834827D-03  0.40901210D-02
  0.13482887D-02  0.25130366D-02  0.42612774D-02  0.64496418D-02  0.80472698D-02
  0.69115316D-02  0.26534714D-02 -0.11869140D-04 -0.15846295D-02 -0.29720118D-02
 -0.50666286D-02 -0.79181543D-02 -0.10588081D-01 -0.11305602D-01 -0.69120234D-02
  0.45601332D-02  0.50094570D-03 -0.64584869D-02 -0.50124430D-02  0.47420920D+00
  0.45982341D+00  0.31019416D+00  0.87633470D+00  0.84974988D+00  0.57323625D+00
 -0.55717001D+00 -0.54026749D+00 -0.36446126D+00  0.10749141D+00  0.20619652D+00
 -0.12926053D+00  0.13558174D-01  0.21908989D-01 -0.16286943D-01  0.63365158D-03
  0.71379906D-04 -0.39343620D-03 -0.27231384D-01  0.46254351D-01 -0.19022968D-01
 -0.29441960D-01  0.42852494D-01 -0.30055872D-02 -0.91740138D-02  0.15891216D-01
 -0.67172024D-02 -0.45078787D-02  0.11740293D-01 -0.64779854D-02 -0.69115536D-03
  0.17368895D-02 -0.10457342D-02  0.15908202D-02  0.43858268D-03 -0.46737715D-03
 -0.15772142D-02  0.46665231D-02  0.46231497D-02  0.77310551D-03 -0.51147626D-02
 -0.12102462D-02  0.39585371D-02 -0.88848067D-02 -0.12659203D-01 -0.14373572D-01
  0.35033871D-03  0.23199886D-02  0.89855450D-04 -0.14667401D-02 -0.34869269D-02
 -0.10879146D-02  0.41572398D-03 -0.34730390D-02  0.81834827D-03  0.40901210D-02
 -0.27326298D-01 -0.49284104D-01 -0.72669383D-01 -0.44840134D-01  0.55093405D-02
  0.16120912D-03  0.22015961D-01 -0.70357032D-02  0.11778984D-01  0.23127330D-02
 -0.87519671D-02 -0.19349520D-03 -0.15038805D-02 -0.89139359D-03 -0.90701970D-03
 -0.63105838D-02  0.51328792D-02  0.11777046D-02  0.51135390D-02 -0.13855263D-01
  0.39282841D-02  0.35655130D-03 -0.23438084D-03 -0.12217046D-03  0.18248087D-02
  0.13152928D-02  0.12430350D-02 -0.27326298D-01 -0.49284104D-01 -0.72669383D-01
 -0.44840134D-01  0.55093405D-02  0.16120912D-03 -0.22015961D-01  0.70357032D-02
  0.11778984D-01 -0.23127330D-02  0.87519671D-02 -0.19349520D-03  0.15038805D-02
  0.89139359D-03 -0.90701970D-03 -0.63105838D-02  0.51328792D-02  0.11777046D-02
  0.51135390D-02  0.13855263D-01 -0.39282841D-02  0.35655130D-03 -0.23438084D-03
 -0.12217046D-03  0.18248087D-02 -0.13152928D-02 -0.12430350D-02
MO    6     MO 0.0        OCC NO =    2.0000000  ORB. ENERGY =   -0.459123
 -0.70894358D-03 -0.13213796D-02 -0.22406220D-02 -0.33912858D-02 -0.42313345D-02
 -0.36341520D-02 -0.13952216D-02  0.62409120D-05  0.30025877D-01  0.56314276D-01
  0.96003495D-01  0.15003478D+00  0.20062508D+00  0.21422081D+00  0.13097040D+00
 -0.86406318D-01 -0.48504000D-01 -0.52612314D-01  0.69646425D-02  0.10134335D+01
  0.98268957D+00  0.66291658D+00 -0.13701229D+00 -0.13285584D+00 -0.89623763D-01
  0.24596622D+00  0.23850449D+00  0.16089372D+00  0.22972445D+00 -0.29402952D-01
  0.51179812D-01  0.30667401D-01  0.17657445D-02  0.36426370D-02  0.80176264D-03
 -0.31847539D-03  0.43454868D-03  0.16347130D-01 -0.62928806D-02 -0.10054250D-01
 -0.46614826D-01  0.40226185D-01  0.49696166D-02  0.35098012D-02 -0.36241654D-02
  0.11436414D-03 -0.22455129D-01  0.59030302D-02 -0.29681893D-03  0.25747551D-03
 -0.56807476D-03  0.31059925D-03 -0.45653017D-03  0.62632924D-03  0.11215047D-02
 -0.44595702D-02 -0.18747403D-02 -0.19748834D-02  0.23182304D-01  0.48149146D-02
  0.83687470D-02 -0.98035930D-02  0.80930638D-03 -0.24440969D-02 -0.93294127D-02
 -0.20304057D-03  0.54887292D-03  0.42875341D-04  0.86396643D-03 -0.10384049D-02
  0.30288412D-03 -0.25484471D-03 -0.60821389D-03 -0.43151014D-03 -0.98957286D-03
  0.70894358D-03  0.13213796D-02  0.22406220D-02  0.33912858D-02  0.42313345D-02
  0.36341520D-02  0.13952216D-02 -0.62409120D-05 -0.30025877D-01 -0.56314276D-01
 -0.96003495D-01 -0.15003478D+00 -0.20062508D+00 -0.21422081D+00 -0.13097040D+00
  0.86406318D-01  0.48504000D-01  0.52612314D-01 -0.69646425D-02  0.10134335D+01
  0.98268957D+00  0.66291658D+00 -0.13701229D+00 -0.13285584D+00 -0.89623763D-01
 -0.24596622D+00 -0.23850449D+00 -0.16089372D+00  0.22972445D+00 -0.29402952D-01
 -0.51179812D-01  0.30667401D-01  0.17657445D-02 -0.36426370D-02  0.80176264D-03
 -0.31847539D-03 -0.43454868D-03 -0.16347130D-01  0.62928806D-02  0.10054250D-01
  0.46614826D-01  0.40226185D-01  0.49696166D-02 -0.35098012D-02  0.36241654D-02
 -0.11436414D-03  0.22455129D-01  0.59030302D-02 -0.29681893D-03 -0.25747551D-03
  0.56807476D-03 -0.31059925D-03  0.45653017D-03  0.62632924D-03  0.11215047D-02
 -0.44595702D-02 -0.18747403D-02  0.19748834D-02  0.23182304D-01  0.48149146D-02
 -0.83687470D-02 -0.98035930D-02  0.80930638D-03  0.24440969D-02  0.93294127D-02
 -0.20304057D-03  0.54887292D-03 -0.42875341D-04  0.86396643D-03 -0.10384049D-02
 -0.30288412D-03 -0.25484471D-03 -0.60821389D-03  0.43151014D-03  0.98957286D-03
  0.22923664D-01  0.41343773D-01  0.60961369D-01  0.49387104D-01 -0.78893180D-02
 -0.40419517D-03 -0.12189068D-01 -0.83273815D-02 -0.13734268D-01 -0.23704524D-02
 -0.37501207D-02 -0.49444244D-02  0.21603819D-02  0.49707507D-03  0.14340755D-02
  0.26258986D-02 -0.25347723D-02 -0.91126303D-04  0.35226506D-02  0.14548787D-01
  0.32857937D-02 -0.24382234D-03 -0.17103057D-03  0.41485291D-03 -0.40097574D-03
 -0.73003083D-03 -0.30022433D-04 -0.22923664D-01 -0.41343773D-01 -0.60961369D-01
 -0.49387104D-01  0.78893180D-02  0.40419517D-03 -0.12189068D-01 -0.83273815D-02
  0.13734268D-01 -0.23704524D-02 -0.37501207D-02  0.49444244D-02  0.21603819D-02
  0.49707507D-03 -0.14340755D-02 -0.26258986D-02  0.25347723D-02  0.91126303D-04
 -0.35226506D-02  0.14548787D-01  0.32857937D-02  0.24382234D-03  0.17103057D-03
 -0.41485291D-03  0.40097574D-03 -0.73003083D-03 -0.30022433D-04
MO    7     MO 0.0        OCC NO =    2.0000000  ORB. ENERGY =   -0.392828
 -0.14246846D-03 -0.26554289D-03 -0.45027275D-03 -0.68150878D-03 -0.85032398D-03
 -0.73031489D-03 -0.28038209D-03  0.12541663D-05  0.21304086D-01  0.39956342D-01
  0.68116803D-01  0.10645330D+00  0.14234835D+00  0.15199485D+00  0.92926672D-01
 -0.61307374D-01 -0.35693124D-01 -0.46979717D-01  0.16550157D-03  0.11576647D+00
  0.11225454D+00  0.75726248D-01 -0.78715909D+00 -0.76327953D+00 -0.51490386D+00
  0.88971050D+00  0.86271991D+00  0.58198575D+00  0.19260039D-01 -0.18675826D+00
  0.20406045D+00 -0.38952041D-02 -0.26871889D-01  0.27338448D-01  0.26699622D-03
 -0.63065085D-03  0.62637063D-03 -0.13210146D-01  0.78647985D-02  0.53453475D-02
 -0.10880446D-01  0.27794295D-01 -0.59723445D-01 -0.59934132D-02  0.58745500D-02
  0.11886321D-03 -0.52763858D-02 -0.71125673D-03 -0.21983576D-01 -0.14615357D-02
  0.19833044D-02 -0.52176872D-03  0.15655412D-02 -0.87739944D-03 -0.66132800D-03
 -0.22808122D-02 -0.24893985D-02 -0.64590906D-02 -0.57052224D-02 -0.75698272D-03
 -0.33457789D-02  0.12547659D-01  0.82251781D-02  0.22723051D-01 -0.63448969D-02
 -0.84753343D-04 -0.97283438D-03 -0.21703408D-03  0.91456193D-03  0.18363681D-02
 -0.10747145D-02 -0.66030190D-03  0.10821350D-02  0.17258168D-02 -0.97021239D-05
 -0.14246846D-03 -0.26554289D-03 -0.45027275D-03 -0.68150878D-03 -0.85032398D-03
 -0.73031489D-03 -0.28038209D-03  0.12541663D-05  0.21304086D-01  0.39956342D-01
  0.68116803D-01  0.10645330D+00  0.14234835D+00  0.15199485D+00  0.92926672D-01
 -0.61307374D-01 -0.35693124D-01 -0.46979717D-01  0.16550157D-03 -0.11576647D+00
 -0.11225454D+00 -0.75726248D-01  0.78715909D+00  0.76327953D+00  0.51490386D+00
  0.88971050D+00  0.86271991D+00  0.58198575D+00 -0.19260039D-01  0.18675826D+00
  0.20406045D+00  0.38952041D-02  0.26871889D-01  0.27338448D-01 -0.26699622D-03
  0.63065085D-03  0.62637063D-03 -0.13210146D-01  0.78647985D-02  0.53453475D-02
 -0.10880446D-01 -0.27794295D-01  0.59723445D-01 -0.59934132D-02  0.58745500D-02
  0.11886321D-03 -0.52763858D-02  0.71125673D-03  0.21983576D-01 -0.14615357D-02
  0.19833044D-02 -0.52176872D-03  0.15655412D-02  0.87739944D-03  0.66132800D-03
  0.22808122D-02  0.24893985D-02 -0.64590906D-02  0.57052224D-02  0.75698272D-03
 -0.33457789D-02 -0.12547659D-01 -0.82251781D-02  0.22723051D-01 -0.63448969D-02
  0.84753343D-04  0.97283438D-03 -0.21703408D-03 -0.91456193D-03 -0.18363681D-02
 -0.10747145D-02  0.66030190D-03 -0.10821350D-02  0.17258168D-02 -0.97021239D-05
  0.86704798D-02  0.15637567D-01  0.23057584D-01  0.31697255D-01 -0.64276249D-03
 -0.14715419D-03 -0.10561740D-01 -0.14425720D-01  0.42036402D-02 -0.79228422D-02
 -0.85041876D-02  0.64317273D-03  0.54761611D-04 -0.51705899D-04  0.15280824D-03
  0.42526879D-02 -0.78994638D-03 -0.34627415D-02  0.90188029D-02  0.46901337D-02
  0.45082335D-02  0.39352118D-03 -0.39391719D-03  0.39601377D-06  0.11412051D-02
 -0.33868015D-03  0.65329225D-03  0.86704798D-02  0.15637567D-01  0.23057584D-01
  0.31697255D-01 -0.64276249D-03 -0.14715419D-03  0.10561740D-01  0.14425720D-01
  0.42036402D-02  0.79228422D-02  0.85041876D-02  0.64317273D-03 -0.54761611D-04
  0.51705899D-04  0.15280824D-03  0.42526879D-02 -0.78994638D-03 -0.34627415D-02
  0.90188029D-02 -0.46901337D-02 -0.45082335D-02  0.39352118D-03 -0.39391719D-03
  0.39601376D-06  0.11412051D-02  0.33868015D-03 -0.65329225D-03
MO    8     MO 0.0        OCC NO =    2.0000000  ORB. ENERGY =   -0.282976
  0.31473334D-03  0.58662245D-03  0.99471730D-03  0.15055510D-02  0.18784880D-02
  0.16133707D-02  0.61940438D-03 -0.27706338D-05 -0.13792422D-01 -0.25868029D-01
 -0.44099319D-01 -0.68918652D-01 -0.92157370D-01 -0.98402585D-01 -0.60161411D-01
  0.39690845D-01  0.23301181D-01  0.22772614D-01  0.11636353D-02 -0.11013779D+01
 -0.10679660D+01 -0.72044358D+00  0.38241172D+00  0.37081074D+00  0.25014673D+00
  0.52515499D+00  0.50922369D+00  0.34351929D+00 -0.25330047D+00  0.90805856D-01
  0.12610785D+00 -0.47480803D-01  0.14813250D-01  0.21180208D-01 -0.14169990D-02
  0.45371044D-03  0.41540605D-03 -0.29989924D-01  0.56969577D-02  0.24292966D-01
 -0.92757843D-02 -0.16609529D-01 -0.25173696D-01 -0.65863838D-02  0.13209384D-02
  0.52654454D-02 -0.20606425D-02 -0.53288259D-02 -0.99858940D-02 -0.38591663D-03