 Molden2AIM, Version 4.0.0 (06/02/2016)           Time: Thu Jun 28 18:30:55 2018
GAUSSIAN             17 MOL ORBITALS    316 PRIMITIVES        4 NUCLEI
  S    1    (CENTRE  1)   0.14114931  1.96162831 -0.54347956  CHARGE = 16.0
  S    2    (CENTRE  2)  -0.14114931 -1.96162831 -0.54347956  CHARGE = 16.0
  H    3    (CENTRE  3)   1.97476947  2.18870158  1.24126283  CHARGE =  1.0
  H    4    (CENTRE  4)  -1.97476947 -2.18870158  1.24126283  CHARGE =  1.0
CENTRE ASSIGNMENTS    1  1  1  1  1  1  1  1  1  1  1  1  1  1  1  1  1  1  1  1
CENTRE ASSIGNMENTS    1  1  1  1  1  1  1  1  1  1  1  1  1  1  1  1  1  1  1  1
CENTRE ASSIGNMENTS    1  1  1  1  1  1  1  1  1  1  1  1  1  1  1  1  1  1  1  1
CENTRE ASSIGNMENTS    1  1  1  1  1  1  1  1  1  1  1  1  1  1  1  1  1  1  1  1
CENTRE ASSIGNMENTS    1  1  1  1  1  1  1  1  1  1  1  1  1  1  1  1  1  1  1  1
CENTRE ASSIGNMENTS    1  1  1  1  1  1  1  1  1  1  1  1  1  1  1  1  1  1  1  1
CENTRE ASSIGNMENTS    1  1  1  1  1  1  1  1  1  1  1  2  2  2  2  2  2  2  2  2
CENTRE ASSIGNMENTS    2  2  2  2  2  2  2  2  2  2  2  2  2  2  2  2  2  2  2  2
CENTRE ASSIGNMENTS    2  2  2  2  2  2  2  2  2  2  2  2  2  2  2  2  2  2  2  2
CENTRE ASSIGNMENTS    2  2  2  2  2  2  2  2  2  2  2  2  2  2  2  2  2  2  2  2
CENTRE ASSIGNMENTS    2  2  2  2  2  2  2  2  2  2  2  2  2  2  2  2  2  2  2  2
CENTRE ASSIGNMENTS    2  2  2  2  2  2  2  2  2  2  2  2  2  2  2  2  2  2  2  2
CENTRE ASSIGNMENTS    2  2  2  2  2  2  2  2  2  2  2  2  2  2  2  2  2  2  2  2
CENTRE ASSIGNMENTS    2  2  3  3  3  3  3  3  3  3  3  3  3  3  3  3  3  3  3  3
CENTRE ASSIGNMENTS    3  3  3  3  3  3  3  3  3  4  4  4  4  4  4  4  4  4  4  4
CENTRE ASSIGNMENTS    4  4  4  4  4  4  4  4  4  4  4  4  4  4  4  4
TYPE ASSIGNMENTS      1  1  1  1  1  1  1  1  1  1  1  1  1  1  1  1  1  1  1  1
TYPE ASSIGNMENTS      1  1  1  1  1  1  1  1  1  1  1  1  1  1  1  1  1  1  1  1
TYPE ASSIGNMENTS      1  1  2  2  2  2  2  2  2  3  3  3  3  3  3  3  4  4  4  4
TYPE ASSIGNMENTS      4  4  4  2  2  2  2  2  2  2  3  3  3  3  3  3  3  4  4  4
TYPE ASSIGNMENTS      4  4  4  4  2  3  4  2  3  4  2  3  4  5  6  7  8  9 10  5
TYPE ASSIGNMENTS      6  7  8  9 10  5  6  7  8  9 10 11 12 13 17 14 15 18 19 16
TYPE ASSIGNMENTS     20 11 12 13 17 14 15 18 19 16 20  1  1  1  1  1  1  1  1  1
TYPE ASSIGNMENTS      1  1  1  1  1  1  1  1  1  1  1  1  1  1  1  1  1  1  1  1
TYPE ASSIGNMENTS      1  1  1  1  1  1  1  1  1  1  1  1  1  2  2  2  2  2  2  2
TYPE ASSIGNMENTS      3  3  3  3  3  3  3  4  4  4  4  4  4  4  2  2  2  2  2  2
TYPE ASSIGNMENTS      2  3  3  3  3  3  3  3  4  4  4  4  4  4  4  2  3  4  2  3
TYPE ASSIGNMENTS      4  2  3  4  5  6  7  8  9 10  5  6  7  8  9 10  5  6  7  8
TYPE ASSIGNMENTS      9 10 11 12 13 17 14 15 18 19 16 20 11 12 13 17 14 15 18 19
TYPE ASSIGNMENTS     16 20  1  1  1  1  1  1  2  3  4  2  3  4  2  3  4  5  6  7
TYPE ASSIGNMENTS      8  9 10  5  6  7  8  9 10  1  1  1  1  1  1  2  3  4  2  3
TYPE ASSIGNMENTS      4  2  3  4  5  6  7  8  9 10  5  6  7  8  9 10
EXPONENTS  0.3741000D+06 0.5605000D+05 0.1276000D+05 0.3615000D+04 0.1183000D+04
EXPONENTS  0.4288000D+03 0.1678000D+03 0.6947000D+02 0.2984000D+02 0.1272000D+02
EXPONENTS  0.5244000D+01 0.2219000D+01 0.3490000D+00 0.3741000D+06 0.5605000D+05
EXPONENTS  0.1276000D+05 0.3615000D+04 0.1183000D+04 0.4288000D+03 0.1678000D+03
EXPONENTS  0.6947000D+02 0.2984000D+02 0.1272000D+02 0.5244000D+01 0.2219000D+01
EXPONENTS  0.3490000D+00 0.3741000D+06 0.5605000D+05 0.1276000D+05 0.3615000D+04
EXPONENTS  0.1183000D+04 0.4288000D+03 0.1678000D+03 0.6947000D+02 0.2984000D+02
EXPONENTS  0.1272000D+02 0.5244000D+01 0.2219000D+01 0.3490000D+00 0.7767000D+00
EXPONENTS  0.1322000D+00 0.4970000D-01 0.5744000D+03 0.1358000D+03 0.4319000D+02
EXPONENTS  0.1587000D+02 0.6208000D+01 0.2483000D+01 0.3229000D+00 0.5744000D+03
EXPONENTS  0.1358000D+03 0.4319000D+02 0.1587000D+02 0.6208000D+01 0.2483000D+01
EXPONENTS  0.3229000D+00 0.5744000D+03 0.1358000D+03 0.4319000D+02 0.1587000D+02
EXPONENTS  0.6208000D+01 0.2483000D+01 0.3229000D+00 0.5744000D+03 0.1358000D+03
EXPONENTS  0.4319000D+02 0.1587000D+02 0.6208000D+01 0.2483000D+01 0.3229000D+00
EXPONENTS  0.5744000D+03 0.1358000D+03 0.4319000D+02 0.1587000D+02 0.6208000D+01
EXPONENTS  0.2483000D+01 0.3229000D+00 0.5744000D+03 0.1358000D+03 0.4319000D+02
EXPONENTS  0.1587000D+02 0.6208000D+01 0.2483000D+01 0.3229000D+00 0.8688000D+00
EXPONENTS  0.8688000D+00 0.8688000D+00 0.1098000D+00 0.1098000D+00 0.1098000D+00
EXPONENTS  0.3510000D-01 0.3510000D-01 0.3510000D-01 0.2690000D+00 0.2690000D+00
EXPONENTS  0.2690000D+00 0.2690000D+00 0.2690000D+00 0.2690000D+00 0.8190000D+00
EXPONENTS  0.8190000D+00 0.8190000D+00 0.8190000D+00 0.8190000D+00 0.8190000D+00
EXPONENTS  0.1010000D+00 0.1010000D+00 0.1010000D+00 0.1010000D+00 0.1010000D+00
EXPONENTS  0.1010000D+00 0.5570000D+00 0.5570000D+00 0.5570000D+00 0.5570000D+00
EXPONENTS  0.5570000D+00 0.5570000D+00 0.5570000D+00 0.5570000D+00 0.5570000D+00
EXPONENTS  0.5570000D+00 0.2180000D+00 0.2180000D+00 0.2180000D+00 0.2180000D+00
EXPONENTS  0.2180000D+00 0.2180000D+00 0.2180000D+00 0.2180000D+00 0.2180000D+00
EXPONENTS  0.2180000D+00 0.3741000D+06 0.5605000D+05 0.1276000D+05 0.3615000D+04
EXPONENTS  0.1183000D+04 0.4288000D+03 0.1678000D+03 0.6947000D+02 0.2984000D+02
EXPONENTS  0.1272000D+02 0.5244000D+01 0.2219000D+01 0.3490000D+00 0.3741000D+06
EXPONENTS  0.5605000D+05 0.1276000D+05 0.3615000D+04 0.1183000D+04 0.4288000D+03
EXPONENTS  0.1678000D+03 0.6947000D+02 0.2984000D+02 0.1272000D+02 0.5244000D+01
EXPONENTS  0.2219000D+01 0.3490000D+00 0.3741000D+06 0.5605000D+05 0.1276000D+05
EXPONENTS  0.3615000D+04 0.1183000D+04 0.4288000D+03 0.1678000D+03 0.6947000D+02
EXPONENTS  0.2984000D+02 0.1272000D+02 0.5244000D+01 0.2219000D+01 0.3490000D+00
EXPONENTS  0.7767000D+00 0.1322000D+00 0.4970000D-01 0.5744000D+03 0.1358000D+03
EXPONENTS  0.4319000D+02 0.1587000D+02 0.6208000D+01 0.2483000D+01 0.3229000D+00
EXPONENTS  0.5744000D+03 0.1358000D+03 0.4319000D+02 0.1587000D+02 0.6208000D+01
EXPONENTS  0.2483000D+01 0.3229000D+00 0.5744000D+03 0.1358000D+03 0.4319000D+02
EXPONENTS  0.1587000D+02 0.6208000D+01 0.2483000D+01 0.3229000D+00 0.5744000D+03
EXPONENTS  0.1358000D+03 0.4319000D+02 0.1587000D+02 0.6208000D+01 0.2483000D+01
EXPONENTS  0.3229000D+00 0.5744000D+03 0.1358000D+03 0.4319000D+02 0.1587000D+02
EXPONENTS  0.6208000D+01 0.2483000D+01 0.3229000D+00 0.5744000D+03 0.1358000D+03
EXPONENTS  0.4319000D+02 0.1587000D+02 0.6208000D+01 0.2483000D+01 0.3229000D+00
EXPONENTS  0.8688000D+00 0.8688000D+00 0.8688000D+00 0.1098000D+00 0.1098000D+00
EXPONENTS  0.1098000D+00 0.3510000D-01 0.3510000D-01 0.3510000D-01 0.2690000D+00
EXPONENTS  0.2690000D+00 0.2690000D+00 0.2690000D+00 0.2690000D+00 0.2690000D+00
EXPONENTS  0.8190000D+00 0.8190000D+00 0.8190000D+00 0.8190000D+00 0.8190000D+00
EXPONENTS  0.8190000D+00 0.1010000D+00 0.1010000D+00 0.1010000D+00 0.1010000D+00
EXPONENTS  0.1010000D+00 0.1010000D+00 0.5570000D+00 0.5570000D+00 0.5570000D+00
EXPONENTS  0.5570000D+00 0.5570000D+00 0.5570000D+00 0.5570000D+00 0.5570000D+00
EXPONENTS  0.5570000D+00 0.5570000D+00 0.2180000D+00 0.2180000D+00 0.2180000D+00
EXPONENTS  0.2180000D+00 0.2180000D+00 0.2180000D+00 0.2180000D+00 0.2180000D+00
EXPONENTS  0.2180000D+00 0.2180000D+00 0.3387000D+02 0.5095000D+01 0.1159000D+01
EXPONENTS  0.3258000D+00 0.1027000D+00 0.2526000D-01 0.1407000D+01 0.1407000D+01
EXPONENTS  0.1407000D+01 0.3880000D+00 0.3880000D+00 0.3880000D+00 0.1020000D+00
EXPONENTS  0.1020000D+00 0.1020000D+00 0.1057000D+01 0.1057000D+01 0.1057000D+01
EXPONENTS  0.1057000D+01 0.1057000D+01 0.1057000D+01 0.2470000D+00 0.2470000D+00
EXPONENTS  0.2470000D+00 0.2470000D+00 0.2470000D+00 0.2470000D+00 0.3387000D+02
EXPONENTS  0.5095000D+01 0.1159000D+01 0.3258000D+00 0.1027000D+00 0.2526000D-01
EXPONENTS  0.1407000D+01 0.1407000D+01 0.1407000D+01 0.3880000D+00 0.3880000D+00
EXPONENTS  0.3880000D+00 0.1020000D+00 0.1020000D+00 0.1020000D+00 0.1057000D+01
EXPONENTS  0.1057000D+01 0.1057000D+01 0.1057000D+01 0.1057000D+01 0.1057000D+01
EXPONENTS  0.2470000D+00 0.2470000D+00 0.2470000D+00 0.2470000D+00 0.2470000D+00
EXPONENTS  0.2470000D+00
MO    1     MO 0.0        OCC NO =    2.0000000  ORB. ENERGY =  -88.575450
 -0.41383030D+00 -0.77363170D+00 -0.13370771D+01 -0.21626622D+01 -0.32687373D+01
 -0.45015877D+01 -0.52613123D+01 -0.45461708D+01 -0.21203502D+01 -0.28789775D+00
 -0.77091926D-03 -0.15122249D-02 -0.69039383D-04  0.97311578D-03  0.18173352D-02
  0.31524491D-02  0.51115871D-02  0.78698703D-02  0.11208463D-01  0.14412629D-01
  0.15128971D-01  0.10697255D-01 -0.23689518D-03 -0.76861158D-02 -0.42321839D-02
  0.17897834D-04 -0.41769789D-03 -0.77948605D-03 -0.13538740D-02 -0.21929754D-02
 -0.33875053D-02 -0.48293978D-02 -0.62814689D-02 -0.66943527D-02 -0.49650622D-02
  0.15454395D-03  0.44980877D-02  0.44065734D-02 -0.20581311D-02  0.21644377D-02
  0.12336235D-02  0.39825842D-03 -0.56576242D-02 -0.74224949D-02 -0.81413456D-02
 -0.66988282D-02 -0.35317547D-02 -0.91879564D-03  0.10167411D-05 -0.13073940D-02
 -0.17152298D-02 -0.18813456D-02 -0.15480010D-02 -0.81613673D-03 -0.21232020D-03
  0.23495395D-06 -0.57267438D-02 -0.75131760D-02 -0.82408089D-02 -0.67806681D-02
 -0.35749023D-02 -0.93002062D-03  0.10291626D-05  0.49230126D-02  0.64639455D-02
  0.72723746D-02  0.61275254D-02  0.34276518D-02  0.85313556D-03 -0.39128907D-03
  0.14726013D-02  0.19335345D-02  0.21753567D-02  0.18329025D-02  0.10252999D-02
  0.25519507D-03 -0.11704476D-03  0.49588690D-02  0.65110252D-02  0.73253423D-02
  0.61721548D-02  0.34526168D-02  0.85934930D-03 -0.39413900D-03  0.19710519D-03
  0.73674922D-04  0.19673801D-03  0.27833136D-04 -0.52628336D-03  0.84407022D-04
 -0.24482954D-06 -0.19388849D-04  0.12698120D-05 -0.83458795D-04  0.17178652D-03
 -0.88327729D-04  0.39851589D-04 -0.11089310D-03 -0.32548692D-05  0.32048806D-05
 -0.20719265D-04  0.17514384D-04 -0.11016172D-03 -0.33614826D-03 -0.33467337D-04
 -0.17573351D-04  0.39456804D-04 -0.21883454D-04  0.10976033D-04  0.24608376D-04
 -0.77808051D-05  0.13702675D-04  0.20765927D-04  0.22598522D-04  0.11510725D-03
 -0.28096151D-04 -0.14813692D-03 -0.15621528D-03 -0.34201630D-04  0.80341352D-04
 -0.33258735D-04  0.12129028D-05 -0.18405898D-04 -0.34457222D-05 -0.18270686D-04
  0.25523988D-04  0.12765414D-04  0.14631978D-04  0.29693706D-04 -0.24282474D-05
  0.31783466D-05  0.41383064D+00  0.77363234D+00  0.13370782D+01  0.21626640D+01
  0.32687401D+01  0.45015914D+01  0.52613167D+01  0.45461746D+01  0.21203520D+01
  0.28789800D+00  0.77091990D-03  0.15122262D-02  0.69039441D-04 -0.97311655D-03
 -0.18173366D-02 -0.31524515D-02 -0.51115911D-02 -0.78698765D-02 -0.11208472D-01
 -0.14412640D-01 -0.15128983D-01 -0.10697263D-01  0.23689537D-03  0.76861218D-02
  0.42321872D-02 -0.17897848D-04  0.41769821D-03  0.77948665D-03  0.13538750D-02
  0.21929771D-02  0.33875079D-02  0.48294014D-02  0.62814737D-02  0.66943578D-02
  0.49650659D-02 -0.15454407D-03 -0.44980911D-02 -0.44065768D-02  0.20581327D-02
 -0.21644396D-02 -0.12336237D-02 -0.39825849D-03 -0.56576301D-02 -0.74225025D-02
 -0.81413540D-02 -0.66988351D-02 -0.35317583D-02 -0.91879659D-03  0.10167421D-05
 -0.13073917D-02 -0.17152267D-02 -0.18813423D-02 -0.15479983D-02 -0.81613530D-03
 -0.21231983D-03  0.23495354D-06  0.57267502D-02  0.75131844D-02  0.82408181D-02
  0.67806757D-02  0.35749063D-02  0.93002167D-03 -0.10291638D-05  0.49230177D-02
  0.64639522D-02  0.72723821D-02  0.61275317D-02  0.34276553D-02  0.85313644D-03
 -0.39128948D-03  0.14725995D-02  0.19335321D-02  0.21753540D-02  0.18329002D-02
  0.10252987D-02  0.25519475D-03 -0.11704461D-03 -0.49588745D-02 -0.65110325D-02
 -0.73253505D-02 -0.61721617D-02 -0.34526207D-02 -0.85935027D-03  0.39413944D-03
  0.19710542D-03  0.73674865D-04 -0.19673829D-03  0.27833207D-04 -0.52628340D-03
 -0.84407106D-04 -0.24482823D-06 -0.19388850D-04 -0.12698144D-05  0.83458839D-04
 -0.17178661D-03  0.88327769D-04 -0.39851583D-04 -0.11089327D-03 -0.32548649D-05
 -0.32048948D-05  0.20719306D-04 -0.17514411D-04  0.11016179D-03 -0.33614852D-03
 -0.33467390D-04  0.17573353D-04 -0.39456808D-04  0.21883455D-04 -0.10976041D-04
  0.24608399D-04 -0.77808042D-05  0.13702693D-04  0.20765948D-04 -0.22598547D-04
  0.11510735D-03 -0.28096187D-04  0.14813708D-03 -0.15621543D-03 -0.34201657D-04
 -0.80341443D-04  0.33258818D-04  0.12129017D-05 -0.18405915D-04  0.34457257D-05
 -0.18270685D-04  0.25524015D-04 -0.12765418D-04  0.14631980D-04  0.29693729D-04
  0.24282412D-05 -0.31783806D-05 -0.22751014D-04 -0.41032391D-04 -0.60502237D-04
  0.25746029D-03 -0.76811028D-04  0.40365376D-05  0.72571136D-05 -0.18662707D-06
  0.40977477D-05 -0.35927894D-03 -0.48106511D-04 -0.34221211D-03 -0.29179404D-04
 -0.67226694D-05 -0.15584551D-04  0.95011983D-04 -0.18349977D-03  0.88487792D-04
  0.33558704D-04  0.43403661D-03  0.63399751D-04  0.20434621D-04 -0.28438317D-04
  0.80036966D-05  0.42723475D-04  0.12179246D-03  0.30747862D-04  0.22751044D-04
  0.41032445D-04  0.60502316D-04 -0.25746075D-03  0.76811266D-04 -0.40365323D-05
  0.72570783D-05 -0.18663675D-06 -0.40977279D-05 -0.35927930D-03 -0.48106619D-04
  0.34221246D-03 -0.29179387D-04 -0.67226666D-05  0.15584543D-04 -0.95012058D-04
  0.18349990D-03 -0.88487847D-04 -0.33558807D-04  0.43403704D-03  0.63399833D-04
 -0.20434644D-04  0.28438365D-04 -0.80037212D-05 -0.42723487D-04  0.12179255D-03
  0.30747887D-04
MO    2     MO 0.0        OCC NO =    2.0000000  ORB. ENERGY =  -88.575447
  0.41379648D+00  0.77356848D+00  0.13369679D+01  0.21624855D+01  0.32684702D+01
  0.45012198D+01  0.52608824D+01  0.45457993D+01  0.21201770D+01  0.28787423D+00
  0.77085627D-03  0.15121013D-02  0.69033742D-04 -0.90872163D-03 -0.16970763D-02
 -0.29438415D-02 -0.47733372D-02 -0.73490961D-02 -0.10466764D-01 -0.13458899D-01
 -0.14127839D-01 -0.99893835D-02  0.22121908D-03  0.71775011D-02  0.39521269D-02
 -0.16713478D-04  0.38108536D-03  0.71116166D-03  0.12352027D-02  0.20007543D-02
  0.30905798D-02  0.44060859D-02  0.57308785D-02  0.61075717D-02  0.45298589D-02
 -0.14099769D-03 -0.41038162D-02 -0.40203235D-02  0.18777295D-02 -0.22517433D-02
 -0.31137639D-03 -0.80401665D-04  0.69504889D-02  0.91186629D-02  0.10001783D-01
  0.82296259D-02  0.43388215D-02  0.11287563D-02 -0.12490839D-05 -0.27471777D-02
 -0.36041475D-02 -0.39532005D-02 -0.32527560D-02 -0.17149173D-02 -0.44614042D-03
  0.49369986D-06  0.76723127D-02  0.10065656D-01  0.11040491D-01  0.90842909D-02
  0.47894178D-02  0.12459801D-02 -0.13788041D-05 -0.60483375D-02 -0.79415039D-02
 -0.89347274D-02 -0.75281834D-02 -0.42111602D-02 -0.10481492D-02  0.48073173D-03
  0.21825532D-02  0.28657056D-02  0.32241121D-02  0.27165582D-02  0.15196046D-02
  0.37822648D-03 -0.17347289D-03 -0.66308178D-02 -0.87063041D-02 -0.97951791D-02
 -0.82531790D-02 -0.46167126D-02 -0.11490904D-02  0.52702821D-03 -0.27880481D-03
  0.68383988D-04 -0.32382205D-03 -0.85121339D-04  0.48880769D-04 -0.10044731D-03
 -0.15650220D-05  0.89926711D-06 -0.28175431D-05  0.52034005D-04 -0.99321186D-04
  0.47287180D-04  0.78097082D-05  0.20278069D-03 -0.50684709D-05 -0.17061555D-04
  0.49337769D-04 -0.32276214D-04  0.86424217D-04  0.31031362D-03  0.63440629D-04
  0.29863344D-05 -0.43951233D-05  0.14087889D-05 -0.10025332D-04 -0.27731359D-04
 -0.10453883D-05 -0.21175049D-04 -0.25121463D-04 -0.29940131D-04 -0.11409181D-03
  0.43121463D-04  0.19825296D-03  0.17761695D-03  0.32242927D-04 -0.10843257D-03
  0.98663626D-04  0.14119969D-05  0.19876623D-04  0.41356662D-05 -0.13895111D-05
 -0.31977025D-04 -0.50206872D-05 -0.28464796D-05 -0.27652843D-04 -0.73863114D-05
 -0.40697383D-04  0.41379614D+00  0.77356784D+00  0.13369667D+01  0.21624837D+01
  0.32684675D+01  0.45012161D+01  0.52608780D+01  0.45457955D+01  0.21201752D+01
  0.28787399D+00  0.77085562D-03  0.15121001D-02  0.69033684D-04 -0.90872082D-03
 -0.16970748D-02 -0.29438389D-02 -0.47733330D-02 -0.73490895D-02 -0.10466754D-01
 -0.13458887D-01 -0.14127827D-01 -0.99893745D-02  0.22121888D-03  0.71774947D-02
  0.39521234D-02 -0.16713463D-04  0.38108501D-03  0.71116101D-03  0.12352016D-02
  0.20007525D-02  0.30905770D-02  0.44060819D-02  0.57308733D-02  0.61075661D-02
  0.45298548D-02 -0.14099756D-03 -0.41038124D-02 -0.40203198D-02  0.18777278D-02
 -0.22517415D-02 -0.31137536D-03 -0.80401332D-04 -0.69504842D-02 -0.91186567D-02
 -0.10001777D-01 -0.82296203D-02 -0.43388186D-02 -0.11287555D-02  0.12490831D-05
  0.27471788D-02  0.36041489D-02  0.39532020D-02  0.32527573D-02  0.17149180D-02
  0.44614060D-03 -0.49370006D-06  0.76723079D-02  0.10065650D-01  0.11040484D-01
  0.90842852D-02  0.47894148D-02  0.12459794D-02 -0.13788032D-05  0.60483334D-02
  0.79414985D-02  0.89347213D-02  0.75281782D-02  0.42111574D-02  0.10481485D-02
 -0.48073140D-03 -0.21825544D-02 -0.28657072D-02 -0.32241139D-02 -0.27165597D-02
 -0.15196054D-02 -0.37822669D-03  0.17347299D-03 -0.66308136D-02 -0.87062986D-02
 -0.97951730D-02 -0.82531738D-02 -0.46167097D-02 -0.11490897D-02  0.52702788D-03
  0.27880465D-03 -0.68384049D-04 -0.32382189D-03  0.85121316D-04 -0.48880329D-04
 -0.10044724D-03  0.15650222D-05 -0.89925090D-06 -0.28175420D-05  0.52033935D-04
 -0.99321042D-04  0.47287107D-04  0.78097415D-05 -0.20278060D-03  0.50684736D-05
 -0.17061552D-04  0.49337751D-04 -0.32276199D-04  0.86424125D-04 -0.31031334D-03
 -0.63440601D-04  0.29863197D-05 -0.43950903D-05  0.14087706D-05 -0.10025323D-04
  0.27731339D-04  0.10453948D-05  0.21175038D-04  0.25121446D-04 -0.29940112D-04
  0.11409171D-03 -0.43121439D-04  0.19825283D-03 -0.17761682D-03 -0.32242898D-04
 -0.10843250D-03  0.98663598D-04 -0.14119979D-05 -0.19876607D-04  0.41356633D-05
  0.13895264D-05  0.31977004D-04 -0.50206766D-05  0.28464674D-05  0.27652818D-04
 -0.73863134D-05 -0.40697380D-04  0.35694903D-04  0.64377228D-04  0.94924185D-04
 -0.55584569D-03  0.28552056D-03  0.63679709D-05  0.42244486D-04  0.11579751D-04
  0.23719116D-04  0.43494769D-03  0.12890602D-03  0.42629049D-03 -0.19355427D-04
 -0.33918426D-05 -0.88388478D-05 -0.90332078D-04  0.15551381D-03 -0.65181727D-04
 -0.12328025D-03 -0.50993377D-03 -0.97665930D-04 -0.28177935D-04  0.57545755D-04
 -0.29367821D-04 -0.15109348D-04 -0.10980286D-03 -0.30608695D-04  0.35694884D-04
  0.64377194D-04  0.94924134D-04 -0.55584547D-03  0.28552050D-03  0.63679743D-05
 -0.42244492D-04 -0.11579751D-04  0.23719119D-04 -0.43494738D-03 -0.12890598D-03
  0.42629020D-03  0.19355451D-04  0.33918483D-05 -0.88388609D-05 -0.90331998D-04
  0.15551365D-03 -0.65181653D-04 -0.12328022D-03  0.50993340D-03  0.97665877D-04
 -0.28177918D-04  0.57545732D-04 -0.29367814D-04 -0.15109312D-04  0.10980276D-03
  0.30608670D-04
MO    3     MO 0.0        OCC NO =    2.0000000  ORB. ENERGY =   -7.922609
 -0.31480258D-03 -0.58850514D-03 -0.10171206D-02 -0.16451470D-02 -0.24865433D-02
 -0.34243781D-02 -0.40023041D-02 -0.34582927D-02 -0.16129600D-02 -0.21900513D-03
 -0.58644177D-06 -0.11503563D-05 -0.52518572D-07 -0.11402064D+00 -0.21293840D+00
 -0.36937460D+00 -0.59892814D+00 -0.92211806D+00 -0.13133032D+01 -0.16887375D+01
 -0.17726718D+01 -0.12534046D+01  0.27757170D-01  0.90058741D+00  0.49588787D+00
 -0.20971014D-02  0.21428282D-03  0.39988344D-03  0.69454967D-03  0.11250164D-02
  0.17378210D-02  0.24775250D-02  0.32224508D-02  0.34342639D-02  0.25471221D-02
 -0.79282452D-04 -0.23075599D-02 -0.22606123D-02  0.10558400D-02  0.30629315D-01
  0.36216904D-03  0.37766850D-04  0.29102725D-01  0.38181190D-01  0.41878946D-01
  0.34458661D-01  0.18167287D-01  0.47262695D-02 -0.52300990D-05 -0.43896184D-01
 -0.57589404D-01 -0.63166798D-01 -0.51974642D-01 -0.27402059D-01 -0.71287207D-02
  0.78886562D-05  0.33888760D-01  0.44460208D-01  0.48766071D-01  0.40125496D-01
  0.21154955D-01  0.55035195D-02 -0.60902054D-05 -0.16112516D-02 -0.21155831D-02
 -0.23801736D-02 -0.20054762D-02 -0.11218353D-02 -0.27922252D-03  0.12806490D-03
 -0.79768232D-04 -0.10473617D-03 -0.11783526D-03 -0.99285114D-04 -0.55538701D-04
 -0.13823470D-04  0.63401092D-05 -0.18468932D-02 -0.24249821D-02 -0.27282683D-02
 -0.22987723D-02 -0.12859010D-02 -0.32005815D-03  0.14679409D-03  0.37568754D-03
 -0.75579308D-03  0.41917519D-03  0.94363332D-04  0.25166506D-04  0.75203617D-04
  0.10976263D-05 -0.29131041D-06  0.97837604D-06  0.54200053D-04 -0.10663751D-03
  0.52437459D-04 -0.13375065D-04  0.79089438D-04  0.15944325D-05 -0.24007628D-03
  0.51297790D-03 -0.27290162D-03  0.35338670D-03  0.90402546D-03  0.14017940D-03
  0.19355824D-05 -0.48123053D-05  0.28767229D-05 -0.60468261D-05  0.15906470D-04
  0.26732183D-06 -0.60933069D-05 -0.38707367D-05 -0.13000853D-04 -0.94985506D-04
  0.24169059D-05  0.11877652D-03  0.11326543D-03  0.91953043D-05 -0.79773965D-04
  0.99077909D-04 -0.41657094D-06  0.10086795D-04  0.12986362D-05 -0.25325159D-05
 -0.14602599D-04  0.44223072D-05  0.37822287D-05 -0.15657786D-04 -0.83182159D-05
 -0.22397498D-04 -0.31480259D-03 -0.58850515D-03 -0.10171206D-02 -0.16451470D-02
 -0.24865433D-02 -0.34243782D-02 -0.40023042D-02 -0.34582928D-02 -0.16129601D-02
 -0.21900513D-03 -0.58644178D-06 -0.11503564D-05 -0.52518573D-07 -0.11402064D+00
 -0.21293840D+00 -0.36937461D+00 -0.59892815D+00 -0.92211808D+00 -0.13133033D+01
 -0.16887375D+01 -0.17726719D+01 -0.12534046D+01  0.27757170D-01  0.90058743D+00
  0.49588788D+00 -0.20971014D-02  0.21428282D-03  0.39988345D-03  0.69454969D-03
  0.11250164D-02  0.17378211D-02  0.24775251D-02  0.32224508D-02  0.34342639D-02
  0.25471221D-02 -0.79282454D-04 -0.23075600D-02 -0.22606123D-02  0.10558400D-02
  0.30629315D-01  0.36216904D-03  0.37766849D-04 -0.29102725D-01 -0.38181191D-01
 -0.41878947D-01 -0.34458661D-01 -0.18167288D-01 -0.47262696D-02  0.52300991D-05
  0.43896185D-01  0.57589405D-01  0.63166799D-01  0.51974643D-01  0.27402060D-01
  0.71287208D-02 -0.78886564D-05  0.33888761D-01  0.44460209D-01  0.48766072D-01
  0.40125497D-01  0.21154956D-01  0.55035196D-02 -0.60902055D-05  0.16112516D-02
  0.21155831D-02  0.23801737D-02  0.20054763D-02  0.11218353D-02  0.27922252D-03
 -0.12806490D-03  0.79768295D-04  0.10473626D-03  0.11783535D-03  0.99285193D-04
  0.55538745D-04  0.13823481D-04 -0.63401142D-05 -0.18468932D-02 -0.24249821D-02
 -0.27282683D-02 -0.22987724D-02 -0.12859010D-02 -0.32005815D-03  0.14679409D-03
 -0.37568755D-03  0.75579310D-03  0.41917520D-03 -0.94363334D-04 -0.25166510D-04
  0.75203619D-04 -0.10976263D-05  0.29131026D-06  0.97837607D-06  0.54200055D-04
 -0.10663752D-03  0.52437460D-04 -0.13375066D-04 -0.79089438D-04 -0.15944327D-05
 -0.24007628D-03  0.51297791D-03 -0.27290163D-03  0.35338671D-03 -0.90402548D-03
 -0.14017940D-03  0.19355826D-05 -0.48123057D-05  0.28767231D-05 -0.60468262D-05
 -0.15906470D-04 -0.26732182D-06  0.60933069D-05  0.38707374D-05 -0.13000853D-04
  0.94985508D-04 -0.24169069D-05  0.11877653D-03 -0.11326543D-03 -0.91953053D-05
 -0.79773966D-04  0.99077911D-04  0.41657096D-06 -0.10086795D-04  0.12986362D-05
  0.25325158D-05  0.14602599D-04  0.44223071D-05 -0.37822287D-05  0.15657787D-04
 -0.83182159D-05 -0.22397498D-04  0.25989066D-04  0.46872351D-04  0.69113254D-04
 -0.35085949D-03 -0.25997280D-03 -0.43968200D-05  0.12362027D-03  0.17522519D-04
  0.11736161D-03  0.21891544D-03  0.72856241D-04  0.21300213D-03  0.37464627D-04
  0.55249301D-05  0.33538389D-04 -0.57598871D-04  0.10558978D-03 -0.47990909D-04
 -0.64354142D-04 -0.35876759D-03 -0.71785293D-04 -0.13675236D-04  0.25463409D-04
 -0.11788173D-04 -0.41553522D-05 -0.27603379D-04 -0.26645859D-05  0.25989066D-04
  0.46872352D-04  0.69113255D-04 -0.35085950D-03 -0.25997281D-03 -0.43968202D-05
 -0.12362028D-03 -0.17522519D-04  0.11736162D-03 -0.21891544D-03 -0.72856241D-04
  0.21300213D-03 -0.37464628D-04 -0.55249303D-05  0.33538390D-04 -0.57598873D-04
  0.10558978D-03 -0.47990910D-04 -0.64354141D-04  0.35876759D-03  0.71785293D-04
 -0.13675236D-04  0.25463409D-04 -0.11788173D-04 -0.41553523D-05  0.27603380D-04
  0.26645861D-05
MO    4     MO 0.0        OCC NO =    2.0000000  ORB. ENERGY =   -7.922574
 -0.30882846D-03 -0.57733687D-03 -0.99781837D-03 -0.16139264D-02 -0.24393553D-02
 -0.33593925D-02 -0.39263510D-02 -0.33926635D-02 -0.15823503D-02 -0.21484899D-03
 -0.57531266D-06 -0.11285256D-05 -0.51521908D-07 -0.11403428D+00 -0.21296387D+00
 -0.36941878D+00 -0.59899978D+00 -0.92222835D+00 -0.13134603D+01 -0.16889395D+01
 -0.17728839D+01 -0.12535545D+01  0.27760490D-01  0.90069512D+00  0.49594718D+00
 -0.20973522D-02  0.22074971D-03  0.41195163D-03  0.71551066D-03  0.11589685D-02
  0.17902672D-02  0.25522949D-02  0.33197019D-02  0.35379074D-02  0.26239923D-02
 -0.81675137D-04 -0.23772004D-02 -0.23288359D-02  0.10877045D-02  0.30750581D-01
 -0.23256588D-03 -0.10628504D-03  0.28053235D-01  0.36804316D-01  0.40368725D-01
  0.33216027D-01  0.17512146D-01  0.45558327D-02 -0.50414934D-05 -0.40510650D-01
 -0.53147767D-01 -0.58295000D-01 -0.47966050D-01 -0.25288650D-01 -0.65789115D-02
  0.72802363D-05  0.32289034D-01  0.42361454D-01  0.46464059D-01  0.38231364D-01
  0.20156331D-01  0.52437247D-02 -0.58027160D-05 -0.69076466D-03 -0.90697821D-03
 -0.10204116D-02 -0.85977395D-03 -0.48094550D-03 -0.11970635D-03  0.54903102D-04
 -0.32115445D-02 -0.42167775D-02 -0.47441590D-02 -0.39973126D-02 -0.22360406D-02
 -0.55654596D-03  0.25525880D-03 -0.44690525D-03 -0.58678931D-03 -0.66017754D-03
 -0.55624949D-03 -0.31115817D-03 -0.77446635D-04  0.35520758D-04  0.44054779D-03
 -0.81415332D-03  0.51339256D-03  0.68718546D-04  0.24211174D-03  0.52658253D-04
  0.22199558D-05  0.74239978D-05  0.15084749D-05  0.69740402D-04 -0.14099854D-03
  0.71258143D-04 -0.31795804D-04 -0.13326386D-04  0.76035136D-05 -0.17719132D-03
  0.38827028D-03 -0.21107896D-03  0.32681158D-03  0.92573726D-03  0.12815971D-03
  0.10888838D-04 -0.21525064D-04  0.10636227D-04 -0.38430982D-05  0.87361215D-05
 -0.78334121D-06 -0.21429053D-05 -0.33242090D-04 -0.40729616D-05 -0.67961373D-04
  0.49752124D-04  0.87888378D-04  0.74390089D-04  0.49974146D-04 -0.75669493D-04
  0.74313118D-04 -0.12064935D-05  0.14275544D-04  0.11393845D-05  0.89010731D-05
 -0.22190790D-04 -0.55857874D-05 -0.52815925D-05 -0.20635843D-04  0.21676340D-05
 -0.18006712D-05  0.30882846D-03  0.57733686D-03  0.99781835D-03  0.16139264D-02
  0.24393552D-02  0.33593925D-02  0.39263509D-02  0.33926634D-02  0.15823503D-02
  0.21484899D-03  0.57531265D-06  0.11285256D-05  0.51521907D-07  0.11403427D+00
  0.21296386D+00  0.36941877D+00  0.59899976D+00  0.92222833D+00  0.13134603D+01
  0.16889394D+01  0.17728838D+01  0.12535545D+01 -0.27760489D-01 -0.90069511D+00
 -0.49594717D+00  0.20973522D-02 -0.22074971D-03 -0.41195162D-03 -0.71551065D-03
 -0.11589685D-02 -0.17902672D-02 -0.25522948D-02 -0.33197018D-02 -0.35379073D-02
 -0.26239923D-02  0.81675136D-04  0.23772003D-02  0.23288358D-02 -0.10877044D-02
 -0.30750581D-01  0.23256589D-03  0.10628504D-03  0.28053234D-01  0.36804315D-01
  0.40368724D-01  0.33216026D-01  0.17512146D-01  0.45558326D-02 -0.50414933D-05
 -0.40510649D-01 -0.53147766D-01 -0.58294998D-01 -0.47966049D-01 -0.25288649D-01
 -0.65789113D-02  0.72802361D-05 -0.32289033D-01 -0.42361454D-01 -0.46464058D-01
 -0.38231363D-01 -0.20156331D-01 -0.52437246D-02  0.58027158D-05 -0.69076463D-03
 -0.90697816D-03 -0.10204116D-02 -0.85977391D-03 -0.48094547D-03 -0.11970635D-03
  0.54903099D-04 -0.32115445D-02 -0.42167775D-02 -0.47441590D-02 -0.39973126D-02
 -0.22360406D-02 -0.55654596D-03  0.25525880D-03  0.44690521D-03  0.58678926D-03
  0.66017748D-03  0.55624944D-03  0.31115814D-03  0.77446627D-04 -0.35520755D-04
  0.44054779D-03 -0.81415331D-03 -0.51339255D-03  0.68718544D-04  0.24211174D-03
 -0.52658251D-04  0.22199557D-05  0.74239978D-05 -0.15084749D-05 -0.69740401D-04
  0.14099854D-03 -0.71258142D-04  0.31795803D-04 -0.13326388D-04  0.76035136D-05
  0.17719131D-03 -0.38827027D-03  0.21107896D-03 -0.32681158D-03  0.92573724D-03
  0.12815971D-03 -0.10888837D-04  0.21525064D-04 -0.10636227D-04  0.38430981D-05
  0.87361211D-05 -0.78334123D-06 -0.21429052D-05 -0.33242090D-04  0.40729613D-05
 -0.67961371D-04  0.49752124D-04 -0.87888375D-04  0.74390087D-04  0.49974146D-04
  0.75669491D-04 -0.74313116D-04 -0.12064935D-05  0.14275544D-04 -0.11393845D-05
  0.89010732D-05 -0.22190790D-04  0.55857876D-05 -0.52815926D-05 -0.20635842D-04
 -0.21676342D-05  0.18006707D-05  0.14526886D-04  0.26199836D-04  0.38631643D-04
 -0.96245729D-04 -0.22221057D-03 -0.89902539D-05  0.10932440D-03 -0.19610666D-05
  0.10918096D-03  0.12558595D-03  0.96490173D-05  0.11793407D-03  0.35037764D-04
  0.66558302D-05  0.34940698D-04 -0.65824783D-04  0.12569056D-03 -0.59865779D-04
  0.34347220D-04 -0.28922133D-03  0.32802427D-04 -0.61281268D-05  0.11550651D-04
 -0.54225245D-05 -0.32755595D-05 -0.34247117D-04 -0.78662052D-05 -0.14526885D-04
 -0.26199835D-04 -0.38631642D-04  0.96245721D-04  0.22221057D-03  0.89902538D-05
  0.10932439D-03 -0.19610670D-05 -0.10918096D-03  0.12558594D-03  0.96490158D-05
 -0.11793406D-03  0.35037763D-04  0.66558301D-05 -0.34940697D-04  0.65824782D-04
 -0.12569056D-03  0.59865778D-04 -0.34347221D-04 -0.28922133D-03  0.32802429D-04
  0.61281265D-05 -0.11550651D-04  0.54225243D-05  0.32755594D-05 -0.34247116D-04
 -0.78662052D-05
MO    5     MO 0.0        OCC NO =    2.0000000  ORB. ENERGY =   -5.835435
 -0.74503267D-04 -0.13927953D-03 -0.24071851D-03 -0.38935139D-03 -0.58848183D-03
 -0.81043604D-03 -0.94721184D-03 -0.81846249D-03 -0.38173382D-03 -0.51831206D-04
 -0.13879120D-06 -0.27225096D-06 -0.12429393D-07  0.48963844D-03  0.91442064D-03
  0.15862041D-02  0.25719751D-02  0.39598485D-02  0.56397137D-02  0.72519397D-02
  0.76123787D-02  0.53824912D-02 -0.11919752D-03 -0.38673895D-02 -0.21294896D-02
  0.90055754D-05 -0.53591570D-04 -0.10000980D-03 -0.17370505D-03 -0.28136364D-03
 -0.43462448D-03 -0.61962250D-03 -0.80592647D-03 -0.85890037D-03 -0.63702854D-03
  0.19828333D-04  0.57711467D-03  0.56537319D-03 -0.26406281D-03  0.15320544D-03
 -0.79099536D-04  0.16498265D-04 -0.23669989D+01 -0.31053736D+01 -0.34061215D+01
 -0.28026108D+01 -0.14775918D+01 -0.38439956D+00  0.42537730D-03 -0.61822810D+01
 -0.81108160D+01 -0.88963289D+01 -0.73200404D+01 -0.38592701D+01 -0.10039997D+01
  0.11110280D-02 -0.18124067D+01 -0.23777789D+01 -0.26080611D+01 -0.21459540D+01