 Molden2AIM, Version 4.0.0 (06/02/2016)           Time: Thu Jun 28 19:07:05 2018
GAUSSIAN             25 MOL ORBITALS    512 PRIMITIVES        8 NUCLEI
  P    1    (CENTRE  1)  -2.31202700  1.30191548 -0.16594630  CHARGE = 15.0
  O    2    (CENTRE  2)   0.66468282  1.98295576  0.09448631  CHARGE =  8.0
  O    3    (CENTRE  3)  -3.23637520  3.40013697 -2.19947302  CHARGE =  8.0
  O    4    (CENTRE  4)  -3.42955434  2.45622066  2.44396201  CHARGE =  8.0
  H    5    (CENTRE  5)   1.64401449  0.92649492 -1.02461328  CHARGE =  1.0
  H    6    (CENTRE  6)  -4.81605774  2.88451575 -2.95197141  CHARGE =  1.0
  H    7    (CENTRE  7)  -3.51618316  1.15061644  3.71497857  CHARGE =  1.0
  O    8    (CENTRE  8)  -2.95069207 -1.38766180 -0.73789648  CHARGE =  8.0
CENTRE ASSIGNMENTS    1  1  1  1  1  1  1  1  1  1  1  1  1  1  1  1  1  1  1  1
CENTRE ASSIGNMENTS    1  1  1  1  1  1  1  1  1  1  1  1  1  1  1  1  1  1  1  1
CENTRE ASSIGNMENTS    1  1  1  1  1  1  1  1  1  1  1  1  1  1  1  1  1  1  1  1
CENTRE ASSIGNMENTS    1  1  1  1  1  1  1  1  1  1  1  1  1  1  1  1  1  1  1  1
CENTRE ASSIGNMENTS    1  1  1  1  1  1  1  1  1  1  1  1  1  1  1  1  1  1  1  1
CENTRE ASSIGNMENTS    1  1  1  1  1  1  1  1  1  1  1  1  1  1  1  1  1  1  1  1
CENTRE ASSIGNMENTS    1  1  1  1  1  1  1  1  1  1  1  2  2  2  2  2  2  2  2  2
CENTRE ASSIGNMENTS    2  2  2  2  2  2  2  2  2  2  2  2  2  2  2  2  2  2  2  2
CENTRE ASSIGNMENTS    2  2  2  2  2  2  2  2  2  2  2  2  2  2  2  2  2  2  2  2
CENTRE ASSIGNMENTS    2  2  2  2  2  2  2  2  2  2  2  2  2  2  2  2  2  2  2  2
CENTRE ASSIGNMENTS    2  2  2  2  2  2  3  3  3  3  3  3  3  3  3  3  3  3  3  3
CENTRE ASSIGNMENTS    3  3  3  3  3  3  3  3  3  3  3  3  3  3  3  3  3  3  3  3
CENTRE ASSIGNMENTS    3  3  3  3  3  3  3  3  3  3  3  3  3  3  3  3  3  3  3  3
CENTRE ASSIGNMENTS    3  3  3  3  3  3  3  3  3  3  3  3  3  3  3  3  3  3  3  3
CENTRE ASSIGNMENTS    3  4  4  4  4  4  4  4  4  4  4  4  4  4  4  4  4  4  4  4
CENTRE ASSIGNMENTS    4  4  4  4  4  4  4  4  4  4  4  4  4  4  4  4  4  4  4  4
CENTRE ASSIGNMENTS    4  4  4  4  4  4  4  4  4  4  4  4  4  4  4  4  4  4  4  4
CENTRE ASSIGNMENTS    4  4  4  4  4  4  4  4  4  4  4  4  4  4  4  4  5  5  5  5
CENTRE ASSIGNMENTS    5  5  5  5  5  5  5  5  5  5  5  5  5  5  5  5  5  5  5  5
CENTRE ASSIGNMENTS    5  5  5  6  6  6  6  6  6  6  6  6  6  6  6  6  6  6  6  6
CENTRE ASSIGNMENTS    6  6  6  6  6  6  6  6  6  6  7  7  7  7  7  7  7  7  7  7
CENTRE ASSIGNMENTS    7  7  7  7  7  7  7  7  7  7  7  7  7  7  7  7  7  8  8  8
CENTRE ASSIGNMENTS    8  8  8  8  8  8  8  8  8  8  8  8  8  8  8  8  8  8  8  8
CENTRE ASSIGNMENTS    8  8  8  8  8  8  8  8  8  8  8  8  8  8  8  8  8  8  8  8
CENTRE ASSIGNMENTS    8  8  8  8  8  8  8  8  8  8  8  8  8  8  8  8  8  8  8  8
CENTRE ASSIGNMENTS    8  8  8  8  8  8  8  8  8  8  8  8
TYPE ASSIGNMENTS      1  1  1  1  1  1  1  1  1  1  1  1  1  1  1  1  1  1  1  1
TYPE ASSIGNMENTS      1  1  1  1  1  1  1  1  1  1  1  1  1  1  1  1  1  1  1  1
TYPE ASSIGNMENTS      1  1  2  2  2  2  2  2  2  3  3  3  3  3  3  3  4  4  4  4
TYPE ASSIGNMENTS      4  4  4  2  2  2  2  2  2  2  3  3  3  3  3  3  3  4  4  4
TYPE ASSIGNMENTS      4  4  4  4  2  3  4  2  3  4  2  3  4  5  6  7  8  9 10  5
TYPE ASSIGNMENTS      6  7  8  9 10  5  6  7  8  9 10 11 12 13 17 14 15 18 19 16
TYPE ASSIGNMENTS     20 11 12 13 17 14 15 18 19 16 20  1  1  1  1  1  1  1  1  1
TYPE ASSIGNMENTS      1  1  1  1  1  1  1  1  1  1  2  2  2  3  3  3  4  4  4  2
TYPE ASSIGNMENTS      3  4  2  3  4  2  3  4  5  6  7  8  9 10  5  6  7  8  9 10
TYPE ASSIGNMENTS      5  6  7  8  9 10 11 12 13 17 14 15 18 19 16 20 11 12 13 17
TYPE ASSIGNMENTS     14 15 18 19 16 20  1  1  1  1  1  1  1  1  1  1  1  1  1  1
TYPE ASSIGNMENTS      1  1  1  1  1  2  2  2  3  3  3  4  4  4  2  3  4  2  3  4
TYPE ASSIGNMENTS      2  3  4  5  6  7  8  9 10  5  6  7  8  9 10  5  6  7  8  9
TYPE ASSIGNMENTS     10 11 12 13 17 14 15 18 19 16 20 11 12 13 17 14 15 18 19 16
TYPE ASSIGNMENTS     20  1  1  1  1  1  1  1  1  1  1  1  1  1  1  1  1  1  1  1
TYPE ASSIGNMENTS      2  2  2  3  3  3  4  4  4  2  3  4  2  3  4  2  3  4  5  6
TYPE ASSIGNMENTS      7  8  9 10  5  6  7  8  9 10  5  6  7  8  9 10 11 12 13 17
TYPE ASSIGNMENTS     14 15 18 19 16 20 11 12 13 17 14 15 18 19 16 20  1  1  1  1
TYPE ASSIGNMENTS      1  1  2  3  4  2  3  4  2  3  4  5  6  7  8  9 10  5  6  7
TYPE ASSIGNMENTS      8  9 10  1  1  1  1  1  1  2  3  4  2  3  4  2  3  4  5  6
TYPE ASSIGNMENTS      7  8  9 10  5  6  7  8  9 10  1  1  1  1  1  1  2  3  4  2
TYPE ASSIGNMENTS      3  4  2  3  4  5  6  7  8  9 10  5  6  7  8  9 10  1  1  1
TYPE ASSIGNMENTS      1  1  1  1  1  1  1  1  1  1  1  1  1  1  1  1  2  2  2  3
TYPE ASSIGNMENTS      3  3  4  4  4  2  3  4  2  3  4  2  3  4  5  6  7  8  9 10
TYPE ASSIGNMENTS      5  6  7  8  9 10  5  6  7  8  9 10 11 12 13 17 14 15 18 19
TYPE ASSIGNMENTS     16 20 11 12 13 17 14 15 18 19 16 20
EXPONENTS  0.3124000D+06 0.4680000D+05 0.1065000D+05 0.3018000D+04 0.9868000D+03
EXPONENTS  0.3574000D+03 0.1396000D+03 0.5763000D+02 0.2460000D+02 0.1012000D+02
EXPONENTS  0.4283000D+01 0.1805000D+01 0.2782000D+00 0.3124000D+06 0.4680000D+05
EXPONENTS  0.1065000D+05 0.3018000D+04 0.9868000D+03 0.3574000D+03 0.1396000D+03
EXPONENTS  0.5763000D+02 0.2460000D+02 0.1012000D+02 0.4283000D+01 0.1805000D+01
EXPONENTS  0.2782000D+00 0.3124000D+06 0.4680000D+05 0.1065000D+05 0.3018000D+04
EXPONENTS  0.9868000D+03 0.3574000D+03 0.1396000D+03 0.5763000D+02 0.2460000D+02
EXPONENTS  0.1012000D+02 0.4283000D+01 0.1805000D+01 0.2782000D+00 0.6158000D+00
EXPONENTS  0.1055000D+00 0.4090000D-01 0.5049000D+03 0.1194000D+03 0.3796000D+02
EXPONENTS  0.1395000D+02 0.5457000D+01 0.2177000D+01 0.2877000D+00 0.5049000D+03
EXPONENTS  0.1194000D+03 0.3796000D+02 0.1395000D+02 0.5457000D+01 0.2177000D+01
EXPONENTS  0.2877000D+00 0.5049000D+03 0.1194000D+03 0.3796000D+02 0.1395000D+02
EXPONENTS  0.5457000D+01 0.2177000D+01 0.2877000D+00 0.5049000D+03 0.1194000D+03
EXPONENTS  0.3796000D+02 0.1395000D+02 0.5457000D+01 0.2177000D+01 0.2877000D+00
EXPONENTS  0.5049000D+03 0.1194000D+03 0.3796000D+02 0.1395000D+02 0.5457000D+01
EXPONENTS  0.2177000D+01 0.2877000D+00 0.5049000D+03 0.1194000D+03 0.3796000D+02
EXPONENTS  0.1395000D+02 0.5457000D+01 0.2177000D+01 0.2877000D+00 0.8010000D+00
EXPONENTS  0.8010000D+00 0.8010000D+00 0.9714000D-01 0.9714000D-01 0.9714000D-01
EXPONENTS  0.3070000D-01 0.3070000D-01 0.3070000D-01 0.2160000D+00 0.2160000D+00
EXPONENTS  0.2160000D+00 0.2160000D+00 0.2160000D+00 0.2160000D+00 0.6520000D+00
EXPONENTS  0.6520000D+00 0.6520000D+00 0.6520000D+00 0.6520000D+00 0.6520000D+00
EXPONENTS  0.7750000D-01 0.7750000D-01 0.7750000D-01 0.7750000D-01 0.7750000D-01
EXPONENTS  0.7750000D-01 0.4520000D+00 0.4520000D+00 0.4520000D+00 0.4520000D+00
EXPONENTS  0.4520000D+00 0.4520000D+00 0.4520000D+00 0.4520000D+00 0.4520000D+00
EXPONENTS  0.4520000D+00 0.1650000D+00 0.1650000D+00 0.1650000D+00 0.1650000D+00
EXPONENTS  0.1650000D+00 0.1650000D+00 0.1650000D+00 0.1650000D+00 0.1650000D+00
EXPONENTS  0.1650000D+00 0.1533000D+05 0.2299000D+04 0.5224000D+03 0.1473000D+03
EXPONENTS  0.4755000D+02 0.1676000D+02 0.6207000D+01 0.6882000D+00 0.1533000D+05
EXPONENTS  0.2299000D+04 0.5224000D+03 0.1473000D+03 0.4755000D+02 0.1676000D+02
EXPONENTS  0.6207000D+01 0.6882000D+00 0.1752000D+01 0.2384000D+00 0.7376000D-01
EXPONENTS  0.3446000D+02 0.7749000D+01 0.2280000D+01 0.3446000D+02 0.7749000D+01
EXPONENTS  0.2280000D+01 0.3446000D+02 0.7749000D+01 0.2280000D+01 0.7156000D+00
EXPONENTS  0.7156000D+00 0.7156000D+00 0.2140000D+00 0.2140000D+00 0.2140000D+00
EXPONENTS  0.5974000D-01 0.5974000D-01 0.5974000D-01 0.2314000D+01 0.2314000D+01
EXPONENTS  0.2314000D+01 0.2314000D+01 0.2314000D+01 0.2314000D+01 0.6450000D+00
EXPONENTS  0.6450000D+00 0.6450000D+00 0.6450000D+00 0.6450000D+00 0.6450000D+00
EXPONENTS  0.2140000D+00 0.2140000D+00 0.2140000D+00 0.2140000D+00 0.2140000D+00
EXPONENTS  0.2140000D+00 0.1428000D+01 0.1428000D+01 0.1428000D+01 0.1428000D+01
EXPONENTS  0.1428000D+01 0.1428000D+01 0.1428000D+01 0.1428000D+01 0.1428000D+01
EXPONENTS  0.1428000D+01 0.5000000D+00 0.5000000D+00 0.5000000D+00 0.5000000D+00
EXPONENTS  0.5000000D+00 0.5000000D+00 0.5000000D+00 0.5000000D+00 0.5000000D+00
EXPONENTS  0.5000000D+00 0.1533000D+05 0.2299000D+04 0.5224000D+03 0.1473000D+03
EXPONENTS  0.4755000D+02 0.1676000D+02 0.6207000D+01 0.6882000D+00 0.1533000D+05
EXPONENTS  0.2299000D+04 0.5224000D+03 0.1473000D+03 0.4755000D+02 0.1676000D+02
EXPONENTS  0.6207000D+01 0.6882000D+00 0.1752000D+01 0.2384000D+00 0.7376000D-01
EXPONENTS  0.3446000D+02 0.7749000D+01 0.2280000D+01 0.3446000D+02 0.7749000D+01
EXPONENTS  0.2280000D+01 0.3446000D+02 0.7749000D+01 0.2280000D+01 0.7156000D+00
EXPONENTS  0.7156000D+00 0.7156000D+00 0.2140000D+00 0.2140000D+00 0.2140000D+00
EXPONENTS  0.5974000D-01 0.5974000D-01 0.5974000D-01 0.2314000D+01 0.2314000D+01
EXPONENTS  0.2314000D+01 0.2314000D+01 0.2314000D+01 0.2314000D+01 0.6450000D+00
EXPONENTS  0.6450000D+00 0.6450000D+00 0.6450000D+00 0.6450000D+00 0.6450000D+00
EXPONENTS  0.2140000D+00 0.2140000D+00 0.2140000D+00 0.2140000D+00 0.2140000D+00
EXPONENTS  0.2140000D+00 0.1428000D+01 0.1428000D+01 0.1428000D+01 0.1428000D+01
EXPONENTS  0.1428000D+01 0.1428000D+01 0.1428000D+01 0.1428000D+01 0.1428000D+01
EXPONENTS  0.1428000D+01 0.5000000D+00 0.5000000D+00 0.5000000D+00 0.5000000D+00
EXPONENTS  0.5000000D+00 0.5000000D+00 0.5000000D+00 0.5000000D+00 0.5000000D+00
EXPONENTS  0.5000000D+00 0.1533000D+05 0.2299000D+04 0.5224000D+03 0.1473000D+03
EXPONENTS  0.4755000D+02 0.1676000D+02 0.6207000D+01 0.6882000D+00 0.1533000D+05
EXPONENTS  0.2299000D+04 0.5224000D+03 0.1473000D+03 0.4755000D+02 0.1676000D+02
EXPONENTS  0.6207000D+01 0.6882000D+00 0.1752000D+01 0.2384000D+00 0.7376000D-01
EXPONENTS  0.3446000D+02 0.7749000D+01 0.2280000D+01 0.3446000D+02 0.7749000D+01
EXPONENTS  0.2280000D+01 0.3446000D+02 0.7749000D+01 0.2280000D+01 0.7156000D+00
EXPONENTS  0.7156000D+00 0.7156000D+00 0.2140000D+00 0.2140000D+00 0.2140000D+00
EXPONENTS  0.5974000D-01 0.5974000D-01 0.5974000D-01 0.2314000D+01 0.2314000D+01
EXPONENTS  0.2314000D+01 0.2314000D+01 0.2314000D+01 0.2314000D+01 0.6450000D+00
EXPONENTS  0.6450000D+00 0.6450000D+00 0.6450000D+00 0.6450000D+00 0.6450000D+00
EXPONENTS  0.2140000D+00 0.2140000D+00 0.2140000D+00 0.2140000D+00 0.2140000D+00
EXPONENTS  0.2140000D+00 0.1428000D+01 0.1428000D+01 0.1428000D+01 0.1428000D+01
EXPONENTS  0.1428000D+01 0.1428000D+01 0.1428000D+01 0.1428000D+01 0.1428000D+01
EXPONENTS  0.1428000D+01 0.5000000D+00 0.5000000D+00 0.5000000D+00 0.5000000D+00
EXPONENTS  0.5000000D+00 0.5000000D+00 0.5000000D+00 0.5000000D+00 0.5000000D+00
EXPONENTS  0.5000000D+00 0.3387000D+02 0.5095000D+01 0.1159000D+01 0.3258000D+00
EXPONENTS  0.1027000D+00 0.2526000D-01 0.1407000D+01 0.1407000D+01 0.1407000D+01
EXPONENTS  0.3880000D+00 0.3880000D+00 0.3880000D+00 0.1020000D+00 0.1020000D+00
EXPONENTS  0.1020000D+00 0.1057000D+01 0.1057000D+01 0.1057000D+01 0.1057000D+01
EXPONENTS  0.1057000D+01 0.1057000D+01 0.2470000D+00 0.2470000D+00 0.2470000D+00
EXPONENTS  0.2470000D+00 0.2470000D+00 0.2470000D+00 0.3387000D+02 0.5095000D+01
EXPONENTS  0.1159000D+01 0.3258000D+00 0.1027000D+00 0.2526000D-01 0.1407000D+01
EXPONENTS  0.1407000D+01 0.1407000D+01 0.3880000D+00 0.3880000D+00 0.3880000D+00
EXPONENTS  0.1020000D+00 0.1020000D+00 0.1020000D+00 0.1057000D+01 0.1057000D+01
EXPONENTS  0.1057000D+01 0.1057000D+01 0.1057000D+01 0.1057000D+01 0.2470000D+00
EXPONENTS  0.2470000D+00 0.2470000D+00 0.2470000D+00 0.2470000D+00 0.2470000D+00
EXPONENTS  0.3387000D+02 0.5095000D+01 0.1159000D+01 0.3258000D+00 0.1027000D+00
EXPONENTS  0.2526000D-01 0.1407000D+01 0.1407000D+01 0.1407000D+01 0.3880000D+00
EXPONENTS  0.3880000D+00 0.3880000D+00 0.1020000D+00 0.1020000D+00 0.1020000D+00
EXPONENTS  0.1057000D+01 0.1057000D+01 0.1057000D+01 0.1057000D+01 0.1057000D+01
EXPONENTS  0.1057000D+01 0.2470000D+00 0.2470000D+00 0.2470000D+00 0.2470000D+00
EXPONENTS  0.2470000D+00 0.2470000D+00 0.1533000D+05 0.2299000D+04 0.5224000D+03
EXPONENTS  0.1473000D+03 0.4755000D+02 0.1676000D+02 0.6207000D+01 0.6882000D+00
EXPONENTS  0.1533000D+05 0.2299000D+04 0.5224000D+03 0.1473000D+03 0.4755000D+02
EXPONENTS  0.1676000D+02 0.6207000D+01 0.6882000D+00 0.1752000D+01 0.2384000D+00
EXPONENTS  0.7376000D-01 0.3446000D+02 0.7749000D+01 0.2280000D+01 0.3446000D+02
EXPONENTS  0.7749000D+01 0.2280000D+01 0.3446000D+02 0.7749000D+01 0.2280000D+01
EXPONENTS  0.7156000D+00 0.7156000D+00 0.7156000D+00 0.2140000D+00 0.2140000D+00
EXPONENTS  0.2140000D+00 0.5974000D-01 0.5974000D-01 0.5974000D-01 0.2314000D+01
EXPONENTS  0.2314000D+01 0.2314000D+01 0.2314000D+01 0.2314000D+01 0.2314000D+01
EXPONENTS  0.6450000D+00 0.6450000D+00 0.6450000D+00 0.6450000D+00 0.6450000D+00
EXPONENTS  0.6450000D+00 0.2140000D+00 0.2140000D+00 0.2140000D+00 0.2140000D+00
EXPONENTS  0.2140000D+00 0.2140000D+00 0.1428000D+01 0.1428000D+01 0.1428000D+01
EXPONENTS  0.1428000D+01 0.1428000D+01 0.1428000D+01 0.1428000D+01 0.1428000D+01
EXPONENTS  0.1428000D+01 0.1428000D+01 0.5000000D+00 0.5000000D+00 0.5000000D+00
EXPONENTS  0.5000000D+00 0.5000000D+00 0.5000000D+00 0.5000000D+00 0.5000000D+00
EXPONENTS  0.5000000D+00 0.5000000D+00
MO    1     MO 0.0        OCC NO =    2.0000000  ORB. ENERGY =  -76.916609
  0.54464322D+00  0.10190192D+01  0.17595453D+01  0.28456342D+01  0.42949066D+01
  0.58841549D+01  0.67999061D+01  0.57144717D+01  0.25100464D+01  0.28689416D+00
 -0.38666572D-02  0.24049527D-02  0.11829958D-03 -0.23869792D-02 -0.44645946D-02
 -0.77302043D-02 -0.12552045D-01 -0.19277008D-01 -0.27416330D-01 -0.34882876D-01
 -0.36150941D-01 -0.24124389D-01  0.23759448D-02  0.18148347D-01  0.93184334D-02
 -0.40874945D-04  0.11939465D-02  0.22311530D-02  0.38688984D-02  0.62738325D-02
  0.96704422D-02  0.13760511D-01  0.17719376D-01  0.18627528D-01  0.13058468D-01
 -0.15162050D-02 -0.12274643D-01 -0.11552107D-01  0.56334916D-02 -0.31834793D-02
 -0.13889998D-02  0.87472099D-04  0.15995434D-03  0.20925080D-03  0.22892771D-03
  0.18857296D-03  0.10082566D-03  0.27859108D-04 -0.22834859D-07  0.64422921D-03
  0.84277476D-03  0.92202512D-03  0.75949305D-03  0.40608360D-03  0.11220484D-03
 -0.91969267D-07  0.13011369D-03  0.17021354D-03  0.18621958D-03  0.15339330D-03
  0.82015897D-04  0.22661788D-04 -0.18574850D-07 -0.38101751D-04 -0.50462196D-04
 -0.55747171D-04 -0.47747622D-04 -0.26048135D-04 -0.80065136D-05  0.34857557D-05
 -0.13559893D-03 -0.17958807D-03 -0.19839657D-03 -0.16992727D-03 -0.92701755D-04
 -0.28494089D-04  0.12405329D-04 -0.22803622D-04 -0.30201258D-04 -0.33364277D-04
 -0.28576605D-04 -0.15589620D-04 -0.47918403D-05  0.20861995D-05 -0.31895730D-04
 -0.13192236D-03 -0.27938367D-04  0.86425533D-05  0.41620713D-04  0.79967483D-05
 -0.41977137D-07 -0.89962448D-07  0.27834927D-07 -0.53196180D-04  0.10887696D-03
 -0.55680779D-04  0.81951468D-04  0.16388865D-04  0.73080910D-04 -0.67611603D-04
  0.13804776D-03 -0.70436153D-04  0.10269770D-03  0.21705202D-04  0.92025709D-04
 -0.23530497D-05  0.46648693D-05 -0.23118196D-05  0.36366010D-05  0.88917376D-06
  0.31742018D-05  0.14027762D-03 -0.13175439D-03  0.48165213D-04 -0.21239892D-03
  0.12575000D-03  0.75644197D-04 -0.20843395D-03  0.26951317D-03 -0.22013984D-03
 -0.26498130D-04 -0.47519561D-04  0.40068682D-04 -0.39106042D-04  0.71533982D-04
 -0.51141980D-04  0.47295802D-04  0.71024701D-04 -0.69064066D-04  0.70022324D-04
 -0.29087610D-04  0.52116739D-04  0.97138896D-04  0.16471538D-03  0.24930440D-03
  0.31105910D-03  0.26715829D-03  0.10256726D-03 -0.45878965D-06 -0.38440258D-04
 -0.72095656D-04 -0.12290729D-03 -0.19208017D-03 -0.25684778D-03 -0.27425355D-03
 -0.16767324D-03  0.11062062D-03  0.59456562D-04  0.49682583D-03 -0.15858092D-03
 -0.26485998D-03 -0.25682509D-03 -0.17325269D-03 -0.32665599D-04 -0.31674643D-04
 -0.21367527D-04 -0.30161442D-04 -0.29246453D-04 -0.19729484D-04  0.17397927D-03
 -0.29024863D-04 -0.17752542D-04  0.35326669D-03 -0.47542074D-04 -0.21747092D-03
  0.22956027D-04  0.67035381D-05  0.36961323D-06  0.34594786D-03 -0.14919684D-03
 -0.19675102D-03  0.39142160D-03  0.15117012D-03  0.10221934D-03 -0.23541355D-03
  0.96957449D-04  0.13845610D-03 -0.29719019D-03 -0.17157370D-03  0.20557381D-04
 -0.17751810D-03  0.47936189D-04  0.12958191D-03 -0.64973394D-04  0.22294928D-05
  0.45830831D-04 -0.18681157D-03  0.73828644D-04  0.33989911D-04  0.11151667D-03
 -0.16117344D-03 -0.15790231D-03  0.44891803D-03 -0.60312488D-04  0.55932577D-04
  0.26582210D-04  0.11527866D-03 -0.40220224D-04 -0.14921200D-04 -0.11249753D-03
  0.16042395D-03  0.82684827D-04 -0.23333845D-03 -0.39763283D-04 -0.37921228D-04
  0.61590786D-04  0.51721297D-04  0.96401842D-04  0.16346558D-03  0.24741277D-03
  0.30869890D-03  0.26513119D-03  0.10178902D-03 -0.45530853D-06 -0.38159629D-04
 -0.71569329D-04 -0.12201002D-03 -0.19067791D-03 -0.25497269D-03 -0.27225139D-03
 -0.16644916D-03  0.10981305D-03  0.58618186D-04  0.50944302D-03 -0.15618156D-03
  0.82683195D-04  0.80174886D-04  0.54085505D-04 -0.16194122D-03 -0.15702851D-03
 -0.10593050D-03  0.19743102D-03  0.19144168D-03  0.12914542D-03 -0.97877371D-04
  0.58760631D-04 -0.13823410D-03 -0.36221230D-03  0.11284562D-03 -0.19981014D-03
 -0.84568848D-05  0.17122049D-04 -0.14369681D-04 -0.16733487D-03  0.15800110D-03
  0.93337667D-05 -0.18941545D-03  0.19077048D-03 -0.60931978D-03  0.15961868D-03
 -0.12140736D-03 -0.38211316D-04  0.18115453D-03 -0.55224402D-04  0.41292839D-03
  0.83593801D-04 -0.32276766D-04 -0.51317035D-04  0.16700277D-03 -0.17036070D-03
  0.17414865D-03 -0.15268140D-03  0.34307746D-04 -0.10565679D-04  0.16543936D-03
  0.10147530D-03 -0.21303483D-03  0.29260483D-03 -0.20439854D-03  0.24473187D-03
 -0.33440811D-03  0.68828900D-04 -0.18063788D-04  0.34926553D-04 -0.94706938D-04
 -0.10939411D-03  0.77801507D-04 -0.11177976D-03  0.16358548D-03 -0.18258116D-03
  0.24980598D-03  0.51989512D-04  0.96901761D-04  0.16431328D-03  0.24869580D-03
  0.31029975D-03  0.26650610D-03  0.10231687D-03 -0.45766966D-06 -0.38342114D-04
 -0.71911586D-04 -0.12259349D-03 -0.19158976D-03 -0.25619201D-03 -0.27355334D-03
 -0.16724515D-03  0.11033819D-03  0.58805425D-04  0.50399366D-03 -0.15828373D-03
  0.11824695D-03  0.11465977D-03  0.77348803D-04 -0.81263848D-04 -0.78798597D-04
 -0.53157068D-04 -0.22783268D-03 -0.22092106D-03 -0.14903204D-03 -0.74170893D-04
 -0.94447831D-05  0.16294302D-03 -0.88532154D-05 -0.10233149D-03  0.41276054D-03
 -0.67438173D-05  0.92978985D-05  0.20987748D-04 -0.15909299D-03 -0.46379873D-04
  0.20547286D-03 -0.23081747D-03 -0.35056679D-03  0.48148724D-03  0.59577326D-04
  0.58255309D-04 -0.11783263D-03  0.14344300D-03  0.23660323D-03 -0.41256268D-03
  0.51039892D-04  0.74122919D-04 -0.12516281D-03 -0.33176070D-04  0.18456368D-03
 -0.16004116D-03 -0.12883485D-03  0.83377189D-04 -0.17724922D-04 -0.88609039D-06
  0.12514528D-03 -0.45665772D-04  0.38739065D-03 -0.37527685D-03  0.98840537D-04
  0.13943340D-03  0.69902953D-04 -0.61419171D-04  0.22810711D-04  0.19300517D-04
 -0.32351347D-04 -0.49683563D-04 -0.22900938D-03  0.21660886D-03 -0.18748570D-04
 -0.19358459D-03  0.10199178D-04  0.18394637D-04  0.27122882D-04 -0.36573307D-03
  0.24493299D-03 -0.46772409D-05  0.15831089D-03  0.56425653D-04 -0.10621243D-03
  0.56039779D-04 -0.12998968D-03  0.11358690D-05 -0.55260093D-04  0.80159037D-06
  0.15828728D-04 -0.26819700D-04 -0.40256043D-05  0.30845304D-04  0.68075414D-04
 -0.48618239D-05 -0.14542090D-03  0.29958259D-04 -0.81813977D-05 -0.21776862D-04
  0.59660671D-04  0.31049502D-04  0.22058418D-04  0.10739980D-04  0.19369997D-04
  0.28561049D-04 -0.38753831D-03  0.23960428D-03 -0.47299618D-05 -0.15671988D-03
  0.11728195D-03 -0.47191710D-04 -0.49408191D-04 -0.84895740D-04 -0.10833897D-03
  0.37187991D-04 -0.25344987D-04  0.34868702D-04 -0.54993550D-05  0.10087652D-04
 -0.45882973D-05 -0.12101571D-03 -0.11690496D-03  0.37225760D-04 -0.24488351D-04
  0.29311726D-04 -0.48233752D-05 -0.58969513D-05  0.89339256D-05 -0.67965411D-04
  0.10484635D-04  0.18909471D-04  0.27882004D-04 -0.37892217D-03  0.24338260D-03
 -0.47713822D-05  0.41276614D-04  0.18616056D-04  0.19469510D-03 -0.88950683D-04
 -0.10615177D-03  0.42215291D-04  0.11729105D-04  0.17124681D-06 -0.56184014D-04
  0.51812632D-04 -0.48509339D-04 -0.33032929D-05  0.20080276D-04  0.11178826D-03
  0.82641327D-04 -0.19750930D-04  0.82198743D-05  0.11531055D-04 -0.31157769D-04
 -0.35393477D-04  0.66359507D-04  0.94400879D-05  0.17595109D-04  0.29835475D-04
  0.45157382D-04  0.56343228D-04  0.48391319D-04  0.18578368D-04 -0.83102181D-07
 -0.11285976D-04 -0.21167128D-04 -0.36085314D-04 -0.56394321D-04 -0.75409953D-04
 -0.80520249D-04 -0.49228501D-04  0.32477975D-04  0.13675071D-03  0.10120820D-03
 -0.12294149D-03  0.79366109D-04  0.76958429D-04  0.51915701D-04  0.33255162D-03
  0.32246321D-03  0.21753178D-03  0.69902344D-04  0.67781760D-04  0.45725175D-04
 -0.72639299D-04 -0.30396902D-03 -0.63946607D-04 -0.13850787D-03 -0.59412589D-03
 -0.12803968D-03 -0.40052782D-05 -0.17270529D-04 -0.36706725D-05 -0.22087425D-03
  0.44886513D-03 -0.22799089D-03  0.33506918D-03  0.71843545D-04  0.30093954D-03
  0.17796576D-03 -0.36201643D-03  0.18405067D-03 -0.27079047D-03 -0.57760214D-04
 -0.24286805D-03  0.75859696D-04 -0.15420219D-03  0.78342496D-04 -0.11524289D-03
 -0.24850626D-04 -0.10417371D-03 -0.13461780D-03  0.12484276D-03 -0.91238594D-04
  0.21616211D-03 -0.14851408D-03  0.62964628D-04  0.18769128D-03 -0.22601420D-03
  0.21075115D-03 -0.33913208D-04  0.64718076D-04 -0.10086179D-03  0.53147151D-04
 -0.16909327D-03  0.13928525D-03 -0.40156845D-05 -0.25060956D-04  0.16330011D-03
 -0.15542577D-03 -0.47618612D-04
MO    2     MO 0.0        OCC NO =    2.0000000  ORB. ENERGY =  -19.021720
  0.68025579D-04  0.12727483D-03  0.21976605D-03  0.35541783D-03  0.53643100D-03
  0.73492707D-03  0.84930379D-03  0.71373375D-03  0.31350314D-03  0.35832891D-04
 -0.48294294D-06  0.30037701D-06  0.14775539D-07 -0.12106000D-03 -0.22643006D-03
 -0.39205141D-03 -0.63659984D-03 -0.97766860D-03 -0.13904692D-02 -0.17691487D-02
 -0.18334609D-02 -0.12235124D-02  0.12050037D-03  0.92042650D-03  0.47260134D-03
 -0.20730474D-05  0.65966298D-04  0.12327261D-03  0.21375908D-03  0.34663321D-03
  0.53429804D-03  0.76027692D-03  0.97900669D-03  0.10291827D-02  0.72148861D-03
 -0.83771284D-04 -0.67818178D-03 -0.63826120D-03  0.31125397D-03 -0.58524743D-03
  0.17364445D-02  0.25855027D-03 -0.48211493D-02 -0.63069834D-02 -0.69000609D-02
 -0.56837370D-02 -0.30389645D-02 -0.83969537D-03  0.68826058D-06  0.12546169D-01
  0.16412783D-01  0.17956160D-01  0.14790897D-01  0.79083550D-02  0.21851552D-02
 -0.17910736D-05 -0.11433065D-01 -0.14956631D-01 -0.16363078D-01 -0.13478639D-01
 -0.72067210D-02 -0.19912869D-02  0.16321685D-05  0.43077344D-02  0.57051903D-02
  0.63027027D-02  0.53982841D-02  0.29449682D-02  0.90520602D-03 -0.39409501D-03
 -0.11431278D-01 -0.15139655D-01 -0.16725252D-01 -0.14325230D-01 -0.78149548D-02
 -0.24021122D-02  0.10457955D-02  0.10413139D-01  0.13791226D-01  0.15235600D-01
  0.13049338D-01  0.71189075D-02  0.21881655D-02 -0.95265064D-03  0.20225212D-03
 -0.32378956D-03  0.29198685D-03 -0.15062347D-03  0.23934968D-03 -0.20066219D-03
 -0.51629393D-05  0.27070491D-05 -0.56474215D-05 -0.13696637D-03  0.54879547D-04
  0.82086824D-04 -0.33303477D-03  0.25971453D-03 -0.63091342D-03 -0.16683030D-03
  0.11421103D-03  0.52619269D-04 -0.23336962D-03  0.22969502D-03 -0.65391986D-03
 -0.81042886D-05  0.21113557D-05  0.59929329D-05 -0.17714030D-04  0.10136883D-04
 -0.30629816D-04  0.83223236D-04 -0.36308875D-04  0.38677746D-04 -0.18110074D-03
 -0.13811680D-03  0.67446854D-04 -0.68568966D-04  0.24704342D-03 -0.18348009D-03
  0.35722573D-03  0.17133384D-04 -0.12991045D-04  0.12178080D-04 -0.34820001D-04
 -0.12788937D-04 -0.67876677D-05 -0.16580151D-04  0.51762071D-04 -0.29746572D-04
  0.94747343D-04  0.96817799D-02  0.18045592D-01  0.30599345D-01  0.46313534D-01
  0.57785768D-01  0.49630268D-01  0.19054025D-01 -0.85229823D-04 -0.42707492D-04
 -0.80098961D-04 -0.13655117D-03 -0.21340290D-03 -0.28536033D-03 -0.30469831D-03
 -0.18628657D-03  0.12290056D-03  0.94242018D-03 -0.27661748D-03  0.24471323D-04
  0.25716405D-04  0.24936262D-04  0.16821855D-04 -0.11682997D-03 -0.11328577D-03
 -0.76421911D-04 -0.11723586D-03 -0.11367935D-03 -0.76687418D-04 -0.65236067D-04
  0.25866976D-04  0.49410113D-04 -0.20788913D-04  0.21528062D-03 -0.20667994D-04
 -0.10025861D-04  0.92812987D-05 -0.27933663D-05  0.10876609D-04  0.47260747D-05
 -0.15602684D-04  0.21521338D-04 -0.39237232D-05 -0.26830495D-04 -0.57484327D-05
 -0.12911734D-04  0.18660167D-04 -0.22442798D-04  0.34307984D-04 -0.65483547D-05
  0.31378663D-04 -0.19325629D-04 -0.12053034D-04 -0.49635758D-04  0.38850453D-04
 -0.42613720D-04  0.26943706D-04 -0.25726424D-04  0.24508317D-04  0.14372536D-04
  0.19586617D-04 -0.34459938D-04 -0.95203654D-04  0.57592654D-04 -0.39065012D-04
  0.95955148D-04 -0.16054492D-04 -0.18545286D-05 -0.98842831D-05 -0.45292762D-05
  0.36770299D-04 -0.14342737D-05  0.52692753D-04 -0.31206713D-04  0.31087123D-04
 -0.35136391D-04  0.49900623D+00  0.93008340D+00  0.15771133D+01  0.23870344D+01
  0.29783220D+01  0.25579814D+01  0.98205880D+00 -0.43928093D-02 -0.90205301D-03
 -0.16918228D-02 -0.28841870D-02 -0.45074228D-02 -0.60272831D-02 -0.64357332D-02
 -0.39346811D-02  0.25958636D-02  0.49710158D-01 -0.19275184D-02 -0.86450331D-03
 -0.31818800D-02 -0.30853533D-02 -0.20813611D-02 -0.56461871D-02 -0.54749022D-02
 -0.36933367D-02  0.16752978D-02  0.16244753D-02  0.10958614D-02 -0.99951324D-03
  0.43875690D-03 -0.98735488D-03 -0.22572785D-03  0.98737123D-03 -0.88167673D-03
 -0.24961852D-04  0.60745021D-04 -0.64296853D-04  0.75940549D-03 -0.50392332D-03
 -0.25548217D-03  0.70949721D-03  0.27529728D-02 -0.86812290D-03  0.36374012D-03
 -0.20064662D-03 -0.16309350D-03  0.53074282D-03 -0.25968976D-03  0.10298192D-02
  0.72070998D-05  0.82743123D-06 -0.80345311D-05  0.52490282D-04 -0.19945391D-03
  0.25579474D-03 -0.39974754D-03  0.45816496D-03  0.43855411D-03  0.91379854D-03
 -0.12485133D-02 -0.17882267D-02  0.28544407D-03 -0.12598155D-03  0.47256435D-03
 -0.19815851D-02  0.13397522D-03 -0.12273482D-03 -0.42807461D-04 -0.27882961D-03
  0.13948451D-03  0.43891453D-03 -0.12309605D-03  0.22871995D-03 -0.31049215D-03
  0.67850233D-03  0.60128722D-02  0.11207220D-01  0.19003732D-01  0.28763033D-01
  0.35887868D-01  0.30822892D-01  0.11833508D-01 -0.52932006D-04 -0.32509230D-04
 -0.60971867D-04 -0.10394367D-03 -0.16244372D-03 -0.21721820D-03 -0.23193840D-03
 -0.14180259D-03  0.93552736D-04  0.61309526D-03 -0.54823875D-03 -0.93997764D-04
  0.99603092D-05  0.96581494D-05  0.65153306D-05 -0.16475639D-03 -0.15975828D-03
 -0.10777199D-03  0.57606143D-04  0.55858581D-04  0.37681869D-04  0.15623878D-04
  0.15769884D-03 -0.13089969D-03 -0.10362392D-03  0.24450897D-03 -0.17800713D-03
 -0.66482283D-05  0.14944236D-04 -0.19363358D-04 -0.54030056D-04 -0.69922513D-04
  0.12395257D-03 -0.43503710D-05 -0.91486216D-04 -0.25003181D-03  0.71580786D-04
  0.54114184D-06 -0.72121928D-04  0.92417489D-06  0.86238512D-04  0.23087494D-03
 -0.32644673D-05 -0.54436259D-04  0.57700726D-04  0.39933866D-04 -0.37382815D-04
  0.76617029D-04  0.44272457D-04 -0.78300793D-04 -0.39925196D-04  0.58324976D-04
 -0.76953499D-04  0.14991898D-03 -0.19114235D-03  0.31185588D-03 -0.30143389D-04
  0.11914370D-04 -0.15331521D-04  0.30507454D-04  0.27574527D-04 -0.12938787D-04
  0.12241394D-05 -0.15260179D-04  0.58933348D-04 -0.92746501D-04 -0.67463401D-04
 -0.31361064D-04 -0.45230221D-05 -0.81574566D-05 -0.12028165D-04  0.20598723D-03
 -0.49575246D-04 -0.12543359D-05 -0.21079603D-05 -0.16456046D-04  0.26019631D-04
 -0.56607471D-04  0.16256225D-04  0.70116804D-04  0.18484494D-04  0.60937249D-06
  0.82124773D-06  0.24330008D-04 -0.32244994D-04  0.79149858D-05  0.35425156D-04
  0.19312864D-04  0.36775474D-04 -0.80648825D-05 -0.32176355D-05  0.11282518D-04
 -0.13939679D-04 -0.19006157D-04 -0.66298159D-05  0.14021282D-03  0.25287960D-03
  0.37287083D-03 -0.24796114D-03 -0.19856794D-03 -0.37141101D-04 -0.88169266D-03
 -0.24489566D-03 -0.47836456D-03 -0.64208566D-03 -0.19081467D-03 -0.27942806D-03
 -0.74389840D-04 -0.31769199D-05 -0.44400735D-04 -0.12204244D-02  0.73524402D-03
  0.48518039D-03 -0.13900304D-02 -0.21594196D-02 -0.63106519D-03 -0.40660228D-04
  0.25138846D-04  0.15521382D-04 -0.53745020D-04 -0.61581863D-04 -0.17185189D-04
 -0.23854908D-05 -0.43023309D-05 -0.63437844D-05  0.53126403D-03  0.57045629D-05
  0.35391758D-05 -0.44518279D-04  0.55868759D-04 -0.13936732D-03  0.54962519D-04
  0.12097200D-03 -0.20463046D-03  0.17325179D-05  0.15751978D-04  0.24890081D-04
 -0.52040468D-04  0.12624732D-04  0.39415736D-04 -0.46799579D-04 -0.49252915D-04
 -0.13890980D-03  0.12262517D-04 -0.43656729D-05 -0.78968445D-05  0.17542769D-04
  0.14115898D-04 -0.49061387D-04  0.26695695D-04  0.49757341D-04  0.84371963D-04
  0.12770090D-03  0.15933343D-03  0.13684617D-03  0.52537906D-04 -0.23500528D-06
 -0.17468591D-04 -0.32762775D-04 -0.55853349D-04 -0.87287913D-04 -0.11672057D-03
 -0.12463036D-03 -0.76196557D-04  0.50269861D-04 -0.28927058D-04 -0.16584997D-03
 -0.92778270D-05 -0.27773102D-04 -0.26930567D-04 -0.18167201D-04 -0.46990541D-04
 -0.45565018D-04 -0.30737892D-04  0.13547406D-04  0.13136427D-04  0.88617557D-05
  0.12047366D-04  0.34542650D-05 -0.70781344D-05 -0.22451120D-04  0.90316297D-04
 -0.17530295D-03 -0.21764909D-05  0.13112201D-04 -0.92926934D-05 -0.87911546D-05
 -0.65619027D-04  0.74410182D-04 -0.11271739D-03  0.25208271D-04  0.59705318D-04
  0.92474719D-05  0.20835629D-04 -0.30083101D-04  0.51677476D-04 -0.87937459D-05
 -0.66824819D-04 -0.24073055D-04  0.45762632D-04 -0.21689577D-04  0.81644222D-05
  0.27277215D-05 -0.49354279D-04  0.52427670D-04 -0.16445986D-04  0.58114968D-04
 -0.83193629D-04 -0.14417760D-04  0.42050047D-04 -0.74089380D-04  0.63755718D-04
 -0.21639495D-03  0.58631411D-04 -0.26092653D-04  0.11356135D-04 -0.92761479D-05
  0.49698658D-04  0.19632825D-05  0.41249722D-05  0.28579302D-04 -0.36031688D-04
  0.23703472D-04 -0.13951969D-05