 Molden2AIM, Version 4.0.0 (06/02/2016)           Time: Thu Jun 28 18:06:48 2018
GAUSSIAN             11 MOL ORBITALS    252 PRIMITIVES        4 NUCLEI
  C    1    (CENTRE  1)   0.00000000  0.00000000 -2.43893156  CHARGE =  6.0
  C    2    (CENTRE  2)   0.00000000  0.00000000 -0.16487482  CHARGE =  6.0
  H    3    (CENTRE  3)   0.00000000  0.00000000 -4.45953067  CHARGE =  1.0
  F    4    (CENTRE  4)   0.00000000  0.00000000  2.25075641  CHARGE =  9.0
CENTRE ASSIGNMENTS    1  1  1  1  1  1  1  1  1  1  1  1  1  1  1  1  1  1  1  1
CENTRE ASSIGNMENTS    1  1  1  1  1  1  1  1  1  1  1  1  1  1  1  1  1  1  1  1
CENTRE ASSIGNMENTS    1  1  1  1  1  1  1  1  1  1  1  1  1  1  1  1  1  1  1  1
CENTRE ASSIGNMENTS    1  1  1  1  1  1  1  1  1  1  1  1  1  1  1  2  2  2  2  2
CENTRE ASSIGNMENTS    2  2  2  2  2  2  2  2  2  2  2  2  2  2  2  2  2  2  2  2
CENTRE ASSIGNMENTS    2  2  2  2  2  2  2  2  2  2  2  2  2  2  2  2  2  2  2  2
CENTRE ASSIGNMENTS    2  2  2  2  2  2  2  2  2  2  2  2  2  2  2  2  2  2  2  2
CENTRE ASSIGNMENTS    2  2  2  2  2  2  2  2  2  2  3  3  3  3  3  3  3  3  3  3
CENTRE ASSIGNMENTS    3  3  3  3  3  3  3  3  3  3  3  3  3  3  3  3  3  4  4  4
CENTRE ASSIGNMENTS    4  4  4  4  4  4  4  4  4  4  4  4  4  4  4  4  4  4  4  4
CENTRE ASSIGNMENTS    4  4  4  4  4  4  4  4  4  4  4  4  4  4  4  4  4  4  4  4
CENTRE ASSIGNMENTS    4  4  4  4  4  4  4  4  4  4  4  4  4  4  4  4  4  4  4  4
CENTRE ASSIGNMENTS    4  4  4  4  4  4  4  4  4  4  4  4
TYPE ASSIGNMENTS      1  1  1  1  1  1  1  1  1  1  1  1  1  1  1  1  1  1  1  2
TYPE ASSIGNMENTS      2  2  3  3  3  4  4  4  2  3  4  2  3  4  2  3  4  5  6  7
TYPE ASSIGNMENTS      8  9 10  5  6  7  8  9 10  5  6  7  8  9 10 11 12 13 17 14
TYPE ASSIGNMENTS     15 18 19 16 20 11 12 13 17 14 15 18 19 16 20  1  1  1  1  1
TYPE ASSIGNMENTS      1  1  1  1  1  1  1  1  1  1  1  1  1  1  2  2  2  3  3  3
TYPE ASSIGNMENTS      4  4  4  2  3  4  2  3  4  2  3  4  5  6  7  8  9 10  5  6
TYPE ASSIGNMENTS      7  8  9 10  5  6  7  8  9 10 11 12 13 17 14 15 18 19 16 20
TYPE ASSIGNMENTS     11 12 13 17 14 15 18 19 16 20  1  1  1  1  1  1  2  3  4  2
TYPE ASSIGNMENTS      3  4  2  3  4  5  6  7  8  9 10  5  6  7  8  9 10  1  1  1
TYPE ASSIGNMENTS      1  1  1  1  1  1  1  1  1  1  1  1  1  1  1  1  2  2  2  3
TYPE ASSIGNMENTS      3  3  4  4  4  2  3  4  2  3  4  2  3  4  5  6  7  8  9 10
TYPE ASSIGNMENTS      5  6  7  8  9 10  5  6  7  8  9 10 11 12 13 17 14 15 18 19
TYPE ASSIGNMENTS     16 20 11 12 13 17 14 15 18 19 16 20
EXPONENTS  0.8236000D+04 0.1235000D+04 0.2808000D+03 0.7927000D+02 0.2559000D+02
EXPONENTS  0.8997000D+01 0.3319000D+01 0.3643000D+00 0.8236000D+04 0.1235000D+04
EXPONENTS  0.2808000D+03 0.7927000D+02 0.2559000D+02 0.8997000D+01 0.3319000D+01
EXPONENTS  0.3643000D+00 0.9059000D+00 0.1285000D+00 0.4402000D-01 0.1871000D+02
EXPONENTS  0.4133000D+01 0.1200000D+01 0.1871000D+02 0.4133000D+01 0.1200000D+01
EXPONENTS  0.1871000D+02 0.4133000D+01 0.1200000D+01 0.3827000D+00 0.3827000D+00
EXPONENTS  0.3827000D+00 0.1209000D+00 0.1209000D+00 0.1209000D+00 0.3569000D-01
EXPONENTS  0.3569000D-01 0.3569000D-01 0.1097000D+01 0.1097000D+01 0.1097000D+01
EXPONENTS  0.1097000D+01 0.1097000D+01 0.1097000D+01 0.3180000D+00 0.3180000D+00
EXPONENTS  0.3180000D+00 0.3180000D+00 0.3180000D+00 0.3180000D+00 0.1000000D+00
EXPONENTS  0.1000000D+00 0.1000000D+00 0.1000000D+00 0.1000000D+00 0.1000000D+00
EXPONENTS  0.7610000D+00 0.7610000D+00 0.7610000D+00 0.7610000D+00 0.7610000D+00
EXPONENTS  0.7610000D+00 0.7610000D+00 0.7610000D+00 0.7610000D+00 0.7610000D+00
EXPONENTS  0.2680000D+00 0.2680000D+00 0.2680000D+00 0.2680000D+00 0.2680000D+00
EXPONENTS  0.2680000D+00 0.2680000D+00 0.2680000D+00 0.2680000D+00 0.2680000D+00
EXPONENTS  0.8236000D+04 0.1235000D+04 0.2808000D+03 0.7927000D+02 0.2559000D+02
EXPONENTS  0.8997000D+01 0.3319000D+01 0.3643000D+00 0.8236000D+04 0.1235000D+04
EXPONENTS  0.2808000D+03 0.7927000D+02 0.2559000D+02 0.8997000D+01 0.3319000D+01
EXPONENTS  0.3643000D+00 0.9059000D+00 0.1285000D+00 0.4402000D-01 0.1871000D+02
EXPONENTS  0.4133000D+01 0.1200000D+01 0.1871000D+02 0.4133000D+01 0.1200000D+01
EXPONENTS  0.1871000D+02 0.4133000D+01 0.1200000D+01 0.3827000D+00 0.3827000D+00
EXPONENTS  0.3827000D+00 0.1209000D+00 0.1209000D+00 0.1209000D+00 0.3569000D-01
EXPONENTS  0.3569000D-01 0.3569000D-01 0.1097000D+01 0.1097000D+01 0.1097000D+01
EXPONENTS  0.1097000D+01 0.1097000D+01 0.1097000D+01 0.3180000D+00 0.3180000D+00
EXPONENTS  0.3180000D+00 0.3180000D+00 0.3180000D+00 0.3180000D+00 0.1000000D+00
EXPONENTS  0.1000000D+00 0.1000000D+00 0.1000000D+00 0.1000000D+00 0.1000000D+00
EXPONENTS  0.7610000D+00 0.7610000D+00 0.7610000D+00 0.7610000D+00 0.7610000D+00
EXPONENTS  0.7610000D+00 0.7610000D+00 0.7610000D+00 0.7610000D+00 0.7610000D+00
EXPONENTS  0.2680000D+00 0.2680000D+00 0.2680000D+00 0.2680000D+00 0.2680000D+00
EXPONENTS  0.2680000D+00 0.2680000D+00 0.2680000D+00 0.2680000D+00 0.2680000D+00
EXPONENTS  0.3387000D+02 0.5095000D+01 0.1159000D+01 0.3258000D+00 0.1027000D+00
EXPONENTS  0.2526000D-01 0.1407000D+01 0.1407000D+01 0.1407000D+01 0.3880000D+00
EXPONENTS  0.3880000D+00 0.3880000D+00 0.1020000D+00 0.1020000D+00 0.1020000D+00
EXPONENTS  0.1057000D+01 0.1057000D+01 0.1057000D+01 0.1057000D+01 0.1057000D+01
EXPONENTS  0.1057000D+01 0.2470000D+00 0.2470000D+00 0.2470000D+00 0.2470000D+00
EXPONENTS  0.2470000D+00 0.2470000D+00 0.1950000D+05 0.2923000D+04 0.6645000D+03
EXPONENTS  0.1875000D+03 0.6062000D+02 0.2142000D+02 0.7950000D+01 0.8815000D+00
EXPONENTS  0.1950000D+05 0.2923000D+04 0.6645000D+03 0.1875000D+03 0.6062000D+02
EXPONENTS  0.2142000D+02 0.7950000D+01 0.8815000D+00 0.2257000D+01 0.3041000D+00
EXPONENTS  0.9158000D-01 0.4388000D+02 0.9926000D+01 0.2930000D+01 0.4388000D+02
EXPONENTS  0.9926000D+01 0.2930000D+01 0.4388000D+02 0.9926000D+01 0.2930000D+01
EXPONENTS  0.9132000D+00 0.9132000D+00 0.9132000D+00 0.2672000D+00 0.2672000D+00
EXPONENTS  0.2672000D+00 0.7361000D-01 0.7361000D-01 0.7361000D-01 0.3107000D+01
EXPONENTS  0.3107000D+01 0.3107000D+01 0.3107000D+01 0.3107000D+01 0.3107000D+01
EXPONENTS  0.8550000D+00 0.8550000D+00 0.8550000D+00 0.8550000D+00 0.8550000D+00
EXPONENTS  0.8550000D+00 0.2920000D+00 0.2920000D+00 0.2920000D+00 0.2920000D+00
EXPONENTS  0.2920000D+00 0.2920000D+00 0.1917000D+01 0.1917000D+01 0.1917000D+01
EXPONENTS  0.1917000D+01 0.1917000D+01 0.1917000D+01 0.1917000D+01 0.1917000D+01
EXPONENTS  0.1917000D+01 0.1917000D+01 0.7240000D+00 0.7240000D+00 0.7240000D+00
EXPONENTS  0.7240000D+00 0.7240000D+00 0.7240000D+00 0.7240000D+00 0.7240000D+00
EXPONENTS  0.7240000D+00 0.7240000D+00
MO    1     MO 0.0        OCC NO =    2.0000000  ORB. ENERGY =  -24.591169
  0.40042418D-04  0.74648171D-04  0.12616856D-03  0.18967267D-03  0.23303479D-03
  0.19683513D-03  0.74238971D-04 -0.36741281D-06 -0.26009769D-04 -0.48698494D-04
 -0.82913352D-04 -0.12825435D-03 -0.16890647D-03 -0.17550464D-03 -0.11152532D-03
  0.74741675D-04 -0.15975598D-03  0.40327494D-04 -0.68126409D-03 -0.10461272D-15
 -0.98081071D-16 -0.69839566D-16 -0.48156349D-15 -0.45149639D-15 -0.32149232D-15
 -0.30546844D-04 -0.28639608D-04 -0.20393107D-04  0.53559481D-16 -0.40740537D-17
  0.18214993D-02 -0.23540580D-17 -0.11459227D-17 -0.52453293D-04  0.19078766D-20
 -0.53815853D-19 -0.72301035D-04 -0.11130113D-03 -0.11130113D-03  0.22260225D-03
 -0.37643664D-19  0.66738838D-17  0.29508648D-17 -0.17708719D-03 -0.17708719D-03
  0.35417438D-03  0.18303503D-19 -0.74541244D-17 -0.23911465D-17 -0.16306345D-04
 -0.16306345D-04  0.32612690D-04 -0.51932062D-20 -0.51007013D-19 -0.31893516D-18
  0.34231293D-18  0.44299521D-18  0.18733944D-03  0.34363649D-18  0.43652080D-18
 -0.28100917D-03 -0.13705753D-17 -0.17655064D-17 -0.28100917D-03 -0.47987991D-19
  0.60489771D-18  0.13360624D-18 -0.23685953D-05  0.60438506D-18  0.13480743D-18
  0.35528929D-05 -0.24190782D-17 -0.53562615D-18  0.35528929D-05  0.76091372D-20
  0.26479827D-03  0.49364418D-03  0.83434562D-03  0.12542948D-02  0.15410460D-02
  0.13016597D-02  0.49093816D-03 -0.24296804D-05 -0.18941938D-03 -0.35465284D-03
 -0.60382680D-03 -0.93402825D-03 -0.12300823D-02 -0.12781344D-02 -0.81219700D-03
  0.54431554D-03 -0.23379959D-03  0.11913683D-02  0.10671225D-02 -0.14193295D-18
 -0.13307116D-18 -0.94754597D-19 -0.23288080D-17 -0.21834055D-17 -0.15547148D-17
 -0.44004627D-03 -0.41257135D-03 -0.29377538D-03  0.95373080D-17  0.23344619D-17
  0.39998938D-02  0.13590430D-17  0.16136021D-17  0.82436336D-04 -0.46700131D-19
  0.52479994D-19 -0.39112300D-04 -0.38084152D-03 -0.38084152D-03  0.76168304D-03
 -0.16202777D-20  0.16370174D-17  0.58913821D-18 -0.16065506D-03 -0.16065506D-03
  0.32131012D-03  0.11693770D-20 -0.78832490D-17 -0.33445078D-17 -0.18728377D-04
 -0.18728377D-04  0.37456754D-04  0.82291362D-20 -0.90055835D-19 -0.18189266D-18
 -0.56541616D-19  0.86979837D-18  0.58396795D-03 -0.60709612D-19  0.87800377D-18
 -0.87595192D-03  0.23033446D-18 -0.34873989D-17 -0.87595192D-03 -0.19383976D-18
  0.14119014D-18 -0.14799898D-18 -0.32213081D-04  0.14228238D-18 -0.14999872D-18
  0.48319621D-04 -0.56585278D-18  0.59399566D-18  0.48319621D-04  0.33646917D-19
  0.18056685D-05  0.32565975D-05  0.48018511D-05  0.11344937D-03 -0.75971929D-04
 -0.71869293D-04  0.13906896D-18 -0.12223628D-18  0.74740082D-04  0.13638870D-17
  0.71924738D-18  0.50276182D-03  0.57643014D-18 -0.18673361D-18  0.73503285D-04
 -0.12004314D-03 -0.12004314D-03  0.24008629D-03 -0.32371975D-19  0.31627342D-17
  0.12751067D-17 -0.39397092D-04 -0.39397092D-04  0.78794185D-04  0.87435678D-20
 -0.10271117D-18  0.40551602D-19  0.59595685D+00  0.11108894D+01  0.18832306D+01
  0.28517662D+01  0.35661436D+01  0.30701175D+01  0.11802652D+01 -0.51142825D-02
 -0.41649874D-03 -0.78211087D-03 -0.13317999D-02 -0.20862567D-02 -0.27958294D-02
 -0.30072915D-02 -0.18055739D-02  0.11874213D-02  0.60522265D-01 -0.19432773D-02
 -0.11145506D-02 -0.22622763D-16 -0.22124568D-16 -0.14618638D-16 -0.40218164D-16
 -0.39332486D-16 -0.25988637D-16 -0.91974278D-02 -0.89948835D-02 -0.59432998D-02
  0.18323941D-17  0.45159331D-17  0.19730331D-02  0.64571662D-18 -0.25166109D-18
  0.18806252D-02  0.47487228D-19 -0.57133519D-19  0.10752426D-03 -0.51087226D-03
 -0.51087226D-03  0.10217445D-02 -0.20950850D-16 -0.10606415D-16  0.87979303D-17
  0.64298364D-03  0.64298364D-03 -0.12859673D-02  0.17290317D-17  0.20988641D-17
 -0.36007903D-17  0.22459862D-03  0.22459862D-03 -0.44919724D-03 -0.15036207D-18
 -0.10060640D-17 -0.10248633D-18  0.94548749D-18  0.31475010D-18 -0.24511170D-03
  0.13659831D-17 -0.14270130D-17  0.36766755D-03 -0.42024456D-17  0.48276272D-18
  0.36766755D-03  0.40298629D-18 -0.74059725D-18 -0.37504762D-18  0.47219561D-03
 -0.77109073D-18 -0.27888003D-18 -0.70829341D-03  0.29928825D-17  0.14040229D-17
 -0.70829341D-03  0.88627304D-19
MO    2     MO 0.0        OCC NO =    2.0000000  ORB. ENERGY =  -10.141606
  0.29109538D-02  0.54266797D-02  0.91720446D-02  0.13788587D-01  0.16940873D-01
  0.14309275D-01  0.53969322D-02 -0.26709719D-04  0.80781711D-03  0.15124885D-02
  0.25751411D-02  0.39833517D-02  0.52459341D-02  0.54508616D-02  0.34637778D-02
 -0.23213433D-02  0.26555144D-03 -0.50112051D-02  0.21670852D-02 -0.43570513D-15
 -0.40850125D-15 -0.29087723D-15  0.61971019D-15  0.58101769D-15  0.41371921D-15
  0.16867309D-02  0.15814174D-02  0.11260634D-02  0.12370898D-15  0.37792957D-16
 -0.10263999D-01 -0.38966589D-17  0.71329703D-18 -0.76412649D-02 -0.10525361D-18
  0.69881233D-19  0.13629296D-03  0.96259342D-03  0.96259342D-03 -0.19251868D-02
  0.19711043D-18  0.85250520D-17  0.13245071D-17  0.77851706D-03  0.77851706D-03
 -0.15570341D-02  0.25362152D-18 -0.10447495D-16 -0.68365394D-17  0.80221351D-04
  0.80221351D-04 -0.16044270D-03 -0.24052749D-20 -0.19196649D-18 -0.29884271D-18
  0.29848092D-17  0.77406676D-19 -0.13937693D-02  0.29595369D-17  0.15157386D-18
  0.20906540D-02 -0.11913965D-16 -0.38379389D-18  0.20906540D-02  0.12980475D-17
  0.21996295D-17 -0.65615377D-18 -0.51111636D-03  0.21976381D-17 -0.66110934D-18
  0.76667454D-03 -0.87965265D-17  0.26295706D-17  0.76667454D-03  0.16652126D-18
  0.32970196D+00  0.61463942D+00  0.10388489D+01  0.15617302D+01  0.19187660D+01
  0.16207046D+01  0.61127014D+00 -0.30252101D-02 -0.29085830D-02 -0.54457851D-02
 -0.92719150D-02 -0.14342243D-01 -0.18888229D-01 -0.19626080D-01 -0.12471493D-01
  0.83581044D-02  0.34820641D-01  0.10294261D-01 -0.28653614D-02  0.19678632D-16
  0.18449969D-16  0.13137477D-16 -0.50116324D-16 -0.46987240D-16 -0.33457714D-16
  0.70543986D-02  0.66139471D-02  0.47095244D-02  0.19989345D-16  0.50094198D-17
 -0.95723767D-02  0.57310214D-18  0.36291019D-18 -0.48203518D-02  0.90648685D-19
 -0.95431317D-20  0.14147399D-03 -0.34393982D-02 -0.34393982D-02  0.68787964D-02
 -0.20597855D-18 -0.75397231D-17 -0.29354273D-17  0.17895591D-03  0.17895591D-03
 -0.35791182D-03 -0.52432970D-18 -0.23134987D-16  0.93283008D-18  0.86885684D-04
  0.86885684D-04 -0.17377137D-03  0.11409772D-19 -0.10090015D-18 -0.24608008D-18
 -0.14393932D-17 -0.11606059D-17 -0.13182705D-02 -0.10372488D-17 -0.16729775D-17
  0.19774058D-02  0.53554284D-17  0.51547951D-17  0.19774058D-02 -0.90371964D-18
  0.10183688D-17 -0.39517489D-18 -0.34223148D-03  0.10104422D-17 -0.37300735D-18
  0.51334722D-03 -0.40655487D-17  0.15585320D-17  0.51334722D-03  0.18155085D-18
 -0.82370332D-04 -0.14855829D-03 -0.21904911D-03 -0.54181825D-02 -0.74365407D-02
  0.11139330D-03 -0.33634989D-17  0.42955030D-17 -0.15338082D-02  0.18085420D-16
 -0.11822501D-16 -0.23778584D-02  0.11562855D-17 -0.14486560D-17 -0.13976079D-02
  0.52473002D-03  0.52473002D-03 -0.10494600D-02  0.24127929D-18  0.15579321D-16
  0.59688276D-17  0.12619680D-03  0.12619680D-03 -0.25239359D-03  0.59576461D-19
  0.19020483D-17 -0.33897706D-17  0.48946706D-03  0.91238780D-03  0.15467216D-02
  0.23421924D-02  0.29289198D-02  0.25215271D-02  0.96936708D-03 -0.42004262D-05
 -0.37589112D-03 -0.70585694D-03 -0.12019526D-02 -0.18828517D-02 -0.25232428D-02
 -0.27140878D-02 -0.16295348D-02  0.10716506D-02 -0.73072250D-04  0.44901815D-02
  0.37782926D-02 -0.27340882D-17 -0.26738785D-17 -0.17667446D-17  0.30817652D-17
  0.30138991D-17  0.19914105D-17  0.71125601D-03  0.69559284D-03  0.45960760D-03
 -0.13105154D-17 -0.21345377D-17 -0.33482000D-02  0.10298668D-16 -0.23563000D-17
 -0.72122049D-03 -0.47305370D-19  0.17374777D-18 -0.34158883D-03 -0.11417688D-02
 -0.11417688D-02  0.22835375D-02 -0.53395075D-18 -0.73445243D-17 -0.96164257D-17
  0.57504865D-04  0.57504865D-04 -0.11500973D-03  0.16384809D-18  0.18435220D-17
  0.53118870D-17  0.17737547D-03  0.17737547D-03 -0.35475094D-03 -0.19012585D-19
 -0.77564783D-17  0.15673536D-17  0.46903231D-17  0.30254304D-18 -0.14927249D-02
  0.47623031D-17  0.58216292D-18  0.22390874D-02 -0.18833272D-16 -0.14897920D-17
  0.22390874D-02  0.97278680D-18 -0.21493313D-17  0.38420587D-18  0.11892725D-02
 -0.21635259D-17  0.38713326D-18 -0.17839088D-02  0.86115198D-17 -0.15397509D-17
 -0.17839088D-02 -0.49682715D-18
MO    3     MO 0.0        OCC NO =    2.0000000  ORB. ENERGY =  -10.059675
  0.32946729D+00  0.61420195D+00  0.10381095D+01  0.15606186D+01  0.19174003D+01
  0.16195510D+01  0.61083507D+00 -0.30230568D-02 -0.26961915D-02 -0.50481211D-02
 -0.85948581D-02 -0.13294939D-01 -0.17508966D-01 -0.18192938D-01 -0.11560795D-01
  0.77477761D-02  0.33955919D-01  0.82496392D-02 -0.48407499D-03 -0.12651688D-16
 -0.11861762D-16 -0.84462810D-17 -0.75584079D-18 -0.70864879D-18 -0.50460015D-18
  0.79165570D-03  0.74222754D-03  0.52851023D-03  0.56260069D-17 -0.39534711D-17
  0.46314544D-02  0.71893519D-18 -0.17140109D-18  0.45994325D-02  0.20840250D-19
 -0.14654827D-19  0.55395679D-04 -0.31977323D-02 -0.31977323D-02  0.63954646D-02
  0.31617753D-18  0.17869072D-17 -0.21388490D-17  0.89746554D-04  0.89746554D-04
 -0.17949311D-03  0.10469078D-18  0.16185986D-17 -0.18458425D-18  0.43048645D-04
  0.43048645D-04 -0.86097291D-04  0.53983772D-20  0.10581548D-18 -0.40342298D-20
 -0.86046248D-18 -0.14634910D-18  0.16990721D-03 -0.53944104D-18 -0.26555669D-18
 -0.25486081D-03  0.31208285D-17  0.70460398D-18 -0.25486081D-03 -0.41245113D-18
 -0.23600157D-18  0.10164412D-18  0.22222400D-03 -0.24159561D-18  0.11674768D-18
 -0.33333599D-03  0.94960031D-18 -0.42168005D-18 -0.33333599D-03  0.73872054D-19
 -0.50743068D-02 -0.94596615D-02 -0.15988494D-01 -0.24035944D-01 -0.29530935D-01
 -0.24943595D-01 -0.94078064D-02  0.46559759D-04  0.62618044D-03  0.11724074D-02
  0.19961238D-02  0.30877001D-02  0.40663924D-02  0.42252421D-02  0.26849517D-02
 -0.17993922D-02  0.18498997D-03 -0.10334510D-01 -0.12822785D-03  0.12470986D-17
  0.11692342D-17  0.83256439D-18 -0.58552309D-18 -0.54896511D-18 -0.39089586D-18
 -0.19370078D-02 -0.18160679D-02 -0.12931485D-02 -0.35617662D-17  0.16259214D-17
  0.58559880D-02 -0.61357880D-18  0.30502616D-18  0.52460657D-02 -0.19321681D-19
  0.10141034D-19 -0.33760214D-04  0.51360156D-03  0.51360156D-03 -0.10272031D-02
  0.39592079D-18  0.10842565D-17 -0.36898004D-18  0.95234733D-03  0.95234733D-03
 -0.19046947D-02 -0.59601478D-19  0.36534099D-17 -0.70001306D-18  0.72969798D-04
  0.72969798D-04 -0.14593960D-03 -0.60515910D-20  0.42341359D-19  0.46860182D-19
  0.49789576D-18 -0.69965269D-19  0.12820772D-02  0.45798606D-18  0.11492660D-19
 -0.19231158D-02 -0.19516733D-17  0.19840315D-18 -0.19231158D-02 -0.76222827D-18
  0.45195164D-19 -0.80014740D-19  0.41432721D-03  0.41616988D-19 -0.84912473D-19
 -0.62149081D-03 -0.17720248D-18  0.32495669D-18 -0.62149081D-03  0.11321192D-18
  0.11289863D-03  0.20361732D-03  0.30023363D-03  0.19783967D-02  0.40608471D-02
  0.10273193D-03  0.48240210D-19 -0.92057121D-18 -0.75742815D-03 -0.24079992D-17
  0.12770531D-17 -0.99392607D-03 -0.84813676D-19  0.10139530D-18  0.31004419D-03
  0.10909336D-02  0.10909336D-02 -0.21818671D-02  0.85652327D-20 -0.25572722D-17
  0.12054414D-19  0.12808768D-03  0.12808768D-03 -0.25617536D-03  0.65374787D-20
 -0.42809679D-18  0.27271045D-18 -0.19436749D-03 -0.36230941D-03 -0.61420353D-03
 -0.93008516D-03 -0.11630748D-02 -0.10012990D-02 -0.38493590D-03  0.16679903D-05
  0.12958784D-03  0.24334302D-03  0.41437120D-03  0.64911003D-03  0.86988380D-03
  0.93567731D-03  0.56177943D-03 -0.36944979D-03  0.27780144D-03 -0.18443153D-02
 -0.16946933D-02 -0.37946814D-18 -0.37111155D-18 -0.24520909D-18  0.14641541D-18
  0.14319108D-18  0.94612399D-19 -0.10884905D-02 -0.10645199D-02 -0.70337333D-03
  0.33401892D-18  0.23507612D-19  0.15112406D-02 -0.71148963D-18 -0.46846151D-18
  0.16915350D-03  0.29920708D-19 -0.59543916D-19  0.28349792D-03 -0.34993069D-03
 -0.34993069D-03  0.69986138D-03 -0.68755800D-20  0.73403853D-18 -0.18967865D-18
  0.52732476D-03  0.52732476D-03 -0.10546495D-02  0.52219730D-19 -0.47892505D-18
  0.74747741D-19 -0.14290390D-04 -0.14290390D-04  0.28580780D-04 -0.42486477D-19
  0.67920567D-18  0.20340771D-18 -0.63819619D-18  0.35002877D-19 -0.38851339D-03
 -0.80873392D-18 -0.19620723D-18  0.58277009D-03  0.27233225D-17  0.91198604D-19
  0.58277009D-03 -0.39854168D-19  0.13030629D-18  0.45240980D-19  0.39960033D-03
  0.14689974D-18  0.51239786D-19 -0.59940050D-03 -0.53781862D-18 -0.18696272D-18
 -0.59940050D-03 -0.29701913D-19
MO    4     MO 0.0        OCC NO =    2.0000000  ORB. ENERGY =   -1.281763
 -0.82506492D-03 -0.15381086D-02 -0.25996745D-02 -0.39081623D-02 -0.48016289D-02
 -0.40557432D-02 -0.15296771D-02  0.75704575D-05 -0.15115959D-06 -0.28301846D-06
 -0.48186314D-06 -0.74536900D-06 -0.98162475D-06 -0.10199710D-05 -0.64814578D-06
  0.43437223D-06  0.18686329D-02 -0.24245539D-01  0.80257868D-03  0.80256224D-16
  0.75245311D-16  0.53579144D-16  0.97345837D-16  0.91267910D-16  0.64988189D-16
  0.67455119D-02  0.63243462D-02  0.45033112D-02 -0.67436047D-16  0.37678611D-16
 -0.20314699D-01 -0.58609738D-18 -0.31011988D-16 -0.12967735D-01 -0.22419675D-17
  0.16031101D-17  0.52301719D-04  0.13378314D-02  0.13378314D-02 -0.26756628D-02
 -0.19845568D-15 -0.59962862D-16 -0.51119731D-15  0.13965421D-02  0.13965421D-02
 -0.27930841D-02 -0.92658979D-18  0.16089847D-16 -0.49105879D-16  0.19703180D-03
  0.19703180D-03 -0.39406360D-03 -0.15055781D-17 -0.52270778D-17 -0.59656787D-17
 -0.53374547D-17  0.12467121D-16 -0.33495929D-02 -0.48501515D-17  0.12645682D-16
  0.50243894D-02  0.20862516D-16 -0.50047045D-16  0.50243894D-02  0.11395893D-16
 -0.29302344D-17  0.23074764D-17 -0.12235930D-03 -0.32913346D-17  0.25379089D-17
  0.18353895D-03  0.12082038D-16 -0.94603382D-17  0.18353895D-03 -0.54469391D-17
 -0.40259010D-02 -0.75051948D-02 -0.12685101D-01 -0.19069862D-01 -0.23429529D-01
 -0.19789983D-01 -0.74640535D-02  0.36940017D-04 -0.15813504D-01 -0.29607869D-01
 -0.50409930D-01 -0.77976496D-01 -0.10269230D+00 -0.10670388D+00 -0.67805526D-01
  0.45441687D-01  0.22743421D-01  0.31758673D-01 -0.17428589D-02 -0.40756038D-16
 -0.38211376D-16 -0.27208776D-16 -0.18219415D-15 -0.17081860D-15 -0.12163302D-15
  0.15135333D+00  0.14190336D+00  0.10104365D+00 -0.44532703D-16  0.36019325D-16
  0.79454394D-02  0.18292164D-16  0.26237411D-16 -0.10551686D-01  0.56232921D-18
  0.24463155D-18  0.11643048D-03 -0.15768909D-01 -0.15768909D-01  0.31537818D-01
 -0.15153867D-16  0.58375734D-17  0.42537233D-16 -0.26015305D-02 -0.26015305D-02
  0.52030609D-02  0.12344198D-16  0.42768773D-16  0.14902847D-16  0.60437251D-04
  0.60437251D-04 -0.12087450D-03  0.62107906D-18 -0.30021989D-17 -0.14306229D-17
  0.90640145D-17 -0.31571676D-16  0.94992468D-03  0.84491473D-17 -0.30691492D-16
 -0.14248870D-02 -0.35641191D-16  0.12540652D-15 -0.14248870D-02  0.28589275D-16
 -0.21707668D-17 -0.90650792D-18  0.39920780D-03 -0.12400483D-17 -0.14738027D-17
 -0.59881170D-03  0.77523486D-17  0.41933265D-17 -0.59881170D-03 -0.45605931D-17
 -0.29157971D-04 -0.52587602D-04 -0.77540388D-04 -0.59881442D-02 -0.86563176D-02
  0.11437628D-03 -0.70894878D-17  0.30476771D-16 -0.29496805D-02 -0.25060073D-16
  0.27381128D-16 -0.56316898D-02 -0.71277105D-17 -0.48149578D-17 -0.18676204D-02
  0.13924849D-02  0.13924849D-02 -0.27849699D-02  0.60247140D-17 -0.21207309D-16
  0.57267020D-16  0.34575185D-03  0.34575185D-03 -0.69150370D-03  0.10900959D-17
 -0.39407715D-17 -0.11775752D-17 -0.29641773D-02 -0.55253549D-02 -0.93668349D-02
 -0.14184149D-01 -0.17737328D-01 -0.15270187D-01 -0.58704173D-02  0.25437479D-04
 -0.12638865D+00 -0.23733550D+00 -0.40414143D+00 -0.63308516D+00 -0.84840860D+00
 -0.91257784D+00 -0.54791054D+00  0.36032902D+00  0.20511985D+00  0.92174951D-01
  0.52463700D-02 -0.27201349D-15 -0.26602325D-15 -0.17577281D-15 -0.60895392D-15
 -0.59554364D-15 -0.39350086D-15 -0.38374499D+00 -0.37529422D+00 -0.24797276D+00
 -0.45107399D-16 -0.24148474D-15 -0.11038494D+00 -0.26956027D-16 -0.53722829D-16
 -0.85326490D-02 -0.45467035D-18 -0.45777798D-18 -0.36138206D-03 -0.13260906D-01
 -0.13260906D-01  0.26521813D-01  0.19568889D-15  0.51833646D-15 -0.23597313D-14
 -0.13281148D-01 -0.13281148D-01  0.26562297D-01  0.53845793D-16 -0.31185916D-16
  0.29404230D-15 -0.10812940D-04 -0.10812940D-04  0.21625880D-04 -0.59265221D-17
  0.15441774D-16  0.25043379D-16 -0.41644586D-16  0.15052473D-16 -0.85399553D-02
 -0.34886111D-16 -0.26758739D-16  0.12809933D-01  0.15981987D-15 -0.18398681D-16
  0.12809933D-01  0.12448125D-15  0.42633069D-17  0.17495285D-16 -0.43553478D-02
  0.23589254D-17  0.29165897D-16  0.65330216D-02 -0.15148846D-16 -0.81651751D-16
  0.65330216D-02 -0.10486699D-16
MO    5     MO 0.0        OCC NO =    2.0000000  ORB. ENERGY =   -0.726035
 -0.82318119D-02 -0.15345969D-01 -0.25937391D-01 -0.38992395D-01 -0.47906662D-01
 -0.40464835D-01 -0.15261847D-01  0.75531732D-04 -0.44667519D-01 -0.83631689D-01
 -0.14239011D+00 -0.22025584D+00 -0.29006920D+00 -0.30140048D+00 -0.19152647D+00
  0.12835659D+00  0.52832450D-01  0.63592394D-01  0.11892594D-01  0.35199691D-15
  0.33001948D-15  0.23499353D-15 -0.14454683D-14 -0.13552184D-14 -0.96499625D-15
  0.21037649D+00  0.19724133D+00  0.14044758D+00 -0.72445866D-16 -0.27237481D-15
 -0.86390846D-02 -0.56936661D-16 -0.46045153D-17  0.21529136D-03  0.25998876D-17
  0.10966553D-18  0.93530457D-03 -0.16521889D-01 -0.16521889D-01  0.33043778D-01
  0.25333387D-16 -0.63855690D-16  0.35284562D-15 -0.68600893D-02 -0.68600893D-02
  0.13720179D-01  0.11297385D-16  0.50930989D-16  0.15528226D-16 -0.43578205D-03
 -0.43578205D-03  0.87156410D-03  0.27730485D-18 -0.12689653D-16 -0.17068491D-16
 -0.60875971D-17 -0.45895677D-17 -0.25001297D-02 -0.56779636D-17  0.95371361D-17
  0.37501946D-02  0.23940755D-16  0.42315671D-17  0.37501946D-02  0.35517767D-16
 -0.11603831D-16 -0.80315670D-18 -0.72732590D-03 -0.11184536D-16 -0.33851467D-18
  0.10909888D-02  0.45996028D-16  0.27479848D-17  0.10909888D-02 -0.23738090D-18
 -0.80704478D-02 -0.15045150D-01 -0.25428953D-01 -0.38228046D-01 -0.46967572D-01
 -0.39671623D-01 -0.14962677D-01  0.74051121D-04 -0.44865370D-01 -0.84002128D-01
 -0.14302081D+00 -0.22123145D+00 -0.29135403D+00 -0.30273550D+00 -0.19237482D+00
  0.12892513D+00  0.59801304D-01 -0.35717614D-02 -0.13361607D-01 -0.24374492D-15
 -0.22852635D-15 -0.16272438D-15 -0.39287131D-15 -0.36834183D-15 -0.26228132D-15
 -0.22926806D+00 -0.21495338D+00 -0.15305961D+00 -0.18884377D-15 -0.13852353D-15
 -0.29710173D-01  0.53229485D-16  0.49826631D-16 -0.41744810D-02 -0.19922413D-17
 -0.46175430D-18  0.45721818D-03 -0.14922212D-01 -0.14922212D-01  0.29844425D-01
  0.36791094D-16  0.19059264D-16  0.75352949D-16 -0.25670877D-02 -0.25670877D-02
  0.51341754D-02  0.45496567D-17  0.16358740D-15  0.12774781D-16  0.21458131D-03
  0.21458131D-03 -0.42916263D-03 -0.41956042D-18 -0.13321621D-16 -0.46455560D-17
  0.17516762D-17  0.30016088D-16 -0.19078080D-02  0.42373942D-17  0.35955589D-16
  0.28617120D-02 -0.94924227D-17 -0.12600385D-15  0.28617120D-02 -0.77533076D-16
 -0.42425166D-17 -0.52739017D-17 -0.10256498D-02 -0.34736302D-17 -0.52984627D-17
  0.15384747D-02  0.16201180D-16  0.21120168D-16  0.15384747D-02  0.17244038D-17
  0.10793286D-01  0.19466135D-01  0.28702805D-01 -0.34148901D-01 -0.20900084D-01
  0.54717212D-03  0.49319171D-18 -0.50390774D-16  0.39190400D-02 -0.11062589D-15
 -0.26002125D-17 -0.31422662D-01 -0.17853778D-16 -0.22226417D-16 -0.43420490D-02
  0.42137416D-02  0.42137416D-02 -0.84274831D-02  0.65593114D-17 -0.54569615D-16
 -0.48540841D-16  0.14403467D-02  0.14403467D-02 -0.28806933D-02 -0.27098955D-17
 -0.21859924D-16 -0.28754680D-17  0.37703731D-03  0.70281389D-03  0.11914423D-02
  0.18041948D-02  0.22561519D-02  0.19423367D-02  0.74670513D-03 -0.32355955D-05
  0.24429149D-01  0.45873615D-01  0.78114855D-01  0.12236646D+00  0.16398545D+00
  0.17638846D+00  0.10590340D+00 -0.69646531D-01 -0.44120037D-01 -0.28374862D-01
  0.61805845D-02  0.23056725D-16  0.22548974D-16  0.14899060D-16 -0.87441254D-16
 -0.85515637D-16 -0.56503797D-16 -0.52596203D+00 -0.51437938D+00 -0.33987220D+00
 -0.25353420D-17  0.24282044D-16 -0.11732403D+00 -0.72812262D-16 -0.34604197D-16
 -0.81653670D-02  0.65011658D-17  0.97838456D-18 -0.44521649D-03 -0.11713901D-01
 -0.11713901D-01  0.23427803D-01 -0.49973231D-16 -0.15999160D-15  0.10157151D-14
 -0.23216506D-02 -0.23216506D-02  0.46433012D-02 -0.10117407D-16  0.40579526D-16
 -0.79795659D-16  0.90550682D-03  0.90550682D-03 -0.18110136D-02  0.35988749D-17
  0.55080408D-16  0.21358918D-16 -0.56589629D-17 -0.48878748D-17 -0.52588002D-02
 -0.99380372D-17  0.27018854D-16  0.78882003D-02  0.26914926D-16 -0.12355230D-16
  0.78882003D-02 -0.35114231D-16  0.11494953D-16 -0.62622299D-17  0.66389966D-03
  0.11202892D-16 -0.97140001D-17 -0.99584949D-03 -0.45687752D-16  0.28500690D-16
 -0.99584949D-03 -0.23554315D-16
MO    6     MO 0.0        OCC NO =    2.0000000  ORB. ENERGY =   -0.599754
 -0.26410709D-02 -0.49235566D-02 -0.83216780D-02 -0.12510208D-01 -0.15370236D-01
 -0.12982621D-01 -0.48965671D-02  0.24233384D-04 -0.25408118D-01 -0.47572014D-01
 -0.80995424D-01 -0.12528761D+00 -0.16499937D+00 -0.17144491D+00 -0.10894555D+00
  0.73012772D-01  0.28845229D-01  0.11536433D+00 -0.20511244D-02 -0.52645943D-15
 -0.49358918D-15 -0.35146490D-15 -0.59165723D-15 -0.55471626D-15 -0.39499102D-15
  0.95279687D-02  0.89330763D-02  0.63608825D-02 -0.42336654D-15  0.51473998D-17
  0.13020859D-01 -0.75283678D-16  0.68623756D-17  0.28417086D-01 -0.36500100D-17
  0.38283112D-17 -0.68881524D-03 -0.90200847D-02 -0.90200847D-02  0.18040169D-01
 -0.14486402D-15 -0.15654170D-15 -0.43537505D-15 -0.64792751D-02 -0.64792751D-02
  0.12958550D-01 -0.33994793D-17 -0.71242587D-16  0.11368906D-16 -0.92148371D-03
 -0.92148371D-03  0.18429674D-02 -0.42643114D-17 -0.12882117D-16  0.29758133D-16
  0.15694236D-17 -0.32268201D-17  0.28176658D-02  0.27277609D-17  0.35300627D-17
 -0.42264986D-02 -0.74360316D-17  0.61503976D-17 -0.42264986D-02  0.61443056D-18
 -0.79118704D-17  0.28948273D-17 -0.70968481D-03 -0.73741271D-17  0.27874763D-17
  0.10645272D-02  0.31109738D-16 -0.11471958D-16  0.10645272D-02 -0.10911105D-17
  0.19591328D-02  0.36522689D-02  0.61729779D-02  0.92800078D-02  0.11401562D-01
  0.96304416D-02  0.36322482D-02 -0.17976199D-04  0.16427504D-01  0.30757470D-01
  0.52367225D-01  0.81004135D-01  0.10667960D+00  0.11084693D+00  0.70438250D-01
 -0.47206077D-01 -0.25515463D-01 -0.10264559D+00  0.71785930D-02 -0.80412624D-15
 -0.75391947D-15 -0.53683557D-15 -0.23092681D-15 -0.21650856D-15 -0.15416699D-15
 -0.36360622D+00 -0.34090395D+00 -0.24274392D+00 -0.21429917D-15 -0.17445471D-16
 -0.36639842D-01  0.62659580D-16 -0.98488017D-16  0.25899561D-01 -0.18323795D-17
 -0.17058618D-17 -0.26936404D-03  0.72851105D-02  0.72851105D-02 -0.14570221D-01
  0.29788557D-17  0.68843130D-16  0.18617422D-15  0.47295488D-02  0.47295488D-02
 -0.94590976D-02 -0.30124183D-17  0.58360887D-16 -0.80335778D-18  0.51164436D-03
  0.51164436D-03 -0.10232887D-02  0.85910008D-18 -0.20905375D-16  0.12070566D-16
  0.22932160D-16  0.35235821D-17 -0.73205692D-03  0.20444177D-16  0.51970699D-17
  0.10980854D-02 -0.89240658D-16 -0.15767816D-16  0.10980854D-02 -0.55636545D-16
 -0.91850247D-17  0.97440995D-17 -0.16514596D-02 -0.97188877D-17  0.10486558D-16
  0.24771894D-02  0.37273962D-16 -0.39718856D-16  0.24771894D-02 -0.23001143D-18
  0.12730895D-01  0.22960694D-01  0.33855530D-01 -0.31658985D-02  0.66348682D-02