 Molden2AIM, Version 4.0.0 (06/02/2016)           Time: Thu Jun 28 18:13:18 2018
GAUSSIAN             11 MOL ORBITALS    252 PRIMITIVES        4 NUCLEI
  C    1    (CENTRE  1)   0.00101856  0.08443296  0.00000000  CHARGE =  6.0
  O    2    (CENTRE  2)  -0.93354549  2.08332290  0.00000000  CHARGE =  8.0
  N    3    (CENTRE  3)   0.69812908 -2.11044236  0.00000000  CHARGE =  7.0
  H    4    (CENTRE  4)   2.53854280 -2.61494821  0.00000000  CHARGE =  1.0
CENTRE ASSIGNMENTS    1  1  1  1  1  1  1  1  1  1  1  1  1  1  1  1  1  1  1  1
CENTRE ASSIGNMENTS    1  1  1  1  1  1  1  1  1  1  1  1  1  1  1  1  1  1  1  1
CENTRE ASSIGNMENTS    1  1  1  1  1  1  1  1  1  1  1  1  1  1  1  1  1  1  1  1
CENTRE ASSIGNMENTS    1  1  1  1  1  1  1  1  1  1  1  1  1  1  1  2  2  2  2  2
CENTRE ASSIGNMENTS    2  2  2  2  2  2  2  2  2  2  2  2  2  2  2  2  2  2  2  2
CENTRE ASSIGNMENTS    2  2  2  2  2  2  2  2  2  2  2  2  2  2  2  2  2  2  2  2
CENTRE ASSIGNMENTS    2  2  2  2  2  2  2  2  2  2  2  2  2  2  2  2  2  2  2  2
CENTRE ASSIGNMENTS    2  2  2  2  2  2  2  2  2  2  3  3  3  3  3  3  3  3  3  3
CENTRE ASSIGNMENTS    3  3  3  3  3  3  3  3  3  3  3  3  3  3  3  3  3  3  3  3
CENTRE ASSIGNMENTS    3  3  3  3  3  3  3  3  3  3  3  3  3  3  3  3  3  3  3  3
CENTRE ASSIGNMENTS    3  3  3  3  3  3  3  3  3  3  3  3  3  3  3  3  3  3  3  3
CENTRE ASSIGNMENTS    3  3  3  3  3  4  4  4  4  4  4  4  4  4  4  4  4  4  4  4
CENTRE ASSIGNMENTS    4  4  4  4  4  4  4  4  4  4  4  4
TYPE ASSIGNMENTS      1  1  1  1  1  1  1  1  1  1  1  1  1  1  1  1  1  1  1  2
TYPE ASSIGNMENTS      2  2  3  3  3  4  4  4  2  3  4  2  3  4  2  3  4  5  6  7
TYPE ASSIGNMENTS      8  9 10  5  6  7  8  9 10  5  6  7  8  9 10 11 12 13 17 14
TYPE ASSIGNMENTS     15 18 19 16 20 11 12 13 17 14 15 18 19 16 20  1  1  1  1  1
TYPE ASSIGNMENTS      1  1  1  1  1  1  1  1  1  1  1  1  1  1  2  2  2  3  3  3
TYPE ASSIGNMENTS      4  4  4  2  3  4  2  3  4  2  3  4  5  6  7  8  9 10  5  6
TYPE ASSIGNMENTS      7  8  9 10  5  6  7  8  9 10 11 12 13 17 14 15 18 19 16 20
TYPE ASSIGNMENTS     11 12 13 17 14 15 18 19 16 20  1  1  1  1  1  1  1  1  1  1
TYPE ASSIGNMENTS      1  1  1  1  1  1  1  1  1  2  2  2  3  3  3  4  4  4  2  3
TYPE ASSIGNMENTS      4  2  3  4  2  3  4  5  6  7  8  9 10  5  6  7  8  9 10  5
TYPE ASSIGNMENTS      6  7  8  9 10 11 12 13 17 14 15 18 19 16 20 11 12 13 17 14
TYPE ASSIGNMENTS     15 18 19 16 20  1  1  1  1  1  1  2  3  4  2  3  4  2  3  4
TYPE ASSIGNMENTS      5  6  7  8  9 10  5  6  7  8  9 10
EXPONENTS  0.8236000D+04 0.1235000D+04 0.2808000D+03 0.7927000D+02 0.2559000D+02
EXPONENTS  0.8997000D+01 0.3319000D+01 0.3643000D+00 0.8236000D+04 0.1235000D+04
EXPONENTS  0.2808000D+03 0.7927000D+02 0.2559000D+02 0.8997000D+01 0.3319000D+01
EXPONENTS  0.3643000D+00 0.9059000D+00 0.1285000D+00 0.4402000D-01 0.1871000D+02
EXPONENTS  0.4133000D+01 0.1200000D+01 0.1871000D+02 0.4133000D+01 0.1200000D+01
EXPONENTS  0.1871000D+02 0.4133000D+01 0.1200000D+01 0.3827000D+00 0.3827000D+00
EXPONENTS  0.3827000D+00 0.1209000D+00 0.1209000D+00 0.1209000D+00 0.3569000D-01
EXPONENTS  0.3569000D-01 0.3569000D-01 0.1097000D+01 0.1097000D+01 0.1097000D+01
EXPONENTS  0.1097000D+01 0.1097000D+01 0.1097000D+01 0.3180000D+00 0.3180000D+00
EXPONENTS  0.3180000D+00 0.3180000D+00 0.3180000D+00 0.3180000D+00 0.1000000D+00
EXPONENTS  0.1000000D+00 0.1000000D+00 0.1000000D+00 0.1000000D+00 0.1000000D+00
EXPONENTS  0.7610000D+00 0.7610000D+00 0.7610000D+00 0.7610000D+00 0.7610000D+00
EXPONENTS  0.7610000D+00 0.7610000D+00 0.7610000D+00 0.7610000D+00 0.7610000D+00
EXPONENTS  0.2680000D+00 0.2680000D+00 0.2680000D+00 0.2680000D+00 0.2680000D+00
EXPONENTS  0.2680000D+00 0.2680000D+00 0.2680000D+00 0.2680000D+00 0.2680000D+00
EXPONENTS  0.1533000D+05 0.2299000D+04 0.5224000D+03 0.1473000D+03 0.4755000D+02
EXPONENTS  0.1676000D+02 0.6207000D+01 0.6882000D+00 0.1533000D+05 0.2299000D+04
EXPONENTS  0.5224000D+03 0.1473000D+03 0.4755000D+02 0.1676000D+02 0.6207000D+01
EXPONENTS  0.6882000D+00 0.1752000D+01 0.2384000D+00 0.7376000D-01 0.3446000D+02
EXPONENTS  0.7749000D+01 0.2280000D+01 0.3446000D+02 0.7749000D+01 0.2280000D+01
EXPONENTS  0.3446000D+02 0.7749000D+01 0.2280000D+01 0.7156000D+00 0.7156000D+00
EXPONENTS  0.7156000D+00 0.2140000D+00 0.2140000D+00 0.2140000D+00 0.5974000D-01
EXPONENTS  0.5974000D-01 0.5974000D-01 0.2314000D+01 0.2314000D+01 0.2314000D+01
EXPONENTS  0.2314000D+01 0.2314000D+01 0.2314000D+01 0.6450000D+00 0.6450000D+00
EXPONENTS  0.6450000D+00 0.6450000D+00 0.6450000D+00 0.6450000D+00 0.2140000D+00
EXPONENTS  0.2140000D+00 0.2140000D+00 0.2140000D+00 0.2140000D+00 0.2140000D+00
EXPONENTS  0.1428000D+01 0.1428000D+01 0.1428000D+01 0.1428000D+01 0.1428000D+01
EXPONENTS  0.1428000D+01 0.1428000D+01 0.1428000D+01 0.1428000D+01 0.1428000D+01
EXPONENTS  0.5000000D+00 0.5000000D+00 0.5000000D+00 0.5000000D+00 0.5000000D+00
EXPONENTS  0.5000000D+00 0.5000000D+00 0.5000000D+00 0.5000000D+00 0.5000000D+00
EXPONENTS  0.1142000D+05 0.1712000D+04 0.3893000D+03 0.1100000D+03 0.3557000D+02
EXPONENTS  0.1254000D+02 0.4644000D+01 0.5118000D+00 0.1142000D+05 0.1712000D+04
EXPONENTS  0.3893000D+03 0.1100000D+03 0.3557000D+02 0.1254000D+02 0.4644000D+01
EXPONENTS  0.5118000D+00 0.1293000D+01 0.1787000D+00 0.5760000D-01 0.2663000D+02
EXPONENTS  0.5948000D+01 0.1742000D+01 0.2663000D+02 0.5948000D+01 0.1742000D+01
EXPONENTS  0.2663000D+02 0.5948000D+01 0.1742000D+01 0.5550000D+00 0.5550000D+00
EXPONENTS  0.5550000D+00 0.1725000D+00 0.1725000D+00 0.1725000D+00 0.4910000D-01
EXPONENTS  0.4910000D-01 0.4910000D-01 0.1654000D+01 0.1654000D+01 0.1654000D+01
EXPONENTS  0.1654000D+01 0.1654000D+01 0.1654000D+01 0.4690000D+00 0.4690000D+00
EXPONENTS  0.4690000D+00 0.4690000D+00 0.4690000D+00 0.4690000D+00 0.1510000D+00
EXPONENTS  0.1510000D+00 0.1510000D+00 0.1510000D+00 0.1510000D+00 0.1510000D+00
EXPONENTS  0.1093000D+01 0.1093000D+01 0.1093000D+01 0.1093000D+01 0.1093000D+01
EXPONENTS  0.1093000D+01 0.1093000D+01 0.1093000D+01 0.1093000D+01 0.1093000D+01
EXPONENTS  0.3640000D+00 0.3640000D+00 0.3640000D+00 0.3640000D+00 0.3640000D+00
EXPONENTS  0.3640000D+00 0.3640000D+00 0.3640000D+00 0.3640000D+00 0.3640000D+00
EXPONENTS  0.3387000D+02 0.5095000D+01 0.1159000D+01 0.3258000D+00 0.1027000D+00
EXPONENTS  0.2526000D-01 0.1407000D+01 0.1407000D+01 0.1407000D+01 0.3880000D+00
EXPONENTS  0.3880000D+00 0.3880000D+00 0.1020000D+00 0.1020000D+00 0.1020000D+00
EXPONENTS  0.1057000D+01 0.1057000D+01 0.1057000D+01 0.1057000D+01 0.1057000D+01
EXPONENTS  0.1057000D+01 0.2470000D+00 0.2470000D+00 0.2470000D+00 0.2470000D+00
EXPONENTS  0.2470000D+00 0.2470000D+00
MO    1     MO 0.0        OCC NO =    2.0000000  ORB. ENERGY =  -19.028012
  0.30154025D-03  0.56213959D-03  0.95011493D-03  0.14283340D-02  0.17548733D-02
  0.14822710D-02  0.55905810D-03 -0.27668097D-05 -0.22419562D-03 -0.41976493D-03
 -0.71468571D-03 -0.11055101D-02 -0.14559179D-02 -0.15127920D-02 -0.96131140D-03
  0.64424855D-03  0.89748420D-03 -0.59392941D-03  0.14750235D-04 -0.10226844D-02
 -0.95883161D-03 -0.68274523D-03  0.18185086D-02  0.17049674D-02  0.12140384D-02
  0.59584035D-16  0.55863820D-16  0.39778368D-16  0.12205204D-02 -0.21755043D-02
  0.23435123D-17  0.28254699D-03 -0.57976411D-03  0.31029200D-18  0.36822301D-05
 -0.55060402D-05  0.23637057D-19  0.24090814D-07 -0.12593007D-03  0.12590598D-03
  0.21340689D-03 -0.12603030D-17  0.21409891D-17  0.17871760D-03 -0.35278510D-03
  0.17406750D-03  0.10453394D-03 -0.18419992D-18  0.35126553D-18  0.66962035D-05
 -0.18127047D-04  0.11430844D-04  0.25667537D-04  0.42995624D-19 -0.86658043D-19
 -0.74929390D-03 -0.72868553D-03 -0.91544011D-18  0.32289556D-02  0.16385217D-03
 -0.30486891D-18 -0.98107393D-03  0.20222044D-02  0.30511893D-17 -0.33181108D-17
 -0.80877177D-04 -0.70285691D-04 -0.78603075D-19  0.36360684D-03 -0.12270547D-04
  0.10192525D-18 -0.12097531D-03  0.22312762D-03  0.13388398D-18 -0.54328557D-18
  0.49944316D+00  0.93089779D+00  0.15784942D+01  0.23891245D+01  0.29809298D+01
  0.25602212D+01  0.98291869D+00 -0.43966556D-02 -0.11115550D-02 -0.20847489D-02
 -0.35540398D-02 -0.55542724D-02 -0.74271205D-02 -0.79304332D-02 -0.48485113D-02
  0.31987533D-02  0.49648534D-01  0.13439267D-02  0.13195082D-03  0.33100217D-02
  0.32096076D-02  0.21651823D-02 -0.70765841D-02 -0.68619062D-02 -0.46290014D-02
  0.44073565D-16  0.42736532D-16  0.28829812D-16  0.80523896D-03 -0.17742596D-02
 -0.52237781D-17 -0.13653586D-03  0.45905477D-03 -0.20566682D-18 -0.22192669D-05
  0.56951379D-05 -0.80564004D-20 -0.10267514D-02  0.28412864D-02 -0.18145350D-02
 -0.43226799D-02  0.36978311D-17 -0.10238807D-16  0.21391204D-04 -0.46932931D-04
  0.25541727D-04 -0.27913577D-05 -0.14740230D-17  0.39195070D-17  0.66014178D-04
 -0.16771307D-03  0.10169889D-03  0.19923960D-03  0.54563507D-19  0.13273331D-18
 -0.35510262D-03 -0.43811975D-03  0.42976704D-18  0.14618727D-02  0.36097677D-03
  0.35552734D-18 -0.39656485D-03  0.95338248D-03 -0.16448285D-17  0.35079697D-17
  0.85154750D-04  0.12024960D-03  0.26269405D-18 -0.37426976D-03 -0.81828559D-04
  0.14626523D-18  0.11880551D-03 -0.27892023D-03 -0.93434737D-18  0.81954451D-18
 -0.50537541D-03 -0.94169267D-03 -0.15926384D-02 -0.23984252D-02 -0.29694059D-02
 -0.25268304D-02 -0.96150560D-03  0.45031409D-05  0.36408874D-03  0.68266979D-03
  0.11614244D-02  0.18035695D-02  0.23934416D-02  0.25223589D-02  0.15640235D-02
 -0.10403890D-02 -0.24622236D-03  0.40586166D-03 -0.67130813D-04  0.87409917D-05
  0.83956180D-05  0.58875869D-05 -0.45346763D-04 -0.43555024D-04 -0.30543789D-04
 -0.23764611D-18 -0.22825625D-18 -0.16006904D-18  0.86915325D-03 -0.19887880D-02
 -0.43396074D-18 -0.25147164D-04  0.16483097D-03 -0.48742717D-18 -0.34215332D-05
 -0.20586804D-05 -0.47651150D-19  0.54046025D-03 -0.12103503D-02  0.66989001D-03
  0.99283662D-03  0.83988210D-18  0.46316403D-18  0.63015825D-03 -0.60577001D-03
 -0.24388234D-04 -0.48178129D-03  0.22582227D-18 -0.13817617D-17 -0.12393975D-04
  0.34815246D-04 -0.22421272D-04 -0.20595322D-04 -0.21683499D-19 -0.11762169D-18
  0.14919845D-03 -0.43993390D-03  0.54316073D-18 -0.29067246D-03  0.65498523D-03
  0.27104076D-18 -0.15692291D-03  0.66481646D-03 -0.19005230D-17  0.14089421D-17
  0.89861647D-05 -0.49727988D-04  0.10837640D-19 -0.41890123D-05  0.11411809D-03
  0.16967181D-18 -0.22769482D-04  0.35065878D-04 -0.20218473D-18 -0.98182249D-19
 -0.42925089D-05 -0.77417166D-05 -0.11415157D-04 -0.99827353D-03 -0.14474130D-03
 -0.49434960D-05  0.21707610D-03 -0.92445589D-05  0.88240196D-19  0.82589058D-03
 -0.42295316D-03 -0.36158639D-18  0.51856404D-04 -0.40579117D-04 -0.75603712D-20
 -0.29405607D-03  0.10757219D-03  0.18648388D-03  0.35599291D-03  0.15727519D-18
  0.16022633D-18 -0.51723693D-04  0.48231101D-05  0.46900583D-04  0.70541974D-04
  0.84556065D-19 -0.97176122D-19
MO    2     MO 0.0        OCC NO =    2.0000000  ORB. ENERGY =  -14.202096
  0.70999840D-04  0.13235984D-03  0.22371145D-03  0.33631159D-03  0.41319765D-03
  0.34901147D-03  0.13163429D-03 -0.65146542D-06 -0.51936118D-04 -0.97240801D-04
 -0.16556078D-03 -0.25609736D-03 -0.33727121D-03 -0.35044639D-03 -0.22269295D-03
  0.14924364D-03  0.11802174D-02 -0.14787704D-02  0.17230634D-04  0.54951539D-03
  0.51520561D-03  0.36685709D-03 -0.22211782D-02 -0.20824958D-02 -0.14828611D-02
  0.23152628D-15  0.21707061D-15  0.15456720D-15 -0.19958744D-02  0.61027283D-02
  0.35866100D-18 -0.51155630D-03  0.13150097D-02 -0.10533625D-17  0.22010393D-05
 -0.78234507D-05 -0.17331191D-18  0.39085977D-03 -0.78709976D-03  0.39623999D-03
  0.53957794D-03  0.29351309D-17 -0.54639542D-17  0.33985094D-03 -0.83978087D-03
  0.49992993D-03  0.51823539D-03 -0.27431876D-17  0.80911004D-17  0.30939646D-04
 -0.74712709D-04  0.43773063D-04  0.82439210D-04 -0.34569713D-18  0.74472984D-18
  0.93731986D-03  0.16805302D-02  0.12905505D-17 -0.39260320D-02 -0.16709957D-02
  0.89537873D-18  0.11140725D-02 -0.33705950D-02 -0.47670303D-17  0.24482645D-17
  0.22043621D-04  0.12254835D-03 -0.98565788D-19 -0.11747358D-03 -0.10206991D-03
 -0.72313045D-18  0.51342716D-04 -0.26557513D-03  0.10188278D-17  0.12050508D-17
 -0.64408917D-03 -0.12004993D-02 -0.20356491D-02 -0.30810498D-02 -0.38442505D-02
 -0.33016985D-02 -0.12675863D-02  0.56699911D-05  0.45312851D-03  0.84985375D-03
  0.14488143D-02  0.22642148D-02  0.30276866D-02  0.32328634D-02  0.19765093D-02
 -0.13039808D-02  0.14047893D-03 -0.16856829D-02 -0.46558159D-03  0.58140983D-03
  0.56377196D-03  0.38031723D-03 -0.26514792D-03 -0.25710429D-03 -0.17344104D-03
  0.80343492D-18  0.77906161D-18  0.52555036D-18 -0.17026670D-02  0.24872851D-02
 -0.31055388D-18 -0.31333280D-03  0.67519760D-03 -0.40601725D-17 -0.24160768D-04
  0.74607689D-04 -0.67012150D-19  0.25196018D-03 -0.65472329D-03  0.40276311D-03
  0.13419484D-02  0.51815347D-17  0.20840589D-17  0.13810567D-04 -0.63718496D-03
  0.62337439D-03  0.15976793D-02 -0.17948461D-17 -0.10676029D-17  0.17651871D-04
 -0.79064630D-04  0.61412759D-04  0.48278957D-04 -0.15344050D-17  0.12738696D-17
  0.28022021D-03 -0.20101481D-03  0.36168058D-18 -0.12527165D-02  0.10381761D-02
  0.34644611D-17  0.41205590D-03 -0.43513164D-03 -0.45495029D-17 -0.86103734D-17
  0.19817110D-04  0.68571770D-04 -0.16964078D-18 -0.19256246D-03 -0.87006352D-05
 -0.11817790D-17  0.13311113D-03 -0.19701467D-03  0.16907014D-17  0.75955674D-18
  0.41356880D+00  0.77062456D+00  0.13033193D+01  0.19627267D+01  0.24299829D+01
  0.20678058D+01  0.78683826D+00 -0.36850993D-02 -0.20399796D-02 -0.38249809D-02
 -0.65074306D-02 -0.10105353D-01 -0.13410391D-01 -0.14132711D-01 -0.87631824D-02
  0.58292723D-02  0.39375539D-01  0.44060758D-02  0.38666785D-04  0.27751908D-02
  0.26655376D-02  0.18692590D-02  0.45386393D-02  0.43593088D-02  0.30570482D-02
  0.12943190D-16  0.12431779D-16  0.87180215D-17 -0.33347854D-04  0.37032875D-02
 -0.37543090D-18 -0.19954137D-03  0.38367975D-03  0.51225362D-17 -0.53500430D-05
 -0.14276933D-05  0.34058800D-18  0.29966966D-03  0.30614382D-02 -0.33611079D-02
 -0.51802078D-02 -0.24587130D-17 -0.19168130D-16  0.10434187D-03  0.46225529D-03
 -0.56659716D-03 -0.11301503D-02  0.18098518D-18  0.78377929D-17  0.32984082D-05
 -0.58651722D-04  0.55353314D-04  0.14374791D-03  0.50748583D-20  0.15234131D-17
  0.12210458D-02  0.10944440D-02 -0.80877356D-18 -0.28393300D-02 -0.21192670D-02
  0.13247582D-17 -0.82380735D-03 -0.11640649D-02  0.11015625D-17 -0.17719744D-17
 -0.15233868D-03 -0.10203880D-03 -0.47317765D-18  0.34271137D-03  0.26622667D-03
 -0.37668195D-18  0.11430466D-03  0.39889736D-04  0.17962149D-17 -0.10728496D-17
  0.90404266D-04  0.16304782D-03  0.24041391D-03 -0.12727150D-02  0.14601971D-03
 -0.10208738D-04  0.15570104D-02 -0.62757878D-03  0.10026006D-18  0.15550691D-02
 -0.20360145D-03 -0.23923578D-18  0.28152305D-04 -0.26030279D-05 -0.42282566D-19
 -0.19164466D-02  0.72953403D-03  0.11869126D-02  0.17747572D-02  0.14982689D-17
 -0.71205344D-18 -0.13750553D-03  0.80114592D-04  0.57390936D-04 -0.42046786D-05
  0.52266313D-19  0.19879525D-18
MO    3     MO 0.0        OCC NO =    2.0000000  ORB. ENERGY =  -10.186602
  0.32960310D+00  0.61445512D+00  0.10385374D+01  0.15612619D+01  0.19181906D+01
  0.16202186D+01  0.61108685D+00 -0.30243029D-02 -0.28560155D-02 -0.53473622D-02
 -0.91043416D-02 -0.14083032D-01 -0.18546858D-01 -0.19271373D-01 -0.12246093D-01
  0.82070465D-02  0.34899047D-01  0.52615980D-02  0.13811107D-02 -0.10565259D-02
 -0.99056018D-03 -0.70533786D-03  0.69176577D-03  0.64857438D-03  0.46182360D-03
  0.34471249D-16  0.32318987D-16  0.23013044D-16 -0.84798043D-03 -0.98724985D-03
 -0.37577387D-17  0.22236359D-03 -0.97866152D-03 -0.51591488D-18  0.39458989D-04
 -0.81741481D-04  0.13724940D-19 -0.22727080D-02  0.62830680D-02 -0.40103600D-02
 -0.81426221D-02 -0.10167698D-17  0.33963086D-17 -0.61234197D-04 -0.12679901D-03
  0.18803320D-03  0.62609668D-03 -0.48602640D-18  0.60857607D-18  0.17436128D-04
 -0.30875637D-04  0.13439509D-04  0.49286862D-04 -0.29786214D-20 -0.10425250D-19
  0.14420766D-03 -0.33087322D-03 -0.96568664D-19 -0.95761381D-03  0.12378460D-02
 -0.11007443D-17  0.52499083D-03 -0.24522633D-03  0.13904503D-17 -0.79956338D-18
 -0.94812845D-05 -0.71514514D-05  0.21588460D-18  0.47072057D-04  0.83531571D-05
  0.61805853D-19 -0.18628203D-04  0.13101197D-04 -0.70945964D-18  0.10044243D-17
  0.29311137D-03  0.54632188D-03  0.92638090D-03  0.14021206D-02  0.17494372D-02
  0.15025332D-02  0.57685172D-03 -0.25802931D-05 -0.30114421D-03 -0.56480344D-03
 -0.96286604D-03 -0.15047722D-02 -0.20121672D-02 -0.21485254D-02 -0.13135663D-02
  0.86661127D-03  0.95768174D-03 -0.20258227D-02 -0.91290322D-03  0.98863238D-03
  0.95864085D-03  0.64669346D-03 -0.24742253D-02 -0.23991663D-02 -0.16184634D-02
 -0.82643228D-19 -0.80136131D-19 -0.54059361D-19 -0.71586854D-03  0.20310679D-02
  0.68765291D-18 -0.97939358D-03  0.22869486D-02  0.87000259D-18 -0.66642835D-04
  0.13498822D-03 -0.77414387D-20 -0.29347779D-03  0.66509564D-03 -0.37161785D-03
 -0.80829172D-03  0.32862265D-18 -0.64829919D-18  0.85715010D-03 -0.21874454D-02
  0.13302953D-02  0.27125251D-02 -0.42622327D-18  0.44580928D-18  0.11542357D-03
 -0.39575448D-03  0.28033091D-03  0.61826657D-03  0.59098749D-19 -0.83339157D-19
  0.32441440D-03  0.61696456D-03  0.61150972D-19 -0.12556282D-02 -0.72256179D-03
 -0.17396787D-18  0.28238496D-03 -0.11283319D-02 -0.94850491D-20  0.19110186D-17
  0.29849016D-03  0.39368161D-03  0.35211963D-18 -0.13177297D-02 -0.22429703D-03
 -0.55164357D-19  0.42225924D-03 -0.95674779D-03 -0.10011945D-17  0.12571144D-17
  0.60516569D-04  0.11276371D-03  0.19071171D-03  0.28720127D-03  0.35557380D-03
  0.30257726D-03  0.11513623D-03 -0.53923208D-06 -0.13787459D-03 -0.25851614D-03
 -0.43981288D-03 -0.68298296D-03 -0.90635811D-03 -0.95517703D-03 -0.59227069D-03
  0.39397869D-03  0.14008700D-02 -0.59325649D-02 -0.21791193D-02 -0.38636404D-03
 -0.37109804D-03 -0.26023956D-03  0.21981556D-02  0.21113021D-02  0.14805908D-02
 -0.12776931D-17 -0.12272090D-17 -0.86060365D-18  0.99464014D-04 -0.19150755D-02
  0.17264878D-17  0.64031965D-03 -0.25126532D-02  0.49022520D-18  0.55411705D-04
 -0.15850947D-03 -0.19393483D-19  0.24182294D-03 -0.15363553D-03 -0.88187410D-04
 -0.62511318D-03  0.58402546D-18 -0.16726078D-17  0.28296439D-03 -0.17227947D-02
  0.14398303D-02  0.34826372D-02 -0.83850270D-18  0.20100467D-17  0.35013961D-04
 -0.18631353D-03  0.15129957D-03  0.37445389D-03 -0.64184233D-19  0.25399342D-18
 -0.62518230D-03 -0.98016149D-03 -0.38797612D-19  0.23769692D-02  0.12150852D-02
  0.50853050D-19 -0.50142226D-03  0.17253992D-02  0.65539785D-19 -0.72917636D-19
 -0.23193975D-03 -0.27434796D-03  0.83864049D-19  0.86092937D-03  0.36898607D-03
 -0.36195674D-18 -0.16511011D-03  0.45405782D-03  0.11036459D-18  0.76428611D-18
  0.94874060D-04  0.17110927D-03  0.25230053D-03  0.16940959D-02  0.36691640D-03
 -0.10415809D-03 -0.41793713D-03 -0.44512031D-03 -0.21422581D-18 -0.92748484D-03
  0.15840744D-03  0.10528408D-17 -0.44037192D-04 -0.10272591D-03  0.10224046D-18
  0.42298850D-03 -0.52672125D-03  0.10373275D-03  0.34576244D-03 -0.77464799D-18
 -0.40233412D-18  0.61406893D-04 -0.83672528D-04  0.22265635D-04 -0.39978636D-04
 -0.35093547D-18 -0.48695484D-19
MO    4     MO 0.0        OCC NO =    2.0000000  ORB. ENERGY =   -1.085585
 -0.77562349D-02 -0.14459385D-01 -0.24438909D-01 -0.36739685D-01 -0.45138948D-01
 -0.38127057D-01 -0.14380123D-01  0.71168032D-04 -0.30489042D-01 -0.57085107D-01
 -0.97192280D-01 -0.15034168D+00 -0.19799470D+00 -0.20572918D+00 -0.13073166D+00
  0.87613316D-01  0.42483217D-01  0.23692408D-01  0.67044403D-02 -0.99040893D-01
 -0.92857133D-01 -0.66119811D-01  0.20623565D+00  0.19335903D+00  0.13768315D+00
  0.40576508D-15  0.38043055D-15  0.27088922D-15 -0.11803448D-01  0.14173310D-01
 -0.82117346D-16  0.25538188D-02 -0.75624136D-02 -0.62664718D-16  0.22886211D-03
 -0.43922990D-03 -0.18459147D-17 -0.91966132D-02  0.28041931D-01 -0.18845317D-01
 -0.40249178D-01 -0.28434299D-16  0.24457459D-16 -0.11529327D-02  0.29514805D-02
 -0.17985478D-02 -0.24856127D-02  0.10622956D-16 -0.10842897D-16  0.24658921D-04
 -0.48512233D-04  0.23853312D-04  0.14997241D-03  0.17595016D-17  0.57876912D-18
  0.36336865D-03 -0.10326540D-02  0.34472433D-17 -0.23249034D-02  0.33051578D-02
  0.87579413D-17  0.12347975D-02 -0.20719563D-03 -0.19099671D-16  0.32517174D-18
 -0.15465023D-03 -0.16419239D-03  0.68419040D-17  0.60273594D-03  0.17061941D-03
 -0.37184229D-17 -0.13878526D-03  0.32195777D-03 -0.16807289D-16  0.36595117D-16
 -0.39768042D-02 -0.74122513D-02 -0.12568722D-01 -0.19023347D-01 -0.23735582D-01
 -0.20385700D-01 -0.78264665D-02  0.35008265D-04 -0.91719499D-01 -0.17202219D+00
 -0.29326013D+00 -0.45830850D+00 -0.61284579D+00 -0.65437642D+00 -0.40007291D+00
  0.26394381D+00  0.13611953D+00  0.62344303D-01 -0.11177547D-02  0.18876155D+00
  0.18303521D+00  0.12347447D+00 -0.40597096D+00 -0.39365527D+00 -0.26555752D+00
  0.77814062D-15  0.75453465D-15  0.50900461D-15  0.51076465D-01 -0.10846062D+00
  0.23732735D-15  0.17896306D-02 -0.30482534D-02  0.99393735D-16 -0.27010656D-03
  0.45855659D-03  0.29442450D-17 -0.97145205D-02  0.32675536D-01 -0.22961016D-01
 -0.49864563D-01  0.31089926D-16 -0.16821769D-15 -0.36893235D-02  0.13574043D-01
 -0.98847190D-02 -0.23114677D-01  0.40804166D-16 -0.67082820D-16  0.23990017D-03
 -0.90564486D-03  0.66574469D-03  0.13223597D-02  0.68085560D-17 -0.43933240D-16
 -0.39586493D-02 -0.40792720D-02 -0.94751622D-17  0.18263966D-01 -0.35420972D-03
 -0.13565716D-16 -0.63880175D-02  0.12592026D-01  0.41991202D-16 -0.26248115D-16
 -0.59566684D-03 -0.46192514D-03 -0.74856646D-17  0.26749386D-02 -0.26260664D-03
 -0.24720961D-17 -0.88793810D-03  0.16483821D-02  0.24929090D-16 -0.16291147D-16
 -0.12361368D-02 -0.23033589D-02 -0.38955573D-02 -0.58664935D-02 -0.72630995D-02
 -0.61805699D-02 -0.23518209D-02  0.11014580D-04 -0.67377640D-02 -0.12633370D-01
 -0.21493122D-01 -0.33376549D-01 -0.44292622D-01 -0.46678343D-01 -0.28943551D-01
  0.19253261D-01  0.10798521D-01 -0.20713402D-01 -0.10595988D-01 -0.92266949D-02
 -0.88621301D-02 -0.62147374D-02  0.40488167D-01  0.38888400D-01  0.27271230D-01
  0.86387113D-16  0.82973790D-16  0.58186949D-16  0.93820630D-03  0.12428722D-05
  0.65710424D-16  0.39329459D-02 -0.11135532D-01  0.45056936D-16  0.30510073D-03
 -0.88176723D-03  0.28589121D-17  0.74088253D-03  0.10276199D-02 -0.17685024D-02
 -0.29694808D-02 -0.74190880D-17 -0.48918381D-17  0.11129603D-02 -0.34963080D-02
  0.23833477D-02  0.48085369D-02  0.24496463D-17  0.53393066D-16  0.23650766D-03
 -0.78653296D-03  0.55002530D-03  0.10920832D-02 -0.25957502D-17  0.14023377D-16
 -0.31175470D-03 -0.94577678D-03 -0.28113427D-17  0.16639150D-02  0.14593439D-02
  0.13699283D-16 -0.72865091D-03  0.13779864D-02 -0.52652551D-17 -0.40182528D-17
 -0.50522433D-03 -0.32834367D-03 -0.13394704D-17  0.20125502D-02 -0.14049054D-03
 -0.75100049D-17 -0.49687723D-03  0.11255215D-02  0.11528416D-16 -0.19155133D-18
  0.13182647D-02  0.23775447D-02  0.35056883D-02  0.18426626D-02 -0.65415951D-03
 -0.60969423D-03 -0.13814311D-02 -0.18814818D-03 -0.21557478D-18 -0.23533522D-03
  0.20415082D-02  0.45870898D-17  0.33301017D-03 -0.40482282D-03 -0.44593553D-18
 -0.61377548D-04 -0.10747832D-03  0.16885586D-03 -0.66974610D-03 -0.36736519D-17
  0.79451020D-19 -0.10974147D-03  0.81245815D-04  0.28495654D-04 -0.35011911D-03
 -0.19705872D-17  0.96902405D-18
MO    5     MO 0.0        OCC NO =    2.0000000  ORB. ENERGY =   -0.910023
 -0.53463846D-02 -0.99668765D-02 -0.16845777D-01 -0.25324721D-01 -0.31114346D-01
 -0.26281039D-01 -0.99122410D-02  0.49056234D-04 -0.25388506D-01 -0.47535294D-01
 -0.80932906D-01 -0.12519090D+00 -0.16487201D+00 -0.17131258D+00 -0.10886145D+00
  0.72956414D-01  0.34199223D-01  0.14207871D-01  0.50022834D-02  0.11253301D+00
  0.10550685D+00  0.75127161D-01 -0.29211216D+00 -0.27387372D+00 -0.19501440D+00
 -0.24933719D-15 -0.23376946D-15 -0.16645778D-15  0.47835191D-02 -0.21260211D-01
  0.17082062D-15 -0.14432759D-02  0.13172149D-02 -0.14059348D-16  0.16539750D-03
 -0.24351731D-03  0.66960309D-17 -0.68184066D-02  0.18538156D-01 -0.11719749D-01
 -0.21865918D-01  0.22883472D-16  0.13849700D-15 -0.15560031D-03  0.10560176D-02
 -0.90041728D-03  0.18934000D-03  0.25290408D-16 -0.35124743D-16 -0.10176006D-04
 -0.11177228D-03  0.12194829D-03  0.56628620D-03  0.17914614D-18  0.16822230D-17
  0.94427631D-03 -0.48438962D-03 -0.64269709D-17 -0.33766911D-02  0.12463785D-02
 -0.20686289D-16  0.54386215D-03  0.20679032D-03  0.39967201D-16 -0.37311034D-16
  0.28223520D-04  0.13550528D-03 -0.11621528D-17 -0.12148772D-03 -0.33862408D-03
  0.67121373D-17  0.36817165D-04 -0.67891754D-04 -0.32256790D-17 -0.63035068D-17
  0.58277649D-03  0.10862204D-02  0.18418699D-02  0.27877559D-02  0.34783054D-02
  0.29874004D-02  0.11469211D-02 -0.51302485D-05  0.20143132D-01  0.37778943D-01
  0.64404816D-01  0.10065219D+00  0.13459116D+00  0.14371198D+00  0.87862686D-01
 -0.57966463D-01 -0.29250421D-01 -0.30741514D-01 -0.57708274D-02 -0.26439957D-01
 -0.25637864D-01 -0.17295152D-01  0.42751729D-01  0.41454797D-01  0.27965161D-01
  0.18289539D-16  0.17734701D-16  0.11963724D-16 -0.12358345D-01  0.23096023D-01
 -0.85944220D-17 -0.57612155D-02  0.10943422D-01  0.88663006D-17 -0.46064276D-03
  0.65901731D-03 -0.47976394D-17  0.86709179D-03 -0.47709188D-02  0.39038270D-02
  0.88977626D-02 -0.78148381D-17  0.15377967D-16  0.22531966D-02 -0.71909711D-02
  0.49377745D-02  0.11763600D-01  0.57165736D-17 -0.30918044D-17  0.40384416D-03
 -0.14516132D-02  0.10477691D-02  0.22760994D-02  0.41407058D-17 -0.17081609D-17
  0.15988356D-02  0.13631047D-02  0.88945565D-18 -0.68717512D-02 -0.27953209D-03
  0.24069606D-16  0.20752445D-02 -0.38097821D-02 -0.26737973D-16 -0.15324038D-16
  0.61909806D-03  0.73465894D-03  0.15789576D-17 -0.26657452D-02 -0.25752209D-03
 -0.56775404D-17  0.80845097D-03 -0.19464547D-02  0.94066765D-18 -0.42130830D-18
 -0.52906379D-02 -0.98583247D-02 -0.16672898D-01 -0.25108461D-01 -0.31085904D-01
 -0.26452701D-01 -0.10065741D-01  0.47142158D-04 -0.70450226D-01 -0.13209483D+00
 -0.22473261D+00 -0.34898602D+00 -0.46312474D+00 -0.48806991D+00 -0.30263448D+00
  0.20131257D+00  0.94270825D-01  0.54339996D-01 -0.50906969D-02  0.22376789D-01
  0.21492638D-01  0.15072121D-01  0.26668267D+00  0.25614551D+00  0.17962692D+00
  0.40532170D-15  0.38930665D-15  0.27300869D-15  0.57051776D-02  0.76894787D-01
  0.89961760D-16  0.36604622D-02  0.37200454D-02  0.29699723D-17  0.22372122D-03
 -0.61212054D-03 -0.28859195D-17 -0.61031365D-02  0.28418954D-01 -0.22315817D-01
 -0.25085402D-01  0.14453149D-17  0.40615822D-16 -0.28463214D-02  0.11780350D-01
 -0.89340282D-02 -0.14810078D-01  0.46852087D-17 -0.14928895D-16 -0.37587165D-03
  0.16969322D-03  0.20617843D-03  0.36695532D-03 -0.85908822D-17 -0.19040758D-17
  0.24038797D-02  0.59235361D-02 -0.14592514D-16 -0.96127805D-02 -0.47702631D-02
  0.78057990D-17  0.24011413D-02 -0.13000345D-01  0.35971744D-16  0.27821607D-17
  0.29507127D-03  0.15004797D-02  0.45760650D-17 -0.25642094D-03 -0.39618001D-02
  0.32734760D-17 -0.62879286D-03 -0.53963894D-03 -0.17001671D-16  0.88900358D-17
  0.17555301D-01  0.31661709D-01  0.46685171D-01  0.13958235D-01 -0.21143647D-02
 -0.56968463D-03 -0.20984059D-01  0.10309017D-01  0.56564163D-18  0.25242940D-02
  0.59581493D-02  0.24609556D-16  0.11180801D-02 -0.65034881D-05  0.28565401D-17
  0.39908449D-02 -0.83535655D-03 -0.31554883D-02 -0.10777017D-01  0.81807020D-17
 -0.85942532D-17 -0.92831013D-03  0.63978799D-03  0.28852213D-03 -0.48155841D-03
 -0.34550318D-17  0.13449571D-17
MO    6     MO 0.0        OCC NO =    2.0000000  ORB. ENERGY =   -0.567009
 -0.30446137D-02 -0.56758522D-02 -0.95931901D-02 -0.14421707D-01 -0.17718733D-01
 -0.14966303D-01 -0.56447388D-02  0.27936127D-04 -0.32200223D-01 -0.60288977D-01
 -0.10264714D+00 -0.15877952D+00 -0.20910704D+00 -0.21727561D+00 -0.13806890D+00
  0.92530564D-01  0.45907098D-01  0.13688125D-01  0.14699978D-02 -0.48861709D-01
 -0.45810958D-01 -0.32620131D-01 -0.20666306D+00 -0.19375976D+00 -0.13796849D+00
  0.25117918D-15  0.23549644D-15  0.16768750D-15 -0.21506948D-01 -0.35555345D-01
 -0.10502135D-15 -0.58752999D-03 -0.15686330D-02  0.11152797D-15  0.64059134D-04
 -0.12015113D-03 -0.39840942D-17 -0.98714302D-02  0.18834583D-01 -0.89631533D-02
 -0.64860909D-03  0.10982911D-15 -0.41429731D-15 -0.13013439D-02  0.16199710D-02
 -0.31862712D-03  0.18814342D-02 -0.72274047D-16  0.78679295D-16 -0.20231276D-03
  0.23720478D-03 -0.34892010D-04 -0.11103378D-03  0.79853868D-17 -0.20726571D-17
  0.97919302D-03 -0.65339598D-02 -0.47161945D-18 -0.61762533D-02  0.14678424D-01
  0.23093343D-17  0.32386743D-02  0.49234552D-02 -0.89447593D-18 -0.41229493D-17
 -0.24369500D-05 -0.18898609D-04 -0.97147440D-17  0.20244181D-03 -0.34580804D-04
  0.52856439D-19 -0.19513096D-03  0.91276631D-04  0.29091375D-16 -0.38399581D-16
 -0.65139302D-03 -0.12141128D-02 -0.20587330D-02 -0.31159883D-02 -0.38878436D-02
 -0.33391392D-02 -0.12819605D-02  0.57342878D-05  0.23583763D-01  0.44231931D-01
  0.75405746D-01  0.11784450D+00  0.15758056D+00  0.16825929D+00  0.10287043D+00
 -0.67867664D-01 -0.37725922D-01 -0.32564505D-01 -0.12810695D-02  0.10067834D-01
  0.97624120D-02  0.65856655D-02 -0.31663158D+00 -0.30702612D+00 -0.20711801D+00
 -0.12345610D-15 -0.11971089D-15 -0.80756257D-16  0.90782069D-03 -0.64552374D-01
 -0.10350506D-15 -0.12647098D-02 -0.60902808D-02 -0.94514906D-16 -0.67910506D-04
 -0.64595107D-04  0.28110861D-17 -0.11515897D-01  0.18259901D-01 -0.67440039D-02
 -0.42247588D-02  0.14211357D-17 -0.15626801D-16 -0.14935617D-04  0.29070468D-03
 -0.27576906D-03 -0.33332733D-04 -0.32063473D-16  0.25301835D-16  0.97424178D-04
 -0.13187793D-03  0.34453756D-04  0.34684350D-03 -0.16903868D-16  0.44161501D-16
  0.11245346D-03 -0.17788151D-02 -0.30866223D-17 -0.76765215D-03  0.39671591D-02
 -0.49627993D-16  0.43029178D-03  0.13692863D-02  0.58887860D-16  0.46937163D-16
  0.11358325D-03  0.40113387D-03  0.80418604D-17 -0.29382030D-04 -0.13774674D-02
  0.79369072D-17 -0.31136772D-03  0.17406576D-03 -0.32062488D-16  0.21786310D-16
 -0.12501418D-03 -0.23294551D-03 -0.39396926D-03 -0.59329587D-03 -0.73453878D-03