 Molden2AIM, Version 4.0.0 (06/02/2016)           Time: Thu Jun 28 18:01:57 2018
GAUSSIAN             13 MOL ORBITALS    233 PRIMITIVES        3 NUCLEI
  O    1    (CENTRE  1)  -0.00484904  0.00000000  0.00117919  CHARGE =  8.0
  H    2    (CENTRE  2)  -0.01131946  0.00000000  1.83057203  CHARGE =  1.0
  Cl   3    (CENTRE  3)   3.13997082  0.00000000 -0.71154425  CHARGE = 17.0
CENTRE ASSIGNMENTS    1  1  1  1  1  1  1  1  1  1  1  1  1  1  1  1  1  1  1  1
CENTRE ASSIGNMENTS    1  1  1  1  1  1  1  1  1  1  1  1  1  1  1  1  1  1  1  1
CENTRE ASSIGNMENTS    1  1  1  1  1  1  1  1  1  1  1  1  1  1  1  1  1  1  1  1
CENTRE ASSIGNMENTS    1  1  1  1  1  1  1  1  1  1  1  1  1  1  1  2  2  2  2  2
CENTRE ASSIGNMENTS    2  2  2  2  2  2  2  2  2  2  2  2  2  2  2  2  2  2  2  2
CENTRE ASSIGNMENTS    2  2  3  3  3  3  3  3  3  3  3  3  3  3  3  3  3  3  3  3
CENTRE ASSIGNMENTS    3  3  3  3  3  3  3  3  3  3  3  3  3  3  3  3  3  3  3  3
CENTRE ASSIGNMENTS    3  3  3  3  3  3  3  3  3  3  3  3  3  3  3  3  3  3  3  3
CENTRE ASSIGNMENTS    3  3  3  3  3  3  3  3  3  3  3  3  3  3  3  3  3  3  3  3
CENTRE ASSIGNMENTS    3  3  3  3  3  3  3  3  3  3  3  3  3  3  3  3  3  3  3  3
CENTRE ASSIGNMENTS    3  3  3  3  3  3  3  3  3  3  3  3  3  3  3  3  3  3  3  3
CENTRE ASSIGNMENTS    3  3  3  3  3  3  3  3  3  3  3  3  3
TYPE ASSIGNMENTS      1  1  1  1  1  1  1  1  1  1  1  1  1  1  1  1  1  1  1  2
TYPE ASSIGNMENTS      2  2  3  3  3  4  4  4  2  3  4  2  3  4  2  3  4  5  6  7
TYPE ASSIGNMENTS      8  9 10  5  6  7  8  9 10  5  6  7  8  9 10 11 12 13 17 14
TYPE ASSIGNMENTS     15 18 19 16 20 11 12 13 17 14 15 18 19 16 20  1  1  1  1  1
TYPE ASSIGNMENTS      1  2  3  4  2  3  4  2  3  4  5  6  7  8  9 10  5  6  7  8
TYPE ASSIGNMENTS      9 10  1  1  1  1  1  1  1  1  1  1  1  1  1  1  1  1  1  1
TYPE ASSIGNMENTS      1  1  1  1  1  1  1  1  1  1  1  1  1  1  1  1  1  1  1  1
TYPE ASSIGNMENTS      1  1  1  1  2  2  2  2  2  2  2  3  3  3  3  3  3  3  4  4
TYPE ASSIGNMENTS      4  4  4  4  4  2  2  2  2  2  2  2  3  3  3  3  3  3  3  4
TYPE ASSIGNMENTS      4  4  4  4  4  4  2  3  4  2  3  4  2  3  4  5  6  7  8  9
TYPE ASSIGNMENTS     10  5  6  7  8  9 10  5  6  7  8  9 10 11 12 13 17 14 15 18
TYPE ASSIGNMENTS     19 16 20 11 12 13 17 14 15 18 19 16 20
EXPONENTS  0.1533000D+05 0.2299000D+04 0.5224000D+03 0.1473000D+03 0.4755000D+02
EXPONENTS  0.1676000D+02 0.6207000D+01 0.6882000D+00 0.1533000D+05 0.2299000D+04
EXPONENTS  0.5224000D+03 0.1473000D+03 0.4755000D+02 0.1676000D+02 0.6207000D+01
EXPONENTS  0.6882000D+00 0.1752000D+01 0.2384000D+00 0.7376000D-01 0.3446000D+02
EXPONENTS  0.7749000D+01 0.2280000D+01 0.3446000D+02 0.7749000D+01 0.2280000D+01
EXPONENTS  0.3446000D+02 0.7749000D+01 0.2280000D+01 0.7156000D+00 0.7156000D+00
EXPONENTS  0.7156000D+00 0.2140000D+00 0.2140000D+00 0.2140000D+00 0.5974000D-01
EXPONENTS  0.5974000D-01 0.5974000D-01 0.2314000D+01 0.2314000D+01 0.2314000D+01
EXPONENTS  0.2314000D+01 0.2314000D+01 0.2314000D+01 0.6450000D+00 0.6450000D+00
EXPONENTS  0.6450000D+00 0.6450000D+00 0.6450000D+00 0.6450000D+00 0.2140000D+00
EXPONENTS  0.2140000D+00 0.2140000D+00 0.2140000D+00 0.2140000D+00 0.2140000D+00
EXPONENTS  0.1428000D+01 0.1428000D+01 0.1428000D+01 0.1428000D+01 0.1428000D+01
EXPONENTS  0.1428000D+01 0.1428000D+01 0.1428000D+01 0.1428000D+01 0.1428000D+01
EXPONENTS  0.5000000D+00 0.5000000D+00 0.5000000D+00 0.5000000D+00 0.5000000D+00
EXPONENTS  0.5000000D+00 0.5000000D+00 0.5000000D+00 0.5000000D+00 0.5000000D+00
EXPONENTS  0.3387000D+02 0.5095000D+01 0.1159000D+01 0.3258000D+00 0.1027000D+00
EXPONENTS  0.2526000D-01 0.1407000D+01 0.1407000D+01 0.1407000D+01 0.3880000D+00
EXPONENTS  0.3880000D+00 0.3880000D+00 0.1020000D+00 0.1020000D+00 0.1020000D+00
EXPONENTS  0.1057000D+01 0.1057000D+01 0.1057000D+01 0.1057000D+01 0.1057000D+01
EXPONENTS  0.1057000D+01 0.2470000D+00 0.2470000D+00 0.2470000D+00 0.2470000D+00
EXPONENTS  0.2470000D+00 0.2470000D+00 0.4561000D+06 0.6833000D+05 0.1555000D+05
EXPONENTS  0.4405000D+04 0.1439000D+04 0.5204000D+03 0.2031000D+03 0.8396000D+02
EXPONENTS  0.3620000D+02 0.1583000D+02 0.6334000D+01 0.2694000D+01 0.4313000D+00
EXPONENTS  0.4561000D+06 0.6833000D+05 0.1555000D+05 0.4405000D+04 0.1439000D+04
EXPONENTS  0.5204000D+03 0.2031000D+03 0.8396000D+02 0.3620000D+02 0.1583000D+02
EXPONENTS  0.6334000D+01 0.2694000D+01 0.4313000D+00 0.4561000D+06 0.6833000D+05
EXPONENTS  0.1555000D+05 0.4405000D+04 0.1439000D+04 0.5204000D+03 0.2031000D+03
EXPONENTS  0.8396000D+02 0.3620000D+02 0.1583000D+02 0.6334000D+01 0.2694000D+01
EXPONENTS  0.4313000D+00 0.9768000D+00 0.1625000D+00 0.5910000D-01 0.6633000D+03
EXPONENTS  0.1568000D+03 0.4998000D+02 0.1842000D+02 0.7240000D+01 0.2922000D+01
EXPONENTS  0.3818000D+00 0.6633000D+03 0.1568000D+03 0.4998000D+02 0.1842000D+02
EXPONENTS  0.7240000D+01 0.2922000D+01 0.3818000D+00 0.6633000D+03 0.1568000D+03
EXPONENTS  0.4998000D+02 0.1842000D+02 0.7240000D+01 0.2922000D+01 0.3818000D+00
EXPONENTS  0.6633000D+03 0.1568000D+03 0.4998000D+02 0.1842000D+02 0.7240000D+01
EXPONENTS  0.2922000D+01 0.3818000D+00 0.6633000D+03 0.1568000D+03 0.4998000D+02
EXPONENTS  0.1842000D+02 0.7240000D+01 0.2922000D+01 0.3818000D+00 0.6633000D+03
EXPONENTS  0.1568000D+03 0.4998000D+02 0.1842000D+02 0.7240000D+01 0.2922000D+01
EXPONENTS  0.3818000D+00 0.1022000D+01 0.1022000D+01 0.1022000D+01 0.1301000D+00
EXPONENTS  0.1301000D+00 0.1301000D+00 0.4190000D-01 0.4190000D-01 0.4190000D-01
EXPONENTS  0.1046000D+01 0.1046000D+01 0.1046000D+01 0.1046000D+01 0.1046000D+01
EXPONENTS  0.1046000D+01 0.3440000D+00 0.3440000D+00 0.3440000D+00 0.3440000D+00
EXPONENTS  0.3440000D+00 0.3440000D+00 0.1350000D+00 0.1350000D+00 0.1350000D+00
EXPONENTS  0.1350000D+00 0.1350000D+00 0.1350000D+00 0.7060000D+00 0.7060000D+00
EXPONENTS  0.7060000D+00 0.7060000D+00 0.7060000D+00 0.7060000D+00 0.7060000D+00
EXPONENTS  0.7060000D+00 0.7060000D+00 0.7060000D+00 0.3120000D+00 0.3120000D+00
EXPONENTS  0.3120000D+00 0.3120000D+00 0.3120000D+00 0.3120000D+00 0.3120000D+00
EXPONENTS  0.3120000D+00 0.3120000D+00 0.3120000D+00
MO    1     MO 0.0        OCC NO =    2.0000000  ORB. ENERGY = -101.238116
  0.36777913D-04  0.68549298D-04  0.11623690D-03  0.17592996D-03  0.21950922D-03
  0.18852915D-03  0.72380005D-04 -0.32376020D-06 -0.26323769D-04 -0.49370881D-04
 -0.84166529D-04 -0.13153590D-03 -0.17588856D-03 -0.18780798D-03 -0.11482212D-03
  0.75752658D-04  0.65161158D-05  0.19641140D-03  0.19729293D-04  0.10099237D-03
  0.97928623D-04  0.66062071D-04 -0.27215110D-19 -0.26389502D-19 -0.17802202D-19
 -0.24086699D-04 -0.23355996D-04 -0.15755817D-04  0.84149720D-04 -0.16274811D-19
 -0.39900073D-04 -0.51168218D-05  0.89675388D-19  0.52493355D-04 -0.27426624D-05
  0.37678642D-20  0.56054757D-05  0.34411276D-03 -0.20157085D-03 -0.14254191D-03
 -0.35115706D-18 -0.26795804D-03  0.71308318D-19 -0.10435330D-03  0.61754364D-04
  0.42598940D-04  0.12622892D-18  0.10059730D-03 -0.14738444D-19 -0.66889506D-04
  0.29137095D-04  0.37752411D-04  0.82607059D-19  0.59485087D-04 -0.10236958D-19
  0.15946918D-03  0.13064846D-18  0.34630999D-04 -0.29371757D-03 -0.46088364D-18
 -0.69810617D-04 -0.18468996D-03  0.68938257D-19 -0.34082379D-04  0.92723915D-19
 -0.10578526D-03 -0.57722952D-19 -0.22346290D-04  0.16095046D-03  0.20324159D-18
  0.89465700D-04  0.15640533D-03 -0.30072737D-19 -0.22426830D-04 -0.72854224D-19
 -0.26772708D-05 -0.48285681D-05 -0.71197209D-05 -0.98685417D-04  0.14037469D-03
 -0.64442143D-06 -0.17862939D-03  0.46327998D-19  0.55322300D-04  0.22876589D-04
 -0.30051033D-19 -0.44700470D-04  0.39852113D-04 -0.37709004D-20 -0.35656594D-04
 -0.14735704D-04 -0.19796115D-05  0.16715315D-04  0.91568901D-20  0.52089514D-04
  0.30921169D-19  0.36377155D-04 -0.28613680D-04 -0.77634751D-05 -0.25102036D-19
 -0.15771413D-04  0.65728051D-20  0.61719257D+00  0.11547697D+01  0.19951862D+01
  0.32344295D+01  0.49117392D+01  0.68267399D+01  0.81160088D+01  0.72291164D+01
  0.35887499D+01  0.57820510D+00  0.88769885D-02  0.15863091D-02  0.59277897D-04
 -0.95985004D-03 -0.17928621D-02 -0.31115991D-02 -0.50488607D-02 -0.78150368D-02
 -0.11186515D-01 -0.14601897D-01 -0.15560757D-01 -0.11631982D-01 -0.61403167D-03
  0.78900021D-02  0.46875677D-02 -0.17574865D-04  0.35308653D-03  0.65898514D-03
  0.11452582D-02  0.18561266D-02  0.28828552D-02  0.41297732D-02  0.54529807D-02
  0.58962897D-02  0.46227676D-02  0.23002739D-03 -0.39628806D-02 -0.41023161D-02
  0.18563561D-02 -0.28858516D-02 -0.49186613D-03 -0.45737448D-04 -0.67391886D-02
 -0.88770238D-02 -0.97934368D-02 -0.81345750D-02 -0.43204704D-02 -0.11143753D-02
  0.11455400D-05 -0.65625198D-16 -0.86443114D-16 -0.95367006D-16 -0.79213260D-16
 -0.42072087D-16 -0.10851618D-16  0.11155095D-19  0.22752183D-02  0.29969732D-02
  0.33063635D-02  0.27463149D-02  0.14586346D-02  0.37622441D-03 -0.38674590D-06
  0.55029502D-02  0.72249702D-02  0.82261601D-02  0.69655746D-02  0.39901493D-02
  0.90762053D-03 -0.42481636D-03  0.11879069D-16  0.15596346D-16  0.17757588D-16
  0.15036396D-16  0.86134265D-17  0.19592557D-17 -0.91703950D-18 -0.18683788D-02
 -0.24530443D-02 -0.27929714D-02 -0.23649735D-02 -0.13547479D-02 -0.30815814D-03
  0.14423497D-03  0.30166120D-03  0.40714354D-17 -0.11004080D-03  0.19330099D-03
  0.68919255D-19 -0.10219509D-03  0.21546100D-05 -0.77729427D-20 -0.26005873D-05
  0.16886060D-03 -0.10607397D-03 -0.62786625D-04 -0.18427616D-18 -0.16202217D-03
  0.51916960D-20  0.27110977D-04 -0.10637897D-04 -0.16473080D-04  0.14730658D-18
 -0.13915545D-04 -0.33262589D-19 -0.34294200D-04  0.26084050D-04  0.82101502D-05
  0.11322628D-19  0.53795065D-04 -0.57929591D-21 -0.10713674D-03  0.11688872D-19
 -0.46870451D-04  0.24140236D-03 -0.24197330D-19  0.23476585D-03  0.80007847D-04
 -0.10869287D-19 -0.94154497D-04  0.42506009D-19  0.27699493D-04  0.13504492D-19
  0.12606745D-04 -0.73707721D-04 -0.56988993D-19 -0.70656008D-04 -0.93907574D-05
  0.16475517D-19  0.32835774D-04  0.25814952D-19
MO    2     MO 0.0        OCC NO =    2.0000000  ORB. ENERGY =  -19.050181
  0.49888683D+00  0.92986085D+00  0.15767359D+01  0.23864632D+01  0.29776093D+01
  0.25573693D+01  0.98182381D+00 -0.43917581D-02 -0.75869911D-03 -0.14229590D-02
 -0.24258331D-02 -0.37911050D-02 -0.50694297D-02 -0.54129691D-02 -0.33093831D-02
  0.21833300D-02  0.50043489D-01 -0.88799807D-03 -0.43556426D-03  0.64175412D-02
  0.62228562D-02  0.41979021D-02 -0.10868504D-15 -0.10538793D-15 -0.71094075D-16
  0.48486786D-02  0.47015872D-02  0.31716630D-02 -0.85721656D-03  0.11376269D-16
  0.84889460D-03 -0.91409486D-03 -0.45107802D-18  0.27165489D-04 -0.50419579D-04
  0.33426144D-19  0.38771075D-05 -0.56829668D-03 -0.94885206D-03  0.15171487D-02
 -0.64781026D-17 -0.33965540D-03 -0.18617008D-16 -0.62679227D-03  0.25613023D-03
  0.37066204D-03  0.66415867D-18  0.32785595D-03  0.45245271D-17 -0.89630665D-04
  0.13131060D-03 -0.41679939D-04 -0.51281729D-18  0.94771064D-04  0.50672723D-18
 -0.49095654D-04 -0.75041958D-18  0.10331465D-02  0.10587097D-03  0.23595901D-17
 -0.19189405D-02  0.41415989D-04 -0.10833135D-18 -0.11804991D-02  0.16647241D-17
 -0.13668848D-03 -0.25852224D-18 -0.25108981D-03  0.27021617D-03 -0.93974292D-18
  0.54787850D-03  0.13984928D-03  0.17153096D-17  0.20539093D-03  0.74350311D-19
  0.13333844D-03  0.24048138D-03  0.35458965D-03 -0.88889539D-04 -0.17808893D-03
 -0.11762847D-04 -0.16626138D-04 -0.13391088D-17  0.87446562D-03  0.48583687D-04
 -0.26018124D-17  0.67802322D-03 -0.27535876D-04 -0.10651555D-18  0.81827994D-04
  0.97549875D-03  0.92568532D-03 -0.19011841D-02 -0.92825018D-19 -0.78927121D-04
  0.65597737D-17  0.15624777D-04  0.47303880D-04 -0.62928657D-04  0.75399778D-19
 -0.94662689D-05  0.66792731D-18 -0.43615687D-05 -0.81605117D-05 -0.14099557D-04
 -0.22857026D-04 -0.34710217D-04 -0.48243119D-04 -0.57354109D-04 -0.51086629D-04
 -0.25360932D-04 -0.40860525D-05 -0.62731791D-07 -0.11210109D-07 -0.41890430D-09
  0.25489550D-04  0.47610819D-04  0.82630885D-04  0.13407635D-03  0.20753426D-03
  0.29706644D-03  0.38776450D-03  0.41322778D-03  0.30889615D-03  0.16306079D-04
 -0.20952502D-03 -0.12448194D-03  0.46671393D-06 -0.26163586D-04 -0.48830563D-04
 -0.84863221D-04 -0.13753832D-03 -0.21361854D-03 -0.30601472D-03 -0.40406393D-03
 -0.43691296D-03 -0.34254543D-03 -0.17044947D-04  0.29364804D-03  0.30398015D-03
 -0.13755532D-03 -0.46760620D-03  0.10698931D-02  0.30342369D-03 -0.16594799D-01
 -0.21859074D-01 -0.24115680D-01 -0.20030844D-01 -0.10638868D-01 -0.27440743D-02
  0.28208151D-05  0.14378133D-17  0.18939228D-17  0.20894406D-17  0.17355206D-17
  0.92177713D-18  0.23775321D-18 -0.24440222D-21  0.31321164D-02  0.41257002D-02
  0.45516138D-02  0.37806385D-02  0.20079889D-02  0.51791892D-03 -0.53240304D-06
  0.14547362D-01  0.19099620D-01  0.21746323D-01  0.18413893D-01  0.10548187D-01
  0.23993466D-02 -0.11230262D-02 -0.13475563D-17 -0.17692427D-17 -0.20144130D-17
 -0.17057222D-17 -0.97710333D-18 -0.22225711D-18  0.10402856D-18 -0.26997160D-02
 -0.35445292D-02 -0.40357073D-02 -0.34172712D-02 -0.19575445D-02 -0.44527346D-03
  0.20841248D-03  0.12093918D-02 -0.49325522D-19 -0.25799233D-03 -0.46043316D-03
  0.30865892D-18  0.13370852D-03 -0.14088861D-04 -0.11298056D-19  0.61200540D-05
 -0.99820185D-04  0.78823365D-04  0.20996820D-04 -0.90250888D-19  0.17043018D-03
 -0.11607051D-19  0.46303757D-03 -0.25540985D-03 -0.20762773D-03 -0.28061661D-18
 -0.30766329D-03  0.80812981D-19  0.46516827D-04 -0.30691333D-04 -0.15825494D-04
 -0.17963478D-18 -0.45554286D-04  0.31804667D-19 -0.22805273D-03  0.88309092D-19
 -0.60324697D-04  0.33178387D-03 -0.37145526D-18  0.24289209D-03  0.35237433D-03
  0.10652798D-18 -0.61917997D-04  0.18597002D-18 -0.48395551D-04 -0.56837637D-19
 -0.17801590D-04  0.10456825D-03  0.23827969D-18  0.84524220D-04  0.40618408D-04
 -0.67766776D-19 -0.31119449D-04 -0.13073565D-18
MO    3     MO 0.0        OCC NO =    2.0000000  ORB. ENERGY =   -9.450720
  0.70443799D-04  0.13129818D-03  0.22263821D-03  0.33697329D-03  0.42044429D-03
  0.36110557D-03  0.13863545D-03 -0.62012487D-06 -0.53823750D-04 -0.10094778D-03
 -0.17209383D-03 -0.26894916D-03 -0.35963627D-03 -0.38400769D-03 -0.23477477D-03
  0.15489013D-03 -0.32650160D-04  0.75538980D-04 -0.11870495D-04  0.52880668D-04
  0.51276460D-04  0.34590797D-04  0.11529106D-15  0.11179355D-15  0.75415267D-16
 -0.16318407D-04 -0.15823365D-04 -0.10674349D-04  0.29097691D-03  0.14203212D-15
 -0.10429095D-03  0.54224426D-04 -0.38051778D-17 -0.94769252D-05  0.21135186D-05
  0.13926953D-18 -0.60000525D-06  0.76277769D-03 -0.41064618D-03 -0.35213151D-03
  0.97836761D-17 -0.73520725D-03 -0.99334219D-17 -0.12661333D-03  0.73061174D-04
  0.53552154D-04 -0.49443550D-17  0.25362154D-03  0.83548486D-17 -0.35492780D-04
  0.20089281D-04  0.15403499D-04 -0.36343921D-17  0.67125397D-04  0.14559507D-17
  0.92293148D-04 -0.52044745D-17  0.57850987D-04 -0.16859421D-03  0.14647762D-16
 -0.14433239D-03 -0.10828523D-03  0.96566119D-18 -0.29220569D-04 -0.33457338D-18
 -0.13774977D-03  0.14955342D-17 -0.35164175D-04  0.15748991D-03 -0.90733223D-17
  0.14031161D-03  0.25575941D-03  0.45867196D-17 -0.34819082D-04  0.23540477D-17
 -0.10230917D-04 -0.18451880D-04 -0.27207286D-04  0.37020180D-04  0.10934565D-03
  0.24703884D-05 -0.22820200D-03 -0.68163765D-17  0.86492459D-04 -0.11567840D-03
 -0.32736331D-17 -0.89896632D-04  0.92070329D-05 -0.12326585D-18 -0.24357122D-04
  0.41728455D-05 -0.35847810D-04  0.31674964D-04 -0.10791371D-17  0.26159930D-03
  0.13900935D-16  0.15217288D-04 -0.15246861D-04  0.29572825D-07  0.14059306D-17
  0.14822373D-04  0.51962085D-18 -0.30264169D-03 -0.56624377D-03 -0.97834380D-03
 -0.15860094D-02 -0.24084818D-02 -0.33475065D-02 -0.39797023D-02 -0.35448127D-02
 -0.17597512D-02 -0.28352411D-03 -0.43528503D-05 -0.77785006D-06 -0.29067043D-07
 -0.17294495D+00 -0.32303633D+00 -0.56064522D+00 -0.90969934D+00 -0.14081065D+01
 -0.20155766D+01 -0.26309570D+01 -0.28037237D+01 -0.20958404D+01 -0.11063569D+00
  0.14216137D+01  0.84460189D+00 -0.31666239D-02  0.40186016D-03  0.75001409D-03
  0.13034585D-02  0.21125227D-02  0.32810786D-02  0.47002397D-02  0.62062286D-02
  0.67107741D-02  0.52613339D-02  0.26180223D-03 -0.45102934D-02 -0.46689897D-02
  0.21127839D-02  0.57722832D-01 -0.15569008D-03 -0.41303494D-04 -0.84277663D-01
 -0.11101260D+00 -0.12247290D+00 -0.10172782D+00 -0.54030117D-01 -0.13935943D-01
  0.14325676D-04 -0.93622236D-14 -0.12332150D-13 -0.13605250D-13 -0.11300724D-13
 -0.60020890D-14 -0.15481138D-14  0.15914084D-17  0.23971266D-01  0.31575537D-01
  0.34835215D-01  0.28934650D-01  0.15367896D-01  0.39638286D-02 -0.40746810D-05
  0.19048046D-02  0.25008688D-02  0.28474231D-02  0.24110809D-02  0.13811600D-02
  0.31416598D-03 -0.14704697D-03 -0.37869903D-15 -0.49720406D-15 -0.56610341D-15
 -0.47935311D-15 -0.27459192D-15 -0.62460135D-16  0.29234781D-16 -0.68052736D-03
 -0.89348254D-03 -0.10172956D-02 -0.86140413D-03 -0.49344545D-03 -0.11224172D-03
  0.52535303D-04 -0.11550592D-02 -0.23531794D-15  0.26898852D-03  0.12955339D-03
 -0.18696599D-17 -0.58327528D-04 -0.14514189D-06  0.10233202D-18 -0.60942039D-06
  0.17925928D-02 -0.10141794D-02 -0.77841342D-03  0.60671018D-16 -0.13593962D-02
 -0.16655612D-16 -0.12775038D-03  0.75458587D-04  0.52291797D-04 -0.11317104D-16
  0.99660679D-04  0.29845287D-17 -0.14855053D-04  0.11040733D-04  0.38143201D-05
  0.22830491D-18  0.24606806D-04 -0.27153460D-18 -0.87076634D-04 -0.27667993D-18
 -0.37998294D-04  0.16832591D-03  0.86606089D-18  0.16710848D-03  0.92903993D-04
 -0.36021102D-19 -0.53113592D-04 -0.39774978D-17  0.31271797D-04 -0.64954223D-18
  0.12420931D-04 -0.66739061D-04  0.27423549D-17 -0.58297533D-04 -0.27076331D-04
 -0.79372824D-18  0.21034741D-04 -0.10912394D-17
MO    4     MO 0.0        OCC NO =    2.0000000  ORB. ENERGY =   -7.165119
 -0.85243277D-04 -0.15888250D-03 -0.26941208D-03 -0.40776773D-03 -0.50877507D-03
 -0.43696993D-03 -0.16776125D-03  0.75040638D-06  0.80079066D-04  0.15019027D-03
  0.25604149D-03  0.40014301D-03  0.53506745D-03  0.57132729D-03  0.34929830D-03
 -0.23044581D-03 -0.33533043D-04  0.13079304D-03  0.11954822D-03 -0.46144997D-03
 -0.44745125D-03 -0.30184797D-03  0.10962366D-15  0.10629807D-15  0.71708051D-16
  0.12837339D-03  0.12447900D-03  0.83972799D-04 -0.30489252D-03  0.85758577D-16
  0.99486116D-04  0.59470526D-05  0.13969227D-17  0.60948256D-04  0.10493660D-04
 -0.90164302D-19  0.39327697D-05 -0.12874682D-02  0.66442408D-03  0.62304409D-03
 -0.14536042D-17  0.11203239D-02  0.20454798D-16  0.26501590D-03 -0.13766525D-03
 -0.12735065D-03  0.88858849D-17 -0.38055456D-03  0.28603311D-17 -0.11760163D-05
 -0.88117523D-05  0.99877686D-05  0.70535676D-17 -0.38068493D-04 -0.31398115D-18
  0.29776778D-03  0.20811134D-17  0.51461294D-04 -0.49478949D-03 -0.95658456D-17
 -0.30028953D-03 -0.39851384D-03  0.33225054D-17  0.14590564D-03 -0.11085743D-17
  0.12041739D-03 -0.32815168D-17  0.30381221D-04 -0.11422949D-03  0.81841057D-17
 -0.12462384D-03 -0.24702269D-03  0.16604448D-17  0.33480172D-04 -0.29202738D-17
  0.23209893D-04  0.41859998D-04  0.61722543D-04 -0.17835810D-03 -0.25302050D-04
  0.97819047D-06  0.22043452D-03 -0.31737910D-17 -0.94154416D-04  0.15440751D-03
 -0.44726861D-17  0.10653989D-03  0.25532772D-04 -0.31476542D-18 -0.37303507D-05
 -0.67830337D-04  0.10277161D-03 -0.34941274D-04 -0.35455307D-18 -0.31919771D-03
  0.96811424D-17  0.15183487D-04 -0.78753304D-05 -0.73081563D-05 -0.11682124D-17
 -0.29992074D-04  0.31196061D-18  0.44313207D-04  0.82910179D-04  0.14325042D-03
  0.23222564D-03  0.35265316D-03  0.49014643D-03  0.58271339D-03  0.51903627D-03
  0.25766515D-03  0.41513983D-04  0.63735023D-06  0.11389386D-06  0.42560358D-08
 -0.13288325D-02 -0.24820683D-02 -0.43077500D-02 -0.69897276D-02 -0.10819268D-01
 -0.15486799D-01 -0.20215111D-01 -0.21542574D-01 -0.16103511D-01 -0.85007575D-03
  0.10923051D-01  0.64895475D-02 -0.24330938D-04 -0.25442213D-05 -0.47484224D-05
 -0.82523402D-05 -0.13374616D-04 -0.20772872D-04 -0.29757739D-04 -0.39292321D-04
 -0.42486655D-04 -0.33310088D-04 -0.16574990D-05  0.28555167D-04  0.29559892D-04
 -0.13376269D-04  0.25303219D-03 -0.38259828D-04 -0.66498839D-04  0.11187313D+02
  0.14736203D+02  0.16257484D+02  0.13503709D+02  0.71721478D+01  0.18499061D+01
 -0.19016406D-02  0.60044378D-13  0.79091921D-13  0.87256918D-13  0.72476900D-13
  0.38494242D-13  0.99287880D-14 -0.10206456D-16 -0.27514888D+01 -0.36243282D+01
 -0.39984831D+01 -0.33211998D+01 -0.17639699D+01 -0.45497929D+00  0.46770325D-03
 -0.70799212D-02 -0.92954175D-02 -0.10583517D-01 -0.89616872D-02 -0.51335995D-02
 -0.11677158D-02  0.54655525D-03  0.47945644D-16  0.62949115D-16  0.71672199D-16
  0.60689074D-16  0.34765038D-16  0.79078401D-17 -0.37013044D-17  0.16150541D-02
  0.21204477D-02  0.24142857D-02  0.20443180D-02  0.11710640D-02  0.26637644D-03
 -0.12467883D-03  0.88620479D-01  0.49625157D-15 -0.21794533D-01  0.11227656D-03
 -0.27960826D-17 -0.43213518D-04  0.25789712D-06  0.15284481D-18 -0.17843271D-05
 -0.15260707D-02  0.84596675D-03  0.68010399D-03 -0.36506387D-15  0.11452276D-02
  0.91168840D-16  0.94011873D-04 -0.53967299D-04 -0.40044574D-04  0.31624673D-16
 -0.58459893D-04 -0.81934802D-17 -0.13082876D-05  0.35618656D-05 -0.22535780D-05
 -0.19514604D-18  0.91702123D-05  0.15625769D-18  0.30919018D-03 -0.36127170D-17
  0.12163993D-03 -0.54014455D-03  0.15152819D-16 -0.48864969D-03 -0.38742599D-03
 -0.43146678D-17  0.12372988D-03 -0.95836729D-17 -0.45105296D-04  0.17350665D-17
 -0.15641113D-04  0.73615207D-04 -0.68793166D-17  0.58507226D-04  0.61700681D-04
  0.16741171D-17 -0.11583888D-04  0.38571349D-17
MO    5     MO 0.0        OCC NO =    2.0000000  ORB. ENERGY =   -7.147452
 -0.29629367D-04 -0.55225328D-04 -0.93643857D-04 -0.14173434D-03 -0.17684307D-03
 -0.15188462D-03 -0.58311457D-04  0.26083073D-06  0.21864313D-04  0.41007060D-04
  0.69908048D-04  0.10925267D-03  0.14609164D-03  0.15599181D-03  0.95370335D-04
 -0.62919554D-04 -0.24992528D-04  0.19192052D-03  0.40849253D-04 -0.15024294D-05
 -0.14568512D-05 -0.98278319D-06  0.12550665D-15  0.12169923D-15  0.82097581D-16
 -0.48864496D-04 -0.47382124D-04 -0.31963701D-04 -0.58233467D-05 -0.15594268D-16
  0.61364823D-04 -0.53719867D-04 -0.64991757D-17  0.25530338D-03  0.43287303D-05
  0.11977294D-18  0.19861303D-05  0.12629780D-03  0.92168890D-04 -0.21846669D-03
  0.13298319D-14  0.51371536D-03 -0.29314288D-14 -0.43749991D-04 -0.56686215D-04
  0.10043621D-03  0.21449439D-16 -0.15304176D-03  0.42439064D-16 -0.38404385D-04
 -0.68314621D-05  0.45235847D-04 -0.58268443D-17  0.52769618D-04  0.12595982D-17
  0.11616873D-03  0.40465391D-17 -0.67966778D-04  0.65107807D-05 -0.32927689D-17
  0.27027185D-03 -0.35501697D-03 -0.88468483D-17 -0.66371511D-04  0.15949570D-16
 -0.15357848D-04 -0.18125844D-17  0.58132022D-04  0.95794829D-05 -0.74883888D-18
 -0.15561802D-03  0.36494062D-04  0.61865920D-17 -0.18778045D-04 -0.64863138D-17
 -0.28750527D-04 -0.51852759D-04 -0.76456863D-04 -0.38383216D-03 -0.48719446D-04
  0.16785411D-05 -0.28664340D-04 -0.43323853D-17  0.12164407D-03  0.52737875D-04
 -0.89068247D-17  0.49677644D-04 -0.48846774D-05 -0.12884945D-17  0.48701920D-05
  0.76052499D-04 -0.83724713D-04  0.76722140D-05  0.30958074D-17 -0.26976273D-03
 -0.26672218D-17  0.18246649D-04 -0.23172408D-04  0.49257591D-05  0.13698152D-17
 -0.14002044D-04  0.29020845D-17  0.87704976D-05  0.16409635D-04  0.28352213D-04
  0.45962245D-04  0.69797335D-04  0.97010088D-04  0.11533100D-03  0.10272798D-03
  0.50997247D-04  0.82164736D-05  0.12614476D-06  0.22541944D-07  0.84235728D-09
  0.26813495D-04  0.50083758D-04  0.86922791D-04  0.14104037D-03  0.21831373D-03
  0.31249628D-03  0.40790525D-03  0.43469111D-03  0.32494043D-03  0.17153028D-04
 -0.22040790D-03 -0.13094761D-03  0.49095538D-06  0.58006640D-05  0.10826104D-04
  0.18814815D-04  0.30493281D-04  0.47360839D-04  0.67845768D-04  0.89584015D-04
  0.96866894D-04  0.75944901D-04  0.37789931D-05 -0.65103981D-04 -0.67394690D-04
  0.30497051D-04 -0.58730615D-04  0.57999930D-04 -0.16851535D-04  0.27531201D+01
  0.36264770D+01  0.40008537D+01  0.33231689D+01  0.17650157D+01  0.45524905D+00
 -0.46798054D-03 -0.46194572D-12 -0.60848619D-12 -0.67130281D-12 -0.55759415D-12
 -0.29615180D-12 -0.76386188D-13  0.78522404D-16  0.11197074D+02  0.14749060D+02
  0.16271668D+02  0.13515491D+02  0.71784055D+01  0.18515202D+01 -0.19032998D-02
 -0.15522038D-02 -0.20379298D-02 -0.23203330D-02 -0.19647627D-02 -0.11254917D-02
 -0.25601032D-03  0.11982692D-03  0.30976786D-15  0.40670250D-15  0.46306071D-15
  0.39210079D-15  0.22461043D-15  0.51091080D-16 -0.23913437D-16 -0.95723233D-02
 -0.12567759D-01 -0.14309318D-01 -0.12116543D-01 -0.69408221D-02 -0.15787962D-02
  0.73896353D-03  0.21338745D-01 -0.35713752D-14  0.86542224D-01  0.20941049D-05
 -0.19252872D-17  0.53191007D-04  0.50353410D-06  0.23704782D-18 -0.39344252D-05
 -0.53491251D-03 -0.11838533D-04  0.54675104D-03 -0.13621761D-16 -0.19383494D-02
 -0.35868923D-15  0.39818501D-04  0.13468699D-05 -0.41165371D-04  0.58840702D-17
  0.12809375D-03  0.23372625D-16  0.30332452D-05  0.10182029D-06 -0.31350655D-05
 -0.27331262D-17  0.33457327D-05 -0.20554617D-17  0.17523130D-03  0.59480330D-17
 -0.12032458D-03 -0.38438621D-04 -0.22630628D-16  0.56861597D-03 -0.48725527D-03
  0.47865294D-17 -0.20764223D-03  0.23701559D-16 -0.19938800D-04 -0.41399750D-18
  0.11972536D-04 -0.19215716D-05  0.14507902D-17 -0.61893379D-04  0.61737972D-04
 -0.20879773D-18  0.25975771D-04 -0.25177206D-17
MO    6     MO 0.0        OCC NO =    2.0000000  ORB. ENERGY =   -7.147128
  0.11708700D-17  0.21823510D-17  0.37005441D-17  0.56009459D-17  0.69883452D-17
  0.60020565D-17  0.23043062D-17 -0.10307303D-19  0.35026069D-18  0.65692260D-18
  0.11199090D-17  0.17501998D-17  0.23403506D-17  0.24989488D-17  0.15278083D-17
 -0.10079551D-17 -0.38376921D-16  0.31515425D-15  0.15375006D-16  0.41574119D-15
  0.40312911D-15  0.27194851D-15 -0.86773094D-05 -0.84140712D-05 -0.56760827D-05
  0.17102248D-15  0.16583428D-15  0.11187083D-15 -0.25159542D-16  0.50298948D-04
  0.16921759D-15  0.71210897D-16  0.51693044D-04  0.24820646D-15  0.91270840D-17
  0.70493361D-06 -0.33403196D-17 -0.99321437D-17  0.15445367D-16 -0.55132235D-17
  0.39263468D-03 -0.11222935D-15 -0.16065237D-03 -0.70532470D-16 -0.75247957D-16
  0.14578043D-15 -0.20126349D-04 -0.13518997D-15  0.63552004D-04 -0.14498060D-16
 -0.54471102D-17  0.19945171D-16  0.28953517D-04  0.98173398D-16  0.99787613D-05
  0.55742634D-16 -0.47143938D-04  0.63866736D-16 -0.12147809D-15  0.19916434D-03
 -0.11081066D-15 -0.45749812D-16 -0.57732522D-04 -0.80789544D-16 -0.18266231D-03
 -0.16675649D-16  0.61981391D-05  0.39684250D-17  0.52210658D-16 -0.74024575D-04
  0.38030059D-16 -0.21837113D-17  0.55430157D-04 -0.49935334D-16  0.58483275D-04
  0.27816527D-16  0.50168253D-16  0.73973059D-16 -0.53169470D-15  0.30897918D-16
  0.20394998D-17 -0.57598139D-17 -0.29466365D-04  0.17898218D-15 -0.91125714D-16
 -0.62481343D-04  0.23181591D-15 -0.16522909D-16 -0.43864044D-05 -0.16897711D-16
 -0.88489018D-16  0.12019380D-15 -0.31704782D-16  0.85534172D-05  0.89847004D-16
  0.87620128D-04  0.76092714D-17 -0.19294953D-16  0.11685682D-16 -0.10693135D-04
  0.26679353D-16  0.99573644D-05  0.26644157D-16  0.49851320D-16  0.86132038D-16
  0.13963008D-15  0.21203941D-15  0.29470985D-15  0.35036750D-15  0.31208042D-15
  0.15492606D-15  0.24961071D-16  0.38321893D-18  0.68480846D-19  0.25590224D-20
 -0.17539291D-15 -0.32760878D-15 -0.56858092D-15 -0.92257577D-15 -0.14280377D-14
 -0.20441062D-14 -0.26681972D-14 -0.28434093D-14 -0.21255062D-14 -0.11220170D-15
  0.14417361D-14  0.85655688D-15 -0.32114461D-17  0.99232583D-17  0.18520332D-16
  0.32186707D-16  0.52165183D-16  0.81020696D-16  0.11606449D-15  0.15325234D-15
  0.16571124D-15  0.12991976D-15  0.64647642D-17 -0.11137408D-15 -0.11529282D-15
  0.52171632D-16 -0.36171488D-16  0.22056360D-17 -0.42169791D-16  0.51508749D-13
  0.67848582D-13  0.74852881D-13  0.62173922D-13  0.33022080D-13  0.85173578D-14
 -0.87555542D-17  0.11530697D+02  0.15188516D+02  0.16756491D+02  0.13918192D+02
  0.73922898D+01  0.19066872D+01 -0.19600096D-02  0.46149479D-12  0.60789220D-12
  0.67064751D-12  0.55704984D-12  0.29586270D-12  0.76311622D-13 -0.78445753D-16
  0.12857318D-15  0.16880716D-15  0.19219937D-15  0.16274654D-15  0.93227482D-16
  0.21206018D-16 -0.99255834D-17 -0.96287408D-02 -0.12641831D-01 -0.14393654D-01
 -0.12187955D-01 -0.69817301D-02 -0.15881014D-02  0.74331885D-03  0.76023838D-15
  0.99813726D-15  0.11364527D-14  0.96230147D-15  0.55124333D-15  0.12538873D-15
 -0.58688828D-16  0.41492960D-15  0.89094268D-01  0.37423850D-14  0.66750399D-17
  0.67679617D-04 -0.16895180D-16  0.36637281D-17 -0.43272498D-05 -0.10441295D-17
  0.14058196D-15 -0.19079331D-15  0.50211357D-16 -0.20305400D-02 -0.29516630D-15
  0.52850917D-03 -0.17778528D-16  0.33874899D-16 -0.16096371D-16  0.11540870D-03
  0.75275106D-16 -0.29627639D-04 -0.61894504D-18  0.14597831D-17 -0.84083806D-18
 -0.48256372D-09  0.18407043D-16  0.79227949D-06 -0.17372400D-16 -0.17518753D-03
 -0.14371960D-16  0.84489980D-16  0.63898154D-03  0.61671710D-16 -0.32372781D-16
 -0.11341895D-03 -0.18555830D-16 -0.38884775D-03 -0.35669810D-17  0.16244720D-04
  0.40798042D-17  0.80896234D-17 -0.61784335D-04 -0.30019623D-16  0.26113197D-17
  0.13050175D-04  0.17780211D-16  0.36679366D-04
MO    7     MO 0.0        OCC NO =    2.0000000  ORB. ENERGY =   -1.042691
 -0.35597391D-02 -0.66348956D-02 -0.11250585D-01 -0.17028284D-01 -0.21246326D-01
 -0.18247761D-01 -0.70056702D-02  0.31336793D-04 -0.93443506D-01 -0.17525561D+00
 -0.29877240D+00 -0.46692310D+00 -0.62436515D+00 -0.66667642D+00 -0.40759289D+00
  0.26890503D+00  0.14214713D+00  0.69918230D-01  0.30541883D-02  0.20211471D+00
  0.19598328D+00  0.13220916D+00 -0.26339066D-14 -0.25540034D-14 -0.17229156D-14
  0.18743605D+00  0.18174992D+00  0.12260742D+00  0.61575342D-01 -0.65935049D-15
  0.44495735D-01  0.33559893D-03 -0.12715472D-15  0.45576595D-02 -0.24555209D-03
  0.51435519D-18  0.27520917D-03  0.52837116D-02 -0.20057498D-01  0.14773786D-01
  0.12369167D-14 -0.11105252D-02  0.88064413D-15  0.81405431D-02 -0.95768808D-02