 Molden2AIM, Version 4.0.0 (06/02/2016)           Time: Thu Jun 28 21:45:32 2018
GAUSSIAN             23 MOL ORBITALS    399 PRIMITIVES        3 NUCLEI
  Mg   1    (CENTRE  1)   0.00000000  0.00000000  1.79609397  CHARGE = 12.0
  Cl   2    (CENTRE  2)   0.00000000  1.90215674 -5.45332819  CHARGE = 17.0
  Cl   3    (CENTRE  3)   0.00000000 -1.90215674 -5.45332441  CHARGE = 17.0
CENTRE ASSIGNMENTS    1  1  1  1  1  1  1  1  1  1  1  1  1  1  1  1  1  1  1  1
CENTRE ASSIGNMENTS    1  1  1  1  1  1  1  1  1  1  1  1  1  1  1  1  1  1  1  1
CENTRE ASSIGNMENTS    1  1  1  1  1  1  1  1  1  1  1  1  1  1  1  1  1  1  1  1
CENTRE ASSIGNMENTS    1  1  1  1  1  1  1  1  1  1  1  1  1  1  1  1  1  1  1  1
CENTRE ASSIGNMENTS    1  1  1  1  1  1  1  1  1  1  1  1  1  1  1  1  1  1  1  1
CENTRE ASSIGNMENTS    1  1  1  1  1  1  1  1  1  1  1  1  1  1  1  1  1  1  1  1
CENTRE ASSIGNMENTS    1  1  1  1  1  1  1  1  1  1  1  1  1  1  1  1  1  2  2  2
CENTRE ASSIGNMENTS    2  2  2  2  2  2  2  2  2  2  2  2  2  2  2  2  2  2  2  2
CENTRE ASSIGNMENTS    2  2  2  2  2  2  2  2  2  2  2  2  2  2  2  2  2  2  2  2
CENTRE ASSIGNMENTS    2  2  2  2  2  2  2  2  2  2  2  2  2  2  2  2  2  2  2  2
CENTRE ASSIGNMENTS    2  2  2  2  2  2  2  2  2  2  2  2  2  2  2  2  2  2  2  2
CENTRE ASSIGNMENTS    2  2  2  2  2  2  2  2  2  2  2  2  2  2  2  2  2  2  2  2
CENTRE ASSIGNMENTS    2  2  2  2  2  2  2  2  2  2  2  2  2  2  2  2  2  2  2  2
CENTRE ASSIGNMENTS    2  2  2  2  2  2  2  2  3  3  3  3  3  3  3  3  3  3  3  3
CENTRE ASSIGNMENTS    3  3  3  3  3  3  3  3  3  3  3  3  3  3  3  3  3  3  3  3
CENTRE ASSIGNMENTS    3  3  3  3  3  3  3  3  3  3  3  3  3  3  3  3  3  3  3  3
CENTRE ASSIGNMENTS    3  3  3  3  3  3  3  3  3  3  3  3  3  3  3  3  3  3  3  3
CENTRE ASSIGNMENTS    3  3  3  3  3  3  3  3  3  3  3  3  3  3  3  3  3  3  3  3
CENTRE ASSIGNMENTS    3  3  3  3  3  3  3  3  3  3  3  3  3  3  3  3  3  3  3  3
CENTRE ASSIGNMENTS    3  3  3  3  3  3  3  3  3  3  3  3  3  3  3  3  3  3  3
TYPE ASSIGNMENTS      1  1  1  1  1  1  1  1  1  1  1  1  1  1  1  1  1  1  1  1
TYPE ASSIGNMENTS      1  1  1  1  1  1  1  1  1  1  1  1  1  1  1  1  1  1  1  1
TYPE ASSIGNMENTS      1  1  2  2  2  2  2  2  2  2  3  3  3  3  3  3  3  3  4  4
TYPE ASSIGNMENTS      4  4  4  4  4  4  2  2  2  2  2  2  2  2  3  3  3  3  3  3
TYPE ASSIGNMENTS      3  3  4  4  4  4  4  4  4  4  2  3  4  2  3  4  2  3  4  5
TYPE ASSIGNMENTS      6  7  8  9 10  5  6  7  8  9 10  5  6  7  8  9 10 11 12 13
TYPE ASSIGNMENTS     17 14 15 18 19 16 20 11 12 13 17 14 15 18 19 16 20  1  1  1
TYPE ASSIGNMENTS      1  1  1  1  1  1  1  1  1  1  1  1  1  1  1  1  1  1  1  1
TYPE ASSIGNMENTS      1  1  1  1  1  1  1  1  1  1  1  1  1  1  1  1  1  1  1  2
TYPE ASSIGNMENTS      2  2  2  2  2  2  3  3  3  3  3  3  3  4  4  4  4  4  4  4
TYPE ASSIGNMENTS      2  2  2  2  2  2  2  3  3  3  3  3  3  3  4  4  4  4  4  4
TYPE ASSIGNMENTS      4  2  3  4  2  3  4  2  3  4  5  6  7  8  9 10  5  6  7  8
TYPE ASSIGNMENTS      9 10  5  6  7  8  9 10 11 12 13 17 14 15 18 19 16 20 11 12
TYPE ASSIGNMENTS     13 17 14 15 18 19 16 20  1  1  1  1  1  1  1  1  1  1  1  1
TYPE ASSIGNMENTS      1  1  1  1  1  1  1  1  1  1  1  1  1  1  1  1  1  1  1  1
TYPE ASSIGNMENTS      1  1  1  1  1  1  1  1  1  1  2  2  2  2  2  2  2  3  3  3
TYPE ASSIGNMENTS      3  3  3  3  4  4  4  4  4  4  4  2  2  2  2  2  2  2  3  3
TYPE ASSIGNMENTS      3  3  3  3  3  4  4  4  4  4  4  4  2  3  4  2  3  4  2  3
TYPE ASSIGNMENTS      4  5  6  7  8  9 10  5  6  7  8  9 10  5  6  7  8  9 10 11
TYPE ASSIGNMENTS     12 13 17 14 15 18 19 16 20 11 12 13 17 14 15 18 19 16 20
EXPONENTS  0.1649000D+06 0.2471000D+05 0.5628000D+04 0.1596000D+04 0.5210000D+03
EXPONENTS  0.1880000D+03 0.7301000D+02 0.2990000D+02 0.1254000D+02 0.4306000D+01
EXPONENTS  0.1826000D+01 0.7417000D+00 0.7612000D-01 0.1649000D+06 0.2471000D+05
EXPONENTS  0.5628000D+04 0.1596000D+04 0.5210000D+03 0.1880000D+03 0.7301000D+02
EXPONENTS  0.2990000D+02 0.1254000D+02 0.4306000D+01 0.1826000D+01 0.7417000D+00
EXPONENTS  0.7612000D-01 0.1649000D+06 0.2471000D+05 0.5628000D+04 0.1596000D+04
EXPONENTS  0.5210000D+03 0.1880000D+03 0.7301000D+02 0.2990000D+02 0.1254000D+02
EXPONENTS  0.4306000D+01 0.1826000D+01 0.7417000D+00 0.7612000D-01 0.1457000D+00
EXPONENTS  0.3310000D-01 0.1290000D-01 0.3169000D+03 0.7486000D+02 0.2372000D+02
EXPONENTS  0.8669000D+01 0.3363000D+01 0.1310000D+01 0.4911000D+00 0.2364000D+00
EXPONENTS  0.3169000D+03 0.7486000D+02 0.2372000D+02 0.8669000D+01 0.3363000D+01
EXPONENTS  0.1310000D+01 0.4911000D+00 0.2364000D+00 0.3169000D+03 0.7486000D+02
EXPONENTS  0.2372000D+02 0.8669000D+01 0.3363000D+01 0.1310000D+01 0.4911000D+00
EXPONENTS  0.2364000D+00 0.3169000D+03 0.7486000D+02 0.2372000D+02 0.8669000D+01
EXPONENTS  0.3363000D+01 0.1310000D+01 0.4911000D+00 0.2364000D+00 0.3169000D+03
EXPONENTS  0.7486000D+02 0.2372000D+02 0.8669000D+01 0.3363000D+01 0.1310000D+01
EXPONENTS  0.4911000D+00 0.2364000D+00 0.3169000D+03 0.7486000D+02 0.2372000D+02
EXPONENTS  0.8669000D+01 0.3363000D+01 0.1310000D+01 0.4911000D+00 0.2364000D+00
EXPONENTS  0.8733000D-01 0.8733000D-01 0.8733000D-01 0.3237000D-01 0.3237000D-01
EXPONENTS  0.3237000D-01 0.7450000D-02 0.7450000D-02 0.7450000D-02 0.1260000D+00
EXPONENTS  0.1260000D+00 0.1260000D+00 0.1260000D+00 0.1260000D+00 0.1260000D+00
EXPONENTS  0.2940000D+00 0.2940000D+00 0.2940000D+00 0.2940000D+00 0.2940000D+00
EXPONENTS  0.2940000D+00 0.4680000D-01 0.4680000D-01 0.4680000D-01 0.4680000D-01
EXPONENTS  0.4680000D-01 0.4680000D-01 0.2520000D+00 0.2520000D+00 0.2520000D+00
EXPONENTS  0.2520000D+00 0.2520000D+00 0.2520000D+00 0.2520000D+00 0.2520000D+00
EXPONENTS  0.2520000D+00 0.2520000D+00 0.9400000D-01 0.9400000D-01 0.9400000D-01
EXPONENTS  0.9400000D-01 0.9400000D-01 0.9400000D-01 0.9400000D-01 0.9400000D-01
EXPONENTS  0.9400000D-01 0.9400000D-01 0.4561000D+06 0.6833000D+05 0.1555000D+05
EXPONENTS  0.4405000D+04 0.1439000D+04 0.5204000D+03 0.2031000D+03 0.8396000D+02
EXPONENTS  0.3620000D+02 0.1583000D+02 0.6334000D+01 0.2694000D+01 0.4313000D+00
EXPONENTS  0.4561000D+06 0.6833000D+05 0.1555000D+05 0.4405000D+04 0.1439000D+04
EXPONENTS  0.5204000D+03 0.2031000D+03 0.8396000D+02 0.3620000D+02 0.1583000D+02
EXPONENTS  0.6334000D+01 0.2694000D+01 0.4313000D+00 0.4561000D+06 0.6833000D+05
EXPONENTS  0.1555000D+05 0.4405000D+04 0.1439000D+04 0.5204000D+03 0.2031000D+03
EXPONENTS  0.8396000D+02 0.3620000D+02 0.1583000D+02 0.6334000D+01 0.2694000D+01
EXPONENTS  0.4313000D+00 0.9768000D+00 0.1625000D+00 0.5910000D-01 0.6633000D+03
EXPONENTS  0.1568000D+03 0.4998000D+02 0.1842000D+02 0.7240000D+01 0.2922000D+01
EXPONENTS  0.3818000D+00 0.6633000D+03 0.1568000D+03 0.4998000D+02 0.1842000D+02
EXPONENTS  0.7240000D+01 0.2922000D+01 0.3818000D+00 0.6633000D+03 0.1568000D+03
EXPONENTS  0.4998000D+02 0.1842000D+02 0.7240000D+01 0.2922000D+01 0.3818000D+00
EXPONENTS  0.6633000D+03 0.1568000D+03 0.4998000D+02 0.1842000D+02 0.7240000D+01
EXPONENTS  0.2922000D+01 0.3818000D+00 0.6633000D+03 0.1568000D+03 0.4998000D+02
EXPONENTS  0.1842000D+02 0.7240000D+01 0.2922000D+01 0.3818000D+00 0.6633000D+03
EXPONENTS  0.1568000D+03 0.4998000D+02 0.1842000D+02 0.7240000D+01 0.2922000D+01
EXPONENTS  0.3818000D+00 0.1022000D+01 0.1022000D+01 0.1022000D+01 0.1301000D+00
EXPONENTS  0.1301000D+00 0.1301000D+00 0.4190000D-01 0.4190000D-01 0.4190000D-01
EXPONENTS  0.1046000D+01 0.1046000D+01 0.1046000D+01 0.1046000D+01 0.1046000D+01
EXPONENTS  0.1046000D+01 0.3440000D+00 0.3440000D+00 0.3440000D+00 0.3440000D+00
EXPONENTS  0.3440000D+00 0.3440000D+00 0.1350000D+00 0.1350000D+00 0.1350000D+00
EXPONENTS  0.1350000D+00 0.1350000D+00 0.1350000D+00 0.7060000D+00 0.7060000D+00
EXPONENTS  0.7060000D+00 0.7060000D+00 0.7060000D+00 0.7060000D+00 0.7060000D+00
EXPONENTS  0.7060000D+00 0.7060000D+00 0.7060000D+00 0.3120000D+00 0.3120000D+00
EXPONENTS  0.3120000D+00 0.3120000D+00 0.3120000D+00 0.3120000D+00 0.3120000D+00
EXPONENTS  0.3120000D+00 0.3120000D+00 0.3120000D+00 0.4561000D+06 0.6833000D+05
EXPONENTS  0.1555000D+05 0.4405000D+04 0.1439000D+04 0.5204000D+03 0.2031000D+03
EXPONENTS  0.8396000D+02 0.3620000D+02 0.1583000D+02 0.6334000D+01 0.2694000D+01
EXPONENTS  0.4313000D+00 0.4561000D+06 0.6833000D+05 0.1555000D+05 0.4405000D+04
EXPONENTS  0.1439000D+04 0.5204000D+03 0.2031000D+03 0.8396000D+02 0.3620000D+02
EXPONENTS  0.1583000D+02 0.6334000D+01 0.2694000D+01 0.4313000D+00 0.4561000D+06
EXPONENTS  0.6833000D+05 0.1555000D+05 0.4405000D+04 0.1439000D+04 0.5204000D+03
EXPONENTS  0.2031000D+03 0.8396000D+02 0.3620000D+02 0.1583000D+02 0.6334000D+01
EXPONENTS  0.2694000D+01 0.4313000D+00 0.9768000D+00 0.1625000D+00 0.5910000D-01
EXPONENTS  0.6633000D+03 0.1568000D+03 0.4998000D+02 0.1842000D+02 0.7240000D+01
EXPONENTS  0.2922000D+01 0.3818000D+00 0.6633000D+03 0.1568000D+03 0.4998000D+02
EXPONENTS  0.1842000D+02 0.7240000D+01 0.2922000D+01 0.3818000D+00 0.6633000D+03
EXPONENTS  0.1568000D+03 0.4998000D+02 0.1842000D+02 0.7240000D+01 0.2922000D+01
EXPONENTS  0.3818000D+00 0.6633000D+03 0.1568000D+03 0.4998000D+02 0.1842000D+02
EXPONENTS  0.7240000D+01 0.2922000D+01 0.3818000D+00 0.6633000D+03 0.1568000D+03
EXPONENTS  0.4998000D+02 0.1842000D+02 0.7240000D+01 0.2922000D+01 0.3818000D+00
EXPONENTS  0.6633000D+03 0.1568000D+03 0.4998000D+02 0.1842000D+02 0.7240000D+01
EXPONENTS  0.2922000D+01 0.3818000D+00 0.1022000D+01 0.1022000D+01 0.1022000D+01
EXPONENTS  0.1301000D+00 0.1301000D+00 0.1301000D+00 0.4190000D-01 0.4190000D-01
EXPONENTS  0.4190000D-01 0.1046000D+01 0.1046000D+01 0.1046000D+01 0.1046000D+01
EXPONENTS  0.1046000D+01 0.1046000D+01 0.3440000D+00 0.3440000D+00 0.3440000D+00
EXPONENTS  0.3440000D+00 0.3440000D+00 0.3440000D+00 0.1350000D+00 0.1350000D+00
EXPONENTS  0.1350000D+00 0.1350000D+00 0.1350000D+00 0.1350000D+00 0.7060000D+00
EXPONENTS  0.7060000D+00 0.7060000D+00 0.7060000D+00 0.7060000D+00 0.7060000D+00
EXPONENTS  0.7060000D+00 0.7060000D+00 0.7060000D+00 0.7060000D+00 0.3120000D+00
EXPONENTS  0.3120000D+00 0.3120000D+00 0.3120000D+00 0.3120000D+00 0.3120000D+00
EXPONENTS  0.3120000D+00 0.3120000D+00 0.3120000D+00 0.3120000D+00
MO    1     MO 0.0        OCC NO =    2.0000000  ORB. ENERGY = -101.255353
  0.59278916D-08  0.11083454D-07  0.19105391D-07  0.30814117D-07  0.46247655D-07
  0.61983135D-07  0.68125264D-07  0.50990224D-07  0.17505572D-07  0.98672828D-09
 -0.68801529D-10  0.16341547D-10  0.10185470D-11 -0.12551153D-07 -0.23543542D-07
 -0.40499023D-07 -0.66089462D-07 -0.10029545D-06 -0.14203585D-06 -0.17173300D-06
 -0.16957924D-06 -0.84812897D-07  0.47490939D-07  0.75838889D-07  0.24752174D-07
 -0.14397597D-09  0.71194864D-08  0.13344846D-07  0.22984462D-07  0.37467382D-07
  0.57038836D-07  0.80830861D-07  0.98776495D-07  0.98902739D-07  0.51643242D-07
 -0.32154968D-07 -0.58137919D-07 -0.42614300D-07  0.19426540D-07  0.66897797D-08
 -0.34517427D-07 -0.10090158D-08 -0.86950186D-16 -0.11237853D-15 -0.12116923D-15
 -0.99887235D-16 -0.54535543D-16 -0.17486344D-16 -0.19694278D-17  0.22600068D-19
  0.49639828D-04  0.64156861D-04  0.69175465D-04  0.57025584D-04  0.31134320D-04
  0.99829472D-05  0.11243456D-05 -0.12902370D-07 -0.91180450D-07 -0.11784593D-06
 -0.12706430D-06 -0.10474691D-06 -0.57188783D-07 -0.18337083D-07 -0.20652435D-08
  0.23699597D-10 -0.35819170D-15 -0.46292173D-15 -0.50662458D-15 -0.42327156D-15
 -0.23679638D-15 -0.80211913D-16 -0.12553621D-16  0.23710806D-16 -0.52949045D-04
 -0.68430572D-04 -0.74890868D-04 -0.62569358D-04 -0.35003999D-04 -0.11857182D-04
 -0.18557164D-05  0.35050073D-05  0.87795453D-07  0.11346556D-06  0.12417745D-06
  0.10374701D-06  0.58040555D-07  0.19660537D-07  0.30769859D-08 -0.58116950D-08
  0.19556805D-18  0.11786429D-05  0.26874840D-08 -0.32624199D-20 -0.80647973D-06
  0.97772097D-08  0.74364624D-22 -0.96682073D-07 -0.89353546D-10  0.84156077D-10
 -0.47028709D-09  0.38613101D-09  0.15192985D-20 -0.45572394D-21 -0.78993405D-06
  0.44656048D-09  0.14616498D-08 -0.19082103D-08 -0.35394939D-20  0.76287507D-21
 -0.21858243D-05  0.10831610D-08  0.87254901D-09 -0.19557100D-08 -0.24612672D-21
  0.66892549D-22  0.76124707D-06 -0.84065019D-23 -0.21572966D-07 -0.11217205D-09
  0.68527482D-23 -0.14161873D-05  0.76472182D-10  0.18366757D-22  0.14809062D-05
  0.26004395D-09  0.18180667D-20  0.17500065D-23  0.73782759D-07  0.27331312D-09
 -0.12924971D-23  0.60846038D-06 -0.60370341D-09 -0.39575225D-23 -0.82980866D-06
 -0.21623594D-09 -0.60723690D-21  0.43686873D+00  0.81738307D+00  0.14122569D+01
  0.22894331D+01  0.34766868D+01  0.48321858D+01  0.57447719D+01  0.51170009D+01
  0.25402325D+01  0.40927215D+00  0.62834177D-02  0.11228406D-02  0.41958800D-04
 -0.82550166D-03 -0.15419186D-02 -0.26760744D-02 -0.43421813D-02 -0.67211809D-02
 -0.96207599D-02 -0.12558097D-01 -0.13382748D-01 -0.10003876D-01 -0.52808682D-03
  0.67856535D-02  0.40314578D-02 -0.15114944D-04  0.32970910D-03  0.61535454D-03
  0.10694320D-02  0.17332347D-02  0.26919849D-02  0.38563460D-02  0.50919455D-02
  0.55059036D-02  0.43166998D-02  0.21479755D-03 -0.37005031D-02 -0.38307067D-02
  0.17334490D-02 -0.20669743D-02 -0.13287168D-02 -0.37833011D-03  0.50294370D-17
  0.66248972D-17  0.73088136D-17  0.60708099D-17  0.32243546D-17  0.83165510D-18
 -0.85491317D-21  0.70330780D-03  0.92641421D-03  0.10220519D-02  0.84893158D-03
  0.45088819D-03  0.11629722D-03 -0.11954958D-06 -0.58533008D-04 -0.77101107D-04
 -0.85060583D-04 -0.70652592D-04 -0.37525308D-04 -0.96788716D-05  0.99495509D-08
 -0.35944055D-17 -0.47191910D-17 -0.53731461D-17 -0.45497594D-17 -0.26062774D-17
 -0.59283768D-18  0.27748066D-18 -0.96128523D-03 -0.12620970D-02 -0.14369903D-02
 -0.12167844D-02 -0.69702094D-03 -0.15854808D-03  0.74209228D-04  0.51216593D-04
  0.67243631D-04  0.76561822D-04  0.64829406D-04  0.37136780D-04  0.84473290D-05
 -0.39538149D-05 -0.61518278D-18 -0.10764406D-03  0.49946937D-05 -0.69477546D-19
  0.66688667D-03  0.12741405D-05  0.50754245D-20  0.21158976D-04  0.10459441D-05
 -0.79437098D-04  0.15453709D-03 -0.75099991D-04  0.11237036D-18  0.15409954D-19
  0.32114319D-05  0.76582862D-04 -0.15064688D-03  0.74064022D-04 -0.40623303D-19
 -0.83090157D-21 -0.12375837D-05  0.47999853D-04 -0.97518259D-04  0.49518406D-04
  0.18219653D-19 -0.53150231D-21  0.10130320D-05 -0.50541122D-20 -0.58023982D-04
 -0.16945137D-05  0.12034912D-19  0.87308940D-04  0.13546569D-05  0.31274242D-20
  0.86763005D-04  0.37288843D-05 -0.17106956D-20 -0.20533445D-21  0.50368916D-04
  0.67011630D-06  0.34191429D-20 -0.75540366D-04 -0.36706028D-06 -0.28031396D-20
 -0.75566381D-04 -0.16432886D-05  0.91017439D-21 -0.43613581D+00 -0.81601178D+00
 -0.14098876D+01 -0.22855922D+01 -0.34708541D+01 -0.48240791D+01 -0.57351341D+01
 -0.51084163D+01 -0.25359708D+01 -0.40858553D+00 -0.62728762D-02 -0.11209568D-02
 -0.41888407D-04  0.82448482D-03  0.15400193D-02  0.26727781D-02  0.43368327D-02
  0.67129019D-02  0.96089092D-02  0.12542628D-01  0.13366263D-01  0.99915530D-02
  0.52743633D-03 -0.67772951D-02 -0.40264919D-02  0.15096326D-04 -0.32935351D-03
 -0.61469087D-03 -0.10682786D-02 -0.17313654D-02 -0.26890815D-02 -0.38521869D-02
 -0.50864539D-02 -0.54999654D-02 -0.43120442D-02 -0.21456589D-03  0.36965121D-02
  0.38265753D-02 -0.17315795D-02  0.20637463D-02  0.13282323D-02  0.37844795D-03
 -0.91585404D-17 -0.12063853D-16 -0.13309256D-16 -0.11054867D-16 -0.58715084D-17
 -0.15144333D-17  0.15567859D-20  0.70760115D-03  0.93206952D-03  0.10282910D-02
  0.85411390D-03  0.45364064D-03  0.11700715D-03 -0.12027938D-06  0.58222066D-04
  0.76691527D-04  0.84608721D-04  0.70277268D-04  0.37325964D-04  0.96274550D-05
 -0.98966965D-08  0.41897587D-17  0.55008460D-17  0.62631179D-17  0.53033510D-17
  0.30379636D-17  0.69103133D-18 -0.32344069D-18 -0.96454155D-03 -0.12663723D-02
 -0.14418581D-02 -0.12209062D-02 -0.69938208D-03 -0.15908516D-03  0.74460610D-04
 -0.50956300D-04 -0.66901886D-04 -0.76172719D-04 -0.64499930D-04 -0.36948043D-04
 -0.84043980D-05  0.39337208D-05  0.83677334D-18 -0.10779177D-03 -0.49671056D-05
  0.74252035D-19  0.66682939D-03 -0.12699693D-05 -0.51392935D-20  0.21161802D-04
 -0.10341520D-05  0.79307330D-04 -0.15435910D-03  0.75051765D-04  0.99223860D-19
 -0.34177017D-20  0.32338587D-05 -0.76558830D-04  0.15063763D-03 -0.74078800D-04
 -0.38188965D-19 -0.42355067D-21 -0.12490465D-05 -0.47995820D-04  0.97496503D-04
 -0.49500682D-04  0.17708059D-19  0.14998810D-21  0.10162426D-05  0.35526444D-20
 -0.57931593D-04  0.16879710D-05 -0.17938082D-19  0.87168656D-04 -0.13454777D-05
  0.72801485D-20  0.86626122D-04 -0.37184352D-05  0.74646465D-21  0.57599095D-21
  0.50321252D-04 -0.66823173D-06 -0.12678366D-20 -0.75468217D-04  0.36405221D-06
 -0.46013627D-21 -0.75495539D-04  0.16406430D-05 -0.56535639D-22
MO    2     MO 0.0        OCC NO =    2.0000000  ORB. ENERGY = -101.255343
  0.70511311D-05  0.13183589D-04  0.22725553D-04  0.36652893D-04  0.55010837D-04
  0.73727936D-04  0.81033899D-04  0.60652046D-04  0.20822595D-04  0.11736973D-05
 -0.81838306D-07  0.19438006D-07  0.12115452D-08 -0.14930580D-04 -0.28006890D-04
 -0.48176763D-04 -0.78618597D-04 -0.11930930D-03 -0.16896278D-03 -0.20428987D-03
 -0.20172780D-03 -0.10089159D-03  0.56494195D-04  0.90216305D-04  0.29444652D-04
 -0.17127071D-06  0.84702301D-05  0.15876696D-04  0.27345187D-04  0.44575877D-04
  0.67860522D-04  0.96166487D-04  0.11751685D-03  0.11766705D-03  0.61441250D-04
 -0.38255565D-04 -0.69168129D-04 -0.50699293D-04  0.23112238D-04  0.80208111D-05
 -0.41120502D-04 -0.12021560D-05 -0.68107537D-18 -0.88025402D-18 -0.94911098D-18
 -0.78241047D-18 -0.42717350D-18 -0.13696944D-18 -0.15426405D-19  0.17702492D-21
 -0.41768545D-07 -0.53983642D-07 -0.58206457D-07 -0.47983157D-07 -0.26197417D-07
 -0.83999723D-08 -0.94606044D-09  0.10856468D-10 -0.10921300D-03 -0.14115205D-03
 -0.15219352D-03 -0.12546246D-03 -0.68498878D-04 -0.21963566D-04 -0.24736820D-05
  0.28386613D-07  0.34953964D-18  0.45173993D-18  0.49438715D-18  0.41304751D-18
  0.23107660D-18  0.78274408D-19  0.12250390D-19 -0.23138075D-19  0.44534312D-07
  0.57555495D-07  0.62989112D-07  0.52625753D-07  0.29441117D-07  0.99728228D-08
  0.15608035D-08 -0.29479869D-08  0.10516848D-03  0.13591820D-03  0.14874977D-03
  0.12427654D-03  0.69525659D-04  0.23550977D-04  0.36858620D-05 -0.69617171D-05
  0.88151295D-21 -0.98188282D-09  0.32198185D-05 -0.38189240D-21  0.68259645D-09
  0.11645552D-04 -0.80752942D-22  0.81107410D-10 -0.10646549D-06  0.10890477D-06
 -0.56337376D-06  0.45446899D-06 -0.77670076D-22 -0.18021056D-20  0.65749543D-09
  0.52012293D-06  0.17483725D-05 -0.22684955D-05  0.18218957D-21  0.51371640D-20
  0.18342390D-08  0.12902886D-05  0.10389190D-05 -0.23292076D-05  0.85626887D-23
  0.21674767D-21 -0.64205286D-09  0.62524990D-21  0.16981936D-10 -0.13370943D-06
  0.41797881D-21  0.11862797D-08  0.85227373D-07 -0.22937285D-20 -0.12372255D-08
  0.31590091D-06 -0.12165757D-21 -0.18849260D-21 -0.62249028D-10  0.32525615D-06
 -0.12864009D-21 -0.51077514D-09 -0.72025034D-06  0.69411790D-21  0.69752222D-09
 -0.25551809D-06  0.44717466D-22  0.43601177D+00  0.81577969D+00  0.14094866D+01
  0.22849422D+01  0.34698669D+01  0.48227070D+01  0.57335029D+01  0.51069634D+01
  0.25352495D+01  0.40846932D+00  0.62710921D-02  0.11206380D-02  0.41876494D-04
 -0.60473997D-03 -0.11295674D-02 -0.19604191D-02 -0.31809634D-02 -0.49237536D-02
 -0.70479060D-02 -0.91997188D-02 -0.98038355D-02 -0.73285661D-02 -0.38686198D-03
  0.49709845D-02  0.29533359D-02 -0.11072795D-04  0.21144776D-03  0.39463679D-03
  0.68584400D-03  0.11115514D-02  0.17264133D-02  0.24731369D-02  0.32655468D-02
  0.35310247D-02  0.27683692D-02  0.13775313D-03 -0.23731923D-02 -0.24566940D-02
  0.11116888D-02 -0.19201926D-02 -0.28741183D-03  0.70495876D-04  0.45421869D-17
  0.59830796D-17  0.66007384D-17  0.54826720D-17  0.29119803D-17  0.75108466D-18
 -0.77208949D-21 -0.25570384D-02 -0.33681935D-02 -0.37159065D-02 -0.30864875D-02
 -0.16393085D-02 -0.42282547D-03  0.43465021D-06 -0.18464930D-03 -0.24322457D-03
 -0.26833368D-03 -0.22288197D-03 -0.11837803D-03 -0.30533146D-04  0.31387037D-07
 -0.32110461D-17 -0.42158681D-17 -0.48000760D-17 -0.40645072D-17 -0.23283062D-17
 -0.52960889D-18  0.24788611D-18  0.19397970D-02  0.25468112D-02  0.28997319D-02
  0.24553739D-02  0.14065327D-02  0.31993739D-03 -0.14974831D-03  0.15411097D-03
  0.20233640D-03  0.23037488D-03  0.19507199D-03  0.11174474D-03  0.25418052D-04
 -0.11897047D-04 -0.56306864D-18  0.88044885D-04  0.16328990D-04 -0.38375750D-19
  0.33549312D-04  0.32835487D-05  0.32995707D-20 -0.16982438D-05  0.70472288D-05
 -0.77207790D-04  0.10583388D-03 -0.28626089D-04 -0.83679924D-21  0.15775168D-19
 -0.12776568D-04  0.14248892D-04 -0.53744181D-05 -0.88744736D-05 -0.38395218D-20
 -0.10168002D-20  0.62752788D-05  0.23595125D-05 -0.12877965D-04  0.10518453D-04
 -0.72064084D-21 -0.26827304D-21 -0.22537579D-05 -0.14157024D-19 -0.54964714D-04
 -0.38023785D-05  0.51189324D-19  0.83463636D-04  0.55838379D-05 -0.87182505D-20
  0.81430505D-04  0.58232977D-05 -0.21963318D-20  0.46790491D-20  0.28339912D-04
  0.10354967D-05 -0.17109094D-19 -0.42899279D-04 -0.18847960D-05  0.30719473D-20
 -0.42120458D-04 -0.12216939D-05  0.55647514D-21  0.43674490D+00  0.81715138D+00
  0.14118566D+01  0.22887841D+01  0.34757013D+01  0.48308161D+01  0.57431434D+01
  0.51155504D+01  0.25395124D+01  0.40915614D+00  0.62816366D-02  0.11225223D-02
  0.41946906D-04 -0.60612561D-03 -0.11321556D-02 -0.19649110D-02 -0.31882519D-02
 -0.49350354D-02 -0.70640548D-02 -0.92207980D-02 -0.98262989D-02 -0.73453579D-02
 -0.38774840D-03  0.49823744D-02  0.29601028D-02 -0.11098166D-04  0.21200124D-03
  0.39566976D-03  0.68763922D-03  0.11144609D-02  0.17309322D-02  0.24796104D-02
  0.32740945D-02  0.35402673D-02  0.27756155D-02  0.13811371D-03 -0.23794042D-02
 -0.24631245D-02  0.11145987D-02 -0.19236615D-02 -0.28964313D-03  0.69860480D-04
  0.87767076D-17  0.11560894D-16  0.12754374D-16  0.10593974D-16  0.56267168D-17
  0.14512944D-17 -0.14918813D-20  0.25558529D-02  0.33666319D-02  0.37141837D-02
  0.30850565D-02  0.16385484D-02  0.42262944D-03 -0.43444869D-06 -0.18475347D-03
 -0.24336178D-03 -0.26848505D-03 -0.22300770D-03 -0.11844481D-03 -0.30550371D-04
  0.31404742D-07 -0.38897167D-17 -0.51069129D-17 -0.58145961D-17 -0.49235611D-17
 -0.28204054D-17 -0.64154438D-18  0.30027808D-18 -0.19381792D-02 -0.25446871D-02
 -0.28973135D-02 -0.24533261D-02 -0.14053596D-02 -0.31967056D-03  0.14962342D-03
  0.15420146D-03  0.20245522D-03  0.23051016D-03  0.19518653D-03  0.11181036D-03
  0.25432978D-04 -0.11904033D-04 -0.79448470D-18 -0.87863917D-04  0.16337614D-04
 -0.47853648D-19 -0.34669289D-04  0.32857908D-05  0.38391976D-20  0.16627052D-05
  0.70490019D-05 -0.77341115D-04  0.10609325D-03 -0.28752136D-04  0.54704101D-21
  0.36712048D-20  0.12770576D-04  0.14377502D-04 -0.56274077D-05 -0.87500944D-05
  0.75574479D-20  0.58738360D-21 -0.62731844D-05  0.24401191D-05 -0.13041736D-04
  0.10601617D-04 -0.16252800D-20 -0.49102461D-21  0.22521467D-05 -0.15262026D-19
  0.55062107D-04 -0.38050673D-05  0.55118907D-19 -0.83610144D-04  0.55862947D-05
 -0.93328276D-20 -0.81576176D-04  0.58289073D-05  0.32698988D-20  0.47471813D-20
 -0.28424470D-04  0.10365394D-05 -0.17309138D-19  0.43026082D-04 -0.18855035D-05
  0.30675938D-20  0.42247330D-04 -0.12241146D-05 -0.69351711D-21
MO    3     MO 0.0        OCC NO =    2.0000000  ORB. ENERGY =  -46.564206
  0.42595588D+00  0.79641510D+00  0.13728411D+01  0.22141859D+01  0.33231816D+01
  0.44538737D+01  0.48952239D+01  0.36639647D+01  0.12578842D+01  0.70902563D-01
 -0.49438178D-02  0.11742418D-02  0.73188938D-04 -0.56835570D-03 -0.10661257D-02
 -0.18339232D-02 -0.29927388D-02 -0.45416937D-02 -0.64318303D-02 -0.77766108D-02
 -0.76790816D-02 -0.38405949D-02  0.21505392D-02  0.34342236D-02  0.11208563D-02
 -0.65196851D-05  0.24618645D-03  0.46145469D-03  0.79478532D-03  0.12955937D-02
  0.19723598D-02  0.27950700D-02  0.34156165D-02  0.34199819D-02  0.17857842D-02
 -0.11118945D-02 -0.20103653D-02 -0.14735702D-02  0.67175504D-03 -0.75213864D-03
 -0.29546458D-03  0.30956034D-04 -0.89213640D-17 -0.11530393D-16 -0.12432346D-16
 -0.10248746D-16 -0.55955191D-17 -0.17941542D-17 -0.20206951D-18  0.23188384D-20
  0.57575406D-09  0.74413177D-09  0.80234071D-09  0.66141872D-09  0.36111550D-09
  0.11578852D-09  0.13040869D-10 -0.14964983D-12  0.37432932D-03  0.48380091D-03
  0.52164574D-03  0.43002461D-03  0.23478101D-03  0.75280475D-04  0.84785850D-05
 -0.97295571D-07 -0.52872745D-17 -0.68331963D-17 -0.74782949D-17 -0.62479195D-17
 -0.34953558D-17 -0.11840096D-17 -0.18530423D-18  0.34999565D-18 -0.59688564D-09
 -0.77140628D-09 -0.84423210D-09 -0.70533380D-09 -0.39459417D-09 -0.13366401D-09
 -0.20919178D-10  0.39511355D-10 -0.39020658D-03 -0.50429728D-03 -0.55190625D-03
 -0.46110322D-03 -0.25796104D-03 -0.87381186D-04 -0.13675653D-04  0.25830058D-04
 -0.50777644D-19 -0.23289238D-10 -0.28074887D-04  0.51250115D-20  0.44304257D-11
  0.27509025D-04 -0.15656245D-21  0.58317264D-13 -0.54857404D-06 -0.81029246D-05
 -0.57782343D-05  0.13881159D-04  0.37285099D-22  0.10859553D-20  0.36207489D-10
  0.12632431D-04  0.90820848D-05 -0.21714516D-04 -0.74510613D-21 -0.34820192D-20
 -0.69441743D-10  0.35865005D-05  0.26326333D-05 -0.62191339D-05  0.81516918D-23
 -0.80516279D-23 -0.22122942D-11 -0.16227211D-21  0.96342851D-12 -0.64385339D-05
 -0.92024395D-22  0.28095361D-11  0.12958117D-04  0.57884073D-21 -0.56998216D-11
  0.63574844D-05 -0.17341461D-22  0.63903884D-22  0.11645535D-11  0.16288792D-05
  0.40348729D-22  0.80141468D-12 -0.32705499D-05 -0.23206038D-21 -0.42950750D-11
 -0.16160878D-05 -0.19433152D-23  0.14950952D-04  0.27973289D-04  0.48331646D-04
  0.78351235D-04  0.11898260D-03  0.16537182D-03  0.19660324D-03  0.17511905D-03
  0.86934338D-04  0.14006515D-04  0.21503731D-06  0.38426956D-07  0.14359554D-08
 -0.25378356D-04 -0.47403126D-04 -0.82270424D-04 -0.13349146D-03 -0.20662893D-03
 -0.29577054D-03 -0.38607295D-03 -0.41142515D-03 -0.30754865D-03 -0.16234947D-04
  0.20861101D-03  0.12393891D-03 -0.46467798D-06  0.12711112D-04  0.23723459D-04
  0.41229284D-04  0.66820540D-04  0.10378276D-03  0.14867180D-03  0.19630726D-03
  0.21226638D-03  0.16641959D-03  0.82809838D-05 -0.14266367D-03 -0.14768334D-03
  0.66828801D-04 -0.44900120D-04 -0.83021117D-04  0.81965998D-04 -0.62487340D-19
 -0.82309850D-19 -0.90807047D-19 -0.75425690D-19 -0.40060416D-19 -0.10332750D-19
  0.10621716D-22  0.10842200D-03  0.14281611D-03  0.15755962D-03  0.13087138D-03
  0.69508969D-04  0.17928391D-04 -0.18429776D-07  0.27624820D-03  0.36388088D-03
  0.40144586D-03  0.33344693D-03  0.17710176D-03  0.45679711D-04 -0.46957190D-07
  0.51323493D-19  0.67383984D-19  0.76721624D-19  0.64964720D-19  0.37214293D-19
  0.84649605D-20 -0.39620674D-20 -0.11570514D-03 -0.15191237D-03 -0.17296341D-03
 -0.14645831D-03 -0.83896959D-04 -0.19083647D-04  0.89321972D-05 -0.22071785D-03
 -0.28978636D-03 -0.32994309D-03 -0.27938226D-03 -0.16004091D-03 -0.36403755D-04
  0.17038961D-04  0.55571443D-20  0.65243176D-05 -0.28334007D-04  0.97018864D-21
 -0.27448949D-05  0.81812248D-05 -0.14068180D-21 -0.26703440D-05  0.11441799D-04
  0.19993803D-04 -0.33909286D-05 -0.16602875D-04 -0.22405551D-20  0.73440079D-20
  0.46849462D-04 -0.78249207D-05 -0.40540994D-05  0.11879020D-04  0.12385122D-20
 -0.43164032D-20 -0.22878334D-04  0.19747015D-06  0.34436236D-05 -0.36410937D-05
 -0.52042826D-21  0.15113180D-20  0.69047565D-05  0.41782902D-20  0.18695636D-04
  0.26846177D-04  0.24214654D-20 -0.99680050D-05 -0.62157013D-04 -0.14956336D-19
 -0.46118902D-04 -0.18381517D-04  0.65279974D-20 -0.12228231D-20 -0.62947659D-05
 -0.70661988D-05 -0.51128338D-21  0.50268259D-05  0.18234904D-04  0.41797526D-20
  0.13857472D-04  0.29636927D-05 -0.14984831D-20  0.14950898D-04  0.27973188D-04
  0.48331472D-04  0.78350953D-04  0.11898217D-03  0.16537123D-03  0.19660253D-03
  0.17511841D-03  0.86934025D-04  0.14006464D-04  0.21503654D-06  0.38426818D-07
  0.14359502D-08 -0.25378261D-04 -0.47402948D-04 -0.82270116D-04 -0.13349096D-03
 -0.20662816D-03 -0.29576944D-03 -0.38607150D-03 -0.41142361D-03 -0.30754750D-03
 -0.16234886D-04  0.20861023D-03  0.12393844D-03 -0.46467624D-06  0.12711061D-04
  0.23723364D-04  0.41229119D-04  0.66820273D-04  0.10378235D-03  0.14867120D-03
  0.19630647D-03  0.21226553D-03  0.16641893D-03  0.82809507D-05 -0.14266310D-03
 -0.14768275D-03  0.66828534D-04 -0.44900034D-04 -0.83020640D-04  0.81965798D-04
 -0.58409045D-19 -0.76937821D-19 -0.84880440D-19 -0.70502963D-19 -0.37445836D-19
 -0.96583734D-20  0.99284795D-23 -0.10841998D-03 -0.14281344D-03 -0.15755668D-03
 -0.13086894D-03 -0.69507671D-04 -0.17928056D-04  0.18429432D-07  0.27625425D-03
  0.36388885D-03  0.40145465D-03  0.33345423D-03  0.17710564D-03  0.45680712D-04
 -0.46958218D-07  0.48129637D-19  0.63190685D-19  0.71947244D-19  0.60921971D-19
  0.34898451D-19  0.79381868D-20 -0.37155083D-20  0.11570345D-03  0.15191015D-03
  0.17296088D-03  0.14645617D-03  0.83895733D-04  0.19083369D-04 -0.89320668D-05
 -0.22072297D-03 -0.28979309D-03 -0.32995075D-03 -0.27938874D-03 -0.16004463D-03
 -0.36404600D-04  0.17039356D-04  0.52234394D-20 -0.65244831D-05 -0.28334459D-04
  0.79168574D-21  0.27449576D-05  0.81810192D-05 -0.12298698D-21  0.26703204D-05
  0.11441792D-04  0.19993964D-04 -0.33909188D-05 -0.16603045D-04  0.17928897D-20
  0.72441935D-20 -0.46849529D-04 -0.78250149D-05 -0.40541091D-05  0.11879124D-04
 -0.11428577D-20 -0.43359209D-20  0.22878430D-04  0.19750900D-06  0.34436597D-05
 -0.36411687D-05  0.41959931D-21  0.15219030D-20 -0.69048670D-05  0.43117233D-20
 -0.18695693D-04  0.26846207D-04  0.28395936D-20  0.99678859D-05 -0.62157285D-04
 -0.15774763D-19  0.46119194D-04 -0.18381335D-04 -0.61665028D-20 -0.12315065D-20
  0.62947849D-05 -0.70662091D-05 -0.63543633D-21 -0.50267879D-05  0.18234999D-04
  0.43299559D-20 -0.13857567D-04  0.29636287D-05  0.14064243D-20
MO    4     MO 0.0        OCC NO =    2.0000000  ORB. ENERGY =   -9.468025
  0.88809461D-06  0.16604818D-05  0.28622984D-05  0.46164561D-05  0.69286512D-05
  0.92860821D-05  0.10206273D-04  0.76391652D-05  0.26226196D-05  0.14782795D-06