 Molden2AIM, Version 4.0.0 (06/02/2016)           Time: Thu Jun 28 20:17:28 2018
GAUSSIAN             41 MOL ORBITALS    674 PRIMITIVES        6 NUCLEI
  N    1    (CENTRE  1)   0.03434766  1.29483089 -0.54285029  CHARGE =  7.0
  N    2    (CENTRE  2)  -0.03434766 -1.29483089 -0.54285029  CHARGE =  7.0
  Cl   3    (CENTRE  3)   1.41561085  2.73265169  2.22310972  CHARGE = 17.0
  Cl   4    (CENTRE  4)  -3.08737029  2.33161212 -0.79941462  CHARGE = 17.0
  Cl   5    (CENTRE  5)  -1.41561085 -2.73265169  2.22310972  CHARGE = 17.0
  Cl   6    (CENTRE  6)   3.08737029 -2.33161212 -0.79941462  CHARGE = 17.0
CENTRE ASSIGNMENTS    1  1  1  1  1  1  1  1  1  1  1  1  1  1  1  1  1  1  1  1
CENTRE ASSIGNMENTS    1  1  1  1  1  1  1  1  1  1  1  1  1  1  1  1  1  1  1  1
CENTRE ASSIGNMENTS    1  1  1  1  1  1  1  1  1  1  1  1  1  1  1  1  1  1  1  1
CENTRE ASSIGNMENTS    1  1  1  1  1  1  1  1  1  1  1  1  1  1  1  2  2  2  2  2
CENTRE ASSIGNMENTS    2  2  2  2  2  2  2  2  2  2  2  2  2  2  2  2  2  2  2  2
CENTRE ASSIGNMENTS    2  2  2  2  2  2  2  2  2  2  2  2  2  2  2  2  2  2  2  2
CENTRE ASSIGNMENTS    2  2  2  2  2  2  2  2  2  2  2  2  2  2  2  2  2  2  2  2
CENTRE ASSIGNMENTS    2  2  2  2  2  2  2  2  2  2  3  3  3  3  3  3  3  3  3  3
CENTRE ASSIGNMENTS    3  3  3  3  3  3  3  3  3  3  3  3  3  3  3  3  3  3  3  3
CENTRE ASSIGNMENTS    3  3  3  3  3  3  3  3  3  3  3  3  3  3  3  3  3  3  3  3
CENTRE ASSIGNMENTS    3  3  3  3  3  3  3  3  3  3  3  3  3  3  3  3  3  3  3  3
CENTRE ASSIGNMENTS    3  3  3  3  3  3  3  3  3  3  3  3  3  3  3  3  3  3  3  3
CENTRE ASSIGNMENTS    3  3  3  3  3  3  3  3  3  3  3  3  3  3  3  3  3  3  3  3
CENTRE ASSIGNMENTS    3  3  3  3  3  3  3  3  3  3  3  3  3  3  3  3  3  3  3  3
CENTRE ASSIGNMENTS    3  4  4  4  4  4  4  4  4  4  4  4  4  4  4  4  4  4  4  4
CENTRE ASSIGNMENTS    4  4  4  4  4  4  4  4  4  4  4  4  4  4  4  4  4  4  4  4
CENTRE ASSIGNMENTS    4  4  4  4  4  4  4  4  4  4  4  4  4  4  4  4  4  4  4  4
CENTRE ASSIGNMENTS    4  4  4  4  4  4  4  4  4  4  4  4  4  4  4  4  4  4  4  4
CENTRE ASSIGNMENTS    4  4  4  4  4  4  4  4  4  4  4  4  4  4  4  4  4  4  4  4
CENTRE ASSIGNMENTS    4  4  4  4  4  4  4  4  4  4  4  4  4  4  4  4  4  4  4  4
CENTRE ASSIGNMENTS    4  4  4  4  4  4  4  4  4  4  4  4  5  5  5  5  5  5  5  5
CENTRE ASSIGNMENTS    5  5  5  5  5  5  5  5  5  5  5  5  5  5  5  5  5  5  5  5
CENTRE ASSIGNMENTS    5  5  5  5  5  5  5  5  5  5  5  5  5  5  5  5  5  5  5  5
CENTRE ASSIGNMENTS    5  5  5  5  5  5  5  5  5  5  5  5  5  5  5  5  5  5  5  5
CENTRE ASSIGNMENTS    5  5  5  5  5  5  5  5  5  5  5  5  5  5  5  5  5  5  5  5
CENTRE ASSIGNMENTS    5  5  5  5  5  5  5  5  5  5  5  5  5  5  5  5  5  5  5  5
CENTRE ASSIGNMENTS    5  5  5  5  5  5  5  5  5  5  5  5  5  5  5  5  5  5  5  5
CENTRE ASSIGNMENTS    5  5  5  6  6  6  6  6  6  6  6  6  6  6  6  6  6  6  6  6
CENTRE ASSIGNMENTS    6  6  6  6  6  6  6  6  6  6  6  6  6  6  6  6  6  6  6  6
CENTRE ASSIGNMENTS    6  6  6  6  6  6  6  6  6  6  6  6  6  6  6  6  6  6  6  6
CENTRE ASSIGNMENTS    6  6  6  6  6  6  6  6  6  6  6  6  6  6  6  6  6  6  6  6
CENTRE ASSIGNMENTS    6  6  6  6  6  6  6  6  6  6  6  6  6  6  6  6  6  6  6  6
CENTRE ASSIGNMENTS    6  6  6  6  6  6  6  6  6  6  6  6  6  6  6  6  6  6  6  6
CENTRE ASSIGNMENTS    6  6  6  6  6  6  6  6  6  6  6  6  6  6
TYPE ASSIGNMENTS      1  1  1  1  1  1  1  1  1  1  1  1  1  1  1  1  1  1  1  2
TYPE ASSIGNMENTS      2  2  3  3  3  4  4  4  2  3  4  2  3  4  2  3  4  5  6  7
TYPE ASSIGNMENTS      8  9 10  5  6  7  8  9 10  5  6  7  8  9 10 11 12 13 17 14
TYPE ASSIGNMENTS     15 18 19 16 20 11 12 13 17 14 15 18 19 16 20  1  1  1  1  1
TYPE ASSIGNMENTS      1  1  1  1  1  1  1  1  1  1  1  1  1  1  2  2  2  3  3  3
TYPE ASSIGNMENTS      4  4  4  2  3  4  2  3  4  2  3  4  5  6  7  8  9 10  5  6
TYPE ASSIGNMENTS      7  8  9 10  5  6  7  8  9 10 11 12 13 17 14 15 18 19 16 20
TYPE ASSIGNMENTS     11 12 13 17 14 15 18 19 16 20  1  1  1  1  1  1  1  1  1  1
TYPE ASSIGNMENTS      1  1  1  1  1  1  1  1  1  1  1  1  1  1  1  1  1  1  1  1
TYPE ASSIGNMENTS      1  1  1  1  1  1  1  1  1  1  1  1  2  2  2  2  2  2  2  3
TYPE ASSIGNMENTS      3  3  3  3  3  3  4  4  4  4  4  4  4  2  2  2  2  2  2  2
TYPE ASSIGNMENTS      3  3  3  3  3  3  3  4  4  4  4  4  4  4  2  3  4  2  3  4
TYPE ASSIGNMENTS      2  3  4  5  6  7  8  9 10  5  6  7  8  9 10  5  6  7  8  9
TYPE ASSIGNMENTS     10 11 12 13 17 14 15 18 19 16 20 11 12 13 17 14 15 18 19 16
TYPE ASSIGNMENTS     20  1  1  1  1  1  1  1  1  1  1  1  1  1  1  1  1  1  1  1
TYPE ASSIGNMENTS      1  1  1  1  1  1  1  1  1  1  1  1  1  1  1  1  1  1  1  1
TYPE ASSIGNMENTS      1  1  1  2  2  2  2  2  2  2  3  3  3  3  3  3  3  4  4  4
TYPE ASSIGNMENTS      4  4  4  4  2  2  2  2  2  2  2  3  3  3  3  3  3  3  4  4
TYPE ASSIGNMENTS      4  4  4  4  4  2  3  4  2  3  4  2  3  4  5  6  7  8  9 10
TYPE ASSIGNMENTS      5  6  7  8  9 10  5  6  7  8  9 10 11 12 13 17 14 15 18 19
TYPE ASSIGNMENTS     16 20 11 12 13 17 14 15 18 19 16 20  1  1  1  1  1  1  1  1
TYPE ASSIGNMENTS      1  1  1  1  1  1  1  1  1  1  1  1  1  1  1  1  1  1  1  1
TYPE ASSIGNMENTS      1  1  1  1  1  1  1  1  1  1  1  1  1  1  2  2  2  2  2  2
TYPE ASSIGNMENTS      2  3  3  3  3  3  3  3  4  4  4  4  4  4  4  2  2  2  2  2
TYPE ASSIGNMENTS      2  2  3  3  3  3  3  3  3  4  4  4  4  4  4  4  2  3  4  2
TYPE ASSIGNMENTS      3  4  2  3  4  5  6  7  8  9 10  5  6  7  8  9 10  5  6  7
TYPE ASSIGNMENTS      8  9 10 11 12 13 17 14 15 18 19 16 20 11 12 13 17 14 15 18
TYPE ASSIGNMENTS     19 16 20  1  1  1  1  1  1  1  1  1  1  1  1  1  1  1  1  1
TYPE ASSIGNMENTS      1  1  1  1  1  1  1  1  1  1  1  1  1  1  1  1  1  1  1  1
TYPE ASSIGNMENTS      1  1  1  1  1  2  2  2  2  2  2  2  3  3  3  3  3  3  3  4
TYPE ASSIGNMENTS      4  4  4  4  4  4  2  2  2  2  2  2  2  3  3  3  3  3  3  3
TYPE ASSIGNMENTS      4  4  4  4  4  4  4  2  3  4  2  3  4  2  3  4  5  6  7  8
TYPE ASSIGNMENTS      9 10  5  6  7  8  9 10  5  6  7  8  9 10 11 12 13 17 14 15
TYPE ASSIGNMENTS     18 19 16 20 11 12 13 17 14 15 18 19 16 20
EXPONENTS  0.1142000D+05 0.1712000D+04 0.3893000D+03 0.1100000D+03 0.3557000D+02
EXPONENTS  0.1254000D+02 0.4644000D+01 0.5118000D+00 0.1142000D+05 0.1712000D+04
EXPONENTS  0.3893000D+03 0.1100000D+03 0.3557000D+02 0.1254000D+02 0.4644000D+01
EXPONENTS  0.5118000D+00 0.1293000D+01 0.1787000D+00 0.5760000D-01 0.2663000D+02
EXPONENTS  0.5948000D+01 0.1742000D+01 0.2663000D+02 0.5948000D+01 0.1742000D+01
EXPONENTS  0.2663000D+02 0.5948000D+01 0.1742000D+01 0.5550000D+00 0.5550000D+00
EXPONENTS  0.5550000D+00 0.1725000D+00 0.1725000D+00 0.1725000D+00 0.4910000D-01
EXPONENTS  0.4910000D-01 0.4910000D-01 0.1654000D+01 0.1654000D+01 0.1654000D+01
EXPONENTS  0.1654000D+01 0.1654000D+01 0.1654000D+01 0.4690000D+00 0.4690000D+00
EXPONENTS  0.4690000D+00 0.4690000D+00 0.4690000D+00 0.4690000D+00 0.1510000D+00
EXPONENTS  0.1510000D+00 0.1510000D+00 0.1510000D+00 0.1510000D+00 0.1510000D+00
EXPONENTS  0.1093000D+01 0.1093000D+01 0.1093000D+01 0.1093000D+01 0.1093000D+01
EXPONENTS  0.1093000D+01 0.1093000D+01 0.1093000D+01 0.1093000D+01 0.1093000D+01
EXPONENTS  0.3640000D+00 0.3640000D+00 0.3640000D+00 0.3640000D+00 0.3640000D+00
EXPONENTS  0.3640000D+00 0.3640000D+00 0.3640000D+00 0.3640000D+00 0.3640000D+00
EXPONENTS  0.1142000D+05 0.1712000D+04 0.3893000D+03 0.1100000D+03 0.3557000D+02
EXPONENTS  0.1254000D+02 0.4644000D+01 0.5118000D+00 0.1142000D+05 0.1712000D+04
EXPONENTS  0.3893000D+03 0.1100000D+03 0.3557000D+02 0.1254000D+02 0.4644000D+01
EXPONENTS  0.5118000D+00 0.1293000D+01 0.1787000D+00 0.5760000D-01 0.2663000D+02
EXPONENTS  0.5948000D+01 0.1742000D+01 0.2663000D+02 0.5948000D+01 0.1742000D+01
EXPONENTS  0.2663000D+02 0.5948000D+01 0.1742000D+01 0.5550000D+00 0.5550000D+00
EXPONENTS  0.5550000D+00 0.1725000D+00 0.1725000D+00 0.1725000D+00 0.4910000D-01
EXPONENTS  0.4910000D-01 0.4910000D-01 0.1654000D+01 0.1654000D+01 0.1654000D+01
EXPONENTS  0.1654000D+01 0.1654000D+01 0.1654000D+01 0.4690000D+00 0.4690000D+00
EXPONENTS  0.4690000D+00 0.4690000D+00 0.4690000D+00 0.4690000D+00 0.1510000D+00
EXPONENTS  0.1510000D+00 0.1510000D+00 0.1510000D+00 0.1510000D+00 0.1510000D+00
EXPONENTS  0.1093000D+01 0.1093000D+01 0.1093000D+01 0.1093000D+01 0.1093000D+01
EXPONENTS  0.1093000D+01 0.1093000D+01 0.1093000D+01 0.1093000D+01 0.1093000D+01
EXPONENTS  0.3640000D+00 0.3640000D+00 0.3640000D+00 0.3640000D+00 0.3640000D+00
EXPONENTS  0.3640000D+00 0.3640000D+00 0.3640000D+00 0.3640000D+00 0.3640000D+00
EXPONENTS  0.4561000D+06 0.6833000D+05 0.1555000D+05 0.4405000D+04 0.1439000D+04
EXPONENTS  0.5204000D+03 0.2031000D+03 0.8396000D+02 0.3620000D+02 0.1583000D+02
EXPONENTS  0.6334000D+01 0.2694000D+01 0.4313000D+00 0.4561000D+06 0.6833000D+05
EXPONENTS  0.1555000D+05 0.4405000D+04 0.1439000D+04 0.5204000D+03 0.2031000D+03
EXPONENTS  0.8396000D+02 0.3620000D+02 0.1583000D+02 0.6334000D+01 0.2694000D+01
EXPONENTS  0.4313000D+00 0.4561000D+06 0.6833000D+05 0.1555000D+05 0.4405000D+04
EXPONENTS  0.1439000D+04 0.5204000D+03 0.2031000D+03 0.8396000D+02 0.3620000D+02
EXPONENTS  0.1583000D+02 0.6334000D+01 0.2694000D+01 0.4313000D+00 0.9768000D+00
EXPONENTS  0.1625000D+00 0.5910000D-01 0.6633000D+03 0.1568000D+03 0.4998000D+02
EXPONENTS  0.1842000D+02 0.7240000D+01 0.2922000D+01 0.3818000D+00 0.6633000D+03
EXPONENTS  0.1568000D+03 0.4998000D+02 0.1842000D+02 0.7240000D+01 0.2922000D+01
EXPONENTS  0.3818000D+00 0.6633000D+03 0.1568000D+03 0.4998000D+02 0.1842000D+02
EXPONENTS  0.7240000D+01 0.2922000D+01 0.3818000D+00 0.6633000D+03 0.1568000D+03
EXPONENTS  0.4998000D+02 0.1842000D+02 0.7240000D+01 0.2922000D+01 0.3818000D+00
EXPONENTS  0.6633000D+03 0.1568000D+03 0.4998000D+02 0.1842000D+02 0.7240000D+01
EXPONENTS  0.2922000D+01 0.3818000D+00 0.6633000D+03 0.1568000D+03 0.4998000D+02
EXPONENTS  0.1842000D+02 0.7240000D+01 0.2922000D+01 0.3818000D+00 0.1022000D+01
EXPONENTS  0.1022000D+01 0.1022000D+01 0.1301000D+00 0.1301000D+00 0.1301000D+00
EXPONENTS  0.4190000D-01 0.4190000D-01 0.4190000D-01 0.1046000D+01 0.1046000D+01
EXPONENTS  0.1046000D+01 0.1046000D+01 0.1046000D+01 0.1046000D+01 0.3440000D+00
EXPONENTS  0.3440000D+00 0.3440000D+00 0.3440000D+00 0.3440000D+00 0.3440000D+00
EXPONENTS  0.1350000D+00 0.1350000D+00 0.1350000D+00 0.1350000D+00 0.1350000D+00
EXPONENTS  0.1350000D+00 0.7060000D+00 0.7060000D+00 0.7060000D+00 0.7060000D+00
EXPONENTS  0.7060000D+00 0.7060000D+00 0.7060000D+00 0.7060000D+00 0.7060000D+00
EXPONENTS  0.7060000D+00 0.3120000D+00 0.3120000D+00 0.3120000D+00 0.3120000D+00
EXPONENTS  0.3120000D+00 0.3120000D+00 0.3120000D+00 0.3120000D+00 0.3120000D+00
EXPONENTS  0.3120000D+00 0.4561000D+06 0.6833000D+05 0.1555000D+05 0.4405000D+04
EXPONENTS  0.1439000D+04 0.5204000D+03 0.2031000D+03 0.8396000D+02 0.3620000D+02
EXPONENTS  0.1583000D+02 0.6334000D+01 0.2694000D+01 0.4313000D+00 0.4561000D+06
EXPONENTS  0.6833000D+05 0.1555000D+05 0.4405000D+04 0.1439000D+04 0.5204000D+03
EXPONENTS  0.2031000D+03 0.8396000D+02 0.3620000D+02 0.1583000D+02 0.6334000D+01
EXPONENTS  0.2694000D+01 0.4313000D+00 0.4561000D+06 0.6833000D+05 0.1555000D+05
EXPONENTS  0.4405000D+04 0.1439000D+04 0.5204000D+03 0.2031000D+03 0.8396000D+02
EXPONENTS  0.3620000D+02 0.1583000D+02 0.6334000D+01 0.2694000D+01 0.4313000D+00
EXPONENTS  0.9768000D+00 0.1625000D+00 0.5910000D-01 0.6633000D+03 0.1568000D+03
EXPONENTS  0.4998000D+02 0.1842000D+02 0.7240000D+01 0.2922000D+01 0.3818000D+00
EXPONENTS  0.6633000D+03 0.1568000D+03 0.4998000D+02 0.1842000D+02 0.7240000D+01
EXPONENTS  0.2922000D+01 0.3818000D+00 0.6633000D+03 0.1568000D+03 0.4998000D+02
EXPONENTS  0.1842000D+02 0.7240000D+01 0.2922000D+01 0.3818000D+00 0.6633000D+03
EXPONENTS  0.1568000D+03 0.4998000D+02 0.1842000D+02 0.7240000D+01 0.2922000D+01
EXPONENTS  0.3818000D+00 0.6633000D+03 0.1568000D+03 0.4998000D+02 0.1842000D+02
EXPONENTS  0.7240000D+01 0.2922000D+01 0.3818000D+00 0.6633000D+03 0.1568000D+03
EXPONENTS  0.4998000D+02 0.1842000D+02 0.7240000D+01 0.2922000D+01 0.3818000D+00
EXPONENTS  0.1022000D+01 0.1022000D+01 0.1022000D+01 0.1301000D+00 0.1301000D+00
EXPONENTS  0.1301000D+00 0.4190000D-01 0.4190000D-01 0.4190000D-01 0.1046000D+01
EXPONENTS  0.1046000D+01 0.1046000D+01 0.1046000D+01 0.1046000D+01 0.1046000D+01
EXPONENTS  0.3440000D+00 0.3440000D+00 0.3440000D+00 0.3440000D+00 0.3440000D+00
EXPONENTS  0.3440000D+00 0.1350000D+00 0.1350000D+00 0.1350000D+00 0.1350000D+00
EXPONENTS  0.1350000D+00 0.1350000D+00 0.7060000D+00 0.7060000D+00 0.7060000D+00
EXPONENTS  0.7060000D+00 0.7060000D+00 0.7060000D+00 0.7060000D+00 0.7060000D+00
EXPONENTS  0.7060000D+00 0.7060000D+00 0.3120000D+00 0.3120000D+00 0.3120000D+00
EXPONENTS  0.3120000D+00 0.3120000D+00 0.3120000D+00 0.3120000D+00 0.3120000D+00
EXPONENTS  0.3120000D+00 0.3120000D+00 0.4561000D+06 0.6833000D+05 0.1555000D+05
EXPONENTS  0.4405000D+04 0.1439000D+04 0.5204000D+03 0.2031000D+03 0.8396000D+02
EXPONENTS  0.3620000D+02 0.1583000D+02 0.6334000D+01 0.2694000D+01 0.4313000D+00
EXPONENTS  0.4561000D+06 0.6833000D+05 0.1555000D+05 0.4405000D+04 0.1439000D+04
EXPONENTS  0.5204000D+03 0.2031000D+03 0.8396000D+02 0.3620000D+02 0.1583000D+02
EXPONENTS  0.6334000D+01 0.2694000D+01 0.4313000D+00 0.4561000D+06 0.6833000D+05
EXPONENTS  0.1555000D+05 0.4405000D+04 0.1439000D+04 0.5204000D+03 0.2031000D+03
EXPONENTS  0.8396000D+02 0.3620000D+02 0.1583000D+02 0.6334000D+01 0.2694000D+01
EXPONENTS  0.4313000D+00 0.9768000D+00 0.1625000D+00 0.5910000D-01 0.6633000D+03
EXPONENTS  0.1568000D+03 0.4998000D+02 0.1842000D+02 0.7240000D+01 0.2922000D+01
EXPONENTS  0.3818000D+00 0.6633000D+03 0.1568000D+03 0.4998000D+02 0.1842000D+02
EXPONENTS  0.7240000D+01 0.2922000D+01 0.3818000D+00 0.6633000D+03 0.1568000D+03
EXPONENTS  0.4998000D+02 0.1842000D+02 0.7240000D+01 0.2922000D+01 0.3818000D+00
EXPONENTS  0.6633000D+03 0.1568000D+03 0.4998000D+02 0.1842000D+02 0.7240000D+01
EXPONENTS  0.2922000D+01 0.3818000D+00 0.6633000D+03 0.1568000D+03 0.4998000D+02
EXPONENTS  0.1842000D+02 0.7240000D+01 0.2922000D+01 0.3818000D+00 0.6633000D+03
EXPONENTS  0.1568000D+03 0.4998000D+02 0.1842000D+02 0.7240000D+01 0.2922000D+01
EXPONENTS  0.3818000D+00 0.1022000D+01 0.1022000D+01 0.1022000D+01 0.1301000D+00
EXPONENTS  0.1301000D+00 0.1301000D+00 0.4190000D-01 0.4190000D-01 0.4190000D-01
EXPONENTS  0.1046000D+01 0.1046000D+01 0.1046000D+01 0.1046000D+01 0.1046000D+01
EXPONENTS  0.1046000D+01 0.3440000D+00 0.3440000D+00 0.3440000D+00 0.3440000D+00
EXPONENTS  0.3440000D+00 0.3440000D+00 0.1350000D+00 0.1350000D+00 0.1350000D+00
EXPONENTS  0.1350000D+00 0.1350000D+00 0.1350000D+00 0.7060000D+00 0.7060000D+00
EXPONENTS  0.7060000D+00 0.7060000D+00 0.7060000D+00 0.7060000D+00 0.7060000D+00
EXPONENTS  0.7060000D+00 0.7060000D+00 0.7060000D+00 0.3120000D+00 0.3120000D+00
EXPONENTS  0.3120000D+00 0.3120000D+00 0.3120000D+00 0.3120000D+00 0.3120000D+00
EXPONENTS  0.3120000D+00 0.3120000D+00 0.3120000D+00 0.4561000D+06 0.6833000D+05
EXPONENTS  0.1555000D+05 0.4405000D+04 0.1439000D+04 0.5204000D+03 0.2031000D+03
EXPONENTS  0.8396000D+02 0.3620000D+02 0.1583000D+02 0.6334000D+01 0.2694000D+01
EXPONENTS  0.4313000D+00 0.4561000D+06 0.6833000D+05 0.1555000D+05 0.4405000D+04
EXPONENTS  0.1439000D+04 0.5204000D+03 0.2031000D+03 0.8396000D+02 0.3620000D+02
EXPONENTS  0.1583000D+02 0.6334000D+01 0.2694000D+01 0.4313000D+00 0.4561000D+06
EXPONENTS  0.6833000D+05 0.1555000D+05 0.4405000D+04 0.1439000D+04 0.5204000D+03
EXPONENTS  0.2031000D+03 0.8396000D+02 0.3620000D+02 0.1583000D+02 0.6334000D+01
EXPONENTS  0.2694000D+01 0.4313000D+00 0.9768000D+00 0.1625000D+00 0.5910000D-01
EXPONENTS  0.6633000D+03 0.1568000D+03 0.4998000D+02 0.1842000D+02 0.7240000D+01
EXPONENTS  0.2922000D+01 0.3818000D+00 0.6633000D+03 0.1568000D+03 0.4998000D+02
EXPONENTS  0.1842000D+02 0.7240000D+01 0.2922000D+01 0.3818000D+00 0.6633000D+03
EXPONENTS  0.1568000D+03 0.4998000D+02 0.1842000D+02 0.7240000D+01 0.2922000D+01
EXPONENTS  0.3818000D+00 0.6633000D+03 0.1568000D+03 0.4998000D+02 0.1842000D+02
EXPONENTS  0.7240000D+01 0.2922000D+01 0.3818000D+00 0.6633000D+03 0.1568000D+03
EXPONENTS  0.4998000D+02 0.1842000D+02 0.7240000D+01 0.2922000D+01 0.3818000D+00
EXPONENTS  0.6633000D+03 0.1568000D+03 0.4998000D+02 0.1842000D+02 0.7240000D+01
EXPONENTS  0.2922000D+01 0.3818000D+00 0.1022000D+01 0.1022000D+01 0.1022000D+01
EXPONENTS  0.1301000D+00 0.1301000D+00 0.1301000D+00 0.4190000D-01 0.4190000D-01
EXPONENTS  0.4190000D-01 0.1046000D+01 0.1046000D+01 0.1046000D+01 0.1046000D+01
EXPONENTS  0.1046000D+01 0.1046000D+01 0.3440000D+00 0.3440000D+00 0.3440000D+00
EXPONENTS  0.3440000D+00 0.3440000D+00 0.3440000D+00 0.1350000D+00 0.1350000D+00
EXPONENTS  0.1350000D+00 0.1350000D+00 0.1350000D+00 0.1350000D+00 0.7060000D+00
EXPONENTS  0.7060000D+00 0.7060000D+00 0.7060000D+00 0.7060000D+00 0.7060000D+00
EXPONENTS  0.7060000D+00 0.7060000D+00 0.7060000D+00 0.7060000D+00 0.3120000D+00
EXPONENTS  0.3120000D+00 0.3120000D+00 0.3120000D+00 0.3120000D+00 0.3120000D+00
EXPONENTS  0.3120000D+00 0.3120000D+00 0.3120000D+00 0.3120000D+00
MO    1     MO 0.0        OCC NO =    2.0000000  ORB. ENERGY = -101.251252
  0.31566521D-04  0.58819563D-04  0.99478627D-04  0.14980930D-03  0.18547363D-03
  0.15782969D-03  0.60057109D-04 -0.28127306D-06 -0.24139707D-04 -0.45262177D-04
 -0.77004430D-04 -0.11957975D-03 -0.15868928D-03 -0.16723672D-03 -0.10369744D-03
  0.68979574D-04  0.47712249D-04  0.90145812D-04  0.28398391D-03  0.36371643D-04
  0.34934529D-04  0.24498503D-04  0.92607514D-05  0.88948410D-05  0.62376765D-05
 -0.74611621D-05 -0.71663570D-05 -0.50255442D-05 -0.16509856D-03  0.30295109D-04
  0.16987168D-04  0.55105316D-05 -0.41470151D-04 -0.14821555D-03 -0.29050496D-04
 -0.78214946D-06  0.12203371D-04  0.12885016D-03 -0.74126164D-04 -0.54723995D-04
 -0.14123690D-03  0.12990211D-03  0.40171985D-04 -0.35172371D-04  0.22297231D-04
  0.12875140D-04  0.72650711D-04 -0.52884462D-04 -0.33484446D-04  0.87306976D-05
  0.12223181D-04 -0.20953878D-04 -0.17104748D-03 -0.32622048D-04 -0.19510844D-04
 -0.51058255D-05 -0.26123239D-04 -0.12035494D-04 -0.14102085D-03  0.97352980D-04
  0.38777604D-04  0.15633833D-03 -0.18983261D-04 -0.26711221D-05  0.82668492D-04
  0.33237443D-04  0.28503974D-04  0.87276418D-06  0.14454443D-04 -0.96237501D-04
 -0.17245516D-05 -0.11416677D-03  0.10725580D-04 -0.89374095D-06 -0.67358426D-04
  0.31566512D-04  0.58819547D-04  0.99478599D-04  0.14980926D-03  0.18547358D-03
  0.15782965D-03  0.60057092D-04 -0.28127298D-06 -0.24139701D-04 -0.45262165D-04
 -0.77004410D-04 -0.11957972D-03 -0.15868924D-03 -0.16723668D-03 -0.10369741D-03
  0.68979556D-04  0.47712244D-04  0.90145836D-04  0.28398385D-03 -0.36371665D-04
 -0.34934550D-04 -0.24498518D-04 -0.92607548D-05 -0.88948442D-05 -0.62376788D-05
 -0.74611687D-05 -0.71663633D-05 -0.50255486D-05  0.16509856D-03 -0.30295100D-04
  0.16987179D-04 -0.55105813D-05  0.41470272D-04 -0.14821555D-03  0.29050493D-04
  0.78214859D-06  0.12203367D-04  0.12885014D-03 -0.74126170D-04 -0.54723970D-04
 -0.14123686D-03 -0.12990210D-03 -0.40171983D-04 -0.35172382D-04  0.22297253D-04
  0.12875129D-04  0.72650720D-04  0.52884459D-04  0.33484439D-04  0.87307027D-05
  0.12223187D-04 -0.20953890D-04 -0.17104750D-03  0.32622056D-04  0.19510861D-04
  0.51058149D-05  0.26123257D-04 -0.12035490D-04  0.14102089D-03 -0.97353012D-04
  0.38777586D-04 -0.15633833D-03  0.18983241D-04 -0.26711165D-05  0.82668504D-04
 -0.33237436D-04 -0.28503974D-04  0.87276429D-06 -0.14454461D-04  0.96237499D-04
 -0.17245484D-05  0.11416677D-03 -0.10725576D-04 -0.89374449D-06 -0.67358429D-04
 -0.59472668D-04 -0.11127359D-03 -0.19225611D-03 -0.31166958D-03 -0.47329513D-03
 -0.65782457D-03 -0.78205852D-03 -0.69659757D-03 -0.34581189D-03 -0.55715837D-04
 -0.85538650D-06 -0.15285673D-06 -0.57120174D-08  0.36223188D-04  0.67659714D-04
  0.11742672D-03  0.19053584D-03  0.29492685D-03  0.42216099D-03  0.55105196D-03
  0.58723781D-03  0.43897219D-03  0.23172562D-04 -0.29775592D-03 -0.17690122D-03
  0.66324697D-06 -0.19046060D-04 -0.35546727D-04 -0.61777083D-04 -0.10012248D-03
 -0.15550588D-03 -0.22276667D-03 -0.29414263D-03 -0.31805543D-03 -0.24935958D-03
 -0.12408050D-04  0.21376421D-03  0.22128558D-03 -0.10013486D-03  0.32263229D-04
  0.18714780D-03  0.35351016D-04  0.13165955D-03  0.17342518D-03  0.19132860D-03
  0.15892039D-03  0.84406481D-04  0.21770894D-04 -0.22379738D-07 -0.32193602D-03
 -0.42406198D-03 -0.46783971D-03 -0.38859466D-03 -0.20639206D-03 -0.53234533D-04
  0.54723291D-07 -0.79978599D-03 -0.10534976D-02 -0.11622547D-02 -0.96538612D-03
 -0.51274002D-03 -0.13225061D-03  0.13594913D-06 -0.10826065D-03 -0.14213829D-03
 -0.16183491D-03 -0.13703515D-03 -0.78499010D-04 -0.17855801D-04  0.83574978D-05
  0.30020000D-03  0.39414060D-03  0.44875807D-03  0.37998990D-03  0.21767284D-03
  0.49513020D-04 -0.23174818D-04  0.71678660D-03  0.94108825D-03  0.10714982D-02
  0.90730068D-03  0.51973676D-03  0.11822208D-03 -0.55334440D-04 -0.15068713D-04
  0.98261686D-05  0.38425036D-04 -0.48675825D-04 -0.39693568D-04 -0.12927929D-03
  0.10640798D-06  0.38246752D-06 -0.25354764D-05  0.18488008D-05  0.11230449D-04
 -0.13079250D-04  0.46056880D-05 -0.10564188D-04  0.79436106D-06 -0.22789138D-04
 -0.91819093D-05  0.31971047D-04  0.13998202D-04  0.13337567D-04  0.37811109D-04
 -0.43317705D-05 -0.80092272D-05  0.12340998D-04  0.81866123D-05  0.25125838D-04
  0.25936470D-04  0.14135538D-04  0.80138804D-05 -0.14431277D-04 -0.51848197D-04
  0.35252699D-05  0.43298993D-04  0.94415813D-05 -0.27566911D-04 -0.51628023D-08
  0.14600455D-04 -0.14617965D-05  0.73881490D-06  0.43259265D-06  0.13564810D-04
  0.80717036D-05  0.22311496D-05 -0.91794204D-05 -0.10288148D-04 -0.35289276D-05
 -0.26132118D-04  0.43649140D+00  0.81667709D+00  0.14110371D+01  0.22874557D+01
  0.34736839D+01  0.48280122D+01  0.57398100D+01  0.51125813D+01  0.25380384D+01
  0.40891866D+00  0.62779906D-02  0.11218708D-02  0.41922560D-04 -0.80210450D-03
 -0.14982160D-02 -0.26002266D-02 -0.42191110D-02 -0.65306828D-02 -0.93480791D-02
 -0.12202163D-01 -0.13003441D-01 -0.97203362D-02 -0.51311928D-03  0.65933280D-02
  0.39171944D-02 -0.14686542D-04  0.31459141D-03  0.58713953D-03  0.10203968D-02
  0.16537631D-02  0.25685530D-02  0.36795263D-02  0.48584716D-02  0.52534489D-02
  0.41187721D-02  0.20494874D-03 -0.35308290D-02 -0.36550626D-02  0.16539675D-02
 -0.21772825D-02 -0.76075101D-03 -0.27778790D-03  0.44090071D-02  0.58076519D-02
  0.64072005D-02  0.53219165D-02  0.28265992D-02  0.72906238D-03 -0.74945134D-06
 -0.21835395D-02 -0.28762116D-02 -0.31731352D-02 -0.26356535D-02 -0.13998596D-02
 -0.36106463D-03  0.37116217D-06  0.97351297D-03  0.12823351D-02  0.14147160D-02
  0.11750842D-02  0.62411579D-03  0.16097767D-03 -0.16547957D-06 -0.36783307D-02
 -0.48293786D-02 -0.54986028D-02 -0.46559910D-02 -0.26671309D-02 -0.60667975D-03
  0.28395951D-03  0.18495668D-02  0.24283457D-02  0.27648502D-02  0.23411616D-02
  0.13411075D-02  0.30505543D-03 -0.14278273D-03 -0.82261389D-03 -0.10800317D-02
 -0.12296956D-02 -0.10412557D-02 -0.59647136D-03 -0.13567654D-03  0.63504088D-04
 -0.15005299D-03  0.81027029D-04 -0.52573069D-04 -0.35268646D-03  0.12904561D-03
 -0.65640668D-04 -0.13468491D-04  0.48548357D-05 -0.51663430D-05  0.14657336D-03
 -0.30689114D-04 -0.11588424D-03 -0.19555977D-03  0.48900008D-04 -0.12724274D-04
 -0.12940878D-04 -0.46181826D-05  0.17559061D-04  0.32954570D-04  0.35535174D-05
 -0.61657090D-05 -0.40503836D-04  0.11364036D-04  0.29139801D-04  0.44485149D-04
 -0.25850653D-04  0.87447455D-05  0.55414374D-04  0.13510591D-05 -0.17216491D-04
 -0.28777386D-04 -0.80573618D-04  0.51286113D-04 -0.13746574D-03  0.76520440D-04
  0.36335944D-06 -0.46747438D-04 -0.15237413D-04 -0.11127398D-05  0.61117333D-05
 -0.46933523D-05  0.39395260D-04 -0.19502031D-04  0.50405593D-04 -0.36057040D-04
  0.11668314D-05  0.12251224D-04 -0.59472665D-04 -0.11127358D-03 -0.19225610D-03
 -0.31166957D-03 -0.47329510D-03 -0.65782453D-03 -0.78205847D-03 -0.69659753D-03
 -0.34581187D-03 -0.55715834D-04 -0.85538646D-06 -0.15285672D-06 -0.57120171D-08
  0.36223186D-04  0.67659711D-04  0.11742671D-03  0.19053583D-03  0.29492683D-03
  0.42216097D-03  0.55105193D-03  0.58723779D-03  0.43897217D-03  0.23172561D-04
 -0.29775590D-03 -0.17690122D-03  0.66324694D-06 -0.19046059D-04 -0.35546726D-04
 -0.61777080D-04 -0.10012247D-03 -0.15550588D-03 -0.22276666D-03 -0.29414261D-03
 -0.31805542D-03 -0.24935957D-03 -0.12408050D-04  0.21376420D-03  0.22128557D-03
 -0.10013485D-03  0.32263224D-04  0.18714785D-03  0.35351027D-04 -0.13165910D-03
 -0.17342459D-03 -0.19132795D-03 -0.15891985D-03 -0.84406194D-04 -0.21770820D-04
  0.22379662D-07  0.32193593D-03  0.42406186D-03  0.46783958D-03  0.38859455D-03
  0.20639200D-03  0.53234518D-04 -0.54723275D-07 -0.79978626D-03 -0.10534980D-02
 -0.11622551D-02 -0.96538645D-03 -0.51274019D-03 -0.13225065D-03  0.13594918D-06
  0.10826026D-03  0.14213778D-03  0.16183432D-03  0.13703466D-03  0.78498727D-04
  0.17855737D-04 -0.83574676D-05 -0.30019993D-03 -0.39414050D-03 -0.44875796D-03
 -0.37998981D-03 -0.21767279D-03 -0.49513009D-04  0.23174813D-04  0.71678684D-03
  0.94108857D-03  0.10714986D-02  0.90730099D-03  0.51973694D-03  0.11822212D-03
 -0.55334459D-04  0.15068686D-04 -0.98261580D-05  0.38425048D-04  0.48675822D-04
  0.39693575D-04 -0.12927930D-03 -0.10640779D-06 -0.38246699D-06 -0.25354763D-05
  0.18488031D-05  0.11230450D-04 -0.13079253D-04  0.46056925D-05  0.10564187D-04
 -0.79437268D-06 -0.22789136D-04 -0.91819137D-05  0.31971050D-04  0.13998204D-04
 -0.13337577D-04 -0.37811103D-04 -0.43317728D-05 -0.80092258D-05  0.12340999D-04
  0.81866117D-05 -0.25125836D-04 -0.25936471D-04 -0.14135537D-04 -0.80138844D-05
 -0.14431274D-04  0.51848195D-04 -0.35252644D-05  0.43298972D-04 -0.94415835D-05
  0.27566918D-04 -0.51511754D-08  0.14600442D-04  0.14617958D-05 -0.73881357D-06
  0.43259168D-06 -0.13564809D-04 -0.80717042D-05  0.22311555D-05  0.91794217D-05
  0.10288145D-04 -0.35289305D-05 -0.26132114D-04  0.43649128D+00  0.81667687D+00
  0.14110367D+01  0.22874551D+01  0.34736830D+01  0.48280109D+01  0.57398085D+01
  0.51125799D+01  0.25380377D+01  0.40891854D+00  0.62779889D-02  0.11218704D-02
  0.41922548D-04 -0.80210429D-03 -0.14982156D-02 -0.26002259D-02 -0.42191099D-02
 -0.65306811D-02 -0.93480767D-02 -0.12202160D-01 -0.13003438D-01 -0.97203336D-02
 -0.51311914D-03  0.65933263D-02  0.39171933D-02 -0.14686538D-04  0.31459132D-03
  0.58713938D-03  0.10203966D-02  0.16537626D-02  0.25685523D-02  0.36795253D-02
  0.48584703D-02  0.52534476D-02  0.41187710D-02  0.20494868D-03 -0.35308281D-02
 -0.36550617D-02  0.16539671D-02 -0.21772819D-02 -0.76075084D-03 -0.27778785D-03
 -0.44090063D-02 -0.58076508D-02 -0.64071993D-02 -0.53219155D-02 -0.28265986D-02
 -0.72906224D-03  0.74945119D-06  0.21835390D-02  0.28762109D-02  0.31731344D-02
  0.26356529D-02  0.13998593D-02  0.36106454D-03 -0.37116207D-06  0.97351271D-03
  0.12823347D-02  0.14147156D-02  0.11750839D-02  0.62411562D-03  0.16097762D-03
 -0.16547953D-06  0.36783301D-02  0.48293777D-02  0.54986018D-02  0.46559902D-02
  0.26671304D-02  0.60667964D-03 -0.28395946D-03 -0.18495664D-02 -0.24283451D-02
 -0.27648495D-02 -0.23411610D-02 -0.13411072D-02 -0.30505535D-03  0.14278269D-03
 -0.82261367D-03 -0.10800314D-02 -0.12296953D-02 -0.10412554D-02 -0.59647120D-03
 -0.13567651D-03  0.63504071D-04  0.15005296D-03 -0.81027005D-04 -0.52573055D-04
  0.35268638D-03 -0.12904557D-03 -0.65640656D-04  0.13468489D-04 -0.48548345D-05
 -0.51663421D-05  0.14657332D-03 -0.30689105D-04 -0.11588422D-03 -0.19555972D-03
 -0.48899993D-04  0.12724279D-04 -0.12940864D-04 -0.46181873D-05  0.17559051D-04
  0.32954562D-04 -0.35535192D-05  0.61657041D-05 -0.40503826D-04  0.11364033D-04
  0.29139793D-04  0.44485131D-04  0.25850646D-04 -0.87447444D-05 -0.55414366D-04
 -0.13510540D-05 -0.17216485D-04  0.28777387D-04  0.80573581D-04  0.51286093D-04
  0.13746571D-03 -0.76520419D-04  0.36336155D-06 -0.46747436D-04  0.15237408D-04
  0.11127382D-05  0.61117308D-05  0.46933541D-05 -0.39395245D-04 -0.19502022D-04
 -0.50405579D-04  0.36057030D-04  0.11668298D-05  0.12251226D-04
MO    2     MO 0.0        OCC NO =    2.0000000  ORB. ENERGY = -101.251250
 -0.32593657D-04 -0.60733480D-04 -0.10271554D-03 -0.15468391D-03 -0.19150872D-03
 -0.16296528D-03 -0.62011294D-04  0.29042534D-06  0.23322232D-04  0.43729403D-04
  0.74396725D-04  0.11553026D-03  0.15331537D-03  0.16157336D-03  0.10018579D-03
 -0.66643625D-04 -0.20889767D-04  0.88647136D-04 -0.23517070D-03  0.81244523D-04
  0.78034394D-04  0.54723103D-04  0.12235931D-04  0.11752465D-04  0.82416398D-05
 -0.24272428D-04 -0.23313377D-04 -0.16348949D-04 -0.42190815D-05 -0.31104467D-04
  0.40274080D-04  0.18294842D-03 -0.44927087D-03 -0.19012744D-05  0.10455544D-04
  0.31998894D-05 -0.15471849D-04 -0.71305074D-04 -0.21680990D-04  0.92986063D-04
  0.14716436D-03 -0.33380575D-04 -0.78360739D-05 -0.39397398D-04  0.78789189D-04
 -0.39391791D-04  0.34225999D-04  0.10763425D-04  0.26431671D-04  0.18524888D-04
  0.22954818D-04 -0.41479706D-04 -0.50259196D-04 -0.29234894D-04 -0.64648948D-04
  0.39042927D-04 -0.64821514D-04  0.14119926D-04 -0.13346955D-03  0.12080590D-03
 -0.62885768D-04  0.16340766D-04  0.73658639D-04  0.20525990D-04  0.46702537D-04
 -0.25768723D-04  0.62923679D-06  0.39563098D-06  0.68057410D-04  0.96836273D-05
  0.11833457D-04  0.92487590D-05 -0.11571338D-04 -0.13020350D-04 -0.99711653D-05
  0.32593665D-04  0.60733496D-04  0.10271557D-03  0.15468395D-03  0.19150877D-03
  0.16296532D-03  0.62011310D-04 -0.29042542D-06 -0.23322238D-04 -0.43729415D-04
 -0.74396746D-04 -0.11553029D-03 -0.15331542D-03 -0.16157340D-03 -0.10018582D-03
  0.66643644D-04  0.20889780D-04 -0.88647112D-04  0.23517078D-03  0.81244513D-04
  0.78034384D-04  0.54723096D-04  0.12235928D-04  0.11752463D-04  0.82416381D-05
  0.24272426D-04  0.23313375D-04  0.16348948D-04 -0.42190367D-05 -0.31104475D-04
 -0.40274075D-04  0.18294841D-03 -0.44927086D-03  0.19012341D-05  0.10455552D-04
  0.31998896D-05  0.15471853D-04  0.71305109D-04  0.21680969D-04 -0.92986078D-04