 Molden2AIM, Version 4.0.0 (06/02/2016)           Time: Thu Jun 28 18:10:53 2018
GAUSSIAN             16 MOL ORBITALS    300 PRIMITIVES        4 NUCLEI
  F    1    (CENTRE  1)  -0.20763933  0.00000000 -0.52647770  CHARGE =  9.0
  N    2    (CENTRE  2)   0.00028157  0.00000000  2.05281894  CHARGE =  7.0
  N    3    (CENTRE  3)   2.26857842  0.00000000  2.49136579  CHARGE =  7.0
  F    4    (CENTRE  4)   2.47650120  0.00000000  5.07066243  CHARGE =  9.0
CENTRE ASSIGNMENTS    1  1  1  1  1  1  1  1  1  1  1  1  1  1  1  1  1  1  1  1
CENTRE ASSIGNMENTS    1  1  1  1  1  1  1  1  1  1  1  1  1  1  1  1  1  1  1  1
CENTRE ASSIGNMENTS    1  1  1  1  1  1  1  1  1  1  1  1  1  1  1  1  1  1  1  1
CENTRE ASSIGNMENTS    1  1  1  1  1  1  1  1  1  1  1  1  1  1  1  2  2  2  2  2
CENTRE ASSIGNMENTS    2  2  2  2  2  2  2  2  2  2  2  2  2  2  2  2  2  2  2  2
CENTRE ASSIGNMENTS    2  2  2  2  2  2  2  2  2  2  2  2  2  2  2  2  2  2  2  2
CENTRE ASSIGNMENTS    2  2  2  2  2  2  2  2  2  2  2  2  2  2  2  2  2  2  2  2
CENTRE ASSIGNMENTS    2  2  2  2  2  2  2  2  2  2  3  3  3  3  3  3  3  3  3  3
CENTRE ASSIGNMENTS    3  3  3  3  3  3  3  3  3  3  3  3  3  3  3  3  3  3  3  3
CENTRE ASSIGNMENTS    3  3  3  3  3  3  3  3  3  3  3  3  3  3  3  3  3  3  3  3
CENTRE ASSIGNMENTS    3  3  3  3  3  3  3  3  3  3  3  3  3  3  3  3  3  3  3  3
CENTRE ASSIGNMENTS    3  3  3  3  3  4  4  4  4  4  4  4  4  4  4  4  4  4  4  4
CENTRE ASSIGNMENTS    4  4  4  4  4  4  4  4  4  4  4  4  4  4  4  4  4  4  4  4
CENTRE ASSIGNMENTS    4  4  4  4  4  4  4  4  4  4  4  4  4  4  4  4  4  4  4  4
CENTRE ASSIGNMENTS    4  4  4  4  4  4  4  4  4  4  4  4  4  4  4  4  4  4  4  4
TYPE ASSIGNMENTS      1  1  1  1  1  1  1  1  1  1  1  1  1  1  1  1  1  1  1  2
TYPE ASSIGNMENTS      2  2  3  3  3  4  4  4  2  3  4  2  3  4  2  3  4  5  6  7
TYPE ASSIGNMENTS      8  9 10  5  6  7  8  9 10  5  6  7  8  9 10 11 12 13 17 14
TYPE ASSIGNMENTS     15 18 19 16 20 11 12 13 17 14 15 18 19 16 20  1  1  1  1  1
TYPE ASSIGNMENTS      1  1  1  1  1  1  1  1  1  1  1  1  1  1  2  2  2  3  3  3
TYPE ASSIGNMENTS      4  4  4  2  3  4  2  3  4  2  3  4  5  6  7  8  9 10  5  6
TYPE ASSIGNMENTS      7  8  9 10  5  6  7  8  9 10 11 12 13 17 14 15 18 19 16 20
TYPE ASSIGNMENTS     11 12 13 17 14 15 18 19 16 20  1  1  1  1  1  1  1  1  1  1
TYPE ASSIGNMENTS      1  1  1  1  1  1  1  1  1  2  2  2  3  3  3  4  4  4  2  3
TYPE ASSIGNMENTS      4  2  3  4  2  3  4  5  6  7  8  9 10  5  6  7  8  9 10  5
TYPE ASSIGNMENTS      6  7  8  9 10 11 12 13 17 14 15 18 19 16 20 11 12 13 17 14
TYPE ASSIGNMENTS     15 18 19 16 20  1  1  1  1  1  1  1  1  1  1  1  1  1  1  1
TYPE ASSIGNMENTS      1  1  1  1  2  2  2  3  3  3  4  4  4  2  3  4  2  3  4  2
TYPE ASSIGNMENTS      3  4  5  6  7  8  9 10  5  6  7  8  9 10  5  6  7  8  9 10
TYPE ASSIGNMENTS     11 12 13 17 14 15 18 19 16 20 11 12 13 17 14 15 18 19 16 20
EXPONENTS  0.1950000D+05 0.2923000D+04 0.6645000D+03 0.1875000D+03 0.6062000D+02
EXPONENTS  0.2142000D+02 0.7950000D+01 0.8815000D+00 0.1950000D+05 0.2923000D+04
EXPONENTS  0.6645000D+03 0.1875000D+03 0.6062000D+02 0.2142000D+02 0.7950000D+01
EXPONENTS  0.8815000D+00 0.2257000D+01 0.3041000D+00 0.9158000D-01 0.4388000D+02
EXPONENTS  0.9926000D+01 0.2930000D+01 0.4388000D+02 0.9926000D+01 0.2930000D+01
EXPONENTS  0.4388000D+02 0.9926000D+01 0.2930000D+01 0.9132000D+00 0.9132000D+00
EXPONENTS  0.9132000D+00 0.2672000D+00 0.2672000D+00 0.2672000D+00 0.7361000D-01
EXPONENTS  0.7361000D-01 0.7361000D-01 0.3107000D+01 0.3107000D+01 0.3107000D+01
EXPONENTS  0.3107000D+01 0.3107000D+01 0.3107000D+01 0.8550000D+00 0.8550000D+00
EXPONENTS  0.8550000D+00 0.8550000D+00 0.8550000D+00 0.8550000D+00 0.2920000D+00
EXPONENTS  0.2920000D+00 0.2920000D+00 0.2920000D+00 0.2920000D+00 0.2920000D+00
EXPONENTS  0.1917000D+01 0.1917000D+01 0.1917000D+01 0.1917000D+01 0.1917000D+01
EXPONENTS  0.1917000D+01 0.1917000D+01 0.1917000D+01 0.1917000D+01 0.1917000D+01
EXPONENTS  0.7240000D+00 0.7240000D+00 0.7240000D+00 0.7240000D+00 0.7240000D+00
EXPONENTS  0.7240000D+00 0.7240000D+00 0.7240000D+00 0.7240000D+00 0.7240000D+00
EXPONENTS  0.1142000D+05 0.1712000D+04 0.3893000D+03 0.1100000D+03 0.3557000D+02
EXPONENTS  0.1254000D+02 0.4644000D+01 0.5118000D+00 0.1142000D+05 0.1712000D+04
EXPONENTS  0.3893000D+03 0.1100000D+03 0.3557000D+02 0.1254000D+02 0.4644000D+01
EXPONENTS  0.5118000D+00 0.1293000D+01 0.1787000D+00 0.5760000D-01 0.2663000D+02
EXPONENTS  0.5948000D+01 0.1742000D+01 0.2663000D+02 0.5948000D+01 0.1742000D+01
EXPONENTS  0.2663000D+02 0.5948000D+01 0.1742000D+01 0.5550000D+00 0.5550000D+00
EXPONENTS  0.5550000D+00 0.1725000D+00 0.1725000D+00 0.1725000D+00 0.4910000D-01
EXPONENTS  0.4910000D-01 0.4910000D-01 0.1654000D+01 0.1654000D+01 0.1654000D+01
EXPONENTS  0.1654000D+01 0.1654000D+01 0.1654000D+01 0.4690000D+00 0.4690000D+00
EXPONENTS  0.4690000D+00 0.4690000D+00 0.4690000D+00 0.4690000D+00 0.1510000D+00
EXPONENTS  0.1510000D+00 0.1510000D+00 0.1510000D+00 0.1510000D+00 0.1510000D+00
EXPONENTS  0.1093000D+01 0.1093000D+01 0.1093000D+01 0.1093000D+01 0.1093000D+01
EXPONENTS  0.1093000D+01 0.1093000D+01 0.1093000D+01 0.1093000D+01 0.1093000D+01
EXPONENTS  0.3640000D+00 0.3640000D+00 0.3640000D+00 0.3640000D+00 0.3640000D+00
EXPONENTS  0.3640000D+00 0.3640000D+00 0.3640000D+00 0.3640000D+00 0.3640000D+00
EXPONENTS  0.1142000D+05 0.1712000D+04 0.3893000D+03 0.1100000D+03 0.3557000D+02
EXPONENTS  0.1254000D+02 0.4644000D+01 0.5118000D+00 0.1142000D+05 0.1712000D+04
EXPONENTS  0.3893000D+03 0.1100000D+03 0.3557000D+02 0.1254000D+02 0.4644000D+01
EXPONENTS  0.5118000D+00 0.1293000D+01 0.1787000D+00 0.5760000D-01 0.2663000D+02
EXPONENTS  0.5948000D+01 0.1742000D+01 0.2663000D+02 0.5948000D+01 0.1742000D+01
EXPONENTS  0.2663000D+02 0.5948000D+01 0.1742000D+01 0.5550000D+00 0.5550000D+00
EXPONENTS  0.5550000D+00 0.1725000D+00 0.1725000D+00 0.1725000D+00 0.4910000D-01
EXPONENTS  0.4910000D-01 0.4910000D-01 0.1654000D+01 0.1654000D+01 0.1654000D+01
EXPONENTS  0.1654000D+01 0.1654000D+01 0.1654000D+01 0.4690000D+00 0.4690000D+00
EXPONENTS  0.4690000D+00 0.4690000D+00 0.4690000D+00 0.4690000D+00 0.1510000D+00
EXPONENTS  0.1510000D+00 0.1510000D+00 0.1510000D+00 0.1510000D+00 0.1510000D+00
EXPONENTS  0.1093000D+01 0.1093000D+01 0.1093000D+01 0.1093000D+01 0.1093000D+01
EXPONENTS  0.1093000D+01 0.1093000D+01 0.1093000D+01 0.1093000D+01 0.1093000D+01
EXPONENTS  0.3640000D+00 0.3640000D+00 0.3640000D+00 0.3640000D+00 0.3640000D+00
EXPONENTS  0.3640000D+00 0.3640000D+00 0.3640000D+00 0.3640000D+00 0.3640000D+00
EXPONENTS  0.1950000D+05 0.2923000D+04 0.6645000D+03 0.1875000D+03 0.6062000D+02
EXPONENTS  0.2142000D+02 0.7950000D+01 0.8815000D+00 0.1950000D+05 0.2923000D+04
EXPONENTS  0.6645000D+03 0.1875000D+03 0.6062000D+02 0.2142000D+02 0.7950000D+01
EXPONENTS  0.8815000D+00 0.2257000D+01 0.3041000D+00 0.9158000D-01 0.4388000D+02
EXPONENTS  0.9926000D+01 0.2930000D+01 0.4388000D+02 0.9926000D+01 0.2930000D+01
EXPONENTS  0.4388000D+02 0.9926000D+01 0.2930000D+01 0.9132000D+00 0.9132000D+00
EXPONENTS  0.9132000D+00 0.2672000D+00 0.2672000D+00 0.2672000D+00 0.7361000D-01
EXPONENTS  0.7361000D-01 0.7361000D-01 0.3107000D+01 0.3107000D+01 0.3107000D+01
EXPONENTS  0.3107000D+01 0.3107000D+01 0.3107000D+01 0.8550000D+00 0.8550000D+00
EXPONENTS  0.8550000D+00 0.8550000D+00 0.8550000D+00 0.8550000D+00 0.2920000D+00
EXPONENTS  0.2920000D+00 0.2920000D+00 0.2920000D+00 0.2920000D+00 0.2920000D+00
EXPONENTS  0.1917000D+01 0.1917000D+01 0.1917000D+01 0.1917000D+01 0.1917000D+01
EXPONENTS  0.1917000D+01 0.1917000D+01 0.1917000D+01 0.1917000D+01 0.1917000D+01
EXPONENTS  0.7240000D+00 0.7240000D+00 0.7240000D+00 0.7240000D+00 0.7240000D+00
EXPONENTS  0.7240000D+00 0.7240000D+00 0.7240000D+00 0.7240000D+00 0.7240000D+00
MO    1     MO 0.0        OCC NO =    2.0000000  ORB. ENERGY =  -24.580263
  0.59567958D+00  0.11103725D+01  0.18823544D+01  0.28504394D+01  0.35644845D+01
  0.30686891D+01  0.11797161D+01 -0.51119031D-02 -0.33800378D-03 -0.63471123D-03
 -0.10808038D-02 -0.16930727D-02 -0.22689166D-02 -0.24405257D-02 -0.14652884D-02
  0.96363532D-03  0.60576077D-01 -0.11982507D-02 -0.51550652D-03  0.98340222D-03
  0.96174590D-03  0.63546618D-03  0.29821282D-16  0.29164562D-16  0.19270259D-16
  0.72543567D-02  0.70946024D-02  0.46877038D-02 -0.11547748D-03 -0.56473346D-17
 -0.11214306D-02 -0.18344980D-03  0.54266901D-18 -0.10665788D-02 -0.84639379D-05
 -0.10843204D-19 -0.43696437D-04  0.19098715D-03 -0.44932898D-03  0.25834183D-03
  0.11260141D-16 -0.51035427D-04 -0.14076659D-16  0.34418350D-03  0.47062892D-03
 -0.81481243D-03 -0.73002593D-18 -0.23323333D-03  0.68819444D-18  0.11677339D-03
  0.10476096D-03 -0.22153435D-03  0.79687408D-19 -0.10496130D-03  0.71120798D-19
 -0.49703676D-04 -0.50324018D-19  0.17386459D-03  0.48098949D-04 -0.12324772D-17
 -0.22166117D-03  0.10101208D-03  0.13834493D-17 -0.29993260D-03 -0.10157091D-17
  0.54947558D-04 -0.24483148D-19 -0.34827871D-03  0.34626515D-04  0.62467953D-19
  0.50020985D-03 -0.19946919D-03  0.10981491D-19  0.54462626D-03  0.17876732D-18
  0.10771661D-03  0.20071404D-03  0.33945776D-03  0.51120457D-03  0.63290442D-03
  0.53857310D-03  0.20493700D-03 -0.95980740D-06 -0.65544504D-04 -0.12289656D-03
 -0.20908361D-03 -0.32468477D-03 -0.43087558D-03 -0.45408371D-03 -0.28156087D-03
  0.18729440D-03 -0.43676741D-03  0.16674654D-02  0.33590078D-03  0.63513259D-04
  0.61003726D-04  0.42780023D-04  0.52852865D-19  0.50764545D-19  0.35599603D-19
  0.10375922D-02  0.99659490D-03  0.69888113D-03 -0.14483719D-03 -0.61399861D-19
 -0.12825145D-02  0.30420973D-03 -0.15932547D-18 -0.64747096D-03  0.18466336D-04
  0.16404324D-20 -0.17647780D-04 -0.27258879D-03 -0.10700549D-03  0.37959428D-03
  0.67988400D-19  0.59833237D-04  0.72262323D-19 -0.25209869D-03 -0.36263961D-03
  0.61473830D-03 -0.77527825D-19  0.21156741D-03  0.46137275D-19  0.70048873D-05
 -0.41402572D-04  0.34397685D-04 -0.31858325D-19 -0.45199174D-04  0.38441623D-19
  0.71188882D-04 -0.37231849D-20 -0.55158301D-03  0.99817955D-04  0.54628873D-20
  0.89901304D-03 -0.31338460D-03  0.57066675D-20  0.75573599D-03 -0.10458685D-18
  0.26034927D-05  0.18484897D-19 -0.31921491D-04 -0.33795758D-04 -0.26307157D-19
  0.39977122D-04  0.25985280D-04 -0.29147535D-19  0.55787351D-04 -0.13477931D-19
  0.94120591D-05  0.17537986D-04  0.29661131D-04  0.44668020D-04  0.55301907D-04
  0.47059427D-04  0.17906980D-04 -0.83866027D-07 -0.65756747D-05 -0.12329451D-04
 -0.20976065D-04 -0.32573615D-04 -0.43227081D-04 -0.45555410D-04 -0.28247260D-04
  0.18790089D-04  0.81868329D-05 -0.50289684D-03 -0.17739205D-03 -0.57794829D-04
 -0.55511242D-04 -0.38928315D-04 -0.29064312D-19 -0.27915924D-19 -0.19576573D-19
 -0.66979301D-04 -0.64332818D-04 -0.45114613D-04  0.97256657D-04  0.45498910D-19
  0.75906943D-04  0.13078925D-03  0.96698166D-19  0.16442922D-03  0.69174625D-05
  0.41569614D-20  0.42839468D-05 -0.99250158D-04  0.30994338D-04  0.68255819D-04
  0.60783291D-19 -0.42791178D-04 -0.75840009D-20 -0.84997890D-05  0.50949661D-05
  0.34048228D-05 -0.95636243D-19  0.18190120D-04 -0.16974891D-19 -0.90447141D-06
  0.74599526D-05 -0.65554811D-05 -0.25402835D-19 -0.59349744D-04 -0.63767402D-22
  0.28988535D-05 -0.29174832D-19  0.65593877D-04 -0.16458917D-03  0.31096636D-19
  0.22842804D-04  0.15589261D-03  0.56427861D-19 -0.21962443D-03  0.81251319D-19
  0.34113715D-06  0.39014203D-20  0.55612541D-05  0.35969256D-04  0.23374373D-19
 -0.64247382D-04 -0.36992668D-04 -0.35078634D-19  0.47563620D-04 -0.30444999D-19
  0.13017708D-01  0.24265572D-01  0.41136109D-01  0.62292193D-01  0.77896606D-01
  0.67061722D-01  0.25780974D-01 -0.11171318D-03 -0.31624569D-04 -0.59385340D-04
 -0.10112299D-03 -0.15840857D-03 -0.21228612D-03 -0.22834234D-03 -0.13709644D-03
  0.90160389D-04  0.12999837D-02 -0.52071784D-04  0.54139316D-05  0.71881324D-04
  0.70298365D-04  0.46449102D-04  0.26226707D-18  0.25649147D-18  0.16947476D-18
 -0.16431055D-03 -0.16069213D-03 -0.10617608D-03 -0.87661530D-04  0.27561292D-19
 -0.64363710D-05  0.10428379D-03 -0.86510105D-20  0.50853472D-04  0.73082755D-05
 -0.71219589D-20 -0.34958601D-06 -0.23032383D-04 -0.40238446D-04  0.63270829D-04
  0.98278174D-19  0.48491919D-04  0.58595843D-19  0.24506401D-04  0.14521733D-04
 -0.39028133D-04 -0.56475396D-19  0.30662314D-05 -0.75706814D-19  0.92302047D-05
  0.70851802D-05 -0.16315385D-04  0.28618556D-19 -0.81136481D-04  0.15262872D-19
  0.40718067D-04 -0.95841656D-20  0.24723241D-04  0.25270591D-03  0.16262987D-20
 -0.74065948D-04 -0.37486011D-03  0.27126198D-19 -0.10377402D-06  0.77335403D-19
 -0.18659707D-04 -0.67963061D-22  0.12549052D-04 -0.80987044D-04 -0.33727038D-20
 -0.10910602D-04  0.13696617D-03  0.35765930D-20 -0.26736555D-04 -0.44459264D-19
MO    2     MO 0.0        OCC NO =    2.0000000  ORB. ENERGY =  -24.580253
 -0.12945086D-01 -0.24130201D-01 -0.40906623D-01 -0.61944683D-01 -0.77462043D-01
 -0.66687604D-01 -0.25637149D-01  0.11108997D-03 -0.16915737D-04 -0.31764758D-04
 -0.54089905D-04 -0.84731516D-04 -0.11355020D-03 -0.12213855D-03 -0.73331825D-04
  0.48226093D-04 -0.13402584D-02  0.12977596D-06  0.27898247D-04 -0.11483246D-03
 -0.11230364D-03 -0.74203763D-04  0.45579724D-15  0.44575975D-15  0.29453231D-15
 -0.15186564D-03 -0.14852128D-03 -0.98134288D-04  0.92780667D-04 -0.16630077D-15
  0.55343805D-04 -0.96383303D-04  0.78110587D-17 -0.43923995D-05 -0.69461486D-05
  0.18135063D-18  0.22553242D-05 -0.31381858D-04 -0.20683578D-04  0.52065437D-04
  0.42856943D-18  0.50763493D-04 -0.59650246D-17  0.95209592D-05 -0.59867457D-05
 -0.35342135D-05 -0.36982557D-19  0.13239702D-04  0.24480793D-17  0.41468543D-05
  0.25237274D-05 -0.66705816D-05 -0.14421183D-18 -0.76636622D-04 -0.12832658D-17
 -0.38589131D-04 -0.11052092D-17 -0.32328418D-04 -0.25504398D-03  0.80135027D-18
  0.83803507D-04  0.37081137D-03  0.25142772D-17  0.13181748D-04  0.30501418D-17
  0.16281287D-04  0.37521711D-18  0.26262695D-05  0.79554289D-04 -0.17794558D-18
 -0.10891977D-04 -0.12839815D-03 -0.94770574D-18  0.30131687D-05 -0.96302479D-18
  0.47240919D-05  0.88026496D-05  0.14887487D-04  0.22419731D-04  0.27757081D-04
  0.23620024D-04  0.89878547D-05 -0.42093958D-07 -0.37239178D-05 -0.69823807D-05
 -0.11879107D-04 -0.18446999D-04 -0.24480241D-04 -0.25798813D-04 -0.15996910D-04
  0.10641151D-04  0.27240447D-04 -0.57608682D-03 -0.19220793D-03  0.55079880D-04
  0.52903566D-04  0.37099632D-04  0.26649675D-18  0.25596694D-18  0.17950169D-18
  0.21797734D-04  0.20936463D-04  0.14682093D-04 -0.91032726D-04 -0.14834991D-18
 -0.20053365D-04 -0.14417926D-03  0.97576579D-18 -0.13635150D-03 -0.77292867D-05
 -0.30983927D-19 -0.35184491D-05 -0.87458108D-04  0.35689327D-04  0.51768781D-04
 -0.28712900D-18 -0.45439925D-04  0.26756898D-18  0.24853964D-05  0.20913409D-04
 -0.23398806D-04  0.46629907D-18  0.89809140D-05  0.10768973D-18 -0.12108069D-05
  0.92724524D-05 -0.80616455D-05  0.36002062D-20 -0.57435053D-04 -0.52946158D-18
 -0.60059931D-05  0.55009766D-18 -0.41603391D-04  0.16039239D-03  0.75277609D-18
 -0.62067834D-04 -0.14237441D-03 -0.24030691D-17  0.18687801D-03  0.30558025D-18
 -0.45491081D-06 -0.50656312D-19 -0.41745421D-05 -0.34529512D-04  0.16786883D-18
  0.62564888D-04  0.35894244D-04 -0.15899890D-19 -0.50041262D-04  0.82285869D-19
  0.10740839D-03  0.20013973D-03  0.33848645D-03  0.50974184D-03  0.63109346D-03
  0.53703206D-03  0.20435060D-03 -0.95706106D-06 -0.65319963D-04 -0.12247554D-03
 -0.20836734D-03 -0.32357247D-03 -0.42939949D-03 -0.45252812D-03 -0.28059630D-03
  0.18665277D-03 -0.43753867D-03  0.16909775D-02  0.34395530D-03 -0.61053868D-04
 -0.58641511D-04 -0.41123475D-04  0.21317347D-18  0.20475057D-18  0.14358523D-18
 -0.10356562D-02 -0.99473537D-03 -0.69757710D-03  0.14073446D-03 -0.63287291D-18
  0.12804221D-02 -0.31020173D-03  0.18107917D-19  0.64091430D-03 -0.18785512D-04
 -0.53248855D-19  0.17477733D-04 -0.26851941D-03 -0.10845869D-03  0.37697810D-03
 -0.17260955D-17  0.61757420D-04  0.23904402D-18 -0.25196697D-03 -0.36320578D-03
  0.61517275D-03  0.97120668D-18  0.21097521D-03  0.71554352D-20  0.70510139D-05
 -0.41767145D-04  0.34716131D-04 -0.42362135D-19 -0.42653890D-04  0.16410232D-18
 -0.71383650D-04  0.94232540D-18  0.54924591D-03 -0.92736094D-04 -0.37924291D-18
 -0.90086119D-03  0.30688704D-03 -0.24477333D-17 -0.74687654D-03 -0.12955740D-17
 -0.26207362D-05 -0.21905422D-18  0.31709072D-04  0.32259480D-04 -0.68208277D-19
 -0.37213210D-04 -0.24397271D-04  0.72537094D-18 -0.57914006D-04  0.61407914D-18
  0.59567799D+00  0.11103696D+01  0.18823494D+01  0.28504318D+01  0.35644749D+01
  0.30686809D+01  0.11797130D+01 -0.51118894D-02 -0.33694303D-03 -0.63271933D-03
 -0.10774119D-02 -0.16877594D-02 -0.22617961D-02 -0.24328667D-02 -0.14606900D-02
  0.96061117D-03  0.60576992D-01 -0.11971132D-02 -0.51623228D-03 -0.98749215D-03
 -0.96574575D-03 -0.63810905D-03  0.15278456D-16  0.14941996D-16  0.98728088D-17
 -0.72540298D-02 -0.70942827D-02 -0.46874926D-02  0.11941155D-03 -0.12889101D-17
  0.11227702D-02  0.17907735D-03 -0.34079150D-18  0.10653733D-02  0.81533391D-05
  0.15821638D-18  0.43753186D-04  0.19217427D-03 -0.44798906D-03  0.25581480D-03
 -0.29299227D-17 -0.53195234D-04 -0.77321931D-17  0.34344113D-03  0.47044094D-03
 -0.81388207D-03  0.70719230D-18 -0.23359043D-03  0.17703589D-17  0.11648167D-03
  0.10455159D-03 -0.22103326D-03 -0.37816809D-18 -0.10152358D-03 -0.76669923D-19
  0.47975975D-04 -0.18324126D-18 -0.17510794D-03 -0.59163837D-04 -0.37666564D-18
  0.22510285D-03 -0.84764089D-04  0.92638943D-18  0.30022097D-03 -0.81422819D-17
 -0.54186549D-04  0.15756976D-19  0.34806200D-03 -0.31128306D-04  0.11764403D-18
 -0.50020869D-03  0.19368795D-03 -0.16491496D-18 -0.54397731D-03  0.18905092D-17
MO    3     MO 0.0        OCC NO =    2.0000000  ORB. ENERGY =  -14.354019
 -0.43500575D-04 -0.81086956D-04 -0.13746233D-03 -0.20815847D-03 -0.26030290D-03
 -0.22409655D-03 -0.86150896D-04  0.37330593D-06  0.26057640D-04  0.48931634D-04
  0.83322134D-04  0.13052363D-03  0.17491702D-03  0.18814684D-03  0.11296311D-03
 -0.74289296D-04 -0.33722463D-04  0.11992084D-02  0.19049655D-03  0.20919934D-03
  0.20459239D-03  0.13518284D-03  0.46828535D-15  0.45797284D-15  0.30260202D-15
 -0.28401391D-03 -0.27775940D-03 -0.18352738D-03 -0.14691046D-03  0.97358026D-16
  0.67723405D-03 -0.68321125D-04 -0.48624164D-17  0.48387939D-03  0.12758853D-04
 -0.15083752D-18 -0.31866013D-05 -0.59449359D-03 -0.22815737D-03  0.82265096D-03
  0.11432534D-14  0.81195513D-03  0.12126947D-15  0.34453073D-04 -0.10326659D-03
  0.68813517D-04  0.67426062D-17 -0.42697943D-03  0.83961517D-17 -0.30068703D-04
  0.19656546D-04  0.10412157D-04 -0.29431337D-17 -0.11129963D-03 -0.38953903D-18
 -0.13779158D-03  0.12219937D-17  0.63630363D-03 -0.64871695D-05 -0.51757875D-18
 -0.10697095D-02  0.41986192D-03 -0.31484023D-17 -0.83920143D-03  0.17960732D-17
  0.11075403D-03 -0.12359181D-17 -0.30272288D-03  0.39652194D-04 -0.80938978D-18
  0.50159692D-03 -0.37191428D-03  0.45171442D-17  0.40657170D-03 -0.19610151D-18
  0.29625816D+00  0.55203345D+00  0.93362696D+00  0.14059905D+01  0.17407074D+01
  0.14812634D+01  0.56364807D+00 -0.26398044D-02 -0.10339209D-02 -0.19386114D-02
 -0.32981548D-02 -0.51216861D-02 -0.67967754D-02 -0.71628682D-02 -0.44414353D-02
  0.29544444D-02  0.29360181D-01 -0.68229880D-03 -0.15528604D-03  0.60164072D-02
  0.57786872D-02  0.40524144D-02  0.15141491D-16  0.14543221D-16  0.10198711D-16
 -0.48308263D-02 -0.46399509D-02 -0.32538539D-02  0.50940501D-03 -0.87621574D-18
  0.97759321D-03 -0.82596777D-03  0.84651742D-18  0.10175094D-02 -0.40788573D-04
 -0.66632518D-19  0.75251114D-05  0.23601069D-02 -0.20432176D-02 -0.31688932D-03
 -0.21106444D-17  0.11064463D-02 -0.96763253D-17 -0.96240545D-03  0.78744326D-03
  0.17496219D-03  0.37813602D-17 -0.25368314D-03  0.42475813D-17 -0.15077248D-03
  0.11265084D-03  0.38121642D-04 -0.30025914D-18  0.83108311D-04 -0.66503296D-18
 -0.32388266D-03  0.96199627D-18  0.35956127D-04  0.49643532D-03  0.67822636D-17
 -0.59813085D-03  0.47521266D-03 -0.96682524D-17  0.49026247D-03 -0.64978552D-17
 -0.30855374D-03  0.28143271D-18  0.12637053D-03  0.36884278D-03  0.30115006D-18
 -0.20272687D-03  0.55681843D-03 -0.11454482D-17 -0.17638472D-03 -0.34945456D-18
  0.28724501D+00  0.53523878D+00  0.90522295D+00  0.13632156D+01  0.16877494D+01
  0.14361985D+01  0.54650004D+00 -0.25594928D-02 -0.10034793D-02 -0.18815330D-02
 -0.32010475D-02 -0.49708887D-02 -0.65966585D-02 -0.69519725D-02 -0.43106664D-02
  0.28674570D-02  0.28505007D-01 -0.66457122D-03 -0.13915586D-03 -0.59203563D-02
 -0.56864315D-02 -0.39877183D-02  0.29704464D-16  0.28530782D-16  0.20007754D-16
  0.46638028D-02  0.44795269D-02  0.31413535D-02 -0.42506636D-03 -0.44452026D-17
 -0.93052822D-03  0.81904780D-03 -0.28635006D-18 -0.10027608D-02  0.39766926D-04
  0.45440284D-19 -0.72740022D-05  0.22978728D-02 -0.19742622D-02 -0.32361065D-03
 -0.19855771D-17  0.10825406D-02  0.39502238D-18 -0.10064813D-02  0.79183678D-03
  0.21464453D-03  0.24987398D-17 -0.29122413D-03 -0.12226818D-18 -0.15143667D-03
  0.11113431D-03  0.40302353D-04  0.20510916D-18  0.80896422D-04 -0.19329127D-18
  0.37131170D-03 -0.97387604D-18 -0.50583384D-04 -0.56651779D-03 -0.18100171D-17
  0.64819087D-03 -0.54741732D-03  0.47316452D-17 -0.49644072D-03 -0.45805688D-17
  0.31372182D-03  0.35773551D-18 -0.12294199D-03 -0.36917412D-03 -0.30395589D-18
  0.19784603D-03 -0.57199135D-03 -0.76925065D-18  0.17097993D-03 -0.24993252D-18
 -0.46250027D-04 -0.86212055D-04 -0.14615063D-03 -0.22131512D-03 -0.27675534D-03
 -0.23826057D-03 -0.91596060D-04  0.39690072D-06  0.27934044D-04  0.52455188D-04
  0.89322138D-04  0.13992260D-03  0.18751275D-03  0.20169524D-03  0.12109756D-03
 -0.79638849D-04 -0.27918792D-04  0.11646082D-02  0.18183399D-03 -0.22120544D-03
 -0.21633409D-03 -0.14294108D-03  0.38579094D-17  0.37729511D-17  0.24929483D-17
  0.26311654D-03  0.25732223D-03  0.17002368D-03  0.15656593D-03 -0.24025302D-17
 -0.64050403D-03  0.84675060D-04  0.19414453D-17 -0.47175356D-03 -0.12601161D-04
 -0.57881319D-19  0.36156180D-05 -0.58202874D-03 -0.21570368D-03  0.79773242D-03
 -0.57496712D-17  0.84782005D-03 -0.15129610D-17  0.37515409D-04 -0.98465048D-04
  0.60949639D-04  0.22976534D-17 -0.45361427D-03 -0.48828092D-18 -0.30335124D-04
  0.18577575D-04  0.11757549D-04 -0.10247769D-17 -0.12153640D-03 -0.75939923D-18
  0.14659796D-03  0.10412737D-17 -0.61645859D-03 -0.64904987D-05  0.98266505D-18
  0.10601221D-02 -0.43330337D-03 -0.41064862D-17  0.78925367D-03 -0.78399377D-17
 -0.11652468D-03 -0.58444519D-18  0.29245271D-03 -0.38551487D-04 -0.54104114D-18
 -0.49197492D-03  0.38812552D-03  0.22943767D-17 -0.38538320D-03  0.20280638D-17
MO    4     MO 0.0        OCC NO =    2.0000000  ORB. ENERGY =  -14.353652
 -0.89726352D-04 -0.16725381D-03 -0.28353632D-03 -0.42935755D-03 -0.53691313D-03
 -0.46223219D-03 -0.17769893D-03  0.76999855D-06  0.61179581D-04  0.11488442D-03
  0.19562835D-03  0.30645065D-03  0.41067993D-03  0.44174163D-03  0.26522110D-03
 -0.17442055D-03  0.18739090D-03 -0.11017629D-02 -0.27753889D-03  0.39196517D-03
  0.38333338D-03  0.25328457D-03 -0.37102205D-15 -0.36285146D-15 -0.23975130D-15
  0.67220455D-03  0.65740137D-03  0.43437288D-03 -0.31489483D-03 -0.13853110D-15
 -0.11788229D-02 -0.53062308D-03  0.15329873D-16 -0.38509835D-03 -0.49095712D-05
 -0.43267689D-17 -0.13940861D-04  0.39447045D-03  0.39978551D-03 -0.79425595D-03
 -0.58161596D-15  0.11737560D-02  0.13443399D-15  0.99661927D-04  0.15383603D-03
 -0.25349795D-03  0.64652113D-17 -0.86899640D-03  0.42093729D-17 -0.91037900D-05
 -0.34642163D-04  0.43745953D-04 -0.29742132D-17 -0.33319190D-03 -0.21709620D-17
 -0.28723275D-03  0.17224246D-17 -0.63279488D-03  0.42011716D-03 -0.12299491D-17
  0.29395519D-03  0.44158108D-03 -0.39373247D-17  0.16044294D-02 -0.56148645D-18
  0.18854518D-03 -0.17188366D-18  0.32790343D-03 -0.35028249D-04  0.64966127D-18
 -0.30385294D-03 -0.53060730D-03 -0.13401028D-18 -0.67985734D-03 -0.21725056D-18
 -0.28725446D+00 -0.53525639D+00 -0.90525275D+00 -0.13632605D+01 -0.16878049D+01
 -0.14362458D+01 -0.54651802D+00  0.25595771D-02  0.96963205D-03  0.18180692D-02
  0.30930766D-02  0.48032213D-02  0.63741541D-02  0.67174834D-02  0.41652683D-02
 -0.27707380D-02 -0.27236748D-01  0.56433257D-03  0.52003120D-03 -0.30194563D-02
 -0.29001517D-02 -0.20337865D-02 -0.15077513D-16 -0.14481771D-16 -0.10155618D-16
  0.53320973D-02  0.51214157D-02  0.35914902D-02 -0.27222028D-02  0.30488266D-17
 -0.15084628D-02  0.21165835D-03  0.35722473D-17 -0.46177430D-03  0.32461614D-04
  0.10696915D-18 -0.80117242D-05 -0.19788204D-02  0.22012489D-02 -0.22242851D-03
 -0.92690574D-17 -0.75725459D-03  0.95302828D-18 -0.14417517D-02  0.15429903D-03
  0.12874527D-02  0.50819872D-17 -0.12193219D-02  0.20879002D-17 -0.23810771D-04
 -0.47376754D-04  0.71187525D-04  0.18330817D-18 -0.70324153D-04 -0.13092696D-17
 -0.15407010D-02 -0.22767880D-17  0.47420648D-03  0.22767104D-02  0.39665862D-17
 -0.16302333D-02  0.23453926D-02  0.28637778D-17  0.20761381D-03 -0.19273975D-17
 -0.17208429D-03 -0.67456962D-19 -0.10906829D-03  0.16404918D-04  0.12582561D-18
  0.15491949D-03  0.49984794D-03  0.76545280D-19  0.17228539D-03  0.57445636D-18
  0.29626731D+00  0.55205050D+00  0.93365580D+00  0.14060339D+01  0.17407612D+01
  0.14813092D+01  0.56366547D+00 -0.26398859D-02 -0.10011035D-02 -0.18770785D-02
 -0.31934690D-02 -0.49591202D-02 -0.65810409D-02 -0.69355137D-02 -0.43004609D-02
  0.28606683D-02  0.28130577D-01 -0.58513614D-03 -0.52457909D-03 -0.32039105D-02
 -0.30773177D-02 -0.21580276D-02  0.30340163D-16  0.29141364D-16  0.20435936D-16
  0.54787113D-02  0.52622367D-02  0.36902436D-02 -0.27366345D-02 -0.43109122D-17
 -0.15379286D-02  0.23706838D-03 -0.23447981D-17 -0.49297897D-03  0.33705905D-04
 -0.18234438D-18 -0.82402375D-05  0.20507853D-02 -0.22633112D-02  0.21252590D-03
  0.10654050D-17  0.79108416D-03  0.44618999D-17  0.14113359D-02 -0.12990303D-03
 -0.12814328D-02  0.37536171D-17  0.12108980D-02 -0.18319130D-17  0.19142625D-04
  0.50833447D-04 -0.69976072D-04  0.10472519D-17  0.72857051D-04 -0.12690520D-18
 -0.15299600D-02 -0.13588688D-17  0.47286867D-03  0.22602830D-02 -0.68869064D-18
 -0.16109780D-02  0.23295970D-02  0.47652970D-17  0.19237194D-03 -0.54818433D-17
 -0.16247166D-03  0.81039329D-18 -0.11291966D-03  0.50046087D-05 -0.13262280D-17
  0.16110828D-03  0.48241039D-03 -0.11049519D-17  0.17765070D-03 -0.16770433D-18
  0.88340236D-04  0.16467003D-03  0.27915618D-03  0.42272473D-03  0.52861876D-03
  0.45509151D-03  0.17495379D-03 -0.75810342D-06 -0.60345769D-04 -0.11331867D-03
 -0.19296215D-03 -0.30227406D-03 -0.40508280D-03 -0.43572117D-03 -0.26160642D-03
  0.17204339D-03 -0.18834244D-03  0.11382727D-02  0.28328940D-03  0.38531631D-03
  0.37683093D-03  0.24898813D-03  0.46698177D-17  0.45669797D-17  0.30175966D-17
  0.68065235D-03  0.66566313D-03  0.43983178D-03 -0.31020700D-03 -0.15499185D-17
 -0.11991745D-02 -0.52825950D-03  0.22594570D-17 -0.39985744D-03 -0.53013306D-05
  0.11912322D-18 -0.13835751D-04 -0.41264663D-03 -0.40664223D-03  0.81928887D-03
 -0.94728545D-17 -0.11481144D-02  0.95210231D-17 -0.98548383D-04 -0.15695119D-03
  0.25549958D-03  0.43008486D-17  0.85539271D-03 -0.29155064D-17  0.81711977D-05
  0.35232855D-04 -0.43404053D-04 -0.14585617D-17  0.32959509D-03 -0.98273850D-18
 -0.28283969D-03  0.94704279D-18 -0.65214663D-03  0.42011599D-03  0.10582150D-17
  0.32685963D-03  0.42840309D-03 -0.38993434D-17  0.16295803D-02 -0.94044340D-17
  0.18503403D-03 -0.60837919D-18  0.33709781D-03 -0.36236205D-04 -0.34734569D-18
 -0.31920353D-03 -0.51886589D-03  0.21724833D-17 -0.69208990D-03  0.23480480D-17
MO    5     MO 0.0        OCC NO =    2.0000000  ORB. ENERGY =   -1.290920
 -0.16637210D-02 -0.31012479D-02 -0.52573777D-02 -0.79612193D-02 -0.99555326D-02
 -0.85707862D-02 -0.32949231D-02  0.14277441D-04 -0.77873281D-01 -0.14623223D+00
 -0.24900827D+00 -0.39006998D+00 -0.52273966D+00 -0.56227698D+00 -0.33759036D+00
  0.22201363D+00  0.12681399D+00  0.57465442D-01 -0.89429964D-03  0.44758088D-01
  0.43772432D-01  0.28922297D-01 -0.25644303D-15 -0.25079568D-15 -0.16571131D-15
  0.25058906D+00  0.24507063D+00  0.16192853D+00  0.12584615D-01 -0.31540311D-15
  0.69148438D-01  0.19260564D-02  0.44331949D-16  0.39653088D-02 -0.30138684D-05
  0.41456943D-17 -0.36126320D-03 -0.11403901D-01 -0.10251648D-01  0.21655549D-01
  0.22604338D-15  0.91457987D-02  0.86024003D-16 -0.65389532D-02 -0.68938675D-02
  0.13432821D-01  0.22280008D-15  0.80643916D-02 -0.17184169D-16  0.33654640D-03
  0.39161693D-03 -0.72816333D-03 -0.18916044D-16  0.31694703D-03  0.43726059D-17
 -0.15136109D-02  0.11149649D-16  0.66972686D-02 -0.24526394D-02 -0.16359829D-16
 -0.76201486D-02  0.69934719D-02 -0.17089120D-16 -0.12471657D-01  0.29558886D-16
 -0.47932166D-03  0.27252537D-18  0.14188755D-02 -0.32847037D-03 -0.41398634D-17
 -0.25803108D-02  0.17664354D-02  0.33222873D-17 -0.16763157D-02 -0.10993341D-16
 -0.35319439D-02 -0.65812574D-02 -0.11130556D-01 -0.16762001D-01 -0.20752444D-01
 -0.17659394D-01 -0.67197251D-02  0.31471339D-04 -0.29350757D-01 -0.55032944D-01
 -0.93627413D-01 -0.14539349D+00 -0.19294561D+00 -0.20333819D+00 -0.12608265D+00
  0.83870227D-01  0.40683507D-01  0.91453267D-02  0.54131823D-04  0.11237113D+00
  0.10793112D+00  0.75688753D-01  0.74345747D-16  0.71408201D-16  0.50076360D-16
 -0.94395010D-01 -0.90665279D-01 -0.63580752D-01  0.26720820D-01  0.32448792D-16
 -0.27886042D-01  0.88654046D-04 -0.15200255D-16  0.86838181D-03 -0.79523366D-04
 -0.15290451D-17  0.39099997D-04  0.35817357D-02 -0.20632101D-01  0.17050365D-01
  0.14479505D-16  0.14151013D-01 -0.79859137D-16  0.74343852D-03 -0.36428742D-02
  0.28994357D-02  0.14271578D-16  0.12673033D-02  0.23981584D-16  0.50048557D-04
  0.21278332D-03 -0.26283187D-03 -0.80186936D-17  0.26572771D-03 -0.33444354D-17
  0.33879031D-02 -0.80277512D-17 -0.56494006D-02 -0.69693514D-02  0.44402549D-16
  0.10085922D-01 -0.31943580D-02 -0.20319295D-16  0.68622798D-02 -0.38317465D-16
  0.23321481D-03  0.35206449D-17 -0.66164541D-04  0.10980724D-03 -0.73902222D-17
 -0.94408590D-04 -0.80945168D-03 -0.31717125D-17  0.29290221D-03  0.56728820D-18