 Molden2AIM, Version 4.0.0 (06/02/2016)           Time: Thu Jun 28 21:17:56 2018
GAUSSIAN              8 MOL ORBITALS    204 PRIMITIVES        4 NUCLEI
  H    1    (CENTRE  1)  -0.00657625  0.00000000 -0.01176355  CHARGE =  1.0
  N    2    (CENTRE  2)   0.01070908  0.00000000  1.94719081  CHARGE =  7.0
  N    3    (CENTRE  3)   2.25815280  0.00000000  2.59699392  CHARGE =  7.0
  H    4    (CENTRE  4)   2.27543623  0.00000000  4.55594827  CHARGE =  1.0
CENTRE ASSIGNMENTS    1  1  1  1  1  1  1  1  1  1  1  1  1  1  1  1  1  1  1  1
CENTRE ASSIGNMENTS    1  1  1  1  1  1  1  2  2  2  2  2  2  2  2  2  2  2  2  2
CENTRE ASSIGNMENTS    2  2  2  2  2  2  2  2  2  2  2  2  2  2  2  2  2  2  2  2
CENTRE ASSIGNMENTS    2  2  2  2  2  2  2  2  2  2  2  2  2  2  2  2  2  2  2  2
CENTRE ASSIGNMENTS    2  2  2  2  2  2  2  2  2  2  2  2  2  2  2  2  2  2  2  2
CENTRE ASSIGNMENTS    2  2  3  3  3  3  3  3  3  3  3  3  3  3  3  3  3  3  3  3
CENTRE ASSIGNMENTS    3  3  3  3  3  3  3  3  3  3  3  3  3  3  3  3  3  3  3  3
CENTRE ASSIGNMENTS    3  3  3  3  3  3  3  3  3  3  3  3  3  3  3  3  3  3  3  3
CENTRE ASSIGNMENTS    3  3  3  3  3  3  3  3  3  3  3  3  3  3  3  3  3  4  4  4
CENTRE ASSIGNMENTS    4  4  4  4  4  4  4  4  4  4  4  4  4  4  4  4  4  4  4  4
CENTRE ASSIGNMENTS    4  4  4  4
TYPE ASSIGNMENTS      1  1  1  1  1  1  2  3  4  2  3  4  2  3  4  5  6  7  8  9
TYPE ASSIGNMENTS     10  5  6  7  8  9 10  1  1  1  1  1  1  1  1  1  1  1  1  1
TYPE ASSIGNMENTS      1  1  1  1  1  1  2  2  2  3  3  3  4  4  4  2  3  4  2  3
TYPE ASSIGNMENTS      4  2  3  4  5  6  7  8  9 10  5  6  7  8  9 10  5  6  7  8
TYPE ASSIGNMENTS      9 10 11 12 13 17 14 15 18 19 16 20 11 12 13 17 14 15 18 19
TYPE ASSIGNMENTS     16 20  1  1  1  1  1  1  1  1  1  1  1  1  1  1  1  1  1  1
TYPE ASSIGNMENTS      1  2  2  2  3  3  3  4  4  4  2  3  4  2  3  4  2  3  4  5
TYPE ASSIGNMENTS      6  7  8  9 10  5  6  7  8  9 10  5  6  7  8  9 10 11 12 13
TYPE ASSIGNMENTS     17 14 15 18 19 16 20 11 12 13 17 14 15 18 19 16 20  1  1  1
TYPE ASSIGNMENTS      1  1  1  2  3  4  2  3  4  2  3  4  5  6  7  8  9 10  5  6
TYPE ASSIGNMENTS      7  8  9 10
EXPONENTS  0.3387000D+02 0.5095000D+01 0.1159000D+01 0.3258000D+00 0.1027000D+00
EXPONENTS  0.2526000D-01 0.1407000D+01 0.1407000D+01 0.1407000D+01 0.3880000D+00
EXPONENTS  0.3880000D+00 0.3880000D+00 0.1020000D+00 0.1020000D+00 0.1020000D+00
EXPONENTS  0.1057000D+01 0.1057000D+01 0.1057000D+01 0.1057000D+01 0.1057000D+01
EXPONENTS  0.1057000D+01 0.2470000D+00 0.2470000D+00 0.2470000D+00 0.2470000D+00
EXPONENTS  0.2470000D+00 0.2470000D+00 0.1142000D+05 0.1712000D+04 0.3893000D+03
EXPONENTS  0.1100000D+03 0.3557000D+02 0.1254000D+02 0.4644000D+01 0.5118000D+00
EXPONENTS  0.1142000D+05 0.1712000D+04 0.3893000D+03 0.1100000D+03 0.3557000D+02
EXPONENTS  0.1254000D+02 0.4644000D+01 0.5118000D+00 0.1293000D+01 0.1787000D+00
EXPONENTS  0.5760000D-01 0.2663000D+02 0.5948000D+01 0.1742000D+01 0.2663000D+02
EXPONENTS  0.5948000D+01 0.1742000D+01 0.2663000D+02 0.5948000D+01 0.1742000D+01
EXPONENTS  0.5550000D+00 0.5550000D+00 0.5550000D+00 0.1725000D+00 0.1725000D+00
EXPONENTS  0.1725000D+00 0.4910000D-01 0.4910000D-01 0.4910000D-01 0.1654000D+01
EXPONENTS  0.1654000D+01 0.1654000D+01 0.1654000D+01 0.1654000D+01 0.1654000D+01
EXPONENTS  0.4690000D+00 0.4690000D+00 0.4690000D+00 0.4690000D+00 0.4690000D+00
EXPONENTS  0.4690000D+00 0.1510000D+00 0.1510000D+00 0.1510000D+00 0.1510000D+00
EXPONENTS  0.1510000D+00 0.1510000D+00 0.1093000D+01 0.1093000D+01 0.1093000D+01
EXPONENTS  0.1093000D+01 0.1093000D+01 0.1093000D+01 0.1093000D+01 0.1093000D+01
EXPONENTS  0.1093000D+01 0.1093000D+01 0.3640000D+00 0.3640000D+00 0.3640000D+00
EXPONENTS  0.3640000D+00 0.3640000D+00 0.3640000D+00 0.3640000D+00 0.3640000D+00
EXPONENTS  0.3640000D+00 0.3640000D+00 0.1142000D+05 0.1712000D+04 0.3893000D+03
EXPONENTS  0.1100000D+03 0.3557000D+02 0.1254000D+02 0.4644000D+01 0.5118000D+00
EXPONENTS  0.1142000D+05 0.1712000D+04 0.3893000D+03 0.1100000D+03 0.3557000D+02
EXPONENTS  0.1254000D+02 0.4644000D+01 0.5118000D+00 0.1293000D+01 0.1787000D+00
EXPONENTS  0.5760000D-01 0.2663000D+02 0.5948000D+01 0.1742000D+01 0.2663000D+02
EXPONENTS  0.5948000D+01 0.1742000D+01 0.2663000D+02 0.5948000D+01 0.1742000D+01
EXPONENTS  0.5550000D+00 0.5550000D+00 0.5550000D+00 0.1725000D+00 0.1725000D+00
EXPONENTS  0.1725000D+00 0.4910000D-01 0.4910000D-01 0.4910000D-01 0.1654000D+01
EXPONENTS  0.1654000D+01 0.1654000D+01 0.1654000D+01 0.1654000D+01 0.1654000D+01
EXPONENTS  0.4690000D+00 0.4690000D+00 0.4690000D+00 0.4690000D+00 0.4690000D+00
EXPONENTS  0.4690000D+00 0.1510000D+00 0.1510000D+00 0.1510000D+00 0.1510000D+00
EXPONENTS  0.1510000D+00 0.1510000D+00 0.1093000D+01 0.1093000D+01 0.1093000D+01
EXPONENTS  0.1093000D+01 0.1093000D+01 0.1093000D+01 0.1093000D+01 0.1093000D+01
EXPONENTS  0.1093000D+01 0.1093000D+01 0.3640000D+00 0.3640000D+00 0.3640000D+00
EXPONENTS  0.3640000D+00 0.3640000D+00 0.3640000D+00 0.3640000D+00 0.3640000D+00
EXPONENTS  0.3640000D+00 0.3640000D+00 0.3387000D+02 0.5095000D+01 0.1159000D+01
EXPONENTS  0.3258000D+00 0.1027000D+00 0.2526000D-01 0.1407000D+01 0.1407000D+01
EXPONENTS  0.1407000D+01 0.3880000D+00 0.3880000D+00 0.3880000D+00 0.1020000D+00
EXPONENTS  0.1020000D+00 0.1020000D+00 0.1057000D+01 0.1057000D+01 0.1057000D+01
EXPONENTS  0.1057000D+01 0.1057000D+01 0.1057000D+01 0.2470000D+00 0.2470000D+00
EXPONENTS  0.2470000D+00 0.2470000D+00 0.2470000D+00 0.2470000D+00
MO    1     MO 0.0        OCC NO =    2.0000000  ORB. ENERGY =  -14.236728
  0.48504971D-04  0.87480712D-04  0.12899026D-03 -0.28493128D-04 -0.28767298D-03
 -0.14052486D-05 -0.17109167D-03  0.20637455D-16 -0.90558995D-03 -0.62882664D-03
  0.14770578D-17 -0.97247068D-03 -0.60008401D-04  0.47923008D-18 -0.13977357D-03
  0.90208323D-03  0.62841254D-03 -0.15304958D-02  0.48066454D-18 -0.81586208D-03
 -0.25478893D-17  0.21838826D-04  0.10269036D-03 -0.12452919D-03  0.12707938D-18
 -0.19307520D-03  0.10365687D-18  0.28646235D+00  0.53378040D+00  0.90275648D+00
  0.13595012D+01  0.16831507D+01  0.14322853D+01  0.54501098D+00 -0.25525189D-02
 -0.11277448D-02 -0.21145320D-02 -0.35974480D-02 -0.55864569D-02 -0.74135533D-02
 -0.78128675D-02 -0.48444763D-02  0.32225475D-02  0.28184862D-01  0.37017990D-03
 -0.32250782D-04  0.53661024D-02  0.51540772D-02  0.36143947D-02 -0.58898877D-17
 -0.56571667D-17 -0.39671958D-17 -0.18860700D-02 -0.18115477D-02 -0.12703823D-02
  0.54072519D-03  0.37860744D-19 -0.66629700D-03 -0.63872815D-03  0.20678908D-17
  0.70983019D-03 -0.20172497D-04 -0.61428121D-19  0.22585325D-04  0.15015554D-02
 -0.20644885D-02  0.56293312D-03 -0.10898443D-18  0.14294815D-02 -0.56001582D-18
 -0.10760851D-02  0.47541525D-03  0.60066989D-03 -0.23365379D-18 -0.62194832D-03
  0.17036343D-18 -0.13401667D-03  0.86739653D-04  0.47277020D-04  0.66527019D-18
  0.41187195D-04  0.92640971D-19 -0.40295343D-03  0.13090966D-17 -0.52085289D-03
  0.53561580D-03 -0.14858000D-17  0.17198387D-03  0.67324450D-03 -0.24414898D-17
  0.13905748D-02 -0.32271114D-17 -0.29164027D-03 -0.36958733D-18  0.16968140D-03
  0.32185789D-03  0.17673536D-18 -0.35083074D-03  0.55306291D-03  0.93202664D-18
 -0.15821346D-03  0.13144581D-17  0.29736949D+00  0.55410426D+00  0.93712922D+00
  0.14112647D+01  0.17472372D+01  0.14868200D+01  0.56576245D+00 -0.26497069D-02
 -0.11659058D-02 -0.21860843D-02 -0.37191798D-02 -0.57754936D-02 -0.76644159D-02
 -0.80772422D-02 -0.50084055D-02  0.33315932D-02  0.29211590D-01  0.43504805D-03
 -0.37840715D-04 -0.54813942D-02 -0.52648136D-02 -0.36920507D-02 -0.17851332D-16
 -0.17145991D-16 -0.12023952D-16  0.19873093D-02  0.19087868D-02  0.13385731D-02
 -0.61688600D-03  0.25237572D-17  0.66907489D-03  0.63202499D-03 -0.20327425D-17
 -0.71295547D-03  0.20818615D-04 -0.16223346D-18 -0.22551148D-04  0.15470171D-02
 -0.21455371D-02  0.59852001D-03  0.10767355D-17  0.14618391D-02  0.57669002D-17
 -0.10429511D-02  0.45792887D-03  0.58502228D-03  0.39688014D-18 -0.56015800D-03
 -0.11208551D-17 -0.13246204D-03  0.87478256D-04  0.44983781D-04  0.64670999D-18
  0.44055816D-04  0.37787716D-18  0.35534033D-03  0.73541392D-18  0.56302588D-03
 -0.45775602D-03  0.14332704D-17 -0.28545965D-03 -0.60826497D-03 -0.36395122D-17
 -0.14036180D-02  0.33390128D-18  0.28581148D-03 -0.10705614D-18 -0.17048024D-03
 -0.32249438D-03 -0.58024313D-18  0.35032304D-03 -0.53494006D-03  0.90141156D-18
  0.16111769D-03  0.90546604D-18  0.52390087D-04  0.94487679D-04  0.13932203D-03
 -0.51811084D-04 -0.29599212D-03 -0.16472479D-05  0.16074470D-03  0.48692989D-18
  0.93214373D-03  0.59952965D-03 -0.92829409D-18  0.10110196D-02  0.58717696D-04
  0.28228349D-18  0.14365367D-03  0.92979344D-03  0.66244413D-03 -0.15922376D-02
  0.65037555D-18 -0.77650775D-03  0.14743960D-17  0.22798510D-04  0.10515687D-03
 -0.12795538D-03 -0.19515739D-19 -0.18723163D-03  0.22833550D-18
MO    2     MO 0.0        OCC NO =    2.0000000  ORB. ENERGY =  -14.236419
  0.10488708D-03  0.18916817D-03  0.27892836D-03 -0.62458946D-03 -0.22802153D-03
 -0.65052000D-05  0.27366185D-03 -0.76318120D-17 -0.72762650D-03  0.77229429D-03
 -0.22421620D-16 -0.10498978D-02  0.33417948D-04  0.54095316D-17 -0.10645642D-03
  0.75847073D-03  0.92255516D-03 -0.16810259D-02 -0.35283210D-17  0.10378661D-02
  0.27174342D-17  0.26097115D-04  0.67933681D-04 -0.94030796D-04 -0.91939300D-19
  0.15277381D-03 -0.21583234D-18  0.29724684D+00  0.55387572D+00  0.93674269D+00
  0.14106826D+01  0.17465166D+01  0.14862068D+01  0.56552909D+00 -0.26486140D-02
 -0.10423128D-02 -0.19543462D-02 -0.33249244D-02 -0.51632566D-02 -0.68519417D-02
 -0.72210060D-02 -0.44774844D-02  0.29784244D-02  0.28004624D-01  0.17424444D-02
 -0.15028564D-03  0.31874631D-02  0.30615202D-02  0.21469493D-02 -0.39151789D-17
 -0.37604826D-17 -0.26371099D-17 -0.27440303D-02 -0.26356083D-02 -0.18482704D-02
  0.20478001D-02  0.12286143D-17 -0.87079802D-04  0.16725838D-03 -0.16282724D-17
  0.96871096D-04 -0.17675468D-04  0.71293040D-19 -0.49546019D-06  0.12448920D-02
 -0.22078067D-02  0.96291470D-03 -0.43925943D-18  0.89301326D-03  0.29212857D-17
  0.86644806D-03 -0.45899682D-03 -0.40745124D-03  0.10044473D-17  0.16418907D-02
 -0.11278153D-18  0.39088415D-04  0.21396520D-04 -0.60484935D-04 -0.57884783D-18
  0.77521902D-04 -0.12963947D-18  0.12667093D-02 -0.10339121D-17 -0.11384164D-02
 -0.20735642D-02  0.22251805D-17  0.30401506D-02 -0.17265636D-02  0.87655570D-18
  0.37509877D-03  0.94865657D-18  0.15052255D-03  0.28309292D-18  0.24561216D-04
  0.23062883D-04 -0.60664292D-20  0.70035257D-05 -0.47463052D-03 -0.84321234D-18
 -0.80687173D-04 -0.11297801D-17 -0.28633504D+00 -0.53354318D+00 -0.90235528D+00
 -0.13588970D+01 -0.16824027D+01 -0.14316488D+01 -0.54476877D+00  0.25513845D-02
  0.99944320D-03  0.18739653D-02  0.31881726D-02  0.49508955D-02  0.65701262D-02
  0.69240112D-02  0.42933286D-02 -0.28559239D-02 -0.26931851D-01 -0.17273934D-02
  0.14897577D-03  0.29846588D-02  0.28667291D-02  0.20103483D-02  0.17714288D-16
  0.17014362D-16  0.11931645D-16 -0.26716579D-02 -0.25660955D-02 -0.17995233D-02
  0.20261679D-02 -0.28690504D-17 -0.62117111D-04  0.19100951D-03  0.17965361D-17
  0.70281087D-04 -0.16909347D-04  0.15219115D-18 -0.13390361D-05 -0.11879017D-02
  0.21291117D-02 -0.94120997D-03 -0.17461441D-17 -0.83895623D-03 -0.61307918D-17
 -0.90605527D-03  0.47644262D-03  0.42961265D-03  0.39485118D-18 -0.16639879D-02
  0.15658801D-17 -0.44068968D-04 -0.18140365D-04  0.62209334D-04 -0.55593921D-18
 -0.75929164D-04 -0.29847023D-18  0.12808827D-02 -0.69241672D-18 -0.11181590D-02
 -0.20921365D-02 -0.13914939D-17  0.30316047D-02 -0.17505116D-02  0.34687440D-17
  0.32287222D-03 -0.11860773D-18  0.16131560D-03  0.15030480D-18  0.18203115D-04
  0.11019374D-04  0.34015819D-18  0.20109602D-04 -0.49496618D-03 -0.79107260D-18
 -0.74718948D-04 -0.11253899D-17 -0.10300152D-03 -0.18576748D-03 -0.27391404D-03
  0.62308509D-03  0.21711214D-03  0.64481368D-05  0.27986556D-03 -0.25054503D-18
 -0.69327510D-03  0.79525338D-03  0.65360745D-18 -0.10128238D-02  0.35637023D-04
 -0.30537977D-18 -0.10115902D-03 -0.72422971D-03 -0.89842895D-03  0.16226587D-02
 -0.50722008D-18 -0.10676322D-02 -0.12044283D-17 -0.25262623D-04 -0.64049044D-04
  0.89311666D-04  0.25821399D-19 -0.15988186D-03 -0.14914878D-18
MO    3     MO 0.0        OCC NO =    2.0000000  ORB. ENERGY =   -1.001981
  0.11453537D-01  0.20656925D-01  0.30458624D-01  0.98764747D-02 -0.35052841D-02
 -0.56458359D-04  0.60647122D-02 -0.63425324D-16  0.14196151D-01  0.41693865D-02
  0.54860233D-16 -0.43155290D-02  0.13542152D-03 -0.88324427D-18 -0.15635651D-02
 -0.42515500D-04  0.62347590D-04 -0.19832090D-04  0.71540832D-16  0.68700260D-02
 -0.20947928D-15  0.55093530D-03  0.62790466D-03 -0.11788400D-02  0.96466900D-17
  0.35381853D-03  0.22304539D-16 -0.60669508D-02 -0.11304870D-01 -0.19119369D-01
 -0.28792710D-01 -0.35647242D-01 -0.30334194D-01 -0.11542721D-01  0.54059485D-04
 -0.55646878D-01 -0.10433842D+00 -0.17751069D+00 -0.27565536D+00 -0.36581069D+00
 -0.38551426D+00 -0.23904343D+00  0.15901178D+00  0.77356091D-01  0.31020238D-01
  0.32438727D-03  0.31430077D+00  0.30188213D+00  0.21170059D+00 -0.26483345D-15
 -0.25436936D-15 -0.17838136D-15  0.28922197D-01  0.27779425D-01  0.19480850D-01
  0.72085578D-01 -0.87717157D-16 -0.37567880D-02  0.21486866D-02 -0.61708317D-16
  0.83128184D-03 -0.17094244D-03 -0.25203933D-17  0.79751333D-04  0.29683951D-01
 -0.23197607D-01 -0.64863440D-02 -0.38312379D-16  0.23768784D-01  0.13051328D-16
  0.53383508D-02 -0.54105170D-02  0.72166191D-04 -0.19400550D-16  0.90087162D-02
  0.53278355D-16  0.72151465D-04  0.27962054D-03 -0.35177200D-03 -0.67909882D-17
  0.37416180D-03  0.15692581D-16  0.61319419D-02 -0.17322119D-16 -0.58700796D-02
 -0.12406355D-01 -0.50512003D-16  0.14899170D-01 -0.59894709D-02  0.10247836D-15
  0.27110687D-02 -0.22587582D-16  0.58537681D-03  0.55364523D-17 -0.26384359D-03
 -0.69632797D-04  0.66580337D-18  0.92206996D-03 -0.16864976D-02 -0.17275160D-16
 -0.13053919D-03 -0.26935205D-17 -0.60669418D-02 -0.11304853D-01 -0.19119340D-01
 -0.28792667D-01 -0.35647189D-01 -0.30334149D-01 -0.11542703D-01  0.54059404D-04
 -0.55647585D-01 -0.10433974D+00 -0.17751295D+00 -0.27565886D+00 -0.36581535D+00
 -0.38551916D+00 -0.23904647D+00  0.15901381D+00  0.77357476D-01  0.31020976D-01
  0.32440957D-03 -0.31430112D+00 -0.30188247D+00 -0.21170083D+00 -0.21958460D-15
 -0.21090838D-15 -0.14790352D-15 -0.28920211D-01 -0.27777517D-01 -0.19479512D-01
 -0.72085652D-01 -0.61575988D-16  0.37573019D-02 -0.21488126D-02  0.11940813D-16
 -0.83128308D-03  0.17094169D-03  0.54170746D-18 -0.79749848D-04  0.29683696D-01
 -0.23197569D-01 -0.64861272D-02  0.80324170D-16  0.23768554D-01  0.53069785D-16
  0.53383045D-02 -0.54105454D-02  0.72240819D-04 -0.99342616D-17  0.90086526D-02
 -0.13724323D-16  0.72157557D-04  0.27961434D-03 -0.35177189D-03 -0.74029582D-17
  0.37416253D-03 -0.17229306D-17 -0.61319375D-02  0.71320202D-17  0.58700913D-02
  0.12406347D-01 -0.13168267D-16 -0.14899101D-01  0.59894657D-02 -0.82277940D-17
 -0.27111732D-02 -0.53812044D-16 -0.58537093D-03  0.20169299D-17  0.26384517D-03
  0.69651079D-04  0.42416471D-17 -0.92207731D-03  0.16864617D-02 -0.10292437D-16
  0.13054178D-03 -0.45610076D-18  0.11453743D-01  0.20657298D-01  0.30459174D-01
  0.98767012D-02 -0.35053271D-02 -0.56460570D-04 -0.60647040D-02 -0.40339376D-17
 -0.14196457D-01 -0.41693291D-02  0.11255385D-16  0.43154941D-02 -0.13541835D-03
 -0.19696201D-17  0.15635745D-02 -0.42589766D-04  0.62304706D-04 -0.19714940D-04
  0.56767761D-18  0.68700020D-02 -0.36600476D-17  0.55093868D-03  0.62790521D-03
 -0.11788439D-02  0.50527266D-17  0.35380940D-03 -0.81809382D-18
MO    4     MO 0.0        OCC NO =    2.0000000  ORB. ENERGY =   -0.667897
 -0.28421814D-01 -0.51259912D-01 -0.75582710D-01 -0.37691424D-01  0.73462757D-02
  0.44692321D-03  0.13500483D-03 -0.32536527D-16 -0.31285853D-01  0.35237806D-02
 -0.15723050D-16  0.85000353D-03  0.37345781D-03 -0.16755504D-16  0.20558117D-02
  0.44746744D-02  0.38307826D-02 -0.83054570D-02  0.22265450D-15  0.10363556D-02
 -0.61980739D-15 -0.42946908D-03 -0.51488425D-03  0.94435333D-03  0.31298091D-16
  0.53390295D-03  0.70126513D-17  0.15227339D-02  0.28373904D-02  0.47987385D-02
  0.72266343D-02  0.89470421D-02  0.76135290D-02  0.28970882D-02 -0.13568300D-04
  0.47046827D-01  0.88213241D-01  0.15007697D+00  0.23305369D+00  0.30927580D+00
  0.32593424D+00  0.20210002D+00 -0.13443701D+00 -0.68972158D-01 -0.61939221D-01
 -0.46135223D-02  0.12884598D+00  0.12375502D+00  0.86785563D-01 -0.45887176D-15
 -0.44074084D-15 -0.30907790D-15  0.38714495D+00  0.37184810D+00  0.26076555D+00
  0.18591781D-01 -0.21878002D-15  0.96188245D-01 -0.44886309D-02 -0.16264022D-16
  0.80154965D-02 -0.97172745D-04 -0.17307509D-18  0.27999796D-03  0.11924245D-01
  0.29901633D-02 -0.14914408D-01 -0.11085869D-15  0.30224052D-01  0.20687225D-16
  0.10111190D-02  0.34134281D-02 -0.44245470D-02 -0.19853269D-16  0.55965714D-02
  0.98690152D-16 -0.30149809D-03  0.25152180D-03  0.49976297D-04 -0.11874275D-16
  0.15063129D-03 -0.20415595D-17 -0.48161392D-02  0.34991528D-16 -0.50819347D-04
  0.41430199D-02 -0.20346291D-15  0.57811885D-02  0.10305398D-01  0.98488329D-16
 -0.56287305D-02 -0.18973905D-15  0.33472680D-03  0.62847858D-17  0.62261121D-04
  0.99161482D-03  0.58981500D-17 -0.37023786D-03 -0.19957952D-02 -0.24752507D-16
  0.18345450D-03  0.15076162D-16 -0.15226491D-02 -0.28372324D-02 -0.47984713D-02
 -0.72262319D-02 -0.89465438D-02 -0.76131050D-02 -0.28969269D-02  0.13567545D-04
 -0.47046546D-01 -0.88212714D-01 -0.15007607D+00 -0.23305229D+00 -0.30927395D+00
 -0.32593229D+00 -0.20209881D+00  0.13443621D+00  0.68972127D-01  0.61939398D-01
  0.46135641D-02  0.12886024D+00  0.12376872D+00  0.86795172D-01 -0.26932277D-15
 -0.25868130D-15 -0.18140518D-15  0.38715554D+00  0.37185826D+00  0.26077268D+00
  0.18595131D-01 -0.59189913D-16  0.96190605D-01 -0.44883582D-02  0.13707100D-16
  0.80158208D-02 -0.97175971D-04  0.20308515D-18  0.28000628D-03 -0.11925477D-01
 -0.29897803D-02  0.14915257D-01 -0.72240038D-16 -0.30224358D-01 -0.43569151D-16
 -0.10113682D-02 -0.34133668D-02  0.44247349D-02 -0.22487858D-16 -0.55967259D-02
 -0.41716679D-16  0.30148084D-03 -0.25152401D-03 -0.49956837D-04 -0.10599971D-16
 -0.15065630D-03 -0.45931536D-17 -0.48160037D-02 -0.43226669D-16 -0.50907970D-04
  0.41427523D-02  0.17432032D-15  0.57815082D-02  0.10305259D-01 -0.44640313D-16
 -0.56287843D-02  0.94601398D-16  0.33474616D-03  0.30037333D-17  0.62270808D-04
  0.99162059D-03 -0.43575646D-17 -0.37024836D-03 -0.19958591D-02 -0.46536353D-17
  0.18343594D-03  0.18763668D-16  0.28422114D-01  0.51260453D-01  0.75583508D-01
  0.37691789D-01 -0.73464092D-02 -0.44692593D-03  0.13532337D-03  0.14685515D-16
 -0.31286202D-01  0.35240153D-02  0.25696739D-17  0.84994471D-03  0.37346841D-03
  0.20205815D-17  0.20558292D-02 -0.44747909D-02 -0.38308512D-02  0.83056421D-02
  0.91834010D-17 -0.10366877D-02 -0.84369333D-17  0.42946776D-03  0.51487787D-03
 -0.94434562D-03  0.87872350D-18 -0.53393816D-03 -0.23576440D-18
MO    5     MO 0.0        OCC NO =    2.0000000  ORB. ENERGY =   -0.453245
  0.29374919D-01  0.52978876D-01  0.78117322D-01  0.46292919D-01 -0.52932631D-02
 -0.19438899D-03 -0.10722001D-01  0.39495913D-15  0.25096202D-01 -0.10706819D-01
  0.21531373D-15 -0.40642850D-02 -0.87695729D-03  0.33981283D-18 -0.25629800D-02
 -0.44718532D-02 -0.30023444D-02  0.74741976D-02 -0.24706139D-15 -0.12303613D-01
 -0.26004391D-15  0.39907322D-03  0.60716236D-03 -0.10062356D-02  0.53058844D-16
 -0.21928062D-02  0.20452087D-16  0.30338295D-03  0.56530945D-03  0.95608000D-03
  0.14398035D-02  0.17825701D-02  0.15168867D-02  0.57720339D-03 -0.27032897D-05
 -0.62536279D-02 -0.11725611D-01 -0.19948753D-01 -0.30978306D-01 -0.41110014D-01
 -0.43324312D-01 -0.26863837D-01  0.17869835D-01  0.11269133D-01  0.30243807D-01
  0.31303725D-02 -0.61635153D+00 -0.59199827D+00 -0.41515005D+00  0.34863229D-14
  0.33485714D-14  0.23482494D-14 -0.48779964D+00 -0.46852572D+00 -0.32856258D+00
 -0.14149669D+00  0.80904079D-15 -0.11839101D+00 -0.15261341D-01  0.71815568D-16
 -0.16121457D-01 -0.81897557D-04  0.81756508D-17 -0.40818883D-03 -0.53540000D-01
  0.98054955D-02  0.43734505D-01  0.39993880D-15 -0.69691803D-02 -0.36781067D-16
 -0.10909939D-01  0.10910806D-02  0.98188585D-02  0.22587696D-16 -0.50214400D-02
  0.65912770D-16 -0.90660787D-03  0.27721883D-03  0.62938904D-03 -0.19638231D-16
 -0.11784657D-02 -0.17230356D-16 -0.49762535D-02 -0.66001652D-16  0.34293083D-02
  0.10742578D-01  0.12447630D-15 -0.14412598D-01  0.41861827D-02  0.73528656D-16
  0.41246736D-02  0.79306587D-16 -0.10784690D-02  0.12883812D-16 -0.11078994D-03
  0.13661819D-03 -0.11349689D-16  0.91199813D-04  0.30987887D-02 -0.27301748D-16
  0.24117002D-03 -0.99696603D-17  0.30338512D-03  0.56531351D-03  0.95608686D-03
  0.14398138D-02  0.17825829D-02  0.15168976D-02  0.57720753D-03 -0.27033091D-05
 -0.62529080D-02 -0.11724261D-01 -0.19946456D-01 -0.30974741D-01 -0.41105282D-01
 -0.43319325D-01 -0.26860745D-01  0.17867778D-01  0.11268070D-01  0.30242413D-01
  0.31300903D-02  0.61635670D+00  0.59200324D+00  0.41515354D+00  0.26545670D-14
  0.25496799D-14  0.17880115D-14  0.48779323D+00  0.46851956D+00  0.32855826D+00
  0.14149816D+00  0.67766351D-15  0.11838938D+00  0.15261784D-01  0.14755359D-15
  0.16121350D-01  0.81916400D-04  0.43773595D-17  0.40818741D-03 -0.53539709D-01
  0.98054061D-02  0.43734302D-01 -0.42912667D-15 -0.69675835D-02 -0.14012776D-15
 -0.10909946D-01  0.10910948D-02  0.98188509D-02 -0.13450922D-15 -0.50210918D-02
 -0.65789477D-16 -0.90662229D-03  0.27722092D-03  0.62940136D-03 -0.29706390D-16
 -0.11784593D-02 -0.17562250D-16  0.49763070D-02 -0.52562953D-16 -0.34292438D-02
 -0.10742517D-01  0.12004115D-15  0.14412255D-01 -0.41864038D-02  0.37647710D-16
 -0.41245237D-02  0.11579254D-15  0.10784627D-02  0.64030845D-18  0.11079402D-03
 -0.13663770D-03  0.16200557D-16 -0.91191452D-04 -0.30987503D-02 -0.18121482D-16
 -0.24119062D-03  0.20117545D-16  0.29374294D-01  0.52977750D-01  0.78115661D-01
  0.46291809D-01 -0.52932066D-02 -0.19438353D-03  0.10722254D-01  0.48173617D-16
 -0.25095601D-01  0.10706838D-01  0.47490280D-16  0.40642785D-02  0.87694712D-03
 -0.25540985D-17  0.25629407D-02 -0.44717554D-02 -0.30022550D-02  0.74740104D-02
  0.63862389D-17 -0.12303775D-01 -0.37279534D-16  0.39906579D-03  0.60714855D-03
 -0.10062143D-02 -0.73775847D-18 -0.21927906D-02 -0.51290722D-17
MO    6     MO 0.0        OCC NO =    2.0000000  ORB. ENERGY =   -0.413224
  0.13327565D-01  0.24036812D-01  0.35442265D-01  0.30921622D-01 -0.54046482D-02
 -0.23609361D-03  0.12423835D-01 -0.21228008D-15  0.11661674D-01  0.34143595D-02
 -0.34186344D-16 -0.60690540D-05 -0.11791434D-03 -0.50048461D-16 -0.15177899D-02
 -0.33054593D-04 -0.26645506D-02  0.26976052D-02 -0.38055706D-16  0.77592763D-02
 -0.40728624D-15  0.22153895D-03  0.47342087D-03 -0.69495982D-03 -0.49165714D-16
 -0.97162356D-03 -0.36672354D-16 -0.47948335D-03 -0.89344662D-03 -0.15110422D-02
 -0.22755459D-02 -0.28172734D-02 -0.23973725D-02 -0.91224446D-03  0.42724300D-05
  0.34837264D-01  0.65320196D-01  0.11112909D+00  0.17257174D+00  0.22901274D+00
  0.24134799D+00  0.14965115D+00 -0.99548002D-01 -0.51909223D-01 -0.64541122D-01
  0.95929584D-02  0.37154109D+00  0.35686077D+00  0.25025541D+00 -0.42943359D-14
 -0.41246583D-14 -0.28924951D-14 -0.55654930D+00 -0.53455895D+00 -0.37486963D+00
  0.81135643D-01 -0.10554810D-14 -0.13857242D+00  0.45557017D-02  0.25113474D-17
 -0.20478616D-01  0.92696348D-03  0.81079291D-17 -0.23323991D-03  0.25475893D-01
 -0.17424716D-01 -0.80511765D-02 -0.44831811D-15 -0.76701188D-01  0.21962664D-16
  0.33625653D-02 -0.35758334D-03 -0.30049819D-02 -0.62880241D-16 -0.20250009D-01
 -0.13542178D-16 -0.51359564D-03  0.26874834D-03  0.24484730D-03  0.75107202D-17
 -0.25122971D-03 -0.17667612D-16  0.53651855D-02  0.58746232D-16  0.46578120D-02
  0.20628818D-02 -0.17509252D-15 -0.18017059D-01 -0.18158438D-01 -0.11461765D-17
  0.40436231D-02 -0.26469606D-16 -0.52983293D-03 -0.47681229D-17  0.36330277D-03
  0.24849527D-03  0.71970355D-17 -0.26112753D-04  0.13410035D-02  0.71073331D-17
 -0.10637955D-02  0.36695319D-16  0.47952410D-03  0.89352255D-03  0.15111706D-02
  0.22757392D-02  0.28175128D-02  0.23975763D-02  0.91232199D-03 -0.42727931D-05
 -0.34837637D-01 -0.65320895D-01 -0.11113028D+00 -0.17257359D+00 -0.22901519D+00
 -0.24135057D+00 -0.14965275D+00  0.99549067D-01  0.51910037D-01  0.64541598D-01
 -0.95929737D-02  0.37155412D+00  0.35687330D+00  0.25026419D+00 -0.33413749D-14
 -0.32093506D-14 -0.22506182D-14 -0.55656663D+00 -0.53457560D+00 -0.37488131D+00
  0.81138815D-01 -0.86669243D-15 -0.13857666D+00  0.45562442D-02 -0.15656062D-15
 -0.20479535D-01  0.92697291D-03 -0.33669647D-17 -0.23324999D-03 -0.25475705D-01
  0.17425408D-01  0.80502973D-02  0.33162448D-15  0.76700981D-01  0.14886109D-15
 -0.33625286D-02  0.35770299D-03  0.30048256D-02  0.11290828D-15  0.20250136D-01
  0.22887525D-16  0.51357871D-03 -0.26874733D-03 -0.24483138D-03  0.13099374D-16
  0.25131421D-03  0.63280550D-17  0.53651490D-02  0.46270409D-16  0.46577581D-02
  0.20629074D-02 -0.13803922D-15 -0.18016733D-01 -0.18158354D-01 -0.77200906D-18
  0.40434588D-02 -0.10924716D-15 -0.52982188D-03  0.35633818D-17  0.36330120D-03
  0.24850600D-03 -0.14226555D-16 -0.26134703D-04  0.13409597D-02  0.35364100D-17
 -0.10637689D-02  0.51794205D-17 -0.13328313D-01 -0.24038161D-01 -0.35444254D-01
 -0.30922785D-01  0.54046296D-02  0.23609792D-03  0.12424020D-01 -0.63107705D-16
  0.11662272D-01  0.34143987D-02 -0.31982249D-16 -0.61706764D-05 -0.11793069D-03
  0.15515718D-17 -0.15178284D-02  0.33182224D-04  0.26645866D-02 -0.26977688D-02
  0.58505496D-17 -0.77593953D-02  0.45257386D-16 -0.22155884D-03 -0.47342936D-03
  0.69498820D-03  0.83535752D-17  0.97162384D-03  0.55196747D-17
MO    7     MO 0.0        OCC NO =    2.0000000  ORB. ENERGY =   -0.372710
 -0.86680496D-16 -0.15633184D-15 -0.23051121D-15 -0.84993379D-15  0.33962984D-15
  0.12343353D-15  0.28914859D-15  0.15492816D-01  0.87102523D-16  0.15125992D-15
  0.12414456D-01 -0.13278681D-15  0.21207905D-15  0.21720176D-04  0.27340962D-15
 -0.80443107D-16 -0.14376619D-15  0.22420929D-15  0.11890165D-02  0.34798003D-15
  0.14213053D-01  0.32603399D-16 -0.93779544D-16  0.61176144D-16 -0.47212037D-03
  0.24757896D-15  0.14207766D-02 -0.81482052D-18 -0.15182981D-17 -0.25678226D-17
 -0.38669986D-17 -0.47875951D-17 -0.40740274D-17 -0.15502426D-17  0.72604474D-20
  0.20904463D-15  0.39196064D-15  0.66684167D-15  0.10355347D-14  0.13742148D-14
  0.14482337D-14  0.89799731D-15 -0.59734816D-15 -0.50762304D-15 -0.93522859D-15
 -0.71130155D-15  0.45477760D-14  0.43680845D-14  0.30632023D-14  0.80844693D+00
  0.77650361D+00  0.54453793D+00 -0.67102188D-15 -0.64450849D-15 -0.45197384D-15
  0.12495112D-14  0.20609116D+00 -0.45463239D-15 -0.66643021D-15  0.28090556D-01
 -0.25223607D-15 -0.57589459D-16  0.30473338D-03 -0.93778781D-16  0.71843806D-15
 -0.30923113D-15 -0.40920693D-15  0.92564943D-01 -0.47009957D-15  0.36158648D-02
 -0.79266182D-16 -0.37132177D-17  0.82979399D-16  0.21574706D-01  0.25964127D-15
  0.41929743D-02 -0.77299960D-16  0.22555499D-17  0.75044410D-16  0.69285308D-03
 -0.49037119D-16  0.28646133D-03  0.15912478D-15 -0.10902678D-01 -0.16457401D-16
 -0.69406971D-15  0.31735876D-01  0.20869874D-15  0.21669537D-15  0.97215907D-03
 -0.15932653D-15  0.28039803D-01 -0.62543503D-16  0.55156639D-03 -0.28018930D-16
  0.51849672D-16  0.42731064D-03  0.13488106D-15  0.13578084D-15 -0.20820098D-02
 -0.50824271D-16 -0.18807906D-02 -0.17579699D-15 -0.32757180D-15 -0.55400604D-15
 -0.83430239D-15 -0.10329205D-14 -0.87896871D-15 -0.33446381D-15  0.15664367D-17
 -0.55307359D-16 -0.10370182D-15 -0.17642764D-15 -0.27397350D-15 -0.36357877D-15
 -0.38316212D-15 -0.23758496D-15  0.15804160D-15  0.36685671D-15  0.25615611D-14
  0.86748098D-15 -0.77663141D-15 -0.74594519D-15 -0.52310826D-15  0.80846535D+00
  0.77652130D+00  0.54455034D+00 -0.50151129D-14 -0.48169560D-14 -0.33779821D-14
  0.72865825D-16  0.20609559D+00 -0.68090683D-15 -0.20860183D-15  0.28091350D-01
  0.74401410D-15  0.17108956D-17  0.30474433D-03  0.14490978D-15  0.22963098D-15
  0.16553828D-16 -0.24618481D-15 -0.92564375D-01  0.84287489D-15 -0.36151857D-02
 -0.25602519D-15 -0.18145634D-15  0.43748153D-15 -0.21574520D-01  0.25955703D-15
 -0.41928844D-02 -0.15703385D-17 -0.73723076D-16  0.75293415D-16 -0.69289580D-03
  0.66257897D-16 -0.28648442D-03  0.45774195D-17 -0.10902691D-01 -0.40495408D-16
  0.37176539D-15  0.31735719D-01  0.29130945D-15 -0.38549765D-15  0.97235266D-03
 -0.16982323D-15  0.28039738D-01  0.26936406D-16  0.55157381D-03  0.63009607D-16
 -0.88160142D-16  0.42731887D-03 -0.52089501D-16  0.73509240D-17 -0.20820403D-02
 -0.13693932D-15 -0.18807715D-02 -0.66718132D-16 -0.12032890D-15 -0.17742489D-15
 -0.21047905D-14 -0.11348420D-14 -0.93463838D-16  0.24595580D-15  0.15493186D-01
  0.27893838D-15 -0.47354823D-16  0.12414681D-01  0.93094736D-15 -0.15883160D-15
  0.21733678D-04  0.81452538D-16  0.21852920D-15  0.36269692D-15 -0.58122612D-15
 -0.11889830D-02  0.14472202D-15 -0.14213382D-01 -0.47437128D-16 -0.31263307D-17
  0.50563459D-16  0.47212696D-03  0.81280826D-16 -0.14207965D-02
MO    8     MO 0.0        OCC NO =    2.0000000  ORB. ENERGY =   -0.212141
 -0.25491684D-01 -0.45975303D-01 -0.67790557D-01 -0.51694484D-01 -0.90866293D-02
 -0.27605103D-04 -0.96339036D-02 -0.10485303D-15 -0.13917134D-01 -0.43559473D-02
 -0.69108268D-16  0.31982134D-02  0.15943900D-03 -0.12389593D-16  0.16436784D-02
  0.43448288D-02  0.10698590D-02 -0.54146878D-02 -0.30943255D-15 -0.65037772D-02
  0.17696585D-16 -0.35679456D-03 -0.21077938D-03  0.56757394D-03 -0.50676815D-16
 -0.62933167D-03  0.20594839D-15  0.14408742D-03  0.26848570D-03  0.45407662D-03
  0.68381423D-03  0.84660638D-03  0.72042382D-03  0.27413455D-03 -0.12838891D-05
 -0.19948981D-01 -0.37404526D-01 -0.63636228D-01 -0.98820343D-01 -0.13114034D+00
 -0.13820392D+00 -0.85695247D-01  0.57004511D-01  0.30741075D-01  0.42813708D-01
  0.41264196D-02 -0.60877240D+00 -0.58471861D+00 -0.41004505D+00  0.15722765D-15