 Molden2AIM, Version 4.0.0 (06/02/2016)           Time: Thu Jun 28 21:40:07 2018
GAUSSIAN             23 MOL ORBITALS    450 PRIMITIVES        6 NUCLEI
  N    1    (CENTRE  1)  -0.38236340  1.60509180  0.29350281  CHARGE =  7.0
  N    2    (CENTRE  2)   0.38236340 -1.60508991  0.29359352  CHARGE =  7.0
  O    3    (CENTRE  3)   1.42834760  2.92228004  0.29508073  CHARGE =  8.0
  O    4    (CENTRE  4)  -2.59214299  1.96631483  0.29229906  CHARGE =  8.0
  O    5    (CENTRE  5)  -1.42834760 -2.92227815  0.29501837  CHARGE =  8.0
  O    6    (CENTRE  6)   2.59214488 -1.96631672  0.29219134  CHARGE =  8.0
CENTRE ASSIGNMENTS    1  1  1  1  1  1  1  1  1  1  1  1  1  1  1  1  1  1  1  1
CENTRE ASSIGNMENTS    1  1  1  1  1  1  1  1  1  1  1  1  1  1  1  1  1  1  1  1
CENTRE ASSIGNMENTS    1  1  1  1  1  1  1  1  1  1  1  1  1  1  1  1  1  1  1  1
CENTRE ASSIGNMENTS    1  1  1  1  1  1  1  1  1  1  1  1  1  1  1  2  2  2  2  2
CENTRE ASSIGNMENTS    2  2  2  2  2  2  2  2  2  2  2  2  2  2  2  2  2  2  2  2
CENTRE ASSIGNMENTS    2  2  2  2  2  2  2  2  2  2  2  2  2  2  2  2  2  2  2  2
CENTRE ASSIGNMENTS    2  2  2  2  2  2  2  2  2  2  2  2  2  2  2  2  2  2  2  2
CENTRE ASSIGNMENTS    2  2  2  2  2  2  2  2  2  2  3  3  3  3  3  3  3  3  3  3
CENTRE ASSIGNMENTS    3  3  3  3  3  3  3  3  3  3  3  3  3  3  3  3  3  3  3  3
CENTRE ASSIGNMENTS    3  3  3  3  3  3  3  3  3  3  3  3  3  3  3  3  3  3  3  3
CENTRE ASSIGNMENTS    3  3  3  3  3  3  3  3  3  3  3  3  3  3  3  3  3  3  3  3
CENTRE ASSIGNMENTS    3  3  3  3  3  4  4  4  4  4  4  4  4  4  4  4  4  4  4  4
CENTRE ASSIGNMENTS    4  4  4  4  4  4  4  4  4  4  4  4  4  4  4  4  4  4  4  4
CENTRE ASSIGNMENTS    4  4  4  4  4  4  4  4  4  4  4  4  4  4  4  4  4  4  4  4
CENTRE ASSIGNMENTS    4  4  4  4  4  4  4  4  4  4  4  4  4  4  4  4  4  4  4  4
CENTRE ASSIGNMENTS    5  5  5  5  5  5  5  5  5  5  5  5  5  5  5  5  5  5  5  5
CENTRE ASSIGNMENTS    5  5  5  5  5  5  5  5  5  5  5  5  5  5  5  5  5  5  5  5
CENTRE ASSIGNMENTS    5  5  5  5  5  5  5  5  5  5  5  5  5  5  5  5  5  5  5  5
CENTRE ASSIGNMENTS    5  5  5  5  5  5  5  5  5  5  5  5  5  5  5  6  6  6  6  6
CENTRE ASSIGNMENTS    6  6  6  6  6  6  6  6  6  6  6  6  6  6  6  6  6  6  6  6
CENTRE ASSIGNMENTS    6  6  6  6  6  6  6  6  6  6  6  6  6  6  6  6  6  6  6  6
CENTRE ASSIGNMENTS    6  6  6  6  6  6  6  6  6  6  6  6  6  6  6  6  6  6  6  6
CENTRE ASSIGNMENTS    6  6  6  6  6  6  6  6  6  6
TYPE ASSIGNMENTS      1  1  1  1  1  1  1  1  1  1  1  1  1  1  1  1  1  1  1  2
TYPE ASSIGNMENTS      2  2  3  3  3  4  4  4  2  3  4  2  3  4  2  3  4  5  6  7
TYPE ASSIGNMENTS      8  9 10  5  6  7  8  9 10  5  6  7  8  9 10 11 12 13 17 14
TYPE ASSIGNMENTS     15 18 19 16 20 11 12 13 17 14 15 18 19 16 20  1  1  1  1  1
TYPE ASSIGNMENTS      1  1  1  1  1  1  1  1  1  1  1  1  1  1  2  2  2  3  3  3
TYPE ASSIGNMENTS      4  4  4  2  3  4  2  3  4  2  3  4  5  6  7  8  9 10  5  6
TYPE ASSIGNMENTS      7  8  9 10  5  6  7  8  9 10 11 12 13 17 14 15 18 19 16 20
TYPE ASSIGNMENTS     11 12 13 17 14 15 18 19 16 20  1  1  1  1  1  1  1  1  1  1
TYPE ASSIGNMENTS      1  1  1  1  1  1  1  1  1  2  2  2  3  3  3  4  4  4  2  3
TYPE ASSIGNMENTS      4  2  3  4  2  3  4  5  6  7  8  9 10  5  6  7  8  9 10  5
TYPE ASSIGNMENTS      6  7  8  9 10 11 12 13 17 14 15 18 19 16 20 11 12 13 17 14
TYPE ASSIGNMENTS     15 18 19 16 20  1  1  1  1  1  1  1  1  1  1  1  1  1  1  1
TYPE ASSIGNMENTS      1  1  1  1  2  2  2  3  3  3  4  4  4  2  3  4  2  3  4  2
TYPE ASSIGNMENTS      3  4  5  6  7  8  9 10  5  6  7  8  9 10  5  6  7  8  9 10
TYPE ASSIGNMENTS     11 12 13 17 14 15 18 19 16 20 11 12 13 17 14 15 18 19 16 20
TYPE ASSIGNMENTS      1  1  1  1  1  1  1  1  1  1  1  1  1  1  1  1  1  1  1  2
TYPE ASSIGNMENTS      2  2  3  3  3  4  4  4  2  3  4  2  3  4  2  3  4  5  6  7
TYPE ASSIGNMENTS      8  9 10  5  6  7  8  9 10  5  6  7  8  9 10 11 12 13 17 14
TYPE ASSIGNMENTS     15 18 19 16 20 11 12 13 17 14 15 18 19 16 20  1  1  1  1  1
TYPE ASSIGNMENTS      1  1  1  1  1  1  1  1  1  1  1  1  1  1  2  2  2  3  3  3
TYPE ASSIGNMENTS      4  4  4  2  3  4  2  3  4  2  3  4  5  6  7  8  9 10  5  6
TYPE ASSIGNMENTS      7  8  9 10  5  6  7  8  9 10 11 12 13 17 14 15 18 19 16 20
TYPE ASSIGNMENTS     11 12 13 17 14 15 18 19 16 20
EXPONENTS  0.1142000D+05 0.1712000D+04 0.3893000D+03 0.1100000D+03 0.3557000D+02
EXPONENTS  0.1254000D+02 0.4644000D+01 0.5118000D+00 0.1142000D+05 0.1712000D+04
EXPONENTS  0.3893000D+03 0.1100000D+03 0.3557000D+02 0.1254000D+02 0.4644000D+01
EXPONENTS  0.5118000D+00 0.1293000D+01 0.1787000D+00 0.5760000D-01 0.2663000D+02
EXPONENTS  0.5948000D+01 0.1742000D+01 0.2663000D+02 0.5948000D+01 0.1742000D+01
EXPONENTS  0.2663000D+02 0.5948000D+01 0.1742000D+01 0.5550000D+00 0.5550000D+00
EXPONENTS  0.5550000D+00 0.1725000D+00 0.1725000D+00 0.1725000D+00 0.4910000D-01
EXPONENTS  0.4910000D-01 0.4910000D-01 0.1654000D+01 0.1654000D+01 0.1654000D+01
EXPONENTS  0.1654000D+01 0.1654000D+01 0.1654000D+01 0.4690000D+00 0.4690000D+00
EXPONENTS  0.4690000D+00 0.4690000D+00 0.4690000D+00 0.4690000D+00 0.1510000D+00
EXPONENTS  0.1510000D+00 0.1510000D+00 0.1510000D+00 0.1510000D+00 0.1510000D+00
EXPONENTS  0.1093000D+01 0.1093000D+01 0.1093000D+01 0.1093000D+01 0.1093000D+01
EXPONENTS  0.1093000D+01 0.1093000D+01 0.1093000D+01 0.1093000D+01 0.1093000D+01
EXPONENTS  0.3640000D+00 0.3640000D+00 0.3640000D+00 0.3640000D+00 0.3640000D+00
EXPONENTS  0.3640000D+00 0.3640000D+00 0.3640000D+00 0.3640000D+00 0.3640000D+00
EXPONENTS  0.1142000D+05 0.1712000D+04 0.3893000D+03 0.1100000D+03 0.3557000D+02
EXPONENTS  0.1254000D+02 0.4644000D+01 0.5118000D+00 0.1142000D+05 0.1712000D+04
EXPONENTS  0.3893000D+03 0.1100000D+03 0.3557000D+02 0.1254000D+02 0.4644000D+01
EXPONENTS  0.5118000D+00 0.1293000D+01 0.1787000D+00 0.5760000D-01 0.2663000D+02
EXPONENTS  0.5948000D+01 0.1742000D+01 0.2663000D+02 0.5948000D+01 0.1742000D+01
EXPONENTS  0.2663000D+02 0.5948000D+01 0.1742000D+01 0.5550000D+00 0.5550000D+00
EXPONENTS  0.5550000D+00 0.1725000D+00 0.1725000D+00 0.1725000D+00 0.4910000D-01
EXPONENTS  0.4910000D-01 0.4910000D-01 0.1654000D+01 0.1654000D+01 0.1654000D+01
EXPONENTS  0.1654000D+01 0.1654000D+01 0.1654000D+01 0.4690000D+00 0.4690000D+00
EXPONENTS  0.4690000D+00 0.4690000D+00 0.4690000D+00 0.4690000D+00 0.1510000D+00
EXPONENTS  0.1510000D+00 0.1510000D+00 0.1510000D+00 0.1510000D+00 0.1510000D+00
EXPONENTS  0.1093000D+01 0.1093000D+01 0.1093000D+01 0.1093000D+01 0.1093000D+01
EXPONENTS  0.1093000D+01 0.1093000D+01 0.1093000D+01 0.1093000D+01 0.1093000D+01
EXPONENTS  0.3640000D+00 0.3640000D+00 0.3640000D+00 0.3640000D+00 0.3640000D+00
EXPONENTS  0.3640000D+00 0.3640000D+00 0.3640000D+00 0.3640000D+00 0.3640000D+00
EXPONENTS  0.1533000D+05 0.2299000D+04 0.5224000D+03 0.1473000D+03 0.4755000D+02
EXPONENTS  0.1676000D+02 0.6207000D+01 0.6882000D+00 0.1533000D+05 0.2299000D+04
EXPONENTS  0.5224000D+03 0.1473000D+03 0.4755000D+02 0.1676000D+02 0.6207000D+01
EXPONENTS  0.6882000D+00 0.1752000D+01 0.2384000D+00 0.7376000D-01 0.3446000D+02
EXPONENTS  0.7749000D+01 0.2280000D+01 0.3446000D+02 0.7749000D+01 0.2280000D+01
EXPONENTS  0.3446000D+02 0.7749000D+01 0.2280000D+01 0.7156000D+00 0.7156000D+00
EXPONENTS  0.7156000D+00 0.2140000D+00 0.2140000D+00 0.2140000D+00 0.5974000D-01
EXPONENTS  0.5974000D-01 0.5974000D-01 0.2314000D+01 0.2314000D+01 0.2314000D+01
EXPONENTS  0.2314000D+01 0.2314000D+01 0.2314000D+01 0.6450000D+00 0.6450000D+00
EXPONENTS  0.6450000D+00 0.6450000D+00 0.6450000D+00 0.6450000D+00 0.2140000D+00
EXPONENTS  0.2140000D+00 0.2140000D+00 0.2140000D+00 0.2140000D+00 0.2140000D+00
EXPONENTS  0.1428000D+01 0.1428000D+01 0.1428000D+01 0.1428000D+01 0.1428000D+01
EXPONENTS  0.1428000D+01 0.1428000D+01 0.1428000D+01 0.1428000D+01 0.1428000D+01
EXPONENTS  0.5000000D+00 0.5000000D+00 0.5000000D+00 0.5000000D+00 0.5000000D+00
EXPONENTS  0.5000000D+00 0.5000000D+00 0.5000000D+00 0.5000000D+00 0.5000000D+00
EXPONENTS  0.1533000D+05 0.2299000D+04 0.5224000D+03 0.1473000D+03 0.4755000D+02
EXPONENTS  0.1676000D+02 0.6207000D+01 0.6882000D+00 0.1533000D+05 0.2299000D+04
EXPONENTS  0.5224000D+03 0.1473000D+03 0.4755000D+02 0.1676000D+02 0.6207000D+01
EXPONENTS  0.6882000D+00 0.1752000D+01 0.2384000D+00 0.7376000D-01 0.3446000D+02
EXPONENTS  0.7749000D+01 0.2280000D+01 0.3446000D+02 0.7749000D+01 0.2280000D+01
EXPONENTS  0.3446000D+02 0.7749000D+01 0.2280000D+01 0.7156000D+00 0.7156000D+00
EXPONENTS  0.7156000D+00 0.2140000D+00 0.2140000D+00 0.2140000D+00 0.5974000D-01
EXPONENTS  0.5974000D-01 0.5974000D-01 0.2314000D+01 0.2314000D+01 0.2314000D+01
EXPONENTS  0.2314000D+01 0.2314000D+01 0.2314000D+01 0.6450000D+00 0.6450000D+00
EXPONENTS  0.6450000D+00 0.6450000D+00 0.6450000D+00 0.6450000D+00 0.2140000D+00
EXPONENTS  0.2140000D+00 0.2140000D+00 0.2140000D+00 0.2140000D+00 0.2140000D+00
EXPONENTS  0.1428000D+01 0.1428000D+01 0.1428000D+01 0.1428000D+01 0.1428000D+01
EXPONENTS  0.1428000D+01 0.1428000D+01 0.1428000D+01 0.1428000D+01 0.1428000D+01
EXPONENTS  0.5000000D+00 0.5000000D+00 0.5000000D+00 0.5000000D+00 0.5000000D+00
EXPONENTS  0.5000000D+00 0.5000000D+00 0.5000000D+00 0.5000000D+00 0.5000000D+00
EXPONENTS  0.1533000D+05 0.2299000D+04 0.5224000D+03 0.1473000D+03 0.4755000D+02
EXPONENTS  0.1676000D+02 0.6207000D+01 0.6882000D+00 0.1533000D+05 0.2299000D+04
EXPONENTS  0.5224000D+03 0.1473000D+03 0.4755000D+02 0.1676000D+02 0.6207000D+01
EXPONENTS  0.6882000D+00 0.1752000D+01 0.2384000D+00 0.7376000D-01 0.3446000D+02
EXPONENTS  0.7749000D+01 0.2280000D+01 0.3446000D+02 0.7749000D+01 0.2280000D+01
EXPONENTS  0.3446000D+02 0.7749000D+01 0.2280000D+01 0.7156000D+00 0.7156000D+00
EXPONENTS  0.7156000D+00 0.2140000D+00 0.2140000D+00 0.2140000D+00 0.5974000D-01
EXPONENTS  0.5974000D-01 0.5974000D-01 0.2314000D+01 0.2314000D+01 0.2314000D+01
EXPONENTS  0.2314000D+01 0.2314000D+01 0.2314000D+01 0.6450000D+00 0.6450000D+00
EXPONENTS  0.6450000D+00 0.6450000D+00 0.6450000D+00 0.6450000D+00 0.2140000D+00
EXPONENTS  0.2140000D+00 0.2140000D+00 0.2140000D+00 0.2140000D+00 0.2140000D+00
EXPONENTS  0.1428000D+01 0.1428000D+01 0.1428000D+01 0.1428000D+01 0.1428000D+01
EXPONENTS  0.1428000D+01 0.1428000D+01 0.1428000D+01 0.1428000D+01 0.1428000D+01
EXPONENTS  0.5000000D+00 0.5000000D+00 0.5000000D+00 0.5000000D+00 0.5000000D+00
EXPONENTS  0.5000000D+00 0.5000000D+00 0.5000000D+00 0.5000000D+00 0.5000000D+00
EXPONENTS  0.1533000D+05 0.2299000D+04 0.5224000D+03 0.1473000D+03 0.4755000D+02
EXPONENTS  0.1676000D+02 0.6207000D+01 0.6882000D+00 0.1533000D+05 0.2299000D+04
EXPONENTS  0.5224000D+03 0.1473000D+03 0.4755000D+02 0.1676000D+02 0.6207000D+01
EXPONENTS  0.6882000D+00 0.1752000D+01 0.2384000D+00 0.7376000D-01 0.3446000D+02
EXPONENTS  0.7749000D+01 0.2280000D+01 0.3446000D+02 0.7749000D+01 0.2280000D+01
EXPONENTS  0.3446000D+02 0.7749000D+01 0.2280000D+01 0.7156000D+00 0.7156000D+00
EXPONENTS  0.7156000D+00 0.2140000D+00 0.2140000D+00 0.2140000D+00 0.5974000D-01
EXPONENTS  0.5974000D-01 0.5974000D-01 0.2314000D+01 0.2314000D+01 0.2314000D+01
EXPONENTS  0.2314000D+01 0.2314000D+01 0.2314000D+01 0.6450000D+00 0.6450000D+00
EXPONENTS  0.6450000D+00 0.6450000D+00 0.6450000D+00 0.6450000D+00 0.2140000D+00
EXPONENTS  0.2140000D+00 0.2140000D+00 0.2140000D+00 0.2140000D+00 0.2140000D+00
EXPONENTS  0.1428000D+01 0.1428000D+01 0.1428000D+01 0.1428000D+01 0.1428000D+01
EXPONENTS  0.1428000D+01 0.1428000D+01 0.1428000D+01 0.1428000D+01 0.1428000D+01
EXPONENTS  0.5000000D+00 0.5000000D+00 0.5000000D+00 0.5000000D+00 0.5000000D+00
EXPONENTS  0.5000000D+00 0.5000000D+00 0.5000000D+00 0.5000000D+00 0.5000000D+00
MO    1     MO 0.0        OCC NO =    2.0000000  ORB. ENERGY =  -19.073417
 -0.65307126D-04 -0.12169021D-03 -0.20580866D-03 -0.30993644D-03 -0.38372141D-03
 -0.32652961D-03 -0.12425054D-03  0.58191828D-06  0.53066550D-04  0.99500277D-04
  0.16927958D-03  0.26287331D-03  0.34884817D-03  0.36763808D-03  0.22795906D-03
 -0.15163846D-03 -0.21191861D-03 -0.12876773D-03  0.17094196D-03 -0.18020223D-03
 -0.17308209D-03 -0.12137711D-03  0.18942205D-03  0.18193762D-03  0.12758722D-03
 -0.24325552D-07 -0.23364402D-07 -0.16384732D-07  0.36443113D-03 -0.60074494D-03
 -0.33504472D-08  0.16499374D-03  0.11664801D-02 -0.58182925D-06 -0.51533602D-05
 -0.47577044D-05 -0.85431412D-08  0.30904906D-04 -0.13946454D-03  0.10855964D-03
 -0.56770285D-03 -0.98131708D-06  0.30914555D-06 -0.30747912D-03  0.39291283D-03
 -0.85433704D-04  0.28055801D-03  0.18223528D-06 -0.30918729D-06  0.14208089D-03
 -0.10016010D-03 -0.41920784D-04 -0.54515278D-04 -0.11898248D-07 -0.56969127D-07
  0.57595606D-04  0.25672902D-04 -0.86599108D-07 -0.64779711D-04 -0.28822528D-03
 -0.24442800D-07 -0.10800711D-03  0.21120658D-03  0.28424012D-06 -0.67996255D-08
 -0.28499837D-04 -0.20640147D-03  0.76285733D-07  0.98933628D-04  0.81017825D-03
 -0.22319654D-06 -0.13434116D-04 -0.19097385D-03 -0.56606580D-08 -0.29444146D-06
  0.53055416D-03  0.98860956D-03  0.16719866D-02  0.25179192D-02  0.31173473D-02
  0.26527218D-02  0.10094096D-02 -0.47274958D-05 -0.39596437D-03 -0.74243689D-03
 -0.12631061D-02 -0.19614703D-02 -0.26029852D-02 -0.27431891D-02 -0.17009522D-02
  0.11314741D-02  0.85679322D-03  0.68572723D-04 -0.15815382D-04  0.68007164D-03
  0.65320068D-03  0.45806941D-03 -0.33105583D-03 -0.31797516D-03 -0.22298613D-03
 -0.44436772D-06 -0.42680988D-06 -0.29930855D-06  0.11822191D-02 -0.20065113D-03
 -0.75226006D-06 -0.91902801D-04  0.11400306D-02 -0.26772425D-06  0.42553788D-04
 -0.13299930D-04 -0.25222883D-07  0.12175500D-02 -0.45474713D-03 -0.76280288D-03
 -0.34250512D-03 -0.25757614D-05 -0.23750375D-06 -0.71389714D-03  0.18621548D-03
  0.52768166D-03 -0.58595570D-03  0.16857097D-05  0.73516601D-06 -0.80809163D-04
  0.19923616D-04  0.60885547D-04 -0.42250845D-03  0.89245685D-07  0.24796727D-06
 -0.51376825D-03 -0.22907458D-03 -0.41169232D-06  0.83190664D-03  0.89290946D-03
  0.17422612D-05  0.70939810D-03 -0.20568571D-03 -0.50718429D-06 -0.15859441D-05
 -0.52183231D-03 -0.15625819D-03 -0.13309156D-06  0.13316049D-02  0.61813722D-03
  0.10679876D-05  0.23389198D-03 -0.14936264D-03 -0.66871295D-06 -0.11987006D-05
 -0.25257664D-01 -0.47077037D-01 -0.79827056D-01 -0.12082197D+00 -0.15075054D+00
 -0.12947461D+00 -0.49707819D-01  0.22234613D-03  0.21001159D-03  0.39388194D-03
  0.67148235D-03  0.10493962D-02  0.14032427D-02  0.14983360D-02  0.91605328D-03
 -0.60435631D-03 -0.26327571D-02 -0.81353674D-03 -0.64879798D-05  0.28170769D-03
  0.27316170D-03  0.18427327D-03  0.43798132D-03  0.42469455D-03  0.28649644D-03
 -0.36656953D-06 -0.35544914D-06 -0.23978389D-06  0.37912445D-03  0.72363317D-04
  0.11501881D-05  0.35261698D-04  0.14162914D-04  0.91589523D-06 -0.86691212D-05
 -0.10439339D-05  0.12642981D-07 -0.67964616D-04 -0.26769159D-03  0.33565620D-03
 -0.20446393D-03  0.37456226D-06 -0.23287120D-06 -0.31996554D-04  0.21650771D-03
 -0.18451116D-03  0.19186172D-04 -0.74363137D-06 -0.17995690D-06  0.75377577D-05
  0.23366109D-04 -0.30903867D-04  0.34936651D-04 -0.19236797D-06 -0.11992236D-06
 -0.24772403D-04 -0.31684552D-04 -0.78479593D-07  0.24249147D-04 -0.62047804D-04
 -0.85519703D-07  0.50068063D-04  0.15710146D-03  0.32095848D-06 -0.32959291D-06
 -0.13814357D-05 -0.42836104D-04  0.87265053D-07 -0.66870629D-04  0.68003023D-04
  0.62661935D-07  0.71014936D-04  0.60505289D-04 -0.32445710D-06  0.11495704D-06
 -0.25299622D-01 -0.47155240D-01 -0.79959663D-01 -0.12102267D+00 -0.15100096D+00
 -0.12968969D+00 -0.49790393D-01  0.22271548D-03  0.62001726D-04  0.11628577D-03
  0.19824175D-03  0.30981327D-03  0.41427937D-03  0.44235379D-03  0.27044643D-03
 -0.17842413D-03 -0.26453038D-02 -0.37837645D-03 -0.63835177D-04 -0.57248013D-03
 -0.55511316D-03 -0.37447606D-03  0.48410720D-03  0.46942114D-03  0.31666873D-03
 -0.54295228D-06 -0.52648107D-06 -0.35516102D-06  0.11012050D-03 -0.55385543D-03
  0.23621076D-06  0.85551488D-04 -0.51578623D-03  0.95628802D-07 -0.63876141D-05
 -0.99538585D-05 -0.19297798D-09 -0.94440217D-04 -0.64196765D-04  0.15863698D-03
  0.45239631D-03 -0.65768616D-06  0.14289386D-05  0.11870663D-03  0.36283296D-04
 -0.15498992D-03 -0.58802056D-03  0.61459756D-06 -0.10432095D-05  0.13422188D-04
  0.37423431D-04 -0.50845618D-04 -0.17495807D-03  0.96427993D-07 -0.28250840D-06
  0.21853456D-04  0.50855779D-04  0.35235451D-07 -0.48429889D-04 -0.12591291D-03
  0.50718252D-06 -0.17130479D-04 -0.26654427D-04 -0.61288888D-06  0.66159013D-06
  0.25172383D-04 -0.10401667D-04 -0.12364818D-06  0.19998528D-04 -0.64013308D-06
  0.11069420D-06 -0.95515677D-04  0.31845135D-04  0.26025035D-06 -0.84087453D-06
  0.45787954D-01  0.85342854D-01  0.14471320D+00  0.21903017D+00  0.27328571D+00
  0.23471598D+00  0.90112027D-01 -0.40307663D-03 -0.34730389D-03 -0.65137705D-03
 -0.11104551D-02 -0.17354251D-02 -0.23205940D-02 -0.24778534D-02 -0.15149110D-02
  0.99944626D-03  0.45627100D-02  0.16735183D-02  0.23407627D-03  0.39037885D-04
  0.37853617D-04  0.25535827D-04  0.78921579D-03  0.76527384D-03  0.51624921D-03
 -0.25088862D-06 -0.24327757D-06 -0.16411361D-06  0.14685392D-02 -0.18175911D-04
 -0.90418427D-06  0.55131097D-03 -0.45731784D-03 -0.44961131D-06  0.12092568D-04
  0.21383228D-05 -0.13659707D-07  0.32302370D-03  0.53449494D-03 -0.85751864D-03
  0.37667677D-03 -0.14988529D-05 -0.99336770D-06  0.32627348D-03 -0.55317302D-03
  0.22689953D-03  0.29353448D-03 -0.24843370D-06  0.22775069D-06  0.76383376D-04
 -0.15292037D-03  0.76536996D-04 -0.34851798D-04 -0.53138241D-07  0.13008498D-06
  0.23334744D-03  0.34744177D-04  0.21972106D-06 -0.50183899D-03 -0.16414010D-04
 -0.56660469D-06 -0.19820332D-03 -0.87818521D-04 -0.92558483D-07  0.10430311D-06
 -0.11443784D-03 -0.14035241D-03 -0.21600063D-06  0.10514854D-03  0.24381092D-03
  0.40188371D-06  0.23816499D-03  0.17724630D-03  0.24611819D-06 -0.84548287D-09
  0.49608020D+00  0.92462967D+00  0.15678656D+01  0.23730376D+01  0.29608580D+01
  0.25429822D+01  0.97630030D+00 -0.43670511D-02 -0.11111201D-02 -0.20839332D-02
 -0.35526493D-02 -0.55520993D-02 -0.74242146D-02 -0.79273303D-02 -0.48466143D-02
  0.31975018D-02  0.49751525D-01 -0.32418981D-03 -0.51368713D-03 -0.90650761D-02
 -0.87900745D-02 -0.59297323D-02  0.14769628D-02  0.14321571D-02  0.96612473D-03
  0.57381805D-05  0.55641049D-05  0.37535123D-05 -0.35023753D-03  0.93681387D-04
  0.30577139D-06  0.10787476D-02  0.15935546D-03 -0.43367926D-06  0.44523344D-04
  0.67000837D-05 -0.21187002D-07  0.27671001D-02 -0.34508210D-03 -0.24220180D-02
 -0.43983092D-03 -0.65402673D-05 -0.46462559D-06 -0.75867389D-03  0.32004465D-04
  0.72666943D-03 -0.13254844D-03  0.17689172D-05  0.30155644D-06 -0.23474896D-03
  0.88972699D-04  0.14577626D-03  0.21517616D-04  0.40579050D-06  0.19721842D-08
 -0.13252693D-03  0.15626300D-04 -0.37917328D-06 -0.61522633D-04 -0.25545522D-04
  0.88222905D-06  0.45910343D-03 -0.21333380D-04  0.25529079D-06  0.18687472D-06
  0.20324772D-03 -0.35148380D-04  0.37326076D-06 -0.56797804D-04  0.40131672D-04
 -0.10809193D-05 -0.55294535D-03  0.65313468D-04 -0.38862964D-07 -0.84388969D-07
MO    2     MO 0.0        OCC NO =    2.0000000  ORB. ENERGY =  -19.073406
  0.52565243D-03  0.97947591D-03  0.16565393D-02  0.24946564D-02  0.30885465D-02
  0.26282137D-02  0.10000838D-02 -0.46838190D-05 -0.39191097D-03 -0.73483672D-03
 -0.12501759D-02 -0.19413912D-02 -0.25763390D-02 -0.27151077D-02 -0.16835400D-02
  0.11198914D-02  0.83916770D-03  0.56933104D-04 -0.24124866D-06 -0.70621585D-03
 -0.67831188D-03 -0.47567911D-03  0.34708451D-03  0.33337052D-03  0.23378242D-03
 -0.34463008D-06 -0.33101307D-06 -0.23212922D-06 -0.11462915D-02  0.14731348D-03
 -0.68273908D-06  0.12561995D-03 -0.10312789D-02 -0.28488853D-06 -0.43541543D-04
  0.12791134D-04 -0.27272280D-07  0.12298751D-02 -0.47546627D-03 -0.75440887D-03
 -0.42297531D-03  0.22681126D-05  0.34758663D-06 -0.74921369D-03  0.22826788D-03
  0.52094582D-03 -0.53880767D-03 -0.16462132D-05 -0.72587122D-06 -0.66045747D-04
  0.88693793D-05  0.57176368D-04 -0.43604151D-03 -0.79102781D-07 -0.25873210D-06
  0.52068319D-03  0.23277623D-03 -0.28591732D-06 -0.83615719D-03 -0.92253966D-03
  0.13714192D-05 -0.72589238D-03  0.22421097D-03 -0.51366724D-06 -0.16029448D-05
  0.52674500D-03  0.13315536D-03 -0.12765165D-06 -0.13412862D-02 -0.53086664D-03
  0.90194019D-06 -0.23894882D-03  0.13140055D-03 -0.51898524D-06 -0.11726751D-05
 -0.16954023D-04 -0.31591325D-04 -0.53428850D-04 -0.80460888D-04 -0.99615799D-04
 -0.84768549D-04 -0.32255997D-04  0.15106859D-06  0.16988169D-04  0.31852976D-04
  0.54191390D-04  0.84153507D-04  0.11167660D-03  0.11769180D-03  0.72976427D-04
 -0.48543947D-04 -0.13404546D-03 -0.12276292D-03  0.16985329D-03  0.26926317D-03
  0.25862406D-03  0.18136504D-03 -0.21373653D-03 -0.20529138D-03 -0.14396449D-03
 -0.92712142D-07 -0.89048904D-07 -0.62447238D-07 -0.20906299D-03  0.59505000D-03
 -0.69429652D-07 -0.16774261D-03 -0.10632126D-02 -0.48210563D-06  0.10779550D-04
  0.39661001D-05 -0.16276479D-07  0.15366884D-03 -0.19273527D-03  0.39066430D-04
 -0.64553827D-03  0.73551923D-06 -0.15298551D-06 -0.37266932D-03  0.41005167D-03
 -0.37382356D-04  0.22493627D-03 -0.86070731D-08  0.19219232D-06  0.13854648D-03
 -0.10210555D-03 -0.36440930D-04 -0.10737977D-03  0.22952989D-07  0.10232858D-06
 -0.11444366D-03 -0.46192640D-04 -0.12324285D-06  0.14146921D-03  0.36215628D-03
  0.26798063D-06  0.20186178D-03 -0.22357836D-03  0.10174791D-06 -0.17494288D-06
 -0.29803862D-04  0.19915669D-03  0.30003559D-07  0.45777786D-04 -0.77727382D-03
  0.15251231D-07  0.43633799D-04  0.17980376D-03 -0.10526191D-06 -0.25323566D-06
  0.42610189D-01  0.79419911D-01  0.13466985D+00  0.20382910D+00  0.25431920D+00
  0.21842628D+00  0.83858094D-01 -0.37510240D-03 -0.32378136D-03 -0.60725997D-03
 -0.10352451D-02 -0.16178866D-02 -0.21634227D-02 -0.23100310D-02 -0.14123077D-02
  0.93175483D-03  0.42349707D-02  0.15968089D-02  0.23686062D-03  0.21734610D-05
  0.21075261D-05  0.14217246D-05 -0.74667788D-03 -0.72402638D-03 -0.48842392D-03
 -0.29606320D-06 -0.28708171D-06 -0.19366363D-06 -0.14341884D-02  0.39483993D-04
 -0.90004349D-06 -0.55532408D-03  0.47148670D-03 -0.47197006D-06 -0.13456374D-04
 -0.21599683D-05 -0.13494585D-07  0.31029792D-03  0.51086797D-03 -0.82116589D-03
  0.35567743D-03  0.11488655D-05  0.15113963D-05  0.32842374D-03 -0.53716381D-03
  0.20874007D-03  0.28863982D-03  0.49372518D-06 -0.51290358D-06  0.79088642D-04
 -0.15326026D-03  0.74171623D-04 -0.32357533D-04  0.88417686D-07 -0.19401468D-06
 -0.23767541D-03 -0.39063880D-04  0.26326556D-06  0.50974158D-03  0.11181603D-04
 -0.46341668D-06  0.20328465D-03  0.10601004D-03 -0.32638002D-06  0.16745352D-06
  0.11491270D-03  0.13638625D-03 -0.23698912D-06 -0.11306557D-03 -0.23712361D-03
  0.25528699D-06 -0.23167253D-03 -0.17203514D-03  0.45568038D-06  0.52306746D-07
  0.49573320D+00  0.92398291D+00  0.15667689D+01  0.23713777D+01  0.29587869D+01
  0.25412034D+01  0.97561739D+00 -0.43639965D-02 -0.11127205D-02 -0.20869349D-02
 -0.35577666D-02 -0.55600966D-02 -0.74349086D-02 -0.79387490D-02 -0.48535955D-02
  0.32021075D-02  0.49706760D-01 -0.35370314D-03 -0.52345332D-03  0.90467714D-02
  0.87723251D-02  0.59177587D-02 -0.14323173D-02 -0.13888660D-02 -0.93692081D-03
  0.48090184D-05  0.46631302D-05  0.31457201D-05  0.37002318D-03 -0.15642444D-03
  0.24656169D-06 -0.10731990D-02 -0.22030472D-03 -0.38134862D-06 -0.45649716D-04
 -0.79412724D-05 -0.15068187D-07  0.27710928D-02 -0.35127171D-03 -0.24198211D-02
 -0.39557294D-03  0.58367397D-05  0.86149193D-06 -0.74942008D-03  0.33714394D-04
  0.71570569D-03 -0.19663329D-03 -0.15819817D-05 -0.45571026D-06 -0.23479465D-03
  0.93678053D-04  0.14111659D-03  0.19378142D-05 -0.34260660D-06 -0.24293879D-07
  0.13455081D-03 -0.85749430D-05 -0.31173142D-06  0.56234804D-04  0.99999278D-05
  0.79530786D-06 -0.45988723D-03  0.15724901D-04  0.13988641D-06  0.30570068D-06
 -0.20107458D-03  0.33794120D-04  0.31382165D-06  0.57443093D-04 -0.39037315D-04
 -0.94287070D-06  0.54578063D-03 -0.62345044D-04  0.14057459D-08 -0.21352186D-06
 -0.31404621D-01 -0.58534173D-01 -0.99254563D-01 -0.15022641D+00 -0.18743869D+00
 -0.16098484D+00 -0.61805210D-01  0.27645850D-03  0.19645350D-03  0.36845341D-03
  0.62813229D-03  0.98164850D-03  0.13126511D-02  0.14016053D-02  0.85691401D-03
 -0.56533982D-03 -0.32527580D-02 -0.61753765D-03  0.32085423D-04 -0.44741922D-03
 -0.43384614D-03 -0.29267004D-03 -0.47139869D-03 -0.45709816D-03 -0.30835572D-03
 -0.11861933D-06 -0.11502085D-06 -0.77592386D-07 -0.21883569D-03 -0.81431163D-04
  0.81630820D-06  0.51523308D-04 -0.59698966D-04  0.72113038D-06  0.11085163D-04
  0.15992970D-05  0.12202732D-07 -0.76284136D-04 -0.21778945D-03  0.29407359D-03
 -0.22471215D-03 -0.25128846D-06  0.23314261D-06  0.20302217D-04  0.15531639D-03
 -0.17561861D-03  0.64575902D-04  0.49208890D-06  0.82807467D-07  0.20069982D-04
  0.54374807D-05 -0.25507463D-04  0.37145267D-04  0.15465498D-06  0.98021097D-07
  0.49017811D-04  0.34921013D-04 -0.27237440D-07 -0.83340678D-04  0.57919544D-04
 -0.16681233D-06 -0.63712753D-04 -0.16268258D-03  0.24852465D-06 -0.32187909D-06
 -0.83996516D-05  0.27311774D-04  0.62898745D-07  0.79755064D-04 -0.34567317D-04
  0.86131408D-07 -0.54556109D-04 -0.47368006D-04 -0.27482764D-06  0.50522421D-07
  0.30261309D-01  0.56403187D-01  0.95641116D-01  0.14475728D+00  0.18061483D+00
  0.15512405D+00  0.59555138D-01 -0.26639379D-03 -0.57161175D-04 -0.10720720D-03
 -0.18276477D-03 -0.28562577D-03 -0.38193607D-03 -0.40781868D-03 -0.24933234D-03
  0.16449434D-03  0.29272955D-02 -0.45344669D-03 -0.12810189D-03 -0.45250700D-03
 -0.43877958D-03 -0.29599811D-03 -0.33256797D-03 -0.32247907D-03 -0.21754247D-03
  0.12820921D-06  0.12431980D-06  0.83865405D-07 -0.12163177D-03  0.58209791D-03
  0.15910946D-06  0.43747529D-04  0.55112079D-03 -0.66387355D-07  0.11785298D-04
  0.10845921D-04 -0.34483682D-08  0.20979176D-03 -0.11132465D-03 -0.98467107D-04
  0.41244603D-03 -0.12750359D-06 -0.15832649D-05  0.26432210D-04  0.50996338D-04
 -0.77428547D-04 -0.61732183D-03 -0.32997215D-06  0.11477026D-05 -0.13746485D-04
  0.49837182D-04 -0.36090697D-04 -0.17784248D-03 -0.31511507D-07  0.30451975D-06
 -0.35344923D-04 -0.53494976D-04  0.41409809D-07  0.41584376D-04  0.13615497D-03
  0.55622582D-06  0.64450392D-04  0.24329961D-04 -0.68045525D-06  0.76337103D-06
 -0.18019064D-05  0.83393329D-05 -0.10193014D-06 -0.33839617D-04  0.61889229D-06
  0.72909880D-08  0.39245336D-04 -0.25636891D-04  0.29849944D-06 -0.90032450D-06
MO    3     MO 0.0        OCC NO =    2.0000000  ORB. ENERGY =  -19.073364
  0.42867945D-04  0.79878103D-04  0.13509390D-03  0.20344392D-03  0.25187677D-03
  0.21433577D-03  0.81558713D-04 -0.38197425D-06 -0.28294785D-04 -0.53052987D-04
 -0.90258915D-04 -0.14016257D-03 -0.18600388D-03 -0.19602255D-03 -0.12154649D-03
  0.80852771D-04 -0.21947938D-04 -0.98058858D-04  0.14345836D-03  0.80773273D-04
  0.77581763D-04  0.54405687D-04  0.30842544D-03  0.29623895D-03  0.20774320D-03
  0.83103846D-07  0.79820251D-07  0.55975469D-07 -0.15156247D-03 -0.53279732D-03
 -0.82730881D-07 -0.67270531D-03  0.58401688D-03  0.60622785D-06  0.63459151D-05
  0.27954512D-05  0.16237110D-07 -0.59615078D-04  0.10887490D-03 -0.49259820D-04
  0.68651418D-03 -0.17605787D-06 -0.75347143D-06 -0.13625878D-03  0.11119434D-03
  0.25064444D-04 -0.88933738D-03 -0.26938989D-06  0.30111645D-06  0.20519962D-04
  0.38945917D-05 -0.24414554D-04  0.21489208D-03 -0.49478732D-07  0.80677525D-07
  0.12174991D-03  0.24248198D-04  0.13257597D-06 -0.36148549D-03 -0.34207128D-03
 -0.54694697D-07 -0.37642449D-05  0.26932669D-03 -0.34303322D-06 -0.37565469D-06
 -0.21326271D-03  0.54546122D-04 -0.74352028D-07  0.54759139D-03 -0.63838534D-04
  0.36374256D-06  0.92196746D-04 -0.99799834D-04 -0.14068648D-06 -0.27575101D-06
  0.44114742D-03  0.82201326D-03  0.13902305D-02  0.20936101D-02  0.25920251D-02
  0.22056964D-02  0.83930816D-03 -0.39308382D-05 -0.32843131D-03 -0.61581178D-03
 -0.10476791D-02 -0.16269350D-02 -0.21590373D-02 -0.22753290D-02 -0.14108491D-02
  0.93849738D-03  0.69258134D-03  0.34843491D-04  0.17981781D-04 -0.57465305D-03
 -0.55194739D-03 -0.38706361D-03 -0.60111081D-03 -0.57735975D-03 -0.40488451D-03
  0.54491785D-06  0.52338708D-06  0.36703515D-06 -0.12191410D-02 -0.57388699D-03
  0.91219479D-06 -0.38573969D-03  0.69081470D-03  0.26899317D-06 -0.40101949D-04
 -0.29028119D-04  0.29191440D-07  0.53524396D-03  0.96148879D-04 -0.63139284D-03
  0.16291058D-02 -0.18778760D-05 -0.94229468D-06 -0.69959035D-03  0.26468667D-03
  0.43490368D-03 -0.32006674D-03  0.15428611D-05  0.48772811D-08 -0.20191162D-03
  0.15771551D-03  0.44196109D-04  0.26102928D-03  0.15008088D-06 -0.23464173D-06
 -0.10523468D-04 -0.22180803D-03  0.48642630D-06  0.69739410D-03  0.11875181D-02
 -0.97297362D-06 -0.66582369D-03 -0.52209396D-03 -0.48630527D-06 -0.26064251D-05
  0.36190167D-04 -0.39056558D-03  0.17171228D-06  0.82950868D-04  0.13576022D-02
 -0.48702051D-06 -0.19152137D-03 -0.18590544D-03 -0.28116320D-07 -0.19486961D-05
  0.25886044D-01  0.48248256D-01  0.81813055D-01  0.12382787D+00  0.15450103D+00
  0.13269578D+00  0.50944489D-01 -0.22787783D-03 -0.10373590D-03 -0.19455926D-03
 -0.33168088D-03 -0.51835265D-03 -0.69313626D-03 -0.74010793D-03 -0.45248748D-03
  0.29852375D-03  0.24997982D-02 -0.10773240D-03 -0.85409082D-04 -0.39493852D-03
 -0.38295751D-03 -0.25834087D-03  0.86355815D-04  0.83736092D-04  0.56487873D-04
  0.10617317D-06  0.10295226D-06  0.69450986D-07 -0.79934203D-04 -0.59004746D-03
 -0.53522444D-06  0.18769350D-03 -0.43821692D-03 -0.21955611D-06  0.14396485D-04
 -0.49563953D-05 -0.30361729D-08  0.30833081D-03 -0.11789666D-03 -0.19043415D-03
  0.11114122D-04  0.83010581D-06 -0.15406804D-05 -0.15576840D-03  0.19708327D-03
 -0.41314877D-04  0.40354173D-03  0.62761819D-08  0.14263396D-05 -0.60736149D-04
  0.87226404D-04 -0.26490255D-04  0.53747780D-04 -0.52703473D-07  0.34485521D-06
  0.57176283D-05  0.27414982D-04  0.53560197D-09 -0.90113279D-04 -0.67097609D-04
 -0.72961671D-06  0.72960394D-04 -0.15147337D-04  0.72800990D-06 -0.42817627D-06
  0.31879679D-05  0.56212285D-05  0.82016675D-07 -0.63564112D-05 -0.35078669D-04