 Molden2AIM, Version 4.0.0 (06/02/2016)           Time: Thu Jun 28 21:20:41 2018
GAUSSIAN             11 MOL ORBITALS    225 PRIMITIVES        3 NUCLEI
  N    1    (CENTRE  1)   0.00000000  0.00000000  0.00000000  CHARGE =  7.0
  N    2    (CENTRE  2)   0.00000000  0.00000000  2.23770218  CHARGE =  7.0
  N    3    (CENTRE  3)   0.00000000  0.00000000 -2.23770218  CHARGE =  7.0
CENTRE ASSIGNMENTS    1  1  1  1  1  1  1  1  1  1  1  1  1  1  1  1  1  1  1  1
CENTRE ASSIGNMENTS    1  1  1  1  1  1  1  1  1  1  1  1  1  1  1  1  1  1  1  1
CENTRE ASSIGNMENTS    1  1  1  1  1  1  1  1  1  1  1  1  1  1  1  1  1  1  1  1
CENTRE ASSIGNMENTS    1  1  1  1  1  1  1  1  1  1  1  1  1  1  1  2  2  2  2  2
CENTRE ASSIGNMENTS    2  2  2  2  2  2  2  2  2  2  2  2  2  2  2  2  2  2  2  2
CENTRE ASSIGNMENTS    2  2  2  2  2  2  2  2  2  2  2  2  2  2  2  2  2  2  2  2
CENTRE ASSIGNMENTS    2  2  2  2  2  2  2  2  2  2  2  2  2  2  2  2  2  2  2  2
CENTRE ASSIGNMENTS    2  2  2  2  2  2  2  2  2  2  3  3  3  3  3  3  3  3  3  3
CENTRE ASSIGNMENTS    3  3  3  3  3  3  3  3  3  3  3  3  3  3  3  3  3  3  3  3
CENTRE ASSIGNMENTS    3  3  3  3  3  3  3  3  3  3  3  3  3  3  3  3  3  3  3  3
CENTRE ASSIGNMENTS    3  3  3  3  3  3  3  3  3  3  3  3  3  3  3  3  3  3  3  3
CENTRE ASSIGNMENTS    3  3  3  3  3
TYPE ASSIGNMENTS      1  1  1  1  1  1  1  1  1  1  1  1  1  1  1  1  1  1  1  2
TYPE ASSIGNMENTS      2  2  3  3  3  4  4  4  2  3  4  2  3  4  2  3  4  5  6  7
TYPE ASSIGNMENTS      8  9 10  5  6  7  8  9 10  5  6  7  8  9 10 11 12 13 17 14
TYPE ASSIGNMENTS     15 18 19 16 20 11 12 13 17 14 15 18 19 16 20  1  1  1  1  1
TYPE ASSIGNMENTS      1  1  1  1  1  1  1  1  1  1  1  1  1  1  2  2  2  3  3  3
TYPE ASSIGNMENTS      4  4  4  2  3  4  2  3  4  2  3  4  5  6  7  8  9 10  5  6
TYPE ASSIGNMENTS      7  8  9 10  5  6  7  8  9 10 11 12 13 17 14 15 18 19 16 20
TYPE ASSIGNMENTS     11 12 13 17 14 15 18 19 16 20  1  1  1  1  1  1  1  1  1  1
TYPE ASSIGNMENTS      1  1  1  1  1  1  1  1  1  2  2  2  3  3  3  4  4  4  2  3
TYPE ASSIGNMENTS      4  2  3  4  2  3  4  5  6  7  8  9 10  5  6  7  8  9 10  5
TYPE ASSIGNMENTS      6  7  8  9 10 11 12 13 17 14 15 18 19 16 20 11 12 13 17 14
TYPE ASSIGNMENTS     15 18 19 16 20
EXPONENTS  0.1142000D+05 0.1712000D+04 0.3893000D+03 0.1100000D+03 0.3557000D+02
EXPONENTS  0.1254000D+02 0.4644000D+01 0.5118000D+00 0.1142000D+05 0.1712000D+04
EXPONENTS  0.3893000D+03 0.1100000D+03 0.3557000D+02 0.1254000D+02 0.4644000D+01
EXPONENTS  0.5118000D+00 0.1293000D+01 0.1787000D+00 0.5760000D-01 0.2663000D+02
EXPONENTS  0.5948000D+01 0.1742000D+01 0.2663000D+02 0.5948000D+01 0.1742000D+01
EXPONENTS  0.2663000D+02 0.5948000D+01 0.1742000D+01 0.5550000D+00 0.5550000D+00
EXPONENTS  0.5550000D+00 0.1725000D+00 0.1725000D+00 0.1725000D+00 0.4910000D-01
EXPONENTS  0.4910000D-01 0.4910000D-01 0.1654000D+01 0.1654000D+01 0.1654000D+01
EXPONENTS  0.1654000D+01 0.1654000D+01 0.1654000D+01 0.4690000D+00 0.4690000D+00
EXPONENTS  0.4690000D+00 0.4690000D+00 0.4690000D+00 0.4690000D+00 0.1510000D+00
EXPONENTS  0.1510000D+00 0.1510000D+00 0.1510000D+00 0.1510000D+00 0.1510000D+00
EXPONENTS  0.1093000D+01 0.1093000D+01 0.1093000D+01 0.1093000D+01 0.1093000D+01
EXPONENTS  0.1093000D+01 0.1093000D+01 0.1093000D+01 0.1093000D+01 0.1093000D+01
EXPONENTS  0.3640000D+00 0.3640000D+00 0.3640000D+00 0.3640000D+00 0.3640000D+00
EXPONENTS  0.3640000D+00 0.3640000D+00 0.3640000D+00 0.3640000D+00 0.3640000D+00
EXPONENTS  0.1142000D+05 0.1712000D+04 0.3893000D+03 0.1100000D+03 0.3557000D+02
EXPONENTS  0.1254000D+02 0.4644000D+01 0.5118000D+00 0.1142000D+05 0.1712000D+04
EXPONENTS  0.3893000D+03 0.1100000D+03 0.3557000D+02 0.1254000D+02 0.4644000D+01
EXPONENTS  0.5118000D+00 0.1293000D+01 0.1787000D+00 0.5760000D-01 0.2663000D+02
EXPONENTS  0.5948000D+01 0.1742000D+01 0.2663000D+02 0.5948000D+01 0.1742000D+01
EXPONENTS  0.2663000D+02 0.5948000D+01 0.1742000D+01 0.5550000D+00 0.5550000D+00
EXPONENTS  0.5550000D+00 0.1725000D+00 0.1725000D+00 0.1725000D+00 0.4910000D-01
EXPONENTS  0.4910000D-01 0.4910000D-01 0.1654000D+01 0.1654000D+01 0.1654000D+01
EXPONENTS  0.1654000D+01 0.1654000D+01 0.1654000D+01 0.4690000D+00 0.4690000D+00
EXPONENTS  0.4690000D+00 0.4690000D+00 0.4690000D+00 0.4690000D+00 0.1510000D+00
EXPONENTS  0.1510000D+00 0.1510000D+00 0.1510000D+00 0.1510000D+00 0.1510000D+00
EXPONENTS  0.1093000D+01 0.1093000D+01 0.1093000D+01 0.1093000D+01 0.1093000D+01
EXPONENTS  0.1093000D+01 0.1093000D+01 0.1093000D+01 0.1093000D+01 0.1093000D+01
EXPONENTS  0.3640000D+00 0.3640000D+00 0.3640000D+00 0.3640000D+00 0.3640000D+00
EXPONENTS  0.3640000D+00 0.3640000D+00 0.3640000D+00 0.3640000D+00 0.3640000D+00
EXPONENTS  0.1142000D+05 0.1712000D+04 0.3893000D+03 0.1100000D+03 0.3557000D+02
EXPONENTS  0.1254000D+02 0.4644000D+01 0.5118000D+00 0.1142000D+05 0.1712000D+04
EXPONENTS  0.3893000D+03 0.1100000D+03 0.3557000D+02 0.1254000D+02 0.4644000D+01
EXPONENTS  0.5118000D+00 0.1293000D+01 0.1787000D+00 0.5760000D-01 0.2663000D+02
EXPONENTS  0.5948000D+01 0.1742000D+01 0.2663000D+02 0.5948000D+01 0.1742000D+01
EXPONENTS  0.2663000D+02 0.5948000D+01 0.1742000D+01 0.5550000D+00 0.5550000D+00
EXPONENTS  0.5550000D+00 0.1725000D+00 0.1725000D+00 0.1725000D+00 0.4910000D-01
EXPONENTS  0.4910000D-01 0.4910000D-01 0.1654000D+01 0.1654000D+01 0.1654000D+01
EXPONENTS  0.1654000D+01 0.1654000D+01 0.1654000D+01 0.4690000D+00 0.4690000D+00
EXPONENTS  0.4690000D+00 0.4690000D+00 0.4690000D+00 0.4690000D+00 0.1510000D+00
EXPONENTS  0.1510000D+00 0.1510000D+00 0.1510000D+00 0.1510000D+00 0.1510000D+00
EXPONENTS  0.1093000D+01 0.1093000D+01 0.1093000D+01 0.1093000D+01 0.1093000D+01
EXPONENTS  0.1093000D+01 0.1093000D+01 0.1093000D+01 0.1093000D+01 0.1093000D+01
EXPONENTS  0.3640000D+00 0.3640000D+00 0.3640000D+00 0.3640000D+00 0.3640000D+00
EXPONENTS  0.3640000D+00 0.3640000D+00 0.3640000D+00 0.3640000D+00 0.3640000D+00
MO    1     MO 0.0        OCC NO =    2.0000000  ORB. ENERGY =  -14.062874
  0.41291537D+00  0.76940700D+00  0.13012601D+01  0.19596256D+01  0.24261437D+01
  0.20645388D+01  0.78559509D+00 -0.36792769D-02 -0.16399970D-02 -0.30750096D-02
 -0.52315063D-02 -0.81239770D-02 -0.10780990D-01 -0.11361683D-01 -0.70449686D-02
  0.46863158D-02  0.39919699D-01  0.47785246D-02  0.51914142D-03  0.34122085D-16
  0.32773854D-16  0.22983289D-16  0.18420694D-16  0.17692856D-16  0.12407452D-16
 -0.28492189D-13 -0.27366407D-13 -0.19191213D-13 -0.67382523D-17 -0.51195862D-17
 -0.21368587D-15 -0.21713242D-17 -0.27592782D-17  0.57526364D-14 -0.59394564D-19
 -0.86741507D-19  0.55490272D-15 -0.32436674D-02 -0.32436674D-02  0.64873348D-02
 -0.89145625D-17 -0.64236548D-18 -0.85838633D-17 -0.36558464D-03 -0.36558464D-03
  0.73116928D-03  0.59665809D-18  0.96064926D-18  0.54320257D-18  0.19940561D-04
  0.19940561D-04 -0.39881121D-04 -0.21389400D-19  0.39811980D-18  0.34863522D-18
  0.48204397D-18 -0.29298690D-18 -0.67007944D-17  0.26516416D-17  0.21961983D-17
  0.13788035D-16 -0.40977735D-17 -0.13172376D-17  0.63143479D-17  0.20155407D-17
  0.49504143D-18  0.47930200D-18  0.54415373D-15  0.43895565D-18  0.41361268D-18
 -0.81701733D-15 -0.19240799D-17 -0.18515187D-17 -0.81544387D-15 -0.10608633D-18
  0.68972992D-03  0.12852102D-02  0.21736126D-02  0.32733401D-02  0.40526074D-02
  0.34485860D-02  0.13122506D-02 -0.61458293D-05  0.84738174D-04  0.15888487D-03
  0.27031043D-03  0.41976356D-03  0.55705066D-03  0.58705493D-03  0.36401151D-03
 -0.24214060D-03  0.82746954D-03 -0.22815863D-02 -0.34705113D-03 -0.20670439D-17
 -0.19853709D-17 -0.13922791D-17 -0.19745329D-17 -0.18965153D-17 -0.13299674D-17
 -0.21919935D-02 -0.21053836D-02 -0.14764403D-02  0.28969376D-17  0.26361392D-17
  0.22445977D-02  0.51124303D-18  0.82691818D-18  0.13116755D-02  0.14799472D-19
  0.30984208D-19  0.32720631D-04  0.30764827D-03  0.30764827D-03 -0.61529655D-03
  0.11598339D-18  0.97758231D-19  0.78945758D-18  0.68727848D-03  0.68727848D-03
 -0.13745570D-02 -0.52398189D-19 -0.28294659D-17 -0.28493013D-17  0.60296447D-04
  0.60296447D-04 -0.12059289D-03  0.74501505D-20 -0.14316315D-18 -0.25272190D-18
 -0.62150704D-18 -0.62508319D-18  0.12994914D-02 -0.73248935D-18 -0.75933607D-18
 -0.19492371D-02  0.25970105D-17  0.26345856D-17 -0.19492371D-02 -0.11245868D-18
 -0.11076625D-18 -0.12499172D-18  0.17369944D-03 -0.97617394D-19 -0.11078942D-18
 -0.26054916D-03  0.42991616D-18  0.48576459D-18 -0.26054916D-03  0.52889655D-19
  0.68972992D-03  0.12852102D-02  0.21736126D-02  0.32733401D-02  0.40526074D-02
  0.34485860D-02  0.13122506D-02 -0.61458293D-05  0.84738174D-04  0.15888487D-03
  0.27031043D-03  0.41976356D-03  0.55705066D-03  0.58705493D-03  0.36401151D-03
 -0.24214060D-03  0.82746954D-03 -0.22815863D-02 -0.34705113D-03 -0.22144207D-17
 -0.21269246D-17 -0.14915464D-17 -0.14041145D-17 -0.13486351D-17 -0.94575606D-18
  0.21919935D-02  0.21053836D-02  0.14764403D-02  0.30750482D-17  0.22204898D-17
 -0.22445977D-02  0.17509731D-17  0.19287317D-17 -0.13116755D-02  0.37072494D-19
  0.55545348D-19 -0.32720631D-04  0.30764827D-03  0.30764827D-03 -0.61529655D-03
  0.39979197D-18 -0.11494330D-17 -0.25172868D-17  0.68727848D-03  0.68727848D-03
 -0.13745570D-02 -0.95614194D-19  0.39240597D-17  0.30896937D-17  0.60296447D-04
  0.60296447D-04 -0.12059289D-03 -0.19783980D-20  0.44035124D-18  0.55697056D-18
 -0.72041925D-18  0.17867893D-18 -0.12994914D-02 -0.80585119D-18  0.46455044D-19
  0.19492371D-02  0.29671089D-17 -0.58249183D-18  0.19492371D-02  0.12967563D-17
 -0.18102233D-18 -0.19071389D-18 -0.17369944D-03 -0.17038772D-18 -0.17571591D-18
  0.26054916D-03  0.71345470D-18  0.74785757D-18  0.26054916D-03 -0.13503177D-18
MO    2     MO 0.0        OCC NO =    2.0000000  ORB. ENERGY =  -13.933985
 -0.20721778D-09 -0.38611982D-09 -0.65302542D-09 -0.98342009D-09 -0.12175379D-08
 -0.10360698D-08 -0.39424366D-09  0.18464113D-11 -0.18514655D-10 -0.34715151D-10
 -0.59060800D-10 -0.91715187D-10 -0.12171139D-09 -0.12826709D-09 -0.79533781D-10
  0.52905902D-10  0.29885843D-09 -0.89501307D-09 -0.13870833D-09  0.17255802D-16
  0.16573992D-16  0.11622827D-16  0.98535815D-16  0.94642472D-16  0.66369834D-16
 -0.37581330D-02 -0.36096418D-02 -0.25313300D-02  0.27364969D-16  0.18942639D-16
  0.34890162D-02 -0.11483551D-16 -0.25221761D-16  0.25540037D-02  0.16159297D-18
  0.39392993D-18  0.55605605D-04  0.87894625D-11  0.87894634D-11 -0.17578926D-10
  0.34282845D-15 -0.20748670D-17  0.72486184D-15  0.26407943D-09  0.26407943D-09
 -0.52815886D-09  0.97471782D-17 -0.37932502D-17 -0.40486045D-17  0.20804485D-10
  0.20804484D-10 -0.41608969D-10  0.18599493D-18  0.30526313D-18  0.41116307D-19
 -0.37083885D-17 -0.50433672D-17  0.23567247D-02 -0.36796141D-17 -0.50366268D-17
 -0.35350870D-02  0.14804780D-16  0.20166728D-16 -0.35350870D-02 -0.26600712D-17
  0.21276861D-18  0.32275518D-17  0.67128022D-03  0.20815378D-18  0.32248112D-17
 -0.10069203D-02 -0.84645961D-18 -0.12907467D-16 -0.10069203D-02 -0.33575260D-18
 -0.29222026D+00 -0.54450942D+00 -0.92090194D+00 -0.13868273D+01 -0.17169822D+01
 -0.14610743D+01 -0.55596574D+00  0.26038247D-02  0.12724131D-02  0.23857865D-02
  0.40589326D-02  0.63030938D-02  0.83645721D-02  0.88151108D-02  0.54659311D-02
 -0.36359394D-02 -0.28243192D-01 -0.15462098D-02  0.29905395D-04 -0.20867227D-16
 -0.20042722D-16 -0.14055340D-16 -0.13941876D-16 -0.13391006D-16 -0.93906974D-17
  0.59531852D-02  0.57179632D-02  0.40098305D-02  0.38139825D-17  0.16545937D-16
  0.21294975D-02  0.29134120D-18  0.90116432D-17 -0.10731815D-03  0.38455134D-19
  0.37314053D-18 -0.28617066D-04  0.18643244D-02  0.18643244D-02 -0.37286487D-02
 -0.25242349D-17  0.19531979D-16 -0.63705510D-17  0.40688241D-04  0.40688241D-04
 -0.81376481D-04 -0.52676086D-18 -0.48375420D-17 -0.14779980D-16 -0.53123718D-04
 -0.53123718D-04  0.10624744D-03 -0.12036973D-19 -0.11789428D-18 -0.30961202D-17
  0.71802239D-18 -0.43293783D-17  0.98291950D-03  0.37535256D-18 -0.45624752D-17
 -0.14743793D-02 -0.25294197D-17  0.17550610D-16 -0.14743793D-02 -0.83618856D-17
 -0.95986334D-19 -0.95374189D-18 -0.38856348D-04 -0.90598834D-19 -0.95411567D-18
  0.58284523D-04  0.37855784D-18  0.38153413D-17  0.58284523D-04  0.17844779D-17
  0.29222037D+00  0.54450962D+00  0.92090228D+00  0.13868278D+01  0.17169828D+01
  0.14610749D+01  0.55596594D+00 -0.26038257D-02 -0.12724134D-02 -0.23857871D-02
 -0.40589337D-02 -0.63030955D-02 -0.83645743D-02 -0.88151131D-02 -0.54659325D-02
  0.36359404D-02  0.28243202D-01  0.15462106D-02 -0.29905280D-04  0.97233308D-17
  0.93391430D-17  0.65492517D-17  0.31470059D-18  0.30226615D-18  0.21196989D-18
  0.59531871D-02  0.57179650D-02  0.40098318D-02 -0.23214174D-17  0.93484121D-17
  0.21294983D-02  0.13955450D-17  0.94118166D-17 -0.10731795D-03  0.18817906D-18
 -0.18734744D-18 -0.28617059D-04 -0.18643249D-02 -0.18643249D-02  0.37286497D-02
  0.60879017D-17  0.14554774D-17 -0.35239031D-16 -0.40688270D-04 -0.40688270D-04
  0.81376540D-04 -0.22786803D-17 -0.30177151D-17  0.16996283D-16  0.53123720D-04
  0.53123720D-04 -0.10624744D-03  0.11855759D-18  0.86548681D-18  0.13023233D-17
  0.41036085D-17  0.23187009D-16  0.98291966D-03  0.39535186D-17  0.23310007D-16
 -0.14743795D-02 -0.16264344D-16 -0.92871035D-16 -0.14743795D-02 -0.59377306D-17
 -0.42839233D-18 -0.12124533D-17 -0.38856386D-04 -0.42816129D-18 -0.11947607D-17
  0.58284579D-04  0.17133383D-17  0.48321205D-17  0.58284579D-04 -0.13406065D-17
MO    3     MO 0.0        OCC NO =    2.0000000  ORB. ENERGY =  -13.933968
 -0.11344820D-02 -0.21139401D-02 -0.35752027D-02 -0.53840572D-02 -0.66658121D-02
 -0.56723052D-02 -0.21584168D-02  0.10108787D-04 -0.10136912D-03 -0.19006804D-03
 -0.32336229D-03 -0.50214749D-03 -0.66637893D-03 -0.70227191D-03 -0.43545339D-03
  0.28966376D-03  0.16363485D-02 -0.48991502D-02 -0.75892824D-03  0.19464914D-15
  0.18695818D-15  0.13110798D-15 -0.35112479D-15 -0.33725117D-15 -0.23650380D-15
  0.68639056D-09  0.65926993D-09  0.46232558D-09 -0.29282123D-17 -0.13745685D-16
 -0.63725663D-09  0.23415299D-18 -0.32114138D-17 -0.46695072D-09  0.37970798D-19
 -0.53954996D-19 -0.10196299D-10  0.48140698D-04  0.48140698D-04 -0.96281397D-04
  0.19386185D-18 -0.64447244D-17  0.80906034D-17  0.14458347D-02  0.14458347D-02
 -0.28916695D-02  0.88200008D-19  0.11298389D-16 -0.12375445D-16  0.11388386D-03
  0.11388386D-03 -0.22776771D-03 -0.25711446D-19  0.25633757D-17 -0.11830760D-17
  0.81417621D-18 -0.85370657D-18 -0.43043345D-09  0.78333183D-18 -0.87282062D-18
  0.64565017D-09 -0.32258605D-17  0.34339403D-17  0.64565017D-09 -0.58392620D-18
  0.31364067D-18  0.33485622D-18 -0.12260997D-09  0.31530688D-18  0.33756375D-18
  0.18391495D-09 -0.12562289D-17 -0.13421324D-17  0.18391495D-09  0.64774988D-19
  0.29170897D+00  0.54355671D+00  0.91929067D+00  0.13844008D+01  0.17139780D+01
  0.14585179D+01  0.55499298D+00 -0.25992689D-02 -0.89730894D-03 -0.16824626D-02
 -0.28623695D-02 -0.44449577D-02 -0.58987174D-02 -0.62164384D-02 -0.38545884D-02
  0.25640737D-02  0.27770703D-01  0.23905467D-02  0.31485024D-03  0.13987304D-16
  0.13434638D-16  0.94212954D-17  0.54443619D-17  0.52292445D-17  0.36671072D-17
 -0.50421610D-02 -0.48429353D-02 -0.33962005D-02 -0.62061206D-18  0.32337463D-17
 -0.23258691D-02 -0.45111371D-17  0.43909367D-17 -0.53713467D-03 -0.12548906D-18
 -0.47887350D-19 -0.20644277D-04 -0.13696751D-02 -0.13696751D-02  0.27393501D-02
  0.48933378D-17 -0.54879635D-17  0.18315118D-16 -0.80738804D-04 -0.80738804D-04
  0.16147761D-03 -0.31248077D-18  0.32630972D-17 -0.11953952D-16  0.62556935D-05
  0.62556935D-05 -0.12511387D-04  0.21806779D-19  0.14333419D-17 -0.68545612D-18
  0.62570886D-19  0.83060627D-18 -0.41593619D-03  0.38957414D-18  0.10834203D-17
  0.62390428D-03 -0.57728680D-18 -0.35752391D-17  0.62390428D-03  0.73158867D-18
  0.47964550D-18 -0.61131918D-18  0.10355683D-03  0.47533464D-18 -0.61322108D-18
 -0.15533524D-03 -0.19142711D-17  0.24471786D-17 -0.15533524D-03 -0.26842492D-20
  0.29170886D+00  0.54355651D+00  0.91929034D+00  0.13844003D+01  0.17139774D+01
  0.14585174D+01  0.55499278D+00 -0.25992679D-02 -0.89730847D-03 -0.16824618D-02
 -0.28623681D-02 -0.44449554D-02 -0.58987143D-02 -0.62164352D-02 -0.38545864D-02
  0.25640723D-02  0.27770692D-01  0.23905461D-02  0.31485025D-03  0.12470839D-17
  0.11978092D-17  0.83998647D-18  0.72807640D-17  0.69930868D-17  0.49040352D-17
  0.50421588D-02  0.48429332D-02  0.33961991D-02  0.47114251D-17 -0.37975935D-17
  0.23258684D-02  0.41277787D-17 -0.15253961D-18  0.53713471D-03  0.10060468D-18
  0.12837144D-19  0.20644288D-04 -0.13696744D-02 -0.13696744D-02  0.27393487D-02
  0.28030736D-17 -0.17178237D-18 -0.10195246D-16 -0.80738789D-04 -0.80738789D-04
  0.16147758D-03 -0.24277383D-18  0.83207065D-17 -0.32486761D-17  0.62556741D-05
  0.62556741D-05 -0.12511348D-04  0.27831836D-19  0.10436691D-17  0.79185817D-19
 -0.90973125D-18  0.35793392D-17  0.41593583D-03 -0.10642667D-17  0.37100418D-17
 -0.62390374D-03  0.37934604D-17 -0.14448059D-16 -0.62390374D-03 -0.27243128D-17
 -0.45393893D-18 -0.22753619D-18 -0.10355681D-03 -0.45527509D-18 -0.21188939D-18
  0.15533522D-03  0.18170919D-17  0.89449796D-18  0.15533522D-03  0.87984092D-19
MO    4     MO 0.0        OCC NO =    2.0000000  ORB. ENERGY =   -0.809209
 -0.79763119D-02 -0.14862683D-01 -0.25136523D-01 -0.37854210D-01 -0.46865968D-01
 -0.39880824D-01 -0.15175389D-01  0.71072821D-04 -0.68392554D-01 -0.12823668D+00
 -0.21816875D+00 -0.33879303D+00 -0.44959805D+00 -0.47381463D+00 -0.29379530D+00
  0.19543275D+00  0.98073263D-01  0.31917596D-01 -0.12396157D-01  0.10164131D-14
  0.97625260D-15  0.68461571D-15  0.26803202D-15  0.25744155D-15  0.18053578D-15
 -0.45156730D-11 -0.43372499D-11 -0.30415790D-11  0.16752814D-15  0.73005272D-16
 -0.62263975D-12  0.53025018D-16 -0.80359529D-17  0.14338258D-11  0.57937709D-17
  0.70237512D-18  0.13204100D-12 -0.27591401D-01 -0.27591401D-01  0.55182802D-01
  0.31430523D-16 -0.29621757D-15 -0.25192606D-15 -0.46717909D-02 -0.46717909D-02
  0.93435818D-02  0.15316855D-16 -0.59818740D-17 -0.65125111D-16  0.61988451D-03
  0.61988451D-03 -0.12397690D-02  0.32383303D-18  0.73559914D-17  0.16370422D-16
 -0.35446004D-16 -0.86543327D-17 -0.33541312D-13  0.52298825D-17  0.25343487D-16
  0.50006886D-13  0.10110813D-15  0.61951098D-18  0.50617051D-13 -0.15594551D-16
 -0.38429237D-17 -0.46089797D-18  0.23930650D-13 -0.85862689D-18 -0.13124986D-17
 -0.35909658D-13  0.12387398D-16  0.26951925D-17 -0.35882291D-13  0.15636057D-16
 -0.53490781D-02 -0.99672193D-02 -0.16857067D-01 -0.25385808D-01 -0.31429277D-01
 -0.26744897D-01 -0.10176927D-01  0.47662889D-04 -0.34149849D-01 -0.64031285D-01
 -0.10893627D+00 -0.16916652D+00 -0.22449381D+00 -0.23658566D+00 -0.14669820D+00
  0.97583702D-01  0.46543893D-01  0.13640572D-01  0.51893198D-02  0.15601291D-15
  0.14984853D-15  0.10508413D-15 -0.37295419D-16 -0.35821804D-16 -0.25120722D-16
 -0.25789720D+00 -0.24770718D+00 -0.17370937D+00  0.58459435D-16  0.45437863D-16
 -0.57057372D-01 -0.32792611D-16 -0.14750808D-16 -0.16859427D-04 -0.39615908D-17
 -0.52033104D-18 -0.37992860D-03 -0.18095574D-01 -0.18095574D-01  0.36191148D-01
  0.31714228D-16 -0.51011261D-16  0.57073694D-16 -0.25868141D-02 -0.25868141D-02
  0.51736283D-02 -0.87387996D-17 -0.11992953D-16 -0.54421471D-16  0.31335845D-03
  0.31335845D-03 -0.62671691D-03 -0.72669153D-18  0.16658943D-16  0.40511174D-17
 -0.55027477D-16 -0.63320901D-16 -0.67026014D-02 -0.36912973D-16 -0.51195157D-16
  0.10053902D-01  0.20199540D-15  0.24115786D-15  0.10053902D-01 -0.23421209D-16
  0.43431723D-17 -0.91899907D-18  0.80767044D-04  0.45307932D-17  0.25630539D-18
 -0.12115057D-03 -0.17560310D-16  0.25006918D-17 -0.12115057D-03  0.66676284D-17
 -0.53490781D-02 -0.99672193D-02 -0.16857067D-01 -0.25385808D-01 -0.31429277D-01
 -0.26744897D-01 -0.10176927D-01  0.47662889D-04 -0.34149849D-01 -0.64031285D-01
 -0.10893627D+00 -0.16916652D+00 -0.22449381D+00 -0.23658566D+00 -0.14669820D+00
  0.97583702D-01  0.46543893D-01  0.13640572D-01  0.51893198D-02  0.12652610D-15
  0.12152681D-15  0.85222988D-16  0.11466995D-16  0.11013912D-16  0.77237151D-17
  0.25789720D+00  0.24770718D+00  0.17370937D+00 -0.81015502D-18 -0.51971666D-16
  0.57057372D-01 -0.12831695D-16  0.21297911D-16  0.16859428D-04 -0.21176685D-17
  0.31460113D-18  0.37992860D-03 -0.18095574D-01 -0.18095574D-01  0.36191148D-01
  0.26653184D-16  0.79119370D-16  0.30695921D-16 -0.25868141D-02 -0.25868141D-02
  0.51736283D-02  0.33413975D-17 -0.36722611D-16 -0.48192612D-16  0.31335845D-03
  0.31335845D-03 -0.62671691D-03  0.16068479D-17 -0.43914328D-17  0.63717563D-17
  0.44080519D-16  0.54402666D-16  0.67026014D-02  0.27979456D-16  0.83664746D-16
 -0.10053902D-01 -0.16022101D-15 -0.24687274D-15 -0.10053902D-01  0.33134186D-16
  0.14829070D-17 -0.58966933D-18 -0.80767044D-04  0.10477755D-17  0.83526217D-18
  0.12115057D-03 -0.54964965D-17  0.93374583D-18  0.12115057D-03  0.38084630D-17
MO    5     MO 0.0        OCC NO =    2.0000000  ORB. ENERGY =   -0.634979
 -0.36420306D-13 -0.67863878D-13 -0.11477483D-12 -0.17284453D-12 -0.21399275D-12
 -0.18209817D-12 -0.69291713D-13  0.32452265D-15 -0.53198085D-12 -0.99746907D-12
 -0.16969917D-11 -0.26352489D-11 -0.34971286D-11 -0.36854934D-11 -0.22852411D-11
  0.15201432D-11  0.86479473D-12 -0.22142482D-11 -0.15484087D-11 -0.12853508D-14
 -0.12345641D-14 -0.86576158D-15 -0.11889919D-14 -0.11420125D-14 -0.80085797D-15
  0.75923111D+00  0.72923241D+00  0.51138810D+00 -0.92249872D-16 -0.42815878D-15
  0.15093059D+00 -0.97504928D-16 -0.13856723D-15  0.43561941D-01  0.99046130D-17
  0.28099257D-17  0.11704744D-03 -0.11654345D-12 -0.11677694D-12  0.23332039D-12
  0.15758767D-14  0.10327608D-14 -0.48558118D-15  0.14841395D-12  0.14842973D-12
 -0.29684368D-12 -0.35682330D-15  0.12431964D-15  0.78503780D-16  0.55185708D-13
  0.55242197D-13 -0.11042790D-12  0.81414145D-16  0.44733852D-17 -0.51812190D-16
 -0.14185406D-15  0.19968577D-15  0.12640869D-01 -0.13043628D-15  0.19726320D-15
 -0.18961303D-01  0.55599846D-15 -0.79632052D-15 -0.18961303D-01  0.81569586D-16
  0.12346933D-17  0.22218205D-16  0.17651173D-02  0.23511283D-18  0.22545425D-16
 -0.26476759D-02 -0.39391928D-17 -0.89200042D-16 -0.26476759D-02  0.26740740D-16
 -0.54455423D-02 -0.10146966D-01 -0.17161064D-01 -0.25843611D-01 -0.31996067D-01
 -0.27227209D-01 -0.10360455D-01  0.48522432D-04 -0.48025334D-01 -0.90047950D-01
 -0.15319836D+00 -0.23790087D+00 -0.31570829D+00 -0.33271320D+00 -0.20630341D+00
  0.13723311D+00  0.64556439D-01 -0.11155136D-01 -0.34612067D-02  0.29113658D-15
  0.27963321D-15  0.19609811D-15 -0.46564819D-15 -0.44724952D-15 -0.31364224D-15
 -0.28533122D+00 -0.27405722D+00 -0.19218784D+00  0.16522456D-16  0.15186143D-15
 -0.65321432D-01  0.31817330D-16  0.64978397D-16  0.90334728D-02 -0.48297428D-17
  0.42783060D-17  0.47361671D-03 -0.18768956D-01 -0.18768956D-01  0.37537913D-01
  0.17817930D-15  0.26696992D-15 -0.41511671D-15 -0.40100444D-02 -0.40100444D-02
  0.80200889D-02 -0.83491306D-16 -0.39248487D-17 -0.17772648D-15  0.31849520D-03
  0.31849520D-03 -0.63699040D-03  0.30423645D-16 -0.77388529D-17 -0.19777042D-16
  0.70160660D-16 -0.11791607D-15 -0.93192008D-02  0.89203956D-16 -0.10394211D-15
  0.13978801D-01 -0.29968594D-15  0.45769031D-15  0.13978801D-01 -0.53284848D-16
 -0.18376572D-17 -0.32790520D-17 -0.69989173D-03 -0.42644329D-18 -0.23341584D-17
  0.10498376D-02  0.59394149D-17  0.12171314D-16  0.10498376D-02  0.19738296D-16
  0.54455423D-02  0.10146966D-01  0.17161064D-01  0.25843611D-01  0.31996067D-01
  0.27227209D-01  0.10360455D-01 -0.48522432D-04  0.48025334D-01  0.90047950D-01
  0.15319836D+00  0.23790087D+00  0.31570829D+00  0.33271320D+00  0.20630341D+00
 -0.13723311D+00 -0.64556439D-01  0.11155136D-01  0.34612067D-02 -0.32209071D-15
 -0.30936427D-15 -0.21694758D-15 -0.16241701D-16 -0.15599959D-16 -0.10939768D-16
 -0.28533122D+00 -0.27405722D+00 -0.19218784D+00 -0.15065204D-15  0.18595616D-15
 -0.65321432D-01  0.30773897D-16  0.26611210D-16  0.90334728D-02 -0.45322364D-18
  0.78269158D-18  0.47361671D-03  0.18768956D-01  0.18768956D-01 -0.37537913D-01
  0.27564065D-16 -0.58257306D-15  0.49636581D-15  0.40100444D-02  0.40100444D-02
 -0.80200889D-02 -0.30969837D-16 -0.29589349D-16  0.14666392D-15 -0.31849520D-03
 -0.31849520D-03  0.63699040D-03  0.22641100D-16  0.11260586D-16  0.11248944D-17
  0.10329179D-15 -0.10098436D-15 -0.93192008D-02  0.11893727D-15 -0.13368014D-15
  0.13978801D-01 -0.42881262D-15  0.43663321D-15  0.13978801D-01 -0.37837291D-16
 -0.71067958D-17 -0.21251238D-17 -0.69989173D-03 -0.58299901D-17 -0.40045883D-17
  0.10498376D-02  0.27150377D-16  0.10379960D-16  0.10498376D-02  0.27126546D-16
MO    6     MO 0.0        OCC NO =    2.0000000  ORB. ENERGY =   -0.195095
  0.43202044D-15  0.80500648D-15  0.13614678D-14  0.20502950D-14  0.25383983D-14
  0.21600624D-14  0.82194357D-15 -0.38495124D-17 -0.15943303D-14 -0.29893842D-14
 -0.50858320D-14 -0.78977602D-14 -0.10480787D-13 -0.11045311D-13 -0.68487974D-14
  0.45558227D-14  0.18875989D-14 -0.31436932D-16 -0.20670353D-14  0.93692428D+00
  0.89990457D+00  0.63107520D+00 -0.33452421D-01 -0.32130651D-01 -0.22532230D-01
 -0.27039954D-14 -0.25971553D-14 -0.18213045D-14  0.24103715D+00 -0.86061132D-02
  0.15962521D-14  0.14891104D-01 -0.53167956D-03  0.10432805D-13  0.62743324D-04
 -0.22402196D-05  0.13996734D-14 -0.13349341D-14  0.19774056D-15  0.11371935D-14
  0.83138352D-15 -0.94568572D-12  0.35481741D-13  0.49679307D-17  0.73796257D-16
 -0.78764188D-16  0.10275918D-15 -0.14924432D-12  0.54690089D-14  0.54879588D-17
  0.18346744D-16 -0.23834703D-16 -0.51717998D-17  0.23105788D-13  0.23786701D-15
 -0.19637688D-01  0.70115399D-03  0.35629338D-15 -0.19637563D-01  0.70114955D-03
 -0.34888269D-15  0.78550626D-01 -0.28046115D-02 -0.71999745D-15  0.15611814D-15
  0.21137176D-02 -0.75469250D-04  0.21381437D-15  0.21136650D-02 -0.75467373D-04
 -0.25466999D-15 -0.84548179D-02  0.30187512D-03 -0.38677311D-15 -0.91138193D-16
 -0.26537686D-15 -0.49449071D-15 -0.83630776D-15 -0.12594331D-14 -0.15592599D-14
 -0.13268598D-14 -0.50489464D-15  0.23646370D-17  0.15826938D-14  0.29675657D-14
  0.50487123D-14  0.78401171D-14  0.10404291D-13  0.10964695D-13  0.67988103D-14
 -0.45225713D-14 -0.16463769D-14 -0.11754777D-13 -0.55730539D-14  0.47743013D+00
  0.45856593D+00  0.32157808D+00 -0.17046408D-01 -0.16372871D-01 -0.11481788D-01
 -0.14851942D-13 -0.14265113D-13 -0.10003682D-13  0.12701990D+00 -0.45351833D-02
 -0.10642963D-14  0.21746140D-01 -0.77643526D-03  0.41197121D-14  0.29073831D-03
 -0.10380669D-04  0.26289174D-15 -0.76323625D-15 -0.59054066D-15  0.13537769D-14
 -0.61549916D-15 -0.82243384D-01  0.29364596D-02  0.20085047D-15  0.36173384D-15
 -0.56258431D-15  0.23702181D-16 -0.24512933D-01  0.87522222D-03  0.11107414D-15
  0.12808766D-15 -0.23916179D-15  0.10802689D-16 -0.16404817D-02  0.58572593D-04
 -0.57999651D-02  0.20708491D-03  0.10870339D-14 -0.58007746D-02  0.20711381D-03
 -0.14121789D-14  0.23200670D-01 -0.82836852D-03 -0.18489228D-14 -0.40074018D-15
 -0.69042266D-04  0.24651202D-05 -0.46717872D-17 -0.69025648D-04  0.24645269D-05
  0.39951887D-16  0.27615244D-03 -0.98598874D-05 -0.25936525D-16 -0.18200837D-16
 -0.97282291D-16 -0.18127123D-15 -0.30657509D-15 -0.46168509D-15 -0.57159609D-15
 -0.48640248D-15 -0.18508512D-15  0.86683256D-18  0.17226452D-14  0.32299759D-14
  0.54951501D-14  0.85333879D-14  0.11324302D-13  0.11934260D-13  0.74000025D-14
 -0.49224845D-14 -0.23217497D-14  0.88749645D-14  0.73951380D-14  0.47743013D+00
  0.45856593D+00  0.32157808D+00 -0.17046408D-01 -0.16372871D-01 -0.11481788D-01
  0.14744338D-13  0.14161761D-13  0.99312041D-14  0.12701990D+00 -0.45351833D-02
  0.39955905D-14  0.21746140D-01 -0.77643526D-03  0.58379378D-14  0.29073831D-03
 -0.10380669D-04  0.52472931D-15 -0.76468726D-15  0.69938619D-15  0.65301065D-16
 -0.52074557D-15  0.82243384D-01 -0.29364596D-02 -0.16185791D-15 -0.52487723D-15
  0.68673514D-15 -0.16276573D-16  0.24512933D-01 -0.87522222D-03 -0.18693358D-15
 -0.17123268D-15  0.35816626D-15 -0.15296724D-17  0.16404817D-02 -0.58572593D-04
 -0.57999651D-02  0.20708491D-03  0.26410304D-15 -0.58007746D-02  0.20711381D-03
 -0.49419341D-15  0.23200670D-01 -0.82836852D-03 -0.29811570D-15  0.50869331D-15
 -0.69042266D-04  0.24651202D-05  0.12540029D-16 -0.69025648D-04  0.24645269D-05
  0.38377200D-16  0.27615244D-03 -0.98598874D-05 -0.75997289D-16 -0.57020712D-16
MO    7     MO 0.0        OCC NO =    2.0000000  ORB. ENERGY =   -0.195095
  0.74059184D-17  0.13799838D-16  0.23338986D-16  0.35147220D-16  0.43514538D-16
  0.37028908D-16  0.14090183D-16 -0.65990337D-19  0.26414507D-15  0.49527448D-15
  0.84260926D-15  0.13084832D-14  0.17364333D-14  0.18299624D-14  0.11346934D-14
 -0.75479849D-15 -0.48502180D-15  0.18003886D-14 -0.29194416D-15  0.33452421D-01
  0.32130651D-01  0.22532230D-01  0.93692428D+00  0.89990457D+00  0.63107520D+00
 -0.87105213D-16 -0.83663516D-16 -0.58670633D-16  0.86061132D-02  0.24103715D+00
 -0.37596966D-15  0.53167956D-03  0.14891104D-01 -0.28418547D-14  0.22402196D-05
  0.62743324D-04 -0.19336300D-15 -0.25459962D-16 -0.14349841D-15  0.16895837D-15
 -0.20779584D-14 -0.34133403D-13 -0.93523973D-12 -0.15007480D-15 -0.10589992D-15
  0.25597472D-15  0.25859328D-15 -0.50151386D-14 -0.17029470D-12 -0.80577203D-16
  0.31780080D-16  0.48797122D-16  0.94683681D-16  0.97808304D-15 -0.85460549D-14
 -0.70115399D-03 -0.19637688D-01 -0.11164622D-15 -0.70114955D-03 -0.19637563D-01
 -0.25217189D-15  0.28046115D-02  0.78550626D-01  0.58711056D-15 -0.32886710D-15
  0.75469250D-04  0.21137176D-02 -0.16374262D-16  0.75467373D-04  0.21136650D-02
  0.87099578D-16 -0.30187512D-03 -0.84548179D-02 -0.37976792D-16 -0.30844099D-15
  0.12080129D-15  0.22509542D-15  0.38069279D-15  0.57330225D-15  0.70978538D-15
  0.60399532D-15  0.22983136D-15 -0.10763983D-17 -0.40252298D-15 -0.75473435D-15
 -0.12840277D-14 -0.19939594D-14 -0.26461001D-14 -0.27886263D-14 -0.17291262D-14
  0.11502154D-14  0.40930989D-15  0.21644199D-14  0.14134408D-14  0.17046408D-01
  0.16372871D-01  0.11481788D-01  0.47743013D+00  0.45856593D+00  0.32157808D+00
  0.26590180D-14  0.25539550D-14  0.17910096D-14  0.45351833D-02  0.12701990D+00