 Molden2AIM, Version 4.0.0 (06/02/2016)           Time: Thu Jun 28 16:01:05 2018
GAUSSIAN             46 MOL ORBITALS    730 PRIMITIVES        6 NUCLEI
  N    1    (CENTRE  1)  -0.00019842  0.00000000  0.00000378  CHARGE =  7.0
  Cl   2    (CENTRE  2)  -1.63050672  2.82382720 -0.00000189  CHARGE = 17.0
  Cl   3    (CENTRE  3)  -1.63050672 -2.82382720 -0.00000189  CHARGE = 17.0
  Cl   4    (CENTRE  4)   3.26059204  0.00000000 -0.00000189  CHARGE = 17.0
  Cl   5    (CENTRE  5)   0.00030992  0.00000000  4.53941884  CHARGE = 17.0
  Cl   6    (CENTRE  6)   0.00030992  0.00000000 -4.53941884  CHARGE = 17.0
CENTRE ASSIGNMENTS    1  1  1  1  1  1  1  1  1  1  1  1  1  1  1  1  1  1  1  1
CENTRE ASSIGNMENTS    1  1  1  1  1  1  1  1  1  1  1  1  1  1  1  1  1  1  1  1
CENTRE ASSIGNMENTS    1  1  1  1  1  1  1  1  1  1  1  1  1  1  1  1  1  1  1  1
CENTRE ASSIGNMENTS    1  1  1  1  1  1  1  1  1  1  1  1  1  1  1  2  2  2  2  2
CENTRE ASSIGNMENTS    2  2  2  2  2  2  2  2  2  2  2  2  2  2  2  2  2  2  2  2
CENTRE ASSIGNMENTS    2  2  2  2  2  2  2  2  2  2  2  2  2  2  2  2  2  2  2  2
CENTRE ASSIGNMENTS    2  2  2  2  2  2  2  2  2  2  2  2  2  2  2  2  2  2  2  2
CENTRE ASSIGNMENTS    2  2  2  2  2  2  2  2  2  2  2  2  2  2  2  2  2  2  2  2
CENTRE ASSIGNMENTS    2  2  2  2  2  2  2  2  2  2  2  2  2  2  2  2  2  2  2  2
CENTRE ASSIGNMENTS    2  2  2  2  2  2  2  2  2  2  2  2  2  2  2  2  2  2  2  2
CENTRE ASSIGNMENTS    2  2  2  2  2  2  3  3  3  3  3  3  3  3  3  3  3  3  3  3
CENTRE ASSIGNMENTS    3  3  3  3  3  3  3  3  3  3  3  3  3  3  3  3  3  3  3  3
CENTRE ASSIGNMENTS    3  3  3  3  3  3  3  3  3  3  3  3  3  3  3  3  3  3  3  3
CENTRE ASSIGNMENTS    3  3  3  3  3  3  3  3  3  3  3  3  3  3  3  3  3  3  3  3
CENTRE ASSIGNMENTS    3  3  3  3  3  3  3  3  3  3  3  3  3  3  3  3  3  3  3  3
CENTRE ASSIGNMENTS    3  3  3  3  3  3  3  3  3  3  3  3  3  3  3  3  3  3  3  3
CENTRE ASSIGNMENTS    3  3  3  3  3  3  3  3  3  3  3  3  3  3  3  3  3  4  4  4
CENTRE ASSIGNMENTS    4  4  4  4  4  4  4  4  4  4  4  4  4  4  4  4  4  4  4  4
CENTRE ASSIGNMENTS    4  4  4  4  4  4  4  4  4  4  4  4  4  4  4  4  4  4  4  4
CENTRE ASSIGNMENTS    4  4  4  4  4  4  4  4  4  4  4  4  4  4  4  4  4  4  4  4
CENTRE ASSIGNMENTS    4  4  4  4  4  4  4  4  4  4  4  4  4  4  4  4  4  4  4  4
CENTRE ASSIGNMENTS    4  4  4  4  4  4  4  4  4  4  4  4  4  4  4  4  4  4  4  4
CENTRE ASSIGNMENTS    4  4  4  4  4  4  4  4  4  4  4  4  4  4  4  4  4  4  4  4
CENTRE ASSIGNMENTS    4  4  4  4  4  4  4  4  5  5  5  5  5  5  5  5  5  5  5  5
CENTRE ASSIGNMENTS    5  5  5  5  5  5  5  5  5  5  5  5  5  5  5  5  5  5  5  5
CENTRE ASSIGNMENTS    5  5  5  5  5  5  5  5  5  5  5  5  5  5  5  5  5  5  5  5
CENTRE ASSIGNMENTS    5  5  5  5  5  5  5  5  5  5  5  5  5  5  5  5  5  5  5  5
CENTRE ASSIGNMENTS    5  5  5  5  5  5  5  5  5  5  5  5  5  5  5  5  5  5  5  5
CENTRE ASSIGNMENTS    5  5  5  5  5  5  5  5  5  5  5  5  5  5  5  5  5  5  5  5
CENTRE ASSIGNMENTS    5  5  5  5  5  5  5  5  5  5  5  5  5  5  5  5  5  5  5  6
CENTRE ASSIGNMENTS    6  6  6  6  6  6  6  6  6  6  6  6  6  6  6  6  6  6  6  6
CENTRE ASSIGNMENTS    6  6  6  6  6  6  6  6  6  6  6  6  6  6  6  6  6  6  6  6
CENTRE ASSIGNMENTS    6  6  6  6  6  6  6  6  6  6  6  6  6  6  6  6  6  6  6  6
CENTRE ASSIGNMENTS    6  6  6  6  6  6  6  6  6  6  6  6  6  6  6  6  6  6  6  6
CENTRE ASSIGNMENTS    6  6  6  6  6  6  6  6  6  6  6  6  6  6  6  6  6  6  6  6
CENTRE ASSIGNMENTS    6  6  6  6  6  6  6  6  6  6  6  6  6  6  6  6  6  6  6  6
CENTRE ASSIGNMENTS    6  6  6  6  6  6  6  6  6  6
TYPE ASSIGNMENTS      1  1  1  1  1  1  1  1  1  1  1  1  1  1  1  1  1  1  1  2
TYPE ASSIGNMENTS      2  2  3  3  3  4  4  4  2  3  4  2  3  4  2  3  4  5  6  7
TYPE ASSIGNMENTS      8  9 10  5  6  7  8  9 10  5  6  7  8  9 10 11 12 13 17 14
TYPE ASSIGNMENTS     15 18 19 16 20 11 12 13 17 14 15 18 19 16 20  1  1  1  1  1
TYPE ASSIGNMENTS      1  1  1  1  1  1  1  1  1  1  1  1  1  1  1  1  1  1  1  1
TYPE ASSIGNMENTS      1  1  1  1  1  1  1  1  1  1  1  1  1  1  1  1  1  2  2  2
TYPE ASSIGNMENTS      2  2  2  2  3  3  3  3  3  3  3  4  4  4  4  4  4  4  2  2
TYPE ASSIGNMENTS      2  2  2  2  2  3  3  3  3  3  3  3  4  4  4  4  4  4  4  2
TYPE ASSIGNMENTS      3  4  2  3  4  2  3  4  5  6  7  8  9 10  5  6  7  8  9 10
TYPE ASSIGNMENTS      5  6  7  8  9 10 11 12 13 17 14 15 18 19 16 20 11 12 13 17
TYPE ASSIGNMENTS     14 15 18 19 16 20  1  1  1  1  1  1  1  1  1  1  1  1  1  1
TYPE ASSIGNMENTS      1  1  1  1  1  1  1  1  1  1  1  1  1  1  1  1  1  1  1  1
TYPE ASSIGNMENTS      1  1  1  1  1  1  1  1  2  2  2  2  2  2  2  3  3  3  3  3
TYPE ASSIGNMENTS      3  3  4  4  4  4  4  4  4  2  2  2  2  2  2  2  3  3  3  3
TYPE ASSIGNMENTS      3  3  3  4  4  4  4  4  4  4  2  3  4  2  3  4  2  3  4  5
TYPE ASSIGNMENTS      6  7  8  9 10  5  6  7  8  9 10  5  6  7  8  9 10 11 12 13
TYPE ASSIGNMENTS     17 14 15 18 19 16 20 11 12 13 17 14 15 18 19 16 20  1  1  1
TYPE ASSIGNMENTS      1  1  1  1  1  1  1  1  1  1  1  1  1  1  1  1  1  1  1  1
TYPE ASSIGNMENTS      1  1  1  1  1  1  1  1  1  1  1  1  1  1  1  1  1  1  1  2
TYPE ASSIGNMENTS      2  2  2  2  2  2  3  3  3  3  3  3  3  4  4  4  4  4  4  4
TYPE ASSIGNMENTS      2  2  2  2  2  2  2  3  3  3  3  3  3  3  4  4  4  4  4  4
TYPE ASSIGNMENTS      4  2  3  4  2  3  4  2  3  4  5  6  7  8  9 10  5  6  7  8
TYPE ASSIGNMENTS      9 10  5  6  7  8  9 10 11 12 13 17 14 15 18 19 16 20 11 12
TYPE ASSIGNMENTS     13 17 14 15 18 19 16 20  1  1  1  1  1  1  1  1  1  1  1  1
TYPE ASSIGNMENTS      1  1  1  1  1  1  1  1  1  1  1  1  1  1  1  1  1  1  1  1
TYPE ASSIGNMENTS      1  1  1  1  1  1  1  1  1  1  2  2  2  2  2  2  2  3  3  3
TYPE ASSIGNMENTS      3  3  3  3  4  4  4  4  4  4  4  2  2  2  2  2  2  2  3  3
TYPE ASSIGNMENTS      3  3  3  3  3  4  4  4  4  4  4  4  2  3  4  2  3  4  2  3
TYPE ASSIGNMENTS      4  5  6  7  8  9 10  5  6  7  8  9 10  5  6  7  8  9 10 11
TYPE ASSIGNMENTS     12 13 17 14 15 18 19 16 20 11 12 13 17 14 15 18 19 16 20  1
TYPE ASSIGNMENTS      1  1  1  1  1  1  1  1  1  1  1  1  1  1  1  1  1  1  1  1
TYPE ASSIGNMENTS      1  1  1  1  1  1  1  1  1  1  1  1  1  1  1  1  1  1  1  1
TYPE ASSIGNMENTS      1  2  2  2  2  2  2  2  3  3  3  3  3  3  3  4  4  4  4  4
TYPE ASSIGNMENTS      4  4  2  2  2  2  2  2  2  3  3  3  3  3  3  3  4  4  4  4
TYPE ASSIGNMENTS      4  4  4  2  3  4  2  3  4  2  3  4  5  6  7  8  9 10  5  6
TYPE ASSIGNMENTS      7  8  9 10  5  6  7  8  9 10 11 12 13 17 14 15 18 19 16 20
TYPE ASSIGNMENTS     11 12 13 17 14 15 18 19 16 20
EXPONENTS  0.1142000D+05 0.1712000D+04 0.3893000D+03 0.1100000D+03 0.3557000D+02
EXPONENTS  0.1254000D+02 0.4644000D+01 0.5118000D+00 0.1142000D+05 0.1712000D+04
EXPONENTS  0.3893000D+03 0.1100000D+03 0.3557000D+02 0.1254000D+02 0.4644000D+01
EXPONENTS  0.5118000D+00 0.1293000D+01 0.1787000D+00 0.5760000D-01 0.2663000D+02
EXPONENTS  0.5948000D+01 0.1742000D+01 0.2663000D+02 0.5948000D+01 0.1742000D+01
EXPONENTS  0.2663000D+02 0.5948000D+01 0.1742000D+01 0.5550000D+00 0.5550000D+00
EXPONENTS  0.5550000D+00 0.1725000D+00 0.1725000D+00 0.1725000D+00 0.4910000D-01
EXPONENTS  0.4910000D-01 0.4910000D-01 0.1654000D+01 0.1654000D+01 0.1654000D+01
EXPONENTS  0.1654000D+01 0.1654000D+01 0.1654000D+01 0.4690000D+00 0.4690000D+00
EXPONENTS  0.4690000D+00 0.4690000D+00 0.4690000D+00 0.4690000D+00 0.1510000D+00
EXPONENTS  0.1510000D+00 0.1510000D+00 0.1510000D+00 0.1510000D+00 0.1510000D+00
EXPONENTS  0.1093000D+01 0.1093000D+01 0.1093000D+01 0.1093000D+01 0.1093000D+01
EXPONENTS  0.1093000D+01 0.1093000D+01 0.1093000D+01 0.1093000D+01 0.1093000D+01
EXPONENTS  0.3640000D+00 0.3640000D+00 0.3640000D+00 0.3640000D+00 0.3640000D+00
EXPONENTS  0.3640000D+00 0.3640000D+00 0.3640000D+00 0.3640000D+00 0.3640000D+00
EXPONENTS  0.4561000D+06 0.6833000D+05 0.1555000D+05 0.4405000D+04 0.1439000D+04
EXPONENTS  0.5204000D+03 0.2031000D+03 0.8396000D+02 0.3620000D+02 0.1583000D+02
EXPONENTS  0.6334000D+01 0.2694000D+01 0.4313000D+00 0.4561000D+06 0.6833000D+05
EXPONENTS  0.1555000D+05 0.4405000D+04 0.1439000D+04 0.5204000D+03 0.2031000D+03
EXPONENTS  0.8396000D+02 0.3620000D+02 0.1583000D+02 0.6334000D+01 0.2694000D+01
EXPONENTS  0.4313000D+00 0.4561000D+06 0.6833000D+05 0.1555000D+05 0.4405000D+04
EXPONENTS  0.1439000D+04 0.5204000D+03 0.2031000D+03 0.8396000D+02 0.3620000D+02
EXPONENTS  0.1583000D+02 0.6334000D+01 0.2694000D+01 0.4313000D+00 0.9768000D+00
EXPONENTS  0.1625000D+00 0.5910000D-01 0.6633000D+03 0.1568000D+03 0.4998000D+02
EXPONENTS  0.1842000D+02 0.7240000D+01 0.2922000D+01 0.3818000D+00 0.6633000D+03
EXPONENTS  0.1568000D+03 0.4998000D+02 0.1842000D+02 0.7240000D+01 0.2922000D+01
EXPONENTS  0.3818000D+00 0.6633000D+03 0.1568000D+03 0.4998000D+02 0.1842000D+02
EXPONENTS  0.7240000D+01 0.2922000D+01 0.3818000D+00 0.6633000D+03 0.1568000D+03
EXPONENTS  0.4998000D+02 0.1842000D+02 0.7240000D+01 0.2922000D+01 0.3818000D+00
EXPONENTS  0.6633000D+03 0.1568000D+03 0.4998000D+02 0.1842000D+02 0.7240000D+01
EXPONENTS  0.2922000D+01 0.3818000D+00 0.6633000D+03 0.1568000D+03 0.4998000D+02
EXPONENTS  0.1842000D+02 0.7240000D+01 0.2922000D+01 0.3818000D+00 0.1022000D+01
EXPONENTS  0.1022000D+01 0.1022000D+01 0.1301000D+00 0.1301000D+00 0.1301000D+00
EXPONENTS  0.4190000D-01 0.4190000D-01 0.4190000D-01 0.1046000D+01 0.1046000D+01
EXPONENTS  0.1046000D+01 0.1046000D+01 0.1046000D+01 0.1046000D+01 0.3440000D+00
EXPONENTS  0.3440000D+00 0.3440000D+00 0.3440000D+00 0.3440000D+00 0.3440000D+00
EXPONENTS  0.1350000D+00 0.1350000D+00 0.1350000D+00 0.1350000D+00 0.1350000D+00
EXPONENTS  0.1350000D+00 0.7060000D+00 0.7060000D+00 0.7060000D+00 0.7060000D+00
EXPONENTS  0.7060000D+00 0.7060000D+00 0.7060000D+00 0.7060000D+00 0.7060000D+00
EXPONENTS  0.7060000D+00 0.3120000D+00 0.3120000D+00 0.3120000D+00 0.3120000D+00
EXPONENTS  0.3120000D+00 0.3120000D+00 0.3120000D+00 0.3120000D+00 0.3120000D+00
EXPONENTS  0.3120000D+00 0.4561000D+06 0.6833000D+05 0.1555000D+05 0.4405000D+04
EXPONENTS  0.1439000D+04 0.5204000D+03 0.2031000D+03 0.8396000D+02 0.3620000D+02
EXPONENTS  0.1583000D+02 0.6334000D+01 0.2694000D+01 0.4313000D+00 0.4561000D+06
EXPONENTS  0.6833000D+05 0.1555000D+05 0.4405000D+04 0.1439000D+04 0.5204000D+03
EXPONENTS  0.2031000D+03 0.8396000D+02 0.3620000D+02 0.1583000D+02 0.6334000D+01
EXPONENTS  0.2694000D+01 0.4313000D+00 0.4561000D+06 0.6833000D+05 0.1555000D+05
EXPONENTS  0.4405000D+04 0.1439000D+04 0.5204000D+03 0.2031000D+03 0.8396000D+02
EXPONENTS  0.3620000D+02 0.1583000D+02 0.6334000D+01 0.2694000D+01 0.4313000D+00
EXPONENTS  0.9768000D+00 0.1625000D+00 0.5910000D-01 0.6633000D+03 0.1568000D+03
EXPONENTS  0.4998000D+02 0.1842000D+02 0.7240000D+01 0.2922000D+01 0.3818000D+00
EXPONENTS  0.6633000D+03 0.1568000D+03 0.4998000D+02 0.1842000D+02 0.7240000D+01
EXPONENTS  0.2922000D+01 0.3818000D+00 0.6633000D+03 0.1568000D+03 0.4998000D+02
EXPONENTS  0.1842000D+02 0.7240000D+01 0.2922000D+01 0.3818000D+00 0.6633000D+03
EXPONENTS  0.1568000D+03 0.4998000D+02 0.1842000D+02 0.7240000D+01 0.2922000D+01
EXPONENTS  0.3818000D+00 0.6633000D+03 0.1568000D+03 0.4998000D+02 0.1842000D+02
EXPONENTS  0.7240000D+01 0.2922000D+01 0.3818000D+00 0.6633000D+03 0.1568000D+03
EXPONENTS  0.4998000D+02 0.1842000D+02 0.7240000D+01 0.2922000D+01 0.3818000D+00
EXPONENTS  0.1022000D+01 0.1022000D+01 0.1022000D+01 0.1301000D+00 0.1301000D+00
EXPONENTS  0.1301000D+00 0.4190000D-01 0.4190000D-01 0.4190000D-01 0.1046000D+01
EXPONENTS  0.1046000D+01 0.1046000D+01 0.1046000D+01 0.1046000D+01 0.1046000D+01
EXPONENTS  0.3440000D+00 0.3440000D+00 0.3440000D+00 0.3440000D+00 0.3440000D+00
EXPONENTS  0.3440000D+00 0.1350000D+00 0.1350000D+00 0.1350000D+00 0.1350000D+00
EXPONENTS  0.1350000D+00 0.1350000D+00 0.7060000D+00 0.7060000D+00 0.7060000D+00
EXPONENTS  0.7060000D+00 0.7060000D+00 0.7060000D+00 0.7060000D+00 0.7060000D+00
EXPONENTS  0.7060000D+00 0.7060000D+00 0.3120000D+00 0.3120000D+00 0.3120000D+00
EXPONENTS  0.3120000D+00 0.3120000D+00 0.3120000D+00 0.3120000D+00 0.3120000D+00
EXPONENTS  0.3120000D+00 0.3120000D+00 0.4561000D+06 0.6833000D+05 0.1555000D+05
EXPONENTS  0.4405000D+04 0.1439000D+04 0.5204000D+03 0.2031000D+03 0.8396000D+02
EXPONENTS  0.3620000D+02 0.1583000D+02 0.6334000D+01 0.2694000D+01 0.4313000D+00
EXPONENTS  0.4561000D+06 0.6833000D+05 0.1555000D+05 0.4405000D+04 0.1439000D+04
EXPONENTS  0.5204000D+03 0.2031000D+03 0.8396000D+02 0.3620000D+02 0.1583000D+02
EXPONENTS  0.6334000D+01 0.2694000D+01 0.4313000D+00 0.4561000D+06 0.6833000D+05
EXPONENTS  0.1555000D+05 0.4405000D+04 0.1439000D+04 0.5204000D+03 0.2031000D+03
EXPONENTS  0.8396000D+02 0.3620000D+02 0.1583000D+02 0.6334000D+01 0.2694000D+01
EXPONENTS  0.4313000D+00 0.9768000D+00 0.1625000D+00 0.5910000D-01 0.6633000D+03
EXPONENTS  0.1568000D+03 0.4998000D+02 0.1842000D+02 0.7240000D+01 0.2922000D+01
EXPONENTS  0.3818000D+00 0.6633000D+03 0.1568000D+03 0.4998000D+02 0.1842000D+02
EXPONENTS  0.7240000D+01 0.2922000D+01 0.3818000D+00 0.6633000D+03 0.1568000D+03
EXPONENTS  0.4998000D+02 0.1842000D+02 0.7240000D+01 0.2922000D+01 0.3818000D+00
EXPONENTS  0.6633000D+03 0.1568000D+03 0.4998000D+02 0.1842000D+02 0.7240000D+01
EXPONENTS  0.2922000D+01 0.3818000D+00 0.6633000D+03 0.1568000D+03 0.4998000D+02
EXPONENTS  0.1842000D+02 0.7240000D+01 0.2922000D+01 0.3818000D+00 0.6633000D+03
EXPONENTS  0.1568000D+03 0.4998000D+02 0.1842000D+02 0.7240000D+01 0.2922000D+01
EXPONENTS  0.3818000D+00 0.1022000D+01 0.1022000D+01 0.1022000D+01 0.1301000D+00
EXPONENTS  0.1301000D+00 0.1301000D+00 0.4190000D-01 0.4190000D-01 0.4190000D-01
EXPONENTS  0.1046000D+01 0.1046000D+01 0.1046000D+01 0.1046000D+01 0.1046000D+01
EXPONENTS  0.1046000D+01 0.3440000D+00 0.3440000D+00 0.3440000D+00 0.3440000D+00
EXPONENTS  0.3440000D+00 0.3440000D+00 0.1350000D+00 0.1350000D+00 0.1350000D+00
EXPONENTS  0.1350000D+00 0.1350000D+00 0.1350000D+00 0.7060000D+00 0.7060000D+00
EXPONENTS  0.7060000D+00 0.7060000D+00 0.7060000D+00 0.7060000D+00 0.7060000D+00
EXPONENTS  0.7060000D+00 0.7060000D+00 0.7060000D+00 0.3120000D+00 0.3120000D+00
EXPONENTS  0.3120000D+00 0.3120000D+00 0.3120000D+00 0.3120000D+00 0.3120000D+00
EXPONENTS  0.3120000D+00 0.3120000D+00 0.3120000D+00 0.4561000D+06 0.6833000D+05
EXPONENTS  0.1555000D+05 0.4405000D+04 0.1439000D+04 0.5204000D+03 0.2031000D+03
EXPONENTS  0.8396000D+02 0.3620000D+02 0.1583000D+02 0.6334000D+01 0.2694000D+01
EXPONENTS  0.4313000D+00 0.4561000D+06 0.6833000D+05 0.1555000D+05 0.4405000D+04
EXPONENTS  0.1439000D+04 0.5204000D+03 0.2031000D+03 0.8396000D+02 0.3620000D+02
EXPONENTS  0.1583000D+02 0.6334000D+01 0.2694000D+01 0.4313000D+00 0.4561000D+06
EXPONENTS  0.6833000D+05 0.1555000D+05 0.4405000D+04 0.1439000D+04 0.5204000D+03
EXPONENTS  0.2031000D+03 0.8396000D+02 0.3620000D+02 0.1583000D+02 0.6334000D+01
EXPONENTS  0.2694000D+01 0.4313000D+00 0.9768000D+00 0.1625000D+00 0.5910000D-01
EXPONENTS  0.6633000D+03 0.1568000D+03 0.4998000D+02 0.1842000D+02 0.7240000D+01
EXPONENTS  0.2922000D+01 0.3818000D+00 0.6633000D+03 0.1568000D+03 0.4998000D+02
EXPONENTS  0.1842000D+02 0.7240000D+01 0.2922000D+01 0.3818000D+00 0.6633000D+03
EXPONENTS  0.1568000D+03 0.4998000D+02 0.1842000D+02 0.7240000D+01 0.2922000D+01
EXPONENTS  0.3818000D+00 0.6633000D+03 0.1568000D+03 0.4998000D+02 0.1842000D+02
EXPONENTS  0.7240000D+01 0.2922000D+01 0.3818000D+00 0.6633000D+03 0.1568000D+03
EXPONENTS  0.4998000D+02 0.1842000D+02 0.7240000D+01 0.2922000D+01 0.3818000D+00
EXPONENTS  0.6633000D+03 0.1568000D+03 0.4998000D+02 0.1842000D+02 0.7240000D+01
EXPONENTS  0.2922000D+01 0.3818000D+00 0.1022000D+01 0.1022000D+01 0.1022000D+01
EXPONENTS  0.1301000D+00 0.1301000D+00 0.1301000D+00 0.4190000D-01 0.4190000D-01
EXPONENTS  0.4190000D-01 0.1046000D+01 0.1046000D+01 0.1046000D+01 0.1046000D+01
EXPONENTS  0.1046000D+01 0.1046000D+01 0.3440000D+00 0.3440000D+00 0.3440000D+00
EXPONENTS  0.3440000D+00 0.3440000D+00 0.3440000D+00 0.1350000D+00 0.1350000D+00
EXPONENTS  0.1350000D+00 0.1350000D+00 0.1350000D+00 0.1350000D+00 0.7060000D+00
EXPONENTS  0.7060000D+00 0.7060000D+00 0.7060000D+00 0.7060000D+00 0.7060000D+00
EXPONENTS  0.7060000D+00 0.7060000D+00 0.7060000D+00 0.7060000D+00 0.3120000D+00
EXPONENTS  0.3120000D+00 0.3120000D+00 0.3120000D+00 0.3120000D+00 0.3120000D+00
EXPONENTS  0.3120000D+00 0.3120000D+00 0.3120000D+00 0.3120000D+00 0.4561000D+06
EXPONENTS  0.6833000D+05 0.1555000D+05 0.4405000D+04 0.1439000D+04 0.5204000D+03
EXPONENTS  0.2031000D+03 0.8396000D+02 0.3620000D+02 0.1583000D+02 0.6334000D+01
EXPONENTS  0.2694000D+01 0.4313000D+00 0.4561000D+06 0.6833000D+05 0.1555000D+05
EXPONENTS  0.4405000D+04 0.1439000D+04 0.5204000D+03 0.2031000D+03 0.8396000D+02
EXPONENTS  0.3620000D+02 0.1583000D+02 0.6334000D+01 0.2694000D+01 0.4313000D+00
EXPONENTS  0.4561000D+06 0.6833000D+05 0.1555000D+05 0.4405000D+04 0.1439000D+04
EXPONENTS  0.5204000D+03 0.2031000D+03 0.8396000D+02 0.3620000D+02 0.1583000D+02
EXPONENTS  0.6334000D+01 0.2694000D+01 0.4313000D+00 0.9768000D+00 0.1625000D+00
EXPONENTS  0.5910000D-01 0.6633000D+03 0.1568000D+03 0.4998000D+02 0.1842000D+02
EXPONENTS  0.7240000D+01 0.2922000D+01 0.3818000D+00 0.6633000D+03 0.1568000D+03
EXPONENTS  0.4998000D+02 0.1842000D+02 0.7240000D+01 0.2922000D+01 0.3818000D+00
EXPONENTS  0.6633000D+03 0.1568000D+03 0.4998000D+02 0.1842000D+02 0.7240000D+01
EXPONENTS  0.2922000D+01 0.3818000D+00 0.6633000D+03 0.1568000D+03 0.4998000D+02
EXPONENTS  0.1842000D+02 0.7240000D+01 0.2922000D+01 0.3818000D+00 0.6633000D+03
EXPONENTS  0.1568000D+03 0.4998000D+02 0.1842000D+02 0.7240000D+01 0.2922000D+01
EXPONENTS  0.3818000D+00 0.6633000D+03 0.1568000D+03 0.4998000D+02 0.1842000D+02
EXPONENTS  0.7240000D+01 0.2922000D+01 0.3818000D+00 0.1022000D+01 0.1022000D+01
EXPONENTS  0.1022000D+01 0.1301000D+00 0.1301000D+00 0.1301000D+00 0.4190000D-01
EXPONENTS  0.4190000D-01 0.4190000D-01 0.1046000D+01 0.1046000D+01 0.1046000D+01
EXPONENTS  0.1046000D+01 0.1046000D+01 0.1046000D+01 0.3440000D+00 0.3440000D+00
EXPONENTS  0.3440000D+00 0.3440000D+00 0.3440000D+00 0.3440000D+00 0.1350000D+00
EXPONENTS  0.1350000D+00 0.1350000D+00 0.1350000D+00 0.1350000D+00 0.1350000D+00
EXPONENTS  0.7060000D+00 0.7060000D+00 0.7060000D+00 0.7060000D+00 0.7060000D+00
EXPONENTS  0.7060000D+00 0.7060000D+00 0.7060000D+00 0.7060000D+00 0.7060000D+00
EXPONENTS  0.3120000D+00 0.3120000D+00 0.3120000D+00 0.3120000D+00 0.3120000D+00
EXPONENTS  0.3120000D+00 0.3120000D+00 0.3120000D+00 0.3120000D+00 0.3120000D+00
MO    1     MO 0.0        OCC NO =    2.0000000  ORB. ENERGY = -101.296337
  0.92668321D-04  0.17267377D-03  0.29203464D-03  0.43978798D-03  0.54448605D-03
  0.46333305D-03  0.17630677D-03 -0.82571984D-06 -0.67461063D-04 -0.12649012D-03
 -0.21519734D-03 -0.33417874D-03 -0.44347463D-03 -0.46736138D-03 -0.28979387D-03
  0.19277099D-03  0.61069404D-04  0.21924992D-03  0.84153265D-03 -0.30961502D-04
 -0.29738152D-04 -0.20854445D-04  0.15047875D-11  0.14453304D-11  0.10135655D-11
  0.12060271D-09  0.11583746D-09  0.81233224D-10 -0.78668838D-04  0.38258524D-11
 -0.52224511D-09 -0.25921181D-03  0.12590213D-10 -0.22840357D-09 -0.16267290D-05
  0.79129068D-13 -0.25434969D-09  0.38943472D-04  0.16554823D-03 -0.20449170D-03
 -0.61578554D-11  0.16498392D-09 -0.30822460D-17 -0.40989063D-04 -0.44324017D-04
  0.85313080D-04  0.16517823D-12  0.16666595D-09 -0.13129121D-16  0.60197350D-05
  0.10969408D-04 -0.16989143D-04 -0.23929504D-12 -0.45919060D-10  0.37072482D-17
  0.75074768D-04 -0.56131425D-12 -0.67916932D-09 -0.17900115D-03 -0.56216276D-12
  0.14520199D-08 -0.46223156D-04  0.22461055D-11  0.58548803D-09  0.44307630D-16
 -0.70108544D-04 -0.31629809D-12 -0.31238306D-10  0.23632546D-03 -0.31593217D-12
 -0.28435117D-09 -0.25999826D-04  0.12648264D-11  0.37806609D-09 -0.32482140D-16
  0.43643598D+00  0.81657340D+00  0.14108579D+01  0.22871653D+01  0.34732429D+01
  0.48273992D+01  0.57390812D+01  0.51119321D+01  0.25377162D+01  0.40886674D+00
  0.62771935D-02  0.11217283D-02  0.41917237D-04 -0.79556839D-03 -0.14860075D-02
 -0.25790381D-02 -0.41847308D-02 -0.64774662D-02 -0.92719044D-02 -0.12102732D-01
 -0.12897480D-01 -0.96411281D-02 -0.50893803D-03  0.65396010D-02  0.38852743D-02
 -0.14566866D-04  0.31159245D-03  0.58154242D-03  0.10106695D-02  0.16379980D-02
  0.25440673D-02  0.36444499D-02  0.48121565D-02  0.52033686D-02  0.40795085D-02
  0.20299499D-03 -0.34971702D-02 -0.36202194D-02  0.16382005D-02 -0.21673326D-02
 -0.70163928D-03 -0.31171252D-03  0.33468544D-02  0.44085583D-02  0.48636726D-02
  0.40398392D-02  0.21456567D-02  0.55342746D-03 -0.56890461D-06 -0.42906817D-02
 -0.56517907D-02 -0.62352492D-02 -0.51790912D-02 -0.27507411D-02 -0.70949638D-03
  0.72933816D-06  0.19368679D-07  0.25512897D-07  0.28146702D-07  0.23379072D-07
  0.12417193D-07  0.32027563D-08 -0.32923246D-11 -0.27948920D-02 -0.36694883D-02
 -0.41779824D-02 -0.35377439D-02 -0.20265559D-02 -0.46097116D-03  0.21575987D-03
  0.35630449D-02  0.46780167D-02  0.53262662D-02  0.45100634D-02  0.25835380D-02
  0.58766526D-03 -0.27505968D-03 -0.10015149D-07 -0.13149157D-07 -0.14971282D-07
 -0.12677067D-07 -0.72619121D-08 -0.16518331D-08  0.77314878D-09 -0.14285172D-03
  0.13403428D-03 -0.10294586D-08 -0.18319561D-03  0.28548663D-03 -0.48332313D-09
 -0.98330876D-05  0.14320110D-04 -0.84188744D-11 -0.35889823D-04  0.13334966D-03
 -0.97459840D-04 -0.25021630D-03  0.37031842D-09 -0.73379032D-09  0.62655507D-05
 -0.22900509D-04  0.16634958D-04 -0.13538336D-05  0.58697231D-10 -0.96609653D-10
  0.47187418D-05 -0.19675652D-04  0.14956910D-04  0.60377668D-04 -0.10220229D-09
  0.19393411D-09 -0.47507726D-04  0.15626224D-05 -0.25688913D-09  0.18880342D-03
 -0.30572716D-04  0.64453676D-11 -0.46280245D-04  0.25884849D-04  0.76422202D-09
 -0.88680865D-09  0.97365912D-05  0.32862088D-05  0.97708954D-10 -0.51369683D-04
  0.83198492D-05 -0.79165751D-10  0.22159910D-04 -0.18178476D-04 -0.21396111D-09
  0.22348357D-09  0.43643596D+00  0.81657335D+00  0.14108579D+01  0.22871651D+01
  0.34732427D+01  0.48273989D+01  0.57390809D+01  0.51119319D+01  0.25377160D+01
  0.40886671D+00  0.62771932D-02  0.11217282D-02  0.41917235D-04 -0.79556835D-03
 -0.14860074D-02 -0.25790380D-02 -0.41847306D-02 -0.64774659D-02 -0.92719039D-02
 -0.12102731D-01 -0.12897479D-01 -0.96411276D-02 -0.50893800D-03  0.65396006D-02
  0.38852741D-02 -0.14566865D-04  0.31159244D-03  0.58154239D-03  0.10106695D-02
  0.16379979D-02  0.25440672D-02  0.36444497D-02  0.48121562D-02  0.52033683D-02
  0.40795082D-02  0.20299498D-03 -0.34971700D-02 -0.36202192D-02  0.16382004D-02
 -0.21673325D-02 -0.70163924D-03 -0.31171251D-03  0.33468543D-02  0.44085582D-02
  0.48636725D-02  0.40398391D-02  0.21456567D-02  0.55342745D-03 -0.56890460D-06
  0.42906815D-02  0.56517904D-02  0.62352489D-02  0.51790909D-02  0.27507410D-02
  0.70949634D-03 -0.72933812D-06  0.19368679D-07  0.25512897D-07  0.28146703D-07
  0.23379072D-07  0.12417193D-07  0.32027563D-08 -0.32923246D-11 -0.27948919D-02
 -0.36694882D-02 -0.41779823D-02 -0.35377438D-02 -0.20265559D-02 -0.46097115D-03
  0.21575987D-03 -0.35630447D-02 -0.46780165D-02 -0.53262659D-02 -0.45100632D-02
 -0.25835379D-02 -0.58766523D-03  0.27505967D-03 -0.10015150D-07 -0.13149158D-07
 -0.14971283D-07 -0.12677068D-07 -0.72619125D-08 -0.16518332D-08  0.77314882D-09
 -0.14285171D-03 -0.13403427D-03 -0.10294587D-08 -0.18319560D-03 -0.28548661D-03
 -0.48332313D-09 -0.98330873D-05 -0.14320109D-04 -0.84188753D-11 -0.35889822D-04
  0.13334966D-03 -0.97459836D-04  0.25021629D-03  0.37031839D-09  0.73379029D-09
  0.62655511D-05 -0.22900507D-04  0.16634956D-04  0.13538382D-05  0.58697251D-10
  0.96609684D-10  0.47187409D-05 -0.19675649D-04  0.14956908D-04 -0.60377664D-04
 -0.10220229D-09 -0.19393410D-09 -0.47507724D-04 -0.15626240D-05 -0.25688912D-09
  0.18880342D-03  0.30572716D-04  0.64453492D-11 -0.46280244D-04 -0.25884844D-04
  0.76422201D-09  0.88680865D-09  0.97365900D-05 -0.32862081D-05  0.97708949D-10
 -0.51369679D-04 -0.83198488D-05 -0.79165745D-10  0.22159909D-04  0.18178473D-04
 -0.21396110D-09 -0.22348356D-09  0.95128182D-02  0.17798519D-01  0.30751898D-01
  0.49852414D-01  0.75704868D-01  0.10522086D+00  0.12509243D+00  0.11142271D+00
  0.55313571D-01  0.89119025D-02  0.13682144D-03  0.24449857D-04  0.91365302D-06
 -0.37238685D-04 -0.69556517D-04 -0.12071871D-03 -0.19587740D-03 -0.30319496D-03
 -0.43399604D-03 -0.56650039D-03 -0.60370070D-03 -0.45127853D-03 -0.23822192D-04
  0.30610334D-03  0.18186055D-03 -0.68184073D-06  0.18014532D-04  0.33621528D-04
  0.58431257D-04  0.94699878D-04  0.14708374D-03  0.21070170D-03  0.27821196D-03
  0.30082966D-03  0.23585435D-03  0.11736034D-04 -0.20218681D-03 -0.20930083D-03
  0.94711586D-04 -0.73652697D-04 -0.18343776D-04 -0.11538173D-03 -0.14719421D-02
 -0.19388781D-02 -0.21390367D-02 -0.17767159D-02 -0.94365697D-03 -0.24339666D-03
  0.25020349D-06 -0.42250956D-10 -0.55653991D-10 -0.61399390D-10 -0.50999251D-10
 -0.27086941D-10 -0.69865122D-11  0.71818970D-14  0.16705477D-07  0.22004862D-07
  0.24276518D-07  0.20164439D-07  0.10709823D-07  0.27623758D-08 -0.28396284D-11
  0.13894802D-02  0.18242857D-02  0.20770835D-02  0.17587890D-02  0.10075020D-02
  0.22917176D-03 -0.10726500D-03  0.35843394D-10  0.47059749D-10  0.53580986D-10
  0.45370179D-10  0.25989785D-10  0.59117744D-11 -0.27670358D-11 -0.14446653D-07
 -0.18967397D-07 -0.21595777D-07 -0.18286417D-07 -0.10475164D-07 -0.23827363D-08
  0.11152517D-08  0.11337126D-04  0.31806786D-11 -0.10120390D-08 -0.54220207D-04
  0.89266276D-12 -0.17234273D-09  0.67449587D-05  0.75965830D-13 -0.49737410D-11
  0.36787617D-04 -0.22113620D-04 -0.14673997D-04 -0.12020333D-11 -0.73427706D-10
  0.48140344D-17  0.40937555D-04 -0.25797227D-04 -0.15140328D-04  0.14541543D-11
 -0.69955490D-09 -0.14977008D-17  0.21780487D-04 -0.10712579D-04 -0.11067909D-04
 -0.50818416D-12  0.70749731D-10  0.62431117D-19 -0.57710583D-05  0.70318526D-13
 -0.14940319D-09  0.52858949D-04 -0.17329107D-11  0.64985465D-09 -0.35545774D-04
  0.15219551D-11 -0.20164509D-09 -0.10628524D-16 -0.12789932D-04  0.71063989D-13
  0.15560046D-10  0.20569595D-04  0.35345843D-12  0.27658643D-10  0.17800200D-04
 -0.56665040D-12 -0.74338782D-10 -0.37380677D-19 -0.25872289D-04 -0.48407153D-04
 -0.83636836D-04 -0.13558507D-03 -0.20589674D-03 -0.28617225D-03 -0.34021753D-03
 -0.30303960D-03 -0.15043793D-03 -0.24237961D-04 -0.37211727D-06 -0.66496991D-07
 -0.24848888D-08  0.32701110D-04  0.61080978D-04  0.10600900D-03  0.17200953D-03
  0.26625032D-03  0.38111314D-03  0.49747170D-03  0.53013910D-03  0.39628974D-03
  0.20919431D-04 -0.26880431D-03 -0.15970064D-03  0.59875768D-06 -0.16700436D-04
 -0.31168958D-04 -0.54168905D-04 -0.87791860D-04 -0.13635450D-03 -0.19533176D-03
 -0.25791739D-03 -0.27888521D-03 -0.21864962D-03 -0.10879933D-04  0.18743800D-03
  0.19403308D-03 -0.87802714D-04  0.58344255D-04 -0.26936573D-04  0.17110831D-04
  0.36283863D-03  0.47793991D-03  0.52727968D-03  0.43796639D-03  0.23261459D-03
  0.59998087D-04 -0.61675994D-07 -0.17624603D-10 -0.23215558D-10 -0.25612199D-10
 -0.21273876D-10 -0.11299072D-10 -0.29143603D-11  0.29958633D-14  0.12344653D-02
  0.16260679D-02  0.17939338D-02  0.14900682D-02  0.79141143D-03  0.20412810D-03
 -0.20983674D-06 -0.32032358D-03 -0.42056138D-03 -0.47884007D-03 -0.40546211D-03
 -0.23226431D-03 -0.52832071D-04  0.24728317D-04  0.15559018D-10  0.20427850D-10
  0.23258611D-10  0.19694436D-10  0.11281731D-10  0.25662025D-11 -0.12011240D-11
 -0.10971460D-02 -0.14404722D-02 -0.16400836D-02 -0.13887554D-02 -0.79553258D-03
 -0.18095606D-03  0.84697396D-04 -0.19630956D-04  0.95376001D-12 -0.63305886D-04
 -0.26000464D-04  0.12634039D-11 -0.53021416D-04 -0.56797887D-06  0.27481021D-13
 -0.10770309D-05  0.25338595D-04 -0.50414274D-05 -0.20297168D-04  0.14768440D-11
 -0.31410133D-04  0.15265642D-11 -0.42253830D-05  0.61285493D-05 -0.19031663D-05
 -0.50340897D-12  0.57906550D-05 -0.28207283D-12 -0.99850237D-05 -0.68983826D-05
  0.16883406D-04 -0.15005323D-12  0.12811692D-04 -0.62191017D-12 -0.23201396D-04
  0.57822035D-12  0.27271721D-04  0.21981957D-04  0.57672539D-12 -0.70287049D-04
  0.47622230D-04 -0.23113864D-11 -0.11528114D-04 -0.28555524D-11  0.90869353D-05
 -0.23905907D-12 -0.10345675D-04 -0.75741196D-05 -0.23849886D-12  0.29130315D-04
 -0.19686686D-04  0.95567606D-12  0.19067091D-05  0.13231632D-11 -0.25870243D-04
 -0.48403324D-04 -0.83630222D-04 -0.13557434D-03 -0.20588046D-03 -0.28614962D-03
 -0.34019062D-03 -0.30301564D-03 -0.15042604D-03 -0.24236045D-04 -0.37208784D-06
 -0.66491732D-07 -0.24846923D-08  0.32701127D-04  0.61081010D-04  0.10600906D-03
  0.17200962D-03  0.26625046D-03  0.38111334D-03  0.49747195D-03  0.53013938D-03
  0.39628995D-03  0.20919442D-04 -0.26880445D-03 -0.15970073D-03  0.59875799D-06
 -0.16700448D-04 -0.31168981D-04 -0.54168945D-04 -0.87791925D-04 -0.13635460D-03
 -0.19533191D-03 -0.25791758D-03 -0.27888541D-03 -0.21864978D-03 -0.10879941D-04
  0.18743814D-03  0.19403322D-03 -0.87802779D-04  0.58344213D-04 -0.26936484D-04
  0.17110952D-04  0.36283672D-03  0.47793739D-03  0.52727691D-03  0.43796408D-03
  0.23261336D-03  0.59997772D-04 -0.61675670D-07 -0.17624770D-10 -0.23215778D-10
 -0.25612442D-10 -0.21274077D-10 -0.11299179D-10 -0.29143879D-11  0.29958917D-14
 -0.12344654D-02 -0.16260680D-02 -0.17939339D-02 -0.14900683D-02 -0.79141150D-03
 -0.20412811D-03  0.20983676D-06 -0.32032221D-03 -0.42055958D-03 -0.47883802D-03
 -0.40546037D-03 -0.23226331D-03 -0.52831845D-04  0.24728211D-04  0.15559178D-10
  0.20428060D-10  0.23258849D-10  0.19694638D-10  0.11281847D-10  0.25662288D-11
 -0.12011363D-11  0.10971462D-02  0.14404725D-02  0.16400839D-02  0.13887557D-02
  0.79553274D-03  0.18095610D-03 -0.84697413D-04 -0.19630657D-04  0.95376341D-12
  0.63305777D-04 -0.26000611D-04  0.12634223D-11  0.53021474D-04 -0.56797537D-06
  0.27481498D-13  0.10770520D-05  0.25338680D-04 -0.50413975D-05 -0.20297282D-04
  0.14768512D-11  0.31410964D-04 -0.15265963D-11 -0.42254353D-05  0.61285323D-05
 -0.19030970D-05 -0.50341140D-12 -0.57910413D-05  0.28208429D-12 -0.99850206D-05
 -0.68983902D-05  0.16883411D-04 -0.15005423D-12 -0.12811766D-04  0.62192154D-12