 Molden2AIM, Version 4.0.0 (06/02/2016)           Time: Thu Jun 28 21:38:07 2018
GAUSSIAN             26 MOL ORBITALS    450 PRIMITIVES        6 NUCLEI
  N    1    (CENTRE  1)   0.00049322  0.00000000  0.00000000  CHARGE =  7.0
  F    2    (CENTRE  2)  -1.29186402  2.23061004  0.00000000  CHARGE =  9.0
  F    3    (CENTRE  3)  -1.29186402 -2.23061004  0.00000000  CHARGE =  9.0
  F    4    (CENTRE  4)   2.58003363  0.00000000  0.00000000  CHARGE =  9.0
  F    5    (CENTRE  5)   0.00160060  0.00000000  2.97491836  CHARGE =  9.0
  F    6    (CENTRE  6)   0.00160060  0.00000000 -2.97491836  CHARGE =  9.0
CENTRE ASSIGNMENTS    1  1  1  1  1  1  1  1  1  1  1  1  1  1  1  1  1  1  1  1
CENTRE ASSIGNMENTS    1  1  1  1  1  1  1  1  1  1  1  1  1  1  1  1  1  1  1  1
CENTRE ASSIGNMENTS    1  1  1  1  1  1  1  1  1  1  1  1  1  1  1  1  1  1  1  1
CENTRE ASSIGNMENTS    1  1  1  1  1  1  1  1  1  1  1  1  1  1  1  2  2  2  2  2
CENTRE ASSIGNMENTS    2  2  2  2  2  2  2  2  2  2  2  2  2  2  2  2  2  2  2  2
CENTRE ASSIGNMENTS    2  2  2  2  2  2  2  2  2  2  2  2  2  2  2  2  2  2  2  2
CENTRE ASSIGNMENTS    2  2  2  2  2  2  2  2  2  2  2  2  2  2  2  2  2  2  2  2
CENTRE ASSIGNMENTS    2  2  2  2  2  2  2  2  2  2  3  3  3  3  3  3  3  3  3  3
CENTRE ASSIGNMENTS    3  3  3  3  3  3  3  3  3  3  3  3  3  3  3  3  3  3  3  3
CENTRE ASSIGNMENTS    3  3  3  3  3  3  3  3  3  3  3  3  3  3  3  3  3  3  3  3
CENTRE ASSIGNMENTS    3  3  3  3  3  3  3  3  3  3  3  3  3  3  3  3  3  3  3  3
CENTRE ASSIGNMENTS    3  3  3  3  3  4  4  4  4  4  4  4  4  4  4  4  4  4  4  4
CENTRE ASSIGNMENTS    4  4  4  4  4  4  4  4  4  4  4  4  4  4  4  4  4  4  4  4
CENTRE ASSIGNMENTS    4  4  4  4  4  4  4  4  4  4  4  4  4  4  4  4  4  4  4  4
CENTRE ASSIGNMENTS    4  4  4  4  4  4  4  4  4  4  4  4  4  4  4  4  4  4  4  4
CENTRE ASSIGNMENTS    5  5  5  5  5  5  5  5  5  5  5  5  5  5  5  5  5  5  5  5
CENTRE ASSIGNMENTS    5  5  5  5  5  5  5  5  5  5  5  5  5  5  5  5  5  5  5  5
CENTRE ASSIGNMENTS    5  5  5  5  5  5  5  5  5  5  5  5  5  5  5  5  5  5  5  5
CENTRE ASSIGNMENTS    5  5  5  5  5  5  5  5  5  5  5  5  5  5  5  6  6  6  6  6
CENTRE ASSIGNMENTS    6  6  6  6  6  6  6  6  6  6  6  6  6  6  6  6  6  6  6  6
CENTRE ASSIGNMENTS    6  6  6  6  6  6  6  6  6  6  6  6  6  6  6  6  6  6  6  6
CENTRE ASSIGNMENTS    6  6  6  6  6  6  6  6  6  6  6  6  6  6  6  6  6  6  6  6
CENTRE ASSIGNMENTS    6  6  6  6  6  6  6  6  6  6
TYPE ASSIGNMENTS      1  1  1  1  1  1  1  1  1  1  1  1  1  1  1  1  1  1  1  2
TYPE ASSIGNMENTS      2  2  3  3  3  4  4  4  2  3  4  2  3  4  2  3  4  5  6  7
TYPE ASSIGNMENTS      8  9 10  5  6  7  8  9 10  5  6  7  8  9 10 11 12 13 17 14
TYPE ASSIGNMENTS     15 18 19 16 20 11 12 13 17 14 15 18 19 16 20  1  1  1  1  1
TYPE ASSIGNMENTS      1  1  1  1  1  1  1  1  1  1  1  1  1  1  2  2  2  3  3  3
TYPE ASSIGNMENTS      4  4  4  2  3  4  2  3  4  2  3  4  5  6  7  8  9 10  5  6
TYPE ASSIGNMENTS      7  8  9 10  5  6  7  8  9 10 11 12 13 17 14 15 18 19 16 20
TYPE ASSIGNMENTS     11 12 13 17 14 15 18 19 16 20  1  1  1  1  1  1  1  1  1  1
TYPE ASSIGNMENTS      1  1  1  1  1  1  1  1  1  2  2  2  3  3  3  4  4  4  2  3
TYPE ASSIGNMENTS      4  2  3  4  2  3  4  5  6  7  8  9 10  5  6  7  8  9 10  5
TYPE ASSIGNMENTS      6  7  8  9 10 11 12 13 17 14 15 18 19 16 20 11 12 13 17 14
TYPE ASSIGNMENTS     15 18 19 16 20  1  1  1  1  1  1  1  1  1  1  1  1  1  1  1
TYPE ASSIGNMENTS      1  1  1  1  2  2  2  3  3  3  4  4  4  2  3  4  2  3  4  2
TYPE ASSIGNMENTS      3  4  5  6  7  8  9 10  5  6  7  8  9 10  5  6  7  8  9 10
TYPE ASSIGNMENTS     11 12 13 17 14 15 18 19 16 20 11 12 13 17 14 15 18 19 16 20
TYPE ASSIGNMENTS      1  1  1  1  1  1  1  1  1  1  1  1  1  1  1  1  1  1  1  2
TYPE ASSIGNMENTS      2  2  3  3  3  4  4  4  2  3  4  2  3  4  2  3  4  5  6  7
TYPE ASSIGNMENTS      8  9 10  5  6  7  8  9 10  5  6  7  8  9 10 11 12 13 17 14
TYPE ASSIGNMENTS     15 18 19 16 20 11 12 13 17 14 15 18 19 16 20  1  1  1  1  1
TYPE ASSIGNMENTS      1  1  1  1  1  1  1  1  1  1  1  1  1  1  2  2  2  3  3  3
TYPE ASSIGNMENTS      4  4  4  2  3  4  2  3  4  2  3  4  5  6  7  8  9 10  5  6
TYPE ASSIGNMENTS      7  8  9 10  5  6  7  8  9 10 11 12 13 17 14 15 18 19 16 20
TYPE ASSIGNMENTS     11 12 13 17 14 15 18 19 16 20
EXPONENTS  0.1142000D+05 0.1712000D+04 0.3893000D+03 0.1100000D+03 0.3557000D+02
EXPONENTS  0.1254000D+02 0.4644000D+01 0.5118000D+00 0.1142000D+05 0.1712000D+04
EXPONENTS  0.3893000D+03 0.1100000D+03 0.3557000D+02 0.1254000D+02 0.4644000D+01
EXPONENTS  0.5118000D+00 0.1293000D+01 0.1787000D+00 0.5760000D-01 0.2663000D+02
EXPONENTS  0.5948000D+01 0.1742000D+01 0.2663000D+02 0.5948000D+01 0.1742000D+01
EXPONENTS  0.2663000D+02 0.5948000D+01 0.1742000D+01 0.5550000D+00 0.5550000D+00
EXPONENTS  0.5550000D+00 0.1725000D+00 0.1725000D+00 0.1725000D+00 0.4910000D-01
EXPONENTS  0.4910000D-01 0.4910000D-01 0.1654000D+01 0.1654000D+01 0.1654000D+01
EXPONENTS  0.1654000D+01 0.1654000D+01 0.1654000D+01 0.4690000D+00 0.4690000D+00
EXPONENTS  0.4690000D+00 0.4690000D+00 0.4690000D+00 0.4690000D+00 0.1510000D+00
EXPONENTS  0.1510000D+00 0.1510000D+00 0.1510000D+00 0.1510000D+00 0.1510000D+00
EXPONENTS  0.1093000D+01 0.1093000D+01 0.1093000D+01 0.1093000D+01 0.1093000D+01
EXPONENTS  0.1093000D+01 0.1093000D+01 0.1093000D+01 0.1093000D+01 0.1093000D+01
EXPONENTS  0.3640000D+00 0.3640000D+00 0.3640000D+00 0.3640000D+00 0.3640000D+00
EXPONENTS  0.3640000D+00 0.3640000D+00 0.3640000D+00 0.3640000D+00 0.3640000D+00
EXPONENTS  0.1950000D+05 0.2923000D+04 0.6645000D+03 0.1875000D+03 0.6062000D+02
EXPONENTS  0.2142000D+02 0.7950000D+01 0.8815000D+00 0.1950000D+05 0.2923000D+04
EXPONENTS  0.6645000D+03 0.1875000D+03 0.6062000D+02 0.2142000D+02 0.7950000D+01
EXPONENTS  0.8815000D+00 0.2257000D+01 0.3041000D+00 0.9158000D-01 0.4388000D+02
EXPONENTS  0.9926000D+01 0.2930000D+01 0.4388000D+02 0.9926000D+01 0.2930000D+01
EXPONENTS  0.4388000D+02 0.9926000D+01 0.2930000D+01 0.9132000D+00 0.9132000D+00
EXPONENTS  0.9132000D+00 0.2672000D+00 0.2672000D+00 0.2672000D+00 0.7361000D-01
EXPONENTS  0.7361000D-01 0.7361000D-01 0.3107000D+01 0.3107000D+01 0.3107000D+01
EXPONENTS  0.3107000D+01 0.3107000D+01 0.3107000D+01 0.8550000D+00 0.8550000D+00
EXPONENTS  0.8550000D+00 0.8550000D+00 0.8550000D+00 0.8550000D+00 0.2920000D+00
EXPONENTS  0.2920000D+00 0.2920000D+00 0.2920000D+00 0.2920000D+00 0.2920000D+00
EXPONENTS  0.1917000D+01 0.1917000D+01 0.1917000D+01 0.1917000D+01 0.1917000D+01
EXPONENTS  0.1917000D+01 0.1917000D+01 0.1917000D+01 0.1917000D+01 0.1917000D+01
EXPONENTS  0.7240000D+00 0.7240000D+00 0.7240000D+00 0.7240000D+00 0.7240000D+00
EXPONENTS  0.7240000D+00 0.7240000D+00 0.7240000D+00 0.7240000D+00 0.7240000D+00
EXPONENTS  0.1950000D+05 0.2923000D+04 0.6645000D+03 0.1875000D+03 0.6062000D+02
EXPONENTS  0.2142000D+02 0.7950000D+01 0.8815000D+00 0.1950000D+05 0.2923000D+04
EXPONENTS  0.6645000D+03 0.1875000D+03 0.6062000D+02 0.2142000D+02 0.7950000D+01
EXPONENTS  0.8815000D+00 0.2257000D+01 0.3041000D+00 0.9158000D-01 0.4388000D+02
EXPONENTS  0.9926000D+01 0.2930000D+01 0.4388000D+02 0.9926000D+01 0.2930000D+01
EXPONENTS  0.4388000D+02 0.9926000D+01 0.2930000D+01 0.9132000D+00 0.9132000D+00
EXPONENTS  0.9132000D+00 0.2672000D+00 0.2672000D+00 0.2672000D+00 0.7361000D-01
EXPONENTS  0.7361000D-01 0.7361000D-01 0.3107000D+01 0.3107000D+01 0.3107000D+01
EXPONENTS  0.3107000D+01 0.3107000D+01 0.3107000D+01 0.8550000D+00 0.8550000D+00
EXPONENTS  0.8550000D+00 0.8550000D+00 0.8550000D+00 0.8550000D+00 0.2920000D+00
EXPONENTS  0.2920000D+00 0.2920000D+00 0.2920000D+00 0.2920000D+00 0.2920000D+00
EXPONENTS  0.1917000D+01 0.1917000D+01 0.1917000D+01 0.1917000D+01 0.1917000D+01
EXPONENTS  0.1917000D+01 0.1917000D+01 0.1917000D+01 0.1917000D+01 0.1917000D+01
EXPONENTS  0.7240000D+00 0.7240000D+00 0.7240000D+00 0.7240000D+00 0.7240000D+00
EXPONENTS  0.7240000D+00 0.7240000D+00 0.7240000D+00 0.7240000D+00 0.7240000D+00
EXPONENTS  0.1950000D+05 0.2923000D+04 0.6645000D+03 0.1875000D+03 0.6062000D+02
EXPONENTS  0.2142000D+02 0.7950000D+01 0.8815000D+00 0.1950000D+05 0.2923000D+04
EXPONENTS  0.6645000D+03 0.1875000D+03 0.6062000D+02 0.2142000D+02 0.7950000D+01
EXPONENTS  0.8815000D+00 0.2257000D+01 0.3041000D+00 0.9158000D-01 0.4388000D+02
EXPONENTS  0.9926000D+01 0.2930000D+01 0.4388000D+02 0.9926000D+01 0.2930000D+01
EXPONENTS  0.4388000D+02 0.9926000D+01 0.2930000D+01 0.9132000D+00 0.9132000D+00
EXPONENTS  0.9132000D+00 0.2672000D+00 0.2672000D+00 0.2672000D+00 0.7361000D-01
EXPONENTS  0.7361000D-01 0.7361000D-01 0.3107000D+01 0.3107000D+01 0.3107000D+01
EXPONENTS  0.3107000D+01 0.3107000D+01 0.3107000D+01 0.8550000D+00 0.8550000D+00
EXPONENTS  0.8550000D+00 0.8550000D+00 0.8550000D+00 0.8550000D+00 0.2920000D+00
EXPONENTS  0.2920000D+00 0.2920000D+00 0.2920000D+00 0.2920000D+00 0.2920000D+00
EXPONENTS  0.1917000D+01 0.1917000D+01 0.1917000D+01 0.1917000D+01 0.1917000D+01
EXPONENTS  0.1917000D+01 0.1917000D+01 0.1917000D+01 0.1917000D+01 0.1917000D+01
EXPONENTS  0.7240000D+00 0.7240000D+00 0.7240000D+00 0.7240000D+00 0.7240000D+00
EXPONENTS  0.7240000D+00 0.7240000D+00 0.7240000D+00 0.7240000D+00 0.7240000D+00
EXPONENTS  0.1950000D+05 0.2923000D+04 0.6645000D+03 0.1875000D+03 0.6062000D+02
EXPONENTS  0.2142000D+02 0.7950000D+01 0.8815000D+00 0.1950000D+05 0.2923000D+04
EXPONENTS  0.6645000D+03 0.1875000D+03 0.6062000D+02 0.2142000D+02 0.7950000D+01
EXPONENTS  0.8815000D+00 0.2257000D+01 0.3041000D+00 0.9158000D-01 0.4388000D+02
EXPONENTS  0.9926000D+01 0.2930000D+01 0.4388000D+02 0.9926000D+01 0.2930000D+01
EXPONENTS  0.4388000D+02 0.9926000D+01 0.2930000D+01 0.9132000D+00 0.9132000D+00
EXPONENTS  0.9132000D+00 0.2672000D+00 0.2672000D+00 0.2672000D+00 0.7361000D-01
EXPONENTS  0.7361000D-01 0.7361000D-01 0.3107000D+01 0.3107000D+01 0.3107000D+01
EXPONENTS  0.3107000D+01 0.3107000D+01 0.3107000D+01 0.8550000D+00 0.8550000D+00
EXPONENTS  0.8550000D+00 0.8550000D+00 0.8550000D+00 0.8550000D+00 0.2920000D+00
EXPONENTS  0.2920000D+00 0.2920000D+00 0.2920000D+00 0.2920000D+00 0.2920000D+00
EXPONENTS  0.1917000D+01 0.1917000D+01 0.1917000D+01 0.1917000D+01 0.1917000D+01
EXPONENTS  0.1917000D+01 0.1917000D+01 0.1917000D+01 0.1917000D+01 0.1917000D+01
EXPONENTS  0.7240000D+00 0.7240000D+00 0.7240000D+00 0.7240000D+00 0.7240000D+00
EXPONENTS  0.7240000D+00 0.7240000D+00 0.7240000D+00 0.7240000D+00 0.7240000D+00
EXPONENTS  0.1950000D+05 0.2923000D+04 0.6645000D+03 0.1875000D+03 0.6062000D+02
EXPONENTS  0.2142000D+02 0.7950000D+01 0.8815000D+00 0.1950000D+05 0.2923000D+04
EXPONENTS  0.6645000D+03 0.1875000D+03 0.6062000D+02 0.2142000D+02 0.7950000D+01
EXPONENTS  0.8815000D+00 0.2257000D+01 0.3041000D+00 0.9158000D-01 0.4388000D+02
EXPONENTS  0.9926000D+01 0.2930000D+01 0.4388000D+02 0.9926000D+01 0.2930000D+01
EXPONENTS  0.4388000D+02 0.9926000D+01 0.2930000D+01 0.9132000D+00 0.9132000D+00
EXPONENTS  0.9132000D+00 0.2672000D+00 0.2672000D+00 0.2672000D+00 0.7361000D-01
EXPONENTS  0.7361000D-01 0.7361000D-01 0.3107000D+01 0.3107000D+01 0.3107000D+01
EXPONENTS  0.3107000D+01 0.3107000D+01 0.3107000D+01 0.8550000D+00 0.8550000D+00
EXPONENTS  0.8550000D+00 0.8550000D+00 0.8550000D+00 0.8550000D+00 0.2920000D+00
EXPONENTS  0.2920000D+00 0.2920000D+00 0.2920000D+00 0.2920000D+00 0.2920000D+00
EXPONENTS  0.1917000D+01 0.1917000D+01 0.1917000D+01 0.1917000D+01 0.1917000D+01
EXPONENTS  0.1917000D+01 0.1917000D+01 0.1917000D+01 0.1917000D+01 0.1917000D+01
EXPONENTS  0.7240000D+00 0.7240000D+00 0.7240000D+00 0.7240000D+00 0.7240000D+00
EXPONENTS  0.7240000D+00 0.7240000D+00 0.7240000D+00 0.7240000D+00 0.7240000D+00
MO    1     MO 0.0        OCC NO =    2.0000000  ORB. ENERGY =  -24.630946
  0.65614428D-09  0.12226283D-08  0.20677709D-08  0.31139484D-08  0.38552701D-08
  0.32806609D-08  0.12483520D-08 -0.58465649D-11 -0.35299563D-09 -0.66187011D-09
 -0.11260380D-08 -0.17486181D-08 -0.23205179D-08 -0.24455073D-08 -0.15163706D-08
  0.10086903D-08 -0.47312555D-08  0.21097438D-07  0.30013641D-08  0.46055199D-08
  0.44235468D-08  0.31020963D-08  0.11020581D-02  0.10585136D-02  0.74230280D-03
 -0.13674630D-15 -0.13134319D-15 -0.92106911D-16 -0.53669979D-08 -0.12854499D-02
 -0.13806802D-16 -0.47262686D-08 -0.11239178D-02  0.37334306D-15 -0.30082399D-10
 -0.68910434D-05 -0.27284024D-16 -0.10571705D-08  0.14782543D-08 -0.42108379D-09
  0.60702106D-03 -0.30113407D-15 -0.12889263D-14  0.30829827D-09  0.50612981D-08
 -0.53695964D-08  0.11558909D-02  0.57264261D-16  0.11804239D-14 -0.40137595D-09
  0.38467225D-09  0.16703698D-10  0.18969471D-03  0.32761246D-16 -0.56473281D-16
  0.22497009D-08 -0.35230417D-03 -0.10726200D-15 -0.12665121D-07 -0.36073736D-03
  0.14874981D-15  0.59160178D-08  0.14176499D-02  0.17303618D-15 -0.29405642D-14
  0.78393969D-09  0.66584384D-04  0.63190112D-16 -0.12297891D-08  0.69938695D-04
 -0.94206391D-16 -0.11220300D-08 -0.26969185D-03 -0.95363945D-16 -0.51919139D-15
 -0.42130578D+00 -0.78533222D+00 -0.13313312D+01 -0.20160278D+01 -0.25210498D+01
 -0.21703891D+01 -0.83437679D+00  0.36154912D-02  0.25303187D-03  0.47514904D-03
  0.80909687D-03  0.12674455D-02  0.16985260D-02  0.18269937D-02  0.10969246D-02
 -0.72138380D-03 -0.42968752D-01  0.11115060D-02  0.38883774D-03 -0.26065611D-02
 -0.25491598D-02 -0.16843377D-02  0.46278383D-02  0.45259248D-02  0.29904699D-02
  0.36655140D-13  0.35847926D-13  0.23686240D-13  0.39416905D-03 -0.79502724D-03
 -0.11150662D-14  0.34133227D-03 -0.58542174D-03 -0.15849107D-15  0.15875948D-04
 -0.38888406D-04  0.96365047D-17  0.40762311D-03 -0.20128474D-04 -0.38749464D-03
  0.38661881D-03  0.20762583D-13 -0.35927891D-13 -0.20908722D-03  0.39503797D-03
 -0.18595075D-03 -0.79331493D-03 -0.11129330D-14  0.20077497D-14 -0.32579557D-05
  0.61304739D-04 -0.58046783D-04 -0.14623449D-03 -0.34955402D-16  0.98176095D-16
  0.10520646D-03 -0.55388243D-04 -0.17593208D-14 -0.26456866D-03  0.72074432D-04
 -0.32056914D-15 -0.51050711D-04  0.94090297D-04  0.55985317D-14 -0.98983365D-14
 -0.13943185D-03 -0.53920231D-04  0.20160163D-15  0.51564687D-03 -0.42501763D-04
  0.13756868D-15 -0.97351325D-04  0.20426246D-03 -0.74237356D-15  0.13230828D-14
  0.42131186D+00  0.78534356D+00  0.13313504D+01  0.20160569D+01  0.25210862D+01
  0.21704204D+01  0.83438884D+00 -0.36155434D-02 -0.25303595D-03 -0.47515671D-03
 -0.80910993D-03 -0.12674659D-02 -0.16985534D-02 -0.18270232D-02 -0.10969424D-02
  0.72139544D-03  0.42969372D-01 -0.11115257D-02 -0.38884542D-03  0.26066004D-02
  0.25491983D-02  0.16843631D-02  0.46279042D-02  0.45259892D-02  0.29905124D-02
 -0.36786659D-13 -0.35976549D-13 -0.23771227D-13 -0.39417646D-03 -0.79503833D-03
  0.12513892D-14 -0.34134002D-03 -0.58543515D-03  0.13837469D-15 -0.15876329D-04
 -0.38888901D-04  0.58904451D-16 -0.40762597D-03  0.20127396D-04  0.38749857D-03
  0.38662702D-03 -0.20742310D-13 -0.35832000D-13  0.20908833D-03 -0.39504278D-03
  0.18595445D-03 -0.79332905D-03  0.11771231D-14  0.20746581D-14  0.32583605D-05
 -0.61306604D-04  0.58048244D-04 -0.14623798D-03  0.24815489D-16  0.11094483D-15
 -0.10520593D-03 -0.55387664D-04  0.18685307D-14  0.26456732D-03  0.72073197D-04
 -0.18848309D-16  0.51050468D-04  0.94089796D-04 -0.55867438D-14 -0.89821100D-14
  0.13943318D-03 -0.53921210D-04 -0.24392581D-15 -0.51565358D-03 -0.42503000D-04
 -0.62677003D-16  0.97354048D-04  0.20426663D-03  0.79445443D-15  0.12138040D-14
 -0.91236961D-10 -0.17006965D-09 -0.28830987D-09 -0.43658611D-09 -0.54595246D-09
 -0.47001421D-09 -0.18069062D-09  0.78296204D-12 -0.20998484D-09 -0.39431434D-09
 -0.67144932D-09 -0.10518214D-08 -0.14095644D-08 -0.15161766D-08 -0.91031041D-09
  0.59865843D-09 -0.17798173D-09 -0.17888929D-08 -0.10304716D-08 -0.10854455D-10
 -0.10615420D-10 -0.70140569D-11  0.13392699D-03  0.13097767D-03  0.86542483D-04
 -0.94417068D-17 -0.92337830D-17 -0.61011509D-17  0.27279236D-09 -0.11631444D-03
  0.10797218D-16  0.28507913D-08 -0.24978141D-05 -0.26284013D-17  0.10473694D-10
 -0.11458338D-04  0.37937283D-16  0.44256024D-09  0.38366739D-09 -0.82622763D-09
 -0.36751702D-03 -0.17371324D-15 -0.15337899D-15 -0.48949396D-09 -0.18638749D-10
  0.50813270D-09  0.26610666D-03  0.30910331D-16  0.70179233D-16 -0.62664433D-09
  0.31498049D-09  0.31166384D-09 -0.29176993D-04 -0.41060218D-16  0.53810977D-16
  0.61878700D-09  0.57131637D-04  0.18952944D-16 -0.28988907D-08 -0.17513302D-03
  0.14925183D-16  0.10425297D-08  0.37381132D-05 -0.71784015D-16  0.68264677D-15
  0.46568047D-10  0.15288690D-06 -0.69182513D-17  0.71762220D-09 -0.38004757D-04
  0.32755102D-16 -0.85732634D-09  0.37546097D-04 -0.12000348D-16 -0.25619172D-15
  0.39185110D-09  0.73042742D-09  0.12382540D-08  0.18750816D-08  0.23447961D-08
  0.20186510D-08  0.77604314D-09 -0.33627220D-11 -0.24735325D-09 -0.46448560D-09
 -0.79093887D-09 -0.12390011D-08 -0.16604072D-08 -0.17859918D-08 -0.10723071D-08
  0.70519428D-09 -0.28022303D-09 -0.19149581D-08 -0.27250106D-09 -0.27479580D-09
 -0.26874429D-09 -0.17757072D-09 -0.67055606D-04 -0.65578918D-04 -0.43330764D-04
  0.14938413D-09  0.14609442D-09  0.96530760D-10 -0.71874839D-10 -0.16039963D-04
 -0.16345023D-09  0.10850415D-08  0.25839912D-03  0.63193591D-09 -0.29521559D-10
 -0.71636657D-05 -0.64039628D-10  0.97097220D-10  0.46879046D-09 -0.56588768D-09
  0.90869689D-04  0.28893746D-08  0.69317902D-03 -0.18521673D-09 -0.30334297D-09
  0.48855970D-09 -0.29025057D-04 -0.12220681D-08 -0.29360850D-03 -0.58020837D-10
 -0.14306009D-09  0.20108093D-09 -0.20496468D-04 -0.75654160D-09 -0.18035562D-03
 -0.20748770D-09  0.90526672D-04  0.13674394D-08  0.21364147D-08  0.91572375D-04
 -0.25736530D-08 -0.15139516D-08 -0.36315239D-03 -0.15286652D-08  0.25228629D-03
 -0.14855995D-09 -0.68172867D-04 -0.73056984D-09 -0.69267255D-09 -0.68424942D-04
  0.10750479D-08  0.11383524D-08  0.27294354D-03  0.11166617D-08  0.10538544D-04
  0.39184939D-09  0.73042423D-09  0.12382486D-08  0.18750734D-08  0.23447858D-08
  0.20186422D-08  0.77603976D-09 -0.33627073D-11 -0.24735345D-09 -0.46448596D-09
 -0.79093949D-09 -0.12390020D-08 -0.16604085D-08 -0.17859932D-08 -0.10723080D-08
  0.70519484D-09 -0.28022396D-09 -0.19149580D-08 -0.27250055D-09 -0.27479561D-09
 -0.26874411D-09 -0.17757060D-09 -0.67055606D-04 -0.65578918D-04 -0.43330764D-04
 -0.14938426D-09 -0.14609455D-09 -0.96530843D-10 -0.71874999D-10 -0.16039963D-04
  0.16345024D-09  0.10850416D-08  0.25839912D-03 -0.63193547D-09 -0.29521552D-10
 -0.71636657D-05  0.64039726D-10  0.97096805D-10  0.46879006D-09 -0.56588687D-09
  0.90869689D-04 -0.28893741D-08 -0.69317902D-03 -0.18521669D-09 -0.30334294D-09
  0.48855963D-09 -0.29025057D-04  0.12220679D-08  0.29360850D-03 -0.58020876D-10
 -0.14306014D-09  0.20108102D-09 -0.20496468D-04  0.75654170D-09  0.18035562D-03
 -0.20748765D-09  0.90526672D-04 -0.13674393D-08  0.21364148D-08  0.91572375D-04
  0.25736527D-08 -0.15139519D-08 -0.36315239D-03  0.15286651D-08 -0.25228629D-03
 -0.14855997D-09 -0.68172867D-04  0.73056982D-09 -0.69267261D-09 -0.68424942D-04
 -0.10750478D-08  0.11383525D-08  0.27294354D-03 -0.11166617D-08 -0.10538544D-04
MO    2     MO 0.0        OCC NO =    2.0000000  ORB. ENERGY =  -24.630946
  0.90882786D-04  0.16934669D-03  0.28640771D-03  0.43131413D-03  0.53399488D-03
  0.45440554D-03  0.17290969D-03 -0.80980985D-06 -0.48893672D-04 -0.91676092D-04
 -0.15596831D-03 -0.24220232D-03 -0.32141656D-03 -0.33872894D-03 -0.21003355D-03
  0.13971440D-03 -0.65532254D-03  0.29221849D-02  0.41571541D-03  0.63790674D-03
  0.61270180D-03  0.42966879D-03 -0.79565596D-08 -0.76421804D-08 -0.53592244D-08
  0.84131750D-15  0.80807540D-15  0.56667825D-15 -0.74337832D-03  0.92806015D-08
 -0.58753667D-15 -0.65463018D-03  0.81143874D-08 -0.28333340D-15 -0.41667015D-05
  0.49747670D-10 -0.58845255D-16 -0.14642782D-03  0.20475352D-03 -0.58325695D-04
 -0.43825212D-08 -0.85654381D-15 -0.62308179D-16  0.42702613D-04  0.70103563D-03
 -0.74373825D-03 -0.83452212D-08  0.72454167D-15  0.26341019D-16 -0.55594676D-04
  0.53280016D-04  0.23146598D-05 -0.13695449D-08  0.44258566D-16  0.28162975D-16
  0.31160489D-03  0.25435395D-08  0.19475603D-15 -0.17542378D-02  0.26044248D-08
  0.91806398D-16  0.81942308D-03 -0.10235043D-07 -0.67607450D-15  0.72772307D-16
  0.10858260D-03 -0.48071870D-09  0.12240433D-16 -0.17033619D-03 -0.50494407D-09
  0.14150925D-15 -0.15541160D-03  0.19471002D-08 -0.17823055D-15 -0.36478099D-16
  0.42135678D+00  0.78542729D+00  0.13314924D+01  0.20162718D+01  0.25213550D+01
  0.21706518D+01  0.83447780D+00 -0.36159289D-02 -0.28283848D-03 -0.53112058D-03
 -0.90440674D-03 -0.14167478D-02 -0.18986087D-02 -0.20422097D-02 -0.12261400D-02
  0.80636126D-03  0.42949603D-01 -0.13634775D-02 -0.53182090D-03  0.27223945D-02
  0.26624424D-02  0.17591882D-02 -0.45618529D-02 -0.44613925D-02 -0.29478306D-02
 -0.36569639D-13 -0.35764308D-13 -0.23630990D-13 -0.51308988D-03  0.76762278D-03
  0.11028375D-14 -0.53678773D-03  0.92918567D-03  0.42705433D-16 -0.26410661D-04
  0.34304029D-04  0.35943508D-16 -0.19747659D-03 -0.74653889D-04  0.27213048D-03
 -0.56879773D-03 -0.20640261D-13  0.35086571D-13  0.76728130D-04 -0.33280939D-03
  0.25608126D-03  0.97788548D-03  0.10896086D-14 -0.16802014D-14  0.28034595D-04
 -0.12922024D-03  0.10118565D-03  0.24154570D-03 -0.31550636D-17  0.32816188D-17
  0.36551584D-04 -0.40079245D-04  0.19244597D-14 -0.92806233D-04  0.85511398D-04
 -0.59616961D-15 -0.16848520D-04  0.34726336D-04 -0.51772094D-14  0.85556116D-14
  0.92005312D-04  0.67800023D-04 -0.21884763D-15 -0.46460678D-03  0.85689593D-04
  0.14244403D-15  0.18859085D-03 -0.28908966D-03  0.51409887D-15 -0.88021223D-15
  0.42135070D+00  0.78541595D+00  0.13314731D+01  0.20162427D+01  0.25213186D+01
  0.21706205D+01  0.83446575D+00 -0.36158767D-02 -0.28283483D-03 -0.53111371D-03
 -0.90439506D-03 -0.14167295D-02 -0.18985842D-02 -0.20421833D-02 -0.12261242D-02
  0.80635084D-03  0.42948983D-01 -0.13634614D-02 -0.53181528D-03  0.27223569D-02
  0.26624056D-02  0.17591639D-02  0.45617861D-02  0.44613271D-02  0.29477875D-02
 -0.36575029D-13 -0.35769579D-13 -0.23634473D-13 -0.51308419D-03 -0.76761130D-03
  0.11252168D-14 -0.53678281D-03 -0.92917722D-03  0.87488439D-16 -0.26410432D-04
 -0.34303467D-04  0.21949542D-16 -0.19747070D-03 -0.74654180D-04  0.27212488D-03
  0.56879215D-03 -0.20695045D-13 -0.35305465D-13  0.76725111D-04 -0.33280368D-03
  0.25607857D-03 -0.97787403D-03  0.11160815D-14  0.17875379D-14  0.28034548D-04
 -0.12921936D-03  0.10118481D-03 -0.24154359D-03 -0.24125665D-17 -0.20695547D-16
  0.36553103D-04  0.40080044D-04  0.19488044D-14 -0.92810053D-04 -0.85512439D-04
 -0.68973839D-15 -0.16849257D-04 -0.34727694D-04 -0.51566747D-14 -0.83747358D-14
  0.92003298D-04 -0.67799245D-04 -0.22942737D-15 -0.46459934D-03 -0.85688980D-04
  0.16672609D-15  0.18858944D-03  0.28908671D-03  0.52155603D-15  0.84149794D-15
 -0.12404501D-04 -0.23122528D-04 -0.39198369D-04 -0.59357883D-04 -0.74227241D-04
 -0.63902740D-04 -0.24566546D-04  0.10645087D-06 -0.29085100D-04 -0.54616666D-04
 -0.93002763D-04 -0.14568828D-03 -0.19523943D-03 -0.21000633D-03 -0.12608753D-03
  0.82920462D-04 -0.24628466D-04 -0.24777772D-03 -0.14272879D-03 -0.15063256D-05
 -0.14731535D-05 -0.97337481D-06 -0.96692100D-09 -0.94562762D-09 -0.62481615D-09
  0.28427919D-15  0.27801884D-15  0.18369880D-15  0.37784274D-04  0.83976197D-09
 -0.18902828D-15  0.39486091D-03  0.18035404D-10 -0.86704067D-16  0.14506537D-05
  0.82728473D-10  0.20223460D-16  0.61298444D-04  0.53141917D-04 -0.11444036D-03
  0.26533727D-08 -0.88421596D-15 -0.64600247D-16 -0.67799500D-04 -0.25818451D-05
  0.70381345D-04 -0.19212187D-08  0.46671217D-15  0.29537524D-16 -0.86796172D-04
  0.43627944D-04  0.43168228D-04  0.21064623D-09  0.36219042D-16 -0.91320435D-17
  0.85707449D-04 -0.41247223D-09  0.73595508D-17 -0.40152271D-03  0.12644024D-08
  0.27582934D-15  0.14440037D-03 -0.26985703D-10 -0.29790799D-15 -0.12363304D-16
  0.64502909D-05 -0.11051982D-11  0.33282851D-16  0.99397025D-04  0.27438928D-09
 -0.24060490D-15 -0.11874790D-03 -0.27107369D-09  0.14075634D-15 -0.40062902D-17
  0.54275662D-04  0.10117219D-03  0.17151173D-03  0.25971930D-03  0.32477990D-03
  0.27960524D-03  0.10749046D-03 -0.46577377D-06 -0.34260943D-04 -0.64335983D-04
 -0.10955308D-03 -0.17161426D-03 -0.22998329D-03 -0.24737804D-03 -0.14852545D-03
  0.97676585D-04 -0.38813589D-04 -0.26524120D-03 -0.37745534D-04 -0.38061734D-04
 -0.37223544D-04 -0.24595170D-04  0.48412381D-09  0.47346252D-09  0.31283670D-09
  0.20691092D-04  0.20235436D-04  0.13370408D-04 -0.99553535D-05  0.11580332D-09
 -0.22639343D-04  0.15028822D-03 -0.18655699D-08  0.87529413D-04 -0.40889596D-05
  0.51721450D-10 -0.88698083D-05  0.13448534D-04  0.64931340D-04 -0.78379875D-04
 -0.65605935D-09  0.40020531D-03 -0.50045645D-08 -0.25654102D-04 -0.42015599D-04
  0.67669701D-04  0.20955525D-09 -0.16926778D-03  0.21197740D-08 -0.80364934D-05
 -0.19815260D-04  0.27851753D-04  0.14797772D-09 -0.10478797D-03  0.13021169D-08
 -0.28739098D-04 -0.65357738D-09  0.18940347D-03  0.29591356D-03 -0.66112609D-09
 -0.35647526D-03 -0.20969627D-03  0.26218582D-08 -0.21173515D-03 -0.18214411D-08
 -0.20576890D-04  0.49218913D-09 -0.10119077D-03 -0.95941678D-04  0.49400893D-09
  0.14890415D-03  0.15767235D-03 -0.19705763D-08  0.15466816D-03 -0.76084104D-10
  0.54275662D-04  0.10117219D-03  0.17151173D-03  0.25971930D-03  0.32477990D-03
  0.27960524D-03  0.10749046D-03 -0.46577377D-06 -0.34260943D-04 -0.64335983D-04
 -0.10955308D-03 -0.17161426D-03 -0.22998329D-03 -0.24737804D-03 -0.14852545D-03
  0.97676585D-04 -0.38813589D-04 -0.26524120D-03 -0.37745534D-04 -0.38061734D-04
 -0.37223544D-04 -0.24595170D-04  0.48412386D-09  0.47346256D-09  0.31283673D-09
 -0.20691092D-04 -0.20235436D-04 -0.13370408D-04 -0.99553535D-05  0.11580328D-09
  0.22639343D-04  0.15028822D-03 -0.18655698D-08 -0.87529413D-04 -0.40889596D-05
  0.51721466D-10  0.88698083D-05  0.13448534D-04  0.64931340D-04 -0.78379875D-04
 -0.65605940D-09 -0.40020531D-03  0.50045644D-08 -0.25654102D-04 -0.42015599D-04
  0.67669701D-04  0.20955528D-09  0.16926778D-03 -0.21197740D-08 -0.80364934D-05
 -0.19815260D-04  0.27851753D-04  0.14797770D-09  0.10478797D-03 -0.13021169D-08
 -0.28739098D-04 -0.65357736D-09 -0.18940347D-03  0.29591356D-03 -0.66112607D-09
  0.35647526D-03 -0.20969627D-03  0.26218582D-08  0.21173515D-03  0.18214413D-08
 -0.20576890D-04  0.49218912D-09  0.10119077D-03 -0.95941678D-04  0.49400892D-09
 -0.14890415D-03  0.15767235D-03 -0.19705763D-08 -0.15466816D-03  0.76084022D-10
MO    3     MO 0.0        OCC NO =    2.0000000  ORB. ENERGY =  -24.630707
  0.62627530D-04  0.11669718D-03  0.19736419D-03  0.29721953D-03  0.36797706D-03
  0.31313187D-03  0.11915245D-03 -0.55804178D-06 -0.33388641D-04 -0.62604014D-04
 -0.10650805D-03 -0.16539576D-03 -0.21948980D-03 -0.23131212D-03 -0.14342827D-03
  0.95408539D-04 -0.46373428D-03  0.20688194D-02  0.29459366D-03 -0.90034418D-03
 -0.86476982D-03 -0.60643629D-03  0.34709769D-14  0.33338318D-14  0.23379130D-14
 -0.38511713D-16 -0.36990040D-16 -0.25939969D-16  0.10468937D-02 -0.36783545D-14
 -0.15349957D-15  0.91582963D-03 -0.31469833D-14  0.64854142D-15  0.55983495D-05
 -0.24349424D-16 -0.15272730D-15  0.26059928D-03 -0.22443958D-03 -0.36159702D-04
  0.18939130D-14  0.12925140D-14  0.14976816D-17  0.73634337D-03 -0.20813945D-03
 -0.52820392D-03  0.32165630D-14 -0.10680512D-14 -0.33041891D-17  0.76433820D-04
 -0.78009008D-04  0.15751888D-05  0.49083895D-15 -0.49922524D-16  0.64153613D-18
  0.65513267D-03 -0.94626835D-15  0.11644855D-15 -0.80685597D-03 -0.11059907D-14
 -0.76575130D-15 -0.11585420D-02  0.39447957D-14  0.41640565D-15  0.22030404D-17
 -0.52919063D-05  0.18402189D-15  0.14359185D-15 -0.20445286D-03  0.18318857D-15
 -0.41938783D-15  0.22032858D-03 -0.73525423D-15 -0.11387725D-16  0.64385950D-18
  0.70854770D-04  0.13207636D-03  0.22390190D-03  0.33905347D-03  0.42398755D-03
  0.36501379D-03  0.14032463D-03 -0.60804957D-06 -0.20623994D-04 -0.38728208D-04
 -0.65947460D-04 -0.10330631D-03 -0.13844260D-03 -0.14891369D-03 -0.89407581D-04
  0.58798187D-04 -0.93116284D-05 -0.17979301D-03 -0.10203003D-03 -0.79841392D-04
 -0.78083138D-04 -0.51592830D-04 -0.49877622D-04 -0.48779225D-04 -0.32230496D-04
  0.12577125D-15  0.12300154D-15  0.81272317D-16  0.56409257D-04  0.65586350D-04
 -0.85115912D-16 -0.13966465D-03  0.24327631D-03 -0.34971137D-16  0.64887811D-05
  0.49392698D-05  0.10179453D-15 -0.73044812D-04  0.15408323D-03 -0.81038421D-04
  0.12484409D-03  0.40206992D-15 -0.42825997D-15  0.67829053D-04 -0.11785976D-03
  0.50030707D-04 -0.53090368D-04 -0.19743921D-15  0.22505177D-15 -0.15628757D-05
 -0.28851512D-04  0.30414388D-04  0.90115982D-04  0.11880878D-16 -0.62945421D-16
  0.10049576D-03  0.19214403D-04  0.96070823D-16 -0.24911296D-03 -0.14418562D-03
  0.84272327D-16 -0.52374311D-04  0.86542412D-04 -0.37248480D-15 -0.28540293D-16
 -0.21518571D-04  0.28152378D-04 -0.12506849D-16  0.45742425D-04  0.14271757D-05
 -0.35578600D-16  0.18813288D-04 -0.85884308D-04  0.73099147D-16  0.12893030D-15
  0.70854772D-04  0.13207636D-03  0.22390191D-03  0.33905348D-03  0.42398756D-03
  0.36501380D-03  0.14032463D-03 -0.60804959D-06 -0.20623994D-04 -0.38728208D-04
 -0.65947460D-04 -0.10330631D-03 -0.13844260D-03 -0.14891369D-03 -0.89407581D-04
  0.58798187D-04 -0.93116282D-05 -0.17979301D-03 -0.10203003D-03 -0.79841392D-04
 -0.78083138D-04 -0.51592830D-04  0.49877622D-04  0.48779225D-04  0.32230496D-04
  0.13131610D-15  0.12842428D-15  0.84855350D-16  0.56409257D-04 -0.65586350D-04
 -0.92159816D-16 -0.13966465D-03 -0.24327631D-03 -0.31605062D-16  0.64887811D-05
 -0.49392698D-05  0.10246777D-15 -0.73044812D-04  0.15408323D-03 -0.81038421D-04
 -0.12484409D-03  0.41935152D-15  0.45280835D-15  0.67829053D-04 -0.11785976D-03
  0.50030707D-04  0.53090368D-04 -0.20587230D-15 -0.23636559D-15 -0.15628757D-05
 -0.28851512D-04  0.30414388D-04 -0.90115982D-04  0.14137586D-16  0.66282481D-16
  0.10049576D-03 -0.19214403D-04  0.94765345D-16 -0.24911296D-03  0.14418562D-03
  0.92934037D-16 -0.52374311D-04 -0.86542412D-04 -0.37723007D-15  0.10122020D-16
 -0.21518571D-04 -0.28152378D-04 -0.11391526D-16  0.45742425D-04 -0.14271757D-05