 Molden2AIM, Version 4.0.0 (06/02/2016)           Time: Thu Jun 28 22:17:56 2018
GAUSSIAN             22 MOL ORBITALS    392 PRIMITIVES        4 NUCLEI
  N    1    (CENTRE  1)   0.06181672  2.84977314  0.00000000  CHARGE =  7.0
  H    2    (CENTRE  2)  -1.02609861  3.30238144  1.53033801  CHARGE =  1.0
  H    3    (CENTRE  3)  -1.02609861  3.30238144 -1.53033801  CHARGE =  1.0
  Br   4    (CENTRE  4)   0.04544791 -0.74642859  0.00000000  CHARGE = 35.0
CENTRE ASSIGNMENTS    1  1  1  1  1  1  1  1  1  1  1  1  1  1  1  1  1  1  1  1
CENTRE ASSIGNMENTS    1  1  1  1  1  1  1  1  1  1  1  1  1  1  1  1  1  1  1  1
CENTRE ASSIGNMENTS    1  1  1  1  1  1  1  1  1  1  1  1  1  1  1  1  1  1  1  1
CENTRE ASSIGNMENTS    1  1  1  1  1  1  1  1  1  1  1  1  1  1  1  2  2  2  2  2
CENTRE ASSIGNMENTS    2  2  2  2  2  2  2  2  2  2  2  2  2  2  2  2  2  2  2  2
CENTRE ASSIGNMENTS    2  2  3  3  3  3  3  3  3  3  3  3  3  3  3  3  3  3  3  3
CENTRE ASSIGNMENTS    3  3  3  3  3  3  3  3  3  4  4  4  4  4  4  4  4  4  4  4
CENTRE ASSIGNMENTS    4  4  4  4  4  4  4  4  4  4  4  4  4  4  4  4  4  4  4  4
CENTRE ASSIGNMENTS    4  4  4  4  4  4  4  4  4  4  4  4  4  4  4  4  4  4  4  4
CENTRE ASSIGNMENTS    4  4  4  4  4  4  4  4  4  4  4  4  4  4  4  4  4  4  4  4
CENTRE ASSIGNMENTS    4  4  4  4  4  4  4  4  4  4  4  4  4  4  4  4  4  4  4  4
CENTRE ASSIGNMENTS    4  4  4  4  4  4  4  4  4  4  4  4  4  4  4  4  4  4  4  4
CENTRE ASSIGNMENTS    4  4  4  4  4  4  4  4  4  4  4  4  4  4  4  4  4  4  4  4
CENTRE ASSIGNMENTS    4  4  4  4  4  4  4  4  4  4  4  4  4  4  4  4  4  4  4  4
CENTRE ASSIGNMENTS    4  4  4  4  4  4  4  4  4  4  4  4  4  4  4  4  4  4  4  4
CENTRE ASSIGNMENTS    4  4  4  4  4  4  4  4  4  4  4  4  4  4  4  4  4  4  4  4
CENTRE ASSIGNMENTS    4  4  4  4  4  4  4  4  4  4  4  4  4  4  4  4  4  4  4  4
CENTRE ASSIGNMENTS    4  4  4  4  4  4  4  4  4  4  4  4  4  4  4  4  4  4  4  4
CENTRE ASSIGNMENTS    4  4  4  4  4  4  4  4  4  4  4  4  4  4  4  4  4  4  4  4
CENTRE ASSIGNMENTS    4  4  4  4  4  4  4  4  4  4  4  4
TYPE ASSIGNMENTS      1  1  1  1  1  1  1  1  1  1  1  1  1  1  1  1  1  1  1  2
TYPE ASSIGNMENTS      2  2  3  3  3  4  4  4  2  3  4  2  3  4  2  3  4  5  6  7
TYPE ASSIGNMENTS      8  9 10  5  6  7  8  9 10  5  6  7  8  9 10 11 12 13 17 14
TYPE ASSIGNMENTS     15 18 19 16 20 11 12 13 17 14 15 18 19 16 20  1  1  1  1  1
TYPE ASSIGNMENTS      1  2  3  4  2  3  4  2  3  4  5  6  7  8  9 10  5  6  7  8
TYPE ASSIGNMENTS      9 10  1  1  1  1  1  1  2  3  4  2  3  4  2  3  4  5  6  7
TYPE ASSIGNMENTS      8  9 10  5  6  7  8  9 10  1  1  1  1  1  1  1  1  1  1  1
TYPE ASSIGNMENTS      1  1  1  1  1  1  1  1  1  1  1  1  1  1  1  1  1  1  1  1
TYPE ASSIGNMENTS      1  1  1  1  1  1  1  1  1  1  1  1  1  1  1  1  1  1  1  1
TYPE ASSIGNMENTS      1  1  1  1  1  1  1  1  1  1  1  1  1  1  1  1  1  1  1  1
TYPE ASSIGNMENTS      1  1  1  1  2  2  2  2  2  2  2  2  2  2  2  3  3  3  3  3
TYPE ASSIGNMENTS      3  3  3  3  3  3  4  4  4  4  4  4  4  4  4  4  4  2  2  2
TYPE ASSIGNMENTS      2  2  2  2  2  2  2  2  3  3  3  3  3  3  3  3  3  3  3  4
TYPE ASSIGNMENTS      4  4  4  4  4  4  4  4  4  4  2  2  2  2  2  2  2  2  2  2
TYPE ASSIGNMENTS      2  3  3  3  3  3  3  3  3  3  3  3  4  4  4  4  4  4  4  4
TYPE ASSIGNMENTS      4  4  4  2  3  4  2  3  4  2  3  4  5  5  5  5  5  5  5  6
TYPE ASSIGNMENTS      6  6  6  6  6  6  7  7  7  7  7  7  7  8  8  8  8  8  8  8
TYPE ASSIGNMENTS      9  9  9  9  9  9  9 10 10 10 10 10 10 10  5  6  7  8  9 10
TYPE ASSIGNMENTS      5  6  7  8  9 10  5  6  7  8  9 10 11 12 13 17 14 15 18 19
TYPE ASSIGNMENTS     16 20 11 12 13 17 14 15 18 19 16 20
EXPONENTS  0.1142000D+05 0.1712000D+04 0.3893000D+03 0.1100000D+03 0.3557000D+02
EXPONENTS  0.1254000D+02 0.4644000D+01 0.5118000D+00 0.1142000D+05 0.1712000D+04
EXPONENTS  0.3893000D+03 0.1100000D+03 0.3557000D+02 0.1254000D+02 0.4644000D+01
EXPONENTS  0.5118000D+00 0.1293000D+01 0.1787000D+00 0.5760000D-01 0.2663000D+02
EXPONENTS  0.5948000D+01 0.1742000D+01 0.2663000D+02 0.5948000D+01 0.1742000D+01
EXPONENTS  0.2663000D+02 0.5948000D+01 0.1742000D+01 0.5550000D+00 0.5550000D+00
EXPONENTS  0.5550000D+00 0.1725000D+00 0.1725000D+00 0.1725000D+00 0.4910000D-01
EXPONENTS  0.4910000D-01 0.4910000D-01 0.1654000D+01 0.1654000D+01 0.1654000D+01
EXPONENTS  0.1654000D+01 0.1654000D+01 0.1654000D+01 0.4690000D+00 0.4690000D+00
EXPONENTS  0.4690000D+00 0.4690000D+00 0.4690000D+00 0.4690000D+00 0.1510000D+00
EXPONENTS  0.1510000D+00 0.1510000D+00 0.1510000D+00 0.1510000D+00 0.1510000D+00
EXPONENTS  0.1093000D+01 0.1093000D+01 0.1093000D+01 0.1093000D+01 0.1093000D+01
EXPONENTS  0.1093000D+01 0.1093000D+01 0.1093000D+01 0.1093000D+01 0.1093000D+01
EXPONENTS  0.3640000D+00 0.3640000D+00 0.3640000D+00 0.3640000D+00 0.3640000D+00
EXPONENTS  0.3640000D+00 0.3640000D+00 0.3640000D+00 0.3640000D+00 0.3640000D+00
EXPONENTS  0.3387000D+02 0.5095000D+01 0.1159000D+01 0.3258000D+00 0.1027000D+00
EXPONENTS  0.2526000D-01 0.1407000D+01 0.1407000D+01 0.1407000D+01 0.3880000D+00
EXPONENTS  0.3880000D+00 0.3880000D+00 0.1020000D+00 0.1020000D+00 0.1020000D+00
EXPONENTS  0.1057000D+01 0.1057000D+01 0.1057000D+01 0.1057000D+01 0.1057000D+01
EXPONENTS  0.1057000D+01 0.2470000D+00 0.2470000D+00 0.2470000D+00 0.2470000D+00
EXPONENTS  0.2470000D+00 0.2470000D+00 0.3387000D+02 0.5095000D+01 0.1159000D+01
EXPONENTS  0.3258000D+00 0.1027000D+00 0.2526000D-01 0.1407000D+01 0.1407000D+01
EXPONENTS  0.1407000D+01 0.3880000D+00 0.3880000D+00 0.3880000D+00 0.1020000D+00
EXPONENTS  0.1020000D+00 0.1020000D+00 0.1057000D+01 0.1057000D+01 0.1057000D+01
EXPONENTS  0.1057000D+01 0.1057000D+01 0.1057000D+01 0.2470000D+00 0.2470000D+00
EXPONENTS  0.2470000D+00 0.2470000D+00 0.2470000D+00 0.2470000D+00 0.1063900D+08
EXPONENTS  0.1593400D+07 0.3626100D+06 0.1027000D+06 0.3350100D+05 0.1209300D+05
EXPONENTS  0.4715900D+04 0.1955600D+04 0.8526100D+03 0.3876700D+03 0.1826800D+03
EXPONENTS  0.8824500D+02 0.3926300D+02 0.1923400D+02 0.9405700D+01 0.4160100D+01
EXPONENTS  0.1899500D+01 0.3011400D+00 0.1063900D+08 0.1593400D+07 0.3626100D+06
EXPONENTS  0.1027000D+06 0.3350100D+05 0.1209300D+05 0.4715900D+04 0.1955600D+04
EXPONENTS  0.8526100D+03 0.3876700D+03 0.1826800D+03 0.8824500D+02 0.3926300D+02
EXPONENTS  0.1923400D+02 0.9405700D+01 0.4160100D+01 0.1899500D+01 0.3011400D+00
EXPONENTS  0.1063900D+08 0.1593400D+07 0.3626100D+06 0.1027000D+06 0.3350100D+05
EXPONENTS  0.1209300D+05 0.4715900D+04 0.1955600D+04 0.8526100D+03 0.3876700D+03
EXPONENTS  0.1826800D+03 0.8824500D+02 0.3926300D+02 0.1923400D+02 0.9405700D+01
EXPONENTS  0.4160100D+01 0.1899500D+01 0.3011400D+00 0.1063900D+08 0.1593400D+07
EXPONENTS  0.3626100D+06 0.1027000D+06 0.3350100D+05 0.1209300D+05 0.4715900D+04
EXPONENTS  0.1955600D+04 0.8526100D+03 0.3876700D+03 0.1826800D+03 0.8824500D+02
EXPONENTS  0.3926300D+02 0.1923400D+02 0.9405700D+01 0.4160100D+01 0.1899500D+01
EXPONENTS  0.3011400D+00 0.6047200D+00 0.1251500D+00 0.4559300D-01 0.8676500D+04
EXPONENTS  0.2055900D+04 0.6662300D+03 0.2531000D+03 0.1061200D+03 0.4724200D+02
EXPONENTS  0.2182500D+02 0.9968400D+01 0.4517100D+01 0.1998200D+01 0.2814500D+00
EXPONENTS  0.8676500D+04 0.2055900D+04 0.6662300D+03 0.2531000D+03 0.1061200D+03
EXPONENTS  0.4724200D+02 0.2182500D+02 0.9968400D+01 0.4517100D+01 0.1998200D+01
EXPONENTS  0.2814500D+00 0.8676500D+04 0.2055900D+04 0.6662300D+03 0.2531000D+03
EXPONENTS  0.1061200D+03 0.4724200D+02 0.2182500D+02 0.9968400D+01 0.4517100D+01
EXPONENTS  0.1998200D+01 0.2814500D+00 0.8676500D+04 0.2055900D+04 0.6662300D+03
EXPONENTS  0.2531000D+03 0.1061200D+03 0.4724200D+02 0.2182500D+02 0.9968400D+01
EXPONENTS  0.4517100D+01 0.1998200D+01 0.2814500D+00 0.8676500D+04 0.2055900D+04
EXPONENTS  0.6662300D+03 0.2531000D+03 0.1061200D+03 0.4724200D+02 0.2182500D+02
EXPONENTS  0.9968400D+01 0.4517100D+01 0.1998200D+01 0.2814500D+00 0.8676500D+04
EXPONENTS  0.2055900D+04 0.6662300D+03 0.2531000D+03 0.1061200D+03 0.4724200D+02
EXPONENTS  0.2182500D+02 0.9968400D+01 0.4517100D+01 0.1998200D+01 0.2814500D+00
EXPONENTS  0.8676500D+04 0.2055900D+04 0.6662300D+03 0.2531000D+03 0.1061200D+03
EXPONENTS  0.4724200D+02 0.2182500D+02 0.9968400D+01 0.4517100D+01 0.1998200D+01
EXPONENTS  0.2814500D+00 0.8676500D+04 0.2055900D+04 0.6662300D+03 0.2531000D+03
EXPONENTS  0.1061200D+03 0.4724200D+02 0.2182500D+02 0.9968400D+01 0.4517100D+01
EXPONENTS  0.1998200D+01 0.2814500D+00 0.8676500D+04 0.2055900D+04 0.6662300D+03
EXPONENTS  0.2531000D+03 0.1061200D+03 0.4724200D+02 0.2182500D+02 0.9968400D+01
EXPONENTS  0.4517100D+01 0.1998200D+01 0.2814500D+00 0.7098800D+00 0.7098800D+00
EXPONENTS  0.7098800D+00 0.1020400D+00 0.1020400D+00 0.1020400D+00 0.3514200D-01
EXPONENTS  0.3514200D-01 0.3514200D-01 0.4038300D+03 0.1211700D+03 0.4634500D+02
EXPONENTS  0.1972100D+02 0.8862400D+01 0.3996200D+01 0.1763600D+01 0.4038300D+03
EXPONENTS  0.1211700D+03 0.4634500D+02 0.1972100D+02 0.8862400D+01 0.3996200D+01
EXPONENTS  0.1763600D+01 0.4038300D+03 0.1211700D+03 0.4634500D+02 0.1972100D+02
EXPONENTS  0.8862400D+01 0.3996200D+01 0.1763600D+01 0.4038300D+03 0.1211700D+03
EXPONENTS  0.4634500D+02 0.1972100D+02 0.8862400D+01 0.3996200D+01 0.1763600D+01
EXPONENTS  0.4038300D+03 0.1211700D+03 0.4634500D+02 0.1972100D+02 0.8862400D+01
EXPONENTS  0.3996200D+01 0.1763600D+01 0.4038300D+03 0.1211700D+03 0.4634500D+02
EXPONENTS  0.1972100D+02 0.8862400D+01 0.3996200D+01 0.1763600D+01 0.7061900D+00
EXPONENTS  0.7061900D+00 0.7061900D+00 0.7061900D+00 0.7061900D+00 0.7061900D+00
EXPONENTS  0.2639000D+00 0.2639000D+00 0.2639000D+00 0.2639000D+00 0.2639000D+00
EXPONENTS  0.2639000D+00 0.1047000D+00 0.1047000D+00 0.1047000D+00 0.1047000D+00
EXPONENTS  0.1047000D+00 0.1047000D+00 0.5515000D+00 0.5515000D+00 0.5515000D+00
EXPONENTS  0.5515000D+00 0.5515000D+00 0.5515000D+00 0.5515000D+00 0.5515000D+00
EXPONENTS  0.5515000D+00 0.5515000D+00 0.2580000D+00 0.2580000D+00 0.2580000D+00
EXPONENTS  0.2580000D+00 0.2580000D+00 0.2580000D+00 0.2580000D+00 0.2580000D+00
EXPONENTS  0.2580000D+00 0.2580000D+00
MO    1     MO 0.0        OCC NO =    2.0000000  ORB. ENERGY = -482.146500
 -0.79095115D-05 -0.14738210D-04 -0.24926008D-04 -0.37537187D-04 -0.46473473D-04
 -0.39546828D-04 -0.15048298D-04  0.70477597D-07  0.55145606D-05  0.10339853D-04
  0.17591166D-04  0.27317223D-04  0.36251544D-04  0.38204151D-04  0.23689011D-04
 -0.15757939D-04 -0.29550404D-05  0.35585378D-04 -0.51737322D-05  0.64072148D-05
  0.61540532D-05  0.43156469D-05  0.12204144D-04  0.11721934D-04  0.82202295D-05
  0.12587828D-16  0.12090458D-16  0.84786637D-17 -0.11242670D-04  0.91741478D-05
  0.88543450D-17 -0.89074833D-05 -0.14789947D-05  0.23408205D-16  0.13573737D-05
 -0.11144574D-05  0.87816240D-18  0.25937531D-04 -0.37023343D-04  0.11085812D-04
  0.54676327D-05 -0.10780258D-16  0.26910492D-16 -0.14147721D-04  0.13380111D-04
  0.76761047D-06 -0.56667703D-05 -0.18379497D-16 -0.61351363D-17 -0.31516832D-05
  0.39685308D-05 -0.81684756D-06  0.38972179D-05 -0.39335018D-17  0.19837762D-18
 -0.68199215D-05  0.77873657D-06  0.10309441D-17  0.12792901D-04 -0.14209811D-05
 -0.48698390D-17  0.76668634D-05 -0.91522863D-06  0.17770068D-17 -0.49926623D-17
  0.36545057D-05 -0.59560958D-05  0.18842973D-17 -0.64438666D-05  0.69863469D-05
 -0.21053910D-19 -0.45196505D-05  0.10881941D-04 -0.56318381D-17  0.33645127D-17
  0.54206635D-06  0.97763898D-06  0.14415281D-05 -0.20409656D-04 -0.19485265D-04
  0.69090107D-07 -0.21102594D-06 -0.14217322D-04 -0.22574846D-05 -0.12838800D-04
  0.60516214D-05  0.85874270D-05 -0.38490063D-05  0.73583888D-05  0.30811057D-05
 -0.21654306D-05  0.90063510D-06  0.12647955D-05  0.33995516D-05  0.10144421D-04
  0.45100425D-05  0.16781502D-05 -0.36106775D-05  0.19325273D-05 -0.11109603D-05
  0.21015827D-05 -0.99001663D-07  0.54206635D-06  0.97763898D-06  0.14415281D-05
 -0.20409656D-04 -0.19485265D-04  0.69090107D-07 -0.21102594D-06 -0.14217322D-04
  0.22574846D-05 -0.12838800D-04  0.60516214D-05 -0.85874270D-05 -0.38490063D-05
  0.73583888D-05 -0.30811057D-05 -0.21654306D-05  0.90063510D-06  0.12647955D-05
  0.33995516D-05 -0.10144421D-04 -0.45100425D-05  0.16781502D-05 -0.36106775D-05
  0.19325273D-05 -0.11109603D-05 -0.21015827D-05  0.99001663D-07  0.78328478D+00
  0.14734541D+01  0.25506217D+01  0.41809569D+01  0.65495500D+01  0.98445314D+01
  0.14070308D+02  0.18678684D+02  0.21753865D+02  0.19980714D+02  0.11683509D+02
  0.30658113D+01  0.16760671D+00 -0.59989708D-02  0.16765230D-02 -0.49781626D-03
  0.84869054D-04  0.69241475D-05  0.38231598D-04  0.70243292D-04  0.12146684D-03
  0.19891893D-03  0.31318891D-03  0.47294595D-03  0.69035665D-03  0.95066304D-03
  0.12146929D-02  0.13241575D-02  0.10899856D-02  0.29886664D-03 -0.60283339D-03
 -0.58748747D-03 -0.12855881D-03 -0.43310279D-05 -0.14672139D-06  0.37324028D-09
 -0.95867137D-04 -0.18793799D-03 -0.32916873D-03 -0.53775459D-03 -0.84816852D-03
 -0.12798484D-02 -0.18765121D-02 -0.25908353D-02 -0.33590308D-02 -0.37354400D-02
 -0.32444596D-02 -0.94245748D-03  0.23759239D-02  0.34618885D-02  0.59597648D-03
 -0.14539274D-02 -0.69203280D-03  0.33420378D-05  0.32358232D-04  0.70112475D-04
  0.11935537D-03  0.19482011D-03  0.30711478D-03  0.46352491D-03  0.67960306D-03
  0.93950298D-03  0.12193806D-02  0.13622614D-02  0.11899662D-02  0.35246913D-03
 -0.91621727D-03 -0.14094519D-02 -0.24669711D-03  0.77819241D-03  0.66056767D-03
 -0.24645189D-03  0.25732628D-03  0.73693659D-04  0.57695061D-05  0.72255638D-04
  0.10367405D-03  0.13726995D-03  0.15850790D-03  0.14694412D-03  0.95134300D-04
  0.33578914D-04  0.39357383D-05  0.57218350D-07  0.83789905D-08  0.86149034D-10
 -0.26932893D-03 -0.38643932D-03 -0.51166621D-03 -0.59082950D-03 -0.54772613D-03
 -0.35460788D-03 -0.12516356D-03 -0.14670248D-04 -0.21327826D-06 -0.31232227D-07
 -0.32111580D-09 -0.34086141D-16 -0.48907578D-16 -0.64756233D-16 -0.74775102D-16
 -0.69319959D-16 -0.44879005D-16 -0.15840641D-16 -0.18566597D-17 -0.26992395D-19
 -0.39527358D-20 -0.40640263D-22 -0.34039128D-03 -0.49135872D-03 -0.65644351D-03
 -0.77987503D-03 -0.75575868D-03 -0.52534869D-03 -0.17094342D-03  0.76938106D-04
  0.83118824D-04  0.21398687D-04 -0.20872443D-07  0.21119423D-02  0.30486130D-02
  0.40728741D-02  0.48386994D-02  0.46890706D-02  0.32595022D-02  0.10606108D-02
 -0.47735901D-03 -0.51570699D-03 -0.13276719D-03  0.12950213D-06  0.13883977D-15
  0.20041681D-15  0.26775207D-15  0.31809767D-15  0.30826103D-15  0.21428073D-15
  0.69724896D-16 -0.31381736D-16 -0.33902745D-16 -0.87281579D-17  0.85135121D-20
  0.23971160D-03  0.34831158D-03  0.46308429D-03  0.55566909D-03  0.53761230D-03
  0.38164214D-03  0.11861534D-03 -0.68101443D-04 -0.78233440D-04 -0.20775578D-04
  0.74958932D-05 -0.15308947D-02 -0.22244579D-02 -0.29574425D-02 -0.35487263D-02
 -0.34334084D-02 -0.24373202D-02 -0.75752524D-03  0.43492321D-03  0.49963022D-03
  0.13268120D-03 -0.47871789D-04 -0.95865730D-16 -0.13929716D-15 -0.18519719D-15
 -0.22222380D-15 -0.21500251D-15 -0.15262675D-15 -0.47436778D-16  0.27235205D-16
  0.31287205D-16  0.83085923D-17 -0.29977660D-17 -0.64478087D-05  0.25868248D-04
  0.24473293D-17 -0.32250953D-05  0.26535254D-04  0.37204189D-17 -0.35154710D-06
  0.35255753D-06  0.29085509D-18 -0.17377545D-03 -0.18183729D-03 -0.15493510D-03
 -0.10203648D-03 -0.47025575D-04 -0.14081885D-04 -0.23959133D-05  0.34251001D-03
  0.35839982D-03  0.30537583D-03  0.20111307D-03  0.92687026D-04  0.27755280D-04
  0.47223256D-05 -0.16873455D-03 -0.17656253D-03 -0.15044072D-03 -0.99076591D-04
 -0.45661451D-04 -0.13673395D-04 -0.23264123D-05 -0.96688801D-05 -0.10117441D-04
 -0.86206014D-05 -0.56773178D-05 -0.26165067D-05 -0.78351717D-06 -0.13330880D-06
  0.28771028D-16  0.30105781D-16  0.25651737D-16  0.16893608D-16  0.77857610D-17
  0.23314587D-17  0.39667794D-18  0.29800496D-16  0.31183008D-16  0.26569592D-16
  0.17498085D-16  0.80643464D-17  0.24148816D-17  0.41087163D-18  0.88309302D-05
 -0.17371854D-04  0.85409239D-05 -0.72387374D-06 -0.14037102D-17 -0.14678697D-17
  0.14032276D-05 -0.28342891D-05  0.14310615D-05  0.40801597D-05  0.59469613D-18
  0.10915983D-18 -0.22863979D-05  0.42650518D-05 -0.19786539D-05 -0.17190402D-05
 -0.78897886D-18  0.17826074D-17 -0.21717901D-05 -0.11642110D-04  0.12402808D-17
  0.57273955D-05  0.18664866D-04  0.21197695D-18  0.78797488D-06  0.16261464D-04
 -0.39328193D-17  0.44560958D-17  0.56339213D-06  0.29825847D-05 -0.55550517D-18
 -0.10506715D-05 -0.50793295D-05 -0.13748360D-18 -0.63950495D-06 -0.38684247D-05
  0.18039991D-17 -0.19617946D-17
MO    2     MO 0.0        OCC NO =    2.0000000  ORB. ENERGY =  -62.401569
  0.68553917D-04  0.12774013D-03  0.21604059D-03  0.32534515D-03  0.40279840D-03
  0.34276326D-03  0.13042774D-03 -0.61084877D-06 -0.48241004D-04 -0.90452334D-04
 -0.15388633D-03 -0.23896923D-03 -0.31712606D-03 -0.33420734D-03 -0.20722987D-03
  0.13784939D-03  0.37210188D-04 -0.33897719D-03  0.67525061D-04 -0.67693525D-04
 -0.65018821D-04 -0.45595686D-04 -0.11593618D-03 -0.11135532D-03 -0.78090035D-04
 -0.60075467D-15 -0.57701768D-15 -0.40464463D-15  0.12122039D-03 -0.92388008D-04
  0.87799177D-15  0.91533336D-04 -0.55793217D-05  0.92268371D-15 -0.15099741D-04
  0.11261658D-04  0.42416750D-16 -0.24651530D-03  0.34430565D-03 -0.97790356D-04
 -0.49683536D-04  0.13952947D-15  0.11398805D-15  0.14052491D-03 -0.12258829D-03
 -0.17936617D-04  0.54751526D-04 -0.80374758D-15  0.23954861D-15  0.32802478D-04
 -0.40398805D-04  0.75963268D-05 -0.42884211D-04 -0.13443581D-15  0.73153847D-16
  0.69279228D-04 -0.13314845D-04 -0.40848824D-17 -0.14417738D-03  0.22569414D-04
  0.19420041D-15 -0.63660306D-04  0.17375122D-04 -0.18194576D-15 -0.26303937D-15
 -0.38652408D-04  0.59356699D-04  0.12498083D-16  0.67790945D-04 -0.68702193D-04
  0.23259011D-16  0.48166279D-04 -0.10936791D-03 -0.60753261D-16 -0.75744836D-16
 -0.44470725D-05 -0.80204784D-05 -0.11826191D-04  0.20847875D-03  0.21307723D-03
 -0.65927716D-06  0.48896236D-05  0.14112085D-03  0.19005372D-04  0.13631697D-03
 -0.68258800D-04 -0.89088045D-04  0.42534436D-04 -0.81865820D-04 -0.34104393D-04
  0.25172902D-04 -0.12067252D-04 -0.13105651D-04 -0.41530630D-04 -0.10430257D-03
 -0.37787718D-04 -0.18663796D-04  0.39625302D-04 -0.20961506D-04  0.11067777D-04
 -0.23454058D-04  0.25049875D-05 -0.44470725D-05 -0.80204784D-05 -0.11826191D-04
  0.20847875D-03  0.21307723D-03 -0.65927716D-06  0.48896236D-05  0.14112085D-03
 -0.19005372D-04  0.13631697D-03 -0.68258800D-04  0.89088045D-04  0.42534436D-04
 -0.81865820D-04  0.34104393D-04  0.25172902D-04 -0.12067252D-04 -0.13105651D-04
 -0.41530630D-04  0.10430257D-03  0.37787718D-04 -0.18663796D-04  0.39625302D-04
 -0.20961506D-04  0.11067777D-04  0.23454058D-04 -0.25049875D-05  0.25616535D-03
  0.48187823D-03  0.83415498D-03  0.13673396D-02  0.21419640D-02  0.32195543D-02
  0.46015518D-02  0.61086744D-02  0.71143810D-02  0.65344901D-02  0.38209734D-02
  0.10026425D-02  0.54814076D-04 -0.19619026D-05  0.54828987D-06 -0.16280576D-06
  0.27755564D-07  0.22644723D-08 -0.25299393D+00 -0.46482824D+00 -0.80379515D+00
 -0.13163269D+01 -0.20724976D+01 -0.31296744D+01 -0.45683688D+01 -0.62909214D+01
 -0.80381133D+01 -0.87624854D+01 -0.72128747D+01 -0.19777213D+01  0.39891920D+01
  0.38876419D+01  0.85072556D+00  0.28660161D-01  0.97091468D-03 -0.24698817D-05
  0.93477439D-03  0.18325322D-02  0.32096348D-02  0.52434988D-02  0.82702607D-02
  0.12479454D-01  0.18297359D-01  0.25262531D-01  0.32752997D-01  0.36423260D-01
  0.31635843D-01  0.91896467D-02 -0.23166988D-01 -0.33755934D-01 -0.58112047D-02
  0.14176851D-01  0.67478237D-02 -0.32587302D-04 -0.34809295D-03 -0.75423336D-03
 -0.12839627D-02 -0.20957729D-02 -0.33037803D-02 -0.49863586D-02 -0.73108144D-02
 -0.10106682D-01 -0.13117459D-01 -0.14654496D-01 -0.12801034D-01 -0.37916787D-02
  0.98561865D-02  0.15162146D-01  0.26538386D-02 -0.83713872D-02 -0.71060417D-02
  0.26512006D-02 -0.30115653D-02 -0.83776162D-03 -0.68516402D-04 -0.27931692D-02
 -0.40077033D-02 -0.53064122D-02 -0.61274027D-02 -0.56803842D-02 -0.36775843D-02
 -0.12980522D-02 -0.15214291D-03 -0.22118763D-05 -0.32390466D-06 -0.33302430D-08
  0.59471359D-01  0.85330870D-01  0.11298261D+00  0.13046290D+00  0.12094511D+00
  0.78302070D-01  0.27637755D-01  0.32393832D-02  0.47094637D-04  0.68964853D-05
  0.70906579D-07  0.14958341D-14  0.21462571D-14  0.28417585D-14  0.32814259D-14
  0.30420328D-14  0.19694675D-14  0.69514970D-15  0.81477539D-16  0.11845326D-17
  0.17346162D-18  0.17834548D-20  0.36709019D-02  0.52989890D-02  0.70793226D-02
  0.84104525D-02  0.81503732D-02  0.56655490D-02  0.18435153D-02 -0.82972818D-03
 -0.89638326D-03 -0.23077113D-03  0.22509593D-06 -0.21874636D-01 -0.31576289D-01
 -0.42185167D-01 -0.50117273D-01 -0.48567479D-01 -0.33760593D-01 -0.10985373D-01
  0.49442897D-02  0.53414825D-02  0.13751483D-02 -0.13413302D-05  0.26897048D-14
  0.38826197D-14  0.51870872D-14  0.61624187D-14  0.59718561D-14  0.41512017D-14
  0.13507612D-14 -0.60794975D-15 -0.65678856D-15 -0.16908820D-15  0.16492993D-18
 -0.25889613D-02 -0.37618756D-02 -0.50014572D-02 -0.60014025D-02 -0.58063834D-02
 -0.41218562D-02 -0.12810833D-02  0.73551719D-03  0.84494598D-03  0.22438283D-03
 -0.80958025D-04  0.15606602D-01  0.22677085D-01  0.30149448D-01  0.36177250D-01
  0.35001650D-01  0.24847096D-01  0.77225398D-02 -0.44337952D-02 -0.50934464D-02
 -0.13526095D-02  0.48802571D-03 -0.18805420D-14 -0.27325109D-14 -0.36329050D-14
 -0.43592345D-14 -0.42175786D-14 -0.29939898D-14 -0.93053954D-15  0.53425710D-15
  0.61374281D-15  0.16298480D-15 -0.58805423D-16  0.68981957D-04 -0.26777519D-03
  0.53469237D-16  0.35956320D-04 -0.29837842D-03  0.55817358D-16  0.39090977D-05
 -0.42307731D-05 -0.95372348D-18 -0.14191338D-02 -0.14849706D-02 -0.12652744D-02
 -0.83327888D-03 -0.38403343D-03 -0.11499943D-03 -0.19566178D-04  0.26695718D-02
  0.27934192D-02  0.23801427D-02  0.15675039D-02  0.72241587D-03  0.21632860D-03
  0.36806478D-04 -0.12504379D-02 -0.13084486D-02 -0.11148682D-02 -0.73422501D-03
 -0.33838245D-03 -0.10132917D-03 -0.17240299D-04 -0.15649896D-03 -0.16375930D-03
 -0.13953169D-03 -0.91892165D-04 -0.42350363D-04 -0.12681885D-04 -0.21577152D-05
  0.12272097D-16  0.12841428D-16  0.10941584D-16  0.72058600D-17  0.33209664D-17
  0.99446875D-18  0.16920043D-18  0.26364018D-16  0.27587105D-16  0.23505690D-16
  0.15480274D-16  0.71343973D-17  0.21364068D-17  0.36349151D-18 -0.76914481D-04
  0.15202783D-03 -0.75113347D-04  0.90080833D-05 -0.62075224D-17  0.10590376D-16
 -0.12580590D-04  0.25171293D-04 -0.12590702D-04 -0.43739669D-04  0.89298339D-17
 -0.26437178D-16  0.25487351D-04 -0.47540242D-04  0.22052892D-04  0.19144192D-04
 -0.50996349D-17  0.25884610D-16  0.23489150D-04  0.11971616D-03  0.15178836D-16
 -0.62295785D-04 -0.19263191D-03 -0.57588174D-17 -0.81716647D-05 -0.16651658D-03
 -0.39777690D-16  0.34920667D-16 -0.62255786D-05 -0.32766601D-04 -0.58242434D-17
  0.11908714D-04  0.55701084D-04  0.28442375D-17  0.67680223D-05  0.42598718D-04
  0.14628493D-16 -0.11421363D-16
MO    3     MO 0.0        OCC NO =    2.0000000  ORB. ENERGY =  -56.108678
  0.11784122D-03  0.21957976D-03  0.37136443D-03  0.55925425D-03  0.69239304D-03
  0.58919523D-03  0.22419966D-03 -0.10500226D-05 -0.82706632D-04 -0.15507571D-03
 -0.26382992D-03 -0.40970001D-03 -0.54369574D-03 -0.57298068D-03 -0.35528457D-03
  0.23633544D-03  0.97606360D-04 -0.10421020D-02 -0.16035125D-03 -0.14079700D-03
 -0.13523383D-03 -0.94835299D-04 -0.17913327D-03 -0.17205537D-03 -0.12065710D-03
  0.23211532D-17  0.22294399D-17  0.15634372D-17  0.16668587D-03  0.76433290D-04
 -0.40864321D-16  0.99142667D-04  0.55513545D-03  0.41113869D-17  0.85702071D-06
  0.19788962D-04  0.17031026D-17 -0.17742358D-03  0.17518408D-03  0.22394963D-05
  0.46850354D-04  0.34242377D-16 -0.19835262D-16  0.16990451D-03 -0.15116085D-03
 -0.18743668D-04 -0.30614488D-04  0.35447530D-16 -0.11625715D-16  0.28481922D-04
 -0.45547303D-04  0.17065382D-04 -0.29775749D-04  0.24393958D-17 -0.10594777D-17
 -0.26578548D-04  0.47652672D-04  0.91230017D-18  0.86467475D-05 -0.50609243D-04
 -0.17292411D-16  0.71088896D-04 -0.92348773D-04  0.14555511D-16  0.31692614D-16
 -0.12641794D-04  0.24675242D-04  0.25698170D-17 -0.26762464D-04 -0.28605794D-04
 -0.44488616D-17  0.64687846D-04 -0.45419931D-04 -0.32605893D-17  0.50960452D-17
  0.85190906D-06  0.15364531D-05  0.22654992D-05  0.31145047D-03 -0.42749026D-04
 -0.19924103D-05  0.45118927D-04  0.34604172D-04 -0.13588870D-04  0.96791648D-04
 -0.15353966D-03 -0.63509146D-04 -0.59327829D-05  0.10046950D-04  0.99924883D-05
  0.69727422D-05  0.60576149D-04 -0.67548891D-04 -0.52132923D-04 -0.84060396D-04
  0.53559050D-04  0.11447948D-04 -0.97291642D-05 -0.17187835D-05  0.54968176D-05
  0.21612808D-05  0.57472490D-05  0.85190906D-06  0.15364531D-05  0.22654992D-05
  0.31145047D-03 -0.42749026D-04 -0.19924103D-05  0.45118927D-04  0.34604172D-04
  0.13588870D-04  0.96791648D-04 -0.15353966D-03  0.63509146D-04 -0.59327829D-05
  0.10046950D-04 -0.99924883D-05  0.69727422D-05  0.60576149D-04 -0.67548891D-04
 -0.52132923D-04  0.84060396D-04 -0.53559050D-04  0.11447948D-04 -0.97291642D-05
 -0.17187835D-05  0.54968176D-05 -0.21612808D-05 -0.57472490D-05 -0.11346273D-04
 -0.21343721D-04 -0.36947034D-04 -0.60563258D-04 -0.94873517D-04 -0.14260298D-03
 -0.20381547D-03 -0.27057011D-03 -0.31511564D-03 -0.28943067D-03 -0.16924149D-03
 -0.44409815D-04 -0.24278672D-05  0.86898101D-07 -0.24285277D-07  0.72111182D-08
 -0.12293708D-08 -0.10029975D-09  0.28071525D-03  0.51576089D-03  0.89186944D-03
  0.14605609D-02  0.22995874D-02  0.34726024D-02  0.50689390D-02  0.69802368D-02
  0.89188739D-02  0.97226177D-02  0.80032114D-02  0.21944262D-02 -0.44263000D-02
 -0.43136227D-02 -0.94394216D-03 -0.31800542D-04 -0.10773008D-05  0.27405142D-08
 -0.26088350D-04 -0.51143616D-04 -0.89576776D-04 -0.14633930D-03 -0.23081233D-03
 -0.34828550D-03 -0.51065575D-03 -0.70504473D-03 -0.91409398D-03 -0.10165263D-02
 -0.88291568D-03 -0.25647121D-03  0.64656081D-03  0.94208467D-03  0.16218324D-03
 -0.39565767D-03 -0.18832308D-03  0.90946965D-06  0.16142609D-04  0.34977135D-04
  0.59543025D-04  0.97190251D-04  0.15321090D-03  0.23123949D-03  0.33903478D-03
  0.46869151D-03  0.60831456D-03  0.67959374D-03  0.59364052D-03  0.17583690D-03
 -0.45707493D-03 -0.70313575D-03 -0.12307023D-03  0.38821823D-03  0.32953856D-03
 -0.12294789D-03 -0.24165683D-03  0.74223662D-03  0.90566554D-04 -0.75524243D+00
 -0.10836392D+01 -0.14347959D+01 -0.16567827D+01 -0.15359138D+01 -0.99437859D+00
 -0.35097913D+00 -0.41137780D-01 -0.59806718D-03 -0.87580281D-04 -0.90046130D-06
  0.52014096D+02  0.74631018D+02  0.98815436D+02  0.11410383D+03  0.10577950D+03
  0.68483577D+02  0.24172188D+02  0.28331888D+01  0.41189322D-01  0.60317177D-02
  0.62015425D-04  0.10506034D-11  0.15074298D-11  0.19959172D-11  0.23047189D-11
  0.21365804D-11  0.13832611D-11  0.48824038D-12  0.57225982D-13  0.83195986D-15
  0.12183126D-15  0.12526146D-17  0.67469171D-03  0.97392523D-03  0.13011408D-02
  0.15457952D-02  0.14979941D-02  0.10412970D-02  0.33882804D-03 -0.15249951D-03
 -0.16475035D-03 -0.42414472D-04  0.41371401D-07 -0.36677872D-01 -0.52944930D-01
 -0.70733161D-01 -0.84033165D-01 -0.81434578D-01 -0.56607420D-01 -0.18419511D-01
  0.82902418D-02  0.89562271D-02  0.23057532D-02 -0.22490494D-05 -0.14979423D-15
 -0.21622969D-15 -0.28887769D-15 -0.34319556D-15 -0.33258280D-15 -0.23118747D-15
 -0.75226186D-16  0.33857754D-16  0.36577670D-16  0.94168091D-17 -0.91852278D-20
 -0.49835584D-03 -0.72413314D-03 -0.96274341D-03 -0.11552254D-02 -0.11176857D-02
 -0.79342673D-03 -0.24659902D-03  0.14158160D-03  0.16264583D-03  0.43192030D-04
 -0.15583819D-04  0.28722460D-01  0.41735008D-01  0.55487177D-01  0.66580771D-01
  0.64417191D-01  0.45728705D-01  0.14212596D-01 -0.81599763D-02 -0.93740013D-02
 -0.24893484D-02  0.89816468D-03  0.19357613D-15  0.28127470D-15  0.37395798D-15
  0.44872369D-15  0.43414215D-15  0.30819038D-15  0.95786345D-16 -0.54994477D-16
 -0.63176445D-16 -0.16777060D-16  0.60532157D-17  0.40360161D-04 -0.22119031D-02
 -0.31951729D-16 -0.22585814D-04  0.19224466D-03 -0.90440529D-18 -0.10949798D-06
  0.51764706D-05  0.32593201D-18 -0.37564247D-02 -0.39306937D-02 -0.33491615D-02
 -0.22056760D-02 -0.10165304D-02 -0.30440167D-03 -0.51791364D-04  0.75751423D-02
  0.79265702D-02  0.67538621D-02  0.44479288D-02  0.20499179D-02  0.61385124D-03
  0.10444159D-03 -0.38187175D-02 -0.39958764D-02 -0.34047006D-02 -0.22422527D-02
 -0.10333875D-02 -0.30944957D-03 -0.52650221D-04 -0.73056737D-03 -0.76446004D-03
 -0.65136087D-03 -0.42897038D-03 -0.19769967D-03 -0.59201487D-04 -0.10072631D-04
 -0.56962486D-16 -0.59605105D-16 -0.50786739D-16 -0.33446907D-16 -0.15414684D-16
 -0.46159520D-17 -0.78536510D-18  0.77482198D-15  0.81076772D-15  0.69081749D-15
  0.45495555D-15  0.20967547D-15  0.62787657D-16  0.10682788D-16  0.10720029D-03
 -0.21423626D-03  0.10703596D-03  0.31025600D-04 -0.42541975D-18 -0.29157731D-17
 -0.12043857D-03  0.23974185D-03 -0.11930329D-03 -0.23118781D-04  0.41565168D-18
  0.31641641D-19 -0.11021988D-04  0.20489732D-04 -0.94677440D-05 -0.98009893D-05
 -0.28178758D-18  0.40590890D-18 -0.25567854D-05  0.30379148D-04 -0.44397145D-19
  0.18502252D-04 -0.41981689D-04 -0.43103822D-18 -0.10831896D-04 -0.49155754D-04
  0.56422966D-18  0.45263557D-18  0.27194707D-05  0.31849273D-04 -0.69654557D-19
 -0.12553792D-04 -0.50621208D-04 -0.27711385D-19  0.43953796D-05 -0.44926611D-04
  0.23667506D-18 -0.16504153D-18
MO    4     MO 0.0        OCC NO =    2.0000000  ORB. ENERGY =  -56.103240
 -0.23226634D-16 -0.43279413D-16 -0.73196337D-16 -0.11022963D-15 -0.13647143D-15
 -0.11613103D-15 -0.44189998D-16  0.20696061D-18  0.23737587D-16  0.44508198D-16
  0.75721687D-16  0.11758779D-15  0.15604583D-15  0.16445088D-15  0.10197004D-15
 -0.67830510D-16 -0.24014857D-15  0.17874265D-14  0.17278209D-15  0.12386904D-14
  0.11897473D-14  0.83433294D-15 -0.27956034D-16 -0.26851436D-16 -0.18830080D-16
  0.28940780D-04  0.27797273D-04  0.19493366D-04 -0.80828583D-15  0.12678107D-15
 -0.60736808D-04 -0.27338653D-15 -0.26591011D-15 -0.17491957D-03 -0.10550295D-16