 Molden2AIM, Version 4.0.0 (06/02/2016)           Time: Thu Jun 28 21:38:43 2018
GAUSSIAN              5 MOL ORBITALS    156 PRIMITIVES        4 NUCLEI
  N    1    (CENTRE  1)   0.00000000  0.00004535  0.00776111  CHARGE =  7.0
  H    2    (CENTRE  2)   0.00000000 -1.77728364 -0.72371786  CHARGE =  1.0
  H    3    (CENTRE  3)   1.53921594  0.88871363 -0.72370086  CHARGE =  1.0
  H    4    (CENTRE  4)  -1.53921594  0.88871363 -0.72370086  CHARGE =  1.0
CENTRE ASSIGNMENTS    1  1  1  1  1  1  1  1  1  1  1  1  1  1  1  1  1  1  1  1
CENTRE ASSIGNMENTS    1  1  1  1  1  1  1  1  1  1  1  1  1  1  1  1  1  1  1  1
CENTRE ASSIGNMENTS    1  1  1  1  1  1  1  1  1  1  1  1  1  1  1  1  1  1  1  1
CENTRE ASSIGNMENTS    1  1  1  1  1  1  1  1  1  1  1  1  1  1  1  2  2  2  2  2
CENTRE ASSIGNMENTS    2  2  2  2  2  2  2  2  2  2  2  2  2  2  2  2  2  2  2  2
CENTRE ASSIGNMENTS    2  2  3  3  3  3  3  3  3  3  3  3  3  3  3  3  3  3  3  3
CENTRE ASSIGNMENTS    3  3  3  3  3  3  3  3  3  4  4  4  4  4  4  4  4  4  4  4
CENTRE ASSIGNMENTS    4  4  4  4  4  4  4  4  4  4  4  4  4  4  4  4
TYPE ASSIGNMENTS      1  1  1  1  1  1  1  1  1  1  1  1  1  1  1  1  1  1  1  2
TYPE ASSIGNMENTS      2  2  3  3  3  4  4  4  2  3  4  2  3  4  2  3  4  5  6  7
TYPE ASSIGNMENTS      8  9 10  5  6  7  8  9 10  5  6  7  8  9 10 11 12 13 17 14
TYPE ASSIGNMENTS     15 18 19 16 20 11 12 13 17 14 15 18 19 16 20  1  1  1  1  1
TYPE ASSIGNMENTS      1  2  3  4  2  3  4  2  3  4  5  6  7  8  9 10  5  6  7  8
TYPE ASSIGNMENTS      9 10  1  1  1  1  1  1  2  3  4  2  3  4  2  3  4  5  6  7
TYPE ASSIGNMENTS      8  9 10  5  6  7  8  9 10  1  1  1  1  1  1  2  3  4  2  3
TYPE ASSIGNMENTS      4  2  3  4  5  6  7  8  9 10  5  6  7  8  9 10
EXPONENTS  0.1142000D+05 0.1712000D+04 0.3893000D+03 0.1100000D+03 0.3557000D+02
EXPONENTS  0.1254000D+02 0.4644000D+01 0.5118000D+00 0.1142000D+05 0.1712000D+04
EXPONENTS  0.3893000D+03 0.1100000D+03 0.3557000D+02 0.1254000D+02 0.4644000D+01
EXPONENTS  0.5118000D+00 0.1293000D+01 0.1787000D+00 0.5760000D-01 0.2663000D+02
EXPONENTS  0.5948000D+01 0.1742000D+01 0.2663000D+02 0.5948000D+01 0.1742000D+01
EXPONENTS  0.2663000D+02 0.5948000D+01 0.1742000D+01 0.5550000D+00 0.5550000D+00
EXPONENTS  0.5550000D+00 0.1725000D+00 0.1725000D+00 0.1725000D+00 0.4910000D-01
EXPONENTS  0.4910000D-01 0.4910000D-01 0.1654000D+01 0.1654000D+01 0.1654000D+01
EXPONENTS  0.1654000D+01 0.1654000D+01 0.1654000D+01 0.4690000D+00 0.4690000D+00
EXPONENTS  0.4690000D+00 0.4690000D+00 0.4690000D+00 0.4690000D+00 0.1510000D+00
EXPONENTS  0.1510000D+00 0.1510000D+00 0.1510000D+00 0.1510000D+00 0.1510000D+00
EXPONENTS  0.1093000D+01 0.1093000D+01 0.1093000D+01 0.1093000D+01 0.1093000D+01
EXPONENTS  0.1093000D+01 0.1093000D+01 0.1093000D+01 0.1093000D+01 0.1093000D+01
EXPONENTS  0.3640000D+00 0.3640000D+00 0.3640000D+00 0.3640000D+00 0.3640000D+00
EXPONENTS  0.3640000D+00 0.3640000D+00 0.3640000D+00 0.3640000D+00 0.3640000D+00
EXPONENTS  0.3387000D+02 0.5095000D+01 0.1159000D+01 0.3258000D+00 0.1027000D+00
EXPONENTS  0.2526000D-01 0.1407000D+01 0.1407000D+01 0.1407000D+01 0.3880000D+00
EXPONENTS  0.3880000D+00 0.3880000D+00 0.1020000D+00 0.1020000D+00 0.1020000D+00
EXPONENTS  0.1057000D+01 0.1057000D+01 0.1057000D+01 0.1057000D+01 0.1057000D+01
EXPONENTS  0.1057000D+01 0.2470000D+00 0.2470000D+00 0.2470000D+00 0.2470000D+00
EXPONENTS  0.2470000D+00 0.2470000D+00 0.3387000D+02 0.5095000D+01 0.1159000D+01
EXPONENTS  0.3258000D+00 0.1027000D+00 0.2526000D-01 0.1407000D+01 0.1407000D+01
EXPONENTS  0.1407000D+01 0.3880000D+00 0.3880000D+00 0.3880000D+00 0.1020000D+00
EXPONENTS  0.1020000D+00 0.1020000D+00 0.1057000D+01 0.1057000D+01 0.1057000D+01
EXPONENTS  0.1057000D+01 0.1057000D+01 0.1057000D+01 0.2470000D+00 0.2470000D+00
EXPONENTS  0.2470000D+00 0.2470000D+00 0.2470000D+00 0.2470000D+00 0.3387000D+02
EXPONENTS  0.5095000D+01 0.1159000D+01 0.3258000D+00 0.1027000D+00 0.2526000D-01
EXPONENTS  0.1407000D+01 0.1407000D+01 0.1407000D+01 0.3880000D+00 0.3880000D+00
EXPONENTS  0.3880000D+00 0.1020000D+00 0.1020000D+00 0.1020000D+00 0.1057000D+01
EXPONENTS  0.1057000D+01 0.1057000D+01 0.1057000D+01 0.1057000D+01 0.1057000D+01
EXPONENTS  0.2470000D+00 0.2470000D+00 0.2470000D+00 0.2470000D+00 0.2470000D+00
EXPONENTS  0.2470000D+00
MO    1     MO 0.0        OCC NO =    2.0000000  ORB. ENERGY =  -14.157996
  0.41328307D+00  0.77009214D+00  0.13024189D+01  0.19613706D+01  0.24283041D+01
  0.20663772D+01  0.78629464D+00 -0.36825533D-02 -0.18312693D-02 -0.34336471D-02
 -0.58416554D-02 -0.90714740D-02 -0.12038374D-01 -0.12686793D-01 -0.78666212D-02
  0.52328794D-02  0.39060591D-01  0.20320305D-02  0.12811566D-03 -0.14132554D-14
 -0.13574149D-14 -0.95191302D-15 -0.10879023D-06 -0.10449172D-06 -0.73276806D-07
 -0.54478128D-02 -0.52325590D-02 -0.36694316D-02  0.32455726D-14  0.18679934D-06
 -0.15018037D-02  0.25154000D-15  0.55201611D-08  0.18952629D-03  0.46142100D-17
  0.21032082D-09  0.81292010D-05  0.98496866D-03  0.98506229D-03 -0.19700309D-02
  0.80185996D-15 -0.13118341D-14 -0.26296658D-06  0.16901428D-03  0.16890364D-03
 -0.33791792D-03  0.18874251D-14 -0.11826847D-14 -0.42525489D-07 -0.95579829D-05
 -0.95587571D-05  0.19116740D-04  0.27992841D-16 -0.14378382D-15 -0.13883463D-08
  0.15402052D-15 -0.15167859D-02  0.11690343D-02 -0.11658420D-15  0.45505617D-02
 -0.17538822D-02 -0.34547735D-15 -0.20415224D-06 -0.17532208D-02 -0.26807968D-14
 -0.76663605D-16  0.13696684D-03 -0.12543795D-03  0.86527631D-16 -0.41091544D-03
  0.18815822D-03  0.14346319D-15  0.14921882D-07  0.18815562D-03 -0.13871549D-15
  0.53333440D-04  0.96189055D-04  0.14183071D-03 -0.92108291D-03 -0.30360911D-03
 -0.60604061D-05  0.86990224D-16 -0.17636681D-02 -0.60955977D-03  0.26398503D-16
 -0.12253421D-02 -0.67924318D-03 -0.15398050D-15 -0.11058046D-03 -0.72241609D-04
  0.11610475D-02 -0.17210017D-02  0.55995418D-03  0.28958754D-15  0.10221050D-15
 -0.26207521D-02  0.66188732D-04 -0.82235643D-04  0.16046911D-04  0.30398349D-17
  0.11290207D-15 -0.19604909D-03  0.53307155D-04  0.96141649D-04  0.14176081D-03
 -0.92121579D-03 -0.30363329D-03 -0.60614737D-05  0.15275372D-02  0.88192138D-03
 -0.60962905D-03  0.10612742D-02  0.61275200D-03 -0.67926583D-03  0.95771112D-04
  0.55294712D-04 -0.72242715D-04 -0.10005329D-02  0.44052224D-03  0.56001070D-03
 -0.24961000D-02  0.22696620D-02  0.13104181D-02 -0.45133318D-04  0.29082213D-04
  0.16051105D-04 -0.12855338D-03  0.16978587D-03  0.98031518D-04  0.53307155D-04
  0.96141649D-04  0.14176081D-03 -0.92121579D-03 -0.30363329D-03 -0.60614737D-05
 -0.15275372D-02  0.88192138D-03 -0.60962905D-03 -0.10612742D-02  0.61275200D-03
 -0.67926583D-03 -0.95771112D-04  0.55294712D-04 -0.72242715D-04 -0.10005329D-02
  0.44052224D-03  0.56001070D-03  0.24961000D-02 -0.22696620D-02  0.13104181D-02
 -0.45133318D-04  0.29082213D-04  0.16051105D-04  0.12855338D-03 -0.16978587D-03
  0.98031518D-04
MO    2     MO 0.0        OCC NO =    2.0000000  ORB. ENERGY =   -0.820740
 -0.50238299D-02 -0.93611673D-02 -0.15832081D-01 -0.23842236D-01 -0.29518235D-01
 -0.25118686D-01 -0.95581234D-02  0.44764770D-04 -0.74841513D-01 -0.14032854D+00
 -0.23874059D+00 -0.37073893D+00 -0.49199213D+00 -0.51849217D+00 -0.32149822D+00
  0.21386074D+00  0.10432609D+00  0.70038572D-01  0.40201871D-02  0.59897668D-14
  0.57530994D-14  0.40344704D-14 -0.14553236D-05 -0.13978209D-05 -0.98024852D-06
 -0.17807586D+00 -0.17103974D+00 -0.11994487D+00 -0.24353461D-13  0.88815021D-06
 -0.54368395D-01 -0.91070642D-13 -0.13096090D-05 -0.72419968D-02 -0.58027519D-14
 -0.75162571D-07 -0.15057352D-03  0.29273046D-02  0.29305500D-02 -0.58578546D-02
  0.29796596D-14 -0.12570618D-13  0.18252328D-05  0.19967567D-02  0.19956985D-02
 -0.39924553D-02 -0.21591531D-13  0.25032895D-13 -0.62965455D-06 -0.15072790D-03
 -0.15068629D-03  0.30141418D-03 -0.10831167D-13  0.46425779D-14  0.12168091D-06
  0.11898060D-14 -0.18070889D-02  0.16613306D-02  0.83696440D-15  0.54228855D-02
 -0.24929757D-02 -0.44063824D-14 -0.16188987D-05 -0.24910160D-02 -0.38024860D-14
 -0.23744295D-14 -0.40833079D-03  0.59017605D-03  0.12575594D-15  0.12248939D-02
 -0.88540337D-03  0.69975326D-14  0.98439510D-07 -0.88512478D-03  0.53281080D-14
  0.22479707D-01  0.40543078D-01  0.59780745D-01  0.19137090D-01 -0.42130363D-02
 -0.12484249D-03 -0.50511934D-14  0.25922473D-01  0.68974470D-02  0.77379344D-14
 -0.25745778D-02 -0.11987273D-02 -0.83601947D-14 -0.12504773D-02 -0.28826216D-03
 -0.28498334D-02  0.55152214D-02 -0.26653880D-02  0.32253268D-14 -0.10514162D-14
  0.45838365D-02  0.40688018D-03 -0.87401653D-03  0.46713635D-03  0.11087745D-15
  0.29005089D-14 -0.75610220D-03  0.22478633D-01  0.40541141D-01  0.59777888D-01
  0.19137731D-01 -0.42123091D-02 -0.12478018D-03 -0.22447279D-01 -0.12963460D-01
  0.68933551D-02  0.22297232D-02  0.12881482D-02 -0.11977590D-02  0.10828928D-02
  0.62536967D-03 -0.28806999D-03  0.34231496D-02 -0.75699939D-03 -0.26661502D-02
  0.72448081D-02 -0.39681872D-02 -0.22902169D-02 -0.55374878D-03  0.86409488D-04
  0.46733929D-03 -0.11095068D-02  0.65445634D-03  0.37788064D-03  0.22478633D-01
  0.40541141D-01  0.59777888D-01  0.19137731D-01 -0.42123091D-02 -0.12478018D-03
  0.22447279D-01 -0.12963460D-01  0.68933551D-02 -0.22297232D-02  0.12881482D-02
 -0.11977590D-02 -0.10828928D-02  0.62536967D-03 -0.28806999D-03  0.34231496D-02
 -0.75699939D-03 -0.26661502D-02 -0.72448081D-02  0.39681872D-02 -0.22902169D-02
 -0.55374878D-03  0.86409488D-04  0.46733929D-03  0.11095068D-02 -0.65445634D-03
  0.37788064D-03
MO    3     MO 0.0        OCC NO =    2.0000000  ORB. ENERGY =   -0.423888
  0.42287477D-07  0.78796488D-07  0.13326461D-06  0.20068913D-06  0.24846616D-06
  0.21143349D-06  0.80454342D-07 -0.37680200D-09 -0.36757318D-06 -0.68920316D-06
 -0.11725396D-05 -0.18208302D-05 -0.24163476D-05 -0.25464987D-05 -0.15789917D-05
  0.10503459D-05 -0.82215969D-06  0.25062761D-05  0.28267754D-06  0.71676065D-09
  0.68844004D-09  0.48278168D-09  0.89647954D+00  0.86105788D+00  0.60383322D+00
  0.75830033D-05  0.72833840D-05  0.51076116D-05  0.17592690D-09  0.22013205D+00
  0.76159560D-06  0.29616266D-10  0.37169787D-01 -0.35655890D-06  0.79559906D-12
  0.10034790D-02 -0.60105663D-09  0.17409970D-01 -0.17409446D-01 -0.52373177D-06
  0.27844860D-10 -0.47627223D-10 -0.59555711D-01  0.57182734D-02 -0.57171210D-02
 -0.11524196D-05  0.90793160D-11 -0.14754235D-10 -0.18518544D-01  0.59027723D-03
 -0.59017776D-03 -0.99461903D-07  0.92797101D-12 -0.97216995D-12 -0.12306697D-02
  0.80700154D-12  0.10109427D-02  0.59609367D-06  0.80730123D-12  0.10120341D-02
  0.94260589D-02 -0.32283059D-11 -0.40448621D-02 -0.94278472D-02  0.15116794D-10
 -0.54567354D-13 -0.68314557D-04  0.17319041D-06 -0.56391621D-13 -0.67430071D-04
 -0.20481700D-02  0.22009368D-12  0.27237374D-03  0.20476504D-02 -0.32585900D-11
 -0.44073410D-01 -0.79488210D-01 -0.11720532D+00 -0.62497584D-01  0.17326011D-01
  0.10430794D-02  0.12721067D-10 -0.34389826D-01 -0.18575482D-01  0.72377929D-11
  0.99429958D-02 -0.10529962D-02  0.81399045D-12  0.60498053D-02  0.14845734D-02
  0.48576494D-02 -0.85214518D-02  0.36638023D-02  0.68572643D-11  0.32149823D-11
 -0.13983073D-01 -0.82565668D-03  0.22250604D-02 -0.13994037D-02  0.71106587D-12
 -0.51846226D-12  0.77545661D-03  0.22035806D-01  0.39742483D-01  0.58600268D-01
  0.31245946D-01 -0.86631943D-02 -0.52155147D-03 -0.21783364D-01  0.33475947D-02
  0.92857870D-02  0.38842799D-03  0.92704418D-02  0.52614100D-03  0.21777001D-02
  0.22775791D-02 -0.74222782D-03  0.58075747D-02 -0.39754662D-02 -0.18321085D-02
  0.20724480D-02 -0.77961483D-02 -0.47381886D-03 -0.39840688D-03 -0.30120532D-03
  0.69961220D-03 -0.17047186D-02  0.61584351D-03 -0.29180274D-03  0.22035805D-01
  0.39742483D-01  0.58600267D-01  0.31245946D-01 -0.86631943D-02 -0.52155147D-03
  0.21783364D-01  0.33475948D-02  0.92857870D-02 -0.38842797D-03  0.92704418D-02
  0.52614100D-03 -0.21777001D-02  0.22775791D-02 -0.74222781D-03  0.58075747D-02
 -0.39754662D-02 -0.18321085D-02 -0.20724480D-02  0.77961483D-02 -0.47381884D-03
 -0.39840688D-03 -0.30120532D-03  0.69961220D-03  0.17047186D-02 -0.61584351D-03
 -0.29180274D-03
MO    4     MO 0.0        OCC NO =    2.0000000  ORB. ENERGY =   -0.423887
 -0.19651513D-14 -0.36617701D-14 -0.61929713D-14 -0.93262716D-14 -0.11546529D-13
 -0.98255753D-14 -0.37388126D-14  0.17510455D-16  0.16540303D-14  0.31013222D-14
  0.52762718D-14  0.81934931D-14  0.10873242D-13  0.11458904D-13  0.71052517D-14
 -0.47264162D-14  0.39008101D-13 -0.65165734D-12 -0.13816473D-12  0.89647348D+00
  0.86105206D+00  0.60382914D+00 -0.71672014D-09 -0.68840113D-09 -0.48275439D-09
 -0.62223625D-13 -0.59765048D-13 -0.41911377D-13  0.22013062D+00 -0.17605796D-09
  0.12441797D-12  0.37171174D-01 -0.29803442D-10  0.13364016D-12  0.10036379D-02
 -0.80722697D-12  0.51597988D-14 -0.13902683D-10  0.13930941D-10 -0.28257295D-13
  0.34819043D-01 -0.59562346D-01  0.47610064D-10 -0.46343734D-11  0.45638687D-11
  0.70504783D-13  0.11435142D-01 -0.18517954D-01  0.14850127D-10 -0.48388474D-12
  0.47462217D-12  0.92625623D-14  0.11805319D-02 -0.12309511D-02  0.99339194D-12
  0.10100516D-02 -0.79271994D-12 -0.10790538D-13  0.10109538D-02 -0.85704457D-12
 -0.75047520D-11 -0.40411087D-02  0.32352044D-11  0.75371236D-11  0.18861082D-01
 -0.68130244D-04  0.68813395D-13 -0.12589479D-13 -0.67497945D-04  0.90411109D-14
  0.16631971D-11  0.27188868D-03 -0.21548130D-12 -0.16254286D-11 -0.40958397D-02
  0.35236343D-10  0.63550196D-10  0.93704726D-10  0.50133005D-10 -0.13850352D-10
 -0.83563626D-12  0.15921192D-01  0.27490321D-10  0.14866173D-10  0.90459837D-02
 -0.78747967D-11  0.86931870D-12  0.10202807D-02 -0.48441840D-11 -0.11881170D-11
 -0.38903975D-11  0.68190761D-11 -0.29286786D-11  0.85854945D-02  0.40237792D-02
  0.11212363D-10  0.66146379D-12 -0.17829633D-11  0.11214996D-11  0.88707409D-03
 -0.64747809D-03 -0.62139357D-12  0.38168578D-01  0.68838603D-01  0.10150248D+00
  0.54122215D-01 -0.15005031D-01 -0.90353711D-03 -0.21807179D-01 -0.21789823D-01
  0.16083391D-01  0.97185956D-02  0.38841431D-03  0.91139914D-03  0.47920814D-02
  0.21779883D-02 -0.12856387D-02  0.26210142D-02  0.55188884D-03 -0.31729030D-02
  0.12181553D-01 -0.94767045D-02 -0.77951354D-02 -0.14580775D-02  0.24624415D-03
  0.12118333D-02 -0.20661808D-02  0.41949068D-03  0.61585400D-03 -0.38168578D-01
 -0.68838603D-01 -0.10150248D+00 -0.54122215D-01  0.15005031D-01  0.90353711D-03
 -0.21807179D-01  0.21789823D-01 -0.16083391D-01  0.97185956D-02 -0.38841432D-03
 -0.91139915D-03  0.47920814D-02 -0.21779883D-02  0.12856387D-02 -0.26210142D-02
 -0.55188883D-03  0.31729030D-02  0.12181553D-01 -0.94767045D-02  0.77951354D-02
  0.14580775D-02 -0.24624415D-03 -0.12118333D-02 -0.20661808D-02  0.41949068D-03
 -0.61585400D-03
MO    5     MO 0.0        OCC NO =    2.0000000  ORB. ENERGY =   -0.237086
  0.55554655D-03  0.10351792D-02  0.17507475D-02  0.26365288D-02  0.32641937D-02
  0.27776815D-02  0.10569591D-02 -0.49501902D-05 -0.28056297D-01 -0.52605819D-01
 -0.89498151D-01 -0.13898118D+00 -0.18443611D+00 -0.19437034D+00 -0.12052201D+00
  0.80171288D-01  0.43848143D-01  0.16024096D-01 -0.38535588D-02 -0.92690925D-14
 -0.89028526D-14 -0.62432948D-14 -0.63393883D-05 -0.60889067D-05 -0.42699617D-05
  0.10324018D+01  0.99160958D+00  0.69538509D+00  0.35182142D-13 -0.57521946D-06
  0.26125570D+00  0.38408599D-13  0.23121235D-05  0.60286560D-01  0.27302147D-14
  0.45482258D-06  0.22881580D-02  0.15595772D-01  0.15602275D-01 -0.31198047D-01
 -0.18927303D-14 -0.30951956D-14 -0.84636953D-08  0.26793069D-02  0.26769177D-02
 -0.53562246D-02  0.28666160D-13 -0.17299998D-13 -0.85024792D-06  0.34826460D-03
  0.34784246D-03 -0.69610706D-03  0.55134846D-14 -0.36549597D-14 -0.77561753D-07
  0.76494257D-15 -0.27181887D-02 -0.40542883D-02 -0.88887903D-16  0.81552237D-02
  0.60811181D-02 -0.22059398D-14 -0.65765130D-06  0.60817468D-02 -0.20082652D-13
  0.27929089D-15  0.43327151D-03 -0.11137553D-02  0.81089331D-15 -0.12999320D-02
  0.16701392D-02 -0.16487660D-14  0.11748092D-06  0.16711268D-02 -0.43767673D-14
 -0.11250579D-01 -0.20290883D-01 -0.29918895D-01 -0.98679765D-02  0.17578565D-02
  0.15673475D-03  0.32199689D-14 -0.14161842D-01  0.19643577D-01 -0.14814231D-14
  0.40570177D-02  0.10414516D-01 -0.10919535D-14  0.82130434D-03  0.18841650D-03
  0.94648022D-03 -0.60307373D-02  0.50842571D-02  0.45718886D-14  0.10773391D-14
  0.84202873D-02  0.33092873D-04  0.56867085D-03 -0.60176372D-03 -0.81803851D-15
  0.71876020D-15 -0.27265735D-03 -0.11251749D-01 -0.20292993D-01 -0.29922007D-01
 -0.98718932D-02  0.17519976D-02  0.15520654D-03  0.12266376D-01  0.70845517D-02
  0.19649415D-01 -0.35135682D-02 -0.20282530D-02  0.10413587D-01 -0.71055706D-03
 -0.41031335D-03  0.18778599D-03 -0.42864701D-02 -0.79975858D-03  0.50862286D-02
 -0.60433974D-02 -0.72965168D-02 -0.42107246D-02  0.43489423D-03  0.16725743D-03
 -0.60215166D-03  0.46392782D-03  0.23645075D-03  0.13645114D-03 -0.11251749D-01
 -0.20292993D-01 -0.29922007D-01 -0.98718932D-02  0.17519976D-02  0.15520654D-03
 -0.12266376D-01  0.70845517D-02  0.19649415D-01  0.35135682D-02 -0.20282530D-02
  0.10413587D-01  0.71055706D-03 -0.41031335D-03  0.18778599D-03 -0.42864701D-02
 -0.79975858D-03  0.50862286D-02  0.60433974D-02  0.72965168D-02 -0.42107246D-02
  0.43489423D-03  0.16725743D-03 -0.60215166D-03 -0.46392782D-03 -0.23645075D-03
  0.13645114D-03
END DATA
RHF
