 Molden2AIM, Version 4.0.0 (06/02/2016)           Time: Thu Jun 28 21:24:20 2018
GAUSSIAN             18 MOL ORBITALS    483 PRIMITIVES        9 NUCLEI
  C    1    (CENTRE  1)   0.00000000  0.00000000 -2.33491536  CHARGE =  6.0
  N    2    (CENTRE  2)   1.98061250  0.00000000 -0.68822692  CHARGE =  7.0
  N    3    (CENTRE  3)  -1.98061250  0.00000000 -0.68822692  CHARGE =  7.0
  C    4    (CENTRE  4)  -1.28204312  0.00000000  1.83492974  CHARGE =  6.0
  C    5    (CENTRE  5)   1.28204312  0.00000000  1.83492974  CHARGE =  6.0
  H    6    (CENTRE  6)  -3.78254573  0.00000000 -1.30098195  CHARGE =  1.0
  H    7    (CENTRE  7)   3.78254573  0.00000000 -1.30098195  CHARGE =  1.0
  H    8    (CENTRE  8)  -2.61776957  0.00000000  3.38687487  CHARGE =  1.0
  H    9    (CENTRE  9)   2.61776957  0.00000000  3.38687487  CHARGE =  1.0
CENTRE ASSIGNMENTS    1  1  1  1  1  1  1  1  1  1  1  1  1  1  1  1  1  1  1  1
CENTRE ASSIGNMENTS    1  1  1  1  1  1  1  1  1  1  1  1  1  1  1  1  1  1  1  1
CENTRE ASSIGNMENTS    1  1  1  1  1  1  1  1  1  1  1  1  1  1  1  1  1  1  1  1
CENTRE ASSIGNMENTS    1  1  1  1  1  1  1  1  1  1  1  1  1  1  1  2  2  2  2  2
CENTRE ASSIGNMENTS    2  2  2  2  2  2  2  2  2  2  2  2  2  2  2  2  2  2  2  2
CENTRE ASSIGNMENTS    2  2  2  2  2  2  2  2  2  2  2  2  2  2  2  2  2  2  2  2
CENTRE ASSIGNMENTS    2  2  2  2  2  2  2  2  2  2  2  2  2  2  2  2  2  2  2  2
CENTRE ASSIGNMENTS    2  2  2  2  2  2  2  2  2  2  3  3  3  3  3  3  3  3  3  3
CENTRE ASSIGNMENTS    3  3  3  3  3  3  3  3  3  3  3  3  3  3  3  3  3  3  3  3
CENTRE ASSIGNMENTS    3  3  3  3  3  3  3  3  3  3  3  3  3  3  3  3  3  3  3  3
CENTRE ASSIGNMENTS    3  3  3  3  3  3  3  3  3  3  3  3  3  3  3  3  3  3  3  3
CENTRE ASSIGNMENTS    3  3  3  3  3  4  4  4  4  4  4  4  4  4  4  4  4  4  4  4
CENTRE ASSIGNMENTS    4  4  4  4  4  4  4  4  4  4  4  4  4  4  4  4  4  4  4  4
CENTRE ASSIGNMENTS    4  4  4  4  4  4  4  4  4  4  4  4  4  4  4  4  4  4  4  4
CENTRE ASSIGNMENTS    4  4  4  4  4  4  4  4  4  4  4  4  4  4  4  4  4  4  4  4
CENTRE ASSIGNMENTS    5  5  5  5  5  5  5  5  5  5  5  5  5  5  5  5  5  5  5  5
CENTRE ASSIGNMENTS    5  5  5  5  5  5  5  5  5  5  5  5  5  5  5  5  5  5  5  5
CENTRE ASSIGNMENTS    5  5  5  5  5  5  5  5  5  5  5  5  5  5  5  5  5  5  5  5
CENTRE ASSIGNMENTS    5  5  5  5  5  5  5  5  5  5  5  5  5  5  5  6  6  6  6  6
CENTRE ASSIGNMENTS    6  6  6  6  6  6  6  6  6  6  6  6  6  6  6  6  6  6  6  6
CENTRE ASSIGNMENTS    6  6  7  7  7  7  7  7  7  7  7  7  7  7  7  7  7  7  7  7
CENTRE ASSIGNMENTS    7  7  7  7  7  7  7  7  7  8  8  8  8  8  8  8  8  8  8  8
CENTRE ASSIGNMENTS    8  8  8  8  8  8  8  8  8  8  8  8  8  8  8  8  9  9  9  9
CENTRE ASSIGNMENTS    9  9  9  9  9  9  9  9  9  9  9  9  9  9  9  9  9  9  9  9
CENTRE ASSIGNMENTS    9  9  9
TYPE ASSIGNMENTS      1  1  1  1  1  1  1  1  1  1  1  1  1  1  1  1  1  1  1  2
TYPE ASSIGNMENTS      2  2  3  3  3  4  4  4  2  3  4  2  3  4  2  3  4  5  6  7
TYPE ASSIGNMENTS      8  9 10  5  6  7  8  9 10  5  6  7  8  9 10 11 12 13 17 14
TYPE ASSIGNMENTS     15 18 19 16 20 11 12 13 17 14 15 18 19 16 20  1  1  1  1  1
TYPE ASSIGNMENTS      1  1  1  1  1  1  1  1  1  1  1  1  1  1  2  2  2  3  3  3
TYPE ASSIGNMENTS      4  4  4  2  3  4  2  3  4  2  3  4  5  6  7  8  9 10  5  6
TYPE ASSIGNMENTS      7  8  9 10  5  6  7  8  9 10 11 12 13 17 14 15 18 19 16 20
TYPE ASSIGNMENTS     11 12 13 17 14 15 18 19 16 20  1  1  1  1  1  1  1  1  1  1
TYPE ASSIGNMENTS      1  1  1  1  1  1  1  1  1  2  2  2  3  3  3  4  4  4  2  3
TYPE ASSIGNMENTS      4  2  3  4  2  3  4  5  6  7  8  9 10  5  6  7  8  9 10  5
TYPE ASSIGNMENTS      6  7  8  9 10 11 12 13 17 14 15 18 19 16 20 11 12 13 17 14
TYPE ASSIGNMENTS     15 18 19 16 20  1  1  1  1  1  1  1  1  1  1  1  1  1  1  1
TYPE ASSIGNMENTS      1  1  1  1  2  2  2  3  3  3  4  4  4  2  3  4  2  3  4  2
TYPE ASSIGNMENTS      3  4  5  6  7  8  9 10  5  6  7  8  9 10  5  6  7  8  9 10
TYPE ASSIGNMENTS     11 12 13 17 14 15 18 19 16 20 11 12 13 17 14 15 18 19 16 20
TYPE ASSIGNMENTS      1  1  1  1  1  1  1  1  1  1  1  1  1  1  1  1  1  1  1  2
TYPE ASSIGNMENTS      2  2  3  3  3  4  4  4  2  3  4  2  3  4  2  3  4  5  6  7
TYPE ASSIGNMENTS      8  9 10  5  6  7  8  9 10  5  6  7  8  9 10 11 12 13 17 14
TYPE ASSIGNMENTS     15 18 19 16 20 11 12 13 17 14 15 18 19 16 20  1  1  1  1  1
TYPE ASSIGNMENTS      1  2  3  4  2  3  4  2  3  4  5  6  7  8  9 10  5  6  7  8
TYPE ASSIGNMENTS      9 10  1  1  1  1  1  1  2  3  4  2  3  4  2  3  4  5  6  7
TYPE ASSIGNMENTS      8  9 10  5  6  7  8  9 10  1  1  1  1  1  1  2  3  4  2  3
TYPE ASSIGNMENTS      4  2  3  4  5  6  7  8  9 10  5  6  7  8  9 10  1  1  1  1
TYPE ASSIGNMENTS      1  1  2  3  4  2  3  4  2  3  4  5  6  7  8  9 10  5  6  7
TYPE ASSIGNMENTS      8  9 10
EXPONENTS  0.8236000D+04 0.1235000D+04 0.2808000D+03 0.7927000D+02 0.2559000D+02
EXPONENTS  0.8997000D+01 0.3319000D+01 0.3643000D+00 0.8236000D+04 0.1235000D+04
EXPONENTS  0.2808000D+03 0.7927000D+02 0.2559000D+02 0.8997000D+01 0.3319000D+01
EXPONENTS  0.3643000D+00 0.9059000D+00 0.1285000D+00 0.4402000D-01 0.1871000D+02
EXPONENTS  0.4133000D+01 0.1200000D+01 0.1871000D+02 0.4133000D+01 0.1200000D+01
EXPONENTS  0.1871000D+02 0.4133000D+01 0.1200000D+01 0.3827000D+00 0.3827000D+00
EXPONENTS  0.3827000D+00 0.1209000D+00 0.1209000D+00 0.1209000D+00 0.3569000D-01
EXPONENTS  0.3569000D-01 0.3569000D-01 0.1097000D+01 0.1097000D+01 0.1097000D+01
EXPONENTS  0.1097000D+01 0.1097000D+01 0.1097000D+01 0.3180000D+00 0.3180000D+00
EXPONENTS  0.3180000D+00 0.3180000D+00 0.3180000D+00 0.3180000D+00 0.1000000D+00
EXPONENTS  0.1000000D+00 0.1000000D+00 0.1000000D+00 0.1000000D+00 0.1000000D+00
EXPONENTS  0.7610000D+00 0.7610000D+00 0.7610000D+00 0.7610000D+00 0.7610000D+00
EXPONENTS  0.7610000D+00 0.7610000D+00 0.7610000D+00 0.7610000D+00 0.7610000D+00
EXPONENTS  0.2680000D+00 0.2680000D+00 0.2680000D+00 0.2680000D+00 0.2680000D+00
EXPONENTS  0.2680000D+00 0.2680000D+00 0.2680000D+00 0.2680000D+00 0.2680000D+00
EXPONENTS  0.1142000D+05 0.1712000D+04 0.3893000D+03 0.1100000D+03 0.3557000D+02
EXPONENTS  0.1254000D+02 0.4644000D+01 0.5118000D+00 0.1142000D+05 0.1712000D+04
EXPONENTS  0.3893000D+03 0.1100000D+03 0.3557000D+02 0.1254000D+02 0.4644000D+01
EXPONENTS  0.5118000D+00 0.1293000D+01 0.1787000D+00 0.5760000D-01 0.2663000D+02
EXPONENTS  0.5948000D+01 0.1742000D+01 0.2663000D+02 0.5948000D+01 0.1742000D+01
EXPONENTS  0.2663000D+02 0.5948000D+01 0.1742000D+01 0.5550000D+00 0.5550000D+00
EXPONENTS  0.5550000D+00 0.1725000D+00 0.1725000D+00 0.1725000D+00 0.4910000D-01
EXPONENTS  0.4910000D-01 0.4910000D-01 0.1654000D+01 0.1654000D+01 0.1654000D+01
EXPONENTS  0.1654000D+01 0.1654000D+01 0.1654000D+01 0.4690000D+00 0.4690000D+00
EXPONENTS  0.4690000D+00 0.4690000D+00 0.4690000D+00 0.4690000D+00 0.1510000D+00
EXPONENTS  0.1510000D+00 0.1510000D+00 0.1510000D+00 0.1510000D+00 0.1510000D+00
EXPONENTS  0.1093000D+01 0.1093000D+01 0.1093000D+01 0.1093000D+01 0.1093000D+01
EXPONENTS  0.1093000D+01 0.1093000D+01 0.1093000D+01 0.1093000D+01 0.1093000D+01
EXPONENTS  0.3640000D+00 0.3640000D+00 0.3640000D+00 0.3640000D+00 0.3640000D+00
EXPONENTS  0.3640000D+00 0.3640000D+00 0.3640000D+00 0.3640000D+00 0.3640000D+00
EXPONENTS  0.1142000D+05 0.1712000D+04 0.3893000D+03 0.1100000D+03 0.3557000D+02
EXPONENTS  0.1254000D+02 0.4644000D+01 0.5118000D+00 0.1142000D+05 0.1712000D+04
EXPONENTS  0.3893000D+03 0.1100000D+03 0.3557000D+02 0.1254000D+02 0.4644000D+01
EXPONENTS  0.5118000D+00 0.1293000D+01 0.1787000D+00 0.5760000D-01 0.2663000D+02
EXPONENTS  0.5948000D+01 0.1742000D+01 0.2663000D+02 0.5948000D+01 0.1742000D+01
EXPONENTS  0.2663000D+02 0.5948000D+01 0.1742000D+01 0.5550000D+00 0.5550000D+00
EXPONENTS  0.5550000D+00 0.1725000D+00 0.1725000D+00 0.1725000D+00 0.4910000D-01
EXPONENTS  0.4910000D-01 0.4910000D-01 0.1654000D+01 0.1654000D+01 0.1654000D+01
EXPONENTS  0.1654000D+01 0.1654000D+01 0.1654000D+01 0.4690000D+00 0.4690000D+00
EXPONENTS  0.4690000D+00 0.4690000D+00 0.4690000D+00 0.4690000D+00 0.1510000D+00
EXPONENTS  0.1510000D+00 0.1510000D+00 0.1510000D+00 0.1510000D+00 0.1510000D+00
EXPONENTS  0.1093000D+01 0.1093000D+01 0.1093000D+01 0.1093000D+01 0.1093000D+01
EXPONENTS  0.1093000D+01 0.1093000D+01 0.1093000D+01 0.1093000D+01 0.1093000D+01
EXPONENTS  0.3640000D+00 0.3640000D+00 0.3640000D+00 0.3640000D+00 0.3640000D+00
EXPONENTS  0.3640000D+00 0.3640000D+00 0.3640000D+00 0.3640000D+00 0.3640000D+00
EXPONENTS  0.8236000D+04 0.1235000D+04 0.2808000D+03 0.7927000D+02 0.2559000D+02
EXPONENTS  0.8997000D+01 0.3319000D+01 0.3643000D+00 0.8236000D+04 0.1235000D+04
EXPONENTS  0.2808000D+03 0.7927000D+02 0.2559000D+02 0.8997000D+01 0.3319000D+01
EXPONENTS  0.3643000D+00 0.9059000D+00 0.1285000D+00 0.4402000D-01 0.1871000D+02
EXPONENTS  0.4133000D+01 0.1200000D+01 0.1871000D+02 0.4133000D+01 0.1200000D+01
EXPONENTS  0.1871000D+02 0.4133000D+01 0.1200000D+01 0.3827000D+00 0.3827000D+00
EXPONENTS  0.3827000D+00 0.1209000D+00 0.1209000D+00 0.1209000D+00 0.3569000D-01
EXPONENTS  0.3569000D-01 0.3569000D-01 0.1097000D+01 0.1097000D+01 0.1097000D+01
EXPONENTS  0.1097000D+01 0.1097000D+01 0.1097000D+01 0.3180000D+00 0.3180000D+00
EXPONENTS  0.3180000D+00 0.3180000D+00 0.3180000D+00 0.3180000D+00 0.1000000D+00
EXPONENTS  0.1000000D+00 0.1000000D+00 0.1000000D+00 0.1000000D+00 0.1000000D+00
EXPONENTS  0.7610000D+00 0.7610000D+00 0.7610000D+00 0.7610000D+00 0.7610000D+00
EXPONENTS  0.7610000D+00 0.7610000D+00 0.7610000D+00 0.7610000D+00 0.7610000D+00
EXPONENTS  0.2680000D+00 0.2680000D+00 0.2680000D+00 0.2680000D+00 0.2680000D+00
EXPONENTS  0.2680000D+00 0.2680000D+00 0.2680000D+00 0.2680000D+00 0.2680000D+00
EXPONENTS  0.8236000D+04 0.1235000D+04 0.2808000D+03 0.7927000D+02 0.2559000D+02
EXPONENTS  0.8997000D+01 0.3319000D+01 0.3643000D+00 0.8236000D+04 0.1235000D+04
EXPONENTS  0.2808000D+03 0.7927000D+02 0.2559000D+02 0.8997000D+01 0.3319000D+01
EXPONENTS  0.3643000D+00 0.9059000D+00 0.1285000D+00 0.4402000D-01 0.1871000D+02
EXPONENTS  0.4133000D+01 0.1200000D+01 0.1871000D+02 0.4133000D+01 0.1200000D+01
EXPONENTS  0.1871000D+02 0.4133000D+01 0.1200000D+01 0.3827000D+00 0.3827000D+00
EXPONENTS  0.3827000D+00 0.1209000D+00 0.1209000D+00 0.1209000D+00 0.3569000D-01
EXPONENTS  0.3569000D-01 0.3569000D-01 0.1097000D+01 0.1097000D+01 0.1097000D+01
EXPONENTS  0.1097000D+01 0.1097000D+01 0.1097000D+01 0.3180000D+00 0.3180000D+00
EXPONENTS  0.3180000D+00 0.3180000D+00 0.3180000D+00 0.3180000D+00 0.1000000D+00
EXPONENTS  0.1000000D+00 0.1000000D+00 0.1000000D+00 0.1000000D+00 0.1000000D+00
EXPONENTS  0.7610000D+00 0.7610000D+00 0.7610000D+00 0.7610000D+00 0.7610000D+00
EXPONENTS  0.7610000D+00 0.7610000D+00 0.7610000D+00 0.7610000D+00 0.7610000D+00
EXPONENTS  0.2680000D+00 0.2680000D+00 0.2680000D+00 0.2680000D+00 0.2680000D+00
EXPONENTS  0.2680000D+00 0.2680000D+00 0.2680000D+00 0.2680000D+00 0.2680000D+00
EXPONENTS  0.3387000D+02 0.5095000D+01 0.1159000D+01 0.3258000D+00 0.1027000D+00
EXPONENTS  0.2526000D-01 0.1407000D+01 0.1407000D+01 0.1407000D+01 0.3880000D+00
EXPONENTS  0.3880000D+00 0.3880000D+00 0.1020000D+00 0.1020000D+00 0.1020000D+00
EXPONENTS  0.1057000D+01 0.1057000D+01 0.1057000D+01 0.1057000D+01 0.1057000D+01
EXPONENTS  0.1057000D+01 0.2470000D+00 0.2470000D+00 0.2470000D+00 0.2470000D+00
EXPONENTS  0.2470000D+00 0.2470000D+00 0.3387000D+02 0.5095000D+01 0.1159000D+01
EXPONENTS  0.3258000D+00 0.1027000D+00 0.2526000D-01 0.1407000D+01 0.1407000D+01
EXPONENTS  0.1407000D+01 0.3880000D+00 0.3880000D+00 0.3880000D+00 0.1020000D+00
EXPONENTS  0.1020000D+00 0.1020000D+00 0.1057000D+01 0.1057000D+01 0.1057000D+01
EXPONENTS  0.1057000D+01 0.1057000D+01 0.1057000D+01 0.2470000D+00 0.2470000D+00
EXPONENTS  0.2470000D+00 0.2470000D+00 0.2470000D+00 0.2470000D+00 0.3387000D+02
EXPONENTS  0.5095000D+01 0.1159000D+01 0.3258000D+00 0.1027000D+00 0.2526000D-01
EXPONENTS  0.1407000D+01 0.1407000D+01 0.1407000D+01 0.3880000D+00 0.3880000D+00
EXPONENTS  0.3880000D+00 0.1020000D+00 0.1020000D+00 0.1020000D+00 0.1057000D+01
EXPONENTS  0.1057000D+01 0.1057000D+01 0.1057000D+01 0.1057000D+01 0.1057000D+01
EXPONENTS  0.2470000D+00 0.2470000D+00 0.2470000D+00 0.2470000D+00 0.2470000D+00
EXPONENTS  0.2470000D+00 0.3387000D+02 0.5095000D+01 0.1159000D+01 0.3258000D+00
EXPONENTS  0.1027000D+00 0.2526000D-01 0.1407000D+01 0.1407000D+01 0.1407000D+01
EXPONENTS  0.3880000D+00 0.3880000D+00 0.3880000D+00 0.1020000D+00 0.1020000D+00
EXPONENTS  0.1020000D+00 0.1057000D+01 0.1057000D+01 0.1057000D+01 0.1057000D+01
EXPONENTS  0.1057000D+01 0.1057000D+01 0.2470000D+00 0.2470000D+00 0.2470000D+00
EXPONENTS  0.2470000D+00 0.2470000D+00 0.2470000D+00
MO    1     MO 0.0        OCC NO =    2.0000000  ORB. ENERGY =  -14.220686
  0.31516937D-11  0.58754736D-11  0.99305854D-11  0.14928923D-10  0.18341906D-10
  0.15492672D-10  0.58432659D-11 -0.28918649D-13 -0.24280949D-11 -0.45461598D-11
 -0.77402261D-11 -0.11972953D-10 -0.15767958D-10 -0.16383918D-10 -0.10411244D-10
  0.69773739D-11  0.10646826D-10 -0.10652211D-10 -0.92960957D-12  0.96568946D-03
  0.90539526D-03  0.64469536D-03  0.15518022D-15  0.14549132D-15  0.10359848D-15
  0.71595373D-11  0.67125213D-11  0.47797151D-11  0.83115273D-03  0.35634619D-17
  0.51835468D-11  0.22113949D-03  0.11899617D-17 -0.46059814D-11  0.79610927D-06
 -0.10169632D-17 -0.50557437D-14  0.49153508D-12  0.24168613D-12 -0.73322122D-12
 -0.97808878D-16 -0.44264290D-04 -0.26438421D-15 -0.72047462D-11  0.36149471D-11
  0.35897992D-11  0.28403042D-16 -0.82719516D-03  0.44692754D-16  0.20789367D-12
  0.82965217D-13 -0.29085888D-12 -0.19417455D-18 -0.40714080D-04 -0.13717862D-18
  0.13959883D-03 -0.17098920D-17  0.19742964D-11  0.93979464D-03  0.25208694D-17
 -0.12095028D-10 -0.13585911D-02  0.26088067D-17  0.61721393D-11  0.15889289D-17
  0.40466574D-04  0.30081812D-18  0.34449316D-12  0.73648561D-04  0.71102095D-19
 -0.16391031D-11 -0.19504828D-03 -0.97355647D-18  0.60562361D-12 -0.28614645D-18
  0.29229916D+00  0.54465645D+00  0.92115060D+00  0.13872018D+01  0.17174458D+01
  0.14614688D+01  0.55611586D+00 -0.26045278D-02 -0.13439916D-02 -0.25199968D-02
 -0.42872644D-02 -0.66576689D-02 -0.88351139D-02 -0.93109973D-02 -0.57734123D-02
  0.38404761D-02  0.27939222D-01  0.22282804D-02  0.71885235D-03  0.46462963D-03
  0.44627120D-03  0.31295617D-03 -0.13660180D-18 -0.13120440D-18 -0.92009582D-19
  0.46471248D-03  0.44635078D-03  0.31301198D-03  0.76807410D-03  0.21066337D-17
 -0.21360303D-03  0.49373157D-04  0.47136380D-17  0.70026968D-03 -0.12838261D-03
  0.23749675D-18  0.15026586D-04  0.16552428D-02 -0.23801793D-02  0.72493651D-03
 -0.50317917D-17 -0.90844666D-03  0.54131958D-17  0.27393025D-03  0.12600288D-03
 -0.39993314D-03  0.21224296D-17 -0.41417887D-03  0.27594088D-17 -0.48178714D-04
  0.11913961D-03 -0.70960897D-04 -0.12601262D-17 -0.25661961D-03 -0.69073598D-18
  0.66174611D-03  0.38170997D-18  0.65500531D-03 -0.72280991D-03 -0.16154516D-18
 -0.24544596D-02 -0.12624284D-02 -0.98358474D-18  0.48944368D-03  0.24857392D-17
 -0.26463113D-03  0.89259772D-19 -0.97660672D-04 -0.41817745D-05 -0.40460852D-18
  0.34998786D-03  0.79807517D-03  0.13682920D-18 -0.57005840D-04 -0.31311594D-17
 -0.29229916D+00 -0.54465644D+00 -0.92115059D+00 -0.13872017D+01 -0.17174457D+01
 -0.14614688D+01 -0.55611585D+00  0.26045278D-02  0.13439916D-02  0.25199968D-02
  0.42872643D-02  0.66576688D-02  0.88351138D-02  0.93109971D-02  0.57734122D-02
 -0.38404760D-02 -0.27939221D-01 -0.22282803D-02 -0.71885235D-03  0.46462963D-03
  0.44627120D-03  0.31295617D-03  0.42047530D-17  0.40386150D-17  0.28321556D-17
 -0.46471247D-03 -0.44635077D-03 -0.31301197D-03  0.76807408D-03  0.16166565D-18
  0.21360302D-03  0.49373166D-04  0.24684981D-17 -0.70026969D-03 -0.12838261D-03
  0.43763892D-18 -0.15026587D-04 -0.16552427D-02  0.23801792D-02 -0.72493650D-03
  0.79816458D-17 -0.90844665D-03  0.16435425D-17 -0.27393025D-03 -0.12600288D-03
  0.39993313D-03 -0.40238415D-17 -0.41417886D-03  0.88456566D-18  0.48178714D-04
 -0.11913961D-03  0.70960895D-04  0.19221712D-19 -0.25661961D-03  0.90341496D-19
  0.66174610D-03  0.56894840D-18 -0.65500529D-03 -0.72280989D-03 -0.19441798D-17
  0.24544596D-02 -0.12624284D-02  0.23733460D-18 -0.48944367D-03 -0.17386280D-17
 -0.26463113D-03  0.30777252D-19  0.97660666D-04 -0.41817779D-05  0.42574852D-18
 -0.34998784D-03  0.79807517D-03 -0.51808027D-18  0.57005840D-04  0.18344078D-17
 -0.22394241D-03 -0.41747957D-03 -0.70561402D-03 -0.10607690D-02 -0.13032773D-02
 -0.11008260D-02 -0.41519107D-03  0.20548038D-05  0.17057485D-03  0.31936994D-03
  0.54375466D-03  0.84110577D-03  0.11077067D-02  0.11509782D-02  0.73139499D-03
 -0.49016392D-03 -0.64928253D-03  0.13957159D-02  0.66137651D-03  0.28541835D-03
  0.26759784D-03  0.19054561D-03  0.77230939D-18  0.72408915D-18  0.51559461D-18
  0.27452771D-03  0.25738717D-03  0.18327500D-03  0.21652599D-03 -0.16592913D-17
  0.13714871D-02  0.29640179D-03 -0.68126658D-19 -0.37001861D-03  0.52059999D-04
 -0.11893203D-18  0.39682923D-05  0.22497782D-03  0.72414839D-04 -0.29739266D-03
  0.16910970D-17 -0.68587528D-03 -0.13363484D-17  0.20262891D-03 -0.28082895D-03
  0.78200034D-04 -0.24960179D-17  0.27067696D-02  0.12481463D-17 -0.12749801D-03
 -0.27420280D-04  0.15491829D-03  0.63584572D-18  0.46309282D-04 -0.61011410D-18
  0.15111690D-03  0.29023198D-18 -0.52527489D-03  0.32977925D-03  0.82914940D-19
  0.12559524D-02 -0.78312994D-03 -0.95361088D-18  0.31987227D-03  0.13637606D-17
 -0.61001447D-05 -0.24485678D-18 -0.24935366D-03 -0.13173344D-04  0.17437976D-18
  0.62119802D-03  0.31473778D-04  0.56019058D-18  0.12686296D-03 -0.13501842D-17
  0.22394241D-03  0.41747958D-03  0.70561403D-03  0.10607690D-02  0.13032773D-02
  0.11008260D-02  0.41519108D-03 -0.20548038D-05 -0.17057486D-03 -0.31936995D-03
 -0.54375466D-03 -0.84110578D-03 -0.11077067D-02 -0.11509782D-02 -0.73139501D-03
  0.49016392D-03  0.64928254D-03 -0.13957159D-02 -0.66137651D-03  0.28541835D-03
  0.26759784D-03  0.19054561D-03 -0.76553277D-18 -0.71773563D-18 -0.51107053D-18
 -0.27452772D-03 -0.25738718D-03 -0.18327501D-03  0.21652599D-03  0.73852712D-18
 -0.13714871D-02  0.29640179D-03 -0.55258872D-18  0.37001860D-03  0.52059999D-04
 -0.28295819D-19 -0.39682925D-05 -0.22497782D-03 -0.72414840D-04  0.29739266D-03
  0.25946950D-18 -0.68587528D-03 -0.12588250D-17 -0.20262891D-03  0.28082895D-03
 -0.78200042D-04 -0.70780278D-18  0.27067696D-02  0.28700856D-17  0.12749801D-03
  0.27420279D-04 -0.15491829D-03  0.26564337D-18  0.46309280D-04  0.32245036D-18
  0.15111690D-03  0.28908900D-18  0.52527490D-03  0.32977925D-03 -0.46423634D-18
 -0.12559524D-02 -0.78312994D-03 -0.40303067D-18 -0.31987228D-03  0.11906138D-17
 -0.61001448D-05 -0.25896812D-18  0.24935366D-03 -0.13173343D-04  0.11983267D-17
 -0.62119802D-03  0.31473777D-04 -0.42142236D-18 -0.12686296D-03  0.69674265D-18
 -0.10378069D-03 -0.18717274D-03 -0.27598610D-03  0.87738726D-03  0.75262237D-03
 -0.99136650D-05  0.12903210D-02  0.98152925D-18  0.29969529D-03  0.15738502D-02
 -0.28013139D-17  0.19421011D-03  0.28193268D-03 -0.65796862D-18  0.52855935D-04
  0.16342915D-02 -0.10654053D-02 -0.56888624D-03 -0.10255485D-17  0.14373148D-02
  0.82130528D-18  0.14801450D-03 -0.10225993D-03 -0.45754573D-04 -0.11588954D-17
  0.10773684D-03 -0.36258687D-18  0.10378069D-03  0.18717275D-03  0.27598610D-03
 -0.87738727D-03 -0.75262239D-03  0.99136650D-05  0.12903211D-02  0.49772721D-18
 -0.29969529D-03  0.15738502D-02 -0.15971080D-17 -0.19421012D-03  0.28193268D-03
 -0.54394545D-19 -0.52855938D-04 -0.16342915D-02  0.10654053D-02  0.56888625D-03
  0.25670178D-18  0.14373148D-02 -0.37151084D-19 -0.14801451D-03  0.10225993D-03
  0.45754574D-04  0.11682603D-17  0.10773685D-03  0.48015921D-18 -0.34940460D-04
 -0.63016558D-04 -0.92917878D-04  0.70089716D-03 -0.83585798D-04  0.28613978D-04
 -0.32678629D-03  0.14316952D-17  0.26540488D-03  0.87434277D-03 -0.32237418D-17
  0.24185588D-03 -0.16691157D-03  0.13040049D-17 -0.14333838D-03  0.26345553D-03
  0.21533666D-04 -0.28498920D-03  0.14458851D-18  0.20555931D-03 -0.42598734D-18
  0.42264220D-04 -0.37996181D-04 -0.42680390D-05  0.59092067D-19  0.86500383D-05
 -0.14387925D-19  0.34940460D-04  0.63016559D-04  0.92917879D-04 -0.70089713D-03
  0.83585820D-04 -0.28613978D-04 -0.32678629D-03  0.68309526D-18 -0.26540488D-03
  0.87434277D-03 -0.26443113D-17 -0.24185589D-03 -0.16691157D-03 -0.34335053D-18
  0.14333838D-03 -0.26345554D-03 -0.21533664D-04  0.28498920D-03  0.50029123D-18
  0.20555931D-03  0.14704009D-17 -0.42264221D-04  0.37996182D-04  0.42680387D-05
 -0.72024683D-19  0.86500383D-05  0.35340939D-18
MO    2     MO 0.0        OCC NO =    2.0000000  ORB. ENERGY =  -14.220684
  0.37553269D-03  0.70007832D-03  0.11832557D-02  0.17788209D-02  0.21854870D-02
  0.18459931D-02  0.69624070D-03 -0.34457341D-05 -0.28885545D-03 -0.54082854D-03
 -0.92080687D-03 -0.14243482D-02 -0.18758165D-02 -0.19490935D-02 -0.12385614D-02
  0.83005505D-03  0.12522524D-02 -0.11448657D-02 -0.13762251D-03 -0.83255324D-11
 -0.78057158D-11 -0.55581347D-11 -0.12384185D-15 -0.11610961D-15 -0.82676957D-16
  0.83906757D-03  0.78667918D-03  0.56016244D-03 -0.66426307D-11  0.27615166D-17
  0.61020324D-03 -0.26839727D-11  0.65317858D-18 -0.50067024D-03 -0.53978568D-14
  0.62940587D-19 -0.97534783D-06  0.57180938D-04  0.30415844D-04 -0.87596782D-04
 -0.25393448D-19  0.43674962D-12  0.34789219D-18 -0.84180562D-03  0.42405131D-03
  0.41775432D-03  0.61417096D-18  0.74580892D-11  0.13774364D-17  0.23481471D-04
  0.81815023D-05 -0.31662973D-04 -0.86954796D-19  0.29029083D-12  0.56633293D-19
 -0.11779962D-11 -0.36551891D-18  0.23299691D-03 -0.80980140D-11  0.47186163D-18
 -0.14264813D-02  0.11632003D-10  0.62469509D-18  0.72749056D-03  0.97062336D-18
 -0.39453494D-12  0.50427825D-19  0.39733211D-04 -0.60608459D-12 -0.29159659D-18
 -0.19077093D-03  0.17896894D-11  0.14031311D-18  0.71571297D-04  0.17741800D-18
  0.29222884D+00  0.54452541D+00  0.92092898D+00  0.13868680D+01  0.17170326D+01
  0.14611172D+01  0.55598206D+00 -0.26039012D-02 -0.12978801D-02 -0.24335373D-02
 -0.41401711D-02 -0.64292486D-02 -0.85319868D-02 -0.89915429D-02 -0.55753302D-02
  0.37087118D-02  0.28006832D-01  0.12785944D-02 -0.87897986D-04  0.17988416D-03
  0.17277658D-03  0.12116287D-03 -0.34279209D-17 -0.32924771D-17 -0.23089122D-17
  0.65135850D-03  0.62562206D-03  0.43872937D-03  0.13983051D-02  0.10479301D-19
 -0.79078025D-03 -0.51616745D-03  0.33950668D-19 -0.60860594D-03 -0.67048113D-04
 -0.46849017D-19 -0.24336904D-04  0.21126641D-02 -0.23696818D-02  0.25701764D-03
 -0.37923654D-17 -0.52411174D-03  0.11122077D-16 -0.78470529D-04  0.16774719D-03
 -0.89276656D-04  0.21125140D-17 -0.63996028D-03 -0.45323180D-18 -0.30422875D-04
  0.14529940D-03 -0.11487652D-03  0.65243813D-18 -0.23962064D-04  0.29228958D-18
  0.95648779D-03  0.40450222D-19  0.75550749D-03 -0.12057927D-02  0.10924258D-17
 -0.26836179D-02 -0.16636707D-02 -0.12137765D-17  0.41709545D-03  0.34343860D-17
 -0.42641527D-04 -0.19589965D-19 -0.36394596D-03  0.19776056D-03  0.63770853D-19
  0.10887028D-02 -0.69835982D-04 -0.50009579D-20  0.31350566D-05 -0.15747540D-17
  0.29222884D+00  0.54452542D+00  0.92092900D+00  0.13868680D+01  0.17170326D+01
  0.14611173D+01  0.55598207D+00 -0.26039012D-02 -0.12978801D-02 -0.24335374D-02
 -0.41401712D-02 -0.64292487D-02 -0.85319869D-02 -0.89915430D-02 -0.55753303D-02
  0.37087119D-02  0.28006833D-01  0.12785945D-02 -0.87897974D-04 -0.17988416D-03
 -0.17277659D-03 -0.12116287D-03  0.51378632D-18  0.49348562D-18  0.34606618D-18
  0.65135851D-03  0.62562206D-03  0.43872938D-03 -0.13983051D-02  0.53164705D-18
 -0.79078025D-03  0.51616745D-03 -0.20499704D-17 -0.60860593D-03  0.67048115D-04
 -0.17126629D-18 -0.24336904D-04  0.21126642D-02 -0.23696818D-02  0.25701765D-03
 -0.59636273D-18  0.52411176D-03  0.31394073D-17 -0.78470525D-04  0.16774719D-03
 -0.89276663D-04  0.81664083D-18  0.63996029D-03 -0.83013364D-18 -0.30422875D-04
  0.14529940D-03 -0.11487652D-03 -0.30913501D-18  0.23962069D-04  0.20637914D-18
 -0.95648780D-03  0.42524886D-18  0.75550750D-03  0.12057927D-02  0.23058413D-18
 -0.26836180D-02  0.16636707D-02 -0.15063307D-17  0.41709546D-03 -0.78270617D-18
  0.42641531D-04  0.30492896D-18 -0.36394596D-03 -0.19776056D-03 -0.11863636D-17
  0.10887028D-02  0.69835968D-04  0.27157669D-18  0.31350555D-05  0.24343536D-18
  0.21298639D-03  0.39705506D-03  0.67109299D-03  0.10088726D-02  0.12395165D-02
  0.10469699D-02  0.39487852D-03 -0.19542758D-05 -0.16563374D-03 -0.31011863D-03
 -0.52800350D-03 -0.81674112D-03 -0.10756193D-02 -0.11176374D-02 -0.71020838D-03
  0.47596514D-03  0.71183737D-03 -0.17886847D-02  0.66510419D-04 -0.89215016D-04
 -0.83644748D-04 -0.59560044D-04 -0.92728390D-18 -0.86938760D-18 -0.61905576D-18
 -0.60734141D-03 -0.56942118D-03 -0.40546180D-03 -0.31664429D-03  0.10372150D-17
 -0.67894769D-04  0.37699302D-03  0.25050169D-18 -0.53037179D-03 -0.15169161D-04
  0.83090199D-20 -0.94684721D-05  0.21128440D-04 -0.77398989D-04  0.56270550D-04
  0.35460474D-18  0.17435495D-03 -0.19581964D-18  0.10655106D-03  0.34833967D-03
 -0.45489074D-03 -0.49876695D-18  0.11375992D-02  0.33968423D-18  0.12501166D-03
 -0.17837232D-04 -0.10717443D-03  0.25088153D-18  0.11252955D-03 -0.42768489D-18
 -0.24788789D-04 -0.15424319D-18  0.28862922D-03 -0.13838470D-03  0.59001109D-18
 -0.27794151D-03  0.21275106D-03 -0.12728152D-18 -0.58794615D-03  0.30545926D-18
  0.40842765D-05 -0.67775766D-19  0.14273216D-03 -0.47693681D-04 -0.12036174D-19
 -0.42963246D-03  0.35440851D-04  0.21536347D-18  0.14359768D-05 -0.41534568D-18
  0.21298639D-03  0.39705505D-03  0.67109298D-03  0.10088726D-02  0.12395165D-02
  0.10469699D-02  0.39487851D-03 -0.19542758D-05 -0.16563374D-03 -0.31011862D-03
 -0.52800349D-03 -0.81674111D-03 -0.10756193D-02 -0.11176374D-02 -0.71020837D-03
  0.47596513D-03  0.71183736D-03 -0.17886847D-02  0.66510430D-04  0.89215011D-04
  0.83644743D-04  0.59560040D-04 -0.20003970D-18 -0.18754993D-18 -0.13354673D-18
 -0.60734141D-03 -0.56942117D-03 -0.40546180D-03  0.31664429D-03  0.51699507D-18
 -0.67894746D-04 -0.37699303D-03 -0.54674335D-18 -0.53037179D-03  0.15169161D-04
  0.84555243D-20 -0.94684721D-05  0.21128443D-04 -0.77398988D-04  0.56270544D-04
  0.78255846D-19 -0.17435494D-03 -0.10640177D-17  0.10655107D-03  0.34833967D-03
 -0.45489074D-03  0.20360432D-18 -0.11375992D-02  0.36579904D-18  0.12501166D-03
 -0.17837233D-04 -0.10717442D-03 -0.84698537D-19 -0.11252955D-03  0.12079562D-18
  0.24788786D-04  0.37291783D-19  0.28862921D-03  0.13838469D-03  0.14557985D-18
 -0.27794149D-03 -0.21275105D-03 -0.25745520D-18 -0.58794615D-03  0.97850048D-19
 -0.40842764D-05 -0.33606672D-19  0.14273216D-03  0.47693681D-04 -0.17566613D-19
 -0.42963245D-03 -0.35440852D-04  0.11838663D-18  0.14359789D-05  0.69918291D-19
  0.13733723D-03  0.24769336D-03  0.36522371D-03 -0.40579370D-03 -0.70972546D-03
 -0.35890031D-06 -0.13186092D-02 -0.18645434D-18 -0.49181860D-03 -0.14504039D-02
  0.15484816D-17 -0.89979161D-03 -0.25541087D-03  0.15953486D-18 -0.14431475D-03
 -0.17777472D-02  0.12110721D-02  0.56667505D-03  0.16061050D-17 -0.19391270D-02
  0.79251669D-18 -0.12536912D-03  0.10463516D-03  0.20733962D-04  0.29517553D-18
 -0.23731483D-03  0.13647144D-18  0.13733723D-03  0.24769336D-03  0.36522371D-03
 -0.40579369D-03 -0.70972545D-03 -0.35890044D-06  0.13186092D-02  0.48724212D-18
 -0.49181859D-03  0.14504039D-02 -0.15892168D-17 -0.89979160D-03  0.25541087D-03
 -0.10020491D-18 -0.14431475D-03 -0.17777471D-02  0.12110721D-02  0.56667504D-03
  0.17025491D-17  0.19391270D-02  0.13660883D-19 -0.12536912D-03  0.10463516D-03
  0.20733961D-04  0.10774225D-18  0.23731483D-03 -0.49871623D-18  0.25851980D-04
  0.46625111D-04  0.68748699D-04  0.17321396D-02  0.13138814D-02  0.10142535D-04
  0.15744216D-03  0.31537919D-18 -0.79072979D-04 -0.31856611D-04 -0.11479158D-17
 -0.59328388D-03  0.23492365D-03  0.53098565D-18 -0.32636568D-04 -0.13988746D-03
  0.13603974D-03  0.38477160D-05 -0.17111813D-18 -0.34666156D-04  0.68846366D-18
 -0.26519603D-04  0.46980031D-04 -0.20460427D-04 -0.24763001D-18  0.29730681D-05
  0.19658662D-18  0.25851980D-04  0.46625110D-04  0.68748697D-04  0.17321396D-02
  0.13138814D-02  0.10142535D-04 -0.15744216D-03  0.48385123D-18 -0.79072975D-04
  0.31856596D-04 -0.49072522D-18 -0.59328388D-03 -0.23492365D-03  0.12139824D-18
 -0.32636570D-04 -0.13988745D-03  0.13603974D-03  0.38477111D-05  0.26837346D-18
  0.34666152D-04  0.63274137D-18 -0.26519603D-04  0.46980030D-04 -0.20460428D-04
  0.94494540D-19 -0.29730683D-05 -0.72472628D-19
MO    3     MO 0.0        OCC NO =    2.0000000  ORB. ENERGY =  -10.083307
 -0.18967711D-04 -0.35360126D-04 -0.59764841D-04 -0.89846133D-04 -0.11038636D-03
 -0.93238924D-04 -0.35166292D-04  0.17403994D-06  0.20584284D-04  0.38540275D-04
  0.65618116D-04  0.10150125D-03  0.13367357D-03  0.13889541D-03  0.88261795D-04
 -0.59151002D-04  0.63261369D-04  0.11152562D-02  0.12045403D-02 -0.67865031D-13
 -0.63627781D-13 -0.45306770D-13 -0.47570853D-15 -0.44600698D-15 -0.31758354D-15
  0.60958172D-03  0.57152161D-03  0.40695744D-03  0.46100330D-12  0.25623742D-15
 -0.17789026D-02  0.67957792D-12 -0.93174194D-16 -0.83383363D-04 -0.18781223D-12
  0.40665974D-18  0.50180085D-04  0.13571388D-03  0.16465632D-03 -0.30037020D-03
 -0.49024308D-17  0.32581132D-12  0.10062783D-16  0.13150783D-02  0.12077363D-03
 -0.14358519D-02  0.41535318D-17  0.33815904D-13 -0.27582825D-16  0.81391449D-04
 -0.17173868D-04 -0.64217581D-04  0.96469148D-18 -0.59457702D-15 -0.62705140D-18
  0.54197762D-13  0.67518510D-17 -0.32819319D-03 -0.10394549D-12 -0.10294772D-16
  0.64951265D-03 -0.58647795D-13 -0.99607813D-17  0.33506693D-03 -0.25891698D-18
 -0.10144412D-13  0.11362847D-17 -0.19517452D-03  0.49136681D-13 -0.20234850D-17
  0.47230735D-03 -0.18703445D-13 -0.13853691D-17  0.11321622D-03  0.26991053D-17
  0.24211607D-03  0.45114765D-03  0.76300378D-03  0.11490414D-02  0.14225878D-02
  0.12105580D-02  0.46063966D-03 -0.21573720D-05 -0.19872441D-03 -0.37261012D-03
 -0.63392068D-03 -0.98441188D-03 -0.13063718D-02 -0.13767366D-02 -0.85366451D-03