 Molden2AIM, Version 4.0.0 (06/02/2016)           Time: Thu Jun 28 21:11:15 2018
GAUSSIAN             16 MOL ORBITALS    327 PRIMITIVES        5 NUCLEI
  N    1    (CENTRE  1)   0.14902191 -0.00401945 -0.00013228  CHARGE =  7.0
  O    2    (CENTRE  2)   0.65988291  2.21929058  0.00004724  CHARGE =  8.0
  O    3    (CENTRE  3)   1.50381192 -1.80540277  0.00006047  CHARGE =  8.0
  O    4    (CENTRE  4)  -2.40351242 -0.58782577  0.00000378  CHARGE =  8.0
  H    5    (CENTRE  5)  -3.21055398  1.06102642  0.00002079  CHARGE =  1.0
CENTRE ASSIGNMENTS    1  1  1  1  1  1  1  1  1  1  1  1  1  1  1  1  1  1  1  1
CENTRE ASSIGNMENTS    1  1  1  1  1  1  1  1  1  1  1  1  1  1  1  1  1  1  1  1
CENTRE ASSIGNMENTS    1  1  1  1  1  1  1  1  1  1  1  1  1  1  1  1  1  1  1  1
CENTRE ASSIGNMENTS    1  1  1  1  1  1  1  1  1  1  1  1  1  1  1  2  2  2  2  2
CENTRE ASSIGNMENTS    2  2  2  2  2  2  2  2  2  2  2  2  2  2  2  2  2  2  2  2
CENTRE ASSIGNMENTS    2  2  2  2  2  2  2  2  2  2  2  2  2  2  2  2  2  2  2  2
CENTRE ASSIGNMENTS    2  2  2  2  2  2  2  2  2  2  2  2  2  2  2  2  2  2  2  2
CENTRE ASSIGNMENTS    2  2  2  2  2  2  2  2  2  2  3  3  3  3  3  3  3  3  3  3
CENTRE ASSIGNMENTS    3  3  3  3  3  3  3  3  3  3  3  3  3  3  3  3  3  3  3  3
CENTRE ASSIGNMENTS    3  3  3  3  3  3  3  3  3  3  3  3  3  3  3  3  3  3  3  3
CENTRE ASSIGNMENTS    3  3  3  3  3  3  3  3  3  3  3  3  3  3  3  3  3  3  3  3
CENTRE ASSIGNMENTS    3  3  3  3  3  4  4  4  4  4  4  4  4  4  4  4  4  4  4  4
CENTRE ASSIGNMENTS    4  4  4  4  4  4  4  4  4  4  4  4  4  4  4  4  4  4  4  4
CENTRE ASSIGNMENTS    4  4  4  4  4  4  4  4  4  4  4  4  4  4  4  4  4  4  4  4
CENTRE ASSIGNMENTS    4  4  4  4  4  4  4  4  4  4  4  4  4  4  4  4  4  4  4  4
CENTRE ASSIGNMENTS    5  5  5  5  5  5  5  5  5  5  5  5  5  5  5  5  5  5  5  5
CENTRE ASSIGNMENTS    5  5  5  5  5  5  5
TYPE ASSIGNMENTS      1  1  1  1  1  1  1  1  1  1  1  1  1  1  1  1  1  1  1  2
TYPE ASSIGNMENTS      2  2  3  3  3  4  4  4  2  3  4  2  3  4  2  3  4  5  6  7
TYPE ASSIGNMENTS      8  9 10  5  6  7  8  9 10  5  6  7  8  9 10 11 12 13 17 14
TYPE ASSIGNMENTS     15 18 19 16 20 11 12 13 17 14 15 18 19 16 20  1  1  1  1  1
TYPE ASSIGNMENTS      1  1  1  1  1  1  1  1  1  1  1  1  1  1  2  2  2  3  3  3
TYPE ASSIGNMENTS      4  4  4  2  3  4  2  3  4  2  3  4  5  6  7  8  9 10  5  6
TYPE ASSIGNMENTS      7  8  9 10  5  6  7  8  9 10 11 12 13 17 14 15 18 19 16 20
TYPE ASSIGNMENTS     11 12 13 17 14 15 18 19 16 20  1  1  1  1  1  1  1  1  1  1
TYPE ASSIGNMENTS      1  1  1  1  1  1  1  1  1  2  2  2  3  3  3  4  4  4  2  3
TYPE ASSIGNMENTS      4  2  3  4  2  3  4  5  6  7  8  9 10  5  6  7  8  9 10  5
TYPE ASSIGNMENTS      6  7  8  9 10 11 12 13 17 14 15 18 19 16 20 11 12 13 17 14
TYPE ASSIGNMENTS     15 18 19 16 20  1  1  1  1  1  1  1  1  1  1  1  1  1  1  1
TYPE ASSIGNMENTS      1  1  1  1  2  2  2  3  3  3  4  4  4  2  3  4  2  3  4  2
TYPE ASSIGNMENTS      3  4  5  6  7  8  9 10  5  6  7  8  9 10  5  6  7  8  9 10
TYPE ASSIGNMENTS     11 12 13 17 14 15 18 19 16 20 11 12 13 17 14 15 18 19 16 20
TYPE ASSIGNMENTS      1  1  1  1  1  1  2  3  4  2  3  4  2  3  4  5  6  7  8  9
TYPE ASSIGNMENTS     10  5  6  7  8  9 10
EXPONENTS  0.1142000D+05 0.1712000D+04 0.3893000D+03 0.1100000D+03 0.3557000D+02
EXPONENTS  0.1254000D+02 0.4644000D+01 0.5118000D+00 0.1142000D+05 0.1712000D+04
EXPONENTS  0.3893000D+03 0.1100000D+03 0.3557000D+02 0.1254000D+02 0.4644000D+01
EXPONENTS  0.5118000D+00 0.1293000D+01 0.1787000D+00 0.5760000D-01 0.2663000D+02
EXPONENTS  0.5948000D+01 0.1742000D+01 0.2663000D+02 0.5948000D+01 0.1742000D+01
EXPONENTS  0.2663000D+02 0.5948000D+01 0.1742000D+01 0.5550000D+00 0.5550000D+00
EXPONENTS  0.5550000D+00 0.1725000D+00 0.1725000D+00 0.1725000D+00 0.4910000D-01
EXPONENTS  0.4910000D-01 0.4910000D-01 0.1654000D+01 0.1654000D+01 0.1654000D+01
EXPONENTS  0.1654000D+01 0.1654000D+01 0.1654000D+01 0.4690000D+00 0.4690000D+00
EXPONENTS  0.4690000D+00 0.4690000D+00 0.4690000D+00 0.4690000D+00 0.1510000D+00
EXPONENTS  0.1510000D+00 0.1510000D+00 0.1510000D+00 0.1510000D+00 0.1510000D+00
EXPONENTS  0.1093000D+01 0.1093000D+01 0.1093000D+01 0.1093000D+01 0.1093000D+01
EXPONENTS  0.1093000D+01 0.1093000D+01 0.1093000D+01 0.1093000D+01 0.1093000D+01
EXPONENTS  0.3640000D+00 0.3640000D+00 0.3640000D+00 0.3640000D+00 0.3640000D+00
EXPONENTS  0.3640000D+00 0.3640000D+00 0.3640000D+00 0.3640000D+00 0.3640000D+00
EXPONENTS  0.1533000D+05 0.2299000D+04 0.5224000D+03 0.1473000D+03 0.4755000D+02
EXPONENTS  0.1676000D+02 0.6207000D+01 0.6882000D+00 0.1533000D+05 0.2299000D+04
EXPONENTS  0.5224000D+03 0.1473000D+03 0.4755000D+02 0.1676000D+02 0.6207000D+01
EXPONENTS  0.6882000D+00 0.1752000D+01 0.2384000D+00 0.7376000D-01 0.3446000D+02
EXPONENTS  0.7749000D+01 0.2280000D+01 0.3446000D+02 0.7749000D+01 0.2280000D+01
EXPONENTS  0.3446000D+02 0.7749000D+01 0.2280000D+01 0.7156000D+00 0.7156000D+00
EXPONENTS  0.7156000D+00 0.2140000D+00 0.2140000D+00 0.2140000D+00 0.5974000D-01
EXPONENTS  0.5974000D-01 0.5974000D-01 0.2314000D+01 0.2314000D+01 0.2314000D+01
EXPONENTS  0.2314000D+01 0.2314000D+01 0.2314000D+01 0.6450000D+00 0.6450000D+00
EXPONENTS  0.6450000D+00 0.6450000D+00 0.6450000D+00 0.6450000D+00 0.2140000D+00
EXPONENTS  0.2140000D+00 0.2140000D+00 0.2140000D+00 0.2140000D+00 0.2140000D+00
EXPONENTS  0.1428000D+01 0.1428000D+01 0.1428000D+01 0.1428000D+01 0.1428000D+01
EXPONENTS  0.1428000D+01 0.1428000D+01 0.1428000D+01 0.1428000D+01 0.1428000D+01
EXPONENTS  0.5000000D+00 0.5000000D+00 0.5000000D+00 0.5000000D+00 0.5000000D+00
EXPONENTS  0.5000000D+00 0.5000000D+00 0.5000000D+00 0.5000000D+00 0.5000000D+00
EXPONENTS  0.1533000D+05 0.2299000D+04 0.5224000D+03 0.1473000D+03 0.4755000D+02
EXPONENTS  0.1676000D+02 0.6207000D+01 0.6882000D+00 0.1533000D+05 0.2299000D+04
EXPONENTS  0.5224000D+03 0.1473000D+03 0.4755000D+02 0.1676000D+02 0.6207000D+01
EXPONENTS  0.6882000D+00 0.1752000D+01 0.2384000D+00 0.7376000D-01 0.3446000D+02
EXPONENTS  0.7749000D+01 0.2280000D+01 0.3446000D+02 0.7749000D+01 0.2280000D+01
EXPONENTS  0.3446000D+02 0.7749000D+01 0.2280000D+01 0.7156000D+00 0.7156000D+00
EXPONENTS  0.7156000D+00 0.2140000D+00 0.2140000D+00 0.2140000D+00 0.5974000D-01
EXPONENTS  0.5974000D-01 0.5974000D-01 0.2314000D+01 0.2314000D+01 0.2314000D+01
EXPONENTS  0.2314000D+01 0.2314000D+01 0.2314000D+01 0.6450000D+00 0.6450000D+00
EXPONENTS  0.6450000D+00 0.6450000D+00 0.6450000D+00 0.6450000D+00 0.2140000D+00
EXPONENTS  0.2140000D+00 0.2140000D+00 0.2140000D+00 0.2140000D+00 0.2140000D+00
EXPONENTS  0.1428000D+01 0.1428000D+01 0.1428000D+01 0.1428000D+01 0.1428000D+01
EXPONENTS  0.1428000D+01 0.1428000D+01 0.1428000D+01 0.1428000D+01 0.1428000D+01
EXPONENTS  0.5000000D+00 0.5000000D+00 0.5000000D+00 0.5000000D+00 0.5000000D+00
EXPONENTS  0.5000000D+00 0.5000000D+00 0.5000000D+00 0.5000000D+00 0.5000000D+00
EXPONENTS  0.1533000D+05 0.2299000D+04 0.5224000D+03 0.1473000D+03 0.4755000D+02
EXPONENTS  0.1676000D+02 0.6207000D+01 0.6882000D+00 0.1533000D+05 0.2299000D+04
EXPONENTS  0.5224000D+03 0.1473000D+03 0.4755000D+02 0.1676000D+02 0.6207000D+01
EXPONENTS  0.6882000D+00 0.1752000D+01 0.2384000D+00 0.7376000D-01 0.3446000D+02
EXPONENTS  0.7749000D+01 0.2280000D+01 0.3446000D+02 0.7749000D+01 0.2280000D+01
EXPONENTS  0.3446000D+02 0.7749000D+01 0.2280000D+01 0.7156000D+00 0.7156000D+00
EXPONENTS  0.7156000D+00 0.2140000D+00 0.2140000D+00 0.2140000D+00 0.5974000D-01
EXPONENTS  0.5974000D-01 0.5974000D-01 0.2314000D+01 0.2314000D+01 0.2314000D+01
EXPONENTS  0.2314000D+01 0.2314000D+01 0.2314000D+01 0.6450000D+00 0.6450000D+00
EXPONENTS  0.6450000D+00 0.6450000D+00 0.6450000D+00 0.6450000D+00 0.2140000D+00
EXPONENTS  0.2140000D+00 0.2140000D+00 0.2140000D+00 0.2140000D+00 0.2140000D+00
EXPONENTS  0.1428000D+01 0.1428000D+01 0.1428000D+01 0.1428000D+01 0.1428000D+01
EXPONENTS  0.1428000D+01 0.1428000D+01 0.1428000D+01 0.1428000D+01 0.1428000D+01
EXPONENTS  0.5000000D+00 0.5000000D+00 0.5000000D+00 0.5000000D+00 0.5000000D+00
EXPONENTS  0.5000000D+00 0.5000000D+00 0.5000000D+00 0.5000000D+00 0.5000000D+00
EXPONENTS  0.3387000D+02 0.5095000D+01 0.1159000D+01 0.3258000D+00 0.1027000D+00
EXPONENTS  0.2526000D-01 0.1407000D+01 0.1407000D+01 0.1407000D+01 0.3880000D+00
EXPONENTS  0.3880000D+00 0.3880000D+00 0.1020000D+00 0.1020000D+00 0.1020000D+00
EXPONENTS  0.1057000D+01 0.1057000D+01 0.1057000D+01 0.1057000D+01 0.1057000D+01
EXPONENTS  0.1057000D+01 0.2470000D+00 0.2470000D+00 0.2470000D+00 0.2470000D+00
EXPONENTS  0.2470000D+00 0.2470000D+00
MO    1     MO 0.0        OCC NO =    2.0000000  ORB. ENERGY =  -19.075901
  0.16419726D-03  0.30595741D-03  0.51745068D-03  0.77925205D-03  0.96476459D-03
  0.82097113D-03  0.31239466D-03 -0.14630775D-05 -0.11066033D-03 -0.20748916D-03
 -0.35300079D-03 -0.54817296D-03 -0.72745740D-03 -0.76664024D-03 -0.47536586D-03
  0.31621355D-03 -0.32937890D-03  0.20212820D-02  0.66483879D-03  0.75433857D-03
  0.72453318D-03  0.50809267D-03  0.26903917D-03  0.25840891D-03  0.18121416D-03
 -0.68569146D-07 -0.65859845D-07 -0.46185469D-07 -0.14437377D-02 -0.70041707D-03
  0.65075713D-07 -0.10110107D-02  0.87670761D-05  0.71735080D-07 -0.53020794D-04
  0.10298528D-04  0.34138820D-08  0.65288085D-03 -0.39052046D-03 -0.26236038D-03
  0.71058813D-03 -0.68895245D-07 -0.32963449D-08  0.48788642D-03 -0.20133333D-03
 -0.28655308D-03  0.17351114D-03 -0.10699535D-06 -0.10672193D-06  0.62321381D-04
 -0.69712641D-05 -0.55350117D-04  0.12682270D-03 -0.28086003D-07 -0.20504716D-07
 -0.24896373D-03  0.65439199D-04 -0.16972767D-07  0.41883154D-03 -0.47736186D-03
  0.72167906D-07  0.32805966D-03  0.28104427D-03 -0.21249605D-07 -0.32908974D-07
  0.42001739D-04 -0.11532267D-03 -0.15378654D-07 -0.16203564D-03  0.46398716D-03
 -0.14518197D-08  0.36030420D-04 -0.11801916D-03  0.47587782D-07 -0.87957463D-07
  0.20940687D-03  0.39030746D-03  0.66183213D-03  0.10017138D-02  0.12498463D-02
  0.10734513D-02  0.41211882D-03 -0.18434328D-05 -0.12256056D-03 -0.22986536D-03
 -0.39187005D-03 -0.61241662D-03 -0.81891771D-03 -0.87441319D-03 -0.53459908D-03
  0.35269600D-03  0.12594801D-04 -0.25564613D-03 -0.20355615D-03 -0.62306305D-04
 -0.60416158D-04 -0.40756383D-04  0.82942009D-05  0.80425848D-05  0.54254802D-05
  0.67678026D-07  0.65624919D-07  0.44270183D-07 -0.60344955D-04 -0.20454168D-03
 -0.83534871D-07 -0.33217049D-04  0.89818057D-04  0.57984018D-07  0.82494510D-05
  0.79796564D-05  0.34516461D-08  0.32639817D-03 -0.90071117D-04 -0.23632706D-03
 -0.14454721D-03 -0.98891556D-07  0.79593160D-07 -0.22304807D-03  0.11040527D-03
  0.11264280D-03  0.17928841D-03  0.67585234D-07 -0.15715560D-07 -0.38114571D-04
  0.14360290D-04  0.23754281D-04  0.32308118D-04  0.18824508D-07 -0.27899527D-07
 -0.54189256D-04  0.95287013D-05  0.47779761D-07  0.36494165D-03 -0.46850027D-04
 -0.34553406D-07 -0.20237389D-03  0.18263923D-04 -0.10878588D-06  0.18348855D-06
  0.59958748D-04 -0.56061117D-04 -0.22115193D-07 -0.19731275D-03  0.24384668D-03
  0.12738765D-07  0.17436511D-04 -0.75663331D-04  0.53606812D-07 -0.11167813D-06
  0.17817270D-03  0.33209098D-03  0.56311627D-03  0.85230271D-03  0.10634249D-02
  0.91334019D-03  0.35064906D-03 -0.15684748D-05 -0.10436136D-03 -0.19573231D-03
 -0.33368068D-03 -0.52147795D-03 -0.69731539D-03 -0.74457026D-03 -0.45521566D-03
  0.30032364D-03  0.62622687D-04  0.11616173D-03 -0.78637489D-04 -0.29799039D-03
 -0.28895044D-03 -0.19492426D-03 -0.96815046D-04 -0.93878028D-04 -0.63329563D-04
  0.12116518D-06  0.11748947D-06  0.79257703D-07  0.22046612D-03  0.23949330D-03
 -0.14945143D-06  0.21798941D-03  0.70335760D-06 -0.40230637D-07  0.95156724D-05
 -0.65752244D-05 -0.26074903D-09  0.14796617D-03 -0.89985772D-04 -0.57980394D-04
  0.11279244D-03 -0.25096224D-07  0.94587617D-07 -0.17314828D-03  0.10300464D-03
  0.70143641D-04  0.58441569D-04  0.39409308D-07 -0.10514399D-06 -0.45976604D-04
  0.85267161D-05  0.37449888D-04  0.33729631D-04  0.73418478D-08  0.12839588D-08
  0.48311145D-04  0.13616412D-03  0.43090537D-07  0.19388544D-03 -0.34179924D-03
 -0.43841591D-08 -0.33881888D-03 -0.66693135D-04 -0.12488745D-06 -0.39890160D-07
  0.29949326D-04 -0.26312880D-04 -0.12563861D-07 -0.14416102D-03  0.13990480D-04
  0.64678228D-08  0.54313040D-04  0.64948160D-04  0.31223762D-07  0.38263962D-07
  0.49913011D+00  0.93031431D+00  0.15775048D+01  0.23876270D+01  0.29790614D+01
  0.25586165D+01  0.98230261D+00 -0.43938998D-02 -0.92055303D-03 -0.17265200D-02
 -0.29433382D-02 -0.45998646D-02 -0.61508954D-02 -0.65677223D-02 -0.40153766D-02
  0.26491016D-02  0.49948476D-01 -0.13469791D-02 -0.72636198D-03  0.39224594D-02
  0.38034662D-02  0.25657958D-02  0.66074986D-02  0.64070510D-02  0.43221588D-02
 -0.52324540D-06 -0.50737203D-06 -0.34227017D-06 -0.11700148D-02  0.50895014D-03
  0.81193574D-07 -0.12735248D-02 -0.26137786D-03  0.40073175D-07 -0.67560868D-04
 -0.24230586D-04  0.25786404D-08  0.47189037D-03  0.11306261D-02 -0.16025164D-02
 -0.10699917D-02 -0.13588667D-07  0.38775345D-07 -0.76755641D-03  0.37690519D-03
  0.39065122D-03 -0.10842603D-02  0.10033768D-06  0.52385712D-07 -0.17187827D-03
  0.42845223D-04  0.12903305D-03 -0.80527334D-04  0.25930313D-07  0.96725773D-09
  0.36748932D-03  0.51178059D-03 -0.29438524D-07 -0.19570033D-02 -0.40553742D-03
  0.16045266D-07  0.85453531D-03 -0.11298044D-02  0.72270307D-07  0.49263950D-07
 -0.23019153D-03 -0.12832095D-04 -0.16441551D-07  0.44112694D-03 -0.28003134D-03
  0.63686760D-07  0.24944765D-03  0.31852762D-03 -0.14362108D-07  0.47966465D-07
  0.14104631D-03  0.25438283D-03  0.37508733D-03 -0.72722686D-03 -0.18779495D-03
 -0.26810091D-04 -0.39762102D-03  0.88415509D-03 -0.56233910D-08 -0.50622769D-03
  0.80255206D-03  0.20027974D-07 -0.54861250D-04  0.73578071D-04  0.46718999D-08
  0.39451088D-03 -0.13840278D-02  0.98951697D-03  0.23161729D-02  0.17273709D-07
 -0.40756218D-07 -0.17413131D-04 -0.20581660D-04  0.37994791D-04  0.10403328D-03
  0.77130516D-08 -0.61461359D-09
MO    2     MO 0.0        OCC NO =    2.0000000  ORB. ENERGY =  -19.039350
  0.47778594D-03  0.89028374D-03  0.15056930D-02  0.22674902D-02  0.28073000D-02
  0.23888856D-02  0.90901504D-03 -0.42573052D-05 -0.35556636D-03 -0.66669024D-03
 -0.11342385D-02 -0.17613526D-02 -0.23374173D-02 -0.24633170D-02 -0.15274137D-02
  0.10160362D-02  0.71086970D-03 -0.28326274D-03 -0.65935814D-05  0.46848935D-03
  0.44997842D-03  0.31555593D-03 -0.35360613D-03 -0.33963447D-03 -0.23817513D-03
  0.72197157D-07  0.69344507D-07  0.48629155D-07  0.74556428D-03 -0.13202895D-02
  0.65644289D-07 -0.18782183D-04 -0.48706788D-03  0.31749502D-07  0.32801571D-04
 -0.20052926D-04 -0.38900754D-08  0.18241605D-03  0.56455013D-03 -0.74696618D-03
 -0.19321312D-02  0.19416740D-06 -0.16871497D-06  0.51305758D-04 -0.52924084D-03
  0.47793508D-03  0.70956057D-03 -0.26953883D-07 -0.21221866D-07  0.35295966D-04
 -0.63369265D-04  0.28073299D-04 -0.29943806D-04  0.11769639D-08 -0.25229202D-07
  0.32393332D-03 -0.74699495D-04  0.10381770D-06 -0.13815269D-02  0.69209231D-03
 -0.56238626D-07  0.40972690D-03 -0.46799383D-03 -0.25521449D-06  0.32888109D-06
  0.35597331D-03 -0.59879153D-04 -0.45665978D-08 -0.12200174D-02  0.32504264D-03
  0.74954701D-07  0.15209747D-03 -0.14540518D-03 -0.61254908D-07  0.28581365D-06
  0.50182883D-02  0.93534438D-02  0.15860341D-01  0.24005366D-01  0.29951687D-01
  0.25724505D-01  0.98761377D-02 -0.44176570D-04 -0.27243356D-03 -0.51095589D-03
 -0.87106778D-03 -0.13613094D-02 -0.18203300D-02 -0.19436881D-02 -0.11883328D-02
  0.78398980D-03  0.44030304D-03  0.10301956D-02  0.18700990D-03 -0.30011201D-03
 -0.29100770D-03 -0.19631208D-03  0.27783869D-03  0.26941007D-03  0.18174244D-03
  0.11728859D-06  0.11373048D-06  0.76721908D-07  0.28671130D-03 -0.10750492D-02
 -0.18204527D-06  0.12029956D-03 -0.33102021D-03 -0.41040767D-07 -0.79956684D-05
 -0.14850630D-04  0.26467686D-08  0.39014371D-03  0.24672630D-03 -0.63687002D-03
 -0.23336502D-03  0.51585733D-06 -0.11994302D-06 -0.45384682D-03  0.29325623D-03
  0.16059058D-03  0.11853436D-03 -0.27146144D-06  0.20277438D-06 -0.69046657D-04
  0.37189441D-04  0.31857216D-04 -0.12770430D-04 -0.37826504D-07  0.11405911D-07
 -0.12896817D-03 -0.82972213D-04  0.63171960D-07  0.29420786D-03  0.63851780D-04
 -0.15319477D-06  0.92696632D-04  0.18506486D-03 -0.36321113D-07 -0.18224012D-06
  0.12966420D-03 -0.24582941D-04 -0.25145039D-07 -0.34649144D-03  0.25072748D-03
  0.13371999D-06 -0.42501166D-04 -0.17697866D-03 -0.58284873D-07  0.22329454D-06
  0.49927711D+00  0.93058828D+00  0.15779694D+01  0.23883302D+01  0.29799387D+01
  0.25593700D+01  0.98259189D+00 -0.43951938D-02 -0.10374378D-02 -0.19457404D-02
 -0.33170608D-02 -0.51839203D-02 -0.69318892D-02 -0.74016415D-02 -0.45252185D-02
  0.29854643D-02  0.50119989D-01 -0.86470209D-03 -0.50530247D-03 -0.56764820D-02
 -0.55042781D-02 -0.37131535D-02  0.74964916D-02  0.72690752D-02  0.49036752D-02
 -0.10289416D-05 -0.99772719D-06 -0.67306087D-06 -0.13140867D-03  0.54710207D-04
 -0.10218704D-07  0.52546599D-03 -0.98663549D-03  0.41024121D-07  0.20082889D-04
 -0.36895390D-04  0.50288604D-08  0.65654284D-03  0.17051739D-02 -0.23617167D-02
 -0.26158325D-02  0.43056810D-06 -0.46167975D-06 -0.13989865D-03 -0.55904756D-03
  0.69894621D-03  0.67276464D-03 -0.10041930D-06  0.11994305D-06  0.12553519D-04
 -0.14123718D-03  0.12868366D-03  0.28563427D-03 -0.22917514D-07  0.45225038D-07
 -0.33918378D-04  0.10855257D-03  0.52283296D-07 -0.59083315D-04  0.47157079D-04
 -0.67474133D-07  0.16083845D-03 -0.37281479D-03 -0.89375754D-07  0.75231160D-07
  0.38270388D-05 -0.10836375D-03 -0.42494382D-07  0.28159395D-03 -0.11627157D-03
  0.44159594D-07 -0.29307507D-03  0.44136281D-03  0.83323553D-07 -0.12718529D-06
  0.17792499D-03  0.33162929D-03  0.56233339D-03  0.85111778D-03  0.10619465D-02
  0.91207041D-03  0.35016156D-03 -0.15662942D-05 -0.14434507D-03 -0.27072275D-03
 -0.46152295D-03 -0.72127053D-03 -0.96447613D-03 -0.10298356D-02 -0.62962132D-03
  0.41538591D-03  0.14877291D-04  0.12837432D-03  0.23225689D-03 -0.28203621D-03
 -0.27348026D-03 -0.18448816D-03 -0.25729611D-03 -0.24949068D-03 -0.16830494D-03
  0.14510838D-06  0.14070631D-06  0.94919649D-07  0.63384118D-03  0.26504118D-03
 -0.15271674D-06  0.11712465D-03  0.29385704D-03 -0.25777480D-07  0.20977471D-04
  0.26256904D-05  0.12085588D-08  0.24693858D-03  0.14064101D-03 -0.38757960D-03
 -0.12013662D-02  0.25962827D-06 -0.65005760D-07 -0.12392210D-04 -0.16707346D-03
  0.17946567D-03  0.10760374D-02 -0.23631608D-06  0.18415110D-07 -0.23464821D-04
  0.24309238D-04 -0.84441620D-06  0.13111932D-03 -0.37751465D-07  0.24536881D-07
 -0.14499038D-03 -0.50062763D-04  0.75751151D-07  0.54005719D-03  0.23512759D-03
 -0.84654955D-07 -0.10508604D-03 -0.84939298D-04 -0.14259850D-06 -0.13713741D-06
 -0.18583499D-04 -0.12945160D-03 -0.21833621D-07 -0.23719063D-04  0.33643082D-03
 -0.47919717D-07  0.79469559D-04  0.51923974D-04  0.11342058D-06 -0.36474327D-07
  0.69380598D-04  0.12513077D-03  0.18450524D-03 -0.52454713D-04 -0.86267739D-04
  0.72718272D-05  0.34032936D-03 -0.19382230D-03 -0.69095209D-07 -0.14463666D-03
 -0.11312201D-03 -0.60709919D-07 -0.30212992D-04  0.14975987D-04 -0.53726546D-08
 -0.19195398D-03  0.11293152D-03  0.79022460D-04 -0.19501431D-03 -0.41102092D-07
  0.10677760D-06 -0.18370775D-04  0.40484510D-04 -0.22113735D-04  0.23332349D-04
  0.66079180D-08  0.12269826D-07
MO    3     MO 0.0        OCC NO =    2.0000000  ORB. ENERGY =  -19.038801
  0.45998050D-03  0.85710593D-03  0.14495810D-02  0.21829887D-02  0.27026816D-02
  0.22998601D-02  0.87513918D-03 -0.40986501D-05 -0.34158928D-03 -0.64048310D-03
 -0.10896523D-02 -0.16921150D-02 -0.22455350D-02 -0.23664857D-02 -0.14673721D-02
  0.97609647D-03  0.61585238D-03 -0.83039447D-04  0.19808076D-03  0.16726137D-03
  0.16065254D-03  0.11266065D-03  0.36952692D-03  0.35492619D-03  0.24889874D-03
  0.44419012D-07  0.42663930D-07  0.29918893D-07  0.35281582D-03  0.16796657D-02
  0.75620220D-07 -0.33132490D-03  0.62834916D-03  0.67073801D-07  0.36471288D-05
  0.44872592D-04  0.15434339D-08 -0.49777626D-03  0.12503845D-02 -0.75260822D-03
  0.10306914D-02  0.77486900D-07  0.24759855D-06  0.36449183D-04 -0.46026290D-03
  0.42381372D-03  0.86325136D-04  0.15940854D-07  0.18815579D-07 -0.16971380D-04
 -0.16962531D-04  0.33933910D-04  0.17468278D-03  0.55297838D-09  0.66602271D-08
  0.25459239D-03 -0.38967016D-03  0.79577204D-07 -0.87788923D-03  0.69172797D-03
  0.13373294D-07  0.11411206D-03  0.47728250D-03 -0.25210491D-06 -0.55451926D-07
  0.17152365D-03 -0.41073634D-03 -0.94619136D-08 -0.62385018D-03  0.10617888D-02
  0.14934831D-06  0.10927923D-03  0.17042025D-03 -0.12096257D-06 -0.10848598D-06
  0.49923732D+00  0.93051412D+00  0.15778436D+01  0.23881398D+01  0.29797013D+01
  0.25591660D+01  0.98251358D+00 -0.43948436D-02 -0.10060535D-02 -0.18868782D-02
 -0.32167137D-02 -0.50270974D-02 -0.67221871D-02 -0.71777286D-02 -0.43883225D-02
  0.28951487D-02  0.50110692D-01 -0.12000407D-02 -0.63627466D-03 -0.23262088D-02
 -0.22556401D-02 -0.15216415D-02 -0.88748956D-02 -0.86056634D-02 -0.58053297D-02
 -0.92755893D-06 -0.89942015D-06 -0.60674352D-06 -0.32473862D-04  0.76408693D-04
 -0.45726758D-08  0.53244540D-04  0.12429062D-02  0.63530627D-07  0.11303881D-04
  0.48360554D-04  0.49497598D-08 -0.69806257D-04  0.23093724D-02 -0.22395661D-02
  0.93078075D-03  0.17238759D-06  0.50766587D-06  0.70980974D-04 -0.80558019D-03
  0.73459922D-03 -0.17579270D-03 -0.30317315D-07 -0.16115259D-06  0.10547430D-03
 -0.22907944D-03  0.12360514D-03 -0.85774733D-04 -0.12587861D-08 -0.50433741D-07
 -0.12639159D-04 -0.47311691D-04  0.36388590D-07  0.50310499D-04 -0.13705412D-03
 -0.24080976D-07 -0.12393023D-04  0.27898920D-03 -0.85084795D-07 -0.20943587D-07
 -0.49602320D-05  0.19248676D-03 -0.37788736D-07  0.11510677D-03 -0.64785841D-04
 -0.63266937D-08 -0.10022608D-03 -0.51267443D-03  0.11969290D-06  0.47328556D-07
 -0.42611222D-02 -0.79421836D-02 -0.13467312D-01 -0.20383404D-01 -0.25432536D-01
 -0.21843157D-01 -0.83860127D-02  0.37511149D-04 -0.25447389D-03 -0.47727210D-03
 -0.81364430D-03 -0.12715677D-02 -0.17003282D-02 -0.18155541D-02 -0.11099942D-02
  0.73230676D-03 -0.46279125D-03  0.12903256D-02  0.17935028D-03 -0.11061545D-03
 -0.10725978D-03 -0.72356814D-04 -0.54651260D-03 -0.52993339D-03 -0.35748993D-03
  0.13587067D-06  0.13174885D-06  0.88876995D-07 -0.96461042D-04  0.11801792D-02
 -0.19777093D-06  0.77384907D-04  0.44225746D-03 -0.11888788D-06 -0.50563775D-05
  0.39185901D-05 -0.20686834D-08  0.31081757D-03  0.28340845D-03 -0.59422602D-03
  0.24935423D-03  0.41993504D-06  0.36805324D-06 -0.35648108D-03  0.19748040D-03
  0.15900067D-03 -0.57642085D-03 -0.16254695D-06 -0.34825902D-06 -0.72476491D-04
  0.37868924D-04  0.34607567D-04 -0.39346983D-04 -0.22587956D-07 -0.52855878D-07
 -0.12194232D-04  0.13107698D-03  0.60307435D-07 -0.56955207D-04 -0.27768760D-03
 -0.20809094D-06  0.93537904D-04 -0.11554333D-03  0.27168633D-07  0.25835665D-07
  0.11752353D-03 -0.11281691D-03 -0.21229366D-07 -0.25978234D-03  0.20048053D-03
  0.19397513D-06 -0.92788258D-04  0.13797021D-03 -0.13028703D-06  0.13030929D-07
  0.15014400D-03  0.27984910D-03  0.47453135D-03  0.71822529D-03  0.89613547D-03
  0.76966085D-03  0.29548777D-03 -0.13217349D-05 -0.12366169D-03 -0.23193057D-03
 -0.39539078D-03 -0.61791883D-03 -0.82627521D-03 -0.88226929D-03 -0.53940214D-03
  0.35586477D-03 -0.84542452D-04  0.72520824D-03  0.11044462D-03 -0.29740772D-03
 -0.28838544D-03 -0.19454312D-03  0.17030710D-03  0.16514060D-03  0.11140287D-03
  0.12708703D-06  0.12323167D-06  0.83131354D-07  0.67122333D-03 -0.93720213D-04
 -0.13765269D-06 -0.97499545D-04  0.23456403D-03 -0.18857715D-07 -0.53991709D-05
 -0.76215578D-05 -0.11572864D-08 -0.32030464D-03  0.48659310D-03 -0.16628845D-03
  0.12063512D-02  0.25271567D-06  0.31313440D-07  0.44021279D-03 -0.44748333D-03
  0.72705452D-05 -0.66822467D-03 -0.23325571D-06 -0.70196101D-08  0.65294343D-04
 -0.13818992D-04 -0.51475351D-04 -0.16856252D-03 -0.22763143D-07 -0.79991368D-08
  0.41104215D-05 -0.10821429D-03  0.68774287D-07  0.31830012D-03 -0.19147052D-03
 -0.16209128D-06 -0.33063138D-03  0.51611340D-03 -0.44231584D-07  0.20103123D-06
  0.13282393D-03 -0.39067016D-04 -0.21652089D-07 -0.60548579D-03  0.21370495D-03
 -0.23302101D-08  0.20701401D-03 -0.96503901D-04  0.67286476D-07 -0.19147138D-06
 -0.10499000D-04 -0.18935378D-04 -0.27920204D-04 -0.78441570D-03 -0.12807228D-03
 -0.73917687D-05  0.35135086D-03  0.90517143D-04 -0.57495351D-07  0.35277013D-05
  0.32329836D-03 -0.52233340D-07  0.78484371D-06  0.38408649D-04  0.96082661D-09
  0.11685299D-03 -0.12227380D-03  0.54208142D-05 -0.51845203D-03  0.20941816D-07
  0.13025081D-06 -0.25028520D-04  0.85013071D-05  0.16527213D-04 -0.50626468D-04
 -0.39130808D-09  0.10785191D-07
MO    4     MO 0.0        OCC NO =    2.0000000  ORB. ENERGY =  -14.483083
  0.41336649D+00  0.77024759D+00  0.13026818D+01  0.19617666D+01  0.24287943D+01
  0.20667943D+01  0.78645337D+00 -0.36832966D-02 -0.18711614D-02 -0.35084451D-02
 -0.59689090D-02 -0.92690855D-02 -0.12300615D-01 -0.12963160D-01 -0.80379863D-02
  0.53468716D-02  0.39422420D-01  0.12753228D-02  0.27451817D-03 -0.11870937D-02
 -0.11401893D-02 -0.79957944D-03 -0.23345305D-03 -0.22422886D-03 -0.15724476D-03
  0.39770916D-06  0.38199489D-06  0.26788119D-06  0.22283838D-02 -0.63174020D-04
  0.42613180D-06  0.14728237D-03  0.17681603D-03 -0.40619594D-07  0.20958380D-04
  0.20716266D-04  0.52911180D-08  0.25478482D-04  0.37596764D-02 -0.37851549D-02
 -0.22067014D-02  0.48596512D-06 -0.80515856D-08 -0.41725668D-03  0.44177043D-03
 -0.24513755D-04 -0.29977365D-03  0.18252518D-06 -0.48325191D-07 -0.64094159D-04
 -0.30143638D-04  0.94237797D-04  0.19862998D-03 -0.13850802D-08 -0.97313584D-08
 -0.93414767D-03  0.90399856D-03 -0.33302140D-06  0.40665985D-02 -0.27550646D-02
  0.13876188D-06 -0.12641555D-02  0.43068900D-04  0.86030233D-06 -0.44499915D-06
  0.19644750D-03 -0.21491044D-03  0.26663785D-07 -0.64814632D-03  0.72219532D-03
 -0.46006480D-07  0.58803804D-04 -0.77463991D-04 -0.33984874D-07 -0.20571309D-07
  0.30807815D-03  0.57421803D-03  0.97368352D-03  0.14737154D-02  0.18387665D-02
  0.15792552D-02  0.60630677D-03 -0.27120474D-05 -0.24946443D-03 -0.46787672D-03
 -0.79762723D-03 -0.12465361D-02 -0.16668563D-02 -0.17798139D-02 -0.10881433D-02
  0.71789087D-03  0.74450368D-03 -0.12373887D-02 -0.48802157D-03 -0.54902512D-03
 -0.53236968D-03 -0.35913344D-03 -0.20961532D-02 -0.20325635D-02 -0.13711553D-02
 -0.95746884D-07 -0.92842270D-07 -0.62630847D-07  0.39994087D-03  0.12208494D-02
  0.28841533D-07  0.11976254D-03  0.10774801D-02  0.11793938D-06  0.10071828D-04
  0.42127842D-04  0.44634760D-08  0.13663661D-03  0.37840225D-03 -0.51503885D-03
  0.37967905D-04  0.39018216D-07  0.10335228D-06  0.50123689D-03 -0.15039488D-02
  0.10027120D-02 -0.83142998D-03 -0.75737198D-07 -0.32282263D-06  0.69390532D-04
 -0.16967964D-03  0.10028911D-03 -0.12149853D-03 -0.27594886D-08 -0.66973123D-07
 -0.45797024D-03  0.14365136D-02 -0.88094012D-07  0.16785573D-02 -0.23901286D-02
 -0.24745398D-06 -0.30464663D-03 -0.19194122D-02  0.51173601D-06  0.20869787D-06
 -0.47891983D-04  0.27917516D-03 -0.59967819D-07  0.27365522D-03 -0.21693558D-03
  0.14248226D-07 -0.12997927D-03 -0.62058989D-03  0.16565523D-06  0.37794412D-07
  0.28643379D-03  0.53387573D-03  0.90527635D-03  0.13701779D-02  0.17095820D-02
  0.14683029D-02  0.56371005D-03 -0.25215096D-05 -0.23774810D-03 -0.44590246D-03
 -0.76016594D-03 -0.11879914D-02 -0.15885709D-02 -0.16962233D-02 -0.10370377D-02
  0.68417448D-03  0.83205932D-03 -0.80199662D-03 -0.41714322D-03 -0.14940141D-02
 -0.14486911D-02 -0.97727847D-03  0.17658088D-02  0.17122406D-02  0.11550674D-02
 -0.10286107D-06 -0.99740642D-07 -0.67284448D-07  0.11261029D-02 -0.10546115D-02
  0.28279417D-07  0.98489308D-03 -0.81249721D-03  0.38861728D-07  0.35058022D-04
 -0.34964555D-04  0.55308404D-09  0.28203578D-03  0.90144698D-04 -0.37218048D-03
 -0.32380352D-03  0.63499663D-07  0.86442061D-07 -0.26832782D-03 -0.78729460D-03
  0.10556224D-02  0.26059621D-02 -0.24581807D-06  0.21818771D-06 -0.84227344D-04
 -0.58636757D-04  0.14286410D-03  0.37743442D-03 -0.39195896D-07  0.35101833D-07
 -0.85172587D-03 -0.16573793D-03 -0.12164215D-06  0.36936937D-02 -0.11999638D-02
 -0.46183586D-07 -0.11385161D-02  0.16971776D-02  0.41111004D-06 -0.82329296D-06
 -0.74529864D-04 -0.60001105D-04 -0.58596951D-07  0.62141844D-03 -0.37754728D-03
  0.79260981D-07 -0.39782885D-03  0.55755059D-03  0.96529870D-07 -0.16867493D-06
  0.21210601D-03  0.39533831D-03  0.67036279D-03  0.10146253D-02  0.12659561D-02
  0.10872875D-02  0.41743081D-03 -0.18671936D-05 -0.15614222D-03 -0.29284860D-03
 -0.49924267D-03 -0.78021912D-03 -0.10433016D-02 -0.11140029D-02 -0.68107953D-03
  0.44933491D-03  0.16031887D-04  0.84347585D-03  0.53344457D-04  0.12380470D-03
  0.12004891D-03  0.80984286D-04 -0.88851743D-04 -0.86156303D-04 -0.58120533D-04
  0.11150543D-07  0.10812276D-07  0.72938972D-08  0.89086128D-03  0.26941077D-03
 -0.64967284D-07  0.30826211D-03  0.39641694D-03  0.30018017D-07  0.11761473D-04
 -0.25555432D-04  0.14026207D-09  0.13229186D-02 -0.68115983D-03 -0.64175879D-03
  0.76486542D-03 -0.22116348D-06 -0.76812797D-07 -0.35636603D-03  0.22590183D-03
  0.13046420D-03 -0.69786562D-04  0.54168569D-07  0.26355433D-07 -0.36852216D-04
  0.74931642D-04 -0.38079426D-04  0.65619108D-04  0.27755812D-07  0.51686372D-08
 -0.36772938D-03  0.22524021D-03  0.29278746D-08  0.56781790D-03 -0.84825099D-03
  0.62774948D-07  0.53537025D-03  0.17253035D-03 -0.71558572D-07  0.49914830D-07
 -0.11712702D-03  0.12840325D-03 -0.29429634D-07  0.70863998D-04 -0.37293166D-03
  0.70638320D-07  0.28051708D-03 -0.12278088D-04  0.17650582D-07  0.46778476D-07
  0.17829644D-05  0.32156498D-05  0.47414737D-05 -0.51094803D-03  0.14688112D-03
  0.36166230D-05 -0.21827457D-03  0.67603661D-04  0.86096200D-09 -0.56432742D-03
 -0.69732619D-04  0.68609830D-08 -0.20494720D-04  0.49414730D-05 -0.44390083D-08
 -0.37729732D-03  0.37039989D-03  0.68974324D-05  0.39335906D-03  0.50280231D-07
  0.72120226D-08 -0.69631005D-04  0.53274652D-04  0.16356354D-04  0.54559259D-04