 Molden2AIM, Version 4.0.0 (06/02/2016)           Time: Thu Jun 28 17:45:55 2018
GAUSSIAN             16 MOL ORBITALS    300 PRIMITIVES        4 NUCLEI
  N    1    (CENTRE  1)   0.00003779  0.00000000  0.00000000  CHARGE =  7.0
  O    2    (CENTRE  2)  -1.18261140  2.04823635  0.00000000  CHARGE =  8.0
  O    3    (CENTRE  3)  -1.18261140 -2.04823635  0.00000000  CHARGE =  8.0
  O    4    (CENTRE  4)   2.36518500  0.00000000  0.00000000  CHARGE =  8.0
CENTRE ASSIGNMENTS    1  1  1  1  1  1  1  1  1  1  1  1  1  1  1  1  1  1  1  1
CENTRE ASSIGNMENTS    1  1  1  1  1  1  1  1  1  1  1  1  1  1  1  1  1  1  1  1
CENTRE ASSIGNMENTS    1  1  1  1  1  1  1  1  1  1  1  1  1  1  1  1  1  1  1  1
CENTRE ASSIGNMENTS    1  1  1  1  1  1  1  1  1  1  1  1  1  1  1  2  2  2  2  2
CENTRE ASSIGNMENTS    2  2  2  2  2  2  2  2  2  2  2  2  2  2  2  2  2  2  2  2
CENTRE ASSIGNMENTS    2  2  2  2  2  2  2  2  2  2  2  2  2  2  2  2  2  2  2  2
CENTRE ASSIGNMENTS    2  2  2  2  2  2  2  2  2  2  2  2  2  2  2  2  2  2  2  2
CENTRE ASSIGNMENTS    2  2  2  2  2  2  2  2  2  2  3  3  3  3  3  3  3  3  3  3
CENTRE ASSIGNMENTS    3  3  3  3  3  3  3  3  3  3  3  3  3  3  3  3  3  3  3  3
CENTRE ASSIGNMENTS    3  3  3  3  3  3  3  3  3  3  3  3  3  3  3  3  3  3  3  3
CENTRE ASSIGNMENTS    3  3  3  3  3  3  3  3  3  3  3  3  3  3  3  3  3  3  3  3
CENTRE ASSIGNMENTS    3  3  3  3  3  4  4  4  4  4  4  4  4  4  4  4  4  4  4  4
CENTRE ASSIGNMENTS    4  4  4  4  4  4  4  4  4  4  4  4  4  4  4  4  4  4  4  4
CENTRE ASSIGNMENTS    4  4  4  4  4  4  4  4  4  4  4  4  4  4  4  4  4  4  4  4
CENTRE ASSIGNMENTS    4  4  4  4  4  4  4  4  4  4  4  4  4  4  4  4  4  4  4  4
TYPE ASSIGNMENTS      1  1  1  1  1  1  1  1  1  1  1  1  1  1  1  1  1  1  1  2
TYPE ASSIGNMENTS      2  2  3  3  3  4  4  4  2  3  4  2  3  4  2  3  4  5  6  7
TYPE ASSIGNMENTS      8  9 10  5  6  7  8  9 10  5  6  7  8  9 10 11 12 13 17 14
TYPE ASSIGNMENTS     15 18 19 16 20 11 12 13 17 14 15 18 19 16 20  1  1  1  1  1
TYPE ASSIGNMENTS      1  1  1  1  1  1  1  1  1  1  1  1  1  1  2  2  2  3  3  3
TYPE ASSIGNMENTS      4  4  4  2  3  4  2  3  4  2  3  4  5  6  7  8  9 10  5  6
TYPE ASSIGNMENTS      7  8  9 10  5  6  7  8  9 10 11 12 13 17 14 15 18 19 16 20
TYPE ASSIGNMENTS     11 12 13 17 14 15 18 19 16 20  1  1  1  1  1  1  1  1  1  1
TYPE ASSIGNMENTS      1  1  1  1  1  1  1  1  1  2  2  2  3  3  3  4  4  4  2  3
TYPE ASSIGNMENTS      4  2  3  4  2  3  4  5  6  7  8  9 10  5  6  7  8  9 10  5
TYPE ASSIGNMENTS      6  7  8  9 10 11 12 13 17 14 15 18 19 16 20 11 12 13 17 14
TYPE ASSIGNMENTS     15 18 19 16 20  1  1  1  1  1  1  1  1  1  1  1  1  1  1  1
TYPE ASSIGNMENTS      1  1  1  1  2  2  2  3  3  3  4  4  4  2  3  4  2  3  4  2
TYPE ASSIGNMENTS      3  4  5  6  7  8  9 10  5  6  7  8  9 10  5  6  7  8  9 10
TYPE ASSIGNMENTS     11 12 13 17 14 15 18 19 16 20 11 12 13 17 14 15 18 19 16 20
EXPONENTS  0.1142000D+05 0.1712000D+04 0.3893000D+03 0.1100000D+03 0.3557000D+02
EXPONENTS  0.1254000D+02 0.4644000D+01 0.5118000D+00 0.1142000D+05 0.1712000D+04
EXPONENTS  0.3893000D+03 0.1100000D+03 0.3557000D+02 0.1254000D+02 0.4644000D+01
EXPONENTS  0.5118000D+00 0.1293000D+01 0.1787000D+00 0.5760000D-01 0.2663000D+02
EXPONENTS  0.5948000D+01 0.1742000D+01 0.2663000D+02 0.5948000D+01 0.1742000D+01
EXPONENTS  0.2663000D+02 0.5948000D+01 0.1742000D+01 0.5550000D+00 0.5550000D+00
EXPONENTS  0.5550000D+00 0.1725000D+00 0.1725000D+00 0.1725000D+00 0.4910000D-01
EXPONENTS  0.4910000D-01 0.4910000D-01 0.1654000D+01 0.1654000D+01 0.1654000D+01
EXPONENTS  0.1654000D+01 0.1654000D+01 0.1654000D+01 0.4690000D+00 0.4690000D+00
EXPONENTS  0.4690000D+00 0.4690000D+00 0.4690000D+00 0.4690000D+00 0.1510000D+00
EXPONENTS  0.1510000D+00 0.1510000D+00 0.1510000D+00 0.1510000D+00 0.1510000D+00
EXPONENTS  0.1093000D+01 0.1093000D+01 0.1093000D+01 0.1093000D+01 0.1093000D+01
EXPONENTS  0.1093000D+01 0.1093000D+01 0.1093000D+01 0.1093000D+01 0.1093000D+01
EXPONENTS  0.3640000D+00 0.3640000D+00 0.3640000D+00 0.3640000D+00 0.3640000D+00
EXPONENTS  0.3640000D+00 0.3640000D+00 0.3640000D+00 0.3640000D+00 0.3640000D+00
EXPONENTS  0.1533000D+05 0.2299000D+04 0.5224000D+03 0.1473000D+03 0.4755000D+02
EXPONENTS  0.1676000D+02 0.6207000D+01 0.6882000D+00 0.1533000D+05 0.2299000D+04
EXPONENTS  0.5224000D+03 0.1473000D+03 0.4755000D+02 0.1676000D+02 0.6207000D+01
EXPONENTS  0.6882000D+00 0.1752000D+01 0.2384000D+00 0.7376000D-01 0.3446000D+02
EXPONENTS  0.7749000D+01 0.2280000D+01 0.3446000D+02 0.7749000D+01 0.2280000D+01
EXPONENTS  0.3446000D+02 0.7749000D+01 0.2280000D+01 0.7156000D+00 0.7156000D+00
EXPONENTS  0.7156000D+00 0.2140000D+00 0.2140000D+00 0.2140000D+00 0.5974000D-01
EXPONENTS  0.5974000D-01 0.5974000D-01 0.2314000D+01 0.2314000D+01 0.2314000D+01
EXPONENTS  0.2314000D+01 0.2314000D+01 0.2314000D+01 0.6450000D+00 0.6450000D+00
EXPONENTS  0.6450000D+00 0.6450000D+00 0.6450000D+00 0.6450000D+00 0.2140000D+00
EXPONENTS  0.2140000D+00 0.2140000D+00 0.2140000D+00 0.2140000D+00 0.2140000D+00
EXPONENTS  0.1428000D+01 0.1428000D+01 0.1428000D+01 0.1428000D+01 0.1428000D+01
EXPONENTS  0.1428000D+01 0.1428000D+01 0.1428000D+01 0.1428000D+01 0.1428000D+01
EXPONENTS  0.5000000D+00 0.5000000D+00 0.5000000D+00 0.5000000D+00 0.5000000D+00
EXPONENTS  0.5000000D+00 0.5000000D+00 0.5000000D+00 0.5000000D+00 0.5000000D+00
EXPONENTS  0.1533000D+05 0.2299000D+04 0.5224000D+03 0.1473000D+03 0.4755000D+02
EXPONENTS  0.1676000D+02 0.6207000D+01 0.6882000D+00 0.1533000D+05 0.2299000D+04
EXPONENTS  0.5224000D+03 0.1473000D+03 0.4755000D+02 0.1676000D+02 0.6207000D+01
EXPONENTS  0.6882000D+00 0.1752000D+01 0.2384000D+00 0.7376000D-01 0.3446000D+02
EXPONENTS  0.7749000D+01 0.2280000D+01 0.3446000D+02 0.7749000D+01 0.2280000D+01
EXPONENTS  0.3446000D+02 0.7749000D+01 0.2280000D+01 0.7156000D+00 0.7156000D+00
EXPONENTS  0.7156000D+00 0.2140000D+00 0.2140000D+00 0.2140000D+00 0.5974000D-01
EXPONENTS  0.5974000D-01 0.5974000D-01 0.2314000D+01 0.2314000D+01 0.2314000D+01
EXPONENTS  0.2314000D+01 0.2314000D+01 0.2314000D+01 0.6450000D+00 0.6450000D+00
EXPONENTS  0.6450000D+00 0.6450000D+00 0.6450000D+00 0.6450000D+00 0.2140000D+00
EXPONENTS  0.2140000D+00 0.2140000D+00 0.2140000D+00 0.2140000D+00 0.2140000D+00
EXPONENTS  0.1428000D+01 0.1428000D+01 0.1428000D+01 0.1428000D+01 0.1428000D+01
EXPONENTS  0.1428000D+01 0.1428000D+01 0.1428000D+01 0.1428000D+01 0.1428000D+01
EXPONENTS  0.5000000D+00 0.5000000D+00 0.5000000D+00 0.5000000D+00 0.5000000D+00
EXPONENTS  0.5000000D+00 0.5000000D+00 0.5000000D+00 0.5000000D+00 0.5000000D+00
EXPONENTS  0.1533000D+05 0.2299000D+04 0.5224000D+03 0.1473000D+03 0.4755000D+02
EXPONENTS  0.1676000D+02 0.6207000D+01 0.6882000D+00 0.1533000D+05 0.2299000D+04
EXPONENTS  0.5224000D+03 0.1473000D+03 0.4755000D+02 0.1676000D+02 0.6207000D+01
EXPONENTS  0.6882000D+00 0.1752000D+01 0.2384000D+00 0.7376000D-01 0.3446000D+02
EXPONENTS  0.7749000D+01 0.2280000D+01 0.3446000D+02 0.7749000D+01 0.2280000D+01
EXPONENTS  0.3446000D+02 0.7749000D+01 0.2280000D+01 0.7156000D+00 0.7156000D+00
EXPONENTS  0.7156000D+00 0.2140000D+00 0.2140000D+00 0.2140000D+00 0.5974000D-01
EXPONENTS  0.5974000D-01 0.5974000D-01 0.2314000D+01 0.2314000D+01 0.2314000D+01
EXPONENTS  0.2314000D+01 0.2314000D+01 0.2314000D+01 0.6450000D+00 0.6450000D+00
EXPONENTS  0.6450000D+00 0.6450000D+00 0.6450000D+00 0.6450000D+00 0.2140000D+00
EXPONENTS  0.2140000D+00 0.2140000D+00 0.2140000D+00 0.2140000D+00 0.2140000D+00
EXPONENTS  0.1428000D+01 0.1428000D+01 0.1428000D+01 0.1428000D+01 0.1428000D+01
EXPONENTS  0.1428000D+01 0.1428000D+01 0.1428000D+01 0.1428000D+01 0.1428000D+01
EXPONENTS  0.5000000D+00 0.5000000D+00 0.5000000D+00 0.5000000D+00 0.5000000D+00
EXPONENTS  0.5000000D+00 0.5000000D+00 0.5000000D+00 0.5000000D+00 0.5000000D+00
MO    1     MO 0.0        OCC NO =    2.0000000  ORB. ENERGY =  -18.757918
  0.61465498D-03  0.11453191D-02  0.19370217D-02  0.29170473D-02  0.36114938D-02
  0.30732182D-02  0.11694162D-02 -0.54768750D-05 -0.45082761D-03 -0.84530599D-03
 -0.14381170D-02 -0.22332438D-02 -0.29636445D-02 -0.31232745D-02 -0.19366294D-02
  0.12882466D-02  0.46637565D-03  0.50144835D-03  0.28755214D-03 -0.23546802D-04
 -0.22616422D-04 -0.15860196D-04  0.90052944D-13  0.86494777D-13  0.60656108D-13
  0.18684064D-15  0.17945820D-15  0.12584848D-15  0.10044263D-02 -0.58903102D-11
 -0.48677182D-16  0.46140669D-03 -0.26654438D-11  0.11529516D-16  0.18357494D-04
 -0.10384821D-12  0.17171911D-19  0.11717837D-02 -0.41931053D-04 -0.11298527D-02
  0.72373201D-11  0.16729648D-18 -0.82807964D-18 -0.23113438D-03 -0.13021013D-03
  0.36134451D-03 -0.68918744D-12  0.83869896D-18 -0.71068258D-18  0.10154829D-04
 -0.17696291D-04  0.75414622D-05  0.15714780D-12 -0.62621224D-19 -0.78789623D-18
 -0.37697694D-03  0.17212168D-12 -0.19003956D-17  0.10186118D-02  0.18125425D-12
  0.24064712D-17  0.11231905D-03 -0.69761930D-12  0.32947156D-17 -0.34914132D-17
 -0.46807654D-03  0.71232774D-13  0.82068040D-18  0.13537901D-02  0.89437918D-13
 -0.91668777D-18  0.50439564D-04 -0.30313624D-12 -0.15453534D-17  0.16855248D-17
  0.16073500D+00  0.29958936D+00  0.50800428D+00  0.76888815D+00  0.95934792D+00
  0.82395192D+00  0.31633116D+00 -0.14149687D-02 -0.52721571D-03 -0.98880612D-03
 -0.16856977D-02 -0.26344173D-02 -0.35227179D-02 -0.37614415D-02 -0.22996716D-02
  0.15171836D-02  0.16056105D-01  0.15676814D-03 -0.76091116D-04  0.12847586D-02
  0.12457837D-02  0.84039830D-03 -0.20191029D-02 -0.19578507D-02 -0.13207545D-02
 -0.58002915D-17 -0.56243316D-17 -0.37941409D-17  0.27044829D-03 -0.59625488D-03
 -0.36833712D-18 -0.12864623D-03  0.11551176D-03  0.26567996D-17 -0.41194467D-05
  0.49635459D-05  0.18036624D-19  0.63650529D-03  0.48997563D-03 -0.11264809D-02
 -0.20801228D-03  0.96190136D-19  0.54181996D-17 -0.35567774D-03 -0.23924404D-04
  0.37960214D-03 -0.23861384D-03  0.31425071D-19 -0.17280113D-17 -0.33420929D-04
 -0.20940881D-04  0.54361810D-04  0.35087084D-04  0.48732101D-18 -0.39856309D-18
  0.53100766D-04 -0.94799410D-04  0.14153880D-17 -0.20962810D-03  0.66279328D-04
 -0.15773155D-18  0.50325802D-04  0.21811890D-03 -0.40884325D-17 -0.59478752D-17
 -0.13387476D-03  0.41477431D-04 -0.52522883D-18  0.28059951D-03  0.12907640D-03
 -0.58799933D-19  0.12102476D-03 -0.25350869D-03  0.16344864D-17 -0.57274921D-19
  0.16073500D+00  0.29958936D+00  0.50800429D+00  0.76888816D+00  0.95934793D+00
  0.82395193D+00  0.31633117D+00 -0.14149687D-02 -0.52721571D-03 -0.98880613D-03
 -0.16856977D-02 -0.26344173D-02 -0.35227180D-02 -0.37614415D-02 -0.22996716D-02
  0.15171836D-02  0.16056105D-01  0.15676813D-03 -0.76091118D-04  0.12847586D-02
  0.12457837D-02  0.84039831D-03  0.20191030D-02  0.19578507D-02  0.13207545D-02
 -0.50295341D-17 -0.48769563D-17 -0.32899659D-17  0.27044829D-03  0.59625488D-03
  0.22453850D-17 -0.12864624D-03 -0.11551177D-03 -0.85712577D-18 -0.41194468D-05
 -0.49635460D-05 -0.59173367D-19  0.63650529D-03  0.48997564D-03 -0.11264809D-02
  0.20801228D-03 -0.12608504D-16 -0.27999246D-17 -0.35567774D-03 -0.23924406D-04
  0.37960215D-03  0.23861383D-03  0.26349725D-17  0.13780852D-17 -0.33420929D-04
 -0.20940882D-04  0.54361810D-04 -0.35087086D-04 -0.10756336D-18 -0.66458111D-18
  0.53100766D-04  0.94799410D-04  0.26929563D-17 -0.20962810D-03 -0.66279328D-04
 -0.91735056D-17  0.50325803D-04 -0.21811890D-03  0.10946367D-17  0.76372734D-17
 -0.13387475D-03 -0.41477431D-04 -0.39615228D-18  0.28059950D-03 -0.12907640D-03
  0.20247875D-17  0.12102476D-03  0.25350869D-03 -0.83633069D-18 -0.16718142D-17
  0.44470967D+00  0.82888161D+00  0.14055086D+01  0.21273027D+01  0.26542526D+01
  0.22796490D+01  0.87520159D+00 -0.39148304D-02 -0.87780478D-03 -0.16463446D-02
 -0.28066566D-02 -0.43862580D-02 -0.58652627D-02 -0.62627332D-02 -0.38289123D-02
  0.25260838D-02  0.44547766D-01 -0.97926940D-03 -0.45342288D-03 -0.70499640D-02
 -0.68360936D-02 -0.46115884D-02 -0.70936859D-12 -0.68784891D-12 -0.46401881D-12
 -0.15133142D-16 -0.14674057D-16 -0.98990321D-17 -0.10389053D-03  0.44024683D-12
  0.22059987D-17  0.93657468D-03  0.36317162D-12  0.27532002D-18  0.37086375D-04
  0.65896366D-14 -0.13214628D-19  0.16088275D-02  0.29836759D-03 -0.19071951D-02
  0.16092086D-11 -0.19535208D-17 -0.68384474D-17 -0.54928661D-03 -0.11975049D-03
  0.66903710D-03 -0.11697000D-11 -0.14075053D-17  0.31691152D-18 -0.16468650D-03
  0.59042589D-04  0.10564391D-03 -0.19013840D-12  0.43802595D-18 -0.95403675D-20
  0.32718440D-04 -0.14654656D-13  0.13292644D-17 -0.30147729D-03  0.10971884D-11
  0.21533707D-18  0.20332197D-03 -0.10532245D-11 -0.42031302D-17  0.21797125D-18
  0.12155459D-03 -0.18963691D-12  0.12691729D-18  0.12279572D-03  0.41830856D-12
 -0.84481448D-18 -0.48745948D-03  0.15060217D-12  0.46406261D-18 -0.27075811D-19
MO    2     MO 0.0        OCC NO =    2.0000000  ORB. ENERGY =  -18.757904
  0.32276138D-03  0.60141830D-03  0.10171491D-02  0.15317702D-02  0.18964309D-02
  0.16137771D-02  0.61407196D-03 -0.28759609D-05 -0.23673393D-03 -0.44387834D-03
 -0.75516912D-03 -0.11726979D-02 -0.15562383D-02 -0.16400616D-02 -0.10169428D-02
  0.67647074D-03  0.24491758D-03  0.26329509D-03  0.15099864D-03  0.44763047D-04
  0.42994371D-04  0.30150621D-04  0.93572370D-12  0.89875143D-12  0.63026654D-12
 -0.18699184D-15 -0.17960343D-15 -0.12595032D-15 -0.19123516D-02 -0.44041759D-10
  0.97844192D-16 -0.87896310D-03 -0.20160562D-10 -0.23366374D-16 -0.34940611D-04
 -0.79728121D-12 -0.10065913D-18 -0.85878855D-03  0.14520672D-02 -0.59327861D-03
  0.53460615D-10  0.48074812D-18  0.15877335D-17  0.12844266D-05 -0.19104757D-03
  0.18976315D-03 -0.46231679D-11 -0.24504123D-17  0.16097132D-17 -0.28481613D-04
  0.24520441D-04  0.39611723D-05  0.12088580D-11 -0.25576089D-18  0.13704999D-17
 -0.12969761D-03  0.12467737D-11  0.41078575D-17  0.60330479D-03  0.12690502D-11
 -0.55447401D-17 -0.21421194D-03 -0.50093712D-11 -0.67788325D-17  0.59621989D-17
 -0.21519846D-03  0.54556024D-12 -0.11372098D-17  0.74153362D-03  0.58758685D-12
  0.82125405D-18 -0.95938249D-04 -0.22242676D-11  0.25903753D-17 -0.32924019D-17
  0.31437064D+00  0.58594643D+00  0.99357100D+00  0.15038160D+01  0.18763233D+01
  0.16115115D+01  0.61869059D+00 -0.27674410D-02 -0.56074010D-03 -0.10516820D-02
 -0.17928872D-02 -0.28019337D-02 -0.37467192D-02 -0.40006226D-02 -0.24459022D-02
  0.16136577D-02  0.31504271D-01 -0.83764822D-03 -0.34550322D-03  0.23446052D-02
  0.22734783D-02  0.15336750D-02 -0.44523970D-02 -0.43173274D-02 -0.29124435D-02
 -0.26071409D-16 -0.25280497D-16 -0.17054074D-16  0.55074740D-04  0.14873900D-03
  0.48348692D-17 -0.26720065D-03  0.66743199D-03 -0.54259718D-17 -0.12329243D-04
  0.25473492D-04  0.98869740D-21  0.16401796D-03  0.10600068D-02 -0.12240247D-02
 -0.67257452D-03  0.12021953D-16  0.25949280D-17  0.35272789D-04 -0.46895945D-03
  0.43368666D-03  0.23280540D-03 -0.12114879D-17  0.14437988D-17  0.31927386D-04
 -0.10199525D-03  0.70067867D-04  0.12393297D-03 -0.79926167D-18  0.98121721D-18
  0.12671304D-03  0.87527595D-04 -0.28913082D-17 -0.68946294D-04 -0.21986250D-03
  0.80048108D-18 -0.31119282D-03 -0.42720289D-04  0.78734435D-17  0.70960257D-17
 -0.19198987D-04  0.10467419D-03  0.99412254D-18 -0.13617737D-03 -0.62152117D-04
  0.15909146D-18  0.19377433D-03 -0.25187047D-03 -0.31414591D-17  0.72484360D-18
  0.31437066D+00  0.58594646D+00  0.99357105D+00  0.15038161D+01  0.18763234D+01
  0.16115115D+01  0.61869062D+00 -0.27674411D-02 -0.56074012D-03 -0.10516820D-02
 -0.17928872D-02 -0.28019338D-02 -0.37467193D-02 -0.40006227D-02 -0.24459023D-02
  0.16136578D-02  0.31504273D-01 -0.83764828D-03 -0.34550324D-03  0.23446053D-02
  0.22734784D-02  0.15336751D-02  0.44523972D-02  0.43173276D-02  0.29124437D-02
 -0.22873768D-16 -0.22179861D-16 -0.14962403D-16  0.55074723D-04 -0.14873902D-03
  0.98815916D-18 -0.26720067D-03 -0.66743202D-03  0.87475398D-18 -0.12329244D-04
 -0.25473493D-04  0.13894691D-18  0.16401797D-03  0.10600068D-02 -0.12240248D-02
  0.67257458D-03  0.10103092D-16  0.37351169D-17  0.35272788D-04 -0.46895947D-03
  0.43368668D-03 -0.23280544D-03 -0.36714267D-17 -0.11293855D-17  0.31927386D-04
 -0.10199526D-03  0.70067870D-04 -0.12393298D-03  0.76124337D-19  0.10525981D-17
  0.12671304D-03 -0.87527592D-04 -0.52125345D-17 -0.68946298D-04  0.21986249D-03
  0.16391857D-16 -0.31119281D-03  0.42720283D-04 -0.75425384D-18 -0.11225758D-16
 -0.19198983D-04 -0.10467420D-03  0.62319472D-18 -0.13617739D-03  0.62152111D-04
 -0.37678361D-17  0.19377434D-03  0.25187048D-03  0.18982519D-17  0.24474484D-17
 -0.22639149D+00 -0.42196461D+00 -0.71551216D+00 -0.10829610D+01 -0.13512191D+01
 -0.11605170D+01 -0.44554505D+00  0.19929503D-02  0.10681301D-03  0.20033044D-03
  0.34151948D-03  0.53372847D-03  0.71369666D-03  0.76206164D-03  0.46590955D-03
 -0.30737882D-03 -0.22751404D-01  0.13257590D-02  0.37299026D-03  0.38432670D-02
  0.37266762D-02  0.25139937D-02 -0.52362840D-11 -0.50774341D-11 -0.34252070D-11
  0.53869005D-17  0.52234814D-17  0.35237297D-17 -0.94153516D-03  0.32542895D-11
 -0.29295759D-18 -0.75879007D-03  0.27181744D-11  0.18966491D-18 -0.30297439D-04
  0.53328549D-13  0.99136124D-19 -0.76190026D-03  0.49879720D-03  0.26310305D-03
  0.11782351D-10  0.11822670D-16  0.36159854D-17  0.59528352D-03 -0.47788278D-03
 -0.11740074D-03 -0.85742819D-11  0.45632335D-18 -0.29796404D-18  0.11664346D-03
 -0.89078309D-04 -0.27565154D-04 -0.14321565D-11 -0.12097056D-17  0.45104067D-19
  0.44440035D-05 -0.10843240D-12 -0.18342261D-17 -0.55567999D-04  0.80960966D-11
 -0.13420998D-17  0.42235988D-04 -0.77707994D-11  0.68447782D-17 -0.13407076D-18
 -0.18744156D-03 -0.13954670D-11 -0.57577103D-18  0.48241366D-03  0.30702285D-11
  0.22934385D-17  0.79911006D-04  0.11161725D-11 -0.56612536D-18  0.32373626D-19
MO    3     MO 0.0        OCC NO =    2.0000000  ORB. ENERGY =  -18.757899
  0.83063398D-11  0.15477641D-10  0.26176571D-10  0.39420466D-10  0.48805094D-10
  0.41530933D-10  0.15803286D-10 -0.74013530D-13 -0.60942618D-11 -0.11426798D-10
 -0.19440383D-10 -0.30188862D-10 -0.40062376D-10 -0.42220245D-10 -0.26179245D-10
  0.17414444D-10  0.63712847D-11  0.60278880D-11  0.36889213D-11  0.78330264D-12
  0.75235283D-12  0.52760173D-12 -0.50419923D-04 -0.48427734D-04 -0.33960870D-04
 -0.16426834D-15 -0.15777778D-15 -0.11064467D-15 -0.36264611D-10  0.21597214D-02
  0.93484516D-17 -0.16522662D-10  0.99258473D-03 -0.52217698D-17 -0.64970515D-12
  0.39462668D-04 -0.25501380D-18 -0.14289992D-10  0.29631895D-10 -0.15341903D-10
 -0.26103449D-02  0.12827364D-15 -0.13630504D-15 -0.64668505D-12 -0.43303752D-11
  0.49770603D-11  0.21755617D-03 -0.50411476D-16  0.36818434D-16 -0.56833966D-12
  0.45011530D-12  0.11822436D-12 -0.59853182D-04  0.77507354D-18  0.10916719D-17
 -0.37361820D-11 -0.60451109D-04  0.19389638D-17  0.15287346D-10 -0.60731974D-04
 -0.52687004D-17 -0.40788000D-11  0.24208530D-03 -0.54819109D-18 -0.20959172D-17
 -0.57206974D-11 -0.26981343D-04  0.15661476D-19  0.19003095D-10 -0.27404628D-04
  0.73943940D-18 -0.18410031D-11  0.10834866D-03 -0.78642382D-18  0.16039529D-17
  0.35264021D+00  0.65727599D+00  0.11145223D+01  0.16868814D+01  0.21047355D+01
  0.18076871D+01  0.69400622D+00 -0.31043324D-02 -0.43535014D-03 -0.81650998D-03
 -0.13919705D-02 -0.21753790D-02 -0.29088962D-02 -0.31060229D-02 -0.18989615D-02
  0.12528195D-02  0.35381022D-01 -0.14105812D-02 -0.46852721D-03  0.30039523D-02
  0.29128233D-02  0.19649734D-02 -0.49455843D-02 -0.47955531D-02 -0.32350518D-02
 -0.18063548D-16 -0.17515566D-16 -0.11815897D-16 -0.40912379D-03  0.54871121D-03
  0.46132521D-17 -0.53732196D-03  0.79692664D-03  0.13564705D-17 -0.20246402D-04
  0.32378094D-04  0.79984107D-19  0.23587374D-03  0.73412200D-03 -0.96999574D-03
 -0.14374286D-02  0.85542805D-17  0.25168810D-17 -0.21422627D-04 -0.33793062D-03
  0.35935325D-03  0.96678751D-03 -0.21608747D-18 -0.17574427D-17  0.14829921D-04
 -0.78507720D-04  0.63677800D-04  0.23225321D-03  0.40514210D-19 -0.13179161D-17
 -0.12698793D-04 -0.84728512D-04  0.10330788D-17 -0.10115028D-03  0.11576134D-03
  0.40612035D-17  0.13924666D-03  0.13842419D-03 -0.71604399D-17  0.12154549D-17
  0.10195916D-03  0.31951215D-04  0.13741312D-18 -0.41104805D-03  0.14088301D-03
 -0.19191773D-17  0.10517056D-03 -0.23673666D-03  0.15069379D-17  0.10313345D-17
 -0.35264020D+00 -0.65727596D+00 -0.11145222D+01 -0.16868813D+01 -0.21047354D+01
 -0.18076870D+01 -0.69400619D+00  0.31043323D-02  0.43535012D-03  0.81650993D-03
  0.13919704D-02  0.21753788D-02  0.29088960D-02  0.31060228D-02  0.18989614D-02
 -0.12528194D-02 -0.35381021D-01  0.14105812D-02  0.46852719D-03 -0.30039522D-02
 -0.29128232D-02 -0.19649733D-02 -0.49455841D-02 -0.47955530D-02 -0.32350517D-02
  0.19215031D-16  0.18632117D-16  0.12569116D-16  0.40912380D-03  0.54871121D-03
 -0.36476396D-17  0.53732195D-03  0.79692662D-03  0.44695302D-17  0.20246401D-04
  0.32378093D-04  0.18045365D-18 -0.23587373D-03 -0.73412195D-03  0.96999568D-03
 -0.14374286D-02  0.10462357D-16  0.93352567D-17  0.21422626D-04  0.33793060D-03
 -0.35935323D-03  0.96678751D-03  0.28316477D-18  0.13052771D-17 -0.14829919D-04
  0.78507716D-04 -0.63677797D-04  0.23225320D-03  0.13752420D-17  0.23100079D-17
  0.12698798D-04 -0.84728515D-04  0.55152694D-17  0.10115028D-03  0.11576135D-03
 -0.76333602D-17 -0.13924667D-03  0.13842419D-03 -0.89124481D-17 -0.12284354D-16
 -0.10195917D-03  0.31951210D-04 -0.14144345D-17  0.41104804D-03  0.14088301D-03
  0.12758668D-17 -0.10517055D-03 -0.23673664D-03  0.29674368D-17  0.47424456D-17
 -0.34035510D-08 -0.63437811D-08 -0.10756951D-07 -0.16281146D-07 -0.20314117D-07
 -0.17447117D-07 -0.66982875D-08  0.29961851D-10 -0.25614275D-12 -0.48040207D-12
 -0.81898021D-12 -0.12799067D-11 -0.17114791D-11 -0.18274606D-11 -0.11172736D-11
  0.73710926D-12 -0.34244132D-09  0.24504124D-10  0.63982138D-11  0.59185308D-10
  0.57389840D-10  0.38714847D-10  0.25561464D-03  0.24786021D-03  0.16720504D-03
 -0.10360490D-16 -0.10046190D-16 -0.67771006D-17 -0.19627535D-10 -0.15894192D-03
 -0.12359458D-17 -0.12974026D-10 -0.13334340D-03 -0.23014031D-17 -0.52005386D-12
 -0.26882749D-05 -0.96670458D-19 -0.11120998D-10  0.11062777D-10  0.58221330D-13
 -0.57348827D-03 -0.15607743D-17  0.26496088D-17  0.10673969D-10 -0.10138631D-10
 -0.53533830D-12  0.41750434D-03 -0.22003214D-18 -0.64356583D-18  0.19383029D-11
 -0.16633876D-11 -0.27491537D-12  0.70411806D-04  0.14629015D-17 -0.10927158D-18
  0.17917958D-12  0.52953931D-05 -0.60109750D-18 -0.19753349D-11 -0.39516821D-03
 -0.10049743D-18  0.14377962D-11  0.37928203D-03  0.19037899D-17 -0.11028838D-17
 -0.35011663D-11  0.68043953D-04 -0.96116905D-19  0.10229765D-10 -0.14956416D-03
  0.92923605D-18  0.27373369D-12 -0.54567698D-04 -0.64088534D-18  0.84525223D-18
MO    4     MO 0.0        OCC NO =    2.0000000  ORB. ENERGY =  -14.208179
  0.41324739D+00  0.77002567D+00  0.13023064D+01  0.19612013D+01  0.24280945D+01
  0.20661988D+01  0.78622677D+00 -0.36822354D-02 -0.17682897D-02 -0.33155597D-02
 -0.56407536D-02 -0.87594948D-02 -0.11624359D-01 -0.12250479D-01 -0.75960783D-02
  0.50529142D-02  0.39146338D-01  0.12310526D-02  0.24962663D-03  0.30649583D-06
  0.29438558D-06  0.20644349D-06  0.38166637D-14  0.36658599D-14  0.25707540D-14
 -0.33452259D-16 -0.32130495D-16 -0.22532121D-16 -0.31696746D-06 -0.42764893D-14
  0.74265292D-17 -0.88413311D-07 -0.67359629D-14  0.58737501D-18  0.39911940D-08
 -0.28678271D-15  0.17269966D-19  0.17595049D-02  0.17590937D-02 -0.35185986D-02
  0.23492247D-14  0.21491421D-17  0.65220676D-17  0.35399652D-04  0.35433484D-04
 -0.70833136D-04 -0.26468054D-15  0.26515395D-18  0.17893945D-18 -0.40098243D-04
 -0.40102818D-04  0.80201061D-04 -0.75390234D-15  0.71270560D-19 -0.20037760D-18
  0.15141535D-02 -0.19574943D-15 -0.12680321D-17 -0.45425718D-02  0.12184854D-14
  0.34878970D-17  0.11128906D-06 -0.63123705D-15  0.31619915D-18  0.13505717D-17
 -0.28680658D-03 -0.96388373D-15 -0.20878397D-18  0.86040676D-03  0.21618205D-14
  0.36501066D-18  0.12965773D-07  0.72983064D-15  0.26134125D-18  0.72973734D-19
  0.34297336D-03  0.63925821D-03  0.10839701D-02  0.16406393D-02  0.20470388D-02
  0.17581333D-02  0.67498156D-03 -0.30192339D-05 -0.26573003D-03 -0.49838325D-03
 -0.84963418D-03 -0.13278128D-02 -0.17755388D-02 -0.18958615D-02 -0.11590925D-02
  0.76469885D-03  0.55009285D-03 -0.53659399D-03 -0.22898175D-03  0.87188400D-03
  0.84543419D-03  0.57032491D-03 -0.15100792D-02 -0.14642689D-02 -0.98778715D-03
  0.16138910D-17  0.15649314D-17  0.10556935D-17 -0.27901175D-03  0.48332878D-03
 -0.11250550D-17 -0.34798015D-03  0.60274367D-03 -0.10716629D-18 -0.14395282D-04
  0.24928438D-04  0.15726006D-19  0.11489314D-03  0.57908442D-03 -0.69397756D-03
 -0.80408491D-03  0.15792330D-17 -0.25387157D-17  0.18301295D-04 -0.79625205D-03
  0.77795076D-03  0.14110148D-02 -0.11167317D-17  0.19233664D-17  0.17647152D-04
 -0.93904054D-04  0.76256902D-04  0.19320936D-03 -0.41630983D-19  0.78408984D-19
  0.73158716D-03  0.35570032D-03  0.45030739D-18 -0.30166089D-02  0.35621529D-03
 -0.18609591D-18  0.82184746D-03 -0.14233163D-02 -0.11648263D-17  0.13414180D-17
  0.61781113D-04  0.12549951D-03  0.22156938D-18 -0.47522438D-03  0.12554753D-03
 -0.75050695D-19  0.28988104D-03 -0.50204608D-03 -0.58965744D-18  0.96179237D-18
  0.34297336D-03  0.63925821D-03  0.10839701D-02  0.16406393D-02  0.20470388D-02
  0.17581333D-02  0.67498156D-03 -0.30192339D-05 -0.26573003D-03 -0.49838325D-03
 -0.84963418D-03 -0.13278128D-02 -0.17755388D-02 -0.18958615D-02 -0.11590925D-02
  0.76469885D-03  0.55009285D-03 -0.53659399D-03 -0.22898175D-03  0.87188400D-03
  0.84543419D-03  0.57032491D-03  0.15100792D-02  0.14642689D-02  0.98778715D-03
  0.52911564D-18  0.51306418D-18  0.34611007D-18 -0.27901175D-03 -0.48332878D-03
 -0.26221981D-18 -0.34798015D-03 -0.60274367D-03 -0.81196607D-18 -0.14395282D-04
 -0.24928438D-04 -0.13211572D-19  0.11489314D-03  0.57908442D-03 -0.69397756D-03
  0.80408491D-03  0.14587925D-17  0.31184974D-17  0.18301295D-04 -0.79625205D-03
  0.77795076D-03 -0.14110148D-02 -0.77218923D-18 -0.16775484D-17  0.17647152D-04
 -0.93904054D-04  0.76256902D-04 -0.19320936D-03 -0.23856043D-18 -0.34997827D-18
  0.73158716D-03 -0.35570032D-03 -0.77882417D-18 -0.30166089D-02 -0.35621529D-03
  0.42058701D-18  0.82184746D-03  0.14233163D-02  0.19158855D-17  0.29753072D-17
  0.61781113D-04 -0.12549951D-03  0.40106602D-18 -0.47522438D-03 -0.12554753D-03
 -0.94300788D-19  0.28988104D-03  0.50204608D-03 -0.11088973D-17 -0.14040745D-17
  0.34298194D-03  0.63927421D-03  0.10839972D-02  0.16406803D-02  0.20470900D-02
  0.17581773D-02  0.67499845D-03 -0.30193095D-05 -0.26573537D-03 -0.49839328D-03
 -0.84965128D-03 -0.13278396D-02 -0.17755745D-02 -0.18958996D-02 -0.11591158D-02
  0.76471423D-03  0.55006079D-03 -0.53643745D-03 -0.22896398D-03 -0.17435865D-02
 -0.16906924D-02 -0.11405311D-02  0.16094720D-14  0.15606465D-14  0.10528029D-14
  0.12518371D-17  0.12138609D-17  0.81886337D-18  0.55792960D-03 -0.19517270D-14
 -0.79036994D-18  0.69590070D-03  0.13136090D-14 -0.72523398D-18  0.28780725D-04
  0.63930849D-16 -0.71898154D-20  0.81117619D-03 -0.11720222D-03 -0.69397397D-03
 -0.60724616D-15 -0.38193344D-17  0.40274406D-18 -0.12035076D-02  0.42559794D-03
  0.77790964D-03  0.11078705D-14  0.25207935D-17 -0.22199206D-18 -0.14966671D-03
  0.73417301D-04  0.76249405D-04 -0.23612043D-15  0.37991518D-18  0.63107587D-19
  0.13478969D-02  0.16343356D-15 -0.85531178D-19 -0.24002015D-02  0.65681282D-15
  0.20906804D-18 -0.16434892D-02 -0.11471135D-14  0.47525497D-19  0.51629025D-18
  0.27916841D-03  0.13587953D-16  0.37823891D-18 -0.25780346D-03 -0.25570679D-15
 -0.14264745D-17 -0.57970177D-03  0.21494293D-15  0.29175776D-18  0.92933669D-19
MO    5     MO 0.0        OCC NO =    2.0000000  ORB. ENERGY =   -0.983131
 -0.65586911D-02 -0.12221155D-01 -0.20669037D-01 -0.31126425D-01 -0.38536533D-01
 -0.32792850D-01 -0.12478284D-01  0.58441130D-04 -0.60450934D-01 -0.11334607D+00
 -0.19283538D+00 -0.29945299D+00 -0.39739154D+00 -0.41879613D+00 -0.25968032D+00
  0.17273945D+00  0.89067035D-01  0.36497301D-01  0.35817421D-02 -0.69233281D-05
 -0.66497739D-05 -0.46632804D-05  0.77205477D-13  0.74154937D-13  0.52002561D-13
 -0.26433504D-16 -0.25389065D-16 -0.17804565D-16 -0.11306562D-06 -0.39851366D-12
 -0.75681158D-16  0.10167185D-05 -0.46588388D-12 -0.14864135D-16  0.10410332D-06
 -0.41258583D-13 -0.61938142D-18  0.14007644D-01  0.14003820D-01 -0.28011464D-01
  0.53710164D-14  0.22370815D-16 -0.35499812D-16  0.35932284D-02  0.35918226D-02
 -0.71850510D-02  0.32044418D-12 -0.19810132D-16  0.30844629D-16  0.10093487D-03
  0.10083718D-03 -0.20177205D-03  0.23605250D-13  0.57466146D-17  0.49616299D-17
  0.11095960D-01 -0.14504887D-13 -0.62601443D-17 -0.33287553D-01 -0.27090049D-13
  0.33129463D-16 -0.32778754D-06  0.70604711D-13 -0.14349030D-16  0.20967989D-16
  0.10832642D-02  0.95864987D-14 -0.30284348D-18 -0.32503620D-02 -0.42411561D-13
  0.24945284D-17  0.56927061D-06  0.13652065D-13 -0.15859980D-17 -0.25646493D-16
 -0.31102153D-02 -0.57970412D-02 -0.98298611D-02 -0.14877953D-01 -0.18563341D-01
 -0.15943434D-01 -0.61209944D-02  0.27379584D-04 -0.39529279D-01 -0.74138143D-01
 -0.12638928D+00 -0.19752184D+00 -0.26412434D+00 -0.28202322D+00 -0.17242347D+00
  0.11375453D+00  0.57567746D-01  0.15614565D-01 -0.24592789D-02  0.13337403D+00
  0.12932794D+00  0.87243865D-01 -0.23099865D+00 -0.22399099D+00 -0.15110300D+00
 -0.16096813D-15 -0.15608494D-15 -0.10529398D-15  0.31639573D-01 -0.54796908D-01
 -0.68182117D-16 -0.48937410D-03  0.84639311D-03 -0.15143434D-16 -0.16310956D-03
  0.28238389D-03  0.18319255D-18 -0.52760834D-02  0.19212357D-01 -0.13936273D-01
 -0.42418706D-01 -0.87168502D-16 -0.18935836D-16 -0.96361435D-03  0.56977393D-02
 -0.47341250D-02 -0.11539462D-01 -0.22060402D-16  0.44801745D-16  0.10285650D-03
 -0.50479191D-03  0.40193541D-03  0.10535435D-02 -0.58296619D-17  0.72702698D-17
 -0.22380996D-02 -0.25802177D-02  0.61713877D-17  0.12674737D-01 -0.25821921D-02
  0.11114719D-17 -0.59604382D-02  0.10322845D-01 -0.19625635D-16  0.22002606D-16
 -0.12802649D-03 -0.13570041D-03  0.67987955D-17  0.69699632D-03 -0.13511335D-03
 -0.18983012D-17 -0.31291686D-03  0.54221458D-03 -0.18498085D-16  0.25792339D-16