 Molden2AIM, Version 4.0.0 (06/02/2016)           Time: Thu Jun 28 15:49:01 2018
GAUSSIAN              9 MOL ORBITALS    204 PRIMITIVES        4 NUCLEI
  O    1    (CENTRE  1)  -1.10494176  0.58058056 -0.77274681  CHARGE =  8.0
  O    2    (CENTRE  2)   1.10493231  0.58080354  0.77257862  CHARGE =  8.0
  H    3    (CENTRE  3)  -2.24370017 -0.43213312  0.23551846  CHARGE =  1.0
  H    4    (CENTRE  4)   2.24370962 -0.43220493 -0.23535027  CHARGE =  1.0
CENTRE ASSIGNMENTS    1  1  1  1  1  1  1  1  1  1  1  1  1  1  1  1  1  1  1  1
CENTRE ASSIGNMENTS    1  1  1  1  1  1  1  1  1  1  1  1  1  1  1  1  1  1  1  1
CENTRE ASSIGNMENTS    1  1  1  1  1  1  1  1  1  1  1  1  1  1  1  1  1  1  1  1
CENTRE ASSIGNMENTS    1  1  1  1  1  1  1  1  1  1  1  1  1  1  1  2  2  2  2  2
CENTRE ASSIGNMENTS    2  2  2  2  2  2  2  2  2  2  2  2  2  2  2  2  2  2  2  2
CENTRE ASSIGNMENTS    2  2  2  2  2  2  2  2  2  2  2  2  2  2  2  2  2  2  2  2
CENTRE ASSIGNMENTS    2  2  2  2  2  2  2  2  2  2  2  2  2  2  2  2  2  2  2  2
CENTRE ASSIGNMENTS    2  2  2  2  2  2  2  2  2  2  3  3  3  3  3  3  3  3  3  3
CENTRE ASSIGNMENTS    3  3  3  3  3  3  3  3  3  3  3  3  3  3  3  3  3  4  4  4
CENTRE ASSIGNMENTS    4  4  4  4  4  4  4  4  4  4  4  4  4  4  4  4  4  4  4  4
CENTRE ASSIGNMENTS    4  4  4  4
TYPE ASSIGNMENTS      1  1  1  1  1  1  1  1  1  1  1  1  1  1  1  1  1  1  1  2
TYPE ASSIGNMENTS      2  2  3  3  3  4  4  4  2  3  4  2  3  4  2  3  4  5  6  7
TYPE ASSIGNMENTS      8  9 10  5  6  7  8  9 10  5  6  7  8  9 10 11 12 13 17 14
TYPE ASSIGNMENTS     15 18 19 16 20 11 12 13 17 14 15 18 19 16 20  1  1  1  1  1
TYPE ASSIGNMENTS      1  1  1  1  1  1  1  1  1  1  1  1  1  1  2  2  2  3  3  3
TYPE ASSIGNMENTS      4  4  4  2  3  4  2  3  4  2  3  4  5  6  7  8  9 10  5  6
TYPE ASSIGNMENTS      7  8  9 10  5  6  7  8  9 10 11 12 13 17 14 15 18 19 16 20
TYPE ASSIGNMENTS     11 12 13 17 14 15 18 19 16 20  1  1  1  1  1  1  2  3  4  2
TYPE ASSIGNMENTS      3  4  2  3  4  5  6  7  8  9 10  5  6  7  8  9 10  1  1  1
TYPE ASSIGNMENTS      1  1  1  2  3  4  2  3  4  2  3  4  5  6  7  8  9 10  5  6
TYPE ASSIGNMENTS      7  8  9 10
EXPONENTS  0.1533000D+05 0.2299000D+04 0.5224000D+03 0.1473000D+03 0.4755000D+02
EXPONENTS  0.1676000D+02 0.6207000D+01 0.6882000D+00 0.1533000D+05 0.2299000D+04
EXPONENTS  0.5224000D+03 0.1473000D+03 0.4755000D+02 0.1676000D+02 0.6207000D+01
EXPONENTS  0.6882000D+00 0.1752000D+01 0.2384000D+00 0.7376000D-01 0.3446000D+02
EXPONENTS  0.7749000D+01 0.2280000D+01 0.3446000D+02 0.7749000D+01 0.2280000D+01
EXPONENTS  0.3446000D+02 0.7749000D+01 0.2280000D+01 0.7156000D+00 0.7156000D+00
EXPONENTS  0.7156000D+00 0.2140000D+00 0.2140000D+00 0.2140000D+00 0.5974000D-01
EXPONENTS  0.5974000D-01 0.5974000D-01 0.2314000D+01 0.2314000D+01 0.2314000D+01
EXPONENTS  0.2314000D+01 0.2314000D+01 0.2314000D+01 0.6450000D+00 0.6450000D+00
EXPONENTS  0.6450000D+00 0.6450000D+00 0.6450000D+00 0.6450000D+00 0.2140000D+00
EXPONENTS  0.2140000D+00 0.2140000D+00 0.2140000D+00 0.2140000D+00 0.2140000D+00
EXPONENTS  0.1428000D+01 0.1428000D+01 0.1428000D+01 0.1428000D+01 0.1428000D+01
EXPONENTS  0.1428000D+01 0.1428000D+01 0.1428000D+01 0.1428000D+01 0.1428000D+01
EXPONENTS  0.5000000D+00 0.5000000D+00 0.5000000D+00 0.5000000D+00 0.5000000D+00
EXPONENTS  0.5000000D+00 0.5000000D+00 0.5000000D+00 0.5000000D+00 0.5000000D+00
EXPONENTS  0.1533000D+05 0.2299000D+04 0.5224000D+03 0.1473000D+03 0.4755000D+02
EXPONENTS  0.1676000D+02 0.6207000D+01 0.6882000D+00 0.1533000D+05 0.2299000D+04
EXPONENTS  0.5224000D+03 0.1473000D+03 0.4755000D+02 0.1676000D+02 0.6207000D+01
EXPONENTS  0.6882000D+00 0.1752000D+01 0.2384000D+00 0.7376000D-01 0.3446000D+02
EXPONENTS  0.7749000D+01 0.2280000D+01 0.3446000D+02 0.7749000D+01 0.2280000D+01
EXPONENTS  0.3446000D+02 0.7749000D+01 0.2280000D+01 0.7156000D+00 0.7156000D+00
EXPONENTS  0.7156000D+00 0.2140000D+00 0.2140000D+00 0.2140000D+00 0.5974000D-01
EXPONENTS  0.5974000D-01 0.5974000D-01 0.2314000D+01 0.2314000D+01 0.2314000D+01
EXPONENTS  0.2314000D+01 0.2314000D+01 0.2314000D+01 0.6450000D+00 0.6450000D+00
EXPONENTS  0.6450000D+00 0.6450000D+00 0.6450000D+00 0.6450000D+00 0.2140000D+00
EXPONENTS  0.2140000D+00 0.2140000D+00 0.2140000D+00 0.2140000D+00 0.2140000D+00
EXPONENTS  0.1428000D+01 0.1428000D+01 0.1428000D+01 0.1428000D+01 0.1428000D+01
EXPONENTS  0.1428000D+01 0.1428000D+01 0.1428000D+01 0.1428000D+01 0.1428000D+01
EXPONENTS  0.5000000D+00 0.5000000D+00 0.5000000D+00 0.5000000D+00 0.5000000D+00
EXPONENTS  0.5000000D+00 0.5000000D+00 0.5000000D+00 0.5000000D+00 0.5000000D+00
EXPONENTS  0.3387000D+02 0.5095000D+01 0.1159000D+01 0.3258000D+00 0.1027000D+00
EXPONENTS  0.2526000D-01 0.1407000D+01 0.1407000D+01 0.1407000D+01 0.3880000D+00
EXPONENTS  0.3880000D+00 0.3880000D+00 0.1020000D+00 0.1020000D+00 0.1020000D+00
EXPONENTS  0.1057000D+01 0.1057000D+01 0.1057000D+01 0.1057000D+01 0.1057000D+01
EXPONENTS  0.1057000D+01 0.2470000D+00 0.2470000D+00 0.2470000D+00 0.2470000D+00
EXPONENTS  0.2470000D+00 0.2470000D+00 0.3387000D+02 0.5095000D+01 0.1159000D+01
EXPONENTS  0.3258000D+00 0.1027000D+00 0.2526000D-01 0.1407000D+01 0.1407000D+01
EXPONENTS  0.1407000D+01 0.3880000D+00 0.3880000D+00 0.3880000D+00 0.1020000D+00
EXPONENTS  0.1020000D+00 0.1020000D+00 0.1057000D+01 0.1057000D+01 0.1057000D+01
EXPONENTS  0.1057000D+01 0.1057000D+01 0.1057000D+01 0.2470000D+00 0.2470000D+00
EXPONENTS  0.2470000D+00 0.2470000D+00 0.2470000D+00 0.2470000D+00
MO    1     MO 0.0        OCC NO =    2.0000000  ORB. ENERGY =  -19.033733
  0.39279288D-01  0.73211539D-01  0.12414251D+00  0.18789547D+00  0.23443869D+00
  0.20135157D+00  0.77302783D-01 -0.34578009D-03  0.64204167D-04  0.12041651D-03
  0.20528375D-03  0.32081854D-03  0.42899551D-03  0.45806719D-03  0.28005330D-03
 -0.18476216D-03  0.36604448D-02  0.19498485D-02  0.50975300D-03 -0.77339163D-03
 -0.74992973D-03 -0.50589816D-03 -0.26375813D-03 -0.25575667D-03 -0.17253194D-03
 -0.23864458D-03 -0.23140497D-03 -0.15610443D-03  0.79454003D-03  0.83723086D-06
  0.73838692D-03  0.11404378D-02 -0.26645866D-04  0.72817391D-03  0.61199865D-04
  0.10711280D-05  0.27054164D-04 -0.13314680D-03  0.10599147D-03  0.27155333D-04
  0.18439939D-03 -0.26718570D-03  0.11020890D-03  0.36215425D-03 -0.38937882D-03
  0.27224568D-04  0.89182946D-05  0.10745597D-02 -0.80119480D-04  0.66266930D-04
 -0.86085778D-04  0.19818847D-04 -0.83683249D-04  0.25958281D-03 -0.22787408D-04
  0.67201788D-04 -0.32179848D-04 -0.26669318D-03 -0.74525847D-03 -0.62213081D-04
  0.13053680D-02  0.54365310D-03  0.15875262D-03 -0.50528842D-03  0.48056332D-03
  0.26442244D-04  0.20805057D-04 -0.97315491D-06 -0.41677993D-04  0.42237136D-04
  0.18886748D-04 -0.37648739D-04 -0.10465231D-03 -0.15967283D-04 -0.10002239D-03
  0.49732329D+00  0.92694662D+00  0.15717943D+01  0.23789839D+01  0.29682774D+01
  0.25493544D+01  0.97874672D+00 -0.43779941D-02 -0.77433291D-03 -0.14522806D-02
 -0.24758200D-02 -0.38692247D-02 -0.51738907D-02 -0.55245090D-02 -0.33775765D-02
  0.22283198D-02  0.50082084D-01 -0.14565382D-02 -0.53881901D-03 -0.23998851D-02
 -0.23270812D-02 -0.15698352D-02 -0.36410966D-02 -0.35306389D-02 -0.23817481D-02
 -0.73820374D-02 -0.71580931D-02 -0.48288073D-02  0.14110227D-02 -0.38918893D-03
  0.20689801D-03  0.10399976D-02  0.91194279D-04  0.76208776D-03  0.46396934D-04
  0.39009334D-06  0.33928215D-04  0.45194649D-03 -0.30760263D-03 -0.14434386D-03
 -0.15953032D-02 -0.87921793D-03  0.12580353D-02 -0.41141345D-03  0.39389794D-03
  0.17515508D-04 -0.23038902D-03 -0.13359807D-02  0.18218550D-03 -0.13418025D-03
  0.11791150D-03  0.16268747D-04  0.84910912D-04 -0.21929411D-03 -0.88851161D-04
 -0.40558114D-03  0.28743739D-03  0.39480086D-03  0.36191984D-03 -0.69244320D-03
 -0.58275998D-03  0.85482357D-03 -0.16986896D-03 -0.60164259D-03  0.30761268D-02
  0.93076844D-04 -0.69803832D-04 -0.15658174D-03 -0.38026865D-03  0.17008707D-03
  0.58069896D-03  0.10103811D-03  0.39324423D-04 -0.11095375D-03 -0.49416615D-03
  0.85108114D-06  0.15349599D-05  0.22632974D-05  0.18385648D-04  0.15210395D-03
  0.17762008D-04 -0.10139647D-03 -0.65821069D-04 -0.24584503D-04 -0.17536617D-03
 -0.75449789D-05 -0.81488213D-04  0.19792175D-04  0.19371411D-04 -0.22012094D-04
 -0.94090946D-04  0.39355351D-04  0.54735595D-04 -0.11095692D-03  0.33755885D-04
  0.62855279D-04 -0.65018740D-06 -0.27564611D-05  0.34066485D-05 -0.18365097D-05
  0.21125646D-04  0.18149023D-04  0.12097788D-03  0.21818858D-03  0.32171893D-03
 -0.28140570D-03 -0.23243402D-03 -0.16254185D-04  0.66995999D-03 -0.55879054D-03
 -0.49179773D-03  0.50649731D-03 -0.41616122D-03 -0.35984921D-03  0.78089207D-04
 -0.41328125D-04 -0.28045648D-04 -0.16736338D-03  0.39103614D-04  0.12825976D-03
  0.20332757D-02  0.20381470D-02 -0.17278947D-02 -0.25226020D-04  0.10947881D-04
  0.14278138D-04  0.67344844D-04  0.48427104D-04 -0.56397689D-04
MO    2     MO 0.0        OCC NO =    2.0000000  ORB. ENERGY =  -19.033725
  0.49735056D+00  0.92699745D+00  0.15718805D+01  0.23791144D+01  0.29684401D+01
  0.25494942D+01  0.97880039D+00 -0.43782342D-02 -0.79437179D-03 -0.14898640D-02
 -0.25398915D-02 -0.39693560D-02 -0.53077853D-02 -0.56674772D-02 -0.34649845D-02
  0.22859863D-02  0.50131986D-01 -0.17864210D-02 -0.62705607D-03  0.25538610D-02
  0.24763861D-02  0.16705554D-02 -0.36428735D-02 -0.35323619D-02 -0.23829104D-02
  0.75147238D-02  0.72867543D-02  0.49156014D-02 -0.15556628D-02 -0.39424121D-03
 -0.32732936D-03 -0.12352340D-02  0.96406373D-04 -0.88806219D-03 -0.56755080D-04
  0.21445412D-06 -0.38678762D-04  0.47885134D-03 -0.32879464D-03 -0.15005670D-03
  0.15856329D-02 -0.84806712D-03 -0.12914123D-02 -0.47445057D-03  0.46099962D-03
  0.13450950D-04  0.23145762D-03 -0.15244911D-02 -0.17189604D-03 -0.14645575D-03
  0.13317640D-03  0.13279347D-04 -0.72689573D-04 -0.26348988D-03  0.93564187D-04
  0.39998201D-03  0.29637517D-03 -0.35713291D-03 -0.24655594D-03 -0.69098181D-03
  0.38184717D-03 -0.95339009D-03 -0.19814370D-03  0.68955156D-03  0.30379412D-02
 -0.98478105D-04 -0.73976386D-04  0.15870246D-03  0.39158453D-03  0.16530565D-03
 -0.59110211D-03 -0.96150210D-04  0.56623505D-04  0.11499473D-03 -0.48472806D-03
 -0.39623492D-01 -0.73853091D-01 -0.12523037D+00 -0.18954200D+00 -0.23649308D+00
 -0.20311601D+00 -0.77980187D-01  0.34881016D-03  0.18864188D-03  0.35380251D-03
  0.60315572D-03  0.94261499D-03  0.12604559D-02  0.13458730D-02  0.82284035D-03
 -0.54286009D-03 -0.42890684D-02  0.22071580D-02  0.60225358D-03  0.11663427D-02
  0.11309601D-02  0.76293898D-03  0.31430305D-03  0.30476824D-03  0.20559485D-03
  0.14203413D-02  0.13772533D-02  0.92908694D-03 -0.10298474D-02  0.62735393D-04
 -0.78079603D-03 -0.13209484D-02 -0.41770056D-04 -0.85908521D-03 -0.69384191D-04
  0.10143535D-05 -0.32815380D-04 -0.20698308D-03  0.15641753D-03  0.50565556D-04
  0.67847593D-04 -0.13016832D-03 -0.31248523D-03  0.43242066D-03 -0.45717539D-03
  0.24754727D-04  0.28063354D-04  0.13014464D-02  0.52308409D-04  0.88527651D-04
 -0.10599631D-03  0.17468657D-04  0.71267237D-04  0.29786242D-03  0.37329257D-04
 -0.33123292D-05 -0.78319863D-04  0.20700207D-03  0.69706469D-03  0.47133275D-04
 -0.12288619D-02 -0.68712770D-03  0.18782631D-03  0.60785572D-03 -0.51646498D-05
 -0.41637459D-04  0.32215922D-04  0.26011744D-04  0.10288795D-03  0.15621629D-04
 -0.11183772D-03  0.22024431D-04 -0.11226939D-03  0.33802489D-04 -0.22397604D-04
  0.12237050D-03  0.22070024D-03  0.32542237D-03 -0.28777092D-03 -0.25963202D-03
 -0.19295068D-04 -0.66216874D-03 -0.55515675D-03  0.50209303D-03 -0.48483779D-03
 -0.42006232D-03  0.37750096D-03 -0.82234380D-04 -0.44931640D-04  0.31924617D-04
 -0.15438642D-03  0.33824675D-04  0.12056175D-03 -0.20405437D-02  0.20591181D-02
  0.17397634D-02 -0.25442527D-04  0.11544676D-04  0.13897851D-04 -0.67883127D-04
  0.45681990D-04  0.54212793D-04 -0.18447905D-04 -0.33271556D-04 -0.49058889D-04
  0.63503650D-04  0.19112465D-03  0.20581760D-04 -0.42841407D-05  0.22558294D-04
  0.10341841D-03  0.96776262D-04  0.58803726D-04  0.13997272D-03 -0.32506154D-04
  0.26219985D-04  0.26762970D-04 -0.68588094D-04  0.33604158D-04  0.34983936D-04
 -0.21219547D-03 -0.29124533D-03  0.21220842D-03  0.33655581D-05 -0.45427235D-05
  0.11771654D-05 -0.88790169D-05  0.13660167D-04 -0.93719109D-05
MO    3     MO 0.0        OCC NO =    2.0000000  ORB. ENERGY =   -1.101466
 -0.30735905D-02 -0.57287772D-02 -0.97141080D-02 -0.14702755D-01 -0.18344745D-01
 -0.15755690D-01 -0.60489156D-02  0.27057171D-04 -0.69944855D-01 -0.13118331D+00
 -0.22363878D+00 -0.34950389D+00 -0.46735329D+00 -0.49902436D+00 -0.30509371D+00
  0.20128230D+00  0.10557590D+00  0.48891327D-01  0.19306338D-02  0.14101044D+00
  0.13673269D+00  0.92239068D-01 -0.89950527D-01 -0.87221754D-01 -0.58839280D-01
  0.22541290D+00  0.21857469D+00  0.14744920D+00  0.39864617D-01 -0.23400611D-01
  0.60508915D-01  0.37700614D-03 -0.18030089D-02  0.21342584D-02 -0.23580293D-03
 -0.53030313D-04 -0.23091718D-04  0.14493740D-01 -0.15603980D-01  0.11102396D-02
  0.10356031D-01  0.27610941D-01 -0.19330031D-01  0.63843094D-02 -0.62005388D-02
 -0.18377057D-03  0.26349614D-02  0.12067086D-01 -0.49236820D-02  0.17574511D-04
  0.16715590D-03 -0.18473041D-03 -0.20053913D-03 -0.45643455D-03  0.61015120D-03
  0.30271429D-02  0.60645836D-03 -0.40982889D-02 -0.11347830D-01 -0.13511995D-02
  0.17993127D-01  0.22664013D-02 -0.46817559D-03 -0.56982600D-02  0.31788420D-02
 -0.26921599D-03  0.16364409D-03 -0.17078800D-03 -0.58722297D-03 -0.13203823D-02
  0.13026729D-02  0.13948709D-02  0.82945002D-03 -0.79030885D-03 -0.12635572D-03
 -0.30736383D-02 -0.57288663D-02 -0.97142591D-02 -0.14702984D-01 -0.18345031D-01
 -0.15755935D-01 -0.60490098D-02  0.27057592D-04 -0.69946196D-01 -0.13118582D+00
 -0.22364307D+00 -0.34951059D+00 -0.46736225D+00 -0.49903392D+00 -0.30509956D+00
  0.20128616D+00  0.10557824D+00  0.48891898D-01  0.19305774D-02 -0.14100539D+00
 -0.13672780D+00 -0.92235765D-01 -0.90019699D-01 -0.87288827D-01 -0.58884527D-01
 -0.22538728D+00 -0.21854984D+00 -0.14743243D+00 -0.39863638D-01 -0.23418878D-01
 -0.60502015D-01 -0.37678632D-03 -0.18036187D-02 -0.21335082D-02  0.23581626D-03
 -0.53025018D-04  0.23116865D-04  0.14493818D-01 -0.15598050D-01  0.11042318D-02
 -0.10348779D-01  0.27613262D-01  0.19339803D-01  0.63844955D-02 -0.61990979D-02
 -0.18539764D-03 -0.26315897D-02  0.12067992D-01  0.49269417D-02  0.17584316D-04
  0.16697888D-03 -0.18456320D-03  0.20041567D-03 -0.45652595D-03 -0.61038597D-03
 -0.30270702D-02  0.60804496D-03  0.40984764D-02  0.11348856D-01 -0.13565720D-02
 -0.17992941D-01 -0.22676450D-02 -0.46756287D-03  0.56975121D-02  0.31709051D-02
  0.26924421D-03  0.16388702D-03  0.17053996D-03  0.58716282D-03 -0.13208588D-02
 -0.13023083D-02 -0.13948954D-02  0.82919771D-03  0.79068846D-03 -0.12759228D-03
  0.14452272D-01  0.26065268D-01  0.38433223D-01  0.13053854D-01 -0.42747522D-02
 -0.60680120D-04  0.15857722D-01  0.10863186D-01 -0.87417548D-02  0.26344023D-02
 -0.91423536D-04  0.16400246D-02 -0.58275937D-03 -0.70341185D-03  0.69940277D-03
  0.24087679D-02 -0.68558643D-03 -0.17231814D-02  0.54239326D-02 -0.38130328D-02
 -0.19822823D-02  0.20687766D-03  0.59699860D-04 -0.26657752D-03 -0.34533694D-03
  0.31975388D-03  0.76538599D-03  0.14452641D-01  0.26065934D-01  0.38434204D-01
  0.13054286D-01 -0.42747901D-02 -0.60684013D-04 -0.15858334D-01  0.10866154D-01
  0.87385542D-02 -0.26346494D-02 -0.91888229D-04 -0.16400973D-02  0.58276041D-03
 -0.70362911D-03 -0.69919650D-03  0.24090331D-02 -0.68506410D-03 -0.17239690D-02
 -0.54255330D-02 -0.38115403D-02  0.19817356D-02  0.20688990D-03  0.59461405D-04
 -0.26635131D-03  0.34543421D-03  0.31967256D-03 -0.76559438D-03
MO    4     MO 0.0        OCC NO =    2.0000000  ORB. ENERGY =   -0.872928
 -0.18956792D-02 -0.35333022D-02 -0.59913098D-02 -0.90681264D-02 -0.11314374D-01
 -0.97175384D-02 -0.37307520D-02  0.16687882D-04 -0.72355661D-01 -0.13570484D+00
 -0.23134699D+00 -0.36155032D+00 -0.48346167D+00 -0.51622435D+00 -0.31560944D+00
  0.20821994D+00  0.11492965D+00  0.58952224D-01  0.10501823D-02 -0.30187542D+00
 -0.29271762D+00 -0.19746557D+00 -0.14647446D+00 -0.14203095D+00 -0.95813243D-01
  0.85756034D-01  0.83154506D-01  0.56095538D-01 -0.65861797D-01 -0.35905757D-01
  0.25416865D-01 -0.77626625D-02 -0.31158033D-02  0.25064231D-03 -0.51644732D-03
 -0.18290912D-03 -0.55503274D-04 -0.84172109D-02  0.62331342D-02  0.21840767D-02
  0.28205193D-01 -0.43469657D-01 -0.20953881D-01 -0.95031897D-03  0.19859783D-03
  0.75172114D-03  0.73639608D-02 -0.80842755D-02 -0.61621901D-02 -0.43017739D-03
  0.46456349D-03 -0.34386094D-04 -0.24785107D-03 -0.68262290D-03  0.20232520D-03
 -0.74021413D-03 -0.97205578D-04 -0.95218894D-04  0.17272966D-02 -0.20173117D-02
 -0.36436339D-03  0.49334580D-03  0.23089284D-02  0.65002007D-03  0.67446557D-02
  0.65776986D-04  0.99834042D-04 -0.16210209D-04  0.11636332D-04 -0.22749252D-03
 -0.23351784D-03 -0.20896729D-03 -0.72009610D-04  0.28214847D-03  0.81625275D-03
  0.18956660D-02  0.35332774D-02  0.59912678D-02  0.90680629D-02  0.11314295D-01
  0.97174704D-02  0.37307258D-02 -0.16687766D-04  0.72354603D-01  0.13570285D+00
  0.23134361D+00  0.36154503D+00  0.48345460D+00  0.51621680D+00  0.31560483D+00
 -0.20821690D+00 -0.11492838D+00 -0.58950983D-01 -0.10501656D-02 -0.30189390D+00
 -0.29273553D+00 -0.19747766D+00  0.14650398D+00  0.14205958D+00  0.95832553D-01
  0.85704518D-01  0.83104553D-01  0.56061841D-01 -0.65865921D-01  0.35913872D-01
  0.25403750D-01 -0.77628057D-02  0.31157976D-02  0.24939975D-03 -0.51645181D-03
  0.18289358D-03 -0.55560970D-04  0.84171642D-02 -0.62399417D-02 -0.21772224D-02
  0.28218739D-01  0.43462802D-01 -0.20951078D-01  0.95035049D-03 -0.20065836D-03
 -0.74969213D-03  0.73663777D-02  0.80824661D-02 -0.61621401D-02  0.43017681D-03
 -0.46450217D-03  0.34325350D-04 -0.24769655D-03  0.68266622D-03  0.20264160D-03
 -0.74039735D-03  0.97402811D-04 -0.94427676D-04  0.17256526D-02  0.20174925D-02
 -0.36541548D-03  0.49553944D-03 -0.23097009D-02  0.64869851D-03 -0.67448722D-02
  0.65766709D-04 -0.99734564D-04 -0.16217555D-04  0.11447167D-04  0.22739512D-03
 -0.23364769D-03 -0.20874729D-03  0.71808575D-04  0.28230035D-03 -0.81633732D-03
  0.22571980D-01  0.40709496D-01  0.60026128D-01  0.25402889D-01 -0.65004911D-02
 -0.37114141D-03  0.17579700D-01  0.16434044D-01 -0.17083569D-01 -0.29038286D-03
  0.11022466D-02 -0.13386603D-02 -0.11945615D-02 -0.88138552D-03  0.87061782D-03
  0.42809932D-03 -0.45998507D-03  0.31885750D-04  0.80440572D-02 -0.77366932D-02
 -0.79587890D-02 -0.28989036D-03  0.20397403D-03  0.85916333D-04 -0.82968416D-03
  0.60396814D-03  0.68524398D-03 -0.22572259D-01 -0.40709999D-01 -0.60026869D-01
 -0.25403625D-01  0.65004582D-02  0.37114174D-03  0.17580356D-01 -0.16439527D-01
 -0.17078696D-01 -0.29021917D-03 -0.11027667D-02 -0.13384647D-02 -0.11945705D-02
  0.88163947D-03  0.87033018D-03 -0.42835265D-03  0.45765557D-03 -0.29302922D-04
  0.80469592D-02  0.77345857D-02 -0.79592631D-02  0.28991578D-03 -0.20377217D-03
 -0.86143609D-04 -0.82989414D-03 -0.60371210D-03  0.68530975D-03
MO    5     MO 0.0        OCC NO =    2.0000000  ORB. ENERGY =   -0.511026
 -0.13455363D-02 -0.25079066D-02 -0.42525787D-02 -0.64364759D-02 -0.80308427D-02
 -0.68974228D-02 -0.26480547D-02  0.11844911D-04  0.15525513D-02  0.29118484D-02
  0.49640631D-02  0.77578644D-02  0.10373743D-01  0.11076739D-01  0.67721009D-02
 -0.44678209D-02 -0.45306576D-03  0.65332012D-02  0.50146881D-02 -0.98600048D+00
 -0.95608879D+00 -0.64497185D+00 -0.55614265D+00 -0.53927130D+00 -0.36378923D+00
 -0.14767392D+00 -0.14319403D+00 -0.96597847D-01 -0.22954615D+00 -0.12903669D+00
 -0.37996238D-01 -0.25680922D-01 -0.16264073D-01 -0.23151331D-02 -0.43814346D-03
 -0.39299736D-03  0.46359308D-03 -0.55529565D-02  0.18981196D-01 -0.13428240D-01
  0.23331297D-01 -0.78845232D-01 -0.36012279D-01 -0.46709024D-02  0.67081538D-02
 -0.20372514D-02  0.18944710D-02 -0.25363119D-01 -0.13274717D-01 -0.16286497D-02
  0.10469156D-02  0.58173415D-03 -0.10852056D-03 -0.18943638D-02 -0.63360462D-03
 -0.87348851D-03  0.46265408D-02  0.37444536D-03  0.47630119D-02 -0.15436040D-01
 -0.96217176D-02 -0.21425464D-02  0.15564174D-02  0.84983815D-02 -0.69836341D-02
  0.31065807D-03  0.90098955D-04  0.59140331D-03  0.25235337D-02  0.20947796D-02
 -0.41926837D-02 -0.34555079D-02 -0.23650765D-02  0.24184738D-02  0.70006289D-03
 -0.13456104D-02 -0.25080447D-02 -0.42528129D-02 -0.64368304D-02 -0.80312849D-02
 -0.68978027D-02 -0.26482006D-02  0.11845564D-04  0.15552128D-02  0.29168402D-02
  0.49725731D-02  0.77711638D-02  0.10391527D-01  0.11095728D-01  0.67837105D-02
 -0.44754801D-02 -0.45729044D-03  0.65291973D-02  0.50148347D-02  0.98602191D+00
  0.95610957D+00  0.64498587D+00 -0.55612147D+00 -0.53925076D+00 -0.36377537D+00
  0.14781658D+00  0.14333236D+00  0.96691163D-01  0.22955073D+00 -0.12903002D+00
  0.38029915D-01  0.25681255D-01 -0.16263729D-01  0.23195007D-02  0.43815427D-03
 -0.39315217D-03 -0.46349821D-03 -0.55521540D-02  0.18991195D-01 -0.13439041D-01
 -0.23356531D-01 -0.78837083D-01  0.35993779D-01 -0.46711376D-02  0.67121239D-02
 -0.20409863D-02 -0.19020426D-02 -0.25362383D-01  0.13269529D-01 -0.16287029D-02
  0.10471278D-02  0.58157510D-03  0.10803667D-03 -0.18943429D-02  0.63331947D-03
  0.87382944D-03  0.46241578D-02 -0.37510096D-03 -0.47650490D-02 -0.15433347D-01
  0.96264325D-02  0.21435607D-02  0.15608738D-02 -0.85011296D-02 -0.69802046D-02
 -0.31068016D-03  0.89362439D-04 -0.59070692D-03 -0.25233654D-02  0.20961132D-02
  0.41920987D-02  0.34554058D-02 -0.23642005D-02 -0.24199779D-02  0.70362071D-03
  0.27328728D-01  0.49288487D-01  0.72675845D-01  0.44807972D-01 -0.55145851D-02
 -0.16115334D-03  0.76268010D-02  0.11765500D-01 -0.21821128D-01 -0.56215603D-02
 -0.19635062D-03 -0.71022186D-02 -0.16187914D-02 -0.90500329D-03  0.66670450D-03
 -0.34552607D-02 -0.11841451D-02  0.46394059D-02  0.51808574D-02 -0.95842630D-02
 -0.13409261D-01 -0.85857336D-03  0.12393945D-03  0.73463390D-03 -0.17817229D-02
  0.10765359D-02  0.30296361D-03  0.27329802D-01  0.49290423D-01  0.72678700D-01
  0.44810546D-01 -0.55149252D-02 -0.16117475D-03 -0.76282725D-02  0.11772842D-01
  0.21818034D-01  0.56213933D-02 -0.19395882D-03  0.71026111D-02  0.16189145D-02
 -0.90525718D-03 -0.66642611D-03 -0.34550596D-02 -0.11801222D-02  0.46351818D-02
 -0.51846676D-02 -0.95836133D-02  0.13413157D-01 -0.85864705D-03  0.12387181D-03
  0.73477523D-03  0.17821481D-02  0.10759947D-02 -0.30258203D-03
MO    6     MO 0.0        OCC NO =    2.0000000  ORB. ENERGY =   -0.459120
 -0.70792782D-03 -0.13194864D-02 -0.22374117D-02 -0.33864268D-02 -0.42252719D-02
 -0.36289451D-02 -0.13932226D-02  0.62319701D-05  0.30030284D-01  0.56322543D-01
  0.96017588D-01  0.15005680D+00  0.20065453D+00  0.21425226D+00  0.13098963D+00
 -0.86419003D-01 -0.48511641D-01 -0.52612556D-01  0.69640810D-02 -0.49941721D+00
 -0.48426670D+00 -0.32668346D+00 -0.24527938D+00 -0.23783849D+00 -0.16044444D+00
  0.89262303D+00  0.86554408D+00  0.58389092D+00 -0.11454147D+00 -0.51033788D-01
  0.20135186D+00 -0.19835154D-01 -0.36283764D-02  0.23461706D-01 -0.22745979D-03
 -0.43331598D-03  0.83248420D-03 -0.20501057D-01 -0.10090167D-01  0.30591224D-01
  0.28109819D-01 -0.87701559D-02 -0.29110306D-01 -0.11838301D-01  0.11060770D-03
  0.11727693D-01  0.33097385D-02 -0.60649053D-03 -0.48896815D-02 -0.48907030D-03
  0.31002621D-03  0.17904409D-03  0.12705079D-02 -0.66568923D-03  0.17319858D-03
 -0.83716416D-02  0.19718892D-02  0.29718315D-02  0.52580234D-02  0.30251611D-02
 -0.57488499D-03  0.19856901D-01 -0.89408288D-02 -0.83406094D-02  0.77997834D-02
 -0.26776028D-03 -0.42746420D-04  0.42590715D-03  0.63791791D-03  0.63954506D-03
 -0.14358028D-02  0.16536294D-03 -0.51130581D-03  0.15808140D-03  0.42923597D-03
  0.70792703D-03  0.13194849D-02  0.22374092D-02  0.33864230D-02  0.42252672D-02
  0.36289410D-02  0.13932210D-02 -0.62319631D-05 -0.30029932D-01 -0.56321882D-01
 -0.96016462D-01 -0.15005504D+00 -0.20065218D+00 -0.21424975D+00 -0.13098809D+00
  0.86417989D-01  0.48511147D-01  0.52612877D-01 -0.69638356D-02 -0.49939111D+00
 -0.48424139D+00 -0.32666638D+00  0.24551439D+00  0.23806638D+00  0.16059817D+00
  0.89256652D+00  0.86548928D+00  0.58385396D+00 -0.11453488D+00  0.51086320D-01
  0.20134044D+00 -0.19834316D-01  0.36342861D-02  0.23461142D-01 -0.22743786D-03
  0.43353857D-03  0.83232819D-03  0.20500219D-01  0.10082566D-01 -0.30582785D-01
  0.28112550D-01  0.87595124D-02 -0.29132355D-01  0.11838053D-01 -0.11176419D-03
 -0.11726289D-01  0.33100001D-02  0.60459148D-03 -0.48958432D-02  0.48904952D-03
 -0.30992966D-03 -0.17911987D-03  0.12706517D-02  0.66512349D-03  0.17332608D-03
 -0.83717021D-02 -0.19740938D-02  0.29691271D-02  0.52558616D-02 -0.30260946D-02
 -0.57341904D-03  0.19859245D-01  0.89483760D-02 -0.83339623D-02 -0.77920567D-02
 -0.26777845D-03  0.42816605D-04  0.42572872D-03  0.63765498D-03 -0.63986939D-03
 -0.14354211D-02  0.16568037D-03  0.51141958D-03  0.15823496D-03 -0.42945505D-03
  0.22912965D-01  0.41324476D-01  0.60932915D-01  0.49365398D-01 -0.78841856D-02
 -0.40405808D-03  0.13993393D-01  0.13708715D-01 -0.47336478D-02  0.44310393D-02
  0.49356307D-02  0.36480107D-03 -0.16954986D-02 -0.14321086D-02  0.14271471D-02
  0.10388327D-02 -0.10749535D-03 -0.93133732D-03  0.11358919D-01 -0.59410426D-02
 -0.96328167D-02 -0.38948991D-03  0.41480727D-03 -0.25317361D-04 -0.46195972D-03
  0.18266909D-03  0.56380921D-03 -0.22911859D-01 -0.41322482D-01 -0.60929975D-01
 -0.49363653D-01  0.78839550D-02  0.40404925D-03  0.13993502D-01 -0.13710145D-01
 -0.47285067D-02  0.44313579D-02 -0.49356645D-02  0.36670745D-03 -0.16954685D-02
  0.14324775D-02  0.14266372D-02 -0.10392010D-02  0.10447195D-03  0.93472905D-03
  0.11360944D-01  0.59373888D-02 -0.96316416D-02  0.38947177D-03 -0.41463672D-03
  0.25164950D-04 -0.46197618D-03 -0.18252971D-03  0.56405722D-03
MO    7     MO 0.0        OCC NO =    2.0000000  ORB. ENERGY =   -0.392776
  0.14242076D-03  0.26545397D-03  0.45012199D-03  0.68128059D-03  0.85003926D-03
  0.73007036D-03  0.28028821D-03 -0.12537464D-05 -0.21278523D-01 -0.39908398D-01
 -0.68035070D-01 -0.10632557D+00 -0.14217755D+00 -0.15181247D+00 -0.92815170D-01
  0.61233812D-01  0.35648490D-01  0.46929563D-01 -0.17073813D-03 -0.55882184D+00
 -0.54186921D+00 -0.36554177D+00  0.89075943D+00  0.86373701D+00  0.58267189D+00
 -0.56477443D+00 -0.54764122D+00 -0.36943553D+00 -0.13751000D+00  0.20432961D+00
 -0.12744370D+00 -0.23797547D-01  0.27386025D-01 -0.13011610D-01 -0.34336875D-03
  0.62701739D-03 -0.59229724D-03  0.49652221D-02 -0.53495489D-02  0.38432674D-03
  0.31051583D-01 -0.23236851D-01  0.58157133D-01  0.95018372D-03 -0.12711278D-03
 -0.82307094D-03  0.18006947D-01 -0.12856795D-01  0.12667889D-01 -0.14912614D-02
  0.52038100D-03  0.97088042D-03  0.10542349D-02 -0.28729062D-02 -0.30272503D-03
 -0.41867943D-02 -0.64816870D-02  0.19810959D-02  0.14145287D-01  0.10329953D-01
 -0.85903246D-03 -0.15849041D-02  0.91151080D-02 -0.50842553D-02  0.26818442D-01
  0.36611412D-03 -0.21672583D-03  0.27272786D-03  0.46678544D-03  0.70962387D-03
 -0.19932303D-02 -0.15651278D-02 -0.59446373D-04  0.11750468D-02  0.26908204D-02
  0.14245916D-03  0.26552554D-03  0.45024334D-03  0.68146427D-03  0.85026844D-03
  0.73026719D-03  0.28036378D-03 -0.12540844D-05 -0.21278338D-01 -0.39908050D-01
 -0.68034477D-01 -0.10632464D+00 -0.14217631D+00 -0.15181115D+00 -0.92814360D-01
  0.61233278D-01  0.35648196D-01  0.46929533D-01 -0.17095620D-03  0.55882577D+00
  0.54187301D+00  0.36554433D+00  0.89094767D+00  0.86391954D+00  0.58279502D+00
  0.56452436D+00  0.54739873D+00  0.36927195D+00  0.13751117D+00  0.20437187D+00
  0.12738632D+00  0.23797961D-01  0.27390441D-01  0.13003946D-01  0.34339419D-03
  0.62721508D-03  0.59212261D-03  0.49658270D-02 -0.53672826D-02  0.40145557D-03
 -0.31057487D-01 -0.23227123D-01 -0.58154246D-01  0.95035810D-03 -0.13092784D-03
 -0.81943026D-03 -0.18010675D-01 -0.12851445D-01 -0.12668316D-01 -0.14912674D-02
  0.52047394D-03  0.97079350D-03 -0.10551176D-02 -0.28726702D-02  0.30304421D-03
  0.41870659D-02 -0.64800952D-02 -0.19837788D-02 -0.14137964D-01  0.10329964D-01
  0.85606133D-03  0.15767668D-02  0.91103219D-02  0.50952752D-02  0.26827336D-01
 -0.36615126D-03 -0.21707372D-03 -0.27271553D-03 -0.46593630D-03  0.71025829D-03
  0.19930823D-02  0.15643901D-02 -0.59037129D-04 -0.11749357D-02  0.26920615D-02
 -0.86608552D-02 -0.15620209D-01 -0.23031989D-01 -0.31668433D-01  0.64931987D-03
  0.14728414D-03 -0.17860505D-01  0.42363356D-02 -0.22206904D-03 -0.11553649D-01
  0.66507726D-03  0.12180985D-02 -0.63394446D-05  0.15266976D-03 -0.75461796D-04
 -0.53715881D-02  0.34738118D-02  0.18977763D-02 -0.63919496D-02  0.73451969D-02
  0.10221829D-02 -0.43761246D-03 -0.74151796D-06  0.43835398D-03 -0.31740238D-03
  0.10726894D-02 -0.66353625D-03 -0.86608736D-02 -0.15620242D-01 -0.23032038D-01
 -0.31669020D-01  0.64929423D-03  0.14727417D-03  0.17860937D-01  0.42365710D-02
  0.22108755D-03  0.11554115D-01  0.66479176D-03 -0.12179111D-02  0.63407850D-05
  0.15269237D-03  0.75432279D-04 -0.53719610D-02  0.34736336D-02  0.18983275D-02
  0.63943955D-02  0.73431362D-02 -0.10228487D-02 -0.43763009D-03 -0.53775925D-06
  0.43816785D-03  0.31770338D-03  0.10725602D-02  0.66383727D-03
MO    8     MO 0.0        OCC NO =    2.0000000  ORB. ENERGY =   -0.282994
  0.31414579D-03  0.58552733D-03  0.99286034D-03  0.15027404D-02  0.18749812D-02
  0.16103588D-02  0.61824806D-03 -0.27654615D-05 -0.13816321D-01 -0.25912853D-01
 -0.44175734D-01 -0.69038074D-01 -0.92317059D-01 -0.98573096D-01 -0.60265658D-01
  0.39759621D-01  0.23342994D-01  0.22818518D-01  0.11624637D-02  0.35508435D+00
  0.34431237D+00  0.23227109D+00 -0.52481766D+00 -0.50889659D+00 -0.34329863D+00
 -0.11104577D+01 -0.10767704D+01 -0.72638295D+00  0.79378106D-01 -0.12603063D+00
 -0.25710662D+00  0.16654636D-01 -0.21164547D-01 -0.46862025D-01  0.48844629D-03
 -0.41464829D-03 -0.14061779D-02 -0.11655235D-01  0.24297885D-01 -0.12642650D-01
 -0.30075160D-01  0.36856911D-01 -0.18705404D-02 -0.25266321D-02  0.52677374D-02
 -0.27411053D-02 -0.11177408D-01  0.81666414D-02 -0.17507355D-02  0.10607501D-02