 Molden2AIM, Version 4.0.0 (06/02/2016)           Time: Thu Jun 28 17:00:28 2018
GAUSSIAN             50 MOL ORBITALS    786 PRIMITIVES        6 NUCLEI
  P    1    (CENTRE  1)  -0.00007370  0.00000000  0.00000000  CHARGE = 15.0
  Cl   2    (CENTRE  2)  -1.94390835  3.36688724  0.00000000  CHARGE = 17.0
  Cl   3    (CENTRE  3)  -1.94390835 -3.36688724  0.00000000  CHARGE = 17.0
  Cl   4    (CENTRE  4)   3.88767686  0.00000000  0.00000000  CHARGE = 17.0
  Cl   5    (CENTRE  5)   0.00010582  0.00000000  4.07371095  CHARGE = 17.0
  Cl   6    (CENTRE  6)   0.00010582  0.00000000 -4.07371095  CHARGE = 17.0
CENTRE ASSIGNMENTS    1  1  1  1  1  1  1  1  1  1  1  1  1  1  1  1  1  1  1  1
CENTRE ASSIGNMENTS    1  1  1  1  1  1  1  1  1  1  1  1  1  1  1  1  1  1  1  1
CENTRE ASSIGNMENTS    1  1  1  1  1  1  1  1  1  1  1  1  1  1  1  1  1  1  1  1
CENTRE ASSIGNMENTS    1  1  1  1  1  1  1  1  1  1  1  1  1  1  1  1  1  1  1  1
CENTRE ASSIGNMENTS    1  1  1  1  1  1  1  1  1  1  1  1  1  1  1  1  1  1  1  1
CENTRE ASSIGNMENTS    1  1  1  1  1  1  1  1  1  1  1  1  1  1  1  1  1  1  1  1
CENTRE ASSIGNMENTS    1  1  1  1  1  1  1  1  1  1  1  2  2  2  2  2  2  2  2  2
CENTRE ASSIGNMENTS    2  2  2  2  2  2  2  2  2  2  2  2  2  2  2  2  2  2  2  2
CENTRE ASSIGNMENTS    2  2  2  2  2  2  2  2  2  2  2  2  2  2  2  2  2  2  2  2
CENTRE ASSIGNMENTS    2  2  2  2  2  2  2  2  2  2  2  2  2  2  2  2  2  2  2  2
CENTRE ASSIGNMENTS    2  2  2  2  2  2  2  2  2  2  2  2  2  2  2  2  2  2  2  2
CENTRE ASSIGNMENTS    2  2  2  2  2  2  2  2  2  2  2  2  2  2  2  2  2  2  2  2
CENTRE ASSIGNMENTS    2  2  2  2  2  2  2  2  2  2  2  2  2  2  2  2  2  2  2  2
CENTRE ASSIGNMENTS    2  2  3  3  3  3  3  3  3  3  3  3  3  3  3  3  3  3  3  3
CENTRE ASSIGNMENTS    3  3  3  3  3  3  3  3  3  3  3  3  3  3  3  3  3  3  3  3
CENTRE ASSIGNMENTS    3  3  3  3  3  3  3  3  3  3  3  3  3  3  3  3  3  3  3  3
CENTRE ASSIGNMENTS    3  3  3  3  3  3  3  3  3  3  3  3  3  3  3  3  3  3  3  3
CENTRE ASSIGNMENTS    3  3  3  3  3  3  3  3  3  3  3  3  3  3  3  3  3  3  3  3
CENTRE ASSIGNMENTS    3  3  3  3  3  3  3  3  3  3  3  3  3  3  3  3  3  3  3  3
CENTRE ASSIGNMENTS    3  3  3  3  3  3  3  3  3  3  3  3  3  4  4  4  4  4  4  4
CENTRE ASSIGNMENTS    4  4  4  4  4  4  4  4  4  4  4  4  4  4  4  4  4  4  4  4
CENTRE ASSIGNMENTS    4  4  4  4  4  4  4  4  4  4  4  4  4  4  4  4  4  4  4  4
CENTRE ASSIGNMENTS    4  4  4  4  4  4  4  4  4  4  4  4  4  4  4  4  4  4  4  4
CENTRE ASSIGNMENTS    4  4  4  4  4  4  4  4  4  4  4  4  4  4  4  4  4  4  4  4
CENTRE ASSIGNMENTS    4  4  4  4  4  4  4  4  4  4  4  4  4  4  4  4  4  4  4  4
CENTRE ASSIGNMENTS    4  4  4  4  4  4  4  4  4  4  4  4  4  4  4  4  4  4  4  4
CENTRE ASSIGNMENTS    4  4  4  4  5  5  5  5  5  5  5  5  5  5  5  5  5  5  5  5
CENTRE ASSIGNMENTS    5  5  5  5  5  5  5  5  5  5  5  5  5  5  5  5  5  5  5  5
CENTRE ASSIGNMENTS    5  5  5  5  5  5  5  5  5  5  5  5  5  5  5  5  5  5  5  5
CENTRE ASSIGNMENTS    5  5  5  5  5  5  5  5  5  5  5  5  5  5  5  5  5  5  5  5
CENTRE ASSIGNMENTS    5  5  5  5  5  5  5  5  5  5  5  5  5  5  5  5  5  5  5  5
CENTRE ASSIGNMENTS    5  5  5  5  5  5  5  5  5  5  5  5  5  5  5  5  5  5  5  5
CENTRE ASSIGNMENTS    5  5  5  5  5  5  5  5  5  5  5  5  5  5  5  6  6  6  6  6
CENTRE ASSIGNMENTS    6  6  6  6  6  6  6  6  6  6  6  6  6  6  6  6  6  6  6  6
CENTRE ASSIGNMENTS    6  6  6  6  6  6  6  6  6  6  6  6  6  6  6  6  6  6  6  6
CENTRE ASSIGNMENTS    6  6  6  6  6  6  6  6  6  6  6  6  6  6  6  6  6  6  6  6
CENTRE ASSIGNMENTS    6  6  6  6  6  6  6  6  6  6  6  6  6  6  6  6  6  6  6  6
CENTRE ASSIGNMENTS    6  6  6  6  6  6  6  6  6  6  6  6  6  6  6  6  6  6  6  6
CENTRE ASSIGNMENTS    6  6  6  6  6  6  6  6  6  6  6  6  6  6  6  6  6  6  6  6
CENTRE ASSIGNMENTS    6  6  6  6  6  6
TYPE ASSIGNMENTS      1  1  1  1  1  1  1  1  1  1  1  1  1  1  1  1  1  1  1  1
TYPE ASSIGNMENTS      1  1  1  1  1  1  1  1  1  1  1  1  1  1  1  1  1  1  1  1
TYPE ASSIGNMENTS      1  1  2  2  2  2  2  2  2  3  3  3  3  3  3  3  4  4  4  4
TYPE ASSIGNMENTS      4  4  4  2  2  2  2  2  2  2  3  3  3  3  3  3  3  4  4  4
TYPE ASSIGNMENTS      4  4  4  4  2  3  4  2  3  4  2  3  4  5  6  7  8  9 10  5
TYPE ASSIGNMENTS      6  7  8  9 10  5  6  7  8  9 10 11 12 13 17 14 15 18 19 16
TYPE ASSIGNMENTS     20 11 12 13 17 14 15 18 19 16 20  1  1  1  1  1  1  1  1  1
TYPE ASSIGNMENTS      1  1  1  1  1  1  1  1  1  1  1  1  1  1  1  1  1  1  1  1
TYPE ASSIGNMENTS      1  1  1  1  1  1  1  1  1  1  1  1  1  2  2  2  2  2  2  2
TYPE ASSIGNMENTS      3  3  3  3  3  3  3  4  4  4  4  4  4  4  2  2  2  2  2  2
TYPE ASSIGNMENTS      2  3  3  3  3  3  3  3  4  4  4  4  4  4  4  2  3  4  2  3
TYPE ASSIGNMENTS      4  2  3  4  5  6  7  8  9 10  5  6  7  8  9 10  5  6  7  8
TYPE ASSIGNMENTS      9 10 11 12 13 17 14 15 18 19 16 20 11 12 13 17 14 15 18 19
TYPE ASSIGNMENTS     16 20  1  1  1  1  1  1  1  1  1  1  1  1  1  1  1  1  1  1
TYPE ASSIGNMENTS      1  1  1  1  1  1  1  1  1  1  1  1  1  1  1  1  1  1  1  1
TYPE ASSIGNMENTS      1  1  1  1  2  2  2  2  2  2  2  3  3  3  3  3  3  3  4  4
TYPE ASSIGNMENTS      4  4  4  4  4  2  2  2  2  2  2  2  3  3  3  3  3  3  3  4
TYPE ASSIGNMENTS      4  4  4  4  4  4  2  3  4  2  3  4  2  3  4  5  6  7  8  9
TYPE ASSIGNMENTS     10  5  6  7  8  9 10  5  6  7  8  9 10 11 12 13 17 14 15 18
TYPE ASSIGNMENTS     19 16 20 11 12 13 17 14 15 18 19 16 20  1  1  1  1  1  1  1
TYPE ASSIGNMENTS      1  1  1  1  1  1  1  1  1  1  1  1  1  1  1  1  1  1  1  1
TYPE ASSIGNMENTS      1  1  1  1  1  1  1  1  1  1  1  1  1  1  1  2  2  2  2  2
TYPE ASSIGNMENTS      2  2  3  3  3  3  3  3  3  4  4  4  4  4  4  4  2  2  2  2
TYPE ASSIGNMENTS      2  2  2  3  3  3  3  3  3  3  4  4  4  4  4  4  4  2  3  4
TYPE ASSIGNMENTS      2  3  4  2  3  4  5  6  7  8  9 10  5  6  7  8  9 10  5  6
TYPE ASSIGNMENTS      7  8  9 10 11 12 13 17 14 15 18 19 16 20 11 12 13 17 14 15
TYPE ASSIGNMENTS     18 19 16 20  1  1  1  1  1  1  1  1  1  1  1  1  1  1  1  1
TYPE ASSIGNMENTS      1  1  1  1  1  1  1  1  1  1  1  1  1  1  1  1  1  1  1  1
TYPE ASSIGNMENTS      1  1  1  1  1  1  2  2  2  2  2  2  2  3  3  3  3  3  3  3
TYPE ASSIGNMENTS      4  4  4  4  4  4  4  2  2  2  2  2  2  2  3  3  3  3  3  3
TYPE ASSIGNMENTS      3  4  4  4  4  4  4  4  2  3  4  2  3  4  2  3  4  5  6  7
TYPE ASSIGNMENTS      8  9 10  5  6  7  8  9 10  5  6  7  8  9 10 11 12 13 17 14
TYPE ASSIGNMENTS     15 18 19 16 20 11 12 13 17 14 15 18 19 16 20  1  1  1  1  1
TYPE ASSIGNMENTS      1  1  1  1  1  1  1  1  1  1  1  1  1  1  1  1  1  1  1  1
TYPE ASSIGNMENTS      1  1  1  1  1  1  1  1  1  1  1  1  1  1  1  1  1  2  2  2
TYPE ASSIGNMENTS      2  2  2  2  3  3  3  3  3  3  3  4  4  4  4  4  4  4  2  2
TYPE ASSIGNMENTS      2  2  2  2  2  3  3  3  3  3  3  3  4  4  4  4  4  4  4  2
TYPE ASSIGNMENTS      3  4  2  3  4  2  3  4  5  6  7  8  9 10  5  6  7  8  9 10
TYPE ASSIGNMENTS      5  6  7  8  9 10 11 12 13 17 14 15 18 19 16 20 11 12 13 17
TYPE ASSIGNMENTS     14 15 18 19 16 20
EXPONENTS  0.3124000D+06 0.4680000D+05 0.1065000D+05 0.3018000D+04 0.9868000D+03
EXPONENTS  0.3574000D+03 0.1396000D+03 0.5763000D+02 0.2460000D+02 0.1012000D+02
EXPONENTS  0.4283000D+01 0.1805000D+01 0.2782000D+00 0.3124000D+06 0.4680000D+05
EXPONENTS  0.1065000D+05 0.3018000D+04 0.9868000D+03 0.3574000D+03 0.1396000D+03
EXPONENTS  0.5763000D+02 0.2460000D+02 0.1012000D+02 0.4283000D+01 0.1805000D+01
EXPONENTS  0.2782000D+00 0.3124000D+06 0.4680000D+05 0.1065000D+05 0.3018000D+04
EXPONENTS  0.9868000D+03 0.3574000D+03 0.1396000D+03 0.5763000D+02 0.2460000D+02
EXPONENTS  0.1012000D+02 0.4283000D+01 0.1805000D+01 0.2782000D+00 0.6158000D+00
EXPONENTS  0.1055000D+00 0.4090000D-01 0.5049000D+03 0.1194000D+03 0.3796000D+02
EXPONENTS  0.1395000D+02 0.5457000D+01 0.2177000D+01 0.2877000D+00 0.5049000D+03
EXPONENTS  0.1194000D+03 0.3796000D+02 0.1395000D+02 0.5457000D+01 0.2177000D+01
EXPONENTS  0.2877000D+00 0.5049000D+03 0.1194000D+03 0.3796000D+02 0.1395000D+02
EXPONENTS  0.5457000D+01 0.2177000D+01 0.2877000D+00 0.5049000D+03 0.1194000D+03
EXPONENTS  0.3796000D+02 0.1395000D+02 0.5457000D+01 0.2177000D+01 0.2877000D+00
EXPONENTS  0.5049000D+03 0.1194000D+03 0.3796000D+02 0.1395000D+02 0.5457000D+01
EXPONENTS  0.2177000D+01 0.2877000D+00 0.5049000D+03 0.1194000D+03 0.3796000D+02
EXPONENTS  0.1395000D+02 0.5457000D+01 0.2177000D+01 0.2877000D+00 0.8010000D+00
EXPONENTS  0.8010000D+00 0.8010000D+00 0.9714000D-01 0.9714000D-01 0.9714000D-01
EXPONENTS  0.3070000D-01 0.3070000D-01 0.3070000D-01 0.2160000D+00 0.2160000D+00
EXPONENTS  0.2160000D+00 0.2160000D+00 0.2160000D+00 0.2160000D+00 0.6520000D+00
EXPONENTS  0.6520000D+00 0.6520000D+00 0.6520000D+00 0.6520000D+00 0.6520000D+00
EXPONENTS  0.7750000D-01 0.7750000D-01 0.7750000D-01 0.7750000D-01 0.7750000D-01
EXPONENTS  0.7750000D-01 0.4520000D+00 0.4520000D+00 0.4520000D+00 0.4520000D+00
EXPONENTS  0.4520000D+00 0.4520000D+00 0.4520000D+00 0.4520000D+00 0.4520000D+00
EXPONENTS  0.4520000D+00 0.1650000D+00 0.1650000D+00 0.1650000D+00 0.1650000D+00
EXPONENTS  0.1650000D+00 0.1650000D+00 0.1650000D+00 0.1650000D+00 0.1650000D+00
EXPONENTS  0.1650000D+00 0.4561000D+06 0.6833000D+05 0.1555000D+05 0.4405000D+04
EXPONENTS  0.1439000D+04 0.5204000D+03 0.2031000D+03 0.8396000D+02 0.3620000D+02
EXPONENTS  0.1583000D+02 0.6334000D+01 0.2694000D+01 0.4313000D+00 0.4561000D+06
EXPONENTS  0.6833000D+05 0.1555000D+05 0.4405000D+04 0.1439000D+04 0.5204000D+03
EXPONENTS  0.2031000D+03 0.8396000D+02 0.3620000D+02 0.1583000D+02 0.6334000D+01
EXPONENTS  0.2694000D+01 0.4313000D+00 0.4561000D+06 0.6833000D+05 0.1555000D+05
EXPONENTS  0.4405000D+04 0.1439000D+04 0.5204000D+03 0.2031000D+03 0.8396000D+02
EXPONENTS  0.3620000D+02 0.1583000D+02 0.6334000D+01 0.2694000D+01 0.4313000D+00
EXPONENTS  0.9768000D+00 0.1625000D+00 0.5910000D-01 0.6633000D+03 0.1568000D+03
EXPONENTS  0.4998000D+02 0.1842000D+02 0.7240000D+01 0.2922000D+01 0.3818000D+00
EXPONENTS  0.6633000D+03 0.1568000D+03 0.4998000D+02 0.1842000D+02 0.7240000D+01
EXPONENTS  0.2922000D+01 0.3818000D+00 0.6633000D+03 0.1568000D+03 0.4998000D+02
EXPONENTS  0.1842000D+02 0.7240000D+01 0.2922000D+01 0.3818000D+00 0.6633000D+03
EXPONENTS  0.1568000D+03 0.4998000D+02 0.1842000D+02 0.7240000D+01 0.2922000D+01
EXPONENTS  0.3818000D+00 0.6633000D+03 0.1568000D+03 0.4998000D+02 0.1842000D+02
EXPONENTS  0.7240000D+01 0.2922000D+01 0.3818000D+00 0.6633000D+03 0.1568000D+03
EXPONENTS  0.4998000D+02 0.1842000D+02 0.7240000D+01 0.2922000D+01 0.3818000D+00
EXPONENTS  0.1022000D+01 0.1022000D+01 0.1022000D+01 0.1301000D+00 0.1301000D+00
EXPONENTS  0.1301000D+00 0.4190000D-01 0.4190000D-01 0.4190000D-01 0.1046000D+01
EXPONENTS  0.1046000D+01 0.1046000D+01 0.1046000D+01 0.1046000D+01 0.1046000D+01
EXPONENTS  0.3440000D+00 0.3440000D+00 0.3440000D+00 0.3440000D+00 0.3440000D+00
EXPONENTS  0.3440000D+00 0.1350000D+00 0.1350000D+00 0.1350000D+00 0.1350000D+00
EXPONENTS  0.1350000D+00 0.1350000D+00 0.7060000D+00 0.7060000D+00 0.7060000D+00
EXPONENTS  0.7060000D+00 0.7060000D+00 0.7060000D+00 0.7060000D+00 0.7060000D+00
EXPONENTS  0.7060000D+00 0.7060000D+00 0.3120000D+00 0.3120000D+00 0.3120000D+00
EXPONENTS  0.3120000D+00 0.3120000D+00 0.3120000D+00 0.3120000D+00 0.3120000D+00
EXPONENTS  0.3120000D+00 0.3120000D+00 0.4561000D+06 0.6833000D+05 0.1555000D+05
EXPONENTS  0.4405000D+04 0.1439000D+04 0.5204000D+03 0.2031000D+03 0.8396000D+02
EXPONENTS  0.3620000D+02 0.1583000D+02 0.6334000D+01 0.2694000D+01 0.4313000D+00
EXPONENTS  0.4561000D+06 0.6833000D+05 0.1555000D+05 0.4405000D+04 0.1439000D+04
EXPONENTS  0.5204000D+03 0.2031000D+03 0.8396000D+02 0.3620000D+02 0.1583000D+02
EXPONENTS  0.6334000D+01 0.2694000D+01 0.4313000D+00 0.4561000D+06 0.6833000D+05
EXPONENTS  0.1555000D+05 0.4405000D+04 0.1439000D+04 0.5204000D+03 0.2031000D+03
EXPONENTS  0.8396000D+02 0.3620000D+02 0.1583000D+02 0.6334000D+01 0.2694000D+01
EXPONENTS  0.4313000D+00 0.9768000D+00 0.1625000D+00 0.5910000D-01 0.6633000D+03
EXPONENTS  0.1568000D+03 0.4998000D+02 0.1842000D+02 0.7240000D+01 0.2922000D+01
EXPONENTS  0.3818000D+00 0.6633000D+03 0.1568000D+03 0.4998000D+02 0.1842000D+02
EXPONENTS  0.7240000D+01 0.2922000D+01 0.3818000D+00 0.6633000D+03 0.1568000D+03
EXPONENTS  0.4998000D+02 0.1842000D+02 0.7240000D+01 0.2922000D+01 0.3818000D+00
EXPONENTS  0.6633000D+03 0.1568000D+03 0.4998000D+02 0.1842000D+02 0.7240000D+01
EXPONENTS  0.2922000D+01 0.3818000D+00 0.6633000D+03 0.1568000D+03 0.4998000D+02
EXPONENTS  0.1842000D+02 0.7240000D+01 0.2922000D+01 0.3818000D+00 0.6633000D+03
EXPONENTS  0.1568000D+03 0.4998000D+02 0.1842000D+02 0.7240000D+01 0.2922000D+01
EXPONENTS  0.3818000D+00 0.1022000D+01 0.1022000D+01 0.1022000D+01 0.1301000D+00
EXPONENTS  0.1301000D+00 0.1301000D+00 0.4190000D-01 0.4190000D-01 0.4190000D-01
EXPONENTS  0.1046000D+01 0.1046000D+01 0.1046000D+01 0.1046000D+01 0.1046000D+01
EXPONENTS  0.1046000D+01 0.3440000D+00 0.3440000D+00 0.3440000D+00 0.3440000D+00
EXPONENTS  0.3440000D+00 0.3440000D+00 0.1350000D+00 0.1350000D+00 0.1350000D+00
EXPONENTS  0.1350000D+00 0.1350000D+00 0.1350000D+00 0.7060000D+00 0.7060000D+00
EXPONENTS  0.7060000D+00 0.7060000D+00 0.7060000D+00 0.7060000D+00 0.7060000D+00
EXPONENTS  0.7060000D+00 0.7060000D+00 0.7060000D+00 0.3120000D+00 0.3120000D+00
EXPONENTS  0.3120000D+00 0.3120000D+00 0.3120000D+00 0.3120000D+00 0.3120000D+00
EXPONENTS  0.3120000D+00 0.3120000D+00 0.3120000D+00 0.4561000D+06 0.6833000D+05
EXPONENTS  0.1555000D+05 0.4405000D+04 0.1439000D+04 0.5204000D+03 0.2031000D+03
EXPONENTS  0.8396000D+02 0.3620000D+02 0.1583000D+02 0.6334000D+01 0.2694000D+01
EXPONENTS  0.4313000D+00 0.4561000D+06 0.6833000D+05 0.1555000D+05 0.4405000D+04
EXPONENTS  0.1439000D+04 0.5204000D+03 0.2031000D+03 0.8396000D+02 0.3620000D+02
EXPONENTS  0.1583000D+02 0.6334000D+01 0.2694000D+01 0.4313000D+00 0.4561000D+06
EXPONENTS  0.6833000D+05 0.1555000D+05 0.4405000D+04 0.1439000D+04 0.5204000D+03
EXPONENTS  0.2031000D+03 0.8396000D+02 0.3620000D+02 0.1583000D+02 0.6334000D+01
EXPONENTS  0.2694000D+01 0.4313000D+00 0.9768000D+00 0.1625000D+00 0.5910000D-01
EXPONENTS  0.6633000D+03 0.1568000D+03 0.4998000D+02 0.1842000D+02 0.7240000D+01
EXPONENTS  0.2922000D+01 0.3818000D+00 0.6633000D+03 0.1568000D+03 0.4998000D+02
EXPONENTS  0.1842000D+02 0.7240000D+01 0.2922000D+01 0.3818000D+00 0.6633000D+03
EXPONENTS  0.1568000D+03 0.4998000D+02 0.1842000D+02 0.7240000D+01 0.2922000D+01
EXPONENTS  0.3818000D+00 0.6633000D+03 0.1568000D+03 0.4998000D+02 0.1842000D+02
EXPONENTS  0.7240000D+01 0.2922000D+01 0.3818000D+00 0.6633000D+03 0.1568000D+03
EXPONENTS  0.4998000D+02 0.1842000D+02 0.7240000D+01 0.2922000D+01 0.3818000D+00
EXPONENTS  0.6633000D+03 0.1568000D+03 0.4998000D+02 0.1842000D+02 0.7240000D+01
EXPONENTS  0.2922000D+01 0.3818000D+00 0.1022000D+01 0.1022000D+01 0.1022000D+01
EXPONENTS  0.1301000D+00 0.1301000D+00 0.1301000D+00 0.4190000D-01 0.4190000D-01
EXPONENTS  0.4190000D-01 0.1046000D+01 0.1046000D+01 0.1046000D+01 0.1046000D+01
EXPONENTS  0.1046000D+01 0.1046000D+01 0.3440000D+00 0.3440000D+00 0.3440000D+00
EXPONENTS  0.3440000D+00 0.3440000D+00 0.3440000D+00 0.1350000D+00 0.1350000D+00
EXPONENTS  0.1350000D+00 0.1350000D+00 0.1350000D+00 0.1350000D+00 0.7060000D+00
EXPONENTS  0.7060000D+00 0.7060000D+00 0.7060000D+00 0.7060000D+00 0.7060000D+00
EXPONENTS  0.7060000D+00 0.7060000D+00 0.7060000D+00 0.7060000D+00 0.3120000D+00
EXPONENTS  0.3120000D+00 0.3120000D+00 0.3120000D+00 0.3120000D+00 0.3120000D+00
EXPONENTS  0.3120000D+00 0.3120000D+00 0.3120000D+00 0.3120000D+00 0.4561000D+06
EXPONENTS  0.6833000D+05 0.1555000D+05 0.4405000D+04 0.1439000D+04 0.5204000D+03
EXPONENTS  0.2031000D+03 0.8396000D+02 0.3620000D+02 0.1583000D+02 0.6334000D+01
EXPONENTS  0.2694000D+01 0.4313000D+00 0.4561000D+06 0.6833000D+05 0.1555000D+05
EXPONENTS  0.4405000D+04 0.1439000D+04 0.5204000D+03 0.2031000D+03 0.8396000D+02
EXPONENTS  0.3620000D+02 0.1583000D+02 0.6334000D+01 0.2694000D+01 0.4313000D+00
EXPONENTS  0.4561000D+06 0.6833000D+05 0.1555000D+05 0.4405000D+04 0.1439000D+04
EXPONENTS  0.5204000D+03 0.2031000D+03 0.8396000D+02 0.3620000D+02 0.1583000D+02
EXPONENTS  0.6334000D+01 0.2694000D+01 0.4313000D+00 0.9768000D+00 0.1625000D+00
EXPONENTS  0.5910000D-01 0.6633000D+03 0.1568000D+03 0.4998000D+02 0.1842000D+02
EXPONENTS  0.7240000D+01 0.2922000D+01 0.3818000D+00 0.6633000D+03 0.1568000D+03
EXPONENTS  0.4998000D+02 0.1842000D+02 0.7240000D+01 0.2922000D+01 0.3818000D+00
EXPONENTS  0.6633000D+03 0.1568000D+03 0.4998000D+02 0.1842000D+02 0.7240000D+01
EXPONENTS  0.2922000D+01 0.3818000D+00 0.6633000D+03 0.1568000D+03 0.4998000D+02
EXPONENTS  0.1842000D+02 0.7240000D+01 0.2922000D+01 0.3818000D+00 0.6633000D+03
EXPONENTS  0.1568000D+03 0.4998000D+02 0.1842000D+02 0.7240000D+01 0.2922000D+01
EXPONENTS  0.3818000D+00 0.6633000D+03 0.1568000D+03 0.4998000D+02 0.1842000D+02
EXPONENTS  0.7240000D+01 0.2922000D+01 0.3818000D+00 0.1022000D+01 0.1022000D+01
EXPONENTS  0.1022000D+01 0.1301000D+00 0.1301000D+00 0.1301000D+00 0.4190000D-01
EXPONENTS  0.4190000D-01 0.4190000D-01 0.1046000D+01 0.1046000D+01 0.1046000D+01
EXPONENTS  0.1046000D+01 0.1046000D+01 0.1046000D+01 0.3440000D+00 0.3440000D+00
EXPONENTS  0.3440000D+00 0.3440000D+00 0.3440000D+00 0.3440000D+00 0.1350000D+00
EXPONENTS  0.1350000D+00 0.1350000D+00 0.1350000D+00 0.1350000D+00 0.1350000D+00
EXPONENTS  0.7060000D+00 0.7060000D+00 0.7060000D+00 0.7060000D+00 0.7060000D+00
EXPONENTS  0.7060000D+00 0.7060000D+00 0.7060000D+00 0.7060000D+00 0.7060000D+00
EXPONENTS  0.3120000D+00 0.3120000D+00 0.3120000D+00 0.3120000D+00 0.3120000D+00
EXPONENTS  0.3120000D+00 0.3120000D+00 0.3120000D+00 0.3120000D+00 0.3120000D+00
EXPONENTS  0.4561000D+06 0.6833000D+05 0.1555000D+05 0.4405000D+04 0.1439000D+04
EXPONENTS  0.5204000D+03 0.2031000D+03 0.8396000D+02 0.3620000D+02 0.1583000D+02
EXPONENTS  0.6334000D+01 0.2694000D+01 0.4313000D+00 0.4561000D+06 0.6833000D+05
EXPONENTS  0.1555000D+05 0.4405000D+04 0.1439000D+04 0.5204000D+03 0.2031000D+03
EXPONENTS  0.8396000D+02 0.3620000D+02 0.1583000D+02 0.6334000D+01 0.2694000D+01
EXPONENTS  0.4313000D+00 0.4561000D+06 0.6833000D+05 0.1555000D+05 0.4405000D+04
EXPONENTS  0.1439000D+04 0.5204000D+03 0.2031000D+03 0.8396000D+02 0.3620000D+02
EXPONENTS  0.1583000D+02 0.6334000D+01 0.2694000D+01 0.4313000D+00 0.9768000D+00
EXPONENTS  0.1625000D+00 0.5910000D-01 0.6633000D+03 0.1568000D+03 0.4998000D+02
EXPONENTS  0.1842000D+02 0.7240000D+01 0.2922000D+01 0.3818000D+00 0.6633000D+03
EXPONENTS  0.1568000D+03 0.4998000D+02 0.1842000D+02 0.7240000D+01 0.2922000D+01
EXPONENTS  0.3818000D+00 0.6633000D+03 0.1568000D+03 0.4998000D+02 0.1842000D+02
EXPONENTS  0.7240000D+01 0.2922000D+01 0.3818000D+00 0.6633000D+03 0.1568000D+03
EXPONENTS  0.4998000D+02 0.1842000D+02 0.7240000D+01 0.2922000D+01 0.3818000D+00
EXPONENTS  0.6633000D+03 0.1568000D+03 0.4998000D+02 0.1842000D+02 0.7240000D+01
EXPONENTS  0.2922000D+01 0.3818000D+00 0.6633000D+03 0.1568000D+03 0.4998000D+02
EXPONENTS  0.1842000D+02 0.7240000D+01 0.2922000D+01 0.3818000D+00 0.1022000D+01
EXPONENTS  0.1022000D+01 0.1022000D+01 0.1301000D+00 0.1301000D+00 0.1301000D+00
EXPONENTS  0.4190000D-01 0.4190000D-01 0.4190000D-01 0.1046000D+01 0.1046000D+01
EXPONENTS  0.1046000D+01 0.1046000D+01 0.1046000D+01 0.1046000D+01 0.3440000D+00
EXPONENTS  0.3440000D+00 0.3440000D+00 0.3440000D+00 0.3440000D+00 0.3440000D+00
EXPONENTS  0.1350000D+00 0.1350000D+00 0.1350000D+00 0.1350000D+00 0.1350000D+00
EXPONENTS  0.1350000D+00 0.7060000D+00 0.7060000D+00 0.7060000D+00 0.7060000D+00
EXPONENTS  0.7060000D+00 0.7060000D+00 0.7060000D+00 0.7060000D+00 0.7060000D+00
EXPONENTS  0.7060000D+00 0.3120000D+00 0.3120000D+00 0.3120000D+00 0.3120000D+00
EXPONENTS  0.3120000D+00 0.3120000D+00 0.3120000D+00 0.3120000D+00 0.3120000D+00
EXPONENTS  0.3120000D+00
MO    1     MO 0.0        OCC NO =    2.0000000  ORB. ENERGY = -101.238091
 -0.44762598D-04 -0.83750144D-04 -0.14461177D-03 -0.23387417D-03 -0.35298553D-03
 -0.48360110D-03 -0.55886395D-03 -0.46965534D-03 -0.20629321D-03 -0.23578973D-04
  0.31778900D-06 -0.19765587D-06 -0.97226886D-08  0.89140596D-04  0.16672815D-03
  0.28868078D-03  0.46875011D-03  0.71989063D-03  0.10238497D-02  0.13026843D-02
  0.13500396D-02  0.90091379D-03 -0.88728521D-04 -0.67774132D-03 -0.34799244D-03
  0.15264553D-05 -0.53181845D-04 -0.99382033D-04 -0.17233197D-03 -0.27945472D-03
 -0.43074958D-03 -0.61293312D-03 -0.78927244D-03 -0.82972418D-03 -0.58166209D-03
  0.67536174D-04  0.54674824D-03  0.51456439D-03 -0.25093207D-03 -0.22243874D-03
  0.17741384D-02  0.23130442D-03 -0.19068829D-02 -0.24945668D-02 -0.27291435D-02
 -0.22480575D-02 -0.12019850D-02 -0.33212013D-03  0.27222395D-06  0.24240702D-09
  0.31711464D-09  0.34693453D-09  0.28577786D-09  0.15279890D-09  0.42219819D-10
 -0.34605689D-13  0.18345158D-14  0.23998968D-14  0.26255712D-14  0.21627427D-14
  0.11563691D-14  0.31951602D-15 -0.26189293D-18  0.16544992D-02  0.21912290D-02
  0.24207194D-02  0.20733535D-02  0.11310928D-02  0.34766827D-03 -0.15136259D-03
 -0.21032397D-09 -0.27855437D-09 -0.30772775D-09 -0.26356976D-09 -0.14378728D-09
 -0.44196439D-10  0.19241582D-10  0.23998347D-15  0.31783559D-15  0.35112295D-15
  0.30073788D-15  0.16406389D-15  0.50428939D-16 -0.21954994D-16  0.10756029D-03
 -0.13675943D-10 -0.44873370D-17 -0.38532258D-03  0.49029566D-10  0.95754458D-16
 -0.84087710D-05  0.10731718D-11  0.15073800D-16 -0.17495161D-04  0.92793982D-04
 -0.75298821D-04 -0.14023970D-10  0.51127705D-17 -0.27983259D-17  0.21990020D-04
  0.29555998D-04 -0.51546017D-04 -0.96021521D-12 -0.66041755D-17  0.37069650D-17
 -0.18900195D-06  0.22352402D-04 -0.22163400D-04 -0.28659913D-11  0.28564989D-17
 -0.10388570D-17  0.22298325D-04  0.12224499D-11 -0.26034423D-17 -0.10534948D-03
  0.12224682D-11  0.35020354D-17  0.38454500D-04 -0.48898180D-11  0.43082914D-17
 -0.60082053D-19  0.55505311D-06 -0.20911439D-12  0.54343340D-17  0.49522470D-05
 -0.21368695D-12 -0.78150445D-17 -0.66174063D-05  0.84103012D-12 -0.84879576D-17
  0.71703967D-18  0.43627963D+00  0.81628086D+00  0.14103525D+01  0.22863459D+01
  0.34719986D+01  0.48256698D+01  0.57370252D+01  0.51101008D+01  0.25368070D+01
  0.40872026D+00  0.62749447D-02  0.11213265D-02  0.41902220D-04 -0.84111958D-03
 -0.15710906D-02 -0.27267039D-02 -0.44243324D-02 -0.68483410D-02 -0.98027780D-02
 -0.12795687D-01 -0.13635940D-01 -0.10193142D-01 -0.53807786D-03  0.69140334D-02
  0.41077302D-02 -0.15400909D-04  0.33572615D-03  0.62658448D-03  0.10889487D-02
  0.17648655D-02  0.27411124D-02  0.39267226D-02  0.51848713D-02  0.56063838D-02
  0.43954776D-02  0.21871751D-03 -0.37680356D-02 -0.39006154D-02  0.17650837D-02
 -0.21655426D-02 -0.10648536D-02 -0.34728081D-03  0.78356934D-03  0.10321367D-02
  0.11386885D-02  0.94581173D-03  0.50234358D-03  0.12956906D-03 -0.13319259D-06
 -0.22861067D-02 -0.30113156D-02 -0.33221865D-02 -0.27594578D-02 -0.14656151D-02
 -0.37802488D-03  0.38859672D-06 -0.24252692D-17 -0.31946238D-17 -0.35244184D-17
 -0.29274346D-17 -0.15548316D-17 -0.40103644D-18  0.41225182D-21 -0.59604469D-03
 -0.78256298D-03 -0.89100553D-03 -0.75446688D-03 -0.43218768D-03 -0.98307703D-04
  0.46013415D-04  0.18504804D-02  0.24295451D-02  0.27662159D-02  0.23423180D-02
  0.13417699D-02  0.30520611D-03 -0.14285326D-03 -0.50179963D-17 -0.65882612D-17
 -0.75012201D-17 -0.63517251D-17 -0.36385127D-17 -0.82763540D-18  0.38737892D-18
 -0.17511156D-05  0.54088491D-04  0.44350475D-17 -0.22307505D-03  0.46648062D-03
  0.53851932D-17 -0.69842833D-05  0.14277893D-04 -0.31383112D-17 -0.26034823D-04
  0.12661320D-03 -0.10057838D-03 -0.23291450D-03 -0.23799245D-17 -0.11464402D-19
  0.88725938D-05 -0.62025275D-04  0.53152681D-04  0.13216563D-03  0.41751437D-17
 -0.53254601D-17  0.15041615D-04 -0.51468626D-04  0.36427011D-04  0.71572215D-04
 -0.81051449D-18  0.41887830D-18 -0.12834197D-04 -0.31410511D-04  0.12946411D-17
  0.62624956D-04  0.22463933D-04 -0.61831880D-17 -0.24122366D-04  0.71767600D-04
  0.22992646D-17 -0.14702347D-16  0.13205292D-04  0.19050691D-04 -0.95180137D-18
 -0.66422195D-04 -0.87134335D-06  0.25652521D-17  0.26806320D-04 -0.56280731D-04
  0.29015201D-18  0.41878184D-17  0.43627957D+00  0.81628074D+00  0.14103523D+01
  0.22863456D+01  0.34719981D+01  0.48256691D+01  0.57370244D+01  0.51101001D+01
  0.25368067D+01  0.40872020D+00  0.62749438D-02  0.11213263D-02  0.41902214D-04
 -0.84111946D-03 -0.15710904D-02 -0.27267036D-02 -0.44243318D-02 -0.68483401D-02
 -0.98027767D-02 -0.12795686D-01 -0.13635938D-01 -0.10193141D-01 -0.53807778D-03
  0.69140324D-02  0.41077296D-02 -0.15400907D-04  0.33572610D-03  0.62658439D-03
  0.10889485D-02  0.17648652D-02  0.27411120D-02  0.39267220D-02  0.51848706D-02
  0.56063831D-02  0.43954770D-02  0.21871748D-03 -0.37680351D-02 -0.39006149D-02
  0.17650834D-02 -0.21655423D-02 -0.10648534D-02 -0.34728077D-03  0.78356918D-03
  0.10321365D-02  0.11386883D-02  0.94581153D-03  0.50234348D-03  0.12956904D-03
 -0.13319257D-06  0.22861066D-02  0.30113154D-02  0.33221863D-02  0.27594576D-02
  0.14656150D-02  0.37802486D-03 -0.38859670D-06 -0.39660566D-16 -0.52241866D-16
 -0.57635017D-16 -0.47872506D-16 -0.25426251D-16 -0.65581719D-17  0.67415777D-20
 -0.59604456D-03 -0.78256281D-03 -0.89100533D-03 -0.75446672D-03 -0.43218759D-03
 -0.98307682D-04  0.46013405D-04 -0.18504803D-02 -0.24295450D-02 -0.27662157D-02
 -0.23423179D-02 -0.13417699D-02 -0.30520609D-03  0.14285325D-03  0.28349384D-17
  0.37220663D-17  0.42378463D-17  0.35884342D-17  0.20555932D-17  0.46757615D-18
 -0.21885137D-18 -0.17511117D-05 -0.54088492D-04  0.64590905D-17 -0.22307501D-03
 -0.46648057D-03  0.27004121D-17 -0.69842825D-05 -0.14277892D-04 -0.31482269D-17
 -0.26034819D-04  0.12661319D-03 -0.10057837D-03  0.23291447D-03 -0.19223189D-17
  0.28071258D-17  0.88725911D-05 -0.62025267D-04  0.53152676D-04 -0.13216561D-03
  0.33023874D-17  0.30487781D-17  0.15041615D-04 -0.51468623D-04  0.36427008D-04
 -0.71572205D-04 -0.12596802D-17 -0.88207979D-18 -0.12834195D-04  0.31410513D-04
  0.81818154D-18  0.62624948D-04 -0.22463939D-04 -0.55109679D-17 -0.24122363D-04
 -0.71767599D-04  0.30564233D-17  0.13465583D-16  0.13205290D-04 -0.19050691D-04
 -0.57874192D-18 -0.66422186D-04  0.87134635D-06  0.22956646D-17  0.26806317D-04
  0.56280727D-04 -0.55943890D-18 -0.47122098D-17  0.20198323D-01  0.37791140D-01
  0.65294717D-01  0.10585035D+00  0.16074220D+00  0.22341276D+00  0.26560554D+00
  0.23658099D+00  0.11744589D+00  0.18922414D-01  0.29050946D-03  0.51913755D-04
  0.19399360D-05 -0.64521805D-04 -0.12051747D-03 -0.20916391D-03 -0.33938802D-03
 -0.52533235D-03 -0.75196553D-03 -0.98154990D-03 -0.10460052D-02 -0.78191013D-03
 -0.41275647D-04  0.53037157D-03  0.31510165D-03 -0.11813949D-05  0.28910619D-04
  0.53957504D-04  0.93773393D-04  0.15197908D-03  0.23604731D-03  0.33814459D-03
  0.44648842D-03  0.48278642D-03  0.37851081D-03  0.18834573D-04 -0.32447947D-03
 -0.33589640D-03  0.15199787D-03 -0.13609882D-03 -0.32576931D-05 -0.77785418D-04
 -0.98448761D-03 -0.12967911D-02 -0.14306644D-02 -0.11883312D-02 -0.63115159D-03
 -0.16279241D-03  0.16734506D-06  0.68310784D-10  0.89980633D-10  0.99269718D-10
  0.82454911D-10  0.43793806D-10  0.11295700D-10 -0.11611596D-13 -0.10154058D-15
 -0.13375173D-15 -0.14755949D-15 -0.12256512D-15 -0.65097314D-16 -0.16790496D-16
  0.17260059D-19  0.87090244D-03  0.11434311D-02  0.13018804D-02  0.11023788D-02
  0.63148504D-03  0.14364094D-03 -0.67231865D-04 -0.60159539D-10 -0.78985064D-10
 -0.89930307D-10 -0.76149290D-10 -0.43621245D-10 -0.99223199D-11  0.46441918D-11
  0.78272868D-16  0.10276654D-15  0.11700726D-15  0.99076945D-16  0.56755089D-16
  0.12909814D-16 -0.60425033D-17  0.39669135D-04 -0.37560579D-11  0.11127904D-16
  0.91869817D-04 -0.58847486D-11  0.37035664D-17  0.67113902D-05 -0.16169951D-12
 -0.34707764D-17  0.40644606D-04  0.35399863D-05 -0.44184592D-04 -0.23054754D-11
 -0.88278754D-18  0.93657194D-18 -0.15741482D-04 -0.22160125D-05  0.17957495D-04
 -0.69270540D-12 -0.25273655D-17 -0.45287651D-18 -0.20613886D-04  0.59620985D-05
  0.14651788D-04  0.32054306D-11 -0.38177583D-19  0.14635145D-18 -0.16891781D-04
 -0.14275682D-11 -0.43004957D-19 -0.91997006D-05  0.64871785D-11  0.20645593D-17
  0.59875043D-04 -0.22044739D-11 -0.19355445D-17 -0.40140654D-18  0.10043750D-04
  0.55045683D-12 -0.86727005D-19  0.38848576D-05 -0.23755864D-11 -0.68644972D-18
 -0.34016108D-04  0.72421592D-12  0.94663073D-18  0.18330533D-18 -0.13098225D-04
 -0.24506830D-04 -0.42342373D-04 -0.68641925D-04 -0.10423824D-03 -0.14487889D-03
 -0.17224010D-03 -0.15341824D-03 -0.76161407D-04 -0.12270823D-04 -0.18838982D-06
 -0.33665075D-07 -0.12580113D-08  0.79396288D-05  0.14830087D-04  0.25738335D-04
  0.41762857D-04  0.64643943D-04  0.92531931D-04  0.12078307D-03  0.12871452D-03
  0.96216717D-04  0.50791096D-05 -0.65264037D-04 -0.38774336D-04  0.14537469D-06
 -0.34972935D-05 -0.65271945D-05 -0.11343690D-04 -0.18384784D-04 -0.28554447D-04
 -0.40905070D-04 -0.54011333D-04 -0.58402273D-04 -0.45788139D-04 -0.22784026D-05
  0.39252012D-04  0.40633109D-04 -0.18387057D-04  0.31671584D-04 -0.49437209D-04
  0.10726235D-04  0.27459111D-03  0.36169811D-03  0.39903775D-03  0.33144672D-03
  0.17603940D-03  0.45405698D-04 -0.46675514D-07 -0.34932414D-10 -0.46013828D-10
 -0.50764032D-10 -0.42165364D-10 -0.22395049D-10 -0.57763364D-11  0.59378775D-14
  0.68714478D-03  0.90512389D-03  0.99856369D-03  0.82942193D-03  0.44052613D-03
  0.11362454D-03 -0.11680216D-06 -0.23688738D-03 -0.31101576D-03 -0.35411433D-03
 -0.29984947D-03 -0.17176532D-03 -0.39070651D-04  0.18287215D-04  0.30134418D-10
  0.39564281D-10  0.45046845D-10  0.38143818D-10  0.21850248D-10  0.49701733D-11
 -0.23263146D-11 -0.59211451D-03 -0.77740294D-03 -0.88513044D-03 -0.74949211D-03
 -0.42933793D-03 -0.97659485D-04  0.45710014D-04 -0.20281714D-04  0.25809202D-11
 -0.50180902D-04  0.31644662D-04 -0.40257744D-11  0.40684497D-04  0.69398320D-06
 -0.89031544D-13 -0.17850794D-05  0.77678438D-05 -0.20444531D-04  0.12676687D-04
  0.35865377D-11  0.35583821D-05 -0.45436701D-12  0.19201651D-05  0.87538787D-05