 Molden2AIM, Version 4.0.0 (06/02/2016)           Time: Thu Jun 28 18:26:43 2018
GAUSSIAN             20 MOL ORBITALS    356 PRIMITIVES        4 NUCLEI
  P    1    (CENTRE  1)  -0.00005858  0.00000000  0.00000000  CHARGE = 15.0
  O    2    (CENTRE  2)  -1.43561360  2.48669817  0.00000000  CHARGE =  8.0
  O    3    (CENTRE  3)  -1.43561360 -2.48669817  0.00000000  CHARGE =  8.0
  O    4    (CENTRE  4)   2.87128767  0.00000000  0.00000000  CHARGE =  8.0
CENTRE ASSIGNMENTS    1  1  1  1  1  1  1  1  1  1  1  1  1  1  1  1  1  1  1  1
CENTRE ASSIGNMENTS    1  1  1  1  1  1  1  1  1  1  1  1  1  1  1  1  1  1  1  1
CENTRE ASSIGNMENTS    1  1  1  1  1  1  1  1  1  1  1  1  1  1  1  1  1  1  1  1
CENTRE ASSIGNMENTS    1  1  1  1  1  1  1  1  1  1  1  1  1  1  1  1  1  1  1  1
CENTRE ASSIGNMENTS    1  1  1  1  1  1  1  1  1  1  1  1  1  1  1  1  1  1  1  1
CENTRE ASSIGNMENTS    1  1  1  1  1  1  1  1  1  1  1  1  1  1  1  1  1  1  1  1
CENTRE ASSIGNMENTS    1  1  1  1  1  1  1  1  1  1  1  2  2  2  2  2  2  2  2  2
CENTRE ASSIGNMENTS    2  2  2  2  2  2  2  2  2  2  2  2  2  2  2  2  2  2  2  2
CENTRE ASSIGNMENTS    2  2  2  2  2  2  2  2  2  2  2  2  2  2  2  2  2  2  2  2
CENTRE ASSIGNMENTS    2  2  2  2  2  2  2  2  2  2  2  2  2  2  2  2  2  2  2  2
CENTRE ASSIGNMENTS    2  2  2  2  2  2  3  3  3  3  3  3  3  3  3  3  3  3  3  3
CENTRE ASSIGNMENTS    3  3  3  3  3  3  3  3  3  3  3  3  3  3  3  3  3  3  3  3
CENTRE ASSIGNMENTS    3  3  3  3  3  3  3  3  3  3  3  3  3  3  3  3  3  3  3  3
CENTRE ASSIGNMENTS    3  3  3  3  3  3  3  3  3  3  3  3  3  3  3  3  3  3  3  3
CENTRE ASSIGNMENTS    3  4  4  4  4  4  4  4  4  4  4  4  4  4  4  4  4  4  4  4
CENTRE ASSIGNMENTS    4  4  4  4  4  4  4  4  4  4  4  4  4  4  4  4  4  4  4  4
CENTRE ASSIGNMENTS    4  4  4  4  4  4  4  4  4  4  4  4  4  4  4  4  4  4  4  4
CENTRE ASSIGNMENTS    4  4  4  4  4  4  4  4  4  4  4  4  4  4  4  4
TYPE ASSIGNMENTS      1  1  1  1  1  1  1  1  1  1  1  1  1  1  1  1  1  1  1  1
TYPE ASSIGNMENTS      1  1  1  1  1  1  1  1  1  1  1  1  1  1  1  1  1  1  1  1
TYPE ASSIGNMENTS      1  1  2  2  2  2  2  2  2  3  3  3  3  3  3  3  4  4  4  4
TYPE ASSIGNMENTS      4  4  4  2  2  2  2  2  2  2  3  3  3  3  3  3  3  4  4  4
TYPE ASSIGNMENTS      4  4  4  4  2  3  4  2  3  4  2  3  4  5  6  7  8  9 10  5
TYPE ASSIGNMENTS      6  7  8  9 10  5  6  7  8  9 10 11 12 13 17 14 15 18 19 16
TYPE ASSIGNMENTS     20 11 12 13 17 14 15 18 19 16 20  1  1  1  1  1  1  1  1  1
TYPE ASSIGNMENTS      1  1  1  1  1  1  1  1  1  1  2  2  2  3  3  3  4  4  4  2
TYPE ASSIGNMENTS      3  4  2  3  4  2  3  4  5  6  7  8  9 10  5  6  7  8  9 10
TYPE ASSIGNMENTS      5  6  7  8  9 10 11 12 13 17 14 15 18 19 16 20 11 12 13 17
TYPE ASSIGNMENTS     14 15 18 19 16 20  1  1  1  1  1  1  1  1  1  1  1  1  1  1
TYPE ASSIGNMENTS      1  1  1  1  1  2  2  2  3  3  3  4  4  4  2  3  4  2  3  4
TYPE ASSIGNMENTS      2  3  4  5  6  7  8  9 10  5  6  7  8  9 10  5  6  7  8  9
TYPE ASSIGNMENTS     10 11 12 13 17 14 15 18 19 16 20 11 12 13 17 14 15 18 19 16
TYPE ASSIGNMENTS     20  1  1  1  1  1  1  1  1  1  1  1  1  1  1  1  1  1  1  1
TYPE ASSIGNMENTS      2  2  2  3  3  3  4  4  4  2  3  4  2  3  4  2  3  4  5  6
TYPE ASSIGNMENTS      7  8  9 10  5  6  7  8  9 10  5  6  7  8  9 10 11 12 13 17
TYPE ASSIGNMENTS     14 15 18 19 16 20 11 12 13 17 14 15 18 19 16 20
EXPONENTS  0.3124000D+06 0.4680000D+05 0.1065000D+05 0.3018000D+04 0.9868000D+03
EXPONENTS  0.3574000D+03 0.1396000D+03 0.5763000D+02 0.2460000D+02 0.1012000D+02
EXPONENTS  0.4283000D+01 0.1805000D+01 0.2782000D+00 0.3124000D+06 0.4680000D+05
EXPONENTS  0.1065000D+05 0.3018000D+04 0.9868000D+03 0.3574000D+03 0.1396000D+03
EXPONENTS  0.5763000D+02 0.2460000D+02 0.1012000D+02 0.4283000D+01 0.1805000D+01
EXPONENTS  0.2782000D+00 0.3124000D+06 0.4680000D+05 0.1065000D+05 0.3018000D+04
EXPONENTS  0.9868000D+03 0.3574000D+03 0.1396000D+03 0.5763000D+02 0.2460000D+02
EXPONENTS  0.1012000D+02 0.4283000D+01 0.1805000D+01 0.2782000D+00 0.6158000D+00
EXPONENTS  0.1055000D+00 0.4090000D-01 0.5049000D+03 0.1194000D+03 0.3796000D+02
EXPONENTS  0.1395000D+02 0.5457000D+01 0.2177000D+01 0.2877000D+00 0.5049000D+03
EXPONENTS  0.1194000D+03 0.3796000D+02 0.1395000D+02 0.5457000D+01 0.2177000D+01
EXPONENTS  0.2877000D+00 0.5049000D+03 0.1194000D+03 0.3796000D+02 0.1395000D+02
EXPONENTS  0.5457000D+01 0.2177000D+01 0.2877000D+00 0.5049000D+03 0.1194000D+03
EXPONENTS  0.3796000D+02 0.1395000D+02 0.5457000D+01 0.2177000D+01 0.2877000D+00
EXPONENTS  0.5049000D+03 0.1194000D+03 0.3796000D+02 0.1395000D+02 0.5457000D+01
EXPONENTS  0.2177000D+01 0.2877000D+00 0.5049000D+03 0.1194000D+03 0.3796000D+02
EXPONENTS  0.1395000D+02 0.5457000D+01 0.2177000D+01 0.2877000D+00 0.8010000D+00
EXPONENTS  0.8010000D+00 0.8010000D+00 0.9714000D-01 0.9714000D-01 0.9714000D-01
EXPONENTS  0.3070000D-01 0.3070000D-01 0.3070000D-01 0.2160000D+00 0.2160000D+00
EXPONENTS  0.2160000D+00 0.2160000D+00 0.2160000D+00 0.2160000D+00 0.6520000D+00
EXPONENTS  0.6520000D+00 0.6520000D+00 0.6520000D+00 0.6520000D+00 0.6520000D+00
EXPONENTS  0.7750000D-01 0.7750000D-01 0.7750000D-01 0.7750000D-01 0.7750000D-01
EXPONENTS  0.7750000D-01 0.4520000D+00 0.4520000D+00 0.4520000D+00 0.4520000D+00
EXPONENTS  0.4520000D+00 0.4520000D+00 0.4520000D+00 0.4520000D+00 0.4520000D+00
EXPONENTS  0.4520000D+00 0.1650000D+00 0.1650000D+00 0.1650000D+00 0.1650000D+00
EXPONENTS  0.1650000D+00 0.1650000D+00 0.1650000D+00 0.1650000D+00 0.1650000D+00
EXPONENTS  0.1650000D+00 0.1533000D+05 0.2299000D+04 0.5224000D+03 0.1473000D+03
EXPONENTS  0.4755000D+02 0.1676000D+02 0.6207000D+01 0.6882000D+00 0.1533000D+05
EXPONENTS  0.2299000D+04 0.5224000D+03 0.1473000D+03 0.4755000D+02 0.1676000D+02
EXPONENTS  0.6207000D+01 0.6882000D+00 0.1752000D+01 0.2384000D+00 0.7376000D-01
EXPONENTS  0.3446000D+02 0.7749000D+01 0.2280000D+01 0.3446000D+02 0.7749000D+01
EXPONENTS  0.2280000D+01 0.3446000D+02 0.7749000D+01 0.2280000D+01 0.7156000D+00
EXPONENTS  0.7156000D+00 0.7156000D+00 0.2140000D+00 0.2140000D+00 0.2140000D+00
EXPONENTS  0.5974000D-01 0.5974000D-01 0.5974000D-01 0.2314000D+01 0.2314000D+01
EXPONENTS  0.2314000D+01 0.2314000D+01 0.2314000D+01 0.2314000D+01 0.6450000D+00
EXPONENTS  0.6450000D+00 0.6450000D+00 0.6450000D+00 0.6450000D+00 0.6450000D+00
EXPONENTS  0.2140000D+00 0.2140000D+00 0.2140000D+00 0.2140000D+00 0.2140000D+00
EXPONENTS  0.2140000D+00 0.1428000D+01 0.1428000D+01 0.1428000D+01 0.1428000D+01
EXPONENTS  0.1428000D+01 0.1428000D+01 0.1428000D+01 0.1428000D+01 0.1428000D+01
EXPONENTS  0.1428000D+01 0.5000000D+00 0.5000000D+00 0.5000000D+00 0.5000000D+00
EXPONENTS  0.5000000D+00 0.5000000D+00 0.5000000D+00 0.5000000D+00 0.5000000D+00
EXPONENTS  0.5000000D+00 0.1533000D+05 0.2299000D+04 0.5224000D+03 0.1473000D+03
EXPONENTS  0.4755000D+02 0.1676000D+02 0.6207000D+01 0.6882000D+00 0.1533000D+05
EXPONENTS  0.2299000D+04 0.5224000D+03 0.1473000D+03 0.4755000D+02 0.1676000D+02
EXPONENTS  0.6207000D+01 0.6882000D+00 0.1752000D+01 0.2384000D+00 0.7376000D-01
EXPONENTS  0.3446000D+02 0.7749000D+01 0.2280000D+01 0.3446000D+02 0.7749000D+01
EXPONENTS  0.2280000D+01 0.3446000D+02 0.7749000D+01 0.2280000D+01 0.7156000D+00
EXPONENTS  0.7156000D+00 0.7156000D+00 0.2140000D+00 0.2140000D+00 0.2140000D+00
EXPONENTS  0.5974000D-01 0.5974000D-01 0.5974000D-01 0.2314000D+01 0.2314000D+01
EXPONENTS  0.2314000D+01 0.2314000D+01 0.2314000D+01 0.2314000D+01 0.6450000D+00
EXPONENTS  0.6450000D+00 0.6450000D+00 0.6450000D+00 0.6450000D+00 0.6450000D+00
EXPONENTS  0.2140000D+00 0.2140000D+00 0.2140000D+00 0.2140000D+00 0.2140000D+00
EXPONENTS  0.2140000D+00 0.1428000D+01 0.1428000D+01 0.1428000D+01 0.1428000D+01
EXPONENTS  0.1428000D+01 0.1428000D+01 0.1428000D+01 0.1428000D+01 0.1428000D+01
EXPONENTS  0.1428000D+01 0.5000000D+00 0.5000000D+00 0.5000000D+00 0.5000000D+00
EXPONENTS  0.5000000D+00 0.5000000D+00 0.5000000D+00 0.5000000D+00 0.5000000D+00
EXPONENTS  0.5000000D+00 0.1533000D+05 0.2299000D+04 0.5224000D+03 0.1473000D+03
EXPONENTS  0.4755000D+02 0.1676000D+02 0.6207000D+01 0.6882000D+00 0.1533000D+05
EXPONENTS  0.2299000D+04 0.5224000D+03 0.1473000D+03 0.4755000D+02 0.1676000D+02
EXPONENTS  0.6207000D+01 0.6882000D+00 0.1752000D+01 0.2384000D+00 0.7376000D-01
EXPONENTS  0.3446000D+02 0.7749000D+01 0.2280000D+01 0.3446000D+02 0.7749000D+01
EXPONENTS  0.2280000D+01 0.3446000D+02 0.7749000D+01 0.2280000D+01 0.7156000D+00
EXPONENTS  0.7156000D+00 0.7156000D+00 0.2140000D+00 0.2140000D+00 0.2140000D+00
EXPONENTS  0.5974000D-01 0.5974000D-01 0.5974000D-01 0.2314000D+01 0.2314000D+01
EXPONENTS  0.2314000D+01 0.2314000D+01 0.2314000D+01 0.2314000D+01 0.6450000D+00
EXPONENTS  0.6450000D+00 0.6450000D+00 0.6450000D+00 0.6450000D+00 0.6450000D+00
EXPONENTS  0.2140000D+00 0.2140000D+00 0.2140000D+00 0.2140000D+00 0.2140000D+00
EXPONENTS  0.2140000D+00 0.1428000D+01 0.1428000D+01 0.1428000D+01 0.1428000D+01
EXPONENTS  0.1428000D+01 0.1428000D+01 0.1428000D+01 0.1428000D+01 0.1428000D+01
EXPONENTS  0.1428000D+01 0.5000000D+00 0.5000000D+00 0.5000000D+00 0.5000000D+00
EXPONENTS  0.5000000D+00 0.5000000D+00 0.5000000D+00 0.5000000D+00 0.5000000D+00
EXPONENTS  0.5000000D+00
MO    1     MO 0.0        OCC NO =    2.0000000  ORB. ENERGY =  -76.655498
  0.54432648D+00  0.10184266D+01  0.17585220D+01  0.28439793D+01  0.42924089D+01
  0.58807329D+01  0.67959516D+01  0.57111484D+01  0.25085866D+01  0.28672732D+00
 -0.38644085D-02  0.24035541D-02  0.11823078D-03 -0.17858220D-02 -0.33401930D-02
 -0.57833638D-02 -0.93908308D-02 -0.14422122D-01 -0.20511568D-01 -0.26097676D-01
 -0.27046380D-01 -0.18048698D-01  0.17775666D-02  0.13577712D-01  0.69715997D-02
 -0.30580651D-04  0.84989758D-03  0.15882215D-02  0.27540324D-02  0.44659581D-02
  0.68837970D-02  0.97952671D-02  0.12613341D-01  0.13259799D-01  0.92955257D-02
 -0.10792937D-02 -0.87375685D-02 -0.82232392D-02  0.40101385D-02 -0.31391046D-02
  0.49633938D-03  0.47420684D-04 -0.13766337D-06 -0.18008995D-06 -0.19702472D-06
 -0.16229374D-06 -0.86774760D-07 -0.23976708D-07  0.19652631D-10 -0.17720043D-13
 -0.23181198D-13 -0.25361043D-13 -0.20890468D-13 -0.11169656D-13 -0.30862845D-14
  0.25296887D-17  0.56640867D-16  0.74097064D-16  0.81064784D-16  0.66774905D-16
  0.35703018D-16  0.98650904D-17 -0.80859714D-20  0.11832172D-06  0.15670602D-06
  0.17311806D-06  0.14827614D-06  0.80890247D-07  0.24863541D-07 -0.10824715D-07
  0.16135798D-13  0.21370351D-13  0.23608497D-13  0.20220750D-13  0.11031184D-13
  0.33906968D-14 -0.14761907D-14 -0.48171745D-16 -0.63798959D-16 -0.70480711D-16
 -0.60366944D-16 -0.32932452D-16 -0.10122572D-16  0.44070136D-17 -0.10392952D-08
  0.11458457D-15 -0.37946684D-17  0.16463441D-07  0.18516171D-15  0.75763074D-18
 -0.10138396D-08  0.61809317D-20  0.20683554D-19  0.71043941D-04  0.71073255D-04
 -0.14211720D-03  0.53699959D-15 -0.53932477D-20 -0.11217857D-19  0.28990635D-03
  0.28998048D-03 -0.57988683D-03  0.74874519D-15  0.56079535D-20  0.12977375D-19
 -0.48391332D-05 -0.48477523D-05  0.96868855D-05 -0.44916884D-16 -0.35938318D-21
 -0.29230411D-21  0.19177248D-03  0.58616429D-16 -0.67083351D-18 -0.57531854D-03
 -0.30735893D-15  0.10049898D-17  0.10964477D-08  0.13150964D-15  0.10075107D-17
  0.65513970D-20 -0.12790438D-04  0.81291542D-16 -0.76856038D-19  0.38371862D-04
 -0.20414830D-15  0.11552340D-18 -0.54702320D-09 -0.39726332D-16  0.11504472D-18
  0.28118242D-20  0.18782595D-03  0.35008340D-03  0.59362545D-03  0.89847976D-03
  0.11210404D-02  0.96282421D-03  0.36964694D-03 -0.16534534D-05 -0.12701788D-03
 -0.23822519D-03 -0.40612173D-03 -0.63468920D-03 -0.84870040D-03 -0.90621416D-03
 -0.55404157D-03  0.36552298D-03  0.10941518D-04 -0.78428862D-03 -0.15518875D-03
  0.21858077D-03  0.21194982D-03  0.14298009D-03 -0.37865150D-03 -0.36716459D-03
 -0.24768706D-03 -0.61460601D-18 -0.59596109D-18 -0.40203183D-18 -0.19104625D-03
  0.33094760D-03  0.72243257D-18 -0.33672796D-03  0.58328496D-03 -0.14615547D-17
 -0.94850680D-05  0.16440195D-04 -0.76289194D-19 -0.86049996D-04  0.24355968D-03
 -0.15750968D-03 -0.57066371D-03  0.12116285D-17 -0.21017321D-17  0.63871733D-04
 -0.23557053D-03  0.17169880D-03  0.51846758D-03 -0.49486789D-18  0.85386656D-18
  0.11354378D-04 -0.87622078D-04  0.76267700D-04  0.17139743D-03 -0.45347666D-18
  0.78744983D-18 -0.23745727D-04 -0.24412878D-04 -0.13522268D-17  0.12761430D-03
 -0.24410974D-04  0.98147846D-18 -0.56377119D-04  0.97649607D-04  0.30752019D-17
 -0.35868354D-17  0.54242640D-04  0.25729481D-04  0.52895593D-18 -0.22210487D-03
  0.25674069D-04 -0.32112206D-18  0.59376955D-04 -0.10286251D-03 -0.12657457D-17
  0.16280304D-17  0.18782595D-03  0.35008340D-03  0.59362545D-03  0.89847976D-03
  0.11210404D-02  0.96282421D-03  0.36964694D-03 -0.16534534D-05 -0.12701788D-03
 -0.23822519D-03 -0.40612173D-03 -0.63468920D-03 -0.84870040D-03 -0.90621416D-03
 -0.55404157D-03  0.36552298D-03  0.10941518D-04 -0.78428862D-03 -0.15518875D-03
  0.21858077D-03  0.21194982D-03  0.14298009D-03  0.37865150D-03  0.36716459D-03
  0.24768706D-03 -0.62481900D-18 -0.60586425D-18 -0.40871245D-18 -0.19104625D-03
 -0.33094760D-03  0.73093282D-18 -0.33672796D-03 -0.58328496D-03 -0.14816819D-17
 -0.94850680D-05 -0.16440195D-04 -0.77057524D-19 -0.86049996D-04  0.24355968D-03
 -0.15750968D-03  0.57066371D-03  0.12208531D-17  0.20865526D-17  0.63871733D-04
 -0.23557053D-03  0.17169880D-03 -0.51846758D-03 -0.49817745D-18 -0.85235386D-18
  0.11354378D-04 -0.87622078D-04  0.76267700D-04 -0.17139743D-03 -0.45736698D-18
 -0.79798004D-18 -0.23745727D-04  0.24412878D-04 -0.13595118D-17  0.12761430D-03
  0.24410974D-04  0.97255866D-18 -0.56377119D-04 -0.97649607D-04  0.31059768D-17
  0.36435011D-17  0.54242640D-04 -0.25729481D-04  0.53089904D-18 -0.22210487D-03
 -0.25674069D-04 -0.31864223D-18  0.59376955D-04  0.10286251D-03 -0.12740549D-17
 -0.16433307D-17  0.18782759D-03  0.35008646D-03  0.59363064D-03  0.89848763D-03
  0.11210502D-02  0.96283264D-03  0.36965017D-03 -0.16534679D-05 -0.12701880D-03
 -0.23822690D-03 -0.40612465D-03 -0.63469377D-03 -0.84870651D-03 -0.90622068D-03
 -0.55404555D-03  0.36552561D-03  0.10935074D-04 -0.78425053D-03 -0.15522710D-03
 -0.43719856D-03 -0.42393554D-03 -0.28598441D-03 -0.89482746D-16 -0.86768163D-16
 -0.58533290D-16 -0.62361669D-18 -0.60469842D-18 -0.40792598D-18  0.38211082D-03
  0.58208205D-16  0.72641088D-18  0.67345675D-03  0.31314392D-15 -0.14670879D-17
  0.18984040D-04  0.22516945D-16 -0.75798212D-19  0.40825167D-03 -0.25073479D-03
 -0.15751688D-03  0.43902473D-15 -0.24264500D-17 -0.93814102D-20 -0.38519792D-03
  0.21350074D-03  0.17169717D-03 -0.27746993D-15  0.99076662D-18  0.31361487D-20
 -0.13708711D-03  0.60825729D-04  0.76261377D-04 -0.14339414D-16  0.90934599D-18
 -0.17344894D-20 -0.66027735D-04  0.48787317D-16 -0.13544278D-17  0.85335357D-04
  0.28883791D-15  0.41030602D-17  0.11274785D-03 -0.43519987D-15 -0.39776845D-19
 -0.98477741D-20  0.98776617D-04 -0.34096768D-16  0.52928367D-18 -0.17756419D-03
  0.58361287D-17 -0.17350669D-17 -0.11876566D-03  0.96454174D-16  0.14721590D-18
  0.33181585D-20
MO    2     MO 0.0        OCC NO =    2.0000000  ORB. ENERGY =  -18.758572
  0.50708176D-11  0.94874231D-11  0.16381978D-10  0.26493843D-10  0.39987072D-10
  0.54783526D-10  0.63309488D-10  0.53203717D-10  0.23369404D-10  0.26710843D-11
 -0.35999922D-13  0.22390945D-13  0.11014102D-14 -0.98005637D-11 -0.18330928D-10
 -0.31739011D-10 -0.51536735D-10 -0.79148382D-10 -0.11256717D-09 -0.14322364D-09
 -0.14843012D-09 -0.99050975D-10  0.97552581D-11  0.74514277D-10  0.38260032D-10
 -0.16782614D-12  0.57677365D-11  0.10778291D-10  0.18689938D-10  0.30307734D-10
  0.46716132D-10  0.66474504D-10  0.85599053D-10  0.89986169D-10  0.63083064D-10
 -0.73245082D-11 -0.59296548D-10 -0.55806109D-10  0.27214364D-10 -0.11037147D-10
  0.42588238D-10  0.38623080D-11 -0.38661311D-09 -0.50576373D-09 -0.55332324D-09
 -0.45578493D-09 -0.24369780D-09 -0.67336067D-10  0.55192350D-13  0.24832652D-01
  0.32485847D-01  0.35540655D-01  0.29275646D-01  0.15653020D-01  0.43250812D-02
 -0.35450748D-05 -0.22878003D-14 -0.29928794D-14 -0.32743150D-14 -0.26971277D-14
 -0.14420926D-14 -0.39846419D-15  0.32660319D-18  0.35773547D-09  0.47378708D-09
  0.52340745D-09  0.44830008D-09  0.24456466D-09  0.75172763D-10 -0.32727589D-10
 -0.22976093D-01 -0.30429680D-01 -0.33616622D-01 -0.28792739D-01 -0.15707529D-01
 -0.48280826D-02  0.21019781D-02  0.10555418D-15  0.13979662D-15  0.15443771D-15
  0.13227637D-15  0.72161765D-16  0.22180635D-16 -0.96566716D-17  0.33770123D-11
 -0.21826333D-03  0.26422680D-16 -0.54455114D-11  0.35396294D-03  0.56159994D-18
 -0.48060182D-13  0.31028728D-05  0.92209601D-18 -0.17555292D-11  0.74202588D-11
 -0.56647297D-11 -0.58953494D-03 -0.87366284D-17  0.80622854D-16 -0.56861298D-11
  0.13739567D-10 -0.80534369D-11 -0.12454484D-02  0.36139870D-17 -0.11022343D-14
  0.25114686D-13  0.27011729D-12 -0.29523198D-12 -0.16161955D-04 -0.52613138D-19
  0.60065125D-18  0.94095641D-12  0.67150547D-04 -0.17962797D-18 -0.70028496D-11
  0.67154731D-04  0.53320260D-19  0.41799804D-11 -0.26860637D-03  0.48556364D-18
 -0.35219661D-17  0.60775423D-12  0.16800163D-05 -0.12334692D-18 -0.19239068D-11
  0.16827214D-05 -0.24857939D-19  0.10064414D-12 -0.67227702D-05  0.39489869D-18
  0.16093813D-17  0.35259544D+00  0.65719254D+00  0.11143808D+01  0.16866672D+01
  0.21044682D+01  0.18074576D+01  0.69391810D+00 -0.31039383D-02 -0.37336790D-03
 -0.70026075D-03 -0.11937911D-02 -0.18656631D-02 -0.24947470D-02 -0.26638082D-02
 -0.16286001D-02  0.10744514D-02  0.35161502D-01 -0.13728033D-02 -0.50641563D-03
  0.24085142D-02  0.23354486D-02  0.15754798D-02 -0.41663640D-02 -0.40399716D-02
 -0.27253409D-02  0.14973779D-16  0.14519529D-16  0.97947882D-17 -0.43188146D-03
  0.74405668D-03 -0.30931781D-17 -0.44860190D-03  0.84708272D-03  0.44925571D-17
 -0.23559803D-04  0.46611561D-04 -0.45790223D-18  0.74158734D-05  0.74315041D-03
 -0.75056629D-03 -0.14183050D-02  0.28105851D-18  0.51887548D-18  0.52107210D-04
 -0.37136143D-03  0.31925422D-03  0.79882159D-03 -0.39405092D-17  0.81444001D-17
  0.32676519D-04 -0.10523778D-03  0.72561263D-04  0.20222889D-03  0.63178053D-18
 -0.21795445D-17 -0.60923090D-04  0.14943934D-04  0.37470853D-17  0.26835746D-03
 -0.93886674D-04 -0.72182213D-17 -0.85588191D-04  0.49054872D-04 -0.40230346D-17
  0.10940602D-16  0.71500639D-04  0.36525881D-04  0.77979869D-18 -0.33731790D-03
  0.69440401D-04 -0.77074684D-19  0.12281598D-03 -0.17901804D-03 -0.22623214D-17
  0.31564033D-17 -0.35259542D+00 -0.65719250D+00 -0.11143807D+01 -0.16866671D+01
 -0.21044681D+01 -0.18074575D+01 -0.69391807D+00  0.31039381D-02  0.37336788D-03
  0.70026072D-03  0.11937910D-02  0.18656630D-02  0.24947469D-02  0.26638081D-02
  0.16286000D-02 -0.10744514D-02 -0.35161500D-01  0.13728033D-02  0.50641561D-03
 -0.24085140D-02 -0.23354484D-02 -0.15754797D-02 -0.41663637D-02 -0.40399714D-02
 -0.27253408D-02 -0.28667908D-16 -0.27798228D-16 -0.18752520D-16  0.43188144D-03
  0.74405665D-03  0.46568306D-17  0.44860188D-03  0.84708268D-03 -0.82495385D-17
  0.23559802D-04  0.46611560D-04  0.22256857D-18 -0.74158738D-05 -0.74315038D-03
  0.75056625D-03 -0.14183049D-02  0.33962743D-17 -0.26192705D-16 -0.52107206D-04
  0.37136141D-03 -0.31925421D-03  0.79882155D-03  0.29591237D-17  0.92485888D-17
 -0.32676518D-04  0.10523778D-03 -0.72561261D-04  0.20222888D-03 -0.19735458D-17
 -0.32991358D-17  0.60923088D-04  0.14943938D-04 -0.43066487D-17 -0.26835745D-03
 -0.93886677D-04  0.10392975D-16  0.85588190D-04  0.49054864D-04  0.25269709D-17
  0.15250534D-16 -0.71500635D-04  0.36525878D-04 -0.40277877D-18  0.33731788D-03
  0.69440400D-04 -0.92786785D-18 -0.12281598D-03 -0.17901803D-03  0.21362042D-17
  0.18219408D-17 -0.44339959D-09 -0.82643978D-09 -0.14013680D-08 -0.21210358D-08
 -0.26464334D-08 -0.22729333D-08 -0.87262330D-09  0.39032976D-11  0.61865734D-12
  0.11603072D-11  0.19780694D-11  0.30913374D-11  0.41337071D-11  0.44138354D-11
  0.26985324D-11 -0.17803278D-11 -0.45193228D-10 -0.11208429D-11  0.12783380D-11
  0.96524635D-11  0.93596427D-11  0.63139597D-11  0.64271713D-05  0.62321942D-05
  0.42042014D-05  0.25862254D-17  0.25077687D-17  0.16917259D-17 -0.31779061D-11
 -0.41744058D-05 -0.98233609D-20 -0.41726525D-11  0.69944350D-04 -0.33406444D-18
 -0.35236208D-12  0.58003379D-05 -0.38017576D-19 -0.51338409D-11  0.33728900D-11
  0.17609509D-11 -0.14433648D-03 -0.28380464D-17  0.76197017D-17  0.31898495D-11
 -0.18658426D-11 -0.13240069D-11  0.65643392D-04  0.56947709D-18  0.13672613D-18
  0.12307741D-11 -0.38841468D-12 -0.84235940D-12 -0.36580814D-04  0.20499069D-18
 -0.51983910D-19  0.87539876D-12 -0.29710709D-04 -0.42855175D-18 -0.38051432D-11
  0.18802428D-03  0.32543855D-18  0.11789470D-11 -0.98892150D-04  0.96021668D-18
  0.65148248D-18 -0.98677644D-12  0.80703504D-05  0.21617541D-18  0.18454042D-11
 -0.57929725D-04 -0.35391954D-18  0.11149251D-11  0.33718674D-04 -0.29460669D-18
  0.98351761D-19
MO    3     MO 0.0        OCC NO =    2.0000000  ORB. ENERGY =  -18.758571
  0.19518915D-03  0.36519595D-03  0.63058555D-03  0.10198179D-02  0.15392079D-02
  0.21087625D-02  0.24369492D-02  0.20479514D-02  0.89955001D-03  0.10281708D-03
 -0.13857320D-05  0.86188657D-06  0.42396183D-07 -0.37720806D-03 -0.70552817D-03
 -0.12215839D-02 -0.19835667D-02 -0.30462949D-02 -0.43325307D-02 -0.55124495D-02
 -0.57128383D-02 -0.38123140D-02  0.37546432D-03  0.28679356D-02  0.14725676D-02
 -0.64593604D-05  0.22196450D-03  0.41478974D-03  0.71926010D-03  0.11663572D-02
  0.17978149D-02  0.25581924D-02  0.32941780D-02  0.34630110D-02  0.24276769D-02
 -0.28187501D-03 -0.22819573D-02 -0.21476319D-02  0.10473125D-02 -0.42631499D-03
  0.16481774D-02  0.14993185D-03 -0.15252650D-01 -0.19953378D-01 -0.21829694D-01
 -0.17981615D-01 -0.96143594D-02 -0.26565408D-02  0.21774472D-05 -0.63899638D-09
 -0.83592921D-09 -0.91453585D-09 -0.75332396D-09 -0.40278513D-09 -0.11129344D-09
  0.91222234D-13 -0.88769734D-16 -0.11612775D-15 -0.12704783D-15 -0.10465219D-15
 -0.55955136D-16 -0.15460947D-16  0.12672644D-19  0.14112327D-01  0.18690453D-01
  0.20647930D-01  0.17685015D-01  0.96478449D-02  0.29654946D-02 -0.12910725D-02
  0.59126764D-09  0.78307854D-09  0.86509143D-09  0.74095345D-09  0.40421815D-09
  0.12424606D-09 -0.54092384D-10 -0.40284267D-17 -0.53352733D-17 -0.58940438D-17
 -0.50482665D-17 -0.27540204D-17 -0.84651366D-18  0.36854241D-18  0.13405216D-03
  0.55771010D-11 -0.31533405D-18 -0.21739943D-03 -0.89814551D-11  0.80884153D-19
 -0.19054670D-05 -0.80867392D-13  0.10331045D-20 -0.71629095D-04  0.29062604D-03
 -0.21899694D-03  0.15117139D-10  0.20376682D-19 -0.42509338D-19 -0.22771394D-03
  0.53746287D-03 -0.30974893D-03  0.32102762D-10  0.21722294D-18  0.12424697D-19
  0.75726941D-06  0.10689546D-04 -0.11446815D-04  0.39646938D-12  0.17106048D-19
 -0.11303407D-19  0.35541069D-04 -0.17296923D-11  0.35158832D-20 -0.27159913D-03
 -0.17188556D-11  0.15491394D-18  0.16497592D-03  0.69079325D-11 -0.16546159D-18
 -0.31069397D-19  0.23453552D-04 -0.44136503D-13 -0.12140518D-19 -0.74487774D-04
 -0.34020581D-13 -0.11894190D-19  0.41271170D-05  0.16643009D-12  0.48315743D-19
  0.16025113D-19  0.35221627D+00  0.65648581D+00  0.11131824D+01  0.16848534D+01
  0.21022052D+01  0.18055139D+01  0.69317188D+00 -0.31006004D-02 -0.36710402D-03
 -0.68851269D-03 -0.11737632D-02 -0.18343634D-02 -0.24528934D-02 -0.26191183D-02
 -0.16012776D-02  0.10564257D-02  0.35086323D-01 -0.14817281D-02 -0.47955467D-03
  0.23310364D-02  0.22603212D-02  0.15247993D-02 -0.40453884D-02 -0.39226660D-02
 -0.26462073D-02 -0.83982640D-17 -0.81434910D-17 -0.54935509D-17 -0.38753733D-03
  0.67587890D-03  0.86958983D-18 -0.45382012D-03  0.71159925D-03 -0.17927661D-18
 -0.23078227D-04  0.33800844D-04  0.17266797D-19 -0.10191211D-04  0.72831333D-03
 -0.71812212D-03 -0.11257418D-02 -0.24954296D-17 -0.97933664D-18  0.61409567D-04
 -0.34479352D-03  0.28338395D-03  0.63365259D-03  0.29022444D-18  0.32260042D-18
  0.18211801D-04 -0.61759241D-04  0.43547440D-04  0.17745493D-03 -0.12199753D-18
 -0.43814610D-19 -0.35958423D-04 -0.64565912D-04 -0.26684686D-18  0.12957719D-03
  0.51188904D-04  0.14814879D-17 -0.21701920D-04  0.14250883D-03 -0.68094728D-18
 -0.16669562D-17  0.60838317D-04  0.50779253D-04  0.37503868D-19 -0.25881334D-03
  0.15674925D-04 -0.91239413D-19  0.76298387D-04 -0.16801268D-03 -0.21272191D-19
  0.29885085D-19  0.35221629D+00  0.65648584D+00  0.11131825D+01  0.16848535D+01
  0.21022053D+01  0.18055140D+01  0.69317192D+00 -0.31006005D-02 -0.36710404D-03
 -0.68851273D-03 -0.11737633D-02 -0.18343635D-02 -0.24528935D-02 -0.26191184D-02
 -0.16012776D-02  0.10564257D-02  0.35086325D-01 -0.14817282D-02 -0.47955470D-03
  0.23310365D-02  0.22603213D-02  0.15247994D-02  0.40453886D-02  0.39226662D-02
  0.26462074D-02 -0.69061689D-17 -0.66966608D-17 -0.45175278D-17 -0.38753735D-03
 -0.67587893D-03  0.13001201D-17 -0.45382014D-03 -0.71159930D-03 -0.35588631D-18
 -0.23078229D-04 -0.33800847D-04  0.11173350D-21 -0.10191211D-04  0.72831336D-03
 -0.71812215D-03  0.11257418D-02 -0.68745451D-17  0.10073738D-16  0.61409570D-04
 -0.34479354D-03  0.28338397D-03 -0.63365264D-03  0.89198611D-18 -0.64134527D-18
  0.18211802D-04 -0.61759246D-04  0.43547444D-04 -0.17745494D-03 -0.16871240D-18
 -0.31487774D-19 -0.35958426D-04  0.64565911D-04 -0.34714586D-18  0.12957720D-03
 -0.51188899D-04 -0.11532605D-18 -0.21701925D-04 -0.14250883D-03  0.11567636D-17
  0.16699615D-18  0.60838321D-04 -0.50779255D-04  0.41407831D-19 -0.25881336D-03
 -0.15674928D-04 -0.53440769D-19  0.76298393D-04  0.16801269D-03 -0.70782724D-19
 -0.23727309D-19 -0.22934158D-01 -0.42746320D-01 -0.72483595D-01 -0.10970730D+00
 -0.13688268D+00 -0.11756396D+00 -0.45135091D-01  0.20189203D-03  0.30142659D-04
  0.56533304D-04  0.96376890D-04  0.15061832D-03  0.20140539D-03  0.21505400D-03
  0.13147980D-03 -0.86742387D-04 -0.23244089D-02 -0.21076051D-04  0.59256572D-04
  0.45131476D-03  0.43762350D-03  0.29521823D-03 -0.19026620D-12 -0.18449421D-12
 -0.12445870D-12 -0.60719959D-18 -0.58877935D-18 -0.39718707D-18 -0.13622170D-03
  0.12909832D-12  0.88359201D-19 -0.17601632D-03 -0.18244265D-11 -0.15832038D-18
 -0.14670770D-04 -0.13877963D-12 -0.22331361D-19 -0.21724975D-03  0.13681809D-03
  0.80431663D-04  0.37204033D-11  0.10104698D-18  0.25217265D-18  0.13285730D-03
 -0.76589025D-04 -0.56268277D-04 -0.16939121D-11  0.39527824D-18 -0.46503952D-19
  0.49854340D-04 -0.16201586D-04 -0.33652753D-04  0.94761623D-12  0.67634618D-19
  0.14398646D-19  0.35328220D-04  0.77646658D-12 -0.14926565D-18 -0.14949625D-03
 -0.48514409D-11  0.21531353D-18  0.43511587D-04  0.25220412D-11  0.23248343D-18
 -0.29555431D-19 -0.40492046D-04 -0.21012928D-12  0.83999879D-19  0.74854088D-04
  0.14910414D-11 -0.22793743D-18  0.46622050D-04 -0.86065353D-12 -0.24062208D-19
  0.22261783D-19
MO    4     MO 0.0        OCC NO =    2.0000000  ORB. ENERGY =  -18.758559
  0.15193991D-03  0.28427727D-03  0.49086289D-03  0.79385068D-03  0.11981563D-02
  0.16415112D-02  0.18969796D-02  0.15941744D-02  0.70023126D-03  0.80035278D-04
 -0.10786869D-05  0.67091313D-06  0.33002204D-07 -0.29362624D-03 -0.54919714D-03
 -0.95090516D-03 -0.15440477D-02 -0.23712965D-02 -0.33725279D-02 -0.42910001D-02
 -0.44469868D-02 -0.29675809D-02  0.29226888D-03  0.22324580D-02  0.11462758D-02
 -0.50280944D-05  0.17278059D-03  0.32287873D-03  0.55988316D-03  0.90791044D-03
  0.13994469D-02  0.19913365D-02  0.25642390D-02  0.26956612D-02  0.18897412D-02
 -0.21941586D-03 -0.17763108D-02 -0.16717498D-02  0.81524424D-03 -0.33188826D-03
  0.12830130D-02  0.11671232D-03  0.19593946D-01  0.25632621D-01  0.28042986D-01
  0.23099645D-01  0.12350853D-01  0.34126605D-02 -0.27972046D-05 -0.73234997D-11
 -0.95805352D-11 -0.10481441D-10 -0.86338014D-11 -0.46162966D-11 -0.12755275D-11
  0.10454926D-14  0.25126422D-15  0.32870155D-15  0.35961102D-15  0.29621977D-15
  0.15838195D-15  0.43762470D-16 -0.35870131D-19 -0.18129001D-01 -0.24010162D-01
 -0.26524779D-01 -0.22718554D-01 -0.12393831D-01 -0.38095386D-02  0.16585397D-02
  0.67780135D-11  0.89768433D-11  0.99170004D-11  0.84939411D-11  0.46337663D-11
  0.14242983D-11 -0.62008959D-12 -0.17705379D-15 -0.23449114D-15 -0.25904972D-15
 -0.22187687D-15 -0.12104223D-15 -0.37205208D-16  0.16197845D-16 -0.17226263D-03
  0.62623724D-13  0.76673445D-18  0.27928921D-03 -0.98327547D-13 -0.28827372D-18
  0.24486245D-05 -0.95904329D-15 -0.96688003D-20  0.31783991D-03 -0.14735843D-03
 -0.17048149D-03  0.17158684D-12 -0.50144027D-18  0.82695862D-19  0.61193816D-03
 -0.37082430D-03 -0.24111386D-03  0.36969966D-12 -0.41232080D-19 -0.15212780D-18
  0.10830996D-04 -0.19203478D-05 -0.89106482D-05  0.38435924D-14 -0.63199488D-19
  0.13000568D-19  0.11275860D-03 -0.19844025D-13  0.37478853D-19 -0.12632515D-03
 -0.19492471D-13 -0.13027211D-18 -0.21195064D-03  0.79024548D-13  0.17835555D-19
  0.13339176D-18  0.20388745D-04 -0.50586915D-15  0.32423091D-19 -0.55860823D-04
 -0.14097042D-15 -0.96996580D-19 -0.53054136D-05  0.16585779D-14 -0.27269259D-21
 -0.38032090D-19  0.16207656D-01  0.30208986D-01  0.51224430D-01  0.77530561D-01
  0.96735504D-01  0.83082897D-01  0.31897140D-01 -0.14267786D-03 -0.12601588D-04
 -0.23634590D-04 -0.40291795D-04 -0.62968233D-04 -0.84200525D-04 -0.89906530D-04
 -0.54967090D-04  0.36263947D-04  0.15871697D-02 -0.14903889D-03 -0.27899343D-05
  0.60554399D-04  0.58717398D-04  0.39610410D-04 -0.96145153D-04 -0.93228457D-04
 -0.62891366D-04  0.33992196D-18  0.32960996D-18  0.22235293D-18  0.90044781D-05
 -0.21296163D-04  0.12512245D-18  0.63653410D-04 -0.14620472D-04  0.14806407D-19
  0.66234436D-05 -0.35467048D-05 -0.14312372D-19  0.78020640D-04 -0.68118023D-04
 -0.99026167D-05  0.55849525D-04  0.13289755D-17 -0.24635841D-17 -0.31881007D-04
  0.44849644D-04 -0.12968637D-04 -0.43197013D-04 -0.17030847D-18 -0.52948269D-18
  0.13461789D-04  0.57285972D-05 -0.19190386D-04 -0.36607730D-04  0.89375951D-19
  0.69928865D-19  0.47904509D-04  0.36531030D-04 -0.59638618D-19 -0.64096956D-04
 -0.11229222D-03 -0.46195093D-18 -0.79616570D-04  0.26991253D-05  0.64086679D-18
  0.22675892D-18 -0.15636727D-04 -0.17488133D-04 -0.63360875D-19  0.34645325D-04