 Molden2AIM, Version 4.0.0 (06/02/2016)           Time: Thu Jun 28 18:07:07 2018
GAUSSIAN             52 MOL ORBITALS    789 PRIMITIVES        3 NUCLEI
  Se   1    (CENTRE  1)   0.00000000  0.00000000  1.30671727  CHARGE = 34.0
  Br   2    (CENTRE  2)   0.00000000  3.42606779 -1.42918664  CHARGE = 35.0
  Br   3    (CENTRE  3)   0.00000000 -3.42606779 -1.42918664  CHARGE = 35.0
CENTRE ASSIGNMENTS    1  1  1  1  1  1  1  1  1  1  1  1  1  1  1  1  1  1  1  1
CENTRE ASSIGNMENTS    1  1  1  1  1  1  1  1  1  1  1  1  1  1  1  1  1  1  1  1
CENTRE ASSIGNMENTS    1  1  1  1  1  1  1  1  1  1  1  1  1  1  1  1  1  1  1  1
CENTRE ASSIGNMENTS    1  1  1  1  1  1  1  1  1  1  1  1  1  1  1  1  1  1  1  1
CENTRE ASSIGNMENTS    1  1  1  1  1  1  1  1  1  1  1  1  1  1  1  1  1  1  1  1
CENTRE ASSIGNMENTS    1  1  1  1  1  1  1  1  1  1  1  1  1  1  1  1  1  1  1  1
CENTRE ASSIGNMENTS    1  1  1  1  1  1  1  1  1  1  1  1  1  1  1  1  1  1  1  1
CENTRE ASSIGNMENTS    1  1  1  1  1  1  1  1  1  1  1  1  1  1  1  1  1  1  1  1
CENTRE ASSIGNMENTS    1  1  1  1  1  1  1  1  1  1  1  1  1  1  1  1  1  1  1  1
CENTRE ASSIGNMENTS    1  1  1  1  1  1  1  1  1  1  1  1  1  1  1  1  1  1  1  1
CENTRE ASSIGNMENTS    1  1  1  1  1  1  1  1  1  1  1  1  1  1  1  1  1  1  1  1
CENTRE ASSIGNMENTS    1  1  1  1  1  1  1  1  1  1  1  1  1  1  1  1  1  1  1  1
CENTRE ASSIGNMENTS    1  1  1  1  1  1  1  1  1  1  1  1  1  1  1  1  1  1  1  1
CENTRE ASSIGNMENTS    1  1  1  2  2  2  2  2  2  2  2  2  2  2  2  2  2  2  2  2
CENTRE ASSIGNMENTS    2  2  2  2  2  2  2  2  2  2  2  2  2  2  2  2  2  2  2  2
CENTRE ASSIGNMENTS    2  2  2  2  2  2  2  2  2  2  2  2  2  2  2  2  2  2  2  2
CENTRE ASSIGNMENTS    2  2  2  2  2  2  2  2  2  2  2  2  2  2  2  2  2  2  2  2
CENTRE ASSIGNMENTS    2  2  2  2  2  2  2  2  2  2  2  2  2  2  2  2  2  2  2  2
CENTRE ASSIGNMENTS    2  2  2  2  2  2  2  2  2  2  2  2  2  2  2  2  2  2  2  2
CENTRE ASSIGNMENTS    2  2  2  2  2  2  2  2  2  2  2  2  2  2  2  2  2  2  2  2
CENTRE ASSIGNMENTS    2  2  2  2  2  2  2  2  2  2  2  2  2  2  2  2  2  2  2  2
CENTRE ASSIGNMENTS    2  2  2  2  2  2  2  2  2  2  2  2  2  2  2  2  2  2  2  2
CENTRE ASSIGNMENTS    2  2  2  2  2  2  2  2  2  2  2  2  2  2  2  2  2  2  2  2
CENTRE ASSIGNMENTS    2  2  2  2  2  2  2  2  2  2  2  2  2  2  2  2  2  2  2  2
CENTRE ASSIGNMENTS    2  2  2  2  2  2  2  2  2  2  2  2  2  2  2  2  2  2  2  2
CENTRE ASSIGNMENTS    2  2  2  2  2  2  2  2  2  2  2  2  2  2  2  2  2  2  2  2
CENTRE ASSIGNMENTS    2  2  2  2  2  2  3  3  3  3  3  3  3  3  3  3  3  3  3  3
CENTRE ASSIGNMENTS    3  3  3  3  3  3  3  3  3  3  3  3  3  3  3  3  3  3  3  3
CENTRE ASSIGNMENTS    3  3  3  3  3  3  3  3  3  3  3  3  3  3  3  3  3  3  3  3
CENTRE ASSIGNMENTS    3  3  3  3  3  3  3  3  3  3  3  3  3  3  3  3  3  3  3  3
CENTRE ASSIGNMENTS    3  3  3  3  3  3  3  3  3  3  3  3  3  3  3  3  3  3  3  3
CENTRE ASSIGNMENTS    3  3  3  3  3  3  3  3  3  3  3  3  3  3  3  3  3  3  3  3
CENTRE ASSIGNMENTS    3  3  3  3  3  3  3  3  3  3  3  3  3  3  3  3  3  3  3  3
CENTRE ASSIGNMENTS    3  3  3  3  3  3  3  3  3  3  3  3  3  3  3  3  3  3  3  3
CENTRE ASSIGNMENTS    3  3  3  3  3  3  3  3  3  3  3  3  3  3  3  3  3  3  3  3
CENTRE ASSIGNMENTS    3  3  3  3  3  3  3  3  3  3  3  3  3  3  3  3  3  3  3  3
CENTRE ASSIGNMENTS    3  3  3  3  3  3  3  3  3  3  3  3  3  3  3  3  3  3  3  3
CENTRE ASSIGNMENTS    3  3  3  3  3  3  3  3  3  3  3  3  3  3  3  3  3  3  3  3
CENTRE ASSIGNMENTS    3  3  3  3  3  3  3  3  3  3  3  3  3  3  3  3  3  3  3  3
CENTRE ASSIGNMENTS    3  3  3  3  3  3  3  3  3
TYPE ASSIGNMENTS      1  1  1  1  1  1  1  1  1  1  1  1  1  1  1  1  1  1  1  1
TYPE ASSIGNMENTS      1  1  1  1  1  1  1  1  1  1  1  1  1  1  1  1  1  1  1  1
TYPE ASSIGNMENTS      1  1  1  1  1  1  1  1  1  1  1  1  1  1  1  1  1  1  1  1
TYPE ASSIGNMENTS      1  1  1  1  1  1  1  1  1  1  1  1  1  1  1  2  2  2  2  2
TYPE ASSIGNMENTS      2  2  2  2  2  2  3  3  3  3  3  3  3  3  3  3  3  4  4  4
TYPE ASSIGNMENTS      4  4  4  4  4  4  4  4  2  2  2  2  2  2  2  2  2  2  2  3
TYPE ASSIGNMENTS      3  3  3  3  3  3  3  3  3  3  4  4  4  4  4  4  4  4  4  4
TYPE ASSIGNMENTS      4  2  2  2  2  2  2  2  2  2  2  2  3  3  3  3  3  3  3  3
TYPE ASSIGNMENTS      3  3  3  4  4  4  4  4  4  4  4  4  4  4  2  3  4  2  3  4
TYPE ASSIGNMENTS      2  3  4  5  5  5  5  5  5  5  6  6  6  6  6  6  6  7  7  7
TYPE ASSIGNMENTS      7  7  7  7  8  8  8  8  8  8  8  9  9  9  9  9  9  9 10 10
TYPE ASSIGNMENTS     10 10 10 10 10  5  6  7  8  9 10  5  6  7  8  9 10  5  6  7
TYPE ASSIGNMENTS      8  9 10 11 12 13 17 14 15 18 19 16 20 11 12 13 17 14 15 18
TYPE ASSIGNMENTS     19 16 20  1  1  1  1  1  1  1  1  1  1  1  1  1  1  1  1  1
TYPE ASSIGNMENTS      1  1  1  1  1  1  1  1  1  1  1  1  1  1  1  1  1  1  1  1
TYPE ASSIGNMENTS      1  1  1  1  1  1  1  1  1  1  1  1  1  1  1  1  1  1  1  1
TYPE ASSIGNMENTS      1  1  1  1  1  1  1  1  1  1  1  1  1  1  1  1  1  1  2  2
TYPE ASSIGNMENTS      2  2  2  2  2  2  2  2  2  3  3  3  3  3  3  3  3  3  3  3
TYPE ASSIGNMENTS      4  4  4  4  4  4  4  4  4  4  4  2  2  2  2  2  2  2  2  2
TYPE ASSIGNMENTS      2  2  3  3  3  3  3  3  3  3  3  3  3  4  4  4  4  4  4  4
TYPE ASSIGNMENTS      4  4  4  4  2  2  2  2  2  2  2  2  2  2  2  3  3  3  3  3
TYPE ASSIGNMENTS      3  3  3  3  3  3  4  4  4  4  4  4  4  4  4  4  4  2  3  4
TYPE ASSIGNMENTS      2  3  4  2  3  4  5  5  5  5  5  5  5  6  6  6  6  6  6  6
TYPE ASSIGNMENTS      7  7  7  7  7  7  7  8  8  8  8  8  8  8  9  9  9  9  9  9
TYPE ASSIGNMENTS      9 10 10 10 10 10 10 10  5  6  7  8  9 10  5  6  7  8  9 10
TYPE ASSIGNMENTS      5  6  7  8  9 10 11 12 13 17 14 15 18 19 16 20 11 12 13 17
TYPE ASSIGNMENTS     14 15 18 19 16 20  1  1  1  1  1  1  1  1  1  1  1  1  1  1
TYPE ASSIGNMENTS      1  1  1  1  1  1  1  1  1  1  1  1  1  1  1  1  1  1  1  1
TYPE ASSIGNMENTS      1  1  1  1  1  1  1  1  1  1  1  1  1  1  1  1  1  1  1  1
TYPE ASSIGNMENTS      1  1  1  1  1  1  1  1  1  1  1  1  1  1  1  1  1  1  1  1
TYPE ASSIGNMENTS      1  2  2  2  2  2  2  2  2  2  2  2  3  3  3  3  3  3  3  3
TYPE ASSIGNMENTS      3  3  3  4  4  4  4  4  4  4  4  4  4  4  2  2  2  2  2  2
TYPE ASSIGNMENTS      2  2  2  2  2  3  3  3  3  3  3  3  3  3  3  3  4  4  4  4
TYPE ASSIGNMENTS      4  4  4  4  4  4  4  2  2  2  2  2  2  2  2  2  2  2  3  3
TYPE ASSIGNMENTS      3  3  3  3  3  3  3  3  3  4  4  4  4  4  4  4  4  4  4  4
TYPE ASSIGNMENTS      2  3  4  2  3  4  2  3  4  5  5  5  5  5  5  5  6  6  6  6
TYPE ASSIGNMENTS      6  6  6  7  7  7  7  7  7  7  8  8  8  8  8  8  8  9  9  9
TYPE ASSIGNMENTS      9  9  9  9 10 10 10 10 10 10 10  5  6  7  8  9 10  5  6  7
TYPE ASSIGNMENTS      8  9 10  5  6  7  8  9 10 11 12 13 17 14 15 18 19 16 20 11
TYPE ASSIGNMENTS     12 13 17 14 15 18 19 16 20
EXPONENTS  0.9563600D+07 0.1432100D+07 0.3259100D+06 0.9231200D+05 0.3011600D+05
EXPONENTS  0.1087200D+05 0.4240100D+04 0.1758400D+04 0.7665900D+03 0.3484300D+03
EXPONENTS  0.1640300D+03 0.7914200D+02 0.3552400D+02 0.1730500D+02 0.8378400D+01
EXPONENTS  0.3740500D+01 0.1689000D+01 0.2552000D+00 0.9563600D+07 0.1432100D+07
EXPONENTS  0.3259100D+06 0.9231200D+05 0.3011600D+05 0.1087200D+05 0.4240100D+04
EXPONENTS  0.1758400D+04 0.7665900D+03 0.3484300D+03 0.1640300D+03 0.7914200D+02
EXPONENTS  0.3552400D+02 0.1730500D+02 0.8378400D+01 0.3740500D+01 0.1689000D+01
EXPONENTS  0.2552000D+00 0.9563600D+07 0.1432100D+07 0.3259100D+06 0.9231200D+05
EXPONENTS  0.3011600D+05 0.1087200D+05 0.4240100D+04 0.1758400D+04 0.7665900D+03
EXPONENTS  0.3484300D+03 0.1640300D+03 0.7914200D+02 0.3552400D+02 0.1730500D+02
EXPONENTS  0.8378400D+01 0.3740500D+01 0.1689000D+01 0.2552000D+00 0.9563600D+07
EXPONENTS  0.1432100D+07 0.3259100D+06 0.9231200D+05 0.3011600D+05 0.1087200D+05
EXPONENTS  0.4240100D+04 0.1758400D+04 0.7665900D+03 0.3484300D+03 0.1640300D+03
EXPONENTS  0.7914200D+02 0.3552400D+02 0.1730500D+02 0.8378400D+01 0.3740500D+01
EXPONENTS  0.1689000D+01 0.2552000D+00 0.5092700D+00 0.1065100D+00 0.3920100D-01
EXPONENTS  0.8004300D+04 0.1896900D+04 0.6147100D+03 0.2335000D+03 0.9785600D+02
EXPONENTS  0.4351400D+02 0.2006300D+02 0.9112700D+01 0.4106300D+01 0.1794900D+01
EXPONENTS  0.2461500D+00 0.8004300D+04 0.1896900D+04 0.6147100D+03 0.2335000D+03
EXPONENTS  0.9785600D+02 0.4351400D+02 0.2006300D+02 0.9112700D+01 0.4106300D+01
EXPONENTS  0.1794900D+01 0.2461500D+00 0.8004300D+04 0.1896900D+04 0.6147100D+03
EXPONENTS  0.2335000D+03 0.9785600D+02 0.4351400D+02 0.2006300D+02 0.9112700D+01
EXPONENTS  0.4106300D+01 0.1794900D+01 0.2461500D+00 0.8004300D+04 0.1896900D+04
EXPONENTS  0.6147100D+03 0.2335000D+03 0.9785600D+02 0.4351400D+02 0.2006300D+02
EXPONENTS  0.9112700D+01 0.4106300D+01 0.1794900D+01 0.2461500D+00 0.8004300D+04
EXPONENTS  0.1896900D+04 0.6147100D+03 0.2335000D+03 0.9785600D+02 0.4351400D+02
EXPONENTS  0.2006300D+02 0.9112700D+01 0.4106300D+01 0.1794900D+01 0.2461500D+00
EXPONENTS  0.8004300D+04 0.1896900D+04 0.6147100D+03 0.2335000D+03 0.9785600D+02
EXPONENTS  0.4351400D+02 0.2006300D+02 0.9112700D+01 0.4106300D+01 0.1794900D+01
EXPONENTS  0.2461500D+00 0.8004300D+04 0.1896900D+04 0.6147100D+03 0.2335000D+03
EXPONENTS  0.9785600D+02 0.4351400D+02 0.2006300D+02 0.9112700D+01 0.4106300D+01
EXPONENTS  0.1794900D+01 0.2461500D+00 0.8004300D+04 0.1896900D+04 0.6147100D+03
EXPONENTS  0.2335000D+03 0.9785600D+02 0.4351400D+02 0.2006300D+02 0.9112700D+01
EXPONENTS  0.4106300D+01 0.1794900D+01 0.2461500D+00 0.8004300D+04 0.1896900D+04
EXPONENTS  0.6147100D+03 0.2335000D+03 0.9785600D+02 0.4351400D+02 0.2006300D+02
EXPONENTS  0.9112700D+01 0.4106300D+01 0.1794900D+01 0.2461500D+00 0.6243200D+00
EXPONENTS  0.6243200D+00 0.6243200D+00 0.8891700D-01 0.8891700D-01 0.8891700D-01
EXPONENTS  0.3025100D-01 0.3025100D-01 0.3025100D-01 0.3618500D+03 0.1085500D+03
EXPONENTS  0.4143300D+02 0.1757900D+02 0.7862700D+01 0.3518000D+01 0.1534800D+01
EXPONENTS  0.3618500D+03 0.1085500D+03 0.4143300D+02 0.1757900D+02 0.7862700D+01
EXPONENTS  0.3518000D+01 0.1534800D+01 0.3618500D+03 0.1085500D+03 0.4143300D+02
EXPONENTS  0.1757900D+02 0.7862700D+01 0.3518000D+01 0.1534800D+01 0.3618500D+03
EXPONENTS  0.1085500D+03 0.4143300D+02 0.1757900D+02 0.7862700D+01 0.3518000D+01
EXPONENTS  0.1534800D+01 0.3618500D+03 0.1085500D+03 0.4143300D+02 0.1757900D+02
EXPONENTS  0.7862700D+01 0.3518000D+01 0.1534800D+01 0.3618500D+03 0.1085500D+03
EXPONENTS  0.4143300D+02 0.1757900D+02 0.7862700D+01 0.3518000D+01 0.1534800D+01
EXPONENTS  0.6081300D+00 0.6081300D+00 0.6081300D+00 0.6081300D+00 0.6081300D+00
EXPONENTS  0.6081300D+00 0.2220000D+00 0.2220000D+00 0.2220000D+00 0.2220000D+00
EXPONENTS  0.2220000D+00 0.2220000D+00 0.8370000D-01 0.8370000D-01 0.8370000D-01
EXPONENTS  0.8370000D-01 0.8370000D-01 0.8370000D-01 0.4620000D+00 0.4620000D+00
EXPONENTS  0.4620000D+00 0.4620000D+00 0.4620000D+00 0.4620000D+00 0.4620000D+00
EXPONENTS  0.4620000D+00 0.4620000D+00 0.4620000D+00 0.1880000D+00 0.1880000D+00
EXPONENTS  0.1880000D+00 0.1880000D+00 0.1880000D+00 0.1880000D+00 0.1880000D+00
EXPONENTS  0.1880000D+00 0.1880000D+00 0.1880000D+00 0.1063900D+08 0.1593400D+07
EXPONENTS  0.3626100D+06 0.1027000D+06 0.3350100D+05 0.1209300D+05 0.4715900D+04
EXPONENTS  0.1955600D+04 0.8526100D+03 0.3876700D+03 0.1826800D+03 0.8824500D+02
EXPONENTS  0.3926300D+02 0.1923400D+02 0.9405700D+01 0.4160100D+01 0.1899500D+01
EXPONENTS  0.3011400D+00 0.1063900D+08 0.1593400D+07 0.3626100D+06 0.1027000D+06
EXPONENTS  0.3350100D+05 0.1209300D+05 0.4715900D+04 0.1955600D+04 0.8526100D+03
EXPONENTS  0.3876700D+03 0.1826800D+03 0.8824500D+02 0.3926300D+02 0.1923400D+02
EXPONENTS  0.9405700D+01 0.4160100D+01 0.1899500D+01 0.3011400D+00 0.1063900D+08
EXPONENTS  0.1593400D+07 0.3626100D+06 0.1027000D+06 0.3350100D+05 0.1209300D+05
EXPONENTS  0.4715900D+04 0.1955600D+04 0.8526100D+03 0.3876700D+03 0.1826800D+03
EXPONENTS  0.8824500D+02 0.3926300D+02 0.1923400D+02 0.9405700D+01 0.4160100D+01
EXPONENTS  0.1899500D+01 0.3011400D+00 0.1063900D+08 0.1593400D+07 0.3626100D+06
EXPONENTS  0.1027000D+06 0.3350100D+05 0.1209300D+05 0.4715900D+04 0.1955600D+04
EXPONENTS  0.8526100D+03 0.3876700D+03 0.1826800D+03 0.8824500D+02 0.3926300D+02
EXPONENTS  0.1923400D+02 0.9405700D+01 0.4160100D+01 0.1899500D+01 0.3011400D+00
EXPONENTS  0.6047200D+00 0.1251500D+00 0.4559300D-01 0.8676500D+04 0.2055900D+04
EXPONENTS  0.6662300D+03 0.2531000D+03 0.1061200D+03 0.4724200D+02 0.2182500D+02
EXPONENTS  0.9968400D+01 0.4517100D+01 0.1998200D+01 0.2814500D+00 0.8676500D+04
EXPONENTS  0.2055900D+04 0.6662300D+03 0.2531000D+03 0.1061200D+03 0.4724200D+02
EXPONENTS  0.2182500D+02 0.9968400D+01 0.4517100D+01 0.1998200D+01 0.2814500D+00
EXPONENTS  0.8676500D+04 0.2055900D+04 0.6662300D+03 0.2531000D+03 0.1061200D+03
EXPONENTS  0.4724200D+02 0.2182500D+02 0.9968400D+01 0.4517100D+01 0.1998200D+01
EXPONENTS  0.2814500D+00 0.8676500D+04 0.2055900D+04 0.6662300D+03 0.2531000D+03
EXPONENTS  0.1061200D+03 0.4724200D+02 0.2182500D+02 0.9968400D+01 0.4517100D+01
EXPONENTS  0.1998200D+01 0.2814500D+00 0.8676500D+04 0.2055900D+04 0.6662300D+03
EXPONENTS  0.2531000D+03 0.1061200D+03 0.4724200D+02 0.2182500D+02 0.9968400D+01
EXPONENTS  0.4517100D+01 0.1998200D+01 0.2814500D+00 0.8676500D+04 0.2055900D+04
EXPONENTS  0.6662300D+03 0.2531000D+03 0.1061200D+03 0.4724200D+02 0.2182500D+02
EXPONENTS  0.9968400D+01 0.4517100D+01 0.1998200D+01 0.2814500D+00 0.8676500D+04
EXPONENTS  0.2055900D+04 0.6662300D+03 0.2531000D+03 0.1061200D+03 0.4724200D+02
EXPONENTS  0.2182500D+02 0.9968400D+01 0.4517100D+01 0.1998200D+01 0.2814500D+00
EXPONENTS  0.8676500D+04 0.2055900D+04 0.6662300D+03 0.2531000D+03 0.1061200D+03
EXPONENTS  0.4724200D+02 0.2182500D+02 0.9968400D+01 0.4517100D+01 0.1998200D+01
EXPONENTS  0.2814500D+00 0.8676500D+04 0.2055900D+04 0.6662300D+03 0.2531000D+03
EXPONENTS  0.1061200D+03 0.4724200D+02 0.2182500D+02 0.9968400D+01 0.4517100D+01
EXPONENTS  0.1998200D+01 0.2814500D+00 0.7098800D+00 0.7098800D+00 0.7098800D+00
EXPONENTS  0.1020400D+00 0.1020400D+00 0.1020400D+00 0.3514200D-01 0.3514200D-01
EXPONENTS  0.3514200D-01 0.4038300D+03 0.1211700D+03 0.4634500D+02 0.1972100D+02
EXPONENTS  0.8862400D+01 0.3996200D+01 0.1763600D+01 0.4038300D+03 0.1211700D+03
EXPONENTS  0.4634500D+02 0.1972100D+02 0.8862400D+01 0.3996200D+01 0.1763600D+01
EXPONENTS  0.4038300D+03 0.1211700D+03 0.4634500D+02 0.1972100D+02 0.8862400D+01
EXPONENTS  0.3996200D+01 0.1763600D+01 0.4038300D+03 0.1211700D+03 0.4634500D+02
EXPONENTS  0.1972100D+02 0.8862400D+01 0.3996200D+01 0.1763600D+01 0.4038300D+03
EXPONENTS  0.1211700D+03 0.4634500D+02 0.1972100D+02 0.8862400D+01 0.3996200D+01
EXPONENTS  0.1763600D+01 0.4038300D+03 0.1211700D+03 0.4634500D+02 0.1972100D+02
EXPONENTS  0.8862400D+01 0.3996200D+01 0.1763600D+01 0.7061900D+00 0.7061900D+00
EXPONENTS  0.7061900D+00 0.7061900D+00 0.7061900D+00 0.7061900D+00 0.2639000D+00
EXPONENTS  0.2639000D+00 0.2639000D+00 0.2639000D+00 0.2639000D+00 0.2639000D+00
EXPONENTS  0.1047000D+00 0.1047000D+00 0.1047000D+00 0.1047000D+00 0.1047000D+00
EXPONENTS  0.1047000D+00 0.5515000D+00 0.5515000D+00 0.5515000D+00 0.5515000D+00
EXPONENTS  0.5515000D+00 0.5515000D+00 0.5515000D+00 0.5515000D+00 0.5515000D+00
EXPONENTS  0.5515000D+00 0.2580000D+00 0.2580000D+00 0.2580000D+00 0.2580000D+00
EXPONENTS  0.2580000D+00 0.2580000D+00 0.2580000D+00 0.2580000D+00 0.2580000D+00
EXPONENTS  0.2580000D+00 0.1063900D+08 0.1593400D+07 0.3626100D+06 0.1027000D+06
EXPONENTS  0.3350100D+05 0.1209300D+05 0.4715900D+04 0.1955600D+04 0.8526100D+03
EXPONENTS  0.3876700D+03 0.1826800D+03 0.8824500D+02 0.3926300D+02 0.1923400D+02
EXPONENTS  0.9405700D+01 0.4160100D+01 0.1899500D+01 0.3011400D+00 0.1063900D+08
EXPONENTS  0.1593400D+07 0.3626100D+06 0.1027000D+06 0.3350100D+05 0.1209300D+05
EXPONENTS  0.4715900D+04 0.1955600D+04 0.8526100D+03 0.3876700D+03 0.1826800D+03
EXPONENTS  0.8824500D+02 0.3926300D+02 0.1923400D+02 0.9405700D+01 0.4160100D+01
EXPONENTS  0.1899500D+01 0.3011400D+00 0.1063900D+08 0.1593400D+07 0.3626100D+06
EXPONENTS  0.1027000D+06 0.3350100D+05 0.1209300D+05 0.4715900D+04 0.1955600D+04
EXPONENTS  0.8526100D+03 0.3876700D+03 0.1826800D+03 0.8824500D+02 0.3926300D+02
EXPONENTS  0.1923400D+02 0.9405700D+01 0.4160100D+01 0.1899500D+01 0.3011400D+00
EXPONENTS  0.1063900D+08 0.1593400D+07 0.3626100D+06 0.1027000D+06 0.3350100D+05
EXPONENTS  0.1209300D+05 0.4715900D+04 0.1955600D+04 0.8526100D+03 0.3876700D+03
EXPONENTS  0.1826800D+03 0.8824500D+02 0.3926300D+02 0.1923400D+02 0.9405700D+01
EXPONENTS  0.4160100D+01 0.1899500D+01 0.3011400D+00 0.6047200D+00 0.1251500D+00
EXPONENTS  0.4559300D-01 0.8676500D+04 0.2055900D+04 0.6662300D+03 0.2531000D+03
EXPONENTS  0.1061200D+03 0.4724200D+02 0.2182500D+02 0.9968400D+01 0.4517100D+01
EXPONENTS  0.1998200D+01 0.2814500D+00 0.8676500D+04 0.2055900D+04 0.6662300D+03
EXPONENTS  0.2531000D+03 0.1061200D+03 0.4724200D+02 0.2182500D+02 0.9968400D+01
EXPONENTS  0.4517100D+01 0.1998200D+01 0.2814500D+00 0.8676500D+04 0.2055900D+04
EXPONENTS  0.6662300D+03 0.2531000D+03 0.1061200D+03 0.4724200D+02 0.2182500D+02
EXPONENTS  0.9968400D+01 0.4517100D+01 0.1998200D+01 0.2814500D+00 0.8676500D+04
EXPONENTS  0.2055900D+04 0.6662300D+03 0.2531000D+03 0.1061200D+03 0.4724200D+02
EXPONENTS  0.2182500D+02 0.9968400D+01 0.4517100D+01 0.1998200D+01 0.2814500D+00
EXPONENTS  0.8676500D+04 0.2055900D+04 0.6662300D+03 0.2531000D+03 0.1061200D+03
EXPONENTS  0.4724200D+02 0.2182500D+02 0.9968400D+01 0.4517100D+01 0.1998200D+01
EXPONENTS  0.2814500D+00 0.8676500D+04 0.2055900D+04 0.6662300D+03 0.2531000D+03
EXPONENTS  0.1061200D+03 0.4724200D+02 0.2182500D+02 0.9968400D+01 0.4517100D+01
EXPONENTS  0.1998200D+01 0.2814500D+00 0.8676500D+04 0.2055900D+04 0.6662300D+03
EXPONENTS  0.2531000D+03 0.1061200D+03 0.4724200D+02 0.2182500D+02 0.9968400D+01
EXPONENTS  0.4517100D+01 0.1998200D+01 0.2814500D+00 0.8676500D+04 0.2055900D+04
EXPONENTS  0.6662300D+03 0.2531000D+03 0.1061200D+03 0.4724200D+02 0.2182500D+02
EXPONENTS  0.9968400D+01 0.4517100D+01 0.1998200D+01 0.2814500D+00 0.8676500D+04
EXPONENTS  0.2055900D+04 0.6662300D+03 0.2531000D+03 0.1061200D+03 0.4724200D+02
EXPONENTS  0.2182500D+02 0.9968400D+01 0.4517100D+01 0.1998200D+01 0.2814500D+00
EXPONENTS  0.7098800D+00 0.7098800D+00 0.7098800D+00 0.1020400D+00 0.1020400D+00
EXPONENTS  0.1020400D+00 0.3514200D-01 0.3514200D-01 0.3514200D-01 0.4038300D+03
EXPONENTS  0.1211700D+03 0.4634500D+02 0.1972100D+02 0.8862400D+01 0.3996200D+01
EXPONENTS  0.1763600D+01 0.4038300D+03 0.1211700D+03 0.4634500D+02 0.1972100D+02
EXPONENTS  0.8862400D+01 0.3996200D+01 0.1763600D+01 0.4038300D+03 0.1211700D+03
EXPONENTS  0.4634500D+02 0.1972100D+02 0.8862400D+01 0.3996200D+01 0.1763600D+01
EXPONENTS  0.4038300D+03 0.1211700D+03 0.4634500D+02 0.1972100D+02 0.8862400D+01
EXPONENTS  0.3996200D+01 0.1763600D+01 0.4038300D+03 0.1211700D+03 0.4634500D+02
EXPONENTS  0.1972100D+02 0.8862400D+01 0.3996200D+01 0.1763600D+01 0.4038300D+03
EXPONENTS  0.1211700D+03 0.4634500D+02 0.1972100D+02 0.8862400D+01 0.3996200D+01
EXPONENTS  0.1763600D+01 0.7061900D+00 0.7061900D+00 0.7061900D+00 0.7061900D+00
EXPONENTS  0.7061900D+00 0.7061900D+00 0.2639000D+00 0.2639000D+00 0.2639000D+00
EXPONENTS  0.2639000D+00 0.2639000D+00 0.2639000D+00 0.1047000D+00 0.1047000D+00
EXPONENTS  0.1047000D+00 0.1047000D+00 0.1047000D+00 0.1047000D+00 0.5515000D+00
EXPONENTS  0.5515000D+00 0.5515000D+00 0.5515000D+00 0.5515000D+00 0.5515000D+00
EXPONENTS  0.5515000D+00 0.5515000D+00 0.5515000D+00 0.5515000D+00 0.2580000D+00
EXPONENTS  0.2580000D+00 0.2580000D+00 0.2580000D+00 0.2580000D+00 0.2580000D+00
EXPONENTS  0.2580000D+00 0.2580000D+00 0.2580000D+00 0.2580000D+00
MO    1     MO 0.0        OCC NO =    2.0000000  ORB. ENERGY = -482.157713
  0.20913159D-09  0.39075262D-09  0.67771147D-09  0.11102645D-08  0.17385861D-08
  0.26108926D-08  0.37238805D-08  0.49200005D-08  0.56739700D-08  0.51067550D-08
  0.28650165D-08  0.69263307D-09  0.32882785D-10 -0.56272328D-12  0.15826981D-12
 -0.61677493D-13  0.58339867D-14  0.57524337D-15 -0.44457015D-09 -0.81868285D-09
 -0.14210278D-08 -0.23273773D-08 -0.36631847D-08 -0.55290923D-08 -0.80598060D-08
 -0.11067807D-07 -0.14055974D-07 -0.15137392D-07 -0.12076327D-07 -0.27050009D-08
  0.72331116D-08  0.64322211D-08  0.12562389D-08  0.34800401D-10  0.25201267D-11
  0.51467883D-13  0.64570026D-09  0.11657520D-08  0.20293523D-08  0.33231500D-08
  0.52391353D-08  0.79057110D-08  0.11570596D-07  0.15942761D-07  0.20538548D-07
  0.22606483D-07  0.19030993D-07  0.45319605D-08 -0.15265385D-07 -0.20397755D-07
 -0.25059059D-08  0.87559756D-08  0.38651936D-08 -0.19182261D-10 -0.28385623D-09
 -0.61497137D-09 -0.10469082D-08 -0.17089241D-08 -0.26941921D-08 -0.40656872D-08
 -0.59504783D-08 -0.82083118D-08 -0.10587864D-07 -0.11705053D-07 -0.99133122D-08
 -0.24080094D-08  0.83543740D-08  0.11791241D-07  0.14068574D-08 -0.66119062D-08
 -0.52852624D-08  0.20023074D-08 -0.22705948D-10 -0.44560458D-08 -0.10364406D-08
  0.77816068D-15  0.11152847D-14  0.14727763D-14  0.16928821D-14  0.15573457D-14
  0.99627669D-15  0.34485001D-15  0.38769387D-16  0.49324110D-18  0.85470159D-19
  0.87341201D-21 -0.20231024D-03 -0.28995750D-03 -0.38290000D-03 -0.44012425D-03
 -0.40488680D-03 -0.25901718D-03 -0.89655891D-04 -0.10079466D-04 -0.12823538D-06
 -0.22220975D-07 -0.22707418D-09  0.79333505D-08  0.11370331D-07  0.15014959D-07
  0.17258938D-07  0.15877144D-07  0.10157044D-07  0.35157469D-08  0.39525402D-09
  0.50285945D-11  0.87136853D-12  0.89044381D-14  0.83821921D-15  0.12090652D-14
  0.16103184D-14  0.19057526D-14  0.18313566D-14  0.12587902D-14  0.39632349D-15
 -0.19153956D-15 -0.19656596D-15 -0.49502603D-16  0.53971800D-19  0.85969757D-03
  0.12400460D-02  0.16515808D-02  0.19545852D-02  0.18782829D-02  0.12910452D-02
  0.40647880D-03 -0.19644753D-03 -0.20160272D-03 -0.50771047D-04  0.55354762D-07
 -0.33338990D-07 -0.48088866D-07 -0.64048148D-07 -0.75798627D-07 -0.72839634D-07
 -0.50066608D-07 -0.15763209D-07  0.76182167D-08  0.78181344D-08  0.19688964D-08
 -0.21466524D-11 -0.91627506D-15 -0.13283120D-14 -0.17630020D-14 -0.21039742D-14
 -0.20214198D-14 -0.14148861D-14 -0.42721228D-15  0.26151765D-15  0.28125756D-15
  0.75639358D-16 -0.28195886D-16 -0.63727909D-03 -0.92385521D-03 -0.12261867D-02
 -0.14633366D-02 -0.14059190D-02 -0.98406839D-03 -0.29713071D-03  0.18188832D-03
  0.19561764D-03  0.52607982D-04 -0.19610539D-04  0.24237402D-07  0.35136646D-07
  0.46635110D-07  0.55654542D-07  0.53470803D-07  0.37426712D-07  0.11300663D-07
 -0.69176917D-08 -0.74398539D-08 -0.20008201D-08  0.74584045D-09 -0.15701718D-18
  0.11983992D-04 -0.54602304D-09 -0.13404171D-19 -0.51247005D-04  0.12108944D-08
  0.58064605D-21 -0.14458493D-05  0.42290442D-10  0.14740248D-08  0.15257565D-08
  0.12765505D-08  0.82373757D-09  0.37003418D-09  0.10804399D-09  0.18227684D-10
 -0.82148461D-09 -0.85031507D-09 -0.71143076D-09 -0.45907486D-09 -0.20622270D-09
 -0.60213692D-10 -0.10158419D-10 -0.65254020D-09 -0.67544147D-09 -0.56511975D-09
 -0.36466271D-09 -0.16381148D-09 -0.47830300D-10 -0.80692647D-11 -0.18817026D-18
 -0.19477420D-18 -0.16296119D-18 -0.10515624D-18 -0.47237622D-19 -0.13792621D-19
 -0.23268997D-20 -0.15373449D-19 -0.15912989D-19 -0.13313877D-19 -0.85912312D-20
 -0.38592985D-20 -0.11268527D-20 -0.19010696D-21  0.14521484D-03  0.15031124D-03
  0.12576049D-03  0.81151227D-04  0.36454241D-04  0.10644048D-04  0.17957162D-05
 -0.90612401D-10  0.48352484D-10  0.42259917D-10  0.10164367D-19  0.42350278D-20
 -0.85615962D-05  0.26553026D-09 -0.20955507D-09 -0.55975192D-10 -0.22168674D-20
 -0.18702712D-20  0.22022668D-04  0.80719637D-10 -0.34175686D-10 -0.46543951D-10
  0.37608222D-20  0.32620806D-21  0.90305140D-05 -0.37980711D-20  0.12949073D-05
 -0.54632074D-10  0.54588642D-20 -0.24170715D-05  0.31635774D-11  0.59353491D-20
 -0.14676504D-05  0.16073264D-09 -0.30956772D-21  0.17678284D-21 -0.61761127D-06
  0.62845111D-11  0.59982520D-22  0.24500409D-05 -0.49855178D-10 -0.59033105D-21
 -0.59720706D-06  0.31001644D-10  0.24253308D-21  0.55388677D+00  0.10419285D+01
  0.18036296D+01  0.29564939D+01  0.46314050D+01  0.69613962D+01  0.99495838D+01
  0.13208320D+02  0.15382882D+02  0.14129029D+02  0.82617987D+01  0.21679373D+01
  0.11852029D+00 -0.42420721D-02  0.11855253D-02 -0.35202246D-03  0.60013735D-04
  0.48962954D-05  0.29741101D-04  0.54643618D-04  0.94491409D-04  0.15474289D-03
  0.24363573D-03  0.36791382D-03  0.53704182D-03  0.73953920D-03  0.94493311D-03
  0.10300878D-02  0.84792088D-03  0.23249415D-03 -0.46895577D-03 -0.45701788D-03
 -0.10000839D-03 -0.33691905D-05 -0.11413741D-06  0.29035085D-09 -0.71403613D-04
 -0.13997968D-03 -0.24517094D-03 -0.40052954D-03 -0.63173156D-03 -0.95325472D-03
 -0.13976608D-02 -0.19297020D-02 -0.25018682D-02 -0.27822246D-02 -0.24165334D-02
 -0.70195972D-03  0.17696319D-02  0.25784784D-02  0.44389428D-03 -0.10829120D-02
 -0.51543880D-03  0.24892114D-05  0.24627994D-04  0.53362916D-04  0.90841902D-04
  0.14827845D-03  0.23374642D-03  0.35279086D-03  0.51724890D-03  0.71505989D-03
  0.92807599D-03  0.10368232D-02  0.90568852D-03  0.26826582D-03 -0.69733703D-03
 -0.10727401D-02 -0.18776227D-03  0.59228570D-03  0.50276098D-03 -0.18757563D-03
  0.17602333D-03  0.11122097D-03  0.22916233D-04 -0.61648022D-17 -0.88453997D-17
 -0.11711779D-16 -0.13523787D-16 -0.12537173D-16 -0.81167941D-17 -0.28649303D-17
 -0.33579453D-18 -0.48818309D-20 -0.71488980D-21 -0.73501774D-23  0.28624055D-05
  0.41070451D-05  0.54379461D-05  0.62792870D-05  0.58211879D-05  0.37687432D-05
  0.13302279D-05  0.15591418D-06  0.22667037D-08  0.33193352D-09  0.34127921D-11
  0.43469177D-04  0.62370573D-04  0.82581955D-04  0.95358760D-04  0.88401957D-04
  0.57233039D-04  0.20201161D-04  0.23677502D-05  0.34422706D-07  0.50408221D-08
  0.51827480D-10 -0.44422336D-17 -0.64124152D-17 -0.85668334D-17 -0.10177661D-16
 -0.98629336D-17 -0.68559969D-17 -0.22308756D-17  0.10040711D-17  0.10847318D-17
  0.27926087D-18 -0.27239319D-21 -0.43631544D-03 -0.62982636D-03 -0.84143295D-03
 -0.99964817D-03 -0.96873570D-03 -0.67339488D-03 -0.21911624D-03  0.98619694D-04
  0.10654217D-03  0.27428956D-04 -0.26754414D-07  0.17099955D-03  0.24683982D-03
  0.32977210D-03  0.39177937D-03  0.37966424D-03  0.26391508D-03  0.85875435D-04
 -0.38650761D-04 -0.41755717D-04 -0.10749881D-04  0.10485517D-07  0.16891709D-17
  0.24544402D-17  0.32632067D-17  0.39156222D-17  0.37883818D-17  0.26893100D-17
  0.83584430D-18 -0.47988907D-18 -0.55128601D-18 -0.14639884D-18  0.52821160D-19
  0.30650239D-03  0.44536158D-03  0.59211338D-03  0.71049507D-03  0.68740712D-03
  0.48797902D-03  0.15166510D-03 -0.87076536D-04 -0.10003161D-03 -0.26564273D-04
  0.95844726D-05 -0.12272137D-03 -0.17831960D-03 -0.23707797D-03 -0.28447715D-03
 -0.27523291D-03 -0.19538332D-03 -0.60725626D-04  0.34864824D-04  0.40051943D-04
  0.10636145D-04 -0.38375544D-05 -0.13981453D-18 -0.43179280D-05 -0.83060340D-06
 -0.12694014D-19 -0.31430470D-04  0.25716487D-04 -0.55633938D-21 -0.91854473D-06
  0.76974077D-06 -0.11348269D-03 -0.11874741D-03 -0.10117915D-03 -0.66634119D-04
 -0.30709682D-04 -0.91960638D-05 -0.15646323D-05  0.79822944D-04  0.83526110D-04
  0.71168716D-04  0.46869980D-04  0.21600978D-04  0.64684479D-05  0.11005516D-05
  0.33659748D-04  0.35221300D-04  0.30010433D-04  0.19764139D-04  0.91087031D-05
  0.27276159D-05  0.46408072D-06  0.45801793D-18  0.47926642D-18  0.40836064D-18
  0.26893635D-18  0.12394476D-18  0.37115458D-19  0.63148806D-20  0.21333377D-17
  0.22323081D-17  0.19020460D-17  0.12526411D-17  0.57730497D-18  0.17287491D-18
  0.29413200D-19 -0.22830622D-03 -0.23889786D-03 -0.20355377D-03 -0.13405554D-03
 -0.61782209D-04 -0.18500782D-04 -0.31477513D-05  0.72499637D-05 -0.48619753D-05
 -0.23879884D-05  0.16632241D-20 -0.22720996D-19  0.15886610D-04 -0.40678254D-05
  0.23658040D-05  0.17020214D-05 -0.78879275D-21  0.13968162D-19 -0.10480318D-04
 -0.23243283D-05  0.18710971D-05  0.45323117D-06  0.31098706D-20 -0.57292644D-20
 -0.69772783D-05  0.20697439D-20  0.11974902D-05  0.98053391D-06 -0.56485109D-20
 -0.83887110D-05  0.34346887D-05 -0.56072074D-21  0.47962403D-05 -0.63762905D-05
  0.16993746D-19  0.16270518D-20 -0.38268692D-06 -0.78613575D-06 -0.26181932D-20
  0.48442771D-05 -0.28379389D-05 -0.22629624D-20 -0.36962164D-05  0.51963461D-05
  0.28497053D-20 -0.55384265D+00 -0.10418455D+01 -0.18034859D+01 -0.29562585D+01
 -0.46310362D+01 -0.69608417D+01 -0.99487913D+01 -0.13207268D+02 -0.15381657D+02
 -0.14127903D+02 -0.82611407D+01 -0.21677647D+01 -0.11851085D+00  0.42417343D-02
 -0.11854309D-02  0.35199443D-03 -0.60008956D-04 -0.48959054D-05 -0.29739158D-04
 -0.54640048D-04 -0.94485235D-04 -0.15473278D-03 -0.24361980D-03 -0.36788977D-03
 -0.53700672D-03 -0.73949088D-03 -0.94487137D-03 -0.10300205D-02 -0.84786547D-03
 -0.23247896D-03  0.46892513D-03  0.45698802D-03  0.10000185D-03  0.33689704D-05
  0.11412995D-06 -0.29033187D-09  0.71398467D-04  0.13996959D-03  0.24515328D-03
  0.40050068D-03  0.63168604D-03  0.95318602D-03  0.13975601D-02  0.19295629D-02
  0.25016879D-02  0.27820241D-02  0.24163592D-02  0.70190914D-03 -0.17695044D-02
 -0.25782926D-02 -0.44386229D-03  0.10828339D-02  0.51540166D-03 -0.24890320D-05
 -0.24626281D-04 -0.53359205D-04 -0.90835585D-04 -0.14826813D-03 -0.23373017D-03
 -0.35276633D-03 -0.51721293D-03 -0.71501015D-03 -0.92801145D-03 -0.10367511D-02
 -0.90562553D-03 -0.26824716D-03  0.69728853D-03  0.10726655D-02  0.18774921D-03
 -0.59224450D-03 -0.50272602D-03  0.18756258D-03 -0.17601018D-03 -0.11121415D-03
 -0.22914872D-04  0.24322585D-17  0.34898603D-17  0.46207605D-17  0.53356692D-17
  0.49464108D-17  0.32023965D-17  0.11303284D-17  0.13248423D-18  0.19260755D-20
  0.28205232D-21  0.28999359D-23  0.28689023D-05  0.41163668D-05  0.54502885D-05
  0.62935390D-05  0.58344002D-05  0.37772971D-05  0.13332471D-05  0.15626806D-06
  0.22718484D-08  0.33268691D-09  0.34205381D-11 -0.43465203D-04 -0.62364871D-04
 -0.82574404D-04 -0.95350041D-04 -0.88393875D-04 -0.57227806D-04 -0.20199314D-04
 -0.23675338D-05 -0.34419559D-07 -0.50403613D-08 -0.51822741D-10  0.73071562D-17