 Molden2AIM, Version 4.0.0 (06/02/2016)           Time: Thu Jun 28 20:14:19 2018
GAUSSIAN             34 MOL ORBITALS    525 PRIMITIVES        3 NUCLEI
  Se   1    (CENTRE  1)   0.00000000  0.00000000  1.21074186  CHARGE = 34.0
  Cl   2    (CENTRE  2)   0.00000000  3.17372700 -1.38119893  CHARGE = 17.0
  Cl   3    (CENTRE  3)   0.00000000 -3.17372700 -1.38119893  CHARGE = 17.0
CENTRE ASSIGNMENTS    1  1  1  1  1  1  1  1  1  1  1  1  1  1  1  1  1  1  1  1
CENTRE ASSIGNMENTS    1  1  1  1  1  1  1  1  1  1  1  1  1  1  1  1  1  1  1  1
CENTRE ASSIGNMENTS    1  1  1  1  1  1  1  1  1  1  1  1  1  1  1  1  1  1  1  1
CENTRE ASSIGNMENTS    1  1  1  1  1  1  1  1  1  1  1  1  1  1  1  1  1  1  1  1
CENTRE ASSIGNMENTS    1  1  1  1  1  1  1  1  1  1  1  1  1  1  1  1  1  1  1  1
CENTRE ASSIGNMENTS    1  1  1  1  1  1  1  1  1  1  1  1  1  1  1  1  1  1  1  1
CENTRE ASSIGNMENTS    1  1  1  1  1  1  1  1  1  1  1  1  1  1  1  1  1  1  1  1
CENTRE ASSIGNMENTS    1  1  1  1  1  1  1  1  1  1  1  1  1  1  1  1  1  1  1  1
CENTRE ASSIGNMENTS    1  1  1  1  1  1  1  1  1  1  1  1  1  1  1  1  1  1  1  1
CENTRE ASSIGNMENTS    1  1  1  1  1  1  1  1  1  1  1  1  1  1  1  1  1  1  1  1
CENTRE ASSIGNMENTS    1  1  1  1  1  1  1  1  1  1  1  1  1  1  1  1  1  1  1  1
CENTRE ASSIGNMENTS    1  1  1  1  1  1  1  1  1  1  1  1  1  1  1  1  1  1  1  1
CENTRE ASSIGNMENTS    1  1  1  1  1  1  1  1  1  1  1  1  1  1  1  1  1  1  1  1
CENTRE ASSIGNMENTS    1  1  1  2  2  2  2  2  2  2  2  2  2  2  2  2  2  2  2  2
CENTRE ASSIGNMENTS    2  2  2  2  2  2  2  2  2  2  2  2  2  2  2  2  2  2  2  2
CENTRE ASSIGNMENTS    2  2  2  2  2  2  2  2  2  2  2  2  2  2  2  2  2  2  2  2
CENTRE ASSIGNMENTS    2  2  2  2  2  2  2  2  2  2  2  2  2  2  2  2  2  2  2  2
CENTRE ASSIGNMENTS    2  2  2  2  2  2  2  2  2  2  2  2  2  2  2  2  2  2  2  2
CENTRE ASSIGNMENTS    2  2  2  2  2  2  2  2  2  2  2  2  2  2  2  2  2  2  2  2
CENTRE ASSIGNMENTS    2  2  2  2  2  2  2  2  2  2  2  2  2  2  3  3  3  3  3  3
CENTRE ASSIGNMENTS    3  3  3  3  3  3  3  3  3  3  3  3  3  3  3  3  3  3  3  3
CENTRE ASSIGNMENTS    3  3  3  3  3  3  3  3  3  3  3  3  3  3  3  3  3  3  3  3
CENTRE ASSIGNMENTS    3  3  3  3  3  3  3  3  3  3  3  3  3  3  3  3  3  3  3  3
CENTRE ASSIGNMENTS    3  3  3  3  3  3  3  3  3  3  3  3  3  3  3  3  3  3  3  3
CENTRE ASSIGNMENTS    3  3  3  3  3  3  3  3  3  3  3  3  3  3  3  3  3  3  3  3
CENTRE ASSIGNMENTS    3  3  3  3  3  3  3  3  3  3  3  3  3  3  3  3  3  3  3  3
CENTRE ASSIGNMENTS    3  3  3  3  3
TYPE ASSIGNMENTS      1  1  1  1  1  1  1  1  1  1  1  1  1  1  1  1  1  1  1  1
TYPE ASSIGNMENTS      1  1  1  1  1  1  1  1  1  1  1  1  1  1  1  1  1  1  1  1
TYPE ASSIGNMENTS      1  1  1  1  1  1  1  1  1  1  1  1  1  1  1  1  1  1  1  1
TYPE ASSIGNMENTS      1  1  1  1  1  1  1  1  1  1  1  1  1  1  1  2  2  2  2  2
TYPE ASSIGNMENTS      2  2  2  2  2  2  3  3  3  3  3  3  3  3  3  3  3  4  4  4
TYPE ASSIGNMENTS      4  4  4  4  4  4  4  4  2  2  2  2  2  2  2  2  2  2  2  3
TYPE ASSIGNMENTS      3  3  3  3  3  3  3  3  3  3  4  4  4  4  4  4  4  4  4  4
TYPE ASSIGNMENTS      4  2  2  2  2  2  2  2  2  2  2  2  3  3  3  3  3  3  3  3
TYPE ASSIGNMENTS      3  3  3  4  4  4  4  4  4  4  4  4  4  4  2  3  4  2  3  4
TYPE ASSIGNMENTS      2  3  4  5  5  5  5  5  5  5  6  6  6  6  6  6  6  7  7  7
TYPE ASSIGNMENTS      7  7  7  7  8  8  8  8  8  8  8  9  9  9  9  9  9  9 10 10
TYPE ASSIGNMENTS     10 10 10 10 10  5  6  7  8  9 10  5  6  7  8  9 10  5  6  7
TYPE ASSIGNMENTS      8  9 10 11 12 13 17 14 15 18 19 16 20 11 12 13 17 14 15 18
TYPE ASSIGNMENTS     19 16 20  1  1  1  1  1  1  1  1  1  1  1  1  1  1  1  1  1
TYPE ASSIGNMENTS      1  1  1  1  1  1  1  1  1  1  1  1  1  1  1  1  1  1  1  1
TYPE ASSIGNMENTS      1  1  1  1  1  2  2  2  2  2  2  2  3  3  3  3  3  3  3  4
TYPE ASSIGNMENTS      4  4  4  4  4  4  2  2  2  2  2  2  2  3  3  3  3  3  3  3
TYPE ASSIGNMENTS      4  4  4  4  4  4  4  2  3  4  2  3  4  2  3  4  5  6  7  8
TYPE ASSIGNMENTS      9 10  5  6  7  8  9 10  5  6  7  8  9 10 11 12 13 17 14 15
TYPE ASSIGNMENTS     18 19 16 20 11 12 13 17 14 15 18 19 16 20  1  1  1  1  1  1
TYPE ASSIGNMENTS      1  1  1  1  1  1  1  1  1  1  1  1  1  1  1  1  1  1  1  1
TYPE ASSIGNMENTS      1  1  1  1  1  1  1  1  1  1  1  1  1  1  1  1  2  2  2  2
TYPE ASSIGNMENTS      2  2  2  3  3  3  3  3  3  3  4  4  4  4  4  4  4  2  2  2
TYPE ASSIGNMENTS      2  2  2  2  3  3  3  3  3  3  3  4  4  4  4  4  4  4  2  3
TYPE ASSIGNMENTS      4  2  3  4  2  3  4  5  6  7  8  9 10  5  6  7  8  9 10  5
TYPE ASSIGNMENTS      6  7  8  9 10 11 12 13 17 14 15 18 19 16 20 11 12 13 17 14
TYPE ASSIGNMENTS     15 18 19 16 20
EXPONENTS  0.9563600D+07 0.1432100D+07 0.3259100D+06 0.9231200D+05 0.3011600D+05
EXPONENTS  0.1087200D+05 0.4240100D+04 0.1758400D+04 0.7665900D+03 0.3484300D+03
EXPONENTS  0.1640300D+03 0.7914200D+02 0.3552400D+02 0.1730500D+02 0.8378400D+01
EXPONENTS  0.3740500D+01 0.1689000D+01 0.2552000D+00 0.9563600D+07 0.1432100D+07
EXPONENTS  0.3259100D+06 0.9231200D+05 0.3011600D+05 0.1087200D+05 0.4240100D+04
EXPONENTS  0.1758400D+04 0.7665900D+03 0.3484300D+03 0.1640300D+03 0.7914200D+02
EXPONENTS  0.3552400D+02 0.1730500D+02 0.8378400D+01 0.3740500D+01 0.1689000D+01
EXPONENTS  0.2552000D+00 0.9563600D+07 0.1432100D+07 0.3259100D+06 0.9231200D+05
EXPONENTS  0.3011600D+05 0.1087200D+05 0.4240100D+04 0.1758400D+04 0.7665900D+03
EXPONENTS  0.3484300D+03 0.1640300D+03 0.7914200D+02 0.3552400D+02 0.1730500D+02
EXPONENTS  0.8378400D+01 0.3740500D+01 0.1689000D+01 0.2552000D+00 0.9563600D+07
EXPONENTS  0.1432100D+07 0.3259100D+06 0.9231200D+05 0.3011600D+05 0.1087200D+05
EXPONENTS  0.4240100D+04 0.1758400D+04 0.7665900D+03 0.3484300D+03 0.1640300D+03
EXPONENTS  0.7914200D+02 0.3552400D+02 0.1730500D+02 0.8378400D+01 0.3740500D+01
EXPONENTS  0.1689000D+01 0.2552000D+00 0.5092700D+00 0.1065100D+00 0.3920100D-01
EXPONENTS  0.8004300D+04 0.1896900D+04 0.6147100D+03 0.2335000D+03 0.9785600D+02
EXPONENTS  0.4351400D+02 0.2006300D+02 0.9112700D+01 0.4106300D+01 0.1794900D+01
EXPONENTS  0.2461500D+00 0.8004300D+04 0.1896900D+04 0.6147100D+03 0.2335000D+03
EXPONENTS  0.9785600D+02 0.4351400D+02 0.2006300D+02 0.9112700D+01 0.4106300D+01
EXPONENTS  0.1794900D+01 0.2461500D+00 0.8004300D+04 0.1896900D+04 0.6147100D+03
EXPONENTS  0.2335000D+03 0.9785600D+02 0.4351400D+02 0.2006300D+02 0.9112700D+01
EXPONENTS  0.4106300D+01 0.1794900D+01 0.2461500D+00 0.8004300D+04 0.1896900D+04
EXPONENTS  0.6147100D+03 0.2335000D+03 0.9785600D+02 0.4351400D+02 0.2006300D+02
EXPONENTS  0.9112700D+01 0.4106300D+01 0.1794900D+01 0.2461500D+00 0.8004300D+04
EXPONENTS  0.1896900D+04 0.6147100D+03 0.2335000D+03 0.9785600D+02 0.4351400D+02
EXPONENTS  0.2006300D+02 0.9112700D+01 0.4106300D+01 0.1794900D+01 0.2461500D+00
EXPONENTS  0.8004300D+04 0.1896900D+04 0.6147100D+03 0.2335000D+03 0.9785600D+02
EXPONENTS  0.4351400D+02 0.2006300D+02 0.9112700D+01 0.4106300D+01 0.1794900D+01
EXPONENTS  0.2461500D+00 0.8004300D+04 0.1896900D+04 0.6147100D+03 0.2335000D+03
EXPONENTS  0.9785600D+02 0.4351400D+02 0.2006300D+02 0.9112700D+01 0.4106300D+01
EXPONENTS  0.1794900D+01 0.2461500D+00 0.8004300D+04 0.1896900D+04 0.6147100D+03
EXPONENTS  0.2335000D+03 0.9785600D+02 0.4351400D+02 0.2006300D+02 0.9112700D+01
EXPONENTS  0.4106300D+01 0.1794900D+01 0.2461500D+00 0.8004300D+04 0.1896900D+04
EXPONENTS  0.6147100D+03 0.2335000D+03 0.9785600D+02 0.4351400D+02 0.2006300D+02
EXPONENTS  0.9112700D+01 0.4106300D+01 0.1794900D+01 0.2461500D+00 0.6243200D+00
EXPONENTS  0.6243200D+00 0.6243200D+00 0.8891700D-01 0.8891700D-01 0.8891700D-01
EXPONENTS  0.3025100D-01 0.3025100D-01 0.3025100D-01 0.3618500D+03 0.1085500D+03
EXPONENTS  0.4143300D+02 0.1757900D+02 0.7862700D+01 0.3518000D+01 0.1534800D+01
EXPONENTS  0.3618500D+03 0.1085500D+03 0.4143300D+02 0.1757900D+02 0.7862700D+01
EXPONENTS  0.3518000D+01 0.1534800D+01 0.3618500D+03 0.1085500D+03 0.4143300D+02
EXPONENTS  0.1757900D+02 0.7862700D+01 0.3518000D+01 0.1534800D+01 0.3618500D+03
EXPONENTS  0.1085500D+03 0.4143300D+02 0.1757900D+02 0.7862700D+01 0.3518000D+01
EXPONENTS  0.1534800D+01 0.3618500D+03 0.1085500D+03 0.4143300D+02 0.1757900D+02
EXPONENTS  0.7862700D+01 0.3518000D+01 0.1534800D+01 0.3618500D+03 0.1085500D+03
EXPONENTS  0.4143300D+02 0.1757900D+02 0.7862700D+01 0.3518000D+01 0.1534800D+01
EXPONENTS  0.6081300D+00 0.6081300D+00 0.6081300D+00 0.6081300D+00 0.6081300D+00
EXPONENTS  0.6081300D+00 0.2220000D+00 0.2220000D+00 0.2220000D+00 0.2220000D+00
EXPONENTS  0.2220000D+00 0.2220000D+00 0.8370000D-01 0.8370000D-01 0.8370000D-01
EXPONENTS  0.8370000D-01 0.8370000D-01 0.8370000D-01 0.4620000D+00 0.4620000D+00
EXPONENTS  0.4620000D+00 0.4620000D+00 0.4620000D+00 0.4620000D+00 0.4620000D+00
EXPONENTS  0.4620000D+00 0.4620000D+00 0.4620000D+00 0.1880000D+00 0.1880000D+00
EXPONENTS  0.1880000D+00 0.1880000D+00 0.1880000D+00 0.1880000D+00 0.1880000D+00
EXPONENTS  0.1880000D+00 0.1880000D+00 0.1880000D+00 0.4561000D+06 0.6833000D+05
EXPONENTS  0.1555000D+05 0.4405000D+04 0.1439000D+04 0.5204000D+03 0.2031000D+03
EXPONENTS  0.8396000D+02 0.3620000D+02 0.1583000D+02 0.6334000D+01 0.2694000D+01
EXPONENTS  0.4313000D+00 0.4561000D+06 0.6833000D+05 0.1555000D+05 0.4405000D+04
EXPONENTS  0.1439000D+04 0.5204000D+03 0.2031000D+03 0.8396000D+02 0.3620000D+02
EXPONENTS  0.1583000D+02 0.6334000D+01 0.2694000D+01 0.4313000D+00 0.4561000D+06
EXPONENTS  0.6833000D+05 0.1555000D+05 0.4405000D+04 0.1439000D+04 0.5204000D+03
EXPONENTS  0.2031000D+03 0.8396000D+02 0.3620000D+02 0.1583000D+02 0.6334000D+01
EXPONENTS  0.2694000D+01 0.4313000D+00 0.9768000D+00 0.1625000D+00 0.5910000D-01
EXPONENTS  0.6633000D+03 0.1568000D+03 0.4998000D+02 0.1842000D+02 0.7240000D+01
EXPONENTS  0.2922000D+01 0.3818000D+00 0.6633000D+03 0.1568000D+03 0.4998000D+02
EXPONENTS  0.1842000D+02 0.7240000D+01 0.2922000D+01 0.3818000D+00 0.6633000D+03
EXPONENTS  0.1568000D+03 0.4998000D+02 0.1842000D+02 0.7240000D+01 0.2922000D+01
EXPONENTS  0.3818000D+00 0.6633000D+03 0.1568000D+03 0.4998000D+02 0.1842000D+02
EXPONENTS  0.7240000D+01 0.2922000D+01 0.3818000D+00 0.6633000D+03 0.1568000D+03
EXPONENTS  0.4998000D+02 0.1842000D+02 0.7240000D+01 0.2922000D+01 0.3818000D+00
EXPONENTS  0.6633000D+03 0.1568000D+03 0.4998000D+02 0.1842000D+02 0.7240000D+01
EXPONENTS  0.2922000D+01 0.3818000D+00 0.1022000D+01 0.1022000D+01 0.1022000D+01
EXPONENTS  0.1301000D+00 0.1301000D+00 0.1301000D+00 0.4190000D-01 0.4190000D-01
EXPONENTS  0.4190000D-01 0.1046000D+01 0.1046000D+01 0.1046000D+01 0.1046000D+01
EXPONENTS  0.1046000D+01 0.1046000D+01 0.3440000D+00 0.3440000D+00 0.3440000D+00
EXPONENTS  0.3440000D+00 0.3440000D+00 0.3440000D+00 0.1350000D+00 0.1350000D+00
EXPONENTS  0.1350000D+00 0.1350000D+00 0.1350000D+00 0.1350000D+00 0.7060000D+00
EXPONENTS  0.7060000D+00 0.7060000D+00 0.7060000D+00 0.7060000D+00 0.7060000D+00
EXPONENTS  0.7060000D+00 0.7060000D+00 0.7060000D+00 0.7060000D+00 0.3120000D+00
EXPONENTS  0.3120000D+00 0.3120000D+00 0.3120000D+00 0.3120000D+00 0.3120000D+00
EXPONENTS  0.3120000D+00 0.3120000D+00 0.3120000D+00 0.3120000D+00 0.4561000D+06
EXPONENTS  0.6833000D+05 0.1555000D+05 0.4405000D+04 0.1439000D+04 0.5204000D+03
EXPONENTS  0.2031000D+03 0.8396000D+02 0.3620000D+02 0.1583000D+02 0.6334000D+01
EXPONENTS  0.2694000D+01 0.4313000D+00 0.4561000D+06 0.6833000D+05 0.1555000D+05
EXPONENTS  0.4405000D+04 0.1439000D+04 0.5204000D+03 0.2031000D+03 0.8396000D+02
EXPONENTS  0.3620000D+02 0.1583000D+02 0.6334000D+01 0.2694000D+01 0.4313000D+00
EXPONENTS  0.4561000D+06 0.6833000D+05 0.1555000D+05 0.4405000D+04 0.1439000D+04
EXPONENTS  0.5204000D+03 0.2031000D+03 0.8396000D+02 0.3620000D+02 0.1583000D+02
EXPONENTS  0.6334000D+01 0.2694000D+01 0.4313000D+00 0.9768000D+00 0.1625000D+00
EXPONENTS  0.5910000D-01 0.6633000D+03 0.1568000D+03 0.4998000D+02 0.1842000D+02
EXPONENTS  0.7240000D+01 0.2922000D+01 0.3818000D+00 0.6633000D+03 0.1568000D+03
EXPONENTS  0.4998000D+02 0.1842000D+02 0.7240000D+01 0.2922000D+01 0.3818000D+00
EXPONENTS  0.6633000D+03 0.1568000D+03 0.4998000D+02 0.1842000D+02 0.7240000D+01
EXPONENTS  0.2922000D+01 0.3818000D+00 0.6633000D+03 0.1568000D+03 0.4998000D+02
EXPONENTS  0.1842000D+02 0.7240000D+01 0.2922000D+01 0.3818000D+00 0.6633000D+03
EXPONENTS  0.1568000D+03 0.4998000D+02 0.1842000D+02 0.7240000D+01 0.2922000D+01
EXPONENTS  0.3818000D+00 0.6633000D+03 0.1568000D+03 0.4998000D+02 0.1842000D+02
EXPONENTS  0.7240000D+01 0.2922000D+01 0.3818000D+00 0.1022000D+01 0.1022000D+01
EXPONENTS  0.1022000D+01 0.1301000D+00 0.1301000D+00 0.1301000D+00 0.4190000D-01
EXPONENTS  0.4190000D-01 0.4190000D-01 0.1046000D+01 0.1046000D+01 0.1046000D+01
EXPONENTS  0.1046000D+01 0.1046000D+01 0.1046000D+01 0.3440000D+00 0.3440000D+00
EXPONENTS  0.3440000D+00 0.3440000D+00 0.3440000D+00 0.3440000D+00 0.1350000D+00
EXPONENTS  0.1350000D+00 0.1350000D+00 0.1350000D+00 0.1350000D+00 0.1350000D+00
EXPONENTS  0.7060000D+00 0.7060000D+00 0.7060000D+00 0.7060000D+00 0.7060000D+00
EXPONENTS  0.7060000D+00 0.7060000D+00 0.7060000D+00 0.7060000D+00 0.7060000D+00
EXPONENTS  0.3120000D+00 0.3120000D+00 0.3120000D+00 0.3120000D+00 0.3120000D+00
EXPONENTS  0.3120000D+00 0.3120000D+00 0.3120000D+00 0.3120000D+00 0.3120000D+00
MO    1     MO 0.0        OCC NO =    2.0000000  ORB. ENERGY = -453.277221
  0.77214446D+00  0.14427159D+01  0.25022100D+01  0.40992593D+01  0.64191145D+01
  0.96397982D+01  0.13749112D+02  0.18165363D+02  0.20949129D+02  0.18854888D+02
  0.10578061D+02  0.25573028D+01  0.12140806D+00 -0.20776568D-02  0.58435533D-03
 -0.22772234D-03  0.21539934D-04  0.21238828D-05  0.36590930D-04  0.67382766D-04
  0.11695955D-03  0.19155784D-03  0.30150323D-03  0.45507920D-03  0.66337291D-03
  0.91095037D-03  0.11568954D-02  0.12459029D-02  0.99395794D-03  0.22263865D-03
 -0.59533074D-03 -0.52941240D-03 -0.10339639D-03 -0.28642927D-05 -0.20742234D-06
 -0.42361316D-08 -0.10631429D-03 -0.19194061D-03 -0.33413205D-03 -0.54715534D-03
 -0.86262155D-03 -0.13016722D-02 -0.19050941D-02 -0.26249693D-02 -0.33816638D-02
 -0.37221485D-02 -0.31334455D-02 -0.74618549D-03  0.25134396D-02  0.33584823D-02
  0.41259641D-03 -0.14416679D-02 -0.63640260D-03  0.31583516D-05  0.34206399D-04
  0.74107784D-04  0.12615879D-03  0.20593572D-03  0.32466650D-03  0.48994000D-03
  0.71706876D-03  0.98915141D-03  0.12759019D-02  0.14105300D-02  0.11946143D-02
  0.29017975D-03 -0.10067528D-02 -0.14209161D-02 -0.16953486D-03  0.79677484D-03
  0.63690621D-03 -0.24129020D-03  0.23804342D-03  0.10459498D-03  0.16358623D-04
 -0.23832667D-16 -0.34157739D-16 -0.45106605D-16 -0.51847769D-16 -0.47696706D-16
 -0.30512890D-16 -0.10561695D-16 -0.11873870D-17 -0.15106457D-19 -0.26176880D-20
 -0.26749922D-22  0.33891003D-15  0.48573667D-15  0.64143392D-15  0.73729595D-15
  0.67826618D-15  0.43390546D-15  0.15019151D-15  0.16885117D-16  0.21481985D-18
  0.37224567D-19  0.38039456D-21 -0.88743847D-04 -0.12719051D-03 -0.16795995D-03
 -0.19306150D-03 -0.17760451D-03 -0.11361847D-03 -0.39327760D-04 -0.44213806D-05
 -0.56250738D-07 -0.97472809D-08 -0.99606603D-10 -0.10679742D-16 -0.15404687D-16
 -0.20517049D-16 -0.24281173D-16 -0.23333296D-16 -0.16038232D-16 -0.50495534D-17
  0.24404036D-17  0.25044448D-17  0.63071214D-18 -0.68765413D-21 -0.16802377D-14
 -0.24236104D-14 -0.32279355D-14 -0.38201429D-14 -0.36710139D-14 -0.25232858D-14
 -0.79444331D-15  0.38394728D-15  0.39402285D-15  0.99229576D-16 -0.10818823D-18
 -0.11312246D-02 -0.16317023D-02 -0.21732163D-02 -0.25719216D-02 -0.24715201D-02
 -0.16988090D-02 -0.53486111D-03  0.25849355D-03  0.26527695D-03  0.66806581D-04
 -0.72838017D-07  0.31298175D-17  0.45372558D-17  0.60220723D-17  0.71867671D-17
  0.69047771D-17  0.48329759D-17  0.14592741D-17 -0.89329347D-18 -0.96072117D-18
 -0.25836935D-18  0.96311665D-19  0.11956969D-14  0.17333863D-14  0.23006367D-14
  0.27455898D-14  0.26378600D-14  0.18463614D-14  0.55749242D-15 -0.34126853D-15
 -0.36702821D-15 -0.98705891D-16  0.36794337D-16  0.80176430D-03  0.11623073D-02
  0.15426722D-02  0.18410317D-02  0.17687944D-02  0.12380618D-02  0.37382176D-03
 -0.22883468D-03 -0.24610762D-03 -0.66186388D-04  0.24672127D-04 -0.28730398D-18
 -0.32924884D-16 -0.14581627D-04 -0.10207719D-19  0.24548157D-16 -0.26517816D-04
  0.11218459D-20  0.72639670D-18 -0.65662882D-06 -0.28800549D-03 -0.29811320D-03
 -0.24942155D-03 -0.16094773D-03 -0.72299918D-04 -0.21110406D-04 -0.35614549D-05
  0.21867360D-03  0.22634807D-03  0.18937802D-03  0.12220260D-03  0.54895077D-04
  0.16028474D-04  0.27041018D-05  0.69331887D-04  0.71765128D-04  0.60043532D-04
  0.38745128D-04  0.17404841D-04  0.50819319D-05  0.85735306D-06 -0.56067593D-18
 -0.58035316D-18 -0.48556248D-18 -0.31332568D-18 -0.14075018D-18 -0.41096775D-19
 -0.69332778D-20  0.11387141D-17  0.11786779D-17  0.98616117D-18  0.63635399D-18
  0.28585891D-18  0.83466176D-19  0.14081255D-19 -0.14789137D-15 -0.15308170D-15
 -0.12807845D-15 -0.82646968D-16 -0.37126148D-16 -0.10840234D-16 -0.18288140D-17
  0.13468878D-04 -0.10440217D-04 -0.30286604D-05  0.28056188D-20  0.92734195D-20
  0.16619395D-16 -0.25914886D-05  0.19650836D-05  0.62640495D-06 -0.34365179D-21
 -0.11968288D-19 -0.29708031D-16 -0.24458356D-05  0.12790539D-05  0.11667817D-05
  0.30766035D-22 -0.30043206D-22 -0.44893322D-17 -0.33759008D-20  0.50312621D-18
 -0.21547282D-05  0.67329921D-20 -0.47556952D-17 -0.12466004D-04  0.33947103D-20
  0.32463166D-17  0.18930188D-04  0.10871764D-21 -0.75305844D-21 -0.82654013D-18
  0.55997356D-06  0.14659086D-20 -0.15906698D-17  0.37000892D-05  0.79326672D-21
  0.40702902D-17 -0.53800098D-05 -0.18669485D-22  0.25295515D-05  0.47328005D-05
  0.81772307D-05  0.13256245D-04  0.20130665D-04  0.27979257D-04  0.33263301D-04
  0.29628390D-04  0.14708420D-04  0.23697621D-05  0.36382160D-07  0.65014563D-08
  0.24294928D-09 -0.41865658D-05 -0.78199038D-05 -0.13571822D-04 -0.22021552D-04
 -0.34086747D-04 -0.48792082D-04 -0.63688908D-04 -0.67871158D-04 -0.50735069D-04
 -0.26782142D-05  0.34413722D-04  0.20445705D-04 -0.76656065D-07  0.20000307D-05
  0.37327691D-05  0.64872241D-05  0.10513882D-04  0.16329705D-04  0.23392773D-04
  0.30887977D-04  0.33399066D-04  0.26185300D-04  0.13029719D-05 -0.22447423D-04
 -0.23237244D-04  0.10515182D-04 -0.89179782D-05 -0.28164315D-04 -0.21634369D-04
 -0.26943950D-19 -0.35491230D-19 -0.39155141D-19 -0.32522845D-19 -0.17273673D-19
 -0.44553842D-20  0.45799835D-23 -0.11114634D-03 -0.14640467D-03 -0.16151865D-03
 -0.13415980D-03 -0.71255530D-04 -0.18378880D-04  0.18892864D-07  0.25079676D-04
  0.33035562D-04  0.36445964D-04  0.30272562D-04  0.16078493D-04  0.41471124D-05
 -0.42630906D-08  0.15592927D-19  0.20472370D-19  0.23309299D-19  0.19737357D-19
  0.11306318D-19  0.25717951D-20 -0.12037417D-20  0.81566641D-04  0.10709102D-03
  0.12193101D-03  0.10324617D-03  0.59143380D-04  0.13453067D-04 -0.62967758D-05
 -0.10303371D-04 -0.13527571D-04 -0.15402135D-04 -0.13041895D-04 -0.74708996D-05
 -0.16993705D-05  0.79539891D-06  0.66406178D-20  0.17591321D-04 -0.98465227D-05
 -0.29154530D-20  0.13829064D-04 -0.71298571D-05 -0.14855006D-21  0.98252516D-06
 -0.75099715D-06  0.54395552D-05 -0.52304235D-05 -0.20913177D-06 -0.21056738D-19
  0.13967836D-19  0.20275901D-04 -0.23274116D-05  0.26380899D-05 -0.31067833D-06
  0.84020737D-20 -0.55011760D-20 -0.83153398D-05  0.28276261D-06 -0.74923112D-06
  0.46646851D-06  0.17798931D-20 -0.17201735D-20  0.21102936D-06 -0.71953026D-20
  0.39682421D-07  0.13215726D-05  0.14517026D-19 -0.53368199D-05  0.24349432D-05
  0.70688813D-20  0.52177726D-05 -0.63996612D-05 -0.33695835D-19  0.35123885D-20
 -0.37374773D-07 -0.13232740D-05 -0.72235668D-20  0.44482251D-05 -0.31846704D-05
 -0.33135986D-20 -0.43361008D-05  0.71544925D-05  0.16484250D-19  0.25295515D-05
  0.47328005D-05  0.81772307D-05  0.13256245D-04  0.20130665D-04  0.27979257D-04
  0.33263301D-04  0.29628390D-04  0.14708420D-04  0.23697621D-05  0.36382160D-07
  0.65014563D-08  0.24294928D-09 -0.41865658D-05 -0.78199038D-05 -0.13571822D-04
 -0.22021552D-04 -0.34086747D-04 -0.48792082D-04 -0.63688908D-04 -0.67871158D-04
 -0.50735069D-04 -0.26782142D-05  0.34413722D-04  0.20445705D-04 -0.76656065D-07
  0.20000307D-05  0.37327691D-05  0.64872241D-05  0.10513882D-04  0.16329705D-04
  0.23392773D-04  0.30887977D-04  0.33399066D-04  0.26185300D-04  0.13029719D-05
 -0.22447423D-04 -0.23237244D-04  0.10515182D-04 -0.89179782D-05 -0.28164315D-04
 -0.21634369D-04 -0.29172834D-19 -0.38427170D-19 -0.42394171D-19 -0.35213232D-19
 -0.18702603D-19 -0.48239468D-20  0.49588533D-23  0.11114634D-03  0.14640467D-03
  0.16151865D-03  0.13415980D-03  0.71255530D-04  0.18378880D-04 -0.18892864D-07
  0.25079676D-04  0.33035562D-04  0.36445964D-04  0.30272562D-04  0.16078493D-04
  0.41471124D-05 -0.42630906D-08  0.17857788D-19  0.23445967D-19  0.26694959D-19
  0.22604194D-19  0.12948553D-19  0.29453465D-20 -0.13785843D-20 -0.81566641D-04
 -0.10709102D-03 -0.12193101D-03 -0.10324617D-03 -0.59143380D-04 -0.13453067D-04
  0.62967758D-05 -0.10303371D-04 -0.13527571D-04 -0.15402135D-04 -0.13041895D-04
 -0.74708996D-05 -0.16993705D-05  0.79539891D-06  0.67099966D-20 -0.17591321D-04
 -0.98465227D-05 -0.28326092D-20 -0.13829064D-04 -0.71298571D-05 -0.15877482D-21
 -0.98252516D-06 -0.75099715D-06  0.54395552D-05 -0.52304235D-05 -0.20913177D-06
  0.20371393D-19  0.14053552D-19 -0.20275901D-04 -0.23274116D-05  0.26380899D-05
 -0.31067833D-06 -0.82864045D-20 -0.56702815D-20  0.83153398D-05  0.28276261D-06
 -0.74923112D-06  0.46646851D-06 -0.18136389D-20 -0.16797332D-20 -0.21102936D-06
 -0.71234786D-20 -0.39682421D-07  0.13215726D-05  0.14489254D-19  0.53368199D-05
  0.24349432D-05  0.68811821D-20 -0.52177726D-05 -0.63996612D-05  0.33227277D-19
  0.35275312D-20  0.37374773D-07 -0.13232740D-05 -0.72705045D-20 -0.44482251D-05
 -0.31846704D-05 -0.33120892D-20  0.43361008D-05  0.71544925D-05 -0.16536893D-19
MO    2     MO 0.0        OCC NO =    2.0000000  ORB. ENERGY = -101.219362
 -0.11155728D-13 -0.20843957D-13 -0.36151233D-13 -0.59224955D-13 -0.92741575D-13
 -0.13927312D-12 -0.19864334D-12 -0.26244809D-12 -0.30266717D-12 -0.27241016D-12
 -0.15282887D-12 -0.36947197D-13 -0.17540698D-14  0.30017406D-16 -0.84426028D-17
  0.32900689D-17 -0.31120295D-18 -0.30685266D-19  0.23797672D-13  0.43823783D-13
  0.76067078D-13  0.12458362D-12  0.19608889D-12  0.29597022D-12  0.43143837D-12
  0.59245551D-12  0.75241096D-12  0.81029887D-12  0.64644121D-12  0.14479768D-12
 -0.38718573D-12 -0.34431436D-12 -0.67245991D-13 -0.18628523D-14 -0.13490143D-15
 -0.27550563D-17 -0.35362168D-13 -0.63843120D-13 -0.11113871D-12 -0.18199434D-12
 -0.28692443D-12 -0.43296108D-12 -0.63367076D-12 -0.87311503D-12 -0.11248061D-11
 -0.12380578D-11 -0.10422439D-11 -0.24819557D-12  0.83601812D-12  0.11170955D-11
  0.13723746D-12 -0.47952634D-12 -0.21167968D-12  0.10505282D-14  0.16082849D-13
  0.34843313D-13  0.59316176D-13  0.96824957D-13  0.15264870D-12  0.23035546D-12
  0.33714477D-12  0.46507007D-12  0.59989178D-12  0.66318996D-12  0.56167272D-12
  0.13643404D-12 -0.47334573D-12 -0.66807321D-12 -0.79710335D-13  0.37462024D-12
  0.29945468D-12 -0.11344760D-12 -0.55047181D-13  0.39929664D-12  0.82762617D-13
  0.29756583D-14  0.42648085D-14  0.56318432D-14  0.64735199D-14  0.59552336D-14
  0.38097261D-14  0.13186940D-14  0.14825273D-15  0.18861361D-17  0.32683480D-18
  0.33398960D-20 -0.42988760D-02 -0.61612863D-02 -0.81362150D-02 -0.93521690D-02
 -0.86034108D-02 -0.55038376D-02 -0.19050917D-02 -0.21417786D-03 -0.27248644D-05
 -0.47217191D-06 -0.48250831D-08 -0.13033346D-11 -0.18679807D-11 -0.24667402D-11
 -0.28353934D-11 -0.26083847D-11 -0.16686552D-11 -0.57758627D-12 -0.64934508D-13
 -0.82612523D-15 -0.14315323D-15 -0.14628702D-17 -0.77519487D-15 -0.11181575D-14
 -0.14892411D-14 -0.17624621D-14 -0.16936599D-14 -0.11641438D-14 -0.36652457D-15
  0.17713802D-15  0.18178648D-15  0.45780582D-16 -0.49913748D-19  0.18064047D-01
  0.26055965D-01  0.34703174D-01  0.41069930D-01  0.39466660D-01  0.27127564D-01
  0.85409712D-02 -0.41277743D-02 -0.42360956D-02 -0.10668061D-02  0.11631195D-05
  0.54445124D-11  0.78532801D-11  0.10459553D-10  0.12378496D-10  0.11895270D-10
  0.81762606D-11  0.25742528D-11 -0.12441131D-11 -0.12767612D-11 -0.32153586D-12
  0.35056478D-15  0.25003306D-15  0.36246968D-15  0.48108785D-15  0.57413232D-15
  0.55160486D-15  0.38609400D-15  0.11657765D-15 -0.71362915D-16 -0.76749540D-16
 -0.20640462D-16  0.76940909D-17 -0.13180045D-01 -0.19106940D-01 -0.25359685D-01
 -0.30264358D-01 -0.29076863D-01 -0.20352254D-01 -0.61451823D-02  0.37617683D-02
  0.40457147D-02  0.10880250D-02 -0.40558023D-03 -0.39273324D-11 -0.56934027D-11
 -0.75565682D-11 -0.90180411D-11 -0.86641967D-11 -0.60644758D-11 -0.18311146D-11
  0.11209153D-11  0.12055244D-11  0.32420494D-12 -0.12085303D-12 -0.40297305D-16
  0.29558818D-03  0.98213032D-13 -0.36118323D-19 -0.32283865D-03 -0.10086409D-12
  0.80695106D-20 -0.50042690D-05 -0.33961724D-14 -0.13400332D-12 -0.13870624D-12
 -0.11605097D-12 -0.74885828D-13 -0.33639738D-13 -0.98222590D-14 -0.16570753D-14
  0.12994426D-12  0.13450473D-12  0.11253570D-12  0.72617484D-13  0.32620767D-13
  0.95247359D-14  0.16068813D-14  0.40590540D-14  0.42015088D-14  0.35152648D-14
  0.22683440D-14  0.10189711D-14  0.29752308D-15  0.50193967D-16 -0.11376323D-17
 -0.11775582D-17 -0.98522436D-18 -0.63574948D-18 -0.28558736D-18 -0.83386887D-19
 -0.14067879D-19 -0.15253315D-17 -0.15788638D-17 -0.13209836D-17 -0.85240957D-18
 -0.38291403D-18 -0.11180470D-18 -0.18862138D-19  0.13457186D-03  0.13929473D-03
  0.11654334D-03  0.75203548D-04  0.33782462D-04  0.98639321D-05  0.16641058D-05
  0.14399286D-13 -0.13053715D-13 -0.13455718D-14  0.13190756D-18  0.31249237D-19
 -0.48394788D-04 -0.36783796D-13  0.30638651D-13  0.61451444D-14 -0.68658122D-20
  0.11005069D-19  0.28077935D-03 -0.67890892D-14  0.33829475D-14  0.34061417D-14
  0.55294803D-19  0.30141927D-19  0.56550200D-04 -0.44793818D-19  0.76496780D-05
  0.64147495D-14  0.77384604D-19  0.19199246D-04  0.66991781D-14  0.56996850D-19
 -0.42148280D-04 -0.25943426D-13  0.29340878D-18  0.10230323D-19 -0.31590992D-05
  0.10424590D-14 -0.18229765D-19  0.23714994D-04  0.72236640D-14 -0.12461204D-19
 -0.14237696D-04 -0.10351041D-13 -0.40072627D-19 -0.43644905D+00 -0.81659784D+00
 -0.14109002D+01 -0.22872337D+01 -0.34733469D+01 -0.48275437D+01 -0.57392531D+01
 -0.51120852D+01 -0.25377922D+01 -0.40887898D+00 -0.62773814D-02 -0.11217619D-02
 -0.41918492D-04  0.73033967D-03  0.13641696D-02  0.23675826D-02  0.38416243D-02
  0.59463782D-02  0.85117002D-02  0.11110427D-01  0.11840014D-01  0.88506511D-02
  0.46721015D-03 -0.60034185D-02 -0.35667203D-02  0.13372527D-04 -0.27796284D-03
 -0.51877760D-03 -0.90158980D-03 -0.14612118D-02 -0.22694908D-02 -0.32511110D-02
 -0.42927891D-02 -0.46417784D-02 -0.36392145D-02 -0.18108611D-03  0.31197269D-02
  0.32294957D-02 -0.14613925D-02  0.20195724D-02  0.81079564D-03  0.22324126D-03
  0.10831084D-15  0.14266969D-15  0.15739809D-15  0.13073721D-15  0.69437706D-16
  0.17910010D-16 -0.18410881D-19  0.12527440D-02  0.16501451D-02  0.18204966D-02
  0.15121317D-02  0.80312985D-03  0.20715062D-03 -0.21294379D-06 -0.10499153D-02
 -0.13829741D-02 -0.15257444D-02 -0.12673061D-02 -0.67309706D-03 -0.17361137D-03
  0.17846658D-06 -0.20115506D-16 -0.26410185D-16 -0.30069939D-16 -0.25461989D-16
 -0.14585608D-16 -0.33177197D-17  0.15528754D-17 -0.90870875D-03 -0.11930680D-02
 -0.13583957D-02 -0.11502337D-02 -0.65889812D-03 -0.14987646D-03  0.70150433D-04
  0.76469056D-03  0.10039826D-02  0.11431081D-02  0.96793700D-03  0.55447158D-03
  0.12612305D-03 -0.59032527D-04 -0.67003084D-17 -0.28763727D-04  0.22709047D-04
 -0.21371898D-18 -0.27059809D-03  0.23700513D-03  0.11375294D-19 -0.92270007D-05
  0.77444336D-05  0.92617671D-04 -0.71706324D-04 -0.20911347D-04 -0.16336075D-18
 -0.20700155D-18  0.23231535D-03 -0.50453702D-04  0.39154462D-04  0.11299241D-04
 -0.30319626D-19  0.11807045D-18 -0.13472138D-03 -0.22751375D-04  0.16103545D-04
  0.66478304D-05  0.12412326D-19 -0.33786731D-19 -0.72054998D-04 -0.74594746D-19
  0.93130928D-05  0.12697519D-04  0.17147838D-18 -0.82247042D-04  0.41793006D-04
  0.52305857D-19  0.54307763D-04 -0.79885563D-04 -0.43675445D-19  0.20687845D-19
 -0.23540865D-05 -0.11777575D-04 -0.49476475D-19  0.53434693D-04 -0.36546170D-04
 -0.12587061D-19 -0.46372433D-04  0.71878894D-04 -0.87443420D-20  0.43644905D+00
  0.81659784D+00  0.14109002D+01  0.22872337D+01  0.34733469D+01  0.48275437D+01
  0.57392531D+01  0.51120852D+01  0.25377922D+01  0.40887898D+00  0.62773814D-02
  0.11217619D-02  0.41918492D-04 -0.73033967D-03 -0.13641696D-02 -0.23675826D-02
 -0.38416243D-02 -0.59463782D-02 -0.85117002D-02 -0.11110427D-01 -0.11840014D-01
 -0.88506511D-02 -0.46721015D-03  0.60034185D-02  0.35667203D-02 -0.13372527D-04
  0.27796284D-03  0.51877760D-03  0.90158980D-03  0.14612118D-02  0.22694908D-02
  0.32511110D-02  0.42927891D-02  0.46417784D-02  0.36392145D-02  0.18108611D-03
 -0.31197269D-02 -0.32294957D-02  0.14613925D-02 -0.20195724D-02 -0.81079564D-03
 -0.22324126D-03 -0.37967514D-15 -0.50011737D-15 -0.55174662D-15 -0.45828899D-15
 -0.24340841D-15 -0.62782131D-16  0.64537896D-19  0.12527440D-02  0.16501451D-02
  0.18204966D-02  0.15121317D-02  0.80312985D-03  0.20715062D-03 -0.21294379D-06
  0.10499153D-02  0.13829741D-02  0.15257444D-02  0.12673061D-02  0.67309706D-03
  0.17361137D-03 -0.17846658D-06  0.66753264D-16  0.87642142D-16  0.99787027D-16
  0.84495556D-16  0.48402308D-16  0.11009846D-16 -0.51532137D-17 -0.90870875D-03
 -0.11930680D-02 -0.13583957D-02 -0.11502337D-02 -0.65889812D-03 -0.14987646D-03
  0.70150433D-04 -0.76469056D-03 -0.10039826D-02 -0.11431081D-02 -0.96793700D-03
 -0.55447158D-03 -0.12612305D-03  0.59032527D-04  0.23371620D-16 -0.28763727D-04
 -0.22709047D-04  0.79691301D-18 -0.27059809D-03 -0.23700513D-03 -0.39913776D-19
 -0.92270007D-05 -0.77444336D-05 -0.92617671D-04  0.71706324D-04  0.20911347D-04
  0.33779534D-18  0.39156426D-18  0.23231535D-03  0.50453703D-04 -0.39154462D-04
 -0.11299241D-04 -0.17333134D-18 -0.16451844D-18 -0.13472138D-03  0.22751375D-04