 Molden2AIM, Version 4.0.0 (06/02/2016)           Time: Thu Jun 28 20:15:52 2018
GAUSSIAN              8 MOL ORBITALS    185 PRIMITIVES        3 NUCLEI
  Si   1    (CENTRE  1)   0.00000000  0.00000000 -0.70267954  CHARGE = 14.0
  H    2    (CENTRE  2)  -2.07956990  0.00000000  1.33206039  CHARGE =  1.0
  H    3    (CENTRE  3)   2.07956990  0.00000000  1.33206039  CHARGE =  1.0
CENTRE ASSIGNMENTS    1  1  1  1  1  1  1  1  1  1  1  1  1  1  1  1  1  1  1  1
CENTRE ASSIGNMENTS    1  1  1  1  1  1  1  1  1  1  1  1  1  1  1  1  1  1  1  1
CENTRE ASSIGNMENTS    1  1  1  1  1  1  1  1  1  1  1  1  1  1  1  1  1  1  1  1
CENTRE ASSIGNMENTS    1  1  1  1  1  1  1  1  1  1  1  1  1  1  1  1  1  1  1  1
CENTRE ASSIGNMENTS    1  1  1  1  1  1  1  1  1  1  1  1  1  1  1  1  1  1  1  1
CENTRE ASSIGNMENTS    1  1  1  1  1  1  1  1  1  1  1  1  1  1  1  1  1  1  1  1
CENTRE ASSIGNMENTS    1  1  1  1  1  1  1  1  1  1  1  2  2  2  2  2  2  2  2  2
CENTRE ASSIGNMENTS    2  2  2  2  2  2  2  2  2  2  2  2  2  2  2  2  2  2  3  3
CENTRE ASSIGNMENTS    3  3  3  3  3  3  3  3  3  3  3  3  3  3  3  3  3  3  3  3
CENTRE ASSIGNMENTS    3  3  3  3  3
TYPE ASSIGNMENTS      1  1  1  1  1  1  1  1  1  1  1  1  1  1  1  1  1  1  1  1
TYPE ASSIGNMENTS      1  1  1  1  1  1  1  1  1  1  1  1  1  1  1  1  1  1  1  1
TYPE ASSIGNMENTS      1  1  2  2  2  2  2  2  2  3  3  3  3  3  3  3  4  4  4  4
TYPE ASSIGNMENTS      4  4  4  2  2  2  2  2  2  2  3  3  3  3  3  3  3  4  4  4
TYPE ASSIGNMENTS      4  4  4  4  2  3  4  2  3  4  2  3  4  5  6  7  8  9 10  5
TYPE ASSIGNMENTS      6  7  8  9 10  5  6  7  8  9 10 11 12 13 17 14 15 18 19 16
TYPE ASSIGNMENTS     20 11 12 13 17 14 15 18 19 16 20  1  1  1  1  1  1  2  3  4
TYPE ASSIGNMENTS      2  3  4  2  3  4  5  6  7  8  9 10  5  6  7  8  9 10  1  1
TYPE ASSIGNMENTS      1  1  1  1  2  3  4  2  3  4  2  3  4  5  6  7  8  9 10  5
TYPE ASSIGNMENTS      6  7  8  9 10
EXPONENTS  0.2549000D+06 0.3819000D+05 0.8690000D+04 0.2462000D+04 0.8048000D+03
EXPONENTS  0.2913000D+03 0.1136000D+03 0.4675000D+02 0.1982000D+02 0.7708000D+01
EXPONENTS  0.3340000D+01 0.1402000D+01 0.2070000D+00 0.2549000D+06 0.3819000D+05
EXPONENTS  0.8690000D+04 0.2462000D+04 0.8048000D+03 0.2913000D+03 0.1136000D+03
EXPONENTS  0.4675000D+02 0.1982000D+02 0.7708000D+01 0.3340000D+01 0.1402000D+01
EXPONENTS  0.2070000D+00 0.2549000D+06 0.3819000D+05 0.8690000D+04 0.2462000D+04
EXPONENTS  0.8048000D+03 0.2913000D+03 0.1136000D+03 0.4675000D+02 0.1982000D+02
EXPONENTS  0.7708000D+01 0.3340000D+01 0.1402000D+01 0.2070000D+00 0.4387000D+00
EXPONENTS  0.7944000D-01 0.3300000D-01 0.4815000D+03 0.1139000D+03 0.3623000D+02
EXPONENTS  0.1334000D+02 0.5252000D+01 0.2120000D+01 0.2528000D+00 0.4815000D+03
EXPONENTS  0.1139000D+03 0.3623000D+02 0.1334000D+02 0.5252000D+01 0.2120000D+01
EXPONENTS  0.2528000D+00 0.4815000D+03 0.1139000D+03 0.3623000D+02 0.1334000D+02
EXPONENTS  0.5252000D+01 0.2120000D+01 0.2528000D+00 0.4815000D+03 0.1139000D+03
EXPONENTS  0.3623000D+02 0.1334000D+02 0.5252000D+01 0.2120000D+01 0.2528000D+00
EXPONENTS  0.4815000D+03 0.1139000D+03 0.3623000D+02 0.1334000D+02 0.5252000D+01
EXPONENTS  0.2120000D+01 0.2528000D+00 0.4815000D+03 0.1139000D+03 0.3623000D+02
EXPONENTS  0.1334000D+02 0.5252000D+01 0.2120000D+01 0.2528000D+00 0.8561000D+00
EXPONENTS  0.8561000D+00 0.8561000D+00 0.7889000D-01 0.7889000D-01 0.7889000D-01
EXPONENTS  0.2370000D-01 0.2370000D-01 0.2370000D-01 0.1590000D+00 0.1590000D+00
EXPONENTS  0.1590000D+00 0.1590000D+00 0.1590000D+00 0.1590000D+00 0.4810000D+00
EXPONENTS  0.4810000D+00 0.4810000D+00 0.4810000D+00 0.4810000D+00 0.4810000D+00
EXPONENTS  0.5560000D-01 0.5560000D-01 0.5560000D-01 0.5560000D-01 0.5560000D-01
EXPONENTS  0.5560000D-01 0.3360000D+00 0.3360000D+00 0.3360000D+00 0.3360000D+00
EXPONENTS  0.3360000D+00 0.3360000D+00 0.3360000D+00 0.3360000D+00 0.3360000D+00
EXPONENTS  0.3360000D+00 0.1250000D+00 0.1250000D+00 0.1250000D+00 0.1250000D+00
EXPONENTS  0.1250000D+00 0.1250000D+00 0.1250000D+00 0.1250000D+00 0.1250000D+00
EXPONENTS  0.1250000D+00 0.3387000D+02 0.5095000D+01 0.1159000D+01 0.3258000D+00
EXPONENTS  0.1027000D+00 0.2526000D-01 0.1407000D+01 0.1407000D+01 0.1407000D+01
EXPONENTS  0.3880000D+00 0.3880000D+00 0.3880000D+00 0.1020000D+00 0.1020000D+00
EXPONENTS  0.1020000D+00 0.1057000D+01 0.1057000D+01 0.1057000D+01 0.1057000D+01
EXPONENTS  0.1057000D+01 0.1057000D+01 0.2470000D+00 0.2470000D+00 0.2470000D+00
EXPONENTS  0.2470000D+00 0.2470000D+00 0.2470000D+00 0.3387000D+02 0.5095000D+01
EXPONENTS  0.1159000D+01 0.3258000D+00 0.1027000D+00 0.2526000D-01 0.1407000D+01
EXPONENTS  0.1407000D+01 0.1407000D+01 0.3880000D+00 0.3880000D+00 0.3880000D+00
EXPONENTS  0.1020000D+00 0.1020000D+00 0.1020000D+00 0.1057000D+01 0.1057000D+01
EXPONENTS  0.1057000D+01 0.1057000D+01 0.1057000D+01 0.1057000D+01 0.2470000D+00
EXPONENTS  0.2470000D+00 0.2470000D+00 0.2470000D+00 0.2470000D+00 0.2470000D+00
MO    1     MO 0.0        OCC NO =    2.0000000  ORB. ENERGY =  -65.856201
  0.50603283D+00  0.94656406D+00  0.16346736D+01  0.26404240D+01  0.39764242D+01
  0.54079181D+01  0.61563665D+01  0.49875011D+01  0.20245252D+01  0.18460885D+00
 -0.70945593D-02  0.23723695D-02  0.13313200D-03 -0.12189114D-02 -0.22814665D-02
 -0.39458840D-02 -0.64133212D-02 -0.98123291D-02 -0.13924373D-01 -0.17466970D-01
 -0.17809089D-01 -0.10942258D-01  0.23847757D-02  0.87350804D-02  0.39951183D-02
 -0.21206307D-04  0.55947285D-03  0.10464095D-02  0.18120978D-02  0.29422077D-02
  0.45162292D-02  0.64151022D-02  0.81385747D-02  0.84256238D-02  0.54271255D-02
 -0.13348298D-02 -0.54411769D-02 -0.47456530D-02  0.24186318D-02 -0.22127260D-02
 -0.22125033D-03  0.14721472D-03 -0.40867293D-17 -0.53906066D-17 -0.59876397D-17
 -0.51245756D-17 -0.29281413D-17 -0.95024570D-18 -0.66909542D-21 -0.10633804D-16
 -0.14026536D-16 -0.15580036D-16 -0.13334315D-16 -0.76191202D-17 -0.24725706D-17
 -0.17410083D-20  0.94580411D-02  0.12475644D-01  0.13857375D-01  0.11859960D-01
  0.67766860D-02  0.21991823D-02  0.15485077D-05 -0.19915557D-17 -0.27234268D-17
 -0.29606393D-17 -0.27177120D-17 -0.14812634D-17 -0.62506471D-18  0.21557724D-18
  0.12499736D-17  0.17093229D-17  0.18582061D-17  0.17057361D-17  0.92969542D-18
  0.39231361D-18 -0.13530421D-18 -0.76608396D-02 -0.10476100D-01 -0.11388575D-01
 -0.10454117D-01 -0.56979181D-02 -0.24044120D-02  0.82925255D-03  0.84893289D-17
  0.10250108D-17 -0.41793752D-03 -0.33978578D-16  0.27655034D-20 -0.13924182D-04
 -0.42286140D-17 -0.63625005D-21  0.46175368D-05  0.23868181D-04 -0.27002384D-04
  0.31342029D-05 -0.11061484D-20 -0.18287847D-16 -0.13418418D-19  0.16691422D-03
 -0.31413696D-03  0.14722274D-03  0.16925710D-19  0.13399287D-16 -0.26974717D-19
 -0.96742512D-06  0.34932170D-05 -0.25257919D-05  0.31618716D-22 -0.52031144D-17
 -0.30410388D-21  0.16718257D-17  0.59765046D-20 -0.26508655D-04 -0.28650496D-17
 -0.85796494D-20  0.21277881D-03 -0.21504274D-17 -0.93498644D-20 -0.13325284D-03
  0.25467710D-20  0.40006816D-18  0.39461483D-21  0.74781007D-06  0.20494260D-17
 -0.36687419D-21 -0.11638759D-04 -0.32496305D-17 -0.81697030D-21  0.93953284D-05
 -0.21379096D-21  0.54851503D-04  0.98926945D-04  0.14586772D-03 -0.47347035D-03
 -0.19403909D-03 -0.39322464D-04  0.27454977D-03 -0.27898287D-19 -0.27651290D-03
 -0.51754072D-03  0.35006559D-19  0.53178666D-03 -0.74725618D-04  0.69465207D-20
  0.91454530D-04 -0.46294084D-04  0.80461802D-04 -0.34167718D-04  0.10461214D-19
  0.20327482D-03 -0.12213304D-19 -0.25038839D-04  0.59098078D-04 -0.34059240D-04
  0.16338220D-19  0.17532520D-03 -0.12700339D-19  0.54851503D-04  0.98926945D-04
  0.14586772D-03 -0.47347035D-03 -0.19403909D-03 -0.39322464D-04 -0.27454977D-03
 -0.29722862D-19 -0.27651290D-03  0.51754072D-03  0.34211096D-19  0.53178666D-03
  0.74725618D-04  0.71179789D-20  0.91454530D-04 -0.46294084D-04  0.80461802D-04
 -0.34167718D-04  0.49587145D-21 -0.20327482D-03 -0.36748625D-20 -0.25038839D-04
  0.59098078D-04 -0.34059240D-04 -0.15235697D-19 -0.17532520D-03 -0.11306841D-19
MO    2     MO 0.0        OCC NO =    2.0000000  ORB. ENERGY =   -5.260765
 -0.77911503D-03 -0.14573803D-02 -0.25168303D-02 -0.40653370D-02 -0.61223139D-02
 -0.83263180D-02 -0.94786689D-02 -0.76790216D-02 -0.31170666D-02 -0.28423360D-03
  0.10923160D-04 -0.36526262D-05 -0.20497710D-06 -0.13359060D+00 -0.25004481D+00
 -0.43246212D+00 -0.70288901D+00 -0.10754144D+01 -0.15260874D+01 -0.19143499D+01
 -0.19518456D+01 -0.11992528D+01  0.26136733D+00  0.95734984D+00  0.43785811D+00
 -0.23241749D-02 -0.23161534D-04 -0.43320154D-04 -0.75018769D-04 -0.12180402D-03
 -0.18696671D-03 -0.26557787D-03 -0.33692765D-03 -0.34881115D-03 -0.22467677D-03
  0.55260419D-04  0.22525848D-03  0.19646459D-03 -0.10012858D-03  0.21999550D-01
  0.35863546D-03 -0.27679480D-05  0.54892335D-13  0.72405819D-13  0.80425078D-13
  0.68832531D-13  0.39330355D-13  0.12763558D-13  0.89871893D-17 -0.37238940D-15
 -0.49120081D-15 -0.54560343D-15 -0.46695964D-15 -0.26681698D-15 -0.86587928D-16
 -0.60969059D-19  0.41301270D-01  0.54478503D-01  0.60512235D-01  0.51789944D-01
  0.29592358D-01  0.96033651D-02  0.67620066D-05 -0.45797254D-13 -0.62627155D-13
 -0.68082026D-13 -0.62495740D-13 -0.34062716D-13 -0.14373812D-13  0.49573534D-14
  0.50937733D-16  0.69656695D-16  0.75723844D-16  0.69510529D-16  0.37886061D-16
  0.15987190D-16 -0.55137880D-17  0.38679797D-02  0.52894125D-02  0.57501242D-02
  0.52783133D-02  0.28768951D-02  0.12139945D-02 -0.41869197D-03 -0.26694423D-14
  0.23981486D-16  0.21088999D-02  0.50387437D-14  0.38815775D-19  0.42870332D-04
  0.14438378D-15 -0.27273837D-19 -0.11023367D-05  0.26101269D-04 -0.30788471D-04
  0.46872027D-05 -0.23432719D-18  0.23570084D-14 -0.52726821D-18 -0.26658704D-03
  0.73183440D-03 -0.46524737D-03  0.28294682D-17  0.47203983D-15 -0.74620624D-17
 -0.29483094D-06  0.17530523D-05 -0.14582214D-05  0.42699345D-20  0.33506744D-15
 -0.14989261D-19 -0.70423303D-16  0.50656389D-18  0.13948744D-04 -0.13825719D-15
 -0.94408274D-18 -0.93422732D-04  0.34952710D-15 -0.57560892D-18  0.51576500D-04
  0.25542629D-19  0.23909090D-16  0.76480446D-20 -0.63127463D-06 -0.93191220D-16
 -0.10763034D-19  0.93284837D-06  0.21463950D-16 -0.12181100D-19  0.96097553D-06
 -0.23295858D-19 -0.15037946D-04 -0.27121555D-04 -0.39990717D-04  0.41204137D-03
 -0.16901656D-03 -0.45213907D-05  0.45530685D-04 -0.23214162D-17 -0.11762178D-03
  0.24489814D-03  0.24112633D-17 -0.15929028D-03 -0.29682043D-04  0.32445129D-18
  0.44615780D-04  0.15724561D-03 -0.26068043D-03  0.10343482D-03  0.12926607D-17
 -0.72190293D-03 -0.11136675D-17  0.53247407D-05  0.18757341D-04 -0.24082082D-04
  0.13182336D-17  0.42967854D-04 -0.12635290D-17 -0.15037946D-04 -0.27121555D-04
 -0.39990717D-04  0.41204137D-03 -0.16901656D-03 -0.45213907D-05 -0.45530685D-04
 -0.22785136D-17 -0.11762178D-03 -0.24489814D-03  0.23202513D-17 -0.15929028D-03
  0.29682043D-04  0.41651470D-18  0.44615780D-04  0.15724561D-03 -0.26068043D-03
  0.10343482D-03 -0.62381988D-18  0.72190293D-03 -0.17284097D-19  0.53247407D-05
  0.18757341D-04 -0.24082082D-04 -0.11354018D-17 -0.42967854D-04 -0.12519087D-17
MO    3     MO 0.0        OCC NO =    2.0000000  ORB. ENERGY =   -3.578649
 -0.13370733D-15 -0.25010739D-15 -0.43192422D-15 -0.69767020D-15 -0.10506770D-14
 -0.14289157D-14 -0.16266757D-14 -0.13178304D-14 -0.53493338D-15 -0.48778566D-16
  0.18745712D-17 -0.62684309D-18 -0.35177014D-19  0.27964017D-15  0.52340940D-15
  0.90525669D-15  0.14713311D-14  0.22511246D-14  0.31945014D-14  0.40072367D-14
  0.40857250D-14  0.25103507D-14 -0.54711039D-15 -0.20039844D-14 -0.91655191D-15
  0.48651078D-17 -0.14277210D-15 -0.26703367D-15 -0.46242996D-15 -0.75082314D-15
 -0.11524983D-14 -0.16370725D-14 -0.20768861D-14 -0.21501383D-14 -0.13849503D-14
  0.34063573D-15  0.13885361D-14  0.12110451D-14 -0.61721162D-15  0.21643747D-15
  0.29455212D-15 -0.11698375D-15  0.48145670D-12  0.63506620D-12  0.70540254D-12
  0.60372515D-12  0.34496370D-12  0.11194824D-12  0.78825987D-16  0.61716328D+01
  0.81407017D+01  0.90423198D+01  0.77389512D+01  0.44219745D+01  0.14350271D+01
  0.10104440D-02  0.11972210D-12  0.15791961D-12  0.17540990D-12  0.15012615D-12
  0.85780875D-13  0.27837764D-13  0.19601373D-16 -0.52008436D-14 -0.71120868D-14
 -0.77315547D-14 -0.70971629D-14 -0.38682420D-14 -0.16323238D-14  0.56296869D-15
 -0.18802164D-01 -0.25711717D-01 -0.27951227D-01 -0.25657764D-01 -0.13984523D-01
 -0.59012003D-02  0.20352524D-02  0.10143030D-14  0.13870463D-14  0.15078590D-14
  0.13841357D-14  0.75441019D-15  0.31834661D-15 -0.10979388D-15  0.11602979D-13
  0.15937313D+00  0.29537355D-14  0.11957405D-15 -0.50028949D-04  0.33545772D-16
  0.16810809D-17  0.97693619D-05 -0.32201635D-17  0.14094076D-16 -0.28597868D-16
  0.14503792D-16  0.92132694D-16  0.13944819D-15  0.10177276D-03 -0.33862396D-16
  0.12073710D-15 -0.86874708D-16  0.25338821D-15  0.44328601D-15  0.83126851D-03
 -0.20631887D-17  0.35868073D-19  0.20273207D-17  0.63255211D-17  0.85384514D-17
  0.82261635D-05 -0.85156209D-17 -0.32949911D-04  0.26670258D-17 -0.61718496D-16
  0.64561342D-04 -0.26577530D-16  0.87265359D-16  0.34288392D-04  0.18576453D-16
  0.10118520D-15 -0.25319642D-17 -0.66069193D-05  0.10400401D-17 -0.17547437D-17
  0.94166627D-05 -0.27844123D-17  0.93506362D-17  0.10404095D-04 -0.33570807D-18
  0.19983931D-16  0.22934093D-17  0.41362582D-17  0.60989103D-17  0.31589222D-15
  0.35189969D-15  0.48554646D-16 -0.60142823D-15  0.49613453D-03  0.52487728D-15
  0.40913118D-15 -0.33329893D-03 -0.40773919D-15  0.47471983D-16 -0.10598614D-03
 -0.41837221D-16  0.70697720D-16 -0.45566253D-15  0.38496481D-15  0.28606408D-03
 -0.12371143D-14 -0.31520553D-03  0.10007673D-16  0.16948478D-17 -0.11702520D-16
 -0.21890787D-03 -0.55584240D-16  0.21288004D-03  0.46652786D-16  0.84140221D-16
  0.12406471D-15 -0.25966671D-15 -0.40273373D-15  0.11164909D-16 -0.50126039D-15
  0.49613453D-03 -0.37973476D-15  0.26834770D-15 -0.33329893D-03  0.15036830D-15
  0.31137507D-16 -0.10598614D-03  0.21066618D-16  0.34461393D-16  0.15597155D-15
 -0.19043295D-15 -0.28606408D-03 -0.73748197D-15 -0.31520553D-03  0.20986094D-16
 -0.17320900D-16 -0.36651935D-17  0.21890787D-03  0.37486715D-16  0.21288004D-03
MO    4     MO 0.0        OCC NO =    2.0000000  ORB. ENERGY =   -3.567033
 -0.30245240D-16 -0.56575493D-16 -0.97703333D-16 -0.15781635D-15 -0.23766818D-15
 -0.32322760D-15 -0.36796185D-15 -0.29809956D-15 -0.12100450D-15 -0.11033946D-16
  0.42403700D-18 -0.14179492D-18 -0.79572095D-20  0.55866777D-16  0.10456722D-15
  0.18085304D-15  0.29394392D-15  0.44973180D-15  0.63820050D-15  0.80056953D-15
  0.81624999D-15  0.50152022D-15 -0.10930223D-15 -0.40035789D-15 -0.18310960D-15
  0.97195582D-18 -0.40029007D-16 -0.74868217D-16 -0.12965147D-15 -0.21050825D-15
 -0.32312590D-15 -0.45898593D-15 -0.58229646D-15 -0.60283417D-15 -0.38829845D-15
  0.95504025D-16  0.38930380D-15  0.33954065D-15 -0.17304759D-15  0.39476078D-15
 -0.43320923D-14 -0.30098373D-15  0.62088975D+01  0.81898558D+01  0.90969179D+01
  0.77856796D+01  0.44486747D+01  0.14436919D+01  0.10165452D-02 -0.47610636D-12
 -0.62800882D-12 -0.69756353D-12 -0.59701606D-12 -0.34113018D-12 -0.11070418D-12
 -0.77950009D-16 -0.75130916D-13 -0.99101550D-13 -0.11007748D-12 -0.94210805D-13
 -0.53831297D-13 -0.17469429D-13 -0.12300729D-16 -0.40264939D-01 -0.55061786D-01
 -0.59857708D-01 -0.54946246D-01 -0.29947935D-01 -0.12637453D-01  0.43585044D-02
  0.16749145D-14  0.22904241D-14  0.24899216D-14  0.22856179D-14  0.12457546D-14
  0.52568449D-15 -0.18130221D-15  0.92746931D-14  0.12683023D-13  0.13787724D-13
  0.12656410D-13  0.68982572D-14  0.29109321D-14 -0.10039452D-14  0.15410861D+00
 -0.12248019D-13 -0.82004248D-15  0.81265591D-03  0.35121588D-17 -0.13446074D-14
  0.17115940D-04  0.40263785D-18  0.65005272D-18 -0.59336850D-16  0.26523889D-15
 -0.20590204D-15 -0.81435473D-17  0.10017003D-02 -0.32876335D-17 -0.19398878D-15
  0.72210519D-16  0.12177826D-15  0.21369068D-15  0.16975030D-02 -0.67920777D-17
  0.17949736D-17  0.30540013D-16 -0.32334986D-16 -0.98578249D-18  0.39080499D-04
 -0.58629389D-18 -0.73044031D-04 -0.13577952D-17  0.38282740D-16 -0.31847424D-03
  0.82484198D-18 -0.22262993D-15  0.53760633D-03  0.32485435D-17  0.10778171D-15
  0.30922254D-17 -0.35313364D-05  0.34245946D-18 -0.64779004D-17 -0.25276612D-04
 -0.51000230D-18 -0.31424994D-16  0.35870621D-04 -0.51737608D-18  0.50858695D-16
 -0.10465692D-17 -0.24274872D-03 -0.43780732D-03 -0.64554663D-03  0.17995851D-02
  0.25519404D-02  0.15447693D-03 -0.62544397D-03  0.84496911D-16  0.99537716D-03
  0.11699553D-02 -0.10463765D-16 -0.12828366D-02  0.32713383D-03  0.36353146D-17
 -0.41484635D-03  0.27851003D-03 -0.20293022D-03 -0.75579803D-04 -0.22299305D-16
 -0.55719912D-03 -0.17276395D-16 -0.75594593D-04 -0.71112880D-05  0.82705881D-04
  0.81499674D-17 -0.23171500D-03 -0.68355301D-17  0.24274872D-03  0.43780732D-03
  0.64554663D-03 -0.17995851D-02 -0.25519404D-02 -0.15447693D-03 -0.62544397D-03
  0.61267097D-16 -0.99537716D-03  0.11699553D-02 -0.57153385D-17  0.12828366D-02
  0.32713383D-03  0.96265980D-17  0.41484635D-03 -0.27851003D-03  0.20293022D-03
  0.75579803D-04  0.90699688D-16 -0.55719912D-03  0.64272715D-16  0.75594593D-04
  0.71112880D-05 -0.82705881D-04 -0.12370604D-16 -0.23171500D-03 -0.13309465D-16
MO    5     MO 0.0        OCC NO =    2.0000000  ORB. ENERGY =   -3.563750
  0.98507491D-04  0.18426403D-03  0.31821570D-03  0.51400131D-03  0.77407540D-03
  0.10527389D-02  0.11984365D-02  0.97089790D-03  0.39410664D-03  0.35937105D-04
 -0.13810709D-05  0.46182017D-06  0.25916301D-07  0.78583115D-03  0.14708595D-02
  0.25439081D-02  0.41346629D-02  0.63260004D-02  0.89770318D-02  0.11260941D-01
  0.11481505D-01  0.70544648D-02 -0.15374629D-02 -0.56314991D-02 -0.25756494D-02
  0.13671688D-04  0.15969236D-03  0.29868046D-03  0.51723363D-03  0.83980498D-03
  0.12890837D-02  0.18310858D-02  0.23230228D-02  0.24049563D-02  0.15490841D-02
 -0.38100529D-03 -0.15530948D-02 -0.13545689D-02  0.69035883D-03 -0.57524569D-03
  0.43168010D-02 -0.24095199D-03  0.73120741D-13  0.96450026D-13  0.10713229D-12
  0.91690137D-13  0.52391007D-13  0.17002024D-13  0.11971616D-16 -0.12156278D-12
 -0.16034757D-12 -0.17810676D-12 -0.15243428D-12 -0.87099723D-13 -0.28265759D-13
 -0.19902737D-16  0.62060811D+01  0.81861408D+01  0.90927915D+01  0.77821479D+01
  0.44466568D+01  0.14430371D+01  0.10160840D-02 -0.65978928D-14 -0.90225335D-14
 -0.98084027D-14 -0.90036008D-14 -0.49073281D-14 -0.20707982D-14  0.71419318D-15
  0.40243187D-15  0.55032041D-15  0.59825371D-15  0.54916563D-15  0.29931757D-15
  0.12630626D-15 -0.43561499D-16 -0.35971023D-01 -0.49189911D-01 -0.53474388D-01
 -0.49086692D-01 -0.26754240D-01 -0.11289776D-01  0.38937067D-02  0.12315478D-14
 -0.31033824D-14  0.15373546D+00  0.89479923D-15  0.75144453D-18  0.86368841D-03
  0.32007067D-16 -0.20661169D-18 -0.14196413D-04  0.69482704D-04 -0.30556726D-03
  0.23608456D-03 -0.11291948D-18  0.57005893D-15 -0.33833875D-17 -0.24167138D-03
 -0.37734605D-03  0.61901744D-03  0.14808427D-18  0.22724937D-15 -0.10734217D-16
  0.28082054D-06 -0.11853346D-04  0.11572525D-04 -0.14568082D-19  0.76820893D-16
 -0.16675056D-18 -0.59417728D-16  0.12410018D-17 -0.47602098D-04 -0.70072792D-16
 -0.13147534D-17  0.33090506D-03  0.24832598D-15 -0.24082519D-17 -0.18809877D-03
  0.40921611D-18 -0.18554318D-17  0.14853359D-18  0.54273537D-05 -0.32041448D-16
 -0.21608264D-18  0.18925114D-04  0.37607744D-16 -0.22951813D-18 -0.35207175D-04
 -0.64003475D-19  0.21218509D-03  0.38268455D-03  0.56426814D-03 -0.11465277D-02
 -0.26885369D-02  0.33767583D-04  0.11291322D-02 -0.11403803D-16 -0.50256709D-03
 -0.11859156D-02  0.85804014D-17  0.67807010D-03 -0.44898533D-03  0.25226610D-17
  0.28731092D-03 -0.77596648D-04  0.12664482D-03 -0.49048173D-04 -0.58307129D-17
  0.10281645D-03  0.64072026D-17 -0.13859550D-03  0.46799606D-04  0.91795897D-04
  0.55543732D-17  0.10134352D-03 -0.49110685D-17  0.21218509D-03  0.38268455D-03
  0.56426814D-03 -0.11465277D-02 -0.26885369D-02  0.33767583D-04 -0.11291322D-02
 -0.11905070D-16 -0.50256709D-03  0.11859156D-02  0.86366025D-17  0.67807010D-03
  0.44898533D-03  0.27554819D-17  0.28731092D-03 -0.77596648D-04  0.12664482D-03
 -0.49048173D-04  0.64483166D-17 -0.10281645D-03  0.68951524D-17 -0.13859550D-03
  0.46799606D-04  0.91795897D-04 -0.54936855D-17 -0.10134352D-03 -0.49582210D-17
MO    6     MO 0.0        OCC NO =    2.0000000  ORB. ENERGY =   -0.473283
 -0.16725086D-02 -0.31285253D-02 -0.54028226D-02 -0.87269668D-02 -0.13142632D-01
 -0.17873918D-01 -0.20347644D-01 -0.16484382D-01 -0.66913362D-02 -0.61015782D-03
  0.23448501D-04 -0.78410098D-05 -0.44001970D-06  0.47325202D-02  0.88579748D-02
  0.15320208D-01  0.24900229D-01  0.38097147D-01  0.54062485D-01  0.67816897D-01
  0.69145202D-01  0.42484187D-01 -0.92590809D-02 -0.33914643D-01 -0.15511364D-01
  0.82335170D-04  0.26552199D-01  0.49661881D-01  0.86000922D-01  0.13963516D+00
  0.21433715D+00  0.30445636D+00  0.38625119D+00  0.39987434D+00  0.25756766D+00
 -0.63350107D-01 -0.25823453D+00 -0.22522545D+00  0.11478661D+00  0.35260738D-01
  0.12136928D-01 -0.59194912D-02  0.16051978D-12  0.21173386D-12  0.23518431D-12
  0.20128462D-12  0.11501241D-12  0.37324035D-13  0.26280931D-16 -0.49706644D-15
 -0.65565626D-15 -0.72827304D-15 -0.62329907D-15 -0.35614808D-15 -0.11557782D-15
 -0.81381676D-19 -0.12933715D+00 -0.17060236D+00 -0.18949731D+00 -0.16218299D+00
 -0.92670058D-01 -0.30073454D-01 -0.21175587D-04 -0.14451719D-12 -0.19762540D-12
 -0.21483872D-12 -0.19721071D-12 -0.10748784D-12 -0.45357806D-13  0.15643357D-13
 -0.51711907D-15 -0.70715368D-15 -0.76874728D-15 -0.70566980D-15 -0.38461870D-15
 -0.16230170D-15  0.55975889D-16 -0.21099672D+00 -0.28853530D+00 -0.31366693D+00
 -0.28792984D+00 -0.15693345D+00 -0.66222904D-01  0.22839476D-01 -0.64047066D-14
  0.12247470D-16  0.18224444D-01  0.91352743D-14  0.68441846D-17 -0.32736725D-02
 -0.17025399D-14  0.10158458D-18 -0.20961831D-03  0.19601275D-03 -0.24240290D-03
  0.46390148D-04 -0.11461095D-16  0.87545162D-14 -0.34626309D-17  0.32400119D-02
 -0.54999211D-02  0.22599092D-02  0.30544095D-16  0.52379401D-14 -0.10831039D-16
 -0.67680242D-04  0.11357266D-03 -0.45892421D-04  0.22266289D-18 -0.20267558D-15
  0.34131444D-18 -0.72002769D-15  0.14186450D-17 -0.75379144D-04 -0.18709263D-14
  0.16336252D-18  0.20257629D-02  0.40310093D-14 -0.44192976D-17 -0.17996255D-02
 -0.20802583D-16 -0.12323535D-15 -0.67858391D-21  0.61718215D-04 -0.12231258D-16
 -0.19462733D-18 -0.42878293D-04  0.38193730D-15  0.19666308D-18 -0.14227635D-03
 -0.26333627D-17  0.24284922D-01  0.43798857D-01  0.64581389D-01  0.44244657D-01
  0.18354853D-01  0.14687822D-02  0.13178539D-01 -0.15721301D-17 -0.10597471D-01
  0.47447282D-02 -0.24527140D-16 -0.44510092D-02  0.16915565D-02  0.96438428D-18
 -0.14468895D-02  0.19730289D-02 -0.25304354D-02  0.55740645D-03  0.13479516D-16
 -0.77896261D-02  0.91505634D-17 -0.26553200D-03  0.31877346D-03 -0.53241461D-04
 -0.61692582D-17 -0.67088896D-03  0.72265367D-17  0.24284922D-01  0.43798857D-01
  0.64581389D-01  0.44244657D-01  0.18354853D-01  0.14687822D-02 -0.13178539D-01
 -0.49805748D-16 -0.10597471D-01 -0.47447282D-02  0.68537155D-16 -0.44510092D-02
 -0.16915565D-02 -0.12250726D-16 -0.14468895D-02  0.19730289D-02 -0.25304354D-02
  0.55740645D-03  0.50838493D-17  0.77896261D-02 -0.68003867D-17 -0.26553200D-03
  0.31877346D-03 -0.53241461D-04 -0.16073008D-16  0.67088896D-03 -0.56254524D-17
MO    7     MO 0.0        OCC NO =    2.0000000  ORB. ENERGY =   -0.299962
 -0.34003373D-15 -0.63605301D-15 -0.10984350D-14 -0.17742588D-14 -0.26719973D-14
 -0.36339037D-14 -0.41368309D-14 -0.33514003D-14 -0.13603996D-14 -0.12404973D-15
  0.47672588D-17 -0.15941370D-17 -0.89459355D-19  0.71249475D-15  0.13335940D-14
  0.23065021D-14  0.37488022D-14  0.57356368D-14  0.81392650D-14  0.10210032D-13
  0.10410012D-13  0.63961185D-14 -0.13939817D-14 -0.51059486D-14 -0.23352812D-14
  0.12395800D-16 -0.56017767D-15 -0.10477278D-14 -0.18143807D-14 -0.29459142D-14
 -0.45219187D-14 -0.64231839D-14 -0.81488276D-14 -0.84362383D-14 -0.54339626D-14
  0.13365114D-14  0.54480317D-14  0.47516315D-14 -0.24216788D-14 -0.91141289D-14
  0.15109333D-12  0.99671561D-14 -0.17752173D+00 -0.23416031D+00 -0.26009459D+00
 -0.22260431D+00 -0.12719431D+00 -0.41277327D-01 -0.29064557D-04  0.48757921D-15
  0.64314210D-15  0.71437289D-15  0.61140250D-15  0.34935048D-15  0.11337185D-15
  0.79828388D-19  0.20988105D-12  0.27684392D-12  0.30750559D-12  0.26318144D-12
  0.15037976D-12  0.48801510D-13  0.34362552D-16 -0.82267963D+00 -0.11250038D+01
 -0.12229925D+01 -0.11226431D+01 -0.61188610D+00 -0.25820418D+00  0.89051490D-01
  0.10234445D-14  0.13995472D-14  0.15214488D-14  0.13966104D-14  0.76120940D-15
  0.32121574D-15 -0.11078341D-15 -0.18092608D-12 -0.24741409D-12 -0.26896403D-12
 -0.24689492D-12 -0.13456776D-12 -0.56785009D-13  0.19584461D-13  0.55414165D-01
 -0.31624026D-15 -0.96587834D-14  0.28133558D-02 -0.15127599D-15  0.44074534D-13
 -0.45555937D-03  0.17874627D-16 -0.19689769D-15  0.43286102D-14 -0.78113861D-14
  0.34827759D-14 -0.18520190D-15  0.44332839D-02 -0.33861340D-15  0.24374202D-15
  0.20861938D-14 -0.23299358D-14 -0.30696139D-16  0.55628506D-01  0.54738612D-15
  0.36583254D-15 -0.12036841D-14  0.83785155D-15  0.12894621D-16 -0.39803385D-03
 -0.15054470D-16 -0.89361560D-03 -0.48277411D-16 -0.10091631D-14 -0.25300372D-02
  0.37627301D-14  0.36077033D-14  0.52108840D-02 -0.36178979D-14 -0.58021397D-15
 -0.29505962D-16 -0.37911002D-04  0.22295257D-16 -0.82999118D-16 -0.32161562D-04
 -0.14892363D-15  0.16923911D-14  0.14589457D-03  0.82037860D-16 -0.14433938D-14
 -0.64707799D-17 -0.35321624D-01 -0.63704003D-01 -0.93931515D-01 -0.66404803D-01
 -0.36795039D-01 -0.31100340D-02 -0.83761368D-02 -0.13005485D-16  0.11869074D-01
  0.34852694D-02  0.42023994D-15  0.28540761D-02 -0.33478758D-02 -0.12563133D-16
  0.30753853D-02  0.16704705D-02  0.14718036D-03 -0.18176509D-02 -0.43649291D-15
  0.39241965D-02 -0.30140375D-15 -0.15298486D-03  0.54268046D-04  0.98716815D-04
  0.67119546D-15 -0.67775384D-04  0.52641327D-15  0.35321624D-01  0.63704003D-01
  0.93931515D-01  0.66404803D-01  0.36795039D-01  0.31100340D-02 -0.83761368D-02
 -0.68671324D-15 -0.11869074D-01  0.34852694D-02  0.62640240D-15 -0.28540761D-02
 -0.33478758D-02  0.63167223D-16 -0.30753853D-02 -0.16704705D-02 -0.14718036D-03
  0.18176509D-02  0.92681465D-15  0.39241965D-02  0.75616334D-15  0.15298486D-03
 -0.54268046D-04 -0.98716815D-04 -0.70550640D-15 -0.67775384D-04  0.43642388D-15
MO    8     MO 0.0        OCC NO =    2.0000000  ORB. ENERGY =   -0.219068
 -0.16289583D-02 -0.30470620D-02 -0.52621391D-02 -0.84997264D-02 -0.12800413D-01
 -0.17408501D-01 -0.19817814D-01 -0.16055147D-01 -0.65171013D-02 -0.59427000D-03
  0.22837928D-04 -0.76368387D-05 -0.42856208D-06  0.26806105D-02  0.50173647D-02
  0.86777252D-02  0.14104074D-01  0.21579118D-01  0.30622260D-01  0.38413081D-01
  0.39165464D-01  0.24064040D-01 -0.52445606D-02 -0.19210050D-01 -0.87860004D-02
  0.46636572D-04  0.15735579D-01  0.29431025D-01  0.50966562D-01  0.82751719D-01
  0.12702221D+00  0.18042939D+00  0.22890330D+00  0.23697676D+00  0.15264183D+00
 -0.37543052D-01 -0.15303704D+00 -0.13347492D+00  0.68025770D-01  0.23190573D-01
  0.76014997D-01 -0.35377200D-02 -0.80007239D-13 -0.10553367D-12 -0.11722198D-12
 -0.10032550D-12 -0.57325183D-13 -0.18603271D-13 -0.13099100D-16 -0.21785450D-16
 -0.28736131D-16 -0.31918783D-16 -0.27317979D-16 -0.15609274D-16 -0.50655496D-17
 -0.35667997D-20  0.18182674D+00  0.23983883D+00  0.26640203D+00  0.22800259D+00
  0.13027885D+00  0.42278326D-01  0.29769389D-04  0.64182670D-13  0.87768976D-13
  0.95413718D-13  0.87584803D-13  0.47737275D-13  0.20144213D-13 -0.69474947D-14
 -0.16229759D-14 -0.22193987D-14 -0.24127100D-14 -0.22147416D-14 -0.12071241D-14
 -0.50938318D-15  0.17568008D-15  0.90803631D+00  0.12417280D+01  0.13498834D+01
  0.12391224D+01  0.67537200D+00  0.28499401D+00 -0.98290979D-01  0.86574552D-14
  0.14402800D-15 -0.66232457D-01 -0.27814476D-14  0.45230624D-16 -0.88228295D-02
  0.17850558D-14 -0.71962530D-18 -0.33524491D-03  0.28969050D-03  0.10757227D-02
 -0.13654132D-02  0.12741197D-16 -0.72493118D-14 -0.24182450D-16 -0.67434144D-02
  0.16880276D-01 -0.10136862D-01  0.38727416D-16 -0.50184601D-14 -0.53143029D-16
  0.83841624D-04 -0.77100047D-04 -0.67415774D-05  0.40516254D-18  0.19568233D-15
 -0.15449106D-17  0.45601127D-15  0.32838462D-17  0.11845670D-02  0.30986459D-14
 -0.91639826D-17 -0.37185743D-02 -0.44666797D-14 -0.68755597D-18  0.16487320D-03
  0.27313091D-17 -0.83199852D-16 -0.13538553D-18 -0.95664279D-04  0.46735227D-15
 -0.58519463D-19  0.43056356D-03 -0.21775272D-15  0.46467606D-18 -0.14357072D-03
  0.33553274D-17 -0.20999293D-01 -0.37873089D-01 -0.55843847D-01 -0.44668067D-01
 -0.37753377D-01  0.61493320D-03 -0.73542537D-02 -0.16993368D-16  0.54080787D-03
 -0.14664152D-02  0.49001623D-16 -0.45747730D-02 -0.28711938D-02  0.59137929D-17
  0.40936342D-02 -0.33258589D-02  0.14607674D-02  0.18650915D-02 -0.76327065D-17
  0.30659269D-02 -0.52386607D-17  0.42144042D-03 -0.13124055D-03 -0.29019987D-03
  0.16556887D-16  0.48837389D-03 -0.15956110D-16 -0.20999293D-01 -0.37873089D-01
 -0.55843847D-01 -0.44668067D-01 -0.37753377D-01  0.61493320D-03  0.73542537D-02
  0.28852128D-16  0.54080787D-03  0.14664152D-02 -0.28369675D-16 -0.45747730D-02
  0.28711938D-02  0.51334071D-17  0.40936342D-02 -0.33258589D-02  0.14607674D-02
  0.18650915D-02 -0.17946419D-16 -0.30659269D-02 -0.27462036D-16  0.42144042D-03
 -0.13124055D-03 -0.29019987D-03  0.83490645D-17 -0.48837389D-03  0.70740781D-17
END DATA
RHF
