 Molden2AIM, Version 4.0.0 (06/02/2016)           Time: Thu Jun 28 21:07:44 2018
GAUSSIAN             15 MOL ORBITALS    281 PRIMITIVES        3 NUCLEI
  Si   1    (CENTRE  1)   0.00000000  0.00000000  0.00000000  CHARGE = 14.0
  O    2    (CENTRE  2)   0.00000000  0.00000000  2.90699026  CHARGE =  8.0
  O    3    (CENTRE  3)   0.00000000  0.00000000 -2.90699026  CHARGE =  8.0
CENTRE ASSIGNMENTS    1  1  1  1  1  1  1  1  1  1  1  1  1  1  1  1  1  1  1  1
CENTRE ASSIGNMENTS    1  1  1  1  1  1  1  1  1  1  1  1  1  1  1  1  1  1  1  1
CENTRE ASSIGNMENTS    1  1  1  1  1  1  1  1  1  1  1  1  1  1  1  1  1  1  1  1
CENTRE ASSIGNMENTS    1  1  1  1  1  1  1  1  1  1  1  1  1  1  1  1  1  1  1  1
CENTRE ASSIGNMENTS    1  1  1  1  1  1  1  1  1  1  1  1  1  1  1  1  1  1  1  1
CENTRE ASSIGNMENTS    1  1  1  1  1  1  1  1  1  1  1  1  1  1  1  1  1  1  1  1
CENTRE ASSIGNMENTS    1  1  1  1  1  1  1  1  1  1  1  2  2  2  2  2  2  2  2  2
CENTRE ASSIGNMENTS    2  2  2  2  2  2  2  2  2  2  2  2  2  2  2  2  2  2  2  2
CENTRE ASSIGNMENTS    2  2  2  2  2  2  2  2  2  2  2  2  2  2  2  2  2  2  2  2
CENTRE ASSIGNMENTS    2  2  2  2  2  2  2  2  2  2  2  2  2  2  2  2  2  2  2  2
CENTRE ASSIGNMENTS    2  2  2  2  2  2  3  3  3  3  3  3  3  3  3  3  3  3  3  3
CENTRE ASSIGNMENTS    3  3  3  3  3  3  3  3  3  3  3  3  3  3  3  3  3  3  3  3
CENTRE ASSIGNMENTS    3  3  3  3  3  3  3  3  3  3  3  3  3  3  3  3  3  3  3  3
CENTRE ASSIGNMENTS    3  3  3  3  3  3  3  3  3  3  3  3  3  3  3  3  3  3  3  3
CENTRE ASSIGNMENTS    3
TYPE ASSIGNMENTS      1  1  1  1  1  1  1  1  1  1  1  1  1  1  1  1  1  1  1  1
TYPE ASSIGNMENTS      1  1  1  1  1  1  1  1  1  1  1  1  1  1  1  1  1  1  1  1
TYPE ASSIGNMENTS      1  1  2  2  2  2  2  2  2  3  3  3  3  3  3  3  4  4  4  4
TYPE ASSIGNMENTS      4  4  4  2  2  2  2  2  2  2  3  3  3  3  3  3  3  4  4  4
TYPE ASSIGNMENTS      4  4  4  4  2  3  4  2  3  4  2  3  4  5  6  7  8  9 10  5
TYPE ASSIGNMENTS      6  7  8  9 10  5  6  7  8  9 10 11 12 13 17 14 15 18 19 16
TYPE ASSIGNMENTS     20 11 12 13 17 14 15 18 19 16 20  1  1  1  1  1  1  1  1  1
TYPE ASSIGNMENTS      1  1  1  1  1  1  1  1  1  1  2  2  2  3  3  3  4  4  4  2
TYPE ASSIGNMENTS      3  4  2  3  4  2  3  4  5  6  7  8  9 10  5  6  7  8  9 10
TYPE ASSIGNMENTS      5  6  7  8  9 10 11 12 13 17 14 15 18 19 16 20 11 12 13 17
TYPE ASSIGNMENTS     14 15 18 19 16 20  1  1  1  1  1  1  1  1  1  1  1  1  1  1
TYPE ASSIGNMENTS      1  1  1  1  1  2  2  2  3  3  3  4  4  4  2  3  4  2  3  4
TYPE ASSIGNMENTS      2  3  4  5  6  7  8  9 10  5  6  7  8  9 10  5  6  7  8  9
TYPE ASSIGNMENTS     10 11 12 13 17 14 15 18 19 16 20 11 12 13 17 14 15 18 19 16
TYPE ASSIGNMENTS     20
EXPONENTS  0.2549000D+06 0.3819000D+05 0.8690000D+04 0.2462000D+04 0.8048000D+03
EXPONENTS  0.2913000D+03 0.1136000D+03 0.4675000D+02 0.1982000D+02 0.7708000D+01
EXPONENTS  0.3340000D+01 0.1402000D+01 0.2070000D+00 0.2549000D+06 0.3819000D+05
EXPONENTS  0.8690000D+04 0.2462000D+04 0.8048000D+03 0.2913000D+03 0.1136000D+03
EXPONENTS  0.4675000D+02 0.1982000D+02 0.7708000D+01 0.3340000D+01 0.1402000D+01
EXPONENTS  0.2070000D+00 0.2549000D+06 0.3819000D+05 0.8690000D+04 0.2462000D+04
EXPONENTS  0.8048000D+03 0.2913000D+03 0.1136000D+03 0.4675000D+02 0.1982000D+02
EXPONENTS  0.7708000D+01 0.3340000D+01 0.1402000D+01 0.2070000D+00 0.4387000D+00
EXPONENTS  0.7944000D-01 0.3300000D-01 0.4815000D+03 0.1139000D+03 0.3623000D+02
EXPONENTS  0.1334000D+02 0.5252000D+01 0.2120000D+01 0.2528000D+00 0.4815000D+03
EXPONENTS  0.1139000D+03 0.3623000D+02 0.1334000D+02 0.5252000D+01 0.2120000D+01
EXPONENTS  0.2528000D+00 0.4815000D+03 0.1139000D+03 0.3623000D+02 0.1334000D+02
EXPONENTS  0.5252000D+01 0.2120000D+01 0.2528000D+00 0.4815000D+03 0.1139000D+03
EXPONENTS  0.3623000D+02 0.1334000D+02 0.5252000D+01 0.2120000D+01 0.2528000D+00
EXPONENTS  0.4815000D+03 0.1139000D+03 0.3623000D+02 0.1334000D+02 0.5252000D+01
EXPONENTS  0.2120000D+01 0.2528000D+00 0.4815000D+03 0.1139000D+03 0.3623000D+02
EXPONENTS  0.1334000D+02 0.5252000D+01 0.2120000D+01 0.2528000D+00 0.8561000D+00
EXPONENTS  0.8561000D+00 0.8561000D+00 0.7889000D-01 0.7889000D-01 0.7889000D-01
EXPONENTS  0.2370000D-01 0.2370000D-01 0.2370000D-01 0.1590000D+00 0.1590000D+00
EXPONENTS  0.1590000D+00 0.1590000D+00 0.1590000D+00 0.1590000D+00 0.4810000D+00
EXPONENTS  0.4810000D+00 0.4810000D+00 0.4810000D+00 0.4810000D+00 0.4810000D+00
EXPONENTS  0.5560000D-01 0.5560000D-01 0.5560000D-01 0.5560000D-01 0.5560000D-01
EXPONENTS  0.5560000D-01 0.3360000D+00 0.3360000D+00 0.3360000D+00 0.3360000D+00
EXPONENTS  0.3360000D+00 0.3360000D+00 0.3360000D+00 0.3360000D+00 0.3360000D+00
EXPONENTS  0.3360000D+00 0.1250000D+00 0.1250000D+00 0.1250000D+00 0.1250000D+00
EXPONENTS  0.1250000D+00 0.1250000D+00 0.1250000D+00 0.1250000D+00 0.1250000D+00
EXPONENTS  0.1250000D+00 0.1533000D+05 0.2299000D+04 0.5224000D+03 0.1473000D+03
EXPONENTS  0.4755000D+02 0.1676000D+02 0.6207000D+01 0.6882000D+00 0.1533000D+05
EXPONENTS  0.2299000D+04 0.5224000D+03 0.1473000D+03 0.4755000D+02 0.1676000D+02
EXPONENTS  0.6207000D+01 0.6882000D+00 0.1752000D+01 0.2384000D+00 0.7376000D-01
EXPONENTS  0.3446000D+02 0.7749000D+01 0.2280000D+01 0.3446000D+02 0.7749000D+01
EXPONENTS  0.2280000D+01 0.3446000D+02 0.7749000D+01 0.2280000D+01 0.7156000D+00
EXPONENTS  0.7156000D+00 0.7156000D+00 0.2140000D+00 0.2140000D+00 0.2140000D+00
EXPONENTS  0.5974000D-01 0.5974000D-01 0.5974000D-01 0.2314000D+01 0.2314000D+01
EXPONENTS  0.2314000D+01 0.2314000D+01 0.2314000D+01 0.2314000D+01 0.6450000D+00
EXPONENTS  0.6450000D+00 0.6450000D+00 0.6450000D+00 0.6450000D+00 0.6450000D+00
EXPONENTS  0.2140000D+00 0.2140000D+00 0.2140000D+00 0.2140000D+00 0.2140000D+00
EXPONENTS  0.2140000D+00 0.1428000D+01 0.1428000D+01 0.1428000D+01 0.1428000D+01
EXPONENTS  0.1428000D+01 0.1428000D+01 0.1428000D+01 0.1428000D+01 0.1428000D+01
EXPONENTS  0.1428000D+01 0.5000000D+00 0.5000000D+00 0.5000000D+00 0.5000000D+00
EXPONENTS  0.5000000D+00 0.5000000D+00 0.5000000D+00 0.5000000D+00 0.5000000D+00
EXPONENTS  0.5000000D+00 0.1533000D+05 0.2299000D+04 0.5224000D+03 0.1473000D+03
EXPONENTS  0.4755000D+02 0.1676000D+02 0.6207000D+01 0.6882000D+00 0.1533000D+05
EXPONENTS  0.2299000D+04 0.5224000D+03 0.1473000D+03 0.4755000D+02 0.1676000D+02
EXPONENTS  0.6207000D+01 0.6882000D+00 0.1752000D+01 0.2384000D+00 0.7376000D-01
EXPONENTS  0.3446000D+02 0.7749000D+01 0.2280000D+01 0.3446000D+02 0.7749000D+01
EXPONENTS  0.2280000D+01 0.3446000D+02 0.7749000D+01 0.2280000D+01 0.7156000D+00
EXPONENTS  0.7156000D+00 0.7156000D+00 0.2140000D+00 0.2140000D+00 0.2140000D+00
EXPONENTS  0.5974000D-01 0.5974000D-01 0.5974000D-01 0.2314000D+01 0.2314000D+01
EXPONENTS  0.2314000D+01 0.2314000D+01 0.2314000D+01 0.2314000D+01 0.6450000D+00
EXPONENTS  0.6450000D+00 0.6450000D+00 0.6450000D+00 0.6450000D+00 0.6450000D+00
EXPONENTS  0.2140000D+00 0.2140000D+00 0.2140000D+00 0.2140000D+00 0.2140000D+00
EXPONENTS  0.2140000D+00 0.1428000D+01 0.1428000D+01 0.1428000D+01 0.1428000D+01
EXPONENTS  0.1428000D+01 0.1428000D+01 0.1428000D+01 0.1428000D+01 0.1428000D+01
EXPONENTS  0.1428000D+01 0.5000000D+00 0.5000000D+00 0.5000000D+00 0.5000000D+00
EXPONENTS  0.5000000D+00 0.5000000D+00 0.5000000D+00 0.5000000D+00 0.5000000D+00
EXPONENTS  0.5000000D+00
MO    1     MO 0.0        OCC NO =    2.0000000  ORB. ENERGY =  -65.914442
  0.50616200D+00  0.94680567D+00  0.16350908D+01  0.26410979D+01  0.39774391D+01
  0.54092985D+01  0.61579379D+01  0.49887741D+01  0.20250420D+01  0.18465597D+00
 -0.70963702D-02  0.23729751D-02  0.13316598D-03 -0.14823937D-02 -0.27746329D-02
 -0.47988343D-02 -0.77996377D-02 -0.11933382D-01 -0.16934294D-01 -0.21242665D-01
 -0.21658738D-01 -0.13307559D-01  0.29002736D-02  0.10623273D-01  0.48587111D-02
 -0.25790305D-04  0.71444348D-03  0.13362587D-02  0.23140380D-02  0.37571816D-02
  0.57671977D-02  0.81920471D-02  0.10392911D-01  0.10759471D-01  0.69304067D-02
 -0.17045696D-02 -0.69483503D-02 -0.60601704D-02  0.30885783D-02 -0.20131098D-02
  0.23833869D-03 -0.50408989D-04  0.15198528D-16  0.20047642D-16  0.22268006D-16
  0.19058274D-16  0.10889745D-16  0.35339596D-17  0.24883629D-20  0.49744076D-16
  0.65615000D-16  0.72882147D-16  0.62376845D-16  0.35641628D-16  0.11566485D-16
  0.81442961D-20  0.10376188D-12  0.13686727D-12  0.15202591D-12  0.13011275D-12
  0.74345382D-13  0.24126697D-13  0.16988304D-16 -0.24062226D-17 -0.32904785D-17
 -0.35770816D-17 -0.32835738D-17 -0.17896811D-17 -0.75521104D-18  0.26046313D-18
 -0.31536671D-16 -0.43125991D-16 -0.46882297D-16 -0.43035497D-16 -0.23456093D-16
 -0.98980209D-17  0.34137074D-17 -0.67218049D-13 -0.91919817D-13 -0.99926100D-13
 -0.91726934D-13 -0.49994904D-13 -0.21096889D-13  0.72760613D-14 -0.13275110D-17
 -0.39385927D-17 -0.37059305D-14  0.19593356D-19  0.50680034D-18 -0.47300434D-14
  0.69890515D-21  0.53165511D-20  0.15277412D-16 -0.90177999D-04 -0.90177999D-04
  0.18035600D-03  0.13483368D-20  0.17052700D-20  0.89557924D-20 -0.32063536D-03
 -0.32063536D-03  0.64127072D-03 -0.17515879D-19  0.15309798D-19  0.49789808D-20
  0.96492745D-05  0.96492745D-05 -0.19298549D-04 -0.66938183D-22  0.97781922D-22
  0.83811464D-22 -0.20701363D-19 -0.47989625D-18  0.30654698D-15 -0.21380047D-19
 -0.47991747D-18 -0.45982034D-15  0.83484135D-19  0.19196062D-17 -0.45982060D-15
  0.32967586D-21 -0.25587481D-20 -0.33342977D-19 -0.18548054D-15 -0.24968284D-20
 -0.33331942D-19  0.27822119D-15  0.10173073D-19  0.13336087D-18  0.27822042D-15
  0.95972883D-23  0.40545063D-03  0.75570781D-03  0.12814301D-02  0.19395041D-02
  0.24199348D-02  0.20784013D-02  0.79793866D-03 -0.35692286D-05 -0.26840267D-03
 -0.50339587D-03 -0.85817960D-03 -0.13411677D-02 -0.17933967D-02 -0.19149296D-02
 -0.11707504D-02  0.77239000D-03 -0.16893861D-03 -0.13930912D-02 -0.78760046D-04
 -0.22598439D-19 -0.21912885D-19 -0.14782302D-19  0.75268573D-20  0.72985196D-20
  0.49235382D-20 -0.19825560D-03 -0.19224124D-03 -0.12968481D-03  0.21787855D-19
  0.22856334D-18  0.78089192D-04 -0.12074611D-18 -0.21034924D-17  0.84240696D-03
 -0.54707313D-20 -0.11196648D-18  0.49211471D-04 -0.17684310D-03 -0.17684310D-03
  0.35368621D-03 -0.82496649D-20 -0.12305828D-18 -0.46570852D-17  0.12505659D-03
  0.12505659D-03 -0.25011319D-03  0.11045201D-20  0.98116685D-19  0.23144149D-17
  0.76037953D-04  0.76037953D-04 -0.15207591D-03 -0.13981775D-21  0.48978876D-19
  0.10342466D-17  0.52291368D-20 -0.85014024D-18 -0.74606438D-04  0.78162884D-20
 -0.85138603D-18  0.11190966D-03 -0.23503699D-19  0.34018068D-17  0.11190966D-03
  0.83176931D-20  0.76643885D-20  0.45393818D-18  0.78531745D-04  0.78356131D-20
  0.45380664D-18 -0.11779762D-03 -0.30828779D-19 -0.18156212D-17 -0.11779762D-03
 -0.23629495D-20  0.40545063D-03  0.75570781D-03  0.12814301D-02  0.19395041D-02
  0.24199348D-02  0.20784013D-02  0.79793866D-03 -0.35692286D-05 -0.26840267D-03
 -0.50339587D-03 -0.85817960D-03 -0.13411677D-02 -0.17933967D-02 -0.19149296D-02
 -0.11707504D-02  0.77239000D-03 -0.16893861D-03 -0.13930912D-02 -0.78760046D-04
 -0.19148041D-19 -0.18567158D-19 -0.12525295D-19  0.28989747D-19  0.28110303D-19
  0.18963044D-19  0.19825560D-03  0.19224124D-03  0.12968481D-03  0.16708334D-19
  0.20866613D-18 -0.78089192D-04 -0.11357276D-18 -0.20812025D-17 -0.84240696D-03
 -0.50120603D-20 -0.11064300D-18 -0.49211471D-04 -0.17684310D-03 -0.17684310D-03
  0.35368621D-03 -0.83642617D-20  0.93914896D-19  0.47044115D-17  0.12505659D-03
  0.12505659D-03 -0.25011319D-03  0.12696746D-20 -0.88722620D-19 -0.23306344D-17
  0.76037953D-04  0.76037953D-04 -0.15207591D-03 -0.17585973D-22 -0.44736980D-19
 -0.10195243D-17  0.12559638D-19 -0.84594810D-18  0.74606438D-04  0.16267372D-19
 -0.84058676D-18 -0.11190966D-03 -0.53946286D-19  0.33784311D-17 -0.11190966D-03
 -0.25894230D-20  0.43010046D-20  0.45156110D-18 -0.78531745D-04  0.40424484D-20
  0.45112162D-18  0.11779762D-03 -0.16945462D-19 -0.18058049D-17  0.11779762D-03
  0.21766040D-20
MO    2     MO 0.0        OCC NO =    2.0000000  ORB. ENERGY =  -19.004695
  0.32678617D-03  0.61127267D-03  0.10556404D-02  0.17051345D-02  0.25678974D-02
  0.34923284D-02  0.39756618D-02  0.32208313D-02  0.13073990D-02  0.11921681D-03
 -0.45815285D-05  0.15320301D-05  0.85974058D-07 -0.67745766D-03 -0.12680142D-02
 -0.21930793D-02 -0.35644540D-02 -0.54535856D-02 -0.77390148D-02 -0.97079514D-02
 -0.98980975D-02 -0.60815879D-02  0.13254323D-02  0.48548625D-02  0.22204432D-02
 -0.11786234D-04  0.41910366D-03  0.78387016D-03  0.13574507D-02  0.22040212D-02
  0.33831279D-02  0.48055823D-02  0.60966433D-02  0.63116731D-02  0.40654844D-02
 -0.99992705D-03 -0.40760104D-02 -0.35549903D-02  0.18118081D-02  0.13564514D-03
  0.10941387D-02  0.32045520D-04  0.97552861D-16  0.12867725D-15  0.14292882D-15
  0.12232692D-15  0.69896620D-16  0.22682977D-16  0.15971739D-19 -0.21733699D-16
 -0.28667869D-16 -0.31842960D-16 -0.27253085D-16 -0.15572194D-16 -0.50535164D-17
 -0.35583268D-20  0.47585435D-06  0.62767641D-06  0.69719431D-06  0.59670006D-06
  0.34094962D-06  0.11064558D-06  0.77908749D-10 -0.19466370D-17 -0.26620011D-17
 -0.28938633D-17 -0.26564152D-17 -0.14478541D-17 -0.61096664D-18  0.21071498D-18
 -0.12547423D-17 -0.17158440D-17 -0.18652952D-17 -0.17122435D-17 -0.93324222D-18
 -0.39381029D-18  0.13582039D-18 -0.43428299D-06 -0.59387640D-06 -0.64560347D-06
 -0.59263022D-06 -0.32300754D-06 -0.13630298D-06  0.47009244D-07 -0.94767078D-18
 -0.12565787D-18  0.36542389D-08  0.76585718D-21 -0.95652838D-19  0.53330147D-08
 -0.86260582D-21 -0.46102640D-22  0.11811268D-11 -0.10457553D-03 -0.10457553D-03
  0.20915105D-03 -0.68130385D-20 -0.52301618D-19  0.89358576D-19 -0.50537980D-03
 -0.50537980D-03  0.10107596D-02  0.77970397D-20 -0.42917234D-19  0.21966809D-18
 -0.43718037D-06 -0.43718037D-06  0.87436074D-06 -0.36226065D-21  0.19540747D-21
  0.48057058D-20 -0.25099269D-19 -0.66889625D-19  0.25748308D-08 -0.24188601D-19
 -0.65764959D-19 -0.38622463D-08  0.99486409D-19  0.26643383D-18 -0.38622463D-08
  0.12545321D-19  0.12852491D-21  0.10537577D-19  0.21928148D-10  0.33421054D-21
  0.10558569D-19 -0.32892222D-10 -0.71978528D-21 -0.42171299D-19 -0.32892222D-10
 -0.27755313D-20  0.35266970D+00  0.65733095D+00  0.11146155D+01  0.16870225D+01
  0.21049115D+01  0.18078382D+01  0.69406425D+00 -0.31045920D-02 -0.40860996D-03
 -0.76635811D-03 -0.13064726D-02 -0.20417623D-02 -0.27302253D-02 -0.29152441D-02
 -0.17823231D-02  0.11758685D-02  0.35090738D-01 -0.13775073D-02 -0.48498914D-03
  0.41444187D-17  0.40186920D-17  0.27109859D-17  0.10754661D-16  0.10428403D-16
  0.70349391D-17 -0.48806198D-02 -0.47325594D-02 -0.31925566D-02 -0.30357666D-18
 -0.12022125D-17  0.79351165D-03  0.41703585D-19  0.11395325D-18  0.87150134D-03
  0.35168350D-20  0.55028710D-20  0.49944834D-04 -0.64103391D-03 -0.64103391D-03
  0.12820678D-02  0.10208133D-16 -0.81611750D-17 -0.62955048D-17  0.33177639D-03
  0.33177639D-03 -0.66355277D-03 -0.50303040D-18  0.61072431D-18  0.79919381D-18
  0.61061405D-04  0.61061405D-04 -0.12212281D-03  0.38000144D-19 -0.41847966D-19
  0.56194626D-19 -0.23438547D-18 -0.31609613D-18 -0.49445086D-05  0.39112359D-18
 -0.41076015D-18  0.74167629D-05  0.31203283D-18  0.13590485D-17  0.74167629D-05
  0.17826555D-18  0.23015683D-19  0.74459719D-19  0.15421619D-03 -0.16013669D-19
  0.89608997D-19 -0.23132429D-03 -0.53033381D-19 -0.31298815D-18 -0.23132429D-03
 -0.18188980D-19  0.35265296D+00  0.65729974D+00  0.11145626D+01  0.16869424D+01
  0.21048115D+01  0.18077524D+01  0.69403129D+00 -0.31044446D-02 -0.40859418D-03
 -0.76632851D-03 -0.13064221D-02 -0.20416835D-02 -0.27301198D-02 -0.29151315D-02
 -0.17822542D-02  0.11758231D-02  0.35089074D-01 -0.13774584D-02 -0.48496774D-03
  0.35229025D-17  0.34160304D-17  0.23044339D-17  0.18712966D-16  0.18145282D-16
  0.12240700D-16  0.48804007D-02  0.47323470D-02  0.31924133D-02  0.14233880D-18
 -0.20963198D-17 -0.79347607D-03 -0.13223395D-18  0.45186724D-18 -0.87146262D-03
  0.15201463D-20  0.24963594D-19 -0.49942600D-04 -0.64101230D-03 -0.64101230D-03
  0.12820246D-02  0.27006129D-17  0.25356552D-17 -0.67489895D-17  0.33176608D-03
  0.33176608D-03 -0.66353216D-03 -0.16468580D-18 -0.23203868D-18 -0.46148108D-19
  0.61057771D-04  0.61057771D-04 -0.12211554D-03  0.10807868D-19 -0.60654260D-19
  0.54204801D-19 -0.41870145D-18 -0.20316224D-18  0.49338689D-05 -0.30599512D-18
  0.49397704D-18 -0.74008033D-05  0.15620995D-17  0.11550968D-18 -0.74008033D-05
 -0.67950748D-18  0.54691547D-19  0.22712132D-19 -0.15420988D-03  0.45385562D-19
 -0.10620273D-19  0.23131482D-03 -0.20946020D-18 -0.57516122D-19  0.23131482D-03
  0.44357992D-19
MO    3     MO 0.0        OCC NO =    2.0000000  ORB. ENERGY =  -19.004692
  0.77609392D-08  0.14517291D-07  0.25070710D-07  0.40495732D-07  0.60985739D-07
  0.82940317D-07  0.94419142D-07  0.76492453D-07  0.31049798D-07  0.28313145D-08
 -0.10880805D-09  0.36384627D-10  0.20418228D-11 -0.16089138D-07 -0.30114437D-07
 -0.52084077D-07 -0.84653252D-07 -0.12951878D-06 -0.18379611D-06 -0.23055695D-06
 -0.23507279D-06 -0.14443339D-06  0.31478077D-07  0.11529954D-06  0.52733949D-07
 -0.27991469D-09  0.99534148D-08  0.18616360D-07  0.32238492D-07  0.52343940D-07
  0.80346889D-07  0.11412917D-06  0.14479096D-06  0.14989776D-06  0.96552373D-07
 -0.23747558D-07 -0.96802357D-07 -0.84428499D-07  0.43029158D-07  0.32214769D-08
  0.25984959D-07  0.76106169D-09 -0.13963797D-14 -0.18418968D-14 -0.20458948D-14
 -0.17509976D-14 -0.10005060D-14 -0.32468600D-15 -0.22862078D-18 -0.72022599D-15
 -0.95001520D-15 -0.10552335D-14 -0.90313116D-15 -0.51604189D-15 -0.16746684D-15
 -0.11791824D-18 -0.20036487D-01 -0.26429159D-01 -0.29356303D-01 -0.25124857D-01
 -0.14356142D-01 -0.46588809D-02 -0.32804525D-05  0.72170139D-15  0.98691737D-15
  0.10728786D-14  0.98484644D-15  0.53678130D-15  0.22651140D-15 -0.78121035D-16
 -0.54725588D-16 -0.74836538D-16 -0.81354855D-16 -0.74679503D-16 -0.40703362D-16
 -0.17176037D-16  0.59238068D-17  0.18286069D-01  0.25005964D-01  0.27184002D-01
  0.24953492D-01  0.13600667D-01  0.57392201D-02 -0.19793874D-02  0.17354476D-15
 -0.72241473D-16 -0.15386483D-03  0.20090936D-16  0.10303019D-17 -0.22456725D-03
  0.47706228D-19  0.29886619D-19 -0.49680122D-07 -0.24835915D-08 -0.24835915D-08
  0.49671830D-08  0.16954633D-20  0.63029681D-18 -0.10602425D-18 -0.12002418D-07
 -0.12002418D-07  0.24004836D-07 -0.36691516D-20  0.11560615D-17 -0.54723027D-17
 -0.10383078D-10 -0.10383078D-10  0.20766155D-10  0.20717953D-21  0.49545084D-19
  0.10494951D-18 -0.35295948D-18 -0.52695140D-18 -0.10841731D-03 -0.35352367D-18
 -0.52570144D-18  0.16262596D-03  0.14124021D-17  0.21065557D-17  0.16262596D-03
 -0.12868955D-19 -0.73061663D-19 -0.43292503D-19 -0.92373714D-06 -0.73148977D-19
 -0.43108068D-19  0.13856057D-05  0.29233397D-18  0.17298558D-18  0.13856057D-05
  0.78540397D-20 -0.35254538D+00 -0.65709923D+00 -0.11142226D+01 -0.16864278D+01
 -0.21041695D+01 -0.18072009D+01 -0.69381958D+00  0.31034976D-02  0.33220185D-03
  0.62305280D-03  0.10621684D-02  0.16599625D-02  0.22196862D-02  0.23701073D-02
  0.14490371D-02 -0.95598670D-03 -0.35036234D-01  0.10303055D-02  0.45062180D-03
 -0.53661697D-17 -0.52033796D-17 -0.35101691D-17 -0.96717636D-17 -0.93783573D-17
 -0.63265844D-17  0.46121416D-02  0.44722260D-02  0.30169372D-02  0.22266803D-17
  0.13431125D-17 -0.74902115D-03 -0.38990247D-17 -0.19099036D-17 -0.81512760D-03
 -0.40251416D-18 -0.55522712D-18 -0.47023405D-04  0.45488285D-03  0.45488285D-03
 -0.90976571D-03 -0.10245912D-16  0.14198665D-16  0.67415055D-17 -0.21693984D-03
 -0.21693984D-03  0.43387967D-03  0.51871402D-18 -0.78257336D-18 -0.12991578D-17
 -0.76511020D-04 -0.76511020D-04  0.15302204D-03 -0.46897718D-19  0.22314839D-17
  0.13494146D-17 -0.56819837D-18  0.13857705D-17  0.22400027D-03 -0.11909963D-17
  0.15049822D-17 -0.33600041D-03  0.28955914D-17 -0.56622937D-17 -0.33600041D-03
 -0.19752812D-18  0.31999534D-18 -0.22295753D-18 -0.13282879D-03  0.35834261D-18
 -0.24177716D-18  0.19924319D-03 -0.13183286D-17  0.91064974D-18  0.19924319D-03
  0.24236906D-19  0.35256213D+00  0.65713045D+00  0.11142755D+01  0.16865079D+01
  0.21042694D+01  0.18072868D+01  0.69385255D+00 -0.31036450D-02 -0.33222125D-03
 -0.62308920D-03 -0.10622305D-02 -0.16600595D-02 -0.22198158D-02 -0.23702458D-02
 -0.14491218D-02  0.95604255D-03  0.35037901D-01 -0.10303709D-02 -0.45064484D-03
  0.10896005D-17  0.10565460D-17  0.71273969D-18  0.26858530D-16  0.26043739D-16
  0.17568953D-16  0.46123735D-02  0.44724507D-02  0.30170889D-02  0.18021688D-17
 -0.35599978D-17 -0.74905884D-03 -0.22841698D-17 -0.26837110D-17 -0.81516899D-03
 -0.12748963D-18 -0.13746412D-18 -0.47025777D-04 -0.45491330D-03 -0.45491330D-03
  0.90982660D-03  0.28063168D-17 -0.59353430D-17  0.43723980D-17  0.21695559D-03
  0.21695559D-03 -0.43391119D-03 -0.20727109D-18  0.14889736D-17 -0.84616929D-18
  0.76513920D-04  0.76513920D-04 -0.15302784D-03  0.27223911D-19 -0.11531069D-17
 -0.20948467D-17 -0.83268289D-19 -0.75259953D-17  0.22400051D-03  0.16426266D-19
 -0.68323182D-17 -0.33600076D-03  0.23337860D-18  0.29410304D-16 -0.33600076D-03
 -0.64560943D-18  0.49003627D-19  0.21350103D-17 -0.13283612D-03  0.41576140D-19
  0.21012216D-17  0.19925418D-03 -0.18858702D-18 -0.85062526D-17  0.19925418D-03
  0.32827774D-19
MO    4     MO 0.0        OCC NO =    2.0000000  ORB. ENERGY =   -5.325947
 -0.10644896D-02 -0.19911902D-02 -0.34386960D-02 -0.55543904D-02 -0.83647977D-02
 -0.11376085D-01 -0.12950520D-01 -0.10491697D-01 -0.42587871D-02 -0.38834280D-03
  0.14924100D-04 -0.49905117D-05 -0.28005620D-06 -0.13303329D+00 -0.24900169D+00
 -0.43065801D+00 -0.69995674D+00 -0.10709281D+01 -0.15197210D+01 -0.19063638D+01
 -0.19437030D+01 -0.11942498D+01  0.26027697D+00  0.95335602D+00  0.43603148D+00
 -0.23144790D-02 -0.30915332D-03 -0.57822463D-03 -0.10013284D-02 -0.16258041D-02
 -0.24955764D-02 -0.35448550D-02 -0.44972108D-02 -0.46558283D-02 -0.29989192D-02
  0.73759977D-03  0.30066837D-02  0.26223513D-02 -0.13364868D-02  0.22322091D-01
  0.22012733D-03 -0.96367570D-04  0.10117944D-14  0.13346090D-14  0.14824228D-14
  0.12687449D-14  0.72495067D-15  0.23526229D-15  0.16565497D-18  0.78977226D-15
  0.10417503D-14  0.11571287D-14  0.99033907D-15  0.56587178D-15  0.18363773D-15
  0.12930463D-18  0.43785693D-11  0.57755586D-11  0.64152268D-11  0.54905299D-11
  0.31372447D-11  0.10181043D-11  0.71687661D-15  0.26761735D-15  0.36596328D-15
  0.39783895D-15  0.36519535D-15  0.19904630D-15  0.83993714D-16 -0.28968413D-16
 -0.13479289D-15 -0.18432754D-15 -0.20038260D-15 -0.18394075D-15 -0.10025518D-15
 -0.42305760D-16  0.14590744D-16  0.16384119D-11  0.22405072D-11  0.24356570D-11
  0.22358058D-11  0.12186049D-11  0.51422788D-12 -0.17735096D-12  0.71665999D-16
 -0.33273433D-17  0.42947504D-12 -0.44528510D-17  0.25882650D-17  0.58431703D-13
 -0.50046761D-19  0.36303901D-19 -0.23326256D-15 -0.38232015D-05 -0.38232015D-05
  0.76464030D-05  0.65245188D-18  0.24078478D-18  0.26578051D-18  0.73805505D-03
  0.73805505D-03 -0.14761101D-02 -0.77190852D-17  0.13445591D-17  0.31287487D-17
  0.65081047D-05  0.65081047D-05 -0.13016209D-04 -0.35877777D-19 -0.13434882D-19
  0.50635285D-19  0.39226248D-17 -0.19452429D-17 -0.77433556D-14  0.39914313D-17
 -0.19413108D-17  0.11614764D-13 -0.15759306D-16  0.77770395D-17  0.11615303D-13
 -0.26830449D-18  0.28606139D-18 -0.17295760D-18  0.30456191D-14  0.28515130D-18
 -0.17226137D-18 -0.45684378D-14 -0.11433355D-17  0.69113418D-18 -0.45684195D-14
  0.16592065D-20 -0.37738542D-04 -0.70339787D-04 -0.11927297D-03 -0.18052520D-03
 -0.22524274D-03 -0.19345347D-03 -0.74270550D-04  0.33221673D-06 -0.12056642D-03
 -0.22612531D-03 -0.38549408D-03 -0.60245221D-03 -0.80559339D-03 -0.86018593D-03
 -0.52590081D-03  0.34695741D-03 -0.36988104D-03  0.71738496D-03  0.13198200D-03
  0.33447091D-18  0.32432427D-18  0.21878724D-18 -0.85430116D-18 -0.82838475D-18
 -0.55882346D-18  0.22739850D-04  0.22050005D-04  0.14874803D-04 -0.18783056D-17
  0.21169921D-17 -0.15645060D-02  0.17257786D-16 -0.10160920D-16 -0.40691732D-03
  0.10209458D-17 -0.73255540D-18  0.26450853D-04 -0.10900125D-03 -0.10900125D-03
  0.21800250D-03 -0.78081986D-18  0.27243809D-16 -0.14499620D-16 -0.56199663D-03
 -0.56199663D-03  0.11239933D-02  0.31895543D-18 -0.17095394D-16  0.86317376D-17
 -0.89184100D-05 -0.89184100D-05  0.17836820D-04 -0.48287181D-19 -0.86916296D-17
  0.51775162D-17  0.54426998D-17 -0.34507674D-17 -0.16222313D-02  0.53505718D-17
 -0.34438603D-17  0.24333470D-02 -0.21678671D-16  0.13796162D-16  0.24333470D-02
  0.13656717D-17 -0.35615451D-17  0.21205563D-17 -0.85674895D-04 -0.36068190D-17
  0.21745094D-17  0.12851234D-03  0.14291454D-16 -0.85361783D-17  0.12851234D-03
 -0.73922999D-18 -0.37738542D-04 -0.70339787D-04 -0.11927297D-03 -0.18052520D-03
 -0.22524274D-03 -0.19345347D-03 -0.74270550D-04  0.33221673D-06 -0.12056642D-03
 -0.22612531D-03 -0.38549408D-03 -0.60245221D-03 -0.80559339D-03 -0.86018593D-03
 -0.52590081D-03  0.34695741D-03 -0.36988104D-03  0.71738496D-03  0.13198200D-03
  0.11874385D-18  0.11514159D-18  0.77673837D-19 -0.46486304D-18 -0.45076078D-18
 -0.30408056D-18 -0.22739850D-04 -0.22050005D-04 -0.14874803D-04 -0.19935075D-17
  0.14270927D-17  0.15645060D-02  0.18005239D-16 -0.89817304D-17  0.40691732D-03
  0.98793614D-18 -0.50333173D-18 -0.26450853D-04 -0.10900125D-03 -0.10900125D-03
  0.21800250D-03 -0.34249605D-18 -0.27958541D-16  0.14742534D-16 -0.56199663D-03
 -0.56199663D-03  0.11239933D-02  0.13223102D-18  0.17406787D-16 -0.84974391D-17
 -0.89184100D-05 -0.89184100D-05  0.17836820D-04 -0.11504110D-18  0.91871146D-17
 -0.41867179D-17  0.62273636D-17 -0.28013608D-17  0.16222313D-02  0.61936068D-17
 -0.28257117D-17 -0.24333470D-02 -0.24875698D-16  0.11229794D-16 -0.24333470D-02
 -0.10570460D-17 -0.39145676D-17  0.17092604D-17  0.85674895D-04 -0.38604923D-17
  0.17102065D-17 -0.12851234D-03  0.15604195D-16 -0.68379876D-17 -0.12851234D-03
  0.27471523D-18
MO    5     MO 0.0        OCC NO =    2.0000000  ORB. ENERGY =   -3.638991
  0.19214894D-15  0.35942585D-15  0.62071229D-15  0.10026121D-14  0.15099133D-14
  0.20534749D-14  0.23376730D-14  0.18938357D-14  0.76874533D-15  0.70099000D-16
 -0.26939201D-17  0.90082749D-18  0.50552397D-19 -0.39198901D-15 -0.73369549D-15
 -0.12689546D-14 -0.20624563D-14 -0.31555413D-14 -0.44779311D-14 -0.56171927D-14
 -0.57272146D-14 -0.35189145D-14  0.76691863D-15  0.28091095D-14  0.12847878D-14
 -0.68197239D-17  0.23181574D-15  0.43357637D-15  0.75083679D-15  0.12190941D-14
  0.18712848D-14  0.26580766D-14  0.33721918D-14  0.34911296D-14  0.22487117D-14
 -0.55308234D-15 -0.22545338D-14 -0.19663458D-14  0.10021522D-14  0.79659889D-16
  0.42735158D-15  0.21017993D-16 -0.40387157D+01 -0.53272741D+01 -0.59172929D+01
 -0.50643687D+01 -0.28937396D+01 -0.93908157D+00 -0.66123444D-03  0.46850557D+01
  0.61798299D+01  0.68642729D+01  0.58748501D+01  0.33568421D+01  0.10893684D+01
  0.76705577D-03  0.63253534D-13  0.83434670D-13  0.92675423D-13  0.79317100D-13
  0.45321153D-13  0.14707702D-13  0.10356118D-16  0.20335806D-01  0.27808953D-01
  0.30231133D-01  0.27750599D-01  0.15125204D-01  0.63825454D-02 -0.22012625D-02
 -0.23590267D-01 -0.32259387D-01 -0.35069203D-01 -0.32191695D-01 -0.17545781D-01
 -0.74039825D-02  0.25535438D-02 -0.37669629D-14 -0.51512734D-14 -0.55999530D-14
 -0.51404640D-14 -0.28017616D-14 -0.11822896D-14  0.40775734D-15 -0.10371055D+00
  0.12030797D+00  0.14800262D-14 -0.19606744D-03  0.22744530D-03 -0.60887108D-15
 -0.58584127D-05  0.67959698D-05 -0.58646320D-18 -0.20471503D-16 -0.91137067D-17
  0.29585210D-16  0.66314508D-17 -0.10047608D-14  0.10687690D-14 -0.32219138D-15
 -0.33410582D-15  0.65629720D-15  0.22979100D-16 -0.19633798D-12  0.22757254D-12
  0.15365889D-18 -0.44639662D-18  0.29273772D-18 -0.11295074D-17 -0.16558910D-14
  0.19219741D-14  0.17864223D-03 -0.20723142D-03  0.24003234D-17  0.17864531D-03
 -0.20723500D-03  0.38442252D-16 -0.71457200D-03  0.82892925D-03 -0.45643222D-16
  0.19086428D-16  0.19574966D-04 -0.22707665D-04 -0.17499351D-16  0.19574703D-04
 -0.22707361D-04  0.22086976D-16 -0.78299600D-04  0.90830357D-04  0.30411077D-16
 -0.12297490D-17  0.69837219D-16  0.13016759D-15  0.22072110D-15  0.33407167D-15
  0.41682391D-15  0.35799615D-15  0.13744168D-15 -0.61478508D-18 -0.10437560D-15
 -0.19575903D-15 -0.33372622D-15 -0.52154913D-15 -0.69741056D-15 -0.74467189D-15
 -0.45527779D-15  0.30036463D-15  0.22172286D-15 -0.18805794D-15  0.46243868D-15
 -0.42777836D-03 -0.41480112D-03 -0.27982238D-03  0.49623831D-03  0.48118424D-03
  0.32460404D-03 -0.67294565D-15 -0.65253092D-15 -0.44019350D-15 -0.51285182D-03
  0.59492658D-03 -0.69491627D-16  0.10013496D-02 -0.11616016D-02  0.65389595D-15
  0.54342830D-04 -0.63039641D-04 -0.44617037D-16 -0.34596880D-15  0.14277394D-15
  0.20319486D-15  0.15647880D-16  0.18221823D-02 -0.21137970D-02  0.21271361D-15
  0.19675714D-15 -0.40947076D-15  0.32824351D-17 -0.31167055D-03  0.36154906D-03
  0.78658306D-16  0.83385212D-16 -0.16204352D-15 -0.75653812D-18 -0.48039036D-03
  0.55727012D-03  0.48349669D-03 -0.56087357D-03 -0.69164977D-15  0.48346432D-03
 -0.56083602D-03  0.51629033D-15 -0.19339544D-02  0.22434567D-02  0.15586590D-14
 -0.21857614D-15 -0.13680870D-03  0.15870302D-03  0.18728287D-15 -0.13680418D-03
  0.15869777D-03 -0.26076635D-15  0.54723029D-03 -0.63480684D-03 -0.30108226D-15
  0.87672243D-17  0.13205728D-15  0.24613778D-15  0.41736813D-15  0.63170610D-15
  0.78818477D-15  0.67694560D-15  0.25989258D-15 -0.11625155D-17 -0.11089393D-15
 -0.20798432D-15 -0.35456767D-15 -0.55412026D-15 -0.74096437D-15 -0.79117719D-15
 -0.48371022D-15  0.31912263D-15  0.11704504D-15 -0.87568265D-15 -0.95094717D-15
 -0.42777836D-03 -0.41480112D-03 -0.27982238D-03  0.49623831D-03  0.48118424D-03
  0.32460404D-03  0.52997661D-15  0.51389903D-15  0.34667325D-15 -0.51285182D-03
  0.59492658D-03 -0.41687735D-15  0.10013496D-02 -0.11616016D-02 -0.26740766D-15
  0.54342830D-04 -0.63039641D-04 -0.96585434D-16 -0.97737480D-15  0.46381217D-15
  0.51356264D-15  0.66683602D-16 -0.18221823D-02  0.21137970D-02  0.42164661D-15
  0.25455631D-15 -0.67620291D-15 -0.19566442D-17  0.31167055D-03 -0.36154906D-03