 Molden2AIM, Version 4.0.0 (06/02/2016)           Time: Sun Jul  1 18:51:08 2018
GAUSSIAN             21 MOL ORBITALS    612 PRIMITIVES       12 NUCLEI
  C    1    (CENTRE  1)   0.00000000 -2.63628322  0.00000000  CHARGE =  6.0
  C    2    (CENTRE  2)   2.28308774 -1.31814066  0.00000000  CHARGE =  6.0
  C    3    (CENTRE  3)   2.28308774  1.31814066  0.00000000  CHARGE =  6.0
  C    4    (CENTRE  4)   0.00000000  2.63628322  0.00000000  CHARGE =  6.0
  C    5    (CENTRE  5)  -2.28308774  1.31814066  0.00000000  CHARGE =  6.0
  C    6    (CENTRE  6)  -2.28308774 -1.31814066  0.00000000  CHARGE =  6.0
  H    7    (CENTRE  7)   0.00000000 -4.69678767  0.00000000  CHARGE =  1.0
  H    8    (CENTRE  8)   4.06753722 -2.34839289  0.00000000  CHARGE =  1.0
  H    9    (CENTRE  9)   4.06753722  2.34839289  0.00000000  CHARGE =  1.0
  H   10    (CENTRE 10)   0.00000000  4.69678767  0.00000000  CHARGE =  1.0
  H   11    (CENTRE 11)  -4.06753722  2.34839289  0.00000000  CHARGE =  1.0
  H   12    (CENTRE 12)  -4.06753722 -2.34839289  0.00000000  CHARGE =  1.0
CENTRE ASSIGNMENTS    1  1  1  1  1  1  1  1  1  1  1  1  1  1  1  1  1  1  1  1
CENTRE ASSIGNMENTS    1  1  1  1  1  1  1  1  1  1  1  1  1  1  1  1  1  1  1  1
CENTRE ASSIGNMENTS    1  1  1  1  1  1  1  1  1  1  1  1  1  1  1  1  1  1  1  1
CENTRE ASSIGNMENTS    1  1  1  1  1  1  1  1  1  1  1  1  1  1  1  2  2  2  2  2
CENTRE ASSIGNMENTS    2  2  2  2  2  2  2  2  2  2  2  2  2  2  2  2  2  2  2  2
CENTRE ASSIGNMENTS    2  2  2  2  2  2  2  2  2  2  2  2  2  2  2  2  2  2  2  2
CENTRE ASSIGNMENTS    2  2  2  2  2  2  2  2  2  2  2  2  2  2  2  2  2  2  2  2
CENTRE ASSIGNMENTS    2  2  2  2  2  2  2  2  2  2  3  3  3  3  3  3  3  3  3  3
CENTRE ASSIGNMENTS    3  3  3  3  3  3  3  3  3  3  3  3  3  3  3  3  3  3  3  3
CENTRE ASSIGNMENTS    3  3  3  3  3  3  3  3  3  3  3  3  3  3  3  3  3  3  3  3
CENTRE ASSIGNMENTS    3  3  3  3  3  3  3  3  3  3  3  3  3  3  3  3  3  3  3  3
CENTRE ASSIGNMENTS    3  3  3  3  3  4  4  4  4  4  4  4  4  4  4  4  4  4  4  4
CENTRE ASSIGNMENTS    4  4  4  4  4  4  4  4  4  4  4  4  4  4  4  4  4  4  4  4
CENTRE ASSIGNMENTS    4  4  4  4  4  4  4  4  4  4  4  4  4  4  4  4  4  4  4  4
CENTRE ASSIGNMENTS    4  4  4  4  4  4  4  4  4  4  4  4  4  4  4  4  4  4  4  4
CENTRE ASSIGNMENTS    5  5  5  5  5  5  5  5  5  5  5  5  5  5  5  5  5  5  5  5
CENTRE ASSIGNMENTS    5  5  5  5  5  5  5  5  5  5  5  5  5  5  5  5  5  5  5  5
CENTRE ASSIGNMENTS    5  5  5  5  5  5  5  5  5  5  5  5  5  5  5  5  5  5  5  5
CENTRE ASSIGNMENTS    5  5  5  5  5  5  5  5  5  5  5  5  5  5  5  6  6  6  6  6
CENTRE ASSIGNMENTS    6  6  6  6  6  6  6  6  6  6  6  6  6  6  6  6  6  6  6  6
CENTRE ASSIGNMENTS    6  6  6  6  6  6  6  6  6  6  6  6  6  6  6  6  6  6  6  6
CENTRE ASSIGNMENTS    6  6  6  6  6  6  6  6  6  6  6  6  6  6  6  6  6  6  6  6
CENTRE ASSIGNMENTS    6  6  6  6  6  6  6  6  6  6  7  7  7  7  7  7  7  7  7  7
CENTRE ASSIGNMENTS    7  7  7  7  7  7  7  7  7  7  7  7  7  7  7  7  7  8  8  8
CENTRE ASSIGNMENTS    8  8  8  8  8  8  8  8  8  8  8  8  8  8  8  8  8  8  8  8
CENTRE ASSIGNMENTS    8  8  8  8  9  9  9  9  9  9  9  9  9  9  9  9  9  9  9  9
CENTRE ASSIGNMENTS    9  9  9  9  9  9  9  9  9  9  9 10 10 10 10 10 10 10 10 10
CENTRE ASSIGNMENTS   10 10 10 10 10 10 10 10 10 10 10 10 10 10 10 10 10 10 11 11
CENTRE ASSIGNMENTS   11 11 11 11 11 11 11 11 11 11 11 11 11 11 11 11 11 11 11 11
CENTRE ASSIGNMENTS   11 11 11 11 11 12 12 12 12 12 12 12 12 12 12 12 12 12 12 12
CENTRE ASSIGNMENTS   12 12 12 12 12 12 12 12 12 12 12 12
TYPE ASSIGNMENTS      1  1  1  1  1  1  1  1  1  1  1  1  1  1  1  1  1  1  1  2
TYPE ASSIGNMENTS      2  2  3  3  3  4  4  4  2  3  4  2  3  4  2  3  4  5  6  7
TYPE ASSIGNMENTS      8  9 10  5  6  7  8  9 10  5  6  7  8  9 10 11 12 13 17 14
TYPE ASSIGNMENTS     15 18 19 16 20 11 12 13 17 14 15 18 19 16 20  1  1  1  1  1
TYPE ASSIGNMENTS      1  1  1  1  1  1  1  1  1  1  1  1  1  1  2  2  2  3  3  3
TYPE ASSIGNMENTS      4  4  4  2  3  4  2  3  4  2  3  4  5  6  7  8  9 10  5  6
TYPE ASSIGNMENTS      7  8  9 10  5  6  7  8  9 10 11 12 13 17 14 15 18 19 16 20
TYPE ASSIGNMENTS     11 12 13 17 14 15 18 19 16 20  1  1  1  1  1  1  1  1  1  1
TYPE ASSIGNMENTS      1  1  1  1  1  1  1  1  1  2  2  2  3  3  3  4  4  4  2  3
TYPE ASSIGNMENTS      4  2  3  4  2  3  4  5  6  7  8  9 10  5  6  7  8  9 10  5
TYPE ASSIGNMENTS      6  7  8  9 10 11 12 13 17 14 15 18 19 16 20 11 12 13 17 14
TYPE ASSIGNMENTS     15 18 19 16 20  1  1  1  1  1  1  1  1  1  1  1  1  1  1  1
TYPE ASSIGNMENTS      1  1  1  1  2  2  2  3  3  3  4  4  4  2  3  4  2  3  4  2
TYPE ASSIGNMENTS      3  4  5  6  7  8  9 10  5  6  7  8  9 10  5  6  7  8  9 10
TYPE ASSIGNMENTS     11 12 13 17 14 15 18 19 16 20 11 12 13 17 14 15 18 19 16 20
TYPE ASSIGNMENTS      1  1  1  1  1  1  1  1  1  1  1  1  1  1  1  1  1  1  1  2
TYPE ASSIGNMENTS      2  2  3  3  3  4  4  4  2  3  4  2  3  4  2  3  4  5  6  7
TYPE ASSIGNMENTS      8  9 10  5  6  7  8  9 10  5  6  7  8  9 10 11 12 13 17 14
TYPE ASSIGNMENTS     15 18 19 16 20 11 12 13 17 14 15 18 19 16 20  1  1  1  1  1
TYPE ASSIGNMENTS      1  1  1  1  1  1  1  1  1  1  1  1  1  1  2  2  2  3  3  3
TYPE ASSIGNMENTS      4  4  4  2  3  4  2  3  4  2  3  4  5  6  7  8  9 10  5  6
TYPE ASSIGNMENTS      7  8  9 10  5  6  7  8  9 10 11 12 13 17 14 15 18 19 16 20
TYPE ASSIGNMENTS     11 12 13 17 14 15 18 19 16 20  1  1  1  1  1  1  2  3  4  2
TYPE ASSIGNMENTS      3  4  2  3  4  5  6  7  8  9 10  5  6  7  8  9 10  1  1  1
TYPE ASSIGNMENTS      1  1  1  2  3  4  2  3  4  2  3  4  5  6  7  8  9 10  5  6
TYPE ASSIGNMENTS      7  8  9 10  1  1  1  1  1  1  2  3  4  2  3  4  2  3  4  5
TYPE ASSIGNMENTS      6  7  8  9 10  5  6  7  8  9 10  1  1  1  1  1  1  2  3  4
TYPE ASSIGNMENTS      2  3  4  2  3  4  5  6  7  8  9 10  5  6  7  8  9 10  1  1
TYPE ASSIGNMENTS      1  1  1  1  2  3  4  2  3  4  2  3  4  5  6  7  8  9 10  5
TYPE ASSIGNMENTS      6  7  8  9 10  1  1  1  1  1  1  2  3  4  2  3  4  2  3  4
TYPE ASSIGNMENTS      5  6  7  8  9 10  5  6  7  8  9 10
EXPONENTS  0.8236000D+04 0.1235000D+04 0.2808000D+03 0.7927000D+02 0.2559000D+02
EXPONENTS  0.8997000D+01 0.3319000D+01 0.3643000D+00 0.8236000D+04 0.1235000D+04
EXPONENTS  0.2808000D+03 0.7927000D+02 0.2559000D+02 0.8997000D+01 0.3319000D+01
EXPONENTS  0.3643000D+00 0.9059000D+00 0.1285000D+00 0.4402000D-01 0.1871000D+02
EXPONENTS  0.4133000D+01 0.1200000D+01 0.1871000D+02 0.4133000D+01 0.1200000D+01
EXPONENTS  0.1871000D+02 0.4133000D+01 0.1200000D+01 0.3827000D+00 0.3827000D+00
EXPONENTS  0.3827000D+00 0.1209000D+00 0.1209000D+00 0.1209000D+00 0.3569000D-01
EXPONENTS  0.3569000D-01 0.3569000D-01 0.1097000D+01 0.1097000D+01 0.1097000D+01
EXPONENTS  0.1097000D+01 0.1097000D+01 0.1097000D+01 0.3180000D+00 0.3180000D+00
EXPONENTS  0.3180000D+00 0.3180000D+00 0.3180000D+00 0.3180000D+00 0.1000000D+00
EXPONENTS  0.1000000D+00 0.1000000D+00 0.1000000D+00 0.1000000D+00 0.1000000D+00
EXPONENTS  0.7610000D+00 0.7610000D+00 0.7610000D+00 0.7610000D+00 0.7610000D+00
EXPONENTS  0.7610000D+00 0.7610000D+00 0.7610000D+00 0.7610000D+00 0.7610000D+00
EXPONENTS  0.2680000D+00 0.2680000D+00 0.2680000D+00 0.2680000D+00 0.2680000D+00
EXPONENTS  0.2680000D+00 0.2680000D+00 0.2680000D+00 0.2680000D+00 0.2680000D+00
EXPONENTS  0.8236000D+04 0.1235000D+04 0.2808000D+03 0.7927000D+02 0.2559000D+02
EXPONENTS  0.8997000D+01 0.3319000D+01 0.3643000D+00 0.8236000D+04 0.1235000D+04
EXPONENTS  0.2808000D+03 0.7927000D+02 0.2559000D+02 0.8997000D+01 0.3319000D+01
EXPONENTS  0.3643000D+00 0.9059000D+00 0.1285000D+00 0.4402000D-01 0.1871000D+02
EXPONENTS  0.4133000D+01 0.1200000D+01 0.1871000D+02 0.4133000D+01 0.1200000D+01
EXPONENTS  0.1871000D+02 0.4133000D+01 0.1200000D+01 0.3827000D+00 0.3827000D+00
EXPONENTS  0.3827000D+00 0.1209000D+00 0.1209000D+00 0.1209000D+00 0.3569000D-01
EXPONENTS  0.3569000D-01 0.3569000D-01 0.1097000D+01 0.1097000D+01 0.1097000D+01
EXPONENTS  0.1097000D+01 0.1097000D+01 0.1097000D+01 0.3180000D+00 0.3180000D+00
EXPONENTS  0.3180000D+00 0.3180000D+00 0.3180000D+00 0.3180000D+00 0.1000000D+00
EXPONENTS  0.1000000D+00 0.1000000D+00 0.1000000D+00 0.1000000D+00 0.1000000D+00
EXPONENTS  0.7610000D+00 0.7610000D+00 0.7610000D+00 0.7610000D+00 0.7610000D+00
EXPONENTS  0.7610000D+00 0.7610000D+00 0.7610000D+00 0.7610000D+00 0.7610000D+00
EXPONENTS  0.2680000D+00 0.2680000D+00 0.2680000D+00 0.2680000D+00 0.2680000D+00
EXPONENTS  0.2680000D+00 0.2680000D+00 0.2680000D+00 0.2680000D+00 0.2680000D+00
EXPONENTS  0.8236000D+04 0.1235000D+04 0.2808000D+03 0.7927000D+02 0.2559000D+02
EXPONENTS  0.8997000D+01 0.3319000D+01 0.3643000D+00 0.8236000D+04 0.1235000D+04
EXPONENTS  0.2808000D+03 0.7927000D+02 0.2559000D+02 0.8997000D+01 0.3319000D+01
EXPONENTS  0.3643000D+00 0.9059000D+00 0.1285000D+00 0.4402000D-01 0.1871000D+02
EXPONENTS  0.4133000D+01 0.1200000D+01 0.1871000D+02 0.4133000D+01 0.1200000D+01
EXPONENTS  0.1871000D+02 0.4133000D+01 0.1200000D+01 0.3827000D+00 0.3827000D+00
EXPONENTS  0.3827000D+00 0.1209000D+00 0.1209000D+00 0.1209000D+00 0.3569000D-01
EXPONENTS  0.3569000D-01 0.3569000D-01 0.1097000D+01 0.1097000D+01 0.1097000D+01
EXPONENTS  0.1097000D+01 0.1097000D+01 0.1097000D+01 0.3180000D+00 0.3180000D+00
EXPONENTS  0.3180000D+00 0.3180000D+00 0.3180000D+00 0.3180000D+00 0.1000000D+00
EXPONENTS  0.1000000D+00 0.1000000D+00 0.1000000D+00 0.1000000D+00 0.1000000D+00
EXPONENTS  0.7610000D+00 0.7610000D+00 0.7610000D+00 0.7610000D+00 0.7610000D+00
EXPONENTS  0.7610000D+00 0.7610000D+00 0.7610000D+00 0.7610000D+00 0.7610000D+00
EXPONENTS  0.2680000D+00 0.2680000D+00 0.2680000D+00 0.2680000D+00 0.2680000D+00
EXPONENTS  0.2680000D+00 0.2680000D+00 0.2680000D+00 0.2680000D+00 0.2680000D+00
EXPONENTS  0.8236000D+04 0.1235000D+04 0.2808000D+03 0.7927000D+02 0.2559000D+02
EXPONENTS  0.8997000D+01 0.3319000D+01 0.3643000D+00 0.8236000D+04 0.1235000D+04
EXPONENTS  0.2808000D+03 0.7927000D+02 0.2559000D+02 0.8997000D+01 0.3319000D+01
EXPONENTS  0.3643000D+00 0.9059000D+00 0.1285000D+00 0.4402000D-01 0.1871000D+02
EXPONENTS  0.4133000D+01 0.1200000D+01 0.1871000D+02 0.4133000D+01 0.1200000D+01
EXPONENTS  0.1871000D+02 0.4133000D+01 0.1200000D+01 0.3827000D+00 0.3827000D+00
EXPONENTS  0.3827000D+00 0.1209000D+00 0.1209000D+00 0.1209000D+00 0.3569000D-01
EXPONENTS  0.3569000D-01 0.3569000D-01 0.1097000D+01 0.1097000D+01 0.1097000D+01
EXPONENTS  0.1097000D+01 0.1097000D+01 0.1097000D+01 0.3180000D+00 0.3180000D+00
EXPONENTS  0.3180000D+00 0.3180000D+00 0.3180000D+00 0.3180000D+00 0.1000000D+00
EXPONENTS  0.1000000D+00 0.1000000D+00 0.1000000D+00 0.1000000D+00 0.1000000D+00
EXPONENTS  0.7610000D+00 0.7610000D+00 0.7610000D+00 0.7610000D+00 0.7610000D+00
EXPONENTS  0.7610000D+00 0.7610000D+00 0.7610000D+00 0.7610000D+00 0.7610000D+00
EXPONENTS  0.2680000D+00 0.2680000D+00 0.2680000D+00 0.2680000D+00 0.2680000D+00
EXPONENTS  0.2680000D+00 0.2680000D+00 0.2680000D+00 0.2680000D+00 0.2680000D+00
EXPONENTS  0.8236000D+04 0.1235000D+04 0.2808000D+03 0.7927000D+02 0.2559000D+02
EXPONENTS  0.8997000D+01 0.3319000D+01 0.3643000D+00 0.8236000D+04 0.1235000D+04
EXPONENTS  0.2808000D+03 0.7927000D+02 0.2559000D+02 0.8997000D+01 0.3319000D+01
EXPONENTS  0.3643000D+00 0.9059000D+00 0.1285000D+00 0.4402000D-01 0.1871000D+02
EXPONENTS  0.4133000D+01 0.1200000D+01 0.1871000D+02 0.4133000D+01 0.1200000D+01
EXPONENTS  0.1871000D+02 0.4133000D+01 0.1200000D+01 0.3827000D+00 0.3827000D+00
EXPONENTS  0.3827000D+00 0.1209000D+00 0.1209000D+00 0.1209000D+00 0.3569000D-01
EXPONENTS  0.3569000D-01 0.3569000D-01 0.1097000D+01 0.1097000D+01 0.1097000D+01
EXPONENTS  0.1097000D+01 0.1097000D+01 0.1097000D+01 0.3180000D+00 0.3180000D+00
EXPONENTS  0.3180000D+00 0.3180000D+00 0.3180000D+00 0.3180000D+00 0.1000000D+00
EXPONENTS  0.1000000D+00 0.1000000D+00 0.1000000D+00 0.1000000D+00 0.1000000D+00
EXPONENTS  0.7610000D+00 0.7610000D+00 0.7610000D+00 0.7610000D+00 0.7610000D+00
EXPONENTS  0.7610000D+00 0.7610000D+00 0.7610000D+00 0.7610000D+00 0.7610000D+00
EXPONENTS  0.2680000D+00 0.2680000D+00 0.2680000D+00 0.2680000D+00 0.2680000D+00
EXPONENTS  0.2680000D+00 0.2680000D+00 0.2680000D+00 0.2680000D+00 0.2680000D+00
EXPONENTS  0.8236000D+04 0.1235000D+04 0.2808000D+03 0.7927000D+02 0.2559000D+02
EXPONENTS  0.8997000D+01 0.3319000D+01 0.3643000D+00 0.8236000D+04 0.1235000D+04
EXPONENTS  0.2808000D+03 0.7927000D+02 0.2559000D+02 0.8997000D+01 0.3319000D+01
EXPONENTS  0.3643000D+00 0.9059000D+00 0.1285000D+00 0.4402000D-01 0.1871000D+02
EXPONENTS  0.4133000D+01 0.1200000D+01 0.1871000D+02 0.4133000D+01 0.1200000D+01
EXPONENTS  0.1871000D+02 0.4133000D+01 0.1200000D+01 0.3827000D+00 0.3827000D+00
EXPONENTS  0.3827000D+00 0.1209000D+00 0.1209000D+00 0.1209000D+00 0.3569000D-01
EXPONENTS  0.3569000D-01 0.3569000D-01 0.1097000D+01 0.1097000D+01 0.1097000D+01
EXPONENTS  0.1097000D+01 0.1097000D+01 0.1097000D+01 0.3180000D+00 0.3180000D+00
EXPONENTS  0.3180000D+00 0.3180000D+00 0.3180000D+00 0.3180000D+00 0.1000000D+00
EXPONENTS  0.1000000D+00 0.1000000D+00 0.1000000D+00 0.1000000D+00 0.1000000D+00
EXPONENTS  0.7610000D+00 0.7610000D+00 0.7610000D+00 0.7610000D+00 0.7610000D+00
EXPONENTS  0.7610000D+00 0.7610000D+00 0.7610000D+00 0.7610000D+00 0.7610000D+00
EXPONENTS  0.2680000D+00 0.2680000D+00 0.2680000D+00 0.2680000D+00 0.2680000D+00
EXPONENTS  0.2680000D+00 0.2680000D+00 0.2680000D+00 0.2680000D+00 0.2680000D+00
EXPONENTS  0.3387000D+02 0.5095000D+01 0.1159000D+01 0.3258000D+00 0.1027000D+00
EXPONENTS  0.2526000D-01 0.1407000D+01 0.1407000D+01 0.1407000D+01 0.3880000D+00
EXPONENTS  0.3880000D+00 0.3880000D+00 0.1020000D+00 0.1020000D+00 0.1020000D+00
EXPONENTS  0.1057000D+01 0.1057000D+01 0.1057000D+01 0.1057000D+01 0.1057000D+01
EXPONENTS  0.1057000D+01 0.2470000D+00 0.2470000D+00 0.2470000D+00 0.2470000D+00
EXPONENTS  0.2470000D+00 0.2470000D+00 0.3387000D+02 0.5095000D+01 0.1159000D+01
EXPONENTS  0.3258000D+00 0.1027000D+00 0.2526000D-01 0.1407000D+01 0.1407000D+01
EXPONENTS  0.1407000D+01 0.3880000D+00 0.3880000D+00 0.3880000D+00 0.1020000D+00
EXPONENTS  0.1020000D+00 0.1020000D+00 0.1057000D+01 0.1057000D+01 0.1057000D+01
EXPONENTS  0.1057000D+01 0.1057000D+01 0.1057000D+01 0.2470000D+00 0.2470000D+00
EXPONENTS  0.2470000D+00 0.2470000D+00 0.2470000D+00 0.2470000D+00 0.3387000D+02
EXPONENTS  0.5095000D+01 0.1159000D+01 0.3258000D+00 0.1027000D+00 0.2526000D-01
EXPONENTS  0.1407000D+01 0.1407000D+01 0.1407000D+01 0.3880000D+00 0.3880000D+00
EXPONENTS  0.3880000D+00 0.1020000D+00 0.1020000D+00 0.1020000D+00 0.1057000D+01
EXPONENTS  0.1057000D+01 0.1057000D+01 0.1057000D+01 0.1057000D+01 0.1057000D+01
EXPONENTS  0.2470000D+00 0.2470000D+00 0.2470000D+00 0.2470000D+00 0.2470000D+00
EXPONENTS  0.2470000D+00 0.3387000D+02 0.5095000D+01 0.1159000D+01 0.3258000D+00
EXPONENTS  0.1027000D+00 0.2526000D-01 0.1407000D+01 0.1407000D+01 0.1407000D+01
EXPONENTS  0.3880000D+00 0.3880000D+00 0.3880000D+00 0.1020000D+00 0.1020000D+00
EXPONENTS  0.1020000D+00 0.1057000D+01 0.1057000D+01 0.1057000D+01 0.1057000D+01
EXPONENTS  0.1057000D+01 0.1057000D+01 0.2470000D+00 0.2470000D+00 0.2470000D+00
EXPONENTS  0.2470000D+00 0.2470000D+00 0.2470000D+00 0.3387000D+02 0.5095000D+01
EXPONENTS  0.1159000D+01 0.3258000D+00 0.1027000D+00 0.2526000D-01 0.1407000D+01
EXPONENTS  0.1407000D+01 0.1407000D+01 0.3880000D+00 0.3880000D+00 0.3880000D+00
EXPONENTS  0.1020000D+00 0.1020000D+00 0.1020000D+00 0.1057000D+01 0.1057000D+01
EXPONENTS  0.1057000D+01 0.1057000D+01 0.1057000D+01 0.1057000D+01 0.2470000D+00
EXPONENTS  0.2470000D+00 0.2470000D+00 0.2470000D+00 0.2470000D+00 0.2470000D+00
EXPONENTS  0.3387000D+02 0.5095000D+01 0.1159000D+01 0.3258000D+00 0.1027000D+00
EXPONENTS  0.2526000D-01 0.1407000D+01 0.1407000D+01 0.1407000D+01 0.3880000D+00
EXPONENTS  0.3880000D+00 0.3880000D+00 0.1020000D+00 0.1020000D+00 0.1020000D+00
EXPONENTS  0.1057000D+01 0.1057000D+01 0.1057000D+01 0.1057000D+01 0.1057000D+01
EXPONENTS  0.1057000D+01 0.2470000D+00 0.2470000D+00 0.2470000D+00 0.2470000D+00
EXPONENTS  0.2470000D+00 0.2470000D+00
MO    1     MO 0.0        OCC NO =    2.0000000  ORB. ENERGY =  -10.547068
  0.13521843D+00  0.25207790D+00  0.42605606D+00  0.64050181D+00  0.78693048D+00
  0.66468859D+00  0.25069608D+00 -0.12407089D-02 -0.15480381D-02 -0.28984158D-02
 -0.49348008D-02 -0.76333865D-02 -0.10052902D-01 -0.10445609D-01 -0.66377153D-02
  0.44484425D-02  0.15737221D-01 -0.49752953D-02 -0.41718976D-03  0.36515019D-12
  0.34235152D-12  0.24377467D-12  0.48426746D-03  0.45403153D-03  0.32329749D-03
 -0.30367631D-16 -0.28471585D-16 -0.20273464D-16 -0.18233343D-11  0.15242895D-02
 -0.40327048D-16  0.49683340D-10  0.15275056D-02  0.17577819D-16 -0.38668414D-11
  0.21539693D-04 -0.70858142D-18  0.63239548D-03  0.11728806D-02 -0.18052761D-02
  0.52695485D-12 -0.19475732D-16 -0.27922941D-16 -0.31312217D-03 -0.11638725D-02
  0.14769947D-02 -0.69643937D-11 -0.80085406D-17  0.70192069D-17  0.91173673D-04
 -0.16670119D-03  0.75527520D-04  0.95137363D-11  0.31837965D-18 -0.18925427D-19
  0.10439269D-13  0.24238855D-05 -0.83781355D-18 -0.70312831D-12 -0.62848979D-03
  0.43696702D-17  0.67181050D-12  0.62121814D-03 -0.18562296D-17 -0.89533580D-17
  0.12609540D-11  0.36720567D-03 -0.78606486D-18 -0.34646456D-11 -0.10593538D-02
  0.20638244D-17 -0.31821626D-12 -0.42263246D-04  0.29437022D-18 -0.56265940D-17
  0.13509961D+00  0.25185639D+00  0.42568167D+00  0.63993898D+00  0.78623897D+00
  0.66410450D+00  0.25047578D+00 -0.12396186D-02 -0.15472981D-02 -0.28970303D-02
 -0.49324420D-02 -0.76297377D-02 -0.10048096D-01 -0.10440616D-01 -0.66345425D-02
  0.44463161D-02  0.15726121D-01 -0.49805321D-02 -0.41785378D-03 -0.41959547D-03
 -0.39339743D-03 -0.28012240D-03  0.24175982D-03  0.22666520D-03  0.16139913D-03
  0.57812676D-18  0.54203058D-18  0.38595806D-18 -0.13211711D-02  0.76257492D-03
 -0.51266983D-18 -0.13223372D-02  0.76439671D-03 -0.93781525D-18 -0.18570376D-04
  0.10706281D-04  0.60016353D-18  0.10370441D-02  0.76691144D-03 -0.18039555D-02
 -0.46790735D-03 -0.64967141D-17  0.12384256D-17 -0.95179402D-03 -0.52552424D-03
  0.14773183D-02  0.73697456D-03  0.65894914D-18 -0.81074807D-17 -0.10214431D-03
  0.26617818D-04  0.75526489D-04  0.22290512D-03  0.25332412D-17  0.77352612D-19
  0.13446489D-03 -0.23592070D-03 -0.32697983D-18  0.13465971D-03  0.39747689D-03
  0.79168777D-18 -0.53805436D-03  0.31028521D-03  0.18925173D-18 -0.43150229D-17
 -0.91726749D-05 -0.35124119D-03  0.55359936D-18 -0.90595024D-05  0.10749353D-02
  0.20495215D-17  0.36577527D-04 -0.21211740D-04 -0.37103196D-17  0.10846627D-17
  0.13509961D+00  0.25185639D+00  0.42568167D+00  0.63993898D+00  0.78623898D+00
  0.66410450D+00  0.25047578D+00 -0.12396186D-02 -0.15472981D-02 -0.28970303D-02
 -0.49324420D-02 -0.76297377D-02 -0.10048096D-01 -0.10440616D-01 -0.66345425D-02
  0.44463161D-02  0.15726121D-01 -0.49805321D-02 -0.41785381D-03 -0.41959547D-03
 -0.39339743D-03 -0.28012240D-03 -0.24175982D-03 -0.22666520D-03 -0.16139913D-03
 -0.13948338D-16 -0.13077454D-16 -0.93119260D-17 -0.13211711D-02 -0.76257493D-03
  0.36886356D-17 -0.13223373D-02 -0.76439662D-03 -0.17032270D-17 -0.18570370D-04
 -0.10706286D-04 -0.55643718D-18  0.10370441D-02  0.76691144D-03 -0.18039555D-02
  0.46790735D-03 -0.51251508D-17  0.61895918D-17 -0.95179402D-03 -0.52552424D-03
  0.14773183D-02 -0.73697456D-03  0.68187944D-17 -0.11609637D-16 -0.10214429D-03
  0.26617805D-04  0.75526488D-04 -0.22290511D-03 -0.65984830D-18  0.21584213D-18
  0.13446489D-03  0.23592070D-03 -0.12717516D-17  0.13465970D-03 -0.39747689D-03
  0.49052138D-18 -0.53805436D-03 -0.31028521D-03  0.33247335D-17  0.35600928D-17
 -0.91726725D-05  0.35124119D-03  0.19056389D-20 -0.90595105D-05 -0.10749353D-02
 -0.13603920D-17  0.36577528D-04  0.21211739D-04  0.13546751D-17  0.27884765D-17
  0.13521843D+00  0.25207790D+00  0.42605606D+00  0.64050181D+00  0.78693048D+00
  0.66468859D+00  0.25069608D+00 -0.12407089D-02 -0.15480381D-02 -0.28984158D-02
 -0.49348008D-02 -0.76333865D-02 -0.10052902D-01 -0.10445609D-01 -0.66377153D-02
  0.44484425D-02  0.15737221D-01 -0.49752953D-02 -0.41718973D-03 -0.12235220D-12
 -0.11471297D-12 -0.81682465D-13 -0.48426746D-03 -0.45403153D-03 -0.32329750D-03
 -0.77438385D-17 -0.72603408D-17 -0.51697952D-17  0.12297656D-11 -0.15242895D-02
  0.17313219D-17 -0.52198185D-10 -0.15275056D-02  0.50230778D-17  0.38103806D-11
 -0.21539695D-04  0.57714076D-18  0.63239548D-03  0.11728806D-02 -0.18052761D-02
  0.63635392D-12  0.26270447D-18  0.13740356D-17 -0.31312217D-03 -0.11638725D-02
  0.14769947D-02 -0.68829230D-11  0.74762692D-17  0.16396712D-17  0.91173682D-04
 -0.16670120D-03  0.75527521D-04  0.97235503D-11 -0.59864102D-18 -0.11590229D-17
 -0.26899205D-13 -0.24238853D-05 -0.51174211D-18  0.72434488D-12  0.62848979D-03
 -0.66606766D-18 -0.64364727D-12 -0.62121814D-03  0.22012940D-17  0.25874491D-17
 -0.13554021D-11 -0.36720567D-03 -0.25532094D-18  0.36532054D-11  0.10593538D-02
  0.23218233D-17  0.41300103D-12  0.42263246D-04 -0.15558605D-17 -0.53318087D-17
  0.13509961D+00  0.25185639D+00  0.42568167D+00  0.63993898D+00  0.78623898D+00
  0.66410450D+00  0.25047578D+00 -0.12396186D-02 -0.15472981D-02 -0.28970303D-02
 -0.49324420D-02 -0.76297377D-02 -0.10048096D-01 -0.10440616D-01 -0.66345425D-02
  0.44463161D-02  0.15726121D-01 -0.49805321D-02 -0.41785381D-03  0.41959547D-03
  0.39339742D-03  0.28012240D-03 -0.24175982D-03 -0.22666520D-03 -0.16139913D-03
  0.47519300D-18  0.44552364D-18  0.31723937D-18  0.13211711D-02 -0.76257492D-03
 -0.43282922D-17  0.13223372D-02 -0.76439672D-03 -0.69063140D-17  0.18570374D-04
 -0.10706280D-04 -0.52882069D-18  0.10370441D-02  0.76691144D-03 -0.18039555D-02
 -0.46790735D-03 -0.24133709D-18 -0.29684037D-17 -0.95179402D-03 -0.52552424D-03
  0.14773183D-02  0.73697456D-03 -0.55020018D-18  0.13545557D-16 -0.10214430D-03
  0.26617813D-04  0.75526488D-04  0.22290510D-03 -0.23608946D-17  0.30048917D-18
 -0.13446489D-03  0.23592070D-03 -0.65827412D-18 -0.13465971D-03 -0.39747689D-03
  0.94895477D-18  0.53805436D-03 -0.31028521D-03  0.10258676D-17 -0.57248322D-17
  0.91726750D-05  0.35124119D-03  0.25499627D-18  0.90595027D-05 -0.10749353D-02
  0.43415416D-17 -0.36577528D-04  0.21211740D-04 -0.51065304D-17  0.18353346D-17
  0.13509961D+00  0.25185639D+00  0.42568167D+00  0.63993898D+00  0.78623897D+00
  0.66410450D+00  0.25047578D+00 -0.12396186D-02 -0.15472981D-02 -0.28970303D-02
 -0.49324420D-02 -0.76297377D-02 -0.10048096D-01 -0.10440616D-01 -0.66345425D-02
  0.44463161D-02  0.15726121D-01 -0.49805321D-02 -0.41785378D-03  0.41959547D-03
  0.39339743D-03  0.28012240D-03  0.24175982D-03  0.22666520D-03  0.16139913D-03
  0.32284913D-17  0.30269158D-17  0.21553444D-17  0.13211711D-02  0.76257493D-03
 -0.47496081D-17  0.13223373D-02  0.76439662D-03  0.29939105D-17  0.18570372D-04
  0.10706287D-04  0.45561804D-18  0.10370441D-02  0.76691144D-03 -0.18039555D-02
  0.46790735D-03  0.70839948D-17 -0.86933943D-17 -0.95179402D-03 -0.52552424D-03
  0.14773183D-02 -0.73697455D-03 -0.12105762D-16  0.19803183D-16 -0.10214430D-03
  0.26617809D-04  0.75526489D-04 -0.22290513D-03  0.19686719D-17  0.13090244D-17
 -0.13446489D-03 -0.23592070D-03  0.35160102D-17 -0.13465971D-03  0.39747689D-03
 -0.63194823D-17  0.53805436D-03  0.31028521D-03 -0.42285483D-17  0.36459987D-17
  0.91726726D-05 -0.35124119D-03 -0.24508292D-18  0.90595099D-05  0.10749353D-02
 -0.42205081D-17 -0.36577528D-04 -0.21211739D-04  0.49557569D-17  0.48401156D-17
  0.13465019D-03  0.24284716D-03  0.35807799D-03  0.43960283D-02  0.30942026D-02
  0.58316182D-04 -0.43968152D-12  0.11289941D-03  0.17241949D-17  0.19481904D-11
  0.44922001D-03 -0.47497055D-18  0.41991233D-11  0.22598572D-03 -0.12510968D-18
  0.26544725D-03 -0.99470943D-03  0.72926218D-03  0.15769170D-12  0.18861308D-17
 -0.43379392D-18 -0.49314133D-04 -0.14284451D-03  0.19215864D-03  0.57825969D-12
  0.16561378D-18 -0.20254891D-18  0.13457110D-03  0.24270451D-03  0.35786766D-03
  0.43979200D-02  0.30932790D-02  0.58236230D-04 -0.98438369D-04  0.56837678D-04
  0.87929873D-18 -0.39046790D-03  0.22582648D-03 -0.33930546D-17 -0.19577906D-03
  0.11314444D-03 -0.35204417D-17 -0.67896021D-03 -0.49638405D-04  0.72859862D-03
  0.10892855D-02  0.52393839D-19  0.44802480D-17 -0.11940612D-03 -0.72650720D-04
  0.19205684D-03  0.80720911D-04  0.83974931D-18 -0.28971684D-17  0.13457110D-03
  0.24270451D-03  0.35786766D-03  0.43979200D-02  0.30932789D-02  0.58236229D-04
 -0.98438369D-04 -0.56837679D-04  0.27611392D-19 -0.39046790D-03 -0.22582648D-03
 -0.16087486D-17 -0.19577906D-03 -0.11314443D-03  0.70527285D-18 -0.67896021D-03
 -0.49638405D-04  0.72859862D-03 -0.10892855D-02  0.10260231D-17  0.10789108D-17
 -0.11940612D-03 -0.72650720D-04  0.19205684D-03 -0.80720912D-04  0.69830121D-18
  0.15105814D-18  0.13465019D-03  0.24284716D-03  0.35807799D-03  0.43960283D-02
  0.30942027D-02  0.58316184D-04  0.40179611D-12 -0.11289941D-03 -0.74325219D-18
 -0.20440728D-11 -0.44922001D-03  0.60182506D-18 -0.42618511D-11 -0.22598572D-03
  0.59394809D-18  0.26544725D-03 -0.99470943D-03  0.72926218D-03  0.14031122D-12
 -0.31436012D-18  0.16646457D-17 -0.49314134D-04 -0.14284451D-03  0.19215864D-03
  0.65042271D-12  0.12480859D-17  0.66900229D-18  0.13457110D-03  0.24270451D-03
  0.35786766D-03  0.43979200D-02  0.30932789D-02  0.58236228D-04  0.98438369D-04
 -0.56837678D-04  0.32216954D-17  0.39046790D-03 -0.22582648D-03 -0.64324527D-17
  0.19577906D-03 -0.11314444D-03 -0.21160336D-17 -0.67896021D-03 -0.49638405D-04
  0.72859862D-03  0.10892855D-02 -0.31339652D-17  0.86666549D-18 -0.11940612D-03
 -0.72650719D-04  0.19205684D-03  0.80720911D-04 -0.18657455D-18  0.43788904D-17
  0.13457110D-03  0.24270451D-03  0.35786766D-03  0.43979200D-02  0.30932790D-02
  0.58236230D-04  0.98438369D-04  0.56837679D-04 -0.51852255D-18  0.39046790D-03
  0.22582648D-03  0.78462642D-18  0.19577907D-03  0.11314443D-03  0.20065952D-17
 -0.67896021D-03 -0.49638405D-04  0.72859862D-03 -0.10892855D-02  0.44225781D-18
 -0.26771526D-17 -0.11940612D-03 -0.72650720D-04  0.19205684D-03 -0.80720912D-04
 -0.97114432D-18  0.18735165D-17
MO    2     MO 0.0        OCC NO =    2.0000000  ORB. ENERGY =  -10.546697
  0.19132896D+00  0.35668069D+00  0.60285319D+00  0.90628582D+00  0.11134768D+01
  0.94050920D+00  0.35472547D+00 -0.17555561D-02 -0.22781644D-02 -0.42654426D-02
 -0.72622810D-02 -0.11233644D-01 -0.14794314D-01 -0.15372240D-01 -0.97683687D-02
  0.65465335D-02  0.22574755D-01 -0.11240097D-01 -0.35820021D-02 -0.28734982D-12
 -0.26940872D-12 -0.19183506D-12  0.64779683D-03  0.60735070D-03  0.43246988D-03
 -0.21555859D-16 -0.20209988D-16 -0.14390716D-16  0.16958738D-11 -0.30331830D-03
  0.54739296D-17 -0.52307729D-10  0.30577969D-02 -0.97274285D-17  0.45047666D-11
  0.22602748D-04  0.47958060D-18  0.11710997D-02  0.92061411D-03 -0.20917138D-02
 -0.58609587D-12 -0.72182854D-15  0.42645203D-16 -0.18557786D-02 -0.19046286D-03
  0.20462415D-02  0.64042425D-11  0.11279795D-16 -0.55909638D-17  0.46941222D-03
 -0.57197148D-03  0.10255926D-03 -0.10091658D-10  0.29194896D-17 -0.12060380D-17
  0.67961897D-14 -0.25130794D-03  0.14239640D-17  0.59756174D-12 -0.29093716D-03
 -0.40274688D-17 -0.61795031D-12  0.10448610D-02 -0.24442324D-18  0.10721334D-16
 -0.13133537D-11  0.90174281D-03  0.67473064D-18  0.35626493D-11 -0.25640062D-02
 -0.35172609D-17  0.37741190D-12 -0.14122222D-03  0.14930690D-17  0.71938979D-17
  0.95578546D-01  0.17818014D+00  0.30115583D+00  0.45273586D+00  0.55623831D+00
  0.46983217D+00  0.17720341D+00 -0.87698956D-03 -0.11382296D-02 -0.21311249D-02
 -0.36284225D-02 -0.56126179D-02 -0.73916204D-02 -0.76803671D-02 -0.48805285D-02
  0.32708167D-02  0.11278341D-01 -0.56211431D-02 -0.17918690D-02 -0.33048929D-03
 -0.30985472D-03 -0.22063502D-03  0.75481426D-04  0.70768634D-04  0.50391484D-04
 -0.19546432D-17 -0.18326023D-17 -0.13049220D-17 -0.30130539D-02 -0.55265053D-02
 -0.12635613D-17 -0.47987529D-03  0.22232060D-02  0.42731833D-17 -0.18823662D-03
 -0.30356445D-03 -0.59648272D-18  0.11911103D-02 -0.14602991D-03 -0.10450804D-02
  0.91760777D-03 -0.78969712D-18 -0.67713191D-17  0.12750445D-03 -0.11503390D-02
  0.10228346D-02 -0.23131785D-03  0.55703264D-17  0.69197108D-17 -0.49072094D-04
 -0.23870704D-05  0.51459165D-04  0.57740495D-03 -0.18956149D-17  0.30914821D-17
  0.39091046D-03 -0.20582952D-04 -0.77938160D-18 -0.60490805D-03  0.70045160D-06
  0.17608132D-17 -0.56782334D-03  0.61048406D-04  0.57733156D-18  0.54820933D-17
  0.22046440D-03 -0.30284404D-03 -0.52251257D-18 -0.44092428D-03  0.14312537D-02
 -0.24922916D-17 -0.22046891D-03 -0.52272152D-03  0.40598293D-17 -0.81482596D-18
 -0.95578546D-01 -0.17818014D+00 -0.30115583D+00 -0.45273586D+00 -0.55623831D+00
 -0.46983217D+00 -0.17720341D+00  0.87698956D-03  0.11382296D-02  0.21311249D-02
  0.36284225D-02  0.56126179D-02  0.73916204D-02  0.76803671D-02  0.48805285D-02
 -0.32708167D-02 -0.11278341D-01  0.56211431D-02  0.17918690D-02  0.33048929D-03
  0.30985472D-03  0.22063502D-03  0.75481425D-04  0.70768634D-04  0.50391484D-04
  0.10020914D-16  0.93952435D-17  0.66899731D-17  0.30130539D-02 -0.55265054D-02
 -0.37776930D-17  0.47987529D-03  0.22232060D-02 -0.19168604D-17  0.18823662D-03
 -0.30356445D-03  0.68628482D-18 -0.11911103D-02  0.14602991D-03  0.10450804D-02
  0.91760777D-03  0.49328554D-17 -0.47002488D-17 -0.12750445D-03  0.11503390D-02
 -0.10228346D-02 -0.23131785D-03 -0.66810587D-17  0.10905694D-16  0.49072095D-04
  0.23870701D-05 -0.51459165D-04  0.57740495D-03  0.46568418D-18  0.28751142D-17
 -0.39091046D-03 -0.20582952D-04  0.12129669D-17  0.60490805D-03  0.70045136D-06
 -0.49360394D-18  0.56782334D-03  0.61048405D-04 -0.31452968D-17 -0.41589396D-17
 -0.22046440D-03 -0.30284404D-03 -0.33757547D-19  0.44092428D-03  0.14312537D-02
  0.70740968D-18  0.22046891D-03 -0.52272152D-03 -0.60613704D-18 -0.69084839D-19
 -0.19132896D+00 -0.35668069D+00 -0.60285319D+00 -0.90628582D+00 -0.11134768D+01
 -0.94050920D+00 -0.35472547D+00  0.17555561D-02  0.22781644D-02  0.42654426D-02
  0.72622810D-02  0.11233644D-01  0.14794314D-01  0.15372240D-01  0.97683687D-02
 -0.65465335D-02 -0.22574755D-01  0.11240097D-01  0.35820021D-02  0.12581145D-12