 Molden2AIM, Version 4.0.0 (06/02/2016)           Time: Sun Jul  1 18:28:20 2018
GAUSSIAN             25 MOL ORBITALS    687 PRIMITIVES       13 NUCLEI
  C    1    (CENTRE  1)  -0.00183870  1.77731766  0.00000000  CHARGE =  6.0
  C    2    (CENTRE  2)  -2.27733352  0.43975628  0.00000000  CHARGE =  6.0
  C    3    (CENTRE  3)  -2.24331467 -2.19494146  0.00000000  CHARGE =  6.0
  C    4    (CENTRE  4)   0.04121871 -3.50464261  0.00000000  CHARGE =  6.0
  C    5    (CENTRE  5)   2.30390685 -2.14814806  0.00000000  CHARGE =  6.0
  C    6    (CENTRE  6)   2.29712651  0.48166473  0.00000000  CHARGE =  6.0
  O    7    (CENTRE  7)   0.09330901  4.35159896  0.00000000  CHARGE =  8.0
  H    8    (CENTRE  8)  -1.59891428  5.01626477  0.00000000  CHARGE =  1.0
  H    9    (CENTRE  9)  -4.07365804  1.45747206  0.00000000  CHARGE =  1.0
  H   10    (CENTRE 10)  -4.02756384 -3.22719113  0.00000000  CHARGE =  1.0
  H   11    (CENTRE 11)   0.06030872 -5.56390929  0.00000000  CHARGE =  1.0
  H   12    (CENTRE 12)   4.10500860 -3.15092934  0.00000000  CHARGE =  1.0
  H   13    (CENTRE 13)   4.05027646  1.56183785  0.00000000  CHARGE =  1.0
CENTRE ASSIGNMENTS    1  1  1  1  1  1  1  1  1  1  1  1  1  1  1  1  1  1  1  1
CENTRE ASSIGNMENTS    1  1  1  1  1  1  1  1  1  1  1  1  1  1  1  1  1  1  1  1
CENTRE ASSIGNMENTS    1  1  1  1  1  1  1  1  1  1  1  1  1  1  1  1  1  1  1  1
CENTRE ASSIGNMENTS    1  1  1  1  1  1  1  1  1  1  1  1  1  1  1  2  2  2  2  2
CENTRE ASSIGNMENTS    2  2  2  2  2  2  2  2  2  2  2  2  2  2  2  2  2  2  2  2
CENTRE ASSIGNMENTS    2  2  2  2  2  2  2  2  2  2  2  2  2  2  2  2  2  2  2  2
CENTRE ASSIGNMENTS    2  2  2  2  2  2  2  2  2  2  2  2  2  2  2  2  2  2  2  2
CENTRE ASSIGNMENTS    2  2  2  2  2  2  2  2  2  2  3  3  3  3  3  3  3  3  3  3
CENTRE ASSIGNMENTS    3  3  3  3  3  3  3  3  3  3  3  3  3  3  3  3  3  3  3  3
CENTRE ASSIGNMENTS    3  3  3  3  3  3  3  3  3  3  3  3  3  3  3  3  3  3  3  3
CENTRE ASSIGNMENTS    3  3  3  3  3  3  3  3  3  3  3  3  3  3  3  3  3  3  3  3
CENTRE ASSIGNMENTS    3  3  3  3  3  4  4  4  4  4  4  4  4  4  4  4  4  4  4  4
CENTRE ASSIGNMENTS    4  4  4  4  4  4  4  4  4  4  4  4  4  4  4  4  4  4  4  4
CENTRE ASSIGNMENTS    4  4  4  4  4  4  4  4  4  4  4  4  4  4  4  4  4  4  4  4
CENTRE ASSIGNMENTS    4  4  4  4  4  4  4  4  4  4  4  4  4  4  4  4  4  4  4  4
CENTRE ASSIGNMENTS    5  5  5  5  5  5  5  5  5  5  5  5  5  5  5  5  5  5  5  5
CENTRE ASSIGNMENTS    5  5  5  5  5  5  5  5  5  5  5  5  5  5  5  5  5  5  5  5
CENTRE ASSIGNMENTS    5  5  5  5  5  5  5  5  5  5  5  5  5  5  5  5  5  5  5  5
CENTRE ASSIGNMENTS    5  5  5  5  5  5  5  5  5  5  5  5  5  5  5  6  6  6  6  6
CENTRE ASSIGNMENTS    6  6  6  6  6  6  6  6  6  6  6  6  6  6  6  6  6  6  6  6
CENTRE ASSIGNMENTS    6  6  6  6  6  6  6  6  6  6  6  6  6  6  6  6  6  6  6  6
CENTRE ASSIGNMENTS    6  6  6  6  6  6  6  6  6  6  6  6  6  6  6  6  6  6  6  6
CENTRE ASSIGNMENTS    6  6  6  6  6  6  6  6  6  6  7  7  7  7  7  7  7  7  7  7
CENTRE ASSIGNMENTS    7  7  7  7  7  7  7  7  7  7  7  7  7  7  7  7  7  7  7  7
CENTRE ASSIGNMENTS    7  7  7  7  7  7  7  7  7  7  7  7  7  7  7  7  7  7  7  7
CENTRE ASSIGNMENTS    7  7  7  7  7  7  7  7  7  7  7  7  7  7  7  7  7  7  7  7
CENTRE ASSIGNMENTS    7  7  7  7  7  8  8  8  8  8  8  8  8  8  8  8  8  8  8  8
CENTRE ASSIGNMENTS    8  8  8  8  8  8  8  8  8  8  8  8  9  9  9  9  9  9  9  9
CENTRE ASSIGNMENTS    9  9  9  9  9  9  9  9  9  9  9  9  9  9  9  9  9  9  9 10
CENTRE ASSIGNMENTS   10 10 10 10 10 10 10 10 10 10 10 10 10 10 10 10 10 10 10 10
CENTRE ASSIGNMENTS   10 10 10 10 10 10 11 11 11 11 11 11 11 11 11 11 11 11 11 11
CENTRE ASSIGNMENTS   11 11 11 11 11 11 11 11 11 11 11 11 11 12 12 12 12 12 12 12
CENTRE ASSIGNMENTS   12 12 12 12 12 12 12 12 12 12 12 12 12 12 12 12 12 12 12 12
CENTRE ASSIGNMENTS   13 13 13 13 13 13 13 13 13 13 13 13 13 13 13 13 13 13 13 13
CENTRE ASSIGNMENTS   13 13 13 13 13 13 13
TYPE ASSIGNMENTS      1  1  1  1  1  1  1  1  1  1  1  1  1  1  1  1  1  1  1  2
TYPE ASSIGNMENTS      2  2  3  3  3  4  4  4  2  3  4  2  3  4  2  3  4  5  6  7
TYPE ASSIGNMENTS      8  9 10  5  6  7  8  9 10  5  6  7  8  9 10 11 12 13 17 14
TYPE ASSIGNMENTS     15 18 19 16 20 11 12 13 17 14 15 18 19 16 20  1  1  1  1  1
TYPE ASSIGNMENTS      1  1  1  1  1  1  1  1  1  1  1  1  1  1  2  2  2  3  3  3
TYPE ASSIGNMENTS      4  4  4  2  3  4  2  3  4  2  3  4  5  6  7  8  9 10  5  6
TYPE ASSIGNMENTS      7  8  9 10  5  6  7  8  9 10 11 12 13 17 14 15 18 19 16 20
TYPE ASSIGNMENTS     11 12 13 17 14 15 18 19 16 20  1  1  1  1  1  1  1  1  1  1
TYPE ASSIGNMENTS      1  1  1  1  1  1  1  1  1  2  2  2  3  3  3  4  4  4  2  3
TYPE ASSIGNMENTS      4  2  3  4  2  3  4  5  6  7  8  9 10  5  6  7  8  9 10  5
TYPE ASSIGNMENTS      6  7  8  9 10 11 12 13 17 14 15 18 19 16 20 11 12 13 17 14
TYPE ASSIGNMENTS     15 18 19 16 20  1  1  1  1  1  1  1  1  1  1  1  1  1  1  1
TYPE ASSIGNMENTS      1  1  1  1  2  2  2  3  3  3  4  4  4  2  3  4  2  3  4  2
TYPE ASSIGNMENTS      3  4  5  6  7  8  9 10  5  6  7  8  9 10  5  6  7  8  9 10
TYPE ASSIGNMENTS     11 12 13 17 14 15 18 19 16 20 11 12 13 17 14 15 18 19 16 20
TYPE ASSIGNMENTS      1  1  1  1  1  1  1  1  1  1  1  1  1  1  1  1  1  1  1  2
TYPE ASSIGNMENTS      2  2  3  3  3  4  4  4  2  3  4  2  3  4  2  3  4  5  6  7
TYPE ASSIGNMENTS      8  9 10  5  6  7  8  9 10  5  6  7  8  9 10 11 12 13 17 14
TYPE ASSIGNMENTS     15 18 19 16 20 11 12 13 17 14 15 18 19 16 20  1  1  1  1  1
TYPE ASSIGNMENTS      1  1  1  1  1  1  1  1  1  1  1  1  1  1  2  2  2  3  3  3
TYPE ASSIGNMENTS      4  4  4  2  3  4  2  3  4  2  3  4  5  6  7  8  9 10  5  6
TYPE ASSIGNMENTS      7  8  9 10  5  6  7  8  9 10 11 12 13 17 14 15 18 19 16 20
TYPE ASSIGNMENTS     11 12 13 17 14 15 18 19 16 20  1  1  1  1  1  1  1  1  1  1
TYPE ASSIGNMENTS      1  1  1  1  1  1  1  1  1  2  2  2  3  3  3  4  4  4  2  3
TYPE ASSIGNMENTS      4  2  3  4  2  3  4  5  6  7  8  9 10  5  6  7  8  9 10  5
TYPE ASSIGNMENTS      6  7  8  9 10 11 12 13 17 14 15 18 19 16 20 11 12 13 17 14
TYPE ASSIGNMENTS     15 18 19 16 20  1  1  1  1  1  1  2  3  4  2  3  4  2  3  4
TYPE ASSIGNMENTS      5  6  7  8  9 10  5  6  7  8  9 10  1  1  1  1  1  1  2  3
TYPE ASSIGNMENTS      4  2  3  4  2  3  4  5  6  7  8  9 10  5  6  7  8  9 10  1
TYPE ASSIGNMENTS      1  1  1  1  1  2  3  4  2  3  4  2  3  4  5  6  7  8  9 10
TYPE ASSIGNMENTS      5  6  7  8  9 10  1  1  1  1  1  1  2  3  4  2  3  4  2  3
TYPE ASSIGNMENTS      4  5  6  7  8  9 10  5  6  7  8  9 10  1  1  1  1  1  1  2
TYPE ASSIGNMENTS      3  4  2  3  4  2  3  4  5  6  7  8  9 10  5  6  7  8  9 10
TYPE ASSIGNMENTS      1  1  1  1  1  1  2  3  4  2  3  4  2  3  4  5  6  7  8  9
TYPE ASSIGNMENTS     10  5  6  7  8  9 10
EXPONENTS  0.8236000D+04 0.1235000D+04 0.2808000D+03 0.7927000D+02 0.2559000D+02
EXPONENTS  0.8997000D+01 0.3319000D+01 0.3643000D+00 0.8236000D+04 0.1235000D+04
EXPONENTS  0.2808000D+03 0.7927000D+02 0.2559000D+02 0.8997000D+01 0.3319000D+01
EXPONENTS  0.3643000D+00 0.9059000D+00 0.1285000D+00 0.4402000D-01 0.1871000D+02
EXPONENTS  0.4133000D+01 0.1200000D+01 0.1871000D+02 0.4133000D+01 0.1200000D+01
EXPONENTS  0.1871000D+02 0.4133000D+01 0.1200000D+01 0.3827000D+00 0.3827000D+00
EXPONENTS  0.3827000D+00 0.1209000D+00 0.1209000D+00 0.1209000D+00 0.3569000D-01
EXPONENTS  0.3569000D-01 0.3569000D-01 0.1097000D+01 0.1097000D+01 0.1097000D+01
EXPONENTS  0.1097000D+01 0.1097000D+01 0.1097000D+01 0.3180000D+00 0.3180000D+00
EXPONENTS  0.3180000D+00 0.3180000D+00 0.3180000D+00 0.3180000D+00 0.1000000D+00
EXPONENTS  0.1000000D+00 0.1000000D+00 0.1000000D+00 0.1000000D+00 0.1000000D+00
EXPONENTS  0.7610000D+00 0.7610000D+00 0.7610000D+00 0.7610000D+00 0.7610000D+00
EXPONENTS  0.7610000D+00 0.7610000D+00 0.7610000D+00 0.7610000D+00 0.7610000D+00
EXPONENTS  0.2680000D+00 0.2680000D+00 0.2680000D+00 0.2680000D+00 0.2680000D+00
EXPONENTS  0.2680000D+00 0.2680000D+00 0.2680000D+00 0.2680000D+00 0.2680000D+00
EXPONENTS  0.8236000D+04 0.1235000D+04 0.2808000D+03 0.7927000D+02 0.2559000D+02
EXPONENTS  0.8997000D+01 0.3319000D+01 0.3643000D+00 0.8236000D+04 0.1235000D+04
EXPONENTS  0.2808000D+03 0.7927000D+02 0.2559000D+02 0.8997000D+01 0.3319000D+01
EXPONENTS  0.3643000D+00 0.9059000D+00 0.1285000D+00 0.4402000D-01 0.1871000D+02
EXPONENTS  0.4133000D+01 0.1200000D+01 0.1871000D+02 0.4133000D+01 0.1200000D+01
EXPONENTS  0.1871000D+02 0.4133000D+01 0.1200000D+01 0.3827000D+00 0.3827000D+00
EXPONENTS  0.3827000D+00 0.1209000D+00 0.1209000D+00 0.1209000D+00 0.3569000D-01
EXPONENTS  0.3569000D-01 0.3569000D-01 0.1097000D+01 0.1097000D+01 0.1097000D+01
EXPONENTS  0.1097000D+01 0.1097000D+01 0.1097000D+01 0.3180000D+00 0.3180000D+00
EXPONENTS  0.3180000D+00 0.3180000D+00 0.3180000D+00 0.3180000D+00 0.1000000D+00
EXPONENTS  0.1000000D+00 0.1000000D+00 0.1000000D+00 0.1000000D+00 0.1000000D+00
EXPONENTS  0.7610000D+00 0.7610000D+00 0.7610000D+00 0.7610000D+00 0.7610000D+00
EXPONENTS  0.7610000D+00 0.7610000D+00 0.7610000D+00 0.7610000D+00 0.7610000D+00
EXPONENTS  0.2680000D+00 0.2680000D+00 0.2680000D+00 0.2680000D+00 0.2680000D+00
EXPONENTS  0.2680000D+00 0.2680000D+00 0.2680000D+00 0.2680000D+00 0.2680000D+00
EXPONENTS  0.8236000D+04 0.1235000D+04 0.2808000D+03 0.7927000D+02 0.2559000D+02
EXPONENTS  0.8997000D+01 0.3319000D+01 0.3643000D+00 0.8236000D+04 0.1235000D+04
EXPONENTS  0.2808000D+03 0.7927000D+02 0.2559000D+02 0.8997000D+01 0.3319000D+01
EXPONENTS  0.3643000D+00 0.9059000D+00 0.1285000D+00 0.4402000D-01 0.1871000D+02
EXPONENTS  0.4133000D+01 0.1200000D+01 0.1871000D+02 0.4133000D+01 0.1200000D+01
EXPONENTS  0.1871000D+02 0.4133000D+01 0.1200000D+01 0.3827000D+00 0.3827000D+00
EXPONENTS  0.3827000D+00 0.1209000D+00 0.1209000D+00 0.1209000D+00 0.3569000D-01
EXPONENTS  0.3569000D-01 0.3569000D-01 0.1097000D+01 0.1097000D+01 0.1097000D+01
EXPONENTS  0.1097000D+01 0.1097000D+01 0.1097000D+01 0.3180000D+00 0.3180000D+00
EXPONENTS  0.3180000D+00 0.3180000D+00 0.3180000D+00 0.3180000D+00 0.1000000D+00
EXPONENTS  0.1000000D+00 0.1000000D+00 0.1000000D+00 0.1000000D+00 0.1000000D+00
EXPONENTS  0.7610000D+00 0.7610000D+00 0.7610000D+00 0.7610000D+00 0.7610000D+00
EXPONENTS  0.7610000D+00 0.7610000D+00 0.7610000D+00 0.7610000D+00 0.7610000D+00
EXPONENTS  0.2680000D+00 0.2680000D+00 0.2680000D+00 0.2680000D+00 0.2680000D+00
EXPONENTS  0.2680000D+00 0.2680000D+00 0.2680000D+00 0.2680000D+00 0.2680000D+00
EXPONENTS  0.8236000D+04 0.1235000D+04 0.2808000D+03 0.7927000D+02 0.2559000D+02
EXPONENTS  0.8997000D+01 0.3319000D+01 0.3643000D+00 0.8236000D+04 0.1235000D+04
EXPONENTS  0.2808000D+03 0.7927000D+02 0.2559000D+02 0.8997000D+01 0.3319000D+01
EXPONENTS  0.3643000D+00 0.9059000D+00 0.1285000D+00 0.4402000D-01 0.1871000D+02
EXPONENTS  0.4133000D+01 0.1200000D+01 0.1871000D+02 0.4133000D+01 0.1200000D+01
EXPONENTS  0.1871000D+02 0.4133000D+01 0.1200000D+01 0.3827000D+00 0.3827000D+00
EXPONENTS  0.3827000D+00 0.1209000D+00 0.1209000D+00 0.1209000D+00 0.3569000D-01
EXPONENTS  0.3569000D-01 0.3569000D-01 0.1097000D+01 0.1097000D+01 0.1097000D+01
EXPONENTS  0.1097000D+01 0.1097000D+01 0.1097000D+01 0.3180000D+00 0.3180000D+00
EXPONENTS  0.3180000D+00 0.3180000D+00 0.3180000D+00 0.3180000D+00 0.1000000D+00
EXPONENTS  0.1000000D+00 0.1000000D+00 0.1000000D+00 0.1000000D+00 0.1000000D+00
EXPONENTS  0.7610000D+00 0.7610000D+00 0.7610000D+00 0.7610000D+00 0.7610000D+00
EXPONENTS  0.7610000D+00 0.7610000D+00 0.7610000D+00 0.7610000D+00 0.7610000D+00
EXPONENTS  0.2680000D+00 0.2680000D+00 0.2680000D+00 0.2680000D+00 0.2680000D+00
EXPONENTS  0.2680000D+00 0.2680000D+00 0.2680000D+00 0.2680000D+00 0.2680000D+00
EXPONENTS  0.8236000D+04 0.1235000D+04 0.2808000D+03 0.7927000D+02 0.2559000D+02
EXPONENTS  0.8997000D+01 0.3319000D+01 0.3643000D+00 0.8236000D+04 0.1235000D+04
EXPONENTS  0.2808000D+03 0.7927000D+02 0.2559000D+02 0.8997000D+01 0.3319000D+01
EXPONENTS  0.3643000D+00 0.9059000D+00 0.1285000D+00 0.4402000D-01 0.1871000D+02
EXPONENTS  0.4133000D+01 0.1200000D+01 0.1871000D+02 0.4133000D+01 0.1200000D+01
EXPONENTS  0.1871000D+02 0.4133000D+01 0.1200000D+01 0.3827000D+00 0.3827000D+00
EXPONENTS  0.3827000D+00 0.1209000D+00 0.1209000D+00 0.1209000D+00 0.3569000D-01
EXPONENTS  0.3569000D-01 0.3569000D-01 0.1097000D+01 0.1097000D+01 0.1097000D+01
EXPONENTS  0.1097000D+01 0.1097000D+01 0.1097000D+01 0.3180000D+00 0.3180000D+00
EXPONENTS  0.3180000D+00 0.3180000D+00 0.3180000D+00 0.3180000D+00 0.1000000D+00
EXPONENTS  0.1000000D+00 0.1000000D+00 0.1000000D+00 0.1000000D+00 0.1000000D+00
EXPONENTS  0.7610000D+00 0.7610000D+00 0.7610000D+00 0.7610000D+00 0.7610000D+00
EXPONENTS  0.7610000D+00 0.7610000D+00 0.7610000D+00 0.7610000D+00 0.7610000D+00
EXPONENTS  0.2680000D+00 0.2680000D+00 0.2680000D+00 0.2680000D+00 0.2680000D+00
EXPONENTS  0.2680000D+00 0.2680000D+00 0.2680000D+00 0.2680000D+00 0.2680000D+00
EXPONENTS  0.8236000D+04 0.1235000D+04 0.2808000D+03 0.7927000D+02 0.2559000D+02
EXPONENTS  0.8997000D+01 0.3319000D+01 0.3643000D+00 0.8236000D+04 0.1235000D+04
EXPONENTS  0.2808000D+03 0.7927000D+02 0.2559000D+02 0.8997000D+01 0.3319000D+01
EXPONENTS  0.3643000D+00 0.9059000D+00 0.1285000D+00 0.4402000D-01 0.1871000D+02
EXPONENTS  0.4133000D+01 0.1200000D+01 0.1871000D+02 0.4133000D+01 0.1200000D+01
EXPONENTS  0.1871000D+02 0.4133000D+01 0.1200000D+01 0.3827000D+00 0.3827000D+00
EXPONENTS  0.3827000D+00 0.1209000D+00 0.1209000D+00 0.1209000D+00 0.3569000D-01
EXPONENTS  0.3569000D-01 0.3569000D-01 0.1097000D+01 0.1097000D+01 0.1097000D+01
EXPONENTS  0.1097000D+01 0.1097000D+01 0.1097000D+01 0.3180000D+00 0.3180000D+00
EXPONENTS  0.3180000D+00 0.3180000D+00 0.3180000D+00 0.3180000D+00 0.1000000D+00
EXPONENTS  0.1000000D+00 0.1000000D+00 0.1000000D+00 0.1000000D+00 0.1000000D+00
EXPONENTS  0.7610000D+00 0.7610000D+00 0.7610000D+00 0.7610000D+00 0.7610000D+00
EXPONENTS  0.7610000D+00 0.7610000D+00 0.7610000D+00 0.7610000D+00 0.7610000D+00
EXPONENTS  0.2680000D+00 0.2680000D+00 0.2680000D+00 0.2680000D+00 0.2680000D+00
EXPONENTS  0.2680000D+00 0.2680000D+00 0.2680000D+00 0.2680000D+00 0.2680000D+00
EXPONENTS  0.1533000D+05 0.2299000D+04 0.5224000D+03 0.1473000D+03 0.4755000D+02
EXPONENTS  0.1676000D+02 0.6207000D+01 0.6882000D+00 0.1533000D+05 0.2299000D+04
EXPONENTS  0.5224000D+03 0.1473000D+03 0.4755000D+02 0.1676000D+02 0.6207000D+01
EXPONENTS  0.6882000D+00 0.1752000D+01 0.2384000D+00 0.7376000D-01 0.3446000D+02
EXPONENTS  0.7749000D+01 0.2280000D+01 0.3446000D+02 0.7749000D+01 0.2280000D+01
EXPONENTS  0.3446000D+02 0.7749000D+01 0.2280000D+01 0.7156000D+00 0.7156000D+00
EXPONENTS  0.7156000D+00 0.2140000D+00 0.2140000D+00 0.2140000D+00 0.5974000D-01
EXPONENTS  0.5974000D-01 0.5974000D-01 0.2314000D+01 0.2314000D+01 0.2314000D+01
EXPONENTS  0.2314000D+01 0.2314000D+01 0.2314000D+01 0.6450000D+00 0.6450000D+00
EXPONENTS  0.6450000D+00 0.6450000D+00 0.6450000D+00 0.6450000D+00 0.2140000D+00
EXPONENTS  0.2140000D+00 0.2140000D+00 0.2140000D+00 0.2140000D+00 0.2140000D+00
EXPONENTS  0.1428000D+01 0.1428000D+01 0.1428000D+01 0.1428000D+01 0.1428000D+01
EXPONENTS  0.1428000D+01 0.1428000D+01 0.1428000D+01 0.1428000D+01 0.1428000D+01
EXPONENTS  0.5000000D+00 0.5000000D+00 0.5000000D+00 0.5000000D+00 0.5000000D+00
EXPONENTS  0.5000000D+00 0.5000000D+00 0.5000000D+00 0.5000000D+00 0.5000000D+00
EXPONENTS  0.3387000D+02 0.5095000D+01 0.1159000D+01 0.3258000D+00 0.1027000D+00
EXPONENTS  0.2526000D-01 0.1407000D+01 0.1407000D+01 0.1407000D+01 0.3880000D+00
EXPONENTS  0.3880000D+00 0.3880000D+00 0.1020000D+00 0.1020000D+00 0.1020000D+00
EXPONENTS  0.1057000D+01 0.1057000D+01 0.1057000D+01 0.1057000D+01 0.1057000D+01
EXPONENTS  0.1057000D+01 0.2470000D+00 0.2470000D+00 0.2470000D+00 0.2470000D+00
EXPONENTS  0.2470000D+00 0.2470000D+00 0.3387000D+02 0.5095000D+01 0.1159000D+01
EXPONENTS  0.3258000D+00 0.1027000D+00 0.2526000D-01 0.1407000D+01 0.1407000D+01
EXPONENTS  0.1407000D+01 0.3880000D+00 0.3880000D+00 0.3880000D+00 0.1020000D+00
EXPONENTS  0.1020000D+00 0.1020000D+00 0.1057000D+01 0.1057000D+01 0.1057000D+01
EXPONENTS  0.1057000D+01 0.1057000D+01 0.1057000D+01 0.2470000D+00 0.2470000D+00
EXPONENTS  0.2470000D+00 0.2470000D+00 0.2470000D+00 0.2470000D+00 0.3387000D+02
EXPONENTS  0.5095000D+01 0.1159000D+01 0.3258000D+00 0.1027000D+00 0.2526000D-01
EXPONENTS  0.1407000D+01 0.1407000D+01 0.1407000D+01 0.3880000D+00 0.3880000D+00
EXPONENTS  0.3880000D+00 0.1020000D+00 0.1020000D+00 0.1020000D+00 0.1057000D+01
EXPONENTS  0.1057000D+01 0.1057000D+01 0.1057000D+01 0.1057000D+01 0.1057000D+01
EXPONENTS  0.2470000D+00 0.2470000D+00 0.2470000D+00 0.2470000D+00 0.2470000D+00
EXPONENTS  0.2470000D+00 0.3387000D+02 0.5095000D+01 0.1159000D+01 0.3258000D+00
EXPONENTS  0.1027000D+00 0.2526000D-01 0.1407000D+01 0.1407000D+01 0.1407000D+01
EXPONENTS  0.3880000D+00 0.3880000D+00 0.3880000D+00 0.1020000D+00 0.1020000D+00
EXPONENTS  0.1020000D+00 0.1057000D+01 0.1057000D+01 0.1057000D+01 0.1057000D+01
EXPONENTS  0.1057000D+01 0.1057000D+01 0.2470000D+00 0.2470000D+00 0.2470000D+00
EXPONENTS  0.2470000D+00 0.2470000D+00 0.2470000D+00 0.3387000D+02 0.5095000D+01
EXPONENTS  0.1159000D+01 0.3258000D+00 0.1027000D+00 0.2526000D-01 0.1407000D+01
EXPONENTS  0.1407000D+01 0.1407000D+01 0.3880000D+00 0.3880000D+00 0.3880000D+00
EXPONENTS  0.1020000D+00 0.1020000D+00 0.1020000D+00 0.1057000D+01 0.1057000D+01
EXPONENTS  0.1057000D+01 0.1057000D+01 0.1057000D+01 0.1057000D+01 0.2470000D+00
EXPONENTS  0.2470000D+00 0.2470000D+00 0.2470000D+00 0.2470000D+00 0.2470000D+00
EXPONENTS  0.3387000D+02 0.5095000D+01 0.1159000D+01 0.3258000D+00 0.1027000D+00
EXPONENTS  0.2526000D-01 0.1407000D+01 0.1407000D+01 0.1407000D+01 0.3880000D+00
EXPONENTS  0.3880000D+00 0.3880000D+00 0.1020000D+00 0.1020000D+00 0.1020000D+00
EXPONENTS  0.1057000D+01 0.1057000D+01 0.1057000D+01 0.1057000D+01 0.1057000D+01
EXPONENTS  0.1057000D+01 0.2470000D+00 0.2470000D+00 0.2470000D+00 0.2470000D+00
EXPONENTS  0.2470000D+00 0.2470000D+00
MO    1     MO 0.0        OCC NO =    2.0000000  ORB. ENERGY =  -19.659780
  0.21352830D-03  0.39806530D-03  0.67280048D-03  0.10114395D-02  0.12426703D-02
  0.10496337D-02  0.39588322D-03 -0.19592482D-05 -0.16308264D-03 -0.30534215D-03
 -0.51987114D-03 -0.80416161D-03 -0.10590525D-02 -0.11004234D-02 -0.69926969D-03
  0.46863429D-03 -0.31861272D-03  0.88722880D-02 -0.30308297D-03 -0.11121451D-03
 -0.10427068D-03 -0.74246933D-04 -0.75515251D-03 -0.70800348D-03 -0.50414065D-03
 -0.15246917D-16 -0.14294954D-16 -0.10178859D-16  0.65804173D-03  0.57257620D-02
  0.25707024D-18 -0.83251362D-04  0.23655539D-02  0.44019421D-19 -0.39462637D-04
 -0.35507457D-04 -0.41257222D-19 -0.89702513D-03  0.14965657D-02 -0.59954059D-03
  0.15397043D-03 -0.23230256D-18  0.55113969D-19 -0.46749626D-03  0.85615126D-03
 -0.38865500D-03  0.16555061D-03  0.19996116D-18  0.55547116D-20  0.86043686D-03
 -0.10292665D-02  0.16882959D-03 -0.36506905D-03 -0.27273562D-18 -0.10867238D-19
 -0.24881162D-04  0.59892986D-03  0.10871462D-19  0.21312422D-03 -0.99545789D-03
 -0.17961275D-18 -0.13848073D-03 -0.80133169D-03  0.14699836D-18 -0.77607419D-19
  0.12368771D-03 -0.54233843D-03 -0.79121357D-20 -0.45672953D-03  0.13543734D-02
  0.17730856D-18  0.85666412D-04  0.27264195D-03 -0.15357216D-18 -0.13628260D-18
  0.46741596D-04  0.87136962D-04  0.14727682D-03  0.22140530D-03  0.27202199D-03
  0.22976605D-03  0.86659302D-04 -0.42888172D-06 -0.32201608D-04 -0.60291571D-04
 -0.10265156D-03 -0.15878635D-03 -0.20911604D-03 -0.21728496D-03 -0.13807484D-03
  0.92534545D-04  0.11032674D-03  0.16607081D-02 -0.35574334D-03 -0.16547405D-03
 -0.15514244D-03 -0.11047066D-03 -0.16375752D-03 -0.15353308D-03 -0.10932470D-03
  0.59986527D-19  0.56241182D-19  0.40047072D-19  0.17993071D-02  0.10530227D-02
 -0.86549048D-19  0.30165728D-04 -0.16752864D-02 -0.99276958D-19 -0.33798555D-04
 -0.90254149D-05  0.30006506D-19 -0.12484402D-03  0.13077797D-04  0.11176622D-03
 -0.19321934D-04  0.34299042D-19  0.19457559D-18 -0.18789800D-03  0.13020898D-03
  0.57689020D-04  0.15514266D-02  0.10625481D-18 -0.16944975D-18  0.52694271D-03
 -0.42895754D-03 -0.97985171D-04 -0.15610988D-02 -0.10325252D-18 -0.23660648D-18
  0.65163507D-04  0.60700107D-04 -0.63562789D-19  0.19941668D-04 -0.23954228D-03
  0.10238264D-19 -0.21543219D-03  0.57441957D-04  0.18045010D-18  0.75891708D-19
  0.78086491D-04 -0.31253700D-03  0.13486818D-19 -0.43701268D-03  0.78354320D-03
  0.56220907D-19  0.20275321D-03  0.15406781D-03 -0.96681362D-19 -0.91975398D-19
 -0.10188637D-03 -0.18993936D-03 -0.32103098D-03 -0.48261472D-03 -0.59294794D-03
 -0.50083933D-03 -0.18889817D-03  0.93486757D-06  0.76746319D-04  0.14369332D-03
  0.24465018D-03  0.37843663D-03  0.49838773D-03  0.51785677D-03  0.32907473D-03
 -0.22053823D-03 -0.40018097D-03 -0.21880642D-02  0.84634574D-03 -0.19968109D-03
 -0.18721372D-03 -0.13330732D-03  0.39867522D-04  0.37378336D-04  0.26615602D-04
 -0.13297866D-18 -0.12467595D-18 -0.88776702D-19  0.10751923D-02 -0.89436809D-03
  0.99927521D-19 -0.19560330D-02  0.60848395D-03  0.36850143D-19  0.46607386D-04
  0.12360794D-04 -0.25471146D-19  0.27235718D-04  0.66934478D-04 -0.94170196D-04
  0.10986807D-04 -0.14042447D-19  0.37720730D-19  0.34332338D-03 -0.18821772D-03
 -0.15510566D-03  0.11808342D-02  0.73712566D-19 -0.56963066D-19 -0.31708874D-03
  0.24689529D-03  0.70193453D-04 -0.87122924D-03  0.13688660D-18 -0.23890877D-18
 -0.90944056D-04  0.60305139D-04  0.26352916D-19  0.33200860D-03 -0.18670389D-03
 -0.25451462D-19 -0.59176427D-04  0.57884759D-05 -0.53607287D-19 -0.59998412D-19
  0.75852536D-04  0.73625019D-04 -0.92937404D-21 -0.36180175D-03 -0.13367719D-03
 -0.42968380D-19  0.13424414D-03 -0.87197868D-04  0.45756503D-19 -0.86747183D-19
  0.16632423D-04  0.31006619D-04  0.52406648D-04  0.78784358D-04  0.96795687D-04
  0.81759431D-04  0.30836649D-04 -0.15261230D-06 -0.13023965D-04 -0.24384972D-04
 -0.41517502D-04 -0.64221262D-04 -0.84577143D-04 -0.87881069D-04 -0.55844475D-04
  0.37425668D-04  0.16918713D-03  0.87224949D-03 -0.10902235D-02 -0.29223128D-04
 -0.27398540D-04 -0.19509393D-04  0.87869587D-04  0.82383323D-04  0.58661834D-04
 -0.10609812D-18 -0.99473734D-19 -0.70831224D-19  0.21829335D-04 -0.41111018D-03
  0.56762500D-20 -0.10450699D-02  0.10684008D-02 -0.12573237D-18  0.14473236D-04
 -0.82145280D-04  0.22817474D-19 -0.10358938D-03 -0.16691170D-04  0.12028055D-03
 -0.97109433D-04 -0.22784391D-19 -0.23044314D-19  0.25922352D-03 -0.27237653D-03
  0.13153011D-04  0.33943591D-03  0.88920845D-19  0.69551400D-19 -0.41707117D-03
  0.48882239D-03 -0.71751221D-04 -0.23131359D-03  0.25547694D-18  0.44564907D-21
  0.47162688D-05  0.48958537D-04 -0.19468558D-19  0.47443543D-04 -0.17233780D-03
  0.45437746D-19 -0.61592350D-04  0.25462183D-04  0.12967930D-19  0.91522069D-19
 -0.69052425D-04  0.12070507D-03  0.93794493D-20  0.20330791D-03 -0.29781432D-03
 -0.78316460D-19  0.38493673D-05 -0.64300901D-04  0.50178112D-19  0.26113069D-19
 -0.67710454D-04 -0.12622768D-03 -0.21334702D-03 -0.32073045D-03 -0.39405442D-03
 -0.33284195D-03 -0.12553574D-03  0.62128337D-06  0.52544358D-04  0.98379617D-04
  0.16749972D-03  0.25909659D-03  0.34122109D-03  0.35455057D-03  0.22530097D-03
 -0.15099147D-03 -0.34518920D-03 -0.17181676D-02  0.79935050D-03  0.14781703D-03
  0.13858786D-03  0.98682812D-04 -0.76815087D-04 -0.72019027D-04 -0.51281838D-04
  0.41241803D-20  0.38666812D-20  0.27533074D-20 -0.83790145D-03 -0.19090555D-03
 -0.89750280D-19  0.65431184D-03 -0.87901240D-03  0.46612129D-19 -0.28771366D-04
  0.28131779D-04 -0.26591141D-19 -0.39552588D-04  0.75398624D-04 -0.35846036D-04
 -0.11009497D-03 -0.79320611D-19 -0.34072636D-19 -0.73168139D-04  0.24759018D-03
 -0.17442204D-03 -0.57525082D-03  0.90996692D-19  0.18283216D-19 -0.22244399D-03
  0.16316095D-03  0.59283033D-04  0.80325160D-03  0.10347980D-18  0.21807491D-18
  0.78865981D-04  0.43518732D-04  0.25044429D-19 -0.33957339D-03 -0.12063203D-03
 -0.18080882D-19  0.10297545D-03 -0.99241641D-05 -0.57052405D-19  0.25261057D-19
 -0.24688759D-04  0.71604070D-04 -0.26538508D-20  0.19002339D-03 -0.85257920D-04
 -0.68266839D-19 -0.11595711D-03 -0.12955429D-03  0.76228392D-19  0.85608001D-19
  0.12820193D-03  0.23899754D-03  0.40394794D-03  0.60726607D-03  0.74609654D-03
  0.63019780D-03  0.23768742D-03 -0.11763283D-05 -0.92585987D-04 -0.17335018D-03
 -0.29514351D-03 -0.45654214D-03 -0.60124993D-03 -0.62473720D-03 -0.39699244D-03
  0.26605510D-03  0.32486270D-03  0.24436791D-03  0.10043774D-03  0.55708317D-04
  0.52230088D-04  0.37190934D-04 -0.71367529D-04 -0.66911595D-04 -0.47645042D-04
  0.24276407D-18  0.22760674D-18  0.16206956D-18 -0.17487583D-02  0.87237044D-03
 -0.36684919D-18  0.70634674D-03 -0.24176866D-02 -0.20191088D-19 -0.10064985D-04
  0.27058437D-04  0.36802432D-19 -0.23310541D-03  0.71190949D-04  0.16191446D-03
 -0.16178634D-03 -0.41654894D-19  0.12085048D-18  0.39712944D-03 -0.51900558D-03
  0.12187614D-03 -0.49411266D-03  0.18442579D-18 -0.11521218D-18  0.18941836D-03
 -0.35595196D-04 -0.15382316D-03  0.12690133D-02 -0.10541276D-18  0.22641412D-18
 -0.50218118D-04  0.10180380D-03 -0.41261760D-20  0.64226806D-04 -0.38153555D-03
 -0.19057981D-19  0.86427548D-04  0.76124142D-04  0.31436509D-19 -0.13343266D-18
 -0.12420580D-03 -0.25769100D-03 -0.46232852D-20  0.59399427D-03  0.72721370D-03
  0.35660979D-19 -0.22137688D-03  0.45859306D-04 -0.21791123D-19  0.25608149D-18
  0.49897989D+00  0.93003432D+00  0.15770301D+01  0.23869084D+01  0.29781648D+01
  0.25578464D+01  0.98200697D+00 -0.43925774D-02 -0.63945709D-03 -0.11993176D-02
 -0.20445736D-02 -0.31952706D-02 -0.42726856D-02 -0.45622321D-02 -0.27892592D-02
  0.18401838D-02  0.50295518D-01 -0.35363212D-03  0.22622051D-02 -0.63369822D-02
 -0.61447411D-02 -0.41452061D-02 -0.55493437D-02 -0.53809967D-02 -0.36299886D-02
 -0.49206980D-17 -0.47714219D-17 -0.32187730D-17 -0.47878213D-03  0.13506207D-02
  0.43871746D-18  0.10287444D-02  0.27062954D-02  0.10807717D-18  0.29632271D-04
 -0.12053754D-03  0.32582695D-19  0.10311859D-02  0.24621855D-02 -0.34933714D-02
 -0.29615975D-02 -0.39543321D-17 -0.32684228D-18  0.62290125D-03 -0.18627391D-02
  0.12398378D-02  0.75271955D-04 -0.63553625D-20 -0.47923867D-19  0.16329473D-03
 -0.66050928D-03  0.49721455D-03 -0.46816582D-04  0.29696861D-19 -0.20126691D-19
 -0.65854578D-03 -0.26568970D-03  0.22734397D-18  0.46879858D-03  0.12378192D-02
 -0.22188046D-18  0.15068388D-02 -0.44075010D-03 -0.46015144D-18  0.72954065D-18
  0.11347605D-03  0.55525310D-03 -0.57355050D-20  0.85430340D-04 -0.99537082D-03
  0.22482537D-19 -0.42585850D-03 -0.67038847D-03 -0.52760221D-20 -0.13211406D-18
  0.23702189D-03  0.42747874D-03  0.63031716D-03  0.34438295D-03  0.39895364D-03
  0.37809173D-04 -0.26391952D-03  0.29196101D-03 -0.11527398D-18 -0.38991774D-03
  0.34395397D-03 -0.63115974D-19  0.56183952D-05 -0.60650586D-04 -0.45951559D-19
 -0.14050287D-02  0.35303842D-03  0.10519903D-02  0.21564869D-02 -0.18048361D-18
  0.28296454D-19 -0.36354556D-05  0.11349599D-04 -0.77141434D-05  0.16125352D-03
 -0.41302853D-19  0.22102381D-19 -0.53855404D-04 -0.97130438D-04 -0.14321877D-03
  0.22132250D-03 -0.87244604D-02 -0.48653749D-04  0.36212346D-05 -0.70542168D-04
 -0.37621505D-19  0.84411919D-03 -0.59827871D-03  0.36006163D-19 -0.65132763D-03
  0.30609006D-03  0.53426342D-19  0.25140913D-03  0.56199897D-04 -0.30760903D-03
 -0.26562596D-03  0.66882127D-20 -0.13455745D-19  0.54166080D-04  0.33293533D-04
 -0.87459613D-04 -0.98167971D-04  0.73328431D-19  0.30752428D-19 -0.55127220D-05
 -0.99424211D-05 -0.14660094D-04 -0.13734826D-02  0.52499516D-02  0.31372821D-04
 -0.66490966D-04 -0.59231352D-04 -0.68395614D-19 -0.52978451D-03  0.50291525D-04
  0.12945408D-18  0.41026208D-03  0.31775714D-03  0.15733139D-19 -0.22116626D-04
  0.47849182D-04 -0.25732556D-04 -0.29930446D-04  0.58487576D-19  0.81564192D-19
 -0.42142313D-04  0.35766802D-04  0.63755107D-05  0.25384245D-04 -0.11039613D-19
  0.10111916D-18  0.15081814D-04  0.27200673D-04  0.40107377D-04  0.84960460D-03
 -0.37936330D-02 -0.65480340D-04  0.53100014D-04 -0.14849658D-04 -0.49126465D-19
 -0.17413458D-03  0.19779897D-03 -0.10164429D-19 -0.10775211D-03 -0.27311848D-03
 -0.74874211D-20 -0.97764454D-04  0.22664477D-04  0.75099977D-04 -0.24425878D-04
  0.95698369D-19  0.27214213D-19  0.99048143D-05 -0.97718388D-05 -0.13297551D-06
 -0.15542683D-04 -0.31291000D-19 -0.21082836D-19 -0.80846296D-05 -0.14580962D-04
 -0.21499621D-04 -0.47409920D-03  0.42897456D-02  0.22741877D-04  0.29388996D-04
 -0.42343322D-04 -0.91200356D-19  0.10761651D-03  0.16352672D-03  0.14171813D-18
 -0.36091953D-03  0.21284419D-03  0.31524078D-19  0.47682255D-04 -0.11635558D-04
 -0.36046697D-04 -0.48152612D-04 -0.19383667D-19  0.22078984D-18 -0.16132371D-04
  0.15326119D-04  0.80625113D-06 -0.58252140D-04 -0.29425735D-19  0.23453358D-19
 -0.57638985D-04 -0.10395428D-03 -0.15328053D-03 -0.83132644D-03 -0.62543568D-02
  0.79244810D-07 -0.24711188D-04 -0.14294032D-05  0.10529745D-18 -0.43639355D-03
 -0.41394581D-03 -0.21457960D-18  0.50321238D-03  0.46917686D-04 -0.58615718D-19
  0.26867470D-03  0.39685087D-04 -0.30835978D-03  0.19447436D-03 -0.34295930D-19
  0.76221737D-19  0.34747166D-04  0.58656587D-04 -0.93403754D-04  0.51782765D-04
  0.70756333D-19 -0.38952336D-19
MO    2     MO 0.0        OCC NO =    2.0000000  ORB. ENERGY =  -10.609958
  0.33046958D+00  0.61607043D+00  0.10412676D+01  0.15653662D+01  0.19232333D+01
  0.16244779D+01  0.61269331D+00 -0.30322534D-02 -0.32507919D-02 -0.60865081D-02
 -0.10362801D-01 -0.16029677D-01 -0.21110521D-01 -0.21935183D-01 -0.13938824D-01
  0.93414759D-02  0.35605538D-01 -0.28516050D-02 -0.26466342D-02 -0.18680168D-03
 -0.17513844D-03 -0.12470901D-03  0.28157256D-02  0.26399217D-02  0.18797815D-02
 -0.21352002D-17 -0.20018859D-17 -0.14254620D-17  0.58396492D-03 -0.21488302D-02
  0.30368434D-18 -0.11395238D-02 -0.56854690D-02  0.14527325D-17  0.15222199D-03
 -0.36287207D-04  0.76167242D-19  0.89050348D-03  0.26406181D-02 -0.35311216D-02
 -0.25308015D-04  0.27258491D-17  0.20209944D-17  0.85943800D-03 -0.26321132D-02
  0.17726752D-02 -0.18566979D-03  0.61575051D-18 -0.70231657D-19 -0.38552187D-03