 Molden2AIM, Version 4.0.0 (06/02/2016)           Time: Sun Jul  1 18:54:37 2018
GAUSSIAN             21 MOL ORBITALS    558 PRIMITIVES       10 NUCLEI
  H    1    (CENTRE  1)   0.00000000  4.55007689 -0.29307196  CHARGE =  1.0
  H    2    (CENTRE  2)   0.00000000 -4.55007689 -0.29307196  CHARGE =  1.0
  H    3    (CENTRE  3)   0.00000000  2.40741282  3.97138795  CHARGE =  1.0
  H    4    (CENTRE  4)   0.00000000 -2.40741282  3.97138795  CHARGE =  1.0
  C    5    (CENTRE  5)   0.00000000  2.49439502 -0.12568946  CHARGE =  6.0
  C    6    (CENTRE  6)   0.00000000 -2.49439502 -0.12568946  CHARGE =  6.0
  C    7    (CENTRE  7)   0.00000000  1.30637523  2.23048154  CHARGE =  6.0
  C    8    (CENTRE  8)   0.00000000 -1.30637523  2.23048154  CHARGE =  6.0
  N    9    (CENTRE  9)   0.00000000  1.25097413 -2.31686470  CHARGE =  7.0
  N   10    (CENTRE 10)   0.00000000 -1.25097413 -2.31686470  CHARGE =  7.0
CENTRE ASSIGNMENTS    1  1  1  1  1  1  1  1  1  1  1  1  1  1  1  1  1  1  1  1
CENTRE ASSIGNMENTS    1  1  1  1  1  1  1  2  2  2  2  2  2  2  2  2  2  2  2  2
CENTRE ASSIGNMENTS    2  2  2  2  2  2  2  2  2  2  2  2  2  2  3  3  3  3  3  3
CENTRE ASSIGNMENTS    3  3  3  3  3  3  3  3  3  3  3  3  3  3  3  3  3  3  3  3
CENTRE ASSIGNMENTS    3  4  4  4  4  4  4  4  4  4  4  4  4  4  4  4  4  4  4  4
CENTRE ASSIGNMENTS    4  4  4  4  4  4  4  4  5  5  5  5  5  5  5  5  5  5  5  5
CENTRE ASSIGNMENTS    5  5  5  5  5  5  5  5  5  5  5  5  5  5  5  5  5  5  5  5
CENTRE ASSIGNMENTS    5  5  5  5  5  5  5  5  5  5  5  5  5  5  5  5  5  5  5  5
CENTRE ASSIGNMENTS    5  5  5  5  5  5  5  5  5  5  5  5  5  5  5  5  5  5  5  5
CENTRE ASSIGNMENTS    5  5  5  6  6  6  6  6  6  6  6  6  6  6  6  6  6  6  6  6
CENTRE ASSIGNMENTS    6  6  6  6  6  6  6  6  6  6  6  6  6  6  6  6  6  6  6  6
CENTRE ASSIGNMENTS    6  6  6  6  6  6  6  6  6  6  6  6  6  6  6  6  6  6  6  6
CENTRE ASSIGNMENTS    6  6  6  6  6  6  6  6  6  6  6  6  6  6  6  6  6  6  7  7
CENTRE ASSIGNMENTS    7  7  7  7  7  7  7  7  7  7  7  7  7  7  7  7  7  7  7  7
CENTRE ASSIGNMENTS    7  7  7  7  7  7  7  7  7  7  7  7  7  7  7  7  7  7  7  7
CENTRE ASSIGNMENTS    7  7  7  7  7  7  7  7  7  7  7  7  7  7  7  7  7  7  7  7
CENTRE ASSIGNMENTS    7  7  7  7  7  7  7  7  7  7  7  7  7  8  8  8  8  8  8  8
CENTRE ASSIGNMENTS    8  8  8  8  8  8  8  8  8  8  8  8  8  8  8  8  8  8  8  8
CENTRE ASSIGNMENTS    8  8  8  8  8  8  8  8  8  8  8  8  8  8  8  8  8  8  8  8
CENTRE ASSIGNMENTS    8  8  8  8  8  8  8  8  8  8  8  8  8  8  8  8  8  8  8  8
CENTRE ASSIGNMENTS    8  8  8  8  8  8  8  8  9  9  9  9  9  9  9  9  9  9  9  9
CENTRE ASSIGNMENTS    9  9  9  9  9  9  9  9  9  9  9  9  9  9  9  9  9  9  9  9
CENTRE ASSIGNMENTS    9  9  9  9  9  9  9  9  9  9  9  9  9  9  9  9  9  9  9  9
CENTRE ASSIGNMENTS    9  9  9  9  9  9  9  9  9  9  9  9  9  9  9  9  9  9  9  9
CENTRE ASSIGNMENTS    9  9  9 10 10 10 10 10 10 10 10 10 10 10 10 10 10 10 10 10
CENTRE ASSIGNMENTS   10 10 10 10 10 10 10 10 10 10 10 10 10 10 10 10 10 10 10 10
CENTRE ASSIGNMENTS   10 10 10 10 10 10 10 10 10 10 10 10 10 10 10 10 10 10 10 10
CENTRE ASSIGNMENTS   10 10 10 10 10 10 10 10 10 10 10 10 10 10 10 10 10 10
TYPE ASSIGNMENTS      1  1  1  1  1  1  2  3  4  2  3  4  2  3  4  5  6  7  8  9
TYPE ASSIGNMENTS     10  5  6  7  8  9 10  1  1  1  1  1  1  2  3  4  2  3  4  2
TYPE ASSIGNMENTS      3  4  5  6  7  8  9 10  5  6  7  8  9 10  1  1  1  1  1  1
TYPE ASSIGNMENTS      2  3  4  2  3  4  2  3  4  5  6  7  8  9 10  5  6  7  8  9
TYPE ASSIGNMENTS     10  1  1  1  1  1  1  2  3  4  2  3  4  2  3  4  5  6  7  8
TYPE ASSIGNMENTS      9 10  5  6  7  8  9 10  1  1  1  1  1  1  1  1  1  1  1  1
TYPE ASSIGNMENTS      1  1  1  1  1  1  1  2  2  2  3  3  3  4  4  4  2  3  4  2
TYPE ASSIGNMENTS      3  4  2  3  4  5  6  7  8  9 10  5  6  7  8  9 10  5  6  7
TYPE ASSIGNMENTS      8  9 10 11 12 13 17 14 15 18 19 16 20 11 12 13 17 14 15 18
TYPE ASSIGNMENTS     19 16 20  1  1  1  1  1  1  1  1  1  1  1  1  1  1  1  1  1
TYPE ASSIGNMENTS      1  1  2  2  2  3  3  3  4  4  4  2  3  4  2  3  4  2  3  4
TYPE ASSIGNMENTS      5  6  7  8  9 10  5  6  7  8  9 10  5  6  7  8  9 10 11 12
TYPE ASSIGNMENTS     13 17 14 15 18 19 16 20 11 12 13 17 14 15 18 19 16 20  1  1
TYPE ASSIGNMENTS      1  1  1  1  1  1  1  1  1  1  1  1  1  1  1  1  1  2  2  2
TYPE ASSIGNMENTS      3  3  3  4  4  4  2  3  4  2  3  4  2  3  4  5  6  7  8  9
TYPE ASSIGNMENTS     10  5  6  7  8  9 10  5  6  7  8  9 10 11 12 13 17 14 15 18
TYPE ASSIGNMENTS     19 16 20 11 12 13 17 14 15 18 19 16 20  1  1  1  1  1  1  1
TYPE ASSIGNMENTS      1  1  1  1  1  1  1  1  1  1  1  1  2  2  2  3  3  3  4  4
TYPE ASSIGNMENTS      4  2  3  4  2  3  4  2  3  4  5  6  7  8  9 10  5  6  7  8
TYPE ASSIGNMENTS      9 10  5  6  7  8  9 10 11 12 13 17 14 15 18 19 16 20 11 12
TYPE ASSIGNMENTS     13 17 14 15 18 19 16 20  1  1  1  1  1  1  1  1  1  1  1  1
TYPE ASSIGNMENTS      1  1  1  1  1  1  1  2  2  2  3  3  3  4  4  4  2  3  4  2
TYPE ASSIGNMENTS      3  4  2  3  4  5  6  7  8  9 10  5  6  7  8  9 10  5  6  7
TYPE ASSIGNMENTS      8  9 10 11 12 13 17 14 15 18 19 16 20 11 12 13 17 14 15 18
TYPE ASSIGNMENTS     19 16 20  1  1  1  1  1  1  1  1  1  1  1  1  1  1  1  1  1
TYPE ASSIGNMENTS      1  1  2  2  2  3  3  3  4  4  4  2  3  4  2  3  4  2  3  4
TYPE ASSIGNMENTS      5  6  7  8  9 10  5  6  7  8  9 10  5  6  7  8  9 10 11 12
TYPE ASSIGNMENTS     13 17 14 15 18 19 16 20 11 12 13 17 14 15 18 19 16 20
EXPONENTS  0.3387000D+02 0.5095000D+01 0.1159000D+01 0.3258000D+00 0.1027000D+00
EXPONENTS  0.2526000D-01 0.1407000D+01 0.1407000D+01 0.1407000D+01 0.3880000D+00
EXPONENTS  0.3880000D+00 0.3880000D+00 0.1020000D+00 0.1020000D+00 0.1020000D+00
EXPONENTS  0.1057000D+01 0.1057000D+01 0.1057000D+01 0.1057000D+01 0.1057000D+01
EXPONENTS  0.1057000D+01 0.2470000D+00 0.2470000D+00 0.2470000D+00 0.2470000D+00
EXPONENTS  0.2470000D+00 0.2470000D+00 0.3387000D+02 0.5095000D+01 0.1159000D+01
EXPONENTS  0.3258000D+00 0.1027000D+00 0.2526000D-01 0.1407000D+01 0.1407000D+01
EXPONENTS  0.1407000D+01 0.3880000D+00 0.3880000D+00 0.3880000D+00 0.1020000D+00
EXPONENTS  0.1020000D+00 0.1020000D+00 0.1057000D+01 0.1057000D+01 0.1057000D+01
EXPONENTS  0.1057000D+01 0.1057000D+01 0.1057000D+01 0.2470000D+00 0.2470000D+00
EXPONENTS  0.2470000D+00 0.2470000D+00 0.2470000D+00 0.2470000D+00 0.3387000D+02
EXPONENTS  0.5095000D+01 0.1159000D+01 0.3258000D+00 0.1027000D+00 0.2526000D-01
EXPONENTS  0.1407000D+01 0.1407000D+01 0.1407000D+01 0.3880000D+00 0.3880000D+00
EXPONENTS  0.3880000D+00 0.1020000D+00 0.1020000D+00 0.1020000D+00 0.1057000D+01
EXPONENTS  0.1057000D+01 0.1057000D+01 0.1057000D+01 0.1057000D+01 0.1057000D+01
EXPONENTS  0.2470000D+00 0.2470000D+00 0.2470000D+00 0.2470000D+00 0.2470000D+00
EXPONENTS  0.2470000D+00 0.3387000D+02 0.5095000D+01 0.1159000D+01 0.3258000D+00
EXPONENTS  0.1027000D+00 0.2526000D-01 0.1407000D+01 0.1407000D+01 0.1407000D+01
EXPONENTS  0.3880000D+00 0.3880000D+00 0.3880000D+00 0.1020000D+00 0.1020000D+00
EXPONENTS  0.1020000D+00 0.1057000D+01 0.1057000D+01 0.1057000D+01 0.1057000D+01
EXPONENTS  0.1057000D+01 0.1057000D+01 0.2470000D+00 0.2470000D+00 0.2470000D+00
EXPONENTS  0.2470000D+00 0.2470000D+00 0.2470000D+00 0.8236000D+04 0.1235000D+04
EXPONENTS  0.2808000D+03 0.7927000D+02 0.2559000D+02 0.8997000D+01 0.3319000D+01
EXPONENTS  0.3643000D+00 0.8236000D+04 0.1235000D+04 0.2808000D+03 0.7927000D+02
EXPONENTS  0.2559000D+02 0.8997000D+01 0.3319000D+01 0.3643000D+00 0.9059000D+00
EXPONENTS  0.1285000D+00 0.4402000D-01 0.1871000D+02 0.4133000D+01 0.1200000D+01
EXPONENTS  0.1871000D+02 0.4133000D+01 0.1200000D+01 0.1871000D+02 0.4133000D+01
EXPONENTS  0.1200000D+01 0.3827000D+00 0.3827000D+00 0.3827000D+00 0.1209000D+00
EXPONENTS  0.1209000D+00 0.1209000D+00 0.3569000D-01 0.3569000D-01 0.3569000D-01
EXPONENTS  0.1097000D+01 0.1097000D+01 0.1097000D+01 0.1097000D+01 0.1097000D+01
EXPONENTS  0.1097000D+01 0.3180000D+00 0.3180000D+00 0.3180000D+00 0.3180000D+00
EXPONENTS  0.3180000D+00 0.3180000D+00 0.1000000D+00 0.1000000D+00 0.1000000D+00
EXPONENTS  0.1000000D+00 0.1000000D+00 0.1000000D+00 0.7610000D+00 0.7610000D+00
EXPONENTS  0.7610000D+00 0.7610000D+00 0.7610000D+00 0.7610000D+00 0.7610000D+00
EXPONENTS  0.7610000D+00 0.7610000D+00 0.7610000D+00 0.2680000D+00 0.2680000D+00
EXPONENTS  0.2680000D+00 0.2680000D+00 0.2680000D+00 0.2680000D+00 0.2680000D+00
EXPONENTS  0.2680000D+00 0.2680000D+00 0.2680000D+00 0.8236000D+04 0.1235000D+04
EXPONENTS  0.2808000D+03 0.7927000D+02 0.2559000D+02 0.8997000D+01 0.3319000D+01
EXPONENTS  0.3643000D+00 0.8236000D+04 0.1235000D+04 0.2808000D+03 0.7927000D+02
EXPONENTS  0.2559000D+02 0.8997000D+01 0.3319000D+01 0.3643000D+00 0.9059000D+00
EXPONENTS  0.1285000D+00 0.4402000D-01 0.1871000D+02 0.4133000D+01 0.1200000D+01
EXPONENTS  0.1871000D+02 0.4133000D+01 0.1200000D+01 0.1871000D+02 0.4133000D+01
EXPONENTS  0.1200000D+01 0.3827000D+00 0.3827000D+00 0.3827000D+00 0.1209000D+00
EXPONENTS  0.1209000D+00 0.1209000D+00 0.3569000D-01 0.3569000D-01 0.3569000D-01
EXPONENTS  0.1097000D+01 0.1097000D+01 0.1097000D+01 0.1097000D+01 0.1097000D+01
EXPONENTS  0.1097000D+01 0.3180000D+00 0.3180000D+00 0.3180000D+00 0.3180000D+00
EXPONENTS  0.3180000D+00 0.3180000D+00 0.1000000D+00 0.1000000D+00 0.1000000D+00
EXPONENTS  0.1000000D+00 0.1000000D+00 0.1000000D+00 0.7610000D+00 0.7610000D+00
EXPONENTS  0.7610000D+00 0.7610000D+00 0.7610000D+00 0.7610000D+00 0.7610000D+00
EXPONENTS  0.7610000D+00 0.7610000D+00 0.7610000D+00 0.2680000D+00 0.2680000D+00
EXPONENTS  0.2680000D+00 0.2680000D+00 0.2680000D+00 0.2680000D+00 0.2680000D+00
EXPONENTS  0.2680000D+00 0.2680000D+00 0.2680000D+00 0.8236000D+04 0.1235000D+04
EXPONENTS  0.2808000D+03 0.7927000D+02 0.2559000D+02 0.8997000D+01 0.3319000D+01
EXPONENTS  0.3643000D+00 0.8236000D+04 0.1235000D+04 0.2808000D+03 0.7927000D+02
EXPONENTS  0.2559000D+02 0.8997000D+01 0.3319000D+01 0.3643000D+00 0.9059000D+00
EXPONENTS  0.1285000D+00 0.4402000D-01 0.1871000D+02 0.4133000D+01 0.1200000D+01
EXPONENTS  0.1871000D+02 0.4133000D+01 0.1200000D+01 0.1871000D+02 0.4133000D+01
EXPONENTS  0.1200000D+01 0.3827000D+00 0.3827000D+00 0.3827000D+00 0.1209000D+00
EXPONENTS  0.1209000D+00 0.1209000D+00 0.3569000D-01 0.3569000D-01 0.3569000D-01
EXPONENTS  0.1097000D+01 0.1097000D+01 0.1097000D+01 0.1097000D+01 0.1097000D+01
EXPONENTS  0.1097000D+01 0.3180000D+00 0.3180000D+00 0.3180000D+00 0.3180000D+00
EXPONENTS  0.3180000D+00 0.3180000D+00 0.1000000D+00 0.1000000D+00 0.1000000D+00
EXPONENTS  0.1000000D+00 0.1000000D+00 0.1000000D+00 0.7610000D+00 0.7610000D+00
EXPONENTS  0.7610000D+00 0.7610000D+00 0.7610000D+00 0.7610000D+00 0.7610000D+00
EXPONENTS  0.7610000D+00 0.7610000D+00 0.7610000D+00 0.2680000D+00 0.2680000D+00
EXPONENTS  0.2680000D+00 0.2680000D+00 0.2680000D+00 0.2680000D+00 0.2680000D+00
EXPONENTS  0.2680000D+00 0.2680000D+00 0.2680000D+00 0.8236000D+04 0.1235000D+04
EXPONENTS  0.2808000D+03 0.7927000D+02 0.2559000D+02 0.8997000D+01 0.3319000D+01
EXPONENTS  0.3643000D+00 0.8236000D+04 0.1235000D+04 0.2808000D+03 0.7927000D+02
EXPONENTS  0.2559000D+02 0.8997000D+01 0.3319000D+01 0.3643000D+00 0.9059000D+00
EXPONENTS  0.1285000D+00 0.4402000D-01 0.1871000D+02 0.4133000D+01 0.1200000D+01
EXPONENTS  0.1871000D+02 0.4133000D+01 0.1200000D+01 0.1871000D+02 0.4133000D+01
EXPONENTS  0.1200000D+01 0.3827000D+00 0.3827000D+00 0.3827000D+00 0.1209000D+00
EXPONENTS  0.1209000D+00 0.1209000D+00 0.3569000D-01 0.3569000D-01 0.3569000D-01
EXPONENTS  0.1097000D+01 0.1097000D+01 0.1097000D+01 0.1097000D+01 0.1097000D+01
EXPONENTS  0.1097000D+01 0.3180000D+00 0.3180000D+00 0.3180000D+00 0.3180000D+00
EXPONENTS  0.3180000D+00 0.3180000D+00 0.1000000D+00 0.1000000D+00 0.1000000D+00
EXPONENTS  0.1000000D+00 0.1000000D+00 0.1000000D+00 0.7610000D+00 0.7610000D+00
EXPONENTS  0.7610000D+00 0.7610000D+00 0.7610000D+00 0.7610000D+00 0.7610000D+00
EXPONENTS  0.7610000D+00 0.7610000D+00 0.7610000D+00 0.2680000D+00 0.2680000D+00
EXPONENTS  0.2680000D+00 0.2680000D+00 0.2680000D+00 0.2680000D+00 0.2680000D+00
EXPONENTS  0.2680000D+00 0.2680000D+00 0.2680000D+00 0.1142000D+05 0.1712000D+04
EXPONENTS  0.3893000D+03 0.1100000D+03 0.3557000D+02 0.1254000D+02 0.4644000D+01
EXPONENTS  0.5118000D+00 0.1142000D+05 0.1712000D+04 0.3893000D+03 0.1100000D+03
EXPONENTS  0.3557000D+02 0.1254000D+02 0.4644000D+01 0.5118000D+00 0.1293000D+01
EXPONENTS  0.1787000D+00 0.5760000D-01 0.2663000D+02 0.5948000D+01 0.1742000D+01
EXPONENTS  0.2663000D+02 0.5948000D+01 0.1742000D+01 0.2663000D+02 0.5948000D+01
EXPONENTS  0.1742000D+01 0.5550000D+00 0.5550000D+00 0.5550000D+00 0.1725000D+00
EXPONENTS  0.1725000D+00 0.1725000D+00 0.4910000D-01 0.4910000D-01 0.4910000D-01
EXPONENTS  0.1654000D+01 0.1654000D+01 0.1654000D+01 0.1654000D+01 0.1654000D+01
EXPONENTS  0.1654000D+01 0.4690000D+00 0.4690000D+00 0.4690000D+00 0.4690000D+00
EXPONENTS  0.4690000D+00 0.4690000D+00 0.1510000D+00 0.1510000D+00 0.1510000D+00
EXPONENTS  0.1510000D+00 0.1510000D+00 0.1510000D+00 0.1093000D+01 0.1093000D+01
EXPONENTS  0.1093000D+01 0.1093000D+01 0.1093000D+01 0.1093000D+01 0.1093000D+01
EXPONENTS  0.1093000D+01 0.1093000D+01 0.1093000D+01 0.3640000D+00 0.3640000D+00
EXPONENTS  0.3640000D+00 0.3640000D+00 0.3640000D+00 0.3640000D+00 0.3640000D+00
EXPONENTS  0.3640000D+00 0.3640000D+00 0.3640000D+00 0.1142000D+05 0.1712000D+04
EXPONENTS  0.3893000D+03 0.1100000D+03 0.3557000D+02 0.1254000D+02 0.4644000D+01
EXPONENTS  0.5118000D+00 0.1142000D+05 0.1712000D+04 0.3893000D+03 0.1100000D+03
EXPONENTS  0.3557000D+02 0.1254000D+02 0.4644000D+01 0.5118000D+00 0.1293000D+01
EXPONENTS  0.1787000D+00 0.5760000D-01 0.2663000D+02 0.5948000D+01 0.1742000D+01
EXPONENTS  0.2663000D+02 0.5948000D+01 0.1742000D+01 0.2663000D+02 0.5948000D+01
EXPONENTS  0.1742000D+01 0.5550000D+00 0.5550000D+00 0.5550000D+00 0.1725000D+00
EXPONENTS  0.1725000D+00 0.1725000D+00 0.4910000D-01 0.4910000D-01 0.4910000D-01
EXPONENTS  0.1654000D+01 0.1654000D+01 0.1654000D+01 0.1654000D+01 0.1654000D+01
EXPONENTS  0.1654000D+01 0.4690000D+00 0.4690000D+00 0.4690000D+00 0.4690000D+00
EXPONENTS  0.4690000D+00 0.4690000D+00 0.1510000D+00 0.1510000D+00 0.1510000D+00
EXPONENTS  0.1510000D+00 0.1510000D+00 0.1510000D+00 0.1093000D+01 0.1093000D+01
EXPONENTS  0.1093000D+01 0.1093000D+01 0.1093000D+01 0.1093000D+01 0.1093000D+01
EXPONENTS  0.1093000D+01 0.1093000D+01 0.1093000D+01 0.3640000D+00 0.3640000D+00
EXPONENTS  0.3640000D+00 0.3640000D+00 0.3640000D+00 0.3640000D+00 0.3640000D+00
EXPONENTS  0.3640000D+00 0.3640000D+00 0.3640000D+00
MO    1     MO 0.0        OCC NO =    2.0000000  ORB. ENERGY =  -14.792364
  0.72179493D-04  0.13017869D-03  0.19194840D-03  0.89025563D-03  0.14877175D-02
 -0.23356736D-04 -0.76272676D-17 -0.35341814D-03  0.60253002D-04 -0.43572788D-16
  0.98424426D-03 -0.36528166D-03  0.59259474D-17 -0.19981623D-03  0.20804115D-03
  0.38460736D-03 -0.36980183D-03 -0.14805533D-04  0.35094382D-16 -0.14969947D-15
 -0.20291329D-05  0.10997807D-03 -0.14765817D-03  0.37680099D-04  0.17637137D-17
 -0.53877778D-17 -0.30057252D-04  0.72179493D-04  0.13017869D-03  0.19194840D-03
  0.89025563D-03  0.14877175D-02 -0.23356736D-04 -0.58943714D-18  0.35341814D-03
  0.60253002D-04  0.13075196D-17 -0.98424426D-03 -0.36528166D-03  0.10466405D-17
  0.19981623D-03  0.20804115D-03  0.38460736D-03 -0.36980183D-03 -0.14805533D-04
 -0.82747494D-18 -0.66561387D-18  0.20291329D-05  0.10997807D-03 -0.14765817D-03
  0.37680099D-04  0.81537122D-18 -0.32636549D-18  0.30057252D-04 -0.13407790D-04
 -0.24181501D-04 -0.35655609D-04  0.40988112D-03 -0.68023315D-03  0.29195830D-04
 -0.21375973D-17 -0.52872375D-04  0.91814858D-04 -0.16939153D-17  0.17176836D-03
 -0.13299142D-02  0.14169345D-17 -0.25412040D-04  0.99173317D-04 -0.20504478D-03
 -0.17167260D-03  0.37671738D-03  0.29482163D-17  0.82884331D-19 -0.38282545D-04
 -0.53592660D-04 -0.52998863D-04  0.10659152D-03 -0.50462449D-18  0.25658586D-18
  0.12790158D-03 -0.13407790D-04 -0.24181501D-04 -0.35655609D-04  0.40988112D-03
 -0.68023315D-03  0.29195830D-04 -0.70763257D-18  0.52872375D-04  0.91814858D-04
 -0.13764916D-18 -0.17176836D-03 -0.13299142D-02 -0.10269378D-18  0.25412040D-04
  0.99173317D-04 -0.20504478D-03 -0.17167260D-03  0.37671738D-03  0.26250796D-18
  0.81845615D-18  0.38282545D-04 -0.53592660D-04 -0.52998863D-04  0.10659152D-03
 -0.29240446D-18 -0.56178258D-18 -0.12790158D-03  0.40026861D-03  0.74619169D-03
  0.12611954D-02  0.18959898D-02  0.23294426D-02  0.19675866D-02  0.74210129D-03
 -0.36727007D-05 -0.30880073D-03 -0.57817240D-03 -0.98438798D-03 -0.15226985D-02
 -0.20053404D-02 -0.20836771D-02 -0.13240833D-02  0.88736982D-03  0.10004459D-02
 -0.19871861D-02 -0.12185177D-02 -0.20083414D-17 -0.18829477D-17 -0.13407710D-17
 -0.55023717D-03 -0.51588232D-03 -0.36733895D-03 -0.27746391D-03 -0.26014006D-03
 -0.18523522D-03  0.72627873D-17  0.76065938D-03 -0.30403798D-02 -0.23734121D-17
 -0.17069917D-02  0.56947113D-03  0.76303002D-19  0.31185102D-04 -0.70907129D-04
 -0.37542066D-03 -0.94597918D-04  0.47001858D-03 -0.18941079D-17 -0.20071914D-17
  0.11343245D-02  0.39170643D-03  0.52653953D-03 -0.91824596D-03  0.25539794D-17
  0.37505094D-17 -0.91212674D-04  0.47618643D-04  0.59801635D-04 -0.10742028D-03
  0.29982267D-18  0.67929403D-19 -0.45106866D-03 -0.45210181D-17 -0.18356552D-04
 -0.24368701D-03  0.12349417D-16 -0.59642561D-03 -0.29046315D-04  0.12136370D-17
  0.65149526D-03  0.76010736D-03 -0.21715947D-17  0.23428399D-18 -0.28360880D-03
 -0.46042632D-04 -0.16717329D-17  0.16094517D-03 -0.27948989D-03  0.96888095D-18
  0.68988123D-03  0.41761778D-03 -0.17139776D-17  0.40026861D-03  0.74619169D-03
  0.12611954D-02  0.18959898D-02  0.23294426D-02  0.19675866D-02  0.74210129D-03
 -0.36727007D-05 -0.30880073D-03 -0.57817240D-03 -0.98438798D-03 -0.15226985D-02
 -0.20053404D-02 -0.20836771D-02 -0.13240833D-02  0.88736982D-03  0.10004459D-02
 -0.19871861D-02 -0.12185177D-02 -0.81801496D-18 -0.76694102D-18 -0.54610770D-18
  0.55023717D-03  0.51588232D-03  0.36733895D-03 -0.27746391D-03 -0.26014006D-03
 -0.18523522D-03 -0.13854506D-18 -0.76065938D-03 -0.30403798D-02  0.75824428D-18
  0.17069917D-02  0.56947113D-03 -0.21744061D-18 -0.31185102D-04 -0.70907129D-04
 -0.37542066D-03 -0.94597918D-04  0.47001858D-03  0.20432464D-18 -0.76125248D-18
 -0.11343245D-02  0.39170643D-03  0.52653953D-03 -0.91824596D-03  0.13258610D-18
 -0.10039696D-18  0.91212673D-04  0.47618643D-04  0.59801635D-04 -0.10742028D-03
  0.41383514D-18  0.28868479D-18  0.45106866D-03  0.33594990D-18  0.18356552D-04
 -0.24368701D-03 -0.12795424D-18  0.59642561D-03 -0.29046314D-04 -0.87989546D-18
 -0.65149526D-03  0.76010736D-03  0.27609518D-18 -0.86637823D-19  0.28360880D-03
 -0.46042632D-04 -0.52728199D-18 -0.16094517D-03 -0.27948989D-03  0.78719546D-18
 -0.68988123D-03  0.41761778D-03 -0.14524637D-17 -0.82314626D-04 -0.15345318D-03
 -0.25936290D-03 -0.38990740D-03 -0.47904629D-03 -0.40463117D-03 -0.15261199D-03
  0.75528526D-06  0.65254849D-04  0.12217767D-03  0.20801793D-03  0.32177211D-03
  0.42376255D-03  0.44031643D-03  0.27980132D-03 -0.18751634D-03 -0.46338340D-03
 -0.12808063D-02  0.12109811D-02 -0.25348853D-17 -0.23766161D-17 -0.16922923D-17
 -0.51762395D-04 -0.48530535D-04 -0.34556632D-04  0.34291285D-03  0.32150259D-03
  0.22892900D-03 -0.55362584D-18  0.98098160D-03 -0.22106734D-02  0.15440258D-17
  0.60589773D-03  0.85554432D-03 -0.21195414D-18  0.34950249D-04 -0.52248799D-04
 -0.13971888D-03 -0.19609723D-03  0.33581612D-03  0.31379060D-17 -0.48309953D-18
 -0.32528624D-04 -0.99482450D-04  0.78857268D-04  0.20625182D-04 -0.40371869D-17
  0.41159527D-17 -0.19570376D-02 -0.89904359D-04  0.23554698D-03 -0.14564262D-03
 -0.65710868D-18 -0.10719797D-17 -0.14205738D-03 -0.12212420D-19 -0.58538766D-04
  0.97275632D-04 -0.10709967D-17  0.17115941D-04  0.18645818D-03  0.11076340D-17
  0.15850036D-03 -0.47828508D-03  0.48803328D-17 -0.23403580D-18 -0.22408661D-03
  0.13812058D-03  0.11768206D-17  0.94256929D-04 -0.13448459D-03 -0.47471318D-18
  0.57800289D-03 -0.27987715D-03  0.14158909D-17 -0.82314626D-04 -0.15345318D-03
 -0.25936290D-03 -0.38990740D-03 -0.47904629D-03 -0.40463117D-03 -0.15261199D-03
  0.75528526D-06  0.65254849D-04  0.12217767D-03  0.20801793D-03  0.32177211D-03
  0.42376255D-03  0.44031643D-03  0.27980132D-03 -0.18751634D-03 -0.46338340D-03
 -0.12808063D-02  0.12109811D-02  0.10596811D-17  0.99351843D-18  0.70744431D-18
  0.51762395D-04  0.48530535D-04  0.34556632D-04  0.34291285D-03  0.32150259D-03
  0.22892900D-03 -0.21716943D-17 -0.98098160D-03 -0.22106734D-02 -0.34794081D-17
 -0.60589773D-03  0.85554432D-03  0.22173583D-18 -0.34950249D-04 -0.52248798D-04
 -0.13971888D-03 -0.19609723D-03  0.33581612D-03 -0.14013359D-17 -0.74266112D-18
  0.32528624D-04 -0.99482450D-04  0.78857268D-04  0.20625182D-04 -0.20455309D-17
 -0.34733709D-18  0.19570376D-02 -0.89904359D-04  0.23554698D-03 -0.14564262D-03
  0.88755514D-19  0.65422264D-18  0.14205738D-03 -0.13362379D-18  0.58538766D-04
  0.97275632D-04 -0.18693917D-18 -0.17115941D-04  0.18645818D-03  0.58781055D-18
 -0.15850036D-03 -0.47828508D-03  0.66313615D-18  0.92147569D-19  0.22408661D-03
  0.13812058D-03 -0.95708093D-18 -0.94256929D-04 -0.13448459D-03  0.68063823D-18
 -0.57800289D-03 -0.27987715D-03 -0.80416676D-18  0.29190319D+00  0.54391861D+00
  0.91990273D+00  0.13853225D+01  0.17151192D+01  0.14594890D+01  0.55536249D+00
 -0.26009995D-02 -0.10046162D-02 -0.18836647D-02 -0.32046741D-02 -0.49765206D-02
 -0.66041322D-02 -0.69598488D-02 -0.43155503D-02  0.28707057D-02  0.29033123D-01
  0.17555649D-02  0.82651449D-04  0.23320282D-17  0.22398853D-17  0.15707622D-17
 -0.37357293D-02 -0.35881233D-02 -0.25162398D-02  0.50148651D-02  0.48167179D-02
  0.33778151D-02 -0.13545178D-17 -0.11665465D-02  0.10653104D-03  0.32129968D-18
  0.72317808D-03 -0.56495116D-03 -0.18664180D-18 -0.39940570D-04  0.17842602D-04
 -0.21424492D-02  0.28808748D-02 -0.73842553D-03 -0.22321087D-19 -0.63428707D-17
  0.24541167D-02  0.90119330D-03 -0.91433223D-03  0.13138934D-04  0.25212377D-17
  0.25659336D-17 -0.89387208D-03  0.18113718D-03 -0.19766192D-03  0.16524740D-04
  0.59196483D-18  0.56609969D-18 -0.15378871D-03  0.98497342D-18  0.20334267D-03
  0.68714092D-04 -0.48141191D-18 -0.26891067D-03  0.24128223D-03 -0.24735084D-17
 -0.34111734D-03 -0.44742451D-03 -0.90671896D-18  0.21246573D-18  0.36378103D-03
 -0.17154614D-04 -0.15412267D-17 -0.36547121D-03  0.20191718D-03  0.90382953D-18
 -0.72587188D-03 -0.15045334D-03  0.19579981D-19  0.29190319D+00  0.54391861D+00
  0.91990273D+00  0.13853225D+01  0.17151192D+01  0.14594890D+01  0.55536249D+00
 -0.26009995D-02 -0.10046162D-02 -0.18836647D-02 -0.32046741D-02 -0.49765206D-02
 -0.66041322D-02 -0.69598488D-02 -0.43155503D-02  0.28707057D-02  0.29033123D-01
  0.17555649D-02  0.82651448D-04  0.59117685D-17  0.56781830D-17  0.39819339D-17
  0.37357293D-02  0.35881233D-02  0.25162398D-02  0.50148651D-02  0.48167179D-02
  0.33778151D-02 -0.11205649D-18  0.11665465D-02  0.10653104D-03  0.96087892D-18
 -0.72317808D-03 -0.56495116D-03  0.34397592D-18  0.39940570D-04  0.17842602D-04
 -0.21424492D-02  0.28808748D-02 -0.73842553D-03  0.11751271D-17  0.16721372D-17
 -0.24541167D-02  0.90119330D-03 -0.91433223D-03  0.13138934D-04  0.40506713D-17
 -0.80133348D-18  0.89387208D-03  0.18113718D-03 -0.19766192D-03  0.16524740D-04
  0.69239720D-18  0.75294286D-20  0.15378871D-03  0.52556635D-18 -0.20334267D-03
  0.68714092D-04 -0.12057510D-17  0.26891067D-03  0.24128223D-03 -0.37094809D-18
  0.34111734D-03 -0.44742451D-03 -0.20883022D-17 -0.41052132D-18 -0.36378103D-03
 -0.17154614D-04  0.11987429D-17  0.36547121D-03  0.20191718D-03  0.32821046D-19
  0.72587188D-03 -0.15045334D-03  0.23690000D-18
MO    2     MO 0.0        OCC NO =    2.0000000  ORB. ENERGY =  -14.791840
  0.83797032D-04  0.15113140D-03  0.22284316D-03  0.20362201D-03 -0.11560153D-02
 -0.63101165D-05 -0.23970641D-16 -0.22688510D-03  0.26687144D-03  0.30334869D-16
  0.13270138D-02  0.25251088D-03 -0.11267192D-16  0.26273020D-04  0.23461052D-03
  0.38502118D-03 -0.27447990D-03 -0.11054128D-03  0.87371040D-16 -0.36192714D-16
 -0.10014831D-02  0.14569106D-03 -0.10339522D-03 -0.42295842D-04 -0.15255977D-16
 -0.84571804D-18 -0.10788772D-03 -0.83797032D-04 -0.15113140D-03 -0.22284316D-03
 -0.20362201D-03  0.11560153D-02  0.63101165D-05 -0.18209019D-17 -0.22688510D-03
 -0.26687144D-03  0.17040086D-17  0.13270138D-02 -0.25251088D-03  0.79947991D-18
  0.26273020D-04 -0.23461052D-03 -0.38502118D-03  0.27447990D-03  0.11054128D-03
  0.12435029D-17  0.74510031D-18 -0.10014831D-02 -0.14569106D-03  0.10339522D-03
  0.42295842D-04  0.49831864D-18  0.27888704D-18 -0.10788772D-03 -0.31279652D-04
 -0.56414140D-04 -0.83182617D-04  0.48684023D-02  0.51715960D-02 -0.42022250D-04
 -0.21055032D-17 -0.12618366D-03 -0.90928772D-05  0.48254031D-17 -0.13174328D-02
 -0.29288773D-02  0.73445208D-19 -0.40786890D-03 -0.43155593D-03 -0.35485336D-03
 -0.90719529D-04  0.44557288D-03 -0.25951325D-17 -0.90970556D-18  0.52341042D-03
 -0.10780943D-03 -0.51595856D-05  0.11296902D-03 -0.30559145D-18 -0.79271184D-18
  0.11954943D-03  0.31279652D-04  0.56414140D-04  0.83182617D-04 -0.48684023D-02
 -0.51715960D-02  0.42022250D-04  0.15089400D-17 -0.12618366D-03  0.90928772D-05
 -0.30808874D-17 -0.13174328D-02  0.29288773D-02 -0.59234903D-18 -0.40786890D-03
  0.43155593D-03  0.35485336D-03  0.90719529D-04 -0.44557288D-03 -0.82825307D-18
  0.15215303D-17  0.52341042D-03  0.10780943D-03  0.51595856D-05 -0.11296902D-03
 -0.50381098D-18  0.44212835D-18  0.11954943D-03  0.27925514D-03  0.52059507D-03
  0.87989737D-03  0.13227740D-02  0.16251807D-02  0.13727249D-02  0.51774132D-03
 -0.25623307D-05 -0.21514539D-03 -0.40282005D-03 -0.68583560D-03 -0.10608834D-02
 -0.13971461D-02 -0.14517243D-02 -0.92250562D-03  0.61824181D-03  0.72948530D-03
  0.43239357D-02 -0.10438784D-02  0.46388610D-17  0.43492271D-17  0.30969088D-17
 -0.34616112D-03 -0.32454806D-03 -0.23109755D-03 -0.36361994D-03 -0.34091681D-03
 -0.24275308D-03 -0.18224230D-17  0.96604292D-03 -0.27939851D-02  0.90887753D-19
 -0.26721944D-02  0.16857245D-04  0.21902137D-18  0.29757613D-04 -0.58391299D-04
 -0.21662873D-03 -0.30023748D-03  0.51686622D-03  0.69717472D-17  0.23522629D-17
  0.99765172D-03  0.17678144D-03  0.12662381D-02 -0.14430195D-02 -0.10690598D-17
 -0.13326991D-17 -0.16522878D-02 -0.39344524D-04  0.33739600D-03 -0.29805148D-03
 -0.35735255D-18  0.56790343D-18 -0.49449064D-03 -0.11564670D-17 -0.25494979D-03
  0.15686883D-03  0.29561331D-17 -0.17554616D-03 -0.27899677D-03  0.51326777D-18
  0.94039552D-03 -0.19160973D-03  0.26558881D-19 -0.11263543D-18 -0.48052180D-03
 -0.12742378D-03  0.22234127D-17  0.27117360D-04 -0.16222028D-03 -0.18855064D-17
  0.14144480D-02  0.54449162D-03 -0.45525813D-18 -0.27925514D-03 -0.52059507D-03
 -0.87989737D-03 -0.13227740D-02 -0.16251807D-02 -0.13727249D-02 -0.51774132D-03
  0.25623307D-05  0.21514539D-03  0.40282005D-03  0.68583560D-03  0.10608834D-02
  0.13971461D-02  0.14517243D-02  0.92250562D-03 -0.61824181D-03 -0.72948530D-03
 -0.43239357D-02  0.10438784D-02  0.16905295D-17  0.15849789D-17  0.11285994D-17
 -0.34616112D-03 -0.32454806D-03 -0.23109755D-03  0.36361994D-03  0.34091681D-03
  0.24275308D-03 -0.34803871D-17  0.96604292D-03  0.27939851D-02 -0.30167348D-17
 -0.26721944D-02 -0.16857245D-04 -0.14998112D-18  0.29757613D-04  0.58391299D-04
  0.21662873D-03  0.30023748D-03 -0.51686622D-03 -0.28480412D-17 -0.61330376D-18
  0.99765172D-03 -0.17678144D-03 -0.12662381D-02  0.14430195D-02  0.58793421D-18
 -0.45172524D-19 -0.16522878D-02  0.39344524D-04 -0.33739600D-03  0.29805148D-03
  0.39047868D-18 -0.15313972D-18 -0.49449064D-03  0.90213017D-19 -0.25494979D-03
 -0.15686883D-03  0.26337448D-18 -0.17554616D-03  0.27899677D-03 -0.53401353D-18
  0.94039552D-03  0.19160973D-03 -0.19897012D-17  0.22878409D-18 -0.48052180D-03
  0.12742378D-03  0.22611952D-18  0.27117360D-04  0.16222028D-03 -0.91247179D-18
  0.14144480D-02 -0.54449162D-03  0.11156378D-17  0.46540719D-03  0.86762481D-03
  0.14664388D-02  0.22045378D-02  0.27085294D-02  0.22877861D-02  0.86286874D-03
 -0.42703856D-05 -0.34572973D-03 -0.64731513D-03 -0.11021094D-02 -0.17047957D-02
 -0.22451559D-02 -0.23328608D-02 -0.14824283D-02  0.99348898D-03  0.12602630D-02
 -0.55232130D-02  0.29569136D-03 -0.88854703D-18 -0.83306932D-18 -0.59319498D-18
 -0.30220514D-03 -0.28333653D-03 -0.20175249D-03 -0.57730797D-04 -0.54126292D-04
 -0.38541144D-04  0.16424957D-17  0.10692488D-03 -0.21510850D-02  0.34717693D-18
 -0.22417137D-03  0.18563274D-02 -0.17241952D-18  0.59616523D-04  0.73320901D-05
  0.44357327D-04 -0.38788028D-03  0.34352295D-03 -0.20284574D-17  0.15850212D-17
  0.27159381D-03  0.76388576D-03  0.26868199D-03 -0.10325677D-02 -0.36809465D-18
 -0.30780389D-17 -0.55086694D-02  0.67997305D-04  0.30164811D-03 -0.36964542D-03
 -0.66998770D-18  0.78593227D-18 -0.86624428D-03 -0.19139699D-18  0.21784432D-03
 -0.26080016D-04  0.16280580D-18 -0.35262044D-03 -0.57855032D-04  0.41138516D-18
 -0.30091251D-03  0.13609508D-03  0.23726819D-17  0.14073948D-18 -0.27187038D-03
 -0.58343778D-04  0.11180712D-17  0.21605952D-03  0.69386129D-04 -0.15402896D-17
  0.59955161D-03  0.10564520D-03 -0.31335093D-17 -0.46540719D-03 -0.86762481D-03
 -0.14664388D-02 -0.22045378D-02 -0.27085294D-02 -0.22877861D-02 -0.86286874D-03
  0.42703856D-05  0.34572973D-03  0.64731513D-03  0.11021094D-02  0.17047957D-02
  0.22451559D-02  0.23328608D-02  0.14824283D-02 -0.99348898D-03 -0.12602630D-02
  0.55232130D-02 -0.29569136D-03 -0.12786711D-17 -0.11988354D-17 -0.85364223D-18
 -0.30220514D-03 -0.28333653D-03 -0.20175249D-03  0.57730797D-04  0.54126292D-04
  0.38541144D-04  0.44420887D-18  0.10692488D-03  0.21510850D-02  0.97174104D-19
 -0.22417137D-03 -0.18563274D-02  0.13341125D-18  0.59616523D-04 -0.73320902D-05
 -0.44357327D-04  0.38788028D-03 -0.34352295D-03  0.10875633D-17  0.88851817D-18
  0.27159381D-03 -0.76388576D-03 -0.26868199D-03  0.10325677D-02 -0.40989392D-17
 -0.76168603D-18 -0.55086694D-02 -0.67997305D-04 -0.30164811D-03  0.36964542D-03
 -0.96716411D-18 -0.48338728D-18 -0.86624428D-03  0.59165801D-18  0.21784432D-03