 Molden2AIM, Version 4.0.0 (06/02/2016)           Time: Sun Jul  1 17:34:41 2018
GAUSSIAN             18 MOL ORBITALS    510 PRIMITIVES       10 NUCLEI
  H    1    (CENTRE  1)   0.00000000  3.99600730  1.45717537  CHARGE =  1.0
  H    2    (CENTRE  2)   0.00000000 -3.99600730  1.45717537  CHARGE =  1.0
  H    3    (CENTRE  3)   0.00000000  2.57922483 -3.49514673  CHARGE =  1.0
  H    4    (CENTRE  4)   0.00000000 -2.57922483 -3.49514673  CHARGE =  1.0
  H    5    (CENTRE  5)   0.00000000  0.00000000  4.01565857  CHARGE =  1.0
  C    6    (CENTRE  6)   0.00000000  2.12007429  0.63150490  CHARGE =  6.0
  C    7    (CENTRE  7)   0.00000000 -2.12007429  0.63150490  CHARGE =  6.0
  C    8    (CENTRE  8)   0.00000000  1.34434172 -1.85650474  CHARGE =  6.0
  C    9    (CENTRE  9)   0.00000000 -1.34434172 -1.85650474  CHARGE =  6.0
  N   10    (CENTRE 10)   0.00000000  0.00000000  2.11348482  CHARGE =  7.0
CENTRE ASSIGNMENTS    1  1  1  1  1  1  1  1  1  1  1  1  1  1  1  1  1  1  1  1
CENTRE ASSIGNMENTS    1  1  1  1  1  1  1  2  2  2  2  2  2  2  2  2  2  2  2  2
CENTRE ASSIGNMENTS    2  2  2  2  2  2  2  2  2  2  2  2  2  2  3  3  3  3  3  3
CENTRE ASSIGNMENTS    3  3  3  3  3  3  3  3  3  3  3  3  3  3  3  3  3  3  3  3
CENTRE ASSIGNMENTS    3  4  4  4  4  4  4  4  4  4  4  4  4  4  4  4  4  4  4  4
CENTRE ASSIGNMENTS    4  4  4  4  4  4  4  4  5  5  5  5  5  5  5  5  5  5  5  5
CENTRE ASSIGNMENTS    5  5  5  5  5  5  5  5  5  5  5  5  5  5  5  6  6  6  6  6
CENTRE ASSIGNMENTS    6  6  6  6  6  6  6  6  6  6  6  6  6  6  6  6  6  6  6  6
CENTRE ASSIGNMENTS    6  6  6  6  6  6  6  6  6  6  6  6  6  6  6  6  6  6  6  6
CENTRE ASSIGNMENTS    6  6  6  6  6  6  6  6  6  6  6  6  6  6  6  6  6  6  6  6
CENTRE ASSIGNMENTS    6  6  6  6  6  6  6  6  6  6  7  7  7  7  7  7  7  7  7  7
CENTRE ASSIGNMENTS    7  7  7  7  7  7  7  7  7  7  7  7  7  7  7  7  7  7  7  7
CENTRE ASSIGNMENTS    7  7  7  7  7  7  7  7  7  7  7  7  7  7  7  7  7  7  7  7
CENTRE ASSIGNMENTS    7  7  7  7  7  7  7  7  7  7  7  7  7  7  7  7  7  7  7  7
CENTRE ASSIGNMENTS    7  7  7  7  7  8  8  8  8  8  8  8  8  8  8  8  8  8  8  8
CENTRE ASSIGNMENTS    8  8  8  8  8  8  8  8  8  8  8  8  8  8  8  8  8  8  8  8
CENTRE ASSIGNMENTS    8  8  8  8  8  8  8  8  8  8  8  8  8  8  8  8  8  8  8  8
CENTRE ASSIGNMENTS    8  8  8  8  8  8  8  8  8  8  8  8  8  8  8  8  8  8  8  8
CENTRE ASSIGNMENTS    9  9  9  9  9  9  9  9  9  9  9  9  9  9  9  9  9  9  9  9
CENTRE ASSIGNMENTS    9  9  9  9  9  9  9  9  9  9  9  9  9  9  9  9  9  9  9  9
CENTRE ASSIGNMENTS    9  9  9  9  9  9  9  9  9  9  9  9  9  9  9  9  9  9  9  9
CENTRE ASSIGNMENTS    9  9  9  9  9  9  9  9  9  9  9  9  9  9  9 10 10 10 10 10
CENTRE ASSIGNMENTS   10 10 10 10 10 10 10 10 10 10 10 10 10 10 10 10 10 10 10 10
CENTRE ASSIGNMENTS   10 10 10 10 10 10 10 10 10 10 10 10 10 10 10 10 10 10 10 10
CENTRE ASSIGNMENTS   10 10 10 10 10 10 10 10 10 10 10 10 10 10 10 10 10 10 10 10
CENTRE ASSIGNMENTS   10 10 10 10 10 10 10 10 10 10
TYPE ASSIGNMENTS      1  1  1  1  1  1  2  3  4  2  3  4  2  3  4  5  6  7  8  9
TYPE ASSIGNMENTS     10  5  6  7  8  9 10  1  1  1  1  1  1  2  3  4  2  3  4  2
TYPE ASSIGNMENTS      3  4  5  6  7  8  9 10  5  6  7  8  9 10  1  1  1  1  1  1
TYPE ASSIGNMENTS      2  3  4  2  3  4  2  3  4  5  6  7  8  9 10  5  6  7  8  9
TYPE ASSIGNMENTS     10  1  1  1  1  1  1  2  3  4  2  3  4  2  3  4  5  6  7  8
TYPE ASSIGNMENTS      9 10  5  6  7  8  9 10  1  1  1  1  1  1  2  3  4  2  3  4
TYPE ASSIGNMENTS      2  3  4  5  6  7  8  9 10  5  6  7  8  9 10  1  1  1  1  1
TYPE ASSIGNMENTS      1  1  1  1  1  1  1  1  1  1  1  1  1  1  2  2  2  3  3  3
TYPE ASSIGNMENTS      4  4  4  2  3  4  2  3  4  2  3  4  5  6  7  8  9 10  5  6
TYPE ASSIGNMENTS      7  8  9 10  5  6  7  8  9 10 11 12 13 17 14 15 18 19 16 20
TYPE ASSIGNMENTS     11 12 13 17 14 15 18 19 16 20  1  1  1  1  1  1  1  1  1  1
TYPE ASSIGNMENTS      1  1  1  1  1  1  1  1  1  2  2  2  3  3  3  4  4  4  2  3
TYPE ASSIGNMENTS      4  2  3  4  2  3  4  5  6  7  8  9 10  5  6  7  8  9 10  5
TYPE ASSIGNMENTS      6  7  8  9 10 11 12 13 17 14 15 18 19 16 20 11 12 13 17 14
TYPE ASSIGNMENTS     15 18 19 16 20  1  1  1  1  1  1  1  1  1  1  1  1  1  1  1
TYPE ASSIGNMENTS      1  1  1  1  2  2  2  3  3  3  4  4  4  2  3  4  2  3  4  2
TYPE ASSIGNMENTS      3  4  5  6  7  8  9 10  5  6  7  8  9 10  5  6  7  8  9 10
TYPE ASSIGNMENTS     11 12 13 17 14 15 18 19 16 20 11 12 13 17 14 15 18 19 16 20
TYPE ASSIGNMENTS      1  1  1  1  1  1  1  1  1  1  1  1  1  1  1  1  1  1  1  2
TYPE ASSIGNMENTS      2  2  3  3  3  4  4  4  2  3  4  2  3  4  2  3  4  5  6  7
TYPE ASSIGNMENTS      8  9 10  5  6  7  8  9 10  5  6  7  8  9 10 11 12 13 17 14
TYPE ASSIGNMENTS     15 18 19 16 20 11 12 13 17 14 15 18 19 16 20  1  1  1  1  1
TYPE ASSIGNMENTS      1  1  1  1  1  1  1  1  1  1  1  1  1  1  2  2  2  3  3  3
TYPE ASSIGNMENTS      4  4  4  2  3  4  2  3  4  2  3  4  5  6  7  8  9 10  5  6
TYPE ASSIGNMENTS      7  8  9 10  5  6  7  8  9 10 11 12 13 17 14 15 18 19 16 20
TYPE ASSIGNMENTS     11 12 13 17 14 15 18 19 16 20
EXPONENTS  0.3387000D+02 0.5095000D+01 0.1159000D+01 0.3258000D+00 0.1027000D+00
EXPONENTS  0.2526000D-01 0.1407000D+01 0.1407000D+01 0.1407000D+01 0.3880000D+00
EXPONENTS  0.3880000D+00 0.3880000D+00 0.1020000D+00 0.1020000D+00 0.1020000D+00
EXPONENTS  0.1057000D+01 0.1057000D+01 0.1057000D+01 0.1057000D+01 0.1057000D+01
EXPONENTS  0.1057000D+01 0.2470000D+00 0.2470000D+00 0.2470000D+00 0.2470000D+00
EXPONENTS  0.2470000D+00 0.2470000D+00 0.3387000D+02 0.5095000D+01 0.1159000D+01
EXPONENTS  0.3258000D+00 0.1027000D+00 0.2526000D-01 0.1407000D+01 0.1407000D+01
EXPONENTS  0.1407000D+01 0.3880000D+00 0.3880000D+00 0.3880000D+00 0.1020000D+00
EXPONENTS  0.1020000D+00 0.1020000D+00 0.1057000D+01 0.1057000D+01 0.1057000D+01
EXPONENTS  0.1057000D+01 0.1057000D+01 0.1057000D+01 0.2470000D+00 0.2470000D+00
EXPONENTS  0.2470000D+00 0.2470000D+00 0.2470000D+00 0.2470000D+00 0.3387000D+02
EXPONENTS  0.5095000D+01 0.1159000D+01 0.3258000D+00 0.1027000D+00 0.2526000D-01
EXPONENTS  0.1407000D+01 0.1407000D+01 0.1407000D+01 0.3880000D+00 0.3880000D+00
EXPONENTS  0.3880000D+00 0.1020000D+00 0.1020000D+00 0.1020000D+00 0.1057000D+01
EXPONENTS  0.1057000D+01 0.1057000D+01 0.1057000D+01 0.1057000D+01 0.1057000D+01
EXPONENTS  0.2470000D+00 0.2470000D+00 0.2470000D+00 0.2470000D+00 0.2470000D+00
EXPONENTS  0.2470000D+00 0.3387000D+02 0.5095000D+01 0.1159000D+01 0.3258000D+00
EXPONENTS  0.1027000D+00 0.2526000D-01 0.1407000D+01 0.1407000D+01 0.1407000D+01
EXPONENTS  0.3880000D+00 0.3880000D+00 0.3880000D+00 0.1020000D+00 0.1020000D+00
EXPONENTS  0.1020000D+00 0.1057000D+01 0.1057000D+01 0.1057000D+01 0.1057000D+01
EXPONENTS  0.1057000D+01 0.1057000D+01 0.2470000D+00 0.2470000D+00 0.2470000D+00
EXPONENTS  0.2470000D+00 0.2470000D+00 0.2470000D+00 0.3387000D+02 0.5095000D+01
EXPONENTS  0.1159000D+01 0.3258000D+00 0.1027000D+00 0.2526000D-01 0.1407000D+01
EXPONENTS  0.1407000D+01 0.1407000D+01 0.3880000D+00 0.3880000D+00 0.3880000D+00
EXPONENTS  0.1020000D+00 0.1020000D+00 0.1020000D+00 0.1057000D+01 0.1057000D+01
EXPONENTS  0.1057000D+01 0.1057000D+01 0.1057000D+01 0.1057000D+01 0.2470000D+00
EXPONENTS  0.2470000D+00 0.2470000D+00 0.2470000D+00 0.2470000D+00 0.2470000D+00
EXPONENTS  0.8236000D+04 0.1235000D+04 0.2808000D+03 0.7927000D+02 0.2559000D+02
EXPONENTS  0.8997000D+01 0.3319000D+01 0.3643000D+00 0.8236000D+04 0.1235000D+04
EXPONENTS  0.2808000D+03 0.7927000D+02 0.2559000D+02 0.8997000D+01 0.3319000D+01
EXPONENTS  0.3643000D+00 0.9059000D+00 0.1285000D+00 0.4402000D-01 0.1871000D+02
EXPONENTS  0.4133000D+01 0.1200000D+01 0.1871000D+02 0.4133000D+01 0.1200000D+01
EXPONENTS  0.1871000D+02 0.4133000D+01 0.1200000D+01 0.3827000D+00 0.3827000D+00
EXPONENTS  0.3827000D+00 0.1209000D+00 0.1209000D+00 0.1209000D+00 0.3569000D-01
EXPONENTS  0.3569000D-01 0.3569000D-01 0.1097000D+01 0.1097000D+01 0.1097000D+01
EXPONENTS  0.1097000D+01 0.1097000D+01 0.1097000D+01 0.3180000D+00 0.3180000D+00
EXPONENTS  0.3180000D+00 0.3180000D+00 0.3180000D+00 0.3180000D+00 0.1000000D+00
EXPONENTS  0.1000000D+00 0.1000000D+00 0.1000000D+00 0.1000000D+00 0.1000000D+00
EXPONENTS  0.7610000D+00 0.7610000D+00 0.7610000D+00 0.7610000D+00 0.7610000D+00
EXPONENTS  0.7610000D+00 0.7610000D+00 0.7610000D+00 0.7610000D+00 0.7610000D+00
EXPONENTS  0.2680000D+00 0.2680000D+00 0.2680000D+00 0.2680000D+00 0.2680000D+00
EXPONENTS  0.2680000D+00 0.2680000D+00 0.2680000D+00 0.2680000D+00 0.2680000D+00
EXPONENTS  0.8236000D+04 0.1235000D+04 0.2808000D+03 0.7927000D+02 0.2559000D+02
EXPONENTS  0.8997000D+01 0.3319000D+01 0.3643000D+00 0.8236000D+04 0.1235000D+04
EXPONENTS  0.2808000D+03 0.7927000D+02 0.2559000D+02 0.8997000D+01 0.3319000D+01
EXPONENTS  0.3643000D+00 0.9059000D+00 0.1285000D+00 0.4402000D-01 0.1871000D+02
EXPONENTS  0.4133000D+01 0.1200000D+01 0.1871000D+02 0.4133000D+01 0.1200000D+01
EXPONENTS  0.1871000D+02 0.4133000D+01 0.1200000D+01 0.3827000D+00 0.3827000D+00
EXPONENTS  0.3827000D+00 0.1209000D+00 0.1209000D+00 0.1209000D+00 0.3569000D-01
EXPONENTS  0.3569000D-01 0.3569000D-01 0.1097000D+01 0.1097000D+01 0.1097000D+01
EXPONENTS  0.1097000D+01 0.1097000D+01 0.1097000D+01 0.3180000D+00 0.3180000D+00
EXPONENTS  0.3180000D+00 0.3180000D+00 0.3180000D+00 0.3180000D+00 0.1000000D+00
EXPONENTS  0.1000000D+00 0.1000000D+00 0.1000000D+00 0.1000000D+00 0.1000000D+00
EXPONENTS  0.7610000D+00 0.7610000D+00 0.7610000D+00 0.7610000D+00 0.7610000D+00
EXPONENTS  0.7610000D+00 0.7610000D+00 0.7610000D+00 0.7610000D+00 0.7610000D+00
EXPONENTS  0.2680000D+00 0.2680000D+00 0.2680000D+00 0.2680000D+00 0.2680000D+00
EXPONENTS  0.2680000D+00 0.2680000D+00 0.2680000D+00 0.2680000D+00 0.2680000D+00
EXPONENTS  0.8236000D+04 0.1235000D+04 0.2808000D+03 0.7927000D+02 0.2559000D+02
EXPONENTS  0.8997000D+01 0.3319000D+01 0.3643000D+00 0.8236000D+04 0.1235000D+04
EXPONENTS  0.2808000D+03 0.7927000D+02 0.2559000D+02 0.8997000D+01 0.3319000D+01
EXPONENTS  0.3643000D+00 0.9059000D+00 0.1285000D+00 0.4402000D-01 0.1871000D+02
EXPONENTS  0.4133000D+01 0.1200000D+01 0.1871000D+02 0.4133000D+01 0.1200000D+01
EXPONENTS  0.1871000D+02 0.4133000D+01 0.1200000D+01 0.3827000D+00 0.3827000D+00
EXPONENTS  0.3827000D+00 0.1209000D+00 0.1209000D+00 0.1209000D+00 0.3569000D-01
EXPONENTS  0.3569000D-01 0.3569000D-01 0.1097000D+01 0.1097000D+01 0.1097000D+01
EXPONENTS  0.1097000D+01 0.1097000D+01 0.1097000D+01 0.3180000D+00 0.3180000D+00
EXPONENTS  0.3180000D+00 0.3180000D+00 0.3180000D+00 0.3180000D+00 0.1000000D+00
EXPONENTS  0.1000000D+00 0.1000000D+00 0.1000000D+00 0.1000000D+00 0.1000000D+00
EXPONENTS  0.7610000D+00 0.7610000D+00 0.7610000D+00 0.7610000D+00 0.7610000D+00
EXPONENTS  0.7610000D+00 0.7610000D+00 0.7610000D+00 0.7610000D+00 0.7610000D+00
EXPONENTS  0.2680000D+00 0.2680000D+00 0.2680000D+00 0.2680000D+00 0.2680000D+00
EXPONENTS  0.2680000D+00 0.2680000D+00 0.2680000D+00 0.2680000D+00 0.2680000D+00
EXPONENTS  0.8236000D+04 0.1235000D+04 0.2808000D+03 0.7927000D+02 0.2559000D+02
EXPONENTS  0.8997000D+01 0.3319000D+01 0.3643000D+00 0.8236000D+04 0.1235000D+04
EXPONENTS  0.2808000D+03 0.7927000D+02 0.2559000D+02 0.8997000D+01 0.3319000D+01
EXPONENTS  0.3643000D+00 0.9059000D+00 0.1285000D+00 0.4402000D-01 0.1871000D+02
EXPONENTS  0.4133000D+01 0.1200000D+01 0.1871000D+02 0.4133000D+01 0.1200000D+01
EXPONENTS  0.1871000D+02 0.4133000D+01 0.1200000D+01 0.3827000D+00 0.3827000D+00
EXPONENTS  0.3827000D+00 0.1209000D+00 0.1209000D+00 0.1209000D+00 0.3569000D-01
EXPONENTS  0.3569000D-01 0.3569000D-01 0.1097000D+01 0.1097000D+01 0.1097000D+01
EXPONENTS  0.1097000D+01 0.1097000D+01 0.1097000D+01 0.3180000D+00 0.3180000D+00
EXPONENTS  0.3180000D+00 0.3180000D+00 0.3180000D+00 0.3180000D+00 0.1000000D+00
EXPONENTS  0.1000000D+00 0.1000000D+00 0.1000000D+00 0.1000000D+00 0.1000000D+00
EXPONENTS  0.7610000D+00 0.7610000D+00 0.7610000D+00 0.7610000D+00 0.7610000D+00
EXPONENTS  0.7610000D+00 0.7610000D+00 0.7610000D+00 0.7610000D+00 0.7610000D+00
EXPONENTS  0.2680000D+00 0.2680000D+00 0.2680000D+00 0.2680000D+00 0.2680000D+00
EXPONENTS  0.2680000D+00 0.2680000D+00 0.2680000D+00 0.2680000D+00 0.2680000D+00
EXPONENTS  0.1142000D+05 0.1712000D+04 0.3893000D+03 0.1100000D+03 0.3557000D+02
EXPONENTS  0.1254000D+02 0.4644000D+01 0.5118000D+00 0.1142000D+05 0.1712000D+04
EXPONENTS  0.3893000D+03 0.1100000D+03 0.3557000D+02 0.1254000D+02 0.4644000D+01
EXPONENTS  0.5118000D+00 0.1293000D+01 0.1787000D+00 0.5760000D-01 0.2663000D+02
EXPONENTS  0.5948000D+01 0.1742000D+01 0.2663000D+02 0.5948000D+01 0.1742000D+01
EXPONENTS  0.2663000D+02 0.5948000D+01 0.1742000D+01 0.5550000D+00 0.5550000D+00
EXPONENTS  0.5550000D+00 0.1725000D+00 0.1725000D+00 0.1725000D+00 0.4910000D-01
EXPONENTS  0.4910000D-01 0.4910000D-01 0.1654000D+01 0.1654000D+01 0.1654000D+01
EXPONENTS  0.1654000D+01 0.1654000D+01 0.1654000D+01 0.4690000D+00 0.4690000D+00
EXPONENTS  0.4690000D+00 0.4690000D+00 0.4690000D+00 0.4690000D+00 0.1510000D+00
EXPONENTS  0.1510000D+00 0.1510000D+00 0.1510000D+00 0.1510000D+00 0.1510000D+00
EXPONENTS  0.1093000D+01 0.1093000D+01 0.1093000D+01 0.1093000D+01 0.1093000D+01
EXPONENTS  0.1093000D+01 0.1093000D+01 0.1093000D+01 0.1093000D+01 0.1093000D+01
EXPONENTS  0.3640000D+00 0.3640000D+00 0.3640000D+00 0.3640000D+00 0.3640000D+00
EXPONENTS  0.3640000D+00 0.3640000D+00 0.3640000D+00 0.3640000D+00 0.3640000D+00
MO    1     MO 0.0        OCC NO =    2.0000000  ORB. ENERGY =  -14.795136
  0.54085113D-04  0.97544729D-04  0.14382965D-03  0.13482496D-02  0.21102025D-02
  0.28153305D-04  0.84506035D-16 -0.43991047D-03 -0.27555350D-03 -0.20923654D-16
 -0.30138472D-03  0.48241357D-03  0.40215027D-17 -0.13355689D-03 -0.32886746D-03
  0.11837179D-03  0.97105492D-04 -0.21547729D-03 -0.54607639D-17  0.92555653D-19
  0.72527898D-04  0.96314351D-04 -0.40736915D-04 -0.55577436D-04 -0.17503131D-17
 -0.72462890D-18  0.23178236D-04  0.54085113D-04  0.97544729D-04  0.14382965D-03
  0.13482496D-02  0.21102025D-02  0.28153305D-04 -0.59480454D-18  0.43991047D-03
 -0.27555350D-03  0.52185798D-18  0.30138472D-03  0.48241357D-03  0.44596752D-18
  0.13355689D-03 -0.32886746D-03  0.11837179D-03  0.97105492D-04 -0.21547729D-03
  0.47998801D-18 -0.12093005D-18 -0.72527898D-04  0.96314351D-04 -0.40736915D-04
 -0.55577436D-04  0.31581595D-19 -0.25253753D-19 -0.23178236D-04 -0.20750699D-04
 -0.37424741D-04 -0.55182758D-04  0.10330214D-02 -0.13266215D-03  0.31049974D-05
  0.22118177D-17  0.74825194D-04 -0.15859045D-03 -0.34119533D-17  0.11861477D-03
  0.73751784D-03 -0.51409250D-18 -0.46011242D-05  0.75428377D-05  0.31603090D-04
 -0.19005029D-03  0.15844720D-03 -0.43165687D-19  0.47970413D-18  0.28367777D-03
 -0.28729554D-04  0.91083338D-05  0.19621220D-04 -0.32910913D-19 -0.91450958D-18
  0.22893443D-04 -0.20750699D-04 -0.37424741D-04 -0.55182758D-04  0.10330214D-02
 -0.13266215D-03  0.31049974D-05 -0.59907775D-18 -0.74825194D-04 -0.15859045D-03
  0.60301024D-18 -0.11861477D-03  0.73751784D-03 -0.59996373D-18  0.46011241D-05
  0.75428377D-05  0.31603090D-04 -0.19005029D-03  0.15844720D-03 -0.43621535D-18
  0.51388619D-18 -0.28367777D-03 -0.28729554D-04  0.91083338D-05  0.19621220D-04
  0.27607763D-19  0.44697759D-19 -0.22893443D-04  0.33976002D-03  0.61277118D-03
  0.90353075D-03  0.71436340D-03 -0.71021238D-03 -0.26674927D-04  0.11166547D-17
 -0.13023289D-14  0.17239174D-02 -0.48531632D-18  0.18999009D-13  0.23759606D-02
 -0.19843425D-19  0.30622606D-14  0.43316974D-03  0.21361478D-02  0.15453632D-02
 -0.36815110D-02 -0.16017864D-18 -0.11872995D-19 -0.88234093D-14  0.21500562D-03
  0.90820440D-04 -0.30582606D-03 -0.80350284D-19  0.11458091D-18 -0.44664016D-14
  0.54852232D-03  0.10225703D-02  0.17283240D-02  0.25982371D-02  0.31922345D-02
  0.26963523D-02  0.10169649D-02 -0.50330160D-05 -0.41669690D-03 -0.78018807D-03
 -0.13283369D-02 -0.20547353D-02 -0.27060141D-02 -0.28117220D-02 -0.17867231D-02
  0.11974203D-02  0.12488585D-02 -0.23638928D-02 -0.26811081D-03 -0.40293798D-18
 -0.37777997D-18 -0.26900185D-18 -0.55146113D-03 -0.51702987D-03 -0.36815607D-03
  0.34795158D-03  0.32622672D-03  0.23229286D-03 -0.29252274D-18 -0.17709600D-02
  0.21446683D-02 -0.19330927D-17 -0.61613535D-03 -0.41349451D-03 -0.10543621D-18
 -0.29111987D-04  0.46376378D-04 -0.36726460D-03  0.23867064D-03  0.12859395D-03
  0.25623482D-17  0.19120609D-17 -0.17306760D-02  0.51902841D-03  0.11549162D-03
 -0.63452003D-03 -0.29258690D-17 -0.35252759D-17  0.39368505D-03  0.77469914D-05
 -0.18801312D-03  0.18026613D-03 -0.99906554D-19 -0.93999532D-19  0.53942658D-04
 -0.12544554D-17  0.13969974D-03  0.29818470D-03  0.30757017D-17 -0.37388366D-03
  0.37824727D-03  0.68766447D-18 -0.45215548D-04 -0.12728014D-02  0.28946501D-17
  0.29501002D-18  0.73428352D-04  0.19168912D-03 -0.14282130D-17 -0.79103840D-04
  0.75252113D-04  0.54318289D-18 -0.14118121D-03 -0.65031947D-03 -0.15632926D-17
  0.54852232D-03  0.10225703D-02  0.17283240D-02  0.25982371D-02  0.31922345D-02
  0.26963523D-02  0.10169649D-02 -0.50330160D-05 -0.41669690D-03 -0.78018807D-03
 -0.13283369D-02 -0.20547353D-02 -0.27060141D-02 -0.28117220D-02 -0.17867231D-02
  0.11974203D-02  0.12488585D-02 -0.23638928D-02 -0.26811081D-03  0.14640168D-17
  0.13726088D-17  0.97737923D-18  0.55146113D-03  0.51702987D-03  0.36815607D-03
  0.34795158D-03  0.32622672D-03  0.23229286D-03 -0.12448308D-17  0.17709600D-02
  0.21446683D-02  0.47704436D-18  0.61613535D-03 -0.41349451D-03  0.98325073D-21
  0.29111987D-04  0.46376378D-04 -0.36726460D-03  0.23867064D-03  0.12859395D-03
 -0.17402168D-17 -0.76450885D-18  0.17306760D-02  0.51902841D-03  0.11549162D-03
 -0.63452003D-03  0.75270688D-18  0.10647836D-17 -0.39368505D-03  0.77469914D-05
 -0.18801312D-03  0.18026613D-03  0.46630719D-18 -0.12616246D-18 -0.53942658D-04
 -0.95835507D-19 -0.13969974D-03  0.29818470D-03  0.38610287D-18  0.37388366D-03
  0.37824727D-03 -0.98596352D-19  0.45215548D-04 -0.12728014D-02 -0.81952720D-19
 -0.17937388D-19 -0.73428352D-04  0.19168912D-03  0.14029831D-18  0.79103840D-04
  0.75252113D-04 -0.86486142D-19  0.14118121D-03 -0.65031947D-03  0.18162851D-18
 -0.41384985D-04 -0.77151021D-04 -0.13039882D-03 -0.19603213D-03 -0.24084813D-03
 -0.20343475D-03 -0.76728101D-04  0.37973166D-06  0.29160801D-04  0.54598219D-04
  0.92958140D-04  0.14379211D-03  0.18936915D-03  0.19676667D-03  0.12503639D-03
 -0.83796480D-04 -0.11752471D-03 -0.87454939D-03  0.25403811D-03 -0.87730093D-18
 -0.82252539D-18 -0.58568708D-18 -0.25875028D-03 -0.24259484D-03 -0.17274198D-03
  0.38645883D-04  0.36232971D-04  0.25800034D-04  0.18049044D-18  0.14221699D-02
  0.92217366D-03  0.12078627D-17 -0.22167393D-03  0.10587361D-03  0.70971186D-19
  0.29807830D-04  0.35183152D-05 -0.37044013D-04 -0.38137813D-03  0.41842214D-03
  0.26213009D-18  0.18338251D-18 -0.24991994D-03 -0.48337310D-04  0.31097498D-03
 -0.26263767D-03 -0.11621379D-17 -0.19025321D-17  0.18467299D-02 -0.26642522D-04
  0.16328191D-04  0.10314330D-04  0.80520337D-19 -0.29309799D-19 -0.85047238D-05
  0.37882484D-18 -0.23681736D-03 -0.22465754D-03 -0.25046442D-18 -0.13077049D-03
  0.14822732D-03 -0.88601010D-18  0.84122258D-03  0.52574531D-03  0.13163686D-17
 -0.60564882D-19 -0.13939667D-03 -0.76644506D-04  0.41798576D-18  0.10856632D-03
 -0.34131795D-04 -0.23629112D-18  0.30962369D-03  0.26406531D-03 -0.27934521D-17
 -0.41384985D-04 -0.77151021D-04 -0.13039882D-03 -0.19603213D-03 -0.24084813D-03
 -0.20343475D-03 -0.76728101D-04  0.37973166D-06  0.29160801D-04  0.54598219D-04
  0.92958140D-04  0.14379211D-03  0.18936915D-03  0.19676667D-03  0.12503639D-03
 -0.83796480D-04 -0.11752471D-03 -0.87454939D-03  0.25403811D-03  0.51392396D-18
  0.48183638D-18  0.34309621D-18  0.25875028D-03  0.24259484D-03  0.17274198D-03
  0.38645883D-04  0.36232971D-04  0.25800034D-04 -0.26370905D-18 -0.14221699D-02
  0.92217366D-03 -0.44159175D-18  0.22167393D-03  0.10587361D-03  0.22393089D-19
 -0.29807830D-04  0.35183153D-05 -0.37044013D-04 -0.38137813D-03  0.41842214D-03
  0.70236169D-18  0.30509945D-18  0.24991994D-03 -0.48337310D-04  0.31097498D-03
 -0.26263767D-03 -0.56850745D-18 -0.86960841D-19 -0.18467299D-02 -0.26642522D-04
  0.16328191D-04  0.10314330D-04 -0.35848739D-18 -0.33923682D-18  0.85047239D-05
 -0.19541031D-20  0.23681736D-03 -0.22465754D-03  0.61403586D-19  0.13077049D-03
  0.14822732D-03 -0.55541277D-19 -0.84122258D-03  0.52574531D-03  0.23019116D-18
 -0.64599649D-19  0.13939667D-03 -0.76644506D-04 -0.96317250D-19 -0.10856632D-03
 -0.34131795D-04  0.29011620D-18 -0.30962369D-03  0.26406531D-03 -0.95896638D-18
  0.41313388D+00  0.76981415D+00  0.13019487D+01  0.19606626D+01  0.24274275D+01
  0.20656313D+01  0.78601080D+00 -0.36812239D-02 -0.16278853D-02 -0.30523002D-02
 -0.51928708D-02 -0.80639800D-02 -0.10701371D-01 -0.11277776D-01 -0.69929403D-02
  0.46517066D-02  0.40499975D-01  0.70362240D-03 -0.34574617D-03  0.34375582D-17
  0.33017335D-17  0.23154035D-17 -0.88883095D-14 -0.85371151D-14 -0.59868144D-14
 -0.44073532D-03 -0.42332101D-03 -0.29686191D-03 -0.78996855D-18  0.24467761D-13
  0.26698887D-02 -0.67090767D-19 -0.69237511D-13 -0.84605486D-03  0.63198545D-19
 -0.45028827D-14 -0.13680750D-03 -0.47335718D-02  0.77489445D-03  0.39586774D-02
  0.30295823D-18  0.20065865D-17 -0.24181668D-14  0.10653739D-02 -0.10678462D-02
  0.24722860D-05  0.12118192D-18 -0.14711992D-18 -0.14973082D-13  0.25882159D-03
 -0.11847445D-03 -0.14034713D-03  0.15556381D-18 -0.34354196D-19  0.78028049D-14
  0.23937385D-18  0.43707050D-15  0.18702584D-02 -0.16934959D-19 -0.46775553D-14
 -0.23021473D-02 -0.70118660D-18  0.33663438D-14 -0.33086279D-02 -0.76733105D-18
  0.14870713D-20  0.16897054D-14 -0.71366607D-03 -0.22151969D-18  0.50600266D-14
  0.29959375D-03  0.21705848D-18 -0.10129143D-13  0.18414045D-02 -0.24031853D-19
MO    2     MO 0.0        OCC NO =    2.0000000  ORB. ENERGY =  -10.559948
 -0.14248512D-03 -0.25697778D-03 -0.37891358D-03 -0.27366071D-02 -0.98935176D-03
 -0.15166602D-03 -0.70901759D-16 -0.65137011D-03 -0.20844949D-03 -0.79211703D-17
 -0.43596744D-03 -0.29484326D-03  0.48298579D-18  0.26178454D-03 -0.27428273D-03
 -0.10235077D-02  0.14505533D-02 -0.42704556D-03 -0.14054480D-16 -0.72874649D-16
  0.17657197D-02 -0.25486144D-03  0.65001493D-04  0.18985994D-03  0.26550054D-16
  0.15139006D-16  0.59402077D-04  0.14248512D-03  0.25697778D-03  0.37891358D-03
  0.27366071D-02  0.98935175D-03  0.15166602D-03 -0.11942266D-17 -0.65137011D-03
  0.20844949D-03  0.25968697D-17 -0.43596744D-03  0.29484326D-03  0.65972729D-18
  0.26178454D-03  0.27428273D-03  0.10235077D-02 -0.14505533D-02  0.42704556D-03
  0.18519848D-18 -0.86323044D-18  0.17657197D-02  0.25486144D-03 -0.65001493D-04
 -0.18985994D-03  0.94585611D-18 -0.25278604D-18  0.59402077D-04 -0.87006041D-04
 -0.15691898D-03 -0.23137694D-03 -0.25088509D-02 -0.56059350D-02  0.21396995D-03
  0.31058693D-17  0.57197537D-03 -0.48914793D-03 -0.14453105D-17 -0.82738365D-03
 -0.38740588D-03 -0.66904890D-19  0.35580774D-03 -0.35794432D-03 -0.14582104D-03
  0.31202166D-03 -0.16620062D-03 -0.14903948D-17  0.16336587D-17  0.29312257D-03
 -0.19048622D-03  0.52998418D-04  0.13748780D-03  0.85911508D-18 -0.36206592D-18
  0.86169075D-04  0.87006041D-04  0.15691898D-03  0.23137694D-03  0.25088509D-02
  0.56059350D-02 -0.21396995D-03 -0.13244856D-19  0.57197537D-03  0.48914793D-03
 -0.95078808D-19 -0.82738365D-03  0.38740588D-03 -0.10112806D-17  0.35580774D-03
  0.35794432D-03  0.14582104D-03 -0.31202166D-03  0.16620062D-03 -0.10678590D-17
 -0.66867037D-18  0.29312257D-03  0.19048622D-03 -0.52998418D-04 -0.13748780D-03
  0.35043390D-18  0.78627487D-20  0.86169075D-04  0.87761133D-14  0.15828082D-13
  0.23338497D-13  0.41966910D-12  0.12147569D-11 -0.81670316D-15 -0.87299321D-18
  0.37920419D-04 -0.45953433D-13  0.19811976D-17 -0.28469268D-02 -0.24960663D-14
 -0.30299373D-18 -0.23873056D-03 -0.22730380D-12  0.35436304D-13 -0.22027357D-15
 -0.35216030D-13  0.47491477D-18 -0.29477234D-17  0.96161785D-03  0.21232398D-13
 -0.30314211D-14 -0.18200977D-13 -0.97092543D-18 -0.32848714D-19  0.41307412D-03
 -0.23379800D+00 -0.43585264D+00 -0.73666774D+00 -0.11074529D+01 -0.13606339D+01
 -0.11492728D+01 -0.43346342D+00  0.21452346D-02  0.24000684D-02  0.44936853D-02
  0.76508838D-02  0.11834754D-01  0.15585954D-01  0.16194805D-01  0.10291072D-01
 -0.68968369D-02 -0.24929550D-01 -0.10112232D-02 -0.24209269D-02 -0.32884569D-16
 -0.30831374D-16 -0.21953775D-16  0.81193807D-03  0.76124355D-03  0.54205076D-03
 -0.19215669D-02 -0.18015911D-02 -0.12828402D-02  0.89911952D-17  0.25508680D-02
  0.40879603D-02 -0.35241380D-17  0.37115714D-02 -0.20695759D-02 -0.12285431D-18
  0.21269241D-03  0.16562641D-04  0.28127221D-02 -0.17524119D-02 -0.10603102D-02
  0.63336962D-17  0.43469607D-18 -0.64923913D-03 -0.85087242D-03  0.28529399D-03
  0.56557844D-03  0.62406735D-17  0.25941517D-17 -0.13092031D-02  0.54083719D-04
 -0.29059046D-03  0.23650674D-03  0.15938906D-18 -0.74886822D-19  0.29440750D-03
 -0.24919503D-17  0.13462657D-04  0.58114878D-03  0.79076022D-17  0.55771443D-03
 -0.20468482D-03 -0.43175113D-18 -0.59810240D-03 -0.15387615D-02  0.23386081D-17
 -0.60401827D-18  0.72097380D-04 -0.54867383D-03  0.20817634D-17 -0.61820803D-04
  0.19687859D-03 -0.26970856D-18 -0.15447134D-03  0.14491429D-02  0.35808406D-17
  0.23379800D+00  0.43585264D+00  0.73666774D+00  0.11074529D+01  0.13606339D+01
  0.11492728D+01  0.43346342D+00 -0.21452346D-02 -0.24000684D-02 -0.44936853D-02
 -0.76508838D-02 -0.11834754D-01 -0.15585954D-01 -0.16194805D-01 -0.10291072D-01
  0.68968369D-02  0.24929550D-01  0.10112232D-02  0.24209269D-02  0.13531324D-16
  0.12686476D-16  0.90335266D-17  0.81193807D-03  0.76124355D-03  0.54205076D-03
  0.19215669D-02  0.18015911D-02  0.12828402D-02 -0.19297695D-17  0.25508680D-02
 -0.40879603D-02  0.30695854D-17  0.37115714D-02  0.20695759D-02  0.20617522D-19
  0.21269241D-03 -0.16562641D-04 -0.28127221D-02  0.17524119D-02  0.10603102D-02
  0.23292282D-18 -0.14819412D-17 -0.64923913D-03  0.85087242D-03 -0.28529399D-03
 -0.56557844D-03  0.63486587D-18  0.20935362D-18 -0.13092031D-02 -0.54083719D-04
  0.29059046D-03 -0.23650674D-03  0.69336028D-18 -0.12256023D-19  0.29440750D-03
  0.75074420D-18  0.13462657D-04 -0.58114878D-03 -0.98190974D-18  0.55771443D-03
  0.20468482D-03 -0.12703229D-17 -0.59810240D-03  0.15387615D-02 -0.46302764D-18
  0.29336619D-19  0.72097380D-04  0.54867383D-03 -0.81422973D-18 -0.61820803D-04
 -0.19687859D-03  0.72621988D-18 -0.15447134D-03 -0.14491429D-02  0.15077120D-17
 -0.32276433D-02 -0.60170609D-02 -0.10169893D-01 -0.15288680D-01 -0.18783910D-01
 -0.15866015D-01 -0.59840771D-02  0.29615532D-04  0.40111001D-03  0.75100451D-03
  0.12786494D-02  0.19778762D-02  0.26047934D-02  0.27065472D-02  0.17198893D-02
 -0.11526298D-02 -0.22245683D-02  0.83795965D-02  0.49522588D-02  0.70099660D-18
  0.65722887D-18  0.46798611D-18 -0.20069527D-03 -0.18816457D-03 -0.13398438D-03
 -0.61687838D-03 -0.57836270D-03 -0.41182869D-03 -0.18325099D-17 -0.21045893D-02
 -0.12200606D-02  0.45337328D-17 -0.12991778D-02 -0.97161286D-03  0.14528450D-18
 -0.27863730D-03  0.15279484D-03  0.23552427D-04  0.36679996D-03 -0.39035239D-03
 -0.71314860D-18 -0.10519382D-17 -0.10310943D-02 -0.10763026D-02 -0.26757948D-03
  0.13438821D-02  0.78021649D-18 -0.14741112D-17  0.34291722D-02 -0.17103301D-03
  0.47620802D-04  0.12341221D-03 -0.36571239D-18  0.59930332D-18 -0.70903135D-03
  0.84508545D-18 -0.49342280D-03  0.86774883D-03  0.62356426D-18 -0.26603220D-03
 -0.64457160D-03 -0.31588206D-17  0.17463006D-02 -0.19586749D-02  0.19070153D-17
 -0.43267974D-19 -0.27335582D-03  0.55547648D-03 -0.33973902D-18 -0.28046108D-03
 -0.14077381D-03  0.46954294D-18  0.11005285D-02 -0.15256556D-02  0.11762103D-17
  0.32276433D-02  0.60170609D-02  0.10169893D-01  0.15288680D-01  0.18783910D-01
  0.15866015D-01  0.59840771D-02 -0.29615532D-04 -0.40111001D-03 -0.75100451D-03
 -0.12786494D-02 -0.19778762D-02 -0.26047934D-02 -0.27065472D-02 -0.17198893D-02
  0.11526298D-02  0.22245683D-02 -0.83795965D-02 -0.49522588D-02 -0.11163578D-17
 -0.10466564D-17 -0.74528169D-18 -0.20069527D-03 -0.18816457D-03 -0.13398438D-03
  0.61687838D-03  0.57836270D-03  0.41182869D-03  0.20394713D-17 -0.21045893D-02
  0.12200606D-02 -0.36700890D-17 -0.12991778D-02  0.97161286D-03 -0.10518343D-18
 -0.27863730D-03 -0.15279484D-03 -0.23552427D-04 -0.36679996D-03  0.39035239D-03
 -0.10786444D-18 -0.49147647D-18 -0.10310943D-02  0.10763026D-02  0.26757948D-03
 -0.13438821D-02  0.79709682D-18  0.89585289D-18  0.34291722D-02  0.17103301D-03
 -0.47620802D-04 -0.12341221D-03 -0.99684368D-18 -0.10758356D-17 -0.70903135D-03
 -0.41440628D-18 -0.49342280D-03 -0.86774883D-03  0.66566990D-18 -0.26603220D-03
  0.64457160D-03  0.57754894D-18  0.17463006D-02  0.19586749D-02 -0.23959571D-18
  0.20558752D-18 -0.27335582D-03 -0.55547648D-03 -0.45203033D-18 -0.28046108D-03
  0.14077381D-03 -0.16473224D-18  0.11005285D-02  0.15256556D-02  0.12530754D-17
  0.55855029D-14  0.10407762D-13  0.17602135D-13  0.26507840D-13  0.32818426D-13
  0.27926999D-13  0.10626738D-13 -0.49769549D-16 -0.91631964D-14 -0.17181079D-13
 -0.29230127D-13 -0.45391301D-13 -0.60236897D-13 -0.63481421D-13 -0.39362531D-13
  0.26183971D-13  0.52313626D-13 -0.94549315D-12 -0.27235594D-12 -0.23528664D-17
 -0.22599000D-17 -0.15847979D-17 -0.94109532D-03 -0.90391081D-03 -0.63388465D-03
 -0.71515409D-13 -0.68689696D-13 -0.48169956D-13 -0.56861524D-18 -0.30638610D-02
  0.95290576D-13 -0.92747134D-18  0.54906981D-02 -0.28208397D-12  0.12263447D-18
  0.22652585D-03  0.41700161D-13 -0.76163106D-13  0.17997534D-13  0.58165572D-13
 -0.18559649D-17  0.24577071D-17  0.30842189D-02  0.71081131D-13 -0.90282526D-14
 -0.62052879D-13 -0.18649122D-18 -0.12084665D-17 -0.11425096D-02 -0.31754634D-13
  0.12994958D-12 -0.98194947D-13  0.20808377D-17  0.18177876D-20 -0.32555469D-03
 -0.35501329D-18  0.14551608D-03 -0.75750444D-14  0.16620847D-17 -0.84299606D-03
 -0.14254431D-12 -0.59704481D-18  0.40644781D-03  0.16526944D-12  0.19273880D-17
  0.54201296D-18 -0.42668974D-03 -0.30721946D-13 -0.10645522D-17 -0.12082509D-02
  0.53374715D-13 -0.56148665D-18  0.24883202D-02  0.38791123D-13  0.75156507D-18